/*--------------------------------*- C++ -*----------------------------------*\
  =========                 |
  \\      /  F ield         | OpenFOAM: The Open Source CFD Toolbox
   \\    /   O peration     | Website:  https://openfoam.org
    \\  /    A nd           | Version:  6
     \\/     M anipulation  |
\*---------------------------------------------------------------------------*/
FoamFile
{
    version     2.0;
    format      ascii;
    class       pointScalarField;
    location    "0.94";
    object      E;
}
// * * * * * * * * * * * * * * * * * * * * * * * * * * * * * * * * * * * * * //

dimensions      [1 -1 -2 0 0 0 0];

internalField   nonuniform List<scalar> 
28033
(
171211.7
172239.84
-3529824.3
-1634640.6
203239.98
203536.58
-2450434.7
-5285277.6
116750.66
81321.022
55694.757
38641.59
23572.656
14830.83
10090.869
8843.7247
13514.552
20123.534
33988.251
52314.244
76182.479
103906.67
160252.77
-1969970.4
-1957344.6
-1946589.5
-1937944.7
-1928843
-1919533.7
-1911336.3
-1902416.3
-1893780.6
-1885177.8
-1876716.9
-1868110.5
-1859289.4
-1851302.6
-1403253.4
144450.3
98308.37
95329.995
95026.213
97211.263
98048.774
98642.466
98590.591
97764.43
96617.238
94961.565
93002.347
90776.373
88361.58
85790.86
83091.03
80513.92
77598.433
74992.024
72038.014
69495.622
66719.364
64099.085
61456.316
58894.578
56582.689
53943.241
51692.563
49417.834
47107.257
45002.262
42947.983
40986.084
38755.299
36877.104
35075.112
33330.278
31651.959
29933.787
28423.235
26844.034
25338.065
23950.273
22579.348
21278.467
20022.695
18800.844
17628.372
16486.162
15393.537
14321.67
13299.448
12303.617
11344.228
10426.973
9537.5293
8693.3845
7882.3124
7118.1224
6396.0712
5704.9158
5088.8918
4493.0809
4028.3432
3441.4498
3079.7935
2773.3941
2236.4675
2034.5075
1729.2225
1487.7102
1157.5658
1061.2526
725.86008
759.82702
415.44175
538.32569
223.48617
387.82705
99.22579
335.24885
-61.594384
252.03572
-136.44208
93.714114
-69.818732
269.04426
-1.1333697
432.70228
798.81767
120.11455
1363.982
193.05245
-1623.6806
-269.03411
129597.76
76433.239
86476.188
84305.082
85851.313
87320.812
87245.656
87484.701
86825.159
85358.289
84196.507
81918.903
79912.983
77744.941
75233.255
72973.45
70162.959
67719.303
65191.293
62768.745
60089.18
57907.721
55244.062
53110.454
50663.85
48636.656
46365.43
44231.358
42176.758
39980.683
38078.609
36137.704
34451.191
32758.734
31198.467
29572.428
27838.832
26322.907
24814.006
23516.528
22122.37
20856.189
19621.891
18421.575
17272.785
16163.499
15085.839
14047.649
13047.582
12068.379
11139.293
10228.528
9359.703
8522.0084
7724.5655
6954.5709
6232.9959
5549.5963
4893.0684
4305.0591
3727.5118
3224.0044
2721.6752
2315.4828
1881.076
1590.9842
1270.574
1109.5227
858.0286
502.07904
341.95721
74.166089
59.502375
-164.59756
-153.85698
-366.10085
-310.88762
-465.93824
-463.22613
-510.02497
-529.65857
-529.18169
-553.04723
-479.45597
-556.13536
-418.76677
-420.97427
-373.9655
-341.77905
-44.679201
-423.59764
-79.407019
55.785347
84.644853
-543.27885
134103.12
90351.481
64888.038
49572.027
28411.542
17901.263
13003.271
11709.079
16104.239
27632.992
39059.349
61088.973
87001.28
124704.82
159467.45
258771.6
103855.71
73648.827
97498.676
87616.379
95744.827
92212.956
94749.19
91424.947
91937.042
89842.755
86943.508
85586.953
82447.122
81499.326
78231.831
76524.485
70711.182
70819.522
65292.135
63493.504
61767.127
58819.061
56502.203
53898.04
50756.111
49989.829
45792.79
45341.076
42278.571
40218.923
38310.298
36206.006
34379.032
31493.233
31789.228
28761.498
27319.6
25712.879
24135.827
22684.978
21266.522
19897.984
18600.741
17338.032
16131.845
14949.749
13819.941
12709.054
11647.729
10613.886
9622.2562
8665.6821
7743.4022
6866.7829
6012.4165
5214.1642
4440.3671
3716.0533
3027.6662
2387.9447
1780.8815
1233.6078
714.05429
237.46119
-148.52107
-600.8885
-1632.9624
459.96215
-1585.1371
-1705.555
-1967.2485
-2178.747
-2339.6404
-2492.5943
-2640.3236
-2743.3256
-2849.007
-2930.4575
-2984.7243
-3074.208
-3081.5113
-3176.1029
-3145.1383
-3233.4443
-3155.8559
-3221.147
-3123.7424
-3084.225
-2942.6326
-2853.4337
-2465.8051
-2247.1477
-1385.6387
-4849.7724
-3932558.7
-3704095.9
-3306356.5
-3985794
-3336819.4
-4022574.6
-3368082.7
-3805429.2
-4078639.8
-3844412
-3431639.9
-4138237.3
-3464831.3
-4182730.8
-3949871.1
-7000.5478
-2173.6438
516.60232
475.27367
87.056298
-120.01267
-384.73959
-481.5574
-666.3638
-704.1932
-713.71897
-777.41977
-749.06156
-875.35733
-858.14069
-914.77184
-846.37884
-833.71608
-743.74084
-660.54487
-558.82981
-427.44065
-270.07624
-92.747414
91.521472
738.83274
1643.3251
-126.45883
1373.0021
1662.4573
2144.4819
2644.5534
3172.9275
3759.3135
4394.0435
5072.438
5802.478
6574.1874
7401.0561
8258.8873
9174.6669
10115.929
11112.617
12132.715
13203.311
14300.965
15444.559
16613.71
17837.334
19085.221
20382.642
21704.698
23125.74
24519.33
26002.142
27582.729
29517.142
31483.021
32148.546
34668.384
36834.899
37450.366
40293.307
42646.507
44597.48
46971.904
48864.526
51066.143
53583.442
56432.616
59011.664
61525.553
64089.403
67229.105
69468.326
72630.624
75174.923
78429.903
80976.744
83767.915
87628.217
89664.343
91860.531
94990.099
97541.632
97490.033
100775.65
100681.31
100823.16
97916.057
99196.483
99680.998
97965.239
90466.299
155193.54
129439.07
120651.26
117328.57
117505.16
120079.95
121578.36
121534.89
122517.44
122625.22
121963.1
118775.19
116773.06
119010.58
122063.98
135313.37
116080.89
119691.4
116699.51
122813.64
122982.22
122662.15
130650.74
138962.13
135114.99
133408.21
126828.82
121557.63
119664.82
116242.51
131437.3
-1838137.5
-1838939.6
-1838515.9
-1838702.6
-1838734.6
-1838745.8
-1838786.5
-1838768.7
-1838759.5
-1838831.2
-1838827.8
-1838899.5
-1838826.3
-1839093.6
-1839478.4
-3969296.8
-3969870.7
-3970182.2
-3970274.2
-3969885.1
-3970001.6
-3970048.2
-3970069.3
-3970144.1
-3970120.4
-3970219.4
-3970454.1
-3970314.2
-3971413.8
-3970093.4
109170.45
87076.411
81321.803
80167.374
80737.932
81170.802
81837.247
81787.105
81425.239
80726.145
79526.327
78088.819
76335.599
74529.992
72360.049
70326.7
68044.816
65839.629
63526.703
61354.558
59111.346
56833.503
54762.271
52496.831
50515.089
48402.814
46351.121
44469.156
42545.766
40664.446
38779.622
37131.857
35338.385
33786.575
32282.345
30677.274
29336.962
27764.721
26517.384
25183.216
23880.098
22575.397
21533.177
20278.902
19276.977
18146.335
17161.547
16156.933
15211.246
14283.723
13405.917
12536.652
11719.014
10915.075
10154.524
9412.637
8714.7965
8040.2646
7406.0704
6803.4824
6231.924
5700.7064
5189.1921
4746.6914
4139.7481
3891.0264
3558.9396
3399.0698
3116.2745
2691.8122
2572.9813
2267.5214
2205.6588
1975.8372
1851.1397
1739.4278
1570.9618
1552.4714
1317.928
1430.1589
1142.8077
1262.8886
1360.6072
1035.4745
1115.5474
876.81147
1125.5643
798.20201
1409.2535
471.03349
1472.9986
1024.0338
887.8093
3440.9176
2761.0161
73036.043
64282.293
64193.698
62840.627
62984.507
62851.98
62780.374
62732.354
62331.2
61802.596
60734.287
59889.508
58532.075
57186.402
55529.276
54127.409
52399.386
50716.673
49000.568
47273.073
45571.679
43867.649
42279.722
40555.473
39007.189
37420.934
35938.644
34363.884
32938.147
31515.535
30137.294
28802.432
27521.438
26206.922
24969.739
23682.921
22673.447
21464.249
20474.773
19409.186
18517.72
17451.472
16630.472
15693.115
14897.891
14076.211
13295.284
12558.863
11824.906
11145.776
10465.205
9828.4898
9207.5114
8609.1479
8039.7215
7487.6151
6965.5393
6465.1867
5986.2291
5545.9662
5110.8877
4729.881
4362.4728
4016.5818
3618.4634
3682.032
2977.7723
3016.3618
2714.7523
2585.8378
2431.9916
2166.0649
2079.1948
1864.7636
1873.3047
1680.6813
1700.8198
1546.382
1617.7659
1413.3186
1618.1378
1254.4009
1636.1117
1356.1772
1766.9987
1516.3563
1904.0321
1629.9841
1734.5019
1831.3499
2059.1647
1382.9374
2828.1852
1752.3658
2012.3935
46454.492
42506.63
46408.855
46272.752
46960.806
46216.648
46259.013
45880.557
45506.758
44905.27
44322.695
43539.901
42547.867
41543.981
40497.234
39307.902
38064.996
36858.487
35638.181
34395.261
33223.456
31879.895
30780.067
29434.318
28392.688
27149.784
26043.734
24914.486
23916.166
22809.686
21808.077
20844.607
19881.565
18956.621
18137.314
17186.806
16380.768
15437.901
14785.191
14081.721
13219.007
12671.008
12010.793
11331.813
10768.171
10146.185
9589.8686
9068.8285
8534.8285
8056.4759
7572.2599
7124.5145
6683.8041
6266.2841
5864.9947
5479.3885
5112.0283
4762.054
4425.4188
4112.2605
3813.0036
3533.4409
3277.137
3009.5033
2868.8087
2573.5713
2794.203
2349.1158
2002.7699
1755.4284
1633.6372
1454.1462
1388.4282
1260.2131
1231.8432
1086.1048
1094.4583
1011.7907
970.09356
960.83449
898.74395
949.06579
830.99243
890.76162
1015.3966
1206.2208
1318.3394
960.05333
1679.0064
929.65931
1542.4985
1486.341
1781.9889
1724.9402
1816.374
29891.95
26468.538
29885.618
31357.15
32057.792
32123.03
32071.968
32011.264
31499.396
31375.008
30689.499
30355.427
29545.88
29087.547
28125.317
27535.264
26631.842
25844.271
24948.721
24090.218
23229.256
22377.602
21597.354
20732.307
19992.8
19136.81
18454.707
17625.645
16901.072
16162.582
15482.57
14764.037
14117.285
13443.947
12900.084
12072.558
11797.943
11220.486
10945.802
10305.825
9906.6136
9336.2793
8865.0461
8426.8797
8068.1388
7636.5841
7286.1161
6911.2178
6554.4864
6229.2318
5892.9923
5592.1097
5285.0801
5001.9094
4721.6312
4458.8952
4197.1396
3961.1631
3712.1851
3508.4685
3276.4615
3087.9349
2894.9113
2738.4826
2517.4271
2465.7469
2187.4188
2260.4495
2065.6193
2005.0655
2016.6109
1939.55
1739.8178
1620.1228
1621.9686
1498.9308
1685.3178
1377.287
1708.2556
1346.248
1732.2232
1299.6271
1858.6352
1250.3301
1554.3584
1247.4658
1493.6795
1434.5253
1736.3647
1179.9808
2421.2268
1029.7259
2818.3165
1307.2777
2419.5286
18575.352
14799.746
17962.771
18860.696
20155.656
20159.835
20402.17
20057.293
19973.025
19690.329
19423.72
19105.315
18714.297
18305.267
17820.488
17400.16
16779.436
16360.355
15798.596
15283.848
14794.481
14211.599
13744.68
13142.752
12688.741
12123.91
11673.444
11127.106
10753.441
10225.187
9817.2239
9364.6423
8944.2428
8556.3696
8128.6693
7633.0161
7723.0826
6737.927
7002.8979
6785.4909
6364.2108
6024.2184
5781.3816
5445.0884
5158.4273
4843.1955
4605.8415
4336.7727
4112.1044
3886.4402
3672.0199
3473.6603
3274.8863
3092.912
2913.0184
2741.9019
2574.9439
2420.6485
2259.7402
2118.9752
1982.4668
1834.1819
1714.1325
1620.4384
1475.0321
1380.5309
1464.3926
1163.7153
1194.7958
969.71637
1044.0407
929.9604
1042.8449
1243.5786
1194.8073
1272.2162
1199.379
1245.3992
1240.8374
1246.0857
1188.796
1411.447
1071.8465
1429.2604
1207.4676
1349.6258
1536.1484
1275.7434
1628.1875
1515.0722
1849.8678
1410.1264
2385.9348
1229.0722
2615.927
10916.268
7344.8472
8807.1106
9461.5603
10436.964
10943.705
10986.275
11290.616
11125.133
11265.246
10957.64
11059.3
10676.427
10705.428
10316.907
10244.601
9883.5879
9748.2373
9359.8409
9181.6929
8852.9331
8593.6315
8318.268
8021.8906
7799.8926
7486.909
7259.6665
6958.8047
6702.2084
6397.3788
6189.0165
5889.4462
5686.3014
5427.1258
5180.4042
5059.905
4740.5174
5089.3648
4926.7883
4411.9148
4310.4617
4032.6374
3897.5502
3721.7192
3550.4819
3395.0242
3250.3602
3116.9655
2985.1259
2865.6671
2743.7864
2636.5729
2526.1328
2424.7188
2322.9885
2226.8196
2129.5071
2040.6029
1943.6164
1867.0544
1757.1252
1706.0956
1602.0406
1527.9213
1459.8234
1417.1154
1309.607
1277.9955
1282.8519
1236.1537
1114.0185
1122.2142
886.42122
797.51634
1031.1914
916.01233
1056.9858
871.73771
1119.5008
782.45726
1258.9863
711.63484
1316.4822
897.05217
1237.9759
1229.9902
1296.8721
1253.3398
1687.6983
1112.6622
2089.6762
1062.3081
2748.6157
1038.7272
2854.662
7308.8793
2668.6295
3479.2315
3280.8688
4130.5238
4300.3193
4712.6165
4793.1414
4955.2708
5012.4734
5061.2094
5124.6371
5072.5371
5099.8875
4959.3823
4993.765
4764.8932
4778.4224
4561.6959
4509.511
4329.5376
4220.5106
4072.9868
3931.722
3821.3272
3638.5203
3558.392
3381.4128
3312.5176
3156.4374
3055.9653
2902.7549
2811.0658
2642.6286
2597.6062
2392.6238
2410.7735
2164.0401
2254.8963
1938.7933
2114.4272
1970.7998
1961.5534
1887.8595
1822.2124
1752.9885
1717.5587
1656.9986
1623.233
1583.1952
1554.8394
1521.4759
1497.296
1468.1302
1444.8267
1416.1819
1390.2052
1367.1245
1331.5428
1308.0921
1279.2597
1250.0833
1207.6486
1200.2036
1162.5598
1126.3062
1125.5215
1104.5089
1117.1939
1030.6299
1181.1947
1036.1188
1080.773
1080.1557
1041.8161
1145.4536
985.52411
1200.1918
1040.0045
1284.5164
1104.5713
1340.0316
1283.449
1288.4439
1442.1215
1277.1808
1438.1948
1394.0252
1592.9361
1396.265
2086.9859
1393.613
2579.335
991.90522
3277.0324
5861.2469
1144.4136
790.9885
477.69935
697.60652
1132.9733
1316.4077
1675.7347
1817.9741
2146.5844
2148.3547
2473.1618
2405.6755
2657.0036
2607.7965
2783.277
2694.3291
2871.0137
2730.3439
2865.0489
2739.4106
2781.7714
2726.2994
2739.5216
2699.8306
2657.8936
2634.2619
2556.9172
2521.2201
2423.0434
2389.9513
2322.0337
2250.5969
2214.2375
2133.6394
2102.0838
2009.3327
2063.8296
1910.4568
1844.361
1787.7932
1672.2609
1612.2338
1583.4413
1539.4599
1537.5117
1508.3943
1493.4294
1472.5605
1460.34
1439.4698
1431.2113
1409.8351
1399.7297
1381.4626
1361.5064
1345.1956
1323.457
1289.5235
1283.5817
1237.4531
1215.4348
1186.9253
1165.3758
1107.2532
1107.1844
1069.282
1032.6087
967.2979
1019.8271
876.62367
911.10474
897.25407
843.4016
918.29888
852.27779
931.38811
880.00751
955.26464
823.15792
1059.9154
752.1967
1141.531
776.99304
1178.7235
990.65925
1245.1742
1311.9537
1378.7097
1342.0129
1829.303
864.12583
2499.9882
979.46448
3352.6907
7841.8783
2125.5944
1396.405
583.48345
584.12595
785.95949
948.90474
1132.059
1343.5403
1529.3957
1693.7055
1857.1149
1960.661
2103.2534
2102.4063
2242.8882
2158.1463
2287.0167
2191.4707
2306.5964
2348.2431
2470.8789
2321.3282
2291.4847
2198.1076
2149.46
2104.1553
2017.3926
2011.2944
1903.9716
1898.4777
1773.1078
1742.2302
1662.723
1588.525
1528.4567
1467.2327
1422.2951
1350.8313
1292.1387
1247.2591
1222.7855
1197.3612
1160.1832
1128.1139
1072.8086
1052.9529
1017.1286
1003.961
979.79617
974.98915
956.54247
950.62935
941.68921
931.27543
921.25829
914.40992
894.97565
888.55915
874.627
846.8794
847.97171
820.9105
804.45321
787.53975
793.98705
758.94075
749.89314
809.86729
734.54265
790.41944
819.82545
675.83232
813.31461
701.06925
884.71339
724.39244
950.07268
688.27681
1095.7978
765.13621
1088.9865
1084.3557
934.65573
1434.7059
891.70628
1446.8179
1077.1784
1196.9302
1442.8016
1389.1716
1414.7421
2347.901
976.80454
3320.4359
12738.595
6337.6599
5303.0259
4490.1337
4510.9519
4576.4045
4714.7807
4837.1632
5071.563
5376.4659
5416.8913
5746.6207
5782.7535
5938.9696
5965.875
6045.3707
5942.6988
6050.3467
5784.2032
5809.1825
5730.0684
5503.9226
5237.1527
5127.5961
5042.0039
4938.2116
4777.9368
4686.5137
4531.7333
4395.919
4261.0358
4117.7646
4000.4042
3841.0999
3744.8499
3606.3901
3475.0627
3377.8322
3223.5842
3149.8967
3017.9992
2936.7732
2784.7409
2712.7257
2602.4832
2529.9461
2447.3802
2374.9946
2294.5194
2231.1495
2158.9141
2095.2681
2033.1403
1973.305
1911.3782
1857.0786
1794.7539
1741.4487
1683.8078
1623.3468
1573.3419
1524.7711
1454.1534
1428.7852
1352.4502
1317.8991
1246.6793
1259.8972
1151.6134
1153.1677
1138.6043
1048.1484
1082.9258
1155.1023
997.40511
913.57245
987.63577
888.41369
1128.1224
846.9289
1127.8207
949.46422
1074.2038
1029.193
1134.8868
1048.1665
1218.9725
1259.659
1296.4258
1344.8014
1560.8202
1234.7306
1819.584
882.78399
3428.8153
14701.381
10904.65
9416.1099
9307.0688
9026.5392
9202.1497
8936.4242
9065.5398
9184.3169
9350.0455
9300.07
9562.6037
9424.1515
9509.4538
9331.935
9307.1223
9052.8185
8992.6181
8657.9481
8589.5313
8385.3232
9379.7008
8741.4294
8606.7089
8365.1461
7997.8757
7778.5458
7395.7618
7164.3359
6821.5288
6582.0438
6313.4591
5993.5115
5773.2254
5470.9567
5215.2179
4976.3646
4721.3432
4508.7694
4261.7259
4061.9372
3825.4196
3654.3676
3443.0695
3272.9684
3075.4347
2913.6703
2740.2719
2591.397
2439.7161
2304.1106
2168.393
2046.5446
1923.678
1812.3898
1701.4672
1597.9433
1500.6877
1398.64
1311.6716
1228.5072
1131.8785
1067.821
1005.8985
922.77498
891.29386
845.61821
771.90985
746.24339
739.61958
664.52115
702.89552
661.29834
645.43764
1051.5735
948.5211
907.67369
1003.2067
839.00754
1104.0156
935.54493
1162.1286
1093.6033
1233.1669
1288.326
1304.625
1546.4193
1393.0511
1643.8748
1689.0889
1577.7642
1793.7724
2106.7516
1819.1548
3070.6192
34042.852
20709.934
21194.383
20327.811
20231.405
19568.144
19636.556
19543.698
19540.336
19570.765
19603.629
19511.934
19376.089
19103.6
18942.648
18432.499
18154.739
17646.415
17185.199
16734.511
16115.277
15640.805
16302.714
16113.342
15496.258
15080.046
14468.454
13981.99
13428.742
12887.584
12423.171
11873.595
11396.806
10935.728
10464.653
10049.396
9583.521
9197.6462
8742.6124
8392.1665
7957.4656
7624.2032
7231.3919
6898.3624
6551.8913
6236.066
5919.2825
5627.6888
5331.4783
5059.7741
4790.6684
4535.3217
4290.6755
4054.9315
3830.9264
3614.2365
3411.5112
3213.0551
3024.9335
2857.0969
2674.624
2530.8651
2375.2647
2250.5698
2092.0423
2002.9592
1854.9503
1789.3908
1703.2639
1604.7558
1563.7568
1474.0462
1459.8424
1418.885
1337.4973
1224.4363
1239.2251
1142.673
1217.6965
1165.1215
1142.7134
1202.374
1067.8944
1247.7155
989.03581
1299.2427
932.07163
1242.4436
1114.302
1175.3733
1279.0144
1403.9263
1462.5472
1250.6975
3258.7805
51753.168
40285.302
38635.218
37184.764
35965.237
35395.727
35337.955
34731.284
35076.23
34716.398
34534.555
34214.436
33636.112
33037.251
32368.356
31337.293
30679.374
29514.901
28713.549
27649.129
26738.084
25802.597
24676.29
23704.37
22784.214
21680.964
20907.275
19895.034
18993.009
18182.726
17302.259
16573.306
15758.735
15070.756
14294.966
13544.282
12893.098
12188.811
11594.859
10926.829
10376.183
9768.5347
9234.2989
8677.767
8166.2482
7652.1787
7170.071
6697.6085
6247.7243
5814.4962
5400.3743
5000.8211
4623.0534
4257.5619
3913.2379
3583.4093
3271.5582
2974.7544
2700.6623
2433.3513
2191.2292
1963.6718
1744.4443
1560.0205
1379.0232
1253.6372
1114.2388
991.36852
837.51542
781.02362
643.46149
643.52404
529.39087
486.85469
503.11356
405.8259
409.31913
419.47179
382.79018
419.90369
454.98362
475.42831
547.47062
598.29262
677.09057
785.61587
778.74323
1174.661
801.82449
1438.1854
1006.2126
1517.3013
791.05846
1990.2995
2973.351
75713.445
60179.987
56647.682
53956.804
54347.48
53747.443
53758.198
53993.656
54279.675
53802.45
53583.693
52789.259
51948.345
50849.274
49582.236
48237.114
46820.433
45326.794
43760.248
42320.653
40659.521
39231.661
37639.754
36431.07
34888.987
33592.678
32271.221
30927.474
29649.061
28397.181
27174.013
25964.572
24755.623
23730.784
22570.321
21604.056
20579.236
19655.942
18655.021
17793.425
16883.781
16045.338
15215.062
14426.435
13653.337
12919.504
12194.61
11508.494
10834.214
10189.378
9567.315
8964.7717
8391.1518
7835.0301
7310.7045
6801.6223
6324.1919
5872.8891
5436.4889
5043.1781
4657.6396
4319.1955
3975.2881
3699.2811
3376.6983
3149.9889
2897.0342
2706.0585
2542.0672
2341.975
2260.5466
2060.8326
2007.2364
1862.8629
1858.7442
1690.6973
1720.8484
1607.6923
1588.1726
1592.6073
1508.427
1565.0658
1464.0084
1564.6388
1419.8053
1541.3634
1430.1314
1499.255
1260.5868
1718.3824
1019.5436
1704.0415
1184.8052
1254.4576
2478.5951
93041.948
72773.557
68777.321
67935.769
70310.63
69510.879
70761.052
71266.18
71147.472
71010.561
69926.453
69166.539
67686.39
65867.154
64357.402
62068.5
60550.637
58236.377
56278.197
54079.483
52307.124
49854.379
48455.048
46056.615
44374.683
42456.444
40541.478
39098.304
37168.331
35951.576
34112.775
32668.242
31052.265
29554.322
28167.871
26785.484
25788.635
24311.941
23256.896
21977.028
20916.598
19794.076
18757.552
17727.891
16746.384
15792.148
14868.63
13984.802
13118.507
12295.737
11491.112
10720.328
9978.1554
9265.6165
8580.5559
7928.4239
7312.013
6715.1652
6167.9709
5640.0417
5157.258
4698.2408
4288.3924
3897.7463
3524.7876
3181.4229
2819.3172
2586.7231
2288.3579
2335.7384
1943.8342
1926.2009
1690.9817
1615.8583
1465.7533
1410.0433
1302.645
1265.2643
1222.6043
1147.4944
1135.8337
1119.8292
1094.4895
1093.6662
1134.6296
1138.568
1130.9612
1330.8831
1285.1224
1469.7593
1722.1219
2224.8114
1717.7096
2856.8685
2535.1011
73267.164
68171.469
57984.223
56549.458
55374.847
55709.006
54576.433
55539.633
55845.711
55822.259
55786.119
55602.982
59825.266
64206.491
79719.418
50281.213
40429.459
35397.706
34819.53
32679.692
32517.367
31572.279
32150.03
32578.509
32374.196
32888.757
33859.875
36602.115
41988.087
53237.343
33500.347
25606.111
19233.51
17997.797
16361.928
15944.979
15741.002
15440.246
15611.78
15827.848
16607.326
17454.74
20019.38
25864.22
34675.574
21689.49
16405.158
12705.643
10913.251
10286.873
9748.5942
9596.3728
9311.0967
9681.1304
9932.9604
10507.962
11262.603
14064.643
17800.972
23301.26
13443.973
9886.9526
6801.5674
5835.1632
5053.2667
4737.7794
4564.8222
4456.3211
4572.5783
4825.105
5167.8524
6116.9211
7782.4846
10237.388
15216.651
9910.4974
6261.5989
4228.8553
3500.1695
2969.1617
2760.3567
2624.0805
2620.2884
2684.3551
2790.0457
3233.3
3640.2006
4740.2998
6878.3088
10563.314
5971.6233
3801.5361
2580.8186
1900.0212
1569.8737
1281.7531
1185.8554
1125.984
1181.5028
1306.5018
1547.8837
2043.1696
2783.3121
4426.9814
7522.9774
5836.3099
3465.071
2159.7263
1621.4912
1211.8649
1022.3617
903.02583
899.76073
965.67353
1082.7534
1406.7596
1846.7441
2618.5072
4205.3248
7392.608
6984.7654
4395.3502
2914.4926
2175.0104
1696.0839
1434.7038
1287.5696
1285.3192
1323.0472
1620.7508
1795.2413
2330.8247
3196.719
5162.8103
7874.1403
10964.643
7736.0758
4800.7924
3869.0567
2994.5479
2696.0129
2428.3093
2397.9248
2453.3662
2612.0744
3326.2448
3693.1801
5553.7606
8549.7002
13201.324
15200.594
11419.232
7251.6276
6208.6318
4859.8129
4546.6645
4140.2554
4203.0609
4271.5453
4552.4404
5342.1671
6451.7085
8688.8459
12409.508
17335.274
25116.895
17056.352
12631.884
10674.361
9108.053
8320.2765
7964.1191
7802.739
8022.2388
8341.0264
9527.069
9686.8043
13643.151
18684.522
26255.332
33669.451
27043.982
19917.331
17659.873
15240.142
14925.778
13982.878
14395.531
14406.819
14261.784
15946.482
17000.161
20777.606
28146.543
32738.578
52175.765
43152.824
33621.582
31424.563
28445.486
27467.682
27617.809
27991.755
27456.661
27961.21
28336.967
30148.553
34255.006
39796.293
56338.297
70208.474
74153.454
57341.044
55529.086
51921.372
48559.052
51372.241
53864.028
50147.207
53218.066
52034.965
54040.446
58114.408
66179.815
81412.983
166397.28
135589.95
135166.3
138718.37
140715.3
139931.17
147749.96
155935.32
158869.12
156109.04
151157.59
143173.55
141370.65
145673.07
140311.94
121846.66
110250.21
102757.66
99405.047
95130.989
97512.738
96266.626
96718.523
102877.84
98009.824
99527.119
98218.97
104691.31
111515.46
128252.49
103048.97
105981.21
100321.24
96937.472
96389.572
89113.455
88686.68
89800.219
86058.442
92499.522
92741.204
100603.49
104903.65
106081.4
108775.47
98939.669
109418.33
108081.07
104902.93
102911.8
101128.59
100518.71
100815.92
101008.75
102240.26
104848.45
108380.37
109463.29
111201.91
102728.76
98603.486
105930.39
108456.81
110152.98
107424.55
106429.37
106191.84
105488.7
106542.75
108383.81
109451.21
111876.46
111508.01
107307.5
99366.269
97377.155
107233.58
108673.05
109893.12
110460.23
109818.44
109283.11
109195.95
109617.55
110035.06
111408.69
111995.46
110426.32
107253.66
98848.319
96592.697
103669.08
107054.56
110028.42
110124.48
110534.23
110835.57
110869.16
111434.27
111915.61
111436.42
111138.99
108755.33
103155.48
98161.304
96222.001
101824.67
105690.39
108051.71
109856.41
109925.01
110280.46
110706.5
110517.45
110779.72
110217.49
108708
106488.74
100625.15
93994.747
93340.174
98350.148
102159.75
104701.14
105588.53
106974.79
107371.48
107413.89
107948.36
107000.6
106317.48
104666.69
101975.76
97763.217
94260.335
92430.261
95891.578
99639.787
101763.71
103771.97
104496.83
105181.04
105420.05
104618.01
105108.15
103808.67
102533.52
99793.952
96191.605
92371.958
89224.964
92540.939
95870.241
97990.055
99439.555
100656.55
101326.4
101546.13
102028.44
100883.94
100631.48
98531.919
96658.254
93280.402
90174.661
87975.732
89511.115
92485.376
94446.14
96065.883
96897.857
97580.98
97745.61
97535.779
97171.964
95926.807
94737.872
92426.167
89934.09
88041.567
84873.246
86745.412
88985.002
90621.789
92130.088
93098.926
93795.77
94159.005
94543.583
93854.407
93187.383
91997.119
89965.121
88084.309
85568.238
82254.008
83293.476
86251.324
87171.262
88772.5
89347.958
90029.535
89948.936
89974.57
89397.377
88546.473
87496.814
85676.081
84063.336
83074.499
79590.902
80422.631
82417.307
83700.236
85064.181
85499.391
86818.876
85957.963
86818.64
86404.712
85944.499
85096.847
83207.641
82348.501
80460.175
76630.707
77350.22
79641.322
80216.853
81360.044
82165.339
83088.022
82608.936
82525.834
81850.196
81257.913
80463.607
79064.19
78020.854
77160.802
74507.519
74390.451
76280.603
76417.258
78327.395
78451.28
79194.055
79055.188
79675.911
79243.638
79180.049
78272.357
77662.438
75606.111
75934.843
71228.513
71734.833
73593.45
74084.315
74647.707
75393.797
75545.203
75750.517
75684.774
75158.498
74507.261
73764.696
73208.944
72084.548
71328.33
68909.689
68685.549
70392.726
70961.167
71877.537
72031.062
72686.141
72378.862
72878.14
72453.121
71852.229
71881.99
71103.797
70814.739
70216.723
66034.045
66111.792
67325.841
67686.219
68451.389
68853.273
69684.494
69412.486
69576.174
69091.385
69000.357
68299.97
67671.276
66694.156
66096.464
63357.672
63481.815
64952.068
65118.364
65769.097
65728.711
66454.053
66320.567
66630.575
66031.844
66188.01
65694.42
65762.685
64709.243
64524.377
60730.896
60745.648
61841.702
62286.77
62810.264
63317.814
63573.549
63562.328
63521.838
63884.122
63293.766
62885.613
61892.041
61099.889
61778.697
58524.912
58153.059
59603.526
59586.713
60374.417
60504.355
60895.06
60643.808
60984.022
60535.252
60176.964
59898.861
59591.041
59034.242
59020.445
55695.193
55972.902
56754.083
57201.699
57439.843
57588.299
58104.63
57941.18
58194.712
57911.657
57728.705
57501.577
57485.308
56315.213
56713.1
54119.408
53540.812
54308.328
54256.575
55132.249
54985.721
55780.095
55337.871
55743.035
55403.606
55505.623
54938.565
54142.657
53788.025
54199.235
50913.213
50762.866
52088.229
51918.716
52505.366
52749.202
53122.566
52754.35
53259.161
52708.808
52938.317
52913.294
52444.864
51847.145
51640.727
49399.166
48709.373
49560.282
49428.926
50808.257
50259.413
50774.658
50571.721
50829.369
50549.88
50428.624
49726.175
49682.201
49076.304
49616.846
46629.282
46245.483
47592.595
47308.196
47769.848
47833.966
48278.467
48083.651
48431.772
48080.208
48203.499
47937.36
47594.041
47299.613
46995.493
45079.766
44330.209
45205.431
45068.467
45773.339
45718.379
46090.155
45946.638
46142.406
45883.027
45809.363
45617.928
44969.852
44471.299
45221.388
42666.971
41841.736
43069.16
42940.644
43707.45
43662.816
43881.378
43646.588
43671.785
43534.462
43626.232
43188.042
43311.583
42608.645
42971.378
40854.266
40069.558
41357.566
40920.3
41594.344
41461.103
41821.147
41502.337
41944.169
41417.624
41683.326
41160.913
41213.402
40295.925
40910.569
39190.598
37910.731
39181.911
38809.623
39655.604
39292.391
39861.843
39471.213
39909.763
39416.87
39574.904
39149.427
39138.877
38451.777
38938.556
37129.786
36066.598
37351.733
36963.977
37644.91
37408.301
37972.256
37449.086
37906.478
37396.058
37720.569
37124.904
37267.436
36449.299
37015.338
35350.024
34269.875
35433.898
34984.333
35793.213
35468.171
36017.083
35594.211
36008.194
35559.839
35714.569
35271.553
35365.082
34624.333
35169.166
33462.092
32530.061
33766.876
33626.041
33910.256
33699.587
34162.038
33819.403
34189.457
33829.57
33977.458
33568.288
33622.468
33057.709
33129.43
32056.177
31068.995
31728.872
31563.347
32032.343
31950.761
32289.037
32071.152
32276.886
31658.781
32081.891
31663.412
31713.87
30973.674
31737.112
29959.218
29252.44
30172.249
29887.961
30487.947
30184.018
30666.016
30255.194
30587.193
30327.054
30408.925
29991.259
30015.072
29446.609
29883.709
28701.991
27725.942
28714.877
28445.736
28869.746
28675.555
29076.471
28694.47
29092.287
28580.66
28933.956
28266.491
28613.567
27712.627
28319.197
27434.67
26078.594
27241.485
26685.317
27468.223
26994.125
27610.679
27063.349
27518.838
27014.142
27237.12
26810.52
26975.093
26200.789
26822.297
25844.815
24645.807
25759.992
25319.032
25900.973
25545.341
26094.822
25558.506
26071.922
25472.132
25862.398
25213.227
25527.085
24700.519
25336.33
24542.126
23255.247
24393.229
23818.62
24548.175
24073.993
24668.477
24134.909
24578.429
24095.832
24384.59
23830.435
24123.132
23267.322
23933.943
23162.716
21932.944
23012.149
22528.233
23162.783
22716.586
23335.465
22718.379
23271.612
22679.879
23025.127
22446.834
22742.315
21906.656
22587.052
21919.023
20637.688
21747.68
21187.68
21842.517
21405.759
21956.844
21430.292
21900.447
21364.389
21705.696
21125.424
21430.839
20595.761
21269.018
20659.199
19422.465
20483.472
19934.782
20598.858
20123.097
20734.541
20144.986
20637.673
20111.175
20426.614
19873.176
20174.245
19344.913
20017.533
19482.424
18220.012
19283.794
18725.779
19345.138
18925.281
19483.339
18918.167
19406.72
18879.93
19194.293
18656.451
18944.735
18131.929
18798.568
18318.417
17073.249
18136.705
17528.188
18177.602
17735.651
18301.969
17740.539
18210.328
17706.872
18005.95
17489.373
17767.588
16971.328
17624.907
17197.846
15967.867
16994.291
16405.724
17027.996
16606.934
17172.575
16593.159
17068.45
16568.483
16854.614
16353.955
16620.099
15843.743
16484.254
16121.162
14878.699
15924.707
15304.402
15919.961
15517.445
16058.28
15485.434
15960.166
15465.009
15745.649
15258.924
15524.529
14759.853
15385.867
15056.047
13848.281
14863.105
14234.406
14861.337
14461.946
15001.27
14428.07
14897.936
14404.184
14675.754
14198.873
14456.586
13698.316
14319.803
14049.163
12836.103
13842.601
13225.405
13828.486
13431.43
13955.584
13377.496
13849.042
13360.755
13629.472
13163.053
13425.963
12676.864
13295.417
13054.102
11855.274
12863.144
12227.008
12823.117
12442.464
12961.981
12392.856
12866.791
12376.093
12634.26
12180.028
12433.062
11687.085
12302.57
12098.488
10920.317
11901.992
11270.835
11866.045
11478.878
11979.279
11408.63
11874.8
11384.767
11649.714
11203.256
11459.29
10727.329
11341.571
11180.526
10003.564
10979.257
10356.009
10929.571
10544.763
11046.828
10484.998