/*--------------------------------*- C++ -*----------------------------------*\
  =========                 |
  \\      /  F ield         | OpenFOAM: The Open Source CFD Toolbox
   \\    /   O peration     | Website:  https://openfoam.org
    \\  /    A nd           | Version:  6
     \\/     M anipulation  |
\*---------------------------------------------------------------------------*/
FoamFile
{
    version     2.0;
    format      ascii;
    class       pointVectorField;
    location    "0.99";
    object      u;
}
// * * * * * * * * * * * * * * * * * * * * * * * * * * * * * * * * * * * * * //

dimensions      [0 1 0 0 0 0 0];

internalField   nonuniform List<vector> 
3969
(
(0 -4.3775336e-20 0)
(0 -2.3478993e-19 0)
(-0.50594385 -0.068157826 0.029710962)
(-0.51179939 0.039914455 0.024624752)
(0 2.395395e-18 0)
(0 1.9341887e-18 0)
(-0.50582797 0.031949187 0.024577295)
(-0.49996231 -0.076126565 0.029659204)
(0 1.0235965e-19 0)
(0 6.1684755e-19 0)
(0 2.6889355e-19 0)
(-1.5488071e-18 -1.3945839e-19 0)
(0 7.4364014e-19 0)
(0 -4.2811613e-19 0)
(0 -4.1744969e-19 0)
(-0.50667975 -0.054606187 0.02908846)
(-0.50740981 -0.041068418 0.028469579)
(-0.50812938 -0.027566577 0.027826903)
(-0.5088585 -0.014067193 0.027185205)
(-0.5095881 -0.00057906959 0.026539335)
(-0.51031791 0.012911387 0.025898023)
(-0.51105724 0.026402373 0.025257828)
(-0.0010445217 -0.0030626505 -0.0033760306)
(-0.0016036094 -0.0053909296 -0.0041970523)
(-0.0033509159 -0.0078701633 -0.0045535881)
(-0.0058912443 -0.01060858 -0.0044869374)
(-0.0092764318 -0.013144172 -0.0043600917)
(-0.013386138 -0.015901154 -0.0040443276)
(-0.018274593 -0.018432992 -0.0037639002)
(-0.023794033 -0.021105328 -0.0033846572)
(-0.030062735 -0.02354945 -0.0030317908)
(-0.036919631 -0.026093385 -0.0026142494)
(-0.044453469 -0.028425289 -0.0022182266)
(-0.052554358 -0.030824946 -0.001755621)
(-0.061254132 -0.033000821 -0.0013151021)
(-0.070477905 -0.035206065 -0.0008098011)
(-0.080216259 -0.037219358 -0.00030008571)
(-0.090429912 -0.039199658 0.00024850239)
(-0.10107052 -0.04102507 0.00081628936)
(-0.1121305 -0.042777063 0.0014186082)
(-0.12354129 -0.044390593 0.00205198)
(-0.1352899 -0.045904026 0.0027086083)
(-0.14731336 -0.047297504 0.0034007483)
(-0.15959649 -0.048586614 0.0041117869)
(-0.17208521 -0.04976601 0.0048561762)
(-0.1847656 -0.0508516 0.0056236477)
(-0.19758827 -0.051855235 0.0064190738)
(-0.21055006 -0.052764441 0.0072405671)
(-0.22360488 -0.053611188 0.0080870181)
(-0.23674731 -0.054405839 0.0089581802)
(-0.2499551 -0.055137094 0.0098559977)
(-0.26321723 -0.055847086 0.010773152)
(-0.27651892 -0.056516119 0.011712494)
(-0.28985263 -0.057175239 0.012670702)
(-0.30321369 -0.05781701 0.013644095)
(-0.31659811 -0.058455922 0.014632795)
(-0.33000128 -0.059098861 0.015642016)
(-0.34342987 -0.059741699 0.016656475)
(-0.35688035 -0.060391408 0.017696781)
(-0.37035577 -0.061057534 0.018756182)
(-0.38385493 -0.061723878 0.019818412)
(-0.39738448 -0.06241608 0.020912462)
(-0.41092933 -0.06310122 0.022005903)
(-0.42450856 -0.063805359 0.023123044)
(-0.43807837 -0.064523114 0.024234874)
(-0.45168638 -0.06522209 0.025352564)
(-0.46525792 -0.065960233 0.026461465)
(-0.47884213 -0.066677224 0.027558086)
(-0.49241044 -0.067411768 0.028643992)
(-0.00063769909 0.003447981 0.0045497014)
(-0.0025676502 0.0059776527 0.0044106381)
(-0.0043020088 0.0089611051 0.0052365162)
(-0.0069490776 0.011673007 0.0051530989)
(-0.010620998 0.014813336 0.0051295313)
(-0.014829586 0.017614624 0.0050156272)
(-0.019941803 0.020558933 0.0048629875)
(-0.025675226 0.023231043 0.0047194261)
(-0.032178717 0.025949276 0.0045701817)
(-0.039281163 0.028382355 0.0044126437)
(-0.047110352 0.030847057 0.0042859674)
(-0.055475226 0.03301878 0.0041346444)
(-0.064478454 0.035163869 0.0040260363)
(-0.073998597 0.037075399 0.003888003)
(-0.084046185 0.038872269 0.0038068973)
(-0.094555312 0.040474712 0.0037137122)
(-0.10551842 0.041943534 0.0036742481)
(-0.1168371 0.043213465 0.0036456061)
(-0.12855835 0.044364805 0.0036645327)
(-0.14051767 0.045311603 0.0037236638)
(-0.15281764 0.046163188 0.0038271383)
(-0.16527497 0.046817838 0.0039886157)
(-0.17798071 0.047386483 0.0042024028)
(-0.19080025 0.047798718 0.0044820077)
(-0.20378049 0.048119178 0.0048207209)
(-0.21682024 0.048315478 0.0052342625)
(-0.22998061 0.048447784 0.0057081866)
(-0.24317505 0.048462797 0.0062484615)
(-0.25642681 0.048422847 0.0068506694)
(-0.26971256 0.04831005 0.0075099014)
(-0.28302069 0.048142754 0.0082237373)
(-0.2963547 0.047925687 0.00898646)
(-0.30970242 0.0476657 0.0097949524)
(-0.3230699 0.047367609 0.010642969)
(-0.33645474 0.047039681 0.011527487)
(-0.34985818 0.046677826 0.012440026)
(-0.36327502 0.046290886 0.013390882)
(-0.37672051 0.045872529 0.014350137)
(-0.39018504 0.045427532 0.015343838)
(-0.40366609 0.044952302 0.016345285)
(-0.41716695 0.044437143 0.017368748)
(-0.43068535 0.043892088 0.018391391)
(-0.44420906 0.043306396 0.019431362)
(-0.45774332 0.042688246 0.02046461)
(-0.47126871 0.042030965 0.021507867)
(-0.4847906 0.041345875 0.022547651)
(-0.49829635 0.040639671 0.023587244)
(0 -2.6687051e-20 0)
(0 3.1481191e-19 0)
(0 -3.7360019e-19 0)
(7.6304706e-19 -7.7670935e-20 0)
(0 -6.4293605e-19 0)
(0 -2.9798656e-19 0)
(0 -2.5032827e-19 0)
(-0.0015216196 0.0021780282 -0.0035268529)
(-0.0023284038 0.0068666534 -0.0049474097)
(-0.0034410619 0.0078772424 -0.0051586651)
(-0.0063139071 0.011770851 -0.0055516198)
(-0.0094312759 0.014192072 -0.0055684484)
(-0.01363656 0.017143416 -0.0054418459)
(-0.018433553 0.01987162 -0.0053805198)
(-0.024075749 0.022538316 -0.0051745501)
(-0.030278834 0.02503891 -0.0050186235)
(-0.037252998 0.027497116 -0.0048139133)
(-0.044831188 0.029748435 -0.0046095847)
(-0.052949887 0.031796766 -0.0043371646)
(-0.06185926 0.033835899 -0.0040500169)
(-0.071069285 0.035481535 -0.003718801)
(-0.081032159 0.037233871 -0.0033820765)
(-0.091259137 0.038510145 -0.0029707999)
(-0.10209412 0.039888198 -0.0025701049)
(-0.11318961 0.040849972 -0.0020950457)
(-0.12473656 0.04182439 -0.0016192004)
(-0.13652357 0.042487089 -0.0010842867)
(-0.14863191 0.04308919 -0.00053650333)
(-0.16093718 0.043462881 5.800015e-05)
(-0.17346294 0.043746409 0.00067256274)
(-0.18614032 0.043860849 0.0013286533)
(-0.19896731 0.043883975 0.0020157525)
(-0.21190467 0.043785808 0.0027345366)
(-0.22491112 0.043605147 0.0034804952)
(-0.23799939 0.043346863 0.0042518295)
(-0.251142 0.043011398 0.0050613714)
(-0.26433002 0.042626252 0.005898295)
(-0.27755254 0.042196007 0.006760068)
(-0.29080476 0.041733887 0.0076479908)
(-0.30407779 0.041237865 0.0085603116)
(-0.31737707 0.040729137 0.0094934217)
(-0.33069639 0.040195469 0.010449412)
(-0.34404706 0.039658927 0.011434389)
(-0.35740231 0.039082282 0.012431468)
(-0.37081927 0.038523373 0.013471898)
(-0.3842479 0.037937462 0.014522545)
(-0.39770683 0.03733661 0.015608183)
(-0.41119981 0.036723083 0.016708808)
(-0.42470633 0.036091954 0.017828025)
(-0.43823444 0.035442455 0.018958783)
(-0.45176597 0.03477794 0.020092415)
(-0.46529641 0.034090729 0.021226995)
(-0.47882133 0.033395057 0.022351951)
(-0.49232324 0.032674655 0.023466567)
(-0.50508498 0.018429089 0.025219589)
(-0.5043542 0.0049331342 0.025854437)
(-0.50359677 -0.0085680308 0.026487576)
(-0.50289606 -0.022046662 0.027109633)
(-0.50214508 -0.035564995 0.027743471)
(-0.50143675 -0.049058981 0.02836877)
(-0.5006975 -0.062596826 0.029017061)
(-0.48643656 -0.07538665 0.028564738)
(-0.47290266 -0.074668388 0.027462208)
(-0.45934923 -0.073941245 0.026368007)
(-0.44581216 -0.073197097 0.02526541)
(-0.43227833 -0.072449907 0.024164428)
(-0.41876158 -0.07168524 0.023063263)
(-0.40526612 -0.070909451 0.021968448)
(-0.39179597 -0.070122005 0.020880379)
(-0.37835611 -0.069324895 0.01980261)
(-0.36494966 -0.068517613 0.018735633)
(-0.35156315 -0.067702764 0.017693994)
(-0.33822299 -0.06689131 0.016661775)
(-0.32490797 -0.066052125 0.015663225)
(-0.31162875 -0.065209033 0.014685512)
(-0.2983711 -0.064352153 0.013744283)
(-0.2851493 -0.063470829 0.012840605)
(-0.2719585 -0.062562603 0.011979833)
(-0.25880377 -0.06161954 0.011167976)
(-0.24569231 -0.060633545 0.010410774)
(-0.23263129 -0.059598386 0.0097125956)
(-0.21963513 -0.058503064 0.0090743206)
(-0.20672187 -0.057346385 0.0085043632)
(-0.19390403 -0.056113606 0.0079956923)
(-0.18120893 -0.054811472 0.0075580851)
(-0.16866318 -0.053410088 0.0071766437)
(-0.15629519 -0.051940921 0.0068650909)
(-0.14414311 -0.05035277 0.0065947847)
(-0.13223109 -0.048698386 0.0063957757)
(-0.12061419 -0.046916753 0.0062190345)
(-0.10930937 -0.045064381 0.0061038758)
(-0.09838328 -0.04309762 0.0060055443)
(-0.087841029 -0.041055052 0.0059433846)
(-0.077748755 -0.038919069 0.0058978294)
(-0.068182837 -0.036664711 0.0058348489)
(-0.059123 -0.034348282 0.0058434)
(-0.050538464 -0.031995794 0.0057873799)
(-0.042638413 -0.029515368 0.0057722147)
(-0.035240609 -0.02701909 0.0057636577)
(-0.028548091 -0.024437198 0.0057389293)
(-0.022494432 -0.021793734 0.0056918095)
(-0.017205788 -0.019039027 0.00565472)
(-0.012404429 -0.016423594 0.0056386546)
(-0.0086022643 -0.013526455 0.0055460667)
(-0.0053985757 -0.010873063 0.0053815892)
(-0.0030447602 -0.0081777896 0.005062755)
(-0.0016859568 -0.0052393892 0.0043695516)
(-0.0021087977 -0.0031117574 0.002656085)
(0 3.2385773e-19 0)
(0 2.5320384e-19 0)
(0 -1.3121016e-19 0)
(0 -8.6216203e-19 4.3146724e-19)
(0 -7.5698584e-19 0)
(0 -1.664347e-19 0)
(0 7.9590711e-19 0)
(0 1.1040519e-18 0)
(0 1.0524407e-18 0)
(0 9.9999802e-19 0)
(0 8.6365635e-19 -1.0609655e-19)
(0 2.3331054e-18 0)
(0 1.0228012e-18 0)
(0 -1.8845329e-19 0)
(-0.51104924 0.038945602 0.024623738)
(-0.51030868 0.037967437 0.024617946)
(-0.50957057 0.03698822 0.024606578)
(-0.50883134 0.036003564 0.024595657)
(-0.50808983 0.035010033 0.024586374)
(-0.50734283 0.034006276 0.024584314)
(-0.50658725 0.032987365 0.024583948)
(-0.50521433 -0.069155234 0.029705048)
(-0.50447311 -0.070155227 0.029688996)
(-0.50373099 -0.071145604 0.029675857)
(-0.5029818 -0.072129761 0.029667864)
(-0.50222804 -0.07311795 0.029662054)
(-0.50147368 -0.074108374 0.029659681)
(-0.50071877 -0.075108879 0.029665067)
(-0.0018703635 -0.0024164296 -0.0029302082)
(-0.0044319069 -0.0038905606 -0.0029914275)
(-0.0078239599 -0.005901648 -0.0033008429)
(-0.012032072 -0.007775871 -0.003313455)
(-0.016932096 -0.0097176731 -0.0031901517)
(-0.022505347 -0.011741881 -0.0030073956)
(-0.028662533 -0.013744328 -0.0027198005)
(-0.035250785 -0.015735053 -0.0024881218)
(-0.042433174 -0.017696132 -0.0021345202)
(-0.049944387 -0.019642127 -0.0018263642)
(-0.057928415 -0.021496258 -0.0014457906)
(-0.066201669 -0.023315586 -0.0010904394)
(-0.074889063 -0.025044398 -0.00065806807)
(-0.083807278 -0.026717448 -0.00023683446)
(-0.09305523 -0.028273695 0.00021555858)
(-0.1025337 -0.029763065 0.00070562794)
(-0.1122431 -0.031132676 0.0012102535)
(-0.12216163 -0.032418992 0.0017474305)
(-0.13227522 -0.033590795 0.0023128611)
(-0.14256246 -0.034673515 0.002905616)
(-0.15301392 -0.035656759 0.0035285856)
(-0.16362147 -0.036548463 0.0041771531)
(-0.17437052 -0.037353884 0.004854629)
(-0.18527566 -0.038093134 0.0055619624)
(-0.19631409 -0.038750093 0.0062958924)
(-0.20751327 -0.039365242 0.0070547)
(-0.21886773 -0.039930852 0.0078489338)
(-0.23039415 -0.040462085 0.0086715104)
(-0.24209757 -0.040976632 0.0095152104)
(-0.25399898 -0.041479681 0.010391152)
(-0.26610178 -0.041980392 0.011288985)
(-0.27842488 -0.042493955 0.012210096)
(-0.29098047 -0.043019011 0.013151491)
(-0.30377555 -0.043572505 0.014117234)
(-0.31682299 -0.044148027 0.015096219)
(-0.33013237 -0.044754281 0.016098741)
(-0.34370021 -0.045400696 0.017121165)
(-0.35753477 -0.046075536 0.018160533)
(-0.3716236 -0.046791053 0.019218983)
(-0.38596484 -0.047544974 0.020299091)
(-0.40053224 -0.048324887 0.021384572)
(-0.41531828 -0.049155866 0.022494442)
(-0.4302745 -0.049999829 0.023596546)
(-0.44540663 -0.050888353 0.024715081)
(-0.46062142 -0.051797302 0.025817362)
(-0.47595275 -0.052718953 0.026918659)
(-0.49130732 -0.053657364 0.028006761)
(-0.0017252704 -0.0014783136 -0.0018860205)
(-0.0051344967 -0.0022850748 -0.0018979281)
(-0.0093730189 -0.0038228993 -0.0021452316)
(-0.014232587 -0.0049785242 -0.002111259)
(-0.019896817 -0.0063231797 -0.0020325725)
(-0.026043529 -0.0077104169 -0.0018207473)
(-0.032686505 -0.0090346365 -0.0017000176)
(-0.039828649 -0.01044252 -0.0014253654)
(-0.047341015 -0.011770758 -0.0012073599)
(-0.055196398 -0.013157754 -0.0009248763)
(-0.063345286 -0.014395815 -0.00067381077)
(-0.071786666 -0.015737322 -0.00032968886)
(-0.080445636 -0.016897849 -2.3577473e-05)
(-0.089319123 -0.018099903 0.00032130743)
(-0.098382305 -0.019160405 0.0007088172)
(-0.10759628 -0.020214006 0.001113221)
(-0.11694697 -0.02115224 0.0015503327)
(-0.12644125 -0.022043552 0.0020158531)
(-0.13604071 -0.022834468 0.0025087002)
(-0.14576811 -0.023569255 0.0030336389)
(-0.15559433 -0.02422258 0.0035892114)
(-0.16553818 -0.024808327 0.0041678526)
(-0.17559701 -0.025343681 0.0047888107)
(-0.185782 -0.025807322 0.0054298856)
(-0.19610418 -0.026241751 0.0061069457)
(-0.2066031 -0.0266329 0.0068244861)
(-0.21726716 -0.027003142 0.0075720761)
(-0.22813752 -0.027360934 0.0083446557)
(-0.23924065 -0.027710263 0.009160794)
(-0.250586 -0.02807389 0.01000111)
(-0.26220609 -0.028449017 0.010870716)
(-0.2741235 -0.028852178 0.011769421)
(-0.28635112 -0.029286861 0.012691942)
(-0.2989138 -0.029756341 0.013636901)
(-0.31182209 -0.03026806 0.01460423)
(-0.32508729 -0.030829909 0.015597022)
(-0.33870959 -0.03143122 0.016602691)
(-0.35269889 -0.032090344 0.017636379)
(-0.3670313 -0.032791912 0.018681683)
(-0.3817124 -0.03355268 0.019747922)
(-0.39669393 -0.03435154 0.020823249)
(-0.41198283 -0.035213493 0.021916692)
(-0.42749781 -0.036104302 0.023007907)
(-0.44325513 -0.037050055 0.024108984)
(-0.45914288 -0.038018778 0.025201775)
(-0.4751908 -0.039018623 0.02629547)
(-0.49128794 -0.040032973 0.027382283)
(-0.00049544685 -0.00069248618 -0.00094107426)
(-0.0031983464 -0.0010537742 -0.00090017704)
(-0.0066211708 -0.0017054832 -0.00090611813)
(-0.010976848 -0.0022645785 -0.00089722214)
(-0.015964968 -0.0028600498 -0.00075202596)
(-0.021565394 -0.0034914118 -0.00072804325)
(-0.027848542 -0.0041177467 -0.00048794647)
(-0.034524206 -0.0047529927 -0.00038977696)
(-0.041804861 -0.0054504183 -0.00017408372)
(-0.04939753 -0.0060689095 -2.3861123e-05)
(-0.057519844 -0.0067803679 0.00023346288)
(-0.065908883 -0.0074383839 0.00045809864)
(-0.074700322 -0.0080812029 0.00069865125)
(-0.083766133 -0.0087317679 0.00099018325)
(-0.09314136 -0.0093494099 0.0012830656)
(-0.10274806 -0.0099546442 0.001608136)
(-0.11259946 -0.010515275 0.0019780441)
(-0.12264899 -0.011053578 0.0023490311)
(-0.13289017 -0.011549267 0.0027757247)
(-0.14330221 -0.012021236 0.0032139629)
(-0.15386404 -0.012446118 0.0036945595)
(-0.16457901 -0.012853022 0.004206419)
(-0.17542318 -0.013215631 0.0047554932)
(-0.18641355 -0.013576166 0.0053367603)
(-0.19754269 -0.013905612 0.0059689277)
(-0.20881125 -0.014229928 0.0066271203)
(-0.22022024 -0.014545125 0.0073198909)
(-0.2318012 -0.014862564 0.0080621781)
(-0.24354289 -0.015187189 0.0088308238)
(-0.25547264 -0.015528336 0.0096351699)
(-0.26760194 -0.015888644 0.010476362)
(-0.27994226 -0.016276827 0.011343784)
(-0.29250715 -0.016694909 0.012241035)
(-0.3053148 -0.017143578 0.013162947)
(-0.31836532 -0.01763878 0.014114404)
(-0.33167631 -0.01816042 0.015081979)
(-0.34524622 -0.018734293 0.016077577)
(-0.35907692 -0.019340999 0.017092465)
(-0.37316188 -0.019997318 0.018125736)
(-0.38749634 -0.020696392 0.019181328)
(-0.40205729 -0.021432438 0.020243606)
(-0.4168322 -0.02222228 0.021330136)
(-0.43177897 -0.023032915 0.022405419)
(-0.44689754 -0.023899894 0.023508459)
(-0.46210895 -0.024778358 0.024585993)
(-0.4774362 -0.025695455 0.025681805)
(-0.49277827 -0.026621487 0.026752355)
(0.0014524383 0.00012890705 0.00012349188)
(0.00054103733 0.0003401955 0.00042590798)
(-0.0012822335 0.00039625774 0.00041521322)
(-0.0038497756 0.00061548699 0.00046687882)
(-0.0073900814 0.00081536479 0.00045306067)
(-0.011658129 0.00091239287 0.00060703986)
(-0.016635081 0.0011111957 0.00059531958)
(-0.022402069 0.0011672267 0.00073938885)
(-0.02878851 0.001287011 0.00079858428)
(-0.035920464 0.0012938863 0.00095250627)
(-0.043640376 0.0013044214 0.0010889477)
(-0.052008552 0.0012664144 0.0012180019)
(-0.060955497 0.0012176177 0.0014246276)
(-0.070440185 0.0010753207 0.0016140046)
(-0.080454423 0.00097317109 0.0018204895)
(-0.090925159 0.00075545532 0.0020761597)
(-0.10185264 0.00058176189 0.0023345294)
(-0.11316063 0.00032794072 0.0026396552)
(-0.12483302 8.690041e-05 0.002970452)
(-0.13681354 -0.00018973775 0.003330763)
(-0.14907033 -0.00048705468 0.0037446081)
(-0.16156826 -0.0007977862 0.0041767255)
(-0.17424683 -0.0011331693 0.0046654805)
(-0.18709697 -0.0014682059 0.0051903815)
(-0.2000709 -0.0018148201 0.005758606)
(-0.2131526 -0.0021741644 0.0063634872)
(-0.22632312 -0.0025404316 0.0070289923)
(-0.23955721 -0.002925951 0.0077273659)
(-0.25283814 -0.0033167259 0.0084684195)
(-0.26615812 -0.0037275017 0.0092561572)
(-0.27950237 -0.004150458 0.010075005)
(-0.29286931 -0.004587803 0.010929665)
(-0.30625175 -0.0050435035 0.011816008)
(-0.31965317 -0.0055122123 0.012731428)
(-0.33306655 -0.0059983878 0.013671224)
(-0.34650253 -0.0065011018 0.014636301)
(-0.35995296 -0.0070202215 0.01562334)
(-0.37343048 -0.0075593795 0.016630759)
(-0.38692663 -0.0081202346 0.017657562)
(-0.40045521 -0.0086974188 0.018695851)
(-0.41398704 -0.0092937226 0.019748708)
(-0.42755275 -0.0099198939 0.020809726)
(-0.44110905 -0.010556359 0.021876397)
(-0.45469454 -0.011229625 0.022947947)
(-0.46824487 -0.011908251 0.024010159)
(-0.48181628 -0.012615729 0.025076323)
(-0.49534718 -0.013330963 0.026131045)
(0.0032794001 0.00089412918 0.0011944057)
(0.0038781414 0.0014467709 0.0015230748)
(0.0039961727 0.002433467 0.0015830328)
(0.0029340038 0.0033403911 0.0016307287)
(0.00087645436 0.0042839947 0.0017638709)
(-0.001939105 0.005275729 0.0016900968)
(-0.0058494082 0.0061161081 0.0018196538)
(-0.010509264 0.0070703561 0.001795098)
(-0.016216498 0.0077945548 0.0018989813)
(-0.02271623 0.008604732 0.0019317996)
(-0.030169862 0.0092426518 0.001999457)
(-0.038413458 0.0098706833 0.0020869047)
(-0.047515625 0.010351841 0.0021764314)
(-0.057394849 0.010797122 0.002268474)
(-0.068021875 0.011135774 0.0024027755)
(-0.079346185 0.011380252 0.0025439985)
(-0.091324623 0.011560373 0.0027327761)
(-0.10387497 0.011617932 0.0029388921)
(-0.11696416 0.01164008 0.0031874572)
(-0.13049224 0.011544431 0.0034719645)
(-0.14443267 0.011411315 0.0038009422)
(-0.1586638 0.011207416 0.0041601067)
(-0.17315222 0.010946354 0.0045920217)
(-0.18785725 0.010642452 0.0050524314)
(-0.20267843 0.010288641 0.0055704548)
(-0.21758748 0.009908079 0.0061413935)
(-0.2325067 0.009488674 0.0067624204)
(-0.24739916 0.0090530588 0.0074231133)
(-0.2622141 0.0085981062 0.0081409525)
(-0.27691824 0.0081289881 0.008893998)
(-0.2914765 0.007651264 0.0096916763)
(-0.30586314 0.0071704662 0.010522637)
(-0.32005693 0.0066801777 0.01139295)
(-0.33404613 0.0062029559 0.012284306)
(-0.34781405 0.0057148581 0.013212246)
(-0.36136488 0.0052421199 0.014158915)
(-0.37469204 0.0047664778 0.015131106)
(-0.3878022 0.0042983402 0.016124624)
(-0.40070492 0.0038262185 0.017132963)
(-0.41340161 0.0033644561 0.018156825)
(-0.42591003 0.0028944383 0.019190786)
(-0.4382459 0.0024222289 0.020244061)
(-0.45042006 0.00194766 0.021289743)
(-0.46245858 0.0014558282 0.022353901)
(-0.4743616 0.00096775816 0.023398903)
(-0.48618822 0.00045834063 0.024461444)
(-0.49791484 -5.3996651e-05 0.025501059)
(0.0036227802 0.0015871907 0.0023481677)
(0.0047168774 0.0029031632 0.0026211803)
(0.0054816999 0.0046524687 0.0028188154)
(0.0050197238 0.0061817752 0.0030221803)
(0.0036771513 0.0080004592 0.0028899769)
(0.0013565697 0.0095357081 0.0029768167)
(-0.0019861174 0.011249543 0.0028958363)
(-0.006308117 0.012760141 0.0028877647)
(-0.011621337 0.014255661 0.0028768524)
(-0.017926131 0.015657406 0.0028154204)
(-0.025201855 0.016946636 0.0028368943)
(-0.033431568 0.018133107 0.0028247316)
(-0.042592046 0.01921628 0.0028357704)
(-0.052618713 0.020146116 0.0028641022)
(-0.063511951 0.020979609 0.0029020865)
(-0.075170268 0.021648264 0.0029784702)
(-0.087582711 0.022215473 0.0030669831)
(-0.10063958 0.022627568 0.0031973999)
(-0.11430314 0.022939025 0.0033642174)
(-0.1284691 0.023111476 0.0035656933)
(-0.14308993 0.02319952 0.0038204134)
(-0.15805365 0.023161249 0.0041134945)
(-0.17332231 0.023039518 0.0044847944)
(-0.18876353 0.022853929 0.0048670275)
(-0.20436098 0.022606927 0.0053444874)
(-0.21999234 0.022276826 0.0058578171)
(-0.23562555 0.021914852 0.0064297582)
(-0.2511896 0.021505072 0.0070563882)
(-0.26662979 0.021073874 0.0077356965)
(-0.28189462 0.020617441 0.0084636484)
(-0.29694553 0.020150489 0.0092373373)
(-0.31174699 0.019677864 0.010052223)
(-0.32626982 0.019203824 0.010904118)
(-0.34049469 0.018739065 0.011786359)
(-0.35440466 0.01827662 0.012704631)
(-0.36800099 0.01783411 0.013641027)
(-0.38126798 0.017396885 0.014607824)
(-0.39422753 0.016976968 0.015589278)
(-0.40687147 0.01656597 0.016594736)
(-0.41922961 0.016161457 0.017605313)
(-0.43131036 0.015767256 0.018640282)
(-0.443142 0.015375645 0.019673122)
(-0.45473511 0.014980744 0.020717835)
(-0.46613426 0.0145859 0.021760239)
(-0.4773529 0.014182763 0.022803364)
(-0.48844075 0.013773267 0.02384366)
(-0.49941155 0.013345903 0.024871674)
(0.0022001775 0.0025014594 0.0031969359)
(0.0023969851 0.0042818749 0.0034999748)
(0.0024425862 0.0066499934 0.0039889709)
(0.0012551817 0.0089022063 0.0039906737)
(-0.00069188948 0.011200664 0.0040135545)
(-0.0036116692 0.013520017 0.0039622313)
(-0.0074880269 0.015759448 0.0038654688)
(-0.012203542 0.017963424 0.0038080128)
(-0.017898389 0.02001896 0.0037121473)
(-0.024435574 0.022048413 0.0036259186)
(-0.031879127 0.023846346 0.0035736411)
(-0.040179168 0.025637194 0.0034690591)
(-0.049270511 0.027191167 0.0034412588)
(-0.059179912 0.028661953 0.0033735809)
(-0.06981884 0.029944698 0.0033522722)
(-0.081157656 0.031092033 0.0033443887)
(-0.093146699 0.032075756 0.0033610463)
(-0.10570348 0.032911257 0.0034250087)
(-0.11879865 0.033595118 0.0035054255)
(-0.1323353 0.034147298 0.0036464015)
(-0.14626363 0.03455054 0.0038245413)
(-0.16051491 0.034853533 0.0040553933)
(-0.17502304 0.035024221 0.004347215)
(-0.18970992 0.035102546 0.0046965223)
(-0.20453411 0.035090743 0.0051026322)
(-0.21941208 0.035000162 0.0055623777)
(-0.23432121 0.034837843 0.0060914291)
(-0.24919923 0.034618792 0.006675422)
(-0.26399555 0.034352247 0.0073186868)
(-0.27868149 0.034044994 0.0080153652)
(-0.29322329 0.033709356 0.0087587721)
(-0.30759179 0.033349296 0.0095480762)
(-0.32177113 0.032971998 0.01037718)
(-0.33574045 0.03258587 0.011241485)
(-0.34949629 0.032184768 0.012141536)
(-0.36303136 0.031792803 0.013062174)
(-0.37634117 0.031382972 0.014018579)
(-0.38943822 0.030981538 0.014990335)
(-0.40232274 0.030569435 0.015982047)
(-0.41500305 0.030156018 0.016991335)
(-0.42750052 0.029735072 0.018011129)
(-0.4398169 0.029298887 0.019043795)
(-0.45197671 0.028855088 0.020078053)
(-0.46399464 0.028393759 0.021121296)
(-0.47588651 0.027920634 0.022157511)
(-0.48767915 0.027429355 0.023199069)
(-0.4993878 0.026918465 0.024230683)
(0 -9.7714131e-20 0)
(0 5.4672584e-19 0)
(0 4.7277099e-19 0)
(0 4.1721212e-19 -1.4301491e-19)
(0 1.6482086e-19 0)
(0 -5.7887444e-21 0)
(0 8.0121029e-20 0)
(0 3.0019517e-20 0)
(0 -1.9505631e-19 0)
(0 -4.8087237e-19 0)
(0 -5.9738975e-19 -9.9194125e-20)
(0 -9.793664e-20 0)
(0 1.2064022e-19 0)
(0 2.3303053e-19 0)
(0 1.879594e-19 0)
(0 2.9606212e-19 0)
(0 5.4071907e-19 0)
(0 5.4211557e-19 2.7306477e-19)
(0 4.6719781e-19 0)
(0 5.4400115e-19 0)
(0 1.8421939e-19 0)
(-3.1628903e-18 1.4900257e-19 0)
(1.3473475e-18 -3.3740407e-19 0)
(-7.8358164e-20 -1.3557725e-19 0)
(2.4322464e-19 -2.3880728e-19 -1.8122277e-19)
(-4.5434234e-19 -3.3342255e-19 0)
(-1.1628994e-18 -4.7661337e-19 0)
(1.7772473e-19 -3.9354348e-19 0)
(0 2.9331236e-19 0)
(0 1.0488613e-19 0)
(0 -2.0351121e-19 0)
(0 1.9839732e-20 5.1919722e-19)
(0 2.2378242e-19 0)
(0 3.2592854e-19 0)
(0 -9.0553784e-20 0)
(0 -2.3634342e-19 0)
(0 -1.9322147e-19 0)
(0 4.5449147e-20 0)
(0 2.2676632e-19 -5.1672494e-20)
(0 1.6778124e-19 0)
(0 -6.0810303e-20 0)
(0 1.5700764e-19 0)
(0 2.9008211e-20 0)
(0 -1.7102361e-19 0)
(0 2.5038531e-19 0)
(0 1.5944653e-20 1.8327916e-19)
(0 2.4806395e-19 0)
(0 3.9229857e-19 0)
(0 3.5529051e-19 0)
(-0.0018748517 0.0011852518 0.0022978207)
(-0.0021755608 0.0014538279 0.0014734802)
(-0.002526058 0.0014829896 0.00069764256)
(-0.0026085022 0.0015531905 4.9317987e-05)
(-0.0025121585 0.0014122733 -0.00056205605)
(-0.0023708367 0.0014423562 -0.0012409241)
(-0.0018832362 0.00099056859 -0.0019155353)
(-0.0036600401 0.0059542074 0.0034663318)
(-0.0043324833 0.0062702927 0.0019090794)
(-0.0045577866 0.0058037738 0.00074316419)
(-0.0045317879 0.0055572395 -0.00016028849)
(-0.0045148827 0.0057784771 -0.0010959702)
(-0.0039859987 0.0056998883 -0.0021786278)
(-0.0034849882 0.0056907433 -0.0034988525)
(-0.0051005471 0.0082581473 0.0037148124)
(-0.0058492429 0.0078626919 0.0025200325)
(-0.0063160483 0.00799835 0.0010334761)
(-0.0062834759 0.0078879929 -0.00015078445)
(-0.0060943647 0.0076532791 -0.0014377234)
(-0.0055558845 0.0077409892 -0.0024728929)
(-0.0048752118 0.0079853516 -0.0041074274)
(-0.0081683642 0.011807227 0.0037502248)
(-0.0088353752 0.011793424 0.0024744441)
(-0.0091478871 0.011557992 0.00097864761)
(-0.0091802232 0.011410885 -0.00019229636)
(-0.0089514814 0.011388125 -0.0014969906)
(-0.0084156608 0.011472013 -0.0029303306)
(-0.0074430471 0.011302739 -0.0041559632)
(-0.011541729 0.014766238 0.0037350259)
(-0.012186441 0.014505099 0.0024597942)
(-0.012591699 0.014452569 0.0010440173)
(-0.012555174 0.014297676 -0.00027171168)
(-0.01231783 0.014172167 -0.0016176982)
(-0.01168991 0.014195798 -0.002859484)
(-0.010855244 0.014193801 -0.0043359573)
(-0.015861585 0.017710552 0.0036418455)
(-0.016397476 0.017528474 0.0023542631)
(-0.016716366 0.017365499 0.00099120981)
(-0.01670764 0.017262398 -0.00028489263)
(-0.016384224 0.017168301 -0.0016337408)
(-0.015787564 0.017083863 -0.0029637901)
(-0.014828459 0.01704934 -0.0042157782)
(-0.020844215 0.020574357 0.0035201441)
(-0.021404297 0.020463934 0.0022716852)
(-0.021719318 0.020329565 0.00092449314)
(-0.021633253 0.020221107 -0.00027235036)
(-0.021351685 0.020074588 -0.0016154207)
(-0.020693268 0.020076674 -0.0028136254)
(-0.019775888 0.01993355 -0.0041770231)
(-0.026571758 0.023307865 0.0034291573)
(-0.027017693 0.023112151 0.0021816794)
(-0.027243289 0.022965087 0.00091433615)
(-0.027212017 0.022841432 -0.00032443345)
(-0.026815713 0.022703638 -0.0015721281)
(-0.026207005 0.022604521 -0.0028072664)
(-0.025269158 0.022539878 -0.0040065024)
(-0.032958235 0.025936284 0.0032951429)
(-0.033425546 0.025837784 0.0021114131)
(-0.033675515 0.02573988 0.00090065204)
(-0.033519608 0.025523951 -0.00028563997)
(-0.033189773 0.025414185 -0.0014782934)
(-0.032497454 0.02527917 -0.002650292)
(-0.031573176 0.025140553 -0.0038988789)
(-0.040075954 0.028482062 0.0032040713)
(-0.040421956 0.028251027 0.0020511463)
(-0.040565616 0.028070651 0.00082050926)
(-0.040453746 0.027938529 -0.00028994459)
(-0.040037742 0.027790597 -0.0014716723)
(-0.039396482 0.027643707 -0.0025996912)
(-0.038446196 0.027560828 -0.0037339535)
(-0.047768883 0.030816684 0.0031075751)
(-0.048113993 0.030667107 0.001987309)
(-0.048271268 0.030542197 0.00087546744)
(-0.048081762 0.030360285 -0.00020270995)
(-0.047722881 0.03017143 -0.0013374464)
(-0.047005242 0.030039012 -0.0023767829)
(-0.04609303 0.029887472 -0.0035742347)
(-0.056155254 0.033090179 0.0030052032)
(-0.056397876 0.032874306 0.0019120424)
(-0.056431619 0.032667057 0.00085063206)
(-0.05624378 0.032425489 -0.0002244638)
(-0.055779407 0.032247954 -0.0012670157)
(-0.055073151 0.032087065 -0.0022976933)
(-0.054197785 0.031932402 -0.0033611043)
(-0.06503564 0.035141683 0.0029571401)
(-0.065240866 0.034926895 0.0019215317)
(-0.065309466 0.034761939 0.00091982282)
(-0.065082388 0.034567893 -8.5501142e-05)
(-0.064640202 0.034380656 -0.0011117919)
(-0.063959173 0.034207345 -0.0020506169)
(-0.063044474 0.033998601 -0.0031054522)
(-0.07450412 0.03709095 0.0028738977)
(-0.074633935 0.036840248 0.001878248)
(-0.074631266 0.036610523 0.00093339944)
(-0.074312312 0.036323159 -4.5597102e-05)
(-0.073883808 0.036100486 -0.0009657088)
(-0.073131455 0.035875908 -0.0018852883)
(-0.072273387 0.035693514 -0.0028546438)
(-0.084465097 0.038836851 0.0028438615)
(-0.084561577 0.038583078 0.0019188089)
(-0.08450443 0.038345918 0.0010258254)
(-0.084239656 0.038119829 0.00012517837)
(-0.083744352 0.037883599 -0.00076758279)
(-0.083060158 0.037682111 -0.0016274513)
(-0.082168668 0.037425955 -0.0025500217)
(-0.0949049 0.040439846 0.0028146224)
(-0.094905491 0.040141846 0.0019356703)
(-0.094840958 0.039889906 0.0011040488)
(-0.094454178 0.039561839 0.00023919399)
(-0.09399346 0.039304966 -0.00057692672)
(-0.093245396 0.039010619 -0.0013815068)
(-0.09240182 0.038801048 -0.0022216386)
(-0.10576734 0.041860412 0.002820862)
(-0.10576057 0.04157446 0.0020180959)
(-0.1055981 0.041266896 0.0012307558)
(-0.10525559 0.040990351 0.00044628844)
(-0.10473647 0.040688196 -0.00032064378)
(-0.10404027 0.040454084 -0.0010682849)
(-0.10317039 0.040142607 -0.0018612261)
(-0.11703769 0.043129891 0.0028626143)
(-0.11691462 0.042772991 0.002100875)
(-0.11675776 0.042479064 0.001380584)
(-0.11632007 0.042110789 0.0006408523)
(-0.11582716 0.041816735 -6.271408e-05)
(-0.11508124 0.04146537 -0.00075389691)
(-0.1142603 0.041201408 -0.0014634822)
(-0.12863212 0.044216699 0.0029284275)
(-0.1285099 0.043883927 0.0022406012)
(-0.12825416 0.043518085 0.0015732998)
(-0.12784561 0.043188431 0.00089666419)
(-0.12729521 0.04281617 0.00025782478)
(-0.12659153 0.042520321 -0.00037962664)
(-0.12575382 0.042162664 -0.0010326716)
(-0.14056223 0.045163856 0.003050619)
(-0.14033153 0.044754742 0.0024132467)
(-0.14007621 0.044401243 0.001796814)
(-0.13959087 0.043984287 0.0011818743)
(-0.13905969 0.043630322 0.00059210681)
(-0.13832317 0.043236356 1.312808e-05)