/*--------------------------------*- C++ -*----------------------------------*\
  =========                 |
  \\      /  F ield         | OpenFOAM: The Open Source CFD Toolbox
   \\    /   O peration     | Website:  https://openfoam.org
    \\  /    A nd           | Version:  6
     \\/     M anipulation  |
\*---------------------------------------------------------------------------*/
FoamFile
{
    version     2.0;
    format      ascii;
    class       pointScalarField;
    location    "0.87";
    object      p;
}
// * * * * * * * * * * * * * * * * * * * * * * * * * * * * * * * * * * * * * //

dimensions      [1 -1 -2 0 0 0 0];

internalField   nonuniform List<scalar> 
625
(
227324.72
-243052.84
-1019.2504
536.88084
346150.88
-739622.72
674.24829
-338.22758
180380
62156.017
61177.58
515.81347
872.63667
250.92763
102575.47
102706.5
97901.594
95854.102
76725.747
78652.527
63589.338
57038.823
54771.273
45751.317
42641.079
38861.735
35026.784
31516.607
28010.153
24280.543
20529.368
16719.659
12490.421
9750.1881
6528.4458
2677.2151
1086.2644
-95952.353
-46170.232
-77365.789
-52333.764
-54978.725
-56373.266
-51571.367
-48326.956
-48137.783
-43955.686
-42866.077
-38368.175
-36371.824
-32360.093
-28622.635
-24365.895
-19951.069
-15376.025
-11352.033
-6662.8518
-3815.8869
-1181.9389
364.03973
179790.33
-97461.823
-146706
-128425.73
-154013.9
-113931.74
-94204.671
-119550.04
-76832.263
-79362.889
-75523.405
-62577.804
-60022.756
-48812.959
-47232.377
-37092.77
-33219.308
-28503.167
-22189.67
-18697.484
-14409.587
-10557.301
-7184.5975
-4830.8952
-2177.2316
-978.17603
34.021441
847.04412
22.159122
986.75314
3313.9685
6392.7263
11391.093
16964.248
21579.855
27872.143
32375.902
37956.559
42181.209
46359.986
50102.278
53117.311
53109.748
61564.126
58939.677
66020.009
64598.16
76225.65
59597.426
82814.54
80653.745
65548.431
273350.81
188284.86
147044.2
-319354.26
-335196.71
-297770.09
-919.00374
222.46771
468.7067
-670.77182
-1644.739
-1519.2636
65246.765
73914.904
73034.405
61736.735
59258.154
56404.555
46627.244
46132.538
40292.496
35184.28
33496.77
29188.425
26009.077
22213.333
19487.196
15999.393
13092.829
10068.327
7385.6356
5365.0756
3482.8987
2030.101
966.32909
5793.534
19267.282
3910.7096
12953.957
4655.4757
5254.6056
1656.0314
1733.1023
-680.2402
-3253.8914
-3878.7727
-5396.3488
-6164.2489
-6274.8621
-5822.6436
-5535.6375
-4396.277
-3534.5417
-2070.574
-1370.1301
177.69983
777.6924
1313.4892
-39532.671
-34413.735
-36485.82
-26592.214
-42148.058
-28347.332
-33975.578
-30552.623
-29927.153
-28649.905
-24790.196
-23078.871
-20137.445
-17461.029
-14741.579
-12309.729
-9614.7604
-7294.0809
-4739.0608
-3310.4618
-2307.6077
-321.94949
-73.50033
135119.76
101573.36
112051.01
19108.492
1955.7679
-18147.793
16631.563
-13488.826
-68903.629
-147379.89
-156496.25
-163520.24
-98147.568
-106461.86
-103733.86
-94104.925
-98017.803
-106677.33
-67481.711
-75965.738
-84690.09
-72714.563
-81900.131
-94180.421
-66621.304
-70454.159
-74627.346
-63085.104
-66815.185
-75111.731
-58952.868
-59759.983
-66997.048
-54807.564
-55022.106
-61170.458
-51334.855
-50258.82
-55255.276
-46009.408
-42938.533
-48591.845
-42176.323
-39909.166
-44449.69
-37201.33
-34023.607
-37833.933
-32811.527
-29354.886
-32288.556
-27872.639
-24508.708
-27797.088
-23185.912
-20364.281
-22532.442
-18655.451
-15731.21
-17518.009
-14035.954
-11562.597
-13317.038
-9545.7262
-7942.8645
-9048.0488
-6164.0066
-4724.5938
-5481.0882
-2585.1354
-2008.9771
-2313.435
-667.48277
18.38515
-798.55436
987.65993
1128.4712
924.59943
-68.916573
-288.167
-637.36652
-300.14591
-318.00855
133.17715
2125.5321
1504.7829
1658.6929
120872.51
98371.15
106155.01
113403.11
90143.835
82767.273
113330.37
88456.573
87309.092
90056.173
76653.936
75987.708
88658.489
76620.268
67688.887
80407.446
61317.873
62008.368
68375.575
58865.53
61848.198
66238.65
53461.092
55018.154
59033.052
50436.029
51721.972
53410.683
45767.601
48991.369
50515.383
42055.08
46632.762
45950.342
38127.508
44833.081
41026.813
35582.252
41891.753
37327.692
32050.942
38752.175
32468.084
28991.325
35255.121
28124.152
25001.564
30859.698
23309.614
21252.68
26491.607
18428.473
17135.019
21669.133
13826.547
13141.58
16571.317
9500.0984
9108.7939
12056.54
5763.3833
4986.1148
7991.3265
1951.4802
2470.185
3591.5365
-17.23164
-219.09999
1020.6142
34516.248
46117.332
36282.275
42407.096
46135.707
41142.231
38922.585
36560.894
34948.583
31051.34
30680.962
25808.66
23003.015
20294.317
17093.027
14779.12
11901.552
9538.3465
7453.3479
5098.913
3702.0705
1779.7048
177.86227
-41952.614
-21793.926
-14012.085
-8910.5911
1830.4071
-5513.771
836.03346
2508.9548
2456.1762
3424.8642
5962.7683
6598.3139
7743.5331
7996.1907
8901.9481
8297.6544
7856.8168
7005.3269
5743.4346
4169.7683
2881.8997
1551.8619
440.36932
-78287.6
-75891.948
-73022.102
-64674.982
-57074.232
-55462.898
-40717.548
-37473.764
-31801.052
-26769.092
-21968.8
-18197.973
-16600.14
-12396.108
-10856.515
-8650.0214
-6715.1252
-4812.4067
-3834.8036
-2340.6915
-1443.4812
-423.1565
-439.35027
88972.107
80410.58
47084.764
79768.537
60997.611
49277.724
56833.889
54515.485
59257.634
53372.933
62710.814
35356.616
63274.525
43555.778
41046.822
41115.476
49140.465
46753.17
47134.123
49720.599
38269.343
44340.409
40559.09
38679.676
34530.317
37970.645
38347.637
33548.405
37799.896
35847.831
27635.726
32189.145
31174.116
22396.246
29285.806
29622.294
18930.951
26013.864
25813.331
15170.669
22367.838
23189.469
11735.927
18997.029
19255.696
8844.2757
15677.153
16348.98
6447.8463
12660.999
13342.418
4669.9703
9937.1786
10094.891
3204.975
6975.9743
7582.8205
2206.1707
4955.2521
5516.86
225.99913
4196.0186
2174.4088
754.96285
1080.673
1633.1585
86.508539
1092.2431
331.74382
14097.212
-22767.628
-15180.924
10942.938
4881.4051
-2036.9156
17810.994
6376.4373
-10238.039
15076.442
112.08288
-10844.974
8219.7559
4386.6246
-1515.0311
6559.9541
8579.8588
-5308.7491
11167.993
6014.3451
-6655.1293
2901.2105
2130.8599
-3574.0246
2829.1792
6588.6308
-2629.4483
3511.937
4823.0052
-2932.2564
1178.387
3816.8895
-3506.0797
1182.9973
4439.5464
-2028.9397
253.00308
4675.9765
-2555.1375
553.04386
3851.1312
-2723.91
-522.08383
4187.6058
-2299.2151
-144.76563
3747.3158
-1986.3466
-563.99097
3802.2288
-1818.4231
129.91141
3103.5589
-1575.7506
-394.11282
2260.6656
-674.31276
1177.0757
2132.3694
-947.05877
-647.25995
354.32278
-151.91079
-227.96966
1788.4021
-124.17416
975.87203
1160.2153
800.87204
-63632.41
-80705.487
-115535.73
-28567.213
-39743.061
-67986.657
-33046.162
-63634.324
-69692.82
-48716.915
-46468.787
-57829.607
-32111.289
-43526.683
-51952.013
-31708.03
-40703.971
-50473.064
-30934.534
-37664.086
-42437.047
-28069.914
-34523.604
-36980.077
-24331.108
-28954.693
-31742.024
-22894.326
-28533.934
-29031.785
-20925.839
-25990.235
-24600.173
-19544.713
-22808.1
-20521.471
-16848.884
-21529.02
-18798.761
-15405.337
-19241.97
-15641.11
-13404.352
-17033.347
-12761.594
-11790.165
-14300.667
-11166.073
-9508.9131
-12183.084
-8867.3209
-8359.5814
-9470.3265
-7448.063
-6165.3031
-7541.4594
-5053.4098
-5680.6043
-3924.3161
-4260.1799
-2171.9348
-3354.602
-2425.5092
-1857.9662
-1022.4788
-1051.9477
-692.57651
-736.73208
-1118.1062
)
;

boundaryField
{
    free
    {
        type            calculated;
    }
    fixed
    {
        type            calculated;
    }
    freeTop
    {
        type            calculated;
    }
}


// ************************************************************************* //
