/*--------------------------------*- C++ -*----------------------------------*\
  =========                 |
  \\      /  F ield         | OpenFOAM: The Open Source CFD Toolbox
   \\    /   O peration     | Website:  https://openfoam.org
    \\  /    A nd           | Version:  6
     \\/     M anipulation  |
\*---------------------------------------------------------------------------*/
FoamFile
{
    version     2.0;
    format      ascii;
    class       pointVectorField;
    location    "0.21";
    object      lm;
}
// * * * * * * * * * * * * * * * * * * * * * * * * * * * * * * * * * * * * * //

dimensions      [1 -2 -1 0 0 0 0];

internalField   nonuniform List<vector> 
3969
(
(-4.0340813e-15 -4.7705825e-17 1.3312818e-16)
(9.2297575e-16 -2.6090405e-16 -6.0252577e-16)
(6164.1675 -830.38577 46.296388)
(5646.3731 -2410.1479 -12.190737)
(-7.1783695e-15 2.6020842e-15 -1.0366567e-15)
(-4.622429e-15 2.1493156e-15 -1.5432914e-15)
(5634.3448 -2397.5603 16.384191)
(6138.3261 -887.5872 22.708384)
(-6.09887e-15 1.0869625e-16 -2.0095736e-16)
(-3.193382e-15 6.5333688e-16 6.3735029e-17)
(-2.9260211e-15 2.9260844e-16 -4.8432863e-17)
(-1.7497804e-15 -1.5755452e-16 -2.074758e-16)
(-4.3254872e-15 8.6218995e-16 7.3228779e-16)
(-2.4697388e-15 -4.9707839e-16 4.8086129e-16)
(5.2680668e-16 -4.7467027e-16 -5.3018058e-16)
(6099.1123 -1021.9848 45.412353)
(6035.216 -1219.1449 40.552886)
(5969.8574 -1422.3996 28.028232)
(5905.2311 -1625.0692 13.816043)
(5840.1207 -1826.9911 0.39750211)
(5775.4898 -2024.0577 -8.3401818)
(5711.2329 -2216.6622 -12.0873)
(-15.471119 -30.699489 -30.525876)
(-29.686604 -50.480701 -37.800467)
(-57.937343 -67.154044 -34.749451)
(-94.712989 -79.12689 -26.336214)
(-142.52165 -79.630205 -9.1638476)
(-192.20511 -68.129143 10.000572)
(-237.71269 -40.936642 31.302186)
(-269.74225 -1.0569257 50.153436)
(-281.85415 49.781918 64.889577)
(-269.69716 105.3785 74.865518)
(-231.70346 162.82028 80.548004)
(-169.36754 216.29261 82.352844)
(-85.618611 262.55181 81.6786)
(15.815369 300.97942 80.985231)
(131.30181 329.61019 79.829288)
(258.25919 350.56501 79.131)
(396.27621 364.40339 77.847904)
(545.08307 371.82379 74.703225)
(705.2884 373.48629 68.867461)
(876.48135 369.18906 59.847166)
(1057.5688 358.50232 48.248579)
(1245.4079 340.99816 35.508083)
(1436.1352 316.42799 23.914597)
(1625.1847 285.38938 15.600536)
(1808.5172 248.97111 12.512138)
(1983.805 209.65057 15.52906)
(2150.2668 169.33372 24.098159)
(2310.0799 129.91101 36.45613)
(2466.7901 93.182119 50.285555)
(2624.6779 59.819745 62.823003)
(2788.6415 29.704512 71.740457)
(2962.1874 1.7644685 75.709787)
(3147.1421 -25.751239 74.515895)
(3343.5494 -54.735576 69.017934)
(3549.373 -87.247839 61.161682)
(3761.1834 -125.0328 53.008862)
(3975.1412 -168.88179 46.089377)
(4187.8768 -219.36868 42.506922)
(4396.626 -275.03447 41.908258)
(4600.3694 -335.77576 43.839449)
(4799.2294 -399.10338 46.713564)
(4994.4795 -463.81252 49.84179)
(5187.6785 -528.43574 51.533899)
(5380.9504 -589.98969 51.342886)
(5576.3864 -653.22783 48.0694)
(5774.3056 -713.91426 46.683452)
(5969.7059 -768.95155 42.904052)
(-5.3201047 31.831636 51.450952)
(-26.517433 55.32928 43.903059)
(-55.798588 85.641019 47.6574)
(-95.347684 98.558118 32.308796)
(-149.53773 112.05881 10.648606)
(-212.15798 114.35635 -21.842227)
(-269.71345 104.50898 -55.370041)
(-315.90438 83.97553 -87.03067)
(-340.91469 50.637075 -112.25116)
(-340.22231 8.8447796 -125.60935)
(-311.06952 -41.507474 -129.95239)
(-257.77668 -95.958608 -123.64727)
(-183.99874 -152.89996 -111.19007)
(-94.592191 -210.91967 -95.738952)
(5.814217 -269.65099 -81.778101)
(114.32107 -328.37026 -71.395035)
(230.25791 -387.91989 -65.952144)
(354.22438 -448.05309 -64.623382)
(488.73602 -509.51341 -65.485022)
(635.33074 -571.04274 -66.160296)
(794.53882 -632.53092 -64.055079)
(965.54881 -691.49422 -58.456304)
(1144.1872 -748.16573 -48.65166)
(1326.4622 -800.80773 -36.245899)
(1506.485 -849.37685 -23.001366)
(1680.0134 -895.16166 -12.05131)
(1843.8963 -939.40231 -5.8921374)
(1997.4654 -984.7787 -5.6652487)
(2142.9175 -1032.8528 -11.499766)
(2283.8552 -1086.1854 -21.973434)
(2426.0323 -1146.4035 -35.06477)
(2574.4432 -1213.886 -47.826776)
(2733.6417 -1288.2535 -57.6134)
(2905.9844 -1367.9939 -62.192214)
(3091.7784 -1451.1595 -60.475762)
(3289.0811 -1535.5706 -52.491979)
(3494.649 -1618.7732 -40.090936)
(3703.5008 -1699.3085 -24.989362)
(3911.6951 -1776.557 -10.079991)
(4116.0967 -1849.8073 2.5380472)
(4314.5737 -1920.4714 10.968611)
(4506.8481 -1989.0071 13.964619)
(4694.4932 -2057.0196 12.12475)
(4879.702 -2125.4346 6.6254761)
(5066.0084 -2195.3956 -0.11402927)
(5255.661 -2266.9864 -5.6962285)
(5449.6936 -2339.8803 -9.3252869)
(-3.9179893e-16 -2.8384427e-17 -1.6191597e-16)
(6.8869455e-16 3.3255846e-16 -2.9305012e-16)
(-3.0379221e-16 -4.0639439e-16 3.7376104e-16)
(8.6048107e-16 -8.7588792e-17 1.0515471e-16)
(5.0258192e-16 -7.4376592e-16 6.4035694e-16)
(-2.9679417e-15 -3.4669267e-16 7.3060073e-16)
(8.9003905e-16 -2.834795e-16 1.0120244e-16)
(-10.540366 21.44328 -37.95942)
(-13.963558 60.623496 -54.797671)
(-35.385783 67.752056 -56.529668)
(-77.541566 86.640789 -44.478256)
(-133.6482 92.199642 -23.980105)
(-194.19943 90.291343 3.7451641)
(-254.8387 71.753862 30.480712)
(-292.31952 42.819134 51.242896)
(-317.39033 2.0027441 66.623086)
(-306.17425 -54.582164 70.010287)
(-278.76527 -113.36107 73.538477)
(-223.0199 -174.97731 66.280299)
(-146.17976 -237.64655 55.892477)
(-59.883111 -300.71167 51.2097)
(32.481457 -359.67982 50.406402)
(131.30477 -418.56633 54.292469)
(236.65958 -475.97522 59.979285)
(352.51396 -535.31267 64.210156)
(482.53557 -596.58031 63.512825)
(629.20367 -660.73462 55.898507)
(792.51692 -726.64869 41.317139)
(969.5487 -792.8028 21.718304)
(1154.8966 -856.80077 0.70875961)
(1341.3679 -916.24416 -17.262833)
(1522.169 -969.91676 -28.331042)
(1690.5884 -1015.9871 -29.367727)
(1844.7269 -1058.4922 -19.787616)
(1988.7616 -1097.8997 -3.9204043)
(2124.5524 -1139.2979 16.02076)
(2258.1639 -1185.821 35.889637)
(2395.6827 -1240.1763 51.981625)
(2543.0217 -1303.7856 61.583811)
(2704.2446 -1376.311 63.343005)
(2881.0198 -1455.9992 57.619684)
(3072.5671 -1539.8216 46.377685)
(3274.7342 -1625.6442 32.82107)
(3487.1003 -1704.3447 19.086304)
(3696.7008 -1785.1303 7.2730287)
(3907.2262 -1853.9459 1.6747784)
(4110.2116 -1917.6057 0.56164933)
(4307.4815 -1975.7985 3.6798432)
(4498.1401 -2031.0041 9.4812146)
(4684.9443 -2085.9633 15.350779)
(4870.78 -2142.9557 19.583974)
(5058.0451 -2203.5811 21.055544)
(5248.4113 -2267.6739 19.876601)
(5441.9656 -2333.632 17.81437)
(5697.0632 -2206.0187 15.672033)
(5763.752 -2017.7634 14.618512)
(5828.1574 -1828.5463 13.971699)
(5892.6759 -1638.2199 13.637189)
(5958.7896 -1449.1422 14.975917)
(6019.7937 -1259.5212 15.841418)
(6077.0746 -1071.0103 19.069535)
(5953.1047 -825.98876 20.880612)
(5768.3444 -771.31866 18.663499)
(5587.4685 -715.55914 24.515373)
(5404.7679 -661.46696 30.147263)
(5219.8218 -608.21101 34.387387)
(5030.6298 -552.80802 34.668726)
(4834.1005 -494.06061 28.631366)
(4628.8986 -432.08543 15.820846)
(4416.0851 -367.91343 -2.3381944)
(4196.2204 -304.67598 -23.278012)
(3972.9947 -246.44796 -43.744542)
(3753.6855 -194.80725 -61.810985)
(3538.2681 -148.77376 -71.248437)
(3334.4737 -115.73945 -73.243038)
(3142.9264 -90.387221 -66.861753)
(2964.6041 -71.165382 -53.998932)
(2797.4923 -54.182151 -37.565775)
(2638.2699 -35.205612 -21.254912)
(2481.7014 -10.95741 -8.1046349)
(2323.3142 21.288179 -1.0943685)
(2158.5355 61.090667 -0.8707698)
(1985.0107 107.19533 -7.2220914)
(1802.6329 155.83469 -18.432415)
(1613.0815 203.00316 -31.603234)
(1420.3498 244.17833 -43.738814)
(1228.7777 275.95367 -52.428836)
(1042.9642 296.52819 -56.442723)
(866.3571 305.69064 -55.743658)
(700.73454 304.90217 -52.026609)
(545.92167 296.38039 -47.788391)
(401.53025 282.41608 -45.761241)
(264.92749 265.19433 -47.499619)
(136.56109 245.3503 -55.399602)
(19.162115 218.49997 -65.334651)
(-87.396513 188.6963 -80.129998)
(-178.16061 154.55306 -92.145118)
(-246.10798 114.59036 -100.37759)
(-288.41588 70.344077 -100.87181)
(-303.74477 24.582413 -91.055795)
(-291.03893 -18.535532 -73.438938)
(-255.25877 -51.634507 -48.25686)
(-205.64368 -74.282763 -20.710885)
(-152.28632 -84.647475 6.3503859)
(-99.112895 -84.566448 27.890735)
(-58.935832 -71.592293 36.698648)
(-37.621514 -48.054457 37.009149)
(-22.636294 -32.656168 28.161721)
(-6.7652979e-16 3.5118239e-16 1.2802193e-16)
(-2.3129286e-15 2.7505878e-16 1.3239036e-16)
(-3.6393531e-15 -1.4253491e-16 -1.5464221e-16)
(-4.9195801e-15 -9.3657526e-16 4.6870719e-16)
(-4.0844143e-15 -8.2232132e-16 1.723462e-16)
(-2.0271537e-15 -1.8079967e-16 2.6438577e-16)
(-2.0670014e-15 8.6459225e-16 1.4474963e-15)
(-4.5036838e-15 1.2268482e-15 -2.065022e-16)
(-1.9919023e-15 1.1694967e-15 -1.6367101e-16)
(-2.9438013e-15 1.1112212e-15 -1.969436e-16)
(-2.4504202e-15 9.597151e-16 -1.1789697e-16)
(-5.2893259e-15 2.5926013e-15 -8.0820905e-16)
(-1.8775489e-15 1.1365606e-15 -5.8525306e-16)
(-7.4714327e-17 -2.094137e-16 9.7564992e-17)
(5649.4576 -2407.359 -8.6996784)
(5651.2188 -2405.6892 -3.388974)
(5651.0995 -2403.2525 2.6783551)
(5648.609 -2401.1511 7.9646467)
(5644.8229 -2399.1861 12.11175)
(5639.9973 -2398.3157 14.874663)
(5636.988 -2397.7172 17.18935)
(6165.7401 -834.46209 46.700514)
(6165.6605 -840.86613 45.269491)
(6160.226 -850.65107 42.862752)
(6152.1844 -861.74024 39.046485)
(6143.5457 -873.02274 33.37107)
(6136.672 -880.57121 28.257556)
(6135.6935 -885.3986 22.868075)
(-6.3121107 -17.018897 -24.525702)
(-25.466892 -28.107533 -20.774658)
(-52.206702 -36.022517 -20.456352)
(-92.203448 -38.19365 -11.465587)
(-142.06634 -32.965244 -1.3982658)
(-195.61852 -19.538094 12.099222)
(-245.52313 1.7042979 24.536731)
(-282.44199 29.42596 36.227467)
(-299.27009 61.808399 44.436021)
(-291.61127 96.655943 50.564588)
(-257.95813 131.68595 53.811129)
(-199.18197 163.6915 55.759198)
(-117.65396 192.33552 57.040293)
(-18.575517 215.38599 58.578926)
(95.20324 232.70189 59.991209)
(220.80141 244.47789 61.256196)
(357.05143 250.20256 61.247911)
(503.89425 249.84012 59.031055)
(661.89737 243.47639 53.835069)
(831.07789 230.84816 45.589799)
(1010.3426 212.22587 35.159211)
(1197.0669 187.88972 23.991476)
(1387.4995 158.79047 14.205472)
(1576.8665 125.9343 7.6293618)
(1761.3774 90.880969 5.9266543)
(1938.0073 54.771125 9.1088665)
(2105.1633 18.941615 16.910552)
(2264.9468 -15.973544 27.775691)
(2420.2299 -49.821825 39.291949)
(2575.4592 -82.652838 49.141527)
(2735.6444 -115.33682 55.61836)
(2904.6229 -148.97301 57.578093)
(3085.0237 -184.50864 55.199583)
(3277.2635 -223.00272 49.436834)
(3479.9206 -265.1807 42.160944)
(3690.08 -311.30093 35.205707)
(3903.7766 -361.73473 30.039734)
(4117.3793 -415.46741 28.297556)
(4328.0225 -472.26464 29.717226)
(4533.8229 -531.59399 33.466179)
(4734.4318 -591.99592 38.003608)
(4931.0202 -653.38412 42.617377)
(5124.7956 -714.89745 44.733519)
(5316.5793 -776.55562 45.985252)
(5513.3851 -838.77718 43.776788)
(5707.9474 -900.80921 42.418235)
(5901.502 -959.04325 40.993928)
(2.5190014 -11.892725 -17.381559)
(-17.945959 -16.3613 -14.925735)
(-49.06592 -22.987099 -13.067859)
(-91.480535 -22.896481 -8.5842853)
(-145.30748 -17.273473 -0.7899058)
(-202.03963 -6.2038349 6.2951001)
(-254.17065 10.258363 14.382015)
(-292.9546 31.436906 19.949907)
(-312.09714 55.130958 25.587337)
(-306.62652 80.433633 28.712686)
(-274.89403 103.98176 31.499121)
(-218.02221 125.41678 33.509081)
(-139.43859 141.97842 35.771705)
(-42.481353 153.56021 38.146226)
(68.830801 159.71677 40.633376)
(191.68849 160.46321 42.355665)
(325.44859 155.54294 42.696309)
(470.0364 145.14274 41.046133)
(626.20275 129.40278 36.819948)
(793.87507 108.65153 30.372038)
(972.00425 83.346833 22.353346)
(1157.9882 54.208332 14.085637)
(1347.5923 22.087908 7.0864475)
(1536.7683 -12.033932 2.8995205)
(1720.5705 -47.612608 2.277022)
(1896.2806 -83.479404 5.7480262)
(2062.5093 -119.70475 12.036078)
(2220.7259 -155.7932 20.457016)
(2373.7758 -192.06873 28.80667)
(2526.4349 -228.90376 35.460027)
(2683.6164 -266.79665 39.303085)
(2849.519 -306.40359 39.800834)
(3027.0206 -348.13952 37.134686)
(3216.8829 -392.45255 32.397396)
(3417.8128 -439.47141 26.870543)
(3626.7705 -489.57157 22.168397)
(3840.1612 -542.3597 19.256194)
(4053.6586 -597.93299 19.259511)
(4264.3167 -655.85159 21.585818)
(4469.8488 -716.12279 25.597967)
(4670.2992 -777.75897 30.144093)
(4865.7019 -840.69958 34.283057)
(5059.2341 -904.22069 36.631955)
(5250.0443 -967.62415 37.933464)
(5445.309 -1031.5746 36.043904)
(5640.0527 -1094.7111 37.106054)
(5831.3111 -1152.8104 35.067194)
(0.5028711 -5.882976 -4.9233642)
(-19.304166 -7.8702929 -0.22407518)
(-49.80923 -9.9797664 -1.8418205)
(-95.270447 -7.9046425 2.4157241)
(-150.88184 -2.4690046 3.5885933)
(-207.93698 7.2013919 6.3072053)
(-261.44611 20.013529 6.8189552)
(-301.53961 35.969972 8.0059455)
(-322.07035 52.835014 7.8564758)
(-317.47743 69.543184 7.8013417)
(-287.5005 84.74963 8.6664177)
(-232.42783 95.97735 10.338323)
(-155.43159 103.07837 13.025052)
(-60.791229 104.53656 17.023898)
(48.006376 100.85977 20.80478)
(168.98915 91.895984 23.529412)
(300.82417 77.774722 25.080547)
(443.72747 58.687864 24.247052)
(598.16411 35.108209 21.257985)
(764.0332 7.5024118 16.183712)
(940.37879 -23.573326 9.933794)
(1124.5586 -57.630221 3.6679445)
(1313.0721 -93.751069 -1.0499321)
(1500.5601 -131.53064 -3.433051)
(1683.188 -169.82834 -2.6438802)
(1857.8119 -208.70188 0.85260855)
(2023.1822 -247.60751 6.5119042)
(2179.9513 -286.69986 13.333179)
(2331.5365 -326.38609 19.558571)
(2482.3202 -367.12005 23.90202)
(2637.2075 -409.32109 25.733792)
(2800.5687 -453.74408 24.711994)
(2975.417 -500.61981 21.393765)
(3162.638 -550.14704 16.721428)
(3361.1478 -602.53889 12.120448)
(3568.3282 -657.49624 8.7804405)
(3780.2393 -715.03385 7.7070159)
(3993.0261 -774.61382 9.029213)
(4203.1851 -836.11099 12.475845)
(4408.6214 -899.22369 17.701222)
(4608.6431 -963.43598 22.727166)
(4803.8734 -1028.695 27.624478)
(4996.4064 -1093.9626 29.573245)
(5186.4307 -1159.6352 31.339883)
(5379.8669 -1224.8764 29.410217)
(5572.9022 -1290.0492 29.395999)
(5762.6502 -1351.8989 26.858692)
(5.1359324 0.94452602 2.625623)
(-11.7414 1.6562166 3.4543354)
(-46.734583 2.083115 4.8752486)
(-93.07091 4.1462227 3.5065632)
(-150.0527 8.7942947 1.8181381)
(-210.52281 16.289037 -1.8273637)
(-266.08745 26.045795 -5.3618913)
(-308.5752 38.750466 -9.9978479)
(-330.56575 50.577929 -13.074899)
(-328.21141 62.263813 -14.545456)
(-299.45532 69.522528 -14.313913)
(-245.14721 72.507646 -12.215693)
(-169.4147 69.753073 -8.3884372)
(-76.002309 60.620488 -3.0556324)
(31.56695 46.256037 1.4595191)
(151.01206 26.758281 5.5070322)
(280.86394 2.9807649 7.5663518)
(421.78409 -24.807516 7.5958575)
(574.00702 -55.685623 5.4415483)
(738.01402 -89.506547 1.7097496)
(912.88399 -125.65415 -2.8932841)
(1096.4629 -164.17395 -6.8075269)
(1283.4995 -204.48836 -9.3818708)
(1469.9287 -246.13439 -9.7887519)
(1651.2529 -288.4873 -7.7430773)
(1824.4089 -331.4811 -3.5466559)
(1987.7857 -374.75281 2.110975)
(2142.5713 -418.34613 7.646568)
(2291.9151 -462.50149 11.84579)
(2440.3817 -507.54225 13.98113)
(2592.9712 -554.00196 13.475744)
(2754.1056 -602.44716 10.701832)
(2926.7949 -653.26586 6.3271834)
(3112.0033 -706.81913 1.6629772)
(3308.761 -763.22187 -2.1406142)
(3514.3498 -822.51271 -3.8597674)
(3724.7689 -884.36161 -3.2830063)
(3936.064 -948.43981 -0.027423665)
(4144.8218 -1014.4956 5.5846922)
(4349.142 -1081.9426 11.78355)
(4548.2884 -1150.0547 17.628022)
(4742.2924 -1218.2708 21.869694)
(4933.8369 -1286.2625 23.737132)
(5122.955 -1353.8519 24.380035)
(5315.1003 -1420.8865 21.937961)
(5507.6244 -1487.7861 20.356429)
(5697.0898 -1552.965 16.9525)
(5.4582994 3.0571895 10.803354)
(-17.240788 6.4115302 18.739596)
(-49.58193 10.121807 15.353266)
(-97.307932 14.080561 12.29065)
(-156.16999 18.683746 5.3135979)
(-217.68158 24.412975 -3.0010382)
(-275.49277 31.430666 -13.024508)
(-318.95827 39.743491 -22.792981)
(-342.75926 46.671273 -30.105067)
(-339.94939 52.236599 -35.719989)
(-310.5132 52.983521 -37.926638)
(-256.00185 48.624868 -36.250496)
(-179.99881 36.410021 -31.544565)
(-86.528186 18.202813 -25.744356)
(20.015817 -6.6880519 -19.512453)
(137.43669 -36.286689 -14.411491)
(264.92828 -69.876185 -11.342538)
(402.73525 -106.28703 -10.247571)
(552.04775 -144.70013 -11.192034)
(713.15023 -184.83241 -13.243386)
(885.90159 -226.02111 -15.667198)
(1066.4298 -269.78707 -16.397521)
(1252.85 -314.37879 -16.665991)
(1438.6426 -359.30168 -14.796664)
(1619.9214 -405.18006 -11.503927)
(1792.389 -451.68074 -6.5647651)
(1954.9294 -498.80345 -1.654643)
(2108.2118 -546.6536 2.1067368)
(2255.3255 -595.19329 4.189306)
(2400.8686 -644.91891 3.8508063)
(2550.087 -696.22344 1.3977401)
(2707.7662 -749.54498 -2.6987698)
(2877.2078 -805.32467 -7.3496993)
(3059.7046 -863.68177 -11.40671)
(3254.4678 -924.92015 -13.787391)
(3458.7684 -988.88624 -13.718174)
(3668.4517 -1055.3095 -11.167422)
(3879.5437 -1123.8477 -5.8706268)
(4088.1178 -1193.1167 0.10689926)
(4292.6416 -1263.7866 6.9625622)
(4490.7992 -1335.5328 12.835457)
(4683.8219 -1407.0997 17.189958)
(4873.6371 -1478.0416 18.632229)
(5061.8329 -1548.4421 18.713716)
(5252.0679 -1617.5936 15.475119)
(5443.4933 -1686.4698 12.663445)
(5634.0175 -1754.769 8.122354)
(1.8115779 15.799978 24.00857)
(-15.864659 22.857192 25.328112)
(-48.136957 29.179879 22.221992)
(-94.589748 32.793304 14.86999)
(-152.4405 36.393007 2.833553)
(-215.35604 39.730268 -12.712817)
(-274.2093 43.072314 -29.707842)
(-319.91571 46.699138 -45.281752)
(-344.98075 47.220036 -57.462633)
(-343.2571 44.72992 -64.986674)
(-314.82156 34.912705 -67.11517)
(-260.47839 18.562111 -63.917316)
(-184.56391 -5.578275 -57.447723)
(-92.067598 -36.096988 -48.650661)
(12.961148 -72.30076 -40.204725)
(128.12896 -112.47204 -33.263701)
(252.54979 -155.41932 -29.061604)
(387.02924 -199.77149 -27.297062)
(532.76568 -245.23311 -27.761741)
(690.65665 -291.13049 -28.935537)
(860.24425 -338.15936 -29.668932)
(1039.5582 -384.80365 -29.291895)
(1222.6579 -433.8771 -26.188092)
(1407.9732 -483.35441 -21.713137)
(1587.6379 -532.36373 -15.353283)
(1759.2946 -582.34879 -8.5797851)
(1920.9801 -632.65906 -3.4963731)
(2072.9642 -683.13023 -0.35532157)
(2218.4939 -734.38998 -0.3471771)
(2362.177 -786.96399 -3.3513624)
(2509.2002 -841.35615 -8.8711071)
(2664.4973 -898.20106 -15.613007)
(2831.4492 -958.08193 -22.070707)
(3011.6001 -1021.1885 -26.765914)
(3204.167 -1087.6205 -28.501848)
(3406.4156 -1157.2632 -26.564975)
(3614.4317 -1229.1705 -21.329357)
(3824.1451 -1302.9718 -13.668203)
(4032.1326 -1377.8333 -4.7633041)
(4235.0537 -1452.2415 4.8797961)
(4432.5081 -1527.4977 11.37661)
(4624.8711 -1601.2557 15.159307)
(4813.9028 -1673.9244 15.736962)
(5001.5753 -1744.861 13.564444)
(5190.4003 -1814.5764 9.615863)
(5381.6897 -1883.3109 5.3590623)
(5573.9193 -1953.1043 0.80892429)
(2.812797 21.416552 32.020672)
(-16.357149 28.097024 34.680933)
(-47.576305 39.077324 32.703933)
(-92.722467 45.474077 21.957656)
(-152.77771 48.605257 5.3896369)
(-217.66704 50.205382 -16.378416)
(-280.00064 50.121347 -40.013501)
(-328.10039 47.156391 -61.350458)
(-354.27013 39.809231 -79.219311)
(-352.50435 26.20299 -89.361688)
(-322.0105 4.4140137 -93.275795)
(-265.991 -24.432736 -90.267739)
(-188.5105 -62.546009 -81.795594)
(-95.921994 -106.82914 -71.658685)
(8.0022097 -156.6029 -61.481755)
(119.92572 -209.41756 -53.543532)
(239.75107 -263.73294 -48.393448)
(368.43759 -318.02371 -46.126247)
(508.29053 -371.58948 -45.608828)
(660.91424 -423.98621 -45.470125)
(826.46367 -475.27435 -44.37871)
(1002.8357 -526.15731 -40.94797)
(1186.242 -576.01988 -35.259074)
(1371.3822 -626.79259 -27.696042)
(1552.0822 -677.30507 -19.534647)
(1724.6812 -729.12867 -12.036035)
(1886.32 -781.67259 -7.1707327)
(2037.1372 -834.97781 -5.8134587)
(2180.1626 -889.47375 -8.2025155)
(2320.19 -945.47722 -13.836627)
(2462.9822 -1003.4819 -21.616606)
(2614.0634 -1064.058 -29.785112)
(2777.3437 -1127.675 -36.54986)
(2954.8532 -1194.515 -40.367218)
(3145.9708 -1264.7069 -40.242408)
(3347.8739 -1338.1605 -35.811367)
(3556.6146 -1413.9572 -28.126897)
(3767.5743 -1491.6862 -18.219028)
(3975.955 -1569.8131 -7.5871377)
(4179.0312 -1647.9888 1.997006)
(4375.571 -1725.1796 8.8861054)
(4566.5913 -1800.2233 12.636164)
(4753.1637 -1872.815 12.670175)
(4938.5317 -1942.9515 10.017213)
(5125.6522 -2011.2009 5.7750783)
(5316.709 -2078.5322 0.85633291)
(5512.6405 -2147.2746 -3.703715)
(-1.8726199e-15 -1.0357256e-16 4.2324109e-16)
(-4.3693994e-15 5.8098526e-16 1.0825799e-16)
(-1.86708e-15 5.0203615e-16 5.7484399e-16)
(-1.1298519e-15 4.4303811e-16 -1.5186772e-16)
(-1.5283164e-15 1.7502349e-16 4.7144117e-17)
(-3.9278597e-15 -6.147074e-18 -1.0233878e-17)
(-3.270765e-15 8.5080195e-17 2.8271762e-17)
(-1.444637e-15 3.1767481e-17 -1.0328492e-16)
(-1.9600489e-15 -2.0641393e-16 2.5996682e-17)
(-1.0758982e-15 -5.0887233e-16 -1.6282415e-16)
(-1.1902312e-15 -6.3217422e-16 -1.0496995e-16)
(-2.2455722e-15 -1.0363924e-16 3.7607835e-16)
(-1.7254929e-15 1.2766475e-16 7.9907906e-17)
(-6.542485e-16 2.4659353e-16 4.7610311e-16)
(-1.0183069e-15 2.0413811e-16 3.0876606e-16)
(-1.2825224e-16 3.2154578e-16 2.6910031e-16)
(-2.4669526e-15 5.8726168e-16 -3.2350189e-17)
(-1.9694108e-15 5.8752001e-16 2.9593509e-16)
(-1.9972486e-15 5.0741204e-16 1.6376266e-16)
(-5.0142844e-16 5.9082617e-16 -1.5096731e-17)
(2.8672985e-17 2.0007103e-16 -2.079567e-16)
(-3.5598279e-15 1.6770216e-16 6.1584209e-17)
(1.5219227e-15 -3.8112137e-16 -3.4960392e-16)
(-8.8364966e-17 -1.5289127e-16 1.7491834e-16)
(2.7397895e-16 -2.6900304e-16 -2.0413732e-16)
(-5.1236454e-16 -3.7600259e-16 -4.411389e-17)
(-1.3114086e-15 -5.3747975e-16 1.2489795e-16)
(2.0041989e-16 -4.4379834e-16 -1.4360784e-16)
(-1.3448657e-15 3.3966264e-16 -2.7012678e-16)
(-2.2010094e-15 1.2158219e-16 1.1470551e-16)
(-1.2722141e-15 -2.3577892e-16 -7.7366055e-17)
(-2.6936153e-15 2.298542e-17 6.0151854e-16)
(-1.8084585e-15 2.5926424e-16 8.2177642e-17)
(-1.0121806e-15 3.7760621e-16 1.5728837e-17)
(-3.5076342e-15 -1.049112e-16 -1.8966684e-16)
(-1.2388067e-16 -2.746004e-16 -1.3203227e-16)
(-1.1077126e-15 -2.2449831e-16 5.9960705e-17)
(-7.9462407e-16 5.2806017e-17 1.8160622e-16)
(-1.481116e-15 2.6347307e-16 -6.003674e-17)
(5.3541372e-16 1.9494005e-16 5.7756958e-17)
(-2.5861876e-15 -7.0653702e-17 -1.8824779e-16)
(-1.6152529e-15 1.8241927e-16 3.8488004e-16)
(-1.0389662e-15 3.299921e-17 2.9700946e-16)
(-3.8817577e-15 -1.9427146e-16 -1.2145786e-15)
(-1.6161979e-15 2.8442108e-16 -1.856842e-16)
(8.1577518e-16 1.8112067e-17 2.0819295e-16)
(-2.485062e-15 2.8178417e-16 -5.4749215e-16)
(-1.8307085e-15 4.4562511e-16 -1.4619564e-16)
(-1.4586292e-15 4.0358521e-16 -4.0281137e-16)
(-19.253308 12.65391 27.437691)
(-20.747458 14.854547 15.56956)
(-25.756992 15.166787 7.062507)
(-26.621423 15.362154 -1.8468353)
(-24.543831 13.843681 -9.4607207)
(-21.499605 13.094874 -16.199481)
(-18.170117 6.755988 -23.274215)
(-39.226431 62.630049 31.569378)
(-46.8046 64.95952 18.481353)
(-48.004638 58.955362 6.3382142)
(-46.580876 55.488687 -4.7958814)
(-46.814817 56.638142 -15.485464)
(-38.584892 52.963808 -25.854529)
(-33.52657 49.864826 -42.490088)
(-65.885076 86.025088 34.544362)
(-72.611838 82.544213 21.141638)
(-77.179513 84.948601 5.9120261)
(-75.721095 81.424236 -8.2405908)
(-72.128495 77.501425 -18.97507)
(-65.396884 73.022301 -30.567228)
(-55.787229 74.4135 -47.491167)
(-103.62806 111.08926 23.181494)
(-109.21146 111.53292 12.615208)
(-109.51077 108.40813 0.55033666)
(-108.7336 104.98155 -8.318193)
(-105.6885 101.89835 -17.195074)
(-99.887803 100.30239 -28.487592)
(-91.010406 94.659603 -37.217568)
(-154.46056 130.94991 6.2849983)
(-154.11393 131.49015 -0.27210044)
(-155.46861 129.0165 -4.7992758)
(-153.12133 124.35958 -11.351018)
(-151.08377 120.04484 -14.205329)
(-146.15715 116.64841 -19.176095)
(-142.79318 115.88406 -24.36445)
(-205.58015 133.54934 -20.499768)
(-201.41302 132.17295 -19.767509)
(-197.71289 127.815 -17.880692)
(-196.42706 122.64796 -16.819747)
(-192.90411 117.51128 -12.362202)
(-194.26299 114.22344 -8.6765902)
(-192.11662 111.30622 -2.9357516)
(-254.88353 123.52728 -46.658271)
(-245.56446 121.4601 -38.441835)
(-240.01426 117.10226 -28.59684)
(-235.61545 109.41073 -19.908559)
(-234.13578 103.27689 -10.244152)
(-235.57022 95.750472 0.86003442)
(-240.51555 97.322029 18.820533)
(-290.34635 96.604113 -72.846205)
(-277.51888 92.33051 -56.750535)
(-268.70834 84.895117 -38.840415)
(-264.16364 77.362345 -23.335637)
(-265.37391 70.545298 -6.5791791)
(-266.44871 63.044737 10.754886)
(-275.91127 60.47769 31.474157)
(-310.38162 56.922909 -91.984358)
(-293.94182 50.12141 -70.691738)
(-281.12882 40.412635 -50.313933)
(-276.61019 31.550984 -29.546541)
(-274.30133 22.139584 -7.2888287)
(-282.18381 13.701306 14.481735)
(-289.45488 11.233857 46.217058)
(-305.28397 3.7766312 -103.61506)
(-287.71717 -2.841256 -78.78391)
(-276.11718 -10.834794 -54.944793)
(-269.04186 -24.485507 -32.26368)
(-268.80938 -34.666546 -7.6708291)
(-273.8725 -44.410524 16.166593)
(-285.68877 -49.901082 46.169139)
(-278.46344 -52.236944 -105.38173)
(-260.44566 -62.266256 -81.111819)
(-246.46427 -73.659583 -56.072316)
(-240.80012 -85.894549 -33.278671)
(-238.45858 -98.506412 -7.9877548)
(-244.30892 -108.02701 15.489051)
(-254.23752 -117.93692 49.593897)
(-227.98835 -113.47537 -100.79944)
(-210.59925 -124.23711 -76.251104)
(-198.89898 -135.84795 -53.837087)
(-191.84596 -150.25007 -31.526882)
(-191.17604 -162.53462 -8.0037473)
(-194.64585 -174.3952 13.606207)
(-203.91142 -185.21885 43.697867)
(-158.90963 -173.53891 -88.987143)
(-144.04495 -184.0401 -67.723898)
(-132.32394 -197.30041 -48.072046)
(-126.34068 -211.01993 -27.691889)
(-125.48666 -225.09174 -6.6159643)
(-127.66282 -236.91007 13.74173)
(-137.14505 -249.40504 35.340103)
(-75.007171 -232.00815 -76.226792)
(-60.970001 -242.65139 -57.800157)
(-50.605431 -256.416 -40.173567)
(-45.74944 -271.13207 -21.92141)
(-45.02071 -285.76659 -3.4921089)
(-46.311571 -296.65374 14.542749)
(-54.034015 -309.022 32.208655)
(21.494883 -288.85245 -64.071669)
(34.055718 -299.25092 -47.819918)
(42.244529 -313.60258 -32.228941)
(46.543301 -328.33247 -15.111463)
(46.343934 -342.65982 0.77340208)
(45.471264 -352.95312 18.648466)
(37.495417 -363.84366 32.577238)
(128.05431 -344.1914 -55.178826)
(139.13037 -354.8755 -40.363056)
(146.39036 -370.38706 -25.431008)
(149.24081 -385.15406 -9.4718655)
(148.47596 -399.82328 6.2257218)
(146.23792 -409.71953 23.270265)
(137.96902 -417.79943 37.035289)
(243.47204 -400.47263 -50.735188)
(253.91346 -412.29385 -35.889755)
(260.04434 -428.33137 -21.409203)
(261.58484 -443.29562 -4.8705077)
(260.18448 -457.99752 10.448803)
(255.8338 -467.4998 27.880959)
(247.2978 -472.82644 43.065802)
(368.77036 -458.87162 -49.941785)
(378.43601 -471.88023 -34.99607)
(384.08715 -488.70772 -20.067963)
(384.45752 -504.51524 -3.5208777)
(382.58202 -519.3268 12.461161)
(375.92196 -529.56538 29.940493)
(367.08477 -532.09446 47.627712)
(504.55908 -519.98031 -51.725193)
(513.58466 -534.5086 -36.210596)
(518.98707 -551.88511 -21.524929)
(518.3934 -568.49196 -4.9500643)
(516.41113 -583.9334 11.290142)
(507.89442 -595.05183 28.110915)
(499.36655 -596.41161 47.869053)
(651.73803 -583.24556 -53.494642)
(660.05219 -599.05901 -38.551809)
(665.21644 -616.93056 -24.751068)
(664.19834 -634.99897 -9.096445)
(662.29391 -651.11579 6.4512731)
(653.09049 -663.93031 21.690488)
(645.47203 -665.23089 41.997095)
(810.31918 -647.11808 -53.664444)
(817.34511 -663.8014 -40.280071)
(822.34208 -682.07308 -28.326279)
(821.21416 -701.22076 -14.779631)
(819.67556 -718.526 -1.0295435)
(811.15158 -732.77856 11.473416)
(805.04993 -736.10293 30.056269)
(978.39313 -709.28979 -50.597114)
(984.06487 -726.2249 -40.066872)
(988.68265 -744.57871 -30.933874)
(987.69346 -765.02556 -20.54834)
(986.69176 -783.25599 -9.7305846)
(979.95031 -799.26016 -0.74391325)
(975.82865 -805.78828 13.776557)
(1153.1125 -767.70641 -43.824556)
(1157.2797 -784.01266 -37.191251)
(1161.0889 -802.47024 -31.486768)
(1160.4897 -823.5813 -24.770526)
(1159.8231 -843.12633 -17.57332)
(1155.8646 -860.25242 -12.544048)
(1153.7397 -870.66082 -3.6737692)
(1330.5871 -820.40704 -34.170913)
(1333.1658 -836.00071 -31.825984)
(1336.0424 -854.18132 -29.422257)
(1335.6284 -875.85089 -26.154247)
(1335.5521 -895.76219 -22.754644)
(1334.1861 -913.31182 -20.997201)
(1333.6399 -927.51656 -18.326969)
(1506.2257 -867.62355 -23.653676)
(1507.9341 -881.73466 -24.364566)
(1509.3181 -899.5602 -24.867894)
(1509.3686 -921.16263 -23.989155)
(1508.9849 -941.0706 -23.624344)
(1509.5123 -959.00635 -24.291431)
(1510.0307 -975.95751 -27.094785)
(1676.7118 -909.96549 -13.814021)
(1677.8154 -922.37641 -16.66187)
(1678.091 -940.48517 -18.422434)
(1678.6764 -961.44691 -18.87731)
(1677.234 -980.995 -19.8462)
(1678.2735 -997.75112 -21.663713)
(1678.2854 -1015.0257 -27.137053)
(1840.003 -950.10217 -7.2111797)
(1840.7597 -961.41989 -10.475661)
(1840.7116 -979.51343 -11.237274)
(1839.7778 -999.197 -11.942838)
(1838.1197 -1018.3978 -12.104398)
(1838.3865 -1034.2294 -13.259914)
(1837.1562 -1050.1193 -18.089114)
(1995.173 -990.90399 -5.4951978)
(1996.4712 -1001.8112 -6.9611392)
(1995.9399 -1019.536 -5.6897566)
(1994.5739 -1038.4742 -4.6279851)
(1991.5595 -1056.9015 -2.6224795)
(1989.9369 -1071.4891 -1.8254114)
(1986.3134 -1085.546 -4.1774958)
(2143.9294 -1035.5328 -8.7428507)
(2146.6251 -1046.7989 -6.8153458)
(2145.9772 -1064.2007 -2.8531827)
(2143.8701 -1082.491 1.9402686)
(2139.6567 -1099.9225 6.7005649)
(2135.1821 -1113.9025 11.498615)
(2129.0894 -1124.597 13.114344)
(2289.7661 -1087.2965 -15.849992)
(2293.7849 -1099.263 -10.290717)
(2293.827 -1116.6469 -1.9949917)
(2291.0739 -1134.4128 6.1288211)
(2285.8499 -1151.0358 14.934302)
(2278.2607 -1164.1241 23.489925)
(2269.4988 -1171.472 30.064077)
(2436.6614 -1147.7832 -25.961449)
(2442.219 -1161.1039 -15.999744)
(2443.0124 -1178.1609 -4.2728893)
(2439.8985 -1195.7482 7.6602807)
(2433.8841 -1211.5523 20.04507)
(2423.3823 -1224.1736 32.077766)
(2412.5922 -1228.641 43.576575)
(2589.1392 -1217.6378 -36.183152)
(2595.6386 -1232.068 -22.941181)
(2597.4801 -1249.0156 -8.2207747)
(2594.2364 -1266.4786 6.3867077)
(2587.7314 -1281.8091 21.699534)
(2575.2566 -1294.2001 36.021359)