/*--------------------------------*- C++ -*----------------------------------*\
  =========                 |
  \\      /  F ield         | OpenFOAM: The Open Source CFD Toolbox
   \\    /   O peration     | Website:  https://openfoam.org
    \\  /    A nd           | Version:  6
     \\/     M anipulation  |
\*---------------------------------------------------------------------------*/
FoamFile
{
    version     2.0;
    format      ascii;
    class       pointVectorField;
    location    "0.21";
    object      u;
}
// * * * * * * * * * * * * * * * * * * * * * * * * * * * * * * * * * * * * * //

dimensions      [0 1 0 0 0 0 0];

internalField   nonuniform List<vector> 
3969
(
(0 -9.1031388e-21 0)
(0 -4.9785237e-20 0)
(1.3401543 -0.014118178 0.0016613409)
(1.2888291 -0.33031886 -0.00012464768)
(0 4.9652497e-19 0)
(0 4.101285e-19 0)
(1.2904854 -0.33089496 -0.00014662516)
(1.3418126 -0.014791746 0.0017072189)
(0 2.0741221e-20 0)
(0 1.2466856e-19 0)
(0 5.583501e-20 0)
(-3.3388991e-19 -3.0064266e-20 0)
(0 1.6452152e-19 0)
(0 -9.4851595e-20 0)
(0 -9.0575718e-20 0)
(1.3337433 -0.053632894 0.0014454732)
(1.3273092 -0.093120479 0.0012288853)
(1.3208862 -0.13262913 0.0010228556)
(1.3144628 -0.17214574 0.00079658142)
(1.3080484 -0.21166209 0.00057848173)
(1.30165 -0.25120926 0.00034845484)
(1.2952506 -0.29077011 0.0001135004)
(0.002297979 0.006267878 0.007182423)
(0.0031281024 0.01125558 0.0091735581)
(0.0060549964 0.0170298 0.010483485)
(0.010839933 0.022885921 0.011051568)
(0.017109359 0.028910855 0.011471844)
(0.025292547 0.034919208 0.01164482)
(0.03495519 0.040851615 0.011857509)
(0.046507282 0.046679349 0.01188122)
(0.059627266 0.052261038 0.011938416)
(0.07453707 0.057583971 0.01179658)
(0.09105099 0.06261627 0.011698592)
(0.10920636 0.067288713 0.011426656)
(0.12886472 0.071538077 0.011142235)
(0.14997341 0.075428858 0.010827825)
(0.17244602 0.078849897 0.010480093)
(0.19613593 0.08187259 0.010172215)
(0.22103346 0.084489731 0.0098933085)
(0.24706848 0.086705176 0.0096379592)
(0.27421773 0.088532325 0.0094024318)
(0.30244815 0.089957843 0.0091683128)
(0.33175979 0.090988237 0.008918903)
(0.36212341 0.091601658 0.0086325439)
(0.39351677 0.091781011 0.0082995505)
(0.42589173 0.091509041 0.0079153551)
(0.45916711 0.090774913 0.0074947386)
(0.49327671 0.089593536 0.0070550424)
(0.52811258 0.087960759 0.0066218226)
(0.56360473 0.085896803 0.0062123357)
(0.59966174 0.083427928 0.0058447135)
(0.63621284 0.080591082 0.0055301409)
(0.67322299 0.077412033 0.0052580868)
(0.71065878 0.073913949 0.0050185808)
(0.74850499 0.070112737 0.0047905401)
(0.78675379 0.066020552 0.0045462234)
(0.82537861 0.061638519 0.0042796949)
(0.86436838 0.056963544 0.0039675799)
(0.90365698 0.05201931 0.0036183214)
(0.94319916 0.046785842 0.0032473355)
(0.98291174 0.041322958 0.0028759996)
(1.0227333 0.035618317 0.0025308505)
(1.062588 0.029744798 0.0022292023)
(1.1024167 0.023705959 0.0019932115)
(1.1421976 0.01755 0.0018317638)
(1.1818898 0.011332933 0.0017215076)
(1.2215415 0.0049968324 0.0016817265)
(1.2610933 -0.0013016154 0.0016576706)
(1.3006317 -0.0077007832 0.0016656824)
(2.49621e-05 -0.0062330857 -0.0084594005)
(0.0022578243 -0.010616436 -0.0088972474)
(0.0042066222 -0.016003994 -0.011229577)
(0.0083487416 -0.021404242 -0.011222558)
(0.014265287 -0.027500095 -0.011693123)
(0.021502423 -0.033545085 -0.011560528)
(0.030490011 -0.039903634 -0.011573639)
(0.040860397 -0.04628064 -0.011384182)
(0.052892278 -0.052888491 -0.011238028)
(0.066474367 -0.059531577 -0.010954224)
(0.081543983 -0.066295952 -0.010714662)
(0.098205206 -0.073110158 -0.010383082)
(0.1162079 -0.079967239 -0.010052918)
(0.13564652 -0.086843 -0.0096643596)
(0.15634521 -0.093766993 -0.0093196052)
(0.17829105 -0.10069025 -0.0089592805)
(0.20141417 -0.10768587 -0.0086506861)
(0.22561875 -0.11469753 -0.0083619109)
(0.25095166 -0.12182865 -0.008106586)
(0.27732201 -0.12901105 -0.0078744762)
(0.30476185 -0.13633698 -0.0076385647)
(0.33327923 -0.14370557 -0.0074028818)
(0.3628194 -0.15121911 -0.0071052732)
(0.3934016 -0.15876705 -0.0067904293)
(0.42492025 -0.16634809 -0.0064287423)
(0.45735115 -0.17393291 -0.0060360783)
(0.4905616 -0.18150274 -0.005607029)
(0.52456621 -0.18907571 -0.0051754545)
(0.55921565 -0.19659118 -0.0047730633)
(0.59444674 -0.20407476 -0.0043809992)
(0.63021796 -0.21154254 -0.0040294676)
(0.6664794 -0.21898904 -0.0037053917)
(0.70322934 -0.22643414 -0.0034059269)
(0.74044207 -0.23386629 -0.0031166984)
(0.77811582 -0.24128724 -0.0028268494)
(0.81622972 -0.2486792 -0.0025192736)
(0.85474563 -0.25601052 -0.0022032713)
(0.89361776 -0.26326537 -0.0018573418)
(0.93277937 -0.27042578 -0.0015196867)
(0.97216137 -0.27746299 -0.0011891434)
(1.0116863 -0.28437906 -0.00088534936)
(1.0512916 -0.29117506 -0.00062834607)
(1.0909244 -0.29786162 -0.00041922406)
(1.1305508 -0.30445963 -0.00027423526)
(1.1701586 -0.31099318 -0.00017569151)
(1.2097359 -0.31747564 -0.00012524133)
(1.2492991 -0.32390871 -0.00011515468)
(0 -5.4162647e-21 0)
(0 6.3458201e-20 0)
(0 -7.7547439e-20 0)
(1.6419543e-19 -1.6713534e-20 0)
(0 -1.4192406e-19 0)
(0 -6.6155266e-20 0)
(0 -5.4093043e-20 0)
(0.0023509825 -0.0040426078 0.006388572)
(0.0030868672 -0.012961265 0.009327297)
(0.0046422544 -0.014766062 0.0099605063)
(0.009448387 -0.022731352 0.010786003)
(0.014920281 -0.027795868 0.011179049)
(0.022468134 -0.034166595 0.011047658)
(0.031257588 -0.040605265 0.011394222)
(0.041811433 -0.046834728 0.011119427)
(0.053711838 -0.053584475 0.011298072)
(0.067329518 -0.06002076 0.010923502)
(0.082401589 -0.067007562 0.010998658)
(0.099007863 -0.073459601 0.01048169)
(0.11721832 -0.080431869 0.01015312)
(0.13673585 -0.087214662 0.0096881016)
(0.15752462 -0.094075192 0.0092611674)
(0.17954499 -0.10103313 0.0088852534)
(0.20267168 -0.10794481 0.0085399578)
(0.22690769 -0.11498722 0.0082643505)
(0.25220993 -0.12206477 0.0080144864)
(0.27859139 -0.12925101 0.0077735992)
(0.30604859 -0.13652982 0.0075115715)
(0.33458667 -0.14392003 0.0072036964)
(0.36419425 -0.15139521 0.0068269566)
(0.39482593 -0.15894342 0.0063941461)
(0.42644901 -0.16657766 0.0058858506)
(0.45902733 -0.17421449 0.0053312859)
(0.49226149 -0.18188716 0.0048738233)
(0.52625409 -0.18947623 0.0044264454)
(0.5608848 -0.19703808 0.0040397725)
(0.59609164 -0.20454809 0.0037022926)
(0.6318254 -0.21202204 0.0034130787)
(0.66806027 -0.21947348 0.0031644618)
(0.70478136 -0.22690555 0.0029252587)
(0.7419871 -0.23432941 0.0026759309)
(0.77965726 -0.24173226 0.0023985643)
(0.81778942 -0.24914245 0.0020862858)
(0.85632412 -0.25642517 0.0017367757)
(0.89519524 -0.26373809 0.0013796449)
(0.93437692 -0.27089938 0.0010137907)
(0.97375934 -0.27796483 0.00068669564)
(1.0132851 -0.2849018 0.00039941019)
(1.0528887 -0.29172175 0.00017845664)
(1.0925199 -0.29842587 1.8988684e-05)
(1.1321548 -0.30503653 -8.0952361e-05)
(1.1717726 -0.31157396 -0.00013599351)
(1.211373 -0.31804742 -0.00015792645)
(1.2509432 -0.32448897 -0.00015982096)
(1.296895 -0.29136923 8.9285016e-05)
(1.3032782 -0.25183358 0.00032245802)
(1.3096967 -0.21233789 0.00055471568)
(1.3160717 -0.17280801 0.00079541191)
(1.3225207 -0.13335555 0.0010212318)
(1.3289295 -0.093805635 0.0012529333)
(1.3353926 -0.054330899 0.0014799049)
(1.3022861 -0.0083780006 0.0016381549)
(1.2626907 -0.0019991205 0.0015489336)
(1.2230694 0.0043423881 0.0014242976)
(1.1833907 0.010661741 0.0012641659)
(1.1436422 0.016929808 0.0010522298)
(1.1038408 0.023115317 0.00079855415)
(1.0640022 0.029185613 0.00050963225)
(1.0241604 0.035096886 0.00019354775)
(0.98436783 0.040807507 -0.00013767837)
(0.94468572 0.046291154 -0.00046649965)
(0.90516051 0.051492106 -0.00078696669)
(0.86594736 0.056395233 -0.0010796276)
(0.82693674 0.061057677 -0.0013752652)
(0.78831465 0.06540642 -0.0016462533)
(0.75005256 0.069482797 -0.0019287153)
(0.712183 0.073278947 -0.0022189161)
(0.67471689 0.07679295 -0.0025389267)
(0.63768037 0.080005071 -0.0028935304)
(0.60109932 0.082891815 -0.0032795155)
(0.56502863 0.085411046 -0.0036966634)
(0.52952395 0.087539265 -0.0041289815)
(0.49467797 0.089216859 -0.0045535869)
(0.46056483 0.090449028 -0.0049645831)
(0.42727128 0.091193838 -0.0053463161)
(0.39488931 0.091474025 -0.0056915891)
(0.36347913 0.091287359 -0.0059942605)
(0.33308584 0.090667418 -0.0062746849)
(0.30374607 0.089626592 -0.0065327234)
(0.27547806 0.088192748 -0.0067948945)
(0.24829258 0.086364299 -0.0070668286)
(0.2222225 0.084159571 -0.0073692545)
(0.19727483 0.081555877 -0.0076909597)
(0.17351227 0.078564483 -0.0080405712)
(0.15111846 0.074992781 -0.0083250736)
(0.13004282 0.071118634 -0.0087636544)
(0.11026749 0.066844648 -0.0089824737)
(0.092158758 0.062120916 -0.0093540815)
(0.075524735 0.057028642 -0.009579332)
(0.060547521 0.05175793 -0.0098820712)
(0.04739432 0.045969232 -0.009982907)
(0.035887165 0.040255368 -0.010134783)
(0.025858012 0.034369058 -0.010244258)
(0.017844672 0.028341229 -0.010275148)
(0.011273095 0.022398884 -0.010049563)
(0.006623817 0.016787807 -0.0096053982)
(0.0035630833 0.010564053 -0.0084785178)
(0.0045465126 0.0060754142 -0.0051264687)
(0 6.7011985e-20 0)
(0 5.2486217e-20 0)
(0 -2.7198252e-20 0)
(0 -1.7871559e-19 8.9437854e-20)
(0 -1.5691386e-19 0)
(0 -3.4499864e-20 0)
(0 1.6497992e-19 0)
(0 2.3410495e-19 0)
(0 2.2316123e-19 0)
(0 2.120412e-19 0)
(0 1.8313109e-19 -2.2496885e-20)
(0 4.9471546e-19 0)
(0 2.1687642e-19 0)
(0 -3.9959942e-20 0)
(1.2890437 -0.33038279 -0.00011662735)
(1.2892392 -0.33044663 -0.00012106654)
(1.2894362 -0.33049707 -0.00012476355)
(1.2896335 -0.33055415 -0.00013604386)
(1.2898388 -0.33062329 -0.00013567096)
(1.2900512 -0.33070464 -0.00013389324)
(1.2902654 -0.33080501 -0.00014433485)
(1.3403392 -0.014187975 0.0016587556)
(1.3405187 -0.014271564 0.001647224)
(1.3407153 -0.014337069 0.001644742)
(1.3409318 -0.014401445 0.0016507149)
(1.3411639 -0.014469147 0.0016647097)
(1.3414007 -0.014551087 0.001680769)
(1.3416186 -0.014655425 0.0017064393)
(0.0001575555 0.0052016463 0.0065079817)
(0.0011138008 0.0088943941 0.0067596981)
(0.0037293905 0.013484383 0.0078872834)
(0.0082977091 0.017808009 0.0083367589)
(0.014406967 0.022211489 0.0086094863)
(0.022498674 0.026721104 0.0088460754)
(0.032045289 0.03101443 0.0089152959)
(0.043427851 0.03530074 0.0090783632)
(0.056478382 0.039246461 0.0090101366)
(0.071240213 0.043070441 0.009031332)
(0.087612519 0.046556835 0.0088971436)
(0.10559797 0.04972626 0.0087369997)
(0.12513809 0.052625488 0.0085206762)
(0.14607446 0.055133872 0.0082842089)
(0.16838688 0.057289403 0.0080545871)
(0.19194957 0.059106463 0.0078109511)
(0.21669231 0.060563668 0.007607594)
(0.24256578 0.061646015 0.0074155147)
(0.26954667 0.062373608 0.007230615)
(0.29760973 0.062720947 0.007046819)
(0.32674257 0.06268828 0.0068475519)
(0.35693007 0.062257268 0.0066168349)
(0.38815159 0.061431631 0.0063546393)
(0.42035124 0.060197728 0.006056098)
(0.45347986 0.058568929 0.0057431899)
(0.48745317 0.056536328 0.0054028258)
(0.52216946 0.054138459 0.0050804196)
(0.55755789 0.051381149 0.0047767902)
(0.59352079 0.048287851 0.0045100372)
(0.62998999 0.04488216 0.0042774598)
(0.66692155 0.041178613 0.0040794314)
(0.70428213 0.037186446 0.0039032802)
(0.74205528 0.032920086 0.003732124)
(0.7802308 0.028381487 0.0035517228)
(0.81879434 0.023580618 0.0033502877)
(0.857721 0.018529615 0.0031169979)
(0.89697022 0.013242182 0.0028602711)
(0.93648784 0.007734598 0.002588729)
(0.97620362 0.0020486172 0.0023176418)
(1.0160389 -0.0038047401 0.0020716533)
(1.0559225 -0.0097787518 0.0018512178)
(1.0957958 -0.015868013 0.0016914663)
(1.1356166 -0.022027198 0.0015696145)
(1.1753579 -0.028256783 0.0015060843)
(1.2150478 -0.034553926 0.0014687355)
(1.2546221 -0.040850876 0.0014541876)
(1.2942137 -0.047238532 0.0014525345)
(-0.0019675151 0.0034326881 0.0044248492)
(-0.00087325129 0.0055494708 0.004472884)
(0.0019119479 0.0093212234 0.0053199235)
(0.0063090232 0.011970991 0.0055529206)
(0.012569347 0.015187887 0.0058184122)
(0.020331979 0.018151517 0.005884791)
(0.029815923 0.021049025 0.0061246402)
(0.041107581 0.023778738 0.0060632765)
(0.053978966 0.026282789 0.0062237296)
(0.068573764 0.028628473 0.006161215)
(0.08480664 0.030611834 0.0061403851)
(0.10264563 0.032436947 0.006028832)
(0.12198925 0.033890361 0.0059266248)
(0.14279746 0.035072268 0.0058015999)
(0.16494365 0.035935636 0.0056525141)
(0.18832414 0.036523422 0.0055009166)
(0.21288865 0.036785577 0.0053618227)
(0.23858552 0.036728818 0.0052307288)
(0.26539115 0.036345536 0.0051024677)
(0.2932816 0.035615927 0.0049756245)
(0.32224608 0.034539904 0.0048272375)
(0.35227293 0.033114247 0.0046617184)
(0.38331023 0.031327947 0.004472723)
(0.41535227 0.029192513 0.004268176)
(0.44831237 0.026698256 0.0040367189)
(0.4821234 0.023878988 0.0038173293)
(0.51669404 0.020734892 0.0036003861)
(0.55193785 0.017284346 0.0034031701)
(0.58777003 0.013559367 0.0032330865)
(0.62412407 0.009562663 0.0030878524)
(0.66095179 0.0053107277 0.0029657093)
(0.69821844 0.00081240241 0.0028573215)
(0.73590616 -0.0039257693 0.0027501965)
(0.77400611 -0.0088983388 0.002634725)
(0.81249817 -0.014092483 0.0025001198)
(0.85136454 -0.01950021 0.0023473347)
(0.89056175 -0.025098968 0.0021726769)
(0.93003163 -0.030869623 0.0019933415)
(0.96971199 -0.03677883 0.0018117285)
(1.0095209 -0.042812715 0.0016465606)
(1.0494002 -0.048927855 0.0015034669)
(1.0892688 -0.055123628 0.0013978066)
(1.1291101 -0.061364598 0.001320025)
(1.1688627 -0.067652014 0.0012722525)
(1.2085841 -0.073987996 0.0012519366)
(1.2481724 -0.080309909 0.0012321013)
(1.2877961 -0.086722149 0.0012400954)
(-0.0034337579 0.0018933213 0.0026922756)
(-0.0022029228 0.0031709781 0.0025909615)
(0.0002454958 0.0050352214 0.0028366356)
(0.0049310304 0.0066402307 0.0029945093)
(0.010865484 0.0082404442 0.0030110209)
(0.018817061 0.0098505205 0.0032074469)
(0.028286541 0.011096997 0.0030989867)
(0.039433568 0.01240103 0.0033152249)
(0.052237133 0.01336943 0.0033082162)
(0.0667459 0.01418869 0.0033347607)
(0.082807472 0.014812059 0.003344421)
(0.10046711 0.015149932 0.0033106207)
(0.1196221 0.015271528 0.0032712635)
(0.14020079 0.015109357 0.0032112916)
(0.16211742 0.01473791 0.0031672962)
(0.1853051 0.014066242 0.0030783734)
(0.20967006 0.013133209 0.0030178708)
(0.23517896 0.011912978 0.0029470046)
(0.26179076 0.010401037 0.0028894182)
(0.28947293 0.0085974017 0.0028229679)
(0.31822603 0.0064933555 0.0027518895)
(0.34801831 0.0040699087 0.0026674181)
(0.37887518 0.0013464741 0.0025700249)
(0.41071279 -0.0017043995 0.0024439588)
(0.44348121 -0.0050392952 0.0023315951)
(0.47711642 -0.0086703042 0.0022000553)
(0.51152748 -0.012571276 0.0020789161)
(0.54661942 -0.016723638 0.001977798)
(0.58231096 -0.021107223 0.0018953142)
(0.61853412 -0.025716352 0.0018304527)
(0.65524015 -0.030529073 0.001782716)
(0.69239649 -0.035546596 0.0017430082)
(0.7299856 -0.040757647 0.0017026275)
(0.76799337 -0.046159198 0.0016544949)
(0.80640522 -0.051741106 0.0015939055)
(0.84519639 -0.057491678 0.0015162502)
(0.884326 -0.063394614 0.0014280594)
(0.92374337 -0.069424665 0.0013309253)
(0.96337787 -0.075561513 0.0012328337)
(1.0031498 -0.081775915 0.0011515497)
(1.0429921 -0.088046767 0.0010796872)
(1.0828438 -0.094363977 0.0010392463)
(1.1226664 -0.10069503 0.0010022928)
(1.1624169 -0.10706153 0.0010073393)
(1.2021321 -0.11343318 0.00099535335)
(1.2417288 -0.11981121 0.0010147215)
(1.2813694 -0.12623819 0.0010103699)
(-0.0037803219 0.00026471587 0.00034410775)
(-0.0025769751 0.00020294386 -0.00026534534)
(-7.5905103e-05 0.00079256079 -0.00010703735)
(0.004213298 0.00087302097 -2.3204928e-05)
(0.01035954 0.0010011444 9.6369168e-05)
(0.01804013 0.0011462492 8.6952126e-05)
(0.027329407 0.00091307946 0.00036762841)
(0.038320584 0.0007834414 0.00038615186)
(0.050953604 0.0002602216 0.00053027254)
(0.065232251 -0.00027167223 0.00065277528)
(0.08111718 -0.0011562185 0.00069896516)
(0.098640579 -0.0021659652 0.00074558112)
(0.1176027 -0.0034359531 0.00073519162)
(0.13802839 -0.0049309611 0.00077103512)
(0.15975628 -0.0066207685 0.0007450617)
(0.18276276 -0.0085497315 0.0007579556)
(0.20691633 -0.010696039 0.00074765265)
(0.23222371 -0.013093376 0.00075270159)
(0.2586061 -0.01573348 0.00075169801)
(0.28608702 -0.018620844 0.00074195636)
(0.31465369 -0.021776799 0.00071563901)
(0.34431684 -0.025179243 0.00068891016)
(0.374956 -0.028862996 0.00064029836)
(0.40660476 -0.03278498 0.00060552401)
(0.43919267 -0.036965746 0.00055157317)
(0.4726384 -0.04137785 0.0005175795)
(0.50685091 -0.046015129 0.00050962007)
(0.54175159 -0.050858961 0.00051510669)
(0.57725943 -0.055893187 0.00053231462)
(0.61330995 -0.061099799 0.00056582887)
(0.64985583 -0.066468033 0.00060432406)
(0.68686489 -0.071994479 0.00064619995)
(0.72431788 -0.077664256 0.0006799205)
(0.76220431 -0.08348069 0.00070792372)
(0.80050463 -0.089428852 0.00072039976)
(0.83919578 -0.095504923 0.00072566639)
(0.87823693 -0.10168752 0.00071849332)
(0.9175667 -0.10796407 0.00071192322)
(0.95711572 -0.11431269 0.00070788262)
(0.99682326 -0.12071065 0.00070449921)
(1.0366255 -0.12713441 0.00070722654)
(1.0764363 -0.13357331 0.00072125733)
(1.1162403 -0.14001035 0.00073652367)
(1.1559766 -0.14645222 0.00076143502)
(1.1956947 -0.15288347 0.00076802426)
(1.235303 -0.15930701 0.00078626973)
(1.2749511 -0.16574554 0.0007841581)
(-0.0040218645 -0.0013575742 -0.0017869449)
(-0.002516979 -0.002123379 -0.0023557219)
(-0.00051674494 -0.0032836281 -0.0024450403)
(0.004059412 -0.0045367888 -0.0025666223)
(0.0099446769 -0.005868499 -0.0026956873)
(0.017620283 -0.0073104983 -0.0025071078)
(0.026829332 -0.0089500222 -0.002539124)
(0.037785379 -0.010644764 -0.0024431924)
(0.050257969 -0.012598572 -0.0023239431)
(0.06447151 -0.014665508 -0.0022483092)
(0.080220861 -0.01696749 -0.0021946274)
(0.097520472 -0.019343488 -0.002082452)
(0.11629426 -0.022026575 -0.0019723473)
(0.13650199 -0.024798305 -0.0018759717)
(0.15800046 -0.027830413 -0.0017696913)
(0.18075575 -0.031015729 -0.001665861)
(0.20469378 -0.034403031 -0.0015981351)
(0.22975091 -0.037972476 -0.0015168313)
(0.25591534 -0.041740302 -0.0014559182)
(0.28315217 -0.04570892 -0.0013991985)
(0.31148835 -0.049871863 -0.0013486994)
(0.34079977 -0.054269405 -0.0012750815)
(0.37119574 -0.058856408 -0.0012266498)
(0.40260951 -0.063689311 -0.0011748059)
(0.43497515 -0.068706284 -0.0011020145)
(0.46820308 -0.073921245 -0.0010191134)
(0.50222995 -0.079313071 -0.00092932997)
(0.53695189 -0.084863519 -0.00083750974)
(0.57228758 -0.090551888 -0.00073351816)
(0.60817302 -0.096364236 -0.00062785247)
(0.64456264 -0.1022934 -0.00051989513)
(0.68142164 -0.10833269 -0.00041550417)
(0.71873715 -0.11446866 -0.0003193904)
(0.75649271 -0.12070762 -0.00022791817)
(0.79467557 -0.12703379 -0.00014586265)
(0.83326126 -0.13344425 -6.8787467e-05)
(0.87220973 -0.13992403 3.1779858e-06)
(0.9114602 -0.14646335 7.797044e-05)
(0.95095814 -0.15303251 0.00013479236)
(0.99063479 -0.15961439 0.00020907767)
(1.0303754 -0.16620344 0.00027974255)
(1.0701531 -0.17277545 0.00034976488)
(1.1099159 -0.17932179 0.00040664783)
(1.1496345 -0.18584866 0.00046655383)
(1.1893158 -0.19233522 0.00049540082)
(1.2289153 -0.19880742 0.00054387138)
(1.2685368 -0.20525564 0.00054703638)
(-0.0032963893 -0.0028444586 -0.0042128323)
(-0.001406003 -0.0051639529 -0.0048106401)
(0.0006084983 -0.0077699474 -0.0054987228)
(0.0050434327 -0.010449073 -0.0057403257)
(0.010851472 -0.013299629 -0.005726419)
(0.018343622 -0.016196349 -0.0057057542)
(0.027482539 -0.019374214 -0.0056339071)
(0.038215873 -0.022531763 -0.0054597732)
(0.050572021 -0.025989251 -0.0053399731)
(0.064554554 -0.029450286 -0.00513556)
(0.080108842 -0.033191419 -0.0049728199)
(0.097196872 -0.03702342 -0.0047914288)
(0.11577039 -0.041068207 -0.0046366613)
(0.13572946 -0.045223964 -0.0044364959)
(0.1569897 -0.049551556 -0.0042702688)
(0.17949954 -0.053997288 -0.0040971701)
(0.20317038 -0.058606754 -0.0039528412)
(0.22797251 -0.063336718 -0.0037997559)
(0.25386145 -0.068242655 -0.003680098)
(0.2808342 -0.073276126 -0.0035532482)
(0.30886871 -0.078517281 -0.0034495935)
(0.33802329 -0.083814371 -0.0033082156)
(0.36816514 -0.08937649 -0.0032299185)
(0.39932943 -0.095153356 -0.0030538859)
(0.43144348 -0.10102617 -0.002911224)
(0.46442328 -0.10704341 -0.0027479572)
(0.49821699 -0.11316817 -0.0025536638)
(0.53270197 -0.11939952 -0.0023467843)
(0.56781235 -0.12571101 -0.0021424147)
(0.60348772 -0.13210804 -0.0019354231)
(0.63967227 -0.13856823 -0.0017382105)
(0.67634039 -0.14508664 -0.0015502464)
(0.71347651 -0.15166063 -0.0013771791)
(0.75106547 -0.15829163 -0.0012096693)
(0.78909591 -0.16496452 -0.001055011)
(0.82754399 -0.17168884 -0.00089610166)
(0.86636506 -0.1784399 -0.00074064343)
(0.90550669 -0.18521421 -0.00057860857)
(0.94490478 -0.19198856 -0.00041826179)
(0.98446192 -0.19874258 -0.00025322931)
(1.0241414 -0.20545241 -0.00011136879)
(1.0638574 -0.21212607 2.1886289e-05)
(1.1035754 -0.21874812 0.00013326166)
(1.1432574 -0.22531973 0.00022214721)
(1.1829094 -0.23183923 0.00028131635)
(1.2225154 -0.23833221 0.00032125081)
(1.2621192 -0.24478858 0.00032398835)
(-0.001920939 -0.0050250902 -0.0059346271)
(-0.00010991843 -0.0079581521 -0.0068635621)
(0.0017487691 -0.012028408 -0.0080252053)
(0.0062382568 -0.015973691 -0.0082971946)
(0.011774935 -0.020186891 -0.0085107168)
(0.019352507 -0.024703743 -0.0084783309)
(0.028274187 -0.029320235 -0.0084461237)
(0.038911219 -0.034108533 -0.0082830255)
(0.051093935 -0.039063769 -0.008169144)
(0.064870529 -0.044063874 -0.0079273314)
(0.080280567 -0.049327526 -0.0077284888)
(0.097123947 -0.054561967 -0.0075127358)
(0.11550206 -0.060042461 -0.0072268474)
(0.13519282 -0.065537775 -0.0069706004)
(0.15623783 -0.071165664 -0.0067014949)
(0.17847533 -0.076870988 -0.0064523092)
(0.20189942 -0.082679928 -0.0062146992)
(0.22642014 -0.088588252 -0.006007467)
(0.25203735 -0.094605306 -0.0058122313)
(0.27872463 -0.10073866 -0.0056363402)
(0.3064942 -0.10697434 -0.0054649478)
(0.33529236 -0.11335683 -0.0052716957)
(0.36522018 -0.11983353 -0.0050814895)
(0.39609955 -0.12645924 -0.004849256)
(0.42795805 -0.13315474 -0.0046150277)
(0.46068955 -0.1399474 -0.0043260015)
(0.49423603 -0.14680404 -0.0040214132)
(0.5285073 -0.15370404 -0.0037240721)
(0.56341043 -0.16064964 -0.0034280978)
(0.59887822 -0.16762709 -0.0031397106)
(0.63486188 -0.17462174 -0.0028698774)
(0.67133585 -0.18163752 -0.0026181317)
(0.70828344 -0.18866649 -0.0023813554)
(0.74569471 -0.19571271 -0.0021530999)
(0.78356243 -0.20276386 -0.0019282595)
(0.82185828 -0.20982427 -0.0016951012)
(0.86054936 -0.21687018 -0.0014579773)
(0.89958346 -0.22389781 -0.001212174)
(0.9388757 -0.23088067 -0.00097103504)
(0.97836244 -0.23780472 -0.0007353945)
(1.0179703 -0.24466014 -0.00051746538)
(1.057633 -0.2514387 -0.00032527125)
(1.0973008 -0.25814072 -0.00017209339)
(1.1369476 -0.26477089 -5.1940523e-05)
(1.1765659 -0.27133776 2.276567e-05)
(1.2161534 -0.27786558 7.6047782e-05)
(1.2557088 -0.28434148 9.4705092e-05)
(0 -1.9763527e-20 0)
(0 1.1086255e-19 0)
(0 9.5797626e-20 0)
(0 8.4539726e-20 -2.8979123e-20)
(0 3.3397664e-20 0)
(0 -1.1729735e-21 0)
(0 1.6234848e-20 0)
(0 6.061813e-21 0)
(0 -3.938753e-20 0)
(0 -9.7102093e-20 0)
(0 -1.2063034e-19 -2.0030174e-20)
(0 -1.9776251e-20 0)
(0 2.4360755e-20 0)
(0 4.7054529e-20 0)
(0 3.8953263e-20 0)
(0 6.1356781e-20 0)
(0 1.1206021e-19 0)
(0 1.121095e-19 5.6469795e-20)
(0 9.6823443e-20 0)
(0 1.1274038e-19 0)
(0 3.8177191e-20 0)
(-6.792799e-19 3.200062e-20 0)
(2.9041053e-19 -7.2724887e-20 0)
(-1.6861642e-20 -2.9174434e-20 0)
(5.2280166e-20 -5.1330672e-20 -3.8953112e-20)
(-9.7768471e-20 -7.174813e-20 0)
(-2.5024061e-19 -1.0256091e-19 0)
(3.8243759e-20 -8.4684792e-20 0)
(0 6.4813808e-20 0)
(0 2.3200092e-20 0)
(0 -4.4990906e-20 0)
(0 4.3860361e-21 1.1478067e-19)
(0 4.9472331e-20 0)
(0 7.205413e-20 0)
(0 -2.0018965e-20 0)
(0 -5.2398748e-20 0)
(0 -4.2838359e-20 0)
(0 1.0076348e-20 0)
(0 5.0275452e-20 -1.1456102e-20)
(0 3.7198106e-20 0)
(0 -1.3482011e-20 0)
(0 3.4808913e-20 0)
(0 6.2968492e-21 0)
(0 -3.7070526e-20 0)
(0 5.4272713e-20 0)
(0 3.4561117e-21 3.9727e-20)
(0 5.3769543e-20 0)
(0 8.5033374e-20 0)
(0 7.7011396e-20 0)
(0.0024521001 -0.0018229037 -0.0044471588)
(0.0031421553 -0.0023695872 -0.0031075815)
(0.0038708737 -0.0024989942 -0.0016538594)
(0.0041323405 -0.0026457133 -0.00044714472)
(0.0040383216 -0.0024483094 0.00073930962)
(0.0038158234 -0.0025754686 0.002061675)
(0.0030377135 -0.0016320944 0.0033921535)
(0.0046967063 -0.01016773 -0.007304047)
(0.0061643586 -0.011200077 -0.0042323343)
(0.0068521482 -0.010490203 -0.0020211068)
(0.0070262824 -0.010155 -0.00018304389)
(0.0070998881 -0.010766338 0.0016605574)
(0.0062533366 -0.010643004 0.0038169093)
(0.0053675874 -0.010570606 0.0065172661)
(0.0064159681 -0.014453586 -0.0081805908)
(0.0083379106 -0.013811889 -0.0058691951)
(0.0096084256 -0.014446852 -0.0027309739)
(0.0097977917 -0.01441261 -0.00046159561)
(0.0096993184 -0.014072064 0.0023056399)
(0.0087626625 -0.014271583 0.0043361264)
(0.0074846287 -0.014956589 0.0078463547)
(0.011359982 -0.021596484 -0.0084525263)
(0.013055829 -0.021950652 -0.0058993584)
(0.014124594 -0.021700331 -0.0028314526)
(0.014553502 -0.021662948 -0.00040300703)
(0.014356723 -0.021750182 0.002340589)
(0.013443794 -0.022151805 0.0053230751)
(0.01169134 -0.021719472 0.0079246257)
(0.016777813 -0.027480397 -0.008824739)
(0.01875877 -0.027323696 -0.0061958079)
(0.020152663 -0.027554074 -0.0031055229)
(0.020477381 -0.027469254 -0.00023933366)
(0.020356642 -0.027576091 0.0026599801)
(0.019336251 -0.02760698 0.0053303667)
(0.01777953 -0.027859306 0.0085868804)
(0.024385164 -0.033997948 -0.00869436)
(0.026116556 -0.033962183 -0.0060405)
(0.027359551 -0.03390826 -0.002971617)
(0.027789894 -0.034088398 -0.00032433035)
(0.027541742 -0.033981483 0.0027776855)
(0.026503795 -0.034057596 0.00566332)
(0.024781546 -0.0339824 0.0084091762)
(0.033100761 -0.040159178 -0.0087096944)
(0.03501584 -0.040301707 -0.0059358788)
(0.036327366 -0.040576471 -0.0029756079)
(0.036744841 -0.040600617 -0.00018783573)
(0.036591087 -0.040715977 0.0028680982)
(0.035612378 -0.040924723 0.0055944945)
(0.033933399 -0.04076229 0.0087493324)
(0.043635151 -0.046844207 -0.0085351948)
(0.045460284 -0.047023513 -0.005863543)
(0.046677366 -0.047081846 -0.0028145039)
(0.047146569 -0.047195253 -1.6776101e-05)
(0.046814544 -0.047091444 0.0028555428)
(0.045893576 -0.047022785 0.0057693605)
(0.044111612 -0.046903658 0.0084950039)
(0.055573203 -0.053378378 -0.0084181236)
(0.057407822 -0.053579674 -0.0056148149)
(0.058677623 -0.053883367 -0.0027901597)
(0.059062857 -0.053925681 -1.5954977e-05)
(0.058897155 -0.054115398 0.0028991982)
(0.057905643 -0.054014261 0.0056954981)
(0.056278269 -0.053937901 0.0087039416)
(0.069108923 -0.060155339 -0.0081937595)
(0.07091278 -0.060423938 -0.0055329574)
(0.072079419 -0.060523261 -0.0026654366)
(0.07259777 -0.060787226 0.00014345894)
(0.072289625 -0.060680329 0.0029467658)
(0.071366379 -0.060567305 0.005699525)
(0.069683353 -0.060358178 0.008439803)
(0.084173963 -0.066932308 -0.0079832001)
(0.085922209 -0.067213683 -0.0053337795)
(0.087128441 -0.067506326 -0.0024986163)
(0.087491641 -0.067507438 5.6611804e-05)
(0.087354966 -0.067584621 0.0028773957)
(0.08637937 -0.067496472 0.0054808254)
(0.084795218 -0.067405362 0.0084412064)
(0.10071128 -0.073756753 -0.0077769686)
(0.1024469 -0.074096847 -0.0050835444)
(0.10351815 -0.074314081 -0.002548728)
(0.1040376 -0.074493055 0.00016330335)
(0.10378283 -0.074478759 0.0028527401)
(0.10281013 -0.074322374 0.0053750349)
(0.101413 -0.074108844 0.0081279807)
(0.11871251 -0.080701589 -0.0074720921)
(0.12029014 -0.080962527 -0.0049455374)
(0.1214484 -0.08126893 -0.0024220812)
(0.12185525 -0.081290072 0.00012724448)
(0.12165692 -0.08131492 0.002700541)
(0.12079598 -0.081282292 0.0051020954)
(0.11936627 -0.08095617 0.0077773362)
(0.1379968 -0.087548312 -0.0072355954)
(0.13956245 -0.08787406 -0.0047659846)
(0.14071616 -0.088141355 -0.0023919002)
(0.14108039 -0.088220913 9.1245453e-05)
(0.14098369 -0.088306633 0.0025723844)
(0.14009629 -0.088115042 0.0048669367)
(0.1388336 -0.087863157 0.0074667864)
(0.15862725 -0.094514104 -0.0069686724)
(0.16016223 -0.094807042 -0.0045878183)
(0.16122421 -0.095039614 -0.0023292318)
(0.16164977 -0.095133245 0.00010062909)
(0.16150214 -0.095113251 0.002402496)
(0.16072991 -0.094980732 0.0046655332)
(0.15948195 -0.094692202 0.0070985036)
(0.18049779 -0.10141163 -0.0067056094)
(0.18193428 -0.10169286 -0.004445333)
(0.18303612 -0.10197074 -0.0022509704)
(0.18340488 -0.10202628 2.6251126e-05)
(0.18332402 -0.10206622 0.0023059618)
(0.18257103 -0.10189941 0.0044311765)
(0.18140453 -0.10162075 0.006806887)
(0.20350374 -0.108377 -0.0064855187)
(0.20494418 -0.108682 -0.0042805644)
(0.2059779 -0.10891394 -0.0022040988)
(0.20635428 -0.10897314 4.8640278e-05)
(0.20628251 -0.10898748 0.0021893699)
(0.20557398 -0.10880026 0.0042713542)
(0.20445679 -0.10852895 0.006546697)
(0.22768083 -0.11539435 -0.0062580556)
(0.22904449 -0.11567653 -0.0041705252)
(0.23007658 -0.11592516 -0.0021208716)
(0.23043592 -0.11599062 1.8400924e-05)
(0.23038485 -0.11599658 0.0021033186)
(0.22969955 -0.11580901 0.0041272627)
(0.22862941 -0.11552647 0.0063262988)
(0.25292457 -0.1224933 -0.0060852458)
(0.25426113 -0.12277879 -0.0040353994)
(0.25526367 -0.12301944 -0.0020659518)
(0.25560544 -0.12307169 2.2222123e-05)
(0.25557243 -0.12307035 0.0020365411)
(0.25490701 -0.12287649 0.0040063031)
(0.25389013 -0.12260512 0.0061359626)
(0.2792494 -0.12968565 -0.0059001501)
(0.28055233 -0.12996981 -0.0039312682)
(0.28152419 -0.13021562 -0.0020156936)
(0.28186492 -0.13028194 6.9077187e-06)
(0.28184409 -0.13027288 0.0019582253)
(0.28120182 -0.13009165 0.003882227)
(0.28022451 -0.12978716 0.0059515655)
(0.30664598 -0.13699154 -0.0057429529)
(0.30790169 -0.13728554 -0.0038277295)
(0.30885039 -0.13753083 -0.0019679534)
(0.30918301 -0.13758305 -1.119449e-05)
(0.30917185 -0.13757807 0.001878765)
(0.30855531 -0.13738493 0.0037413665)
(0.30762514 -0.13708266 0.00575047)
(0.33508061 -0.14440178 -0.0055627159)
(0.33630067 -0.14470128 -0.0037201123)
(0.33722482 -0.14493709 -0.0019287979)
(0.33754962 -0.14500791 -5.1858265e-05)
(0.33755726 -0.14499287 0.0017716688)
(0.33696705 -0.14481884 0.0035695467)
(0.33609054 -0.14450244 0.0055095497)