/*--------------------------------*- C++ -*----------------------------------*\
  =========                 |
  \\      /  F ield         | OpenFOAM: The Open Source CFD Toolbox
   \\    /   O peration     | Website:  https://openfoam.org
    \\  /    A nd           | Version:  6
     \\/     M anipulation  |
\*---------------------------------------------------------------------------*/
FoamFile
{
    version     2.0;
    format      ascii;
    class       pointVectorField;
    location    "1.91";
    object      u;
}
// * * * * * * * * * * * * * * * * * * * * * * * * * * * * * * * * * * * * * //

dimensions      [0 1 0 0 0 0 0];

internalField   nonuniform List<vector> 
625
(
(0 0 0)
(0 0 0)
(0.33501144 0.041419232 -0.050533122)
(0.32800365 -0.077377586 -0.043677774)
(0 0 0)
(0 0 0)
(0.32205646 -0.070823288 -0.044425486)
(0.32909923 0.047596841 -0.050638616)
(0 0 0)
(0 0 0)
(0 0 0)
(0.33288308 0.010798185 -0.049706841)
(0.33060927 -0.017878225 -0.047258119)
(0.32931924 -0.046666787 -0.045571611)
(-0.0014748482 -0.0014969564 -0.00049952162)
(-0.0022845684 -0.0020029507 -0.0012050354)
(-0.0027104254 -0.002072848 -0.0023134186)
(-0.0025653178 -0.0015861268 -0.0039214053)
(-0.0016839435 -0.00039490467 -0.0059276031)
(0.00031391989 0.0011684026 -0.0082194382)
(0.0034110743 0.0035221213 -0.010739831)
(0.0081040921 0.006066855 -0.013368962)
(0.014317614 0.0092562715 -0.016134656)
(0.022423515 0.012570233 -0.0189988)
(0.032386315 0.016307259 -0.021769762)
(0.044465526 0.020025252 -0.024526687)
(0.058591797 0.023909039 -0.027211007)
(0.074907774 0.027630948 -0.029785849)
(0.093316808 0.031252732 -0.032241785)
(0.11383484 0.034524569 -0.034556997)
(0.13632428 0.037562742 -0.036832928)
(0.1606998 0.039929412 -0.038827579)
(0.18682665 0.041983984 -0.040979372)
(0.21427299 0.043322843 -0.042857524)
(0.24323036 0.043958519 -0.044657305)
(0.27300231 0.044176795 -0.046590868)
(0.30321874 0.043273302 -0.048066492)
(0.00011874528 -0.00073354598 -0.00038456985)
(-0.00072167505 -0.0019652966 -0.0014522444)
(-0.0013674045 -0.0034834699 -0.0031197663)
(-0.0014840729 -0.0055704098 -0.0051867087)
(-0.00082648356 -0.0077908306 -0.0076241761)
(0.00085388776 -0.01046459 -0.010189117)
(0.0036724867 -0.01328706 -0.013058782)
(0.0079776022 -0.016480517 -0.015840517)
(0.013922025 -0.019879556 -0.018783868)
(0.021556349 -0.023484958 -0.0216211)
(0.031135893 -0.027309696 -0.024377475)
(0.042712472 -0.03131198 -0.026989906)
(0.056344981 -0.035422637 -0.029435829)
(0.07207987 -0.039688635 -0.031670435)
(0.089940876 -0.043997162 -0.033680548)
(0.10983665 -0.048362583 -0.035504881)
(0.13176161 -0.052715514 -0.037052558)
(0.15553796 -0.057005216 -0.03847703)
(0.18109425 -0.061178089 -0.039632362)
(0.20818678 -0.065162738 -0.040722275)
(0.23668504 -0.068859851 -0.041608162)
(0.26625188 -0.07222041 -0.042461722)
(0.29652639 -0.075065853 -0.043295785)
(0 0 0)
(0 0 0)
(0 0 0)
(-0.0015002442 0.00084253703 -0.00025755973)
(-0.0030462096 0.0022955544 -0.00058232518)
(-0.0035885089 0.0016975705 -0.0012238919)
(-0.0039849973 0.0016108868 -0.0025705263)
(-0.0034115149 0.00041742838 -0.0042139327)
(-0.0018287628 -0.0011883715 -0.0060628775)
(0.00066809997 -0.0033008981 -0.0081711942)
(0.0050599445 -0.0061177258 -0.010453362)
(0.010661458 -0.0092111735 -0.012774586)
(0.018234974 -0.012867044 -0.015175239)
(0.027541822 -0.016723189 -0.017620663)
(0.038954965 -0.021129526 -0.01994842)
(0.05230139 -0.025524834 -0.022315621)
(0.067838799 -0.030335451 -0.024540666)
(0.085397407 -0.035094993 -0.026717197)
(0.1050572 -0.040008181 -0.028789225)
(0.12670059 -0.044823818 -0.030791164)
(0.15025176 -0.049582102 -0.032700057)
(0.17553968 -0.054099884 -0.03458852)
(0.20250393 -0.05839517 -0.03642279)
(0.23071996 -0.062268663 -0.038263044)
(0.2603129 -0.065765144 -0.040131193)
(0.29048821 -0.068643651 -0.042005904)
(0.3235684 -0.039810215 -0.046006838)
(0.32431133 -0.011656487 -0.047408841)
(0.32698824 0.016744092 -0.048431841)
(0.29760762 0.049445037 -0.050189784)
(0.26688321 0.050140599 -0.049261765)
(0.23703019 0.050325752 -0.048329411)
(0.20819003 0.049908563 -0.047299633)
(0.18063527 0.048888514 -0.04610663)
(0.15466399 0.047317894 -0.044741381)
(0.13042725 0.045323366 -0.043137192)
(0.10813808 0.042830506 -0.041312449)
(0.087863483 0.0400723 -0.039240747)
(0.069747238 0.036955271 -0.036911377)
(0.053776739 0.033683897 -0.034355221)
(0.040026381 0.030232393 -0.031559975)
(0.028376371 0.026755871 -0.028595886)
(0.01885676 0.023257719 -0.025444407)
(0.011211192 0.0198816 -0.022170283)
(0.0056001891 0.016445966 -0.018893252)
(0.0014989512 0.013462293 -0.015584706)
(-0.0011244483 0.010583126 -0.012456454)
(-0.0023817262 0.0079234008 -0.0092976068)
(-0.0026787788 0.0056155428 -0.0065391911)
(-0.0021426593 0.0035676258 -0.0040501503)
(-0.0012017542 0.0020726393 -0.0020689305)
(0.00021318325 0.00048983447 -0.0001200944)
(0 0 0)
(0 0 0)
(0 0 0)
(0 0 0)
(0 0 0)
(0 0 0)
(0.32640927 -0.076258635 -0.044121241)
(0.3251179 -0.07458636 -0.043954354)
(0.32344642 -0.073115833 -0.044186486)
(0.3338463 0.043581432 -0.050500915)
(0.3324481 0.044904801 -0.050639591)
(0.33090509 0.046660775 -0.050677269)
(-0.0011759525 -0.0028033883 -0.00083407165)
(-0.0024089822 -0.005435725 -0.0013195868)
(-0.0030347667 -0.0075317498 -0.0026186115)
(-0.0032372299 -0.0088654033 -0.0042907439)
(-0.0026385821 -0.009398664 -0.0063139569)
(-0.00090574933 -0.0090542859 -0.0086100602)
(0.0019677718 -0.0078617808 -0.01113817)
(0.0064492567 -0.0058768903 -0.013808346)
(0.012463955 -0.0031795175 -0.016576496)
(0.020556828 5.3624313e-05 -0.019385355)
(0.030463103 0.0037265321 -0.022151001)
(0.042566456 0.0075319226 -0.024886594)
(0.056767153 0.011372669 -0.027523738)
(0.073186861 0.014960614 -0.030029906)
(0.091724075 0.01810229 -0.032405723)
(0.11235449 0.020718966 -0.034673004)
(0.13496551 0.022475761 -0.03673916)
(0.15937199 0.023445837 -0.038709453)
(0.18548091 0.023574767 -0.040620004)
(0.21296845 0.022584955 -0.042244959)
(0.24182589 0.020805305 -0.044107437)
(0.27143729 0.018352249 -0.045691094)
(0.30197842 0.014540564 -0.047395855)
(-0.00080084333 -0.00089351854 -0.00086908747)
(-0.0016626276 -0.0018465965 -0.0017308251)
(-0.0024182017 -0.0027384476 -0.0031761239)
(-0.0025729839 -0.0035006896 -0.0049031826)
(-0.0019932701 -0.0040410396 -0.0070877085)
(-0.00038903894 -0.0045593496 -0.0094328515)
(0.0024260092 -0.0047968284 -0.012102965)
(0.0067699659 -0.0051228095 -0.014745111)
(0.012699606 -0.0052039455 -0.017600316)
(0.020493234 -0.0053777984 -0.020339682)
(0.030161078 -0.0054129028 -0.023126512)
(0.041949564 -0.005557829 -0.025769936)
(0.055801725 -0.0056926662 -0.028304775)
(0.071844235 -0.0059715325 -0.03068984)
(0.089995966 -0.0063218361 -0.03292743)
(0.11028688 -0.0068696103 -0.034977653)
(0.13256721 -0.0075940399 -0.036860469)
(0.15676137 -0.0084644958 -0.038642532)
(0.18275445 -0.009626267 -0.04019482)
(0.21018273 -0.010945145 -0.041752552)
(0.23912434 -0.012416435 -0.043162706)
(0.26900943 -0.014219177 -0.044456681)
(0.30003591 -0.015969033 -0.0458488)
(-0.00025533821 0.00088964136 -0.00077758052)
(-0.0011847508 0.0014478993 -0.0016612722)
(-0.0017849238 0.0017754048 -0.0031436116)
(-0.0019652877 0.0016876532 -0.005047293)
(-0.0013538473 0.0010095744 -0.0072940318)
(0.00022856514 -0.00015822066 -0.0098259717)
(0.0030710483 -0.001994729 -0.012459419)
(0.0073178421 -0.0043717557 -0.015241472)
(0.013101581 -0.0072863962 -0.018038879)
(0.020725492 -0.010663273 -0.020811969)
(0.030149127 -0.01434765 -0.023544852)
(0.041645367 -0.018294803 -0.026118489)
(0.055143074 -0.022317433 -0.028599474)
(0.070814887 -0.026290436 -0.030900852)
(0.088591206 -0.030138652 -0.033016761)
(0.1085331 -0.033685443 -0.034966539)
(0.13048126 -0.036878095 -0.036743825)
(0.15450875 -0.039671777 -0.038317757)
(0.18025191 -0.041946781 -0.039813877)
(0.20781255 -0.043784074 -0.041071828)
(0.23673153 -0.045180003 -0.042361042)
(0.26690405 -0.046017617 -0.043508739)
(0.2979492 -0.046465115 -0.044593392)
(0 0 0)
(0 0 0)
(0 0 0)
(0 0 0)
(0 0 0)
(0 0 0)
(0 0 0)
(0 0 0)
(0 0 0)
(-0.00014953073 -0.00018623708 0.00010187585)
(-0.00059531507 0.00016390574 0.00034189745)
(-0.0010629608 0.00043050977 0.00026931021)
(-0.0010369613 -0.0006283332 -0.00087804789)
(-0.0016488954 0.00037521166 -0.00064218324)
(-0.0022288535 0.0012911519 -0.00039685802)
(-0.0015565444 -0.0019195677 -0.0024016307)
(-0.0020609915 -0.00072288827 -0.0018351551)
(-0.0027008864 0.00067377725 -0.0014819897)
(-0.0014747318 -0.0035711311 -0.0042763032)
(-0.0020170054 -0.001865839 -0.0036141858)
(-0.0027214297 -0.00013094937 -0.0029229547)
(-0.00072517787 -0.0055008948 -0.0065329885)
(-0.0012637453 -0.0035118832 -0.0056173626)
(-0.0020970485 -0.0014456773 -0.0048146861)
(0.0010219545 -0.0079160475 -0.0089911756)
(0.00052117491 -0.0056783239 -0.0079132062)
(-0.00036269575 -0.0033777833 -0.0069084501)
(0.0039578566 -0.010623968 -0.011658445)
(0.0035405068 -0.0082691505 -0.0104632)
(0.0025348233 -0.0056666045 -0.0090939549)
(0.0084845163 -0.013815754 -0.014354156)
(0.0078211094 -0.011102688 -0.013036694)
(0.0068641194 -0.0085583981 -0.011670723)
(0.014345354 -0.017059917 -0.017160086)
(0.013806611 -0.014514211 -0.015777976)
(0.012777438 -0.011803688 -0.01411561)
(0.022121691 -0.020848588 -0.019934445)
(0.021571537 -0.01819581 -0.018376381)
(0.020416316 -0.015446292 -0.016662254)
(0.031679288 -0.024662351 -0.022587079)
(0.031055434 -0.022021875 -0.021037326)
(0.02986032 -0.019329304 -0.019184351)
(0.043276146 -0.028861192 -0.025168269)
(0.04262565 -0.026309836 -0.023533789)
(0.041371618 -0.023628652 -0.021608344)
(0.056837969 -0.033085154 -0.02757342)
(0.056139329 -0.030561339 -0.025946923)
(0.054820439 -0.028027451 -0.023979118)
(0.072543294 -0.037556107 -0.029817575)
(0.071776639 -0.03518466 -0.028187788)
(0.070388038 -0.032689349 -0.026226092)
(0.090269546 -0.042032977 -0.031865478)
(0.089430945 -0.039706684 -0.030288501)
(0.088007039 -0.037395502 -0.028352471)
(0.11006585 -0.046581542 -0.033739588)
(0.10916162 -0.044421159 -0.032215418)
(0.10765752 -0.042190856 -0.030357174)
(0.13180429 -0.051093026 -0.035402077)
(0.13079975 -0.048999018 -0.03399241)
(0.1292837 -0.046925847 -0.032254977)
(0.15542726 -0.055541635 -0.036940043)
(0.15437687 -0.053576915 -0.035642415)
(0.15279382 -0.051592444 -0.034021274)
(0.1807613 -0.059815422 -0.038282581)
(0.17958552 -0.057893952 -0.037122268)
(0.17798478 -0.056060622 -0.035740809)
(0.20765041 -0.063869507 -0.039534245)
(0.20643638 -0.062083659 -0.038589937)
(0.20482711 -0.060305978 -0.037380593)
(0.23587347 -0.06766693 -0.040689898)
(0.23453092 -0.06585479 -0.039921231)
(0.23292981 -0.06416188 -0.038988393)
(0.26521924 -0.070988994 -0.041790503)
(0.2638826 -0.069271305 -0.041243883)
(0.26230524 -0.067700534 -0.040637626)
(0.29537131 -0.073977822 -0.042906521)
(0.29385677 -0.072228053 -0.042685172)
(0.29239444 -0.070530052 -0.042325918)
(0.33183936 0.012816487 -0.049027126)
(0.33043883 0.014371461 -0.048961182)
(0.32879397 0.01589166 -0.048743371)
(0.32919295 -0.01620926 -0.047097819)
(0.32787196 -0.014816979 -0.047274516)
(0.32607216 -0.013152594 -0.047347395)
(0.32796912 -0.045304989 -0.045810462)
(0.32666213 -0.04363726 -0.045734202)
(0.32496564 -0.041931791 -0.04583125)
(-0.0012885617 -0.0010174401 -3.50876e-05)
(-0.0007279622 -0.00055072971 4.040762e-05)
(-0.00039304768 -0.0002145984 0.00015052174)
(-0.0018374211 -0.00097296303 -0.0010022601)
(-0.0015396265 -9.4796579e-05 -0.0011247564)
(-0.0013808548 0.00047332264 -0.001426167)
(-0.00223317 -0.00067537736 -0.0023982787)
(-0.0020763072 0.00068133759 -0.0027292681)
(-0.0018174475 0.0016624399 -0.0033334535)
(-0.0020584062 0.00018436676 -0.0042640415)
(-0.0019811829 0.0018207409 -0.0047777244)
(-0.0020380389 0.0032476309 -0.005656048)
(-0.00116003 0.0017364371 -0.0064952979)
(-0.0012342628 0.0036500335 -0.007389892)
(-0.0014605586 0.0054244872 -0.0083200975)
(0.00085316946 0.0035537801 -0.009094081)
(0.00058883248 0.005755629 -0.0099142715)
(0.00020353503 0.0077385071 -0.011310748)
(0.003973654 0.0059978715 -0.011790221)
(0.0036209569 0.0083183881 -0.012895507)
(0.0031269661 0.010511831 -0.014343027)
(0.0086521153 0.0086625355 -0.01465726)
(0.0081850771 0.011196975 -0.015889463)
(0.0073662451 0.013607292 -0.01752943)
(0.014760412 0.011998225 -0.017543815)
(0.014240964 0.014399632 -0.019021731)
(0.013418927 0.016837878 -0.020758071)
(0.022953979 0.015254083 -0.020614373)
(0.022205579 0.017812751 -0.021999806)
(0.02122987 0.020252168 -0.02393335)
(0.032865468 0.018891679 -0.023458198)
(0.032020838 0.021425482 -0.025066027)
(0.03091882 0.023884597 -0.027044281)
(0.044866679 0.022593089 -0.026314361)
(0.043952063 0.02503541 -0.027969918)
(0.042724066 0.027485559 -0.029981015)
(0.058938618 0.026339301 -0.029044431)
(0.057938807 0.028697805 -0.030723411)
(0.056601694 0.031072108 -0.032769711)
(0.075166176 0.029953342 -0.031638596)
(0.074071488 0.032213739 -0.033319967)
(0.072634186 0.034517732 -0.035353172)
(0.093475362 0.033453706 -0.034064087)
(0.092311209 0.035587199 -0.035732303)
(0.090817765 0.037787335 -0.037709494)
(0.11387881 0.036598752 -0.036380436)
(0.11265975 0.038633775 -0.037954576)
(0.11106242 0.040755805 -0.039864253)
(0.13623825 0.03950404 -0.038465363)
(0.13493878 0.041397224 -0.039978326)
(0.13335048 0.043369108 -0.041762036)
(0.16048698 0.041789924 -0.040465491)
(0.15917546 0.043608034 -0.041870786)
(0.15747515 0.045567049 -0.043496422)
(0.18637637 0.043760206 -0.042361351)
(0.18498967 0.045474604 -0.043506273)
(0.1833404 0.04727438 -0.044997101)
(0.21375412 0.045024067 -0.043931386)
(0.21241303 0.046685132 -0.045178253)
(0.21074503 0.04840091 -0.04634903)
(0.24252427 0.045679892 -0.04571313)
(0.24115393 0.04722037 -0.046618313)
(0.2394111 0.048945729 -0.047557758)
(0.27213092 0.045613279 -0.047467382)
(0.27060581 0.047408421 -0.047980754)
(0.26901743 0.048938089 -0.048685775)
(0.30264144 0.045310284 -0.048660754)
(0.30110451 0.046773875 -0.049249751)
(0.29961537 0.048210239 -0.049532508)
(-0.00031721114 -0.0013418669 -0.00074765951)
(-0.001957229 -0.0009973257 -0.0022311462)
(-0.0030564181 -0.0015092739 -0.0037383101)
(-0.0038338903 -0.0012443385 -0.0058193691)
(-0.0036740346 -0.00049204576 -0.0083663957)
(-0.002511931 0.00076557488 -0.010917905)
(-0.0001170543 0.0025971849 -0.013862152)
(0.0038921507 0.0050645858 -0.016842561)
(0.0095308155 0.0079113351 -0.019836216)
(0.017076748 0.011164364 -0.02286292)
(0.026610593 0.014643065 -0.025809274)
(0.03832851 0.018115184 -0.028609523)
(0.052176057 0.021506892 -0.031261828)
(0.06825868 0.024584335 -0.033740242)
(0.086504199 0.027184802 -0.035997139)
(0.10686978 0.029171447 -0.038068497)
(0.12923627 0.030440719 -0.039909843)
(0.15349524 0.030875006 -0.041598495)
(0.17940407 0.03046813 -0.04306923)
(0.20689241 0.029215349 -0.044437103)
(0.23560092 0.027127398 -0.045639503)
(0.26525944 0.024328119 -0.046784557)
(0.29595468 0.020612146 -0.047638094)
(-0.0010315333 0.00045451807 -0.00060309963)
(-0.0025713358 0.0021573659 -0.0016678658)
(-0.003437149 0.0026571575 -0.0029186689)
(-0.0041113179 0.0036977891 -0.0049123372)
(-0.0037815277 0.004290718 -0.0069438248)
(-0.0026003431 0.0046888238 -0.0093662134)
(-0.0001094474 0.0051924546 -0.012015848)
(0.0039037149 0.0053012667 -0.014653238)
(0.0094625058 0.0054298376 -0.017507016)
(0.016959121 0.0052918026 -0.020247061)
(0.02631906 0.0051443638 -0.02303435)
(0.037826997 0.0046555941 -0.025676305)
(0.051387138 0.0041821687 -0.028246763)
(0.067181421 0.0034053267 -0.03064126)
(0.085087907 0.0025717591 -0.032907705)
(0.10514447 0.0014874828 -0.034995008)
(0.12724227 0.00032426189 -0.036921535)
(0.1512681 -0.0010816108 -0.038723599)
(0.17708321 -0.0025444745 -0.040321125)
(0.20451647 -0.0042017634 -0.041899925)
(0.23333855 -0.0059071378 -0.043322722)
(0.26319505 -0.0078740203 -0.044727166)
(0.29456546 -0.0096498524 -0.046069031)
(-0.0010962521 0.0023338587 -0.00067946547)
(-0.0027012376 0.0051368103 -0.0013614631)
(-0.003429767 0.0073722229 -0.0025530345)
(-0.0038952459 0.0086863686 -0.0039098587)
(-0.0035047372 0.0093346368 -0.0057965247)
(-0.0021284561 0.0091421539 -0.0079440201)
(0.0004195833 0.0079919427 -0.010188858)
(0.0044055916 0.0060799594 -0.012676755)
(0.0099624129 0.0034371001 -0.015214782)
(0.017349381 5.7723855e-05 -0.017736634)
(0.026480635 -0.0037415663 -0.020292406)
(0.037726996 -0.0079490404 -0.022763168)
(0.050952169 -0.012359633 -0.025143347)
(0.06635837 -0.016771991 -0.027444248)
(0.083875115 -0.021114844 -0.029605998)
(0.10353864 -0.025152626 -0.031659569)
(0.12529406 -0.028861797 -0.033605504)
(0.14903734 -0.032063931 -0.035434685)
(0.17466709 -0.034762441 -0.037184725)
(0.20203716 -0.036890485 -0.038910136)
(0.23078573 -0.038434451 -0.040533144)
(0.26101138 -0.039473103 -0.042310352)
(0.29183391 -0.039852816 -0.043862602)
(-0.00085796685 -0.0020439904 -0.00024432185)
(-0.00077231996 -0.0019745841 -0.00020368638)
(-0.00058990237 -0.0016090936 -0.00010054511)
(-0.0020794611 -0.0044538029 -0.0011926079)
(-0.0020033492 -0.0035847534 -0.0012590059)
(-0.0018672144 -0.0028650748 -0.0016378897)
(-0.0026139367 -0.0060186614 -0.0025424344)
(-0.0026217096 -0.0047855467 -0.0028384624)
(-0.0025975606 -0.0033919093 -0.0032326629)
(-0.002805844 -0.0069554007 -0.0044422831)
(-0.0028593079 -0.0053289149 -0.00486476)
(-0.0030752448 -0.0036994034 -0.0052615159)
(-0.0021084554 -0.0072194944 -0.0066248891)
(-0.0023233861 -0.0052356946 -0.0070896596)
(-0.0026403725 -0.0032219906 -0.007698382)
(-0.00040501659 -0.0065954404 -0.0090764837)
(-0.00066931962 -0.0043949788 -0.0096894917)
(-0.0011392515 -0.0021561605 -0.01033556)
(0.0025143597 -0.0052596337 -0.011756451)
(0.0021321474 -0.0028407996 -0.012504928)
(0.0015044891 -0.00043369937 -0.013187614)
(0.0069739293 -0.0031239095 -0.014573992)
(0.0065303795 -0.00065266805 -0.015329827)
(0.0057607963 0.001871496 -0.016166093)
(0.013059352 -0.00045698482 -0.017454932)
(0.012506597 0.0021950933 -0.018345503)
(0.011612018 0.0048050358 -0.019155426)
(0.021062672 0.0028287591 -0.020363587)
(0.020444564 0.0054234207 -0.021306962)
(0.019393997 0.0080135187 -0.022152128)
(0.030965627 0.0064186043 -0.023219463)
(0.03022475 0.0090119885 -0.024175082)
(0.029086598 0.011589807 -0.025107658)
(0.043002725 0.010158639 -0.026007079)
(0.0422037 0.012693262 -0.027011494)
(0.040950007 0.015210818 -0.027912355)
(0.057146579 0.01387099 -0.02868536)
(0.056256942 0.01632338 -0.029672315)
(0.054910559 0.018725042 -0.03057468)
(0.073481645 0.017318314 -0.031185747)
(0.072502224 0.019679232 -0.032172264)
(0.071062873 0.021983535 -0.033060162)
(0.091901546 0.020355905 -0.033566016)
(0.090847997 0.022592695 -0.034514078)
(0.089355598 0.024758658 -0.035354448)
(0.11242999 0.022786219 -0.035759977)
(0.11129978 0.024897854 -0.036638113)
(0.10971804 0.026945991 -0.037448701)
(0.13485915 0.024449186 -0.037776648)
(0.13364939 0.026465316 -0.038617848)
(0.13206666 0.028373309 -0.039338532)
(0.1591529 0.025305168 -0.039681406)
(0.15791872 0.027181144 -0.040393524)
(0.15622077 0.029024564 -0.041077196)
(0.18505485 0.0253239 -0.041415578)
(0.183672 0.027129734 -0.042067876)
(0.18208196 0.028768831 -0.042602005)
(0.21232144 0.024290851 -0.042985087)
(0.21108253 0.025971389 -0.043519404)
(0.20935191 0.027626581 -0.044068567)
(0.24090218 0.022466869 -0.044739414)
(0.239696 0.024225056 -0.044935741)
(0.23788625 0.025772727 -0.045352076)
(0.2704582 0.019924494 -0.04607114)
(0.26897522 0.021642126 -0.046255911)
(0.26732936 0.023014597 -0.046632534)
(0.3007934 0.016490176 -0.047533327)
(0.29925304 0.01793185 -0.047654822)
(0.29770576 0.019452467 -0.047708614)
(-0.00081502649 -0.00028192047 -0.00030735535)
(-0.00084052054 -0.00010322605 -9.0263674e-05)
(-0.00083657524 0.00028973317 -0.00013539212)
(-0.0016887211 -0.00085752222 -0.0013920263)
(-0.0018215923 -3.8743067e-06 -0.0012413124)
(-0.0018939999 0.00084282401 -0.0013782845)
(-0.0023322836 -0.0012733149 -0.0028679529)
(-0.0023851912 -7.776318e-05 -0.002782739)
(-0.0027386473 0.0014091414 -0.0027661623)
(-0.0024190343 -0.0016502514 -0.0047209523)
(-0.0026675255 5.0384867e-05 -0.0046196731)
(-0.0030332078 0.0018075139 -0.0046584939)
(-0.0018279839 -0.0018680967 -0.0069578154)
(-0.0019791188 8.1650915e-05 -0.0068211137)
(-0.0025797115 0.0021964496 -0.0068875879)
(-0.00011870796 -0.0021522398 -0.0094043333)
(-0.00041812013 5.8916669e-05 -0.0093037238)
(-0.0011293419 0.0024202144 -0.0093092024)
(0.0027327774 -0.00223325 -0.012121809)
(0.0024155955 0.00014647128 -0.011933915)
(0.0016111563 0.0026217723 -0.01199154)
(0.0071175821 -0.0024507393 -0.014844449)
(0.0067770655 2.2669025e-05 -0.014674491)
(0.0057408778 0.002743845 -0.014729887)
(0.013044698 -0.0024693854 -0.017740507)
(0.012611135 8.0564952e-05 -0.017548029)
(0.011536445 0.0027276024 -0.017601292)
(0.020853398 -0.0026422719 -0.020542473)
(0.020409823 -0.00014283159 -0.02031304)
(0.019138485 0.0026363066 -0.020369811)
(0.030524398 -0.0027555984 -0.023347926)
(0.029973276 -0.00021738936 -0.023098871)
(0.028639344 0.0024356518 -0.023193016)
(0.042265299 -0.0029709938 -0.026036474)
(0.041694652 -0.00057931841 -0.025777504)
(0.04022307 0.0020903244 -0.025867314)
(0.056079114 -0.003232426 -0.028576609)
(0.055425178 -0.00089009117 -0.028303254)
(0.053867684 0.0016393215 -0.028420959)
(0.072037058 -0.0036409503 -0.030992929)
(0.071329846 -0.00145619 -0.030715749)
(0.069671195 0.0010139176 -0.03084604)
(0.090112507 -0.0041306864 -0.033212495)
(0.089314558 -0.0020464001 -0.032926743)
(0.087609295 0.00026113663 -0.033080381)
(0.11027588 -0.0048381109 -0.035271754)
(0.10942183 -0.0029120095 -0.035000839)
(0.10763884 -0.00067792342 -0.035170227)
(0.13243777 -0.0056727958 -0.03714338)
(0.13148537 -0.0038248103 -0.036878597)
(0.12967256 -0.0017561048 -0.037063179)
(0.15650124 -0.0066748041 -0.038887559)
(0.1554685 -0.0050100775 -0.038635663)
(0.15365954 -0.0030105231 -0.038844748)
(0.18228724 -0.0079265205 -0.040433859)
(0.18119042 -0.0062696358 -0.040238677)
(0.17933816 -0.0044486101 -0.040392838)
(0.20963064 -0.0092726041 -0.04198527)
(0.20843689 -0.0079203567 -0.041707972)
(0.2066328 -0.0060173883 -0.041966195)
(0.23848515 -0.010800928 -0.043164451)
(0.23692661 -0.0093879521 -0.043280709)
(0.23536142 -0.0076217035 -0.043303599)
(0.26805296 -0.012732397 -0.04462599)
(0.26667026 -0.011101239 -0.044489291)
(0.26490781 -0.0095780365 -0.044733082)
(0.29883395 -0.014348818 -0.045931859)
(0.29761842 -0.012958502 -0.045936775)
(0.29598453 -0.011201038 -0.04599182)
(-0.00045349672 0.0016049039 -0.00021847799)
(-0.00057365894 0.0018632798 -0.00010644317)
(-0.00079375998 0.0020494157 -0.00013699986)
(-0.0013500212 0.0025666917 -0.0011608171)
(-0.0016037278 0.0033069958 -0.0010197859)
(-0.0020807232 0.0041406085 -0.0010043264)
(-0.0018575727 0.0034244008 -0.0025656262)
(-0.0021228156 0.0048001403 -0.0023311629)
(-0.0027638337 0.0061158688 -0.0022339326)
(-0.0018732233 0.0037041274 -0.0044455242)
(-0.0022631669 0.0054330737 -0.0041425167)
(-0.0028672853 0.0069679172 -0.0039370587)
(-0.0011824926 0.0033708911 -0.0066460391)
(-0.0015357324 0.0053489577 -0.0062813316)
(-0.002302633 0.0073317714 -0.0058423063)
(0.00055499285 0.0023911978 -0.0091422054)
(0.00012111529 0.0046854197 -0.0085781362)
(-0.00070126427 0.0068236833 -0.008190255)
(0.0034352851 0.0007150984 -0.01173648)
(0.0030085873 0.0031818233 -0.011124838)
(0.0020777644 0.0055391151 -0.010638779)
(0.0077922196 -0.0015726584 -0.014487054)
(0.0072592248 0.00098180335 -0.013837184)
(0.0062730934 0.0034266509 -0.013173163)
(0.013636627 -0.0044749006 -0.017270716)
(0.013045212 -0.0018212041 -0.016494885)
(0.011998011 0.00075155239 -0.01584227)
(0.02129534 -0.0078911128 -0.020010027)
(0.020683901 -0.005231117 -0.019220164)
(0.019533516 -0.0026669576 -0.018481583)
(0.030738233 -0.011649019 -0.022745391)
(0.029999932 -0.0090274321 -0.021890646)
(0.028846414 -0.0064718406 -0.021112472)
(0.042216905 -0.015729696 -0.025310785)
(0.041461851 -0.013156379 -0.024439927)
(0.040200917 -0.01063149 -0.02364984)
(0.055684792 -0.019885865 -0.027805552)
(0.054800349 -0.01740348 -0.02692154)
(0.053539099 -0.01497033 -0.026094471)
(0.071285938 -0.024050841 -0.030113494)
(0.070364845 -0.021658502 -0.02921925)
(0.069014111 -0.01931251 -0.028410225)
(0.088979677 -0.028056362 -0.032259166)
(0.08793027 -0.025779446 -0.031403443)
(0.086586673 -0.02354621 -0.030595007)
(0.10877913 -0.031790659 -0.034250243)
(0.10769755 -0.029632755 -0.033404635)
(0.10626794 -0.027500409 -0.032637165)
(0.13062173 -0.035156408 -0.036056465)
(0.12939385 -0.033093652 -0.035277026)
(0.12798784 -0.031079945 -0.034543797)
(0.15442131 -0.038069392 -0.037714245)
(0.15319134 -0.036133127 -0.036989021)
(0.15173639 -0.034235522 -0.036330374)
(0.18003436 -0.040516644 -0.039255026)
(0.17868539 -0.038687257 -0.038604842)
(0.17717907 -0.036812032 -0.038005881)
(0.2073426 -0.042419334 -0.040606523)
(0.20594401 -0.040623658 -0.040090969)
(0.20452335 -0.038884002 -0.039600692)
(0.23599027 -0.043840046 -0.042028226)
(0.23455132 -0.04213193 -0.041563516)
(0.2330323 -0.040386001 -0.041155853)
(0.26597322 -0.044739968 -0.04325253)
(0.26449045 -0.043093772 -0.042860993)
(0.26308778 -0.041387468 -0.042632085)
(0.29669402 -0.045294131 -0.044492688)
(0.29513169 -0.043434904 -0.044336276)
(0.29370024 -0.041955384 -0.044276364)
)
;

boundaryField
{
    free
    {
        type            calculated;
    }
    fixed
    {
        type            calculated;
    }
    traction
    {
        type            calculated;
    }
}


// ************************************************************************* //
