/*--------------------------------*- C++ -*----------------------------------*\
  =========                 |
  \\      /  F ield         | OpenFOAM: The Open Source CFD Toolbox
   \\    /   O peration     | Website:  https://openfoam.org
    \\  /    A nd           | Version:  6
     \\/     M anipulation  |
\*---------------------------------------------------------------------------*/
FoamFile
{
    version     2.0;
    format      ascii;
    class       pointScalarField;
    location    "0.07";
    object      E;
}
// * * * * * * * * * * * * * * * * * * * * * * * * * * * * * * * * * * * * * //

dimensions      [1 -1 -2 0 0 0 0];

internalField   nonuniform List<scalar> 
3969
(
1.337527
0.62562883
-58251.585
-26766.543
1.153235
0.66546532
-41221.571
-87674.899
1.630224
2.2192534
2.6226456
2.6716596
2.3082144
1.6732468
0.63640459
-30640.739
-30477.087
-30431.035
-30307.855
-30289.594
-30536.734
-22590.246
1.1096404
1.4308768
3.238909
6.2242256
10.686497
16.964645
24.469193
33.480045
42.592939
51.672883
61.08145
70.503735
76.231582
88.680305
95.96542
108.62827
127.20038
154.04424
190.7569
236.85565
290.461
351.19724
415.59758
481.07822
548.43104
614.59376
677.31168
736.66843
792.00134
845.75532
896.81649
947.10652
991.63394
1037.1128
1083.2989
1111.1893
1165.7274
1172.4689
1237.2626
1224.0755
1308.595
1321.4807
1368.6872
1473.7613
1524.005
1685.9909
1557.4027
0.998517
1.8455737
4.1677825
8.2565976
14.224039
21.690757
31.482211
41.238482
52.61325
62.014645
74.221611
83.347212
93.915128
101.9011
112.83341
124.73295
142.68554
167.40887
201.82567
245.46698
299.23785
358.15157
419.83496
487.02856
549.66742
612.06032
670.55263
728.6001
781.1532
834.87125
886.71251
938.02568
984.59674
1031.3027
1073.6594
1113.8949
1148.9679
1173.3825
1217.946
1241.783
1294.4262
1358.6112
1346.6947
1492.1533
1555.1456
1638.8318
1821.751
1.3600948
2.0003145
2.4756227
2.5142189
2.2545289
1.677498
0.55629605
1.3230694
2.1522538
3.5580744
7.5612224
15.090183
22.422321
34.486404
49.597203
54.748703
80.420728
89.241289
109.37191
110.71749
112.38942
104.79095
100.16778
102.18192
117.81239
149.4053
196.77808
257.93795
330.245
410.5734
497.41034
588.80262
681.90485
754.44615
856.052
932.56779
1005.7606
1076.4999
1141.6257
1205.1578
1261.6704
1315.2028
1355.2856
1336.5175
1385.1821
1379.3936
1366.8164
1339.7418
1339.4376
1293.0983
1332.591
1358.6729
1486.3835
1309.7977
-66896.563
-55389.446
-66751.92
-62500.45
-63076.112
-56498.043
-68804.027
1021.7695
1255.8245
1486.5586
1383.0086
1332.4492
1286.2168
1259.9501
1228.182
1215.1321
1207.9211
1156.012
1102.3125
1119.6768
1061.9326
1027.426
981.49953
934.8005
884.08304
836.82982
781.64646
726.61296
665.19761
596.31783
525.83121
452.1971
378.25191
310.20309
248.27817
198.0135
154.07041
127.71217
106.7403
102.977
74.573809
72.084972
71.873365
68.312625
62.584718
44.677528
39.17652
29.722768
21.206062
12.002461
6.3556039
3.8530708
0.96148247
0.79142104
1.3913072
1.5026038
1.4726204
1.4587172
1.4555836
1.389115
1.1423226
0.70296836
0.85301681
0.95980738
1.0392913
1.0738533
1.0443984
0.85311789
-30417.652
-30391.471
-30462.313
-30455.708
-30460.992
-30495.227
-30322.607
-65731.085
-65786.437
-65821.978
-65846.716
-65838.539
-65989.302
-65898.676
2.3299645
3.3333469
5.8647089
9.4016487
13.667007
17.648734
21.363608
23.645332
25.894608
29.273469
36.286359
46.942842
63.432068
82.510577
103.66361
128.50891
154.72094
181.42152
209.78915
239.66033
271.13712
303.03951
335.00107
368.32794
401.11915
432.61731
464.61137
502.04857
535.88661
573.93345
611.86726
651.94191
694.31182
740.39135
790.33459
836.55365
910.10464
945.84039
1045.5101
1104.4361
1174.6157
1272.5955
1392.2325
1475.4688
1764.8397
1779.844
2038.1473
3.0841803
4.9382485
7.6657723
10.822089
13.474135
14.584684
13.622166
11.353714
10.24603
13.60117
24.454299
44.328594
71.231257
102.39512
132.85378
157.40744
175.12684
185.96077
191.62452
192.00128
187.71468
181.93487
176.10185
171.86301
168.77997
177.66604
190.36101
209.63948
233.84016
261.84935
295.22053
334.33563
378.52737
434.94907
495.18686
573.57997
661.26468
728.93574
863.62149
906.4756
1100.0588
1164.1269
1368.4987
1388.2026
1660.6492
1633.7385
2240.6982
3.6702049
6.0110647
9.179326
12.539596
14.927236
14.872213
12.348463
8.192075
5.6804382
9.0182465
22.093969
45.446049
77.971042
114.30585
148.81707
178.05075
198.05361
208.35992
208.58987
199.91962
186.67067
170.47812
150.56215
130.52479
120.20446
108.90312
102.74466
101.82334
107.10785
117.92431
135.35233
159.33531
193.48127
237.39615
295.92823
367.81567
453.64524
564.5592
697.98916
821.7648
967.65897
1106.3575
1265.1663
1430.7919
1852.0432
1868.0671
2362.9984
3.8573378
6.3054718
9.6113816
12.885301
15.019105
14.749746
11.685134
7.3030844
5.0390996
9.0018966
22.648071
47.645966
80.810989
117.63142
152.8381
180.9425
198.72976
205.09777
200.51409
186.10818
161.00123
128.36388
96.947934
72.650934
45.345898
32.676271
27.667608
33.615853
46.450259
67.944849
98.225013
139.49081
190.62653
257.40128
333.26762
428.70048
530.1293
643.5974
757.81397
855.95398
1042.3883
1149.8387
1347.8116
1536.3438
1690.5427
1670.4853
2209.8254
3.7793684
6.2076134
9.5347187
13.116415
15.82792
16.464614
14.629944
11.099181
8.8574568
11.612477
23.221467
43.919463
72.69679
105.5161
137.72587
164.8557
185.43343
197.51081
202.46762
198.39405
188.45082
185.50062
163.87516
141.4946
125.71648
114.76787
106.65042
104.40836
106.75644
115.62723
131.40116
152.87665
186.45349
225.70224
282.7219
351.81136
423.58281
543.18593
639.59266
766.89029
884.8297
1016.1686
1200.6674
1347.073
1525.2131
1824.276
2343.007
3.0936856
5.244179
8.4151893
12.11374
15.618192
17.711069
18.145328
17.284046
17.910323
22.349347
33.825064
52.33071
76.651846
102.98186
128.01079
148.95728
165.04722
176.31266
184.22708
186.29426
191.62409
194.06547
183.97326
182.61402
191.67762
196.08099
207.63683
228.34358
253.83321
284.17966
319.05441
360.33647
407.14393
464.55115
526.95652
601.47245
689.87032
764.51503
892.47094
1044.0223
1137.9019
1288.2902
1397.7236
1544.7122
1643.3889
1900.5896
2182.1523
1.8986672
3.8044748
7.0810062
11.737192
17.465419
23.297612
27.822532
30.806732
31.364312
32.689197
34.671411
41.626312
52.999622
70.708875
92.443499
118.16792
146.72874
178.44135
210.56309
247.73452
280.27739
320.80092
347.46945
381.17468
412.5694
439.45693
471.48089
500.21071
535.87489
571.04886
607.90055
644.7618
683.88563
720.21423
762.33209
805.09876
842.85159
909.37924
946.94566
996.63736
1069.6368
1158.7497
1271.8221
1373.7734
1524.8491
1812.8839
1673.3913
1.3604297
1.2895741
1.245713
1.2374498
1.2702866
1.3062847
1.3954131
1.9490862
1.7995654
1.7181196
1.7248043
1.7639647
1.8851003
1.9777179
2.2879086
2.087012
1.9867341
1.9498758
2.0195984
2.143266
2.3310891
2.3589418
2.1099997
2.0024862
2.0022998
2.0696951
2.2193854
2.3646375
1.9493732
1.6925319
1.6184457
1.5943386
1.6474592
1.7774489
1.9880041
1.3684185
1.2180328
1.1639315
1.176956
1.2346884
1.3452916
1.4536412
0.48664097
0.40176338
0.38076565
0.38205368
0.39827476
0.44595293
0.48388227
1.0095151
1.0533895
1.1347786
1.2127932
1.2660471
1.3187962
1.2951333
1.8580593
1.5556391
1.288825
1.2236888
1.4076024
1.4987974
1.8532329
2.9971503
2.3892662
2.1875612
2.0802848
2.213402
2.5422892
3.2882676
6.1012739
5.509199
5.0467525
4.850825
4.9214218
5.5750203
6.5531975
10.543687
10.255898
9.8472597
9.778467
10.314167
11.092163
11.753045
18.570037
18.7383
18.254411
18.245348
18.505199
18.935071
19.595743
28.085397
30.088664
29.73183
30.23745
31.489414
31.000457
30.140006
43.164511
45.5424
44.890073
46.154608
45.759876
46.223879
44.724751
56.643585
62.394592
67.009922
64.90067
65.029591
64.755868
60.104127
80.576235
79.887542
76.954563
82.77964
83.128351
82.632768
79.5986
92.164467
94.744275
96.894784
97.142661
99.136591
94.954127
97.762141
106.91945
103.62565
101.63152
102.66257
102.93293
102.11419
114.63952
113.63276
103.23906
101.18157
100.41865
106.24742
100.70578
119.1568
117.58783
100.47398
98.566071
93.917088
98.520791
95.686419
118.25733
117.18233
95.029792
90.633767
86.13149
89.749149
89.09611
110.9193
118.76234
92.678694
89.022619
82.077278
84.849071
86.404874
105.329
125.64763
99.616201
94.808885
87.674081
88.426554
93.495136
107.14966
142.88005
118.18527
113.34615
105.8172
105.49598
112.97029
120.68761
172.23405
151.29855
145.58651
138.63078
136.90445
146.42361
148.84996
215.51758
198.35596
192.71541
186.46571
183.59346
194.58177
191.41476
270.33582
258.81861
253.1494
248.42867
244.89799
256.22022
247.40372
336.30619
330.40475
325.09459
322.03386
316.72711
327.55971
314.76093
409.9816
407.66521
403.13054
402.96796
398.33773
408.95066
393.21329
489.13847
489.20704
486.84627
488.25293
480.92906
488.89515
473.05104
570.65952
570.03243
565.69535
567.03049
566.46258
569.29444
565.68503
646.26527
643.31006
642.86159
645.51961
643.91824
647.69431
659.25566
713.091
717.57966
716.50137
717.22013
730.61649
719.04655
738.98431
783.86345
785.99492
779.15077
789.46466
783.90575
786.00254
812.85342
849.27164
841.65445
842.87018
846.16246
855.02036
853.13769
886.51273
913.03836
903.73991
902.27548
907.7144
916.47536
915.40617
951.42232
977.34984
963.83676
963.20179
965.08167
976.09053
973.27127
1016.0876
1040.4508
1023.925
1022.2978
1022.6384
1035.294
1032.395
1080.0502
1102.1869
1082.2339
1080.6958
1078.3542
1091.9058
1089.8891
1143.0395
1159.7291
1138.1086
1136.5398
1133.7157
1148.0894
1142.7478
1201.7507
1214.3247
1191.0796
1188.4902
1184.4371
1193.7019
1191.246
1256.7053
1258.7171
1235.4739
1235.9253
1227.9011
1239.9965
1241.2175
1296.1561
1288.4462
1264.7987
1273.9939
1265.0564
1284.0999
1286.5191
1346.142
1343.7597
1278.9813
1282.9951
1288.3886
1281.3421
1251.517
1354.0172
1354.1867
1329.1431
1347.5755
1315.6003
1333.7716
1312.6573
1407.3648
1400.0053
1344.7572
1357.411
1337.3359
1339.9037
1313.1982
1403.2112
1403.0049
1352.0768
1382.44
1339.8357
1367.8636
1320.5527
1410.1818
1463.2953
1396.2594
1407.2472
1400.8317
1387.8057
1349.1693
1435.1237
1446.513
1364.7673
1425.0153
1377.5144
1391.2824
1356.1798
1434.2243
1526.9441
1470.4442
1488.6403
1464.6711
1468.6232
1421.0531
1479.2427
1624.6937
1544.8648
1600.7524
1548.0326
1579.1784
1520.2771
1586.7997
1728.027
1666.0858
1702.4724
1669.9659
1688.292
1642.0526
1714.4506
1791.4654
1714.9615
1749.6098
1709.8854
1731.4919
1679.4843
1726.5453
-38034.932
-42086.479
-42184.9
-42144.568
-42147.821
-42203.626
-41994.468
-42099.778
-41763.259
-41859.087
-41878.429
-41869.344
-45207.327
-41968.512
-44804.273
-41517.222
-41482.038
-41461.956
-41544.973
-37331.689
-41440.583
-41239.403
-41013.216
-41076.605
-41140.45
-41091.647
-41029.29
-41200.378
-41114.151
-37161.978
-41194.065
-41169.605
-41137.644
-41174.576
-41113.722
-37258.007
-44306.816
-41124.28
-41085.428
-44508.088
-41031.36
-41115.2
-44204.531
-41065.417
-41013.853
-41086.437
-37096.446
-41088.585
-41052.123
0.9290502
1.1257996
1.031544
0.92878687
1.0202551
1.0503244
0.76939412
1.0645802
0.75133282
0.61019856
0.69895231
0.66856939
0.91057015
1.0968106
2.64767
1.9575741
1.832906
1.713822
2.0277001
2.3302041
2.7816358
5.0208347
4.3169285
4.0733874
4.1001413
4.250951
5.1311674
5.1788881
8.9014924
8.7797359
8.5704387
8.7465186
9.0966563
9.7934062
10.902399
15.208619
15.203342
15.573161
15.544757
16.040277
16.581846
16.917724
23.489187
25.336649
25.524464
25.772281
25.660772
26.778909
25.335534
33.905325
36.644501
37.768394
38.294365
39.121504
38.545092
36.906994
47.536036
50.345276
51.447596
51.279801
51.654784
50.05766
48.16405
58.475768
62.088934
63.408525
62.545981
63.460323
60.281474
61.090355
69.55952
72.34233
72.390091
71.325982
72.765164
67.418127
71.586819
78.964355
78.380552
75.898663
76.972152
76.434308
75.5637
79.247006
87.180669
78.647456
77.297835
73.167737
80.988767
72.292378
82.786857
90.312672
81.496342
75.211349
76.193748
76.635371
80.28454
89.832497
94.748569
76.41662
77.14922
77.635742
83.085528
77.478765
91.511576
100.53622
94.159759
86.960977
84.049684
87.842843
101.96682
88.909283
120.90893
111.43359
101.43924
108.15376
99.347655
119.84687
110.75379
147.19775
138.32126
128.68371
134.77451
125.04541
151.03275
131.55145
182.41853
176.58712
165.19658
175.43577
160.73639
190.16237
167.12569
228.25408
225.35257
213.64986
225.64205
207.22175
240.04027
212.6861
283.46557
284.23205
271.62442
285.78294
264.75561
297.35419
267.92816
347.96141
349.84113
336.99217
351.84927
329.02303
362.1204
331.85072
416.16404
420.81424
408.64819
422.93203
400.50567
429.25133
400.43709
491.37602
493.06259
481.70446
494.72196
472.70792
499.32585
475.88704
561.74262
562.89255
555.42902
563.81249
545.04066
564.5954
544.26463
632.06056
633.98681
623.01647
629.96505
613.9499
627.83443
616.87329
697.35401
695.67447
686.86533
691.28377
676.06171
686.45001
680.1396
759.41313
755.98339
747.12357
747.15975
738.62615
741.43048
742.45356
818.72756
810.25422
803.31404
800.04204
793.76349
791.78109
797.44808
875.92596
866.02253
858.86883
852.46418
849.92684
843.13233
852.08836
932.03773
918.19668
914.25326
902.91436
904.1281
891.93034
903.34394
987.21496
972.36077
968.57381
953.95182
957.79626
942.92148
955.60283
1040.6406
1023.3698
1023.0048
1005.7171
1010.9368
992.29299
1005.9917
1094.2539
1074.5597
1075.0639
1053.7005
1061.3337
1042.148
1046.0249
1144.1403
1118.3841
1121.8048
1098.3204
1102.6849
1073.7745
1100.4075
1178.2331
1161.6341
1165.8694
1138.9956
1150.0574
1145.0688
1158.8713
1222.9967
1208.1042
1195.7463
1181.0853
1198.7966
1139.9729
1171.4799
1250.0516
1216.4018
1223.7297
1196.0749
1209.6188
1180.3561
1200.337
1294.7087
1271.6178
1279.1224
1247.6817
1257.4092
1215.0507
1242.8806
1322.7777
1287.3149
1285.0896
1273.3214
1278.1791
1243.4269
1269.3043
1365.6327
1314.5857
1343.9567
1313.3979
1322.0462
1282.9822
1306.3785
1387.4812
1392.1437
1369.6134
1364.5133
1363.8063
1327.6068
1353.3856
1491.5709
1398.892
1425.1511
1436.2878
1436.8834
1418.7426
1418.5162
1454.2775
1448.5774
1461.8355
1461.8233
1439.5916
1418.7533
1429.5389
1676.4594
1602.4934
1653.9688
1623.1845
1625.312
1640.6075
1614.3889
1383.8212
1426.9017
1430.4588
1393.6868
1427.7848
1366.9779
1386.9567
1562.8974
1405.3177
1450.0901
1464.9287
1424.0463
1446.5111
1412.8747
1.9955963
2.4900889
4.8786501
9.4726944
14.914652
21.4538
28.385401
33.709832
36.357241
40.006108
42.812087
49.214258
57.850842
71.657456
89.217101
120.67684
149.45133
179.79538
218.28236
258.69918
303.50365
349.9303
397.45541
443.63712
487.24222
532.2407
571.86705
618.23193
659.36724
706.96993
753.37123
801.87458
848.78575
899.05942
942.13357
988.34373
1042.4161
1093.2461
1124.3683
1166.7165
1215.7926
1281.8225
1328.8077
1460.5969
1606.4089
1777.5337
2144.2762
2.4089735
4.4239809
7.0453974
10.934631
15.040107
17.626968
17.562903
15.352491
12.337033
13.239552
22.180646
41.623819
71.158318
104.66625
137.36459
163.8177
180.28844
190.02751
195.46473
195.23065
192.42143
187.93958
183.21101
180.51612
180.74433
199.72076
216.69151
224.08231
254.7611
284.39255
320.64959
360.58579
408.85862
460.33319
526.58919
596.07842
680.61039
775.90249
880.38966
987.0794
1118.7211
1216.9718
1398.7248
1464.132
1765.7606
1506.2439
2770.7852
2.9761293
5.0149779
8.0682048
12.266559
15.685973
16.722135
15.877747
11.422204
7.801029
8.5162563
18.3639
39.500627
67.334869
102.87428
134.13688
160.04973
179.36536
191.20182
193.64606
190.21238
180.32325
165.81824
149.78226
133.44757
122.84597
117.43005
122.09025
124.34756
140.7739
157.28939
181.11326
212.71421
251.32273
300.9785
361.64767
434.39271
518.29112
613.21756
709.98478
835.80788
930.90956
1105.3203
1195.3598
1406.4425
1546.9107
1776.0023
2267.1909
3.173896
5.4042708
8.9991909
13.171545
16.815325
19.284452
16.529255
12.048559
6.8939217
7.7371877
19.419031
43.835391
80.11471
118.10117
158.43542
193.05854
216.90399
227.64661
225.76619
213.07913
189.69221
159.65483
126.87183
97.947687
73.382592
55.476693
40.562204
37.319757
43.395725
55.180277
76.768092
108.15795
150.19981
204.44554
275.05215
359.39333
458.40403
571.57729
707.32948
832.61958
1015.0938
1129.9168
1351.2108
1463.1425
1794.0964
1640.94
2328.8264
3.1214004
5.3741537
8.8472197
13.49233
17.065003
18.9161
16.049587
11.357013
6.4867425
6.5130919
15.756044
37.635831
69.08577
106.73259
146.19413
175.5985
196.054
205.96141
205.73104
196.06795
178.53078
154.61801
129.78296
100.31609
72.02885
58.539236
54.581916
55.946018
65.426267
76.870395
96.66074
123.22706
159.33645
208.7675
271.87232
345.96921
437.3949
540.69298
640.88237
789.22565
883.75558
1058.0051
1188.0969
1379.2599
1478.435
1734.6796
2286.9997
2.7040628
4.8500177
8.2343863
12.750677
17.308815
20.047206
20.208834
17.310698
14.562128
19.225359
31.171173
50.505839
77.716751
106.18115
130.84848
151.16197
165.66514
175.31487
180.60325
182.28346
180.37392
175.97317
172.57993
169.88364
163.90201
175.4273
177.91535
196.4198
218.1947
246.26065
280.47459
321.47496
371.97579
431.46283
502.64866
582.51125
676.15444
769.26236
902.96437
989.74459
1142.3713
1260.1783
1420.0611
1542.8594
1752.6304
2066.0093
2004.9984
1.2665976
3.1028558
6.2731198
11.714513
18.422884
25.808108
31.79837
33.48642
34.083564
30.941658
26.370823
30.014878
42.101775
62.49601
89.954273
120.48843
153.8764
189.20312
227.1166
266.6325
305.54973
342.55516
375.71164
405.16121
437.14068
419.365
437.85399
461.67212
488.28878
515.43371
544.15082
572.73932
602.70472
632.70985
671.10188
693.03499
772.99175
810.0619
842.03959
932.61748
986.54624
1080.8884
1176.5261
1305.9191
1442.6974
1630.7373
1324.634
1.7781897
1.8064443
1.6906576
1.6642059
1.715775
1.8006256
1.9158586
2.2027614
1.756655
1.5632463
1.504712
1.587592
1.8096994
2.1899011
3.9930782
3.1716283
2.8229692
2.7776082
2.9780784
3.5281043
4.116675
6.8815799
5.8582843
5.2934667
5.1514353
5.4613103
6.2837892
7.3875089
10.881104
9.7307291
8.8751363
8.7407764
9.1401146
10.207441
11.274671
15.414175
14.992323
14.186537
14.301497
14.592475
15.769036
16.804384
20.705069
21.231564
20.305102
20.281944
20.641681
22.029592
22.809484
25.235241
27.594183
27.340227
27.648936
27.660376
28.47275
27.999648
30.401163
34.369426
34.166655
35.132212
34.915206
34.851677
33.833435
35.487818
40.282703
40.540569
41.678447
41.086746
40.922517
39.495256
42.220926
45.88709
46.613162
47.375632
47.498294
46.297441
45.441165
50.579638
51.710057
52.324143
52.420086
53.178833
51.956755
53.565812
62.873994
59.455751
58.23111
58.794797
58.79864
58.339592
62.3398
74.890024
67.056548
66.396896
66.138407
66.870233
68.684828
76.465159
92.262136
82.613911
78.361818
76.31794
77.381856
84.779809
85.374092
111.11795
96.984404
94.057429
93.902602
93.451216
99.834758
104.62219
130.3734
116.24212
114.03539
112.4821
114.71539
124.27775
129.61378
155.48788
142.99553
140.052
138.55122
142.26576
153.43691
154.09538
185.29239
175.357
171.83591
170.5035
174.04226
186.01022
185.19237
218.72334
213.63692
209.28262
208.13472
211.26595
223.83301
219.96658
256.44516
255.99254
250.29714
249.59729
252.07039
264.78392
258.22182
296.38457
301.79511
294.93488
295.1984
295.98915
307.76094
299.32835
338.58847
349.21347
341.0124
342.3895
341.19858
352.86196
342.72507
380.6116
396.50223
387.09301
389.232
388.18895
397.92211
387.09431
423.28466
441.53756
433.29862
435.3903
434.33184
441.53926
430.20325
466.62873
486.25833
478.17222
480.10599
480.49325
485.50184
475.20854
509.98458
528.70259
518.5312
525.10017
521.38426
530.49773
516.17949
551.77
569.92551
561.3371
565.33065
566.2134
567.15685
561.30492
594.58906
607.9017
603.27248
608.40629
606.34273
609.4703
600.37446
637.78122
649.34711
647.20967
649.70415
650.79973
649.86424
646.35912
682.23333
689.38266
691.37996
692.38897
694.26155
692.19241
689.64914
727.62973
732.55838
737.79981
736.5161
740.68651
735.36221
737.27629
775.95035
776.28562
785.54282
780.89655
786.41639
780.38368
782.42207
825.65873
820.66784
834.46838
825.23167
835.12966
824.06048
834.51309
875.9634
869.2051
887.22435
872.11953
884.18538
873.88185
883.03584
936.1979
917.08396
930.05042
918.06537
930.8729
915.60718
923.1074
993.58527
940.42264
1008.7455
959.68093
994.54648
957.34125
1006.719
1037.7694
1023.5383
1020.0078
1041.9869
1013.763
1034.3873
1027.1263
1096.4044
1079.5613
1106.5566
1080.648
1094.1549
1074.7008
1102.7688
1169.2557
1145.2874
1154.5209
1144.5505
1144.2163
1137.4787
1151.5153
1207.4777
1174.2456
1206.5575
1184.5722
1210.1376
1195.9623
1220.4672
1314.3053
1318.1482
1308.575
1319.4178
1301.8377
1290.7333
1293.6385
1415.9035
1323.8477
1365.4319
1355.523
1363.5585
1351.8393
1366.2481
1420.5553
1483.0511
1489.3076
1519.1481
1445.8706
1451.3342
1459.8161
1727.5962
1704.6482
1709.4702
1691.2841
1683.6059
1741.471
1672.8569
1745.493
1882.9237
1801.6544
1877.5184
1864.9782
1815.7464
1837.4288
2148.3225
1904.9497
2037.5878
2033.4439
2007.599
2013.6256
2081.2307
2.4840128
2.1684323
2.0396349
2.0107911
2.0571397
2.2402335
2.4311033
3.8986333
3.3369046
3.0579585
3.0191067
3.1421845
3.578051
3.9530383
5.9164745
4.853915
4.3611538
4.2350097
4.5021834
5.2248455
6.1470656
8.4782701
6.9250608
6.1760563
6.0204999
6.366469
7.5621623
9.0314145
10.833176
9.0369051
8.1962398
8.0017792
8.4570525
10.01335
11.974704
12.353943
10.54432
9.7382281
9.4576731
10.081832
11.72569
13.859798
12.070319
10.93178
10.699957
10.64413
11.198776
12.42453
14.054559
11.12057
11.504934
11.609111
11.519542
11.881402
12.497347
13.12318
10.719402
12.574616
13.269819
13.542279
13.700883
13.332714
12.720428
14.335209
17.492594
18.129141
18.377628
18.066189
16.953221
15.257552
24.294092
27.212327
27.2821
27.502133
27.21064
25.979487
23.779699
41.83944
43.411468
41.718873
41.691197
41.150203
41.813212
39.352426
65.623537
62.976531
60.155764
59.284425
59.691471
63.616204
60.284216
92.119551
84.444936
80.457573
78.189244
80.087575
87.001147
84.824792
118.34658
104.92939
98.541806
98.436649
99.049189
110.10653
109.37624
138.38286
121.85249
115.86359
114.1328
115.91541
130.55645
130.70547
154.29139
136.06482
129.42671
127.38932
127.87462
146.63155
146.74624
164.32256
145.21941
138.0497
136.86
136.85583
157.10934
158.33292
169.47479
151.59051
144.13731
143.88245
141.99043
163.72108
164.41184
171.4371
154.40097
147.47378
148.37881
145.38082
167.13725
167.55912
171.52083
155.63463
149.84742
151.8489
147.70429
168.24228
168.1337
171.09372
157.32296
151.93335
155.06528
149.86252
168.98422
167.80816
171.49583
158.68247
154.42139
158.64464
152.79152
170.83306
168.47737
175.04575
163.10168
160.24499
164.93821
158.95284
175.08906
171.05293
182.04438
171.35818
170.0573
175.53187
167.32876
179.59126
175.25528
194.77116
185.12081
186.81657
184.65461
185.87521
188.88675
188.08661
212.94826
198.29781
197.92424
207.37787
198.57177
203.42814
199.19706
226.45703
230.91785
226.76508
228.66735
222.0285
222.52637
219.48359
258.51307
253.52547
253.1452
252.82213
249.35651
246.51861
243.95811
287.90251
284.26014
280.03651
282.42735
278.05533
274.82528
271.99578
321.12241
320.25656
315.29123
315.19797
312.62848
307.88508
304.76553
359.39156
361.65736
353.65445
353.89923
351.16545
346.31372
342.2525
403.84945
409.03213
399.2671
399.06991
397.14213
391.7825
387.70738
458.015
467.02587
452.89093
452.65667
450.26484
444.47725
439.66183
519.33902
529.97816
511.84101
513.03806
510.47399
506.8062
502.12095
592.4287
604.40788
585.36806
588.97093
583.81576
583.36192
575.62663
673.67873
698.53487
662.49111
667.64181
656.69692
665.8819
642.48443
768.64722
769.00322
745.32823
752.79439
751.36859
760.20629
741.01788
887.85609
892.58056
866.2834
864.99435
855.72191
862.89037
840.64541
971.66686
947.25985
932.52197
943.16907
937.02219
966.4529
940.23698
1121.9093
1119.6627
1111.0398
1114.7089
1108.515
1111.876
1070.6564
1218.5408
1186.7983
1160.7387
1177.0529
1139.2759
1180.9842
1159.9356
1367.5101
1370.296
1384.4511
1393.0124
1393.7337
1424.9322
1361.5142
1452.5918
1406.4988
1406.6674
1414.2773
1359.8185
1410.5339
1387.0417
1768.9462
1731.1871
1745.8289
1726.7072
1736.8825
1868.1279
1802.2166
1688.2926
1423.1666
1564.8617
1518.7654
1498.5304
1547.7645
1363.7434
2403.083
2562.7118
2524.3858
2469.55
2494.9573
2548.6163
2507.001
2.9991598
2.6642843
2.5028532
2.4415235
2.5178436
2.6652168
2.9399334
4.8075784
4.1339379
3.8079002
3.6913053
3.8251247
4.1731755
4.7680697
7.2986219
6.1238644
5.5449581
5.3743895
5.6072781
6.2898432
7.4086973
10.105753
8.4175912
7.5631901
7.3476865
7.7490508
8.8403533
10.562102
12.135468
10.17018
8.9780338
8.5666263
9.1875109
10.468092
12.922753
12.390908
10.709562
9.2616707
9.0740972
9.5743387
10.773357
13.602414
10.591459
9.4002701
8.083943
7.8973004
8.3421337
9.5089089
12.102212
7.0728207
6.7445336
5.9373574
5.9752008
6.2834901
6.8600586
8.693413
4.7383793
5.3548595
5.1171829
5.1688763
5.3433044
5.469953
5.9677535
7.1003077
8.0938267
8.0841851
8.0941142
7.9583455
7.9909761
7.7718687
17.656381
17.574201
17.100677
16.967488
16.752269
17.279561
17.823278
37.482785
34.75428
33.191598
32.437155
32.603349
34.03239
36.897843
66.087506
58.201575
55.730761
53.340555
55.77887
56.85912
65.338544
98.277663
84.084661
79.434156
77.293253
80.696391
83.914795
95.999751
128.09687
108.72055
104.9567
99.291894
104.28875
109.71666
125.73246
154.36424
130.81933
125.06694
118.35648
124.00814
131.49777
150.03966
171.98755
145.74605
139.16128
132.04932
138.70784
146.3919
166.60347
180.83949
153.92722
146.88587
138.63035
146.36055
155.36714
175.1224
180.75261
155.81896
148.74642
140.07966
147.96966
157.68309
174.51752
172.72835
151.72862
144.38363
136.04128
143.52471
153.93753
166.57921
158.19919
143.53901
136.06545
128.12311
134.71108
145.31035
152.89263
139.87071
131.84966
124.14151
117.54695
121.73811
132.67318
134.70111
119.40373
119.23059
112.19871
106.82611
109.44867
119.23453
115.55351
99.833493
108.59245
101.64099
98.660103
98.529687
106.61171
96.015151
87.435043
101.0441
94.939519
91.53443
91.78629
98.457611
85.318741
78.937308
96.737486
87.975258
92.102321
86.028393
97.505708
78.421939
77.642893
99.577432
92.993489
93.567342
90.543963
99.463586
79.763556
84.506476
105.4991
100.05047
101.50801
99.335122
104.68218
87.788598
99.000096
117.7499
113.49646
113.65305
113.87886
116.31067
105.35048
119.2769
133.81309
129.88769
132.70908
133.65124
133.37398
126.95059
146.96983
156.94966
155.53709
156.52826
159.12302
155.99493
155.12285
182.10019
186.29102
186.93059
187.85084
193.17058
186.33826
192.26597
228.78213
224.81974
228.69488
227.79108
235.13747
224.17949
238.11682
284.93101
271.85472
278.94754
277.39949
286.42792
274.54055
295.92635
356.62197
332.13261
345.92167
339.99063
353.54244
335.71548
362.68315
439.42125
405.82936
419.94636
411.1353
426.54502
405.86831
442.6101
536.74308
484.28912
509.25767
497.41276
521.12506
491.17878
538.70322
642.01635
578.25154
616.38679
593.98966
622.5642
585.35727
637.78975
746.17639
696.08957
711.1733
706.8349
721.22877
686.23062
751.8452
889.25377
797.32978
858.35245
828.95122
864.83632
822.75313
876.90918
990.72675
934.58647
954.18166
926.83217
956.19368
901.92958
992.52835
1160.6691
1082.0996
1134.5637
1112.5821
1133.674
1106.8879
1159.175
1265.995
1195.7219
1208.7301
1183.4551
1223.905
1182.3068
1270.4024
1472.3822
1415.8867
1453.0616
1446.3098
1426.6173
1408.501
1458.8979
1692.7509
1638.9331
1631.5525
1606.9777
1623.1919
1636.9231
1618.1027
1790.3086
1812.7212
1866.7619
1834.9104
1906.9813
1836.8019
1791.7517
2215.8184
2183.4025
2117.3983
2095.0039
2189.6969
2029.7144
2147.9154
3.2127521
2.8241704
2.6120876
2.5496922
2.617746
2.8239702
3.0544571
5.1246243
4.4306623
4.0554861
3.9491204
4.0530098
4.5396047
4.98782
7.8285115
6.6303617
6.0133913
5.8149791
6.0727786
6.9361157
7.9010254
10.749376
8.9600124
8.0170922
7.7045239
8.0245388
9.320437
10.793597
12.861566
10.600125
9.3182956
8.8726525
9.2447648
10.934422
13.021738
13.018965
10.355235
9.0186723
8.8924128
9.7413862
12.200909
14.699758
10.246102
7.9290623
7.2449459
7.1690285
7.7121341
9.6496689
11.425652
6.6312791
5.5319467
4.9671947
5.0059725
5.2263997
6.5248094
7.0567578
4.1087625
4.237358
4.1168341
4.3654715
4.2663889
4.6851223
4.0148396
6.6557923
7.9743202
7.9030407
8.2690273
7.9669939
7.6608001
6.5665342
17.55917
19.142009
18.64502
18.992032
19.096081
18.63889
18.32215
38.464718
38.872245
37.302657
37.027895
38.587826
39.136272
40.782743
67.024889
64.973255
61.528561
61.105948
63.684675
66.193675
70.181356
100.51433
94.053471
88.068403
86.837921
88.724317
96.891401
99.48192
133.18449
121.76037
113.00184
111.79994
113.7847
125.99014
129.7931
158.77703
141.75929
132.22798
131.3055
132.90974
150.182
153.17743
175.20856
154.57282
144.97683
142.81326
144.25605
166.24783
167.30416
181.16072
158.22331
149.1282
147.08924
147.33749
172.74703
172.04904
177.1564
152.35245
145.32577
142.71093
142.46086
169.68168
166.28609
163.80149
139.82293
133.52755
131.30018
130.30151
157.74585
152.12123
144.48337
119.39084
116.12262
113.28871
112.22134
138.73037
130.83004
118.32455
97.071994
95.337416
92.58944
91.52352
115.1789
105.57318
89.956246
73.796999
72.886899
69.564416
68.751268
90.881586
79.275113
68.873352
53.504099
51.65276
48.893804
47.395215
68.019902
59.053154
45.331305
34.28191
35.17554
32.534982
29.071728
48.542582
37.871078
29.76504
25.622739
28.774397
21.67777
23.745355
33.206738
25.928264
24.784271
21.16901
23.387509
19.078506
20.680268
26.397242
18.121061
26.673362
24.86352
27.392017
23.806724
22.706521
28.588527
19.426229
36.880245
33.770225
37.911578
35.865778
32.561222
38.635289
26.998345
54.6213
50.482925
54.44267
53.440484
48.67636
56.005675
42.085126
80.647282
75.026501
80.182086
79.07574
72.297986
81.707257
65.355194
117.12187
108.03797
114.29734
113.31753
104.70653
117.3023
98.871808
162.61842
151.35472
158.87168
158.96925
148.05454
164.86622
142.82753
223.69243
208.80704
218.11328
216.46532
203.8668
223.50795
198.81142
294.93653
275.96604
286.74104
285.24015
270.41267
297.18902
268.42912
382.13151
361.63931
371.69229
370.41666
355.7001
381.7841
354.8259
482.17135
456.35557
466.39526
471.12866
443.39886
485.97772
447.89929
586.02113
563.49677
577.27165
567.43497
552.50479
592.04903
558.22042
714.26484
704.20253
701.65834
713.74116
679.0657
732.68712
684.96644
814.70049
795.15591
807.35619
798.26781
772.08538
838.24302
795.5345
977.22663
1000.6928
987.2417
1007.2892
968.59432
1032.7159
971.98183
1126.4916
1078.6315
1087.2087
1087.9137
1051.5213
1135.8383
1076.0621
1276.9097
1286.2313
1294.3542
1311.1668
1283.0562
1364.51
1290.2638
1508.2826