/*--------------------------------*- C++ -*----------------------------------*\
  =========                 |
  \\      /  F ield         | OpenFOAM: The Open Source CFD Toolbox
   \\    /   O peration     | Website:  https://openfoam.org
    \\  /    A nd           | Version:  6
     \\/     M anipulation  |
\*---------------------------------------------------------------------------*/
FoamFile
{
    version     2.0;
    format      ascii;
    class       pointScalarField;
    location    "1.56";
    object      p;
}
// * * * * * * * * * * * * * * * * * * * * * * * * * * * * * * * * * * * * * //

dimensions      [1 -1 -2 0 0 0 0];

internalField   nonuniform List<scalar> 
28033
(
-49743.926
104106.4
5290.7453
1284.4866
-68293.977
152687.75
2635.7071
-214.46871
-16812.97
-8580.6097
3134.3763
4709.2195
6533.1598
7506.5673
5308.5899
4074.3586
4396.6225
1958.0772
3650.5007
6620.2495
2088.8296
19931.121
9592.5321
-15236.679
-8799.9524
-9415.495
-5938.3032
-5407.308
-3332.5547
-1470.8998
695.61182
2610.9638
4815.4955
7106.4586
8327.2142
10168.514
11201.731
10058.827
-8950.5325
-3747.8401
1774.012
5789.0538
7144.7967
12251.142
15006.88
18863.669
22186.956
26561.955
29120.955
33084.419
36738.585
40569.15
43354.446
46878.595
50509.065
53350.471
56561.254
59423.534
62289.933
64561.316
67695.904
69461.002
71742.166
73726.487
75569.479
76891.902
78413.575
79432.784
80487.853
81258.85
82034.291
82421.743
82763.939
82756.039
83226.705
83326.683
82602.14
82780.646
81970.949
81286.851
80708.709
80192.628
79298.483
78767.261
77879.783
77274.068
76426.189
75862.392
75085.977
74563.432
73943.101
73461.791
72999.55
72583.246
72255.267
71913.393
71615.847
71379.522
71099.352
70818.416
70437.399
70262.361
69871.708
69227.397
69083.364
68383.122
67395.371
66433.4
65354.424
64198.907
62665.827
61249.97
59290.416
57737.426
55276.902
53552.942
50856.544
48813.116
45972.958
43790.976
40786.556
37863.704
35184.902
32174.67
29611.887
27078.738
23268.858
21318.331
18986.479
14503.358
15369.168
14016.254
11248.405
17024.64
6818.3401
2965.9841
-2186.4699
-5188.7453
-7000.2433
-12031.114
-13681.097
-18095.453
-20099.214
-24622.599
-26720.541
-30724.472
-33620.73
-37166.391
-39794.428
-43213.587
-45964.371
-48691.195
-51828.099
-54133.281
-57015.352
-59082.079
-61956.054
-63419.898
-65991.79
-67465.647
-69269.046
-70754.14
-72127.34
-73089.092
-74378.694
-74842.365
-75763.877
-76178.573
-76763.825
-76535.035
-76794.335
-76472.841
-76238.041
-75838.817
-75208.205
-74608.5
-73813.289
-72992.411
-72103.931
-71171.675
-70202.373
-69237.632
-68273.211
-67315.899
-66402.181
-65510.111
-64702.161
-63896.784
-63199.766
-62531.192
-61926.648
-61371.55
-60877.113
-60387.309
-59945.403
-59505.36
-59045.679
-58557.753
-58026.739
-57594.662
-56976.686
-56519.911
-55325.854
-54741.13
-53573.018
-52700.504
-51415.565
-50257.877
-48808.762
-47343.076
-45801.892
-44057.27
-42264.242
-40371.54
-38345.387
-36167.757
-34051.139
-31642.308
-29255.34
-26781.148
-24299.635
-21494.804
-19110.918
-16583.669
-13813.311
-11597.264
-10615.366
-7838.5026
-26439.41
-11402.302
12615.104
14928.776
20332.077
18776.034
20806.957
15274.973
16454.861
13134.086
16224.45
19102.607
27073.867
43803.104
49320.306
33101.042
13809.297
-276.58502
835.09533
-4581.1031
-8764.8513
-12250.069
-14848.951
-20849.409
-22430.277
-27875.953
-28107.66
-35354.554
-35024.7
-43090.934
-44337.727
-49864.076
-49756.382
-55368.248
-55751.022
-59840.453
-60608.107
-65598.85
-67404.758
-68459.145
-72181.605
-71840.121
-75666.245
-75186.933
-77844.187
-77904.291
-79597.609
-79556.569
-80624.52
-81327.745
-79488.802
-80934.665
-80865.567
-80587.165
-80327.266
-79894.205
-79403.756
-78888.925
-78257.772
-77613.982
-77010.332
-76260.654
-75628.625
-74918.162
-74286.083
-73656.555
-73088.179
-72530.408
-72064.742
-71617.545
-71188.566
-70870.555
-70518.139
-70207.592
-69933.228
-69616.777
-69317.012
-68939.785
-68551.392
-68049.853
-67506.378
-66945.32
-66321.196
-63747.042
-64020.906
-63032.292
-61513.309
-60078.802
-58423.232
-56636.734
-54738.119
-52688.159
-50618.728
-48337.01
-45980.96
-43547.986
-41049.574
-38374.672
-35806.321
-33044.412
-30307.612
-27484.169
-24763.939
-21852.587
-19187.813
-16505.592
-13905.261
-12392.437
-10364.276
-9754.2869
12803.187
13473.71
9667.3996
10558.618
6006.3521
6085.6231
2089.2397
739.99902
-2051.8453
-4542.6022
-4529.6113
-7919.7732
-7883.5719
-12657.593
-10893.09
20258.578
15775.705
15559.044
17944.102
19635.871
22577.767
25160.093
28001.675
30652.453
33445.679
36063.595
38572.781
41013.92
43407.919
45784.479
47912.191
50147.036
52095.512
53987.319
55783.227
57384.264
58976.122
60335.587
61575.22
62572.086
63162.784
63123.184
66562.292
65209.435
66374.616
66892.687
67374.398
67635.117
68066.868
68400.363
68746.755
69173.736
69578.802
70088.779
70647.012
71270.255
71955.497
72752.947
73554.981
74468.287
75387.606
76370.222
77347.001
78326.121
79298.245
80210.852
81038.857
81845.169
82720.998
83100.398
83509.4
83780.834
83016.441
84748.224
83850.194
82462.553
83984.641
82063.491
81581.149
78805.323
80161.515
76123.731
77024.634
73764.629
72761.053
70205.729
66691.92
66458.32
63270.595
59621.42
58196.135
54119.712
51853.002
48371.944
46294.419
43578.035
37597.885
34940.289
31965.977
30835.236
26044.143
22491.437
17881.875
15611.176
12671.995
8440.5857
5405.3966
1709.6243
-2649.9202
-11080.966
-57299.236
-62762.608
-66176.097
-67730.783
-68759.775
-68635.823
-68525.837
-68533.418
-68436.646
-67624.332
-67480.108
-65573.618
-65701.132
-58450.384
-57983.529
113939.13
153853.53
147357.91
157909.89
147748.33
141826.66
159158.59
166269.28
158286.46
157952.09
156352.58
154562.43
150451.39
148507.89
125238.53
741.02441
722.20096
1458.0426
1767.7449
2901.6122
3537.6776
3775.9964
3851.347
3984.3484
3591.3708
3341.636
2460.9812
2113.0421
1547.5065
1683.2661
-1993.9634
1021.5151
192.47978
-292.34127
-1118.3478
-1179.5273
-1690.6289
-1597.9568
-1413.0809
-1233.9682
-368.00269
220.81655
470.26946
3858.1752
-1329.0233
-4784.73
17.502354
1991.3059
4311.226
7928.7757
11619.863
13834.53
17445.728
20075.894
23023.428
26319.734
29776.573
32403.021
35481.033
38597.632
42153.229
44444.487
47584.922
50529.278
52917.84
55753.556
58359.114
60375.92
62592.617
64658.855
66455.67
68078.232
69680.765
71033.511
72226.527
73284.504
73837.948
74770.227
74980.517
75390.867
75784.973
75766.016
75429.23
75587.622
75384.796
75222.135
74870.684
74407.285
73842.572
73228.456
72772.349
72041.847
71586.253
70911.834
70415.263
69823.252
69364.236
68845.105
68430.257
68001.769
67634.883
67268.571
66915.506
66598.89
66252.841
65878.59
65446.937
65067.351
64618.695
63727.712
63258.954
62318.221
61471.216
60412.827
59470.866
58140.68
56987.939
55345.938
54055.529
52088.486
50577.171
48371.181
46785.505
44238.75
42578.167
40082.319
37977.942
35687.204
33583.271
30987.843
28570.159
26369.677
23498.469
21418.137
19538.442
16114.21
14496.137
12614.168
6776.3778
1969.714
-1094.1712
1542.4925
2225.1431
4594.5383
6717.1363
9148.0167
11054.357
13745.642
16157.141
19279.181
21236.435
24187.139
26666.349
29772.486
31965.701
34691.463
36969.833
39863.181
41855.14
44351.65
46582.894
48378.388
50512.045
52427.937
54262.196
55649.653
57360.535
58565.924
59798.427
60743.126
61682.948
62376.551
62980.883
63404.369
63910.752
63863.201
63902.24
63877.56
63696.978
63408.124
63072.246
62940.511
62062.747
61735.143
61139.355
60701.998
60094.596
59682.567
59092.854
58685.38
58180.87
57810.489
57378.685
57055.247
56726.051
56424.797
56151.91
55901.126
55636.646
55382.619
55076.143
54799.896
54516.708
54046.296
53672.666
53730.268
53680.458
53301.849
52837.747
51814.834
50759.426
49752.529
48255.201
47129.052
45150.971
44057.337
41817.727
40603.851
38147.167
36973.277
34463.09
32715.745
30715.059
27873.269
25624.803
23642.352
21019.337
19327.044
17270.256
14635.91
12517.75
10623.872
6634.1854
3226.18
-3369.7219
152.1877
2641.6137
3226.0489
4678.8131
6456.1081
8439.559
9665.242
12207.497
14250.43
15881.698
18193.057
20537.69
22590.861
24511.601
26877.359
28994.979
31124.434
33070.572
35183.142
37192.608
39124.286
40858.897
42824.794
44281.234
45798.9
47195.891
48498.289
49506.401
50667.554
51391.721
52256.889
52758.4
53341.399
53629.634
53892.588
54076.01
54334.505
54326.336
54361.05
54161.828
53795.518
53459.014
53367.618
53042.44
52738.44
52328.212
51944.782
51556.945
51163.436
50796.978
50426.397
50110.664
49753.549
49492.427
49183.316
48912.268
48662.945
48392.361
48117.968
47831.764
47520.343
47182.666
46762.714
46231.013
45887.188
45477.678
45062.772
44381.224
43947.09
43271.173
42271.086
41213.311
39897.449
38750.476
37453.973
36045.272
34670.076
33074.385
31710.251
29959.097
28383.773
26945.932
24789.227
23376.423
21937.528
19980.605
18005.695
16484.498
14446.548
12573.791
10894.369
7655.7391
5683.4572
613.78126
-1809.2836
1494.6697
3552.905
3005.2875
4126.2392
5567.6109
6534.4659
7764.8435
10002.955
10931.553
12974.739
14598.202
16509.394
17788.3
20112.11
21380.513
23578.622
24830.953
26967.742
28310.634
30077.824
31296.504
32958.7
34190.221
35393.301
36729.257
37725.953
38791.345
39684.999
40475.332
41102.146
41788.236
42133.703
42562.303
42735.306
43142.875
42876.681
43067.345
42570.698
42454.691
42149.101
42236.03
41977.573
41583.052
41169.673
40852.484
40553.293
40222.246
39963.615
39672.983
39431.439
39171.437
38981.697
38748.157
38600.038
38398.842
38267.357
38106.193
37960.321
37795.097
37650.077
37458.574
37236.807
36989.576
36748.812
36404.556
36034.279
35766.407
34831.178
34190.211
33728.261
33086.905
32099.613
31345.578
30301.767
29194.818
28106.872
26871.918
25833.441
24416.882
23321.975
21980.791
20764.923
19291.749
17983.749
16521.021
15699.298
14168.97
12745.652
11248.118
9809.3702
7598.553
5978.2497
3232.5518
491.06367
-3430.2079
1255.2333
3162.7413
3267.9901
4074.1406
4743.7597
5850.507
6920.8768
8052.7573
9241.863
10483.517
11902.959
13010.713
14633.72
15681.207
17295.196
18467.013
19642.242
21048.631
22190.994
23282.658
24645.319
25657.049
26683.211
27682.677
28643.156
29305.922
30183.377
30648.377
31329.755
31717.868
32181.819
32358.008
32698.958
32855.463
32911.817
32927.282
33495.442
33701.332
33768.957
34617.298
34030.019
33866.653
33880.678
33701.923
33620.868
33418.043
33212.882
33034.64
32877.066
32680.63
32531.431
32407.346
32240.482
32136.58
32003.228
31888.184
31769.479
31630.176
31515.928
31341.896
31191.042
30902.105
30830.917
30364.108
30091.631
29833.675
29233.131
28928.577
28278.925
27756.495
27086.458
26364.494
25025.179
23813.882
22736.918
21787.02
20939.928
19913.708
18997.728
18106.008
16919.901
16203.683
14962.79
14319.182
13025.918
12419.684
10865.789
10098.78
8663.9054
7258.8799
5949.4064
4506.9025
2857.2978
79.224196
-2450.7337
908.19105
2720.9431
2269.1481
2896.7049
3513.1032
4744.2713
4467.5028
6237.6654
6613.3338
7730.4263
8430.5839
9725.3525
10102.111
11565.628
12059.596
13194.361
13887.079
15195.971
15503.556
16741.406
17273.507
17991.779
18648.415
19265.279
19777.923
20276.425
20752.854
21058.555
21470.029
21584.775
21859.719
21894.907
22125.456
21972.625
22093.629
22088.775
22313.056
22181.804
23271.378
23244.542
23670.047
23446.905
23332.452
23266.564
23198.075
23097.223
23022.407
22970.356
22913.667
22863.739
22838.517
22808.376
22769.885
22752.943
22728.132
22681.169
22655.989
22604.597
22533.743
22452.984
22355.796
22245.567
22045.256
21895.72
21708.846
21345.155
21175.361
20798.619
20409.724
19973.372
19512.8
18798.705
18044.912
16961.409
16035.494
15564.024
14796.697
14273.316
13401.323
13067.335
11848.6
11820.288
10353.178
10377.491
8918.6283
8991.8762
7449.9774
7492.6247
6058.2579
5911.4499
4849.1764
3775.5515
2358.0657
435.98603
-894.5643
258.12234
2168.8985
1576.7803
2116.8629
2826.2819
2734.1139
3176.9205
4203.7757
4191.1485
4721.8888
5565.8339
5683.5768
6511.9743
6932.81
7348.5439
8024.1667
8392.0758
8803.001
9232.397
9762.3155
9983.9489
10459.417
10777.144
10997.019
11375.241
11455.414
11710.461
11748.477
11933.184
11833.224
12025.147
11908.154
11907.806
11799.551
11864.134
11672.034
11736.042
11718.252
11534.651
11313.84
11318.036
11349.128
11297.897
11431.706
11487.67
11611.751
11639.828
11791.053
11850.644
11980.36
12080.286
12203.362
12290.349
12431.908
12505.901
12612.482
12695.233
12767.066
12809.964
12857.937
12873.738
12838.904
12849.066
12753.214
12656.34
12578.241
12343.799
12156.993
11907.31
11682.505
11337.804
11042.351
10560.745
10279.057
10007.527
9620.4383
9095.7957
8632.2746
8195.6107
7714.2942
7183.0989
6928.8954
6104.9222
6205.5827
5186.1469
5415.6495
4429.0683
4672.0264
3737.7894
3611.7928
2555.265
2034.8061
1682.8159
900.96032
290.42968
-231.62388
1651.0811
241.42005
1740.4094
841.15967
1802.1189
1301.29
1953.7944
1444.094
2013.9231
1741.8654
2146.1214
1871.9562
2125.2876
2041.7432
2338.6253
1918.6933
2492.2241
2151.4186
2317.5257
2218.6285
2362.8436
2095.8347
2214.6764
2074.1954
1946.9999
1973.73
1777.8824
1705.8165
1476.1471
1497.2274
1104.2601
1165.7943
929.04482
902.90625
632.3237
851.7182
481.29407
730.90358
526.15669
678.43709
791.52369
797.55774
839.35121
1006.9416
1099.2504
1237.9492
1445.7754
1618.6064
1808.7532
2007.2694
2216.7479
2396.2406
2599.2877
2780.0018
2952.2086
3117.6701
3278.5511
3401.5649
3543.6673
3639.2571
3739.764
3812.4117
3877.4525
3942.0069
3930.1889
3981.8746
3952.7673
3919.9436
3857.209
3748.2007
3642.6406
3331.0652
3166.8539
2908.69
2836.7472
2544.7463
2442.1793
2216.0198
2075.8931
1895.8936
1710.9292
1609.6896
1478.1586
1245.7994
1430.7045
879.09367
1500.9187
658.39224
1590.106
1221.5485
2105.2712
1999.4686
1573.0054
1906.8977
-1001.1941
624.53484
-388.67005
-234.2804
-511.72851
-308.5914
-1369.1656
-829.77166
-1694.8664
-1978.5531
-2072.0856
-2676.8553
-3123.2824
-3200.1741
-3720.0473
-4152.6218
-4470.3647
-4646.5148
-5443.6229
-5375.4682
-5938.7407
-6135.2802
-6619.7513
-6778.962
-7285.8783
-7463.8641
-7833.499
-8198.0796
-8408.9777
-8743.8534
-8953.1026
-9280.9758
-9325.6473
-9665.8798
-9712.5967
-9820.8846
-9903.2241
-9920.1741
-9833.5731
-9783.9924
-9675.1218
-9500.9606
-9381.1527
-9077.1735
-8809.8862
-8533.974
-8274.6938
-7914.2185
-7640.1068
-7320.6209
-7002.6714
-6668.0684
-6398.7712
-6066.2547
-5792.034
-5519.812
-5258.0116
-4999.4973
-4798.5949
-4566.2409
-4376.0171
-4223.4319
-4043.3983
-3919.114
-3828.0971
-3707.118
-3626.4371
-3556.8085
-3506.5853
-3414.3716
-3442.9117
-3319.5775
-3291.3077
-3212.3448
-3355.4652
-3418.2715
-3357.0936
-3337.0674
-3383.4576
-3362.3186
-3299.45
-3293.8252
-3140.0583
-2986.1059
-2967.6107
-2305.8216
-2606.6315
-1337.8868
-1882.6354
-401.85989
-935.45964
-180.90614
-158.99456
1327.0651
2923.3008
-1615.0377
612.23366
-1613.0718
-310.00853
-1669.7315
-1812.3813
-2948.4921
-3197.4662
-4659.7656
-4991.6865
-6088.5693
-7081.3186
-7814.0114
-8589.5818
-9828.8802
-10319.589
-11345.009
-12062.23
-12977.884
-13483.187
-14535.935
-14673.804
-15638.201
-16018.203
-16841.472
-17215.745
-17930.17
-18224.8
-18692.747
-19176.12
-19419.187
-19845.802
-20001.605
-20359.805
-20237.568
-20642.94
-20360.094
-20591.971
-20312.751
-20333.038
-20091.23
-19916.296
-19597.553
-19383.469
-19024.92
-18702.955
-18337.424
-17918.439
-17547.927
-17146.634
-16729.381
-16341.235
-15970.642
-15578.463
-15227.218
-14896.407
-14560.2
-14255.581
-13988.317
-13686.707
-13454.349
-13219.906
-12968.261
-12788.468
-12564.961
-12383.044
-12185.867
-12045.774
-11831.255
-11711.527
-11506.541
-11300.537
-11187.241
-10512.847
-9774.0471
-9453.6183
-9030.1687
-9024.1021
-8638.7914
-8607.6485
-7976.8214
-8150.5113
-7245.944
-7332.2653
-6583.5973
-6005.8863
-5855.9028
-4255.8844
-4722.7752
-2435.2743
-2740.4453
-1236.0892
25.663241
1799.0832
3679.6365
-572.9902
-1246.2069
-1898.6836
-2336.2019
-3254.1877
-3951.1701
-5295.3628
-6310.6046
-7413.4821
-8837.9944
-10078.114
-11253.793
-12551.229
-13852.513
-15108.731
-15993.955
-17665.886
-18233.671
-19843.313
-20632.246
-22391.667
-23039.271
-24609.9
-25213.864
-26690.642
-27043.091
-28121.15
-28411.693
-29293.587
-29602.655
-30088.682
-30522.465
-30785.931
-31023.736
-31174.69
-31285.497
-31237.658
-31265.79
-31061.205
-30935.307
-30675.259
-30349.964
-30017.865
-29633.762
-29191.328
-28727.047
-28300.126
-27777.799
-27325.387
-26811.974
-26337.637
-25836.447
-25388.72
-24900.971
-24468.884
-24036.522
-23624.181
-23224.373
-22858.513
-22483.15
-22148.721
-21820.492
-21487.252
-21213.571
-20918.309
-20653.15
-20338.538
-20040.837
-19770.053
-19430.27
-19100.249
-18860.327
-18368.501
-17915.982
-16903.14
-16675.427
-15790.706
-15200.486
-14720.835
-14200.124
-13742.96
-13023.412
-12513.91
-11731.858
-10951.218
-10259.92
-9113.4486
-8407.1813
-7084.943
-5878.5796
-4746.4372
-2717.5493
-1109.9541
1291.9625
5597.6149
-1967.9612
-166.09253
-1704.8875
-2287.1158
-3612.983
-4993.8167
-6697.5056
-7970.7399
-10324.7
-11417.233
-13808.397
-15084.677
-17397.072
-18466.375
-20732.143
-21951.851
-23901.356
-25003.626
-27179.411
-27858.07
-30124.251
-31028.965
-33297.145
-34320.416
-35951.783
-36526.531
-37873.12
-38344.076
-39268.856
-39656.591
-40351.256
-40714.065
-41047.633
-41443.977
-41395.952
-41705.837
-41461.417
-41541.144
-41208.209
-41078.588
-40644.457
-40359.194
-39878.482
-39460.231
-38924.138
-38388.85
-37854.592
-37248.484
-36666.702
-36095.309
-35505.004
-34936.111
-34399.247
-33861.49
-33355.865
-32892.745
-32432.416
-32007.345
-31623.359
-31237.736
-30883.199
-30554.65
-30184.644
-29904.134
-29539.322
-29259.882
-28909.999
-28627.967
-28228.706
-27839.187
-27494.678
-26943.806
-26550.683
-25944.58
-25331.714
-25220.154
-24499.485
-23595.028
-22814.148
-21992.322
-21022.929
-20073.006
-18994.549
-17886.177
-16620.86
-15519.758
-13835.099
-12823.147
-11017.929
-9360.5831
-8102.3136
-4842.7263
-2613.5281
2170.1786
6909.2094
502.52896
788.01575
-2460.963
-2869.4899
-5920.9608
-7118.6583
-9725.3558
-11872.792
-14239.582
-16314.258
-18775.532
-21316.259
-23324.795
-25702.558
-27849.147
-29879.515
-32021.224
-33804.534
-35949.614
-37376.825
-39732.825
-40852.705
-42656.782
-43545.75
-45129.019
-45930.514
-47628.369
-48099.638
-49321.06
-49837.19
-50639.762
-50937.886
-51573.856
-51787.012
-52052.215
-52177.341
-52084.72
-52066.811
-51835.222
-51571.4
-51231.008
-50816.81
-50313.481
-49782.53
-49202.821
-48573.567
-47985.861
-47284.766
-46670.982
-46005.796
-45364.323
-44714.048
-44122.603
-43498.444
-42934.848
-42381.045
-41847.149
-41337.959
-40866.084
-40382.325
-39944.143
-39494.237
-39055.086
-38645.668
-38162.462
-37780.767
-37288.431
-36776.995
-36304.785
-35752.108
-35119.362
-34553.018
-33806.975
-33080.104
-32291.497
-31471.681
-30628.068
-29677.462
-28638.761
-27515.324
-26368.737
-25078.355
-23772.027
-22322.127
-20883.117
-19210.447
-17585.013
-15907.436
-13705.918
-12183.534
-9454.0878
-7063.2201
-4428.5071
-217.72778
5132.0935
3928.9672
2235.8945
-838.12065
-3246.0325
-5074.9531
-7924.6208
-10775.903
-13098.518
-15875.992
-18539.457
-21807.514
-23959.806
-27210.515
-29704.376
-32281.943
-34709.007
-37531.887
-39095.322
-42161.618
-43762.225
-46005.429
-47860.566
-50013.172
-51805.128
-53482.106
-54983.625
-56310.511
-57466.407
-58777.307
-59557.047
-60431.974
-61083.603
-61530.672
-61941.407
-62206.303
-62532.674
-62403.098
-62479.352
-62129.402
-61917.979
-61454.44
-60998.153
-60420.358
-59811.799
-59137.241
-58422.228
-57670.865
-56905.752
-56131.285
-55367.299
-54596.618
-53866.879
-53157.563
-52479.624
-51834.692
-51241.672
-50670.956
-50147.012
-49655.955
-49191.95
-48750.209
-48324.632
-47914.215
-47451.837
-46978.408
-46495.919
-45909.722
-45448.429
-44983.436
-44268.447
-43681.522
-42875.933
-41975.848
-41185.003
-40042.616
-38996.752
-37812.421
-36572.336
-35176.108
-33819.354
-32292.193
-30686.495
-29017.425
-27253.579
-25318.491
-23446.219
-21344.948
-19217.911
-16912.945
-14987.841
-11690.257
-10179.213
-6416.8118
-2135.7995
4728.2169
9559.621
2450.7099
-902.89311
-3254.9668
-6135.2475
-9765.8825
-12454.408
-14755.177
-18612.143
-21355.046
-24487.263
-27722.452
-30829.481
-33573.269
-36657.207
-39637.482
-42329.534
-44894.435
-47977.498
-49614.552
-52369.739
-54345.869
-56759.096
-58853.214
-61463.585
-62475.034
-64594.858
-65506.849
-67358.733
-68136.273
-69317.416
-70051.776
-70725.985
-71109.329
-71343.209
-71917.38
-71846.728
-71873.229
-71612.561
-71326.215
-70862.727
-70336.665
-69701.903
-68968.324
-68236.995
-67365.663
-66563.981
-65669.803
-64817.867
-63937.486
-63104.055
-62270.129
-61498.442
-60731.994
-60039.171
-59374.775
-58755.483
-58176.884
-57646.829
-57126.13
-56647.36
-56190.403
-55713.232
-55215.562
-54700.872
-54034.251
-53327.816
-52728.933
-52294.753
-51419.085
-50656.426
-49523.86
-48619.502
-47414.716
-46201.664
-44869.006
-43598.41
-42003.206
-40485.805
-38777.01
-37001.908
-35085.731
-33191.17
-31012.388
-28928.301
-26703.528
-24279.137
-21999.219
-19596.386
-17194.442
-14522.203
-13179.489
-9625.4036
-6649.0052
-48.111618
-19615.466
-20795.205
-23997.248
-24639.738
-25699.026
-25366.602
-27037.783
-24710.332
-25811.817
-23839.775
-23974.143
-22629.114
-21244.285
-16113.074
-17080.293
-9952.0707
-16142.256
-14648.121
-19474.836
-19715.307
-20230.723
-18961.438
-19747.168
-19537.892
-19371.349
-17456.911
-16845.235
-15192.156
-11479.721
-9104.1379
1970.4724
81.345156
-1828.8571
-1762.4285
-2945.3557
-3213.4722
-3582.2074
-3474.8729
-3130.8459
-2704.6197
-1892.657
-1258.514
-802.32516
2505.053
3412.6237
1081.745
-190.39459
-1166.6409
-2587.5989
-3060.1951
-3471.8884
-3550.6489
-3403.5599
-2765.9439
-2558.6783
-2229.9722
-549.16893
32.755293
4119.0504
1080.1898
4050.7697
3368.3667
3087.6832
2872.2119
894.97662
2427.0324
1451.7965
1948.5615
1633.5175
2427.0623
2507.5435
3685.7809
5075.7375
5872.7781
5226.7001
4295.1716
5310.2659
3801.9191
4163.1724
3608.4109
3531.2305
2677.2531
3141.065
2957.828
3508.8081
3007.7169
4043.6424
4186.2392
5239.8692
5902.9682
2497.8421
3077.2577
3571.4379
2346.7713
2922.3383
3054.5493
2809.6864
2065.7961
3551.3394
2794.0462
3374.2928
4163.1124
4338.8496
6824.9976
3695.4137
1328.9113
3208.2926
1948.5976
3449.7654
2499.1779
3539.0594
2760.1228
3190.5428
3846.7603
2703.8363
3577.5267
3323.3119
4420.7318
3330.717
3810.9647
1993.4783
3451.6185
4668.4593
3808.5463
5113.853
4649.1141
5166.6495
4206.4743
5254.2086
3280.7549
3830.9051
4174.301
2784.5822
4059.3754
2841.6135
-540.80649
2906.5795
1739.952
3869.0825
3410.9455
4946.6495
4016.9575
4493.5864
4902.1889
4250.304
4862.0252
3619.0393
4866.5373
1889.6831
3554.6106
473.97103
2618.3762
3909.3287
3764.7633
5852.537
4741.8352
5642.2924
5086.6597
6082.805
4716.0363
4699.7792
4932.5686
2483.5477
3983.8693
1461.3801
3058.5762
8584.4753
7813.6726
12205.05
11201.433
12564.366
12241.227
13149.666
13173.761
11438.145
12686.576
9344.7621
11386.48
6770.2665
4765.5875
1623.4273
3388.2454
6220.4128
5954.2176
7702.7313
7548.1494
8875.7762
8586.8421
7697.6493
8382.3123
6409.4157
7764.6641
5560.6452
5269.4433
565.73208
13081.828
25071.685
23739.489
29124.224
29431.209
29313.032
29344.444
30323.661
30589.697
29674.281
30587.876
28481.011
29862.436
22837.321
24706.397
10137.85
8987.6431
9702.7914
12699.273
14773.864
13761.16
16110.626
14930.731
11889.626
13343.194
13192.863
12565.548
11234.163
10059.811
4589.5434
39774.783
34169.41
46689.866
45276.699
47261.34
51268.561
46240.9
42289.716
49542.108
48808.818
47489.905
47186.159
44625.059
43567.949
33107.671
16192.839
19403.929
24079.319
25398.876
26692.431
27111.985
27903.313
28484.936
29253.778
27721.745
27245.832
25660.993
24682.53
22809.547
17993.328
3045.1785
6350.2377
6035.2684
8111.4983
8560.3133
8544.1158
9628.4149
8582.7954
8989.3908
9177.6866
8050.2232
8488.6542
6120.113
5038.3354
4734.2781
-444.38837
2135.2168
3200.6195
4401.0667
4797.3131
5947.4774
5928.1547
6304.1865
5968.1612
5751.8125
5054.3214
3709.9308
3485.2993
2170.6641
254.60646
-4004.7089
-3149.9256
-4050.6945
-1374.1841
-1948.4558
-1418.4312
-607.75834
-776.33675
-764.5527
-1131.6355
-1434.7312
-1652.2495
-2327.9202
-3536.3466
-3560.3139
-8343.7249
-7375.43
-6034.7041
-6060.1604
-5990.2628
-5195.1177
-5296.9771
-5269.007
-5807.3181
-5911.0487
-6149.6444
-6645.4579
-6881.2007
-7344.2247
-8440.5532
-11317.394
-11078.267
-10659.858
-9735.456
-10850.194
-10592.904
-10617.152
-10494.811
-11032.652
-10962.848
-11274.68
-11782.499
-11633.516
-12604.758
-12690.195
-15063.135
-13910.373
-14433.921
-13137.6
-13453.323
-12824.985
-12975.561
-12856.347
-13164.764
-12915.776
-13186.04
-13473.053
-14082.956
-14175.557
-14615.182
-17439.175
-18681.332
-18211.648
-18436.068
-18723.429
-18905.209
-19016.555
-19078.697
-20159.667
-19077.105
-19693.771
-19894.659
-19715.748
-19731.709
-19099.389
-22016.593
-21022.199
-21468.767
-20804.531
-21171.136
-20810.362
-21226.3
-21129.862
-21008.034
-21707.681
-21811.992
-21984.093
-22178.088
-22277.311
-22453.975
-24440.693
-25320.224
-24959.322
-25414.449
-25395.781
-25608.635
-25564.404
-25974.717
-26023.408
-26012.939
-26296.277
-26512.823
-26363.404
-26914.229
-26723.927
-28516.186
-28021.146
-28630.309
-28493.993
-28985.606
-28568.833
-29124.631
-29478.789
-29699.647
-29800.244
-30123.996
-30286.688
-30493.186
-30197.066
-30270.323
-31836.115
-31869.692
-31913.355
-32468.048
-32235.16
-32786.115
-32775.399
-33062.273
-33137.854
-33419.616
-33410.021
-33845.329
-33265.719
-33791.243
-33771.897
-34943.969
-34972.575
-35533.65
-35447.264
-35783.402
-35757.151
-36250.703
-36282.897
-36595.655
-36537.103
-36913.742
-36913.822
-36999.732
-37198.525
-36977.931
-38222.49
-38384.336
-39185.95
-39049.457
-39932.037
-39498.162
-39268.612
-40506.738
-40473.085
-40809.995
-40632.84
-41002.388
-40687.624
-40984.65
-41066.366
-41360.118
-41552.795
-42259.367
-42389.492
-42549.755
-42396.289
-43486.427
-43118.042
-43417.786
-43466.424
-43701.859
-43805.463
-43081.662
-43585.099
-42953.941
-44611.327
-44666.618
-45460.451
-45489.146
-46243.744
-46181.494
-46535.334
-46874.815
-46747.065
-47164.455
-47144.911
-47556.629
-47198.302
-47550.438
-47644.111
-47589.764
-47992.636
-48493.198
-48605.014
-49119.61
-49303.449
-50018.749
-49920.763
-50256.727
-50307.01
-50331.179
-50450.194
-50685.232
-49833.559
-50006.037
-50593.046
-50863.348
-51658.73
-51986.298
-52544.611
-52307.655
-52691.739
-53065.726
-53077.702
-53412.945
-53504.289
-53679.208
-53259.03
-53912.634
-53787.343
-53047.528
-53862.531
-54221.412
-54858.952
-55096.398
-55493.442
-55968.339
-55862.212
-56434.355
-56261.471
-56291.663
-56430.191
-56280.466
-56176.866
-55939.696
-56384.863
-56488.738
-57499.238
-57319.153
-58376.202
-58003.029
-58945.265
-59003.816
-59047.449
-59229.823
-59097.378
-59592.685
-59090.61
-59934.99
-59717.125
-57853.371
-59518.711
-59392.748
-60338.393
-60441.568
-60999.711
-61220.311
-61548.642
-61810.113
-61921.6
-62039.782
-62163.775
-61743.545
-61567.739
-61567.598
-61459.807
-61572.225
-62575.392
-62685.273
-63420.654
-63311.504
-63941.12
-64018.224
-64291.222
-64285.921
-64585.69
-64546.153
-64468.026
-64490.531
-64206.68
-63020.021
-64016.462
-64323.264
-65199.589
-65476.197
-65753.463
-66475.184
-66252.529
-66830.569
-66828.548
-66660.494
-67246.406
-66727.995
-66956.439
-66556.867
-65797.002
-66257.318
-66854.606
-67238.379
-67894.278
-67939.741
-68720.987
-68627.253
-68970.707
-68965.783
-68626.49
-68934.691
-69109.514
-68571.633
-68811.294
-67750.361
-67937.07
-69079.769
-69060.435
-69883.119
-69928.725
-70418.402
-70473.096
-70857.399
-70969.949
-71156.953
-71336.892
-70444.534
-71409.698
-70471.033
-69561.035
-69862.904
-70683.326
-71012.122
-71507.218
-71888.168
-72376.845
-72609.299
-72741.178
-72833.655
-72786.893
-73034.971
-72448.39
-72376.897
-72521.953
-71408.281
-71402.089
-72070.24
-72851.122
-73327.967
-73498.556
-74022.258
-74049.227
-74503.168
-74479.265
-74570.932
-74533.187
-74185.553
-74563.069
-73884.678
-72614.869
-73312.512
-73905.274
-74133.508
-74837.007
-75079.918
-75540.094
-75702.039
-75826.942
-75958.927
-75751.635
-75875.669
-75747.856
-75462.388
-75502.074
-74353.377
-74210.635
-75300.53
-75412.77
-76293.812
-76144.568
-76751.122
-76883.342
-77277.13
-77185.325
-77019.471
-77361.847
-76631.899
-77014.129
-76769.151
-75522.781
-75524.401
-76345.168
-76687.288
-77270.375
-77526.891
-78000.149
-77944.021
-78304.123
-78378.894
-78299.449
-78383.429
-77888.222
-77780.107
-77754.915
-76435.412
-76360.67
-77328.402
-77533.61
-78191.511
-78509.144
-78831.143
-78964.596
-79067.891
-79164.592
-79081.418
-79274.306
-78750.52
-78915.864
-78637.139
-77379.402
-77226.781
-78126.871
-78317.829
-79046.41
-79113.537
-79615.377
-79599.816
-79921.686
-79929.978
-79861.544
-79907.699
-79516.978
-79381.496
-79281.014
-77952.429
-77813.516
-78712.478
-78913.131
-79587.332
-79731.379
-80184.764
-80172.553
-80465.69
-80433.561
-80341.392
-80477.372
-80035.388
-79984.947
-79800.637
-78307.634
-78300.134
-79171.859
-79159.79
-79854.671
-80184.842
-80381.532
-80699.579
-80704.768
-80924.583
-80668.365
-80914.632
-80253.49
-80491.844
-79902.061
-78243.278
-78810.871
-79222.549
-79934.912
-80075.209
-80397.481
-80690.638
-80755.264
-80939.973
-81021.147
-80864.19
-80947.58
-80591.657
-80382.95
-80603.997
-79028.544
-78514.134
-79531.415
-79496.896
-80400.046
-80209.987
-80854.282
-80650.747
-81100.424
-80872.171
-80905.601
-81063.024
-80555.345
-80564.56
-80350.293
-78785.663
-78661.355
-79444.825
-79640.278
-80075.999
-80336.937
-80569.618
-80719.448
-80898.422
-80823.41
-80802.413
-80856.085
-80521.146
-80360.847
-80300.366
-78723.925
-78239.914
-79211.552
-79179.592
-79857.057
-79831.101
-80317.149
-80271.869
-80502.245
-80512.74
-80447.067
-80604.18
-80154.574
-80138.008
-79989.852
-78361.631
-77948.023
-78878.138
-78888.199
-79457.1
-79572.778
-79962.312
-79891.631
-80228.9
-80114.015
-80134.152
-80169.374
-79850.761
-79763.214
-79707.475
-77859.48
-77388.124
-78328.701
-78223.266
-78872.798
-78875.288
-79265.028
-79267.789
-79544.195
-79517.626
-79500.5
-79627.212
-79268.204
-79297.716
-79174.241
-77320.594
-76788.218
-77724.783
-77644.421
-78275.014
-78254.413
-78726.159
-78624.419
-78985.237
-78866.436
-78936.457
-78987.065
-78732.152
-78694.416
-78647.618
-76601.007
-76010.158
-76961.119
-76789.828
-77392.804
-77427.038
-77821.283
-77788.433
-78119.021
-78070.216
-78124.631
-78273.071
-77968.861
-78053.023
-77987.567
-75819.682
-75197.137