/*--------------------------------*- C++ -*----------------------------------*\
  =========                 |
  \\      /  F ield         | OpenFOAM: The Open Source CFD Toolbox
   \\    /   O peration     | Website:  https://openfoam.org
    \\  /    A nd           | Version:  6
     \\/     M anipulation  |
\*---------------------------------------------------------------------------*/
FoamFile
{
    version     2.0;
    format      ascii;
    class       pointVectorField;
    location    "1.56";
    object      u;
}
// * * * * * * * * * * * * * * * * * * * * * * * * * * * * * * * * * * * * * //

dimensions      [0 1 0 0 0 0 0];

internalField   nonuniform List<vector> 
28033
(
(0 0 0)
(0 0 0)
(0.3461433 0.046171879 0.0087696267)
(0.33930996 -0.069958931 0.0077710558)
(0 0 0)
(0 0 0)
(0.3397664 -0.073049643 0.00781847)
(0.34663847 0.043034492 0.0085245605)
(0 0 0)
(0 0 0)
(0 0 0)
(0 0 0)
(0 0 0)
(0 0 0)
(0 0 0)
(0 0 0)
(0 0 0)
(0 0 0)
(0 0 0)
(0 0 0)
(0 0 0)
(0 0 0)
(0 0 0)
(0.34558713 0.038348851 0.0084536613)
(0.34496218 0.030945245 0.0083932109)
(0.3443505 0.023672937 0.0082869798)
(0.34381852 0.016478664 0.0082595689)
(0.34331001 0.0093577072 0.0082336515)
(0.34282391 0.0022869479 0.0082315118)
(0.34238207 -0.0047533285 0.0082406103)
(0.34196577 -0.011782092 0.0082622615)
(0.34157937 -0.018810942 0.0082739296)
(0.34121741 -0.025870194 0.0082942449)
(0.34088179 -0.032951971 0.0082888351)
(0.3405585 -0.040109052 0.0082606665)
(0.34027212 -0.047322586 0.0082175619)
(0.33995355 -0.054659999 0.0081509522)
(0.33970266 -0.062129192 0.0080029747)
(-0.00026721068 -0.00028159882 -0.00018351016)
(-0.00059377995 -0.00039261338 -0.00010962858)
(-0.00098828382 -0.00034830423 7.5604759e-06)
(-0.0013395803 -0.00038565096 0.00012289989)
(-0.0017534393 -0.00025282753 0.00025759123)
(-0.0021029259 -0.00018934601 0.00039486781)
(-0.0024777404 1.8653702e-05 0.00053622985)
(-0.0028053422 0.00016542184 0.00067781342)
(-0.0031251614 0.00045495291 0.00082090883)
(-0.0033972613 0.00069455183 0.00096809851)
(-0.0036542949 0.0010501143 0.0011154483)
(-0.0038448675 0.0013898136 0.0012509209)
(-0.00401184 0.0018177935 0.0014101219)
(-0.0040872427 0.0022524562 0.0015381885)
(-0.0041509722 0.0027503731 0.0017053882)
(-0.0040974894 0.0032688921 0.0018187831)
(-0.0040084846 0.0038520699 0.0019856795)
(-0.0038163295 0.0044400204 0.0021082244)
(-0.0035628653 0.0050952636 0.002262332)
(-0.0031945084 0.0057633719 0.0023814054)
(-0.0027574732 0.0064795871 0.0025345904)
(-0.0022015539 0.0072122487 0.0026497)
(-0.0015549202 0.0079879243 0.0027925666)
(-0.00079568585 0.008777952 0.0029151023)
(7.4181286e-05 0.0096020362 0.0030430024)
(0.00106136 0.010442785 0.0031611764)
(0.0021614328 0.011303769 0.0032833885)
(0.0033846418 0.012184248 0.0033994181)
(0.00473678 0.013078118 0.0035069401)
(0.0062062575 0.013982827 0.0036168249)
(0.0078128903 0.014901901 0.0037169139)
(0.009544254 0.015822364 0.0038114178)
(0.011409521 0.016755142 0.003904769)
(0.013406742 0.017681641 0.003987656)
(0.015534024 0.018616338 0.0040689134)
(0.017798937 0.019545769 0.0041336391)
(0.020193762 0.020473463 0.0042023941)
(0.022725037 0.021395591 0.0042616583)
(0.025383577 0.022305384 0.0043077159)
(0.028178943 0.023215397 0.0043528642)
(0.031097456 0.024105025 0.0043906014)
(0.034145144 0.024993298 0.0044242091)
(0.037319741 0.025862039 0.0044499982)
(0.040618883 0.026723718 0.0044745256)
(0.044035386 0.027565381 0.004494625)
(0.047574453 0.028397757 0.0045130389)
(0.051224426 0.029212798 0.0045312375)
(0.054992136 0.030014381 0.0045488303)
(0.058865384 0.030801211 0.0045687606)
(0.062850862 0.031573661 0.0045909915)
(0.06693804 0.032332606 0.0046168369)
(0.071131738 0.03307697 0.0046478131)
(0.075424531 0.033810175 0.0046838676)
(0.079819296 0.034528197 0.0047268034)
(0.084311575 0.035237315 0.0047758792)
(0.088902597 0.035931943 0.0048330605)
(0.093590731 0.036617642 0.0048969631)
(0.098376195 0.037291053 0.0049689775)
(0.10325874 0.037955094 0.0050478032)
(0.10823909 0.038606422 0.005134693)
(0.11331705 0.039249326 0.0052272106)
(0.1184947 0.039878548 0.0053267705)
(0.12376878 0.040498816 0.0054321371)
(0.12914852 0.041101405 0.0055406321)
(0.13462254 0.041696553 0.0056575033)
(0.14019866 0.042273988 0.0057735413)
(0.14588284 0.042832378 0.0058933003)
(0.15166131 0.043375301 0.0060151434)
(0.15754297 0.04389834 0.0061402931)
(0.16352053 0.044401195 0.0062653167)
(0.16960464 0.044880393 0.0063909078)
(0.17577589 0.045331616 0.0065201011)
(0.18205651 0.045766125 0.0066401875)
(0.18841801 0.046155377 0.0067706216)
(0.19488224 0.046542499 0.0068858835)
(0.20142949 0.046858955 0.0070169019)
(0.20806291 0.047194459 0.0071243152)
(0.21478693 0.047434683 0.0072542951)
(0.22157643 0.047707732 0.0073550277)
(0.22846013 0.047877296 0.0074809693)
(0.23539903 0.048073467 0.0075736776)
(0.24241851 0.048178745 0.0076958599)
(0.2494983 0.048290683 0.0077818928)
(0.25663489 0.048328781 0.0078948908)
(0.26383513 0.048355844 0.0079824749)
(0.27107575 0.048336746 0.0080802379)
(0.27838651 0.048263261 0.0081667662)
(0.28571104 0.048178738 0.008260831)
(0.29310931 0.048032192 0.0083327523)
(0.30050623 0.047876157 0.0084258311)
(0.3079723 0.047631998 0.0085136219)
(0.31543247 0.047472423 0.0085685079)
(0.32294721 0.047135447 0.0087049873)
(0.33051436 0.046912363 0.0087567507)
(0.33807687 0.046636949 0.0088910582)
(-0.00019406176 0.00028743843 0.00035040764)
(-0.00061961543 0.0003625137 0.00016255288)
(-0.0010513981 0.00049109477 5.8869943e-05)
(-0.0014193331 0.00039773142 -8.1994967e-05)
(-0.0018512758 0.00042440589 -0.00026593295)
(-0.0022295094 0.00028247313 -0.00040387923)
(-0.0026095008 0.00020863207 -0.00059826436)
(-0.002959001 8.521362e-06 -0.00074363778)
(-0.0032912958 -0.00015340826 -0.00093783976)
(-0.003590138 -0.00041341362 -0.0010904533)
(-0.0038451488 -0.00066353102 -0.0012740745)
(-0.0040733831 -0.00098701202 -0.0014325024)
(-0.0042327292 -0.0013220037 -0.0016004863)
(-0.0043561121 -0.0017169699 -0.0017588889)
(-0.0044041949 -0.0021257454 -0.0019154798)
(-0.0044006768 -0.0025968153 -0.0020655715)
(-0.0043137984 -0.0030757336 -0.0022101793)
(-0.0041567585 -0.0036173276 -0.0023448616)
(-0.0039166076 -0.0041681343 -0.002475773)
(-0.003580605 -0.0047765836 -0.0025947508)
(-0.0031609665 -0.0053923059 -0.0027042572)
(-0.0026348645 -0.0060663129 -0.0028066539)
(-0.002019207 -0.0067384204 -0.00289666)
(-0.0012839477 -0.0074692289 -0.0029757352)
(-0.00045915252 -0.0081970231 -0.0030465761)
(0.00050623284 -0.0089801157 -0.0030981025)
(0.0015618936 -0.0097628358 -0.0031516355)
(0.0027611967 -0.010585718 -0.0031794319)
(0.0040614166 -0.011418582 -0.0032101455)
(0.0055032085 -0.012274133 -0.0032174408)
(0.0070558819 -0.013150611 -0.0032236363)
(0.0087475643 -0.014035231 -0.0032154928)
(0.010556721 -0.014944521 -0.00320032)
(0.012503312 -0.015855063 -0.0031749062)
(0.014573622 -0.01678877 -0.0031417355)
(0.016774245 -0.017718669 -0.0031044056)
(0.019105356 -0.018666289 -0.0030513983)
(0.021562858 -0.019613204 -0.0030009918)
(0.024148548 -0.020568683 -0.0029399013)
(0.026859157 -0.021522321 -0.0028769084)
(0.029696845 -0.022481057 -0.0028071877)
(0.032654132 -0.023435895 -0.0027358298)
(0.035735982 -0.024391998 -0.0026592118)
(0.038933756 -0.02534355 -0.0025817217)
(0.04225032 -0.026292833 -0.0025005859)
(0.045680524 -0.027237582 -0.0024183266)
(0.049222717 -0.028177467 -0.0023344056)
(0.052875348 -0.029112964 -0.0022490619)
(0.05663491 -0.030043178 -0.0021629697)
(0.06050024 -0.030968411 -0.0020758049)
(0.064468823 -0.031889518 -0.0019879012)
(0.068539121 -0.032806269 -0.0018992051)
(0.072709076 -0.03371943 -0.0018095198)
(0.07697853 -0.034630287 -0.0017186317)
(0.081344866 -0.035538905 -0.00162645)
(0.085808779 -0.03644621 -0.0015322531)
(0.090369394 -0.03735404 -0.0014357103)
(0.095026293 -0.038261724 -0.0013362434)
(0.099779922 -0.039171174 -0.0012331696)
(0.10463131 -0.040082956 -0.001125416)
(0.10957956 -0.040997088 -0.0010128533)
(0.11462703 -0.041914616 -0.00089378679)
(0.11977364 -0.042835758 -0.00076811844)
(0.12502064 -0.043760433 -0.0006342691)
(0.13036814 -0.044688495 -0.00049252549)
(0.13581914 -0.045621236 -0.00033984318)
(0.1413704 -0.046554872 -0.00017950251)
(0.14702567 -0.047492871 -6.1115126e-06)
(0.15278109 -0.048429463 0.00017310536)
(0.15863776 -0.049366271 0.00037248961)
(0.16460198 -0.050311424 0.00057571332)
(0.17065897 -0.05124204 0.00079353751)
(0.17682155 -0.052181906 0.0010211178)
(0.18307528 -0.053108647 0.0012588613)
(0.18942947 -0.054036227 0.0015081688)
(0.19587058 -0.054952386 0.0017636451)
(0.20240458 -0.055863172 0.0020305479)
(0.20902378 -0.056761751 0.0023021459)
(0.2157258 -0.057650821 0.0025825275)
(0.22250744 -0.058524778 0.0028664544)
(0.22936537 -0.05938685 0.0031566591)
(0.23629573 -0.060230625 0.0034495298)
(0.24329322 -0.061058939 0.0037461688)
(0.25035844 -0.061867475 0.004045209)
(0.25747956 -0.062655421 0.0043441699)
(0.2646633 -0.06342408 0.0046472946)
(0.27189372 -0.064166501 0.0049474896)
(0.27917824 -0.064887855 0.005249694)
(0.28650239 -0.065584438 0.0055516601)
(0.29387383 -0.066254944 0.0058525389)
(0.30127378 -0.066899853 0.0061508796)
(0.30872316 -0.06752714 0.0064492792)
(0.31619634 -0.068139481 0.0067567938)
(0.32374514 -0.068718069 0.0070405456)
(0.33135572 -0.069361071 0.0073788681)
(0 0 0)
(0 0 0)
(0 0 0)
(0 0 0)
(0 0 0)
(0 0 0)
(0 0 0)
(0 0 0)
(0 0 0)
(0 0 0)
(0 0 0)
(0 0 0)
(0 0 0)
(0 0 0)
(0 0 0)
(-0.00027163354 0.0001684056 -0.00031300201)
(-0.00063873178 0.00049192802 -0.00025358956)
(-0.0010123909 0.00046646456 -0.00014094242)
(-0.0014017438 0.00048282714 -6.1496744e-05)
(-0.0017954406 0.00047726983 6.2324565e-05)
(-0.0021379771 0.00031533634 0.00017257906)
(-0.0025101819 0.00027027684 0.00031553267)
(-0.0028335988 3.9787555e-05 0.0004218838)
(-0.0031392426 -0.0001155314 0.00057723751)
(-0.0034160887 -0.00040985927 0.00068797186)
(-0.0036411059 -0.00065310659 0.00083626482)
(-0.0038529305 -0.001010331 0.00095082189)
(-0.0039773362 -0.0013678056 0.0011049802)
(-0.0040918102 -0.0017705691 0.0012130398)
(-0.00409439 -0.0022467769 0.0013688284)
(-0.0040897539 -0.002691047 0.0014843225)
(-0.0039573608 -0.003266811 0.0016269902)
(-0.0037940494 -0.0037754983 0.0017383667)
(-0.0035212692 -0.0044297648 0.0018804935)
(-0.0031726842 -0.0050200961 0.0019903324)
(-0.0027381912 -0.0057107096 0.0021230998)
(-0.0021900766 -0.0064069266 0.0022324403)
(-0.001555976 -0.0071310941 0.0023604887)
(-0.00080934392 -0.0079040409 0.0024723599)
(3.7070024e-05 -0.0086639357 0.0025804828)
(0.0010035626 -0.0095052651 0.0026939717)
(0.002076439 -0.010305475 0.002796082)
(0.0032736402 -0.011190997 0.0029016622)
(0.0045876362 -0.012034102 0.0029962474)
(0.0060231191 -0.012951622 0.0030957434)
(0.0075872123 -0.013832998 0.0031784526)
(0.0092727366 -0.014772863 0.0032663511)
(0.011089964 -0.015687514 0.0033410683)
(0.013031609 -0.016644528 0.0034152023)
(0.015107786 -0.01758145 0.0034803957)
(0.017306294 -0.01854341 0.003537067)
(0.019641652 -0.019510108 0.0035919121)
(0.022103006 -0.020477435 0.0036379953)
(0.024693743 -0.021447221 0.0036769232)
(0.027411821 -0.022422107 0.003710517)
(0.030256869 -0.023396162 0.0037374439)
(0.033225168 -0.024371896 0.0037603689)
(0.036317457 -0.02534691 0.0037772363)
(0.039529241 -0.026321347 0.003792295)
(0.042859167 -0.027294197 0.0038027868)
(0.046304974 -0.028266526 0.0038135279)
(0.049863153 -0.029236138 0.0038220633)
(0.053531937 -0.030205329 0.0038326727)
(0.057308404 -0.031172515 0.0038438918)
(0.061189946 -0.032138976 0.0038590851)
(0.065174346 -0.033104703 0.0038777053)
(0.069259958 -0.03407032 0.0039011802)
(0.073444407 -0.035036605 0.0039310225)
(0.077726437 -0.036003185 0.0039663488)
(0.082105312 -0.036972976 0.004009646)
(0.086579481 -0.037943157 0.0040590182)
(0.09114894 -0.03891827 0.0041170517)
(0.095813759 -0.03989547 0.0041812995)
(0.10057318 -0.040877492 0.0042537249)
(0.10542886 -0.041863417 0.0043324274)
(0.11038015 -0.042854228 0.0044179893)
(0.11542891 -0.043849143 0.0045091571)
(0.12057498 -0.04484906 0.0046060699)
(0.12582009 -0.045852532 0.0047071038)
(0.13116433 -0.046859626 0.0048124967)
(0.13660895 -0.047870359 0.0049209631)
(0.14215526 -0.048882312 0.0050309538)
(0.14780379 -0.049897684 0.005146273)
(0.15353956 -0.050896308 0.005256423)
(0.15939859 -0.051923077 0.0053733612)
(0.16534174 -0.052922993 0.0054903821)
(0.17138811 -0.053925889 0.0056057557)
(0.17753249 -0.054921026 0.0057206699)
(0.18377176 -0.055908236 0.0058364434)
(0.19010516 -0.056884922 0.0059498143)
(0.19653046 -0.057850378 0.0060633694)
(0.20304419 -0.058802161 0.0061747693)
(0.20964456 -0.059739336 0.0062856489)
(0.21632794 -0.060660482 0.0063945564)
(0.22309078 -0.06156299 0.006502066)
(0.2299313 -0.062447803 0.0066070527)
(0.23684438 -0.063311536 0.0067108911)
(0.24382751 -0.064154259 0.0068113192)
(0.250877 -0.064974988 0.0069102869)
(0.25798893 -0.065771711 0.0070057601)
(0.26515903 -0.066545536 0.0071003319)
(0.27238415 -0.067292197 0.0071899205)
(0.27966023 -0.06801696 0.0072807414)
(0.28698094 -0.068710835 0.0073660139)
(0.29434783 -0.069385583 0.0074539574)
(0.30174805 -0.070026787 0.0075357185)
(0.30919538 -0.070657848 0.0076247088)
(0.31666722 -0.071257835 0.0076996189)
(0.32422527 -0.071858745 0.0077868354)
(0.33179803 -0.072500898 0.007835812)
(0.34020104 -0.065216158 0.0077178031)
(0.34046158 -0.05780441 0.0076677363)
(0.34073426 -0.050420267 0.0077087064)
(0.34105093 -0.043234789 0.0077394998)
(0.34135802 -0.03606394 0.0078432312)
(0.34169879 -0.02899216 0.0079243993)
(0.3420589 -0.021933007 0.0080545709)
(0.34244058 -0.014900475 0.0081662786)
(0.34287576 -0.0078815758 0.0082852624)
(0.34330171 -0.00083325657 0.0084024531)
(0.34379831 0.0062351824 0.0084964819)
(0.34429945 0.013352801 0.0085766094)
(0.34485356 0.020535714 0.0086481821)
(0.3453843 0.027822047 0.0086682412)
(0.34609045 0.035177554 0.0086696184)
(0.33862528 0.043508926 0.0080453753)
(0.3309775 0.043726782 0.007756085)
(0.32344025 0.044027694 0.0074490925)
(0.31592395 0.044288687 0.0071616805)
(0.30844911 0.044525268 0.006854116)
(0.30099969 0.044729712 0.0065525821)
(0.29358379 0.044900784 0.0062486464)
(0.28619847 0.045038964 0.0059410034)
(0.27885509 0.045137415 0.0056369539)
(0.27155086 0.045206012 0.0053284565)
(0.26429467 0.045233743 0.0050244327)
(0.25708822 0.045231052 0.0047176448)
(0.24993478 0.04519072 0.0044145228)
(0.24284306 0.045118097 0.0041110075)
(0.23581289 0.045012175 0.0038117316)
(0.22885122 0.044874198 0.0035149863)
(0.22196144 0.044704378 0.0032246074)
(0.21514676 0.044503175 0.0029379094)
(0.20841121 0.044274183 0.0026584032)
(0.20176022 0.044013111 0.0023862262)
(0.19519378 0.043728216 0.0021219455)
(0.1887197 0.043412209 0.0018670211)
(0.18233478 0.043076123 0.0016208215)
(0.1760498 0.042709494 0.0013865516)
(0.16985554 0.042327019 0.0011611759)
(0.16376864 0.041918209 0.00094744011)
(0.15776349 0.041497803 0.00074621956)
(0.15191554 0.041020761 0.00057009822)
(0.14610193 0.040583347 0.00037820873)
(0.14043321 0.040088507 0.00021755335)
(0.13485187 0.039594386 5.6154456e-05)
(0.12937778 0.03908074 -9.0020776e-05)
(0.12400468 0.038553763 -0.00022872303)
(0.11873399 0.038012688 -0.00035931321)
(0.11356391 0.037458743 -0.00048230666)
(0.10849382 0.036891616 -0.00059896321)
(0.10352322 0.036311441 -0.00071054674)
(0.09865143 0.035718124 -0.00081703396)
(0.093877883 0.03511141 -0.00091998712)
(0.089202545 0.034490546 -0.0010197968)
(0.08462529 0.033855503 -0.0011172893)
(0.0801467 0.033205148 -0.0012126028)
(0.075767098 0.032539285 -0.0013069641)
(0.071487774 0.031856905 -0.0013998049)
(0.067309682 0.031157905 -0.0014922251)
(0.063234679 0.030441151 -0.0015836447)
(0.059264226 0.029707145 -0.0016748081)
(0.05540067 0.028954703 -0.0017650086)
(0.051645878 0.028184799 -0.0018548149)
(0.048002559 0.027396783 -0.0019433823)
(0.044472757 0.02659172 -0.0020310373)
(0.041058825 0.025769847 -0.0021170712)
(0.037763965 0.024932072 -0.0022012032)
(0.03458963 0.024079579 -0.002283374)
(0.031537361 0.023215105 -0.0023631297)
(0.028612348 0.022335168 -0.0024377402)
(0.025811213 0.021452359 -0.0025118305)
(0.023138598 0.020550434 -0.0025777374)
(0.020602775 0.019649585 -0.0026407336)
(0.018189063 0.018746249 -0.0026982267)
(0.015904932 0.017836121 -0.002751212)
(0.013766583 0.016925295 -0.0027926376)
(0.01174806 0.016025991 -0.0028287075)
(0.0098637953 0.015125155 -0.002860022)
(0.0081063354 0.014227231 -0.0028777016)
(0.0064901671 0.013346647 -0.0028923839)
(0.0049906134 0.012474519 -0.0028860413)
(0.0036284523 0.011621094 -0.002883811)
(0.0023833086 0.010774095 -0.0028581781)
(0.0012636924 0.0099639591 -0.0028356717)
(0.00026216224 0.0091513449 -0.0027894906)
(-0.00062530723 0.0083797706 -0.0027394258)
(-0.0013950959 0.0076143483 -0.0026775646)
(-0.0020531759 0.0069036148 -0.0026045497)
(-0.0026220501 0.0061926522 -0.0025236912)
(-0.0030700715 0.0055257995 -0.0024259087)
(-0.0034433769 0.0048925739 -0.0023333816)
(-0.0037067665 0.0042751145 -0.0022092702)
(-0.0039027658 0.0037243981 -0.0021082464)
(-0.0040063536 0.0031614466 -0.0019653754)
(-0.0040389742 0.0027017916 -0.0018509998)
(-0.0040067229 0.0021886056 -0.0016868748)
(-0.0039181444 0.0018183549 -0.0015704056)
(-0.0037665434 0.0013691098 -0.0013974191)
(-0.0035611398 0.001098365 -0.0012773502)
(-0.0033249041 0.00072426637 -0.0010954335)
(-0.0030407935 0.00051523116 -0.00095772866)
(-0.0027323071 0.0002241493 -0.00078001386)
(-0.002394692 8.1627161e-05 -0.00064644522)
(-0.0020396291 -0.00010213167 -0.00047470782)
(-0.0016695326 -0.00019021846 -0.00032652922)
(-0.0013031767 -0.00028663201 -0.00017740679)
(-0.00090656183 -0.00030454865 -3.7772693e-05)
(-0.0005654468 -0.00028436698 7.3037254e-05)
(-0.00024695723 -0.00026104562 0.00016324254)
(0 0 0)
(0 0 0)
(0 0 0)
(0 0 0)
(0 0 0)
(0 0 0)
(0 0 0)
(0 0 0)
(0 0 0)
(0 0 0)
(0 0 0)
(0 0 0)
(0 0 0)
(0 0 0)
(0 0 0)
(0 0 0)
(0 0 0)
(0 0 0)
(0 0 0)
(0 0 0)
(0 0 0)
(0 0 0)
(0 0 0)
(0 0 0)
(0 0 0)
(0 0 0)
(0 0 0)
(0 0 0)
(0 0 0)
(0 0 0)
(0.33942219 -0.070300216 0.0077594678)
(0.339485 -0.070573057 0.0077490472)
(0.33952877 -0.070806548 0.0077366214)
(0.33958024 -0.071037009 0.0077382922)
(0.33962704 -0.071256795 0.0077411194)
(0.33967134 -0.071467005 0.0077591787)
(0.33970877 -0.071671001 0.0077719002)
(0.33974157 -0.07186629 0.0077987323)
(0.33976912 -0.072060861 0.0078145313)
(0.33978696 -0.07224395 0.0078352567)
(0.33981397 -0.072434322 0.0078498462)
(0.33981668 -0.072593836 0.0078571995)
(0.33983245 -0.072766533 0.0078561651)
(0.33983768 -0.072908459 0.0078500335)
(0.33985253 -0.073057053 0.0078307718)
(0.34632479 0.046155554 0.0087582624)
(0.34638745 0.045996857 0.0087780143)
(0.34644201 0.045845601 0.0087597916)
(0.34650694 0.045682963 0.0087459298)
(0.34654864 0.045501822 0.0087292851)
(0.34659607 0.045317488 0.0086973834)
(0.34663538 0.045132268 0.0086696997)
(0.34666882 0.044937667 0.0086342056)
(0.34669595 0.044742132 0.0086016631)
(0.34671566 0.044541429 0.0085723573)
(0.34673147 0.044332105 0.0085458111)
(0.34673921 0.04411871 0.0085254042)
(0.34675003 0.043902142 0.0085272007)
(0.34674887 0.04364167 0.0084985734)
(0.34676889 0.043443277 0.0085172587)
(-0.0003788734 -0.0024580587 -0.0001505757)
(-0.00097988679 -0.0048628288 -2.8009161e-05)
(-0.0015515817 -0.0072364013 2.6863467e-06)
(-0.0021088437 -0.0095627185 0.0001077027)
(-0.0027207815 -0.011808973 0.00021320367)
(-0.003258953 -0.013980785 0.00033099272)
(-0.0038319784 -0.016057071 0.00043349668)
(-0.0043343361 -0.018019459 0.00056329093)
(-0.0048701451 -0.019895614 0.00067723668)
(-0.0052997575 -0.021605415 0.00079911786)
(-0.0057596381 -0.023240987 0.00092047094)
(-0.0061062405 -0.024674685 0.0010483284)
(-0.0064549325 -0.026027695 0.0011629143)
(-0.0066969309 -0.027157772 0.0012930833)
(-0.0069281017 -0.028198737 0.001412948)
(-0.0070223274 -0.029005223 0.0015419032)
(-0.0070856316 -0.029698015 0.0016560078)
(-0.0070483887 -0.030176706 0.001789149)
(-0.0069152519 -0.030497272 0.0019038624)
(-0.0066849136 -0.030628304 0.0020291609)
(-0.0063608904 -0.030578653 0.0021478026)
(-0.0059168072 -0.030348545 0.0022722125)
(-0.0053576778 -0.029924977 0.0023837655)
(-0.0046916395 -0.02932929 0.002506421)
(-0.0038857238 -0.02854066 0.002618147)
(-0.0029610763 -0.027583283 0.0027338623)
(-0.0018944179 -0.026436624 0.0028429547)
(-0.00069947825 -0.025129038 0.0029534136)
(0.00064562097 -0.023645088 0.0030583278)
(0.0021300952 -0.022001496 0.0031612078)
(0.003762092 -0.020201092 0.0032596649)
(0.0055468835 -0.018249648 0.0033527418)
(0.0074802662 -0.016153385 0.0034429575)
(0.0095647115 -0.013926345 0.0035271929)
(0.011808253 -0.011563844 0.003604414)
(0.014202472 -0.0090931397 0.0036802505)
(0.016755813 -0.0065035315 0.0037445649)
(0.019455616 -0.0038192496 0.0038035751)
(0.022315381 -0.0010438898 0.0038598812)
(0.0253237 0.0018154619 0.0039061425)
(0.028482011 0.0047409919 0.0039507223)
(0.031785636 0.0077227834 0.0039862466)
(0.035232915 0.010763381 0.0040193678)
(0.038822555 0.0138332 0.0040472709)
(0.042543922 0.016936927 0.0040726494)
(0.046400575 0.020056481 0.0040974318)
(0.050383183 0.023182146 0.0041190233)
(0.054489617 0.026305361 0.0041440478)
(0.058714568 0.02941426 0.0041682247)
(0.063054594 0.03249848 0.0041969607)
(0.067504128 0.035549441 0.0042281455)
(0.072060677 0.038554737 0.0042656233)
(0.076719124 0.041507283 0.0043071789)
(0.08147738 0.044394669 0.0043565829)
(0.08633116 0.047210546 0.0044114799)
(0.091278937 0.049941908 0.0044748477)
(0.096317518 0.052584167 0.0045443906)
(0.10144576 0.055124371 0.0046220391)
(0.10666127 0.057556982 0.0047065383)
(0.1119635 0.059872069 0.0047980839)
(0.11735095 0.06206302 0.004895375)
(0.12282202 0.064121129 0.0049994597)
(0.12837751 0.066039561 0.005107879)
(0.13401566 0.067810428 0.0052224195)
(0.1397315 0.069433094 0.0053379828)
(0.14553507 0.070889469 0.0054594348)
(0.15141804 0.072187691 0.005582993)
(0.15737022 0.073316097 0.0057109058)
(0.16340283 0.074268626 0.005840432)
(0.16950888 0.075044663 0.0059684504)
(0.17568784 0.075643965 0.0060975375)
(0.18193325 0.076057507 0.0062266209)
(0.18825043 0.076294884 0.0063539833)
(0.1946249 0.076337814 0.0064844079)
(0.20106732 0.076211702 0.0066094086)
(0.20756191 0.075882051 0.0067386448)
(0.21411337 0.075399076 0.0068595151)
(0.22071815 0.074700055 0.0069888389)
(0.2273637 0.073870518 0.0071023468)
(0.23406541 0.072820511 0.0072300619)
(0.24079552 0.071645751 0.0073393299)
(0.24757664 0.070279496 0.0074595993)
(0.25438445 0.06877234 0.007566402)
(0.26122728 0.067105783 0.0076812874)
(0.26809702 0.065309761 0.0077789772)
(0.27500225 0.063362315 0.0078865968)
(0.28193107 0.061297354 0.0079860536)
(0.28887443 0.059118043 0.0080772766)
(0.29585061 0.056827529 0.0081739292)
(0.30282877 0.054417798 0.0082752768)
(0.30983745 0.051970822 0.0083391038)
(0.31684702 0.049390239 0.0084478648)
(0.32390026 0.046723877 0.0085126676)
(0.33097153 0.044084687 0.0085555006)
(0.33813185 0.041190963 0.0085811184)
(-0.00057777035 -0.0044795983 -4.8775338e-05)
(-0.0012955789 -0.0088850279 -2.8501098e-05)
(-0.0020113482 -0.01322236 1.2735815e-06)
(-0.0027742657 -0.017582716 0.00010369555)
(-0.0035197239 -0.021740357 0.00016643284)
(-0.0042360651 -0.025870315 0.00025285112)
(-0.0049594478 -0.029799189 0.00035222048)
(-0.0056574289 -0.033632563 0.00044617885)
(-0.0062956037 -0.037228152 0.000542954)
(-0.0069258797 -0.04070708 0.00064402005)
(-0.0075034459 -0.043915762 0.0007556452)
(-0.008021526 -0.046950112 0.00083596022)
(-0.0084961544 -0.049711027 0.00096549523)
(-0.0089033605 -0.052260497 0.0010483052)
(-0.0092372992 -0.054515953 0.0011778502)
(-0.0094801408 -0.05651785 0.0012481081)
(-0.009682326 -0.058233685 0.0013924313)
(-0.0097364536 -0.059655048 0.0014673304)
(-0.0097351525 -0.060777807 0.00159215)
(-0.0096109325 -0.061605764 0.0016857776)
(-0.0093822163 -0.06210911 0.0018031122)
(-0.0090246597 -0.062312552 0.0018932123)
(-0.0085614047 -0.062192041 0.0020109793)
(-0.0079507784 -0.061764258 0.0021085404)
(-0.0072132459 -0.061015758 0.002215918)
(-0.0063306508 -0.059959767 0.0023150735)
(-0.005305278 -0.058590979 0.0024195833)
(-0.0041261913 -0.056924673 0.002518859)
(-0.0027906846 -0.054953555 0.0026157821)
(-0.0013002191 -0.052701229 0.0027126936)
(0.00035920589 -0.050160972 0.0028052151)
(0.0021814344 -0.047355369 0.0028943056)
(0.0041712699 -0.044287884 0.0029818445)
(0.0063365638 -0.040973182 0.0030613557)
(0.0086677643 -0.037427464 0.0031419559)
(0.011174206 -0.033659518 0.0032112206)
(0.013855106 -0.029688166 0.0032774483)
(0.016706772 -0.02552849 0.0033411367)
(0.019725885 -0.021197995 0.0033959188)
(0.022917893 -0.016707615 0.003445004)
(0.026269678 -0.012086599 0.0034910516)
(0.029787923 -0.0073389607 0.0035332778)
(0.033468591 -0.0024969285 0.0035626988)
(0.03729578 0.0024313009 0.0035997081)
(0.041276955 0.0074230309 0.0036268212)
(0.045401776 0.012456529 0.0036556193)
(0.049662493 0.017516766 0.003683277)
(0.05405791 0.022581923 0.0037119843)
(0.058577989 0.027634039 0.003741423)
(0.06321934 0.032652708 0.0037754634)
(0.067974141 0.037621634 0.0038120458)
(0.072839022 0.042517597 0.0038548849)
(0.077805988 0.047328082 0.003902362)
(0.082872869 0.052028561 0.0039574688)
(0.08803237 0.056607031 0.0040185611)
(0.093282807 0.061041148 0.004087858)
(0.098618403 0.065318989 0.0041634007)
(0.1040373 0.069418436 0.0042478891)
(0.10953524 0.073330271 0.0043380464)
(0.11511118 0.077033271 0.0044359949)
(0.12075994 0.080518067 0.0045401064)
(0.12648265 0.083767368 0.004650079)
(0.13227452 0.086770205 0.0047662897)
(0.13813197 0.089516074 0.004885123)
(0.14405896 0.091992937 0.0050099456)
(0.15004749 0.094187242 0.0051395153)
(0.15608801 0.096102727 0.0052695932)
(0.16219226 0.097709628 0.0054052051)
(0.1683551 0.09901853 0.0055356968)
(0.17456707 0.10002135 0.0056709207)
(0.18082973 0.10071741 0.0058052532)
(0.18713398 0.10109088 0.0059443764)
(0.19348266 0.10116275 0.0060780355)
(0.19986717 0.1008991 0.006220473)
(0.20628762 0.10035089 0.0063473227)
(0.21273742 0.099454513 0.0064933219)
(0.21921511 0.098296399 0.0066128208)
(0.2257186 0.09678357 0.0067596436)
(0.23223856 0.095038753 0.0068699353)
(0.23878428 0.092934352 0.0070191149)
(0.24533766 0.090628724 0.0071195779)
(0.25191074 0.087986647 0.0072615621)
(0.25849283 0.085135434 0.0073680679)
(0.26508478 0.082005801 0.0074847455)
(0.27169028 0.078678925 0.0075875466)
(0.27829191 0.075102542 0.0077088961)
(0.28490877 0.071348703 0.0078046569)
(0.29151329 0.067394412 0.0079149172)
(0.298151 0.063248977 0.0080190183)
(0.30475352 0.058996807 0.0080960092)
(0.31140533 0.054553604 0.0081976961)
(0.31802264 0.049997309 0.0082743035)
(0.32469541 0.045362896 0.0083273154)
(0.33137111 0.040592609 0.0083820821)
(0.33813901 0.035755996 0.008404121)
(-0.00072931361 -0.0058074759 -1.9430187e-05)
(-0.0015481511 -0.01155048 1.0099994e-05)
(-0.0024135699 -0.017272726 5.5141378e-05)
(-0.0032443739 -0.022892793 0.00010146967)
(-0.0040944178 -0.02839027 0.00013800789)
(-0.0049197626 -0.033782902 0.0002317277)
(-0.0057764514 -0.039010063 0.00029149918)
(-0.0065151707 -0.044010137 0.00036354897)
(-0.0073195437 -0.048875997 0.00044562281)
(-0.0080225778 -0.053420164 0.00053154107)
(-0.0087120735 -0.057790469 0.00059507283)
(-0.0093174287 -0.061809922 0.00069842657)
(-0.0099108797 -0.065619309 0.00076820707)
(-0.010385498 -0.069030469 0.00086404544)
(-0.010823336 -0.072184203 0.00093070374)
(-0.011174229 -0.074954656 0.0010449029)
(-0.011426708 -0.077391996 0.001111157)
(-0.011585575 -0.07944542 0.0012070099)
(-0.011660379 -0.081137699 0.0012962218)
(-0.011601593 -0.082434654 0.0013887293)
(-0.011438752 -0.08333738 0.0014704279)
(-0.011154003 -0.083858166 0.0015720405)
(-0.010732985 -0.083957756 0.0016568877)
(-0.010177957 -0.083677775 0.001750526)
(-0.0094819451 -0.082973875 0.0018394236)
(-0.0086367322 -0.081893988 0.0019348999)
(-0.0076334233 -0.080398568 0.002022991)
(-0.0064730314 -0.078529562 0.0021137155)
(-0.0051488054 -0.076266935 0.0022043237)
(-0.0036516816 -0.073641841 0.0022931133)
(-0.0019828415 -0.070645449 0.0023777897)
(-0.0001400499 -0.067308246 0.0024652031)
(0.0018890389 -0.063627542 0.002544789)
(0.0040929107 -0.059632715 0.0026251717)
(0.0064834021 -0.055329197 0.0026997125)
(0.0090586179 -0.050740413 0.0027705452)
(0.011816039 -0.045885717 0.0028407862)
(0.014751847 -0.040782154 0.0029033871)
(0.017884236 -0.035451804 0.0029606621)
(0.021188365 -0.02992211 0.0030129987)
(0.02467332 -0.024202474 0.003062658)
(0.028330613 -0.018328306 0.0031010421)
(0.032156498 -0.012316943 0.0031476047)
(0.036147054 -0.0061937917 0.0031834222)
(0.040297845 1.4539115e-05 0.0032166772)
(0.044596571 0.0062856484 0.0032525882)
(0.049043576 0.012594997 0.0032836554)
(0.05362769 0.018915175 0.0033183551)
(0.058343725 0.025223665 0.0033530712)
(0.063183609 0.031493308 0.0033925748)
(0.068141937 0.037701366 0.0034333707)
(0.073210146 0.043820666 0.0034819782)
(0.078383534 0.049830625 0.0035329769)
(0.083654936 0.055702432 0.0035931345)
(0.089019324 0.061418473 0.0036573798)
(0.094471533 0.066950469 0.0037303675)
(0.10000632 0.07228075 0.0038092348)
(0.10562014 0.077384347 0.003896257)
(0.11130863 0.082244546 0.0039884344)
(0.11706766 0.086836984 0.0040895047)
(0.122895 0.091148228 0.0041943848)
(0.12878678 0.095155817 0.0043069835)
(0.13473832 0.098847755 0.0044233404)
(0.14074939 0.10220636 0.0045440641)
(0.14681728 0.10521709 0.0046715598)
(0.15292586 0.10786916 0.0047985275)
(0.15910061 0.11016409 0.0049339187)
(0.16530945 0.11206255 0.0050649537)
(0.17155658 0.11357507 0.005208105)
(0.17784223 0.11469932 0.0053472583)
(0.18415734 0.11542223 0.005488805)
(0.19050056 0.11574763 0.0056329335)
(0.1968733 0.11567083 0.0057729981)
(0.20325626 0.11519401 0.0059169768)
(0.20966653 0.1143191 0.0060571278)
(0.21607866 0.11304375 0.0062017081)
(0.22251149 0.11139045 0.0063370612)
(0.22893783 0.10933963 0.0064824514)
(0.23538105 0.10693324 0.0066136902)
(0.241811 0.10414466 0.0067565761)
(0.2482513 0.10103162 0.0068803411)
(0.25468245 0.097541426 0.0070271202)
(0.26110495 0.093778724 0.0071378714)
(0.26753702 0.089657113 0.0072795164)
(0.27394471 0.085287456 0.0073956984)
(0.28035816 0.080615251 0.0075232915)
(0.28675147 0.075718502 0.0076282728)
(0.29315407 0.070547731 0.0077560845)