/*--------------------------------*- C++ -*----------------------------------*\
  =========                 |
  \\      /  F ield         | OpenFOAM: The Open Source CFD Toolbox
   \\    /   O peration     | Website:  https://openfoam.org
    \\  /    A nd           | Version:  6
     \\/     M anipulation  |
\*---------------------------------------------------------------------------*/
FoamFile
{
    version     2.0;
    format      ascii;
    class       pointScalarField;
    location    "1.07";
    object      E;
}
// * * * * * * * * * * * * * * * * * * * * * * * * * * * * * * * * * * * * * //

dimensions      [1 -1 -2 0 0 0 0];

internalField   nonuniform List<scalar> 
625
(
4145.1412
4183.0392
32878.657
18540.715
7080.3696
2711.1508
22086.36
32713.989
174.4092
173.75514
2027.8409
13987.041
6550.5201
40210.514
6960.4589
4670.7635
5507.755
7103.8305
5979.2285
7964.3167
7873.2828
6754.5689
7131.8465
3185.973
255.91552
-4366.7448
-9393.3169
-16010.483
-21851.768
-28622.77
-33511.173
-37782.878
-35942.441
-32648.24
-22884.703
-13692.207
8450.7334
12354.618
4272.9111
11901.222
5625.7264
-230.78541
1274.1169
-7139.3749
-6860.4851
-7819.8743
-7352.0433
-2309.6704
3084.6103
12270.866
23391.942
36944.624
51313.466
66009.677
78579.767
87799.582
91289.332
87267.19
77089.413
53438.292
1953.4094
-134.33722
1274.6187
10355.359
19458.995
3436.3062
5526.8464
7559.5859
-6625.6066
-5350.3153
-7103.0848
-8795.4492
-7011.2178
-5372.9798
2010.9674
10275.518
22325.288
37145.189
51108.462
65969.873
76607.407
83363.561
83842.69
77883.799
65755.871
54288.021
36050.234
11113.678
16403.91
15178.916
5566.7816
-2537.9982
-9563.6116
-13785.197
-14965.616
-14894.796
-12853.116
-10412.302
-7265.0342
-4801.4935
-1565.8304
354.77031
4048.0507
2755.1555
4356.9362
6316.1847
6158.7764
7674.412
4484.8736
10438.784
6415.5567
11624.355
3565.9657
3811.8546
3443.2805
2885.1887
872.15913
-384.61531
18516.384
20478.531
20145.52
32335.908
33754.208
33630.488
2549.0718
-169.80134
-1215.6676
-2509.6993
-5689.8276
-5427.8003
-8294.8971
-8020.9645
-8506.3072
-7319.174
-4130.8502
-465.86955
5338.9553
12696.839
21593.053
31315.244
41180.601
50008.155
57006.61
58812.913
58958.328
52013.453
38960.646
1635.0397
1033.8357
1474.3717
-333.46971
-162.70935
-1023.7728
-2244.073
-1412.7917
-1263.1077
886.24845
2236.3454
5145.7572
8220.4331
11610.405
14901.646
17979.609
20683.34
22344.585
23909.103
22380.55
21543.859
17996.886
15864.474
3479.188
1272.7319
1687.9115
2741.6713
5546.738
5237.1404
9470.4292
8954.3338
9097.4905
7679.5154
3737.4102
-420.15377
-7414.751
-15129.616
-24316.309
-33146.923
-41843.089
-47287.657
-50561.354
-46075.271
-37614.92
-21971.372
3565.415
167.97459
335.14249
631.01875
-241.14384
-520.13348
-85.559715
790.66546
39.78654
-104.19672
12999.136
14098.871
11502.148
16799.54
12954.148
13572.895
7915.6474
3991.1587
9016.4769
5740.1823
6556.5278
2770.6918
5513.0731
91.52928
4896.2966
-1351.5279
-1215.472
-3424.8686
-2043.0949
-6188.3093
-3864.81
-4642.8452
-10519.353
-6694.8157
-6198.4037
-8637.6368
-7885.6753
-3296.3888
-8571.9831
-5294.8712
-1314.5162
-4168.3549
-3092.6844
6551.3848
2175.0638
4651.6974
14915.066
12913.097
14615.558
27836.841
25692.997
26736.202
41535.306
41403.925
42707.757
56786.713
57931.195
58248.494
71228.564
73467.763
73647.09
82898.648
85946.237
86256.475
90441.324
93711.699
94068.821
91541.302
94281.936
94906.387
85585.133
87959.494
89010.278
72283.277
74648.681
75816.211
53825.204
54221.526
56405.893
13901.121
15154.27
15451.728
10520.341
10509.892
8641.8257
39694.719
40541.252
39347.913
7732.2972
7898.1787
7987.5755
6571.8592
4948.5984
6558.1748
9427.0342
8589.0549
10954.507
6903.4967
6012.3533
6642.7689
9649.4882
8631.2766
9370.8974
8581.2631
5701.4652
8189.1778
8421.4418
8364.3617
8694.0952
8190.1254
6179.064
8273.1432
6660.7648
5657.9766
6693.0641
3908.1975
1931.919
6256.8307
982.54055
1037.4523
3798.6565
-2070.5861
-3536.7463
1374.3368
-7208.4888
-7462.1914
-2489.3262
-11735.235
-12795.354
-6793.3584
-17028.291
-18080.017
-11527.009
-22071.187
-23434.774
-16441.378
-26010.103
-27720.316
-20404.484
-28264.642
-30015.378
-23157.391
-27535.714
-30299.747
-22989.879
-23304.707
-28172.661
-20227.233
-14082.216
-18683.039
-12756.841
-6592.0049
-7250.9217
-4608.742
10891.058
11284.91
12738.137
5594.8195
4566.0161
1401.9616
2192.3344
-841.37657
-2206.2847
-3033.9597
-5846.0336
-5584.3293
-5756.6485
-4121.6116
-561.64432
4476.1083
11600.794
20561.765
30286.941
39995.52
48680.33
54366.577
57361.704
55688.056
48373.967
45768.44
507.13614
3667.5525
38.96527
2119.0798
244.65046
2074.8268
1815.8132
3201.4154
5420.0178
6041.3885
7105.0989
7732.4905
6186.7507
4593.1284
1541.6952
-2227.3564
-5725.284
-9271.861
-11480.483
-12254.023
-10713.526
-7738.8682
6564.6285
3700.8244
-1189.9663
3074.2059
354.59528
6246.7949
9191.4885
8594.3967
12869.737
9713.7911
9760.8207
3830.8291
-1962.0232
-11027.594
-21250.698
-32066.114
-42392.809
-50454.207
-55063.51
-54255.055
-47400.31
-34384.327
-14628.064
9576.2488
2754.8544
3292.9073
3834.605
1871.0801
2440.1795
3179.5883
107.86433
-176.04835
1495.1822
-634.20395
465.96674
959.17909
-1860.2327
-2926.004
-1279.2014
-3380.4123
-3254.3909
-2361.7844
-5664.3319
-5665.5671
-3830.2638
-5230.6075
-5430.1123
-4893.3439
-6003.3711
-7278.2976
-5600.6081
-4773.2319
-4770.6136
-3740.7614
-1853.9497
-3121.3258
-2420.0599
1789.6668
984.4863
2230.4972
8737.8001
7115.9954
8012.2678
16741.065
14886.709
15889.387
26453.626
24056.987
25332.855
36770.848
34525.307
35693.502
46953.367
44502.646
45940.224
55537.032
54038.117
54790.512
61840.583
59732.326
61531.992
61018.264
64924.193
63544.14
60098.425
62905.256
61434.01
53382.92
53003.995
52993.79
41801.813
43054.126
43746.546
792.55835
772.8515
492.45012
2072.1822
2944.3735
3137.9813
992.21834
-1161.0319
462.02641
841.72223
1174.4566
1990.9298
1921.3074
-1117.9754
-324.97195
640.43351
-1022.9477
655.86004
1820.8362
-371.27109
543.2872
3149.0604
296.14883
1007.927
3224.9238
1533.94
2654.2683
5727.5019
3654.2765
4249.891
6759.4607
4962.9935
5480.3243
8123.8255
6654.5333
7160.3282
9248.299
8329.6573
7895.1681
9603.1907
8764.5881
8179.7824
10104.344
9485.8222
8380.7243
9857.6295
8974.3506
7825.5058
9781.1843
8697.6715
7252.1134
8990.8511
7192.6881
6314.8957
8864.4909
6569.9124
5602.7276
7530.9253
5196.3648
4594.571
2446.7021
12869.154
5624.4093
5606.524
3500.65
3577.5362
9026.6481
7975.4923
9122.0095
4559.6268
4241.1441
3921.5348
938.5636
-1090.4415
-591.78051
2839.6729
4708.0085
4401.8713
5816.1949
3462.6576
3285.7308
6342.4417
7505.4369
6713.769
8962.9017
9311.1584
9130.9494
12017.125
11435.479
10452.675
11193.823
12347.152
12264.714
12197.224
11454.438
11682.702
9841.5127
9901.168
10254.291
5959.0412
4860.8274
6203.6624
715.83043
-1233.6486
487.0998
-6972.0374
-10351.152
-7015.1431
-15471.853
-20145.063
-16092.684
-25065.049
-31259.274
-25879.462
-34418.629
-41270.113
-35299.854
-42432.464
-49653.13
-43335.019
-47718.71
-54234.989
-48183.895
-49000.12
-53986.824
-49134.588
-44266.238
-48209.089
-44082.522
-34667.271
-36058.272
-33869.339
-17819.216
-17585.242
-16422.906
6321.0465
6695.8201
8287.6174
)
;

boundaryField
{
    free
    {
        type            zeroGradient;
    }
    fixed
    {
        type            zeroGradient;
    }
    freeTop
    {
        type            zeroGradient;
    }
}


// ************************************************************************* //
