/*--------------------------------*- C++ -*----------------------------------*\
  =========                 |
  \\      /  F ield         | OpenFOAM: The Open Source CFD Toolbox
   \\    /   O peration     | Website:  https://openfoam.org
    \\  /    A nd           | Version:  6
     \\/     M anipulation  |
\*---------------------------------------------------------------------------*/
FoamFile
{
    version     2.0;
    format      ascii;
    class       pointVectorField;
    location    "1.44";
    object      u;
}
// * * * * * * * * * * * * * * * * * * * * * * * * * * * * * * * * * * * * * //

dimensions      [0 1 0 0 0 0 0];

internalField   nonuniform List<vector> 
3969
(
(0 0 0)
(0 0 0)
(0.85016727 0.042012493 0.025428199)
(0.82575186 -0.17691755 0.030933068)
(0 0 0)
(0 0 0)
(0.81892649 -0.18166969 0.030739207)
(0.84333385 0.037092225 0.025146258)
(0 0 0)
(0 0 0)
(0 0 0)
(0 0 0)
(0 0 0)
(0 0 0)
(0 0 0)
(0.8468191 0.013885884 0.025692744)
(0.8434362 -0.013343146 0.026524599)
(0.84022471 -0.040342986 0.027239209)
(0.83721507 -0.067245902 0.028162666)
(0.83430668 -0.09419378 0.028972493)
(0.83145839 -0.12128512 0.029846701)
(0.82876303 -0.14871712 0.030477444)
(0.0015390699 0.0040192891 0.0042462553)
(0.0022367013 0.0067217469 0.0052786038)
(0.0038966604 0.010295293 0.0061306879)
(0.006698482 0.013532754 0.0065330793)
(0.01015229 0.017245772 0.0069916946)
(0.01478486 0.020655092 0.0072257208)
(0.020023705 0.024284551 0.0076979739)
(0.026464485 0.027700535 0.0079500271)
(0.033551082 0.031190681 0.008469604)
(0.04169238 0.03444526 0.0087812487)
(0.050662839 0.037818446 0.0092893599)
(0.060497649 0.040880558 0.0097235498)
(0.071258802 0.044006685 0.010173773)
(0.082853734 0.046916397 0.010665289)
(0.095363259 0.04974337 0.01110825)
(0.10865919 0.052404617 0.011571886)
(0.12286056 0.054963407 0.012030213)
(0.13784083 0.05732792 0.012469259)
(0.15367705 0.059558789 0.012909369)
(0.17027663 0.061601562 0.013318238)
(0.1876796 0.063464325 0.013732785)
(0.2058172 0.065145348 0.014109633)
(0.22470203 0.06662486 0.014487135)
(0.24427787 0.06791347 0.014841484)
(0.26454241 0.068969758 0.015184676)
(0.28544158 0.069867445 0.015521908)
(0.30695773 0.070522356 0.015854326)
(0.32906515 0.070977525 0.01617195)
(0.35173341 0.071243616 0.016501784)
(0.37490494 0.071279216 0.016830818)
(0.39858219 0.071141081 0.017168847)
(0.42270905 0.070795402 0.017525244)
(0.44726864 0.07026282 0.017892313)
(0.47222257 0.069550645 0.018282385)
(0.49756168 0.068659247 0.018694222)
(0.52323033 0.067568143 0.019133744)
(0.54924123 0.066377675 0.019582168)
(0.57552706 0.064883941 0.020075972)
(0.60210596 0.063417618 0.020539369)
(0.6289189 0.061555742 0.02111667)
(0.6559777 0.059779002 0.021582158)
(0.68320644 0.057656047 0.022191188)
(0.71067071 0.055415397 0.022730575)
(0.73820592 0.053187473 0.023274749)
(0.76595162 0.050468178 0.023925707)
(0.79373972 0.047977358 0.024467183)
(0.82153041 0.04520011 0.025187365)
(-0.00014323661 -0.0031423219 -0.004429907)
(0.0013076703 -0.0055403926 -0.0042546938)
(0.00241367 -0.0081008331 -0.0055360634)
(0.004987011 -0.011221016 -0.0049047245)
(0.0085430679 -0.014194861 -0.004976655)
(0.012724225 -0.017504796 -0.0043877208)
(0.018036569 -0.020625979 -0.0040337905)
(0.023992361 -0.024077225 -0.003431706)
(0.030885748 -0.027304643 -0.0029042741)
(0.038653862 -0.030912619 -0.0022420007)
(0.04715923 -0.034236787 -0.0016571977)
(0.056612804 -0.037923474 -0.00093698737)
(0.066793941 -0.041462358 -0.00029297174)
(0.077892607 -0.045156294 0.00044541412)
(0.089754993 -0.048898247 0.0011723214)
(0.1024745 -0.052664602 0.0019286616)
(0.11600176 -0.056520802 0.0027108456)
(0.13031916 -0.060390436 0.00349588)
(0.14543288 -0.064322517 0.0043138967)
(0.16133422 -0.068295841 0.0051246685)
(0.17794542 -0.072292052 0.0059630379)
(0.1953648 -0.076332206 0.0067918475)
(0.21342944 -0.080382512 0.0076487812)
(0.23226254 -0.084487316 0.0084973257)
(0.25168823 -0.088544257 0.0093416075)
(0.27182526 -0.092659425 0.010199021)
(0.29249166 -0.096710259 0.011057043)
(0.31384728 -0.10082981 0.011926166)
(0.33573809 -0.10489153 0.012775218)
(0.35816545 -0.10895103 0.013649632)
(0.38111505 -0.11299554 0.014516758)
(0.40453672 -0.11702643 0.015398053)
(0.42842566 -0.12102966 0.016284239)
(0.45273906 -0.12502037 0.0171803)
(0.47746097 -0.12897406 0.018086693)
(0.50256331 -0.13291967 0.019001641)
(0.52802916 -0.13682014 0.019932957)
(0.55381096 -0.14068908 0.020872401)
(0.57993536 -0.1445558 0.021832138)
(0.60632662 -0.14833727 0.022793599)
(0.63298961 -0.15211142 0.023776587)
(0.65991097 -0.15584408 0.024765363)
(0.68702941 -0.15947901 0.025753923)
(0.71437815 -0.16310261 0.026765769)
(0.74185663 -0.16662177 0.027769447)
(0.76956372 -0.17006323 0.028760837)
(0.79734405 -0.17352367 0.02979766)
(0 0 0)
(0 0 0)
(0 0 0)
(0 0 0)
(0 0 0)
(0 0 0)
(0 0 0)
(0.0014681545 -0.002381728 0.0036805449)
(0.0019899512 -0.0078401248 0.0054813911)
(0.0028570414 -0.0086288041 0.0061074032)
(0.0053036857 -0.013592081 0.0068527774)
(0.0085993783 -0.016343739 0.0074726756)
(0.012562548 -0.020053911 0.0077514415)
(0.017715556 -0.023790567 0.0084371727)
(0.023355733 -0.027048908 0.00872786)
(0.030150504 -0.031111016 0.0094427215)
(0.037559429 -0.034379714 0.0097705037)
(0.045921441 -0.038467956 0.01060245)
(0.055087526 -0.041876341 0.011034897)
(0.065088323 -0.045714819 0.01169589)
(0.075964567 -0.049535258 0.012290762)
(0.087640256 -0.053166812 0.012848206)
(0.10011219 -0.057193465 0.013516222)
(0.11345028 -0.060859642 0.014045518)
(0.12752199 -0.064901153 0.014688746)
(0.14244644 -0.068711187 0.015230123)
(0.15810208 -0.07273251 0.015819578)
(0.17454927 -0.076651756 0.016358845)
(0.19172002 -0.08068505 0.016912463)
(0.20963114 -0.084670086 0.017427403)
(0.22822658 -0.08870735 0.017947005)
(0.24753353 -0.092770315 0.018425787)
(0.26755188 -0.096825754 0.018862786)
(0.28808236 -0.10093297 0.019372686)
(0.30924683 -0.10499269 0.01983407)
(0.33097017 -0.10907842 0.020323337)
(0.35324711 -0.11314548 0.020796917)
(0.37603235 -0.11720689 0.021274469)
(0.39930568 -0.12126271 0.021764855)
(0.4230394 -0.1253144 0.022267583)
(0.44720386 -0.12933401 0.022776505)
(0.47178062 -0.13335607 0.023302814)
(0.49674919 -0.13735861 0.023854571)
(0.5220438 -0.14127331 0.024393004)
(0.54772994 -0.1452762 0.02498387)
(0.57368812 -0.14914443 0.025565462)
(0.59997923 -0.15302171 0.026163393)
(0.62652604 -0.15682948 0.026763224)
(0.65335236 -0.16059775 0.027376124)
(0.68038595 -0.16428063 0.027984353)
(0.70766838 -0.16791425 0.028589577)
(0.73510374 -0.17144188 0.029184777)
(0.76276579 -0.17490197 0.02978684)
(0.79048792 -0.17837024 0.030329096)
(0.82203128 -0.15349271 0.029842599)
(0.82466825 -0.12618223 0.029106616)
(0.8274913 -0.099003473 0.028544572)
(0.83044091 -0.072208851 0.027937475)
(0.83337215 -0.045202688 0.027474034)
(0.8365571 -0.0182598 0.026794567)
(0.840033 0.0089375612 0.026183913)
(0.81487631 0.040289296 0.023887456)
(0.78686279 0.042968336 0.022935934)
(0.75910419 0.045655791 0.021941486)
(0.73142216 0.048216381 0.020993469)
(0.70387878 0.050616727 0.020022351)
(0.67650151 0.052890348 0.019065964)
(0.64932244 0.054995616 0.018147071)
(0.62235505 0.056959189 0.017232439)
(0.59562776 0.058761381 0.016349529)
(0.56918012 0.060417672 0.015478237)
(0.54296042 0.06191325 0.01464905)
(0.51723133 0.063123727 0.013882934)
(0.49160295 0.064346789 0.013029017)
(0.46647929 0.065256151 0.012283616)
(0.44168216 0.066032633 0.011510551)
(0.41731167 0.066591085 0.01077279)
(0.39336539 0.066964826 0.010042981)
(0.36989184 0.067116199 0.009325618)
(0.34690065 0.067078582 0.0086140096)
(0.324439 0.06680483 0.0079199536)
(0.30252615 0.066342905 0.007219015)
(0.2811917 0.065645759 0.0065329)
(0.26048038 0.06475322 0.0058464315)
(0.24040018 0.063637258 0.0051709545)
(0.22099955 0.062334929 0.004485547)
(0.2022924 0.060815274 0.0038217111)
(0.18431414 0.059133047 0.0031418619)
(0.16707856 0.0572371 0.0024923789)
(0.15062816 0.055208341 0.0018241799)
(0.13495038 0.05297992 0.0011905458)
(0.12009888 0.050640315 0.00054251363)
(0.10605729 0.048141138 -8.054597e-05)
(0.092867588 0.045526546 -0.00068411611)
(0.080516893 0.042750073 -0.0012648156)
(0.06908932 0.039932557 -0.0018675357)
(0.058442514 0.036999124 -0.0023604446)
(0.048738161 0.034024341 -0.0029471239)
(0.039862597 0.030875573 -0.0033684671)
(0.031859776 0.027828977 -0.0039504508)
(0.024819287 0.024503249 -0.0042889168)
(0.018663776 0.021558527 -0.0047657938)
(0.013266525 0.018030171 -0.0049948244)
(0.0089789138 0.0151092 -0.0053848122)
(0.0053886305 0.01166578 -0.0053662735)
(0.0030474375 0.0088787466 -0.0053190216)
(0.0012730429 0.0054714536 -0.004807969)
(0.0022574144 0.0032554613 -0.0029123813)
(0 0 0)
(0 0 0)
(0 0 0)
(0 0 0)
(0 0 0)
(0 0 0)
(0 0 0)
(0 0 0)
(0 0 0)
(0 0 0)
(0 0 0)
(0 0 0)
(0 0 0)
(0 0 0)
(0.8249417 -0.17775433 0.030844518)
(0.8241424 -0.17844833 0.030835261)
(0.8233006 -0.17907533 0.030817185)
(0.82245941 -0.17969832 0.030848482)
(0.82160941 -0.18030445 0.030856707)
(0.82073552 -0.18083535 0.030886971)
(0.81986744 -0.18142667 0.030792391)
(0.8495523 0.041673855 0.025421527)
(0.84872479 0.041055492 0.025429173)
(0.84789079 0.040472568 0.025345032)
(0.84705468 0.039869567 0.025282462)
(0.84619403 0.039256886 0.025217721)
(0.84530428 0.038595309 0.025157209)
(0.84447788 0.038013895 0.025157003)
(-0.0008936352 -0.0060003108 0.0038522667)
(-0.0012180938 -0.012620376 0.0038237839)
(-0.0010835042 -0.01853072 0.0047234571)
(0.00028336534 -0.024050775 0.0051054603)
(0.0022559496 -0.028997943 0.0054520138)
(0.0055462654 -0.033025223 0.0058526034)
(0.009380826 -0.036422194 0.0061643319)
(0.014559497 -0.038660529 0.0065981412)
(0.020505763 -0.040104684 0.0069136952)
(0.027631853 -0.040408401 0.0074008847)
(0.035723991 -0.039657885 0.0078229661)
(0.044982278 -0.037859397 0.0082511108)
(0.055283473 -0.034877445 0.0087674159)
(0.066768375 -0.030936484 0.0092171793)
(0.079347952 -0.025910253 0.0097391572)
(0.093082735 -0.019981534 0.010238912)
(0.10797784 -0.013149897 0.010741493)
(0.12395058 -0.0055914871 0.011253695)
(0.14106726 0.002655468 0.011745438)
(0.15922775 0.011400099 0.012240155)
(0.17843625 0.020538632 0.01271901)
(0.19860454 0.029919754 0.013187461)
(0.21971351 0.039383818 0.013645147)
(0.24163904 0.048774427 0.014094116)
(0.26438297 0.057965768 0.014529169)
(0.28780469 0.06676518 0.014942463)
(0.31184087 0.075057118 0.015358545)
(0.33640722 0.082718726 0.015776911)
(0.36142185 0.089574426 0.016185796)
(0.386781 0.095556202 0.016604953)
(0.41242554 0.10054521 0.017033691)
(0.43826698 0.10443709 0.017471441)
(0.46423446 0.10718952 0.017923307)
(0.49027614 0.1087259 0.018394813)
(0.51633225 0.10900656 0.01887903)
(0.54233637 0.10803532 0.019384258)
(0.5683052 0.1057859 0.019893267)
(0.59413341 0.10226876 0.020438102)
(0.61988917 0.097587078 0.020981015)
(0.6454789 0.091666987 0.02155606)
(0.67093833 0.084766996 0.022105778)
(0.69628604 0.076690394 0.02272963)
(0.72149502 0.0679195 0.023247704)
(0.74658427 0.05818485 0.02388646)
(0.77163885 0.047793933 0.0244396)
(0.79650663 0.03703977 0.024983052)
(0.82149403 0.025490747 0.025480558)
(-0.0024490869 -0.0105373 0.0027128453)
(-0.0033973889 -0.021885284 0.0027113934)
(-0.0035659437 -0.031557495 0.0034891459)
(-0.0029325486 -0.041450671 0.0036777853)
(-0.0012514946 -0.049954237 0.0041195329)
(0.0010857587 -0.0576906 0.0043366938)
(0.0045981049 -0.064091274 0.0047976875)
(0.0090757139 -0.069276899 0.0050043092)
(0.014562048 -0.073079018 0.0055688835)
(0.021172174 -0.075360781 0.0059296268)
(0.028974399 -0.076116534 0.0063706416)
(0.03784565 -0.075333911 0.0068954445)
(0.048005454 -0.072928786 0.0073782266)
(0.059364354 -0.069078063 0.0079077906)
(0.07198187 -0.063670407 0.0084580094)
(0.08586185 -0.05692035 0.0089751488)
(0.10096678 -0.048841443 0.0095271806)
(0.11732979 -0.039651522 0.010073798)
(0.13491807 -0.029447544 0.01061427)
(0.15369262 -0.018451946 0.011159896)
(0.17360501 -0.0068234238 0.011695547)
(0.19460279 0.0052376833 0.012212834)
(0.21656716 0.017486768 0.012743787)
(0.23948604 0.029791258 0.013240792)
(0.26320757 0.041843663 0.013736671)
(0.28763066 0.053520321 0.014250789)
(0.31267937 0.064559475 0.014752689)
(0.3382343 0.074788506 0.015236825)
(0.36416223 0.084046255 0.015754342)
(0.39039564 0.09214354 0.016260207)
(0.41681024 0.09894495 0.016777822)
(0.44331274 0.1043197 0.017313542)
(0.46982375 0.10817155 0.017852567)
(0.49626987 0.11040579 0.01841294)
(0.52256325 0.11098171 0.018981453)
(0.54868819 0.10985033 0.019567209)
(0.57457912 0.10704049 0.020154794)
(0.60017689 0.10248408 0.020782984)
(0.62557403 0.096431458 0.021348721)
(0.65057312 0.088628437 0.022016616)
(0.6754397 0.079565033 0.022581308)
(0.69991153 0.068980476 0.023234912)
(0.72425018 0.057351071 0.023810389)
(0.74828819 0.044522287 0.024458249)
(0.77221024 0.030915595 0.025016509)
(0.79598478 0.016548061 0.02557575)
(0.81981486 0.0016437219 0.026067302)
(-0.0029598131 -0.0077097725 0.001820974)
(-0.0031773119 -0.015547866 0.0018259357)
(-0.0031907775 -0.022891946 0.0022165187)
(-0.0017219913 -0.029732768 0.0024294523)
(0.00015416107 -0.036134078 0.0027282482)
(0.0034093754 -0.041584663 0.0030453391)
(0.0073136492 -0.046560526 0.0032942812)
(0.012343219 -0.050387109 0.0037841435)
(0.018240014 -0.05346478 0.0041913054)
(0.025371199 -0.055376643 0.0045631421)
(0.033283584 -0.056294752 0.0051432271)
(0.04248124 -0.056159253 0.005618227)
(0.052659692 -0.054871302 0.0061302167)
(0.064003908 -0.052617637 0.006711916)
(0.076468021 -0.049262756 0.0072770571)
(0.090064657 -0.045009347 0.0078357167)
(0.1048125 -0.039857481 0.0084405883)
(0.12066983 -0.033942218 0.0089950715)
(0.13764648 -0.027358481 0.0096065486)
(0.1556564 -0.020227249 0.010185899)
(0.174713 -0.012672311 0.010781413)
(0.19470474 -0.0048667943 0.011377153)
(0.21567083 0.0031163286 0.011958531)
(0.23745077 0.011038132 0.01252958)
(0.26000708 0.018818093 0.013130573)
(0.28326976 0.026285246 0.013686205)
(0.30717355 0.033297163 0.014234651)
(0.33158148 0.039731884 0.014806875)
(0.35645458 0.045458929 0.015362023)
(0.38168229 0.050353076 0.015916321)
(0.40718685 0.054327119 0.016492958)
(0.4329042 0.057284726 0.017060144)
(0.45876118 0.0591462 0.017647368)
(0.48468606 0.059876654 0.018238533)
(0.51064145 0.059393874 0.018852278)
(0.536575 0.057744427 0.019457444)
(0.56242615 0.054819278 0.020106405)
(0.58823473 0.050793135 0.020722094)
(0.61390407 0.045520737 0.021385226)
(0.63944656 0.03915882 0.02206896)
(0.66491223 0.031848481 0.022685253)
(0.69015986 0.023383771 0.023452753)
(0.71542957 0.014295576 0.0240369)
(0.74047734 0.0042348388 0.024803734)
(0.7656234 -0.0063322261 0.025386309)
(0.79059172 -0.017400948 0.02606339)
(0.81556347 -0.028870678 0.02669983)
(-0.002113822 0.00045387041 0.00055787492)
(-0.0011205283 0.0005912526 0.00034242259)
(0.00020076911 0.0011816843 0.00067289522)
(0.0027224826 0.0014511261 0.00090105001)
(0.0063269843 0.0017758973 0.0012747034)
(0.010576338 0.002112927 0.0015395431)
(0.015928871 0.0021809059 0.0021026507)
(0.021947543 0.0024277168 0.0024731329)
(0.029078404 0.0023993925 0.0029501349)
(0.036864528 0.0024476475 0.0035577036)
(0.045687015 0.0022715135 0.0040712911)
(0.05534638 0.0021197166 0.004568655)
(0.065823021 0.0018772185 0.0051670005)
(0.077256114 0.0014241449 0.0057481436)
(0.08944071 0.0010606544 0.0062909772)
(0.10258421 0.00042592175 0.0069108116)
(0.11646107 -0.00016890884 0.0074712772)
(0.13123002 -0.0009779335 0.0080919249)
(0.14675188 -0.0018448556 0.0086924391)
(0.16309943 -0.0028351445 0.0092828079)
(0.18021051 -0.0039648003 0.0098925414)
(0.19811584 -0.0051497212 0.01046436)
(0.21669314 -0.0065014944 0.01105615)
(0.23597812 -0.0079383716 0.011656079)
(0.25595167 -0.0094783545 0.012222704)
(0.27657849 -0.011120065 0.012792326)
(0.29780053 -0.012861852 0.013398642)
(0.31961179 -0.014712111 0.013991133)
(0.34198788 -0.016639841 0.014576839)
(0.36488179 -0.018677593 0.015198684)
(0.38828082 -0.020786233 0.015801938)
(0.41215217 -0.022989844 0.016431955)
(0.43645398 -0.025271514 0.017065266)
(0.46118331 -0.027629789 0.017721957)
(0.48628993 -0.030058093 0.018378879)
(0.51175877 -0.032583213 0.019075763)
(0.53758093 -0.035132934 0.019760726)
(0.56369546 -0.037800999 0.020484132)
(0.59010477 -0.040527936 0.021228835)
(0.61678666 -0.043267051 0.021945937)
(0.64374507 -0.046138092 0.022728439)
(0.67088736 -0.049041881 0.023494445)
(0.69833481 -0.051927383 0.024228214)
(0.72586371 -0.055021326 0.025079455)
(0.7536654 -0.057966477 0.02579096)
(0.78146611 -0.061098198 0.026666504)
(0.80951661 -0.064215811 0.027385505)
(-0.0012500067 0.0084349959 -0.00070110167)
(0.0011808854 0.01688857 -0.00076892956)
(0.0034996201 0.024852507 -0.000598212)
(0.0078014644 0.032335086 -0.00041860153)
(0.012422105 0.039029666 -0.00010179848)
(0.018352728 0.045146548 0.00030158462)
(0.024831683 0.050069525 0.00076884772)
(0.032366746 0.054354213 0.0011251995)
(0.040408288 0.057188946 0.0017768385)
(0.049353718 0.059171152 0.0022505082)
(0.058867124 0.059764273 0.0027601719)
(0.069057628 0.059342624 0.0033939671)
(0.079842863 0.057465966 0.0040094331)
(0.091226802 0.054562582 0.0045988906)
(0.10316344 0.050376958 0.005256085)
(0.11566498 0.045070677 0.0058812021)
(0.12868129 0.038738065 0.0065199057)
(0.14223137 0.031370035 0.0071535378)
(0.15629375 0.023195231 0.0077825177)
(0.17087457 0.014193205 0.0084171407)
(0.18598889 0.0046222492 0.0090484001)
(0.20158942 -0.005512504 0.0096893174)
(0.2177582 -0.015963318 0.010335183)
(0.23449241 -0.026652492 0.010952302)
(0.25183776 -0.037395585 0.011580962)
(0.26975839 -0.048050138 0.012219439)
(0.28833168 -0.058490391 0.012852924)
(0.30755482 -0.0685429 0.01346052)
(0.32745643 -0.078097551 0.014097268)
(0.34804442 -0.087020591 0.014719136)
(0.36935889 -0.095206465 0.015356283)
(0.3913947 -0.10255614 0.015999137)
(0.41417974 -0.1090059 0.01666563)
(0.43771076 -0.11444285 0.017322558)
(0.46198832 -0.11890453 0.01803259)
(0.48702374 -0.12225508 0.018724369)
(0.51277326 -0.12458067 0.019463984)
(0.53926529 -0.12586148 0.020228058)
(0.56640982 -0.12606961 0.020974737)
(0.59429465 -0.12531193 0.021796112)
(0.62272204 -0.12365549 0.022614532)
(0.65177469 -0.12111518 0.023458427)
(0.6813257 -0.11787545 0.024329821)
(0.71132529 -0.11398626 0.025241311)
(0.7417797 -0.10950245 0.026101607)
(0.7725369 -0.10469489 0.027058229)
(0.80356372 -0.099522203 0.027966546)
(-0.00042544292 0.011320369 -0.002098303)
(0.0027148455 0.02231366 -0.0020834422)
(0.0056972658 0.033014267 -0.0023222309)
(0.01037291 0.042681828 -0.0020009217)
(0.015772671 0.051689808 -0.0017159547)
(0.022111901 0.059433487 -0.0012263888)
(0.029301144 0.065984159 -0.00081915894)
(0.03716819 0.071224835 -0.00021586378)
(0.0457902 0.074824995 0.00033789687)
(0.054995979 0.07706905 0.00090119561)
(0.064839974 0.077464898 0.001543362)
(0.075162496 0.076322193 0.0021879237)
(0.086027681 0.073428719 0.002789643)
(0.097352812 0.068907174 0.0034773607)
(0.10909255 0.062770664 0.0041102486)
(0.1212916 0.05508115 0.0047956414)
(0.13384917 0.045965999 0.0054341535)
(0.14684599 0.03552584 0.0061142698)
(0.16020572 0.023897197 0.0067758129)
(0.17399436 0.011261763 0.0074382669)
(0.1881796 -0.0022365784 0.0081043432)
(0.20286624 -0.016325023 0.0087744308)
(0.21795576 -0.030907989 0.0094122623)
(0.23360293 -0.045807514 0.010075095)
(0.24977393 -0.060662465 0.010738511)
(0.26654054 -0.075390162 0.011385221)
(0.28396238 -0.08969011 0.012038837)
(0.30204715 -0.10344372 0.012709746)
(0.32085079 -0.11640625 0.01337215)
(0.34043306 -0.12846232 0.014053632)
(0.36080983 -0.13942076 0.014738106)
(0.38202697 -0.14916315 0.015446569)
(0.40411105 -0.15756144 0.016157559)
(0.42707679 -0.16455209 0.016898693)
(0.450947 -0.17002479 0.017649369)
(0.47570728 -0.17398856 0.018428217)
(0.50138627 -0.17640439 0.019234458)
(0.52791597 -0.17726958 0.020052553)
(0.55534253 -0.17669143 0.02091757)
(0.5835682 -0.17466982 0.021784992)
(0.61255845 -0.1712581 0.022688395)
(0.64231192 -0.16664354 0.023614323)
(0.67266827 -0.16097287 0.024583608)
(0.70366883 -0.15427214 0.02553753)
(0.73512123 -0.14680591 0.026538048)
(0.76702101 -0.13871829 0.027593507)
(0.79923641 -0.13006969 0.02865907)
(-7.6135885e-05 0.0064002743 -0.0031366937)
(0.0024450874 0.013390486 -0.0032848442)
(0.0047696147 0.019638327 -0.0037080597)
(0.0090293179 0.025406097 -0.003468844)
(0.013593261 0.030412618 -0.0031937954)
(0.019534564 0.034591065 -0.0027449037)
(0.025945703 0.037850028 -0.0022887205)
(0.033368571 0.040225324 -0.0017143315)
(0.041380686 0.041368317 -0.001177514)
(0.050150498 0.041651645 -0.00054664383)
(0.059597673 0.040430533 0.00012113077)
(0.069579456 0.038394419 0.00068202077)
(0.080283172 0.034849928 0.0014396523)
(0.091444695 0.030328846 0.0020816293)
(0.10324766 0.024555346 0.0028056911)
(0.11552882 0.017747711 0.0035022565)
(0.12836755 0.0098959299 0.0042280608)
(0.14171356 0.0011061421 0.0049556836)
(0.15555275 -0.0085083757 0.0056760185)
(0.1699308 -0.018854485 0.0064170427)
(0.18480807 -0.02977794 0.0071398567)
(0.20020434 -0.0411833 0.00788934)
(0.21618746 -0.052884163 0.0086158175)
(0.23270391 -0.064793158 0.0093660681)
(0.24979644 -0.076692984 0.010088822)
(0.26749284 -0.088475597 0.010829559)
(0.28582474 -0.099989639 0.011589125)
(0.30481127 -0.1110804 0.012326341)
(0.32448505 -0.12162871 0.013073366)
(0.34485732 -0.13152944 0.013833673)
(0.36594037 -0.14064091 0.01459256)
(0.38776776 -0.14888737 0.015369549)
(0.41033727 -0.15618763 0.016154632)
(0.43366339 -0.16245633 0.016954041)
(0.45774635 -0.16767772 0.017772994)
(0.48258312 -0.1717895 0.018605275)
(0.50815521 -0.17480427 0.019459101)
(0.53446973 -0.17672592 0.020344716)
(0.56146949 -0.1775689 0.021230294)
(0.58914368 -0.17739661 0.022157581)
(0.61743992 -0.17622393 0.023096964)
(0.64634005 -0.17419472 0.02407437)
(0.67573814 -0.17134875 0.0250622)
(0.70564528 -0.16775028 0.026048327)
(0.73589124 -0.1636279 0.027109288)
(0.76655089 -0.15893306 0.028124173)
(0.79738918 -0.15385029 0.02923399)
(0 0 0)
(0 0 0)
(0 0 0)
(0 0 0)
(0 0 0)
(0 0 0)
(0 0 0)
(0 0 0)
(0 0 0)
(0 0 0)
(0 0 0)
(0 0 0)
(0 0 0)
(0 0 0)
(0 0 0)
(0 0 0)
(0 0 0)
(0 0 0)
(0 0 0)
(0 0 0)
(0 0 0)
(0 0 0)
(0 0 0)
(0 0 0)
(0 0 0)
(0 0 0)
(0 0 0)
(0 0 0)
(0 0 0)
(0 0 0)
(0 0 0)
(0 0 0)
(0 0 0)
(0 0 0)
(0 0 0)
(0 0 0)
(0 0 0)
(0 0 0)
(0 0 0)
(0 0 0)
(0 0 0)
(0 0 0)
(0 0 0)
(0 0 0)
(0 0 0)
(0 0 0)
(0 0 0)
(0 0 0)
(0 0 0)
(0.0011992395 -0.00089966012 -0.0023351162)
(0.0016372154 -0.0012616679 -0.0016931067)
(0.0021001367 -0.0013338043 -0.00085981421)
(0.0022980485 -0.0014206253 -0.00021947414)
(0.0022620377 -0.0013359808 0.00044928748)
(0.0021959179 -0.0014607528 0.0011667682)
(0.0017885481 -0.00091816773 0.0019183064)
(0.0026040069 -0.0056036109 -0.0035309287)
(0.0033999585 -0.0063780171 -0.0018994528)
(0.0037664211 -0.0060172993 -0.00078665569)
(0.0039281404 -0.0058879279 0.00021736804)
(0.003972457 -0.0063216171 0.0011576242)
(0.0035995223 -0.0063266873 0.0023805117)
(0.0031318215 -0.0063630465 0.0038420054)
(0.0036825565 -0.0075013311 -0.0038734871)
(0.0048394181 -0.0071511156 -0.0027103034)
(0.005529142 -0.0077347217 -0.00089923981)
(0.0056197778 -0.0078220654 0.00020704236)
(0.0056156979 -0.0076912105 0.0017999124)
(0.005097913 -0.0078800069 0.0029041392)
(0.0043746715 -0.0085277304 0.0049313246)
(0.0066224885 -0.011631138 -0.0034923729)
(0.0073689394 -0.012055018 -0.0022032168)
(0.0079572758 -0.012104124 -0.00059495115)
(0.0081437371 -0.012171195 0.00063405362)
(0.0080730064 -0.012330611 0.0021767725)
(0.0074645632 -0.012839664 0.0037469637)
(0.0066271495 -0.012733674 0.0052242712)
(0.0098247265 -0.014484183 -0.0034920814)
(0.010901115 -0.014614202 -0.0021166924)
(0.011657035 -0.014905762 -0.00044920962)
(0.01177335 -0.01506369 0.0011219974)
(0.011644144 -0.015392475 0.0026604395)
(0.011089418 -0.015551064 0.0041499598)
(0.01014913 -0.015982953 0.0059773245)
(0.014206057 -0.018062125 -0.0028878008)
(0.015054779 -0.01833688 -0.001597189)
(0.015665648 -0.018499491 0.00013019023)
(0.015777377 -0.018863674 0.0014086)
(0.015651988 -0.018944544 0.0031762048)
(0.01493957 -0.019344381 0.0047175922)
(0.013984052 -0.019584892 0.0062652516)
(0.01937255 -0.021188144 -0.0025736851)
(0.02028112 -0.021434145 -0.0010238986)
(0.020881912 -0.021937913 0.00048350065)
(0.021045447 -0.022168633 0.0020067067)
(0.020843955 -0.022582088 0.0036602669)
(0.020195735 -0.023055686 0.0051285945)
(0.019230442 -0.02335597 0.0068988045)
(0.025296626 -0.024650337 -0.0018973378)
(0.026203608 -0.025193609 -0.00064614107)
(0.026775567 -0.025469927 0.001124962)
(0.026850499 -0.025804408 0.0025618165)
(0.026563001 -0.026051411 0.0041029864)
(0.025951193 -0.026346235 0.0057420432)
(0.024835328 -0.026617675 0.0072806779)
(0.032265441 -0.028117458 -0.0014474221)
(0.033075394 -0.028404914 0.00012979407)
(0.033596623 -0.028864553 0.0016665732)
(0.033631565 -0.029325694 0.003093852)
(0.033410139 -0.029814499 0.0047368807)
(0.032696649 -0.030218047 0.0062321759)
(0.031645539 -0.030684156 0.0079092227)
(0.039846907 -0.031462574 -0.00074439909)
(0.040689664 -0.032113308 0.00063201934)
(0.041142706 -0.032527034 0.0021518135)
(0.041295135 -0.033045416 0.0037775384)
(0.040915994 -0.033266891 0.0052799286)
(0.040205793 -0.033651362 0.006833592)
(0.039125869 -0.03394781 0.0083892404)
(0.048469897 -0.035110493 -0.00012818288)
(0.049183698 -0.035570678 0.0012875107)
(0.04971475 -0.036078411 0.0029862989)
(0.049653602 -0.036406541 0.0043318224)
(0.049348906 -0.036940074 0.0059502931)
(0.048589551 -0.037364459 0.0074005095)
(0.047465359 -0.037903177 0.0090442785)
(0.057736208 -0.03854483 0.00049414194)
(0.058575607 -0.039197603 0.0020335099)
(0.058920409 -0.039732667 0.0034406497)
(0.058959293 -0.040370691 0.004990554)
(0.058604976 -0.040740349 0.0065589017)
(0.057780634 -0.041108548 0.0079896432)
(0.05673516 -0.041541761 0.009662503)
(0.068037411 -0.042341375 0.0012152365)
(0.06866477 -0.042871006 0.0026856028)
(0.069079502 -0.043450894 0.0041929033)
(0.06905498 -0.043794727 0.0056959486)
(0.068672014 -0.044244211 0.0072122677)
(0.067814143 -0.044771641 0.0086659683)
(0.066713827 -0.045161018 0.010231275)
(0.079019452 -0.045918236 0.0018934688)
(0.079657666 -0.046559111 0.0034000238)
(0.080080964 -0.047158913 0.0048285782)
(0.079961758 -0.047720563 0.0063265617)
(0.079561413 -0.048267461 0.0078659474)
(0.078718653 -0.04867436 0.0092410656)
(0.077618318 -0.049118057 0.010884573)
(0.090855499 -0.049765809 0.0026202504)
(0.091486666 -0.050369058 0.0041351492)
(0.091811481 -0.050937371 0.0055208023)
(0.091691734 -0.051406731 0.0070771709)
(0.091314128 -0.051830936 0.0084906975)
(0.090412633 -0.052281673 0.0099451287)
(0.089292386 -0.052715947 0.011477867)
(0.10354914 -0.053520247 0.0033645099)
(0.10411085 -0.054146143 0.0048442291)
(0.10441022 -0.054764688 0.0062404144)
(0.10429631 -0.055315501 0.0076990893)
(0.10382058 -0.055837284 0.0091863571)
(0.10293755 -0.056322518 0.010552166)
(0.10179885 -0.056727045 0.012125323)
(0.11698808 -0.057395004 0.0041121144)
(0.11752975 -0.058021012 0.0056086314)
(0.11780846 -0.05863997 0.0069250782)
(0.11761886 -0.059108783 0.0084487643)
(0.1171848 -0.059607903 0.0098417644)
(0.11626374 -0.06000957 0.011221095)
(0.11511086 -0.060464498 0.012737213)
(0.13127818 -0.061282091 0.0049048627)
(0.13178525 -0.061944281 0.0063179836)
(0.13199113 -0.062536463 0.0076838565)
(0.13181894 -0.06309359 0.0091177265)
(0.13130686 -0.063585534 0.010505081)
(0.13038553 -0.064071812 0.011866829)
(0.12921463 -0.064458444 0.013362282)
(0.14632925 -0.065237554 0.005664927)
(0.14676154 -0.065846765 0.0070939389)
(0.1469831 -0.066487229 0.0084009193)
(0.14672025 -0.066971156 0.009818375)
(0.14623978 -0.067486346 0.011186135)
(0.14528972 -0.067889438 0.012512803)
(0.14411459 -0.068340817 0.013960714)
(0.16214696 -0.069201713 0.0064776433)
(0.16258058 -0.069865105 0.0078470063)
(0.16270518 -0.070462931 0.0091274966)
(0.16246292 -0.071016822 0.01052492)
(0.16192649 -0.071485784 0.011841035)
(0.16096655 -0.071967108 0.013147418)
(0.15978538 -0.072337261 0.014566415)
(0.17874475 -0.073225152 0.0072656934)
(0.17907852 -0.073836876 0.0086004629)
(0.179213 -0.074478255 0.0098666287)
(0.17890725 -0.074963167 0.01120989)
(0.17836819 -0.075476447 0.012502619)
(0.17740032 -0.075884611 0.013773724)
(0.17621233 -0.076299627 0.015147286)
(0.19604864 -0.0772539 0.0080741095)
(0.19637387 -0.077908188 0.0093757496)
(0.19643482 -0.078501419 0.010592261)
(0.19612024 -0.079044059 0.011902393)
(0.19555156 -0.079504164 0.013158961)
(0.19456833 -0.079962543 0.014390563)
(0.19338191 -0.080328544 0.015731111)
(0.21409392 -0.081329425 0.008887882)
(0.21434113 -0.081933896 0.010136527)
(0.21438233 -0.082562314 0.011318326)
(0.21402934 -0.083053022 0.012584508)
(0.21344173 -0.083559938 0.013801424)
(0.21245912 -0.083976968 0.014988626)
(0.21127379 -0.084350411 0.01628874)
(0.23282018 -0.085387281 0.0097092733)
(0.23303676 -0.086036252 0.010903248)
(0.23301361 -0.086613531 0.012040955)
(0.23264233 -0.087158148 0.013260452)
(0.23203832 -0.087607587 0.014430945)
(0.23105084 -0.088032031 0.015583951)
(0.22985971 -0.088385641 0.016843447)
(0.25221491 -0.089482114 0.010504966)
(0.25238736 -0.090096893 0.011668437)
(0.25231544 -0.090685091 0.012749335)
(0.25194124 -0.091208795 0.013940098)
(0.25129082 -0.091665525 0.015059046)
(0.25030391 -0.092118708 0.016170141)
(0.2491199 -0.092478754 0.017360649)
(0.2722458 -0.09356739 0.011321905)
(0.27239167 -0.094178257 0.012416852)
(0.2722541 -0.094767726 0.013463789)
(0.27185037 -0.09527906 0.014641262)
(0.27115558 -0.095726647 0.015637377)
(0.27023209 -0.096184231 0.016721192)
(0.26905888 -0.096517081 0.017830307)
(0.29291205 -0.097656135 0.012130029)
(0.29299239 -0.098258178 0.013141949)
(0.2928285 -0.098852292 0.014220995)
(0.29243073 -0.099371093 0.015213294)
(0.29174589 -0.099834457 0.01628779)
(0.29079 -0.10026577 0.017319159)
(0.28957632 -0.10060556 0.018385237)
(0.31419071 -0.10172258 0.012936212)
(0.31418147 -0.10233218 0.013927058)
(0.31402734 -0.10292622 0.014919037)
(0.31353549 -0.10343114 0.015872963)
(0.31287244 -0.10388293 0.016932565)
(0.31188514 -0.10430073 0.017854081)
(0.31071759 -0.10468455 0.018903989)
(0.33600703 -0.10578015 0.013735815)
(0.33598964 -0.10641492 0.014703412)