/*--------------------------------*- C++ -*----------------------------------*\
  =========                 |
  \\      /  F ield         | OpenFOAM: The Open Source CFD Toolbox
   \\    /   O peration     | Website:  https://openfoam.org
    \\  /    A nd           | Version:  6
     \\/     M anipulation  |
\*---------------------------------------------------------------------------*/
FoamFile
{
    version     2.0;
    format      ascii;
    class       pointScalarField;
    location    "1.77";
    object      p;
}
// * * * * * * * * * * * * * * * * * * * * * * * * * * * * * * * * * * * * * //

dimensions      [1 -1 -2 0 0 0 0];

internalField   nonuniform List<scalar> 
625
(
-328242.3
238127.82
358.97584
-1736.9529
-353936.22
1017842.6
-1559.0038
550.84222
-274672.63
-107061.31
-42330.979
1286.1007
227.04392
-418.55685
-129877.19
-150913.86
-144192.28
-152376.85
-133186.28
-138091.49
-124879.98
-117542
-114666.92
-101644.78
-95394.531
-86088.829
-78251.113
-68399.235
-59683.248
-50273.689
-40945.707
-32542.005
-23464.036
-15983.156
-9658.7731
-3274.7497
-929.51534
112416.29
59652.112
103145.89
80021.383
82803.274
86803.429
80458.326
80510.711
79522.414
75577.385
73490.37
67816.748
64445.662
58390.088
52159.635
45368.081
37959.354
30988.586
23065.602
16913.271
10025.913
5126.9712
1141.2135
-130378.76
175460.98
215888.5
178939.34
231708.53
171173.75
163837.68
186725.85
145994.35
146228.59
144614.4
125370.55
127940.1
109459.62
106513.94
91340.429
83389.019
71489.908
60871.963
49490.901
39618.18
29123.187
20136.551
12151.95
5677.8188
677.94527
-967.70638
880.48543
1148.3118
-965.44959
-3919.1128
-8234.4605
-14730.412
-22236.625
-29617.504
-38393.115
-45612.536
-54109.053
-60456.885
-67920.386
-72043.119
-77801.902
-74110.431
-93295.213
-82091.875
-91186.456
-83331.333
-99623.566
-72226.564
-88852.482
-96423.07
-58630.543
-335605.73
-229313.46
-199898.95
363214.3
456686.73
436836.41
-1648.9381
-2106.5112
-2829.9966
1179.8684
1150.1416
964.11895
-93217.275
-109273.43
-110346.72
-95852.3
-94234.691
-91474.145
-79517.382
-76561.453
-70335.011
-62869.781
-59707.279
-52923.997
-47036.372
-40122.045
-34734.653
-27963.999
-22401.532
-16677.334
-11454.748
-7824.3339
-4026.8455
-1596.861
-554.21167
-16109.684
-32221.332
-12178.23
-20316.1
-10671.39
-9581.8978
-5651.2946
-6367.1339
-4090.7243
-283.54446
-330.80575
2353.138
2807.5947
3641.3106
3449.9708
3958.1061
3367.5703
3071.3465
2499.2235
1935.6897
1247.4063
470.7576
-169.12133
50665.46
41136.222
42346.383
35934.962
52125.009
42524.746
47646.66
45094.165
46087.514
44831.806
42029.661
40467.229
37227.147
34130.329
30328.482
26621.357
22141.201
17775.612
13732.249
9172.871
6255.2634
3490.7041
1084.6937
-179202.37
-126334.56
-128248.81
-37212.618
-4119.0126
37268.844
-2492.216
41580.321
140119.58
171695.47
192713.18
215782.87
134295.18
151782.98
163652.53
132943.46
147155.43
162164.13
98061.63
117918.12
134611.81
109061.03
129203.48
149182.53
101278.09
111697.6
124621.47
101453.54
112116.78
129058.03
98605.687
103990.17
121382.42
94254.341
99404.878
113758.77
89348.904
94519.972
107437.32
84280.62
87095.605
98860.058
78696.281
81897.01
91735.345
72163.868
73586.248
82048.631
64951.312
66021.04
72873.795
57172.163
57219.29
63703.339
49062.213
49347.148
53948.218
40893.421
39958.688
43761.69
32293.341
31661.437
34551.741
24113.168
23057.712
25095.039
16704.716
15878.308
17014.206
9413.6408
8579.8762
9290.7313
4109.8811
4050.3167
4263.5875
1026.1301
-116.29996
363.48693
1447.4406
1376.057
1646.9714
749.7011
994.14089
806.97399
-1412.7558
-1593.9746
-2123.6124
-154592.33
-111354.48
-117972.63
-156944.61
-114846.85
-103599.32
-166908.45
-117217.58
-109808.74
-138184.25
-111678.36
-100383.04
-143779.71
-115907.46
-95616.13
-134334.7
-98174.146
-93477.94
-123393.34
-103302.75
-97394.756
-121485.47
-96314.294
-89363.602
-112260.62
-94934.203
-86509.625
-104099.7
-84390.624
-83813.028
-97930.471
-82843.624
-79818.736
-90979.297
-73622.861
-74419.248
-79963.987
-68065.55
-68476.842
-71984.558
-60460.995
-61689.639
-61753.104
-53483.752
-54398.559
-52295.242
-45126.334
-46110.266
-42259.095
-37498.226
-38201.974
-32836.96
-29446.931
-29827.958
-23356.799
-21891.889
-21699.556
-15572.746
-14404.688
-14571.423
-8456.8011
-7576.8283
-7838.5993
-2748.7424
-2776.8821
-3015.1559
-353.86591
-199.8627
-473.64267
-11611.811
-35922.408
-26546.145
-41738.766
-42658.283
-43138.83
-40557.018
-41816.196
-38180.628
-38561.53
-38500.356
-34532.864
-31752.527
-29021.374
-25359.309
-22384.02
-18279.228
-14854.054
-11352.725
-7897.2524
-5060.5096
-2731.735
190.69087
81076.943
44630.522
36542.626
27555.057
11800.231
23400.645
8003.2922
12088.373
6133.8834
8598.1355
1902.5077
3668.9202
207.84184
1031.4578
-1309.0363
-757.83809
-1417.1791
-1428.0365
-1290.1229
-880.72153
-871.14479
-14.058432
67.669899
111237.82
109896.84
120391.61
109008.42
108956.16
107003.41
91952.23
90167.589
83397.756
76605.647
70937.289
63762.585
58746.363
50932.625
45125.004
38491.773
32261.041
25759.394
20361.939
14638.138
10023.535
5270.0411
3171.6489
-122654.27
-99421.379
-51089.172
-108419.52
-83873.34
-52566.994
-82022.779
-69531.322
-66285.219
-74468.577
-80482.823
-39925.358
-88569.587
-57760.928
-45125.041
-61216.823
-66277.229
-52587.351
-68726.162
-66599.659
-43841.425
-66293.843
-56933.464
-44672.016
-57499.688
-50822.422
-46169.905
-53119.975
-54295.662
-43239.251
-49407.366
-47351.197
-39626.782
-41349.692
-42953.879
-37404.609
-37719.649
-38907.705
-34492.099
-32394.83
-34207.053
-31086.913
-27423.251
-28535.954
-26570.626
-22085.726
-23859.586
-22792.033
-17769.748
-18579.841
-18449.915
-13050.485
-13918.335
-13829.26
-9254.4956
-8997.1378
-9966.9307
-6097.1938
-5828.3121
-6377.3242
-2501.4404
-2705.8851
-2774.9128
-1529.6917
-974.35344
-1723.3753
595.29076
837.4949
952.76948
-13065.531
38355.529
51394.133
-22972.481
-884.86774
18771.15
-26093.312
-2829.6131
26452.188
-28234.261
161.11121
25969.325
-16938.88
-5369.1334
14761.976
-17640.342
-9755.0829
19259.088
-20289.866
-8391.4986
20275.606
-12700.803
-2144.0631
15758.43
-9188.14
-9714.9976
14318.09
-11825.909
-4608.4869
13165.152
-6565.5883
-4928.4706
12311.156
-6623.9113
-4475.3586
9419.5827
-4312.0386
-5479.7094
8959.6242
-4164.3957
-3433.9115
7437.4344
-1861.6105
-4078.6655
6100.5301
-1833.1775
-3174.826
4556.5261
-697.74673
-3123.2811
3580.0751
-544.73335
-2483.9469
2623.1017
-235.97784
-1685.5709
1201.4887
-306.27491
-1664.6556
1133.9305
-133.00585
69.130771
180.71661
595.60599
-503.59341
165.03948
-157.21112
-425.5184
-639.42464
72122.102
114027.48
158952
35814.997
50874.864
97114.561
42794.254
93893.471
103921.3
66054.139
73297.642
92741.934
47902.527
78850.058
92643.7
50057.895
75834.357
91519.878
50336.759
77676.926
85841.804
50262.768
70975.848
80689.125
46014.14
68809.599
76528.235
47336.845
65997.976
71358.258
44577.164
61002.545
65657.392
42829.38
56161.157
60305.245
38950.945
52348.477
55310.102
36413.043
47167.289
49312.553
32345.737
41825.821
42909.566
28676.935
35997.229
37486.48
23927.442
30546.428
31243.39
20191.161
24680.646
25632.212
15552.659
19238.097
19718.375
11651.34
13477.775
14474.028
8285.0422
9376.2442
10045.508
4067.4129
4127.7177
4130.0444
2097.0156
2339.7549
3597.1925
)
;

boundaryField
{
    free
    {
        type            calculated;
    }
    fixed
    {
        type            calculated;
    }
    freeTop
    {
        type            calculated;
    }
}


// ************************************************************************* //
