/*--------------------------------*- C++ -*----------------------------------*\
  =========                 |
  \\      /  F ield         | OpenFOAM: The Open Source CFD Toolbox
   \\    /   O peration     | Website:  https://openfoam.org
    \\  /    A nd           | Version:  6
     \\/     M anipulation  |
\*---------------------------------------------------------------------------*/
FoamFile
{
    version     2.0;
    format      ascii;
    class       pointScalarField;
    location    "0.299855";
    object      p;
}
// * * * * * * * * * * * * * * * * * * * * * * * * * * * * * * * * * * * * * //

dimensions      [1 -1 -2 0 0 0 0];

internalField   nonuniform List<scalar> 
625
(
312637.94
-463922.08
7501.8715
8615.557
589700.78
-789504.46
6733.919
-1826.4398
224444.06
-27703.894
-56001.518
-15685.001
1272.0341
3982.7603
122044.28
135067.81
138994.19
135669.26
125810.82
122101.52
109912.44
101335.13
93831.966
85223.661
76630.753
67231.313
62044.824
56044.875
51436.634
48452.017
44534.804
43387.989
39120.605
37223.972
32141.129
27984.047
21126.786
-147806.4
-125601.6
-135670.1
-120910.61
-109837.79
-107051.99
-91897.43
-84956.062
-76753.334
-68215.537
-60801.622
-53437.187
-48864.572
-43820.779
-40821.037
-38117.411
-36198.518
-34748.434
-32876.054
-30166.892
-30321.709
-20479.954
-11561.124
329207.65
-4461.2963
-95539.576
-149538.31
-188177.03
-134300.4
-137935.07
-142941.35
-108949.82
-116896.99
-104305.33
-91844.645
-82421.553
-73870.79
-65715.295
-60078.723
-53371.337
-49070.613
-46186.587
-42694.634
-40356.627
-37781.196
-33345.781
-28128.183
-20683.034
-11373.193
7823.874
-100.46833
-5169.6404
23395.804
25301.027
35494.729
38789.54
45063.712
48762.682
52121.749
56409.874
58814.169
64235.068
70929.095
78483.91
82819.748
92619.466
101491.06
112044.82
120831.56
125048.4
151843.09
141809.82
168892.69
153961.07
161391.03
323710.43
341155.27
307632.15
-413395.81
-548803.73
-523676.09
12821.865
12332.614
13239.326
-5515.4421
1446.3207
-4840.2238
72107.036
87688.981
88522.346
82731.124
79275.482
75387.211
69614.802
65018.967
59431.457
52727.422
46796.286
44024.88
40129.16
36734.155
34630.425
31957.126
30139.323
28381.604
24353.84
21206.221
16481.15
9772.2421
11457.429
-18692.613
-17283.412
-15710.079
-8514.6957
-10373
-5051.6446
-6130.7012
-3479.0077
-2827.597
-655.0464
-1382.3962
-546.14024
-864.03645
-721.50697
-559.77028
-1258.4312
154.85065
-1064.7165
907.5523
3268.6729
2833.5216
4635.8683
2663.1919
-100833.62
-70557.727
-79121.353
-69758.033
-70837.253
-61101.061
-57840.628
-50042.753
-44435.808
-39678.111
-35914.547
-32201.585
-29646.469
-26912.705
-25158.937
-23122.369
-21659.677
-20163.385
-16543.127
-15364.178
-10052.114
-10557.42
-1635.8587
187611.58
195331.65
223732.78
1936.7613
-3126.1569
-26252.959
-125064.76
-62445.717
-53748.58
-220628.48
-220479.01
-206645.96
-182752.66
-185325.71
-193142.69
-144003.62
-139696.56
-151020.05
-129427.03
-126444.85
-128586.8
-122225.12
-117683.73
-127955.85
-109798.66
-105508.89
-111581.64
-101978.55
-99198.754
-98358.953
-91631.131
-86427.472
-92956.721
-81434.545
-78474.835
-81761.904
-71820.241
-69184.434
-73713.844
-63630.524
-62223.29
-65535.5
-58581.462
-55055.98
-57085.19
-51953.526
-49883.195
-52754.814
-48630.596
-45058.525
-48937.121
-44558.649
-41712.687
-45098.156
-42350.777
-39395.726
-42613.957
-39772.481
-37098.54
-39977.29
-36820.345
-35012.942
-37784.992
-33913.987
-33268.941
-35353.087
-31227.13
-30055.215
-31652.595
-25761.911
-25716.285
-26240.314
-20140.603
-20755.251
-22825.416
-14726.534
-11809.756
-11642.629
-16389.245
-18727.695
-21560.983
5432.5765
389.91118
389.97866
8119.8664
9113.0952
8039.1765
158725.85
154814.59
166500.04
175508.82
142127.74
169069.16
162931.74
143793.83
161385.8
151631.69
133669.02
150683.47
144487.86
128794.82
137463.03
133128.51
118347.68
130858.49
124836.9
110780.88
119083.21
114362.79
99896.186
108823.39
103878.43
91393.693
98746.042
91971.954
83550.065
89348.204
82383.889
75867.139
80297.799
76117.845
68869.26
68874.226
68411.522
61851.432
64987.593
63102.011
56577.147
60680.235
58595.145
52577.265
56046.657
54784.892
48873.624
52156.429
50938.81
45201.464
49598.642
45702.257
43696.545
46091.167
43327.873
39836.159
42325.61
38350.978
36018.46
38020.103
32768.269
32513.245
33130.993
26386.328
28788.73
25002.205
25700.27
27244.946
27855.911
82753.036
100490.22
77644.717
86918.49
80450.808
77814.767
73705.532
67490.287
61162.957
56100.05
50517.674
47286.267
45200.243
39560.156
37562.846
34408.015
31312.465
28922.307
26111.001
23352.811
17325.849
14970.859
7666.7332
-18424.426
16784.385
4694.1246
20955.1
18891.93
18596.845
18351.908
16589.872
16114.613
14384.787
13924.507
13250.522
10991.022
10661.811
10641.583
9274.2127
9083.4776
9078.008
8357.3658
7897.4432
7161.3842
6440.2663
6606.9295
-62509.155
-39465.499
-84395.599
-56863.956
-68579.91
-65251.387
-60246.446
-53709.759
-50748.126
-44516.25
-39952.617
-36255.771
-31515.288
-28006.369
-24983.972
-22893.78
-21179.868
-18918.89
-17714.293
-16356.326
-13221.685
-8500.3507
-9660.332
119565.85
128219.81
120905.2
87366.578
117235.43
106144.5
77036.27
88638.236
96709.125
71374.862
90689.767
83174.665
70763.129
77545.965
80745.336
66754.496
75899.182
75905.913
59054.318
69006.427
67957.098
56707.696
64033.221
63012.788
50546.181
58803.149
57468.574
47019.065
52799.174
53097.577
44717.225
50159.874
46596.384
40018.393
42836.846
44886.107
36392.485
40461.547
40369.342
34169.332
38193.877
37805.751
31621.528
35030.332
34556.722
29641.654
32558.376
33724.354
26966.192
31587.675
31184.48
27638.288
28746.391
29278.561
23420.618
26289.503
25717.381
22895.252
23805.92
23810.2
17680.092
19066.753
18541.263
15395.988
12411.506
13017.539
-2296.1434
4047.0172
4644.4515
-20469.472
-20959.859
-7970.8592
2418.5974
8302.5258
7871.2798
3083.5142
2387.0547
3460.9223
3103.7387
10161.639
-2030.1501
9532.6533
8996.3953
8179.1228
4853.3177
13356.929
2791.5558
10362.882
11238.044
5477.3753
8330.9164
13506.961
5067.0699
9736.5691
11621.333
5374.3687
8819.6014
13281.191
5266.0788
10635.925
10564.598
4915.0863
8589.4341
9715.171
5368.7883
8110.0485
10121.076
4864.8397
7763.6989
8804.3673
4700.2661
6158.8174
8365.1098
3287.1598
6332.0261
7493.0982
3929.3966
4472.9218
7833.2069
2397.4945
4568.9395
6220.5151
1173.6123
3097.8
5261.4642
2209.6928
1670.849
5121.5045
1862.1782
2239.9648
3671.2291
1647.9208
3525.8467
6063.0922
2695.4281
6151.1743
6903.5122
6190.4256
-80137.777
-97587.449
-78967.993
-79098.278
-57666.436
-70361.063
-65229.474
-90060.175
-78865
-76295.87
-66408.674
-75534.549
-62663.545
-74550.588
-68997.021
-59110.557
-65729.825
-68740.326
-54879.823
-62377.709
-62501.555
-48744.882
-57429.388
-58456.089
-44528.206
-52070.719
-52114.407
-40368.708
-46578.219
-47393.525
-35125.447
-41908.637
-42126.405
-31393.834
-37375.358
-37136.709
-27028.994
-34179.627
-32579.232
-25107.016
-30493.508
-29748.214
-22391.576
-28066.864
-26753.225
-20901.02
-25439.94
-24203.253
-18963.561
-24321.731
-22704.855
-17453.252
-22000.724
-20672.711
-16455.203
-20596.231
-17969.976
-14180.645
-17245.564
-16466.369
-13979.473
-14927.434
-13944.686
-5612.0637
-10356.287
-8780.1384
-3523.28
-7480.0667
-5294.5726
)
;

boundaryField
{
    free
    {
        type            calculated;
    }
    bottom
    {
        type            calculated;
    }
    traction
    {
        type            calculated;
    }
}


// ************************************************************************* //
