/*--------------------------------*- C++ -*----------------------------------*\
  =========                 |
  \\      /  F ield         | OpenFOAM: The Open Source CFD Toolbox
   \\    /   O peration     | Website:  https://openfoam.org
    \\  /    A nd           | Version:  6
     \\/     M anipulation  |
\*---------------------------------------------------------------------------*/
FoamFile
{
    version     2.0;
    format      ascii;
    class       pointScalarField;
    location    "0.92";
    object      p;
}
// * * * * * * * * * * * * * * * * * * * * * * * * * * * * * * * * * * * * * //

dimensions      [1 -1 -2 0 0 0 0];

internalField   nonuniform List<scalar> 
28033
(
-342263.7
646685.94
364.47019
98.413082
-642648.88
869894.18
88.23144
-45.296166
-266436.79
-217839.34
-168102.7
-125573.74
-77972.516
-38056.292
707.72379
42585.48
85946.882
118994.93
170169.82
194004.92
237122.44
306766.3
282568.89
-102.42908
-125.49251
-136.72033
-32.491067
-117.31983
-137.93759
-196.13098
-347.65841
-381.34432
-450.44482
-517.31375
-434.94821
-324.59357
-136.54836
34.956738
-80995.692
-81792.173
-67398.365
-67865.905
-64519.918
-61116.746
-56888.701
-52463.139
-48195.042
-42710.564
-38615.592
-33706.865
-28550.998
-23726.942
-19763.431
-15574.764
-10608.409
-7623.4304
-3523.3081
-565.64172
2614.2593
5020.7151
8198.4822
10066.94
12466.198
14553.813
16775.419
18574.918
20795.026
22692.315
24944.748
27099.892
29594.994
31825.326
34288.895
36452.953
39103.595
41568.256
43523.555
45857.711
47700.516
49207.633
50582.153
51879.13
52641.3
53395.888
53689.13
53917.841
53802.739
53660.864
53253.004
52871.749
52357.546
51868.239
51372.708
50902.182
50485.75
50092.567
49739.53
49408.929
49059.592
48661.649
48194.933
47674.973
46966.655
46114.878
45298.188
43989.149
42309.571
40556.07
38567.342
36474.54
34212.721
31884.292
29472.738
27078.814
24718.896
22470.652
20288.486
18382.09
16512.942
14898.129
13423.062
12130.094
11025.945
10055.65
9145.6841
8336.0886
7402.0913
6629.8378
5475.4135
4740.4457
3274.4442
2261.2778
856.53706
118159.06
89901.971
94068.542
78467.996
84754.438
81308.34
76591.833
73997.935
69814.031
65675.592
60514.365
56738.002
51106.607
47026.322
41687.429
37983.147
33024.642
29356.802
25418.048
21965.625
18749.088
15789.722
13129.975
10386.005
8563.1015
5959.8304
4420.9704
2148.7435
477.94928
-1692.162
-3284.6772
-5600.0595
-7317.3649
-9604.6762
-11685.545
-13922.056
-16017.38
-18159.918
-20201.867
-22133.43
-24003.291
-25571.352
-27093.013
-28297.098
-29348.401
-30164.592
-30777.65
-31191.444
-31454.804
-31570.148
-31582.487
-31535.382
-31438.961
-31369.111
-31293.042
-31292.078
-31331.024
-31446.004
-31599.913
-31816.567
-32023.405
-32245.508
-32396.335
-32480.102
-32430.318
-32237.471
-31863.289
-31316.892
-30557.787
-29348.134
-28304.538
-26773.967
-25219.846
-23483.977
-21665.093
-19791.674
-17892.002
-16056.009
-14257.682
-12608.536
-11051.595
-9670.685
-8418.3222
-7351.4649
-6395.5351
-5601.3587
-4888.356
-4284.0038
-3713.5857
-3207.0734
-2665.5278
-2188.119
-1647.3253
-954.81877
-353.66754
-485646.91
-431920.31
-276431.44
-264074.35
-157693.59
-67597.623
-7183.4635
70531.638
145760.52
220993.75
289473.5
369657.87
459126.36
530816.13
565935.84
182715.24
128441.52
53714.503
104207.25
78613.392
80960.823
73830.927
74655.426
64137.062
64036.505
57818.456
55162.964
48198.305
45895.319
37764.955
34693.452
29532.333
27285.872
22264.6
20247.932
15975.859
14431.174
10715.389
7252.0058
7499.3808
2763.925
2219.4876
-1582.9799
-2861.8291
-6009.4416
-6751.9941
-10181.787
-11723.319
-14705.167
-16999.312
-19027.315
-21914.177
-24255.612
-26406.287
-28602.099
-30501.116
-32231.022
-33737.74
-34958.28
-35910.434
-36667.969
-37061.698
-37325.704
-37315.606
-37196.593
-36919.985
-36583.107
-36195.942
-35809.214
-35457.548
-35113.11
-34901.165
-34680.766
-34566.506
-34483.162
-34410.37
-34336.043
-34207.208
-33996.09
-33670.82
-33158.743
-32615.444
-32083.996
-29280.38
-29458.141
-27785.572
-26155.38
-24390.849
-22532.766
-20592.132
-18678.599
-16799.892
-15033.912
-13370.993
-11873.087
-10540.732
-9399.468
-8416.2101
-7628.0725
-6954.7894
-6402.3609
-5916.9843
-5472.8152
-5008.1435
-4506.2064
-3946.9498
-3244.1657
-2469.8415
-1532.0792
-512.47583
124.39967
-13.326824
22.415587
-77.733939
12.194464
16.498027
190.29036
339.96628
298.47618
489.38237
218.741
392.62321
17.777337
-58.658435
-215.10338
787.19006
2004.7269
2936.2349
3934.9764
4959.7813
5918.8964
6882.4956
7863.9567
8851.4315
9984.1849
11149.938
12436.525
13938.703
15612.83
17447.282
19496.181
21705.464
24027.09
26495.102
29015.71
31559.737
34074.305
36546.878
38825.927
40943.164
42705.211
43452.254
46893.076
46976.305
48183.631
48836.695
49365.324
49665.174
49861.105
49947.68
49973.188
50000.942
50001.045
50076.021
50159.277
50324.085
50493.348
50735.842
50923.263
51136.393
51219.932
51264.715
51101.255
50800.953
50273.205
49528.491
48478.434
47262.328
45813.615
44083.41
42186.335
40006.143
37613.157
35756.068
33104.895
30849.078
28731.787
26225.835
24168.476
22288.736
19922.577
18062.086
16040.544
13814.044
12334.084
10179.972
7657.9252
5906.2288
3180.6119
696.32029
-2954.0944
-5041.1344
-10490.639
-12332.876
-17748.82
-21938.014
-28951.159
-31554.119
-38688.111
-40247.218
-45884.544
-53212.606
-57912.909
-61100.132
-62726.225
-67896.719
-75467.034
-78000.749
-74691.17
-105908.41
-263267.86
-294932.07
-311673.56
-327544.33
-336461.78
-345368.58
-347053.97
-351420.49
-349675.06
-342993.06
-347192.44
-327778.44
-317926.59
-319021.66
-266210.04
583323.26
731637.47
706920.53
755755.9
720128.55
690234.78
784062.34
822950.87
776461.83
775219.97
752471.08
733602.05
698434.06
694375.36
632075.04
475.73189
794.9807
1181.8741
1401.9589
1551.8741
1580.738
1625.5488
1550.2878
1456.2798
1298.5438
1117.5078
915.25224
690.36466
301.93798
379.25042
51.269317
-246.50893
-529.5591
-819.2813
-990.09648
-1159.38
-1297.7558
-1380.3688
-1408.0756
-1381.4463
-1264.9988
-1100.7388
-844.75388
-494.33321
-168.36001
-73699.318
-67345.798
-58038.695
-56547.653
-53744.701
-49645.84
-47520.092
-43949.429
-40536.658
-36697.007
-32704.848
-28238.423
-24636.757
-20442.563
-16615.14
-12074.733
-9486.1004
-5494.7924
-2393.5117
561.55025
3317.9978
6173.9749
8309.4927
10597.829
12907.182
14784.309
16787.275
18794.949
20740.434
22670.88
24808.02
26651.879
28677.448
30709.648
32838.022
35087.262
37038.549
38874.346
40890.83
42592.579
44256.425
45657.784
46848.093
47806.03
48534.956
49104.406
49356.904
49541.81
49438.706
49271.25
48921.69
48542.048
48050.346
47562.152
47042.871
46532.743
46034.806
45549.621
45079.327
44603.79
44109.575
43566.564
42983.705
42341.859
41401.009
40574.828
39364.584
38065.207
36637.913
35181.284
33562.854
31721.668
29789.537
27824.387
25779.125
23790.668
21796.248
19911.394
18091.242
16479.335
14878.546
13508.039
12336.921
11317.305
10366.074
9455.2841
8627.3871
7796.334
7012.9686
6187.5028
5311.4994
4467.9412
3314.5511
2370.6394
1123.8375
-62789.795
-52090.95
-44844.55
-45287.998
-42313.396
-40491.241
-38876.603
-36079.668
-33380.278
-29778.435
-27337.252
-23581.536
-20565.711
-16681.021
-13855.539
-10567.883
-7666.5204
-4420.5389
-1901.132
673.55023
3348.0404
5241.8547
7607.3695
9553.4717
11670.162
13213.599
15331.343
16926.125
18765.989
20443.406
22260.699
23939.459
25824.581
27574.186
29466.373
31094.205
32815.937
34532.396
36078.697
37523.281
38822.89
40006.991
40907.157
41775.201
42357.753
42855.364
43092.02
43279.58
43211.231
43117.703
42850.97
42562.222
42161.16
41761.008
41310.521
40846.605
40379.724
39900.436
39404.903
38899.156
38358.546
37770.265
37160.508
36445.352
35583.476
35024.255
34023.021
33048.419
32032.907
30698.11
29296.603
27772.852
26187.38
24524.688
22844.631
21203.874
19507.941
17969.391
16408.484
15028.349
13665.156
12448.375
11451.273
10222.741
9432.706
8506.7021
7713.3021
6995.5303
6253.5949
5565.7187
4710.3743
4055.7287
2988.8393
2240.0735
947.61019
-47736.095
-41478.169
-34105.106
-34741.007
-31420.481
-30659.393
-29770.354
-27349.049
-24909.942
-23321.313
-20561.174
-17782.761
-15202.518
-12788.318
-9975.3601
-7321.0909
-4809.4051
-2489.7644
-96.587457
2168.4388
4325.8476
6118.6611
8339.7062
9855.0319
11686.276
13197.329
14931.291
16223.394
17946.47
19231.775
20874.879
22265.451
23847.028
25268.498
26773.449
28244.088
29663.708
30906.861
32298.93
33406.423
34411.01
35380.302
36242.922
36866.427
37382.866
37703.061
37893.79
37948.792
37860.731
37686.388
37398.142
37060.858
36635.452
36204.049
35718.718
35226.563
34727.326
34214.548
33693.067
33167.034
32614.902
32032.857
31432.468
30701.903
30078.094
29301.616
28730.282
27425.83
26625.121
25542.713
24438.538
23104.437
21709.516
20346.076
18956.348
17601.979
16291.761
15016.048
13826.228
12713.303
11653.74
10743.943
9834.2609
9048.7891
8239.1811
7450.0126
6810.8571
6174.9039
5583.1959
4948.3711
4250.2836
3684.5838
2749.7189
1985.5007
937.27891
-34048.207
-29504.238
-24091.357
-25332.256
-21870.535
-22542.541
-21480.92
-19019.473
-18441.899
-16264.866
-14524.051
-12157.475
-10879.464
-8019.4173
-6556.2854
-3991.8699
-2572.8995
-121.35093
1452.21
3335.6711
4827.9457
6531.6598
8065.7165
9283.8024
10972.661
12059.939
13522.889
14715.013
16063.906
17167.009
18598.031
19635.934
20963.296
22062.558
23419.664
24376.746
25663.393
26824.196
27859.807
28641.255
29644.017
30295.255
30852.093
31292.104
31632.928
31885.8
31978.508
32020.431
31921.396
31768.478
31507.915
31228.285
30851.558
30482.489
30049.883
29617.224
29154.311
28687.839
28194.373
27694.705
27170.567
26612.288
26016.086
25422.016
24727.525
24029.318
23323.807
22349.746
21457.108
20464.01
19560.906
18435.124
17464.179
16415.691
15325.777
14266.93
13235.317
12252.139
11308.607
10431.971
9625.6811
8882.5399
8169.528
7526.2268
6961.7774
6449.4498
5933.9252
5395.4906
4879.4575
4297.3939
3718.7905
3139.124
2301.3961
1695.2828
782.20856
-25632.286
-18609.066
-13534.283
-14882.451
-13193.452
-13212.038
-12226.302
-11321.847
-10238.112
-9185.668
-7560.3248
-6542.7016
-4800.264
-3552.5767
-1871.1281
-503.07371
791.59564
2447.9502
3549.0904
4905.1471
6300.5004
7471.5953
8622.4319
9791.4927
10969.034
11806.706
13103.229
13822.801
14991.304
15818.597
16908.189
17664.119
18785.213
19621.869
20548.558
21342.882
22474.751
23193.491
24059.29
25329.653
25633.538
26279.331
26827.797
27206.56
27531.287
27710.58
27776.21
27781.793
27688.573
27504.601
27268.878
26983.079
26619.218
26252.119
25827.261
25388.519
24929.53
24453.369
23959.836
23455.112
22938.107
22376.997
21841.307
21266.931
20552.755
20055.935
19295.277
18546.205
17710.497
16867.747
16072.54
15103.599
14065.014
13211.077
12283.359
11422.105
10654.796
9883.5999
9169.2951
8511.3883
7875.2502
7315.5734
6777.4387
6299.2655
5860.6207
5418.6003
5025.7559
4560.8595
4183.679
3656.3742
3244.3265
2654.1458
2069.4247
1457.1537
648.15036
-12219.883
-8720.4748
-5934.732
-7103.4653
-5073.6962
-4260.9753
-5358.4974
-3282.1696
-3297.747
-2274.6861
-1685.6979
-354.93483
-181.6674
1487.9505
1765.1865
3047.4335
3679.3148
5072.5158
5317.1789
6766.5012
7237.1859
8133.1684
8883.1045
9638.3057
10323.305
11046.056
11780.389
12332.652
13188.91
13644.001
14437.583
14941.469
15754.238
16159.469
16944.468
17492.295
18216.925
18736.305
20203.932
20510.944
21269.48
21527.661
21807.108
22045.09
22171.036
22248.473
22224.627
22173.81
22027.827
21848.815
21613.758
21347.279
21029.453
20700.062
20342.955
19954.737
19569.742
19154.142
18733.135
18291.281
17841.485
17378.635
16886.686
16352.712
15907.708
15241.069
14768.253
14133.291
13495.621
12931.452
12197.942
11551.792
11018.822
10240.648
9387.8771
8793.6801
8194.5996
7645.9294
7140.781
6671.8942
6221.3595
5841.6975
5450.4742
5116.0493
4794.8017
4448.9738
4161.6889
3755.7948
3495.2169
3006.9041
2704.2888
2151.2347
1692.8329
1072.502
405.46844
-734.37714
2768.8935
2908.633
2298.0638
4364.0034
3252.2421
3501.5469
4741.1423
4370.219
4589.0516
5521.1984
5243.1552
6000.0422
6226.6308
6461.6147
7055.8932
7230.2368
7626.1152
7855.2514
8524.2987
8510.9872
9217.289
9363.743
9858.3042
10242.289
10562.144
10984.225
11318.958
11764.804
11979.707
12554.412
12757.731
13218.192
13461.844
13963.782
14083.197
14582.428
14851.942
15077.23
15220.983
15540.091
15696.15
15777.231
15902.85
15929.218
15951.292
15854.701
15800.355
15636.614
15485.455
15274.229
15058.965
14787.251
14533.95
14229.101
13921.899
13600.181
13262.785
12905.684
12547.209
12175.676
11774.275
11380.837
10993.743
10524.118
10142.158
9681.6038
9220.2192
8776.6952
8301.7459
7852.8551
7454.1636
6861.3531
6658.8988
6280.9877
5929.7132
5555.9327
5237.2102
4937.9268
4665.8352
4416.1432
4194.0833
3981.7736
3784.269
3595.5382
3380.3686
3220.0013
2924.0377
2797.6405
2356.9758
2228.1885
1653.2966
1387.0707
758.07708
290.84106
11381.166
13202.194
10923.894
12647.702
11412.281
12464.333
11731.423
12472.759
11744.1
12133.752
11689.96
11907.896
11212.635
11372.193
10920.093
10992.817
10322.219
10782.652
10104.869
10342.639
9911.8648
10156.754
9738.5704
10094.71
9776.9257
9935.9654
9951.168
9939.539
9979.6643
9970.6007
10114.044
9935.1625
10172.885
10082.727
10206.685
10136.576
10378.177
10156.987
10505.163
10379.92
10478.125
10482.757
10429.581
10386.917
10369.115
10289.086
10188.598
10124.565
9984.1498
9851.3899
9688.0687
9514.9156
9301.4572
9094.6231
8853.0874
8597.5954
8340.5902
8060.1439
7773.8671
7492.3122
7187.5412
6896.4495
6616.7109
6299.9793
6040.3921
5742.5001
5467.0703
5211.8927
4933.2158
4711.2998
4448.7382
4170.5584
3953.9183
3842.9794
3675.1009
3494.3491
3325.6415
3169.5431
3032.4547
2913.3006
2802.4437
2709.0649
2631.0894
2536.5373
2488.4947
2372.4691
2335.3172
2146.0048
2115.5586
1767.3945
1724.4486
1203.3626
1082.6027
469.66184
39.50681
21981.96
23452.305
19629.875
19538.504
19584.566
20255.08
18780.397
19865.027
18796.184
18223.66
18206.282
17069.837
16369.554
15964.497
15004.604
14177.319
13600.795
13027.989
11930.033
11938.964
11009.743
10935.218
10179.985
10032.183
9350.843
9339.9922
8792.2212
8598.8597
8329.6664
8075.1996
7828.3689
7549.742
7457.2934
7051.403
6983.9866
6684.8868
6513.4241
6296.5035
6180.6416
5963.0938
5843.4689
5684.0388
5518.7706
5424.6366
5297.0721
5172.3493
5033.5544
4946.6675
4797.0347
4679.3604
4544.4486
4418.1729
4250.4252
4110.7153
3934.4206
3751.3181
3564.2831
3360.8266
3145.5757
2924.9604
2702.9799
2472.5418
2239.2627
2023.1912
1792.3664
1592.0506
1409.2879
1222.6639
1079.6129
953.58455
820.88714
788.4727
702.03949
670.75789
481.04522
445.76565
520.77145
565.01123
681.58001
766.80166
884.59668
994.28013
1101.0887
1191.7353
1282.778
1299.7547
1372.6613
1266.6532
1328.9113
1038.1679
1145.1181
662.95055
710.74413
118.94936
-103.77995
34505.033
36577.652
27915.038
31016.569
29517.586
29513.653
28683.934
28605.072
27117.555
26679.333
25318.23
23983.795
22803.458
21587.384
19792.536
18894.408
17342.486
16246.493
14862.568
14133.56
12700.34
12185.044
10709.022
10303.006
9262.6347
8841.4714
7935.9584
7552.4658
6844.6479
6242.7727
5707.1332
5092.5735
4553.5312
3927.5003
3561.3426
2836.7865
2556.8856
1905.3732
1610.5735
1104.1741
778.82093
410.30762
162.42584
-131.19753
-332.4231
-516.60644
-682.74544
-787.66297
-922.63336
-1019.7079
-1113.8071
-1213.9449
-1333.1317
-1436.8777
-1571.8712
-1723.7682
-1868.3626
-2041.317
-2221.1086
-2385.0802
-2560.7692
-2728.2607
-2858.1527
-2991.0938
-3080.8868
-3133.089
-3170.6559
-3166.3518
-3111.9847
-3039.892
-2910.5284
-2769.8106
-2589.1439
-2344.6198
-1867.5181
-1661.0027
-1458.9577
-1166.3259
-925.24024
-701.15964
-435.33712
-240.7686
-3.2002583
159.02544
345.50654
450.01071
588.26741
594.56825
679.26895
575.57013
611.32417
380.03732
307.07384
-8.968255
-244.23287
49091.535
38705.159
34887.524
35677.391
35229.605
35276.002
34344.616
33688.421
32932.432
31189.939
29802.593
28395.691
26461.643
24706.319
22918.634
21418.422
19244.131
18160.305
16072.04
15037.712
13232.55
12580.495
10901.201
10096.986
8494.3853
7882.4621
6582.4437
5968.6345
4807.899
4171.4779
3238.3768
2408.8947
1620.7669
809.45895
51.478476
-751.77994
-1414.0898
-2177.0764
-2740.9382
-3399.0713
-3905.8866
-4393.9889
-4816.0381
-5205.9827
-5500.793
-5761.4702
-5995.4836
-6147.175
-6303.3543
-6400.2846
-6495.026
-6561.5029
-6641.2722
-6691.4396
-6769.6481
-6843.7019
-6921.0832
-7016.4213
-7109.3992
-7202.1411
-7301.6944
-7378.1992
-7450.9362
-7498.869
-7524.8375
-7508.5001
-7447.9846
-7330.8004
-7181.197
-6968.5847
-6722.3249
-6438.1366
-6077.6893
-5691.2793
-5398.7202
-4861.6404
-4194.9105
-3776.8128
-3258.1284
-2801.8256
-2362.0881
-1918.946
-1520.794
-1147.1152
-811.71467
-530.70253
-284.808
-127.50318
37.352626
30.886893
119.27948
-77.437991
17.074004
-330.25359
-263.94509
53234.796
53805.885
47330.259
46719.729
45890.729
45121.266
43960.148
43209.624
40512.234
39731.792
36727.588
35029.006
32090.208
30322.695
27365.486
25387.941
22849.505
20984.439
18454.407
17092.478
14760.202
13306.869
11482.34
10285.954
8611.3638
7676.3879
6137.6467
5115.7946
3854.8913
2835.6489
1531.6748
497.44309
-688.63198
-1904.6686
-2900.9276
-4127.576
-5056.0979
-6167.9797
-7032.1046
-7989.0953
-8713.6983
-9481.2868
-10068.777
-10613.468
-11030.565
-11368.649
-11647.195
-11818.973
-11955.392
-12049.004
-12104.286
-12144.171
-12189.734
-12228.514
-12286.821
-12368.771
-12456.858
-12568.958
-12691.343
-12811.931
-12917.507
-13012.284
-13055.944
-13060.504
-13007.765
-12867.174
-12661.232
-12404.465
-12022.748
-11580.117
-11063.164
-10467.729
-9799.0126
-9157.3575
-8432.8663
-7786.9327
-7016.3175
-6319.411
-5578.6814
-4924.277
-4280.0776
-3697.5793
-3155.1348
-2677.2337
-2236.2423
-1861.9523
-1517.0893
-1243.2648
-951.30393
-836.38447
-505.73245
-622.36329
-283.71161
-594.51388
-408.26188
76918.558
71038.391
56882.626
59262.887
54693.109
55684.444
52557.869
51090.425
48546.895
46318.225
43355.382
40115.313
37531.486
34117.684
31303.443
28233.265
25489.126
22719.05
20077.051
17843.447
15138.88
13453.959
10990.911
9691.3708
7726.1258
6595.0892
4524.8647
3508.7349
1743.1529
541.79412
-1029.7365
-2222.0191
-3816.5238
-5120.5229
-6495.9992
-7919.1659
-9103.4475
-10438.132
-11530.047
-12649.268
-13596.607
-14506.021
-15226.186
-15894.312
-16414.762
-16841.524
-17187.887
-17406.995
-17592.141
-17698.374
-17761.185
-17786.884
-17813.614
-17808.182
-17823.548
-17840.206
-17861.617
-17898.905
-17941.324
-17969.553
-17996.666
-17994.931
-17945.154
-17860.977
-17698.302
-17465.544
-17177.12
-16769.95
-16280.389
-15689.479
-15037.357
-14283.465
-13490.562
-12608.777
-11690.617
-10820.122
-9871.7591
-8930.7583
-7991.2564
-7099.9521
-6253.4648
-5456.1733
-4717.5273
-4053.7151
-3435.6255
-2901.5435
-2411.8487
-1995.0366
-1625.179
-1347.4571
-1017.7936
-1013.435
-672.92079
-762.28618
-358.53285
88788.22
83092.224
67106.172
68580.608
66975.87
64782.857
61874.723
60422.091
57008.634
53859.735
50036.553
46708.445
42556.736
39016.42
35278.603
31866.513
28249.51
25474.603
22005.876
19524.341
16859.525
14587.484
12073.031
10087.414
7930.2115
6247.4224
4501.5304
2900.503
1121.385
-385.27238
-2080.2029
-3700.3588
-5361.6687
-7058.4304
-8805.8398
-10619.837
-12200.621
-13906.433
-15373.236
-16870.914
-18167.314
-19372.289
-20397.082
-21284.041
-22001.69
-22561.54
-22973.576
-23258.05
-23430.873
-23520.187
-23537.754
-23528.346
-23499.754
-23477.903
-23473.84
-23509.253
-23571.165
-23677.361
-23797.021
-23941.781
-24065.871
-24176.892
-24210.341
-24198.465
-24027.605
-23805.193
-23368.563
-22877.408
-22163.045
-21348.876
-20397.846
-19299.342
-18092.088
-16842.171
-15506.29
-14167.662
-12816.03
-11523.588
-10268.808
-9102.2877
-8011.2995
-7026.5705
-6135.9175
-5354.9169
-4650.2231
-4051.4259
-3500.2168
-3033.1434
-2588.3015
-2182.7174
-1807.1431
-1478.5324
-996.00369
-781.4005
-353.11858
122176.42
82553.314
79284.323
77823.797
75801.768
70847.773
69761.692
67266.44
62501.224
59287.694
55061.699
50547.017
46312.141
42176.027
37889.538
33707.634
30074.493
26625.142
22641.007
20490.876
16998.426
14910.645
11817.517
9985.2439
6992.4624
5876.2607
3292.2272
2002.3275
-357.27682
-1882.8724
-3980.5769
-5815.9316
-7721.6742
-9757.2595
-11673.829
-13949.27
-15629.25
-17668.338
-19362.507
-21116.694
-22615.788
-24020.841
-25197.615
-26204.293
-27035.63
-27643.909
-28132.722
-28434.985
-28625.89
-28706.476
-28723.137
-28685.241
-28644.443
-28592.9
-28581.477
-28600.1
-28663.242
-28761.941
-28901.734
-29041.313
-29186.287
-29287.78
-29332.591
-29283.138
-29100.181
-28784.983
-28252.46
-27586.404
-26828.162
-25840.554
-24665.498
-23315.789
-21908.485
-20360.832
-18759.73
-17145.13
-15550.262
-13972.954
-12480.379
-11067.196
-9776.633
-8599.2417
-7552.1103
-6617.4386
-5800.6761
-5076.8446
-4430.1357
-3849.6808
-3292.0306
-2778.3363
-2277.4928
-1731.1943
-1271.8309
-830.42952
-317.78844
-169917.63
-180365.18
-178670.34
-186049.73
-189402.18
-191085.14
-200463.62
-193896.03
-195417.58
-192348.38
-191693.24
-184842.34
-180738.29
-181769.33
-158107.6
-150660.44
-164369.28
-154460.23
-167931.44
-169139.86
-174745.24
-169090.23
-176377.29
-175237.27
-176085.31
-170850.94
-169162.79
-166381.08
-163080.31
-141702
-95928.448
-115057.74
-103601.48
-109443.77
-111307.91
-111435.99
-114480.24
-113342.34
-114446.79
-112806.58
-111656.03
-112069.32
-104541.01
-111328.36
-103345.72
-82482.322
-86195.846
-86684.974
-88280.636
-92698.772
-92303.706
-94686.308
-95173.649
-93861.928
-94429.638
-94477.184
-89571.431
-88997.536
-91130.613
-70111.738
-47857.001
-57097.927
-48774.552
-55542.48
-56412.025
-57207.286
-58336.734
-57949.802
-59789.91
-58598.046
-58806.141
-56989.511
-55715.661
-56575.437
-53463.113
-27622.432
-26655.366
-27673.701
-28260.402
-30049.586
-30546.207
-32252.337
-32265.8
-32899.696
-32669.096
-32850.147
-33179.729
-31750.753
-32798.906
-32059.203
-2901.5141
-2533.1082
-2292.3584
-4200.8436
-4564.0141
-4618.8603
-5773.8376
-7095.3386
-5019.0846
-7736.7677
-6347.7339
-5240.8325
-8217.7386
-1601.1469
-14426.375
18815.263
25153.615
21295.14
22813.794
21320.283
22415.862
20579.285
21098.572
21402.549
18221.412
21401.106
17433.32
16644.076
20656.255
5591.5869
46791.179
51414.622
49348.531
49530.155
50495.062
49837.369
49948.132
47782.701
49719.048
43231.373
46524.093
43676.416
39002.602
47144.666
19307.624
61556.428
77910.128
67515.558
73157.994
71099.963
74382.644
71848.766
72947.52
73352.068
69972.916
75078.981
66698.946
66503.271
71953.152
48032.588
91536.538
109099.14
96409.489
103733.36
102600.23
101671.22
102428.12
100977.72
102461.46
96593.354
97207.656
97427.161
86036.622
97351.435
62357.279
126748.22
129292.95
126618.21
131780.08
132400.75
135183.97
134082.4
136194.31
135534.84
131988.95
136268.36
119674.65
126541.13
127019
94466.408
139407.36
151438.86
143335.16
145092.46
143063.1
145498.37
145957.49
144928.87
142473.57
140320.91
139339.98
143153.43
127226.54
148016.03
80695.365
178399.78
222767.71
195976.75
215968.48
218750.76
216113.87
217179.54
224364.62
220395.96
225415.23
215573.97
209024.46
214639.78
198629.4
193697.49
197612.11
166966.19
156964.43
163094.39
170290.55
177468.39
174210.17
166356.54
156987.92
157751.85
161069.65
160002.39
157320.04
168199.29
144867.68
201842.71
180919.39
223172.76
224479.23
232507.52
251121.83
236154.59
218861.62
250995.31
246424.68
239073.02
229597.57
220564.19
212025.17
173793.58
134484.47
137045.34
154600.24
158266.3
164201.32
168929.67
172790.78
175850.4
180174.44
172249.41
169257.49
159315.63
159298.53
156041.83
148782.42
91389.882
105702.32
103346.22
112953.69
119064.31
115169.02
121461.48
118055.69
115959.96
120366.52
115097.19
117652.33
111073.48
99908.923
101997.73
92298.393
106294.51
108581.31
111855.65
113866.59
117746.32
118146.83
119158.21
118606.46
115598.21
114600.82
109672.37
106787.18
102933.26
95157.781
91538.084
98944.385
94829.178
105076.78
104423.25
106623.46
110213.5
109032.63
109887.18
109628.21
106022.86
103918.6
98605.463
93734.838
91586.252
84087.936
88570.301
92231.359
95834.767
96111.296
99788.633
98972.06
99225.013
98378.033
96268.637
95760.22
92615.994
90466.659
87221.091
81049.646
80176.726
85322.457
86082.177
90214.668
88577.75
90648.422
91151.154
91468.939
90455.499
89769.131
87221.426
85428.485
83145.916
78407.987
78421.696
76189.805
78925.118
80316.094
83622.327
85127.643
86441.331
86837.264
87301.681
86090.442
86145.906
84536.865
82409.396
79945.088
77030.141
74488.802
71851.94
72965.471
74451.999
75827.116
74868.643
76474.604
75701.922
76175.167
74276.141
74756.651
72770.641
71185.755
70295.78
68341.188
68032.364
66083.548
67898.507
68654.147
70162.846
70955.022
71751.59
71743.278
71859.731
71487.29
70632.239
69297.147
68351.257
66769.698
65051.417
63993.313
61826.142
62169.569
63461.274
63867.433
64007.213
64793.094
64429.886
64539.284
63738.313
63663.612
62522.338
61458.523
60437.041
58935.096
58307.11
56301.899
57076.595
57167.196
57530.166
57444.612
58191.121
57811.245
57444.918
56959.187
56597.912
55540.427
54698.017
54026.75
53485.644
52957.926
51295.758
51538.182
51890.047
51870.839
52436.294
52606.965
52138.278
52235.684
51807.115
51333.96
50545.221
49930.605
49572.851
48656.22
48011.24
46143.573
46654.087
46662.262
46472.182
46382.459
46644.269
46363.051
46307.434
45721.335
45580.863
44903.097
44505.962
43960.312
43577.362
43494.922
41621.311
41366.234
41049.972
41272.029
40695.884
41271.466
41660.152
39933.163
40140.461
39832.696
39322.066
38852.622
38538.666
38500.149
37973.275
36713.549
36963.976
36667.883
36219.11
36230.79
36718.893
35520.578
36020.998
35226.655
35216.638
34633.881
34538.106
34744.747
34402.813
34923.483
32430.558
32257.584
31896.22
31697.836
31482.409
31447.657
31297.377
30805.731
31037.865
30384.34
30198.138
29711.133
29772.087
29523.29
29398.341
28417.746
27967.084
27749.711
27438.42
27118.19
27094.079
26438.233
26453.438
25926.717
25998.82
25535.361
25603.927
25121.407
26041.673
25843.271
24564.942
24259.996
23956.423
23463.153
23092.862
23485.873
22852.421
22845.517
22792.273
22339.861
21919.357
21813.298
21952.158
21878.635
21990.462
21295.397
20583.113
20523.093
19851.678
19893.522
19571.566
19162.257
19083.137
18543.435
18648.543
18391.682
18454.493
18402.068
18774.894
18717.544
17753.375
17486.492
16951.624
17025.918
16239.185
16535.122
16022.697
15867.606
15859.312
15598.714
15588.857
15146.518
15385.791
14959.56
15121.969
15507.102
14508.82
14769.474
13917.664
14009.973
13709.856
13384.753
13225.09
12840.227
12633.933
12204.746
12444.659
12438.653
12884.389
12740.285
12251.75
12028.468
11567.154
11475.502
11063.834
11238.025
10793.884
10871.324
10280.589
10735.677
9990.2321
10072.104
9643.5042
10019.313
10140.967
10328.444
9731.6625
9798.7977
9221.7518
9076.2368
9068.7031
8314.4988
8390.3799
7959.3959
7811.5983
7807.2678
7224.1807
7373.1595
7332.8464
7540.6862
7767.4101
7608.6871
7239.3245
7197.7367
6750.6937
6770.7794
6345.787
6367.1701
6014.0638
6123.6442
5856.4306
5924.8956
5364.323
5803.5889
5505.6296
6063.9094
5762.9746
5295.4048
5365.6096
4923.7854
4992.27
4634.9843
4513.8078
4147.2906
3902.552
3510.0522
3107.3519
3445.6725
2732.925
3150.0331
3768.6411
4026.8294
3352.0014
3532.9118
3084.7964
3185.5919
2645.9854
2559.1211
2270.7745
2196.4749
1882.171
1920.0089
1575.6776
1708.0308
1448.4563
2141.5231
2104.3408
1912.2522
1639.0754
1420.1624
1396.2654
880.19486
856.33107
362.64503
242.49635
-249.65401
-353.0375
-521.06664
-1055.2802
-964.66538
131.45582
202.93378
-141.41187
-17.995205
-538.40731
-500.47793
-962.4847
-1050.1731
-1406.6306
-1495.1101
-1751.754
-1992.2504
-2337.7027
-2632.2178
-2560.1192
-1686.3898
-1576.9387
-2029.8758
-1894.3016
-2433.8317
-2288.1884
-2776.1313
-2898.999
-3479.8878
-3601.5497
-3924.0566
-4270.0134
-4339.0257
-4988.3582
-4986.6049
-3858.8733
-3577.3036
-4019.4549
-3957.9715
-4494.1502
-4320.8051
-5022.9148
-5007.1416
-5667.4401
-5570.0717
-6025.2763
-6175.7155
-6327.1024
-6860.6261
-6912.0483
-5823.4205
-5586.8841
-6114.7716
-5975.2119
-6491.4159
-6649.8253
-6987.9877
-7215.5561
-7497.3615
-7726.0006
-8088.9428
-8434.0033
-8602.3439
-9334.8103
-9275.5092
-7993.6177
-7746.7208
-8235.0336
-8162.1197
-8837.189
-8730.8599
-9348.0705
-9370.3767
-9937.9423
-10006.823
-10427.636
-10640.461
-10873.762
-11361.43
-11483.78
-10223.656
-9998.9779
-10536.434
-10562.553
-11129.423
-11232.556
-11685.867
-11877.96
-12291.976
-12499.753
-12810.085
-13159.23
-13308.522
-13816.663
-13979.032
-12335.566
-12317.775
-12812.598
-12729.218
-13446.981
-13607.215
-14073.031
-14326.842
-14690.922
-14913.634
-15227.108
-15533.04
-15625.467
-16204.823
-16237.071
-14574.368
-14797.395
-15224.211
-15517.772
-16025.076
-16278.612
-16688.318
-16948.218
-17316.72
-17641.071
-17855.3
-18191.448
-18281.861
-18799.734
-18830.792
-17027.287
-17024.901
-17677.291
-17878.906
-18601.16
-18714.207
-19282.208
-19441.993
-19931.495
-20190.936
-20298.532
-20619.158
-20689.269
-20972.228
-21148.723
-19330.307
-19501.806
-20109.346
-20431.318
-21002.12
-21332.687
-21730.61
-22075.429
-22401.284
-22581.049
-22800.286
-23173.963
-23125.579
-23518.102
-23493.956
-21523.602
-21632.163
-22362.592
-22677.732
-23367.55
-23590.35
-24146.396
-24375.961
-24719.75
-25003.545
-25166.191
-25477.185
-25460.693
-25679.751
-25754.197
-23636.08
-23869.413
-24631.565
-25061.308
-25705.356
-26051.706
-26536.624
-26774.716
-27166.305
-27373.908
-27502.75
-27817.614
-27714.117
-27863.106
-27890.109
-25524.645
-25843.112
-26608.662
-27029.988
-27718.847
-28019.655
-28510.79
-28793.67
-29134.162
-29365.021
-29465.58
-29787.009
-29653.326
-29770.615
-29794.505
-27317.112
-27671.404
-28452.401
-28972.228
-29642.689
-29978.431
-30503.214
-30738.268
-31089.844
-31284.735
-31378.352
-31648.782
-31503.337
-31505.321
-31515.965
-28808.196
-29208.595
-30002.063
-30510.117
-31153.955
-31539.52
-31999.73
-32269.041
-32589.049
-32814.996
-32862.243
-33172.808
-32968.208
-32965.388
-32978.891
-30108.606
-30541.825
-31322.607
-31843.223
-32540.434
-32901.718
-33381.47
-33619.52
-33956.992
-34131.771
-34201.082
-34447.42
-34240.326
-34208.29
-34184.872
-31141.956
-31570.812
-32311.599
-32858.652
-33482.501
-33876.021
-34299.723
-34560.058
-34860.791
-35060.325
-35092.497
-35360.652
-35154.881
-35117.43
-35087.696
-31938.123
-32332.607
-33095.556
-33590.795
-34235.226
-34612.186
-35044.876
-35284.312
-35605.145
-35753.801
-35818.049
-36058.935
-35844.564
-35814.468
-35772.73
-32470.745
-32867.998