/*--------------------------------*- C++ -*----------------------------------*\
  =========                 |
  \\      /  F ield         | OpenFOAM: The Open Source CFD Toolbox
   \\    /   O peration     | Website:  https://openfoam.org
    \\  /    A nd           | Version:  6
     \\/     M anipulation  |
\*---------------------------------------------------------------------------*/
FoamFile
{
    version     2.0;
    format      ascii;
    class       pointVectorField;
    location    "0.899978";
    object      u;
}
// * * * * * * * * * * * * * * * * * * * * * * * * * * * * * * * * * * * * * //

dimensions      [0 1 0 0 0 0 0];

internalField   nonuniform List<vector> 
625
(
(0 0 0)
(0 0 0)
(3.0386516 -0.55874922 0.065024958)
(2.7702679 -1.2378238 0.01307505)
(0 0 0)
(0 0 0)
(2.8014009 -1.2810933 0.010250844)
(3.0692996 -0.60248435 0.063163468)
(0 0 0)
(0 0 0)
(0 0 0)
(2.9707649 -0.72901374 0.051147426)
(2.9038278 -0.89755993 0.038980723)
(2.837595 -1.0668995 0.025813233)
(0.0066980814 0.02785312 0.027237835)
(0.027719404 0.059760893 0.029053551)
(0.06883622 0.088327181 0.032406144)
(0.1266311 0.11362019 0.032879858)
(0.19894749 0.13291012 0.033942985)
(0.28726021 0.1474663 0.03489746)
(0.3866085 0.15446766 0.035752933)
(0.49833017 0.15578799 0.036939826)
(0.62022406 0.14975572 0.038473093)
(0.75109106 0.13710526 0.039494505)
(0.89008257 0.11820915 0.041243506)
(1.0360213 0.092404727 0.042410687)
(1.1881133 0.060932333 0.04414341)
(1.3451326 0.023486171 0.045733568)
(1.5064966 -0.019115679 0.047505155)
(1.6713678 -0.066815629 0.049096089)
(1.8386943 -0.11834123 0.051173238)
(2.0083921 -0.17427678 0.05286268)
(2.1793334 -0.2335162 0.054715685)
(2.35099 -0.29507526 0.056752948)
(2.5232698 -0.35919386 0.058665299)
(2.6954473 -0.42422269 0.060748681)
(2.8669526 -0.49114693 0.063236895)
(-0.007187625 -0.025696049 -0.036190145)
(0.015093714 -0.05020494 -0.031930195)
(0.044873331 -0.083319285 -0.038454697)
(0.093785363 -0.11523247 -0.035106735)
(0.15091925 -0.14671871 -0.035941586)
(0.22481049 -0.18508754 -0.034486299)
(0.30581749 -0.22091793 -0.034075689)
(0.40074021 -0.26297106 -0.031923121)
(0.50346897 -0.30706759 -0.031253571)
(0.61629185 -0.35331897 -0.029062851)
(0.73719052 -0.4042028 -0.027303039)
(0.86591754 -0.45699643 -0.024834352)
(1.0014883 -0.51341926 -0.022535805)
(1.1433215 -0.57213404 -0.019829573)
(1.2908695 -0.63352157 -0.017055554)
(1.4432693 -0.69691448 -0.014028984)
(1.6002301 -0.76228928 -0.01082589)
(1.7604023 -0.82894017 -0.0077958123)
(1.9244582 -0.89663753 -0.0041276954)
(2.0903781 -0.96486707 -0.00086560144)
(2.2587038 -1.0335283 0.0028115815)
(2.4282945 -1.1019386 0.0061108239)
(2.5989853 -1.1700017 0.0093500183)
(0 0 0)
(0 0 0)
(0 0 0)
(0.0051403245 -0.015942722 0.023767937)
(0.024328539 -0.065332377 0.027099957)
(0.061527138 -0.083553012 0.020959492)
(0.10948685 -0.11997323 0.016348858)
(0.17415624 -0.16208919 0.016000502)
(0.24730709 -0.19320204 0.010035311)
(0.33174843 -0.23954304 0.010464959)
(0.42732997 -0.28102975 0.0071639491)
(0.53173701 -0.328263 0.005628018)
(0.64539388 -0.37823587 0.0042848391)
(0.76706064 -0.43110658 0.0028763649)
(0.89614186 -0.48671917 0.0024087946)
(1.0320493 -0.54538994 0.0014985742)
(1.1742169 -0.60639413 0.0011215562)
(1.321759 -0.66952573 0.00099935411)
(1.474226 -0.73489147 0.0011055399)
(1.6310798 -0.80146203 0.0013864327)
(1.7915599 -0.86945203 0.0019692658)
(1.9551827 -0.93815268 0.0028133052)
(2.1214479 -1.0071888 0.0038191607)
(2.2895475 -1.0764546 0.0051076959)
(2.4594654 -1.1451589 0.0067149659)
(2.6298003 -1.2135211 0.0085666841)
(2.8687468 -1.1104727 0.023468501)
(2.93445 -0.9409868 0.037124324)
(3.0011839 -0.77308671 0.050726355)
(2.8978052 -0.53476101 0.059463641)
(2.7255828 -0.46751962 0.056038379)
(2.5532899 -0.40187026 0.05227537)
(2.3806764 -0.33669339 0.048143234)
(2.2085465 -0.27384258 0.044027174)
(2.0372435 -0.21344924 0.03969062)
(1.8673904 -0.15610493 0.035472181)
(1.6995097 -0.10236608 0.031071329)
(1.534284 -0.052917258 0.026843408)
(1.3725608 -0.0079551736 0.022535688)
(1.2148535 0.031529182 0.018360941)
(1.0621224 0.065934186 0.013701683)
(0.91557158 0.09369426 0.010322124)
(0.77560064 0.11544527 0.0061087982)
(0.64345368 0.13077148 0.0021139745)
(0.52031338 0.13923576 -0.0016718351)
(0.40716004 0.14151482 -0.0058385273)
(0.30483836 0.13620964 -0.0086851814)
(0.21679641 0.12496964 -0.013039599)
(0.13961597 0.10654535 -0.014967337)
(0.080196524 0.085486633 -0.020130988)
(0.034622173 0.056505841 -0.021165743)
(0.017387408 0.027513708 -0.017139481)
(0 0 0)
(0 0 0)
(0 0 0)
(0 0 0)
(0 0 0)
(0 0 0)
(2.777718 -1.2489377 0.011940888)
(2.7855804 -1.2600203 0.011805059)
(2.7930765 -1.2707239 0.010948438)
(3.0469398 -0.56951418 0.064560737)
(3.0545916 -0.58049915 0.063931237)
(3.0624189 -0.59126639 0.063486386)
(-0.0065598631 0.016851414 0.01900406)
(0.015605091 0.033998528 0.015175953)
(0.053911328 0.048403602 0.017091279)
(0.10913471 0.059511456 0.01706727)
(0.17903121 0.066326026 0.01786489)
(0.26337531 0.068118346 0.018463051)
(0.35942137 0.063961258 0.019543675)
(0.46733713 0.054560013 0.020666577)
(0.58500578 0.038928914 0.021682258)
(0.71170766 0.017778463 0.023139667)
(0.84669176 -0.0091759478 0.024597844)
(0.98899725 -0.042215553 0.026155335)
(1.137334 -0.080060309 0.027864891)
(1.290998 -0.12326118 0.0295893)
(1.4493171 -0.17086637 0.031555741)
(1.6113949 -0.22278604 0.033384887)
(1.7765099 -0.27834737 0.035639445)
(1.9442319 -0.3371185 0.0375635)
(2.1137888 -0.39883377 0.039801888)
(2.2843286 -0.46237514 0.042179577)
(2.4559962 -0.52775185 0.044384432)
(2.627635 -0.59394007 0.046853141)
(2.7993136 -0.66171031 0.049353326)
(-0.013701831 0.0035243657 -0.00099385436)
(0.009969381 0.003575024 -0.0033704874)
(0.045239096 0.0051251389 -0.0013249357)
(0.097500866 0.0029884461 -0.0013102071)
(0.16492627 -0.0045168378 -0.00029227002)
(0.24515552 -0.014433431 0.00068972804)
(0.3371647 -0.029622468 0.0016835653)
(0.4408037 -0.049630357 0.0028521679)
(0.55382689 -0.074160244 0.0041862672)
(0.67677486 -0.1043663 0.00613956)
(0.8071274 -0.13879927 0.0071986497)
(0.94532979 -0.17863138 0.009488114)
(1.0896008 -0.22269539 0.011319239)
(1.2398512 -0.27104353 0.013448727)
(1.3947787 -0.32340478 0.015733891)
(1.5540426 -0.37916164 0.01788795)
(1.7167039 -0.4382596 0.020652508)
(1.8822876 -0.49957469 0.022753098)
(2.0499403 -0.56332836 0.025678894)
(2.2192375 -0.62860925 0.028278375)
(2.3899615 -0.69533432 0.030796281)
(2.5610948 -0.76265524 0.033608072)
(2.7330436 -0.83056424 0.036144887)
(-0.015939645 -0.012253847 -0.01486204)
(0.0073723009 -0.022767327 -0.014574087)
(0.039191287 -0.03507765 -0.017171823)
(0.091067514 -0.05166385 -0.016524015)
(0.15418184 -0.072597262 -0.016415342)
(0.23047034 -0.093650526 -0.015900687)
(0.31911479 -0.12178753 -0.014894436)
(0.41763202 -0.15129164 -0.013849802)
(0.52692645 -0.1861546 -0.012300214)
(0.64450209 -0.22482463 -0.010953294)
(0.77102979 -0.2670708 -0.0092338883)
(0.90475488 -0.31414394 -0.0071016287)
(1.0450355 -0.36418623 -0.0051991784)
(1.19144 -0.41819514 -0.0028004939)
(1.3428352 -0.47518752 -0.0004021244)
(1.4990313 -0.53520339 0.0021759409)
(1.6587484 -0.59748223 0.0049609651)
(1.8220854 -0.66185922 0.0076251995)
(1.9878649 -0.7279017 0.010718061)
(2.1559188 -0.79514701 0.013458795)
(2.3253101 -0.86323413 0.016546089)
(2.4956676 -0.93128585 0.019611478)
(2.6666531 -0.99948076 0.022618269)
(0 0 0)
(0 0 0)
(0 0 0)
(0 0 0)
(0 0 0)
(0 0 0)
(0 0 0)
(0 0 0)
(0 0 0)
(0.0081563585 -0.0091695786 -0.015788543)
(0.012044095 -0.013255194 -0.0061274287)
(0.012188126 -0.011110653 0.0070554638)
(0.031311353 -0.058414495 -0.019686169)
(0.034178961 -0.061252036 -0.0066846866)
(0.036270711 -0.061371913 0.01158436)
(0.061615066 -0.08454687 -0.023249419)
(0.068750246 -0.083971252 -0.0088128819)
(0.070968697 -0.089354482 0.0085514404)
(0.10798225 -0.11866027 -0.021377592)
(0.11510898 -0.12278717 -0.0094230204)
(0.11515255 -0.12172862 0.0047447419)
(0.16815612 -0.15494433 -0.023198571)
(0.17451822 -0.15726025 -0.012403251)
(0.17855879 -0.16371369 0.0033810692)
(0.23806865 -0.18986655 -0.023426832)
(0.24700198 -0.19467066 -0.011211841)
(0.25020932 -0.19632619 6.6138456e-05)
(0.32154043 -0.23003715 -0.022401054)
(0.32940677 -0.23617295 -0.013531171)
(0.33293226 -0.23780174 0.00014201269)
(0.41440097 -0.27185267 -0.022711724)
(0.42286798 -0.27551624 -0.013274287)
(0.42755713 -0.28263132 -0.0019883496)
(0.51730151 -0.31573701 -0.02172798)
(0.52597242 -0.32356388 -0.013415256)
(0.53090856 -0.327696 -0.0029345409)
(0.62959078 -0.36408673 -0.020822871)
(0.63815844 -0.37048887 -0.013291033)
(0.64360118 -0.37672209 -0.003513239)
(0.74972192 -0.41432444 -0.019879707)
(0.75862729 -0.42263795 -0.012616939)
(0.76442738 -0.42899847 -0.0042724678)
(0.87798708 -0.4688657 -0.018172779)
(0.88673827 -0.47631907 -0.012410446)
(0.89292705 -0.48344417 -0.0039924157)
(1.0131203 -0.52453338 -0.016622562)
(1.0217579 -0.53338892 -0.010891305)
(1.0278617 -0.54145963 -0.0042109614)
(1.1543944 -0.58416302 -0.01456437)
(1.1628923 -0.59330092 -0.0099301703)
(1.1695442 -0.601556 -0.0038943124)
(1.3013583 -0.64546698 -0.012598022)
(1.3098879 -0.65501271 -0.0084840014)
(1.3165668 -0.66377064 -0.0032646068)
(1.4533418 -0.70912198 -0.010233919)
(1.4616665 -0.71899538 -0.0068468108)
(1.4685662 -0.72830235 -0.0025092079)
(1.6095893 -0.7743457 -0.0078298181)
(1.6179475 -0.78456714 -0.0050762943)
(1.6249233 -0.79421249 -0.001499484)
(1.769784 -0.84072085 -0.0052723466)
(1.7779124 -0.85146374 -0.0031109633)
(1.7850449 -0.86137632 -0.00028122506)
(1.9329362 -0.90862538 -0.0024123354)
(1.9411211 -0.91922736 -0.0008574539)
(1.9483129 -0.92945916 0.0011879695)
(2.0989544 -0.97652847 0.00032468864)
(2.1069004 -0.987497 0.0014188405)
(2.1141953 -0.99795637 0.0027644408)
(2.2667729 -1.0451555 0.0033011243)
(2.2746901 -1.0560142 0.0039624953)
(2.2822097 -1.0665677 0.0045905048)
(2.4362734 -1.1133187 0.0062090352)
(2.4441224 -1.124309 0.0063717165)
(2.4515869 -1.1351108 0.0065150063)
(2.6065834 -1.1814102 0.0091194633)
(2.6143763 -1.1922626 0.0089026256)
(2.6221998 -1.2030979 0.0088003855)
(2.9790693 -0.73998639 0.051324473)
(2.9867829 -0.75084479 0.050955697)
(2.9943673 -0.76180509 0.050723469)
(2.9113624 -0.90851567 0.038557024)
(2.9194181 -0.91952979 0.037910447)
(2.9266819 -0.93027365 0.037393591)
(2.8452262 -1.0782444 0.025188122)
(2.8532021 -1.0893186 0.024616593)
(2.8607433 -1.0998437 0.024237232)
(0.019188633 0.023604955 0.014753914)
(0.021357405 0.024554066 0.0046055015)
(0.023849101 0.025801592 -0.0044508216)
(0.041494352 0.054850823 0.015123062)
(0.043145777 0.056388903 0.0045090095)
(0.044561347 0.055500712 -0.010518954)
(0.083125573 0.084723411 0.01930318)
(0.086375465 0.085134221 0.0059868123)
(0.089395745 0.085556556 -0.0070582022)
(0.13922199 0.10865711 0.019545821)
(0.14522976 0.10739456 0.0077352117)
(0.14683684 0.10676954 -0.0052974746)
(0.21371434 0.1281335 0.021202189)
(0.21883718 0.12679509 0.010130746)
(0.2216272 0.12688826 -0.0019124625)
(0.29974389 0.14177765 0.022835438)
(0.30623222 0.13805764 0.012428466)
(0.31024975 0.13657346 0.00067362897)
(0.40032732 0.14764665 0.024301624)
(0.40675499 0.14460185 0.01482102)
(0.41060564 0.14239216 0.0032271292)
(0.51138739 0.14785378 0.02612371)
(0.51782869 0.14405053 0.017064442)
(0.52285816 0.14137764 0.0065982334)
(0.63276043 0.14135382 0.028154261)
(0.63999101 0.13680765 0.019450802)
(0.64506165 0.13321251 0.009824094)
(0.76334612 0.12829168 0.030169641)
(0.7707339 0.12297498 0.022120281)
(0.77610778 0.11879304 0.013203633)
(0.90176295 0.10898979 0.032671024)
(0.90965412 0.10243274 0.02443294)
(0.91531044 0.097180562 0.016909795)
(1.0478697 0.082518013 0.034299237)
(1.0550998 0.075456321 0.028327316)
(1.0610821 0.070339273 0.01950329)
(1.1991375 0.050487062 0.03675048)
(1.2067517 0.043056426 0.030288445)
(1.213192 0.037351382 0.023645858)
(1.3560219 0.012893819 0.038955229)
(1.3636195 0.0049326756 0.033576677)
(1.3702042 -0.0019687741 0.027325476)
(1.5169087 -0.030043489 0.041516136)
(1.5246075 -0.038639046 0.03649874)
(1.5312727 -0.046000366 0.031018723)
(1.6814207 -0.077760149 0.043787646)
(1.6890006 -0.086854426 0.039547025)
(1.695897 -0.094787027 0.034751782)
(1.84844 -0.12991787 0.046570678)
(1.8561717 -0.13916954 0.042774705)
(1.8632043 -0.1478074 0.038630235)
(2.0175686 -0.18553737 0.048993226)
(2.0254066 -0.19551825 0.045754055)
(2.0324714 -0.20449079 0.042310364)
(2.188352 -0.24457687 0.05153954)
(2.1959815 -0.25480915 0.048961238)
(2.203244 -0.26423351 0.046189814)
(2.3597111 -0.30632327 0.054157029)
(2.367558 -0.31663585 0.052058759)
(2.3748261 -0.32660928 0.049847035)
(2.5318537 -0.37004629 0.056698372)
(2.5394372 -0.38100282 0.055051028)
(2.5468218 -0.39104853 0.053635926)
(2.7034786 -0.43563852 0.059345909)
(2.7113025 -0.44628848 0.058224438)
(2.718907 -0.45675494 0.05707378)
(2.8755534 -0.50200431 0.062246956)
(2.8830987 -0.51301528 0.061257194)
(2.890787 -0.52378945 0.060518503)
(0.0007828567 0.0086186808 -0.010997998)
(0.024660233 0.036360318 -0.012580355)
(0.064600762 0.041043888 -0.0074840934)
(0.12369948 0.053165495 -0.0080634896)
(0.19624314 0.056554953 -0.0057723579)
(0.28232481 0.055379358 -0.0030043042)
(0.38040831 0.049441084 -0.0013723641)
(0.48942455 0.036693285 0.0012058293)
(0.60870822 0.018649234 0.0036508601)
(0.73645562 -0.0054192897 0.0063704223)
(0.87267244 -0.034972101 0.0088649733)
(1.0152377 -0.069947919 0.012077285)
(1.1640144 -0.11059726 0.014657256)
(1.3182887 -0.15604954 0.018055135)
(1.4770004 -0.20565619 0.020996303)
(1.6393834 -0.25943544 0.024265477)
(1.804873 -0.31680654 0.027570978)
(1.9728225 -0.37706505 0.030811605)
(2.1425502 -0.43982134 0.034192182)
(2.3135832 -0.50466123 0.037407804)
(2.4854795 -0.57073451 0.0406942)
(2.6574561 -0.63770295 0.043893272)
(2.8297768 -0.70560812 0.047121183)
(-0.0093553137 0.0051388984 0.0011795777)
(0.017367616 0.0067173792 0.0010410431)
(0.057074324 -0.00017756526 0.0012399542)
(0.1149433 -0.0027484493 0.00077861345)
(0.18292606 -0.012399111 0.00074151412)
(0.26673906 -0.026071867 0.0016453644)
(0.3599352 -0.043813138 0.0022425721)
(0.46549618 -0.066464527 0.0031746195)
(0.58000311 -0.094387519 0.0041938663)
(0.70385031 -0.12672323 0.0054940044)
(0.83517328 -0.16453682 0.007010178)
(0.97401023 -0.20629975 0.0084270089)
(1.118728 -0.25319885 0.010378757)
(1.2694562 -0.30370997 0.012263954)
(1.4247249 -0.35802174 0.014139064)
(1.5841133 -0.41592485 0.01645313)
(1.7469785 -0.47640653 0.018690267)
(1.9126739 -0.53941991 0.021044009)
(2.0805195 -0.60438411 0.023607181)
(2.2500281 -0.67073721 0.026062707)
(2.4209801 -0.73798462 0.02888368)
(2.5919115 -0.80573796 0.031422268)
(2.764266 -0.87438402 0.034095211)
(-0.012509889 -0.010034128 0.011651241)
(0.019038722 -0.01524995 0.008407713)
(0.055724554 -0.043205504 0.013916279)
(0.10784727 -0.050627284 0.0081391997)
(0.1759183 -0.079007958 0.0093959744)
(0.25433854 -0.10477606 0.0076997008)
(0.34406956 -0.13248326 0.0070759363)
(0.44522736 -0.16748196 0.0064899658)
(0.55521637 -0.20475003 0.0062151385)
(0.67411149 -0.24637252 0.006232707)
(0.80128319 -0.29193692 0.0061140426)
(0.93517612 -0.34145802 0.0066698309)
(1.0761202 -0.3941296 0.0070625983)
(1.2226243 -0.45069796 0.0077349077)
(1.3741043 -0.50974456 0.0086563822)
(1.5302439 -0.57170805 0.0097286317)
(1.6901393 -0.6357988 0.010933008)
(1.8532493 -0.70163867 0.012316943)
(2.0189897 -0.76895352 0.013864184)
(2.1868749 -0.83704419 0.015623743)
(2.3562049 -0.90565923 0.017480763)
(2.5266201 -0.97445887 0.019275386)
(2.6976407 -1.0427715 0.02168972)
(0.0035411114 0.0082533629 0.0090163395)
(0.0038013742 0.0093327245 0.0036367027)
(0.0066642502 0.008991338 -0.0023239953)
(0.028280559 0.032672845 0.0073132517)
(0.032797562 0.03272949 0.00053018201)
(0.032719394 0.031593654 -0.00778088)
(0.067705068 0.044662241 0.0089012577)
(0.071107175 0.042150286 0.0027236679)
(0.073579458 0.042598072 -0.003264063)
(0.12252087 0.055229714 0.0091011892)
(0.12959049 0.055171302 0.003227194)
(0.13005163 0.052377446 -0.0027598851)
(0.19350478 0.061610718 0.010125973)
(0.19905192 0.05857306 0.004662556)
(0.20209584 0.056469032 -0.00013572847)
(0.27683243 0.061467754 0.011121231)
(0.28363355 0.059203891 0.0065361322)
(0.28684452 0.056290105 0.00021558715)
(0.37298106 0.056945056 0.012955581)
(0.38054438 0.053551916 0.0073462904)
(0.38373511 0.050125919 0.003152061)
(0.48036403 0.046994672 0.013917986)
(0.48756654 0.042699016 0.0096423807)
(0.49162464 0.038589936 0.0046923147)
(0.59775877 0.030439274 0.0158558)
(0.60548616 0.02574469 0.011566463)
(0.6100372 0.020929985 0.0072130457)
(0.72419749 0.0091037898 0.017365721)
(0.7320421 0.003034228 0.013400212)
(0.73671067 -0.0025070035 0.0094854566)
(0.8589018 -0.019026119 0.019188087)
(0.86673776 -0.025713446 0.015887137)
(0.8720435 -0.031180576 0.012207572)
(1.0004302 -0.052207336 0.021338233)
(1.0086062 -0.059318387 0.01782218)
(1.0139173 -0.065856547 0.014456942)
(1.1484626 -0.090564475 0.023379398)
(1.1564107 -0.098086264 0.020290022)
(1.1622568 -0.10509868 0.017305639)
(1.3016719 -0.13395582 0.025646317)
(1.3097982 -0.14203974 0.022975821)
(1.3156926 -0.14999413 0.020058365)
(1.4595948 -0.18179355 0.027864187)
(1.4675358 -0.19070061 0.025437223)
(1.473748 -0.19879386 0.023012209)
(1.6212178 -0.23394631 0.030383069)
(1.629283 -0.24302421 0.028199637)
(1.635652 -0.25181852 0.025986878)
(1.7861424 -0.2895637 0.032626795)
(1.7939769 -0.29923052 0.030966512)
(1.8005511 -0.30844434 0.029028221)
(1.9532445 -0.3483897 0.035424555)
(1.9612449 -0.35854747 0.033707295)
(1.9679612 -0.36804472 0.032143637)
(2.1224787 -0.41000048 0.037971394)
(2.1303463 -0.42019893 0.036615077)
(2.1372396 -0.43018926 0.035285634)
(2.2928477 -0.47348312 0.040518676)
(2.3006618 -0.48416938 0.039554617)
(2.3077179 -0.49443914 0.03836765)
(2.4642241 -0.53882139 0.043165301)
(2.4720015 -0.54967691 0.042427722)
(2.4792623 -0.56019825 0.041491196)
(2.6356887 -0.60521755 0.045881831)
(2.643418 -0.61606542 0.045505242)
(2.6508164 -0.62667935 0.044547623)
(2.8073802 -0.67255502 0.048749949)
(2.8150783 -0.68348664 0.04823914)
(2.8227201 -0.69445486 0.047803055)
(-0.0047589872 0.0013406823 -0.0018036539)
(-0.0027628181 0.003781873 -0.0016929442)
(-0.00033803092 0.0026632141 0.00098995738)
(0.020854488 0.0042469076 -0.0049690999)
(0.02526563 0.0042224922 -0.0032017662)
(0.025401763 0.0025969787 -0.0017364006)
(0.058794509 0.0016721517 -0.0031073499)
(0.064372003 0.00041881025 0.00038817064)
(0.065196191 0.00059412642 -8.7632812e-05)
(0.11115817 -0.0014090586 -0.0031270898)
(0.11864281 -0.0032648395 -0.0015371202)
(0.11877026 -0.0062000024 -0.0012659517)
(0.17888297 -0.0088010998 -0.0021570813)
(0.18573602 -0.012322876 0.00055523587)
(0.18720013 -0.012829455 -0.00096510361)
(0.25815973 -0.020213483 -0.0010297501)
(0.26669391 -0.02408046 0.00051663691)
(0.26857114 -0.026737685 0.00019523031)
(0.3507317 -0.035844739 -0.00048493679)
(0.35864338 -0.041302935 0.0013124696)
(0.36129841 -0.043830799 0.00076819188)
(0.45378119 -0.057043592 0.0011230262)
(0.4621591 -0.062351539 0.0030712145)
(0.46521161 -0.065646278 0.0019590139)
(0.56663298 -0.082184733 0.002463338)
(0.57492599 -0.088836452 0.0035508126)
(0.57913365 -0.093155582 0.0029195678)
(0.68891844 -0.11297012 0.0040474276)
(0.69774451 -0.12012815 0.0056050816)
(0.70174634 -0.12433871 0.0044443583)
(0.81940756 -0.14850823 0.0059435798)
(0.82746182 -0.15569053 0.0067709074)
(0.83260054 -0.16145383 0.0058871376)
(0.95682661 -0.18839006 0.0078313606)
(0.96551281 -0.1967556 0.0085277914)
(0.97058527 -0.20244031 0.0077748806)
(1.1009982 -0.23301187 0.0098043543)
(1.1094048 -0.24145605 0.010657795)
(1.1147277 -0.24823603 0.0096320818)
(1.250621 -0.28165987 0.011988908)
(1.2589483 -0.29100147 0.012490693)
(1.2647205 -0.29829909 0.011734139)
(1.4052845 -0.33432875 0.014326691)
(1.413526 -0.34382993 0.014880967)
(1.4196006 -0.35170495 0.01377476)
(1.564028 -0.39036788 0.016745697)
(1.5722585 -0.40032192 0.016933018)
(1.5784739 -0.40870853 0.01613747)
(1.7263286 -0.44940946 0.019297573)
(1.7343989 -0.45964118 0.019562195)
(1.7408891 -0.468648 0.01859404)
(1.8914329 -0.51112826 0.021975557)
(1.89952 -0.52153937 0.021922458)
(1.9062386 -0.53091512 0.02103288)
(2.0588648 -0.57492516 0.024752547)
(2.0669161 -0.5854629 0.024473618)
(2.0737305 -0.59523235 0.023746964)
(2.2280115 -0.64027203 0.02757548)
(2.2358909 -0.65083681 0.027066035)
(2.2430766 -0.66117525 0.026347885)
(2.3983102 -0.70676567 0.030163646)
(2.406445 -0.71766836 0.029763125)
(2.4135054 -0.72804406 0.029187181)
(2.5692179 -0.7739229 0.032989532)
(2.5770457 -0.7846251 0.032518725)
(2.5843177 -0.79537597 0.031777884)
(2.7409397 -0.84169836 0.035585206)
(2.7489124 -0.85266369 0.035164475)
(2.75649 -0.86336962 0.03457689)
(-0.0060067245 -0.0065689761 -0.0078734874)
(-0.0057423532 -0.0073295963 0.0012560609)
(-0.0030477359 -0.0070978145 0.0057800282)
(0.022580475 -0.022132089 -0.0087382567)
(0.027780978 -0.017579023 -0.0016497466)
(0.027058189 -0.019753968 0.0046876326)
(0.054846452 -0.036621586 -0.010516867)
(0.060346806 -0.042216467 -0.0023129563)
(0.062224297 -0.04236662 0.0049337873)
(0.10701659 -0.056825051 -0.011382589)
(0.11200185 -0.055293581 -0.0042785559)
(0.11494884 -0.057498732 0.0027240448)
(0.16980738 -0.076102982 -0.010535626)
(0.17670338 -0.08054958 -0.0034792822)
(0.18027448 -0.08121322 0.0024021182)
(0.24629511 -0.10076794 -0.011296478)
(0.25262718 -0.10367669 -0.005332927)
(0.25747842 -0.10648111 0.0008341888)
(0.33418716 -0.12890314 -0.010305334)
(0.34166334 -0.13273137 -0.0037620676)
(0.34621573 -0.13546975 0.0010172459)
(0.43248494 -0.15943133 -0.0096234972)
(0.43961638 -0.16465866 -0.0045336276)
(0.44545335 -0.16816986 0.00040586252)
(0.54115194 -0.19547512 -0.0087106136)
(0.54899688 -0.200703 -0.0037140535)
(0.55493543 -0.20486725 0.00066963629)
(0.65852423 -0.23445854 -0.00755525)
(0.66624584 -0.2405503 -0.003070358)
(0.67255282 -0.24585609 0.0010818414)
(0.78418092 -0.27753252 -0.0062594915)
(0.79218522 -0.28483618 -0.0021239097)
(0.79900936 -0.29022004 0.0014089307)
(0.91744972 -0.3250297 -0.0044479797)
(0.9254673 -0.33231207 -0.00093770672)
(0.93219545 -0.33889045 0.002227856)
(1.0571419 -0.37548359 -0.0029441071)
(1.0650231 -0.38374401 0.00018660549)
(1.0722148 -0.39077754 0.0032279221)
(1.2029198 -0.42990049 -0.00087598364)
(1.2109313 -0.43837499 0.0019550064)
(1.218196 -0.44616772 0.004273158)
(1.3538498 -0.4871437 0.001190039)
(1.3617419 -0.4962037 0.0034915246)
(1.3692338 -0.50455709 0.0055779878)
(1.5093808 -0.54719288 0.0035021309)
(1.517289 -0.55672204 0.0054052555)
(1.5247749 -0.56546598 0.0071120977)
(1.668734 -0.60973429 0.0058352745)
(1.6766093 -0.61940829 0.0074785622)
(1.6842721 -0.62882714 0.0087405018)
(1.8314315 -0.67390273 0.0083480156)
(1.8393058 -0.68434931 0.0095399251)
(1.8469774 -0.69387332 0.010534635)
(1.9968189 -0.74009668 0.011073907)
(2.0046333 -0.75035032 0.011871243)
(2.0123299 -0.76035296 0.012540739)
(2.1641214 -0.80686329 0.01374484)
(2.1721893 -0.81770195 0.014183381)
(2.1797997 -0.82796958 0.014671327)
(2.3332895 -0.87453416 0.016511907)
(2.341174 -0.88552644 0.016746222)
(2.3487903 -0.89589739 0.016959966)
(2.5034875 -0.94271351 0.019501033)
(2.511303 -0.95373211 0.019362839)
(2.5191236 -0.9642212 0.019289164)
(2.6742771 -1.0107258 0.022293825)
(2.6821391 -1.0215539 0.022028221)
(2.689777 -1.0324301 0.021562312)
)
;

boundaryField
{
    free
    {
        type            calculated;
    }
    bottom
    {
        type            calculated;
    }
    traction
    {
        type            calculated;
    }
}


// ************************************************************************* //
