/*--------------------------------*- C++ -*----------------------------------*\
  =========                 |
  \\      /  F ield         | OpenFOAM: The Open Source CFD Toolbox
   \\    /   O peration     | Website:  https://openfoam.org
    \\  /    A nd           | Version:  6
     \\/     M anipulation  |
\*---------------------------------------------------------------------------*/
FoamFile
{
    version     2.0;
    format      ascii;
    class       pointVectorField;
    location    "0.61";
    object      lm;
}
// * * * * * * * * * * * * * * * * * * * * * * * * * * * * * * * * * * * * * //

dimensions      [1 -2 -1 0 0 0 0];

internalField   nonuniform List<vector> 
625
(
(0 0 0)
(0 0 0)
(4306.7965 -1359.55 -70.048225)
(4145.1468 -2108.4689 329.08649)
(0 0 0)
(0 0 0)
(3767.6432 -1940.0412 345.47524)
(3947.6983 -1200.2355 -54.723646)
(0 0 0)
(0 0 0)
(0 0 0)
(3945.5406 -1422.8984 23.77544)
(4006.8899 -1631.9717 117.95497)
(4270.4433 -1950.6721 230.24519)
(60.267601 96.666261 66.466361)
(161.59118 178.01619 52.773598)
(304.87692 236.77165 43.544371)
(488.04621 272.10539 30.880124)
(690.34312 279.31831 20.449954)
(919.57261 262.07447 10.20179)
(1157.0534 221.4884 -0.45532748)
(1406.1627 159.31462 -11.735425)
(1659.0546 80.652511 -23.631171)
(1910.8045 -13.337434 -36.299053)
(2157.5538 -116.02943 -49.177584)
(2396.0925 -224.61247 -61.576462)
(2621.9632 -334.38945 -72.603287)
(2832.6572 -442.54201 -81.303566)
(3026.5194 -546.59654 -87.556245)
(3202.4304 -645.6234 -91.096916)
(3360.8238 -739.72459 -92.118976)
(3502.6625 -828.77828 -91.479826)
(3628.1167 -913.83664 -88.913084)
(3743.4932 -996.32358 -85.394758)
(3848.0791 -1075.2942 -81.364678)
(3945.6774 -1153.097 -76.400673)
(4041.373 -1230.0541 -72.428058)
(-3.7121594 -68.247433 -100.70223)
(98.456702 -132.95528 -37.513471)
(235.50286 -226.87879 -14.994636)
(383.70078 -294.24823 29.668884)
(548.73896 -359.87936 63.718443)
(734.64567 -440.25987 100.07429)
(920.11965 -506.87762 129.52712)
(1115.9801 -582.32971 160.60793)
(1312.7019 -658.81605 185.4556)
(1512.9415 -737.32538 208.84429)
(1714.1078 -819.92483 227.78424)
(1916.6068 -905.48566 243.8281)
(2120.4577 -995.34694 256.64568)
(2325.1185 -1089.4129 267.0229)
(2530.7451 -1188.068 275.87645)
(2735.7571 -1290.7532 283.45087)
(2938.8701 -1397.0813 290.57322)
(3137.4921 -1505.1085 297.35004)
(3329.1157 -1613.1912 303.77302)
(3510.0411 -1719.237 309.95604)
(3678.761 -1820.6537 315.61477)
(3830.966 -1914.7525 319.86808)
(3986.8953 -2011.0009 325.14274)
(0 0 0)
(0 0 0)
(0 0 0)
(12.967916 -56.185788 89.918512)
(59.465107 -203.29568 118.22444)
(171.65477 -240.95619 114.34875)
(282.97319 -311.62174 119.73421)
(428.79773 -396.13222 138.77463)
(581.99374 -440.58159 142.45409)
(741.27459 -505.32128 161.11202)
(914.82926 -564.03889 173.25305)
(1089.5234 -622.49648 188.20306)
(1269.7176 -683.46185 203.22168)
(1453.3738 -745.88219 217.90222)
(1639.7499 -814.76672 233.06575)
(1828.7395 -887.03822 247.35591)
(2019.0307 -966.87866 261.45441)
(2209.7186 -1052.2624 274.98991)
(2399.7895 -1143.9238 287.58596)
(2587.7929 -1240.8033 299.1915)
(2772.2588 -1341.3036 309.35719)
(2951.0359 -1443.3765 317.85289)
(3121.76 -1544.6463 324.79598)
(3282.1053 -1642.1714 329.91451)
(3430.1348 -1734.5413 333.54101)
(3545.9679 -1810.2597 333.92339)
(3912.0534 -1792.0914 246.45679)
(3615.6087 -1459.0641 130.5007)
(3691.3372 -1302.1183 38.983405)
(3721.2584 -1083.6142 -59.131296)
(3638.3651 -1009.1218 -66.358032)
(3529.0879 -926.9513 -72.675924)
(3412.3236 -842.74107 -78.029079)
(3286.4254 -757.12123 -81.616638)
(3149.4694 -669.30164 -82.41756)
(3001.3692 -580.37851 -80.705852)
(2841.0061 -489.90819 -75.820766)
(2668.9369 -398.45914 -68.748469)
(2485.0488 -306.6103 -59.728315)
(2290.2007 -215.09307 -50.255957)
(2085.8904 -125.48863 -40.965118)
(1872.6668 -39.526139 -33.438436)
(1654.6257 40.613484 -27.963009)
(1442.265 113.79802 -25.96069)
(1207.642 171.03553 -24.653955)
(991.63057 218.14632 -29.356407)
(779.80548 247.13998 -34.147239)
(580.07623 256.89351 -43.048597)
(395.02138 242.90662 -51.20373)
(240.03184 215.55883 -65.87566)
(109.45675 152.91883 -67.004642)
(50.539088 79.663477 -60.895079)
(0 0 0)
(0 0 0)
(0 0 0)
(0 0 0)
(0 0 0)
(0 0 0)
(4050.5736 -2065.3562 333.49803)
(3956.0767 -2024.1263 337.08913)
(3861.7829 -1981.9102 341.33969)
(4217.8634 -1319.4657 -65.896086)
(4128.027 -1280.0178 -61.914241)
(4037.7693 -1240.3548 -58.457706)
(14.077643 40.16117 49.270666)
(104.63068 88.002992 31.35366)
(232.72975 122.79977 36.235276)
(402.2918 138.86245 33.772024)
(604.25908 137.50165 35.477318)
(839.901 110.38344 34.044127)
(1091.6004 61.277302 33.256279)
(1358.756 -9.7772999 31.445646)
(1625.9454 -98.637694 28.423868)
(1885.518 -201.32869 24.858674)
(2130.1081 -310.606 21.30864)
(2352.6252 -422.14141 17.606577)
(2551.0491 -530.3004 14.277961)
(2725.1244 -632.57365 11.747859)
(2877.1854 -727.56372 9.9810596)
(3011.1165 -815.34976 9.2029103)
(3131.0445 -897.00336 9.356715)
(3242.115 -973.74444 10.012615)
(3348.6914 -1047.6718 11.811196)
(3456.9679 -1120.1998 13.242436)
(3570.0636 -1193.6601 15.697442)
(3691.7264 -1269.1796 18.307071)
(3844.4304 -1355.0783 21.181502)
(0.27449013 18.76162 7.2514598)
(112.60508 31.154164 7.4061959)
(265.22902 31.107669 19.009518)
(457.81411 13.14061 32.455258)
(675.51071 -28.800485 42.51797)
(903.52828 -83.95317 55.196471)
(1134.3565 -151.34931 66.025218)
(1359.2761 -229.86639 75.4729)
(1570.9353 -311.64763 82.423843)
(1768.4598 -396.98427 88.082609)
(1948.6727 -481.23313 91.008915)
(2114.4448 -564.35622 92.225985)
(2268.2364 -645.1999 92.043415)
(2414.3334 -724.59308 91.088183)
(2557.5033 -803.74669 89.941095)
(2702.1664 -884.15944 89.239883)
(2852.7665 -967.72091 89.422719)
(3013.048 -1055.8909 90.775675)
(3184.0414 -1150.2432 93.70257)
(3368.6149 -1250.6519 97.640987)
(3563.9295 -1358.6187 103.86914)
(3769.2868 -1471.4962 109.73803)
(3958.1229 -1580.2731 116.44797)
(-17.626944 -13.969812 -26.530465)
(121.60828 -34.56845 -11.627221)
(283.76917 -75.471333 15.440649)
(482.9281 -137.47882 41.605268)
(685.16059 -206.18689 67.229193)
(890.29398 -272.69005 91.685583)
(1088.1744 -348.85043 111.3489)
(1275.4368 -420.29537 126.8782)
(1452.6481 -492.04599 139.64093)
(1620.6781 -563.60702 148.8767)
(1783.1897 -634.00604 155.61679)
(1944.2004 -706.19874 160.74546)
(2107.0056 -780.29108 164.61466)
(2275.5148 -858.54618 167.87219)
(2451.6822 -942.23335 171.1214)
(2637.533 -1032.4761 174.64752)
(2833.3639 -1130.3459 179.00096)
(3038.1866 -1236.0293 184.28474)
(3250.7521 -1349.3858 190.7833)
(3467.3443 -1468.6938 198.13494)
(3683.907 -1592.6954 206.65604)
(3896.3695 -1717.8615 215.17056)
(4069.4459 -1828.2441 221.90655)
(0 0 0)
(0 0 0)
(0 0 0)
(0 0 0)
(0 0 0)
(0 0 0)
(0 0 0)
(0 0 0)
(0 0 0)
(40.258755 -36.237724 -39.186303)
(48.804211 -46.440055 3.5062097)
(41.137187 -28.152927 37.779883)
(135.09329 -190.08213 -3.3138651)
(120.36485 -188.57458 32.551426)
(105.84476 -175.02849 79.710065)
(242.6934 -249.39341 18.16628)
(233.67139 -240.9184 50.02121)
(215.7422 -255.58046 88.955878)
(373.89666 -318.44143 55.233508)
(359.02283 -324.70801 79.183257)
(326.81513 -310.40183 102.75512)
(536.02435 -395.49191 83.449408)
(505.87267 -392.76431 99.174937)
(474.11391 -391.97406 121.02039)
(700.90134 -458.33385 112.69245)
(667.01864 -453.2111 126.48442)
(628.81935 -445.53166 137.28347)
(879.34703 -523.46295 141.08029)
(837.79361 -521.48746 147.48394)
(793.04249 -508.20949 156.08111)
(1065.9455 -593.78166 167.30745)
(1014.5249 -580.91109 170.36581)
(966.74739 -567.84759 173.91932)
(1255.1378 -662.02162 190.33165)
(1198.8328 -648.14925 191.24624)
(1144.0637 -628.72418 191.14967)
(1448.8145 -734.70708 211.20605)
(1386.2967 -714.94427 210.06612)
(1326.1314 -693.08685 207.89925)
(1644.8628 -809.24955 229.03242)
(1577.1263 -785.49175 227.03077)
(1511.8463 -759.41044 223.48882)
(1843.6751 -889.07815 244.41726)
(1770.9788 -860.9553 241.75721)
(1701.0344 -831.87268 238.10919)
(2044.2177 -972.58774 256.93636)
(1967.4645 -941.15761 254.6914)
(1892.9725 -909.00077 251.60545)
(2246.2437 -1061.9621 267.70084)
(2165.6557 -1027.5918 266.24417)
(2087.3187 -992.29113 264.03845)
(2448.7741 -1156.0755 277.0225)
(2364.9846 -1119.4716 276.42088)
(2282.8111 -1081.8478 275.92342)
(2650.6613 -1255.3928 285.25221)
(2563.874 -1217.0899 286.02288)
(2478.4072 -1176.9964 286.99236)
(2850.1422 -1358.6914 293.13339)
(2761.0173 -1318.7939 294.81567)
(2672.2442 -1277.3443 297.32479)
(3045.3304 -1464.2763 300.28319)
(2953.7362 -1423.7168 303.10891)
(2862.5343 -1381.1011 306.73068)
(3233.0391 -1570.7561 307.22657)
(3140.1383 -1529.2388 310.58659)
(3046.9102 -1486.2111 314.82946)
(3411.3356 -1675.0156 313.32927)
(3317.268 -1633.3713 317.12608)
(3222.6225 -1590.1846 321.81445)
(3577.0121 -1775.1947 318.83859)
(3482.1808 -1732.8489 322.81592)
(3386.9888 -1690.1175 327.27467)
(3727.8343 -1868.2612 323.15781)
(3633.2215 -1826.602 327.11111)
(3538.1889 -1784.0211 331.15434)
(3863.066 -1954.2409 326.19763)
(3769.5477 -1912.7323 329.81227)
(3675.1712 -1871.0065 333.79755)
(3891.5135 -1395.9543 27.883771)
(3806.9543 -1358.6101 31.73596)
(3721.8869 -1320.939 35.014094)
(3878.8326 -1576.0551 120.29225)
(3804.8378 -1543.3672 124.57392)
(3718.4883 -1504.5346 127.78407)
(4146.1047 -1895.8359 232.68076)
(4068.2382 -1861.705 236.87676)
(3973.7712 -1819.4671 240.82523)
(90.417682 86.458185 27.328342)
(82.49313 83.518221 -0.22585815)
(79.961866 76.614392 -25.286046)
(170.77832 168.29986 18.926879)
(164.1668 159.04444 -13.273864)
(147.67562 147.7985 -41.460057)
(314.79487 231.44795 15.894341)
(295.46862 219.949 -6.3886565)
(278.02218 209.63669 -38.339546)
(478.59853 262.65998 9.8442258)
(459.61233 249.93844 -12.083318)
(433.26194 242.45852 -33.183007)
(676.87568 274.01772 6.9285526)
(650.16966 262.45015 -9.683378)
(618.69596 254.58724 -25.68286)
(891.32693 256.58597 0.96888086)
(857.0885 248.01935 -9.7485785)
(820.82827 240.75027 -21.562965)
(1120.6298 220.00884 -4.8007277)
(1080.8146 214.49614 -12.736513)
(1038.8554 209.55028 -20.435214)
(1359.1916 163.29573 -11.796366)
(1312.1654 160.08049 -16.26968)
(1265.0507 161.0657 -19.538113)
(1603.4086 90.294279 -21.057079)
(1544.2715 92.984032 -21.23962)
(1488.8707 95.235149 -21.386069)
(1837.4757 3.4122014 -29.854372)
(1787.9261 10.664991 -28.036378)
(1722.5943 18.48744 -27.047524)
(2081.4397 -92.95436 -41.106618)
(2014.7036 -80.022766 -37.231768)
(1948.2018 -67.034098 -34.064508)
(2312.0879 -195.56152 -51.950106)
(2239.4389 -177.10694 -46.426296)
(2168.0162 -158.97866 -42.623719)
(2532.3348 -300.65738 -62.468664)
(2454.8063 -276.7291 -56.57237)
(2378.1692 -253.49951 -52.621338)
(2739.6837 -405.51632 -71.690718)
(2657.714 -376.44529 -66.049634)
(2576.8478 -348.84504 -62.28117)
(2932.2681 -507.70149 -79.197715)
(2846.9174 -474.64333 -74.293984)
(2762.59 -443.2458 -71.061889)
(3109.0486 -606.34636 -84.280645)
(3021.1966 -570.025 -80.358812)
(2934.3225 -535.5845 -77.835044)
(3270.1899 -700.74257 -87.126298)
(3180.4985 -662.09843 -84.301533)
(3091.8442 -625.59399 -82.244906)
(3415.2663 -790.50937 -87.622763)
(3324.8741 -750.90611 -85.250214)
(3235.5828 -712.97673 -83.79951)
(3546.5378 -877.36756 -86.194974)
(3456.4154 -836.9679 -84.624725)
(3366.0877 -798.00891 -82.877772)
(3665.2684 -960.21384 -83.281025)
(3574.5769 -919.85515 -81.009799)
(3485.2728 -880.79823 -79.549139)
(3773.3057 -1040.5439 -79.219538)
(3683.3355 -1000.3669 -76.822232)
(3594.8024 -961.51006 -74.626182)
(3875.0837 -1119.2244 -73.884268)
(3786.2613 -1079.784 -71.45242)
(3698.0762 -1041.1133 -68.629999)
(3972.7174 -1196.7513 -68.881546)
(3885.1709 -1158.0345 -65.914328)
(3797.0714 -1119.5247 -62.289664)
(-1.897008 20.580692 -34.137971)
(69.565373 82.526202 -33.574106)
(163.83624 95.02724 -23.677006)
(307.4627 114.97615 -19.688098)
(477.14627 112.58105 -8.5330423)
(674.84726 97.20756 1.3372754)
(894.80759 63.845229 10.591872)
(1127.2766 12.234082 18.743559)
(1369.1723 -52.493746 24.64394)
(1609.3789 -131.98301 27.988194)
(1842.1662 -219.00415 28.35761)
(2062.3635 -312.18417 27.016735)
(2265.7007 -407.02263 24.309693)
(2450.8141 -501.5799 21.192797)
(2617.4949 -594.06686 18.819925)
(2766.8084 -683.2717 17.472516)
(2900.4114 -768.78288 17.596557)
(3020.4891 -850.17216 19.010859)
(3129.8176 -927.70868 21.325208)
(3231.1603 -1001.4981 24.703841)
(3328.4242 -1072.7592 27.949686)
(3425.8573 -1142.45 31.66611)
(3509.6701 -1205.6566 35.300446)
(-22.265282 14.39063 7.2963516)
(59.480764 18.683269 12.439851)
(184.52916 3.3406078 25.978259)
(349.07759 -10.284449 33.880127)
(537.37545 -46.03395 45.535584)
(746.68383 -91.201016 56.132181)
(958.93041 -148.25901 65.64731)
(1172.9426 -211.17726 74.654171)
(1376.4501 -280.1697 82.071675)
(1567.0938 -350.26199 88.421064)
(1741.8879 -419.25968 93.131502)
(1900.5117 -488.33523 97.002545)
(2044.7064 -554.56242 99.047862)
(2177.9178 -621.36618 100.47033)
(2303.9 -688.18369 101.04134)
(2426.9995 -757.35559 101.87614)
(2551.7891 -829.77303 102.79582)
(2682.1187 -906.71935 104.7847)
(2821.5073 -989.24426 107.60308)
(2972.2297 -1077.7806 111.48841)
(3135.8393 -1172.9947 116.02493)
(3311.8788 -1273.9557 122.21425)
(3540.746 -1397.6454 129.31802)
(-43.224097 -39.129175 47.044615)
(80.535553 -54.632311 59.179412)
(209.00459 -143.09101 83.124136)
(369.93172 -172.22559 81.476954)
(548.7485 -243.86274 98.689367)
(724.78838 -304.23243 108.07148)
(900.17907 -358.06189 119.2305)
(1068.4044 -416.93865 130.15139)
(1229.4136 -468.33176 138.80757)
(1384.3601 -521.64393 146.55613)
(1534.3181 -573.57231 152.71138)
(1683.5883 -628.25183 157.75559)
(1833.7039 -686.3607 162.24819)
(1988.0407 -749.9387 166.50762)
(2148.0602 -820.15376 171.4868)
(2316.024 -897.99281 177.1375)
(2492.7291 -984.28962 183.91946)
(2678.6139 -1079.5648 191.69208)
(2872.9185 -1183.4559 200.22727)
(3073.6386 -1295.1789 209.27235)
(3277.5342 -1412.6221 218.66682)
(3480.8273 -1533.1352 227.53047)
(3691.83 -1660.2609 236.89099)
(27.706679 18.07852 18.120177)
(21.809916 20.297521 3.1672167)
(27.221036 15.662136 -17.335016)
(123.2409 82.724773 10.437793)
(118.97901 77.708776 -4.5103374)
(100.39824 77.293803 -21.8778)
(239.6639 108.34132 15.775476)
(222.76387 98.968305 2.9110575)
(206.72595 96.902866 -12.026984)
(394.00509 127.69319 18.687245)
(378.02074 119.84218 5.9226367)
(351.50614 116.8731 -7.3275032)
(583.86561 125.2422 21.129011)
(558.55277 115.219 12.822527)
(528.42487 113.68354 2.3959933)
(801.49639 101.56688 25.368639)
(768.63073 95.170627 18.859511)
(731.38636 95.514985 10.465154)
(1039.5829 58.281857 27.896559)
(999.46286 54.780408 23.800404)
(958.04896 57.454838 18.772351)
(1293.7417 -5.2534601 29.147777)
(1245.3691 -5.8748417 27.909473)
(1196.1216 1.2062872 25.315546)
(1551.6291 -87.694976 30.028264)
(1495.2055 -81.827799 30.640295)
(1440.9855 -70.286907 29.562135)
(1806.6463 -182.49742 28.662133)
(1744.0108 -171.41667 30.413883)
(1682.8888 -155.5561 31.203907)
(2050.5467 -286.63409 26.846313)
(1981.1454 -269.34401 29.232265)
(1914.0774 -247.9815 30.901923)
(2276.9465 -393.83627 23.964304)
(2202.4383 -371.16564 26.537858)
(2130.1528 -345.15832 28.466197)
(2483.2193 -500.43469 20.69823)
(2404.361 -472.70586 23.079791)
(2327.2048 -442.39308 24.931949)
(2667.6576 -603.13239 17.619457)
(2585.4698 -571.29205 19.710188)
(2504.5328 -537.53224 21.316588)
(2831.1557 -700.02243 14.93057)
(2746.7996 -665.29736 16.866901)
(2662.9783 -628.89432 18.206226)
(2976.0504 -790.79834 13.282872)
(2890.2017 -753.90651 15.071039)
(2804.495 -715.79474 16.305759)
(3104.875 -875.14312 12.518805)
(3018.5187 -837.38015 14.448721)
(2931.8632 -798.28051 15.732936)
(3221.6688 -954.61538 12.863511)
(3135.141 -916.25334 14.972634)
(3048.3116 -876.85704 16.514294)
(3329.5158 -1029.437 14.093463)
(3244.5998 -991.67533 16.361038)
(3157.0205 -951.91566 18.343895)
(3446.7472 -1105.6163 16.098781)
(3337.5677 -1060.3074 19.009721)
(3262.3441 -1024.9924 21.287723)
(3546.5963 -1175.6324 18.599289)
(3444.9693 -1132.9257 21.777244)
(3367.2343 -1096.788 24.2777)
(3646.9574 -1244.5877 21.390392)
(3561.3191 -1207.1421 24.772968)
(3476.481 -1168.8715 28.092476)
(3763.0515 -1317.8643 24.591305)
(3678.5758 -1280.8539 28.174256)
(3593.4319 -1242.9282 31.585159)
(17.302551 11.711035 1.8121627)
(15.79295 11.064589 -4.521893)
(16.485111 13.88346 1.9865384)
(123.84258 22.932339 0.52948375)
(117.24219 21.273931 1.7622218)
(94.960858 15.752357 8.0822326)
(269.98126 17.598905 16.570862)
(250.96656 9.8047292 22.82155)
(233.40064 6.6898634 23.551066)
(445.97775 -2.9449479 27.575196)
(427.92437 -12.765582 30.239862)
(395.31993 -19.297525 33.311611)
(655.80257 -41.336139 42.236774)
(623.75224 -49.370804 47.921318)
(586.28117 -49.979824 45.549332)
(873.40649 -93.337627 56.543879)
(836.11574 -99.213395 57.956933)
(793.92829 -99.689959 58.494606)
(1099.4927 -157.08497 67.532955)
(1054.9863 -160.07626 70.894698)
(1004.5168 -157.17648 68.009762)
(1321.8359 -231.69189 79.611979)
(1269.6654 -229.97554 81.104191)
(1214.398 -221.14393 78.493939)
(1533.1281 -309.44962 86.880723)
(1474.5711 -302.68486 88.289363)
(1414.9669 -290.68915 85.572741)
(1731.1281 -390.97724 93.399769)
(1667.206 -379.52675 94.683709)
(1602.9213 -362.08643 92.06501)
(1912.5135 -471.84538 96.820087)
(1843.1059 -455.00837 97.573786)
(1776.0403 -433.14145 95.570758)
(2078.3726 -551.52408 97.985797)
(2005.0875 -529.6099 98.929723)
(1935.3774 -503.907 98.102421)
(2230.8184 -628.99208 97.708687)
(2154.1295 -602.68915 98.766608)
(2082.0873 -573.79766 98.938315)
(2373.0863 -705.03559 96.370714)
(2293.9313 -675.09837 97.658065)
(2220.2807 -643.51038 98.939119)
(2509.9187 -780.59044 94.788591)
(2429.1651 -747.47133 96.480501)
(2353.4817 -714.2809 98.669896)
(2645.3576 -856.96568 93.669278)
(2563.398 -821.92348 95.815332)
(2486.1429 -787.30142 98.819317)
(2784.3023 -936.06688 93.334657)
(2701.6636 -899.5314 96.006662)
(2622.4903 -863.99524 99.499322)
(2930.2785 -1019.1916 94.308103)
(2846.939 -981.73964 97.482789)
(2766.0066 -945.54793 101.47685)
(3086.0986 -1107.5187 96.739281)
(3002.0402 -1069.7746 100.35647)
(2919.5029 -1033.0061 104.53504)
(3253.7044 -1202.3859 100.33462)
(3169.2194 -1164.0193 104.50805)
(3085.133 -1127.1183 108.84552)
(3416.0129 -1296.921 105.70589)
(3377.1333 -1276.1218 110.62559)
(3261.8895 -1227.4508 113.70876)
(3625.534 -1410.6534 111.88065)
(3537.8749 -1371.8152 116.35987)
(3450.4522 -1333.4277 120.13427)
(3825.9229 -1523.5323 118.72822)
(3737.4613 -1484.5465 122.60388)
(3649.1541 -1445.2963 126.43935)
(11.234793 -20.527685 -12.321791)
(0.48146398 -16.372533 7.9708045)
(-4.1529247 -19.55437 25.987465)
(147.70558 -57.002587 1.7561542)
(141.76099 -44.592069 27.320285)
(119.35549 -57.187714 45.447798)
(289.54957 -110.24892 28.578943)
(273.99616 -131.55517 47.473793)
(252.41953 -134.10557 65.006097)
(474.7918 -176.04442 51.672645)
(447.93097 -173.70222 66.044698)
(416.435 -178.80422 76.287854)
(662.3578 -233.42152 78.520154)
(629.09088 -244.45632 87.877066)
(593.98869 -242.79395 92.748729)
(857.06347 -301.49772 98.017415)
(815.5107 -305.0128 102.76646)
(773.77306 -302.86113 105.65038)
(1046.877 -368.57858 117.795)
(997.90836 -368.5204 120.48147)
(951.55197 -361.34625 120.39402)
(1227.9806 -433.04918 132.10609)
(1172.5713 -429.5923 131.44172)
(1121.8154 -420.16702 131.04733)
(1400.4746 -498.77935 143.84681)
(1340.3006 -489.2336 143.10305)
(1285.0275 -476.52647 141.28435)
(1565.4103 -563.02729 153.00716)
(1501.2207 -549.1679 151.06831)
(1441.7095 -532.87284 148.64561)
(1725.305 -627.3975 159.3199)
(1657.5771 -608.45163 157.34812)
(1593.9104 -589.08889 155.45537)
(1883.474 -693.54545 164.3622)
(1813.0554 -670.30301 162.7401)
(1745.2225 -647.49716 161.00607)
(2042.9801 -762.11649 168.17191)
(1969.8128 -735.3524 166.96478)
(1898.2378 -709.54483 165.80705)
(2206.9937 -835.41652 171.37371)
(2131.5359 -805.49352 170.91851)
(2056.1446 -776.40435 170.33705)
(2377.6422 -914.216 174.52351)
(2299.6035 -881.81577 174.90284)
(2220.9197 -850.09453 174.99406)
(2556.7718 -999.9418 178.01947)
(2476.2097 -965.66574 179.24167)
(2394.0539 -931.27166 180.03543)
(2744.8864 -1093.4987 182.20407)
(2661.5124 -1057.4866 184.30211)
(2576.6611 -1020.8602 185.80701)
(2941.7809 -1195.096 187.51085)
(2855.9323 -1157.7624 190.27395)
(2768.059 -1119.2351 192.50638)
(3146.246 -1304.4691 193.81673)
(3057.4498 -1265.8762 197.13878)
(2967.7968 -1225.9691 200.00314)
(3355.3352 -1420.3514 201.17021)
(3265.0879 -1381.3425 204.95196)
(3173.2103 -1340.1168 208.01654)
(3566.6519 -1541.6168 209.32824)
(3473.546 -1501.1952 213.04543)
(3380.5498 -1459.3148 216.84164)
(3774.3235 -1664.3302 217.70235)
(3680.5285 -1623.2532 221.55775)
(3586.2473 -1580.7731 225.27962)
(3974.5394 -1785.8957 225.77071)
(3880.175 -1745.0727 229.72722)
(3785.6792 -1701.7836 233.43106)
)
;

boundaryField
{
    free
    {
        type            zeroGradient;
    }
    fixed
    {
        type            fixedValue;
        value           uniform (0 0 0);
    }
    traction
    {
        type            zeroGradient;
    }
}


// ************************************************************************* //
