/*--------------------------------*- C++ -*----------------------------------*\
  =========                 |
  \\      /  F ield         | OpenFOAM: The Open Source CFD Toolbox
   \\    /   O peration     | Website:  https://openfoam.org
    \\  /    A nd           | Version:  6
     \\/     M anipulation  |
\*---------------------------------------------------------------------------*/
FoamFile
{
    version     2.0;
    format      ascii;
    class       pointScalarField;
    location    "1.89";
    object      p;
}
// * * * * * * * * * * * * * * * * * * * * * * * * * * * * * * * * * * * * * //

dimensions      [1 -1 -2 0 0 0 0];

internalField   nonuniform List<scalar> 
28033
(
221597.76
-372495.05
351.87882
35.506019
560678.74
-389121.46
565.41419
-257.7951
221014.72
190076.85
163406.81
128363.79
91972.512
56454.595
20561.977
-21100.307
-57497.412
-95417.377
-134371.3
-153357.52
-196088.41
-227095.48
-230762.35
-766.28677
-1508.8985
-2073.2875
-1926.4605
-2013.7314
-1470.0317
-964.28342
-316.60664
445.50962
991.1383
1684.1756
2104.2027
2270.6298
1843.8226
977.99381
66064.225
68884.095
67905.691
72592.251
76675.502
78631.946
82691.659
83704.483
87044.71
87638.284
90615.556
91344.36
93489.202
93977.779
96328.809
96642.88
98113.483
98952.797
100058.23
100715.88
101797.17
102429.69
102889.02
103733.22
103940.52
104472.32
104848.03
105155.16
105200.26
105546.4
105430.27
105559.83
105470.25
105839.95
105054.41
105492.52
105021.3
105074.63
104823.24
104606.71
104249.59
104222.82
103723.84
103611.81
103224.86
103037.29
102680.06
102478.19
102130.12
101869.76
101536.73
101236.73
100842.65
100508.84
100039.15
99602.515
99044.544
98464.745
97741.565
96989.552
96070.837
95054.51
93861.23
92626.529
91186.929
89724.726
88192.878
86158.637
83734.963
81281.985
78703.017
76073.057
73156.085
70083.534
66856.839
63458.909
59972.038
56341.562
52616.671
48889.896
45027.79
41164.713
37267.64
33129.279
29292.38
25378.759
21842.426
18178.532
14895.487
11470.111
8771.2936
5845.3687
3641.4428
2064.2281
288.00881
-66562.795
-61923.872
-71165.555
-68145.376
-76707.601
-78735.25
-79863.184
-82561.022
-83830.486
-85638.288
-86564.25
-88498.858
-89139.766
-91098.842
-91571.81
-93530.638
-93703.006
-95270.501
-95801.588
-96606.085
-97111.157
-97925.065
-97806.882
-98386.17
-98543.461
-98124.604
-98721.475
-97802.234
-98342.505
-97319.005
-97666.909
-97065.765
-96827.077
-96950.309
-96341.925
-96882.356
-95969.613
-96423.141
-95764.666
-96141.945
-95532.665
-95784.748
-95196.205
-95218.853
-94648.184
-94463.338
-93835.434
-93505.725
-92827.642
-92382.384
-91689.038
-91185.262
-90506.352
-89978.028
-89337.197
-88808.763
-88175.951
-87626.575
-86963.56
-86307.746
-85524.378
-84670.137
-83639.301
-82465.544
-81064.986
-79445.099
-77625.744
-75528.668
-73334.589
-70293.483
-67630.992
-64324.283
-61042.696
-57468.583
-53826.258
-50037.864
-46242.533
-42384.74
-38598.215
-34904.066
-31342.119
-27888.058
-24647.069
-21563.861
-18695.522
-16028.936
-13553.473
-11291.858
-9206.4281
-7299.9027
-5565.7171
-4043.7193
-2556.556
-1411.3996
-490.13284
471183.12
464095.8
358581.55
364443.77
277216.43
190223.62
149001.01
65550.434
2170.265
-75126.962
-131957.54
-203212.59
-273180.8
-317263.74
-346834.63
-84795.429
-70979.761
-39862.615
-78615.654
-64562.267
-75441.132
-72766.837
-80013.561
-75584.686
-81334.603
-83352.828
-83217.751
-86679.883
-85803.586
-88940.924
-89808.746
-87893.417
-91819.817
-89778.034
-93602.463
-91485.492
-91524.142
-96088.621
-92535.112
-98110.955
-95427.203
-94823.438
-95989.801
-94081.45
-95248.672
-97132.915
-95395.651
-96825.79
-95517.939
-96716.634
-93910.797
-96145.174
-95275.734
-95573.264
-94914.463
-95199.404
-94630.832
-94745.448
-94277.593
-94385.187
-93924.378
-93964.715
-93595.954
-93532.262
-93215.285
-93094.474
-92787.726
-92589.525
-92259.473
-91948.443
-91570.771
-91104
-90605.637
-89980.117
-89283.436
-88443.6
-87518.88
-86402.798
-85194.082
-83776.637
-82214.667
-80711.973
-79243.212
-74788.133
-74457.803
-71856.311
-69198.978
-66496.413
-63598.425
-60559.563
-57378.676
-54123.115
-50745.587
-47320.454
-43801.964
-40268.038
-36664.844
-33116.775
-29506.273
-26002.878
-22484.443
-19121.384
-15797.322
-12690.427
-9715.0886
-7007.0126
-4559.8474
-2522.895
-860.65377
86.711719
1043.4354
2255.859
2103.7221
2478.5693
1692.6728
1601.7006
608.77199
-206.80339
-942.59023
-1575.9629
-1600.9726
-3266.6931
-2077.5023
-2200.8717
-848.77701
941.16237
2221.9595
3493.5569
5428.4225
7285.4835
9584.93
11993.131
14699.52
17325.798
20566.671
23600.772
26958.206
30558.445
34414.001
38342.446
42391.563
46606.068
50809.995
55058.898
59301.395
63459.958
67517.782
71438.357
75091.689
78588.557
81602.492
83346.119
88846.829
89607.075
92111.954
93852.328
95498.547
96854.211
98060.324
99057.932
99982.904
100740.91
101517.97
102141.59
102869.3
103446.84
104189.86
104745.32
105530.72
106066.95
106876.76
107357.15
108147.25
108559.93
109279.25
109532.42
110241.54
110307.03
110876.56
110764.69
111427.35
110945.34
110638.09
112530.25
111740.33
111008.78
113703.73
111656.72
113023.6
111327.16
114478.57
111083.33
114642.09
112908.77
114060.29
112778.86
112270.1
113966.97
112320.72
111122.09
112121.46
108710.25
110342.01
106195.96
106430.24
106131.39
104514.11
102355.44
102045.23
97942.191
96105.19
96598.937
94059.127
91756.157
87558.313
85803.298
86359.841
83506.102
75821.669
91666.52
162170.92
173945.02
186663.48
198267.21
209714.12
215467.15
222554.26
224819.77
227857.08
223104.9
229836.89
217746.16
210669.61
231690.06
181365.97
-301587.16
-358088.38
-344612.4
-368318.64
-348757.13
-335583.07
-379958.79
-392716.57
-363596.94
-357504.19
-335594.44
-316747.79
-289233.91
-276881.28
-263200.03
-627.20027
-843.67482
-629.22525
-364.84399
118.80488
522.01522
873.95771
1130.5774
1302.9099
1294.3288
1157.03
1114.0779
747.20314
622.93486
274.70498
-188.9156
-551.89943
-848.84308
-1197.8823
-1381.2124
-1478.5192
-1355.711
-1143.1759
-819.9617
-445.63252
66.487841
371.51469
721.60515
990.50724
166.15646
64632.173
62715.814
60062.279
63302.494
66664.243
68921.843
72089.329
74328.309
76639.098
78883.691
80493.983
82034.806
83292.769
84798.481
85718.447
86639.579
87846.261
88756.239
89402.569
90269.571
90942.217
91563.756
92244.996
92793.387
93062.12
93976.535
94031.693
94334.871
94601.645
95019.069
94699.098
95040.682
95191.541
95003.356
94987
94745.689
94608.236
94338.719
94033.62
93934.974
93769.614
93444.681
93184.369
92968.143
92688.779
92467.45
92257.974
92018.663
91798.046
91566.984
91322.278
91037.573
90742.505
90395.428
89989.645
89537.778
89002.892
88388.378
87684.624
86892.706
85984.06
84928.338
83827.797
82603.381
81047.491
79478.538
77512.772
75690.242
73857.945
71718.444
69686.795
67251.12
64799.233
62289.975
59554.947
56744.442
53847.313
50801.349
47656.662
44506.277
41134.664
37898.308
34495.105
31195.12
27679.47
24233.812
20883.246
17585.179
14386.432
11489.628
8633.4802
6132.766
3921.7707
2045.8777
78.954173
58800.898
51920.218
49324.864
52540.17
55200.395
57410.167
60702.731
62825.466
65107.599
66569.208
68508.227
69597.469
71063.755
71907.814
73089.324
73780.601
74784.216
75323.968
76113.951
76773.758
77345.524
77917.728
78529.004
78991.977
79474.276
79895.701
80189.892
80753.663
80823.113
81121.65
81211.531
81512.979
81229.25
81332.323
81221.812
81129.102
80844.555
80772.018
80523.418
80356.88
80024.209
79945.659
79523.571
79429.171
79157.541
79030.177
78830.584
78685.288
78519.922
78372.007
78178.171
77984.64
77741.211
77461.322
77108.403
76712.074
76217.397
75660.65
74999.694
74265.641
73415.763
72463.339
71500.605
70371.694
69080.828
68449.281
67367.374
66087.399
64731.957
63124.88
61400.114
59536.521
57608.803
55401.891
53122.835
50808.276
48294.477
45733.211
43008.487
40278.339
37361.098
34434.096
31380.433
27910.127
24706.726
21514.123
18461.267
15567.171
12844.667
10106.597
7778.4497
5348.9186
3525.4124
1760.077
-393.35607
47150.42
43873.727
40614.687
43283.751
44916.729
47163.392
50471.359
51882.362
53740.918
55669.903
57149.248
58218.543
59371.55
60391.3
61154.177
61858.778
62466.338
63174.474
63669.453
64264.078
64602.795
65452.878
65506.505
66376.456
66425.385
67217.688
67254.168
67858.539
67805.032
68434.244
68265.161
68555.007
68423.775
68668.083
68446.363
68442.638
68341.612
68405.505
67984.07
67868.433
67569.884
67387.673
67158.402
67074.089
66834.34
66759.953
66555.189
66497.701
66323.576
66252.563
66067.787
65946.096
65720.927
65500.624
65184.564
64842.51
64397.041
63903.018
63306.029
62649.806
61890.581
61060.444
60187.619
59102.086
58149.371
57329.249
56497.968
54925.046
54033.767
52867.705
51603.358
49993.295
48211.866
46581.706
44823.043
42940.507
41065.277
38996.746
36889.43
34665.536
32279.997
29967.279
27291.215
24648.944
22044.569
19094.418
16329.857
13929.938
11360.095
9072.5321
6845.5099
4736.1709
2957.8942
990.06687
-888.93656
36798.341
33521.835
31081.436
33317.344
34087.18
37026.35
39139.212
40448.613
42591.153
43971.152
45098.603
46040.585
47188.301
47728.585
48542.631
48887.609
49695.528
49958.924
50510.914
50840.057
51501.698
51688.625
52225.138
52695.25
52986.327
53509.775
53751.197
54220.272
54376.808
54735.064
54679.201
55032.722
54939.851
54984.144
54887.546
54816.69
54439.6
54061.662
53564.063
53515.248
53238.83
53182.913
52898.646
52780.931
52640.859
52535.742
52463.296
52418.515
52351.098
52324.022
52253.221
52180.762
52062.743
51904.912
51689.206
51413.323
51066.321
50647.003
50153.432
49586.379
48960.939
48254.004
47493.223
46698.694
45912.286
44953.246
44300.512
43161.192
42010.323
41052.09
40142.262
39034.639
38267.7
37156.25
35816.625
34501.228
33049.525
31549.081
29913.434
28174.33
26357.316
24439.055
22326
19951.377
17926.744
16027.781
13878.561
11755.892
9628.8288
7610.8894
5740.3378
3898.1625
2346.612
878.49439
-868.3414
28223.198
23620.169
21193.498
23767.101
25241.178
26944.669
28956.518
30236.862
31748.66
32908.707
33860.52
34803.891
35469.81
36130.219
36427.392
37024.116
37392.893
37703.727
38003.661
38624.122
38611.9
39278.97
39390.418
40015.93
40020.586
40807.089
40647.476
41429.064
41254.619
41896.109
41716.849
42253.488
41864.66
42291.424
42007.359
42106.627
42307.863
43102.194
42825.25
43154.682
42996.614
42883.695
42667.264
42698.248
42513.121
42500.766
42432.949
42435.413
42372.133
42413.738
42343.908
42325.382
42230.413
42122.06
41936.816
41718.259
41412.565
41061.56
40628.121
40148.94
39616.712
38984.922
38386.903
37753.751
36927.737
36390.503
35707.131
34789.282
34043.358
33303.408
32474.436
31330.439
30063.107
29162.616
28076.895
27049.054
26106.31
25012.954
23847.112
22604.529
21209.305
19796.195
18154.013
16619.575
14781.373
13085.208
11227.844
9589.1902
7738.3436
6194.9615
4601.1415
3043.0574
1904.6993
596.65526
-810.64829
16098.424
14348.449
12707.286
14859.716
15233.09
16425.096
18695.374
19193.979
20533.809
21514.428
22152.852
22753.078
23444.136
23542.95
24113.766
24321.433
24581.256
24524.423
25170.179
24940.616
25435.184
25585.828
25911.553
26216.343
26565.226
26890.352
27168.6
27615.351
27664.331
28129.722
28090.209
28381.209
28261.856
28530.82
28189.847
28391.608
28415.263
28650.915
28809.1
29255.667
29324.494
29351.44
29129.723
29108.088
28992.368
29003.124
28964.768
29027.045
29033.559
29123.092
29134.782
29194.584
29180.268
29165.786
29069.023
28957.342
28751.028
28515.011
28203.389
27849.983
27431.423
27018.793
26530.711
26020.962
25645.911
25001.189
24701.743
24181.559
23745.664
23368.661
22827.894
22294.018
22050.665
21104.177
20238.441
19754.492
19204.019
18604.17
17946.713
17169.774
16279.088
15300.951
14190.331
13015.791
11664.282
10450.061
8917.2553
7588.4226
6031.7904
4775.3846
3385.0641
2233.6905
1250.8439
271.58314
-609.79062
5530.0461
3507.5921
4331.3318
5499.986
5961.3438
7342.2335
8785.6982
8950.2791
10156.671
10718.624
11051.372
11655.495
11749.126
12057.386
12205.314
12284.385
12248.727
12667.987
12539.428
12810.622
12946.622
13228.461
13334.541
13845.184
13741.197
14448.763
14338.049
14983.451
14845.874
15546.571
15229.31
15862.573
15539.805
15941.415
15582.606
15924.563
15398.394
15738.888
15021.37
15139.15
14832.169
14944.742
14639.863
14761.285
14611.404
14713.305
14695.057
14821.038
14850.559
15002.984
15044.979
15168.262
15198.926
15243.249
15216.763
15172.486
15055.574
14913.667
14711.323
14479.194
14228.459
13939.967
13651.152
13404.192
13090.309
12917.74
12673.758
12523.469
12429.94
12331.516
12308.264
12300.779
11960.165
12362.637
12447.19
12453.408
12297.258
12153.501
11917.304
11529.865
11076.896
10492.056
9766.0298
8992.7613
8012.0459
7117.6869
5947.6259
5118.1376
3912.54
3212.2319
2087.6983
1515.9795
726.31843
242.44751
-206.75522
-6247.2992
-7377.827
-5025.1879
-5267.9788
-3461.3099
-3517.4299
-2122.8696
-2102.4215
-1448.1911
-1103.5438
-954.26195
-894.20619
-667.31048
-731.75425
-751.71853
-878.87537
-649.59176
-1067.0906
-782.91759
-935.49946
-625.71987
-618.98715
-280.30288
-314.35269
147.83511
343.4918
564.14502
932.52551
1089.4958
1423.8547
1428.4961
1825.207
1618.46
1935.239
1709.6632
1840.5246
1626.2831
1808.4426
1336.8363
1301.3312
1097.3995
1111.5793
958.33163
1027.1222
938.5978
1040.8851
1097.1686
1223.2016
1337.064
1522.378
1648.4282
1820.5004
1943.285
2060.2221
2130.7022
2179.4539
2176.9276
2145.1113
2076.3228
1997.9387
1881.2659
1785.9009
1708.3141
1622.4827
1633.3701
1624.4292
1746.5275
1891.246
2103.9503
2428.6221
2736.4751
3057.0244
3552.0577
4115.9362
4605.7123
5007.6043
5407.6171
5749.876
5985.6486
6154.0669
6193.8669
6129.9825
5927.2794
5640.0666
5186.9744
4738.4524
4071.6336
3525.2418
2644.4091
2129.9945
1242.3076
887.8789
366.15646
267.62345
141.41383
-16724.657
-16445.503
-12954.634
-12884.827
-11740.045
-12285.58
-10818.283
-11835.153
-10988.392
-11235.205
-11372.87
-11406.35
-11394.858
-11846.268
-12014.77
-11961.71
-12526.563
-12464.886
-12615.431
-12756.128
-12819.457
-12889.877
-12971.713
-12566.173
-12587.895
-12210.816
-12206.226
-11625.613
-11786.505
-11153.832
-11347.982
-10788.583
-11102.718
-10579.169
-11018.785
-10607.438
-11043.935
-10786.718
-11195.848
-10938.228
-11230.847
-11083.678
-11273.356
-11109.679
-11191.527
-10978.529
-10935.307
-10703.781
-10576.601
-10300.737
-10149.719
-9889.008
-9721.7843
-9518.3036
-9388.6643
-9244.5031
-9173.7808
-9100.0686
-9063.4088
-9037.5482
-9019.8793
-8962.2639
-8921.4205
-8790.3909
-8650.5678
-8395.583
-8096.0344
-7701.9326
-7201.1914
-6628.2528
-6002.9682
-5193.1079
-4467.5519
-3675.9173
-2971.2466
-2237.0157
-1434.7724
-751.41365
-48.943598
468.18378
913.22384
1210.4635
1384.1539
1435.4365
1344.6234
1208.5033
870.1594
722.61081
172.46174
255.435
-324.90986
-48.418861
-268.93303
120.28863
361.0626
-28074.963
-28815.639
-22211.493
-24237.576
-22754.424
-23368.472
-23089.8
-23580.3
-23616.633
-24144.116
-24381.182
-24679.657
-25154.864
-25651.695
-25710.634
-26336.784
-26547.52
-26883.096
-26993.12
-27358.135
-27116.381
-26938.084
-26441.539
-26601.158
-26314.796
-26262.286
-25876.954
-25771.254
-25508.133
-25202.514
-25164.265
-24812.057
-24896.897
-24619.098
-24795.743
-24557.423
-24818.871
-24665.325
-24883.065
-24835.003
-24986.018
-24935.432
-25010.941
-24891.532
-24861.915
-24696.568
-24543.136
-24321.651
-24095.712
-23810.182
-23564.589
-23268.372
-23010.991
-22751.889
-22526.787
-22306.589
-22127.705
-21948.206
-21794.12
-21628.761
-21450.913
-21244.451
-20987.76
-20668.035
-20257.949
-19779.454
-19182.939
-18483.08
-17657.575
-16767.013
-15677.301
-14605.495
-13354.928
-11805.862
-9680.1045
-8269.6704
-7128.6591
-5844.3297
-4846.3159
-3837.393
-3058.9506
-2293.912
-1783.696
-1303.707
-1045.949
-832.1344
-780.97497
-701.08666
-853.04775
-624.27325
-949.83988
-428.86882
-448.25035
65.048665
508.47511
-40877.323
-32153.916
-29315.791
-30011.072
-29634.671
-30578.626
-30665.993
-31402.454
-32234.072
-32494.348
-33206.191
-33795.848
-34474.641
-34774.929
-35572.869
-35932.935
-36471.776
-36805.862
-37146.554
-37499.892
-38050.474
-38472.865
-38657.894
-39015.041
-39048.102
-38756.628
-38798.19
-38353.666
-38351.912
-37894.255
-37991.715
-37455.569
-37710.306
-37220.112
-37525.007
-37145.494
-37512.199
-37180.528
-37535.72
-37290.978
-37538.33
-37340.931
-37475.2
-37226.024
-37247.39
-36954.842
-36823.73
-36496.051
-36267.702
-35889.972
-35615.004
-35228.581
-34926.396
-34570.582
-34283.146
-33956.136
-33691.887
-33401.147
-33134.036
-32828.832
-32533.279
-32150.778
-31748.49
-31225.27
-30650.223
-29938.062
-29104.527
-28135.226
-27070.18
-25822.729
-24495.938
-23080.898
-21527.609
-19713.386
-18200.022
-16236.534
-14157.807
-12458.147
-10872.663
-9467.4492
-8148.1766
-6986.0874
-5953.1644
-5066.842
-4338.1045
-3718.7019
-3254.9115
-2849.3864
-2546.6891
-2214.1136
-1929.9127
-1422.6476
-889.07471
-53.355542
1167.9766
-45239.109
-43445.554
-39284.874
-39262.88
-39848.155
-40521.493
-41697.697
-42596.017
-43328.612
-44498.599
-45103.473
-46008.486
-46632.684
-47601.66
-48052.727
-48945.238
-49325.06
-50007.704
-50256.964
-50851.916
-51100.844
-51538.71
-52434.38
-52977.586
-52743.15
-53034.878
-52653.704
-52559.521
-52325.92
-52080.587
-51951.937
-51630.26
-51661.687
-51345.798
-51458.963
-51255.554
-51363.919
-51244.308
-51338.472
-51256.031
-51290.88
-51178.412
-51128.1
-50956.926
-50805.79
-50556.497
-50292.645
-49968.561
-49630.938
-49234.985
-48859.551
-48443.595
-48049.487
-47649.132
-47271.08
-46883.415
-46528.067
-46154.432
-45769.48
-45373.067
-44923.051
-44409.027
-43820.083
-43121.076
-42296.748
-41341.151
-40227.377
-39016.737
-37582.007
-36017.347
-34310.838
-32439.406
-30414.678
-28457.263
-26175.741
-24391.899
-22177.316
-20016.39
-17930.616
-15965.346
-14088.538
-12360.047
-10753.057
-9312.6348
-8009.3792
-6865.3531
-5829.6908
-4954.3751
-4106.6527
-3409.4799
-2680.7859
-1906.375
-1239.8706
-146.69582
1173.5501
-62508.896
-57006.409
-47668.863
-50996.573
-49609.08
-52731.844
-52925.388
-54821.746
-55655.318
-57109.741
-58053.266
-58918.152
-60114.845
-60881.69
-61859.578
-62509.137
-63496.585
-63792.735
-64686.719
-64918.442
-65321.681
-65830.583
-65687.711
-65552.713
-65613.874
-65499.915
-65439.11
-65064.837
-65088.536
-64651.389
-64682.597
-64212.905
-64370.33
-63906.982
-64135.005
-63693.154
-63965.635
-63594.663
-63848.641
-63551.188
-63700.922
-63436.759
-63482.359
-63184.7
-63087.334
-62747.802
-62503.614
-62105.876
-61765.991
-61298.76
-60902.753
-60411.663
-59974.663
-59488.253
-59043.468
-58559.753
-58111.931
-57614.539
-57125.97
-56579.057
-55988.148
-55311.731
-54553.604
-53670.695
-52644.056
-51486.061
-50163.832
-48650.213
-46970.287
-45093.025
-43052.923
-40878.055
-38612.947
-36125.439
-33607.593
-31160.787
-28599.197
-26026.226
-23534.969
-21102.642
-18805.644
-16631.356
-14610.104
-12746.594
-11065.329
-9523.8024
-8179.5166
-6944.6687
-5869.5382
-4882.3723
-3931.2013
-3021.4807
-2012.3096
-615.01071
737.98838
-65860.061
-63809.692
-54466.37
-59471.131
-60498.406
-62681.307
-64165.834
-66222.281
-67741.405
-68983.329
-70366.648
-71546.095
-72556.571
-73830.777
-74641.637
-75914.608
-76565.025
-77511.586
-78131.697
-78648.997
-79157.788
-79540.023
-79458.106
-79884.477
-79576.99
-79723.855
-79512.709
-79221.526
-79216.092
-78801.523
-78757.683
-78335.955
-78341.178
-78018.395
-77949.208
-77860.647
-77811.701
-77764.429
-77685.059
-77611.526
-77542.774
-77391.564
-77244.202
-77002.635
-76753.791
-76409.852
-76047.267
-75615.074
-75161.781
-74658.406
-74159.682
-73625.491
-73105.868
-72577.003
-72064.828
-71542.319
-71027.521
-70495.616
-69934.472
-69326.158
-68648.719
-67878.986
-66981.482
-65959.754
-64714.683
-63351.337
-61702.06
-59956.558
-57945.266
-55656.791
-53296.095
-50643.435
-47826.852
-44929.889
-41867.796
-38786.17
-35633.555
-32527.861
-29512.068
-26550.923
-23734.352
-21042.496
-18516.439
-16166.919
-13987.887
-11999.88
-10171.369
-8526.9506
-7005.9656
-5632.3917
-4363.663
-3124.0686
-1928.4386
-777.13844
414.97172
-86674.908
-62836.005
-64692.781
-68370.927
-69844.277
-71815.102
-74264.676
-76494.273
-77646.48
-79396.152
-80957.108
-81971.405
-83285.71
-84313.822
-85640.465
-86667.902
-88033.171
-88559.678
-89529.962
-90083.51
-90541.283
-90891.628
-91228.669
-91392.593
-91553.571
-91523.153
-91497.404
-91051.17
-91429.11
-90613.496
-90819.639
-90167.986
-90357.842
-89621.162
-89659.676
-89335.795
-89790.029
-89342.449
-89417.138
-89227.881
-89163.147
-88930.073
-88780.708
-88493.81
-88208.509
-87830.439
-87432.579
-86952.089
-86465.591
-85916.422
-85373.044
-84791.362
-84223.916
-83645.689
-83074.205
-82492.275
-81919.248
-81308.499
-80668.913
-79973.802
-79194.258
-78302.943
-77281.825
-76098.307
-74697.373
-73086.029
-71171.706
-69057.023
-66888.878
-64457.21
-61681.81
-58663.419
-55565.372
-52240.941
-48783.305
-45303.159
-41777.653
-38241.817
-34777.351
-31357.333
-28067.564
-24934.232
-21948.71
-19162.679
-16564.615
-14160.963
-11963.058
-9949.3838
-8122.8911
-6492.5702
-5027.4088
-3649.4534
-2628.528
-1384.5247
-242.99398
131831.58
139494.84
136460.34
141400.02
144158.9
146138.68
153637.47
150557.96
152632.72
152196.85
153494.35
150331.28
149409.31
163474.84
138106.19
129031.91
131143
125886.03
130252.36
135895.58
138392.44
137477.61
143347.59
144317.77
146998.92
145403.49
147482.79
150285.42
155510.27
137195.71
97210.044
113266.51
102865.7
109632.61
109903.39
111470.04
114233.06
114465.1
116825.52
117081.02
117670.13
121970.7
115350.85
132452.24
125602.77
85165.116
86254.623
88412.758
88992.885
93457.457
94147.963
97521.818
99596.044
99720.271
102874.89
104656.9
104043.09
104580.2
120519.03
87784.825
59539.399
69507.155
63458.009
69446.359
71284.765
72919.724
75408.094
75714.122
78807.309
80290.564
80546.897
82555.708
83604.656
88573.247
81903.532
40294.568
41195.773
42501.396
44837.602
46918.325
48870.743
50950.415
52903.489
54685.663
56865.494
57767.076
62340.213
60574.012
69991.006
66893.552
17773.629
20197.887
23034.538
24099.533
27876.184
28945.093
31187.128
33212.147
34034.511
35764.379
38446.393
36779.69
40957.322
45578.082
38312.226
-5313.5222
-7421.4118
-3009.3598
-1491.9041
1274.9096
2056.5343
5354.9748
6092.804
8306.15
11024.927
11925.115
14708.068
18313.324
19002.042
26843.699
-29117.065
-29119.889
-23490.434
-22545.327
-20182.829
-18434.039
-16429.68
-14079.709
-13205.9
-9298.4054
-8680.2281
-6728.1642
-3148.1565
-3699.6672
7765.4621
-46732.76
-56269.13
-45480.364
-46962.189
-43235.354
-43176.244
-40278.821
-39351.213
-37834.354
-34856.237
-35431.799
-30645.848
-27158.695
-29780.077
-14176.494
-71587.517
-79819.159
-66252.132
-69566.688
-64924.563
-63342.846
-61496.617
-59178.128
-58665.253
-53766.673
-52839.525
-53387.125
-44545.099
-50030.784
-30498.318
-98896.555
-94830.889
-88829.494
-88526.177
-87069.06
-86883.818
-84529.142
-84165.666
-82598.699
-79418.407
-80538.912
-69567.993
-71430.287
-73477.958
-54627.655
-111213.7
-116647.37
-104349.22
-103673.95
-98777.857
-98726.29
-96566.645
-95415.613
-92351.812
-89214.436
-88635.161
-90336.136
-79170.557
-94671.764
-49807.136
-124223.76
-147307.72
-120337.27
-131352.89
-129764.36
-127580.47
-127048.04
-129245.26
-124956.79
-128560.63
-119080.52
-113513.61
-115911.36
-108360.19
-105624.26
-147114.03
-123762.07
-115406.64
-114158.75
-116607.74
-121565.21
-114703.13
-107880.15
-105573.78
-102691.03
-105192.66
-104691.9
-101598.34
-111321.72
-100061.88
-105261.64
-94762.707
-110037.59
-111215.38
-115897.78
-122517.99
-117531.72
-109663.47
-122134.77
-117936.35
-112104.48
-103529.38
-96558.648
-92000.112
-72646.432
-87183.82
-83848.034
-92303.329
-93573.119
-96677.236
-99314.299
-100864
-100779.44
-102173.77
-97635.135
-94969.634
-88753.669
-87663.58
-86670.209
-85340.815
-69005.922
-74965.395
-72334.02
-77329.053
-80228.754
-77255.458
-80014.041
-78268.845
-76107.949
-78317.723
-75190.54
-75834.065
-73723.756
-65678.193
-68749.764
-77210.633
-86122.983
-85261.945
-86724.811
-87067.004
-88981.025
-88618.346
-88923.134
-88258.344
-86223.243
-85089.374
-82415.515
-79905.682
-77814.672
-73677.407
-81321.654
-84661.098
-80381.338
-85594.389
-84825.082
-85607.616
-86967.151
-86021.134
-85994.47
-85791.993
-83279.773
-81297.108
-78199.012
-74816.582
-74074.269
-81152.757
-84350.156
-85329.184
-87505.268
-87241.093
-88892.208
-88026.439
-87767.843
-87037.083
-85271.593
-84488.655
-82308.883
-80850.338
-78146.294
-74060.014
-83085.171
-86083.775
-85249.511
-87071.23
-86033.232
-86744.865
-86797.68
-86377.92
-85649.872
-84777.933
-82690.709
-81640.234
-79462.661
-76524.913
-76422.612
-84814.741
-86252.078
-86779.764
-88203.25
-88847.806
-89149.533
-88916.692
-88699.158
-87780.08
-87063.533
-85746.067
-84109.789
-82146.764
-79746.381
-77470.869
-85875.908
-87173.1
-86794.365
-87608.835
-86693.894
-87238.779
-86323.476
-86368.053
-84870.099
-84580.632
-83176.349
-81660.834
-81023.57
-79079.113
-79194.633
-87048.306
-87838.901
-88292.586
-88849.532
-89049.206
-89078.009
-88804.622
-88261.674
-88244.412
-86902.699
-85741.048
-84798.51
-83515.246
-81817.652
-81277.561
-88374.631
-89123.107
-88854.958
-89075.818
-88475.796
-88656.744
-87928.25
-87723.558
-87068.436
-86401.454
-85458.051
-84571.733
-83414.325
-82501.508
-81615.319
-89332.313
-89863.75
-90002.025
-89849.773
-89643.67
-89606.365
-89052.408
-88645.908
-88078.725
-87368.614
-86450.921
-85467.837
-84848.642
-83777.57
-83441.951
-91120.022
-90921.15
-90447.461
-90835.107
-90261.299
-90056.357
-89375.653
-89091.428
-88595.646
-87837.71
-86947.478
-86434.093
-85633.827
-85005.68
-84377.946
-91531.951
-92368.987
-91881.099
-91628.702
-91309.984
-91159.484
-90195.866
-90637.651
-89590.639
-89056.86
-88257.911
-87771.883
-86889.053
-85953.796
-85895.096
-93446.753
-92973.306
-92331.44
-92779.859
-91782.223
-91489.711
-91820.489
-89528.475
-90068.943
-89321.735
-88682.664
-87994.283
-87331.059
-86731.092
-86912.503
-93880.573
-94572.411
-93788.629
-93844.987
-92927.071
-93219.282
-92198.963
-92020.983
-90829.706
-90843.676
-89802.371
-89476.398
-88391.466
-88324.078
-87781.148
-95552.024
-95061.422
-94858.064
-94181.848
-94133.673
-93727.883
-93100.457
-92152.025
-92296.135
-91283.072
-90730.312
-90118.9
-90032.699
-87730.156
-89613.137
-96523.812
-96148.815
-95756.933
-95199.677
-94577.353
-94462.99
-93936.33
-93256.569
-92522.793
-92233.675
-91302.347
-91086.769
-90806.015
-89762.159
-89762.722
-97117.064
-96986.458
-96580.39
-96639.422
-95501.929
-95432.83
-94391.925
-94265.758
-93740.465
-93051.109
-91691.876
-91792.562
-91411.168
-90833.272
-90620.161
-98067.288
-97522.88
-97370.212
-96749.22
-96454.948
-96136.439
-95142.126
-94524.008
-94238.735
-93594.63
-93197.274
-92863.532
-92727.821
-91695.476
-91410.032
-98872.723
-98286.576
-98020.135
-97758.263
-96758.034
-96238.46
-95799.382
-95512.817
-94853.277
-94200.368
-94100.113
-93131.456
-92857.736
-91759.154
-91651.669
-98950.58
-98721.888
-98540.284
-98076.357
-97603.304
-97004.395
-96557.665
-95927.89
-95709.519
-94445.102
-94173.007
-94039.928
-93552.129
-92302.658
-93270.26
-99716.9
-98903.573
-98805.555
-98495.116
-97771.093
-97610.475
-97098.523
-96591.254
-95386.864
-96227.177
-94351.65
-94231.203
-92717.87
-93127.21
-92922.782
-99751.85
-99326.762
-99201.99
-98866.978
-98136.325
-97962.137
-96763.162
-96477.418
-96021.887
-95233.519
-95493.58
-94315.67
-94152.4
-92956.359
-93720.715
-99695.03
-99690.266
-99061.18
-99058.21
-98059.619
-97646.102
-97271.65
-96857.493
-96108.601
-96193.612
-94987.649
-95140.369
-94027.002
-93965.809
-93565.587
-100280.21
-99403.989
-99266.657
-98781.995
-98289.406
-98014.57
-97529.615
-96854.196
-96579.7
-95810.369
-95346.663
-94312.651
-94663.817
-93591.652
-93736.681
-99635.474
-99661.262
-98813.001
-99221.02
-97962.195
-98332.169
-97297.199
-97096.418
-96363.237
-96060.815
-95252.354
-95654.093
-94306.599
-94257.707
-94566.44
-100105.36
-99083.32
-98929.289
-98866.115
-98282.506
-98011.89
-97105.48
-96907.603
-96334.241
-95865.353
-95306.153
-94948.403
-94564.46
-94243.98
-93730.595
-99283.914
-99453.715
-98867.618
-98756.02
-97883.909
-97930.73
-97218.591
-96953.699
-96418.767
-96030.139
-95429.649
-95389.587
-94391.018
-94074.462
-94645.486
-99802.642
-98615.993
-98603.137
-98496.636
-97976.954
-97461.462
-97077.238
-96830.344
-96224.484
-95598.385
-95103.435
-94858.16
-94689.964
-94070.156
-94237.73
-99123.468
-98932.079
-98277.439
-98500.215
-97424.931
-97928.727
-96518.109
-96624.782
-95495.487
-95751.285
-94991.923
-94882.196
-94300.823
-94128.14
-94109.277
-99095.123
-98286.466
-98157.023
-98066.996
-97490.235
-97267.159
-96741.094
-96277.502
-95859.933
-95501.273
-94969.149
-94668.076
-94368.63
-93844.689
-94237.008
-98904.009
-98318.167
-97903.674
-98111.635
-97128.131
-97417.075
-96302.169
-96421.215
-95563.574
-95533.898
-94737.601
-94742.828
-94126.099
-94101.765
-94048.606
-98401.28
-97969.238
-97640.967
-97662.729
-96994.414
-96887.998
-96290.561
-96018.7
-95430.714
-95145.922
-94682.029
-94365.496
-94172.542
-93699.112
-94109.521
-98412.175
-97904.59
-97598.733
-97703.582
-96903.105
-97055.153
-96186.854
-96081.441
-95422.192
-95362.832
-94592.739
-94652.573
-93844.586
-94145.914
-93587.638
-97663.31
-97887.06
-97101.366
-97548.757
-96547.978
-96612.712
-96030.157
-95735.237
-95269.896
-95097.187
-94394.83
-94195.916
-94005.17
-93528.707
-94085.747
-98243.962
-97364.178
-97322.457
-97254.098
-96747.937
-96562.063
-95952.073
-95806.553
-95155.153
-94762.374
-94454.438
-94332.503
-93884.099
-93634.135
-93748.404
-97788.074
-97422.939
-96952.843
-97247.108
-96286.513
-96468.283
-95713.541
-95610.008
-94955.992
-94843.167
-94258.79
-94137.014
-93794.881
-93337.614
-93697.005
-98000.085
-97167.335
-97005.638
-97135.878
-96364.284
-96521.317
-95740.68
-95683.047
-95053.433
-94947.793
-94306.254
-94285.227
-93705.227
-93499.059
-93605.019
-97525.246
-97033.785
-96749.823
-96876.346
-96137.342
-96221.171
-95498.348
-95423.003
-94823.599
-94660.004
-94075.071
-93910.539
-93631.277
-93171.162
-93471.306
-97642.993
-96817.32
-96688.439
-96811.334
-96109.511
-96210.962
-95541.503
-95476.128
-94849.737
-94776.361
-94087.278
-94102.446
-93575.765
-93206.708
-93375.848
-97209.373
-96608.26
-96430.146
-96538.215
-95830.923
-95950.939
-95284.223
-95189.982
-94652.342
-94484.676
-93946.116
-93810.701
-93421.114
-92936.914
-93270.361
-97134.772
-96356.771
-96273.882
-96357.093
-95720.183
-95850.027
-95214.399