/*--------------------------------*- C++ -*----------------------------------*\
  =========                 |
  \\      /  F ield         | OpenFOAM: The Open Source CFD Toolbox
   \\    /   O peration     | Website:  https://openfoam.org
    \\  /    A nd           | Version:  6
     \\/     M anipulation  |
\*---------------------------------------------------------------------------*/
FoamFile
{
    version     2.0;
    format      ascii;
    class       pointVectorField;
    location    "1.97";
    object      u;
}
// * * * * * * * * * * * * * * * * * * * * * * * * * * * * * * * * * * * * * //

dimensions      [0 1 0 0 0 0 0];

internalField   nonuniform List<vector> 
3969
(
(0 0 0)
(0 0 0)
(0.42754861 0.039638135 -0.021661963)
(0.42107681 -0.073303075 -0.02365635)
(0 0 0)
(0 0 0)
(0.4233083 -0.069889205 -0.023688752)
(0.4298103 0.042887066 -0.021866474)
(0 0 0)
(0 0 0)
(0 0 0)
(0 0 0)
(0 0 0)
(0 0 0)
(0 0 0)
(0.42652982 0.024724362 -0.022342198)
(0.42540235 0.010722082 -0.022436737)
(0.42439887 -0.0030563023 -0.022653327)
(0.4235668 -0.016709884 -0.022672594)
(0.42285958 -0.030406493 -0.022808574)
(0.42219816 -0.044236442 -0.022889232)
(0.42175099 -0.058364748 -0.023193988)
(0.00077075077 0.0022114084 0.0024909297)
(0.0011081182 0.0038190368 0.0032431623)
(0.0021408801 0.005622665 0.0035858963)
(0.003802577 0.0074616629 0.0036796022)
(0.0059746111 0.0093478078 0.0035839547)
(0.0087176584 0.011168092 0.0034467366)
(0.011943171 0.013020766 0.0031980434)
(0.015700779 0.014751396 0.0029333052)
(0.019916346 0.016502397 0.0025731152)
(0.024630424 0.018097298 0.0022105831)
(0.029774514 0.019716258 0.0017628206)
(0.035396502 0.02117866 0.0013016356)
(0.041405749 0.02262086 0.00075848028)
(0.04785324 0.023952338 0.00020231497)
(0.054671599 0.025235012 -0.00041809414)
(0.06186436 0.026401373 -0.0010653843)
(0.06939796 0.027541497 -0.0017438015)
(0.077270605 0.028570835 -0.0024502384)
(0.085450094 0.029562548 -0.0031815122)
(0.093925951 0.030472519 -0.0039279388)
(0.10268171 0.03133761 -0.0046869521)
(0.11170159 0.032145971 -0.0054526478)
(0.1209755 0.032915546 -0.0062194388)
(0.13049066 0.033635289 -0.0069778382)
(0.14024013 0.034320723 -0.0077340092)
(0.15021348 0.034987767 -0.0084680453)
(0.16040833 0.035625239 -0.0091875877)
(0.17083161 0.036234485 -0.0098914906)
(0.18147511 0.036835576 -0.010569647)
(0.19233583 0.037404301 -0.011225295)
(0.20342227 0.037965704 -0.01185883)
(0.21473968 0.038501165 -0.012468383)
(0.22628385 0.039017961 -0.013058168)
(0.23806293 0.039505708 -0.013627391)
(0.25009162 0.039977122 -0.01418426)
(0.26234866 0.040375349 -0.014716832)
(0.27485893 0.040814851 -0.015261504)
(0.28761316 0.041061244 -0.015763567)
(0.30060184 0.041452653 -0.016328726)
(0.31385143 0.041528084 -0.016802914)
(0.32730939 0.041788477 -0.017397248)
(0.34100394 0.041760159 -0.017889581)
(0.35492503 0.041682083 -0.018458324)
(0.36899122 0.041659931 -0.019063733)
(0.383298 0.041181571 -0.019569613)
(0.39770457 0.040959084 -0.020222498)
(0.41214479 0.040490432 -0.020692437)
(0.00021303729 -0.0021640443 -0.0028489224)
(0.001134301 -0.0037790344 -0.0030330931)
(0.0021297876 -0.00572891 -0.0036225162)
(0.0036482746 -0.0075449296 -0.0038173567)
(0.0058698645 -0.0096234627 -0.0039933592)
(0.0085108426 -0.0115894 -0.0041336007)
(0.011678305 -0.013594184 -0.0043187829)
(0.015338001 -0.015567293 -0.0044887027)
(0.019452729 -0.017522678 -0.004727577)
(0.024038321 -0.019429112 -0.0049686669)
(0.029071597 -0.021334661 -0.0052596371)
(0.034531871 -0.023177029 -0.0055886333)
(0.040393157 -0.024982653 -0.0059546425)
(0.04666535 -0.026753241 -0.0063394824)
(0.053302372 -0.028463787 -0.006777955)
(0.060313265 -0.030137584 -0.0072402203)
(0.067663833 -0.031745207 -0.0077420123)
(0.07534455 -0.033318713 -0.0082746059)
(0.083325857 -0.034825324 -0.0088407467)
(0.091614605 -0.036300349 -0.0094334629)
(0.10015988 -0.037722423 -0.010051329)
(0.10899484 -0.039108228 -0.010696332)
(0.11806295 -0.040460054 -0.011346285)
(0.12739513 -0.04179166 -0.01202276)
(0.13693317 -0.043078501 -0.012709796)
(0.14673882 -0.044373622 -0.013392508)
(0.1567183 -0.0456207 -0.014078137)
(0.16697013 -0.046910404 -0.014757457)
(0.17743002 -0.048167896 -0.015435327)
(0.18811229 -0.049446667 -0.016096491)
(0.19902985 -0.050731245 -0.016742777)
(0.21017087 -0.05204117 -0.017368322)
(0.22155079 -0.053358095 -0.017972709)
(0.23316554 -0.054711238 -0.018553571)
(0.24502712 -0.056068232 -0.019103209)
(0.25712445 -0.057460804 -0.019636626)
(0.26948507 -0.058859857 -0.020128886)
(0.28207565 -0.060269226 -0.020597844)
(0.29493578 -0.06170323 -0.021033984)
(0.30803019 -0.063109096 -0.02144463)
(0.32137116 -0.064530244 -0.021820423)
(0.33494851 -0.065922776 -0.022174289)
(0.34873711 -0.067264218 -0.022504884)
(0.36276165 -0.068597389 -0.022793648)
(0.37693409 -0.069840852 -0.023075922)
(0.39135066 -0.07101471 -0.023351252)
(0.40588518 -0.072223426 -0.023561599)
(0 0 0)
(0 0 0)
(0 0 0)
(0 0 0)
(0 0 0)
(0 0 0)
(0 0 0)
(0.00069381971 -0.0012333879 0.0020844952)
(0.001067821 -0.0039313677 0.002905541)
(0.0018755344 -0.0046343497 0.0029423421)
(0.0037184747 -0.0068488723 0.0030214746)
(0.0058352529 -0.0083749951 0.002868739)
(0.0086234435 -0.010128171 0.0025749202)
(0.011845903 -0.01185265 0.0023117022)
(0.015612445 -0.013537027 0.0019198719)
(0.01977851 -0.015171276 0.001535716)
(0.024461916 -0.016850654 0.0010886481)
(0.029549892 -0.018430245 0.00063476559)
(0.035070579 -0.019975645 9.4249233e-05)
(0.041063992 -0.02150719 -0.00049692614)
(0.047428419 -0.023008497 -0.0011084332)
(0.054165042 -0.024446324 -0.0017770934)
(0.061296052 -0.025914653 -0.0024561223)
(0.068730929 -0.027267861 -0.0031932241)
(0.07653591 -0.02869537 -0.0039233604)
(0.084607055 -0.029995251 -0.0047048466)
(0.093007943 -0.031375583 -0.0054726782)
(0.10165339 -0.032650004 -0.0062735347)
(0.11058395 -0.033993523 -0.0070552931)
(0.11974785 -0.035261831 -0.0078562005)
(0.12915624 -0.036581876 -0.0086311687)
(0.13879882 -0.037872515 -0.0094168947)
(0.14867585 -0.039189196 -0.010181819)
(0.15874349 -0.040530382 -0.010913378)
(0.16904057 -0.041872039 -0.011632246)
(0.17954919 -0.04323604 -0.012323077)
(0.19028334 -0.044625772 -0.012994282)
(0.20123241 -0.046030222 -0.013645023)
(0.21240851 -0.047466273 -0.01426925)
(0.22381015 -0.048923064 -0.01487422)
(0.23544639 -0.050400076 -0.01545971)
(0.24731577 -0.051900146 -0.016029567)
(0.25943277 -0.05341241 -0.016581639)
(0.27178265 -0.054922568 -0.017138648)
(0.28438799 -0.05646956 -0.017667095)
(0.29722991 -0.05798133 -0.018210898)
(0.31033062 -0.05949652 -0.018748104)
(0.32365514 -0.060984246 -0.019298442)
(0.3372369 -0.062442398 -0.019852637)
(0.35101402 -0.063843863 -0.020424879)
(0.36503242 -0.065204815 -0.021008328)
(0.37921019 -0.066472863 -0.021617342)
(0.39361809 -0.06767568 -0.022222862)
(0.40809959 -0.068909312 -0.022895895)
(0.42409432 -0.054980919 -0.023673741)
(0.42447839 -0.040933315 -0.023474029)
(0.42512552 -0.027064929 -0.023119942)
(0.42586586 -0.01347481 -0.022793253)
(0.42661007 0.00022906953 -0.02231961)
(0.42759975 0.013952233 -0.022052365)
(0.4288459 0.027943194 -0.021738772)
(0.41457079 0.043756506 -0.021911467)
(0.39986691 0.044119699 -0.021612111)
(0.38544427 0.044551048 -0.021388865)
(0.37114364 0.04486969 -0.021088341)
(0.35700455 0.045082674 -0.020818773)
(0.34306291 0.045201064 -0.020516424)
(0.32933433 0.045234136 -0.020184878)
(0.31582385 0.045189611 -0.019831054)
(0.3025506 0.045081286 -0.019450828)
(0.28951794 0.044920127 -0.019042157)
(0.27672283 0.044706189 -0.018600341)
(0.26421705 0.044423171 -0.018125236)
(0.25190701 0.044160211 -0.017632602)
(0.2398684 0.043821193 -0.0171081)
(0.22806783 0.04347416 -0.016559639)
(0.21651265 0.043085656 -0.015983235)
(0.20518722 0.042681114 -0.01538623)
(0.19410056 0.042236202 -0.014769147)
(0.18323746 0.041770426 -0.014136062)
(0.17260525 0.041258464 -0.013487003)
(0.16219415 0.040719896 -0.012834848)
(0.15200501 0.040125254 -0.012172949)
(0.14204402 0.03949122 -0.011515954)
(0.1323053 0.038790006 -0.010860198)
(0.12280206 0.038039694 -0.010220655)
(0.11353684 0.037206255 -0.0095875786)
(0.10451722 0.036316278 -0.0089858465)
(0.095761276 0.035328415 -0.0083930939)
(0.087273934 0.034274719 -0.0078419553)
(0.079078174 0.033116943 -0.0073097087)
(0.071182261 0.031884922 -0.0068213938)
(0.063612015 0.030550493 -0.0063582961)
(0.056367395 0.029138216 -0.0059435304)
(0.04953605 0.02759422 -0.0055383188)
(0.043053507 0.025995563 -0.0052125131)
(0.036950191 0.024302939 -0.0048817519)
(0.031287536 0.022526773 -0.004622014)
(0.026052081 0.020668297 -0.0043882518)
(0.021240878 0.018760971 -0.0042033471)
(0.016962703 0.016736422 -0.004034944)
(0.013150265 0.014678523 -0.0038900187)
(0.0097408268 0.01263092 -0.0038253979)
(0.0069982114 0.010429495 -0.0037001498)
(0.0046565002 0.0083565821 -0.0036074357)
(0.0029406814 0.0062586803 -0.0033901798)
(0.0017932076 0.0040596737 -0.002983305)
(0.001902149 0.0023885572 -0.0018823531)
(0 0 0)
(0 0 0)
(0 0 0)
(0 0 0)
(0 0 0)
(0 0 0)
(0 0 0)
(0 0 0)
(0 0 0)
(0 0 0)
(0 0 0)
(0 0 0)
(0 0 0)
(0 0 0)
(0.42142559 -0.073100219 -0.023726241)
(0.42176505 -0.072752877 -0.023726111)
(0.42205941 -0.072340898 -0.023712015)
(0.42235421 -0.071946468 -0.02367229)
(0.4226394 -0.071525361 -0.023634391)
(0.42289406 -0.071056305 -0.023595739)
(0.42316616 -0.070636057 -0.023657879)
(0.42803406 0.040334018 -0.021672911)
(0.42834158 0.040729963 -0.02165581)
(0.42863279 0.041164048 -0.021736015)
(0.42893397 0.041588702 -0.021785282)
(0.42921657 0.042005446 -0.021841861)
(0.42947591 0.042368922 -0.021886723)
(0.42979237 0.042824827 -0.021873892)
(4.6692909e-05 0.0017628867 0.0022228262)
(0.00045756286 0.0029037837 0.0023595795)
(0.0014262849 0.0042865495 0.0026496694)
(0.0030270315 0.0056059823 0.0026854601)
(0.0051871789 0.0069696764 0.0025934977)
(0.007911728 0.0082944345 0.0024641913)
(0.011148736 0.0096434053 0.0022092201)
(0.014894999 0.010905673 0.0019623125)
(0.0191247 0.012159593 0.0016218389)
(0.023848742 0.013331207 0.0012642917)
(0.02899754 0.01448034 0.00083865346)
(0.034614278 0.015531765 0.00038790741)
(0.040635035 0.016566344 -0.000129317)
(0.047077114 0.017508141 -0.00066278207)
(0.053895894 0.018407599 -0.0012575501)
(0.061095783 0.019239198 -0.0018700002)
(0.068628838 0.02002942 -0.0025255491)
(0.076502424 0.020746464 -0.0032030367)
(0.084675319 0.021430527 -0.0039062075)
(0.093153554 0.022056798 -0.0046292594)
(0.10190029 0.022648813 -0.0053627445)
(0.11091475 0.023199139 -0.006106784)
(0.12017702 0.023716148 -0.0068489044)
(0.12967332 0.024196351 -0.0075910587)
(0.13941601 0.024665948 -0.0083269735)
(0.14938114 0.025090038 -0.0090577641)
(0.15956235 0.025501551 -0.0097713142)
(0.16996734 0.025899377 -0.010464556)
(0.18059556 0.026263041 -0.011143092)
(0.19143595 0.026615756 -0.011798077)
(0.20250632 0.026948257 -0.01243331)
(0.21380402 0.02725245 -0.013046626)
(0.22532662 0.02753427 -0.013639955)
(0.2370943 0.027792468 -0.014214613)
(0.24909993 0.028003089 -0.014771279)
(0.26133455 0.028190615 -0.015315257)
(0.27384571 0.028335919 -0.015855969)
(0.28656975 0.02840375 -0.016362888)
(0.29957022 0.028467002 -0.01690038)
(0.31280573 0.02839346 -0.017395819)
(0.32625557 0.028358731 -0.017946374)
(0.33997586 0.028072245 -0.018419649)
(0.35388715 0.027919754 -0.019028335)
(0.36798873 0.027498204 -0.019512528)
(0.38233006 0.026991016 -0.020099127)
(0.39669407 0.026557604 -0.020705748)
(0.41135755 0.02559445 -0.021350534)
(-0.00059638981 0.0011471412 0.0015037592)
(-0.00017585921 0.0017738136 0.0015577923)
(0.00088286242 0.0028328141 0.0017467273)
(0.0024881158 0.0036938398 0.0017110289)
(0.0046616801 0.0045844194 0.001615995)
(0.0073863926 0.0054526304 0.0014500926)
(0.010600968 0.0063212211 0.0012241073)
(0.014355229 0.0071136938 0.00098384886)
(0.018575721 0.0079237729 0.0006517357)
(0.02328326 0.0086420424 0.00032247461)
(0.028434711 0.0093666344 -8.7501487e-05)
(0.034045648 0.0099873103 -0.00050945716)
(0.040060753 0.010624658 -0.0010026602)
(0.046514178 0.011162508 -0.001510833)
(0.053328334 0.011698863 -0.0020775524)
(0.060519393 0.012159746 -0.0026672004)
(0.068045836 0.012612381 -0.0033054427)
(0.075901812 0.012997659 -0.0039515017)
(0.084071711 0.013369489 -0.0046387381)
(0.092533414 0.013692146 -0.0053357633)
(0.10127735 0.01399426 -0.0060525617)
(0.11028013 0.014261522 -0.0067799292)
(0.11952907 0.014507534 -0.0075107502)
(0.12902856 0.014741511 -0.0082464167)
(0.13875438 0.014941381 -0.0089802519)
(0.14869039 0.015136278 -0.0096868432)
(0.15885777 0.015304948 -0.010391533)
(0.16924971 0.015456307 -0.011091466)
(0.17984235 0.015599616 -0.011753785)
(0.19067099 0.015715659 -0.012410993)
(0.20171778 0.015820615 -0.013045307)
(0.21299185 0.015892549 -0.013652411)
(0.22449849 0.015953522 -0.014249458)
(0.23624717 0.015974826 -0.014818526)
(0.24822346 0.015971875 -0.015373312)
(0.26046314 0.015930419 -0.015912353)
(0.27294423 0.015863967 -0.016436891)
(0.28565021 0.015687907 -0.016933122)
(0.29866163 0.01559986 -0.017480862)
(0.31184013 0.015262905 -0.017931351)
(0.32535606 0.015072749 -0.018480161)
(0.33902298 0.014634077 -0.018945018)
(0.35298309 0.014285608 -0.019489122)
(0.36707334 0.013703978 -0.019956035)
(0.3814203 0.013128082 -0.020524596)
(0.39588929 0.012394571 -0.021091522)
(0.41066929 0.011513907 -0.021734871)
(-0.00099839504 0.00059057175 0.00085907642)
(-0.00055834453 0.00090387748 0.00085064635)
(0.00046215086 0.0013968258 0.0008828526)
(0.0020874605 0.0018445633 0.00080967773)
(0.0042827608 0.0022365849 0.00068686365)
(0.0069999058 0.0026801251 0.00052354184)
(0.010254024 0.0030442252 0.0002927527)
(0.013996917 0.0034015085 4.4221798e-05)
(0.018229442 0.0037311147 -0.0002623727)
(0.02294333 0.004028851 -0.000591265)
(0.028091919 0.0042954119 -0.00098034979)
(0.03368453 0.0045263042 -0.0013896964)
(0.039698571 0.0047509228 -0.0018670118)
(0.046116559 0.0049075119 -0.0023454527)
(0.052908887 0.0050723237 -0.0028862438)
(0.06008539 0.0051884867 -0.0034556113)
(0.067592322 0.0052937369 -0.0040604335)
(0.07544315 0.0053598848 -0.0046925566)
(0.083591184 0.0054159737 -0.0053532688)
(0.092038337 0.0054440124 -0.0060294453)
(0.10074578 0.0054588028 -0.0067210842)
(0.10971717 0.005453382 -0.0074233018)
(0.11895021 0.0054479714 -0.0081339215)
(0.12840952 0.0054031982 -0.0088485976)
(0.13809729 0.0053648637 -0.0095456739)
(0.14801418 0.0053031767 -0.010258031)
(0.15816909 0.0052375699 -0.010966351)
(0.16852867 0.0051536668 -0.011642019)
(0.17911532 0.005060343 -0.012317182)
(0.18992676 0.0049445811 -0.012976332)
(0.20095189 0.0048169833 -0.013606579)
(0.2122152 0.0046653982 -0.014226357)
(0.22370674 0.0044917412 -0.014823263)
(0.23543439 0.0042936612 -0.015398618)
(0.24741043 0.0040567492 -0.01595727)
(0.2596319 0.0038124429 -0.016505213)
(0.27209021 0.0034743632 -0.017017654)
(0.28483217 0.0031921662 -0.017555025)
(0.29780379 0.0027741321 -0.018043891)
(0.31102986 0.0023357403 -0.018516952)
(0.32450655 0.0019381295 -0.019059489)
(0.33819735 0.0012886684 -0.019453776)
(0.35215312 0.00082181803 -0.020029118)
(0.36628311 6.8816831e-05 -0.02043032)
(0.38071737 -0.00061769236 -0.021011871)
(0.39521646 -0.0013915976 -0.021500158)
(0.40992673 -0.0022835883 -0.022037299)
(-0.0011101619 5.9634526e-05 0.00010941316)
(-0.00067241624 -2.841121e-05 -5.4875927e-05)
(0.00036120611 2.9909921e-05 -9.1281279e-05)
(0.0019884696 -2.4763971e-05 -0.00017875524)
(0.0041810769 -7.3766932e-05 -0.00029831228)
(0.0069148004 -0.00012473488 -0.00047112214)
(0.010128287 -0.00021008283 -0.00067642485)
(0.013871962 -0.00032392373 -0.00089553338)
(0.018072987 -0.00042383276 -0.0011824295)
(0.022754205 -0.00058773832 -0.001477177)
(0.027879299 -0.00073098592 -0.0018430344)
(0.033470836 -0.00092246993 -0.0022353754)
(0.03946523 -0.0011050498 -0.002689594)
(0.04586671 -0.0013388783 -0.0031477571)
(0.052659951 -0.001540532 -0.0036832533)
(0.059813788 -0.0017925644 -0.0042233671)
(0.067312392 -0.0020234268 -0.0048171095)
(0.075135143 -0.0022960702 -0.0054230458)
(0.083268418 -0.0025561207 -0.0060641262)
(0.091688391 -0.0028415853 -0.0067219808)
(0.10039554 -0.0031278346 -0.0074014314)
(0.10937279 -0.0034141149 -0.0081036432)
(0.11857707 -0.003721583 -0.0088061653)
(0.12802564 -0.0040209418 -0.0095098343)
(0.13770964 -0.0043247284 -0.010231759)
(0.14762253 -0.004632202 -0.010945559)
(0.15774444 -0.004947358 -0.011631993)
(0.16808547 -0.0052786474 -0.012316209)
(0.17864839 -0.0056084587 -0.012994261)
(0.1894305 -0.0059651742 -0.013636137)
(0.20043622 -0.0063221279 -0.014277497)
(0.21167622 -0.0067097846 -0.014887643)
(0.22314093 -0.0071113676 -0.015483732)
(0.23485402 -0.007538263 -0.016054371)
(0.24680168 -0.0079807537 -0.016614117)
(0.25899983 -0.0084824586 -0.017134317)
(0.27145303 -0.0089593264 -0.01766397)
(0.2841475 -0.0095241614 -0.018152196)
(0.29709954 -0.010116224 -0.018618429)
(0.31028218 -0.010688739 -0.019123692)
(0.32376345 -0.011369105 -0.019553767)
(0.33742689 -0.01206395 -0.020010126)
(0.35139672 -0.012712694 -0.020494425)
(0.36552912 -0.013557291 -0.020873846)
(0.3799059 -0.014243966 -0.021377137)
(0.39439037 -0.015105491 -0.021741669)
(0.409128 -0.015932207 -0.022239471)
(-0.0011210964 -0.00049049991 -0.00061587393)
(-0.00059450899 -0.00082821908 -0.00083151186)
(0.00038961778 -0.0013400653 -0.00092255012)
(0.002000936 -0.0018300306 -0.0010412992)
(0.0042220629 -0.0023696457 -0.0012051997)
(0.0069072901 -0.0029022094 -0.0013459063)
(0.01016127 -0.0034585436 -0.0015601051)
(0.013867052 -0.0040193746 -0.0017813104)
(0.018075727 -0.0045934839 -0.0020585653)
(0.02275529 -0.0051809052 -0.0023658911)
(0.027886902 -0.0057593974 -0.0027247445)
(0.033441276 -0.0063521055 -0.0031087131)
(0.039408814 -0.006946965 -0.0035181586)
(0.045798482 -0.0075417096 -0.003983391)
(0.052549278 -0.0081373826 -0.0044721867)
(0.059680459 -0.0087406906 -0.0049938389)
(0.067145787 -0.0093277351 -0.0055595317)
(0.074947416 -0.0099281544 -0.0061448727)
(0.083046905 -0.010505271 -0.0067683362)
(0.091445416 -0.011091434 -0.0074050675)
(0.10011489 -0.011658127 -0.0080691331)
(0.1090333 -0.012226508 -0.0087385112)
(0.11821741 -0.012785453 -0.0094162243)
(0.12763005 -0.013353262 -0.010117005)
(0.13728912 -0.013912061 -0.010808665)
(0.14715318 -0.014469877 -0.011494267)
(0.15725521 -0.01503871 -0.012175983)
(0.16757282 -0.015601547 -0.012866014)
(0.17811351 -0.01617446 -0.013526197)
(0.18887212 -0.016754774 -0.014185074)
(0.1998587 -0.017346375 -0.014821737)
(0.21107301 -0.017955573 -0.015439647)
(0.22252461 -0.0185876 -0.016035539)
(0.2342098 -0.019219892 -0.016621269)
(0.24614285 -0.019914137 -0.017163507)
(0.25832722 -0.020584233 -0.0177137)
(0.27074386 -0.021314963 -0.0182235)
(0.28345255 -0.022076512 -0.018708018)
(0.29635641 -0.022824981 -0.019217662)
(0.30959394 -0.023614948 -0.019657753)
(0.32301128 -0.024448556 -0.02010904)
(0.33671155 -0.025248401 -0.020546228)
(0.35063435 -0.026120663 -0.02096333)
(0.36476221 -0.026999772 -0.021343097)
(0.37913993 -0.027820039 -0.021781889)
(0.39370315 -0.028724973 -0.022130216)
(0.40840354 -0.029552525 -0.022517668)
(-0.00089536316 -0.00099141752 -0.0014000493)
(-0.00019761207 -0.0017994345 -0.0016340789)
(0.00077021912 -0.0027973652 -0.0018553068)
(0.0024223176 -0.0037523618 -0.0020441693)
(0.0045896656 -0.0047738461 -0.0021644399)
(0.0072880452 -0.0057701477 -0.0023352945)
(0.010493074 -0.0067935307 -0.0025246779)
(0.014199564 -0.0078189074 -0.0027272704)
(0.01838003 -0.0088256421 -0.0029933724)
(0.023031085 -0.009850579 -0.0032534755)
(0.028122297 -0.010847197 -0.0035875197)
(0.033654043 -0.011872563 -0.0039373911)
(0.039600226 -0.012853248 -0.0043522819)
(0.045951515 -0.013850503 -0.0047800387)
(0.052678323 -0.014811886 -0.0052525976)
(0.059771963 -0.015775242 -0.005760232)
(0.067210289 -0.016706332 -0.0063038973)
(0.074974263 -0.017629074 -0.0068754299)
(0.08304703 -0.01852843 -0.0074756828)
(0.091409754 -0.019411318 -0.0081021105)
(0.10004356 -0.020290123 -0.0087465605)
(0.10895936 -0.021109585 -0.009410904)
(0.1180896 -0.02195931 -0.010090315)
(0.1274907 -0.022809968 -0.010775381)
(0.13710217 -0.023615634 -0.011462601)
(0.14695288 -0.024442128 -0.012160023)
(0.1570298 -0.025238712 -0.012855311)
(0.16731929 -0.026047787 -0.013532126)
(0.1778292 -0.026850491 -0.014206344)
(0.18856735 -0.027670708 -0.014861524)
(0.1995269 -0.028497711 -0.015500554)
(0.21072003 -0.029341996 -0.016118418)
(0.22214351 -0.030195284 -0.016719313)
(0.23381132 -0.031085407 -0.017290048)
(0.24571961 -0.031968658 -0.017849031)
(0.25787092 -0.032899888 -0.018374248)
(0.27028851 -0.033836397 -0.018878042)
(0.2829314 -0.034782006 -0.019371907)
(0.29586334 -0.035781156 -0.019818013)
(0.30901875 -0.036768939 -0.020270475)
(0.32241721 -0.037752488 -0.020685466)
(0.33609112 -0.038731297 -0.021099688)
(0.34994872 -0.039771967 -0.0214551)
(0.36408119 -0.040697682 -0.021847493)
(0.3783758 -0.041659114 -0.022176615)
(0.39289707 -0.042574871 -0.022458638)
(0.40756357 -0.043359472 -0.022726765)
(-0.00046138277 -0.0016762633 -0.0019819311)
(0.00027743355 -0.0027225549 -0.0023250086)
(0.0012508703 -0.004241418 -0.0026988496)
(0.0028691346 -0.0056110541 -0.0028696448)
(0.0050316989 -0.0070922097 -0.0030416313)
(0.0077032353 -0.0085759328 -0.0032035742)
(0.010910732 -0.010077059 -0.0033780483)
(0.014581354 -0.011561911 -0.0035904148)
(0.018747318 -0.013043707 -0.0038232262)
(0.023359178 -0.014507546 -0.0040922223)
(0.028436473 -0.015948458 -0.0044023052)
(0.033936191 -0.017382915 -0.004748589)
(0.039845516 -0.018782369 -0.0051324322)
(0.046168647 -0.020165225 -0.0055385846)
(0.052853056 -0.021507686 -0.005999397)
(0.059918902 -0.022825804 -0.0064818086)
(0.067313814 -0.024103742 -0.0070084175)
(0.07504798 -0.025355679 -0.0075559487)
(0.083078093 -0.026571992 -0.0081434945)
(0.091407233 -0.027757571 -0.008749379)
(0.10001153 -0.028909716 -0.0093854964)
(0.10886437 -0.030039774 -0.010034366)
(0.11799505 -0.031137644 -0.010704434)
(0.12734863 -0.032231195 -0.01137594)
(0.13693478 -0.033293273 -0.012072105)
(0.14675346 -0.034342446 -0.012763349)
(0.15679628 -0.035390822 -0.013436294)
(0.1670552 -0.036423435 -0.014123672)
(0.17754632 -0.037465226 -0.014793833)
(0.18825593 -0.038511924 -0.015450355)
(0.19919106 -0.03956726 -0.01609321)
(0.21035995 -0.040633333 -0.016715451)
(0.22175902 -0.041724385 -0.017313969)
(0.2334014 -0.042816108 -0.017896339)
(0.245281 -0.043947151 -0.018444293)
(0.25741618 -0.045080551 -0.018975149)
(0.26978804 -0.046232223 -0.019484887)
(0.28243621 -0.04741086 -0.019947551)
(0.29531075 -0.048583982 -0.02041591)
(0.30845301 -0.049778558 -0.020836725)
(0.32182814 -0.050947837 -0.021245914)
(0.33546278 -0.05213551 -0.021615939)
(0.34929497 -0.05329593 -0.02197014)
(0.36338347 -0.054384385 -0.022326967)
(0.3776121 -0.055516059 -0.022588746)
(0.3920936 -0.056491584 -0.022908977)
(0.40667953 -0.057380261 -0.023107815)
(0 0 0)
(0 0 0)
(0 0 0)
(0 0 0)
(0 0 0)
(0 0 0)
(0 0 0)
(0 0 0)
(0 0 0)
(0 0 0)
(0 0 0)
(0 0 0)
(0 0 0)
(0 0 0)
(0 0 0)
(0 0 0)
(0 0 0)
(0 0 0)
(0 0 0)
(0 0 0)
(0 0 0)
(0 0 0)
(0 0 0)
(0 0 0)
(0 0 0)
(0 0 0)
(0 0 0)
(0 0 0)
(0 0 0)
(0 0 0)
(0 0 0)
(0 0 0)
(0 0 0)
(0 0 0)
(0 0 0)
(0 0 0)
(0 0 0)
(0 0 0)
(0 0 0)
(0 0 0)
(0 0 0)
(0 0 0)
(0 0 0)
(0 0 0)
(0 0 0)
(0 0 0)
(0 0 0)
(0 0 0)
(0 0 0)
(0.001002258 -0.00070455013 -0.0014458206)
(0.0011979442 -0.00085890934 -0.00093481411)
(0.001400877 -0.00088507124 -0.00045908069)
(0.0014605326 -0.00092609643 -5.9402987e-05)
(0.0013893825 -0.00083287417 0.0003274428)
(0.0012829748 -0.0008405443 0.00073305953)
(0.0009883228 -0.00055325489 0.0011534388)
(0.0019138129 -0.0036027802 -0.0023915212)
(0.0023916872 -0.0037977887 -0.0013796998)
(0.0025637748 -0.0035092629 -0.00061592795)
(0.0025579705 -0.0033519415 -4.3338052e-05)
(0.0025484333 -0.0034572456 0.0005350252)
(0.0022224106 -0.0033669833 0.0011953314)
(0.001886604 -0.0032959012 0.0020369434)
(0.0027553601 -0.0052014627 -0.0026221947)
(0.0032956153 -0.0049518406 -0.0018244684)
(0.003633047 -0.0049830483 -0.00092416538)
(0.0036844199 -0.004895291 -0.000128404)
(0.003584129 -0.0047360215 0.00065457789)
(0.003256174 -0.0047164072 0.0013126093)
(0.0028161894 -0.0047691599 0.0023031387)
(0.0045348336 -0.0074428087 -0.0028862754)
(0.005102252 -0.0073953294 -0.0020360413)
(0.0053753523 -0.0071959614 -0.0010611967)
(0.005490588 -0.0070758994 -0.00030504784)
(0.0053634582 -0.0069725609 0.00052181968)
(0.0050782369 -0.0069223843 0.0013951413)
(0.0044633665 -0.0067502575 0.0021806967)
(0.0066604731 -0.009468752 -0.0030442901)
(0.0072004077 -0.0092353847 -0.002189959)
(0.0075815715 -0.0091178227 -0.0012927023)
(0.00766738 -0.0089419564 -0.00041697854)
(0.0075841914 -0.0088098971 0.0004345675)
(0.0072501215 -0.0086934092 0.0012170347)
(0.0067410667 -0.0085766916 0.0021361263)
(0.009338146 -0.011446152 -0.0032211805)
(0.0098736687 -0.011258034 -0.0023580456)
(0.01019646 -0.011020325 -0.0014496812)
(0.010334991 -0.010870415 -0.00064330091)
(0.010212463 -0.010677812 0.00022781625)
(0.0099071404 -0.010467608 0.0010665646)
(0.0093456063 -0.010306591 0.0018407461)
(0.012489839 -0.013420892 -0.0034083468)
(0.013036477 -0.013219193 -0.0025539851)
(0.013420524 -0.01302743 -0.0016948755)
(0.013523751 -0.012824356 -0.00087748763)
(0.01345893 -0.012609196 -2.144131e-05)
(0.013163919 -0.012457455 0.00073131776)
(0.012654847 -0.01217649 0.0015993153)
(0.016143124 -0.015382058 -0.0036142496)
(0.01667715 -0.015135307 -0.0027872088)
(0.017010834 -0.014844636 -0.0019219428)
(0.017166116 -0.01462397 -0.001127034)
(0.017068465 -0.014374539 -0.00032498351)
(0.016803501 -0.014096947 0.00047873036)
(0.016283007 -0.013832996 0.0012184176)
(0.020243305 -0.017283029 -0.003862886)
(0.020781286 -0.017022272 -0.0030393564)
(0.021166395 -0.01680121 -0.0022401548)
(0.021285191 -0.016486971 -0.0014465987)
(0.021241528 -0.016219247 -0.00066461266)
(0.020966042 -0.015907315 7.725126e-05)
(0.020510176 -0.015600272 0.00086901994)
(0.024831152 -0.019196046 -0.0041362599)
(0.025357939 -0.018878919 -0.0033496476)
(0.025700465 -0.01854193 -0.0025455041)
(0.02587008 -0.018267418 -0.0017769938)
(0.025798039 -0.017952717 -0.0010198627)
(0.025563019 -0.017605792 -0.00028452132)
(0.025096622 -0.017258374 0.00043570339)
(0.029832329 -0.021029385 -0.0044452234)
(0.030353635 -0.020707595 -0.0036845764)
(0.030726859 -0.020383064 -0.002914422)
(0.030866054 -0.020027623 -0.002192371)
(0.030854286 -0.01967954 -0.0014469618)
(0.030611113 -0.019288555 -0.00076921724)
(0.030209333 -0.018933653 3.452729e-06)
(0.035290909 -0.02284877 -0.0048106065)
(0.035823121 -0.022501078 -0.0040494395)
(0.036164807 -0.022121111 -0.003324195)
(0.036341519 -0.021743225 -0.0025992511)
(0.036306297 -0.021362232 -0.0018875874)
(0.036079442 -0.020943892 -0.0012266682)
(0.035711701 -0.020515396 -0.00050495434)
(0.041141606 -0.02461735 -0.0051981577)
(0.041647875 -0.024220424 -0.0044673626)
(0.042011002 -0.023816946 -0.0037791736)
(0.042174547 -0.023400323 -0.0030826219)
(0.042172479 -0.022992711 -0.0023967452)
(0.041973874 -0.022546103 -0.0017719064)
(0.041629936 -0.022091724 -0.0010853153)
(0.047394555 -0.026359204 -0.0056220929)
(0.047902964 -0.025937018 -0.0049218233)
(0.048274479 -0.025497249 -0.0042606854)
(0.048444077 -0.025063312 -0.0035900637)
(0.048467064 -0.024617943 -0.0029349307)
(0.048280732 -0.02413512 -0.002337519)
(0.047976531 -0.023627523 -0.0016642932)
(0.054017628 -0.028028714 -0.0060938452)
(0.054523244 -0.027568278 -0.0054152209)
(0.054886292 -0.027095545 -0.0047972462)
(0.05506842 -0.026620105 -0.0041399741)
(0.055097789 -0.026143142 -0.0035321863)
(0.054943699 -0.02562304 -0.0029421936)
(0.054663995 -0.025106136 -0.0023147399)
(0.061018901 -0.029671251 -0.0065870454)
(0.061520446 -0.029194861 -0.0059466162)
(0.061890854 -0.02868964 -0.0053475711)
(0.062087196 -0.028206547 -0.0047346456)
(0.062135144 -0.027696927 -0.004133911)
(0.062008746 -0.027165015 -0.0035845421)
(0.061754812 -0.026592591 -0.002970275)
(0.068350079 -0.03124574 -0.0071267645)
(0.068842527 -0.030728193 -0.0065094464)
(0.069220552 -0.030202472 -0.0059511846)
(0.069410863 -0.029669968 -0.005349678)
(0.069481666 -0.029142744 -0.0047961782)
(0.069369997 -0.028562711 -0.0042603557)
(0.069150086 -0.027992651 -0.0036815696)
(0.076017685 -0.032787007 -0.0076870087)
(0.076517905 -0.032264768 -0.0071117049)
(0.076892103 -0.031705256 -0.0065673835)
(0.077108126 -0.031179204 -0.006004927)
(0.077187438 -0.030616242 -0.0054654071)
(0.077108189 -0.030041801 -0.0049570028)
(0.076912466 -0.029419535 -0.0043968174)
(0.083994724 -0.034273814 -0.0082913361)
(0.084478149 -0.033708937 -0.0077324774)
(0.084867213 -0.033140319 -0.0072253497)
(0.085073462 -0.032566854 -0.0066793273)
(0.085178995 -0.031997633 -0.0061741035)
(0.085110754 -0.03137513 -0.0056824992)
(0.084951394 -0.030763373 -0.0051549521)
(0.092260813 -0.035720009 -0.0089071055)
(0.092760603 -0.03515699 -0.0083847006)
(0.09313923 -0.034559106 -0.0078957475)
(0.093373778 -0.033998956 -0.0073791712)
(0.093484454 -0.033393872 -0.006890382)
(0.093451132 -0.032790748 -0.006423069)
(0.093310907 -0.032131132 -0.0059115109)
(0.1008166 -0.037128111 -0.0095606501)
(0.10129721 -0.036527231 -0.009055864)
(0.1016948 -0.035933258 -0.0085943528)
(0.10192144 -0.035328375 -0.008096179)
(0.10206132 -0.03473308 -0.0076339911)
(0.10203429 -0.034082262 -0.0071800335)
(0.10192745 -0.033435246 -0.0066934004)
(0.10962746 -0.038493609 -0.010222307)
(0.1101255 -0.037905441 -0.009745812)
(0.11051403 -0.037283973 -0.0092986322)
(0.1107691 -0.0366983 -0.0088268767)
(0.11090786 -0.036064294 -0.0083736999)
(0.11091176 -0.035437296 -0.0079402649)
(0.11082406 -0.034759632 -0.0074678615)
(0.11870839 -0.039846639 -0.010903875)
(0.1191876 -0.039219985 -0.010443602)
(0.11959898 -0.038610251 -0.010023372)
(0.11984272 -0.037985137 -0.0095641701)
(0.12000952 -0.037376431 -0.0091311133)
(0.12002483 -0.036719664 -0.0087148742)
(0.11996256 -0.03604774 -0.0082542677)
(0.12801786 -0.041143883 -0.011588522)
(0.12852017 -0.040547036 -0.011157262)
(0.12891668 -0.039909611 -0.010745688)
(0.12918764 -0.039317418 -0.01030414)
(0.12936031 -0.038675027 -0.0098858053)
(0.12939433 -0.038027 -0.009472432)
(0.12934786 -0.03734043 -0.0090245714)
(0.13757899 -0.042458735 -0.012299817)
(0.13807306 -0.041829054 -0.011862386)