/*--------------------------------*- C++ -*----------------------------------*\
  =========                 |
  \\      /  F ield         | OpenFOAM: The Open Source CFD Toolbox
   \\    /   O peration     | Website:  https://openfoam.org
    \\  /    A nd           | Version:  6
     \\/     M anipulation  |
\*---------------------------------------------------------------------------*/
FoamFile
{
    version     2.0;
    format      ascii;
    class       pointScalarField;
    location    "0.9";
    object      E;
}
// * * * * * * * * * * * * * * * * * * * * * * * * * * * * * * * * * * * * * //

dimensions      [1 -1 -2 0 0 0 0];

internalField   nonuniform List<scalar> 
3969
(
89604.774
99068.82
-1784170
-895033.36
100385.29
109087.08
-1326908.2
-2702961.9
48046.576
20810.652
8281.1708
6272.3694
16658.307
42323.333
87354.899
-962008.86
-937606.33
-951654.75
-974571.26
-995845.02
-1007401.3
-760302.82
95838.752
78092.589
77194.402
76387.548
73617.149
72020.326
68352.098
66265.64
63299.877
61219.054
59728.564
58279.383
57245.1
56104.068
55161.58
54434.481
53328.576
51930.129
50320.893
48008.252
45318.411
41922.316
37948.03
33195.564
28325.296
22371.364
15763.179
9148.8557
1854.863
-5508.7971
-12699.268
-19802.627
-26397.293
-32362.414
-36986.648
-41616.588
-43833.931
-46530.2
-46362.221
-46639.102
-44532.282
-41890.195
-38983.135
-33521.148
-29452.957
-24629.587
-2944.8697
91145.821
65222.787
74368.776
69073.294
66945.569
62646.836
58654.986
54317.496
50065.67
46273.677
42078.636
39287.604
35486.499
32520.84
29607.156
27258.563
25118.029
23134.403
21606.947
20089.075
18943.083
18665.589
17257.55
17437.804
17492.736
18402.247
18337.18
18852.278
20100.257
22330.617
24519.711
26830.909
29103.568
31331.333
33211.175
35068.187
35516.233
35841.974
35585.436
33759.087
31629.441
28832.591
24427.643
19865.38
14696.551
8906.2598
-1879.817
51234.392
22719.007
8074.3522
9750.4633
14805.948
37026.273
73529.536
146908.95
92187.571
72998.412
86964.006
73433.216
71917.411
66951.377
59464.929
57606.517
49579.532
48339.546
45075.082
43276.309
40323.385
38147.389
36773.817
34585.302
33673.052
32124.375
30941.775
29996.595
29293.638
28835.885
28567.659
28099.218
27756.29
27177.866
26512.422
26721.996
26189.622
25865.415
25624.112
25124.179
24793.841
24018.835
21799.561
27248.786
20159.669
19026.209
16881.098
14158.956
11531.695
7673.838
3958.4094
-454.64878
-4385.7908
-6654.2323
-2141426.9
-1798567.4
-2111306.2
-1914460.9
-1871580.9
-1668940.8
-2090946.2
-4302.1126
-14406.211
-14719.22
-18046.403
-21688.93
-24948.255
-27338.093
-29534.964
-30841.435
-29854.417
-27556.841
-32518.021
-28586.813
-25189.674
-21819.334
-17133.949
-12511.708
-6854.3625
-1248.3027
4621.4585
10281.254
15979.131
21485.484
26290.634
30751.904
34531.163
38078.731
40988.132
43707.045
45796.293
47931.917
48879.108
51357.511
54788.538
55333.186
56360.294
59342.421
61159.271
64052.411
66242.814
71218.13
72590.704
77721.887
77898.401
77795.873
82496.344
106337.92
72013.271
70167.331
69289.415
69219.623
69139.817
68738.922
74026.804
62861.511
67009.449
73435.751
76424.821
76456.648
80376.417
67589.118
-1004177.2
-1003752.1
-1003918.8
-1004067.2
-1004151.4
-1004404.5
-1004762.2
-2013221.6
-2010559.2
-2011058.8
-2011342.3
-2011891.4
-2012906.6
-2016791.6
60531.282
52499.609
53706.772
53035.896
53355.089
52179.75
51199.965
49703.645
48283.145
46911.012
45488.262
43899.711
42352.317
40716.287
38957.79
37195.282
35225.588
33065.14
30815.239
28386.953
25738.955
22878.485
19966.029
16812.452
13598.933
10321.463
7054.4199
4065.3745
894.52003
-1748.3447
-4254.0705
-6578.9798
-8502.505
-10239.087
-11330.792
-12497.931
-12874.117
-13030.522
-12925.519
-11847.572
-10898.087
-9554.6302
-7231.9289
-6459.7506
-3034.8677
1422.808
7644.0603
28299.694
26540.116
29175.991
29503.567
30105.168
30162.658
29515.542
29254.456
28406.621
27483.228
26383.261
25012.898
24134.956
23103.993
21871.283
20333.518
18656.998
16966.138
15129.48
13380.92
11698.384
9934.5066
8241.4867
6622.9044
5122.8534
3605.4079
2177.8375
908.13882
-360.62544
-1194.5973
-1856.2682
-2314.3174
-2515.8723
-2359.3806
-1960.9236
-1604.8764
-77.789754
-59.566694
2133.0958
2220.6253
4286.2345
4986.8392
6653.2543
7209.5771
9732.3084
8079.8113
910.02786
10860.772
7691.5342
10666.929
9965.6262
10905.102
10755.692
10689.076
10286.739
9581.2805
9509.2427
8696.1997
7916.7589
7073.6725
5492.8198
5205.4128
4117.3833
3368.9419
2293.5609
1548.1131
597.03437
-292.03418
-858.1906
-1119.1443
-1169.2832
-1029.5439
-883.94978
-156.42465
720.70399
1640.568
2734.2964
3907.0289
5171.9526
6576.8771
7930.1213
9357.4805
10974.565
12089.192
14112.87
15338.094
16395.464
18077.82
17721.154
19321.105
18571.528
20323.32
16394.683
-805.49112
5716.7412
1070.5824
2324.8414
2055.9937
2428.8748
2507.9148
2300.9357
2928.9176
2181.8453
2238.3011
1955.4382
1705.9156
1511.931
726.50513
349.96557
-9.4837125
-175.97223
-243.29408
-358.56005
-377.29264
-225.98013
280.88796
1119.3323
1633.5083
2060.7949
2786.3782
3283.8092
4110.4976
5167.687
6477.2542
7878.6731
9622.1831
11140.366
12985.162
14780.786
15953.72
17895.049
18852.622
20100.406
21107.28
21076.316
20590.769
20484.69
18386.804
18412.664
12947.597
211.12363
14755.097
8237.6909
8847.6685
7806.3061
8317.9709
8772.6943
8248.2201
8713.5641
7795.4655
8099.5277
7836.5328
7370.3796
6692.7487
6080.7265
5816.1246
5210.6218
4847.1957
4352.3238
3887.0951
3364.8178
3750.9865
3308.6105
2907.6638
2201.1239
1619.6037
989.17728
523.05402
46.597232
-469.15219
-1004.5546
-1444.8748
-1864.988
-2260.572
-2524.4718
-2934.7653
-2816.6774
-3289.235
-1789.65
6325.6578
11595.976
9991.1375
9568.1231
7960.5825
6612.0324
4639.0086
4116.3805
4962.0988
35462.409
28917.357
28664.478
28192.348
29151.939
28621.828
28004.436
27281.056
25531.16
24734.046
23827.755
22728.215
20726.499
19551.995
18257.443
17175.454
15994.591
15028.251
13993.198
13036.253
11731.577
11770.278
8616.9475
6583.3478
5190.5724
3946.1956
2179.3188
1191.3993
-130.31397
-1239.396
-2426.8218
-3437.8857
-4510.3733
-5390.0482
-6328.5467
-6957.6028
-7532.2668
-8265.1597
-7473.5596
-5871.0798
-8491.8348
-8255.8307
-9087.0724
-8686.1794
-8824.5315
-9253.2427
638.47804
55240.446
48740.952
47727.505
48299.151
48872.614
46946.292
45319.725
42465.05
40726.41
37522.964
36569.375
33922.143
31865.11
29934.925
28274.756
26619.854
25087.962
23511.561
22000.504
20285.059
19136.732
16566.886
15626.656
12831.157
12120.427
10602.393
8420.7172
7010.5135
5312.1756
3523.6026
1523.832
275.24205
-1354.4254
-2319.6275
-3533.2345
-3774.8917
-4487.9172
-3952.9294
-4423.626
-9121.5274
-10163.556
-8601.5871
-7118.0351
-4586.4447
-3335.1671
1340.2566
5176.6807
29756.306
30640.303
25907.533
25866.613
26171.786
26931.348
34004.565
12832.574
10912.746
9793.4827
9575.8942
9914.7759
10719.062
14434.091
4575.2474
3013.5229
1809.611
2082.1279
1803.7399
2421.7334
4369.182
2813.9844
1167.8251
662.68117
576.20973
1046.2576
2323.242
4907.2235
6209.1965
3902.6143
2778.7011
2566.2838
3170.6183
4605.5363
7589.3821
22225.361
16554.109
14419.17
13887.4
14615.602
17225.759
24312.533
39273.207
40790.14
33273.284
34549.304
33850.371
36987.677
48823.731
107947.73
94731.277
101732.61
108966.08
109458.24
117483.81
115206.65
92575.505
93995.394
89107.49
87882.03
95188.658
97878.636
99639.097
84227.196
87596.594
88745.202
88574.96
88720.616
89358.747
90103.317
81115.939
88753.117
88294.296
90523.312
90719.251
90019.934
83596.176
75620.861
78686.207
82832.162
82966.814
82547.421
79653.645
77738.184
70905.769
73114.306
75042.256
76525.526
75632.849
73505.188
70846.644
64587.228
66549.7
69653.954
70024.418
69891.482
68949.621
67125.564
60139.833
61195.236
62283.049
62713.886
62228.517
60636.716
59346.392
55006.227
55573.495
57451.599
58169.984
58151.41
57718.531
57426.632
50764.308
51399.06
51996.972
52849.01
51409.939
50682.389
50750.722
46795.53
47093.347
48133.153
48018.385
48921.693
49030.451
46842.764
43200.754
43074.637
43849.825
44603.973
44291.223
42352.001
43852.815
40031.837
39680.807
41066.896
40360.995
40634.767
40446.866
41138.962
36261.863
36564.593
37740.352
37384.467
38569.405
36551.696
38132.579
34068.14
34051.253
35354.285
34769.969
35171.699
34357.745
35713.271
31392.686
31247.56
33131.556
32114.442
33455.981
32217.896
33816.563
29437.468
29598.223
30953.572
30253.586
31259.815
29929.636
31585.872
27677.154
27483.215
29362.004
28461.203
29720.788
28515.052
30251.698
26145.134
26111.673
28135.173
26838.042
28308.533
26826.163
28732.456
24999.342
24799.814
27033.573
25659.457
27298.46
25775.769
27838.12
24184.712
23763.913
26266.427
24626.588
26366.702
24740.286
26890.487
23611.907
23055.671
25724.54
23961.535
25760.163
24060.365
26390.461
23133.203
22611.368
25154.828
23545.533
25226.016
23874.961
26143.551
23082.514
22609.073
25101.883
23353.231
24980.417
23677.802
25815.724
23268.076
22824.696
24677.584
24094.562
25011.599
23819.601
25535.595
23762.291
23453.501
24659.286
24267.123
25397.773
24294.225
25969.63
25683.965
24489.37
25372.448
24193.867
26067.267
24719.545
26434.466
26937.674
25330.62
26560.861
24876.77
26474.407
24851.802
26599.67
27882.316
26745.05
27409.428
25896.132
27304.048
26259.857
27349.859
29800.725
27750.599
29268.766
26499.242
28584.769
26570.867
28049.146
31035.489
29559.589
30408.152
27686.809
29371.196
27390.456
29003.096
32866.857
30864.748
31844.502
28645.167
30566.179
28262.035
30027.728
34146.332
32363.941
33184.604
29894.582
31493.128
29023.098
30752.187
35299.155
33453.28
34268.045
30591.156
32290.028
29659.063
31561.73
36022.258
34529.572
35041.375
31513.589
32812.572
30297.676
32056.419
36857.466
34818.142
35790.795
31716.529
33601.968
32134.454
32107.418
36579.311
35010.53
35522.669
32343.304
33248.75
26064.666
28557.02
31085.915
31157.782
30542.555
28578.659
28475.751
31972.094
31105.266
34084.536
32685.729
33459.078
30132.971
31308.826
28780.253
29929.37
32292.322
30784.29
31521.094
28651.927
29530.3
27247.909
28007.688
28795.754
27691.651
28597.816
25860.778
26925.81
24833.548
25390.13
25245.676
24492.801
25200.812
23245.068
23855.748
22048.844
22110.21
20415.842
19592.316
20593.917
18829.543
19528.453
18107.723
18060.526
15571.066
15216.57
15912.062
14778.997
15197.086
14001.333
13400.665
10048.106
9704.6704
10345.291
9548.1729
9993.6422
9155.0793
8453.6914
4555.5148
4450.61
5238.5511
4759.2646
5136.3913
4428.4574
3507.9356
-4139.9543
-3715.2474
-3821.3035
-3563.2083
-3828.7347
-4154.9424
-4099.0347
-1185962.8
-1300295.9
-1300637.6
-1301064.9
-1301021.3
-1300543.4
-1300400.7
-1253521.2
-1250895.6
-1250934.8
-1251376.5
-1251388.3
-1347120.4
-1251948.2
-1352689.5
-1257493.3
-1257769.5
-1257895.1
-1257790
-1146032.8
-1257157.3
-1290223.9
-1290464.2
-1291709.4
-1291110.1
-1292310.5
-1290626.9
-1291107.6
-1320353.1
-1192865.3
-1317626.8
-1318302.6
-1316727.1
-1317661.6
-1317798
-1217998.2
-1444618.3
-1343909.1
-1343652.4
-1451194.9
-1343974.6
-1344780.2
-1441128.5
-1336801.3
-1337348
-1337638.5
-1212923.4
-1337701.6
-1336972.1
92677.579
83553.364
78765.249
76313.081
77922.15
80315.44
82107.715
86512.853
80776.905
79845.257
78565.014
79716.368
81220.061
83465.442
83086.263
83214.415
82167.629
81277.987
82120.493
81696.407
81146.805
79906.956
80376.662
80164.298
80177.985
79751.766
78446.344
78913.114
76857.586
76348.271
77049.147
76442.218
76263.209
75171.077
74616.29
72895.886
72555.771
72449.324
71703.718
72212.838
71438.715
71932.328
69953.709
68890.557
68835.313
67748.976
68502.43
67971.577
68570.959
66400.752
65120.597
65288.001
64656.598
64469.596
64432.985
65102.671
64059.073
62984.483
62893.277
61786.813
62718.724
61955.904
63648.196
61579.862
60070.597
60029.058
58924.034
59717.712
59120.917
60516.781
59814.895
58391.787
59009.582
57367.225
58700.205
57576.976
58920.108
57975.594
56978.443
56577.739
56034.418
56095.845
56051.058
57070.52
56713.571
55348.679
55254.649
54363.483
54570.175
54385.306
54907.527
55571.497
54468.61
54650.264
53132.058
53877.099
53180.28
53613.123
53817.41
53249.135
53210.714
52434.568
52599.44
51861.77
52457.908
53431.057
51974.119
51693.98
50931.128
51122.38
51238.261
51256.079
52661.02
51186.082
50736.784
50006.538
49984.413
49125.592
49347.142
51066.235
49559.811
49540.913
48410.471
48345.607
47701.478
47548.951
49166.683
47971.603
47676.643
46742.424
46497.803
45845.195
45585.344
46963.712
45880.059
45483.861
44615.582
44135.555
43524.396
43135.443
44228.173
43405.595
42789.815
41928.327
41311.722
40742.231
40267.787
40892.461
40196.09
39390.309
38690.179
38036.288
37453.734
36818.523
36848.677
36374.23
35429.385
34912.67
34098.545
33502.359
32893.247
32198.529
32205.516
31061.587
30622.996
29947.999
29110.929
28413.275
27142.523
27440.51
25906.986
25914.198
24916.511
24103.368
23420.499
21437.749
22007.998
20512.635
20410.493
19612.445
18587.032
18104.298
15036.79
16042.211
14615.741
14430.1
13838.688
12655.441
12101.925
8761.2615
9494.0033
8295.8288
8266.9744
7601.8769
6435.122
5995.2763
1906.8427
3062.369
1671.6616
1908.1894
1140.7304
52.340277
-203.11317
-4878.9164
-3488.6466
-4863.0003
-4668.0255
-5154.827
-6266.7166
-6375.6216
-11331.932
-10284.713
-11393.486
-10884.843
-11513.992
-12705.2
-12367.971
-17738.661
-16497.722
-17348.661
-17140.426
-17617.493
-18514.286
-17964.053
-23375.808
-22307.518
-23118.416
-22653.097
-23024.727
-24085.931
-22895.021
-28374.224
-27606.286
-27975.878
-27589.413
-27909.702
-28696.968
-27395.805
-32495.199
-31843.342
-32123.405
-31849.588
-32371.38
-33234.533
-31159.275
-35921.546
-35423.424
-35253.239
-35247.363
-35300.132
-38401.483
-36720.404
-40684.625
-41539.716
-41169.288
-41508.272
-41309.17
-39897.518
-33801.579
-39082.993
-38521.491
-38442.641
-38479.474
-38767.298
-39830.806
-36784.233
-39745.7
-39204.681
-39125.53
-38984.155
-39546.549
-39873.546
-36771.265
-38560.688
-38767.228
-38572.677
-38494.33
-39053.267
-39559.584
-36177.291
-37223.733
-37128.679
-36947.535
-36916.818
-37439.075
-37980.38
-34419.902
-34090.726
-34135.976
-34152.704
-33880.949
-34669.527
-35254.778
-32044.621
-31526.359
-32009.602
-31663.666
-31670.068
-32228.473
-32413.498
-29014.3
-27058.386
-26735.926
-26880.68
-26629.661
-27444.005
-27773.734
-25317.939
-22313.394
-23015.772
-22648.105
-22691.331
-23242.027
-23513.679
-21363.139
-20026.221
-19264.871
-19789.022
-19261.817
-19625.745
-19737.722
-19041.966
509.24421
-1206.1694
-606.0314
-816.26126
-1060.2134
-456.01074
-900.54425
93677.672
69937.458
64106.011
62633.45
62630.037
58800.268
58214.449
53991.6
52328.042
49994.743
47273.732
45081.814
42756.241
40868.663
38967.303
37265.471
35219.819
33564.414
32057.176
30554.295
29115.376
27898.479
26668.315
25518.674
24668.576
23352.681
23400.467
22134.452
21480.257
20743.773
19854.997
19061.07
17957.867
16973.084
15206.189
14364.757
14959.548
12941.941
10375.143
9000.1171
7799.9887
6350.7791
5125.2481
3710.1292
2981.6533
1778.7546
13572.754
40410.574
43130.155
35513.381
37476.282
37662.738
36397.356
36633.226
35721.482
35434.98
33857.106
33480.716
31749.113
30598.456
28781.004
26883.468
26313.623
24599.275
23103.895
21983.656
20262.664
18906.059
17467.66
15866.573
14462.231
12979.681
10222.744
8998.7658
8515.6223
6947.3232
5543.4161
4245.3726
3190.1311
1989.5238
1183.6723
258.48063
-393.20718
-1254.5691
-2043.8413
-2423.2631
-2959.1377
-3166.0419
-3743.1432
-4045.7562
-4569.9793
-4638.921
-6270.4317
89.391476
14527.513
16801.433
14541.674
17388.692
15909.121
13404.524
16293.593
13238.642
14588.037
13303.544
12878.797
12347.394
12477.379
14638.921
13701.946
13410.241
12519.582
11500.212
11026.131
9558.6418
8639.1232
7277.0951
5828.401
4185.4373
2576.8442
593.22467
-983.43771
-3519.513
-5563.4596
-7783.5582
-9791.9115
-11922.4
-13480.35
-14991.337
-16106.997
-16782.567
-16829.891
-16601.556
-16116.614
-14836.017
-13452.027
-11733.112
-9897.4104
-7287.3359
-5662.8423
-1724.7879
-6768.3428
5476.427
5230.576
1889.2635
8456.2257
2899.5565
6297.1119
2172.3448
2863.4066
5010.3241
2356.9674
5327.7164
3101.7143
5650.5024
6637.9736
7100.8984
7541.8529
6904.2342
6688.9856
6138.9535
5241.8899
4237.5263
3188.9639
1574.5172
381.72277
-1450.406
-2632.6709
-4641.7797
-6071.8873
-7698.2512
-9070.4738
-10442.047
-11530.096
-12399
-13405.54
-13664.009
-14024.518
-13954.75
-13705.964
-12720.147
-11869.351
-10069.868
-8649.182
-5737.3546
-3741.9474
-7.8948659
3653.771
-3392.7694
13662.068
3612.9215
5870.298
5343.0572
5550.4583
6477.1352
7577.0623
7381.5297
6624.4343
7990.6948
6467.7512
8059.1746
7320.6608
7321.0871
7660.5916
6857.0612
6798.5021
5984.5639
5483.7012
4461.1155
3589.0239
2358.6219
1254.2219
-291.09646
-1751.7169
-3121.7336
-4795.7392
-6037.6017
-7475.4574
-8686.9483
-9705.4043
-10380.505
-10961.68
-11150.08
-10942.324
-10745.611
-9776.3397
-9058.4575
-7835.3311
-6178.7007
-4696.8041
-2618.9365
-679.03624
1493.6254
3689.8913
7887.205
5114.4231
32700.628
25017.729
18578.253
24747.743
20230.918
24289.576
23099.228
21357.564
23730.057
20895.365
23306.521
21290.567
21040.181
19968.924
18644.125
17749.871
16352.047
15360.706
14080.896
13035.632
11806.861
10757.361
9656.4139
8190.0606
5322.7319
4046.9458
3448.1012
2632.4953
1964.5445
1331.6198
924.06796
563.78904
323.58836
356.54697
495.80772
283.9142
925.20699
1290.2384
2521.9055
2823.9339
3901.4848
4654.5302
5392.5508
6203.6467
6860.669
7888.8172
5165.7067
85160.832
48803.019
55029.651
48760.746
52272.039
49706.753
47851.74
46954.001
43063.452
41189.588
37470.396
39031.844
36010.217
33744.516
32048.511
29572.506
27943.954
25819.016
23937.027
21879.209
19668.435
17160.763
14637.344
11222.84
9568.4468
6053.7277
4873.7626
3073.0299
1302.5243
28.18383
-1177.7341
-2130.4851
-2749.8262
-3054.7259
-3132.8476
-1722.2501
-2316.4232
-1793.9134
-1285.8368
-265.18391
944.04099
2033.7122
3423.951
4960.4694
6033.13
8334.8529
6713.8197
74939.332
63417.867
61607.376
60595.502
61134.723
61298.151
62709.887
67150.924
68424.266
64030.366
63477.1
62758.341
64158.595
64849.433
62119.632
65159.897
64964.51
64153.929
63930.805
63834.917
62720.909
60366.693
61641.567
61752.174
61931.829
61208.635
60855.995
58972.291
58303.193
59989.219
60152.259
60269.646
59818.009
59691.503
58140.47
55647.4
55926.725
55642.99
56040.698
55279.634
55344.013
55050.737
54308.344
54605.769
54225.45
53928.05
53517.337
54022.007
53806.116
51352.322
51065.673
50424.931
50989.357
50488.513
50581.998
50536.905
49889.643
49955.244
48679.28
49092.302
48377.489
49233.754
49474.418
47386.702
46888.148
46245.053
46393.698
45800.246
46715.437
46616.079
45682.055
45347.823
44427.413
44409.58
44287.063
44646.308
45107.028
43864.11
42984.622
42424.628
42591.958
42060.145
42854.967
43002.736
42093.818
41328.043
40693.953
40455.29
40438.968
40752.997
40871.625
40197.357
39284.836
38779.622
38579.268
38620.778
39037.387
39265.723
38261.482
37641.74
36869.679
36806.887
36505.776
37245.199
37004.115
36269.936
35608.377
35034.847
34819.731
34943.165
35417.379
35371.389
34491.149
33748.716
33106.309
32741.634
32983.458
33459.606
33485.348
32359.884
31711.064
31152.212
30794.325
31089.572
31574.007
31399.474
30404.311
29664.208
29222.519
28899.778
29250.169
29663.349
29699.886
28440.892
27645.642
27327.065
26949.152
27258.222
27768.782
27830.969
26540.875
25535.297
25411.216
24974.093
25443.458
25912.596
26017.182
24723.063
23516.271
23561.924
23159.835
23649.804
24038.01
24228.46
22894.941
21455.773
21890.454
21378.147
21804.512
22091.28
22538.486
21170.259
19593.789
20352.609
19543.189
20014.178
20361.725
20910.13
19395.011
17534.615
18230.235
17829.612
18035.668
18324.971
19292.143
17244.166
15822.415
17002.537
15987.629
16142.444
16658.854
17219.785
15904.712
13932.79
14772.353
14498.084
14505.705
14974.573
16297.676
14168.033
12602.593
13382.561
13019.844
12925.528
13319.278
14740.425
12426.673
10918.642
12244.172
11370.876
11454.807
11753.439
13391.229
10951.136
9642.0369
10778.598
10071.512
10133.532
10355.055
12155.026
9558.1793
8419.7972
9495.6328
8962.32
8810.2495
9017.7082
10938.039
8215.5811
7346.265
8442.2506
7800.6951
7620.3232
7859.6393
9808.6161
7027.9214
6522.5132
7262.3825
6888.2678
6667.9936
6818.9026
8966.8426
5993.305
5579.6725
6443.2258
6090.5405
5846.391
6091.8113
7898.032
5099.4797
5113.2929
5596.2597
5358.4196
5075.44
5023.1441
7169.0704
4476.3549
4307.0758
4933.4418
4743.9281
4416.0607
4457.4325
4973.1584
3073.2962
3550.4283
3771.3057
3691.4577
3764.0944
3718.2447
8976.6761
3597.9581
5294.4951
5970.271
6043.4253
5353.4615
5713.2845
5317.7223
2521.2419
3235.6598
3647.5831
3830.5007
3896.6883
3955.431
5473.211
3436.8588
3322.8153
3717.1632
3884.2514
3570.4686
3706.2957
4660.0739
2584.6925
2671.4838
3179.0502
3360.7525
3476.7294
3582.7791
4650.7134
3228.4087
3212.8588
3624.5929
3800.9989
3616.2103
3709.245
4304.1447
3531.09
3314.6997
3876.6164
3971.5533
4148.4675
3993.5275
4264.0802
2728.2233
2779.7288
3219.298
3594.893
3417.7811
3357.512
3581.9483
4393.3286
3859.1131
4937.5064
4731.9422
4988.6898
4882.8833
4482.316
5468.6427
6384.2732
6327.6833
6368.6866
6496.0509
6381.4929
5461.6963
13545.635
13392.131
14104.577
13612.019
14016.554
13803.78
13857.578
33953.551
27121.734
24750.031
23946.467
23765.03
24218.223
25876.054
36368.837
38644.39
36613.498
36575.424
36561.599
36681.581
37556.179
35019.036
35695.318
36067.543
35396.715
35432.402
34286.433
33821.194
35234.643
36512.542
37150.409
37063.923
36508.212
35890.759
34528.173
34301.535
34437.868
34963.559
34371.789
34533.663
33727.545
33511.474
33999.582
34260.814
33513.092
33417.368
33168.581
32793.654
32853.064
32637.875
32818.362
32458.944
32180.926
32139.949
32040.198
32196.42
32140.433
32253.022
31254.252
31019.287
30988.165
30782.699
31463.368
31182.845
31361.688
30394.168
30082.36
29972.298
30194.453
30774.649
30241.593
30117.849
29024.619
28746.864
28965.96
28880.851
29370.973
28925.618
29356.745
28035.419
28040.159
27808.367
28106.053
28549.572
27654.659
27980.48
26813.263
26438.793
26403.292
26477.686
26749.01
26420.169
26850.209
25772.17
25514.767
25309.046
25559.515
25701.674
25357.243
25198.12
24509.965
23934.296
23998.091
23629.29
24335.263
24282.648
23864.043
23063.889
22669.426
22716.428
22145.746
22613.85
22759.857
22307.804
21564.727
21383.749
21110.132
20825.526
21192.849
21123.409
21074.332
20073.922
19895.162
19603.694
19257.07
19692.675
19677.867
19577.334
18640.953
18668.558
18199.235
17797.447
17874.427
18139.514
18197.606
17319.054
17175.153
16732.079
16256.111
16559.583
16617.562
16823.049
15913.678
15836.896
15282.017
14856.973
14988.414
15070.289
15413.302
14618.186
14420.2
13879.055
13455.593
13471.546
13604.479
14104.332
13344.783
13135.804
12597.774
12035.485
12145.992
12351.711
12681.877
12043.076
11760.564
11090.938
10735.243
10788.864
11116.566
11357.158
10887.879
10372.555
10068.141
9709.8575
9696.538
10049.542
10181.896
9535.9362
9248.5
9054.6676
8424.8376
8459.9129
9055.6249
9203.4367
9328.8818
8532.1095
7925.7232
7562.091
7674.7236
8406.4275
8527.726
7894.2723
7590.1687
7589.6089
6996.8655
7241.8836
8084.1294
7338.5827
6524.0164
6597.1492
6632.0209
6249.97
6224.549
7045.0465
6378.0505
6901.6802
6091.6473
6116.1774
5742.6956
5520.6343
6759.235
5992.4796
6023.7971
5654.6834
5648.7091
5256.6429
5113.2128
6486.685
5362.4206
5767.0774
5366.5119
5303.0395
4930.98
4703.8227
6266.4754
5146.54
5507.2809
5122.6539
5029.2716
4772.3233
4630.0618
6208.3544
4947.8119
5334.7843
5030.0537
5019.7728
4769.5553
4326.9136
6243.2346
4869.135
5341.8182
5116.0392
4989.335
4441.4861
4357.9775
6328.31
4962.6596
5355.7362
5212.6506
4839.3467
4796.4882
4414.8581
6314.6444
4872.7211
5537.6605
5240.9731
5280.8579
4778.8922
4856.6614
6775.63
5599.8238
5676.0686
5796.2599
5074.4002
5029.9165
4182.1325
6609.3117
4752.2586
5569.0922
5348.8457
5251.7655
4975.0713
4715.5707
6926.272
5910.3964
6247.6133
5912.1862
5695.7749
5350.198
4741.6804
6893.9458
5048.0269
6009.3958
5578.3409
5589.0584
5231.4452
4713.2719
6854.9564
5803.9415
6098.8276
5951.552
5683.4787
5397.3471
4911.901
7043.7961
5132.7173
5805.7675
5430.6897
5374.5922
5232.1455
4742.9615
6501.9718
5331.0643
5633.3918
5579.8044
5546.153
5348.4731
4624.087
6022.0246
4460.1889
4895.9239
4683.9466
4413.5754
4306.8447
3805.0276
6394.9406
5262.4129
5347.2233
5125.9408
5224.7189
5421.4897
4626.2046
3573.195
2233.6669
2429.3184
2343.094
2191.5821
2245.3412
1621.129
2463.2009
1103.0993
1072.6069
652.24378
772.5202
423.23464
1068.4382
13294.21
10290.252
8917.8259
8535.2427
8032.0111
8485.2231
8555.1735
12597.417
13997.175
13369.734
13417.365
13301.301
12905.152
13246.353
14549.841
14370.41
14172.329
14352.062
13973.092
13638.159
13275.987
13424.024
14628.713
15722.515
16051.126
15570.665
15664.531
14302.923
14431.862
14701.979
14402.528
14117.173
14005.143
13288.322
14161.865
13538.874
12148.543
12160.508
13360.16
12471.593
12495.966
12649.404
14977.743
13174.621
13766.172
13651.969
13165.927
14317.49
13821.423
14297.335
11990.98
11448.439
10900.169
11045.702
11359.137
11433.094
13833.937
11432.52
11841.973
11728.432
11627.86
12574.719
12579.793
13289.298
10557.607
10632.485
9949.4196
9994.4776
10803.385
11150.468
12826.65
9944.6457
10322.016
9555.6084
9680.8032
10319.812
10561.828
12526.714
8801.9655
9537.4179
8681.3114
9422.7102
9620.6028
10734.516
11704.475
8195.561
8388.2138
8499.1082
8445.4652
8863.7642
9593.6672
9831.1923
8130.5236
7874.6231
7496.476
7864.9812
8534.4598
8731.9711
8145.5542
7700.641
7604.5406
7062.0017
6873.8735
7710.8142
8190.0983
7300.3857
6848.8373
6842.3272
6187.7562
6401.5212
6922.7673
7351.2193
6712.5131
6252.1683
6364.1057
5686.593
5680.3909
6339.2403
6923.7708
5888.0954
5509.2701
5625.0049
5020.7655
5134.9975
5605.9885
5933.7535
5288.7972
4978.9266
5118.1031
4535.2559
4606.3826
4901.4252
5620.3528
4588.6397
4266.7969
4454.6253
3945.3258
4072.0468
4303.1769
4846.327
4013.5636
3837.0753
4025.4693
3567.8928
3779.3923
3726.4256
4329.7197
3412.7342
3285.6228
3475.6983
3136.2713
3295.8092
3153.4296
3793.5846
2890.411
2855.7544
3164.3756
2768.5905
3000.1551
2761.5653
3386.1573
2519.3942
2466.511
2738.6796
2453.8713
2705.1118
2196.5491
2613.3733
2163.4806
1905.8997
2406.6806
2244.6254
2267.6838
1681.7043
2491.7027
1714.3565
1360.4356
2189.9139
1613.3732
1865.5194
1457.4804
1624.9349
1642.3815
1176.5027
1848.9137
1561.6049
1748.9755
897.09365
1530.5283
1373.3148
712.80691
1413.6711
1101.0728
1333.9002
416.56867
1147.5156
1354.4368
447.06646
1297.3717
679.61924
1061.6952
55.180085
853.22582
1463.6897
259.45769
810.45428
504.96431
874.27293
-356.13074
711.30167
1612.2709
-64.132987
709.8257
289.1878
596.54436
-496.08315
656.5509
1938.4093
-83.108184
620.4515
12.230907
636.37869
-648.33297
603.90482
2350.4473
-84.461102
511.67852
80.875861
546.28944
-791.83379
676.7178
2757.4677
-19.248283
721.76499
138.01902
745.9588
-345.33971
1103.2759
3378.9995
337.07177
978.35064
432.53505
1072.9403
-89.383153
1087.6153
4087.0589
836.92467
1492.0021
840.66608
1552.4413
454.9412
1575.0982
4538.9571
1239.089
1874.5524
1456.2383
2216.0084
1198.6968
2222.2741
5643.451
2188.9621
3090.3041
2292.6758
3247.0979
2026.4411
2634.6375
5800.2787
3179.2345
3252.8955
3264.7675
3726.3342
2903.3824
3249.4197
7037.9611
3713.5998
4550.4521
4161.1975
4964.9139
4014.0949
3947.8552
7290.2861
5246.7787
5317.4787
5365.6309
5673.7041
4905.7478
4483.362
7793.8242
5098.0662
5807.4494
5638.5669
6176.0487
5847.3295
5169.7119
8203.9848
6632.2494
6817.5723
6834.5614
7132.0447
6694.8493
5297.6508
8407.8345
6655.8016
6819.8367
6863.8336
6995.5991
6777.4613
6014.2979
8873.6806
7264.9701
7237.6333
7391.2804
7385.6708
7743.043
6134.3069
7334.4142
6238.9455
6353.5963
6644.5009
6681.6707
6777.5301
6368.4921
-4411.7899
-6201.6083
-6291.9262
-6541.4477
-6169.652
-6371.1836
-5944.8738
5059.3405
3999.3257
3292.6397
3147.4233
2865.3572
2758.4317
1825.8254
3319.9684
5652.9897
5856.1347
6342.0753
6152.4913
5516.0555
4921.6097
3448.7568
3628.1949
3070.9424
3365.1742
3177.2404
2860.7078
1969.4857
3572.1132
6848.1622
8597.0905
9701.2697
9368.4709
8693.4986
6952.3188
3358.8132
3768.7229
2211.7036
1878.0401
1556.0866
1346.6264
1982.9993
3293.8219
5100.9072
5082.0324
6290.2689
6449.2719
6938.3182
5483.3856
3594.4847
3431.8504
3229.1294
3425.2225
3216.2316
2253.6554
3800.2951
4681.2609
4009.7207
3156.5031
3808.5788
3127.6163
3627.4928
3606.8906
4472.2176
4224.7929
4101.2834
4050.3089
4681.5155
4082.7351
5215.7246
5068.8746
4734.917
2862.1723
3459.4559
2849.9988
2561.1249
2908.6576
5065.5703
4533.2215
4405.1876
4367.5677
5123.119
4503.203
5550.6183
5158.6649
5337.6019
3802.4123
3722.4574
4017.5441
3326.1245
3738.3634
5392.544
5105.461
3414.3571
4733.731
4991.1605
3997.7068
5283.6839
5045.291
5951.0472
3163.1651
4076.8994
4655.4299
4085.9373
4513.7264
3878.4896
5295.2026
4659.8139
4199.509
4847.3388
3785.0174
4627.7314
3810.2902
5066.6955
4604.8914
4280.3841
4798.9117
4195.3258
4707.9243
3694.3633
4896.004
4736.5094
4345.2488
4958.1786
3951.7189
4564.9457
3685.7113
4745.433
4610.9888
4309.3202
4739.4338
4063.8232
4366.7961
3533.0502
4399.7172
4593.2001
4189.8253
4677.6506
3834.616
4160.7928
3513.8094
4161.401
4274.9612
4007.3828
4349.9382
3680.6825
3867.8819
3498.5706
3607.457
4138.7155
3817.926
3999.9629
3352.0476
3330.3984
3328.1747
3218.4763
3758.5501
3335.1806
3538.2938
3009.2441
2957.2717
3264.0102
2655.2653
3332.3855
2986.1553
3089.7782
2537.3931
2042.3602
3084.7763
1998.281
2931.1405
2398.4846
2643.0239
2136.1973
1738.255
2791.0296
1617.9914
2476.2962
1862.4323
2067.8159
1770.2575
1016.9688
2434.3795
1235.8542
1939.7362
1476.2446
1705.122
1402.0169
576.47526
1939.9038
693.42941
1456.6289
965.52331
1263.8067
1025.8606
69.490745
1865.185
-25.71214
1220.8653
625.53857
800.05535
906.33127
-387.40104
1714.2401
-229.41667
723.14403
533.13394
341.89052
783.18035
-919.10342
1571.8371
-424.64513
494.10493
297.10649
169.3268
722.19784
-1265.3567
1649.8733
-498.9705
342.64746
337.07981
-8.544862
782.87874
-1529.1087
1859.3064
-433.17061
300.43358
317.8763
-207.20989
778.2683
-1761.2347
2092.7429
-389.01735
285.13925
394.73034
-101.14936
1123.825
-1620.7722
2579.2448
-113.43168
447.80601
543.50606
18.306558
1078.2172
-1666.8922
3070.0204
247.10796
573.20214
745.19141
76.096448
1376.8915
-1464.0466
3523.6123
419.66151
655.54977
773.15484
371.30746
1332.4184
-1023.9761
4447.2715
1133.2768
1043.2089
1322.1948
376.45329
1833.7081
-791.33133
4235.1969
1231.5783
1172.0931