/*--------------------------------*- C++ -*----------------------------------*\
  =========                 |
  \\      /  F ield         | OpenFOAM: The Open Source CFD Toolbox
   \\    /   O peration     | Website:  https://openfoam.org
    \\  /    A nd           | Version:  6
     \\/     M anipulation  |
\*---------------------------------------------------------------------------*/
FoamFile
{
    version     2.0;
    format      ascii;
    class       pointScalarField;
    location    "0.9";
    object      p;
}
// * * * * * * * * * * * * * * * * * * * * * * * * * * * * * * * * * * * * * //

dimensions      [1 -1 -2 0 0 0 0];

internalField   nonuniform List<scalar> 
3969
(
1593097.1
-2309069.3
10488.323
7561.3975
2897036.5
-4964391.5
8098.2918
5660.8314
1207448.7
854931.75
440674.88
-38639.16
-391560.95
-917234.19
-1026623.6
-7474.4077
-627.83219
49.461906
5198.0262
9951.6439
13750.037
13634.403
515595.49
590910.59
580054.51
601886.23
593021.41
591753.99
578664.45
563296.14
550552.06
528986.39
515136.42
497885.01
479524.09
463696.52
447265.43
429208.8
414603.07
397355.95
382262.3
365036.39
349774.3
333255.79
317639.96
302319.19
285285.23
269200.74
252409.18
236811.66
221789.42
205403.81
190156.16
175177.52
159873.89
145425.25
131511.36
118189.4
104223.97
92954.979
79771.83
69875.035
58149.591
48918.441
40295.425
30635.465
25518.176
19116.136
13846.225
-512095.27
-437583.12
-547037.02
-487464.58
-549579.31
-507455.71
-524214.4
-494308.8
-494940.19
-474519.97
-463290.46
-453004.09
-430584.65
-424011.67
-404981.82
-391343.44
-376668.13
-358324.45
-345813.4
-328507.32
-312054.75
-299025.84
-280569.82
-267201.35
-250325.14
-234982.52
-218164.19
-202254.7
-187859.81
-172599.77
-160457.95
-145657.11
-133331.42
-119743.11
-107826.55
-95438.609
-84471.758
-72572.126
-62621.138
-51823.112
-42031.085
-33658.541
-25687.42
-18237.656
-11154.132
-6180.1926
-552.6501
2189089.3
1616833.9
715036.31
-145989.76
-816854.98
-1772378.3
-1430684.5
-646468.7
-716984.92
-460993.31
-665424.85
-570152.05
-591933
-568380.24
-560895.5
-536143.13
-501943.94
-534652.5
-489627.47
-493682.11
-472349.11
-456407.22
-443078.53
-421307.83
-406651.6
-387233.25
-367858.61
-352412.96
-334890
-318455.27
-301523.19
-286908.17
-273264.78
-257072.18
-237140.51
-222183.75
-205490.32
-188187.98
-172154.87
-156146.45
-140141.74
-125396.79
-111627.14
-94836.633
-82821.049
-71361.996
-59595.961
-48305.009
-38816.373
-28866.273
-20395.183
-13044.567
-6336.163
-300.55687
18625.15
12540.688
10692.808
6695.5111
-408.04302
-957.41079
-8569.7853
24315.142
21702.35
24971.671
32735.939
40587.353
49052.652
58772.769
68318.787
79735.271
90224.221
99936.036
118957.91
129447.27
143190.32
157983
173207.54
188129.45
204470.1
219703.01
236510.56
253757.43
269682.18
287209.53
304832.99
322654.79
340869.77
358791.41
375536.22
394529.43
411028.49
429511.17
444399.86
454287.39
481625.13
507767.64
505448.06
535053.22
536396.63
558226.23
583034.11
606438.53
590783.36
627028.48
593694.68
596349.72
617065.44
596158.49
1330941.6
1443647.1
1520422
1495719.8
1495305.1
1496926.5
1244726.8
-1776922.4
-2301487.5
-2676807.5
-2862603
-2741469.5
-2718472.3
-2012734.8
8091.4266
8710.0498
9274.0453
10373.854
10047.215
8720.9461
8691.0263
3063.8977
4681.7169
4028.1119
3374.3894
4455.6038
8254.4504
4054.0644
448634.89
461168.74
463753.77
469629.17
468188.26
465726.95
453751.27
451018.58
431512.68
429193.04
412657.75
397159.92
389916.75
375692.48
362766.93
350367.59
337645.93
323620.47
309659.77
296032.42
282659.46
268072.27
254594.02
240782.39
228322.85
213632.9
200158.15
187444.24
173890.94
160816.57
148442.38
135770.94
123875.49
112341.81
101337.85
90441.884
80068.475
70657.71
61504.907
53822.487
45197.618
39197.275
31245.188
26080.694
21186.901
13906.635
8387.5604
286073.86
282364.41
287986.39
301278.5
304440.62
313054.76
303979.33
300810.83
293608.94
289500.5
278780.41
272944.62
261762.79
251745.4
244737.25
234010.87
225700.54
214958.11
206032.31
195919.87
185394.44
175001.98
164933.91
155673.31
145667.2
137495.92
129279.91
119250.88
112010.5
103522.51
95824.305
88260.22
80910.839
73933.402
67198.449
60783.621
54633.313
49399.527
43100.541
38672.997
32869.034
28957.16
23594.376
20760.856
16119.724
11217.745
5863.682
125924.49
143790.33
137576.9
145469.2
144833.28
149626.56
145614.07
148468.47
142320.66
140675.64
137937.18
134217.21
129537.08
123748.22
118070.94
114481.39
110782.65
106196.36
102752.79
98095.899
95039.844
91078.148
86820.91
82039.389
78139.171
73020.659
68298.651
64731.017
60448.478
56039.716
51897.069
47647.73
43585.998
39573.452
36168.164
32313.495
29146.008
25832.596
22706.95
20675.683
17560.2
16607.535
13330.148
12623.81
10184.211
7255.8219
6298.572
-11734.325
-15984.732
-21488.076
-11914.058
-22946.533
-17373.493
-24869.648
-21663.8
-23506.355
-13785.235
-19545.776
-13725.124
-15538.276
-11772.449
-10247.881
-7743.7074
-6962.9483
-5117.1091
-4100.2785
-3501.678
-2658.5363
-3396.85
-5303.4794
-4064.9839
-2547.2813
-1758.6631
-299.33461
658.00408
1398.5315
2242.9199
3044.494
3629.0152
4034.0308
4548.5201
4944.6899
5516.6591
5322.1589
5768.8054
6133.2029
6468.1648
6799.5528
6941.3686
6016.3627
7528.9639
6488.8006
7419.7083
8097.4578
-167864.68
-150146.02
-154652.23
-165050.91
-176394.2
-174127.22
-178414.22
-172908.36
-173189.85
-161261.37
-163063.93
-148872.7
-149710.03
-136676.86
-134290.59
-124115.64
-119558.05
-111641.99
-105541.31
-99255.098
-89873.963
-78752.558
-72444.621
-62275.736
-58622.904
-55531.097
-49001.81
-43652.019
-39325.97
-35007.748
-30847.318
-27699.51
-24002.016
-21330.142
-18037.539
-15632.955
-13641.748
-10402.232
-11781.812
-9522.1805
-7877.6951
-5780.9418
-3477.807
-1033.2751
613.06171
3475.1883
6936.4383
-312604.89
-294106.05
-299633.44
-324119.44
-330215.61
-329725.88
-328980.91
-319107.87
-318272.05
-302445.82
-300482.9
-285884.3
-279374.28
-269785.49
-259460.08
-246702.04
-236525.51
-224091.86
-213189.32
-201922.45
-188173.25
-177669.3
-159529.83
-146351.66
-134294.61
-123940.96
-115048.8
-105377.57
-96474.941
-87913.527
-80548.766
-72548.035
-65484.094
-58536.95
-52042.06
-45786.661
-39832.342
-34602.561
-29174.227
-24894.906
-20489.554
-16267.857
-11533.546
-7491.0677
-3264.8742
1604.4887
8321.8435
-519361.99
-361955.02
-437726.03
-436071.61
-462173.96
-449105.65
-455223.79
-440416.74
-442727.08
-417463.69
-419573.5
-400371.79
-388379.72
-373286.19
-357547.4
-342729.16
-325695.9
-312552.66
-296450.28
-282056.63
-267862.68
-252653.77
-238311.62
-224662.03
-210230.15
-197443.38
-186233.18
-171213.98
-158106.88
-145390.2
-133432.23
-121409.89
-109820.72
-98978.979
-88035.738
-77892.192
-68492.966
-59104.163
-51452.314
-41892.227
-34119.207
-26767.606
-20113.174
-14446.911
-8664.073
-3109.6156
4164.4701
1051022.3
950951.14
991795.98
993944.43
996988.72
968315.74
916089.31
654366.82
706394.87
675487.37
688121.9
691802.94
675279.64
671865.28
330382.06
391823.7
337990.58
362708.14
346786.95
340381.86
366553.57
47786.187
3552.9794
-21225.389
14908.269
-10412.7
-56599.04
93154.317
-198974.1
-213137.25
-224090.96
-195016.52
-214980.26
-207818.2
-105828.4
-661989.15
-711453.02
-703768.23
-727103.31
-744711.55
-731306.26
-677054.39
-756088.83
-716653.36
-599407.71
-619353.87
-576613.34
-536122.09
-610119.27
-871875.53
-917145.26
-1043050.4
-1081023.3
-1110464.2
-1087271.9
-831505.9
-657479.93
-764245.32
-776867.06
-798416.81
-834183.46
-795192.69
-724594.2
-570090.44
-654264.55
-687862.83
-696194.99
-697370.37
-645946.67
-682068.23
-563035.59
-626752.45
-612150.07
-657765.38
-631745.78
-626193.2
-589310.94
-572655.87
-610756.49
-630851.62
-637338.33
-637654.35
-606652.72
-616564.16
-557188.03
-551636.47
-564131.06
-579915.06
-579409.38
-565418.26
-558198.53
-534793.29
-555603.89
-563416.52
-575820.52
-568672.35
-570481.76
-566289.16
-531891.07
-527671.91
-528372.33
-538161.51
-535009.53
-535684.98
-530501.64
-511862.11
-518974.26
-521420.78
-529549.68
-531152.92
-533543.47
-532526.76
-504854.62
-500656.58
-497954.07
-504196.52
-502927.76
-495108.35
-498591.78
-486556.13
-491196.87
-485359.51
-492649.59
-490595.37
-488867.42
-497463.45
-468866.27
-470362.46
-468143.94
-476248.59
-474074.26
-465614.92
-479734.32
-461179.13
-449643.34
-459015.35
-456080.65
-460662.18
-455982.13
-469505.55
-437170.97
-435936.99
-443852
-440713.86
-447421.02
-436595.17
-449059.14
-427488.72
-419983.07
-429540.55
-423780.04
-429981.93
-422656.24
-436020.24
-407756.43
-401508.87
-413101.53
-406981.67
-417283.2
-408605.56
-420840.67
-390905.12
-388307.19
-397371.25
-392119.21
-401568.49
-392095.17
-402090.18
-374764.85
-371586.98
-382519.24
-375536.47
-386860.86
-376009.16
-387874.93
-357666.95
-356605.94
-366614.55
-359155.01
-370404.29
-360227.68
-371696.14
-340891.93
-340258.14
-350398.54
-343093.57
-355297.84
-345025.09
-356380.39
-325706.45
-323917.37
-334356.25
-326676.81
-338606.63
-328912.2
-339824.01
-308768.05
-308106.9
-317699.81
-311025.17
-322695.03
-313226.22
-324662.04
-293648.77
-291492.62
-302134.34
-295014.07
-305282.86
-297742.18
-307992.68
-276617.29
-277154.58
-285064.78
-277990.71
-289819.55
-282439.86
-293186.2
-260674.38
-262502.15
-265727.05
-264289.39
-272126.71
-267274.03
-276604.79
-242966.85
-247233.55
-246457.8
-250802.47
-255491.46
-254938.08
-262258.99
-231378.93
-230790.63
-232597.79
-234425.8
-237484.02
-237365.04
-244541.72
-216122.65
-214871.79
-216833.61
-218981.22
-221111.12
-222417.37
-225863.18
-199975.13
-198824.78
-201147.18
-201900.83
-203275.13
-206773.14
-208265.23
-185369.8
-183440.69
-186358.97
-186190.93
-188699.44
-191216.56
-192240.6
-169621.48
-169146.89
-170429.8
-170782.57
-172205.15
-174860.84
-175750.64
-155696.1
-153945.97
-155672.79
-155509.97
-156994.97
-159509.25
-160483.38
-140741.23
-139901.7
-140816.82
-140784.76
-141928.46
-144531.38
-145426.6
-127170.11
-125879.69
-126737.93
-126542.69
-127532.86
-129893.48
-130344.44
-113376.31
-112411.98
-112742.61
-112451.16
-113124.94
-115909.84
-116329.25
-100433.83
-99619.895
-99614.564
-99710.282
-100315.97
-101395.07
-102518.94
-88264.032
-86630.423
-87267.157
-85836.839
-87305.289
-89695.966
-89656.022
-76582.207
-75973.734
-74860.716
-75295.251
-74871.704
-76782.447
-77302.188
-64993.78
-63961.805
-63354.527
-63277.119
-63415.854
-65127.052
-65196.016
-55015.364
-53495.267
-53682.387
-52827.903
-52976.626
-54549.686
-54861.548
-44346.75
-43835.833
-43192.303
-42512.55
-42796.824
-44188.879
-44116.5
-35525.881
-35158.826
-34310.233
-34119.129
-34033.599
-35125.838
-35167.811
-26596.799
-26425.261
-25508.01
-25511.594
-24986.22
-26224.622
-26122.807
-19210.646
-18726.686
-18356.51
-17964.196
-17711.918
-18697.51
-18273.072
-12582.654
-12733.445
-12070.455
-11903.475
-11572.281
-11861.561
-11248.03
-8246.9018
-7868.6006
-7917.7979
-7534.5548
-7176.6642
-7733.5868
-7207.4729
-3961.8329
-3940.2777
-3797.632
-2949.2075
-3883.4343
-3601.5909
-2111.4749
-14221.987
-16494.17
-18688.944
-18824.88
-17515.163
-16599.271
-14348.896
-6805.1544
-7301.1732
-7600.8528
-8334.3716
-7366.2146
-5894.3752
-4718.578
-3317.0103
-4536.8834
-5106.1632
-4904.1606
-4413.2443
-2868.3244
-2043.4643
5838.427
6398.541
6295.6578
6255.3815
7241.8189
6497.1257
7875.0636
12305.318
12489.909
12763.662
13653.32
13228.863
13047.097
12589.037
16890.029
19217.748
19585.896
19884.509
21010.683
18495.25
17922.75
19889.745
20477.574
21981.16
22079.621
21468.733
20573.971
19427.11
635558.56
630413.82
701643.54
687010.86
704611.22
669767.21
652841.76
664630.1
677994.29
707008.57
700452.29
710902.29
671351.3
656957.95
644511.83
648386.25
668513.2
669277.88
668597.79
641743.14
631603.41
614006.07
630579.69
643554.7
647514.25
645340.88
628099.17
630324.45
615080.88
618276.96
624033.93
628114.62
625715.73
619342.48
608803.97
591346.82
593154.46
602495.52
596468.27
601256.25
584716.08
588443.7
585193.59
585257.74
586990.64
586248.3
595922.53
582901.25
593684.83
561337.37
555994.77
566749.9
549458.02
562029.57
554492
559118.17
549813.56
554111.5
553240.46
548732.65
557515
548100.37
559338.58
535439.32
526786.34
529247.94
521370.55
532558.99
521525.5
534974.1
518931.84
512238.82
522423.33
510504.94
521890.05
512371.27
521928.24
498274.03
498612.94
499465.81
490257.22
500349.67
491480.49
504367.86
487853.24
478924.01
482822.32
475683.37
484048.39
475134.01
476116.97
469146.83
463768.52
465249.69
460261.44
466361.26
461930.77
470729.52
451992.62
448623.91
445698.89
445375.5
447625.6
443314.81
450786.8
439936.49
430303.7
431067.27
427336.35
433618.47
427169.3
431951.4
421309.04
414782.81
414004.95
412196
414275.71
409169.62
414938.78
404941.93
397424.28
398657.09
394718.8
397693.99
393544.53
397094.12
387862.66
381822.89
382002.34
377840.9
381085.83
376619.13
380755.85
371896.08
364496.32
365320.22
361387.66
364120.41
359579.7
363078.67
355936.87
347713.37
349590.08
344778.33
347636.93
343120.49
346446.17
339263.2
331431.97
333563.54
328559.17
330838.52
325703.59
329307.12
323435.8
315326.94
318060.53
312342.19
314347.49
309462.61
313154.62
306706.19
299555.19
301713.13
295942.17
297399.34
292282.75
296082.59
291003.54
282171.36
285767.19
279086.67
280781.91
275720.36
279932.59
274644.18
265849.57
269822.78
262724.06
264285.93
259401.85
262858.87
257756.53
250247.28
253072.28
246760.84
247489.11
242906.57
246806.42
242292.9
234468.59
236699.21
231035.25
231726.15
227434.55
231077.12
224931.74
217699.37
221090.39
214832.39
214998.49
210940.86
214479.28
208771.99
203228.81
204646.63
199434.57
199348.22
196081.72
198986.8
193111.1
187361.16
189038.85
184168.01
183762.62
180435.34
183399.41
176825.08
172380.77
173151.97
168975.43
167977.07
165526.2
168192.51
161513.1
157596.9
158224.71
154346.81
153260.27
151306.42
153874.28
146510.49
143335.29
143209.47
140076.6
138721.47
137276.86
138983.43
131932.7
129134.73
128976.57
126237.25
124504.62
123963.58
125143.21
117361.98
115852.54
115217.25
112646.48
111554.08
110815.31
112112.36
104416.92
103399.97
101183.36
100395.71
98236.716
97992.604
100020.16
91677.228
91180.724
89471.259
88117.716
86977.761
85374.27
88356.343
79128.168
78943.819
76686.98
76453.301
75022.012
74554.158
76568.249
68501.503
68686.039
66649.998
66523.425
64518.551
64189.057
66121.562
57160.988
57192.826
55261.513
55344.427
53707.224
54608.64
55638.634
48089.379
48448.137
46668.688
46833.635
45523.319
45627.03
46655.328
39261.626
39513.932
37835.742
38405.641
36706.868
37227.295
37599.261
30388.584
30543.028
29471.574
29862.06
28998.208
29323.289
30305.634
25466.484
26949.659
26505.657
27017.715
25840.302
25329.503
24671.348
20656.853
21162.59
20455.546
20573.047
20582.311
21153.608
20120.397
22901.575
25464.089
26111.817
26880.978
26618.413
26922.165
25258.697
596589.43
500762.86
482223.69
485207.26
494715.04
501209.8
475759.39
479485.42
464032.29
458022.39
439439.54
427851.84
413023.84
392934.11
382845.95
367338.61
350642.11
336265.08
320817.16
306108.54
291114.55
275868.67
261359.45
247136.95
232774.29
219070.28
204104.17
190736.58
177589.11
164428.09
151684.13
139449.94
127370.29
115920.93
105585.43
93577.054
83364.316
75333.246
65499.749
57274.867
49600.83
41943.399
35341.591
28518.86
22483.424
16054.29
6926.9049
350887.97
373261.17
281438.84
330788.76
364015.11
344130.93
358261.46
338397.78
342358.03
327483.38
319713.42
312093.99
293018.1
288638.2
277604.1
267958.56
256153.35
243563.14
233422.52
220877.13
209315.69
197806
186392.58
174440.27
163106.28
150566.58
142771.27
131491.38
122237.38
113116.42
104221.44
95939.82
87685.513
80621.277
72137.843
66405.223
59605.956
52855.861
47183.764
41422.712
36306.856
30997.808
26394.069
21627.4
17435.303
12368.911
6595.1071
162178.32
213495.01
118824.78
195239.13
160376.58
153860.64
155169.26
151247.91
150051.41
141342.69
148479.48
140562.32
147910.8
141295.19
139670.22
136867.01
129829.87
124767.89
119293.24
111388.11
105503.93
99062.976
92617.897
86697.662
81099.264
75668.96
70993.662
64486.984
60017.702
55217.958
50862.023
46930.11
43311.454
39613.633
36173.534
33561.557
30360.641
27766.501
24922.937
22964.04
20711.742
18179.644
16190.247
13998.998
11672.178
9902.3809
3355.8588
-32198.762
39431.206
-17013.747
26012.306
-9943.5748
12032.399
2166.6611
-9553.6624
-3777.5459
2642.3155
-4042.5764
6989.9894
2111.908
12829.321
14032.229
15219.207
14754.657
15122.074
14595.583
13497.246
13781.686
13094.638
12696.234
12377.244
11135.069
10407.155
9313.2944
9460.2499
8746.2359
8743.9739
8400.1933
9083.2751
8688.923
9038.7688
8955.9133
9183.8948
8775.1693
8872.7865
8493.3048
8753.8471
8286.0347
7950.7623
7952.3364
7179.0489
7744.9851
6231.3375
4900.477
-285399.92
-129514.02
-163018.89
-111372.13
-158218.06
-126059.89
-152456.45
-142107.33
-132793.24
-137083.49
-122105.54
-128804.46
-115897.62
-119215.98
-113188.63
-108831.7
-104743.39
-99721.416
-95201.419
-90552.887
-85715.257
-81182.503
-76432.443
-72115.736
-66862.373
-63527.797
-57846.353
-53094.836
-49076.003
-44837.759
-40707.152
-36567.045
-32602.374
-28375.309
-24921.239
-21283.565
-17960.452
-14601.008
-11949.356
-8907.3799
-6658.6863
-3899.9387
-2227.1487
316.12017
1926.198
4568.4814
5285.8841
-439348.02
-313880.98
-273441.24
-279696.02
-303231.7
-291940.37
-312423.76
-281371.7
-311409.29
-294382.34
-299746.53
-284826.02
-276363.81
-270037.99
-256577.22
-247021.54
-233883.47
-221587.18
-209892.16
-199129.87
-188833.07
-177746.16
-167271.17
-153398.78
-140954.51
-128641.44
-120308.11
-110610.63
-101868.89
-92731.549
-84946.712
-76442.485
-68627.543
-61020.907
-53917.54
-47221.9
-40532.944
-34567.25
-29187.502
-23667.229
-18881.13
-14437.741
-9989.8106
-6233.8761
-2099.755
2174.8704
6683.3757
-538413.59
-397717.87
-415690.88
-411665.99
-458674.36
-452682.6
-456293.27
-447558.32
-448267.08
-430695.61
-414960.55
-409698.55
-392530.54
-379880.66
-366258.28
-353768.54
-342521.54
-328267.13
-317632.54
-303134.03
-289709.36
-275310.41
-261475.33
-246073.93
-233004.79
-210731.46
-198809.18
-185711.61
-172937.26
-160574.3
-148195.43
-135227.42
-123442.68
-111306.45
-99592.825
-88701.666
-77960.177
-67922.661
-58142.347
-48729.021
-40748.843
-31878.796
-25299.073
-17746.808
-10979.014
-4367.1163
1342.7132
736906.83
813308.88
786586.86
821622.06
806604.17
765649.06
713797.51
539588.97
615784.05
608251.02
624512.8
607777.99
587651.05
536778.34
506910.55
551574.57
562360.04
572767.13
559238.33
552905.25
530818.31
496700.26
509867.71
514335.58
528824.4
505078.27
515847.78
472372.86
482750.91
492980.1
503147.31
497064.46
494128.91
488991.02
461415.09
474991.76
491681.87
474015.46
493162.4
476471.33
478222.93
477996.47
467499.07
462535.34
462107.42
466435.25
448828.23
462825.37
455737.22
451883.69
473233.38
453556.9
464980.19
457589.75
457623.6
453184.35
451963.66
445140.06
426931.08
446356.62
429326.87
438229.85
435440.63
432625.15
435370.84
431796.4
441316.69
424193.71
435588.49
429620.04
419851.21
427834.95
410793.73
419795.69
408751.27
417427.53
415062.6
416166.77
410074.02
401520.82
408616.88
401753.28
403620.14
400472.43
398529.14
397939.03
389352.16
399376.13
385928.25
393532.42
396688.59
385502.82
382921.57
378382.59
382930.36
371350.67
378486.34
377870.14
375396.6
370240.62
367205.24
366834.76
362154.16
366387.97
363286.62
358159.66
355597.85
353945.36
354691.58
346757.99
347885.05
350891.91
343870.44
342430.83
339299.34
341084.75
332876.41
337426.98
336428.7
330727.56
328752.75
326624.97
325238.71
319919.06
321629.51
322163.42
315504.65
315780.95
310622.21
312411.06
305624.03
307190.34
306349.6
302323.81
301054.52
297766.78
297819
291928.76
293023.3
292834.18
285218.07
288583.73
282877.75
283847.2
277556.01
278628.74
277323.81
271862.51
274914.92
268603.3
269031.29
263671.78
264320.02
263790.85
256421.88
261120.22
253236.19
254726.94
249183.71
250971.18
248358.01
242082.22
246682.77
238884.37
240007.13
235896.06
236416.04
234100.36
226197.86
234194.18
224350.93
227128.59
221707.84
223903.11
220181.52
214038.5
219905.44
211682.74
211798.78
209687.61
209163.44
206801.38
201378.01
205581.39
197705.84
198974.85
196594.85
196335.1
193716.48
187045.22
190473.37
186176.73
184939.67
182651.63
182966.57
179456.01
173706.15
179839.89
171297.97
171980.5
170586.65
170652.96
167376.88
162198.63
164613.25
159635.95
159450.43
158130.54
157836.96
154691.83
149001.27
152057.46
146767.31
146509.44
145415.05
145503.53
142547.73
137208.4
139201.47
135301.77
134593.21
134073.56
134117.39
131119.29
125526.15
126981.71
123348.55
122546.84
122443.32
122488.16
119436.76
114238.24
114861.33
112173.69
111219.27
111412.99
111140.49
108514.67
103139.22
103231.3
101336.56
100215.34
100638.57
100952.53
98421.195
92889.583
92635.117
91175.598
89796.416
90722.146
90582.349
88234.571
83506.723
81804.812
81131.261
79498.191
80960.447
80170.485
79527.614
73961.38
71923.021
71934.63
70615.082
70700.295
72050.143
69890.392
65071.798
61851.902
63075.335
61369.21
62737.801
63000.323
61880.061
56140.693
54417.714
54939.602
53495.076
54046.979
54725.62
53570.449
48644.109
45556.914
46936.905
44616.08
46423.58
46613.799
45994.931
41071.096
39506.373
40401.308
38975.459
40253.778
39684.222
39287.549
33627.471
30916.071
32163.901
30336.001
31489.047
31828.389
32428.429
28272.954
26966.93
28358.021
26602.661
28128.335
27734.681
27137.47
20927.66
19777.111
19993.158
19082.046
19920.974
19792.781
20333.008
14820.15
13711.542
14899.045
13588.321
14478.288
14629.044
13637.325
7915.6441
5427.3395
5336.6509
5121.8266
5904.3561
5047.8236
7665.9547
479455.09
507829.5
551492.15
542812.98
555797.71
508824.15
506653.17
384173.53
448213.61
462702.29
472555.45
468945.45
439350.14
417575.6
369784.76
340338.47
380232.67
365729.86
380391.27
345395.95
353782.7
325064.83
333657.87
348234
340520.88
346296.44
336904.93
310048.65
337783.89
332768.22
342845.48
331872.89
348267.96
327227.56
336255.67
319910.45
313460.19
316168.09
311083.97
306598.18
319558
314092.5
319650.08
319317.5
331283.78
312717.12
327588.64
326442.45
318916.06
312823.71
304053.01
302102.26
296126.22
305267.14
300519.5
307422.85
307925.5
295317.08
310413.48
298360.19
299713.41
304875.69
305910.55
292781.99
292789.01
297741.08
280030.4
291616.72
292240.64
297260.45
291537.87
285458.83
284904.29
276378.25
283602.4
284830.93
285070.13
282367.22
271083.06
282572.69
268567.78
279306.09
274764.15
285284.44
270964.74
265528.24
274712.72
255971.62
267258.63
262848.64
268675.76
263541.62
258367.53
263374.21
248703.49
259129.65
257910.08
254725.98
252756.13
251286.04
250609.75
239498.12
248942.3
244932.91
244714.54
244019.16
241409.79
240254.89
233546.61
236725.57
237656.94
234012.8
234546.83
232960.44
231886.06
222537.33
227400.44
228986.59
226616.38
224242.57
223575.67
220062.17
214311.27
217087.09
218109.89
213638.56
216129.65
213029.88
211471.32
204989.95
207497.49
208259.28
205321.18
204961.54
203264.63
201381.77
195514.17
197104.41
197595.68
194664.18
197077.03
193619.88
191747.8
185799.78
187323.47
187703.97
185363.58
188178.71
183583.3
181446.35
176550.85
177615.37
177778.45
174730.14
179755.39
173117.4
172225.87
167562.17
168726.38
167093.7
165478.66
170652.36
163875.13
163580.17
159263.09
159252.34
157352.02
156471.87
161689.8
154688.98
154353.11
149794.16
150407.97
147338.51
147135.57
152411.09
145980.79
143136.92
143580.13
139515.11
137912.79
138815.63
141423.62
137143.11
135354.61
131774.17
132079.25
127549.04
128651.27
134162.56
127511.72
126805.95
123824.98
123405.57
119274.96
120525.79
124384.65
118751.13
118671.54
114998.54
115418.73
110040.03
111727.4
115353.8
110654.2
109275.17
107086.04
105960.69
101964.56
103149.97
106461.89
102613.35
101713.77
99153.802
98474.514
94341.856
95362.208
97778.913
94986.951
93071.093
91539.553
90279.163
86737.258
87274.194
89598.698
87214.167
85462.457
84035.69
82930.999
79166.549
79716.803
81291.617
79837.142
77676.828
77028.31
75338.824
72298.437
72862.524
73646.26
72939.607
70793.161
69935.555
68770.821
65783.191
66692.373
66044.269
66048.667
63288.985
63546.887
61670.182
59377.121
58908.166
58942.461
59407.232
57070.478
56780.249
55578.544
52945.284
53444.87
51899.771
53753.98
50329.086
51052.148
49276.152
47630.815
47801.987
45781.462
46989.74
44761.734
44984.572
43706.09
42674.738
42087.666
39866.906
42166.492
39003.713
39499.263
38234.635
37012.773
36693.005
34843.06
36016.515
33556.835
34501.106
33288.776
32484.83
32051.593
29249.792
31285.208
28487.355
29642.188
28070.363
27605.759
27741.828
25187.091
26077.63
24009.59
24916.33
23567.608
23691.93
23310.72
20730.605
21956.715
19830.024
20794.226
19932.13
19685.91
19560.266
15601.118
16699.612
14957.096
15985.125
14823.587
14893.046
14882.587
11152.869
11450.953
9853.5193
10545.826
10182.36
10548.13
10433.705
6072.4532
4096.6989
2646.0343
3174.4205
3365.5309
3297.3461
4745.6715
274438.72
294206.33
273285.02
305357.52
280524.97
264347.37
245549.16
201658.43
285216.64
270968.39
289289.57
253431.26
268300.88
214729.6
184177.63
174040.06
177640.97
180955.62
173542.64
160417.54
155678.49
155091.33
185933.71
184378.77
199467.27
173439.04
191374.2
155888.93
171216.06
156406.72
159454.19
147258.01
147668.47
143077
144785.12
152007.43
170929.82
149620.96
156910.14
153558
153288.25
152336.14
161875.11
161007.89
135547.54
146383.12
144707.56
138309.1
146987.68
153468.86
163718.84
136027.98
148106.2
139278.08
136538.47
148054.5
155440.42
163060.92
133483.14
141078.57
138286.67
138780.94
144938.6
155300.46
158315.08
128035.2
135961.07
137649.39
132384.03
141832.46
150927.36
155072.16
125114.4
138401.09
133972.59
134112.03
138351.83
143298.91
149526.69
121616.15
131978.96
129810.42
126677.68
135393.19
138060.57
151320.4
117589.89
130621.96
125678.68
125828.91
129269.72
134413.06
140757.14
117726.85
125991.35
126978.87
115238.09
132386.6
130947.06
135167.59
112665.49
123318.02
120466.98
113736.31
126089.95
125564.92
127451.72
113478.89
116128.14
117274.1
109141.99
123095.83
118002.18
124405.71
107564.5
113153.32
111945.44
105795.61
115681.13
115456.17
117689.02
104170.87
108478.7
107670.88
101285.13
110006.85
108156.65
113756.73
99660.231
104460.13
102095.86
96628.511
104185.42
104464.66
108720.33
95297.849
99113.44
96878.967
92127.555
99331.586
98412.368
103712.35
90387.87
94492.416
91694.741
88123.872
92465.179
93313.85
97836.735
85999.126
89563.204
87183.892
82409.094
87510.409
88110.627
92646.338
81489.89
85645.829
80515.391
78418.818
81736.18
82963.142
86630.994
77288.671
79062.871
74944.046
73741.571
75812.824
78191.912
81268.207
72282.911
74281.37
69607.051
69802.582
70301.678
73717.208
74390.27
68820.857
68174.771
64665.178
64786.757
64706.777
69363.882
70888.767
63626.489
65568.38
58736.627
61851.703
59142.731
64764.513
67319.206
59023.758
60336.605
55488.521
56739.747
55958.995
60149.821
61572.816
54501.294
55844.871
50770.519
52395.87
51681.022
56347.235
57071.539
51187.53
51852.249
47349.031
48831.71
47962.31
52343.79
52747.841
46828.732
47968.487
43135.976
45194.341
44215.626
48664.478
48316.049
43315.331
44194.204
39835.516
41747.936
40403.777
44948.383
44111.311
39732.772
40571.051
36374.783
38282.44
37685.902
41590.124
40335.601
36592.933
37294.58
33395.004
35709.834
34671.373
38234.586
36367.598
33364.521
33767.854
30489.283
32275.441
31601.165
34879.227
33041.572
30318.186
30896.957
27811.505
29795.788
29305.311
32356.467
29526.777
27827.427
27799.922
25643.471
26591.898
27204.062
28897.301
26795.303
24756.295
25573.713
22811.571
24740.76
24838.811
26760.65
23542.464
22588.559
22416.8
20995.882
22263.874
22484.477
23957.469
21729.271
20369.697
21142.184
19105.646
20220.338
20117.715
21330.556
17516.352
17979.867
17246.618
16619.195
17540.153
18554.079
18927.069
17453.237
17178.43
17026.205
16120.433
16607.331
16639.431
16533.886
13095.607
13683.464
12844.018
12816.681
13268.922
14591.519
14247.537
13000.959
13675.916
13365.246
12988.143
13392.621
13373.713
11003.544
8793.4049
9354.8595
8200.5494
8524.6372
8803.5303
9508.243
9191.355
8425.0115
8117.0894
8096.9274
8367.065
8577.1024
9176.4372
5518.8687
2010.0593
2371.7071
1997.1874
1885.6852
2137.073
3523.8085
1459.9593
-14849.912
-9229.7726
-2858.8083
-12143.146
-16243.513
7727.0982
-5292.3474
-8001.2257
-11201.715
-7034.6412
-15922.27
-10559.381
-14829.963
17460.628
-34722.531
-30899.725
-44520.232
-30346.378
-46491.071
-9139.1859
-9418.0107
-25204.316
-10073.911
-20132.984
-23475.895
-7069.9953
-24976.357
-268.70124
-11357.538
-13276.915
-41471.794
-9439.5249
-48193.481
-1596.1173
-2079.7376
-22193.071
-30409.716
-22199.591
-26050.888
-18011.249
-13058.13
-2561.0874
-16772.079
-2926.9952
-28611.968
-11783.284
-22000.239
-7385.0058
222.01738
-12726.913
-19119.696
-19882.007
-16800.759
-14433.461
-9356.0611
2690.5668
-19224.652
-8841.1329
-23222.721
-12276.997
-15563.748
-12837.579
-4339.6616
-11932.173
-10730.101
-21230.166
-14209.419
-13657.57
-9021.7958
-1455.5507
-12024.176
-11651.582
-21357.009
-14236.977
-15372.514
-9003.8029
-1750.4442
-10011.091
-13168.802
-15916.203
-14925.654
-8409.6072
-7952.3556
775.18754
-12120.893
-11778.924
-17987.571
-11920.02
-12116.448
-8579.6618
-810.03379
-10186.305
-2525.7322
-11395.256
-16107.054
-7914.8573
-12819.455
3205.2763
-2894.6551
-14189.108
-10278.591
-16409.5
-8526.7124
-8734.3002
-531.76149
-3617.2114
-12941.677
-6696.1868
-17324.388
-6411.5735
-8866.5484
2823.8795
-3420.2256
-9817.3312
-4616.5371
-15559.399
-5846.7632
-6574.7388
1433.891
-2183.5173
-8278.4537
-3255.6106
-14856.093
-5098.2165
-7299.5508
3613.3955
32.283568
-6327.0879
-2458.1686
-13266.667
-4490.9334
-5553.6473
4279.6708
842.09185
-5882.1974
-1645.3277
-12351.444
-3067.3024
-6651.864
5718.282
2211.2374
-4309.0103
-529.17568
-9815.9321
-3101.2084
-5862.0858
7271.4466
4169.6302
-3302.5914
1084.0352
-9706.5562
-2203.3541
-5485.1412
8115.9179
5112.6371
-1184.2311
273.11495
-7996.7773
-1426.3561
-4982.0606
10073.46
5922.0322
371.38056
1111.4151
-5216.9999
-224.78742
-4385.5939
10485.999
6731.4623
2333.067
1456.918
-2324.2025
-453.62836
-3789.0185
10978.696
9548.2873
3396.7069
3107.8457
-245.25129
-53.993355
-2375.5641
12977.358
9206.0942
4774.7126
3164.0635
834.22444
606.21291
-2460.2311
12852.474
9069.4706
5774.7207
3614.6604
1521.4735
1435.8624
-2293.2748
13413.641
9608.8397
6996.6211
4931.2972
3337.252
2358.4787
-1161.4499
13107.644
10212.447
7600.1927
5289.6649
3568.4613
2958.48
-681.98194
13048.031
10333.568
8093.0967
5994.1856
4707.6023
3918.8881