/*--------------------------------*- C++ -*----------------------------------*\
  =========                 |
  \\      /  F ield         | OpenFOAM: The Open Source CFD Toolbox
   \\    /   O peration     | Website:  https://openfoam.org
    \\  /    A nd           | Version:  6
     \\/     M anipulation  |
\*---------------------------------------------------------------------------*/
FoamFile
{
    version     2.0;
    format      ascii;
    class       pointScalarField;
    location    "1.95";
    object      p;
}
// * * * * * * * * * * * * * * * * * * * * * * * * * * * * * * * * * * * * * //

dimensions      [1 -1 -2 0 0 0 0];

internalField   nonuniform List<scalar> 
28033
(
273686.36
-380007.75
5950.3792
1346.6286
550705.8
-492261.92
2221.0635
-370.72222
237964.44
212361.2
182463.35
147855.17
109018.66
74709.341
38296.386
-1190.7442
-39893.345
-74096.874
-117614.94
-138419.89
-182410.55
-219398.8
-217690.19
-15253.894
-8991.214
-9488.1715
-6072.284
-5363.3314
-3366.0922
-1398.9707
656.37948
2462.4675
4602.0973
6823.3605
8057.5602
9780.777
11089.618
9987.1693
68530.188
76106.118
69238.902
75631.926
75063.3
78281.272
78458.049
79708.393
80243.902
80869.97
80292.507
80847.43
80273.865
80189.643
79367.372
79050.07
78086.903
77723.118
76358.198
75793.602
74572.595
73543.373
72527.134
71388.431
69890.846
68829.087
67501.954
66055.032
64653.507
63261.491
61778.36
60181.665
58744.567
57270.458
55797.128
54190.581
52880.255
51603.651
49828.242
48750.998
47166.748
45776.924
44571.739
43415.35
42228.46
41243.622
40246.741
39394.837
38561.724
37923.724
37265.491
36806.038
36390.476
36099.522
35919.895
35821.786
35866.619
35976.825
36206.723
36539.502
36965.408
37452.067
38036.987
38765.086
39464.198
40193.21
41134.154
41783.03
42346.34
43263.968
43879.359
44605.017
44883.571
45426.129
45280.632
45681.016
44989.092
45103.514
43925.187
43597.413
42030.546
41182.908
39229.656
37581.517
35381.001
33182.216
30906.488
28576.537
24995.388
22864.651
20436.023
15566.195
16156.353
14125.794
11240.686
-70173.76
-61115.225
-70429.101
-65181.019
-73448.984
-73547.611
-74843.334
-75275.317
-76429.966
-75922.027
-76454.712
-76046.489
-75850.807
-75715.471
-74912.571
-74736.158
-73725.999
-73162.522
-72461.519
-71455.116
-70585.775
-69788.093
-68377.615
-67704.537
-66378.531
-65065.834
-64142.366
-62426.327
-61493.675
-59661.251
-58496.376
-56883.235
-55492.242
-53967.976
-52633.964
-51191.011
-49509.679
-48233.578
-46658.382
-45282.695
-43916.294
-42473.205
-41199.582
-39831.749
-38613.75
-37346.223
-36218.23
-35054.898
-34039.817
-33016.882
-32133.255
-31274.429
-30559.156
-29897.871
-29375.946
-28938.083
-28647.168
-28443.871
-28401.603
-28447.424
-28650.815
-28934.532
-29373.714
-29850.38
-30472.185
-31065.336
-31882.348
-32559.561
-33503.507
-34087.906
-34893.518
-35501.711
-36184.22
-36592.864
-37023.326
-37237.264
-37269.004
-37217.535
-36883.387
-36388.542
-35682.456
-34761.682
-33536.9
-32267.723
-30585.442
-28806.314
-26807.783
-24712.902
-22157.898
-19979.219
-17500.634
-14648.982
-12474.951
-11100.57
-8098.7598
452695.56
434356.53
321508.36
323217.92
233834.61
149595.07
104929.86
23878.045
-39167.754
-114827.73
-171831.31
-242552.77
-314632.24
-362867.91
-390711.94
-104429.35
-82718.409
-42407.872
-83025.27
-67692.408
-75595.505
-72434.012
-77671.493
-73180.859
-76848.231
-77220.871
-74832.039
-77120.329
-74055.842
-76097.272
-74021.261
-72806.941
-73286.123
-70826.153
-71801.787
-69707.587
-67841.746
-67786.863
-66700.54
-65420.314
-64412.097
-61644.747
-61949.598
-58628.72
-58816.315
-56750.409
-55649.567
-53737.761
-52770.409
-51051.271
-48521.588
-47768.155
-46444.563
-44768.137
-43516.5
-41976.548
-40777.557
-39407.845
-38279.082
-37064.559
-36109.954
-35033.302
-34231.134
-33371.255
-32721.43
-32092.493
-31654.751
-31232.806
-31013.552
-30839.415
-30807.586
-30885.747
-31075.233
-31354.866
-31767.316
-32254.517
-32844.576
-33502.952
-34250.139
-35028.445
-35891.723
-36701.34
-37843.954
-37886.487
-39265.731
-40089.071
-40735.487
-41308.763
-41787.994
-42080.127
-42261.282
-42214.019
-42037.156
-41583.986
-40915.715
-39971.043
-38846.557
-37342.184
-35749.777
-33779.91
-31689.297
-29244.315
-26834.537
-24024.232
-21329.352
-18509.976
-15684.425
-13772.93
-11423.067
-10196.131
12894.44
13012.085
9553.4964
10187.953
5904.3263
6143.4123
2161.7986
746.30996
-1909.6916
-4336.6159
-4243.423
-8217.453
-7781.7753
-13252.564
-11043.413
20454.567
15982.067
16028.23
18606.893
20457.208
23285.287
25759.629
28348.371
30614.173
32957.485
34948.011
36622.481
38348.407
39753.017
40972.903
41848.713
42631.12
43068.798
43357.045
43462.069
43314.192
43117.092
42670.387
42158.317
41456.53
40784.282
39622.246
39775.854
38419.409
37850.296
37182.003
36621.278
36062.876
35688.575
35375.342
35194.885
35155.288
35210.298
35438.874
35749.479
36227.61
36770.814
37497.83
38234.658
39172.768
40085.422
41193.445
42251.99
43499.535
44662.225
46029.816
47286.799
48697.286
50219.981
51562.657
52920.673
54386.462
55359.224
58062.305
58804.112
59927.43
62940.242
63491.336
65114.347
65645.269
68939.477
68275.025
71822.182
72284.493
73872.87
74902.127
75369.003
78296.022
78185.848
78405.991
81402.401
79859.825
83194.073
81420.75
84123.161
84998.461
84621.954
83845.644
86456.589
84668.052
84421.881
86004.991
84491.242
83293.909
81040.524
79803.232
81822.529
79644.242
72422.568
90782.894
186972.06
208425.17
220514.34
231867.74
238204.91
245983.65
247574.61
251496.99
249983.23
244891.75
250171.46
235220.39
226879.07
240592.58
190909.42
-314122.76
-386715.54
-379438.58
-408764.32
-393868.71
-378047.8
-432802.17
-455767.12
-427340.13
-425576.01
-407104.71
-391641.02
-365618.67
-358982.92
-337483.93
1201.0397
1364.6947
2165.1208
2691.1359
3716.2502
4384.0413
4571.7254
4661.2173
4666.774
4337.1512
3921.1899
3076.3668
2507.5239
1931.9499
1868.3829
-1703.1658
1049.1509
274.12749
-423.13024
-1277.9063
-1332.4833
-1835.9842
-1688.9987
-1458.3093
-1208.4741
-239.61181
432.56015
711.80873
4339.9825
-1031.7787
70830.841
69137.021
62586.605
65035.571
66862.472
67831.871
69375.051
70753.561
71282.381
71556.045
72021.114
72138.421
71982.504
71562.058
71258.277
70816.908
70366.067
69467.436
68804.702
67996.732
67180.478
66350.903
65343.735
64152.767
63109.448
62191.385
60866.646
59657.957
58500.974
57214.906
55807.65
54586.559
53554.659
52072.235
50717.355
49407.483
48166.713
46622.782
45586.633
44402.697
43324.482
42174.837
41145.427
40038.254
39062.677
38227.891
37326.221
36648.52
35946.228
35392.738
34880.501
34498.068
34168.841
33952.039
33812.318
33767.111
33808.245
33918.988
34130.455
34405.965
34745.085
35128.421
35621.582
36122.865
36542.269
37195.921
37678.625
38253.019
38852.569
39333.185
39693.355
40142.814
40331.122
40664.818
40580.444
40648.043
40229.851
40055.959
39172.312
38698.616
37539.643
36417.083
35116.636
33621.419
31781.035
29824.68
27817.315
25236.485
23041.779
21071.561
17526.153
15602.054
13559.941
7490.0055
2339.2484
65314.489
57103.42
51555.729
55215.55
55025.169
56837.739
58266.48
59234.595
59845.312
60675.617
60913.805
61039.827
60995.889
60931.411
60582.766
60236.829
59600.4
59239.369
58471.194
57877.353
57022.506
56186.159
55327.675
54508.369
53617.242
52577.946
51615.755
50668.216
49563.488
48523.461
47484.55
46401.356
45203.079
44069.761
43055.456
41882.187
40763.966
39690.056
38613.116
37550.021
36519.403
35704.63
34527.2
33724.059
32867.312
32159.788
31429.29
30879.992
30294.208
29876.274
29466.455
29191.38
28947.375
28811.055
28742.802
28741.307
28818.68
28958.655
29168.737
29430.492
29744.369
30116.279
30568.674
30992.597
31502.028
32371.486
33136.411
33895.453
34569.536
34931.644
35297.944
35829.793
35781.566
36257.536
35770.449
36238.17
35330.267
35632.234
34332.888
34386.505
32883.364
32127.508
30820.392
28913.069
27023.777
25302.774
22984.022
21319.98
19121.665
16501.996
14115.239
11948.819
7989.0467
4155.2094
-2585.8424
51304.723
49241.759
42992.83
45623.727
44832.206
47099.93
48144.792
49224.417
49720.726
50600.959
50663.35
51031.96
50980.119
50931.348
50631.435
50396.496
49964.695
49550.927
48942.568
48446.111
47795.589
47203.46
46514.42
45827.397
44954.917
44260.402
43440.2
42547.362
41746.072
40827.098
39948.977
38985.421
38152.063
37201.549
36318.351
35347.86
34610.517
33715.815
32899.886
32031.481
31160.358
30279.884
29697.834
28994.673
28402.44
27773.024
27256.444
26756.226
26352.611
25984.868
25698.389
25475.643
25298.363
25209.975
25162.719
25173.338
25248.479
25368.357
25529.997
25739.545
25985.088
26254.792
26568.158
26819.628
27245.441
27666.757
28206.177
28895.14
29331.815
29861.91
30075.724
30293.051
30413.175
30439.748
30497.26
30281.032
30148.397
29634.529
29330.732
28529.577
27795.051
27027.225
25589.311
24535.474
23103.758
21574.432
19632.386
18248.381
16126.942
14254.598
12332.806
9083.6632
6906.8401
1535.705
-1088.9374
41416.597
39259.562
33181.046
36079.046
34799.921
37045.492
37863.459
38485.493
39273.458
39906.23
40173.148
40399.819
40490.491
40420.169
40280.327
40092.745
39743.6
39463.347
38980.157
38619.257
38010.249
37542.752
36951.162
36364.666
35765.534
35189.06
34483.369
33910.259
33191.417
32511.343
31832.159
31118.399
30409.27
29646.767
29035.039
28158.112
27500.382
26437.05
25709.45
25009.653
24481.814
23926.731
23272.276
22669.335
22164.218
21718.323
21308.401
20976.186
20686.96
20457.957
20275.239
20162.649
20080.562
20074.793
20087.778
20168.76
20276.682
20424.712
20603.731
20815.767
21054.832
21298.108
21586.859
21877.032
22185.745
22487.015
22913.466
22939.444
23249.593
23628.867
23846.269
23936.128
24075.651
24049.673
23981.672
23845.077
23598.959
23366.985
22870.109
22414.559
21776.506
21110.816
20108.957
19125.209
17980.089
17191.764
15724.119
14310.423
12724.872
11201.328
8921.2539
7093.7639
4248.5657
1181.2328
-2812.59
33873.742
28909.8
23777.129
26754.226
25839.194
27612.474
28156.751
28913.231
29331.193
30024.591
30006.786
30425.746
30331.457
30454.575
30220.396
30202.836
29812.067
29669.666
29295.989
29004.743
28619.446
28308.053
27821.593
27468.659
26989.67
26528.104
26066.66
25538.439
25060.582
24533.375
24045.882
23460.544
22968.954
22419.676
21912.602
21340.568
21198.94
21019.544
20454.46
20458.658
19834.534
19345.496
19035.927
18645.356
18362.979
18026.223
17755.276
17505.971
17338.849
17163.968
17070.513
17013.646
16982.554
17006.382
17054.032
17138.611
17248.159
17380.788
17539.017
17698.774
17899.961
18032.688
18323.929
18396.579
18641.22
18857.04
18947.493
19231.061
19348.458
19500.432
19592.763
19462.812
19198.872
18934.91
18618.704
18488.865
18316.551
18017.894
17710.896
17378.908
16735.56
16398.818
15493.253
15078.779
13979.709
13474.872
12000.021
11203.104
9712.7778
8294.6
6839.2443
5217.0916
3476.1515
542.85949
-2074.0649
20928.527
19570.758
15607.883
18013.965
16657.322
17697.44
18688.227
18767.416
19352.611
19776.142
19937.799
20096.173
20244.507
20178.695
20172.179
20078.842
19891.798
19849.708
19493.072
19348.21
19021.211
18777.12
18446.471
18241.792
17860.462
17650.745
17287.174
17030.683
16695.927
16379.097
16039.426
15706.811
15405.046
15025.311
14692.111
14370.429
14191.58
13881.532
14035.781
13832.802
13802.15
13470.408
13194.092
12963.815
12780.977
12573.824
12442.794
12318.453
12256.859
12196.769
12206.955
12220.071
12278.108
12348.443
12462.16
12564.873
12709.775
12849.466
13000.312
13148.965
13308.607
13464.311
13590.836
13752.071
13888.93
13981.849
14143.881
14236.609
14309.064
14308.64
14395.861
14145.323
14007.976
13520.908
13170.085
13096.662
12908.305
12712.066
12425.175
12292.283
11597.307
11678.94
10612.362
10668.377
9456.6496
9417.5165
8063.6841
7955.8413
6626.8573
6289.1722
5193.6964
3978.9735
2633.1837
465.88492
-680.71851
10769.216
8968.8845
7133.7453
8893.5431
7510.9311
8915.6723
9216.0583
9287.2334
9642.0245
10059.956
9861.718
10270.894
10135.118
10297.577
10142.305
10221.881
10046.462
10014.286
9843.2053
9826.2537
9651.7711
9584.3815
9445.0518
9327.4071
9173.124
9047.2378
8880.0249
8732.9596
8589.2945
8402.2511
8293.54
8096.9691
7952.5894
7740.2414
7639.2979
7441.8245
7310.9965
7165.9287
6989.0082
6720.2696
6616.0448
6500.6728
6425.8831
6372.7316
6371.1581
6346.7697
6364.4277
6393.8221
6454.4993
6519.7197
6632.2221
6734.9935
6864.9965
7012.1005
7153.5404
7306.5759
7457.0796
7609.6892
7738.5095
7880.1656
7997.143
8080.7656
8205.1003
8253.2511
8309.3428
8367.1773
8379.739
8368.5661
8388.963
8386.1817
8331.791
8269.324
8200.4657
8258.9925
8218.0628
8154.4703
7963.306
7797.5569
7654.2337
7382.6369
7153.4931
6976.5412
6413.9839
6492.5287
5639.8725
5812.804
4887.0466
4978.5759
4042.8409
3730.348
2717.8239
2008.2452
1667.6601
739.88874
295.21991
-932.88931
-1285.1256
-1995.2318
-1145.6557
-1279.437
-927.99368
-647.13234
-671.20867
-456.04042
-337.92915
-295.80206
-223.75498
-119.13891
-155.66894
-108.27843
-7.9106935
-125.17787
20.559603
-55.441625
3.515101
-22.584756
94.062381
-35.173968
69.641579
30.752018
101.86177
104.49821
189.37565
177.14362
244.4418
277.14248
289.23196
353.75869
381.76835
447.67184
403.84618
548.15598
494.57555
609.02609
568.66663
694.14727
786.98045
841.66608
890.93198
1017.2858
1102.8225
1237.0558
1379.1264
1546.41
1704.2593
1889.2477
2071.3768
2256.1671
2437.3723
2618.4684
2783.1022
2934.3841
3082.3481
3187.0098
3299.323
3355.0582
3426.0828
3441.551
3449.4653
3462.1156
3413.4468
3396.7988
3346.6657
3286.698
3203.9406
3089.1815
2989.2452
2774.0299
2682.0835
2567.5523
2523.1096
2360.7713
2343.3566
2195.1984
2146.8093
2089.4246
1861.1934
1954.1994
1676.4119
1605.0863
1623.8503
1142.763
1595.2338
812.97128
1511.7752
1227.6313
1780.7339
1847.2301
1213.7158
1777.7023
-10857.147
-11229.792
-9785.8507
-8928.9946
-9535.3204
-9569.0492
-9252.5859
-9681.4442
-9667.682
-9503.8588
-9812.6383
-9553.8354
-9669.5367
-9570.1129
-9527.0009
-9449.7208
-9468.5653
-9276.569
-9329.0896
-9181.2897
-9111.4583
-9120.3813
-8983.3825
-8758.1518
-8668.3378
-8455.6614
-8287.8232
-8113.8709
-7909.0784
-7714.5946
-7506.981
-7326.7092
-7085.3096
-6927.6601
-6697.3188
-6507.2164
-6286.4146
-6113.648
-5864.2755
-5687.9797
-5462.1676
-5280.7789
-5039.26
-4812.4685
-4529.5889
-4303.2751
-4035.1584
-3774.7686
-3494.3229
-3249.1331
-2960.1923
-2702.0258
-2450.9724
-2205.2194
-1973.8324
-1777.0498
-1593.4697
-1427.2748
-1321.7444
-1215.7807
-1150.8338
-1137.5235
-1133.3905
-1159.4277
-1245.1774
-1317.8553
-1416.2578
-1550.4477
-1656.3463
-1782.575
-1888.7392
-1991.7186
-2086.7111
-2200.5789
-2277.4447
-2398.2403
-2366.6459
-2458.2332
-2467.1729
-2522.7956
-2463.3889
-2540.1286
-2364.2916
-2385.6246
-2296.3757
-1885.8847
-2149.2328
-1121.6223
-1649.2605
-454.75991
-825.67747
-345.30525
-178.53626
1018.733
2765.2069
-23153.177
-22621.992
-18753.649
-19536.758
-19781.93
-19720.847
-20077.153
-20375.972
-20545.758
-20637.696
-20787.934
-20733.237
-20774.412
-20649.027
-20609.574
-20416.645
-20295.502
-20057.346
-19885.226
-19608.571
-19385.038
-18706.728
-18295.357
-17997.004
-17707.747
-17305.255
-16994.299
-16564.366
-16189.281
-15784.398
-15383.368
-14968.734
-14557.999
-14158.448
-13696.556
-13355.291
-12868.688
-12532.28
-12066.8
-11711.89
-11280.563
-10900.569
-10466.36
-10114.041
-9690.7718
-9317.4604
-8915.0178
-8523.21
-8140.462
-7779.1679
-7406.0303
-7077.8314
-6762.6591
-6473.6324
-6215.9895
-6006.1171
-5820.1448
-5679.8156
-5605.6967
-5527.0356
-5546.0296
-5579.0967
-5647.6302
-5781.6131
-5930.2446
-6097.6456
-6289.2643
-6504.9229
-6702.7509
-6937.7242
-7147.8411
-7336.1975
-7538.0203
-7448.0932
-7155.0834
-7056.8075
-6961.1168
-7112.1391
-6847.6738
-7120.3298
-6461.0465
-6956.0479
-6024.1233
-6396.6486
-5624.0957
-5375.28
-5135.0563
-3908.0374
-4261.7285
-2362.161
-2443.762
-1315.5213
34.782038
1638.1559
3597.9065
-34428.487
-27314.036
-25148.199
-25813.253
-26134.289
-26916.43
-27221.359
-27844.875
-28225.463
-28388.385
-28570.643
-28749.756
-28582.344
-28627.289
-28459.067
-28259.717
-28087.024
-27813.016
-27519.814
-27364.368
-27152.761
-27237.782
-26983.608
-26766.13
-26385.192
-25903.482
-25426.747
-24862.751
-24341.618
-23786.976
-23203.369
-22681.886
-22086.084
-21543.602
-20940.195
-20401.777
-19803.733
-19283.077
-18686.576
-18175.895
-17600.299
-17078.833
-16513.469
-16006.259
-15447.275
-14943.721
-14423.376
-13937.412
-13444.4
-12994.046
-12544.718
-12139.564
-11758.043
-11419.653
-11112.622
-10867.444
-10657.501
-10506.616
-10407.6
-10359.396
-10369.792
-10417.694
-10527.55
-10675.522
-10879.656
-11096.886
-11344.475
-11599.113
-11868.066
-12117.445
-12324.82
-12604.883
-12671.287
-12733.292
-12522.237
-12576.513
-12246.656
-12128.929
-11996.578
-11788.939
-11651.588
-11197.778
-10949.126
-10421.737
-9839.3652
-9392.5005
-8401.5731
-7918.9111
-6697.582
-5664.5306
-4594.5008
-2687.6775
-1023.4419
1224.2824
5500.0155
-40296.701
-39391.309
-35223.542
-35529.576
-35901.078
-36789.561
-37347.448
-38260.32
-38306.105
-39057.637
-38993.951
-39134.9
-39099.094
-39005.125
-38778.03
-38574.594
-38250.329
-37873.268
-37535.322
-37064.505
-36767.092
-36235.589
-36367.86
-35996.194
-35488.291
-34854.388
-34191.813
-33456.575
-32735.247
-31926.189
-31182.794
-30360.448
-29583.491
-28798.381
-27965.492
-27224.176
-26379.058
-25632.351
-24811.067
-24076.347
-23270.591
-22564.836
-21794.177
-21105.511
-20380.1
-19696.345
-19032.156
-18385.586
-17759.148
-17190.202
-16633.807
-16134.046
-15681.985
-15284.305
-14934.944
-14671.224
-14454.909
-14309.494
-14253.434
-14245.457
-14311.689
-14453.733
-14632.338
-14891.242
-15186.885
-15539.247
-15888.844
-16289.553
-16669.333
-17004.309
-17435.033
-17688.9
-18016.489
-18219.504
-18303.905
-18783.149
-18771.817
-18589.053
-18398.831
-18159.063
-17674.278
-17243.537
-16546.631
-15882.805
-14896.843
-14196.78
-12693.626
-12019.209
-10312.321
-8920.0541
-7662.9146
-4685.4191
-2340.0929
2221.1741
7083.7565
-57317.685
-52052.165
-43925.126
-46677.489
-45925.427
-48092.978
-48388.647
-49355.287
-49866.087
-50297.23
-50505.795
-50489.925
-50570.114
-50286.66
-50041.042
-49722.59
-49329.33
-48799.933
-48331.785
-47745.814
-47123.999
-46559.01
-45575.288
-44844.515
-44052.481
-43240.938
-42458.287
-41563.963
-40653.329
-39762.89
-38772.517
-37862.431
-36884.394
-35971.498
-34979.169
-34084.03
-33075.157
-32190.515
-31236.014
-30346.519
-29436.478
-28575.223
-27681.221
-26861.343
-26015.631
-25232.465
-24464.535
-23727.758
-23029.752
-22384.966
-21768.575
-21217.456
-20723.721
-20289.901
-19922.039
-19641.036
-19415.208
-19285.559
-19233.474
-19245.534
-19356.109
-19517.695
-19752.403
-20043.374
-20372.61
-20790.405
-21185.73
-21630.117
-22060.331
-22473.85
-22833.945
-23190.537
-23444.027
-23657.871
-23737.194
-23821.904
-23748.112
-23619.847
-23295.554
-22889.869
-22363.477
-21675.962
-20881.751
-19928.552
-18911.926
-17646.77
-16338.605
-15021.288
-12993.528
-11825.937
-9094.3031
-6995.6523
-4160.7171
-67.315996
5251.3861
-62782.345
-60507.669
-51600.507
-55798.281
-56569.636
-58159.164
-58874.636
-60274.639
-60715.215
-61022.144
-61422.432
-61256.138
-61212.827
-60981.495
-60547.768
-60232.818
-59688.304
-59040.986
-58512.1
-57698.025
-56998.396
-56142.694
-55296.004
-54482.01
-53435.673
-52460.961
-51469.571
-50318.075
-49356.072
-48125.659
-47051.389
-45846.845
-44607.64
-43449.074
-42251.001
-41130.687
-39891.693
-38796.605
-37575.763
-36490.68
-35335.267
-34259.887
-33176.834
-32142.914
-31124.76
-30150.259
-29200.738
-28307.418
-27449.405
-26659.52
-25914.609
-25250.674
-24650.851
-24139.383
-23703.21
-23370.088
-23123.809
-22979.602
-22932.675
-22988.436
-23138.759
-23379.146
-23712.424
-24095.008
-24523.972
-25041.2
-25491.114
-26142.08
-26807.885
-27288.599
-27899.382
-28353.864
-28748.405
-29131.945
-29293.454
-29412.585
-29374.553
-29215.042
-28869.622
-28459.683
-27792.11
-27025.32
-26030.09
-24958.89
-23548.519
-22195.909
-20486.946
-18733.667
-16684.287
-15023.185
-11776.087
-10471.185
-6482.5991
-2215.731
4792.0061
-84770.226
-60304.656
-62193.484
-64396.451
-66020.993
-66587.189
-68563.841
-69562.612
-69798.183
-70402.297
-70582.991
-70448.898
-70284.115
-69920.832
-69487.625
-69051.443
-68535.063
-67713.326
-67081.024
-66247.843
-65258.444
-64446.121
-63471.332
-62443.327
-61396.854
-60240.834
-59021.515
-57822.087
-56665.868
-55413.562
-54108.812
-52754.289
-51349.673
-49942.763
-48501.307
-47372.608
-45949.04
-44669.022
-43317.252
-42064.571
-40751.889
-39534.945
-38296.367
-37112.739
-35967.954
-34849.042
-33797.884
-32786.711
-31837.962
-30951.678
-30139.296
-29402.137
-28753.218
-28192.857
-27732.957
-27379.548
-27127.863
-26992.466
-26970.089
-27055.056
-27250.511
-27561.934
-27955.125
-28436.211
-28997.465
-29556.236
-30104.963
-30828.787
-31616.041
-32191.582
-32898.384
-33324.698
-33853.786
-34201.799
-34438.698
-34539.719
-34588.2
-34335.841
-34017.338
-33435.55
-32685.584
-31704.644
-30613.642
-29168.008
-27679.483
-25978.798
-23955.755
-22042.054
-19834.64
-17634.959
-15034.595
-13725.508
-10030.913
-7017.7566
-38.466918
153465.61
153839.92
147472.11
153021.35
154366.7
155968.49
162828.62
158895.71
159412
158687.26
158420.16
153824.66
151973.69
161475.84
136912.69
142199.71
148102.49
138284.7
144859.82
145912.75
150004.43
145633.19
151899.11
150796.17
152604.15
149485.08
149717.86
149830.73
151933.06
132519.37
104286.63
122836.16
108161.12
113789.45
113939.38
113386.64
115915.41
114816.75
116483.81
115341.57
115447.93
117472.04
110093.37
123130.8
115510.26
95713.459
96333.102
95875.567
95574.854
99012.24
98428
100138.5
101428.74
100342.43
101567.38
102060.72
99441.147
99345.711
109147
80219.728
67128.325
76828.425
66781.658
73272.613
72109.693
74250.848
74563.025
74313.976
75936.086
76210.685
75548.411
76305.039
75692.052
78635.743
72200.694
48135.63
51687.06
48679.802
50768.62
51267.676
52116.106
52636.007
53236.903
53875.398
54234.169
53876.942
56094.164
53836.74
58668.214
56184.961
26180.717
27126.144
27126.737
27225.896
29188.15
29286.315
30246.356
30829.373
30659.623
31583.574
32250.194
30395.409
33087.014
33622.948
31514.962
3372.0901
3278.519
2250.6584
4460.5325
4403.2148
5012.8384
5852.5126
6156.7219
6468.0087
8137.8258
6786.6569
8992.8895
11168.692
8049.4677
18618.348
-19477.918
-20943.62
-18567.119
-18757.132
-18179.84
-17478.175
-17144.02
-15873.411
-16454.571
-13385.964
-14911.123
-12869.491
-10731.993
-14396.355
1573.0346
-38177.805
-45711.057
-40092.87
-41184.795
-40187.561
-40738.239
-39702.008
-39622.232
-39655.98
-37350.528
-40593.931
-35680.862
-34143.279
-39905.995
-20719.141
-62019.922
-73065.027
-61667.485
-66908.805
-63829.69
-63807.908
-63239.526
-62251.797
-62804.365
-58879.397
-59416.261
-59765.796
-52630.25
-60140.555
-36690.411
-90035.973
-86988.56
-85287.996
-85048.108
-86189.628
-86773.103
-86166.416
-86912.666
-86276.294
-84449.223
-87231.153
-76669.262
-80002.213
-84481.509
-60812.762
-103277.69
-110923.77
-100594.11
-102005.98
-98592.747
-100230.4
-99303.737
-98699.478
-97328.719
-95097.369
-95685.64
-97566.299
-87398.601
-104193.35
-54766.105
-121482.5
-145721.65
-124156.84
-135678.47
-137228.42
-135508.51
-136250.89
-140979.33
-137467.29
-142000.38
-133137.3
-129365.87
-132253.08
-126049.5
-120051.84
-140342.7
-118996.92
-110648.21
-111103.6
-115067.15
-122229.62
-116462.74
-110796.55
-107204.56
-105943.97
-108979.25
-108901.25
-107341.38
-117975.6
-105385.05
-112534.09
-104032.69
-122760.58
-126523.84
-131716.6
-141739.61
-136304.91
-127616.7
-144270.56
-141126.29
-135985.47
-128128.91
-122119.36
-116844.29
-95941.994
-87083.174
-86255.864
-95948.684
-97978.454
-102214.91
-105234.36
-107909.62
-109516.82
-112101.54
-107428.63
-105198.05
-98798.939
-98762.856
-97716.659
-96731.821
-70064.39
-78101.604
-76333.341
-82426.853
-86535.621
-83731.152
-87598.94
-86171.227
-84042.032
-87090.976
-83705.372
-84987.944
-82218.187
-73617.393
-76477.452
-74992.446
-84033.961
-84582.106
-86541.122
-87890.014
-89941.678
-90322.307
-90839.472
-90576.784
-88581.467
-88143.773
-85362.847
-82814.392
-80962.59
-76332.564
-78413.371
-83571.12
-80675.517
-86671.78
-86675.735
-87986.503
-90079.855
-89294.528
-89793.044
-89809.82
-87194.178
-85544.065
-82040.364
-78706.427
-77699.856
-77298.365
-80317.401
-82217.965
-84947.346
-85259.281
-87482.332
-86986.032
-87138.61
-86831.321
-85305.77
-84791.13
-82838.175
-81120.154
-78702.448
-74584.027
-77730.9
-81795.768
-81839.643
-84541.347
-84105.82
-85457.625
-85952.859
-85936.611
-85567.67
-84905.756
-82981.712
-81944.567
-79879.315
-76704.923
-76922.938
-78714.728
-79963.229
-81614.491
-83140.514
-84635.794
-85034.701
-85566.822
-85647.212
-85068.982
-84637.487
-83516.655
-81921.509
-80445.727
-77752.868
-76113.039
-78143.04
-80244.044
-80788.481
-82224.523
-81708.561
-83060.438
-82608.148
-82931.139
-82233.03
-81718.215
-80530.508
-79420.111
-78429.329
-76625.316
-76279.038
-78489.62
-79097.957
-80259.847
-80828.236
-81737.104
-81978.325
-82319.231
-82151.942
-81755.024
-81453.849
-80469.654
-79656.742
-78527.231
-76926.748
-76503.73
-77993.833
-79170.723
-79586.831
-80488.884
-80459.97
-81192.658
-80964.47
-81078.854
-80736.155
-80414.857
-79670.871
-78930.83
-77866.08
-76909.755
-76065.804
-78043.685
-78228.448
-78898.654
-79078.242
-79414.425
-79559.42
-79617.889
-79465.432
-79223.65
-78838.224
-78174.885
-77418.851
-76921.341
-75785.71
-75742.637
-77697.511
-77865.259
-78041.135
-78709.039
-78690.132
-79133.597
-78797.427
-78916.55
-78671.562
-78287.173
-77650.783
-77380.936
-76379.714
-75998.959
-75100.399
-76846.911
-77288.809
-77838.438
-77586.005
-77811.516
-77837.738
-77797.652
-77723.028
-77399.814
-77094.722
-76616.537
-76140.155
-75628.248
-74792.642
-74985.055
-76695.385
-76505.617
-76777.391
-77069.872
-77008.589
-77091.203
-77083.949
-76500.486
-76702.581
-76380.781
-75832.92
-75623.675
-74794.841
-74701.557
-74061.246
-75659.763
-76081.203
-76315.309
-76165.528
-76114.998
-76209.267
-76284.622
-75902.084
-75490.073
-75325.513
-74788.971
-74585.75
-74029.772
-73447.536
-73413.756
-75420.495
-75058.142
-75503.016
-75226.98
-75421.207
-75358.648
-75241.92
-74950.84
-74929.739
-74614.506
-74207.812
-73996.741
-73694.751
-72799.926
-73167.012
-74670.555
-74551.317
-74671.891
-74524.013
-74430.95
-74454.285
-74171.105
-73848.65
-73687.495
-73468.996
-72971.464
-72780.965
-72036.368
-72089.1
-71797.888
-73612.203
-73576.332
-73828.989
-73815.305
-73625.463
-73479.355
-73170.115
-73270.989
-73046.106
-72843.305
-72290.658
-72175.652
-71665.484
-71509.547
-71247.469
-73004.451
-72636.803
-72834.508
-72470.725
-72583.834
-72395.572
-72523.335
-71857.656
-71825.6
-71495.992
-70889.313
-71120.941
-70486.614
-70383.919
-70018.207
-72062.549
-71788.504
-72022.239
-71724.686
-71526.598
-71348.097
-71316.651
-71165.474
-70928.641
-70647.392
-70372.656
-70166.656
-69584.501
-69395.813
-69125.252
-70684.548
-70803.072
-70788.29
-70657.336
-70623.951
-70377.883
-70271.637
-69962.215
-69738.937
-69530.922
-69125.187
-69113.491
-68637.377
-67981.467
-68477.594
-70093.643
-69447.852
-69778.493
-69486.352
-69407.003
-69188.103
-69188.511
-68828.28
-68502.817
-68607.079
-67986.077
-67773.463
-67259.233
-67297.45
-66987.629
-68593.972
-68563.73
-68555.142
-68528.618
-68206.429
-68200.484
-67818.876
-67539.313
-67441.056
-67019.964
-66479.988
-66691.909
-66337.14
-65790.953
-65848.425
-67546.632
-67387.838
-67242.071
-67111.584
-66925.985
-66555.274
-66739.363
-66360.857
-66210.86
-66034.192
-65493.436
-65582.813
-65079.807
-64796.863
-64704.808
-66503.457
-65852.064
-66052.247
-65620.335
-65566.428
-65567.087
-65348.826
-64991.199
-64817.522
-64582.43
-64443.17
-64105.786
-63379.523
-63540.066
-63126.576
-64882.61
-64690.098
-64535.158
-64576.28
-64293.364
-64318.454
-63947.716
-63764.272
-63502.886
-63305.996
-62858.454
-62997.054
-62269.202
-62047.008
-62164.825
-63865.68
-63121.216
-63206.064
-62962.549
-63036.691
-62689.278
-62516.104
-62286.309
-62128.371
-61824.403
-61504.256
-61142.576
-60869.592
-60976.034
-60383.315
-62118.541
-61934.576
-62005.593
-61623.467
-61363.314
-61308.215
-61068.393
-60858.188
-60611.369
-60444.74
-60077.637
-60043.891
-59456.781
-59163.624
-59338.965
-61132.511
-60195.976
-60321.082
-60185.108
-60103.357
-59777.821
-59653.448
-59369.078
-59118.34
-58846.116
-58458.361
-58454.484
-57822.515
-57932.162
-57687.554
-59395.114
-58887.191
-58940.906
-58655.706
-58453.193
-58411.797
-58044.907
-57774.891
-57481.109
-57391.471
-57070.217
-56944.217
-56535.78
-56264.773
-56343.655
-58104.45
-57301.714
-57464.407
-57158.142
-56971.97
-56771.264
-56526.545
-56310.677
-56057.374
-55902.921
-55458.866
-55504.865
-54920.537
-54941.23
-54737.715
-56490.985
-55808.771
-55897.079
-55550.851
-55426.32
-55219.552
-54991.954
-54711.365
-54504.265
-54270.965
-53985.388
-53859.044
-53472.127
-53315.738
-53228.589
-55016.62
-54229.591
-54355.477
-53972.345
-53862.808
-53633.445
-53411.948
-53158.809
-52915.234
-52746.084
-52358.312
-52382.29
-51881.541
-51920.549
-51712.907
-53322.926
-52761.852
-52850.808
-52457.824
-52290.493
-52121.048
-51805.424
-51644.276
-51341.025
-51221.95
-50865.926
-50825.275
-50391.06
-50370.659
-50130.284
-51782.51
-51319.185
-51202.414
-51128.95
-50638.076
-50498.414
-50263.648
-49992.701
-49822.807
-49557.286
-49301.405
-49252.841
-48907.063
-48755.511
-48893.529
-50502.512
-49583.173
-49655.326
-49208.179
-49247.888
-48797.83
-48754.905
-48366.349
-48260.934
-47920.004
-47736.796
-47755.471
-47294.739
-47388.29
-47167.456
-48838.898
-48183.111
-48197.07
-47876.669
-47584.309
-47440.223
-47134.85
-46942.82
-46718.188
-46546.964
-46260.311
-46217.026
-45886.886
-45818.269
-45767.801
-47477.993
-46596.422
-46741.531
-46229.489
-46162.965
-45796.3
-45660.172
-45350.823
-45190.978
-44983.057
-44731.861
-44757.715
-44356.409
-44396.598
-44302.308
-45972.506
-45163.892
-45235.827
-44780.036
-44615.31
-44363.837
-44164.336
-43888.704
-43740.578
-43527.372
-43308.477
-43286.162
-42955.016
-43000.485
-42923.127
-44523.137
-43676.706
-43806.454
-43264.819
-43193.556
-42847.562
-42691.479
-42403.848
-42268.805
-42074.366
-41866.364
-41866.34
-41549.703
-41601.888
-41532.03
-43140.148
-42283.297
-42385.456
-41867.046
-41770.89
-41443.689
-41300.69
-41004.09
-40900.858
-40693.81
-40514.329
-40522.427
-40217.906
-40297.55
-40237.771
-41746.284
-40874.897
-41008.857
-40436.133
-40365.439
-40028.171
-39890.563
-39603.728