/*--------------------------------*- C++ -*----------------------------------*\
  =========                 |
  \\      /  F ield         | OpenFOAM: The Open Source CFD Toolbox
   \\    /   O peration     | Website:  https://openfoam.org
    \\  /    A nd           | Version:  6
     \\/     M anipulation  |
\*---------------------------------------------------------------------------*/
FoamFile
{
    version     2.0;
    format      ascii;
    class       pointVectorField;
    location    "1.27";
    object      lm;
}
// * * * * * * * * * * * * * * * * * * * * * * * * * * * * * * * * * * * * * //

dimensions      [1 -2 -1 0 0 0 0];

internalField   nonuniform List<vector> 
625
(
(0 0 0)
(0 0 0)
(-5892.6095 1630.1218 -3.7011137)
(-5171.309 2985.7673 -86.898865)
(0 0 0)
(0 0 0)
(-5015.8442 2980.0075 -86.042341)
(-5736.2315 1624.8185 -3.6633319)
(0 0 0)
(0 0 0)
(0 0 0)
(-5711.08 1968.1071 -24.803056)
(-5532.3429 2305.9313 -44.886916)
(-5353.6 2646.3182 -66.385071)
(-4.9246698 -31.967909 -35.266295)
(-22.788076 -75.296328 -37.398406)
(-66.950552 -118.1099 -46.633225)
(-140.68576 -161.85733 -49.149185)
(-236.78202 -200.08433 -52.54514)
(-369.71861 -233.30315 -53.15379)
(-528.43748 -255.83196 -52.71024)
(-718.74705 -266.76469 -50.299066)
(-939.86667 -263.76732 -46.368557)
(-1186.9137 -243.66242 -39.311451)
(-1460.356 -206.16569 -32.327875)
(-1756.3137 -149.43449 -23.698889)
(-2071.0881 -73.427682 -14.490046)
(-2401.4926 21.216762 -5.5525951)
(-2743.5678 133.96379 2.8584549)
(-3093.7006 262.84102 10.015256)
(-3448.8118 406.71759 15.429416)
(-3805.6618 562.43529 19.001953)
(-4162.2987 728.60503 20.247885)
(-4516.4184 902.50401 19.273453)
(-4867.2127 1081.6764 16.444494)
(-5213.9621 1263.9093 11.28867)
(-5555.7556 1447.428 4.5702266)
(16.604885 19.794696 37.911363)
(0.40793843 49.241291 31.022338)
(-29.550708 94.55251 41.38318)
(-81.281968 142.42564 41.860369)
(-151.92282 193.74345 44.244666)
(-252.12677 268.71097 44.835639)
(-369.05245 340.92877 48.678908)
(-515.01611 430.87431 47.627259)
(-685.25844 533.54009 49.220868)
(-880.0543 644.42332 47.835284)
(-1098.9029 770.0638 45.959976)
(-1340.5301 904.92847 42.213615)
(-1602.4849 1050.6498 37.257095)
(-1883.2423 1205.0904 30.287507)
(-2179.9091 1367.5897 21.810475)
(-2490.0524 1536.5979 11.580492)
(-2810.9405 1710.9931 -0.01923099)
(-3140.1665 1889.3435 -12.830606)
(-3475.0097 2070.5739 -26.399531)
(-3813.7169 2253.4938 -40.244955)
(-4153.8077 2437.1937 -53.81884)
(-4494.4513 2620.6817 -66.445054)
(-4834.2581 2803.4008 -77.870837)
(0 0 0)
(0 0 0)
(0 0 0)
(4.5581517 13.689725 -24.726473)
(-1.0604547 71.707759 -40.059396)
(-37.287374 95.115059 -40.5597)
(-77.841347 141.91594 -42.521702)
(-155.23236 214.26684 -50.29628)
(-247.63651 262.83792 -46.26542)
(-360.12649 346.75292 -50.108848)
(-503.66494 434.63537 -47.051719)
(-666.35495 534.77777 -46.166534)
(-853.79892 647.47938 -43.299713)
(-1064.7059 770.37993 -39.273377)
(-1295.2949 906.46944 -36.012073)
(-1546.9555 1051.5957 -32.55595)
(-1815.3034 1206.1637 -30.01702)
(-2099.4389 1369.2363 -28.972798)
(-2396.7438 1538.0612 -29.407653)
(-2704.8421 1712.5483 -31.798617)
(-3021.941 1890.5251 -36.120268)
(-3345.8275 2070.9223 -42.196912)
(-3674.8775 2252.7261 -49.801776)
(-4007.6516 2434.8317 -58.516171)
(-4342.5658 2616.8435 -67.820192)
(-4679.2124 2798.0732 -77.330572)
(-5198.0402 2642.1352 -65.346414)
(-5377.0888 2300.2102 -44.880671)
(-5554.5566 1962.1799 -24.148953)
(-5399.9251 1442.4955 4.6041828)
(-5060.5421 1258.8361 13.225496)
(-4718.1569 1076.7176 21.855394)
(-4373.845 897.63599 30.095372)
(-4027.7523 723.55666 37.640629)
(-3681.1266 557.01456 44.084314)
(-3335.6621 400.49817 49.292792)
(-2993.0383 256.27797 53.140358)
(-2656.0213 126.84694 55.573662)
(-2327.2963 13.907398 56.699001)
(-2009.7653 -80.626189 56.592166)
(-1707.5399 -156.30514 55.654118)
(-1422.5257 -212.00691 53.637159)
(-1159.816 -249.38165 51.717675)
(-919.49296 -268.6919 48.19677)
(-707.7346 -267.91103 45.354251)
(-522.80291 -258.08362 43.247369)
(-365.95179 -233.94842 39.936985)
(-240.72786 -198.80394 38.052267)
(-141.42484 -158.1716 33.749493)
(-71.480127 -119.77808 36.455452)
(-23.957442 -71.623333 30.98923)
(-13.865159 -29.253384 22.851385)
(0 0 0)
(0 0 0)
(0 0 0)
(0 0 0)
(0 0 0)
(0 0 0)
(-5131.6668 2984.4609 -86.477858)
(-5092.5514 2983.2811 -85.750912)
(-5054.0059 2980.6655 -86.206536)
(-5854.4307 1629.3413 -4.0686673)
(-5815.16 1628.195 -4.0428988)
(-5776.0047 1627.1076 -3.82616)
(13.69926 -23.866323 -27.220507)
(-3.0307867 -51.562587 -23.784146)
(-44.802249 -75.195269 -29.324301)
(-109.51884 -95.897527 -29.165875)
(-200.7406 -112.28561 -31.612642)
(-324.59487 -119.28462 -31.091639)
(-472.49918 -116.27725 -29.960158)
(-652.58738 -102.50139 -27.998043)
(-859.89722 -73.212025 -24.048394)
(-1094.9269 -28.762217 -19.251683)
(-1355.6862 31.596494 -14.173549)
(-1638.261 109.58388 -8.2094114)
(-1940.9067 203.98613 -2.6783375)
(-2259.9335 314.91992 2.5398389)
(-2591.6845 440.95627 6.6824812)
(-2933.2313 580.93667 9.5232572)
(-3280.8697 732.8283 10.730603)
(-3632.2933 894.65547 10.222406)
(-3984.7869 1064.9487 7.7214284)
(-4336.1339 1240.8446 3.8590682)
(-4685.3729 1421.0871 -1.8080538)
(-5031.6098 1603.3305 -8.656602)
(-5373.108 1786.2469 -16.39941)
(22.259337 -7.6486371 -3.5117686)
(1.0694147 -11.416168 0.95887232)
(-31.356358 -14.635754 -2.5834557)
(-91.794735 -15.609469 -3.25209)
(-178.01361 -6.5762749 -3.3730533)
(-289.60309 8.8025757 -3.2688035)
(-429.4425 33.898682 -2.2849933)
(-597.7671 72.819401 -1.0336821)
(-792.88909 123.58141 1.5382662)
(-1015.6032 189.15292 3.2551387)
(-1262.7303 269.87793 6.1607014)
(-1532.8534 365.66177 8.1361543)
(-1823.1625 476.64998 9.9515566)
(-2130.5181 601.78412 10.789255)
(-2451.8154 740.18953 10.59503)
(-2783.8723 890.22357 9.0600817)
(-3123.6262 1050.347 6.0824488)
(-3468.4096 1218.8287 1.5901656)
(-3815.389 1393.7827 -4.2889694)
(-4163.1997 1573.2423 -11.243924)
(-4509.4162 1755.9506 -19.458356)
(-4853.6127 1939.8016 -27.750718)
(-5194.6168 2124.5654 -36.840833)
(26.925564 11.889939 11.593097)
(7.9086798 25.206614 12.398476)
(-18.629375 37.552447 14.166356)
(-77.422688 61.066199 15.231916)
(-154.86842 93.287942 16.446613)
(-259.94714 128.92183 18.152171)
(-391.16158 181.99289 18.819406)
(-548.01302 242.41712 20.892351)
(-732.6149 316.58075 21.8963)
(-942.44507 405.16055 22.951507)
(-1177.4084 506.34821 23.5341)
(-1434.773 621.81373 23.015189)
(-1712.5835 749.99293 21.69581)
(-2008.0219 890.36729 19.022243)
(-2318.1471 1041.5814 14.961461)
(-2640.2281 1202.3478 9.3765886)
(-2971.2039 1370.9669 2.3177007)
(-3308.4004 1546.0088 -6.1056903)
(-3649.6403 1725.653 -15.612049)
(-3992.3507 1908.7211 -25.899465)
(-4335.2012 2093.2812 -36.480015)
(-4676.8989 2278.9759 -47.072013)
(-5016.27 2463.7696 -56.915016)
(0 0 0)
(0 0 0)
(0 0 0)
(0 0 0)
(0 0 0)
(0 0 0)
(0 0 0)
(0 0 0)
(0 0 0)
(-0.21011563 8.0196332 17.988193)
(-4.9356436 11.249876 2.7973549)
(-4.0220078 6.0079937 -7.7355579)
(-20.513086 63.420394 13.336001)
(-18.994115 65.139158 -0.85881265)
(-17.917991 59.642531 -22.179496)
(-48.595846 94.919902 21.708987)
(-55.065851 92.168579 3.6375171)
(-54.603794 101.06252 -22.962754)
(-99.730834 144.53752 18.502788)
(-103.39258 150.34464 -1.5100355)
(-98.869546 141.24647 -24.900574)
(-174.69702 208.71855 20.551606)
(-178.11332 207.95423 0.81386246)
(-174.54389 211.72888 -27.352968)
(-268.48258 273.01489 22.044316)
(-272.34097 273.66427 -2.2344348)
(-267.39729 270.86094 -26.968769)
(-386.87532 352.28657 22.158756)
(-390.74382 357.54876 1.5296037)
(-384.12765 354.05198 -29.447398)
(-531.98876 444.42699 23.523258)
(-532.65343 441.51999 0.55564766)
(-525.63514 441.74148 -25.590683)
(-698.43133 544.41932 24.324244)
(-698.03293 547.92033 2.2809479)
(-689.79234 543.4268 -24.854984)
(-890.1605 659.46491 24.680565)
(-888.61482 659.59955 2.8723509)
(-877.6595 657.05213 -22.423681)
(-1105.3677 783.30357 24.053763)
(-1100.6638 784.61684 3.6049371)
(-1088.22 780.62943 -19.8314)
(-1341.6042 919.20797 22.335839)
(-1334.6991 919.77656 3.6396418)
(-1320.2281 916.06286 -17.711945)
(-1599.1589 1064.1739 19.641909)
(-1589.227 1064.8726 2.848009)
(-1572.069 1061.1581 -16.166204)
(-1874.3039 1218.1423 15.16011)
(-1860.9569 1218.5313 0.51641031)
(-1841.6441 1214.5782 -15.64497)
(-2165.7385 1379.7139 9.2321094)
(-2149.063 1380.0548 -2.9810135)
(-2126.9519 1376.3669 -16.619919)
(-2470.6165 1547.6007 1.6003624)
(-2450.3164 1547.7082 -8.3786187)
(-2425.7498 1544.0449 -19.356876)
(-2786.6148 1720.6006 -7.6517212)
(-2762.8632 1720.4875 -15.331415)
(-2735.5493 1716.9611 -23.860968)
(-3111.3087 1897.4331 -18.29516)
(-3084.0608 1897.0661 -23.879718)
(-3054.3478 1893.7683 -30.223982)
(-3442.3445 2076.958 -29.975812)
(-3412.1122 2076.2565 -33.70753)
(-3380.0207 2073.0823 -38.16662)
(-3777.8432 2258.0849 -42.325886)
(-3744.7436 2257.0422 -44.490609)
(-3710.5694 2254.1143 -47.357677)
(-4115.7968 2439.7912 -54.686331)
(-4080.5358 2438.5322 -55.587526)
(-4044.6654 2435.848 -57.346318)
(-4454.9494 2621.7478 -66.526663)
(-4417.8412 2620.1633 -66.71215)
(-4380.5215 2617.6883 -67.57467)
(-4793.7939 2802.9377 -77.385878)
(-4755.809 2801.4495 -77.243809)
(-4717.544 2799.4536 -77.533476)
(-5672.5291 1967.4098 -24.694803)
(-5633.6311 1966.318 -24.699083)
(-5594.4183 1964.5838 -24.436703)
(-5493.5836 2304.6614 -45.041537)
(-5454.5296 2303.6434 -44.993619)
(-5416.1246 2301.9326 -44.973331)
(-5313.7295 2645.7177 -66.070582)
(-5275.0283 2644.7682 -65.254487)
(-5236.342 2643.0089 -65.483989)
(-20.664891 -24.239201 -19.108232)
(-19.779538 -28.626559 -7.6613025)
(-23.936679 -27.629573 6.1224622)
(-35.027495 -68.559977 -22.722796)
(-39.257945 -69.272354 -0.02782421)
(-37.372123 -67.361291 14.976339)
(-86.949747 -114.26144 -25.928625)
(-86.030404 -113.32514 -9.2822573)
(-88.31597 -114.73706 15.434007)
(-153.61475 -153.76662 -27.972118)
(-158.17109 -153.63137 -6.8776214)
(-157.37335 -155.33672 15.309246)
(-256.377 -195.64407 -30.950946)
(-260.60838 -193.48798 -6.6261914)
(-257.93931 -194.07225 15.534621)
(-386.6343 -224.92479 -28.947305)
(-386.5886 -224.06409 -8.1168843)
(-385.46243 -224.84385 18.099214)
(-544.70408 -247.70858 -28.750687)
(-546.90726 -247.1357 -5.5145555)
(-543.45878 -247.42943 20.593398)
(-734.9367 -258.61038 -25.949133)
(-734.86172 -258.48127 -2.1736141)
(-728.52032 -260.50092 22.918641)
(-952.30245 -257.52151 -21.764242)
(-949.84116 -253.95072 1.3620682)
(-943.23007 -255.04704 26.453952)
(-1197.4671 -235.74275 -15.993917)
(-1193.0718 -236.53061 5.402278)
(-1183.6967 -235.47351 30.71445)
(-1467.6255 -198.71661 -9.6576055)
(-1460.1419 -198.52222 11.557903)
(-1448.0216 -198.71209 34.316793)
(-1759.1122 -143.1253 -2.6975519)
(-1748.6651 -142.54248 16.516173)
(-1734.0927 -142.59926 37.844919)
(-2069.3919 -68.085703 4.4649961)
(-2055.6695 -67.206445 21.936199)
(-2037.9346 -67.501337 41.081529)
(-2394.8919 25.658783 11.259493)
(-2377.5056 26.590567 26.470096)
(-2356.7554 26.387309 43.236912)
(-2731.7878 137.3682 17.192802)
(-2710.7753 138.48018 30.107852)
(-2687.0386 138.18459 44.447022)
(-3076.8253 265.52089 21.76051)
(-3052.3467 266.57814 32.450697)
(-3025.6503 266.27376 44.18537)
(-3427.0806 408.30945 24.75689)
(-3399.1676 409.27056 33.191108)
(-3369.6644 409.01623 42.40823)
(-3779.3368 563.40719 25.856657)
(-3748.5332 564.45313 32.112995)
(-3716.642 564.06117 39.063948)
(-4132.0496 728.9168 24.816546)
(-4098.6409 729.53516 29.442711)
(-4064.373 729.04975 34.226244)
(-4482.8937 902.04537 21.991661)
(-4447.5084 902.61165 24.949581)
(-4411.518 901.9752 27.981759)
(-4830.9209 1080.7973 17.740401)
(-4793.7678 1080.7587 19.200759)
(-4756.5075 1079.9919 20.769005)
(-5175.7936 1262.8027 11.431214)
(-5137.9603 1262.4487 12.178113)
(-5099.5221 1261.4972 12.791642)
(-5516.9504 1446.9414 4.4220699)
(-5478.2198 1445.8134 4.5001705)
(-5438.9784 1444.6843 4.7108058)
(6.0972978 -14.238473 15.733905)
(-10.063479 -56.115512 21.11389)
(-47.004244 -70.499158 14.464412)
(-114.43887 -96.331381 19.421608)
(-204.46429 -111.58055 17.999707)
(-322.04561 -121.41566 19.694514)
(-468.52478 -120.34557 21.449199)
(-641.22936 -107.32641 23.205122)
(-842.82237 -80.853155 25.477783)
(-1068.9677 -37.864953 27.670829)
(-1319.4624 21.025827 30.266689)
(-1591.5361 98.198486 31.920998)
(-1882.0224 192.28542 33.308599)
(-2188.3589 303.20878 33.719566)
(-2507.0517 429.86634 33.062704)
(-2835.4283 570.57543 31.099961)
(-3170.6471 723.52407 27.693035)
(-3510.2934 886.57986 22.921323)
(-3852.392 1057.5449 16.814367)
(-4195.3114 1234.3954 9.5491787)
(-4537.653 1414.8613 1.5501043)
(-4878.9321 1597.342 -6.96732)
(-5217.7876 1780.1721 -15.783836)
(21.74045 -6.9400153 -0.34602918)
(6.915483 -12.146215 -1.9071132)
(-33.375744 -8.4085716 -4.9431795)
(-92.242781 -13.232092 -2.5885501)
(-174.88472 -4.0311364 -3.7614155)
(-286.00767 9.29618 -3.4432533)
(-420.98485 34.677954 -1.9852505)
(-584.82132 69.651859 -0.65894847)
(-773.96806 120.91635 1.4624429)
(-988.58673 184.04572 4.500119)
(-1227.2027 264.52454 6.7123103)
(-1487.083 359.88877 9.515399)
(-1765.9667 470.94631 11.254313)
(-2061.1286 596.41963 12.280802)
(-2369.6338 735.49046 12.169826)
(-2688.6766 886.27528 10.536425)
(-3015.8303 1047.2817 7.4530481)
(-3348.5761 1216.2542 2.7970685)
(-3685.0741 1391.5375 -3.3091311)
(-4023.539 1571.0575 -10.677635)
(-4362.6726 1753.1551 -18.847161)
(-4701.7844 1936.0956 -27.614371)
(-5039.2669 2120.3171 -36.412615)
(26.491272 15.762931 -11.705455)
(4.998979 18.337764 -14.262424)
(-25.67972 52.659464 -21.541302)
(-75.892307 56.99034 -19.581214)
(-157.07783 95.798291 -25.112281)
(-257.68453 133.83498 -24.803364)
(-384.69839 179.65613 -24.510233)
(-537.05898 244.57831 -24.365059)
(-715.28229 315.8676 -21.73876)
(-917.63662 405.3326 -20.114916)
(-1143.1239 506.50969 -17.178364)
(-1390.2458 622.16925 -14.316728)
(-1656.2948 751.3058 -12.186782)
(-1939.2521 892.34528 -10.41206)
(-2236.2468 1044.4181 -10.007986)
(-2544.9815 1205.902 -10.963391)
(-2862.9585 1374.8425 -13.506407)
(-3187.99 1549.8083 -17.729352)
(-3518.1481 1728.8744 -23.565348)
(-3851.7092 1910.6896 -30.666761)
(-4187.5032 2093.5853 -38.886607)
(-4524.0366 2277.2239 -47.538583)
(-4861.0754 2459.9489 -56.779252)
(-0.80801785 -12.668247 -13.415839)
(1.24347 -13.143042 -5.1822974)
(-4.6687475 -11.389329 6.5251653)
(-19.924704 -49.533856 -11.005662)
(-25.578783 -48.420603 0.49408747)
(-21.051987 -50.940593 10.640213)
(-63.669018 -67.263733 -15.072845)
(-62.237333 -67.550034 -5.4085312)
(-64.140863 -66.528428 5.7777218)
(-127.46451 -90.751564 -16.128572)
(-132.0338 -91.333795 -3.2652439)
(-129.97591 -89.899799 8.5649988)
(-221.58833 -104.83465 -15.60605)
(-224.75766 -103.2909 -4.28469)
(-222.88285 -103.70605 6.998177)
(-342.46926 -110.8817 -16.06429)
(-344.57063 -111.74392 -4.0252887)
(-339.96504 -111.47849 8.8587266)
(-490.47761 -109.20752 -14.702285)
(-493.04404 -109.28677 -1.9712723)
(-488.94228 -109.70077 9.9668387)
(-668.75207 -95.194605 -11.905746)
(-669.40554 -93.584622 0.050200926)
(-661.7488 -94.498543 12.688347)
(-873.57026 -65.172382 -9.0388739)
(-872.71559 -65.851727 2.9976851)
(-864.74764 -67.683545 14.512285)
(-1105.8864 -22.691859 -4.5169675)
(-1102.9508 -21.69496 6.9414821)
(-1091.95 -23.599059 18.46295)
(-1362.7665 37.63447 -0.098025752)
(-1356.7415 38.431706 10.278651)
(-1343.6948 35.457935 20.99944)
(-1641.081 114.46893 4.6972586)
(-1632.4063 115.16168 14.285699)
(-1616.9937 112.32443 24.19008)
(-1939.33 208.136 9.154318)
(-1927.275 209.08996 17.76515)
(-1909.0334 205.82371 26.403164)
(-2253.2671 318.24011 12.98939)
(-2237.6959 319.11593 20.366691)
(-2216.6416 315.85224 27.968908)
(-2580.0982 443.54374 15.726674)
(-2560.8079 444.51152 21.975017)
(-2537.0808 441.15104 28.424746)
(-2916.444 582.78496 17.110126)
(-2893.6824 583.56727 22.230887)
(-2867.0831 580.40613 27.477389)
(-3259.461 733.94828 16.896306)
(-3233.1257 734.79203 20.883426)
(-3203.8904 731.77358 24.990567)
(-3606.265 895.4355 14.988171)
(-3576.7662 896.06948 17.921279)
(-3545.2193 893.24981 21.010235)
(-3954.9024 1065.1066 11.224839)
(-3922.5835 1065.4601 13.377575)
(-3888.5958 1062.8161 15.510391)
(-4302.9604 1240.442 6.1214626)
(-4268.3418 1240.6478 7.4307491)
(-4232.7852 1238.2978 8.7476299)
(-4649.5193 1420.2418 -0.42969654)
(-4613.2556 1420.3235 0.18653119)
(-4576.1846 1417.9397 1.0836026)
(-4993.8028 1602.3933 -7.9029196)
(-4956.2776 1601.7781 -7.5153146)
(-4917.9285 1599.5636 -7.2886213)
(-5335.0622 1785.0948 -16.243788)
(-5296.3133 1783.9477 -16.104519)
(-5257.3688 1782.1923 -15.972169)
(13.308984 -4.4460713 -0.18365765)
(10.884433 -4.1100333 2.2785617)
(6.5939546 -7.7756916 0.83987762)
(-9.3049904 -10.224541 5.1139609)
(-13.025908 -11.849264 2.2847802)
(-7.2201394 -11.774162 0.36025194)
(-48.327464 -10.761495 -0.75814583)
(-49.527588 -9.2197346 -4.2044921)
(-50.102879 -11.220659 -3.2322997)
(-105.6429 -10.712764 1.1193034)
(-113.8782 -7.1094561 -0.798698)
(-108.97962 -7.5979361 -1.930893)
(-194.99681 -1.029466 -0.057980895)
(-198.67999 1.9335215 -5.1756922)
(-193.13198 -2.2961822 -2.2761562)
(-305.45807 15.354791 -0.54697778)
(-309.70758 17.641503 -2.6319943)
(-304.87768 15.303708 -2.9949591)
(-445.03311 40.652112 1.6660481)
(-448.47071 44.919413 -2.2375401)
(-441.02314 42.061975 -0.37521498)
(-612.20542 80.949464 1.8923268)
(-613.44673 83.013417 -1.0886609)
(-604.92044 78.288803 -0.058968683)
(-805.15111 130.7305 4.928278)
(-804.75843 134.04153 2.1339318)
(-795.15833 130.77315 3.0746737)
(-1025.3226 197.00964 6.5189623)
(-1022.6189 199.73707 3.8011239)
(-1010.6649 195.31972 4.981845)
(-1269.1235 277.65521 9.150487)
(-1263.2278 280.06886 6.8431075)
(-1249.5995 276.0827 8.0914435)
(-1535.2914 373.13854 11.193186)
(-1526.6931 375.47303 9.1521816)
(-1510.6643 371.36074 10.484469)
(-1821.3124 483.73921 12.764199)
(-1809.1175 486.0674 11.085922)
(-1790.58 481.99566 12.415581)
(-2123.7736 608.37074 13.421478)
(-2107.9632 610.48944 12.133802)
(-2087.0242 606.62263 13.328023)
(-2440.1787 746.18825 13.030513)
(-2420.7623 748.05329 12.010779)
(-2397.1448 744.51844 13.215228)
(-2767.233 895.48669 11.185794)
(-2744.1285 897.14759 10.452848)
(-2717.8817 894.00184 11.493488)
(-3102.2149 1054.94 7.9156699)
(-3075.5992 1056.3474 7.4273481)
(-3046.8212 1053.4905 8.3095244)
(-3442.3751 1222.5997 3.1120207)
(-3412.5841 1223.5423 2.7258316)
(-3381.4211 1221.1705 3.5010854)
(-3785.6588 1396.6481 -3.1628452)
(-3752.9802 1397.3583 -3.2698434)
(-3719.5676 1395.0758 -2.742329)
(-4129.9154 1575.3373 -10.384201)
(-4094.3586 1575.2165 -10.662775)
(-4059.6078 1573.6007 -10.306381)
(-4473.4044 1757.4011 -18.915143)
(-4436.5864 1756.4483 -18.782937)
(-4399.8176 1755.2527 -18.545048)
(-4815.8228 1939.8965 -27.574412)
(-4778.0148 1939.2059 -27.650862)
(-4739.9995 1937.4438 -27.472843)
(-5155.954 2123.855 -36.599794)
(-5116.8224 2122.9026 -36.565336)
(-5078.3856 2121.4889 -36.458954)
(13.694071 10.125684 4.667409)
(14.768573 7.5139027 -0.2278298)
(15.154562 7.9233047 -5.8489158)
(-8.4867107 23.238869 5.6816425)
(-12.413545 14.088485 -3.1647901)
(-8.0867893 19.80026 -10.488757)
(-37.339067 39.977571 4.7727762)
(-41.353192 48.386125 -5.9311698)
(-41.630914 48.894948 -14.959596)
(-97.339941 68.76485 7.435528)
(-99.169375 60.504328 -3.5341211)
(-96.221902 64.45947 -12.215465)
(-174.84535 96.746688 5.4502779)
(-178.39258 99.499994 -5.9965682)
(-176.2869 99.474993 -16.909999)
(-279.73695 138.43548 8.675399)
(-282.13456 138.31688 -3.7655984)
(-277.14937 139.68836 -13.372329)
(-409.75433 191.78947 8.5981136)
(-411.38532 190.08783 -4.7334167)
(-406.17167 189.71641 -14.665637)
(-565.31525 252.37693 10.41314)
(-564.86423 253.28089 -0.94330837)
(-558.36571 253.92561 -12.56685)
(-747.07109 328.85538 12.285685)
(-745.68584 328.69144 -0.53881798)
(-737.12549 327.71627 -11.247964)
(-954.0525 417.78869 13.399827)
(-949.82278 418.18719 1.9650431)
(-939.89793 417.19074 -8.3437452)
(-1184.7508 519.46262 14.954296)
(-1178.4334 520.39747 4.1162181)
(-1166.2001 518.85426 -6.0280535)
(-1437.7127 635.32765 15.386876)
(-1428.2624 636.18922 5.3812033)
(-1413.927 634.38089 -3.655258)
(-1710.4533 763.24641 15.051525)
(-1697.8052 764.53853 6.3457463)
(-1681.0387 762.61533 -1.8916011)
(-2000.4638 903.33327 13.581738)
(-1984.576 904.59286 6.0118122)
(-1965.1613 902.54721 -1.2636897)
(-2305.2273 1053.8054 10.597918)
(-2285.8403 1055.1176 4.2502908)
(-2263.651 1053.2297 -1.7764193)
(-2621.8573 1213.5805 6.0859055)
(-2598.9695 1214.921 1.0479214)
(-2574.0413 1213.0671 -3.9400092)
(-2947.683 1381.0169 0.00063980154)
(-2921.5521 1382.1482 -3.913602)
(-2893.8286 1380.4894 -7.7562806)
(-3280.3178 1554.5888 -7.6148852)
(-3250.9375 1555.524 -10.419673)
(-3220.6784 1553.9129 -13.252139)
(-3617.3277 1732.6366 -16.483804)
(-3585.3235 1733.1497 -18.354415)
(-3552.6107 1731.7439 -20.305224)
(-3956.9264 1913.8715 -26.270388)
(-3922.4166 1914.1291 -27.3749)
(-3887.7112 1912.5887 -28.533976)
(-4297.4721 2096.7768 -36.652594)
(-4261.1058 2096.3588 -37.169699)
(-4224.8254 2094.991 -37.740083)
(-4637.5163 2280.5163 -46.984997)
(-4599.9407 2279.7249 -46.942185)
(-4562.1965 2278.2901 -47.168136)
(-4976.4342 2463.513 -56.909538)
(-4937.9576 2462.6867 -56.738325)
(-4899.4373 2460.7828 -56.862709)
)
;

boundaryField
{
    free
    {
        type            zeroGradient;
    }
    fixed
    {
        type            fixedValue;
        value           uniform (0 0 0);
    }
    traction
    {
        type            zeroGradient;
    }
}


// ************************************************************************* //
