/*--------------------------------*- C++ -*----------------------------------*\
  =========                 |
  \\      /  F ield         | OpenFOAM: The Open Source CFD Toolbox
   \\    /   O peration     | Website:  https://openfoam.org
    \\  /    A nd           | Version:  6
     \\/     M anipulation  |
\*---------------------------------------------------------------------------*/
FoamFile
{
    version     2.0;
    format      ascii;
    class       pointScalarField;
    location    "1.67";
    object      E;
}
// * * * * * * * * * * * * * * * * * * * * * * * * * * * * * * * * * * * * * //

dimensions      [1 -1 -2 0 0 0 0];

internalField   nonuniform List<scalar> 
625
(
370.08603
-863.07117
-63560.331
-51571.181
-37.334819
-447.08509
-84033.633
-125503.98
-703.5305
740.25681
884.28655
-65266.473
-82983.303
597.60194
3003.591
1536.0828
3681.9604
8529.4796
9717.2774
16322.877
18906.766
20676.894
20552.006
14472.625
3430.362
-12390.031
-33607.92
-57598.685
-81953.775
-105462.46
-122474.09
-133839.45
-130942.05
-119032.32
-98345.674
-70803.081
-22140.028
3028.6976
-2622.1136
4261.1065
-879.88169
-9204.9563
-9412.7957
-20285.354
-23434.236
-25535.832
-25052.69
-17631.684
-5961.4094
13566.96
38660.971
69271.194
102203.6
134226.56
159914.66
175519.04
176720.38
159650.51
128936.23
71066.881
339.46142
82.918939
-1135.4168
3741.3506
8818.5296
-6204.1282
-4195.7011
1138.2241
-18281.083
-16110.486
-20523.788
-21216.356
-17363.48
-11568.56
3003.2922
18209.814
39292.817
62035.259
85760.533
108459.82
126376.82
136177.06
135437.7
120647.66
94578.438
64405.52
-80656.698
-136442.44
-119518.61
-12283.634
-32832.501
-51741.007
-67431.385
-76649.292
-77983.201
-74128.248
-64743.222
-52400.692
-38138.746
-24613.21
-11391.111
-1803.8422
6359.3277
11004.2
12188.821
11418.691
9859.0781
9046.843
3514.1267
7166.7366
497.01894
3536.2031
482.40578
-506.56032
-1151.4845
-1264.9493
-2173.8639
-2870.991
-62009.032
-60730.267
-65470.44
-78003.681
-79831.66
-80584.646
575.5005
-954.67396
-3117.3331
-4245.2567
-9335.7707
-11777.148
-17203.593
-20126.672
-21732.293
-20518.313
-14141.801
-3755.6605
12081.461
32306.309
55116.915
78536.944
99341.961
114755.7
123097.88
118243.86
109106.5
86840.613
40156.313
326.90612
-1640.8036
-1853.4987
-4661.1293
-4537.8448
-5308.9984
-6855.1178
-4955.4402
-4592.9197
-938.01066
2379.8586
8316.1245
14970.965
22495.48
30074.904
36349.533
40947.738
41657.159
40389.382
31128.869
24075.853
6783.1217
-11558.515
1853.9833
46.766636
2870.4567
4831.7346
9838.5589
12131.645
19253.88
19956.229
21430.319
18374.921
11057.928
456.68342
-15509.378
-34648.343
-56998.48
-80184.212
-103191.3
-120161.12
-132469.16
-128903.6
-115383.53
-86780.957
-33383.189
-204.3209
-758.31478
-796.03491
150.2476
-68.931667
170.72761
179.81924
-555.3835
-944.15885
5009.7889
5639.5909
3082.5766
5034.9512
2285.2912
2810.1089
1729.5093
-1869.0252
1849.0924
-1697.882
-1580.2651
-6073.2931
-2339.4659
-6111.8419
-2180.2894
-12117.161
-11021.213
-12523.723
-14542.357
-16682.583
-14866.45
-18993.682
-23361.146
-21301.332
-22540.444
-22216.461
-24417.985
-19360.702
-20621.928
-19803.956
-13826.582
-12439.579
-14617.6
407.00991
272.08193
-197.64116
18148.725
19681.874
18460.524
43295.683
43870.103
42324.989
72267.356
72459.722
71203.885
103266.32
102597.1
101092.76
132961.65
131272.7
129944.58
156291.96
153786.86
152923.18
169336.7
166685.31
165828.75
168048.82
164472.75
164099.95
150199.96
147395.09
147713.46
115899.7
117271.85
115812.29
69180.589
68251.74
71322.165
-82710.39
-82472.963
-81892.287
-86966.921
-96633.885
-99715.806
-37935.791
-32240.252
-33284.16
1584.5335
3468.3634
1476.4413
699.44856
422.2229
615.13832
6677.0092
4990.3753
6367.2141
7039.6504
6444.6526
6761.683
12591.591
11885.663
11446.975
16428.727
12230.151
14005.176
19033.629
18014.811
17519.39
20955.296
18361.017
19347.619
20289.26
16305.071
16496.54
13041.913
12429.105
13697.657
3519.5566
2078.3962
4519.9462
-11318.075
-11764.897
-7718.9248
-30333.872
-30074.904
-24201.796
-51456.586
-50729.398
-42788.976
-73110.24
-72048.445
-62013.851
-93367.641
-91887.367
-80549.572
-107941.23
-107401.89
-94925.251
-117302.03
-116396.36
-103825.32
-116462.14
-117674.88
-104295.78
-102942.51
-111161.69
-95921.425
-81948.853
-91122.686
-78222.334
-60194.422
-59466.912
-54500.679
-16427.262
-17259.827
-16044.354
-986.92368
46.324221
-4477.3837
-3685.718
-9662.2496
-12554.593
-15857.373
-21512.089
-20749.161
-19456.756
-13266.046
-1877.7252
13687.915
33097.318
54686.695
75728.181
93753.906
106110.8
109852.05
105338.77
90303.376
67006.481
45762.517
396.12064
1680.7985
-662.75301
5113.0602
6635.7406
13097.422
16752.313
19884.73
22890.991
21765.421
18731.402
13659.852
4352.6497
-5697.2387
-18391.393
-31794.871
-44427.085
-55949.138
-63991.378
-68174.627
-66971.604
-62312.862
-42026.217
1566.8652
844.43138
4249.9991
661.45211
8933.7462
10903.768
12582.332
17904.706
13561.955
11937.186
1049.9656
-10645.665
-28444.75
-47507.171
-69172.977
-89986.361
-108144.2
-120816.01
-125151.5
-117410.36
-99170.225
-65079.054
-22110.108
-272.79148
-215.14301
-376.58895
-339.46101
-512.57447
-317.5783
-3113.4381
-3982.1778
-3288.9896
-4730.9686
-4112.697
-3757.9885
-8464.1312
-9501.4669
-8343.1425
-13015.49
-12584.428
-13475.237
-17824.438
-17789.03
-16545.993
-20725.9
-20695.845
-21810.052
-22456.917
-22750.917
-23130.767
-20185.719
-19701.235
-20674.092
-12173.22
-13116.532
-14350.85
-810.97318
-1019.4069
-1969.2294
17587.024
16731.354
15063.871
39399.54
38156.738
36414.389
63893.504
62438.838
60452.268
88513.564
86909.256
84364.559
109508.01
107967.88
105547.65
124997.22
123904.91
120793.17
131417.91
130111.91
127779.9
122443.81
129414.53
123685.4
110397.35
113619.86
109925.06
87224.048
86713.165
84720.411
45593.489
45646.392
46352.31
-171.34618
-129.09093
-16.499419
-102.39282
621.56633
647.75961
-1028.6109
-3595.1563
-1701.5445
-837.71199
1418.3461
1234.1658
2501.9578
121.36723
577.96246
2165.3383
3216.0383
4326.5335
4795.1743
5406.7667
6056.3843
7712.7848
8142.5956
7704.4277
8300.8908
9046.2175
10303.286
11155.994
11903.992
11876.569
11922.532
11593.344
11585.655
12995.366
12489.373
12261.573
13542.794
12013.649
10405.143
12890.133
10280.951
8842.4919
12028.92
8381.4811
5853.3937
9407.6135
4184.7077
2164.5248
6111.407
219.27984
-2746.2409
1459.6972
-6602.0498
-8048.8566
-4384.5438
-12234.428
-14047.764
-11833.355
-17902.33
-19663.802
-31066.167
-2382.2117
-22661.302
-26173.336
-31602
-31728.546
-29394.876
-35008.57
-32647.822
3280.571
3085.2759
3043.0754
945.50037
571.81144
1911.95
3384.6457
4567.0932
6235.4313
7908.7187
3656.4965
5461.0353
9141.5782
8394.7336
10724.225
14141.069
11622.246
13753.887
20021.621
15738.705
17243.964
20152.27
17153.488
20492.339
22106.749
17598.2
19709.985
18065.42
13951.878
16319.38
10460.731
5259.3743
7966.76
-1344.4745
-6762.7848
-4052.5012
-18269.245
-24019.771
-20893.177
-38159.624
-43850.407
-40774.587
-61181.45
-66474.815
-63009.751
-84488.103
-88444.289
-85254.699
-105768.33
-108701.37
-105611.21
-122079.82
-122936.65
-119976
-130173.38
-128640.65
-126929.77
-125191.15
-123191.74
-121609.55
-109445.15
-105944.44
-106064.58
-76364.247
-72976.232
-73897.959
-31173.594
-25874.529
-27721.264
)
;

boundaryField
{
    free
    {
        type            zeroGradient;
    }
    fixed
    {
        type            zeroGradient;
    }
    traction
    {
        type            zeroGradient;
    }
}


// ************************************************************************* //
