/*--------------------------------*- C++ -*----------------------------------*\
  =========                 |
  \\      /  F ield         | OpenFOAM: The Open Source CFD Toolbox
   \\    /   O peration     | Website:  https://openfoam.org
    \\  /    A nd           | Version:  6
     \\/     M anipulation  |
\*---------------------------------------------------------------------------*/
FoamFile
{
    version     2.0;
    format      ascii;
    class       pointScalarField;
    location    "1.67";
    object      p;
}
// * * * * * * * * * * * * * * * * * * * * * * * * * * * * * * * * * * * * * //

dimensions      [1 -1 -2 0 0 0 0];

internalField   nonuniform List<scalar> 
625
(
52611.34
-20127.696
1757.0728
5278.6467
44475.177
-131839.34
5753.3349
244.86339
41547.492
20242.96
-11014.212
-13436.613
1935.7224
5835.0591
30481.456
31829.416
37858.185
41287.267
39636.448
43180.501
41963.096
42681.436
43629.978
42640.918
44893.151
46976.372
48993.715
51907.269
54423.155
56553.11
55953.969
56710.413
53668.446
48861.598
41564.512
29087.815
18154.253
-14062.872
-10628.805
-19528.47
-20311.576
-23790.156
-25966.094
-29402.927
-31924.661
-35594.365
-38557.731
-41540.15
-43901.82
-46686.532
-47405.71
-48217.37
-48153.563
-45909.145
-43751.565
-38834.49
-35106.617
-28942.329
-20185.799
-9230.1123
27909.166
-21651.451
-32185.774
-27159.72
-42130.064
-37058.423
-39234.793
-49916.671
-47812.418
-50935.515
-55443.997
-58500.485
-63130.335
-61643.663
-67808.53
-64224.444
-67127.787
-64165.741
-62119.91
-58876.66
-53074.905
-47789.276
-40876.628
-31591.43
-22524.181
-10680.251
3676.5457
1063.9076
-7452.9331
22511.509
28619.839
34314.998
43366.66
51138.189
55094.473
57763.177
59598.524
59099.848
57205.598
55170.977
51821.574
48862.79
45109.052
39001.641
42192.994
36505.032
31870.777
33757.492
26282.444
28118.059
16522.824
19391.655
42592.338
35438.125
31273.548
-34899.427
-57972.808
-64869.726
15583.602
14560.514
17911.597
-7933.4447
-1032.8221
-4540.0524
12691.866
17289.046
19080.465
19511.479
21995.296
25432.695
26634.952
29960.902
33094.998
35703.424
38977.051
40989.488
43015.402
43989.498
44592.313
42326.808
40331.836
36966.992
30721.731
26643.167
20104.969
10421.192
6932.6458
6220.0213
8741.6043
5395.4589
7342.3207
5677.9474
5580.8583
4151.9302
3519.5409
1736.9975
-572.92529
-2391.4366
-4689.2859
-6841.4995
-8278.0428
-9945.3281
-10562.229
-10199.6
-9716.0103
-8556.9961
-6892.9427
-6350.0747
153.05252
2089.5011
-12126.641
-10406.207
-14140.154
-13262.545
-19398.992
-19630.812
-23293.843
-24136.862
-25950.337
-27282.959
-27672.33
-28466.931
-27614.992
-27427.469
-25824.455
-24184.853
-22547.124
-20047.925
-18351.051
-14627.925
-11201.093
-9448.7347
-2779.457
32968.243
18282.444
20994.77
4469.7767
4321.7922
-1489.9597
-6648.2945
-13492.675
-31723.764
-20649.706
-24572.541
-30012.477
-25096.207
-27139.645
-29687.259
-29167.069
-30686.471
-32244.336
-27998.595
-30745.194
-32560.576
-32726.333
-36741.342
-38570.922
-36420.938
-38294.524
-40152.053
-40410.141
-42760.948
-46172.995
-44033.173
-45724.171
-48918.562
-47117.057
-48699.751
-51764.722
-49969.344
-51575.964
-55651.377
-51750.732
-52621.525
-57086.623
-53502.058
-54515.147
-59120.529
-53710.017
-54008.336
-59363.377
-53333.633
-53898.096
-58890.532
-52207.596
-51970.464
-57609.931
-49492.6
-49780.787
-54260.109
-46421.867
-45593.334
-50890.197
-41779.455
-42410.847
-45990.761
-38088.043
-37019.903
-39978.419
-32196.237
-31362.95
-34027.796
-25350.065
-24861.24
-27049.302
-19590.118
-21074.927
-20890.592
-17120.335
-13062.893
-15242.508
-18919.448
-20513.407
-21607.004
625.74994
482.32985
3299
7676.0409
8979.8705
6857.0379
24916.948
26589.888
24304.89
31655.563
30541.606
25741.108
37666.421
32079.139
27919.267
37029.236
34506.396
29237.257
40091.322
37997.724
31349.698
44056.103
36766.608
34577.62
44693.276
38477.569
36483.238
48252.917
39725.217
37089.326
50544.953
40170.902
42804.02
53765.462
40617.767
44667.767
57158.694
43612.877
47765.418
60134.93
44822.295
51638.679
63051.561
48171.347
55511.554
65965.371
50598.983
58443.431
67602.471
53206.45
61195.113
67551.872
54689.367
62273.452
66396.805
55612.209
62421.735
63756.023
54528.995
59850.581
57566.733
51148.297
55480.223
51923.089
45516.695
50690.421
43236.042
38847.925
42123.753
30744.29
31306.116
30618.132
25942.576
27223.668
29092.591
4483.041
12060.822
14365.164
16251.981
19773.29
21929.929
23971.206
25220.92
27618.522
28062.446
29912.197
30102.451
29613.176
29744.812
28224.822
27180.97
24886.98
23377.14
20794.703
16987.546
14393.143
8603.8802
837.60946
-8848.598
-6477.7058
-3750.4242
-4693.2521
-3554.8631
-4223.1754
-4533.9998
-4155.0528
-4616.6581
-4670.64
-2823.9316
-3627.794
-875.84787
-444.39602
2280.5117
3873.7794
6130.5524
8625.5895
8464.7914
10359.934
10303.123
8668.1098
4757.0638
-17902.749
-21626.365
-26021.205
-27697.135
-28511.277
-30902.727
-30342.301
-31242.644
-30598.947
-31148.103
-31313.576
-31354.989
-32692.162
-32627.477
-34313.175
-34557.6
-34317.234
-34432.964
-32473.988
-28684.885
-25289.293
-18926.728
-12791.851
20374.398
14244.692
12448.109
23636.057
16432.292
9755.8922
19896.853
12719.157
13059.033
21693.729
18204.92
14291.905
27814.464
18475.447
16429.137
24731.047
21247.397
18113.82
29508.971
27029.162
22290.115
31444.429
27586.382
23551.069
31432.058
31317.895
27864.902
33380.582
35481.716
29078.183
33829.067
36064.658
30883.662
33567.999
38680.103
33131.551
33458.216
38819.803
32978.722
31640.247
38652.509
33210.437
29226.852
36976.492
31634.754
26103.048
34933.195
30032.294
23368.355
31913.898
26999.255
19608.019
27527.886
23251.936
15242.897
22758.757
20570.395
11768.064
21360.832
16988.677
7285.1376
13490.388
9614.7046
7469.3585
7569.7743
9635.7884
407.69136
-1635.725
-2095.5312
4431.4209
285.48356
-2924.7084
3310.8546
348.3755
-435.27894
3676.6971
1111.7985
-53.405678
5126.7253
1275.0875
493.31916
3604.8182
257.47438
-224.11472
3048.7281
1016.1936
859.41655
4515.686
616.92
-424.48264
2497.817
-810.73179
-1050.1295
3120.9264
-125.22458
-1906.6142
3378.8527
-1726.1329
-3268.4307
2305.2811
-1482.6432
-4821.8843
3047.5156
-1864.939
-6158.3989
2504.5697
-1629.3887
-8128.3091
3275.5414
-1778.7182
-9635.6451
2684.5925
-772.58784
-10224.15
3770.6368
563.1531
-11327.281
4327.8192
1119.5024
-11112.447
3450.3929
1777.6586
-10583.327
4736.9793
3844.3972
-6936.4754
6105.0124
4187.4319
-9036.771
6167.6029
-4054.8998
-3364.4254
5641.8208
6043.879
108.15332
6695.9957
6542.6952
5509.5396
-16835.853
-23359.604
-29516.695
-13041.16
-11716.796
-21943.21
-14410.006
-18651.445
-25339.421
-19120.795
-18759.925
-26712.529
-19561.317
-20346.072
-26666.578
-20404.561
-21429.821
-29175.341
-21426.658
-21487.706
-29296.035
-22847.315
-23317.763
-31311.086
-22955.092
-24128.512
-30581.306
-24548.335
-25223.132
-31400.697
-24504.938
-27299.482
-32082.02
-24844.448
-28996.484
-32097.956
-24967.312
-32045.537
-32874.701
-25243.025
-34138.463
-32827.98
-24868.049
-36600.436
-32751.473
-24914.463
-38170.445
-33324.438
-24772.415
-39674.354
-32354.275
-23993.428
-38022.83
-30244.347
-22144.296
-35951.654
-30152.304
-20234.992
-34316.817
-25737.931
-17644.964
-27730.582
-20301.915
-11760.876
-17890.094
-10502.523
-5330.6679
-11370.272
-9244.6859
)
;

boundaryField
{
    free
    {
        type            calculated;
    }
    fixed
    {
        type            calculated;
    }
    traction
    {
        type            calculated;
    }
}


// ************************************************************************* //
