/*--------------------------------*- C++ -*----------------------------------*\
  =========                 |
  \\      /  F ield         | OpenFOAM: The Open Source CFD Toolbox
   \\    /   O peration     | Website:  https://openfoam.org
    \\  /    A nd           | Version:  6
     \\/     M anipulation  |
\*---------------------------------------------------------------------------*/
FoamFile
{
    version     2.0;
    format      ascii;
    class       pointVectorField;
    location    "0.69";
    object      u;
}
// * * * * * * * * * * * * * * * * * * * * * * * * * * * * * * * * * * * * * //

dimensions      [0 1 0 0 0 0 0];

internalField   nonuniform List<vector> 
3969
(
(0 -3.0555421e-20 0)
(0 -1.6363428e-19 0)
(1.3411589 -0.012785429 0.022477372)
(1.2976575 -0.30453444 0.019756057)
(0 1.673665e-18 0)
(0 1.3480117e-18 0)
(1.2987636 -0.31028935 0.019714357)
(1.3422616 -0.018569242 0.022489257)
(0 7.1957255e-20 0)
(0 4.3443514e-19 0)
(0 1.8851627e-19 0)
(-1.0775738e-18 -9.7027389e-20 0)
(0 5.1420264e-19 0)
(0 -2.9557064e-19 0)
(0 -2.8908691e-19 0)
(1.3357007 -0.049293146 0.022111066)
(1.3302147 -0.085733997 0.02176006)
(1.3247744 -0.12217126 0.021440354)
(1.319347 -0.15859551 0.021124695)
(1.3139372 -0.1950322 0.020811876)
(1.3085435 -0.23150732 0.020478181)
(1.3031192 -0.26802816 0.020123515)
(0.0047049056 0.0096478855 0.010280271)
(0.0077956141 0.016749768 0.012384668)
(0.013601195 0.024451121 0.013541982)
(0.021931569 0.031758448 0.013652428)
(0.032033615 0.039091016 0.013568319)
(0.044484083 0.045812637 0.013090805)
(0.058438045 0.052268809 0.012838403)
(0.07448579 0.058072925 0.012273035)
(0.091902013 0.063440312 0.012001884)
(0.11101017 0.068142203 0.011475431)
(0.13150946 0.072463583 0.011179857)
(0.15331471 0.076070171 0.010800692)
(0.17641065 0.079272479 0.010455395)
(0.20062612 0.081918259 0.010187543)
(0.22596205 0.084047067 0.0099128571)
(0.25219157 0.085720261 0.0097108163)
(0.27940687 0.086953409 0.0095756497)
(0.30740018 0.087731004 0.009487835)
(0.33621592 0.088109373 0.0094807565)
(0.36570888 0.088085616 0.0095191379)
(0.39589681 0.087684885 0.0096348558)
(0.42667682 0.086937539 0.0097954929)
(0.45804885 0.085843308 0.01001481)
(0.48994122 0.08444765 0.010282579)
(0.52232655 0.082708966 0.010598238)
(0.55516378 0.080757034 0.010967615)
(0.58841591 0.078493281 0.011385261)
(0.62206029 0.075986911 0.011842254)
(0.65607365 0.073251725 0.012345528)
(0.69040438 0.070266026 0.012880442)
(0.72506595 0.067076835 0.01343925)
(0.76001929 0.063663504 0.014012848)
(0.79525709 0.060040764 0.014586518)
(0.83075705 0.056227401 0.015147588)
(0.86650789 0.052201655 0.015705031)
(0.90247816 0.048004378 0.016221801)
(0.93865078 0.043626044 0.016739016)
(0.97498638 0.039065879 0.017224337)
(1.011482 0.034363269 0.017690635)
(1.0480443 0.029512519 0.018182713)
(1.084723 0.024519271 0.018646754)
(1.1213981 0.019430518 0.019153193)
(1.1581259 0.014202787 0.019647507)
(1.1948069 0.0089297028 0.02018383)
(1.2314834 0.0035412431 0.020728604)
(1.2680838 -0.0018545573 0.021301729)
(1.3046456 -0.0073320842 0.021890472)
(0.00077390209 -0.0095730044 -0.012580225)
(0.0054234606 -0.015803412 -0.012523886)
(0.010121602 -0.022971815 -0.015097262)
(0.017417033 -0.030103636 -0.014192239)
(0.027096106 -0.037557892 -0.014242489)
(0.03818834 -0.044971973 -0.013330387)
(0.051322451 -0.052155299 -0.012764477)
(0.065834717 -0.05942413 -0.011928526)
(0.08197798 -0.06637873 -0.011220208)
(0.099599274 -0.073469743 -0.01043475)
(0.11845762 -0.080195048 -0.009731167)
(0.1387451 -0.087060799 -0.0089909945)
(0.16011161 -0.093659769 -0.0083043304)
(0.18273577 -0.10024929 -0.0075701811)
(0.20636764 -0.10675322 -0.0068691623)
(0.23106226 -0.11314187 -0.0061390616)
(0.25670794 -0.11951118 -0.0054023608)
(0.28321872 -0.12576822 -0.0046552887)
(0.31058634 -0.13201286 -0.00388475)
(0.33872409 -0.13819445 -0.0031107777)
(0.36755605 -0.14435589 -0.0023119822)
(0.39711604 -0.15047378 -0.0015164922)
(0.42725349 -0.15658579 -0.00068694801)
(0.45803356 -0.16269697 0.00013690914)
(0.48931094 -0.16874958 0.00096714279)
(0.521153 -0.17483107 0.0018286109)
(0.55339919 -0.1808558 0.0026873708)
(0.58617268 -0.18695058 0.003571125)
(0.61934759 -0.19300662 0.0044364017)
(0.65290198 -0.19907184 0.0053311477)
(0.68684166 -0.20516151 0.0062088517)
(0.72111225 -0.21125182 0.0070960904)
(0.75571776 -0.2173564 0.0079675112)
(0.79061984 -0.22345513 0.0088341954)
(0.82581033 -0.22954743 0.0096803505)
(0.86126509 -0.23563132 0.010521942)
(0.89696581 -0.24167658 0.011351195)
(0.93287104 -0.24767894 0.012158274)
(0.96898528 -0.25364671 0.012977544)
(1.0052531 -0.25954065 0.013772538)
(1.0416591 -0.26539392 0.014581805)
(1.0781587 -0.27116649 0.015364633)
(1.1147369 -0.2768835 0.016157419)
(1.1513421 -0.28252395 0.01691588)
(1.1879657 -0.28811291 0.017666059)
(1.2245688 -0.29363897 0.018387137)
(1.261147 -0.29910994 0.019080963)
(0 -1.8756005e-20 0)
(0 2.2176768e-19 0)
(0 -2.6174063e-19 0)
(5.3097771e-19 -5.4048482e-20 0)
(0 -4.4463335e-19 0)
(0 -2.0567361e-19 0)
(0 -1.7360055e-19 0)
(0.0040406807 -0.0062881629 0.0096797613)
(0.006462139 -0.01918769 0.013094344)
(0.010628522 -0.021229939 0.013270335)
(0.018489522 -0.031767797 0.013607406)
(0.027982056 -0.038050546 0.013382339)
(0.039161831 -0.045765679 0.012497416)
(0.052438889 -0.053460789 0.012234062)
(0.066866943 -0.060280702 0.011348215)
(0.083189813 -0.068053495 0.011059432)
(0.10063971 -0.074627696 0.010258522)
(0.11958706 -0.082185136 0.010171409)
(0.13988033 -0.088632336 0.0094643914)
(0.16137099 -0.095670469 0.0091208506)
(0.18405456 -0.10245879 0.0087205295)
(0.207746 -0.10901094 0.0083598339)
(0.23244253 -0.11584043 0.0081369551)
(0.25810649 -0.1222552 0.0078808579)
(0.2845836 -0.12890638 0.007773489)
(0.31192652 -0.13531512 0.0076760862)
(0.33999708 -0.14179493 0.0076723367)
(0.36880453 -0.14816569 0.0077175114)
(0.39827052 -0.15454427 0.0078294244)
(0.42837994 -0.16086 0.0079850753)
(0.45905934 -0.1671445 0.0081999457)
(0.49031759 -0.17345382 0.0084495539)
(0.52213461 -0.17968836 0.0087090355)
(0.55430494 -0.18599625 0.0091370614)
(0.58699956 -0.19217295 0.0095073789)
(0.62009338 -0.1984001 0.0099762871)
(0.6536044 -0.20458175 0.010453346)
(0.68748261 -0.21074387 0.010952334)
(0.72172473 -0.21690278 0.011477082)
(0.75630753 -0.22304117 0.012000721)
(0.79121343 -0.22915334 0.012520543)
(0.8264272 -0.23525243 0.013016431)
(0.86192614 -0.24133457 0.013524927)
(0.89767658 -0.24735942 0.013968545)
(0.93364478 -0.25339382 0.014453881)
(0.96981979 -0.25933982 0.014888663)
(1.0061527 -0.26526727 0.01535441)
(1.0426084 -0.27111693 0.015812673)
(1.0791613 -0.27690975 0.016296994)
(1.1157629 -0.28263346 0.016804942)
(1.1524017 -0.28828004 0.01733485)
(1.1890386 -0.29387157 0.017898412)
(1.2256545 -0.29937858 0.018482505)
(1.2622379 -0.30486309 0.019094222)
(1.3042155 -0.27378379 0.020042317)
(1.3096176 -0.23725811 0.020375303)
(1.3150337 -0.20082722 0.020733232)
(1.3204177 -0.16435603 0.021104634)
(1.3258709 -0.12798954 0.021473075)
(1.3313088 -0.091514387 0.02183475)
(1.3368057 -0.055082842 0.022170736)
(1.3057617 -0.013116648 0.021764504)
(1.2691823 -0.0076592965 0.021032396)
(1.2325601 -0.002260153 0.020274294)
(1.195867 0.0031139208 0.019474472)
(1.159146 0.0084023064 0.018655792)
(1.122407 0.013616843 0.017809575)
(1.0856829 0.018720629 0.016951018)
(1.0489995 0.023704131 0.01608261)
(1.0123879 0.028548236 0.01520461)
(0.97587443 0.03325292 0.014311327)
(0.93947886 0.037798054 0.013417678)
(0.9033165 0.042122553 0.012540492)
(0.86723127 0.046361186 0.011598508)
(0.83142773 0.050384094 0.010681693)
(0.79584484 0.05425022 0.0097406596)
(0.76053177 0.057935017 0.0088057826)
(0.7255022 0.061444405 0.0078678251)
(0.69078216 0.064764012 0.0069323476)
(0.65639107 0.067892039 0.006009772)
(0.62235454 0.070802 0.005099625)
(0.58869229 0.073504082 0.0041968152)
(0.5554319 0.075951523 0.0033202403)
(0.52260117 0.07815966 0.0024483049)
(0.49022284 0.080079852 0.0015976003)
(0.45835259 0.081720934 0.00075166241)
(0.42700375 0.083040716 -7.0403272e-05)
(0.39623626 0.084046095 -0.00089677438)
(0.36607887 0.084680535 -0.0016895931)
(0.33660581 0.084962816 -0.0024890083)
(0.30783003 0.084826096 -0.0032555609)
(0.27985625 0.084288488 -0.0040294032)
(0.25269154 0.083307287 -0.0047790745)
(0.22646971 0.081832705 -0.0055140338)
(0.20122763 0.079822497 -0.0062141905)
(0.17708904 0.077363644 -0.0069856378)
(0.15397289 0.074364243 -0.0076286588)
(0.13222063 0.07084375 -0.0084194181)
(0.11166181 0.066685006 -0.0090509096)
(0.09256958 0.062134296 -0.0099309526)
(0.075075712 0.056757987 -0.010508209)
(0.059182403 0.051289256 -0.011305358)
(0.04481578 0.044754333 -0.011889727)
(0.032653428 0.038310976 -0.012566494)
(0.022130687 0.030977801 -0.012793423)
(0.014233827 0.024005271 -0.012665707)
(0.0079989979 0.015729979 -0.011706534)
(0.0078310229 0.00945846 -0.0076791563)
(0 2.2641104e-19 0)
(0 1.7691692e-19 0)
(0 -9.1678083e-20 0)
(0 -6.0240278e-19 3.0147125e-19)
(0 -5.2891494e-19 0)
(0 -1.1628988e-19 0)
(0 5.5610535e-19 0)
(0 7.6945692e-19 0)
(0 7.3348704e-19 0)
(0 6.969377e-19 0)
(0 6.0191586e-19 -7.3942835e-20)
(0 1.6260324e-18 0)
(0 7.1283012e-19 0)
(0 -1.3134047e-19 0)
(1.2978071 -0.30528975 0.019748664)
(1.2979561 -0.3060353 0.019746715)
(1.2980951 -0.30677411 0.019735973)
(1.2982376 -0.30748997 0.019739193)
(1.298367 -0.3082044 0.019736548)
(1.2984987 -0.30889811 0.019734839)
(1.2986245 -0.30959637 0.019722159)
(1.3413243 -0.013464365 0.022484243)
(1.3414841 -0.014161864 0.022480062)
(1.3416399 -0.014861217 0.022477226)
(1.3417923 -0.015569896 0.022466615)
(1.3419315 -0.016288557 0.022466379)
(1.3420585 -0.017026271 0.022468254)
(1.3421674 -0.017781638 0.022486639)
(9.5198799e-06 0.00038045682 0.009054771)
(0.0017616704 -0.00081685941 0.0087773431)
(0.0053194596 -0.0010558248 0.01022563)
(0.011461289 -0.00130331 0.010370692)
(0.019394235 -0.0013697057 0.01034)
(0.029841641 -0.00088171145 0.010267653)
(0.04178949 -0.00041803577 0.0099445897)
(0.056005998 0.0006743156 0.0098034627)
(0.071850307 0.0018130822 0.0094074958)
(0.089598647 0.0034453464 0.0092420329)
(0.10899626 0.005360815 0.0089512653)
(0.13009259 0.0076229595 0.008668639)
(0.15278935 0.010332988 0.0084765862)
(0.17701187 0.013289059 0.0082395692)
(0.20268663 0.016636486 0.0080934252)
(0.22973177 0.02025177 0.0079732135)
(0.25810343 0.024141798 0.0078998709)
(0.28761191 0.02821099 0.0079011168)
(0.31828384 0.032460208 0.0079439091)
(0.34994153 0.036771373 0.008055145)
(0.38254413 0.04110611 0.0082291481)
(0.41595894 0.045374596 0.0084520936)
(0.45013426 0.049504855 0.0087361686)
(0.48491319 0.053406946 0.0090693846)
(0.52027586 0.05701728 0.0094629158)
(0.55607222 0.060228294 0.009872795)
(0.59221856 0.062975923 0.0103557)
(0.62864596 0.065192166 0.010872937)
(0.6652587 0.066765842 0.011421377)
(0.70197728 0.067668436 0.012002087)
(0.73875181 0.067819184 0.012601957)
(0.77550882 0.067156243 0.013208022)
(0.81220105 0.065660941 0.013813708)
(0.84878251 0.063278242 0.014413526)
(0.88521036 0.060008126 0.01499231)
(0.92144227 0.055849657 0.015556658)
(0.95745102 0.050780707 0.016108811)
(0.99320592 0.044861722 0.016630185)
(1.0286883 0.038117999 0.017160657)
(1.063861 0.030576228 0.017688163)
(1.0987577 0.022317544 0.018207491)
(1.1333266 0.013388098 0.018746723)
(1.1676368 0.0038790574 0.019282899)
(1.2016452 -0.0061302463 0.019844299)
(1.2354382 -0.016561844 0.020399884)
(1.2689985 -0.027283141 0.020974979)
(1.3024193 -0.038249684 0.021543034)
(-0.0032700399 -0.0044598285 0.0060949265)
(-0.0023775814 -0.010669672 0.0059952152)
(0.0007588561 -0.014389298 0.0070710811)
(0.005850149 -0.019089581 0.0069755038)
(0.013269802 -0.022610037 0.0071731868)
(0.022412667 -0.025872456 0.0069078762)
(0.033719555 -0.02845062 0.0069980638)
(0.047029285 -0.030405894 0.0066206921)
(0.062140353 -0.031780525 0.0067148457)
(0.079202827 -0.032323609 0.0064871761)
(0.09813496 -0.032224202 0.0063665556)
(0.1188033 -0.031308225 0.0062809668)
(0.14126799 -0.02966549 0.0061853155)
(0.16541344 -0.027322966 0.0061117569)
(0.19119228 -0.024238555 0.006091422)
(0.21849588 -0.020519197 0.0060449774)
(0.24721234 -0.016184816 0.0060910625)
(0.27729458 -0.011354016 0.0061725367)
(0.30863698 -0.0060970593 0.0063036439)
(0.34112538 -0.0005340702 0.0065087022)
(0.37465359 0.0052335935 0.0067574588)
(0.40911674 0.011102371 0.0070573584)
(0.4443484 0.016928657 0.0074205131)
(0.48031026 0.022635083 0.0078267683)
(0.51681944 0.02803089 0.0082675357)
(0.55376481 0.033067878 0.0087892775)
(0.59105949 0.037559757 0.0093387736)
(0.62857874 0.041412695 0.0099128067)
(0.66620223 0.044537852 0.010541026)
(0.70386724 0.046793944 0.011179847)
(0.74146849 0.048109291 0.011832522)
(0.77892844 0.048402807 0.012493791)
(0.8161892 0.047603148 0.013147675)
(0.85318182 0.045676503 0.013785344)
(0.88986113 0.042587832 0.014408184)
(0.92617017 0.038316763 0.015015382)
(0.9620983 0.03289586 0.015592273)
(0.99757895 0.026323962 0.016167228)
(1.0326464 0.018667355 0.016722097)
(1.0672203 0.0099568252 0.017277467)
(1.101388 0.00029220286 0.017822877)
(1.1350705 -0.010261359 0.018384294)
(1.1683865 -0.021590863 0.018935107)
(1.2012845 -0.033594619 0.019500313)
(1.2338957 -0.046144932 0.02006384)
(1.2661922 -0.05910253 0.020631506)
(1.298309 -0.072368075 0.021207098)
(-0.0045348274 -0.0039392416 0.0037083105)
(-0.0027740033 -0.0083743065 0.0033929828)
(0.00050818183 -0.012015471 0.0037518744)
(0.006770297 -0.015479818 0.0037499582)
(0.014577034 -0.018834896 0.0037105289)
(0.024945388 -0.021564114 0.003736449)
(0.036931865 -0.024386805 0.0034958026)
(0.050904884 -0.026473632 0.0036430308)
(0.066597594 -0.028408829 0.0035925051)
(0.084219997 -0.029740714 0.0035200548)
(0.10331223 -0.030621608 0.0036248907)
(0.12419547 -0.0310756 0.0036266224)
(0.14659799 -0.03094624 0.0036545579)
(0.17053281 -0.030410965 0.0037517362)
(0.19593261 -0.029340861 0.0038677975)
(0.22269248 -0.027883893 0.0039747174)
(0.2507718 -0.026024826 0.0041701722)
(0.28004643 -0.023849063 0.0043438813)
(0.31045894 -0.021410085 0.0046271801)
(0.34186072 -0.018772851 0.0049231954)
(0.37421307 -0.016008381 0.005285171)
(0.40736652 -0.013218519 0.0056880603)
(0.44133011 -0.010439964 0.0061334315)
(0.47590098 -0.0078373798 0.0066011696)
(0.51103522 -0.0054120865 0.0071447889)
(0.54663782 -0.0033089129 0.0076830866)
(0.58263629 -0.001591935 0.008249923)
(0.61888705 -0.00033779269 0.0088741675)
(0.65536483 0.00036766225 0.0095023996)
(0.69195715 0.00044081247 0.010154)
(0.72860519 -0.00015623604 0.010827254)
(0.76525491 -0.0015073727 0.011500397)
(0.80184572 -0.0036404864 0.012173592)
(0.83833376 -0.006582372 0.012837119)
(0.8746707 -0.01037945 0.013497557)
(0.91082904 -0.014992144 0.014131084)
(0.9467632 -0.020460461 0.014762413)
(0.98246427 -0.026724137 0.01537582)
(1.0178903 -0.033772577 0.015980866)
(1.0530272 -0.041563438 0.016595336)
(1.0878867 -0.050025062 0.017191413)
(1.1224343 -0.059126236 0.017810856)
(1.1567322 -0.068758239 0.018403234)
(1.1907358 -0.078876499 0.019033015)
(1.2245331 -0.089361671 0.019626353)
(1.2580957 -0.10014447 0.020252433)
(1.2915333 -0.11113139 0.020845372)
(-0.0036975565 0.00044400171 0.00053721273)
(-0.00027710305 0.00057536581 -0.00031347734)
(0.0049370169 0.0013962399 -8.9694257e-05)
(0.012769114 0.0015971195 -0.0001413673)
(0.023014069 0.0016654114 2.6379741e-05)
(0.034906319 0.0017437257 -5.1653594e-05)
(0.048781818 0.0011451237 0.00033136262)
(0.064196667 0.00075249994 0.00033795936)
(0.081378352 -0.00025915063 0.00054121232)
(0.099876299 -0.0012417533 0.00079778465)
(0.11988411 -0.0026828313 0.0009557399)
(0.14123392 -0.0042253794 0.0010913327)
(0.16372574 -0.0059868503 0.0012849715)
(0.18745408 -0.0080878815 0.0015200868)
(0.21216898 -0.010225913 0.0016988337)
(0.23796952 -0.012705956 0.0019809149)
(0.26459372 -0.015274353 0.0022391427)
(0.29213133 -0.018111698 0.0025863495)
(0.3204005 -0.021104842 0.0029569046)
(0.34944199 -0.024281594 0.0033522961)
(0.37915477 -0.027647715 0.0037922743)
(0.40955919 -0.031138058 0.0042461236)
(0.44047677 -0.034820545 0.0047408147)
(0.47195913 -0.038625493 0.005292669)
(0.50395334 -0.042566099 0.0058355353)
(0.53643156 -0.046637801 0.0064201663)
(0.56932702 -0.050826127 0.0070634452)
(0.60263651 -0.055146357 0.0077183746)
(0.63633493 -0.059575019 0.0083874859)
(0.67038051 -0.064128499 0.0090991753)
(0.70477373 -0.068787472 0.0098014796)
(0.7394802 -0.073562351 0.010520821)
(0.77448797 -0.078442828 0.011234714)
(0.80977695 -0.083418692 0.011945895)
(0.84533331 -0.088494911 0.012643164)
(0.88112456 -0.09364742 0.013328091)
(0.91714907 -0.098880247 0.014002654)
(0.95334514 -0.10416976 0.01466135)
(0.98971157 -0.10952372 0.015320035)
(1.0262003 -0.11490531 0.015960308)
(1.0628211 -0.12033021 0.01660839)
(1.0994737 -0.12577615 0.017251874)
(1.1362 -0.13124177 0.017902162)
(1.1728906 -0.13671765 0.01855051)
(1.2096109 -0.14220048 0.019194964)
(1.2462585 -0.14767784 0.019841817)
(1.2828858 -0.15315415 0.020486372)
(-0.0027139149 0.0045385575 -0.002566381)
(0.0029463318 0.00979353 -0.0033747031)
(0.0095410663 0.014205992 -0.0034717471)
(0.019876603 0.018138074 -0.0035634099)
(0.031680169 0.021286496 -0.0034951182)
(0.045767377 0.023959876 -0.003213784)
(0.061281388 0.025528977 -0.0030006509)
(0.078549987 0.026677845 -0.0028480259)
(0.096927102 0.026543194 -0.002421182)
(0.11670908 0.025830878 -0.0022200609)
(0.13748034 0.023981651 -0.0019607199)
(0.15921526 0.021446601 -0.0016102282)
(0.18178554 0.017747321 -0.0012401258)
(0.20513776 0.013342034 -0.00089992311)
(0.22915282 0.0079667486 -0.00049512689)
(0.25377901 0.0017850747 -7.5956143e-05)
(0.27895428 -0.0051460028 0.00035144358)
(0.30462289 -0.012821707 0.00081462909)
(0.33076984 -0.021085533 0.0012905866)
(0.35735573 -0.029948257 0.0017969376)
(0.38439623 -0.039224545 0.0023308942)
(0.41182138 -0.048929377 0.0028976538)
(0.43972064 -0.058876143 0.0034916024)
(0.46804871 -0.069031553 0.0040829235)
(0.49689127 -0.079249346 0.0046958537)
(0.52618922 -0.089437926 0.0053464582)
(0.55602581 -0.099526146 0.0060046749)
(0.58640164 -0.10939569 0.0066634798)
(0.6173438 -0.11896461 0.0073558343)
(0.64887045 -0.12815658 0.0080523198)
(0.68102006 -0.13689349 0.0087620411)
(0.71380253 -0.1451254 0.0094845274)
(0.74723928 -0.15278964 0.01021081)
(0.78134552 -0.15983191 0.010929881)
(0.81611629 -0.16624802 0.011657659)
(0.8515604 -0.17197094 0.01236971)
(0.88765018 -0.1770257 0.013080954)
(0.92437064 -0.18139251 0.013788723)
(0.96168618 -0.18508071 0.014473095)
(0.99958076 -0.18810779 0.015175014)
(1.0379099 -0.19052042 0.015870938)
(1.0766662 -0.19235914 0.016587034)
(1.1157766 -0.19367352 0.017282582)
(1.1551517 -0.19454788 0.018003354)
(1.1947537 -0.19503138 0.018696557)
(1.2344463 -0.19521829 0.019416059)
(1.2742376 -0.19519272 0.020111116)
(-0.0014017459 0.004936278 -0.0061382758)
(0.0055016776 0.010539151 -0.0067655965)
(0.012973131 0.015433447 -0.0075128668)
(0.023875909 0.019476762 -0.0074339064)
(0.036560427 0.022886574 -0.0071669136)
(0.051140706 0.02541966 -0.006778465)
(0.067403836 0.026922127 -0.0064103442)
(0.085022007 0.027612934 -0.005885852)
(0.10391387 0.027010705 -0.0054414631)
(0.12388958 0.025570778 -0.0049827305)
(0.14480531 0.022772213 -0.0044905043)
(0.16650812 0.018965311 -0.0039971813)
(0.18893992 0.013926719 -0.0035641068)
(0.21196603 0.0078210864 -0.0030522845)
(0.2354918 0.00061011675 -0.0025669539)
(0.25950789 -0.0076331995 -0.0020338595)
(0.2838871 -0.016844253 -0.0015267646)
(0.30866776 -0.026923715 -0.00095798432)
(0.33376438 -0.037824211 -0.00039519341)
(0.35921371 -0.049381024 0.0001992213)
(0.38497967 -0.061544442 0.00080541202)
(0.41117219 -0.074073355 0.0014366837)
(0.43764848 -0.086967218 0.0020639283)
(0.46462112 -0.10010261 0.0027225266)
(0.49202663 -0.11317895 0.003393434)
(0.51992608 -0.12620999 0.0040688459)
(0.54841108 -0.1389566 0.0047624656)
(0.57747501 -0.15135138 0.0054882146)
(0.60718512 -0.16323642 0.0062145108)
(0.63759763 -0.17454992 0.0069666791)
(0.66873695 -0.18515692 0.0077217492)
(0.70064995 -0.19498498 0.0084962742)
(0.73337064 -0.2039525 0.0092620955)
(0.76691334 -0.21201129 0.010037876)
(0.80130243 -0.21910041 0.010807395)
(0.83652672 -0.22519001 0.011566586)
(0.87259765 -0.23028503 0.012328829)
(0.90945878 -0.23435059 0.013074763)
(0.94711458 -0.23745551 0.013832337)
(0.9854636 -0.23958212 0.014579149)
(1.0244781 -0.24080391 0.015335053)
(1.0640637 -0.24118717 0.016076083)
(1.1041475 -0.24083681 0.016829208)
(1.1446169 -0.23981867 0.017571456)
(1.1853963 -0.23826141 0.018312224)
(1.2263635 -0.23627063 0.019041453)
(1.2674715 -0.23398244 0.019756899)
(-0.00039319808 -0.00074940048 -0.0087422892)
(0.0057456376 0.0014226182 -0.009766418)
(0.012206446 0.0016058968 -0.010940675)
(0.022346784 0.0017729142 -0.010768501)
(0.033704303 0.0011939149 -0.010485524)
(0.047504968 5.0367607e-06 -0.0099634208)
(0.062557672 -0.0018139297 -0.0094235068)
(0.079292838 -0.004140847 -0.008805772)
(0.097236542 -0.0073410951 -0.0082427898)
(0.11640185 -0.010944269 -0.0076154657)
(0.13668287 -0.015648806 -0.0070004998)
(0.15779114 -0.020689656 -0.0064891939)
(0.17988965 -0.026796624 -0.0058101899)
(0.20263552 -0.033430425 -0.005239042)
(0.22616579 -0.040868299 -0.0046109938)
(0.25025031 -0.048930788 -0.0039979633)
(0.27494932 -0.057645497 -0.0033534896)
(0.30014699 -0.066939786 -0.0027031519)
(0.32583372 -0.076754922 -0.0020384527)
(0.35199523 -0.087016669 -0.0013597369)
(0.3786151 -0.097642212 -0.00067085441)
(0.40565881 -0.10856867 4.1005802e-05)
(0.43321588 -0.1196681 0.00075583362)
(0.46121445 -0.13091649 0.0014952679)
(0.48969485 -0.14211962 0.0022147521)
(0.51869446 -0.15327086 0.0029719715)
(0.54822847 -0.16422355 0.0037476375)
(0.57832194 -0.17492089 0.0045248693)
(0.60900259 -0.18526455 0.0053105764)
(0.64028978 -0.1952085 0.0061195732)
(0.67219677 -0.20463677 0.0069214069)
(0.70476555 -0.21352952 0.0077400746)
(0.73799102 -0.221804 0.0085494079)
(0.77189931 -0.22943293 0.0093648032)
(0.80648421 -0.2363672 0.010166814)
(0.84174915 -0.24257874 0.010961356)
(0.87767635 -0.24807641 0.011757985)
(0.91424256 -0.2528221 0.012540318)
(0.95141367 -0.25685554 0.013317735)
(0.98913196 -0.26017374 0.014096743)
(1.0273626 -0.26282609 0.014872746)
(1.066034 -0.26486904 0.015652276)
(1.1050721 -0.26634547 0.01642125)
(1.1443983 -0.26733543 0.017193164)
(1.1839473 -0.26790884 0.017939068)
(1.2236293 -0.26815858 0.018682684)
(1.2633835 -0.26816948 0.019401168)
(0 -6.8719738e-20 0)
(0 3.8426301e-19 0)
(0 3.3234983e-19 0)
(0 2.9329289e-19 -1.00537e-19)
(0 1.1586621e-19 0)
(0 -4.0693862e-21 0)
(0 5.6323488e-20 0)
(0 2.1143849e-20 0)
(0 -1.373853e-19 0)
(0 -3.3869603e-19 0)
(0 -4.2076349e-19 -6.9866057e-20)
(0 -6.8980364e-20 0)
(0 8.4971299e-20 0)
(0 1.6412931e-19 0)
(0 1.3180271e-19 0)
(0 2.0760751e-19 0)
(0 3.7916821e-19 0)
(0 3.8036419e-19 1.9159026e-19)
(0 3.2761292e-19 0)
(0 3.8146964e-19 0)
(0 1.291778e-19 0)
(-2.2021708e-18 1.0374344e-19 0)
(9.3714764e-19 -2.3468143e-19 0)
(-5.4527213e-20 -9.4344343e-20 0)
(1.6927259e-19 -1.6619832e-19 -1.2612229e-19)
(-3.1616388e-19 -2.3201925e-19 0)
(-8.0922861e-19 -3.3166168e-19 0)
(1.23673e-19 -2.7385441e-19 0)
(0 2.0283156e-19 0)
(0 7.2526252e-20 0)
(0 -1.4072805e-19 0)
(0 1.3719179e-20 3.5902501e-19)
(0 1.547456e-19 0)
(0 2.2537971e-19 0)
(0 -6.2617833e-20 0)
(0 -1.6315607e-19 0)
(0 -1.333875e-19 0)
(0 3.1375126e-20 0)
(0 1.5654468e-19 -3.5671319e-20)
(0 1.1582522e-19 0)
(0 -4.1979473e-20 0)
(0 1.0838646e-19 0)
(0 2.009825e-20 0)
(0 -1.1850829e-19 0)
(0 1.7350082e-19 0)
(0 1.1048613e-20 1.270006e-19)
(0 1.7189227e-19 0)
(0 2.7183752e-19 0)
(0 2.4619283e-19 0)
(0.004524561 -0.0029843332 -0.0065249132)
(0.0055151398 -0.0038672401 -0.004503897)
(0.0065875393 -0.0040602312 -0.0023640679)
(0.007027059 -0.0042777082 -0.00063663548)
(0.0068162954 -0.0039709189 0.0011432589)
(0.0064754496 -0.0041682676 0.0030154157)
(0.0053406997 -0.0027915595 0.0051320145)
(0.0089814362 -0.015536348 -0.010360503)
(0.01105527 -0.017167012 -0.0058788717)
(0.011947227 -0.016096028 -0.0028041525)
(0.01215639 -0.015636597 -0.00025911212)
(0.012269356 -0.016497798 0.0022101912)
(0.011123232 -0.016306726 0.0052222798)
(0.0098987488 -0.016241664 0.009096015)
(0.013183093 -0.021382733 -0.010978321)
(0.015825461 -0.020449279 -0.0078560107)
(0.017468257 -0.02135016 -0.0037013535)
(0.017723727 -0.021328512 -0.00064328725)
(0.017581411 -0.020876982 0.0030439187)
(0.016292631 -0.021030018 0.0057831716)
(0.014524398 -0.022037825 0.010534836)
(0.021136968 -0.030777309 -0.010762076)
(0.023226508 -0.031338559 -0.0076062573)
(0.024585571 -0.031063849 -0.0036426954)
(0.025106254 -0.031017847 -0.00061472782)
(0.024857333 -0.03107284 0.0029130409)
(0.023656588 -0.031653295 0.0066511122)
(0.021473303 -0.031088817 0.0099945296)
(0.030126934 -0.038128181 -0.010865354)
(0.032537089 -0.038046971 -0.0076795345)
(0.034261862 -0.038348572 -0.0039764459)
(0.034657293 -0.038283204 -0.00045882027)
(0.034471509 -0.038521726 0.0030479957)
(0.03326908 -0.038430121 0.0063157401)
(0.031337647 -0.038779125 0.010257138)
(0.041351916 -0.045891486 -0.01009918)
(0.043377309 -0.046071332 -0.0071763125)
(0.044804574 -0.04603156 -0.003546284)
(0.045287532 -0.046317917 -0.00060783524)
(0.045043831 -0.046169561 0.0030065655)
(0.043881942 -0.04633664 0.0063340699)
(0.041877991 -0.046175055 0.0095118197)
(0.054175305 -0.053045759 -0.009752784)
(0.056227404 -0.053294191 -0.0066676179)
(0.057671151 -0.053789902 -0.0034964792)
(0.058163211 -0.05383746 -0.00043729154)
(0.057989307 -0.05411052 0.0029377666)
(0.056904247 -0.054329003 0.0058789748)
(0.055169362 -0.054227629 0.009305452)
(0.068545836 -0.060357981 -0.0090011537)
(0.070508909 -0.060881686 -0.0064123704)
(0.071846202 -0.060996272 -0.003134141)
(0.072299781 -0.06119634 -0.00030512948)
(0.072035565 -0.061153634 0.0026919651)
(0.071109316 -0.061090101 0.0058013013)
(0.069277989 -0.060847341 0.0086580752)
(0.084640722 -0.067487794 -0.0085442415)
(0.086441215 -0.067784596 -0.005716681)
(0.087691007 -0.068210185 -0.0029104144)
(0.088108998 -0.0684698 -0.00024138498)
(0.087983083 -0.068810354 0.0026961003)
(0.087058985 -0.06877076 0.0054434498)
(0.085470839 -0.068837255 0.0084207365)
(0.10195009 -0.074317731 -0.0078517531)
(0.10371379 -0.074948121 -0.0054407704)
(0.10489703 -0.075226621 -0.0027533898)
(0.10543624 -0.075637225 2.3276858e-05)
(0.10516773 -0.075539433 0.0026358243)
(0.10434666 -0.075518829 0.0053111796)
(0.10281397 -0.075289091 0.0079277388)
(0.12084429 -0.081314215 -0.0072756731)
(0.12242943 -0.081772473 -0.0049383431)
(0.12362439 -0.08221229 -0.0022201931)
(0.12396241 -0.082302944 1.9642637e-05)
(0.12386597 -0.082641903 0.0026610124)
(0.12305455 -0.082655552 0.0050298171)
(0.12160331 -0.082699552 0.0077488973)
(0.14086304 -0.087919411 -0.0067717686)
(0.14249768 -0.08852949 -0.0044079722)
(0.14348179 -0.08895031 -0.0022084956)
(0.1439609 -0.089439414 0.000199756)
(0.14382056 -0.089556532 0.0026097622)
(0.14300965 -0.089459645 0.0048518953)
(0.14183822 -0.089474861 0.0073570191)
(0.16227376 -0.094753839 -0.0061384703)
(0.16363931 -0.095223683 -0.0039996629)
(0.16468073 -0.095749214 -0.0018030021)
(0.16510931 -0.095888128 0.00038188625)
(0.16499069 -0.096108124 0.002624207)
(0.164251 -0.096267705 0.0047395627)
(0.16310376 -0.09614882 0.0070098649)
(0.18469222 -0.10119971 -0.0056086373)
(0.18602219 -0.10179253 -0.0035480797)
(0.1870958 -0.10231329 -0.0015773308)
(0.18740186 -0.1026734 0.00049590652)
(0.18735786 -0.10304159 0.0026313892)
(0.18668119 -0.10302946 0.0045345529)
(0.18569027 -0.10304445 0.0067836392)
(0.20822389 -0.10779603 -0.0050258287)
(0.20954262 -0.10835802 -0.0030608295)
(0.21045357 -0.10884059 -0.0012655463)
(0.21082182 -0.10916935 0.00077744256)
(0.21080455 -0.10938614 0.0026282387)
(0.21018571 -0.10947197 0.00454414)
(0.20924912 -0.10948717 0.0065440556)
(0.2328353 -0.11416954 -0.0044184665)
(0.23402289 -0.11473893 -0.002611589)
(0.23492565 -0.11530675 -0.000905909)
(0.23529555 -0.11569101 0.000904646)
(0.23524908 -0.11603984 0.0027529698)
(0.2346994 -0.1161846 0.0044548987)
(0.23384599 -0.11621634 0.0063966327)
(0.25831736 -0.12052918 -0.003819326)
(0.25948308 -0.12114047 -0.002083078)
(0.26033103 -0.12170676 -0.00056523712)
(0.26066134 -0.12204412 0.001231642)
(0.26067428 -0.1224054 0.002870633)
(0.26016987 -0.12249945 0.0045035155)
(0.25938258 -0.12262189 0.006298311)
(0.2847644 -0.1268193 -0.0031530368)
(0.28584913 -0.12745665 -0.0016043698)
(0.28664154 -0.12802496 -0.0001160359)
(0.28698267 -0.12846169 0.0014955612)
(0.28697482 -0.12883114 0.0030398389)
(0.28651333 -0.12903569 0.0045796541)
(0.28578764 -0.12913922 0.0062563246)
(0.31201264 -0.1330727 -0.0025173319)
(0.31301745 -0.13368452 -0.0010328042)
(0.31380083 -0.13431442 0.00032632861)
(0.31408126 -0.13470698 0.0018395933)
(0.31412044 -0.13513185 0.0032904401)
(0.31369146 -0.13530945 0.0047190237)
(0.31302615 -0.13552493 0.0062727446)
(0.34004223 -0.13925701 -0.0018134728)
(0.34101253 -0.13992295 -0.00045694031)
(0.34171671 -0.14054279 0.00080155213)
(0.34200898 -0.14102596 0.0022268878)
(0.34204411 -0.14143781 0.0035536902)
(0.34163773 -0.14172398 0.0049025212)
(0.34103511 -0.14190537 0.0063534095)
(0.3688195 -0.14543449 -0.0011205293)
(0.36969577 -0.14607967 0.00013650398)
(0.37038419 -0.14675793 0.0013290437)
(0.37064883 -0.14720426 0.0026381632)
(0.37069024 -0.14768479 0.0038860194)
(0.3703258 -0.14795004 0.0051408639)
(0.36976247 -0.14822026 0.006488361)
(0.39825893 -0.15155773 -0.0003966179)
(0.39909398 -0.15224745 0.00077891656)
(0.39973263 -0.15290987 0.0018717854)
(0.39997873 -0.15343509 0.0030930956)
(0.40003139 -0.15390074 0.0042544951)
(0.39967588 -0.1542518 0.0054215604)
(0.39916772 -0.1545271 0.0066815969)
(0.42834312 -0.15768325 0.00034925835)
(0.42911382 -0.15835207 0.0014303888)
(0.42971364 -0.159065 0.002445011)
(0.42995438 -0.1595752 0.0035800971)
(0.4299972 -0.16011174 0.0046627551)
(0.42968408 -0.16047369 0.0057408368)
(0.42921404 -0.16079403 0.0069187969)
(0.45902504 -0.16375264 0.0011183387)
(0.45974446 -0.16448338 0.002108323)
(0.46030574 -0.16517075 0.003041013)
(0.4605225 -0.16575799 0.0041044763)
(0.46058012 -0.16626849 0.0050978152)
(0.46028334 -0.16666405 0.0061105676)
(0.45983904 -0.16701597 0.0072089628)