/*--------------------------------*- C++ -*----------------------------------*\
  =========                 |
  \\      /  F ield         | OpenFOAM: The Open Source CFD Toolbox
   \\    /   O peration     | Website:  https://openfoam.org
    \\  /    A nd           | Version:  6
     \\/     M anipulation  |
\*---------------------------------------------------------------------------*/
FoamFile
{
    version     2.0;
    format      ascii;
    class       pointScalarField;
    location    "0.71";
    object      E;
}
// * * * * * * * * * * * * * * * * * * * * * * * * * * * * * * * * * * * * * //

dimensions      [1 -1 -2 0 0 0 0];

internalField   nonuniform List<scalar> 
28033
(
61787.003
52901.001
24061.966
13260.63
66235.54
63344.629
15063.242
23820.01
35200.996
24552.076
16313.242
11141.346
6369.81
3748.5507
2130.6587
1667.3726
2654.6065
4625.142
8200.5659
13652.41
20729.448
29235.709
46299.804
21401.814
17825.451
17152.494
17146.314
17600.386
18637.291
19251.16
20658.439
21753.297
22557.248
23596.753
23665.942
23623.767
23054.143
21096.468
47431.964
29274.815
27508.735
26606.099
26756.87
26414.617
26127.609
25529.223
24968.042
24109.526
23353.336
22377.435
21482.71
20427.977
19443.712
18305.858
17283.569
16262.548
15226.878
14148.395
13273.771
12256.559
11466.323
10626.557
9812.2859
9215.2232
8394.546
7841.0582
7053.112
6498.9916
5841.6739
5117.7261
4447.6985
3842.8759
3260.8499
2894.3523
2304.7858
1951.9141
1527.9303
1083.9066
655.2091
280.33882
-143.55203
-488.57338
-804.36053
-999.32079
-1175.9116
-1193.7532
-1224.1538
-1136.2401
-1088.7048
-996.44115
-950.24712
-903.99776
-881.54393
-853.14135
-821.6713
-770.40686
-709.59977
-637.67498
-588.97003
-538.04561
-581.37353
-555.14321
-603.13742
-676.71935
-708.21878
-689.4683
-558.60436
-333.00857
-115.99388
264.46037
611.52918
1080.7645
1524.2052
2032.7066
2513.3043
3108.6594
3623.9861
4237.689
4913.6659
5545.9677
6322.1468
6948.2687
7763.8944
8389.5473
9262.1636
9894.5026
10862.773
11499.084
12612.839
13179.02
14557.057
15312.124
19779.818
42234.896
22287.9
27205.007
24000.044
24452.174
24006.236
23175.601
22738.04
22054.04
21120.835
20412.57
19346.683
18449.226
17385.428
16340.827
15281.634
14220.438
13103.063
12146.326
11319.474
10284.43
9637.3555
8756.6163
8206.8941
7457.5349
6890.3904
6208.93
5584.955
4899.5812
4287.3223
3520.2015
2986.9797
2422.9298
1898.5274
1418.2157
1005.9243
684.97331
241.82188
-9.6460946
-200.86745
-407.72123
-512.6852
-593.3406
-600.10177
-573.67116
-463.50611
-309.17412
-81.598637
206.65882
540.79457
926.18423
1327.3625
1739.0121
2144.5623
2528.1356
2895.2878
3255.2871
3619.0113
4013.5943
4459.8757
4969.3458
5554.0333
6196.5738
6907.362
7628.7528
8344.7898
9099.7891
9804.724
10467.689
11088.71
11746.835
12268.76
13018.687
13564.415
14248.09
14882.363
15467.751
16129.019
16628.548
17208.5
17662.248
18134.106
18550.139
18964.018
19317.44
19676
19954.127
20210.345
20378.644
20511.374
20538.186
20516.679
20436.518
20328.147
18501.992
41446.941
27405.003
18601.18
14293.024
7680.4118
4638.0571
2933.3642
2343.2524
3406.9774
6584.9971
9900.0365
16250.145
23966.251
34700.994
45881.001
80149.252
35594.514
17991.464
28861.833
24559.862
25196.035
24931.825
23864.782
23807.378
22599.968
22092.054
20616.253
20251.986
18488.011
17950.116
16342.156
15986.977
13242.046
13553.169
11227.828
10743.67
10392.39
9660.1313
8790.1644
7646.4214
7067.6252
6583.454
5385.4803
5372.3279
3594.0134
3054.1608
2410.6283
1852.9326
1551.2551
816.00657
1834.5194
486.70994
826.89323
544.7887
355.07242
152.19026
-61.314584
-231.01185
-334.14941
-345.17435
-250.84349
-59.644062
214.67608
527.98921
856.22309
1148.182
1401.1022
1597.7473
1763.6703
1939.9855
2162.171
2477.9319
2924.5963
3493.5079
4192.2999
4964.6329
5775.3203
6569.6227
7291.3403
7938.2731
8484.2797
8933.3301
9022.7623
10178.582
10087.657
10633.49
10977.082
11456.827
11993.516
12465.519
12931.834
13377.256
13800.838
14178.987
14597.974
14983.723
15413.154
15809.727
16227.637
16568.337
16899.377
17101.008
17271.439
17296.145
17299.394
17189.833
17098.271
16968.792
16792.691
19356.112
22478.984
22306.059
23186.245
23796.951
23833.596
22676.041
22514.199
19409.66
19895.498
18893.149
18032.166
16855.722
17852.268
17176.303
20243.163
19941.08
19437.86
19749.759
18783.421
18047.235
17221.393
16391.417
15558.018
14669.419
13827.767
12942.289
12120.63
11297.502
10466.607
9699.3987
8943.1139
8201.7553
7499.622
6807.6715
6167.4414
5551.9137
4994.2196
4456.7225
3990.2721
3616.2181
3124.7606
3172.4165
1594.2137
2305.6981
1643.5688
1407.7329
1079.3619
747.29317
459.11942
180.1162
-59.678603
-272.53001
-450.24933
-600.142
-724.48626
-832.92542
-925.03045
-1010.1797
-1084.5808
-1147.9177
-1192.2532
-1207.4232
-1194.0229
-1117.6574
-1007.746
-839.95853
-604.62603
-358.26332
-17.203778
267.53495
699.48966
1026.6377
1807.2416
1446.8331
2269.0478
3185.6795
2987.3365
3778.9896
4460.1254
5566.4008
5993.5293
6741.1595
7324.5925
7974.2848
9056.7535
9933.1184
10549.51
10966.212
12529.067
12842.676
13883.19
14894.491
15970.398
17118.388
17983.079
19609.728
20463.675
21670.89
22453.904
24413.817
24148.412
25482.984
26102.393
27034.287
26195.542
26813.486
28217.259
29051.939
25268.761
51598.313
39488.731
39090.626
37726.996
37902.447
38675.214
39261.251
39085.75
39500.77
39521.813
39365.617
38108.66
37363.163
38089.588
38849.113
42720.823
36568.102
38461.038
37149.965
39600.855
39483.158
39028.934
41789.113
44547.846
43040.143
42877.183
40711.262
39123.688
38305.679
37150.085
41288.115
14161.843
14065.335
14071.266
13998.772
13860.767
13785.497
13734.02
13706.633
13736.088
13742.96
13796.358
13897.593
14026.812
13923.196
14771.698
24481.482
24003.769
24124.136
23777.179
24020.483
23946.827
23941.797
23947.427
23992.087
24035.793
24142.553
24165.714
24251.019
24223.732
24451.094
33815.026
25100.228
22747.043
21980.277
21659.058
21511.756
21336.206
21080.773
20601.345
20210.701
19357.663
18763.923
17819.874
17172.221
16164.854
15532.492
14694.618
13948.091
13153.2
12415.135
11629.658
10743.447
9991.1023
9066.1997
8293.2967
7484.9377
6738.1006
6097.7121
5551.9115
5071.2095
4634.7222
4375.5347
4120.7225
3905.5188
3687.7994
3303.5725
3068.2217
2690.8354
2443.5739
2056.3913
1803.6367
1468.8307
1265.285
1037.8421
798.62614
591.43937
344.4858
117.32277
-151.26562
-380.25132
-603.5976
-737.46422
-788.07905
-703.07308
-489.05
-144.08148
296.81443
801.66734
1316.9409
1805.4325
2229.2332
2590.3817
2864.5556
3096.1279
3237.8162
3427.6756
3821.8519
4281.5885
4557.8934
4692.4537
5026.0657
5277.9968
5547.6058
5868.4946
6242.1051
6671.8453
7228.8256
7826.5539
8583.5287
9363.0304
10283.717
11167.952
12216.96
13002.106
13927.176
14817.982
15573.478
16293.543
16971.526
17561.975
18201.684
18733.932
19447.109
19906.691
21873.732
21351.432
17597.422
17605.887
16702.346
16702.943
16384.058
16228.36
16065.458
15765.189
15469.669
14980.011
14632.796
14021.636
13528.571
12870.285
12392.621
11701.608
11161.722
10564.039
9970.2292
9355.3012
8778.0259
8170.3276
7576.0932
6967.6195
6429.9552
5864.3233
5375.1572
4900.7351
4504.3773
4174.2776
3843.7421
3550.3492
3249.5401
3035.4023
2775.4522
2592.5175
2358.6023
2065.6495
1822.8564
1565.8976
1347.8692
1133.2134
947.55209
787.01113
694.44187
583.23628
511.76945
435.88131
378.81307
334.10228
332.6158
374.26011
486.07526
663.01947
909.82186
1204.1538
1533.1347
1864.0639
2183.9644
2472.5723
2734.7359
2952.0668
3152.8186
3388.6331
3655.2362
4668.4878
6551.0801
7156.2434
7610.9592
8120.9294
8497.4656
8926.8397
9436.7805
9960.378
10552.541
11184.651
11860.507
12591.394
13278.401
14068.527
14706.219
15546.075
14872.437
14032.535
14633.391
15367.538
15865.914
16614.456
17080.871
17737.962
18171.485
18956.635
18951.099
20810.417
13579.649
11055.878
12403.877
12002.471
12248.928
11881.965
11900.018
11741.305
11571.566
11380.143
11096.331
10838.658
10399.455
10084.824
9612.4711
9241.8208
8752.8457
8382.8036
7908.0957
7503.7883
7095.0238
6641.4284
6230.2863
5756.1985
5340.441
4882.6666
4469.4118
4068.3646
3730.0676
3413.1414
3147.8804
2933.0818
2786.0522
2637.7295
2529.5633
2368.7068
2193.4189
1983.0928
1856.1571
1640.3632
1476.6202
1318.8356
1158.9603
1119.5036
1079.2696
1044.3652
1013.8706
992.45552
955.83594
922.80343
917.13548
942.45097
1036.0319
1196.224
1435.3697
1736.2959
2084.2532
2450.5828
2812.1916
3151.3464
3450.5476
3721.3084
3946.0989
4184.267
4360.1746
4742.7463
3776.4995
6062.45
6463.7974
6916.5495
7316.4366
7599.4859
8016.2217
8453.3961
8943.8953
9441.8256
10001.355
10554.647
11164.589
11734.836
12388.565
12939.531
13550.407
14252.637
13749.368
14215.628
14735.635
15331.607
15930.359
16434.863
17065.904
17525.143
18324.698
18491.265
20229.928
8482.258
6852.9186
7664.2669
8068.2285
8236.2321
8316.6781
8292.638
8303.5235
8116.7245
8126.2613
7868.7438
7792.4831
7471.8566
7339.8489
6945.8288
6752.7707
6373.7913
6113.4329
5762.3883
5484.3525
5149.3986
4866.7332
4551.2695
4268.9916
3957.3366
3659.9769
3364.7375
3083.9778
2808.383
2591.9907
2406.0919
2265.9174
2153.7458
2064.0968
2021.8109
1891.5528
1871.2158
1841.6807
1624.8721
1547.2483
1414.7321
1351.6112
1275.158
1238.4651
1209.0165
1229.6556
1274.3859
1342.1142
1420.1871
1523.6397
1645.807
1796.7155
1985.1139
2208.8839
2471.444
2765.2283
3081.2304
3407.7551
3737.1396
4056.5783
4364.8016
4661.915
4930.0425
5222.328
5440.2003
5729.6615
6258.4579
5271.6122
5360.509
5644.9519
6184.4196
6464.8093
6493.5198
6678.6934
7116.9359
7540.0086
8013.9423
8509.7958
9068.1124
9616.2103
10240.89
10796.349
11518.528
12021.706
13609.646
14350.338
15081.122
15513.285
16215.235
16658.885
17343.486
17743.948
18696.653
18495.118
20050.222
5286.0891
3545.1716
4588.303
4663.0005
5229.8717
5191.7863
5414.0066
5319.1006
5379.6524
5327.6892
5260.5433
5180.858
5021.4672
4897.2734
4661.3709
4525.9535
4253.4961
4108.9873
3874.2666
3714.581
3525.5753
3360.558
3175.8852
2984.8179
2768.3604
2553.5022
2337.4231
2116.7618
1954.3305
1806.7867
1707.2613
1650.335
1628.6129
1630.7868
1625.7892
1589.3172
1672.4329
1453.4577
1244.8648
1134.0421
1121.6913
1097.5128
1110.1241
1188.1754
1277.9512
1384.5916
1493.6381
1605.3295
1728.6064
1869.1999
2039.224
2245.5138
2503.1104
2800.6843
3144.9077
3515.1904
3907.4839
4301.5679
4690.2464
5069.5857
5425.7705
5770.6196
6101.7752
6417.1829
6723.9504
7030.3372
7339.9604
7670.5542
7897.3878
8242.919
8715.7362
8589.9923
8925.8492
8642.3759
8751.6986
9057.1789
9462.9224
9909.7309
10378.864
10881.936
11399.242
11948.284
12485.166
13064.955
13611.917
14215.117
14733.913
15280.932
15864.088
16417.033
17022.273
17638.022
18519.096
18480.285
20004.939
2974.5157
1724.6302
2272.5171
2449.1479
2778.7774
2988.0438
3048.4439
3214.057
3190.091
3320.86
3230.124
3309.347
3158.8757
3169.9296
2972.6991
2914.519
2723.1675
2639.8789
2474.1216
2407.7177
2273.1191
2207.8804
2081.8194
1986.7258
1846.1525
1733.0939
1558.0707
1448.9576
1309.3361
1223.8592
1166.6245
1149.9579
1159.0709
1184.2887
1199.9707
1231.6409
1185.8834
1571.3699
1394.2464
1451.8945
1394.71
1421.3114
1428.6676
1505.4647
1556.4717
1631.6172
1706.8966
1803.2915
1908.8136
2038.1371
2189.6847
2373.9178
2583.3044
2821.1162
3074.534
3339.0823
3602.7425
3854.9449
4099.555
4318.0128
4519.3571
4715.5445
4878.9334
5029.9266
5208.4956
5331.1278
5495.9841
5609.4076
5827.7625
5978.2051
6208.4392
6095.1808
6240.1572
7528.3631
7674.9674
7916.1867
8304.218
8744.4281
9232.3494
9714.8598
10296.06
10795.906
11477.647
11981.42
12739.041
13265.131
14101.59
14667.151
15557.317
16129.942
17036.619
17622.785
18754.844
18730.75
20071.509
1699.1858
299.83021
839.43421
731.75727
1153.4632
1234.891
1512.9209
1576.7163
1762.6861
1799.605
1876.6063
1868.1188
1837.4574
1773.0445
1664.0548
1602.4168
1486.5502
1447.6158
1380.892
1372.6098
1324.8364
1321.3007
1235.4507
1182.4753
1066.9429
945.07629
824.17466
727.93271
645.9186
634.38618
639.97986
696.15387
759.637
819.19602
879.62936
902.64525
907.19613
796.53843
961.47488
944.84006
917.42649
963.44164
1002.7633
1092.8637
1189.4321
1308.8343
1442.1527
1564.0241
1695.4014
1821.3378
1963.1133
2112.8874
2289.3839
2486.268
2710.5292
2951.7722
3208.3577
3466.5782
3720.6446
3955.7453
4183.0952
4381.405
4555.0022
4748.4723
4883.532
5070.3508
5198.6359
5404.5841
5561.4289
5751.6054
5955.0987
6225.2937
6389.2031
7515.1743
8106.957
8382.2546
8770.2586
9178.1795
9640.56
10127.33
10669.611
11235.954
11845.086
12462.932
13139.65
13770.99
14471.585
15123.433
15837.639
16478.611
17210.969
17915.647
18999.651
18877.837
20404.618
1238.8865
31.923991
256.70718
273.41716
444.6863
681.10674
773.68395
974.25033
1052.6765
1204.7026
1211.1061
1315.7224
1244.9642
1264.1043
1183.397
1153.2784
1082.0068
1073.4485
1020.7685
1034.5802
969.83949
966.23239
888.11272
874.1122
724.6745
689.93473
561.14664
518.32587
460.33691
460.52824
464.66947
514.2699
547.99256
607.30843
657.32642
657.57791
692.69653
705.11871
716.04881
733.36205
753.83754
823.90835
902.44736
1008.4498
1114.2042
1255.1945
1382.6077
1533.4833
1681.2078
1847.3769
2016.8452
2207.9709
2408.6634
2628.7453
2856.1799
3092.8003
3331.2867
3561.4459
3786.0867
3998.4262
4198.8046
4379.9777
4567.0461
4726.3857
4893.5365
5042.5978
5215.52
5375.39
5527.8836
5711.7873
5883.1987
6106.1681
6339.1743
6499.9267
6707.4474
7066.5896
7436.4874
7901.2787
8385.1447
8917.8053
9512.9176
10105.183
10802.91
11449.784
12242.897
12939.539
13819.935
14544.941
15470.094
16238.675
17217.744
18015.695
19169.813
19212.692
20752.698
1495.4846
48.806315
271.81601
122.63658
342.96865
490.20189
739.48952
843.43642
1067.1464
1085.8693
1171.9705
1100.216
1044.64
916.90321
825.68744
716.29999
675.32181
631.04175
643.66123
657.33935
664.40797
688.68272
597.87648
499.94165
368.82463
292.9339
156.43671
134.698
84.484159
125.40899
168.99664
250.22762
322.4525
411.35678
414.71027
497.16798
471.98119
501.51112
474.57438
503.63205
528.83747
592.14616
685.51232
790.27467
940.45797
1085.9635
1250.3748
1408.0617
1574.1868
1731.6362
1898.9062
2065.7503
2245.8447
2436.305
2638.9596
2856.4139
3080.4381
3305.5054
3537.007
3752.5385
3958.3941
4160.1765
4334.969
4513.829
4669.7557
4855.5065
5005.9685
5181.6832
5369.9087
5593.1877
5810.0367
6078.4416
6334.0612
6732.8629
7055.2295
7042.0381
7522.6384
7947.8465
8450.8373
8992.7954
9585.77
10232.393
10917.377
11654.699
12416.664
13212.867
14004.224
14848.703
15634.936
16510.226
17279.182
18123.218
19201.165
19211.02
21282.109
3217.8978
1550.9945
1804.0251
1681.4839
1876.9826
2001.8114
2105.0416
2166.39
2254.3682
2309.5114
2256.5951
2260.7693
2158.6992
2065.6501
1982.0824
1848.085
1783.639
1661.9042
1588.4788
1473.9304
1397.3851
1267.0329
1069.134
965.45464
820.41358
725.68969
611.94355
580.63755
522.36593
539.96013
525.13829
561.80655
579.13697
573.37109
640.50987
611.75246
649.13685
651.77931
686.03745
737.1206
789.93063
873.78093
953.24015
1061.4878
1156.1795
1274.8116
1383.6255
1509.9127
1630.8856
1766.0733
1902.3857
2049.9399
2204.3294
2366.6364
2534.1498
2708.9045
2880.9196
3057.1563
3234.9251
3396.6604
3575.2042
3734.1665
3889.1601
4049.8169
4197.7676
4342.1227
4483.7873
4643.6958
4803.3675
4964.7613
5137.9012
5366.4636
5589.2425
6105.8802
5113.9633
3277.2973
3603.1182
4008.2127
4470.9065
5031.3954
5636.6142
6341.9487
7104.2314
7932.3841
8832.1719
9758.2041
10765.42
11776.694
12852.537
13955.384
15089.243
16310.762
17621.216
18327.847
21749.467
3698.7259
2725.1194
2792.3072
2855.1148
3047.9523
3201.9421
3256.6902
3345.5756
3394.9358
3344.0077
3222.2016
3108.9943
2933.8793
2762.2872
2652.7504
2467.9223
2453.8692
2264.752
2255.5559
2062.9764
2020.8242
1737.0624
1465.8527
1246.4328
1032.8268
859.65773
695.90499
576.21609
468.40864
413.256
374.47178
387.49155
341.77709
419.10114
352.9255
393.82426
369.79099
387.82312
385.11877
396.45774
429.28815
460.70176
535.35203
604.08844
708.41018
808.37724
924.9679
1028.5743
1139.7517
1236.1141
1331.9807
1420.9995
1513.1707
1608.9974
1717.785
1843.5219
1985.228
2155.2441
2333.6624
2536.1162
2747.4688
2960.345
3172.3021
3405.0469
3594.095
3831.9725
4032.7606
4262.2914
4475.4402
4720.6884
4995.6486
5262.9199
5572.4702
6048.8212
8274.5207
4921.4366
5454.727
5940.2642
6456.3325
7034.2401
7701.3736
8439.5011
9254.1849
10135.607
11068.006
12056.159
13055.765
14109.086
15117.893
16226.211
17244.063
18327.687
19514.373
20287.573
23244.501
9631.0095
5791.092
6486.9934
6441.2168
6632.8004
6519.9043
6639.7471
6539.747
6487.38
6342.8556
6160.3797
5919.3554
5689.9678
5375.8619
5126.0715
4823.579
4562.4063
4248.1354
4008.4374
3697.6573
3395.6044
3141.8666
3045.0239
2855.3598
2534.6673
2316.8514
2148.6467
2013.8915
1914.2454
1844.9047
1799.4503
1733.0398
1721.8104
1660.6267
1641.5994
1607.1611
1556.5572
1515.097
1453.1182
1424.5821
1366.4634
1355.4538
1324.6959
1337.0243
1344.338
1388.6499
1442.2988
1522.7742
1619.2919
1730.9788
1854.0318
1984.9269
2121.4638
2258.5425
2400.139
2541.6632
2689.1592
2838.3085
2995.1312
3155.8236
3316.794
3479.819
3626.2494
3782.0173
3881.8352
4034.1541
4106.5199
4218.9803
4329.8353
4485.9842
4624.7367
4822.2371
5113.3256
5307.8235
5570.9244
6959.8809
7543.5423
8135.0588
8686.0222
9327.6887
10010.536
10750.756
11518.229
12339.278
13159.108
13997.181
14821.398
15634.858
16410.794
17252.656
17970.891
18876.987
19869.982
20546.347
23847.841
15192.971
11724.818
11674.046
11205.755
10902.08
10633.615
10616.441
10216.696
10149.189
9687.6393
9357.7771
8869.8955
8351.6895
7815.836
7319.6366
6750.2917
6317.4909
5791.9874
5441.0161
4955.1593
4645.3069
4183.8361
4032.2086
3750.2397
3402.2171
3018.7658
2751.541
2414.599
2149.8888
1908.6911
1669.8372
1523.9467
1313.3905
1233.1837
1061.5614
966.40489
860.89653
766.91448
698.9357
613.47558
578.55065
526.24294
514.58931
500.81551
508.93792
513.18785
524.62553
516.39721
503.88131
467.51083
418.92719
360.50935
302.34463
259.91125
248.08786
286.43272
378.29522
542.85518
766.63282
1052.2444
1375.7647
1731.3388
2073.5765
2438.7061
2711.2445
3055.0598
3226.8854
3521.4294
3725.9814
3920.5948
4101.6841
4399.4623
4501.92
4882.4094
5107.4927
5511.6512
5852.5497
6309.0768
6801.1189
7430.9974
8119.2987
8934.3832
9816.7869
10791.878
11784.784
12834.277
13858.68
14893.594
15898.971
16885.216
17831.086
18798.489
19714.095
20617.703
23644.351
22842.649
17392.22
16731.245
15554.967
15761.123
15366.244
15210.014
15000.74
14743.866
14262.543
13837.41
13199.166
12620.803
11942.542
11285.46
10601.953
10008.31
9315.0517
8822.1406
8197.2183
7730.918
7191.1883
6666.3612
6244.0036
5797.3316
5385.408
5013.4065
4594.1731
4261.5532
3861.0163
3564.5188
3239.6314
2967.5363
2766.6959
2498.384
2323.4607
2134.6333
1952.064
1757.5674
1601.4622
1409.1679
1262.5876
1106.2673
995.95082
899.67178
849.49003
823.48946
825.21128
844.07037
863.90538
879.93126
882.13795
874.8816
859.35672
856.22971
873.51029
930.6168
1035.2103
1190.7975
1388.8651
1613.7475
1848.6401
2071.391
2270.697
2412.8655
2581.326
2609.5246
2783.3411
2816.1705
2927.9807
3137.0634
3266.8344
3597.0523
3853.2799
4198.9219
4599.3032
5050.8737
5555.8839
6121.0844
6802.0954
7515.9672
8364.5706
9243.6602
10209.799
11184.4
12196.226
13182.133
14166.026
15114.119
16048.514
16961.342
17912.57
18864.649
20144.551
23293.873
28113.09
21420.694
20380.639
19622.663
20195.62
19547.244
19589.178
19185.915
18629.41
17988.945
17133.698
16362.873
15504.074
14669.971
13948.369
13145.123
12549.185
11736.146
11103.357
10212.824
9567.9529
8549.4088
7923.1671
6954.881
6330.9858
5661.7465
5153.7944
4803.6529
4531.1856
4420.3891
4247.8014
4173.353
4023.9604
3913.4491
3623.1916
3459.5556
3140.1743
2853.1825
2545.4702
2202.4135
1911.733
1607.3138
1331.6305
1054.6602
781.26454
499.77363
214.84524
-64.916849
-321.84773
-524.48468
-653.04238
-665.09242
-554.01809
-304.46545
67.795518
541.28847
1062.0244
1601.3129
2093.9781
2517.2185
2837.3437
3068.378
3201.5084
3266.598
3316.9243
3349.7925
3333.7816
3512.717
3467.8367
3776.9661
3818.123
4178.4456
4347.4166
4765.9466
5158.8638
5748.0427
6404.1461
7209.43
8170.6997
9208.953
10332.855
11505.153
12665.825
13824.308
14918.514
15972.579
16953.899
17898.951
18802.675
19668.122
20575.065
21437.193
22324.558
23423.383
24407.923
21348.515
20402.586
17142.732
16596.822
16255.82
16306.648
15987.94
16217.089
16276.513
16397.865
16254.336
16180.939
17644.99
18767.465
23351.524
14825.986
12247.198
10535.216
10551.443
9795.5813
9784.5528
9441.8997
9637.0935
9827.9205
9708.7333
9847.2979
10156.058
10887.123
12470.191
15536.428
9365.1126
7243.8865
5236.9857
4980.4712
4466.4001
4341.3298
4312.4878
4179.0735
4228.8084
4287.285
4509.0065
4686.4392
5416.7674
7086.2503
9532.9249
5940.0239
4662.3955
3595.2722
3092.8098
2965.5022
2783.321
2764.2808
2667.0501
2802.8909
2837.2041
3010.0074
3167.4568
3960.0035
5016.6415
6234.9944
3377.6433
2532.5258
1600.553
1395.302
1155.5041
1100.6261
1049.2733
1021.7646
1036.0926
1094.3393
1174.1009
1418.8982
1845.7161
2480.1366
3848.7439
2403.4951
1510.5269
960.75186
816.02936
680.20005
643.46192
594.78121
601.55433
614.77095
629.36663
737.73352
801.40516
1061.877
1589.8869
2491.5042
1091.7106
580.46308
302.99013
132.86499
89.888935
17.078823
7.8261074
-17.093178
-2.6867193
18.645555
64.054502
183.963
339.65621
736.44176
1471.0806
1012.5012
528.54718
240.79022
162.07919
81.092041
54.863909
30.512177
33.018577
45.697838
44.536628
105.5424
171.95594
300.6914
606.43965
1329.3315
1149.2015
588.90357
246.7497
118.67897
19.890653
-26.764495
-52.628379
-40.229395
-46.333097
38.317446
53.511365
191.40507
358.85836
824.17674
1399.9599
2495.2195
1725.5297
1028.1359
853.41784
647.11843
600.68139
546.25891
537.66199
547.1617
538.4789
721.98158
732.22889
1139.4104
1810.8072
2860.8992
3495.9096
2554.7888
1518.0969
1288.9039
948.70756
920.60486
796.49769
858.05163
844.83488
964.67734
1106.3406
1401.8305
1956.0737
2910.2693
4106.6953
6572.5755
4467.1618
3354.5654
2815.8747
2445.596
2188.263
2143.3078
2083.6409
2161.3244
2210.3092
2526.4691
2596.4417
3550.7761
4864.2103
6844.3214
9269.2916
7528.2555
5498.8422
4934.6369
4249.1123
4204.7203
3914.4723
4142.9383
4134.59
4089.9528
4531.9355
4751.4245
5748.0909
7828.01
9227.4898
15527.936
12476.031
10196.428
9357.0517
8635.9048
8305.2975
8554.362
8733.7258
8552.9425
8514.8095
8654.4702
9100.6747
10161.951
11840.948
16386.509
20827.485
21880.55
16761.922
16381.135
15335.566
14300.344
15384.86
16316.953
14964.093
15991.804
15458.752
16009.602
17261.494
19711.36
24108.542
52790.9
45993.258
45164.009
46919.952
47896.266
47177.788
49883.455
52968.31
53217.98
52751.077
51092.334
48551.287
48043.575
48959.999
46970.142
39535.908
34129.742
33345.222
32852.365
30750.108
32897.724
32123.166
32244.613
34651.944
32155.326
32897.973
31706.781
34114.428
36180.901
41204.801
29175.49
30027
28339.963
27530.551
28698.23
25427.771
25318.466
25602.867
23612.882
26819.922
26409.493
29888.83
30018.11
29653.531
31030.504
27073.508
30388.377
29984.226
28355.378
27910.272
27602.404
27272.03
27564.485
27690.434
27481.686
28667.451
29403.083
30255.667
30665.026
28596.918
27436.26
28909.875
28717.35
30081.671
28983.238
28829.543
28965.443
28645.33
29025.122
30228.758
29659.631
30508.275
29660.184
29102.227
27788.778
24998.294
27682.268
28008.454
28290.712
28274.282
28146.19
27924.196
27891.429
28094.517
27924.305
28605.582
28601.547
28376.935
27918.578
25810.093
24932.179
26747.453
27339.93
27795.957
27991.179
28124.183
28283.856
28241.155
28448.345
28634.181
28336.419
28392.235
27733.615
26585.612
25783.747
24043.39
25131.72
26039.299
26577.589
27056.138
26969.044
27040.016
27234.661
27026.912
27292.365
27105.604
26869.184
26314.184
24967.278
24286.215
23111.074
24374.167
25100.812
25749.483
25776.444
26175.759
26239.21
26290.96
26377.186
26177.826
26072.485
25653.094
25153.52
24417.58
23553.397
22593.417
23081.885
23922.836
24213.213
24661.892
24727.419
24866.8
24885.293
24738.371
25001.566
24521.617
24624.182
23886.513
23304.026
23122.1
21583.806
22197.703
22745.515
23236.722
23500.25
23799.203
23900.987
23993.835
24111.06
23752.94
24034.809
23410.509
23243.313
22655.719
22179.711
20990.521
20991.642
21561.678
21831.128
22118.391
22198.569
22301.094
22319.254
22267.475
22259.821
22003.354
21944.629
21504.856
21080.499
21442.123
19851.965
19965.28
20271.155
20624.103
20863.287
21036.837
21243.891
21208.977
21420.365
21280.333
21287.028
21056.977
20806.122
20551.559
20404.472
18707.785
18627.082
19147.9
19202.014
19469.871
19568.839
19682.14
19568.845
19583.211
19498.1
19365.405
19296.161
19024.991
18661.087
19283.739
17501.344
17319.665
17753.859
17976.51
18236.103
18225.202
18413.859
18265.693
18506
18430.139
18495.758
18327.917
18124.645
18040.471
18124.734
16165.919
16103.467
16493.851
16540.484
16661.405
16881.221
16941.907
16850.384
16807.97
16732.513
16592.024
16554.478
16486.078
16254.86
16663.296
14904.672
14685.324
14950.423
15047.733
15474.131
15360.985
15582.458
15463.777
15678.385
15559.262
15686.4
15598.877
15257.654
15050.625
15730.035
13670.423
13722.504
14006.851
14132.015
13996.398
14188.908
14068.887
14297.882
14222.89
14192.475
14076.678
13886.185
13989.237
13769.088
13772.94
12724.581
12494.642
12885.328
12759.479
13136.258
12990.138
13389.153
12981.465
13161.987
13085.924
12836.328
13035.444
13012.8
12806.046
13480.693
11656.047
11636.901
11657.282
11855.937
11865.567
11898.237
12053.496
12032.529
12065.456
11933.621
12318.588
11954.399
11726.26
11741.745
11895.397
10891.983
10822.802
11068.159
10978.663
11071.386
10998.146
11163.697
11072.638
11133.241
10993.339
11026.252
10990.606
11471.535
10774.669
11443.102
10235.826
10102.734
10108.46
10201.546
10175.068
10296.479
10218.302
10307.155
10076.704
10603.263
10302.41
10378.67
9831.3654
9772.8023
10959.678
9745.7139
9365.0311
9593.051
9422.6942
9564.3401
9653.3457
9549.6575
9379.6222
9611.8056
9425.142
9159.5897
9301.2749
9369.8805
9231.3091
10475.577
9047.7644
8900.1123
8777.9022
8808.9153
8779.1568
8573.1385
8780.996
8651.7959
8721.1218
8598.0996
8740.8258
8833.9148
8878.643
8448.4252
10210.455
8819.9928
8146.3911
8117.9141
7877.8762
8104.1938
7960.1808
8135.2213
7955.8936
8062.0597
7954.9479
8243.5183
8076.119
7857.8538
7816.449
9440.2213
7915.5697
7327.1233
7518.2161
7323.0227
7415.3299
7359.7963
7312.8339
7198.2959
7276.0098
7191.7722
7181.4917
7363.1876
7566.3576
7389.1273
8415.7503
7370.9893
6628.2519
6735.6207
6486.9644
6789.0111
6473.4359
6554.9814
6471.9877
6546.7109
6469.1129
6588.3993
6093.0691
6456.8833
6032.3286
8007.5198
6382.3671
5829.3758
5879.6368
5865.0464
5594.3082
5643.6401
5691.1465
5592.102
5695.7512
5617.2474
5706.471
5895.024
5745.0852
5751.2354
6592.3545
5722.7763
5057.838
4906.8059
4841.5135
4908.3351
4883.6017
4884.2357
4816.8964
4819.037
4808.8433
4794.4744
4918.3676
4687.1095
4485.3116
6168.5231
4512.4373
4087.1555
4271.1604
4138.9177
4194.4084
4266.0426
4055.7849
4052.3689
3846.969
3950.6925
3890.8041
3848.5158
4252.0373
3755.2745
4589.1994
3995.2496
3598.8495
3683.2055
3436.4484
3588.7532
3105.4666
3430.2846
3205.4944
3669.343
3226.8201
3284.9942
3177.3508
3133.6975
2973.2563
3707.6582
3216.866
2732.6284
2847.2482
2705.2293
2739.4096
2727.6976
2754.1207
2687.2584
2613.1391
2544.1615
2606.0537
2540.3674
2547.0186
2457.7793
2865.5649
2416.6572
2130.0145
2269.7207
2135.6875
2247.5305
2108.2738
2225.7129
2012.8879
2161.1283
2007.1132
2119.8541
1960.8092
2033.1257
1895.9667
2058.175
1847.2936
1654.1678
1788.6999
1693.3109
1784.7158
1673.0174
1746.528
1655.6143
1722.879
1619.1052
1658.7951
1586.0477
1603.7688
1464.3039
1546.9702
1352.5523
1257.935
1398.6839
1626.2566
1383.7836
1327.8806
1411.0944
1320.2932
1367.7231
1322.3386
1369.665
1273.8013
1308.6865
1237.6974
1237.3759
1218.0951
1006.0944
1200.0276
892.13238
1175.9104
1080.0287
1134.5108
1039.7152
1164.4647
729.81361
1121.2103
967.99327
1046.3236
934.29656
982.71456
549.84938
793.93382
946.09691
911.34264
941.04405
833.49002
929.99828
800.05776
842.02416
1019.3215
836.86416
811.49829
751.06953
728.87349
702.95491
604.43976
719.71459
784.75525
754.80556
741.46114
712.66487
718.57398
637.48971
727.92029
519.35718
659.44312
524.81137
668.31706
552.07354
413.11554
496.05036
450.73429
602.43512
477.08358
604.37216
444.2646
552.32012
418.50839
464.45034
412.68743
415.89056
414.56916
395.69921
290.75493
342.49537
291.49918
338.18798
406.16449
373.34431
370.25223
290.79376
334.85223
203.02947
296.66503
146.29445
262.10401
123.24393
172.96881
108.76606
120.66635
185.42901
175.37466
251.24807
142.96899
206.46486
75.691412
131.47725
23.503371
46.176994
-14.364352
-10.387689
-62.209232
-50.498606
-146.15927
-38.079825
38.749125
50.106914
40.470852
-6.9477356
9.5398105
-108.99684
-42.25686
-200.14022
-118.61929
-248.18227
-205.10822
-262.14265
-294.41044
-341.21368
-171.13059
-45.347136
-87.148349
-83.602589
-156.53071
-139.87108
-243.75643
-216.91047
-320.27682
-296.74063
-384.19129
-367.95317
-420.22909
-461.04805
-501.7635
-235.72116
-101.71342
-134.19078
-176.0758
-241.27187
-219.84288
-345.59286
-284.97554
-420.55419
-381.20265
-468.47636
-472.50683
-493.23734
-553.60771
-588.22333
-175.8182
-38.778257
-127.56632
-175.44623
-225.32752
-231.24092
-326.52936
-294.76466
-405.47896
-381.42052
-459.62561
-467.17056
-472.91234
-538.62579
-578.59662
27.491141
119.63393
-16.758734
-64.633709
-132.60751
-129.22739
-239.3141
-196.37272
-307.35869
-290.95033
-348.93715
-370.92187
-354.04327
-406.09247
-469.84909
382.02827
403.0636
196.83516
129.57291
78.523393
60.975052
-36.492329
-7.2484301
-110.88922
-98.220579
-147.9785
-176.8238
-135.57263
-170.66733
-271.79504
864.43994
800.61605
484.73771
429.18765
362.4404
328.78521
218.03948
242.64511
150.43917
152.69696
117.17251
90.090928
145.886
143.52789
-0.94697984
1435.7484
1256.8098
839.60803
767.70369
693.75525
641.46128
540.62739
559.29135
469.4849
459.25172
436.98661
401.34247
468.62144
499.13382
301.13062
2018.2166
1755.5488
1207.3564
1131.0332
1048.8564
980.20722
861.49507
857.45006
771.92328
755.02718
741.52163
708.94024
782.10857
849.2207
602.9886
2555.068
2207.4612
1551.5521
1469.3029
1374.8813
1277.7998
1164.2747
1162.2953
1091.4251
1056.3602
1051.5173
1008.8643
1078.04
1164.8702
877.95093
2971.5533
2586.804
1849.0029
1761.6002
1655.9494
1555.1134
1442.06
1417.8372
1338.2536
1292.2953
1292.8091
1250.5502
1311.4025
1416.0176
1107.227
3236.26
2844.9539
2069.0934
1985.2643
1885.9573
1769.6865
1656.9036
1628.3376
1577.4873
1521.9779
1528.9924