/*--------------------------------*- C++ -*----------------------------------*\
  =========                 |
  \\      /  F ield         | OpenFOAM: The Open Source CFD Toolbox
   \\    /   O peration     | Website:  https://openfoam.org
    \\  /    A nd           | Version:  6
     \\/     M anipulation  |
\*---------------------------------------------------------------------------*/
FoamFile
{
    version     2.0;
    format      ascii;
    class       pointVectorField;
    location    "0.71";
    object      lm;
}
// * * * * * * * * * * * * * * * * * * * * * * * * * * * * * * * * * * * * * //

dimensions      [1 -2 -1 0 0 0 0];

internalField   nonuniform List<vector> 
28033
(
(-1.780536e-14 4.8656612e-16 1.3104288e-15)
(-5.4375576e-15 3.3318594e-15 9.9433006e-16)
(-6938.8336 536.41849 1.2634209)
(-6462.6873 2850.6317 -15.128245)
(-1.338461e-14 3.0090723e-15 -2.870051e-16)
(-1.2587315e-14 4.9008913e-15 -4.4266115e-15)
(-6483.5445 2783.7463 33.455625)
(-6955.1476 511.95961 -54.514492)
(-5.6329745e-15 1.0535579e-15 6.7193838e-16)
(-2.4534443e-15 3.0423504e-16 5.8836893e-16)
(-5.4923298e-15 2.4302826e-15 8.9528572e-16)
(-2.6209443e-15 -1.1537891e-15 -6.7979696e-16)
(-7.2548563e-15 1.5542294e-15 1.0013199e-15)
(-4.7613589e-15 -9.2108094e-16 -7.3952737e-16)
(-1.132389e-15 -2.2256662e-17 -6.4484848e-16)
(-7.4239857e-16 -2.4218299e-16 -3.6669977e-16)
(-1.1196198e-15 4.5550132e-16 8.383863e-16)
(-2.3465882e-16 2.2667819e-16 1.4996246e-15)
(-4.0583243e-15 -8.7236639e-16 -1.3429605e-15)
(-5.8237189e-15 8.4462789e-16 7.5519031e-16)
(-5.1611762e-15 1.0100276e-15 9.7613867e-16)
(-1.7679952e-15 -8.1010255e-16 4.5192313e-16)
(-4.4158752e-15 1.0299569e-15 -9.452958e-16)
(-6793.4652 657.98688 -7.0513465)
(-6606.046 771.42461 -14.003952)
(-6460.2248 887.14214 -18.980547)
(-6371.6074 1010.7358 -20.661716)
(-6348.3823 1145.8186 -21.263034)
(-6388.3374 1296.7587 -19.245039)
(-6479.0712 1464.4355 -16.909888)
(-6600.6669 1646.7415 -13.357262)
(-6728.508 1838.9785 -9.0365803)
(-6838.2776 2033.1701 -5.0150222)
(-6906.8366 2220.5626 -1.751545)
(-6920.0658 2391.6308 -0.29272893)
(-6870.7182 2539.935 -1.214091)
(-6761.6498 2661.1785 -3.9500963)
(-6611.3666 2759.1099 -9.1945008)
(0.23652177 -0.92131502 -2.9825003)
(-3.9227246 -3.5672698 -1.885868)
(-8.8043484 -5.0636504 0.09497427)
(-12.742205 -5.5431157 1.8668773)
(-15.123841 -6.1640014 1.8117984)
(-14.832032 -6.9796271 0.12053705)
(-11.511337 -9.0471705 -4.1235617)
(-5.1010981 -12.820523 -10.796698)
(4.1283129 -18.900584 -19.997214)
(15.492192 -27.89147 -31.429721)
(27.724499 -40.290829 -44.884885)
(39.651526 -55.811729 -59.269965)
(49.844872 -74.88011 -74.474774)
(56.633506 -97.111747 -89.225797)
(58.320855 -122.22596 -103.01061)
(53.270845 -149.2417 -114.46672)
(40.74582 -177.55028 -123.66642)
(19.253538 -206.45193 -129.44303)
(-11.40086 -234.76466 -131.46994)
(-51.890484 -261.57858 -129.41562)
(-101.5908 -286.22012 -123.64661)
(-160.0451 -307.42941 -113.69832)
(-226.29547 -325.17172 -100.61939)
(-298.99943 -338.41135 -84.546972)
(-376.15295 -347.04906 -66.197274)
(-456.4667 -351.52989 -46.879491)
(-537.57252 -351.28671 -27.182074)
(-617.99576 -347.05027 -8.104678)
(-695.39168 -339.48038 9.3843049)
(-768.57265 -329.22621 24.289899)
(-836.10108 -316.91299 36.013943)
(-896.82066 -303.89075 44.071791)
(-950.69548 -290.73447 48.108241)
(-997.37097 -278.49544 48.276924)
(-1037.1968 -267.74813 44.050915)
(-1071.1703 -259.47436 36.348833)
(-1100.0574 -253.81821 25.794054)
(-1125.5482 -251.30036 12.683139)
(-1149.3367 -252.41449 -2.1538917)
(-1172.8156 -256.3936 -17.506455)
(-1198.1674 -263.54535 -32.832554)
(-1226.8648 -273.34845 -47.185884)
(-1260.5317 -285.24232 -59.796241)
(-1300.5771 -298.6533 -70.073137)
(-1348.0737 -312.75512 -77.486307)
(-1403.7952 -326.83849 -81.767597)
(-1468.0866 -340.12458 -82.74544)
(-1541.0688 -351.90792 -80.480714)
(-1622.3606 -361.53319 -75.197964)
(-1711.4002 -368.45701 -67.260147)
(-1807.2264 -372.25581 -57.178571)
(-1908.7336 -372.66063 -45.553555)
(-2014.5867 -369.54198 -33.061015)
(-2123.3892 -362.95049 -20.405958)
(-2233.6935 -353.06951 -8.2937628)
(-2344.1028 -340.25034 2.6050275)
(-2453.3263 -324.95425 11.68475)
(-2560.2514 -307.76901 18.439309)
(-2663.9834 -289.3441 22.467022)
(-2763.9104 -270.38894 23.51634)
(-2859.718 -251.62208 21.465176)
(-2951.4319 -233.7247 16.366268)
(-3039.3462 -217.35873 8.4151037)
(-3124.2357 -202.93758 -2.0168447)
(-3206.8819 -191.00654 -14.594779)
(-3288.6276 -181.80129 -28.227031)
(-3370.8773 -174.9959 -42.842557)
(-3454.9863 -171.07075 -57.155568)
(-3542.6943 -169.03476 -70.955968)
(-3635.3957 -168.77098 -82.678566)
(-3734.4703 -169.29444 -91.88473)
(-3841.0297 -170.02679 -98.242881)
(-3955.816 -169.88946 -100.96378)
(-4079.2228 -168.08814 -99.894978)
(-4211.2352 -163.69356 -94.89044)
(-4351.3137 -155.94656 -86.118082)
(-4498.5735 -144.17604 -73.959819)
(-4651.5875 -127.8887 -58.997225)
(-4808.7478 -106.83178 -42.00441)
(-4968.0879 -80.977006 -23.871825)
(-5127.4631 -50.463687 -5.5813064)
(-5284.9572 -15.700988 11.933366)
(-5438.532 22.80323 27.756116)
(-5586.2879 64.042796 41.118604)
(-5727.474 107.36695 51.322528)
(-5860.4621 152.09547 58.214222)
(-5985.3172 197.00635 61.345794)
(-6101.8166 241.41458 61.395133)
(-6210.6664 284.63381 57.982773)
(-6312.7607 325.90808 52.895862)
(-6409.7218 365.5903 44.974603)
(-6501.9763 401.7023 37.465638)
(-6592.6312 437.65359 27.885977)
(-6681.2608 469.61041 20.267573)
(-6772.6878 500.72153 10.887853)
(-18.548379 37.085593 38.377811)
(-35.127902 49.238196 39.265872)
(-52.49261 61.279788 43.426508)
(-59.807627 70.196384 44.703505)
(-65.226002 78.722427 47.403982)
(-63.587971 87.135351 51.809963)
(-56.882866 95.665858 57.721777)
(-45.041213 105.64684 66.173626)
(-28.331697 116.73067 76.341035)
(-7.962148 130.15943 88.751281)
(14.8806 146.00955 102.18222)
(38.595554 165.12556 116.48774)
(61.185826 187.23348 130.76372)
(81.27677 213.01509 144.10633)
(96.634719 242.03775 156.0374)
(105.79729 274.49207 165.51954)
(107.45063 309.81894 172.06171)
(99.922923 347.42087 175.21925)
(82.999293 387.01949 174.74613)
(56.276755 427.34091 170.42481)
(19.486138 467.94689 162.46703)
(-26.335312 507.95463 151.34523)
(-80.567065 546.11061 137.07786)
(-141.86934 582.42415 120.83332)
(-208.90612 615.38387 102.98364)
(-279.3497 644.7895 84.455524)
(-351.99477 670.26227 66.175044)
(-424.47046 691.57713 48.74836)
(-495.44107 708.70036 32.970974)
(-562.95686 721.97858 19.631896)
(-625.72842 731.77633 9.0862613)
(-683.13076 738.6622 1.738226)
(-734.08748 743.43166 -2.2015021)
(-778.42606 746.81052 -2.5944378)
(-816.17033 749.86996 0.4369461)
(-847.95946 753.38556 6.3965066)
(-874.25726 758.61746 15.422739)
(-896.40024 765.79779 26.499785)
(-915.80556 776.312 39.21627)
(-933.75144 790.42669 52.946945)
(-951.87745 808.66207 67.033027)
(-971.86473 831.31246 80.781584)
(-995.16828 858.44137 93.577333)
(-1023.2455 889.95413 104.86926)
(-1057.2624 925.56675 114.18538)
(-1098.2039 964.84637 121.16637)
(-1146.7243 1007.227 125.57126)
(-1203.2119 1052.0393 127.27523)
(-1267.7224 1098.5614 126.28272)
(-1340.0265 1146.0318 122.70726)
(-1419.609 1193.7158 116.77406)
(-1505.7093 1240.9151 108.79953)
(-1597.3619 1287.0209 99.181467)
(-1693.4383 1331.5286 88.380859)
(-1792.7085 1374.066 76.905282)
(-1893.8882 1414.4052 65.29246)
(-1995.7025 1452.4745 54.087919)
(-2096.9454 1488.3518 43.827687)
(-2196.5303 1522.2662 35.01756)
(-2293.5539 1554.5809 28.103601)
(-2387.3382 1585.7724 23.457972)
(-2477.4781 1616.4078 21.353999)
(-2563.8649 1647.1201 21.932163)
(-2646.7266 1678.5671 25.204654)
(-2726.6031 1711.4013 31.026609)
(-2804.3416 1746.2228 39.087788)
(-2881.0657 1783.5845 48.943457)
(-2958.3024 1823.8147 60.012329)
(-3037.1038 1867.5495 71.565857)
(-3119.5907 1914.3101 82.747962)
(-3207.469 1964.5966 92.926065)
(-3301.4809 2017.6565 101.19554)
(-3403.3568 2073.4065 106.88148)
(-3513.9194 2130.9703 109.36313)
(-3633.6184 2189.7017 108.25721)
(-3762.5964 2248.627 103.32573)
(-3900.4182 2306.7974 94.623359)
(-4046.2733 2363.2424 82.390837)
(-4198.8444 2417.0069 67.093135)
(-4356.5271 2467.2929 49.423917)
(-4517.3991 2513.4177 30.20262)
(-4679.4496 2554.9231 10.34729)
(-4840.582 2591.5863 -9.1660834)
(-4998.8444 2623.4049 -27.402946)
(-5152.4822 2650.6568 -43.504607)
(-5300.0859 2673.7969 -56.751677)
(-5440.6273 2693.5033 -66.616651)
(-5573.579 2710.5505 -72.771173)
(-5698.8474 2725.808 -75.129534)
(-5816.8403 2740.1416 -73.818195)
(-5928.3567 2754.3128 -69.166182)
(-6034.5339 2769.0027 -61.630041)
(-6136.6657 2784.6786 -51.919239)
(-6236.19 2801.1897 -40.48171)
(-6344.0309 2823.3457 -28.020105)
(3.2927448e-15 -1.3239155e-15 2.3845803e-16)
(2.4470133e-15 -9.6672015e-16 3.215493e-17)
(-9.0574249e-15 9.0550918e-16 6.4029168e-16)
(-1.2642219e-16 -5.721845e-16 4.4370095e-16)
(-7.6811722e-15 -4.9270561e-16 4.1193361e-16)
(-7.3893964e-15 2.7533729e-15 -1.0951501e-15)
(-3.2915852e-15 -8.1743692e-16 3.8364228e-16)
(-1.9032499e-15 5.3200654e-16 -8.2319016e-17)
(-4.7409759e-15 -4.8623412e-16 4.3918642e-16)
(-1.2869644e-14 1.1845665e-15 6.4228907e-16)
(-9.6157521e-15 1.4157374e-15 5.9836601e-16)
(-9.4077204e-15 4.9518432e-16 1.1192419e-15)
(-5.982767e-15 2.6210694e-16 3.0473736e-16)
(-1.1478475e-14 -5.3386198e-16 1.6580808e-15)
(-5.257323e-15 3.6289085e-16 2.8600704e-16)
(-20.093333 13.483001 -23.667602)
(-30.019788 38.629128 -28.18443)
(-42.003865 41.944231 -25.994031)
(-50.881391 51.140719 -27.958344)
(-55.48577 55.909192 -28.008213)
(-53.070578 62.223865 -30.582317)
(-47.546092 69.782044 -36.194163)
(-34.272285 76.010467 -43.279798)
(-17.785186 87.243811 -55.168426)
(3.4798126 97.223106 -68.222033)
(26.974355 110.05718 -82.962596)
(52.023755 128.52511 -99.599871)
(74.554398 145.2377 -115.7206)
(96.224696 169.90672 -131.06744)
(110.49763 193.52713 -144.24679)
(119.63188 221.76146 -154.35337)
(121.02931 254.08558 -160.3822)
(110.76417 286.62927 -163.03706)
(93.072359 322.23498 -159.33762)
(62.315075 358.85419 -151.96832)
(22.58254 394.84112 -139.58209)
(-26.728636 431.62551 -122.4058)
(-84.338193 468.04295 -102.64096)
(-149.6699 501.21583 -79.789528)
(-220.07721 532.26717 -55.560761)
(-294.04169 561.46498 -30.988492)
(-369.91152 584.69286 -7.1614789)
(-443.81346 607.77596 15.30182)
(-516.80777 623.91424 34.01006)
(-583.77634 638.00344 49.93009)
(-647.21535 648.65475 61.097664)
(-703.11589 656.43766 67.567273)
(-752.48396 661.93442 69.245513)
(-794.58341 666.11245 66.04464)
(-830.77573 669.89875 58.998824)
(-857.55719 673.7837 46.907409)
(-882.22708 677.26075 32.367361)
(-901.92516 684.39502 15.585247)
(-919.41155 693.66298 -2.6338507)
(-936.10593 706.27282 -21.07159)
(-953.92032 722.81258 -38.862991)
(-974.49593 743.5456 -55.038137)
(-999.4032 768.70517 -68.821141)
(-1030.0596 798.28529 -79.566269)
(-1067.5679 832.12193 -86.833854)
(-1112.7693 869.8717 -90.363982)
(-1166.1559 911.06284 -90.13249)
(-1227.8854 955.08125 -86.291622)
(-1297.7809 1001.2422 -79.196207)
(-1375.3575 1048.7962 -69.341291)
(-1459.8514 1096.9816 -57.361688)
(-1550.2722 1145.0559 -43.965384)
(-1645.4507 1192.3362 -29.922613)
(-1744.1027 1238.2222 -16.005109)
(-1844.8826 1282.2389 -2.969974)
(-1946.4602 1324.043 8.4929613)
(-2047.5618 1363.4512 17.771593)
(-2147.053 1400.443 24.373398)
(-2243.9712 1435.162 27.937311)
(-2337.5928 1467.9129 28.251676)
(-2427.4575 1499.145 25.269034)
(-2513.4186 1529.4261 19.112503)
(-2595.6368 1559.4365 10.063934)
(-2674.6136 1589.8919 -1.4089287)
(-2751.1343 1621.5627 -14.746278)
(-2826.3716 1655.1523 -29.219291)
(-2901.4044 1691.6729 -43.930833)
(-2980.0818 1730.7462 -58.059915)
(-3056.6414 1773.5541 -70.256462)
(-3142.8392 1820.3178 -81.294302)
(-3232.6564 1870.7476 -88.618225)
(-3330.9928 1924.7239 -92.223149)
(-3437.5109 1982.0882 -91.932304)
(-3553.2395 2041.8218 -87.260063)
(-3678.3957 2103.3191 -78.392342)
(-3812.7072 2165.5148 -65.583328)
(-3955.5012 2227.3579 -49.367466)
(-4105.6424 2287.7465 -30.510804)
(-4261.5937 2345.589 -9.9223063)
(-4421.5382 2399.9109 11.362852)
(-4583.4379 2449.882 32.263823)
(-4745.1964 2494.8739 51.739145)
(-4904.7547 2534.5097 68.838912)
(-5060.2448 2568.6698 82.789159)
(-5210.0763 2597.5081 93.035298)
(-5353.0658 2621.4333 99.289143)
(-5488.4576 2641.0805 101.53956)
(-5616.0128 2657.2644 100.06103)
(-5735.9353 2670.9214 95.365536)
(-5848.9122 2683.0483 88.18348)
(-5955.9286 2694.6077 79.339634)
(-6058.27 2706.5068 69.716827)
(-6157.2524 2719.3976 60.091729)
(-6254.0546 2733.8853 50.838407)
(-6337.9474 2744.8623 42.312481)
(-6638.1936 2697.7497 23.099919)
(-6802.5527 2606.7736 13.553586)
(-6894.291 2482.7917 5.6710557)
(-6940.1659 2336.8918 -1.0331781)
(-6921.896 2169.5488 -5.2995459)
(-6846.8097 1985.253 -8.975654)
(-6736.8819 1796.9395 -10.431333)
(-6625.9498 1613.8228 -12.216979)
(-6483.0029 1431.1499 -13.356019)
(-6385.1208 1265.0122 -14.99251)
(-6362.8592 1120.1206 -16.925106)
(-6392.3905 987.25603 -20.781807)
(-6483.183 864.55808 -25.813625)
(-6638.3258 749.11563 -33.028109)
(-6846.852 636.74087 -43.594975)
(-6798.861 477.03227 -64.327035)
(-6724.5745 448.09422 -73.610226)
(-6635.8644 416.86787 -82.539673)
(-6545.1993 383.35044 -90.475319)
(-6451.3323 347.01776 -95.800782)
(-6353.2727 307.78029 -99.311451)
(-6249.2262 265.47163 -99.536763)
(-6138.2354 220.40388 -96.470954)
(-6019.4058 173.14546 -89.924462)
(-5892.4015 124.27678 -79.683981)
(-5757.1617 74.989286 -66.322446)
(-5614.3942 25.972079 -50.023696)
(-5464.9483 -21.340915 -31.618458)
(-5310.3296 -66.073522 -11.69634)
(-5151.9712 -107.30133 8.7585167)
(-4992.1116 -144.11707 28.824675)
(-4832.6741 -175.92094 47.370768)
(-4675.6734 -202.34529 63.689787)
(-4523.0305 -223.26671 76.968189)
(-4376.3553 -238.8393 86.683299)
(-4236.931 -249.49261 92.492563)
(-4105.6304 -255.86297 94.322613)
(-3982.866 -258.79686 92.298776)
(-3868.7094 -259.23903 86.753834)
(-3762.5969 -258.13494 78.129717)
(-3663.7135 -256.57316 67.457076)
(-3572.3886 -257.0356 55.134032)
(-3483.3808 -255.23327 41.084826)
(-3399.555 -258.98362 28.164538)
(-3316.7807 -263.82781 15.970043)
(-3234.633 -271.92457 5.0782156)
(-3151.3958 -283.03606 -3.684776)
(-3065.9828 -297.00675 -9.9609961)
(-2977.4691 -313.53051 -13.454289)
(-2885.2237 -332.09567 -14.049084)
(-2788.9499 -352.0492 -11.77464)
(-2688.6716 -372.62837 -6.8056407)
(-2584.7321 -393.02356 0.55252146)
(-2477.7666 -412.39688 9.8944703)
(-2368.6666 -429.95519 20.732549)
(-2258.5358 -444.96381 32.523593)
(-2148.6276 -456.81381 44.69883)
(-2040.2905 -465.02475 56.688102)
(-1934.8947 -469.30117 67.947682)
(-1833.774 -469.51623 77.979442)
(-1738.1499 -465.75507 86.358251)
(-1649.0863 -458.2765 92.739038)
(-1567.4155 -447.53684 96.882833)
(-1493.7094 -434.14158 98.650797)
(-1428.263 -418.83543 98.028746)
(-1370.971 -402.41217 95.074021)
(-1321.5662 -385.8883 90.085966)
(-1279.2295 -369.90006 83.170435)
(-1243.0424 -355.62928 75.027459)
(-1211.9214 -343.55497 65.756997)
(-1183.9893 -334.52856 56.145679)
(-1157.982 -328.65931 46.754913)
(-1135.5924 -328.37168 38.055719)
(-1104.7112 -328.24879 29.957921)
(-1075.5963 -333.88408 24.121235)
(-1044.172 -343.48513 20.622258)
(-1001.3175 -353.62415 18.758012)
(-956.60394 -366.43317 20.031929)
(-904.23075 -380.75526 23.758798)
(-847.61567 -395.20233 30.459784)
(-781.01461 -407.93641 38.747337)
(-712.57189 -418.33031 49.580448)
(-637.47058 -426.46323 61.350247)
(-560.5942 -430.15631 74.279095)
(-482.99477 -429.9747 87.387793)
(-405.66842 -424.93898 100.05685)
(-331.11207 -413.81145 111.6762)
(-260.7382 -398.99247 121.97702)
(-195.63817 -378.96877 129.73744)
(-137.70733 -353.90716 134.94682)
(-88.499991 -326.67702 138.05678)
(-46.910671 -295.95196 137.41719)
(-15.523213 -264.10143 134.75662)
(7.7949014 -231.69751 128.5071)
(22.467681 -199.40409 120.60216)
(29.41293 -168.9729 110.54612)
(29.896435 -140.72934 98.700735)
(25.492594 -115.65414 86.176401)
(17.646878 -93.038715 73.055336)
(6.9261969 -74.922408 60.258351)
(-3.7997819 -60.195009 48.307165)
(-13.877262 -48.621284 37.19928)
(-22.726523 -39.98069 27.957258)
(-28.640666 -33.829239 20.528782)
(-31.620672 -29.353586 15.057679)
(-31.412085 -26.214107 11.318921)
(-28.343306 -23.072122 9.2477979)
(-23.425623 -19.426754 8.2422909)
(-15.793806 -15.241684 8.3441822)
(-10.268782 -8.8375582 7.6762864)
(-6.8708141e-15 1.5083581e-15 1.9262289e-16)
(-1.2504183e-14 5.7375616e-16 8.4327435e-16)
(-8.3449101e-15 1.4891922e-15 5.3018253e-16)
(-4.9731758e-15 1.4991158e-15 6.2376313e-16)
(-3.4146159e-15 1.5624416e-15 3.1576894e-17)
(2.0582335e-15 9.3962624e-16 -5.746342e-16)
(2.2101935e-15 3.7457559e-17 -1.1841335e-16)
(2.4553765e-15 -8.5141669e-16 -9.3419562e-16)
(1.2987427e-15 1.0081898e-16 1.7950851e-15)
(-4.5074861e-15 9.063971e-16 1.0710522e-15)
(-5.2682467e-15 2.1856155e-15 1.0652666e-15)
(-7.4917339e-15 1.915055e-15 2.2418828e-16)
(-9.400838e-15 1.3708275e-15 6.2833768e-16)
(-6.2048683e-15 1.3247981e-15 5.4317906e-16)
(-6.971104e-15 1.5128103e-15 7.5678131e-16)
(-1.2693866e-14 6.2923345e-15 -2.1364834e-15)
(-5.2452578e-15 2.6791924e-15 -5.3037742e-16)
(-1.0752404e-15 9.8318743e-16 -1.0111087e-16)
(-2.7353382e-15 1.7746034e-15 7.3085398e-17)
(1.0178949e-15 -1.5450237e-16 -4.119182e-16)
(-1.4303492e-15 4.136346e-16 -3.3264033e-16)
(-1.0059749e-14 4.7133437e-15 -1.6449855e-15)
(2.9801421e-15 -1.9180379e-15 -8.3172098e-16)
(-4.79756e-15 2.8035442e-15 1.1420498e-15)
(-5.4778068e-15 3.5047253e-15 -3.934403e-16)
(-1.8117877e-15 1.1581936e-15 -9.1309836e-16)
(-3.9812639e-16 4.7407236e-16 -2.2932148e-16)
(-1.5272242e-15 1.100363e-15 -2.2557932e-16)
(-4.1024849e-15 1.9838802e-15 2.8069696e-17)
(-5.3424143e-16 2.551799e-16 -1.9455919e-16)
(-6460.4241 2836.8766 -16.675674)
(-6456.165 2824.3634 -16.646783)
(-6451.5017 2811.3352 -14.737479)
(-6446.0979 2798.0561 -11.290712)
(-6440.917 2785.1792 -6.3827034)
(-6436.6426 2772.9371 -0.31741676)
(-6433.8604 2762.2045 6.3578819)
(-6433.0805 2753.674 13.161436)
(-6434.479 2747.7172 19.619844)
(-6438.0632 2744.7092 25.356377)
(-6443.6438 2744.9028 29.781647)
(-6450.8005 2748.0029 33.023819)
(-6459.0796 2753.7372 34.51102)
(-6467.2735 2762.2382 35.169234)
(-6476.1769 2772.0598 33.797669)
(-6928.1786 543.92771 2.2179028)
(-6917.2306 549.48402 2.8120693)
(-6906.468 553.79604 2.1814832)
(-6896.7121 556.69741 0.23274624)
(-6888.2617 558.16865 -3.2149723)
(-6882.1673 558.23755 -8.1117064)
(-6878.9793 556.97324 -14.213561)
(-6879.0273 554.47808 -21.129138)
(-6882.3551 550.97165 -28.424034)
(-6888.6858 546.65466 -35.620849)
(-6897.5301 541.83078 -42.161104)
(-6908.1771 536.54139 -47.670591)
(-6919.8021 531.25288 -51.653499)
(-6931.4712 525.54409 -54.150393)
(-6943.2665 519.46142 -54.648381)
(0.84706349 0.65599009 0.22913104)
(-2.853343 -0.28671736 0.96236729)
(-7.5349773 -1.0887178 3.2349209)
(-11.536459 -2.5085263 4.1948376)
(-14.008877 -4.4272664 4.3419853)
(-13.950901 -7.2839521 2.9614745)
(-10.89592 -11.339788 -0.28970075)
(-4.8213751 -16.972653 -5.6628774)
(4.3128359 -24.348581 -12.987359)
(15.449037 -34.036632 -22.357337)
(28.327363 -45.777015 -33.291219)
(41.232973 -59.978977 -45.465618)
(53.154838 -76.388732 -58.160849)
(62.172549 -94.950756 -71.078109)
(67.116187 -114.99101 -83.164113)
(66.036804 -136.41464 -93.919338)
(57.928962 -158.59048 -102.57642)
(41.424958 -180.80798 -108.87473)
(15.597901 -202.39411 -112.00648)
(-20.011831 -222.75697 -111.76356)
(-65.318406 -241.36429 -108.1836)
(-120.19902 -257.36329 -101.10546)
(-183.90197 -270.73084 -90.874194)
(-254.99627 -280.8539 -77.92177)
(-332.40895 -287.6675 -62.731747)
(-414.07915 -291.26923 -46.210058)
(-498.07208 -291.63036 -28.925339)
(-582.36907 -289.37275 -11.875384)
(-665.04111 -284.65267 4.0378559)
(-744.16673 -278.24357 18.021481)
(-817.98309 -270.64471 29.579764)
(-885.48223 -262.64259 37.741521)
(-945.66572 -254.68674 42.469251)
(-998.13049 -247.4459 43.611211)
(-1043.0752 -241.67653 40.898759)
(-1080.8372 -237.48734 34.904861)
(-1112.6572 -235.2965 26.131374)
(-1139.9315 -235.29509 14.905854)
(-1164.2185 -237.53186 2.0800096)
(-1187.334 -241.4827 -11.49289)
(-1211.5473 -247.44519 -25.007376)
(-1238.7432 -254.65126 -37.81901)
(-1270.3286 -262.67419 -49.005008)
(-1308.3492 -271.02524 -58.06531)
(-1353.9801 -279.10118 -64.528321)
(-1408.1751 -286.33031 -68.110063)
(-1471.4472 -292.18719 -68.66838)
(-1543.9478 -296.2026 -66.302602)
(-1625.3684 -297.97495 -61.217005)
(-1715.0686 -297.22583 -53.806296)
(-1812.0334 -293.78314 -44.558434)
(-1915.0044 -287.60628 -34.069762)
(-2022.5057 -278.7697 -22.977902)
(-2132.9573 -267.47902 -11.948808)
(-2244.7405 -254.03054 -1.6278393)
(-2356.2893 -238.82533 7.384704)
(-2466.1739 -222.32169 14.572032)
(-2573.1637 -205.02861 19.514389)
(-2676.295 -187.46579 21.914544)
(-2774.921 -170.14578 21.619066)
(-2868.7369 -153.52802 18.59983)
(-2957.8049 -138.02409 13.00711)
(-3042.5452 -123.89917 5.0801278)
(-3123.7728 -111.35019 -4.7960984)
(-3202.389 -100.51044 -15.994543)
(-3280.0974 -91.047516 -28.069002)
(-3357.6953 -82.95768 -40.531507)
(-3437.5272 -75.902091 -52.230189)
(-3521.0055 -69.418627 -63.282888)
(-3609.7655 -62.913934 -71.851789)
(-3704.8153 -55.836282 -78.347065)
(-3807.3997 -47.568932 -82.075778)
(-3918.2174 -37.511061 -82.750911)
(-4037.5626 -25.152925 -80.268405)
(-4165.3011 -10.091802 -74.664755)
(-4300.8377 7.9689869 -66.187062)
(-4443.1474 29.223689 -55.247729)
(-4590.8446 53.646986 -42.388862)
(-4742.2082 81.160436 -28.27946)
(-4895.3298 111.47847 -13.639045)
(-5048.2313 144.27217 0.75134188)
(-5198.9723 179.10301 14.176335)
(-5345.4719 215.40072 26.013177)
(-5485.8197 252.53367 35.400601)
(-5620.9753 290.45859 42.528162)
(-5747.7212 328.01236 46.798648)
(-5866.3982 365.2004 48.473373)
(-5977.3903 401.54137 47.526698)
(-6080.8774 436.80445 44.379519)
(-6178.6034 470.84492 39.363302)
(-6270.8655 503.69083 33.083129)
(-6359.7448 534.90111 26.007062)
(-6446.837 565.55406 18.219541)
(-6532.4227 594.21466 10.808909)
(-6632.0322 623.29809 2.3520103)
(0.53740903 2.5849329 2.4035404)
(-2.160448 1.9202624 3.8215787)
(-6.2144956 1.7232004 5.8055951)
(-9.6768032 0.29504438 7.130821)
(-11.771277 -1.774681 7.3831057)
(-11.559479 -4.8941344 6.5603691)
(-8.6193391 -9.1762879 3.966337)
(-2.4978618 -14.8236 -0.18289297)
(6.3209028 -22.046932 -6.1656554)
(17.723238 -31.022444 -13.672144)
(30.84688 -41.747764 -22.813023)
(44.475228 -54.287525 -32.868826)
(57.486619 -68.507369 -43.912369)
(68.314574 -84.200201 -54.852778)
(75.570041 -101.10443 -65.721973)
(77.310051 -118.87257 -75.385225)
(72.449206 -136.971 -83.841733)
(59.357057 -155.02067 -90.04266)
(37.33067 -172.3673 -93.910275)
(5.2121797 -188.65199 -94.906161)
(-36.970597 -203.27346 -92.982534)
(-89.39325 -215.88288 -87.976499)
(-151.30209 -226.13391 -80.117876)
(-221.8967 -233.82959 -69.660293)
(-299.66984 -238.79575 -57.044508)
(-383.01226 -241.2913 -42.839164)
(-469.82672 -241.27313 -27.801676)
(-558.10779 -239.17746 -12.737157)
(-645.56726 -235.34262 1.7113731)
(-730.06562 -230.29284 14.696549)
(-809.83598 -224.48752 25.483027)
(-883.15477 -218.5166 33.598428)
(-948.86957 -212.85006 38.705304)
(-1006.5016 -207.94304 40.404409)
(-1055.7088 -204.23143 38.89306)
(-1096.9276 -201.81719 34.144201)
(-1131.2749 -200.92022 26.76435)
(-1159.9566 -201.59878 17.1775)
(-1184.5461 -203.63735 6.0434627)
(-1207.4102 -206.91424 -5.9220187)
(-1230.375 -211.00889 -17.74481)
(-1255.7247 -215.65886 -29.244292)
(-1285.5853 -220.25729 -38.861956)
(-1321.5108 -224.45189 -46.744611)
(-1365.1606 -227.63809 -52.25589)
(-1417.5661 -229.47161 -55.169122)
(-1479.3419 -229.53841 -55.342833)
(-1550.6596 -227.56207 -52.912625)
(-1631.2004 -223.30126 -48.08274)
(-1720.2422 -216.67926 -41.263465)
(-1816.6676 -207.67475 -32.913105)
(-1919.0772 -196.415 -23.611602)
(-2025.8479 -183.08988 -13.943518)
(-2135.2446 -168.0048 -4.5226213)
(-2245.5124 -151.50265 4.0811441)
(-2354.9709 -134.00348 11.351735)
(-2462.1102 -115.92428 16.861405)
(-2565.6579 -97.703696 20.280494)
(-2664.6565 -79.743882 21.416291)
(-2758.5012 -62.401257 20.181544)
(-2846.9693 -45.970193 16.642809)
(-2930.2483 -30.651045 10.978109)
(-3008.8801 -16.512769 3.4545157)
(-3083.7838 -3.634422 -5.4517835)
(-3156.128 8.2150938 -15.327639)
(-3227.6099 19.298117 -25.722656)
(-3298.7868 29.479787 -35.576876)
(-3382.5854 39.571222 -45.301994)
(-3463.691 50.322373 -53.55333)
(-3548.3052 61.981388 -60.147848)
(-3639.4224 74.666199 -64.641644)
(-3738.0597 89.099229 -66.853021)
(-3844.9528 105.55174 -66.540683)
(-3960.2093 124.2458 -63.687939)
(-4083.5952 145.30532 -58.409562)
(-4214.4133 168.78255 -50.967806)
(-4351.5934 194.5721 -41.749753)
(-4493.7063 222.47562 -31.204486)
(-4639.0746 252.25747 -19.912386)
(-4785.9121 283.50877 -8.4221804)
(-4932.2836 315.94629 2.656625)
(-5076.4506 349.01067 12.841344)
(-5217.2971 382.68284 21.449756)
(-5335.7014 414.94288 28.778045)
(-5450.8702 446.95211 33.70528)
(-5571.1772 479.51179 36.297583)
(-5685.987 511.50368 36.914654)
(-5794.2317 542.685 35.607591)
(-5896.3744 572.95202 32.451261)
(-5993.4918 602.46005 28.262362)
(-6086.8031 631.16928 22.498554)
(-6177.0859 658.57893 16.764033)
(-6267.0642 686.24127 9.5569727)
(-6355.9434 711.99876 3.1086953)
(-6457.5363 738.73398 -5.029079)
(0.75592958 3.3328992 4.5006896)
(-1.2360711 3.3441136 6.2643277)
(-4.9449818 3.5806201 8.7863011)
(-7.7975606 2.8456385 10.053991)
(-9.5941622 1.0776627 10.597757)
(-9.072246 -1.4848468 10.044489)
(-5.7990366 -5.2651074 8.1533158)
(0.33889249 -10.379981 4.8493171)
(9.5640083 -16.797459 0.14672836)
(21.290327 -24.800094 -6.1811546)
(34.879245 -34.15131 -13.544757)
(49.306206 -45.13295 -22.213184)
(63.491161 -57.258726 -31.282538)
(75.758701 -70.676768 -40.956408)
(84.692753 -84.86815 -50.2109)
(88.590026 -99.593558 -59.017109)
(85.976664 -114.47808 -66.515321)
(75.348957 -129.04322 -72.479467)
(55.517766 -142.90149 -76.430658)
(25.573568 -155.53405 -77.997033)
(-14.915126 -166.67366 -77.062038)
(-66.095144 -175.88414 -73.43686)
(-127.52053 -183.00833 -67.30348)
(-198.3488 -187.87463 -58.779873)
(-277.25364 -190.46528 -48.304554)
(-362.52932 -190.88955 -36.310153)
(-452.14581 -189.35725 -23.45262)
(-543.82184 -186.21177 -10.321394)
(-635.23942 -181.79253 2.324971)
(-724.11644 -176.60328 13.795239)
(-808.30402 -171.05852 23.516087)
(-885.97468 -165.64388 30.957352)
(-955.84444 -160.71553 35.656772)
(-1016.9328 -156.63418 37.556236)
(-1069.0322 -153.6289 36.47116)
(-1112.3545 -151.81772 32.661758)
(-1147.7592 -151.2656 26.500473)
(-1176.6997 -151.82615 18.372187)
(-1201.058 -153.33888 8.8316637)
(-1222.6396 -155.27744 -1.2154673)
(-1243.8785 -157.62053 -11.493914)
(-1267.0325 -159.70756 -20.897557)
(-1294.2805 -161.11006 -29.22077)
(-1327.55 -161.51922 -35.60032)
(-1368.4099 -160.50196 -40.002079)
(-1418.0107 -157.68597 -42.07409)
(-1477.0354 -152.85482 -41.796452)
(-1545.64 -145.85049 -39.274796)
(-1623.4861 -136.59559 -34.759943)
(-1709.7791 -125.14677 -28.615853)
(-1803.3345 -111.6213 -21.288525)
(-1902.655 -96.260857 -13.296646)
(-2006.0321 -79.339726 -5.1634207)
(-2111.6493 -61.225689 2.5802946)
(-2217.6908 -42.28416 9.4545954)
(-2322.4378 -22.927291 15.041624)
(-2424.3731 -3.5246975 19.00286)
(-2522.2435 15.55389 21.117334)
(-2615.1464 34.01741 21.257545)
(-2702.5461 51.619355 19.420367)
(-2784.3292 68.211728 15.714865)
(-2860.7665 83.73859 10.332128)
(-2932.5418 98.218156 3.5911595)
(-3000.6421 111.77818 -4.1280909)
(-3066.4024 124.68517 -12.518719)
(-3132.6434 137.28542 -20.869581)
(-3188.598 148.86168 -29.050496)
(-3280.3157 163.34069 -37.032031)
(-3356.1606 177.28468 -43.120153)
(-3435.6494 191.94336 -47.81107)
(-3521.503 208.22944 -50.69936)
(-3614.8442 226.13372 -51.659717)
(-3716.4682 246.01764 -50.590872)
(-3826.3912 267.89921 -47.578035)
(-3944.2367 291.80356 -42.774402)
(-4069.3394 317.5915 -36.433933)
(-4200.6421 345.10536 -28.904529)
(-4336.8242 374.05817 -20.567351)
(-4476.317 404.16462 -11.877854)
(-4617.4632 435.05738 -3.2389913)
(-4758.6131 466.43829 4.8464689)
(-4898.0267 497.92289 12.089949)
(-5034.8436 529.38092 18.072564)
(-5167.3685 560.33928 22.748474)
(-5268.3962 587.33836 24.885002)
(-5384.5016 616.57756 26.300727)
(-5500.5651 645.374 26.087222)
(-5611.7281 673.60678 24.412233)
(-5718.059 701.0935 21.613591)
(-5820.9697 728.01362 17.724397)
(-5920.8456 754.40757 13.077397)
(-6019.2303 780.02283 7.9347702)
(-6118.1485 806.00952 2.1951652)
(-6216.9427 830.77648 -3.7876651)
(-6325.7188 856.51016 -10.559207)
(0.70805553 4.9387311 6.8325956)
(-1.1872403 5.2886316 9.4330334)
(-4.1691716 6.2312511 11.994836)
(-6.6109759 5.8907824 13.581452)
(-7.842862 5.1309421 14.376016)
(-6.7646194 3.4517113 14.232647)
(-3.1433172 0.59622138 12.851601)
(3.6971033 -3.3759527 10.368668)
(13.518711 -8.5413953 6.4585339)
(25.967732 -15.110055 1.5185358)
(40.453214 -22.919399 -4.7078894)
(55.982417 -31.99667 -11.661292)
(71.224867 -42.08839 -19.451082)
(84.73916 -53.192564 -27.377815)
(94.979923 -64.7142 -35.341818)
(100.17269 -76.712496 -42.740242)
(98.760714 -88.437327 -49.291227)
(89.13464 -99.799159 -54.502073)
(70.122914 -110.15959 -58.06452)
(40.648968 -119.34108 -59.656276)
(0.21011294 -126.87961 -59.126532)
(-51.393585 -132.61635 -56.372951)
(-113.70358 -136.30701 -51.457059)
(-185.94108 -137.96823 -44.538009)
(-266.67879 -137.56498 -35.914733)
(-354.21043 -135.35974 -26.01065)
(-446.34634 -131.52359 -15.32186)
(-540.78678 -126.4649 -4.4232944)
(-635.00809 -120.54192 6.0861689)
(-726.63374 -114.22548 15.640314)
(-813.35269 -107.90988 23.710746)
(-893.29665 -101.99166 29.81491)
(-964.93402 -96.811096 33.723535)
(-1027.3565 -92.586612 35.191838)
(-1080.2045 -89.443253 34.224014)
(-1123.6928 -87.440727 31.031152)
(-1158.7653 -86.390903 25.8797)
(-1186.8019 -86.125689 19.017884)
(-1209.435 -86.328184 11.281007)
(-1229.1945 -86.995158 2.8322087)
(-1248.1751 -87.330415 -5.3054365)
(-1268.7964 -87.035515 -12.918108)
(-1293.2107 -85.764244 -19.283831)
(-1323.4711 -83.060149 -24.168608)
(-1361.115 -78.669846 -27.291264)
(-1407.2839 -72.284426 -28.479252)
(-1462.6622 -63.802649 -27.742829)
(-1527.3664 -53.161765 -25.215749)
(-1601.0279 -40.392897 -21.134815)
(-1682.8191 -25.644847 -15.834276)
(-1771.5211 -9.1245801 -9.7135216)
(-1865.6141 8.8697938 -3.208944)
(-1963.3817 28.017909 3.236995)
(-2063.015 47.933546 9.1987306)
(-2162.7236 68.260752 14.297665)
(-2260.8349 88.614004 18.216492)
(-2355.8889 108.67711 20.721304)