/*--------------------------------*- C++ -*----------------------------------*\
  =========                 |
  \\      /  F ield         | OpenFOAM: The Open Source CFD Toolbox
   \\    /   O peration     | Website:  https://openfoam.org
    \\  /    A nd           | Version:  6
     \\/     M anipulation  |
\*---------------------------------------------------------------------------*/
FoamFile
{
    version     2.0;
    format      ascii;
    class       pointScalarField;
    location    "1.63";
    object      E;
}
// * * * * * * * * * * * * * * * * * * * * * * * * * * * * * * * * * * * * * //

dimensions      [1 -1 -2 0 0 0 0];

internalField   nonuniform List<scalar> 
3969
(
31764.901
23482.79
9935.5335
9278.4061
27614.697
32830.756
9751.6156
9829.654
14102.718
6160.4641
1822.9561
850.87111
2733.7785
7779.4613
18258.211
11934.892
9623.0337
9199.6849
8567.8731
7878.5312
8489.9194
10558.125
28974.806
22535.705
21322.244
20680.456
19476.064
18451.114
16506.974
15577.045
13089.387
11914.871
10609.594
8919.2231
8019.41
6352.8297
5793.1721
4149.694
3884.4904
2750.6247
2542.5129
1755.15
1515.1129
1261.6189
1164.2026
1410.8029
1354.0083
1918.3999
2042.5636
2345.8328
2903.1795
3193.4002
3541.4366
4037.979
4337.1504
4774.166
5237.6774
5924.96
6396.8834
7064.5831
7586.85
7830.1166
8887.5922
8607.7466
10219.946
9365.8936
11259.303
9973.7372
10951.147
28384.496
14415.435
25125.174
18850.982
23053.455
19053.375
20481.741
18183.786
17338.655
16454.558
14126.109
14112.153
12355.934
11529.083
10317.766
9397.8588
9036.6415
7440.0933
7629.6786
6585.581
6421.363
6169.4875
5917.6665
6369.3814
6295.3581
7191.1856
6401.0753
7507.5834
7710.3054
7447.5523
8349.3331
8148.9943
8848.2855
8999.291
9599.7061
10276.161
10802.179
10973.706
11663.74
11895.127
12591.134
12251.824
12707.839
12307.173
12687.624
12318.946
11843.352
13281.639
5497.7996
1455.5784
2934.8369
4306.7879
9895.9279
20398.155
48566.444
38084.436
14656.299
33069.925
24832.567
25003.649
25536.708
19853.255
24244.044
14909.678
20480.743
14157.845
14026.803
13069.59
9652.4493
10943.848
7592.922
8220.3053
6844.8648
6474.8527
6230.89
5819.8301
6009.3514
5603.4312
6503.5133
6396.8138
7237.9917
7186.3791
7939.0186
8169.4908
8440.4966
8988.1778
9291.185
9736.7902
9698.569
10027.768
10837.284
10631.703
10755.666
10902.605
10562.9
10908.331
10467.567
10548.232
10325.391
9808.3516
10746.998
11918.696
7346.978
11040.883
6140.6566
10144.579
8008.4181
12348.214
12225.869
9889.103
11065.531
10210.407
9869.0074
9483.5123
9065.4871
8597.8414
8359.6722
7854.6942
7549.0892
6586.8863
6087.5027
5581.1401
5069.2151
4554.7237
4107.2297
3797.4604
3393.032
3313.9951
2923.2713
2953.0983
2551.2856
2417.3734
2281.4866
2310.403
2442.4367
2598.6248
3211.3072
3379.2148
4550.5038
4959.6726
6680.6399
6243.7712
7835.5967
8702.6988
10636.477
10918.123
12969.352
13647.513
15409.834
14916.297
18533.998
15335.687
19233.433
16713.84
31140.841
19397.221
20259.201
18755.666
19055.093
17929.583
17496.683
16001.622
15632.68
17666.516
19061.324
20383.072
21391.677
23564.002
20162.099
9372.6385
9855.7501
9740.4729
9866.6137
9841.0693
9816.0747
9806.3231
10207.837
10209.418
10212.438
10284.127
10303.658
10411.713
10429.151
19452.309
12524.555
13994.026
12395.571
11804.839
11558.827
9827.9467
9675.9208
8225.4411
7995.3169
7006.4238
6145.1832
5739.8984
4947.5841
4494.5106
4093.7897
4064.7485
3621.6481
3639.1483
3409.1677
3411.5238
3325.5595
3495.4561
3229.782
3369.7094
3476.572
3440.9185
3743.3136
4206.4009
4467.7798
4997.7441
5407.3931
5614.5226
6029.7035
6240.2027
6446.9745
6824.7342
6848.7081
7335.472
7518.8591
8063.2907
8368.0213
9083.6263
8685.2961
10289.995
9054.9876
12231.399
8259.779
5307.2831
6121.5402
5123.6742
5235.8971
5150.4798
4149.6067
4394.621
3371.9539
3194.1815
2697.4394
2440.7195
2139.2103
1584.4016
1606.3657
1380.2301
1422.1708
1199.4402
1355.9028
1415.5085
1593.6932
1995.5693
1982.894
2453.2435
2700.789
2840.9774
3026.0209
3401.4111
3389.604
3770.437
4111.6601
4273.1373
4593.7843
4823.8328
4999.4466
5302.6593
5608.9088
5603.5116
6286.3869
6171.9848
7461.8625
6980.4893
8964.1481
8071.0941
11062.588
8693.4344
13523.84
3644.6919
330.17343
2431.3703
932.53596
1558.6815
1309.7529
1646.7142
1743.8873
1668.3129
2402.0242
2050.29
2504.0124
2230.8699
2631.5729
2269.7326
2405.4683
2515.3995
2574.5981
2968.7212
2763.6246
2874.4358
2400.0488
2696.315
2673.0089
2703.5651
2744.9104
3284.1651
3266.8703
3833.6612
4287.6286
4513.953
4978.7739
5257.4219
5617.3169
6021.799
6488.1104
6973.0733
7802.7252
8706.5079
9265.5986
9634.8607
10152.184
10665.54
10208.912
11290.06
8777.6573
14268.397
1965.7425
-244.75555
861.05905
592.6722
641.29116
1067.7088
596.03538
738.89104
717.81781
252.64709
327.36543
669.42242
252.52275
913.40171
452.6852
1443.604
964.61029
1769.0875
1425.4591
1861.9824
2180.4379
3035.2508
3581.5241
3858.0385
4149.9914
4853.5157
4839.0997
5168.3377
5440.3443
5609.3785
5869.2371
6140.5351
6295.4848
6595.6339
6727.4188
6941.6916
7238.2832
7059.0115
6844.6446
6285.1405
7367.4804
6816.4665
8132.9568
7374.8497
9799.9954
8525.8022
14476.744
4293.5053
1229.4093
3167.5456
1675.0433
2187.1218
2003.8912
1622.779
1960.2866
1796.7427
1569.5171
2279.1604
1553.4058
1898.8038
1500.3676
1587.7064
1351.0037
1322.8112
1345.7244
1298.7791
1509.3018
1617.3345
1398.2404
1338.3996
1235.1127
1621.2081
1421.3412
1468.5385
1823.8375
2013.2757
2336.6951
2592.4167
3034.1852
3298.6259
3763.6234
4101.5289
4646.5903
5089.8742
5823.4165
6140.09
7970.3953
8181.1594
9185.9002
9646.6253
10432.623
11409.314
10286.359
14350.647
10048.956
6492.0272
8542.1457
7948.8446
8481.9536
8275.8451
8058.6764
7444.5677
7499.7166
6287.5428
6508.9752
5750.7513
5698.1336
5321.3374
4853.0636
4947.2582
4410.735
4531.6418
4289.0534
4137.8894
4405.518
4338.7777
4369.0281
5143.7971
5201.9331
5592.3145
5953.7512
6168.3445
6322.4377
6677.6885
6954.4907
7089.5052
7418.5233
7737.7954
7862.1355
8366.1296
8539.0396
8578.7741
9471.3396
8654.9775
8859.4748
8639.8521
9079.5601
8928.1597
9226.5846
9461.8031
12671.95
14761.793
10394.672
12776.311
11406.411
11603.687
10780.016
10223.045
8765.5048
9598.6165
6712.6127
8700.4189
5543.851
6295.3933
4506.0115
4700.4007
3686.804
3657.3411
3229.2785
2927.5924
2848.3834
2415.7096
2311.8981
2229.4099
1782.1037
958.32502
1024.92
1046.8156
1124.0579
1441.1357
1876.7071
2158.4508
2628.7037
2849.5735
3227.7379
3277.4514
3671.021
3710.4531
4647.6713
4577.2317
5466.0014
6123.792
7416.4443
8132.0019
9308.8308
10074.234
11580.234
12381.248
6949.7908
7196.9493
5083.8574
4773.782
4768.3446
5185.7048
6541.5623
3294.4768
3377.8533
2092.3943
2390.1755
2233.8118
2646.29
2874.9722
688.95294
76.095724
-606.39259
-429.34534
-599.55722
-370.69997
-9.1540219
238.34805
-166.04474
-130.00282
-119.20967
98.068552
622.77013
1269.8486
791.76946
290.67707
272.81184
268.82626
559.01742
1103.1091
2216.8174
4287.9577
2647.8826
2748.2106
2430.8911
3061.6236
3862.2981
6325.2027
8702.4557
8939.761
7442.7385
7730.8763
7973.6637
8960.9753
12772.95
33298.844
32608.488
35525.312
39007.153
39944.693
42468.692
41305.841
26833.586
28718.049
24765.803
23636.811
29834.683
29610.547
34170.69
20368.099
21900.405
25808.795
24693.474
24143.876
24453.057
29123.766
24915.984
27381.824
24717.922
26342.805
27271.347
29687.375
26411.187
22031.514
22985.65
25708.197
24959.428
25232.965
25407.423
28241.693
24037.094
22328.99
21733.257
23137.457
22493.297
23670.023
23550.389
20864.755
21018.989
23173.627
22687.863
23666.627
24410.336
25966.191
21256.741
20144.944
20067.455
19997.655
18765.614
19302.268
20070.256
19476.319
18384.036
18798.065
19054.833
21031.869
21155.443
23814.257
17299.629
16914.963
16393.183
18752.592
16298.111
16421.841
17308.999
17728.797
16273.404
17555.291
14961.707
17087.233
16521.677
18295.573
14501.817
15127.478
13636.844
15999.8
15503.158
13049.894
16080.954
15727.189
12933.828
14541.118
12249.362
12746.081
13935.494
13895.155
12543.627
12307.296
13191.742
11730.42
14384.244
11542.469
14522.865
12904.095
12004.788
11179.03
11072.869
10460.092
9998.4517
10927.488
11388.619
9373.0157
11245.264
9171.3732
11197.207
9759.1041
11709.967
9878.4453
9738.079
9562.8385
8276.698
9417.3136
7833.6606
9313.9147
9741.9446
7870.0198
9133.375
7705.4464
8941.7228
7633.5839
8852.466
8608.0391
7397.6152
8504.6922
6546.4772
8122.7665
6410.5768
8185.9522
8102.0293
6910.2225
7749.2744
6578.9447
7660.7095
6355.292
7506.0621
7878.5773
6351.013
7663.9727
5851.081
7178.158
5561.9946
7168.1808
7301.223
6303.7107
7146.6284
5751.1261
6846.181
5425.4662
6999.7267
7503.8166
6182.533
7078.6136
5751.6925
6882.9525
5595.6986
7252.4502
7281.2836
6574.0633
6987.9199
6063.6248
6769.4757
5276.5457
7049.9016
7513.0251
7306.8816
6463.2939
6764.1935
6672.6414
6113.7809
8110.3049
7927.6804
7455.0864
6811.5202
7155.3602
6532.4872
6375.0615
8360.81
8502.8933
7576.1455
7768.0625
6847.868
8232.5513
7056.5363
9345.1426
9381.1567
7679.7996
8417.9364
7289.7654
7882
6074.4476
9384.5627
8488.1882
8451.4416
7614.2821
7918.3778
7833.2518
7458.1414
9220.2911
9576.8872
7794.7111
8649.4988
7932.8732
8480.1286
7358.2211
9467.5315
8973.9103
8726.2119
8475.2149
8388.0917
8430.9496
7848.54
9470.6369
9804.7299
8732.3684
8967.8995
8645.0248
8887.9167
8248.8441
9837.2739
9764.8226
9161.6832
9228.0105
9108.4341
9182.6396
8668.731
10288.911
10354.679
9663.4761
9747.0843
9464.6506
9449.1205
9100.4477
10710.871
10653.288
10006.292
9854.0092
9837.6365
9749.7832
9549.7386
10948.799
11298.008
10561.669
10490.876
10279.705
10001.172
10680.911
11743.932
11403.378
10698.403
10600.042
10500.08
10987.09
9464.097
11928.488
11721.969
10201.502
10372.065
10126.761
10067.069
10549.741
11917.071
12095.89
11416.529
11381.677
10867.99
11020.272
10379.995
12514.276
12573.364
11474.593
11179.857
11228.03
10824.813
10738.574
12709.668
12380.623
11348.187
11430.569
10977.829
11003.047
10783.118
12316.29
12485.208
11326.992
11193.936
11166.41
10954.535
10833.94
12299.057
12104.79
11145.404
11327.575
11016.619
10838.771
10880.985
12019.641
11645.872
11163.15
10920.221
10923.75
10666.79
10974.013
11654.435
11442.297
10917.029
10876.353
10816.495
10699.248
10943.537
11350.432
10794.692
10869.505
10498.124
10705.759
10409.689
10779.021
10872.162
10537.867
10643.864
10547.88
10555.215
10720.528
10721.79
11072.14
12593.563
12566.522
12433.774
12618.321
12524.479
12497.4
12439.539
6561.4661
8564.5774
8157.4473
8274.1162
7996.3594
8378.535
7002.3285
9551.3346
10153.877
10626.793
10700.74
10629.877
10498.933
9035.0906
6284.4174
7026.3303
6854.2549
7113.7451
6525.2475
7344.9819
5232.9994
7862.4275
10214.717
10524.346
10171.539
10909.392
10380.178
8710.5078
9013.691
9348.4686
8771.8896
9172.3197
8357.1524
9039.5046
7285.5332
11263.689
11733.091
11766.023
11784.264
11706.479
11747.612
11464.909
27439.788
24990.475
22822.364
21586.868
21727.888
22384.834
20501.054
24333.677
21671.885
21839.106
21669.225
20805.781
19837.817
20545.973
24763.581
25351.915
23791.664
22612.117
23972.024
21795.564
22034.566
22184.205
21976.127
21472.268
22083.306
20307.109
18645.753
18585.191
22829.031
22152.333
22624.166
21634.453
21823.223
20305.673
19568.363
18756.885
18895.234
18180.187
17805.284
17146.157
15548.635
16035.023
19629.224
18551.758
18828.484
18542.669
18052.991
17461.653
16932.474
15643.237
15329.073
14822.759
14429.661
13998.339
13377.004
13937.025
15486.884
14846.086
15176.101
14153.264
14850.581
13045.848
14332.656
13398.988
12255.762
12224.754
11810.684
11625.819
11159.654
11641.883
11726.591
11245.793
11550.703
11072.408
11146.567
10149.856
10935.069
10623.442
9608.1914
9327.6702
9630.5401
9348.2564
9201.7174
9847.5277
9108.5374
8520.5484
8961.7124
8139.4738
8751.587
7482.8773
9073.7318
8083.487
7128.818
7003.6668
7114.4923
7157.1639
7835.7819
8185.8066
7068.17
6264.4403
6375.5675
6464.4169
7006.638
5247.4754
7538.6318
5812.5227
5073.3204
5590.2558
4538.9075
5671.592
5158.8869
5917.6258
5096.2995
4693.1432
4708.0526
4664.3995
5094.8266
4150.2165
5856.0286
4465.7273
3460.1318
4198.8136
3493.8125
4072.9946
3441.7641
4669.3281
3653.4013
3252.4793
3564.3935
2933.0823
3930.1397
2965.1145
4440.0619
3292.0186
2619.8868
2986.7823
2663.7995
3200.4257
2386.2081
3786.8423
2801.3094
2178.086
2803.442
2058.3803
2959.3879
2180.8948
3569.1201
2616.8503
2115.8549
2396.9918
1933.8398
2734.4345
1780.9548
3322.3292
2508.9838
1689.7211
2246.4653
1718.1143
2463.0654
1690.9206
3410.3174
2710.9156
1985.7453
2353.3563
1847.7127
2588.4952
1927.7734
3664.8804
2997.8891
2160.5409
2506.621
2073.9886
2828.9924
2063.7906
3965.4348
3770.7935
2416.5944
3057.5316
2438.7304
3271.6011
2512.1446
4534.6935
4062.1248
2847.5495
3345.7023
2772.2704
3599.0244
2765.5738
4831.2385
4593.6967
3252.745
3724.3774
3311.6203
4185.0441
3293.6421
5366.5284
4883.968
3422.0841
4273.9124
3488.7049
4434.6554
3485.3932
5395.826
5047.0174
4053.1506
4366.6776
3866.8502
4841.4279
3880.885
5666.6785
5498.8763
4162.1061
4781.1197
4248.1425
5230.0341
4179.3725
5882.303
5738.7248
4702.985
5160.4605
4672.7014
5492.7772
4597.1383
6118.7577
6158.7407
5092.3104
5534.3865
5032.4822
5889.9337
4997.0719
6450.9194
6594.2703
5620.455
5897.3925
5615.3982
6218.5026
5629.3144
6933.0646
7136.8313
6043.934
6430.2944
6095.8759
6545.2081
6168.7819
7117.432
7601.4918
6765.6264
6979.1425
6520.0057
7144.9457
6773.0814
7769.6682
8094.9492
7184.4096
6963.1288
7125.832
7758.4776
6568.2796
8907.027
8443.4885
7630.7197
7849.5504
7522.7155
8087.5366
8248.9845
8762.2463
9369.1596
8670.6532
8509.3308
8467.1596
8798.562
8155.6347
9670.2095
9873.9689
8871.5861
8744.0313
9063.5182
8877.9823
8991.0385
9971.9255
10356.255
9533.0518
9609.6783
9582.2703
9622.2574
9475.2822
10082.44
10125.056
9488.1827
9301.1145
9453.1591
9409.9502
9521.9646
10284.471
11070.402
10619.093
10340.848
10714.89
10448.518
10611.001
10484.139
10144.968
9489.3928
9526.2383
9588.8092
9346.4311
9622.7176
10056.743
11359.204
11364.308
11103.951
11288.012
11043.324
11726.208
11303.952
9739.8006
9491.2425
9494.5981
9367.7228
9552.3771
9588.8557
9448.5959
11392.185
11568.349
11413.827
11573.235
11549.553
11587.074
11599.065
24600.906
14213.046
12676.73
11650.743
12192.71
11785.771
10516.733
10381.833
9328.178
9377.4172
8619.7696
7264.8419
6948.4419
5632.136
5047.413
5421.5265
4211.4369
4613.4006
3855.7003
4204.1152
3805.0015
3988.1369
3739.1265
3542.1719
3083.3309
2959.9527
2686.2659
2882.957
3080.969
3467.7028
3976.145
4509.6225
4939.8461
5270.873
5861.6161
5165.0267
6298.0117
6005.4526
6586.2506
6642.5311
7495.5892
8089.811
8987.0831
9806.9526
10890.53
10593.149
13420.801
9734.3145
9516.0527
4593.2276
5133.549
7428.4825
4123.2567
6482.4487
5444.1891
5562.8288
5455.9533
4731.3016
4711.6354
4603.2837
4273.6959
4339.4141
3957.374
3993.862
3617.3365
3836.6803
3674.5826
3786.6986
3796.1566
3790.7922
3935.8803
4047.1514
4218.3571
4805.2687
5314.7519
5758.7844
6177.5475
6528.8592
6875.998
7104.4968
7583.0377
7754.7455
7922.8708
8372.2694
8838.5859
9451.4554
9572.4
10153.807
10209.132
10830.976
10142.361
11691.886
8045.042
15322.795
2959.6751
1937.8395
520.68156
1345.0045
1069.7254
1221.8869
1956.7666
1144.6847
2201.3861
1626.2051
1722.7665
2606.2802
1544.5468
1693.0102
1622.1314
1593.3447
1776.2437
1954.5991
1811.1585
2076.5035
2036.8976
2143.0355
2283.6928
2227.5201
2551.7485
2378.1158
3045.2836
2887.3122
3394.5363
3575.3564
3957.2275
4109.359
4580.4964
4831.4757
5175.2022
5722.7757
6109.8935
6632.9569
7193.2354
7821.4635
8234.8251
9251.2688
9430.2019
10625.171
11220.17
11047.938
16723.088
1539.0382
1932.9409
-1071.806
2985.9616
-776.2013
3185.4315
-1190.6298
2696.4222
97.066532
1170.51
1646.6979
580.08221
1248.9251
3097.1983
2118.1902
2841.5687
2735.5278
2766.0882
3029.1322
3221.3496
3421.2818
3631.1599
3814.3972
4335.2926
4697.4394
5326.9831
5507.6098
5967.0621
6288.7401
6554.5503
6859.9796
7186.6341
7561.5906
7765.0179
8287.5626
8581.3888
8891.3495
9222.9386
9769.4914
9752.4523
10467.514
10235.821
11096.575
10227.3
12132.703
8458.409
16617.963
5613.6355
2174.5953
3552.024
2774.8095
2969.4583
2345.3604
2131.7694
3737.1364
522.78988
4199.5336
591.12861
3218.6909
1968.3451
2290.8375
1998.0239
2325.4066
2207.5397
2591.1764
2595.0261
2831.5195
2932.6426
2969.6442
3378.9773
3147.3913
2978.5403
2783.8163
2884.7313
3098.0402
3456.2648
3650.823
4031.5706
4257.2865
4533.8254
4973.8852
5429.5338
5647.2984
6233.2259
6791.9708
6947.2539
8026.343
7992.2343
9289.194
9191.3311
10639.564
10800.282
11473.315
15192.784
11279.408
10630.034
6427.2952
11412.378
6141.2549
9496.2982
8598.2027
6462.3839
9252.8918
6593.6549
6323.4507
7546.9899
4176.0882
6422.3974
4529.1874
5059.2641
4502.7787
4539.8585
4404.5275
4266.4102
4283.4295
4211.998
4559.6576
4349.9098
5798.1913
6357.0667
7356.1113
7545.1488
7955.6119
8114.3066
8526.8118
8556.4262
8767.9759
9093.9581
9258.951
9471.0197
10042.305
9801.9507
10806.309
10416.732
11059.134
10797.012
11350.527
10594.121
11831.834
9660.8763
14212.787
26134.64
13479.033
18879.418
12262.487
16795.597
12903.273
13270.343
10899.389
11703.516
8880.0488
7730.8579
8971.6603
5519.6399
7375.2843
4245.3144
5669.8556
4166.8502
4283.6916
3685.4588
3460.7384
3013.1931
2635.1251
2278.9191
1660.0017
1516.8311
1361.0108
707.84306
1195.0612
1276.6435
1974.354
2266.0979
2480.2911
2815.2652
3088.9199
3106.8884
3429.097
3870.9516
4669.4765
4748.0215
6111.8144
6835.5785
8075.1981
8938.5779
10217.223
11095.64
12075.447
12663.608
22204.372
18569.043
17676.474
16668.972
16384.869
14998.436
15102.487
18012.033
18446.788
15792.711
15209.666
14034.104
13708.474
13697.162
16563.253
17344.006
17367.711
16445.643
15892.495
15209.892
14781.438
15702.436
15339.722
14973.169
14728.253
13781.834
13300.54
11727.029
14462.591
14852
15914.548
14423.496
14807.525
13193.166
12497.836
13513.768
13343.792
12705.689
13352.757
12277.617
12022.984
11869.264
12413.61
11928.822
13212.253
11624.195
11763.899
11271.118
10379.412
11281.122
11420.531
10929.576
11091.371
11023.548
9846.007
10203.839
10353.761
10194.595
10342.575
10504.611
9715.2165
9906.7299
9140.9826
9267.2081
9242.6808
9315.6609
8727.0517
8875.0269
8426.4055
8379.3445
8198.762
8789.0278
8359.1765
8749.1423
8498.6074
8415.607
8347.9462
7770.1813
7375.8606
7817.361
7097.9331
7249.7812
7003.6266
6934.4058
6714.4234
7113.0002
6637.0577
6846.4907
7072.9286
6573.8582
6932.3987
6249.7775
6115.2033
6541.8839
6052.5472
6542.7451
5355.3838
6332.8486
5366.9569
5748.8688
5017.6572
5516.467
5057.1948
5699.2134
5231.2216
5311.1007
5298.2746
5148.4573
5444.8121
5257.395
4958.5606
5061.0081
4430.4404
4546.2123
4329.064
4717.8464
4352.9816
4456.8925
4573.9578
4244.553
4362.5015
4252.8543
4466.796
4340.8898
4638.247
4520.1649
4007.7513
3998.0227
3825.4174
4099.4486
4125.4082
3973.1008
3977.0091
3805.8892
3932.1988
3741.1283
4165.1902
3873.9018
4070.0918
4141.2911
3902.1585
3796.3762
3788.575
3911.8457
3879.7401
3921.8579
3869.9141
3846.1093
3722.5952
3770.7834
4012.2836
3912.8193
4016.7543
4002.067
4073.8916
3804.4604
4072.8422
4030.8987
4013.7214
3853.1791
4025.3207
4031.0538
3596.5802
4078.8628
4079.4646
4030.3022
4045.2373
4187.1638
4334.7746
3656.8519
4177.2363
4143.4315
4074.6465
3831.6838
4105.0039
4143.6474
3460.1401
4258.8253
3972.189
4072.1581
3780.761
4310.9635
4378.6573
3505.0564
4325.2986
4035.027
4048.1735
3970.616
4177.2428
4566.628
3753.751
4141.6018
4148.1666
4191.3985
3721.83
4290.0204
4634.8112
3411.4504
4770.6435
4306.6821
4305.9656
4035.3381
4546.8562
4902.3331
4350.0881
4802.2028
4480.7898
4669.1351
4279.619
4769.8999
5342.6807
4263.7213
5091.5375
4973.9501
4989.8008
4521.1359
5068.314
5438.9502
4799.8083
5513.9719
5252.2703
5175.7958
4892.1232
5421.4846
5866.7488
5196.795
5794.2844
5635.4774
5651.2148
5350.8612
5829.3736
6154.7668
5520.576
6081.6717
5991.3777
5901.5966
5733.7697
6006.5394
6390.2517
5916.8527
6432.2991
6353.7949
6390.2761
5920.895
6380.2055
6820.4331
6253.1363
6544.3022
6675.1455
6382.1089
6445.9173
6873.981
6999.6503
6164.5555
6892.2301
6693.2378
7045.1124
6329.3094
7564.9144
7264.316
6783.4528
6952.0495
7600.2405
6700.5817
7473.9884
6637.2663
7371.936
7274.2868
7260.473
7627.5513
7254.3428
6903.1071
7592.0036
7766.2832
7284.1098
7048.6963
7870.2093
7039.2836
7682.4476
7531.0668
8027.1032
7729.3111
7627.4162
8264.7818
7654.2019
7948.0476
7867.588
8592.087
8218.9559
7946.0944
8640.0622
7915.704
8466.5536
8300.7203
9064.9063
8954.8404
8612.7556
9447.1801
8760.7652
9299.2081
8733.3813
9305.6632
8911.5267
8880.5481
9430.9691
8707.612
9265.1669
9176.1673
10780.833
10861.933
10619.803
11147.365
10609.931
11681.213
10587.629
10225.603
9993.2156
10069.088
10380.151
10169.127
10263.141
9523.2434
12852.522
12733.454
12632.199
12786.928
12608.895
12665.703
12812.976
9337.1546
7393.1094
6430.376
6004.9391
5321.2572
5283.9181
4812.596
8775.7922
10062.04
8666.0674
8953.6455
8472.2273
8295.723
7741.5734
8030.2756
7753.6371
7488.237
6729.5127
6704.2016
5584.6721
5887.874
7246.5214
7905.1287
8149.4231
8226.2695
7219.8884
7184.5109
4944.9496
7660.8594
7314.1374
8121.5169
7054.7532
7726.3714
6156.2547
6369.4487
6799.8738
6731.304
5706.5551
6107.2062
4856.2079
5193.5877
4488.2711
6764.7059
6062.2897
7006.3429
6341.3301
6515.4789
6219.8085
4973.8607
6216.761
6088.7884
5000.8208
5317.8432
4790.8742
4615.4973
4457.6174
6023.011
4984.2186
5392.6121
5372.2305
4585.7948
5148.6808
4112.4956
5621.1349
4946.6078
4852.452
4520.3897
4784.9181
4517.788
4393.0787
5424.9309
4390.4247
4385.9062
4725.8621
3869.9875
4356.6021
3452.8639
4937.8175
4025.7845
3945.6347
3877.4528
3882.8167
3929.5906
3871.3823
4744.4308
3712.2656
3701.4607
4516.0285
3603.4584
4402.7376
3281.1761
4246.1417
3011.8951
3519.3522
3319.3154
3035.1688
3549.1896
3410.7266
4037.0192
3279.3502
3496.9626
3561.6079
3704.6385
3591.1593
3622.1644
3915.0913
2410.931
3327.8249
2868.5972
3163.0557
3082.2009
3178.828
3508.3438
2988.3761
3180.1093
3089.7228
3351.9481
3212.0815
3509.8859
3727.412
2621.6755
3062.4896
2971.3552
3122.3283
3130.8517
3170.1355
3410.5731
2732.9636
3101.9005
2961.0785
3259.3851
3087.0084
3307.4931
3617.592
2812.619
3059.5333
3119.4065
3181.6493
3110.6321
3383.303
3354.1931
2740.3444
3143.5983
3034.4104
3255.5364
3338.148
3415.316
3476.4138
3242.7334
3278.1099
3279.3857
3532.8332
3275.5632
3586.0305
3451.0374
3119.6736
3217.7434
3401.7615
3281.9272
3625.0298
3754.3481
3730.2997
3494.5654
3594.4693
3413.5566
3648.078
4094.5862
4038.0249
3818.2465
3655.6811
3794.4906
3464.9461
3878.7002
3998.0666
3864.9735
4274.6354
4026.1349
3805.9349
4222.909
3740.3029
4565.2193
4624.4099
4269.4221
4351.7425
4418.5438
3773.9902
4807.3544
4641.3104
4776.8682
5050.9369
3836.6242
4809.1967
4643.8417
4676.0105
5130.4343
4956.9362
4974.3101
5077.6623
5340.0924
4602.5795
5000.5625
5557.2314
5118.3432
5527.8526
5274.2401
5295.8169
4996.7448
5495.9487
5819.9345
5365.0954
5708.973
5327.1707
5628.0566
5462.6977
5601.3927
6051.9504
5717.414
5917.8562
5900.8364
6151.9706
5829.8255
5981.0768
6638.8752
6088.1065
6368.4118
6142.5526
6289.443
6032.4304
6344.6417
6846.1016
6261.0335
6599.4791
6480.864
6672.3006
6634.765
6650.3456
7118.5287
6655.2462
7024.0124
6783.7565
7015.6968
6842.8965
6813.1498
7607.0617
7243.8016
7346.7773
7086.3678
7278.6537
7343.0633
7246.6045
8013.0669
7184.6828
7947.2859
7636.2533
7634.0896
7824.8266
7183.3341
8596.9975
7517.2133
8423.4484
7440.9892
7945.9912
7939.5672
7944.8396
8649.7761
8016.9608
9060.1599
8219.1424
8689.0677
8516.5911
8250.6148
9005.9426
8370.7726
9277.922
7774.456
8805.1255
8406.5921
8565.1322
9374.1005
8839.5381
10006.631
8937.339
9809.8134
9478.1962
9371.5854
9906.4313
9096.3793
9815.1752
8346.5491
9378.8264
8843.2086
8922.6857
9537.2504
9325.0447
10827.657
9925.0674
10669.734
10496.747
10489.42
10906.427
10145.969
10060.606
8874.9377
9662.876
9283.1414
9048.8767
9266.848
9376.885
11991.672
11553.138
11917.374
11777.728
11754.554
12434.411
11800.825
9255.6667
8264.3647
8774.5368
8384.888
8504.304
8001.562
7447.5466
13717.435
14200.759
13497.822
13567.162
13489.437
13740.713
14137.554
3934.7361
3491.6589
2878.3578
2675.3947
2372.0872
2299.525
1735.583
1723.3021
2195.5279
1640.2819
1668.5016
1574.7731
1112.7306
1254.0835
3434.9567
2922.8422
2748.1212
2412.4759
2018.7715
1617.867
1634.579
1731.4462
1987.7395
2810.0523
3137.8001
2838.1308
2899.8141
1789.3817
3465.0272
3208.0474
3310.0569
1885.1389
2137.4933
863.47718
1876.8026
2134.6627
720.04501
1065.2596
1352.7572
1340.7611
1528.1194
1242.4124
2639.3855
2162.0238
3235.6521
2773.8467
3085.4457
2236.5252
2463.9163
2319.0494
1264.7775
1178.2562
682.81807
711.23551
672.49861
852.39223
1921.4425
1562.7877
2266.1475
2362.9853
2936.9618
2234.2272
2334.8579
2332.7316
1633.6536
1522.072
1243.5133
1013.8401
907.81948
1108.4603
1689.8269
1321.0496
1740.0694
1498.4196
2096.0313
1443.2755
1835.9111
2233.7739
1580.4196
1663.0097
1630.1398
1757.5337
1635.0618
1784.3035
1978.2703
1067.2751
2234.723
1223.4809
2047.3351
1027.4758
2066.7635
2240.3348
1826.4108
2411.3855
1503.2164
2217.8879
1455.9517
2129.0852
2776.864
1720.2638
1888.5804
1786.76
1636.0405
1607.3885
1895.3278
2692.5936
2029.3918
2136.013
2052.9503
2024.2372
1665.9443
2416.6128
3099.6271
1889.7385
2159.4861
2296.8271
1813.0629
1874.1682
2249.9868
3018.8494
1799.6959
2429.9573
2130.209
2023.1958
1975.9132
2583.0663
3333.0735
2158.532
2455.6151
2372.2915
2152.8244
2054.4955
2519.2951
3333.2236
1956.2936
2564.494
2396.1322
2186.3715
2268.5515
2760.3825
3687.5312
2393.6863
2850.4737
2602.4461
2517.3447
2320.0991
2847.5001
3938.8046
2269.835
2883.6623
2782.341
2436.7573
2538.4942
3054.9884
4224.4688
2561.2839
3415.662
2609.3469
3006.1969
2681.3097
3275.2183
4507.1776
2733.7825
3435.1196
3072.4262
3413.8116
2578.1532
3155.0632
4796.6847
2770.4007
3791.8208
3456.1268
3618.7025
2751.5744
3838.1514
4983.5526
3018.3005
4345.3604
3166.8217
3967.1992
2983.8438
3396.2981
5754.7606
3229.2316
4357.1954
3416.747
4599.0376
2966.3046
4207.7155
5601.4409
3469.7562
4521.7991
4196.802
4403.471
3365.9081
4233.6167
6119.9979
4216.3129
5248.4129
3991.3664
5158.632
3655.3242
4719.4456
6483.4227
4091.8343
4900.6487
4426.8192
5259.4228
3687.4595
4888.9577
6613.5082
4481.7059
5648.5412
4988.1701
5704.5311
4267.8025
5387.1981
7050.6319
4861.6268
5830.3159
5005.0708
5792.6759
4464.7824
5415.6493
7295.7278
5180.152
6033.3264
5538.7169
6220.1632
4780.9258
5848.9461
7652.8439
5463.3093
6465.8313
5838.613
6289.9951
5302.4202
6210.581
7946.6619
5930.0281
6824.7528
6156.9927
6776.548
5688.1203
6207.6882
8393.1504
6359.2694
7239.303
6525.667
7022.6273
6051.2931
6744.1248
8656.9157
6640.0253
7559.8208
6892.672
7591.3853
6448.6259
7110.8453
8952.9395
7115.3833
8103.1187
7406.5865
7732.6239
7004.2497
7129.6075
8945.8599
7857.4492
8280.5633
7934.0784
8031.0365
7402.3459
7752.7318
9401.5428
8468.2236
8545.562
8648.2722
8442.1397
8383.1523
8015.1937
9394.0326
9117.9886
8842.3204
9082.9714
8653.6236
8421.6879
8134.6525
10004.069
9504.5566
9212.393
9621.4787
8967.3151
9554.3748
8895.599
9985.6911
10255.427
9726.8777
10253.992
9619.2953
10080.46
8832.4047
10234.713
10180.899
9677.4971
10368.769
9293.1811
10191.609
9418.1556
10936.895
11305.109
10812.247
11486.631
10495.067
12361.688
10379.068
9820.5903
9939.6048
9827.2196
10290.929
9634.7534
10441.001
8350.2578
13827.84
14251.216
13755.147
14061.38
13740.296
14527.562
14153.359
1605.853
1670.406
1354.6107
1431.6972
1265.1832
1292.6492
537.83735
478.60789
1449.0784
1720.0972
2236.5103
2242.6442
2357.357
2311.8583
780.39755
228.66105
-6.7064976
5.9978943
0.72528649
-26.692584
-428.6085
1113.7207
2251.3863
3209.1324
3682.9857
3876.9593
3727.0057
3203.7826
895.51457
369.50073
-122.59132
-907.17909
-1082.6317
-1003.9086
-435.43873
1618.5765
1722.5561
2071.7484
2664.2209
3073.0627
3050.9342
2732.618
880.58576
553.22728
2.4186143
70.943736
-330.91014
-532.14274
221.68775
1543.7205
1602.4335
1473.3358
1749.9364
1697.4102
2415.3361
2012.0698
1492.0163
1085.6569
1304.6986
416.30824
1488.919
404.23137
1330.7065
1227.6094
1622.8401
930.79117
1150.3996
931.12546
1570.4374
1521.8387
1580.9895
821.24177
2230.7782
865.39465
2314.5088
1731.8766
1580.0562
1274.7402
1736.1261
1515.324
507.75297
1576.6478
1110.7002
2032.5565
1547.5351
1059.9328
1938.4528
1175.6706
2362.1771
1707.2003
1184.3914
1440.6048
1761.5177
1313.5251
1338.1206
1249.0157
2026.4899
1763.5952
1419.8553
1035.5628
2253.7291
1051.7965
2051.4762
1828.2924
1528.9855
1566.2056
1192.8965
2033.3274
1527.441
1580.5384
2192.9425
1743.6554
1582.2383
1109.3913
2324.9245
1504.3205
1923.4758
2405.2854
1869.8122
1936.7147
1703.2557
2540.2725
1779.3386
1993.6421
2508.0105
2096.2986
1814.8214
1607.2021
2656.0813
1865.7923
2316.1388
2857.3746
2254.1659
2270.3657
2111.6041
2910.9132
2193.881
2592.4544
2776.3751
2509.4653
2301.9518
2012.4858
3059.4462
2431.3518
2608.0456
3202.1066
2749.8138
2726.3758
2513.9384
3434.5196
2452.3407
3039.4471
3355.5326
2929.5932
2973.2821
2805.3056
3078.6664
3191.8703
3161.2518
3563.6841
3044.3989
3319.881
2803.6586
3563.4676
3591.1398
3041.0479
3923.658
3743.2033
3646.8897
3040.3705
4252.5981
3209.16
3044.9627
4417.8895
3451.2706
4220.7037
3572.2001
3983.42
3853.6708
3594.0848
4529.1478
4321.7558
4098.1004
3556.0552
4493.1434
4361.025
3598.82
4926.084
4197.2463
4569.278
3941.7798
5112.9474
4274.2935
4402.3312
5159.7076
4738.9216
5051.6406
4202.6787
5009.296
4830.6484
4097.275
5396.544
4848.7383
5054.0878
4287.7771
5446.7717
5060.8511
4846.5072
5932.4648
5279.9832
5389.5006
4821.1592
5761.5423
5404.1801
4949.5689
5951.1301
5494.7306
5716.6398
5031.6557
5994.8342
5664.4111
5228.5791
6351.0154
5828.1441
5913.3822
5235.8236
6307.2249
5896.4762
5627.1523
6773.7381
6203.3502
6226.8931
5620.0899
6650.2856
6310.8185
5940.0438
7002.5271
6252.7428
6466.8809
5887.26
6901.3134
6450.4963
6216.0381
7263.8628
6765.5545
6696.6218
6197.4339
7022.0752
6860.2213
6651.6405
7559.6815
7014.315
7028.6851
6539.8878
7391.4307
7271.9421
6646.5722
7919.3022
7208.3302
7185.3642
6800.5153
7696.8999
7288.1006
7174.7671
8087.1372
7691.19
7760.7918
7363.133
8068.861
7765.7652
7633.5084
8540.7931
8069.9139
7919.861
7072.3474
8158.4632
7677.0045
7672.6874
8491.84
8132.0606
8770.4184
7818.0814
9010.2699
8472.4571
8431.0773
9195.0218
8842.7328
8742.8299
7486.2885
8738.6009
7935.269
8215.5415
8909.6123
8687.7333
9638.1378
8685.3537
9820.9357
9250.3533
9651.0654
9876.4712
9654.4071
9493.444
7964.255
9138.4648
8261.3712
8567.3832
8721.012
8976.6807