/*--------------------------------*- C++ -*----------------------------------*\
  =========                 |
  \\      /  F ield         | OpenFOAM: The Open Source CFD Toolbox
   \\    /   O peration     | Website:  https://openfoam.org
    \\  /    A nd           | Version:  6
     \\/     M anipulation  |
\*---------------------------------------------------------------------------*/
FoamFile
{
    version     2.0;
    format      ascii;
    class       pointScalarField;
    location    "0.88";
    object      E;
}
// * * * * * * * * * * * * * * * * * * * * * * * * * * * * * * * * * * * * * //

dimensions      [1 -1 -2 0 0 0 0];

internalField   nonuniform List<scalar> 
28033
(
622.46371
1139.1205
22344.178
21658.986
922.71465
3955.2829
22288.764
22689.358
245.32192
-112.33051
-78.327993
130.08858
-25.784717
159.16058
105.16057
198.20198
113.06442
223.01836
3.8154748
219.42875
237.86618
286.45059
80.496753
23286.137
22795.047
22678.186
22459.732
22105.469
22118.254
21562.442
21792.22
21717.837
21541.718
21862.473
21767.687
21905.423
22194.251
22584.498
1340.951
205.63411
209.52189
-35.920109
7.6087712
-62.789879
14.429938
-199.64469
44.19698
-84.527953
93.225194
107.90603
140.33414
180.22919
90.785483
61.696367
-120.65642
114.85315
-38.45328
162.67855
228.61038
457.49369
598.13024
983.29532
980.89824
1427.3466
1434.1036
1801.6584
1728.8069
2041.4207
2196.3242
2237.2093
2248.1322
2451.1325
2516.0886
2894.545
2724.4673
2963.2107
3004.4643
2946.1859
2897.8665
2898.8016
2845.4667
2885.1484
2956.6688
3154.3996
3320.0654
3667.8933
3906.8293
4287.3264
4537.6014
4852.0321
5064.4965
5283.5034
5457.9451
5634.4189
5805.487
5999.1897
6204.354
6437.4577
6671.3715
6935.7837
7153.9339
7436.3746
7679.1902
7905.0265
8156.6963
8359.7228
8632.9373
9027.1375
9279.7224
9678.9703
9997.5863
10414.288
10818.571
11226.484
11660.157
12131.096
12564.889
13037.614
13595.386
14092.539
14745.757
15171.219
15928.724
16497.12
17247.336
17919.283
18695.63
19321.535
20205.053
20625.147
21688.334
22015.545
22725.21
6003.4322
-1983.8314
3551.5513
-120.40765
1515.5378
1232.5088
589.60664
790.22625
863.38276
622.57275
1021.6813
864.14146
1329.6765
1154.2768
1388.177
1291.6052
1402.6987
1254.4107
1208.8811
1327.195
1043.4273
1355.2144
1253.1304
1958.4452
1843.5059
2524.5977
2351.2223
2837.919
2596.9724
2969.1579
2466.4526
2683.868
2489.8907
2511.2544
2399.3333
2542.1897
2673.0671
2631.773
2750.4671
2955.7072
2981.6285
3137.3562
3205.6321
3358.757
3451.6996
3660.7479
3842.7863
4114.9153
4394.5645
4701.1567
5009.1307
5288.4817
5527.0537
5717.9791
5842.8151
5927.4688
5980.9021
6021.5143
6086.227
6185.9842
6338.7012
6554.4306
6822.5485
7144.1827
7490.4722
7858.4709
8245.8564
8615.7221
9062.4431
9366.7245
9793.859
10134.433
10626.752
10979.368
11457.356
11882.618
12293.011
12784.351
13163.303
13639.625
14072.476
14518.507
15036.712
15543.856
16134.059
16742.034
17417.925
18097.049
18823.733
19534.236
20234.883
20891.715
21490.798
22044.81
22374.62
383.53138
15.652454
-199.03477
279.10966
-87.480546
59.040868
97.866381
57.696218
86.141751
65.45295
55.997531
11.590128
-189.33735
-393.37856
343.68281
4585.624
7301.3455
-5862.4076
2462.3588
66.388294
-934.82779
1008.5883
44.488412
1264.7814
701.24915
1465.3952
691.01976
2100.4774
395.16668
1875.7433
516.00118
2258.8301
-324.19986
2170.0884
197.00605
1715.6825
1875.5129
1942.7545
2218.9889
1801.1831
2752.2187
2609.1163
2389.7557
3180.5828
1089.8831
1749.9848
1533.8594
1701.567
2069.5253
2495.2909
3859.2114
2437.9013
3729.814
3713.7231
3839.1896
3892.469
3865.4914
3844.7257
3872.5278
3986.0739
4176.9806
4455.2941
4772.0376
5084.0048
5351.2085
5522.2146
5595.3313
5566.582
5467.5802
5355.5027
5280.2977
5290.5642
5436.0202
5710.5282
6124.5104
6621.0051
7182.7736
7730.6317
8248.6005
8693.7715
9050.5724
9453.5123
9343.5368
9742.6594
10138.944
10326.456
10520.277
10863.29
11158.268
11462.78
11756.188
12035.308
12319.211
12581.33
12912.704
13260.803
13729.553
14238.57
14890.772
15555.978
16344.929
17086.292
17893.625
18589.632
19302.609
19868.962
20436.43
20899.69
21261.684
22013.739
22689.778
22677.878
22058.166
21725.253
21855.997
21335.8
21511.974
21258.431
21952.335
21237.156
22003.759
21358.5
23035.94
21772.857
23344.904
23109.624
21632.592
21806.35
20971.525
20453.605
19750.147
19076.784
18375.47
17649.144
16974.225
16292.892
15667.036
15116.171
14532.502
14041.695
13562.163
13115.212
12685.519
12269.131
11866.935
11481.46
11103.553
10764.017
10382.235
10201.708
9770.5066
9432.2731
8444.1107
9129.5945
8534.9084
8324.4771
7979.8154
7663.8347
7370.3624
7099.4884
6871.7063
6682.4517
6534.7729
6414.5542
6312.9555
6207.5756
6090.3609
5943.4988
5767.2115
5562.4345
5335.2222
5108.7038
4875.4438
4686.2056
4503.3981
4354.3507
4263.1031
4140.0789
4065.3009
3934.3276
3887.0432
3478.2911
3579.2644
3176.4974
3072.7963
3313.3517
2716.6257
2790.3234
2552.8724
2700.3006
2620.0243
2172.5155
2231.6808
1704.6755
1887.0859
1656.466
1304.0974
386.9098
1272.7077
403.31211
205.074
485.04107
166.28125
547.14871
237.66074
250.90763
126.43272
716.47841
-371.92466
921.71602
-52.759099
-332.04343
-66.484215
470.78051
-96.763724
-265.51914
93.976178
1514.4239
-1349.1589
3210.4936
364.321
695.58951
468.46367
522.46408
495.35985
635.61686
403.74944
656.03263
612.5253
806.34125
461.98936
470.35266
423.12376
273.75202
-346.40009
-22.840932
462.98067
-486.86744
288.7121
96.173296
-675.96733
0.69941671
336.62252
-425.12766
198.99691
43.459925
-166.26375
-215.71433
-485.49498
-834.67856
22186.05
22153.471
22145.079
22094.399
22044.887
22010.906
22006.906
22004.401
22045.43
22079.853
22138.258
22156.531
22219.735
22060.227
22595.814
22955.372
22737.209
22924.565
22731.557
22839.133
22778.697
22760.967
22731.46
22734.75
22709.91
22760.643
22688.511
22737.27
22656.3
23018.661
1736.4323
-267.17621
2.3453012
29.463824
-81.693436
187.06359
-30.20489
255.17739
-7.0834954
295.2846
-197.99102
77.385368
-377.22686
-38.285853
-483.64239
-25.563982
-85.476533
221.80432
219.58233
564.4795
588.59125
702.99019
784.79558
667.01369
706.13878
662.13184
728.11778
777.74172
1045.8414
1372.1834
1645.6957
2161.8015
2693.6857
3177.1187
3654.3032
3842.8652
4145.7966
4290.6012
4505.8974
4554.0388
4779.2371
4836.1363
4998.2935
5131.7405
5160.2058
5222.6054
5165.5156
5108.3056
4958.8079
4848.31
4717.4618
4688.8516
4738.178
4932.1468
5254.2625
5705.3225
6252.1659
6854.5129
7465.9581
8047.7673
8553.0775
8996.1021
9303.2855
9579.0095
9741.6868
9783.6502
9985.2265
10045.364
10223.54
10135.529
10277.42
10310.989
10404.601
10516.108
10646.469
10828.842
11108.257
11406.22
11895.617
12354.675
13049.218
13692.583
14475.384
15243.633
16037.312
16840.799
17579.268
18266.468
18967.884
19511.477
20242.214
20689.114
21504.08
21905.641
22822.622
1247.0038
-507.67483
305.26594
-265.52179
234.1075
-10.00153
226.88305
121.12168
180.86488
101.85395
99.759815
63.68193
-23.218717
-10.023475
-67.128099
148.02122
-91.797219
280.93126
217.86375
524.75233
454.82822
721.96308
627.86404
846.0799
805.24778
972.88795
970.44248
1179.8712
1306.9511
1548.542
1809.0032
2164.3938
2336.9005
2616.5231
2873.8432
3119.7362
3391.5097
3633.8725
3724.9395
3864.5298
3960.6942
4106.4919
4236.6881
4311.1626
4411.6163
4553.6321
4632.7256
4727.8265
4807.0345
4878.3608
4954.4735
5062.0716
5198.668
5392.7359
5641.5628
5953.6089
6310.0063
6706.9276
7119.9256
7523.9917
7912.2225
8266.1623
8567.4604
8847.7407
9117.9244
9281.8792
9543.05
10030.564
10106.818
10263.224
10523.541
10652.528
10808.126
10988.175
11197.777
11445.349
11762.979
12109.626
12588.352
12999.733
13675.025
14143.238
14917.749
15338.431
16387.04
17037.301
17811.489
18400.731
19204.907
19710.986
20496.014
20949.301
21796.219
21804.418
23333.908
1031.1519
-403.4735
289.89063
-167.93208
88.843147
26.417971
80.979331
226.10487
159.28485
262.07316
90.271725
207.59635
-12.983049
137.7293
-26.485766
101.12483
117.99572
317.003
288.81133
525.192
561.65502
763.45623
797.6698
927.15521
924.48365
1030.3799
1100.1
1226.7421
1375.7048
1588.2921
1824.5955
2039.9729
2367.7504
2662.2591
2918.2866
3167.4534
3263.2814
3319.9417
3520.6681
3612.0119
3788.3158
3911.4148
3972.6612
4186.1935
4353.8404
4494.6725
4605.4025
4721.9419
4801.9191
4867.5274
4963.1634
5061.67
5225.5134
5434.9968
5724.2599
6065.4556
6467.2195
6896.9049
7335.5427
7760.9077
8155.596
8507.3361
8798.4654
9069.0307
9280.1307
9396.6956
9668.5285
9615.3658
9867.8102
9973.1609
10175.922
10282.962
10535.333
10756.834
11022.296
11291.743
11622.712
12005.883
12419.102
12900.913
13463.696
13998.02
14627.352
15421.848
16063.253
16578.257
17257.119
17972.59
18661.357
19232.756
20031.505
20459.511
21292.446
21457.361
23446.055
613.14917
-84.079533
194.32393
71.093698
144.41855
85.595284
192.0531
159.81688
106.98661
119.92538
94.556915
72.137122
-45.654409
77.493459
-147.90269
121.01426
-123.27867
188.87101
46.899834
382.4437
238.90703
534.52805
396.55133
650.32336
573.83704
786.86765
755.32053
981.99011
1032.6228
1285.036
1410.2536
1705.3594
1912.298
2131.5856
2375.5802
2566.1008
2755.6365
3198.8471
3260.1083
3440.9384
3527.6665
3687.5138
3822.7495
3945.14
4036.1907
4160.5737
4294.7239
4437.6017
4575.0393
4729.9024
4890.7579
5058.4705
5254.5025
5465.7543
5711.3076
5984.95
6291.8527
6619.524
6971.5601
7327.0903
7682.9857
8027.5347
8339.7448
8654.9981
8897.474
9184.6219
9364.7014
9568.3364
9864.6374
9931.1264
10273.638
10474.084
10603.847
10739.73
11013.213
11262.959
11584.931
11904.564
12341.233
12751.392
13308.193
13779.689
14529.584
15006.701
15853.39
16440.269
17428.299
17957.223
18868.092
19335.007
20277.523
20574.897
21680.958
21402.721
23853.405
584.99639
-225.54399
257.25973
-138.39231
164.39732
21.274813
208.21108
126.97283
208.74507
216.85788
134.1684
125.55218
62.219023
57.804776
-5.7789273
88.155298
43.981905
234.74853
185.52415
416.03373
377.59882
637.56838
583.09102
824.16932
747.70618
929.72147
950.06139
1091.433
1201.0467
1395.8396
1584.3608
1829.4964
2030.0974
2293.944
2492.1858
2702.6924
2920.4965
2908.8537
3042.4806
3170.3601
3410.9754
3527.391
3687.3983
3877.2565
4064.4084
4240.7934
4409.4856
4549.2839
4700.2174
4838.6779
5000.0453
5163.0942
5380.1564
5605.3713
5891.2835
6193.6573
6535.4068
6884.8056
7245.3222
7596.0424
7928.0192
8242.6623
8524.1259
8802.9126
9002.2679
9258.0268
9478.273
9575.6274
9809.6329
9965.3164
10245.969
10325.638
10698.599
11183.664
11349.011
11652.909
11925.97
12311.106
12694.203
13154.377
13662.793
14230.069
14806.395
15487.506
16107.155
16802.707
17379.202
18046.253
18693.114
19287.108
19999.226
20546.831
21416.895
21325.296
24067.66
380.39254
14.314705
292.65622
135.32406
200.38405
175.08908
148.1853
158.50773
135.34863
108.38824
72.574232
96.557905
-28.342561
66.352631
-93.738008
54.015159
-90.715313
123.01171
10.195622
284.90055
183.22634
462.58819
360.46623
612.87782
513.8768
803.32196
702.92036
988.08241
993.6506
1237.444
1335.0537
1547.664
1725.5694
1934.5806
2109.8576
2336.6051
2448.5438
2846.2911
2879.3605
3111.9998
3185.763
3367.4005
3462.0726
3648.842
3777.3435
3925.4536
4055.4697
4212.2722
4362.0044
4531.2223
4709.6403
4914.6861
5139.0332
5394.5824
5674.1159
5980.3284
6302.2496
6634.7876
6978.22
7304.8488
7622.2116
7947.0921
8215.0422
8464.9728
8772.602
8945.6043
9180.9549
9392.1582
9638.4904
9818.4599
10004.353
10261.75
10453.48
10430.629
10675.527
10942.883
11292.194
11642.484
12070.404
12499.85
13066.469
13519.013
14254.544
14716.333
15569.578
16077.194
17024.666
17568.346
18553.513
19027.4
20082.162
20408.718
21533.946
21407.251
24186.134
255.48604
-177.74921
273.08736
-77.315597
183.04865
24.560046
185.73279
112.78489
194.64035
131.63204
151.82603
48.424846
36.355371
-26.691791
-75.845734
-38.043253
-62.520774
44.976535
44.952406
241.59431
218.53785
473.67326
392.31537
638.73117
604.95645
756.25862
768.84579
943.75515
979.21851
1209.3169
1319.5269
1585.176
1762.224
1983.0122
2180.2945
2370.7055
2501.7877
2631.6234
2692.4363
2932.9412
2984.9853
3180.3168
3302.2589
3497.4559
3670.2878
3865.0469
4081.767
4267.7325
4471.9871
4648.2263
4852.7156
5038.1224
5269.4834
5504.5018
5789.9766
6092.1446
6437.5268
6792.2079
7167.183
7520.8776
7897.2099
8208.4702
8511.7053
8830.695
9033.9219
9313.2751
9517.3371
9750.0818
9947.5644
10126.809
10448.367
10538.69
10857.242
11122.48
11458.181
11756.452
12078.23
12408.382
12820.637
13251.562
13734.463
14299.277
14849.75
15502.126
16129.409
16793.971
17445.32
18096.85
18750.293
19318.814
20017.102
20481.181
21500.877
21308.292
24315.217
299.41411
103.21183
352.85096
218.26047
264.05627
211.47337
215.33898
141.10005
177.41998
104.20456
109.20876
90.837221
56.717766
62.428686
24.098528
65.654664
30.035868
126.24487
116.92884
240.88867
198.33365
346.7928
330.44541
601.3735
466.43027
780.05578
705.67128
953.81456
967.4111
1191.091
1262.9424
1477.6492
1587.1023
1796.7155
1973.1356
2109.5457
2321.3098
2457.6726
2623.281
2780.0907
2879.0859
3041.5049
3179.1348
3332.6149
3459.7124
3643.2193
3787.0959
3973.4173
4139.3783
4335.5743
4518.1944
4729.8675
4947.9719
5187.7792
5453.0949
5737.9067
6051.5042
6373.2597
6711.5489
7055.5859
7383.2932
7696.3891
8019.0709
8261.1552
8539.184
8754.7479
8978.84
9179.0524
9370.1165
9602.3824
9733.6378
9979.1659
10221.339
10352.949
10528.267
10774.48
11099.296
11450.539
11876.043
12277.402
12843.33
13287.257
13985.996
14476.09
15280.364
15828.56
16706.012
17291.401
18205.383
18803.793
19791.91
20352.411
21431.932
21429.548
24182.754
114.29344
-217.60815
174.1678
-155.40105
19.946637
-109.21468
39.22402
-42.354998
85.978572
-25.730594
37.790262
-100.54589
-128.6225
-244.41839
-290.55584
-349.88286
-327.32125
-319.08542
-229.83066
-114.17442
3.5955435
266.32627
352.01074
431.83875
507.92787
646.06506
632.37336
815.08097
834.12715
1051.1646
1154.6583
1398.1584
1562.9582
1829.8606
1934.0812
2219.5427
2286.8595
2488.2942
2550.3926
2678.457
2774.4137
2896.138
3048.3895
3188.9268
3407.7562
3591.4671
3823.146
4021.4578
4249.6224
4441.4385
4658.846
4857.3406
5084.3749
5320.2042
5593.5811
5890.0792
6225.0402
6567.3547
6947.6915
7298.6305
7657.0426
7998.5413
8287.0702
8581.7847
8824.5588
9077.6267
9280.831
9501.2839
9731.4205
9923.6148
10192.366
10428.567
10690.895
10957.996
11402.774
11659.813
12028.704
12372.184
12763.714
13220.873
13665.531
14239.272
14762.209
15419.646
16029.633
16714.888
17366.322
18069.482
18708.446
19397.256
20022.642
20580.071
21462.082
21420.721
24102.05
519.84964
110.13618
509.80778
189.82678
367.07258
240.67669
306.01723
179.43947
242.58527
209.59578
214.67264
198.83071
226.0899
181.27686
218.79113
165.31153
228.25243
183.41862
303.59726
284.60306
371.032
378.71699
358.82208
558.99734
582.7955
745.33544
776.23083
975.95515
1007.9348
1221.3095
1289.6798
1493.5203
1640.4673
1780.9423
2025.2382
2132.9392
2334.4952
2473.8703
2610.2941
2784.1813
2901.2594
3066.4724
3178.4793
3357.9475
3473.0035
3661.3592
3805.7199
3998.2831
4162.6118
4359.2259
4543.5202
4749.3404
4967.1587
5204.933
5465.5282
5753.0103
6058.6135
6387.5399
6731.1033
7062.6991
7418.1584
7729.8184
8041.9148
8323.0278
8592.4803
8809.8037
9038.9616
9257.3916
9435.9464
9644.9484
9827.7051
10021.769
10228.016
10408.259
10765.54
10956.662
11329.752
11619.22
12095.478
12482.125
13064.981
13537.864
14216.172
14757.052
15508.292
16085.425
16902.194
17486.101
18331.248
18935.986
19768.145
20430.291
21333.727
21694.45
24109.621
312.58665
-186.41383
123.19422
-288.03146
-2.4714311
-235.38076
-46.284463
-174.5944
9.8835401
-130.92811
-104.46616
-209.14365
-227.98172
-381.46058
-297.95193
-496.64988
-227.11214
-448.5857
-79.073302
-245.40457
167.84753
-203.75694
190.03113
256.86965
356.86372
393.55628
470.56031
515.65832
564.79273
692.87654
781.89285
1018.7954
1119.206
1454.3998
1544.7876
1832.3396
1978.6758
2172.4732
2329.4555
2447.6954
2606.4778
2703.655
2895.4564
3030.7111
3248.3982
3428.1243
3655.2182
3835.6543
4045.404
4211.1937
4384.7854
4539.8788
4710.163
4886.8126
5101.0219
5346.0457
5634.1977
5961.9241
6314.6552
6690.0259
7070.1366
7435.3836
7783.7719
8125.4544
8405.3818
8707.2636
8968.7149
9209.1523
9454.3005
9698.6653
9941.6479
10198.044
10436.948
10775.004
11063.804
11394.588
11654.825
12072.844
12415.289
12891.391
13363.469
13924.047
14506.441
15159.798
15821.445
16548.011
17240.314
18004.669
18693.137
19443.164
20147.399
20770.949
21583.607
21873.863
23595.954
741.91557
-225.07337
174.78678
-12.647073
221.75059
120.47762
289.08211
228.64323
314.00861
331.37898
303.87847
279.05775
328.78839
198.81823
229.36717
222.8465
216.27864
247.88828
329.98193
386.68836
441.43301
683.42837
627.48238
669.82529
803.32924
894.12989
1020.7339
1159.1012
1317.1739
1491.8445
1711.9279
1868.8301
2159.1002
2332.8609
2604.4134
2806.9697
2970.2082
3149.6268
3222.809
3367.511
3389.3568
3518.7827
3541.3288
3674.62
3742.2435
3895.7835
4025.9751
4203.0543
4380.3732
4576.8796
4781.7644
5003.5907
5242.5791
5503.948
5794.3792
6111.5206
6458.0872
6820.5587
7198.351
7571.3466
7930.0489
8261.5114
8565.075
8817.0905
9038.3475
9234.9205
9384.5707
9543.709
9689.5569
9843.5055
9998.9001
10151.622
10394.901
10512.128
10799.958
11029.22
11337.357
11702.392
12118.52
12578.014
13109.914
13645.572
14254.253
14864.014
15526.726
16160.599
16856.887
17489.839
18172.564
18847.752
19498.811
20217.657
21146.634
21624.546
23662.439
844.68332
-113.23033
165.12225
-126.56784
-157.6523
-285.99273
-184.36937
-368.12714
-236.23655
-340.43445
-371.04642
-362.51317
-531.54583
-527.32501
-615.23873
-673.72657
-601.65865
-679.38303
-443.41077
-533.00702
-215.52791
-290.71211
20.917907
-44.283157
269.1303
100.92262
277.6237
198.65336
282.20795
370.58523
448.50104
696.0847
829.25429
1170.6437
1360.7128
1646.6451
1914.1503
2105.4322
2360.5656
2476.7599
2706.3063
2817.1192
3020.4528
3170.3982
3367.8562
3533.2167
3721.8054
3861.0815
4006.3144
4105.1011
4198.5681
4274.551
4363.465
4474.0998
4629.8334
4843.6167
5113.5132
5449.6338
5829.2493
6245.073
6668.7267
7100.4047
7491.1943
7877.351
8203.6421
8527.8013
8776.9466
9055.1904
9282.7246
9509.442
9701.1341
9978.3148
10099.305
10413.446
10579.604
10895.278
11132.708
11466.956
11807.28
12273.912
12745.169
13342.283
13968.848
14696.636
15422.736
16240.248
17017.081
17853.328
18643.771
19438.703
20200.346
20930.788
21666.543
22098.246
23323.004
1341.8201
-549.44183
-0.081691042
-491.03251
-78.94298
-185.17677
-63.885551
10.080489
158.7292
151.48785
270.89478
171.03766
287.67962
141.00853
163.84955
26.789285
112.81154
-24.779329
311.6595
193.75278
595.75119
563.22718
795.1179
809.00342
974.0612
998.30433
1193.222
1123.246
1318.438
1272.1308
1511.3425
1592.9598
1869.0848
2139.6877
2322.4465
2604.4747
2811.4672
3009.901
3110.2766
3265.9894
3292.067
3398.4324
3433.8594
3547.1386
3642.9647
3801.7673
3966.3252
4155.0163
4347.4018
4530.142
4702.5626
4858.5787
5012.7006
5166.6575
5347.4091
5557.5111
5814.9768
6116.7896
6462.2698
6835.8221
7224.1607
7608.8194
7973.3195
8307.4758
8608.2446
8877.4411
9121.8213
9361.2628
9542.2101
9742.2042
9988.7486
10159.45
10438.007
10646.569
10914.251
11172.067
11484.53
11806.82
12185.371
12611.124
13080.192
13628.108
14220.076
14864.775
15559.38
16267.111
17006.914
17722.075
18438.889
19123.644
19765.12
20422.256
21036.829
21770.277
22876.827
2426.8727
-1458.4896
159.09267
-729.66009
32.001785
-363.95452
25.712912
-69.762505
-142.04478
-243.93828
-578.34007
-673.60888
-824.80261
-961.27048
-756.87779
-921.4961
-428.3963
-642.88368
-11.154014
-375.27108
216.32615
-441.03114
-2.9753491
-631.05856
-296.28268
-479.93233
-110.50541
134.4817
727.93215
1333.7964
1972.6621
2661.6526
3258.0553
3796.8744
4089.145
4450.8094
4589.6709
4693.0711
4808.0079
4790.239
4880.5251
4889.328
4952.2932
4960.6562
4963.5084
4905.5406
4827.2009
4714.1623
4620.9199
4570.3337
4605.3003
4768.4426
5068.1033
5513.8759
6083.8457
6743.3743
7433.3153
8116.7974
8726.6744
9241.944
9631.2066
9906.5823
10059.781
10135.068
10149.975
10122.643
10058.209
10025.817
9911.5955
9981.4982
9872.7535
9952.5486
9911.4662
10068.581
10182.105
10488.317
10825.566
11319.456
11912.437
12607.472
13347.075
14182.604
14951.019
15790.805
16503.194
17251.78
17866.676
18514.684
19078.073
19664.053
20259.85
20900.096
21501.914
22342.303
22928.818
-126.85781
40.769582
-161.98269
-305.68144
-226.9025
-260.49295
-221.55754
-227.46004
-191.90122
-38.133846
-210.44656
-179.72414
-40.959254
-134.94861
-515.07481
88.933865
75.133922
-94.382025
-37.640061
-126.23076
-143.62304
-146.12006
-198.49251
-80.947496
-170.4114
-154.59636
-86.824302
-183.90742
-75.016138
-370.19544
-27.559869
-260.47836
-362.48374
-347.20486
-412.74495
-422.16881
-393.52931
-447.16713
-427.05342
-413.22974
-367.47383
-442.42517
-424.66979
-300.45019
-488.95048
-21.898387
25.90474
-45.337559
-132.43296
-116.29431
-146.89899
-142.97535
-166.80765
-116.02272
-137.85068
-108.83961
-122.89834
-61.478546
51.525033
-382.26008
-39.618121
-59.241565
-186.24287
-196.78945
-251.52276
-245.6938
-265.69292
-249.63717
-280.7601
-274.01024
-267.74043
-238.96424
-218.34497
-226.80869
-159.98965
166.80463
104.7457
50.854005
56.311822
28.048699
24.583592
-2.7854127
9.8913686
3.5670229
7.4128391
22.382658
-9.6080155
5.1138576
25.396491
-29.840169
24.042657
-8.250259
-51.124273
-92.648737
-89.579918
-114.44724
-114.15567
-132.09353
-129.39006
-114.01583
-114.60634
-65.325119
-49.672801
6.8125806
-33.223348
178.81708
168.40537
119.29726
128.69648
102.29931
99.994567
88.086661
85.014089
90.956689
66.434757
78.077024
63.630611
42.304331
35.868641
9.3447999
-36.736915
-31.654998
-111.49538
-106.79255
-133.34015
-144.29531
-148.64073
-136.23584
-149.11441
-114.21704
-117.36496
-65.773462
-70.123419
25.694797
-28.147118
257.9012
214.79096
151.30112
170.67984
128.03434
130.07635
128.55941
119.77472
117.68118
82.030237
126.16753
74.094993
65.226457
96.488689
-46.45926
-203.62013
-159.85903
-264.9806
-253.24501
-298.44314
-254.2438
-300.01482
-255.14529
-288.75554
-207.61818
-226.96361
-209.05572
-169.89
-53.868318
-198.11443
-51.319153
-55.168119
-81.950651
-168.12928
-142.85521
-229.82708
-199.16141
-234.37434
-219.22197
-215.01448
-205.77952
-159.98985
-175.41637
-102.31959
-230.36918
-495.3214
-78.894988
-507.289
-400.43436
-527.30668
-477.27909
-591.78258
-495.3215
-470.66281
-445.6835
-410.1737
-456.80767
-442.09411
-187.53296
-324.21986
-65.28329
-167.79977
-350.43082
-372.68269
-479.25977
-511.66154
-397.02988
-347.25521
-386.91959
-555.98974
-496.54321
-600.30302
-617.70149
-508.43894
-853.00456
-742.57224
-762.86731
-1246.0586
-1281.158
-1392.284
-1329.5375
-1318.3247
-1233.5438
-1433.4469
-1373.9353
-1467.3756
-1376.9383
-1226.6206
-771.70416
-1034.6969
3121.7633
5973.2278
3793.4298
4947.2636
5471.6689
4659.355
5194.1933
6078.8797
4645.7049
5193.9995
5143.8666
4986.0445
4863.5144
5347.3921
3201.959
5283.5657
1951.8231
3499.4684
3707.2095
2867.8305
4463.9651
4077.7045
3925.5349
4432.2478
3029.1855
3419.1057
2526.479
2915.9769
3862.6985
4004.1104
754.84105
693.32707
-152.76171
181.73844
1789.7767
-133.68258
-204.09112
-240.04049
-1532.8243
480.18697
-307.70937
1651.8304
324.92879
-848.94801
546.28321
-243.57905
583.35547
563.39103
-942.51587
-781.59901
-414.16965
-827.45862
-334.35072
-197.81805
-1173.6053
-381.02817
-881.12448
19.138136
391.75313
-285.46562
2010.3075
1054.9157
-386.75801
1317.1959
262.49337
528.06133
899.74322
555.1077
786.79602
1883.6378
547.66363
1143.4536
63.175701
552.73027
1837.3642
-1167.966
-399.76728
-207.76248
-598.67466
-625.77657
-624.47518
-976.98017
-992.47048
-905.02662
-1582.3215
-776.55014
-1092.8455
-790.89748
-66.910993
-741.09326
243.83423
614.58545
296.01445
16.06654
-24.832152
218.1833
322.8437
217.61219
330.28463
442.63679
-28.43386
336.06543
100.87461
12.442684
888.46886
-6.7211896
-303.20607
-166.92113
67.289509
199.65237
-144.28213
-96.198669
35.792891
-326.40688
162.71283
73.870845
102.59587
113.92263
-156.36162
1040.6044
216.26032
761.14371
604.67763
877.46374
340.2449
671.90449
537.51277
657.61196
572.13391
525.38484
537.57921
379.51467
507.1943
698.96869
479.88537
802.49102
307.25015
466.71326
338.21513
442.20785
198.64467
300.18453
215.80975
48.584493
599.47002
-7.0798443
746.76727
323.83136
482.81596
1334.8712
943.99341
1214.9825
1014.4126
1333.7601
1118.1143
1410.7818
1240.0126
1308.9308
1523.9741
1025.8661
1707.6688
1211.6704
1474.5512
1549.3848
1757.8532
1621.2173
985.014
1154.3664
985.60804
935.96536
786.42778
684.6382
598.21102
303.28758
639.71774
262.16129
597.61657
482.38066
520.17557
1545.11
1560.5876
1503.4165
1095.5674
1521.7729
1285.5043
1421.2503
1483.3689
1369.0244
1652.7762
1514.7735
1785.5296
1598.5122
1787.9204
1900.6801
2166.9511
1694.5355
1325.828
1404.208
1052.7251
1090.1166
1186.7777
917.03384
786.97771
403.90582
479.06075
198.54745
448.04182
340.36571
200.97504
1566.1127
1690.8393
1086.4556
1058.2297
1501.4435
1443.7181
1171.8254
1207.0544
1210.1225
1519.982
1498.1986
1879.0956
1700.1621
1912.5623
2011.6438
2370.286
1303.5088
1216.4637
1232.8383
1181.4909
665.17926
1230.2774
759.87928
791.86389
295.98287
393.2866
-79.884109
135.15087
36.697215
37.892573
1181.4325
1042.4818
570.11349
606.98885
883.24958
1147.9545
842.91011
909.73143
738.88652
1196.989
1079.623
1502.711
1397.6481
1335.767
1193.4983
2206.547
823.48407
930.23665
692.69075
809.06027
453.42468
800.11855
501.1447
777.17226
360.26727
511.92893
64.858166
38.666498
75.882077
-64.722391
413.88329
963.11811
712.39117
967.34325
774.96809
1007.6571
670.91546
1229.0037
683.45438
967.98685
878.82043
859.13311
1077.3775
1201.4763
1076.147
2138.6151
611.8236
750.62121
532.34065
963.68445
711.43912
1060.4081
670.15005
859.58672
725.75186
720.34851
1018.1187
724.12993
547.60593
412.87709
942.37536
1373.4828
1114.4494
1313.8448
1098.6475
1158.6429
1009.7648
1268.7348
1145.3365
1185.484
1032.3775
1061.529
1090.6585
1696.7681
1241.9439
2186.7374
1288.675
1505.645
1191.9007
1570.2287
1282.9992
1709.8395
1168.9397
1504.4233
1004.5032
1785.1858
1303.5415
1639.116
996.53358
770.36218
2523.2341
2372.7639
1573.615
1866.6995
1568.5089
1740.4475
1603.6118
1764.0532
1490.1347
1869.6741
1552.5251
1390.947
1471.6468
1607.5697
1666.4275
3157.2065
2267.9795
2269.2347
1918.0048
2166.7772
1882.5982
1811.346
1641.5404
1728.5002
1662.9087
1652.8169
1875.6478
2071.983
2094.3036
1712.3728
4082.8952
3230.775
2212.2062
2112.0818
2014.9596
2189.7623
1960.1885
2247.7237
1998.5173
2052.3985
1983.6643
2148.846
2288.1658
2112.7609
2059.4313
4135.2639
3013.2565
2462.8122
2394.4418
2414.9268
2219.3558
2378.0411
1922.4303
2084.5147
1895.4273
2036.2395
1829.6747
2005.6477
2710.391
2554.3422
4075.938
3230.8302
2526.4893
2563.8488
2339.7487
2341.356
2024.9275
2175.5288
2078.8424
2121.7245
2113.0165
2288.6986
1715.4235
2178.8717
1668.251
4476.8436
2956.8684
2306.2498
1795.0646
2478.6399
1657.0713
1856.9421
1798.7125
1757.607
1869.0323
1824.8641
1957.2048
2417.2386
2090.881
2242.8753
3607.9247
2752.2459
2286.74
1859.9917
1723.9428
1794.7709
1792.72
1728.9466
1677.7851
1646.7413
1719.6037
1710.0031
2012.62
1919.657
1508.1388
3994.4989
2148.7042
1727.6806
1785.9582
1785.2444
1605.2804
1569.5729
1460.48
1543.5542
1407.4856
1397.4538
1272.8456
1282.2949
2045.9495
1326.1795
2588.6165
2340.3335
2076.3779
1969.9883
1708.04
1816.2828
1076.9954
1567.5753
1296.2697
2005.7928
1451.7092
1415.8221
1444.4486
1156.924
1247.7728
2172.2021
2032.2438
1707.0297
1499.5941
1559.885
1378.039
1571.0397
1419.9982
1527.8093
1186.1234
1306.5131
1274.9789
1377.4708
1319.5605
1356.316
1965.3817
1719.1595
1578.23
1590.1833
1572.3944
1624.3218
1479.8572
1576.8077
1380.6234
1541.6526
1441.1392
1553.8795
1461.0516
1450.2696
1514.2702
1598.9622
1670.5995
1756.9206
1691.2812
1781.5415
1682.8608
1707.6976
1626.8887
1729.0317
1638.5747
1728.5936
1613.9838
1727.5763
1617.8285
1630.8449
1604.209
1779.8187
1893.7455
1915.1207
2051.923
1934.9698
1932.8221
1992.5647
1946.9189
1980.0129
1984.3306
2056.7549
2021.8836
2021.5725
2097.9333
2102.1934
1820.5595
2179.338
2310.7064
1950.2555
2305.4566
2209.4114
2249.9193
2187.3301
2383.1622
2105.0851
2373.2355
2255.2433
2339.6618
2320.0296
2313.2602
2057.177
2474.5218
2645.2617
2659.2532
2652.03
2496.378
2624.7655
2499.4
2536.3807
2889.2592
2540.0153
2673.3049
2489.215
2667.8374
2507.4962
2569.2843
3065.3363
2898.9006
3004.0594
2816.3282
2908.404
2788.673
2833.0187
2857.6302
2672.1417
2811.7633
2794.5445
2900.288
3008.7197
2557.6238
2990.7533
3099.937
3126.1188
3059.3987
3150.5742
2977.6145
3061.499
2991.1079
2967.7563
3047.3119
2989.5113
3149.1246
3023.1595
3082.6612
3032.5049
3018.9171
3359.0304
3188.9712
3335.2951
3149.1171
3166.564
3106.4945
3071.0354
3120.1323
3042.2022
3148.349
3111.7018
3068.4748
3272.1522
3087.3761
3272.7025
3444.0075
3369.5012
3322.9364
3312.9362
3203.3759
3204.9975
3183.6045
3135.8389
3188.1377
3128.6144
3206.9248
3154.9436
3258.608
3199.112
3265.5309
3530.8323
3280.4814
3388.5646
3272.8045
3215.1693
3217.2444
3131.6689
3178.3379
3122.9697
3131.659
3223.5185
3080.4911
3268.6423
3299.137
3382.5859
3520.8195
3369.3818
3388.3179
3321.3767
3254.2565
3234.7913
3210.4939
3186.9765
3180.9749
3176.4606
3227.1096
3105.031
3290.8803
3413.9456
3393.365
3607.2973
3356.1968
3423.6569
3345.513
3266.9632
3288.6627
3219.8523
3227.8783
3227.5286
3178.3308
3294.6774
3145.3225
3328.2869
3641.9596
3591.6743
3694.2175
3488.7487
3550.0988
3469.1629
3409.338
3418.0056
3367.2057
3380.2095
3353.9259
3340.5317
3444.9585
3295.7949
3468.0942
4011.7334
3812.9042
3889.9651
3666.2733
3718.3187
3638.9321
3569.6694
3590.0311
3544.6169
3535.6242
3557.3306
3513.3421
3647.3599
3527.6164
3658.0949
4522.6755
4197.7644
4160.9974
3940.8143
3992.5953
3916.9016
3845.1839
3874.1223
3807.9869
3831.4337
3830.5991
3795.2022
3950.4504
3851.0485
3928.5699
5146.7741
4655.4474
4489.1257
4275.69
4310.2345
4206.4563
4121.8508
4134.8475
4094.9281
4094.4148
4117.7531
4089.5778
4258.6498
4207.4485
4225.2962
5831.8885
5155.8713
4846.7304
4631.6161
4633.6455
4536.4618
4444.3275
4482.5421
4414.7276
4425.5214
4448.0501
4415.4694
4590.2318
4578.0225
4524.6031
6469.3619
5652.2466
5184.4526
4961.2486
4952.3055
4831.4811
4723.3699
4723.8201
4662.1536
4668.6746
4693.3651
4672.4745
4850.2675
4885.79
4765.9657
6996.3019
6049.5535
5444.2095
5230.8618
5182.2606
5058.6763
4938.4093
4966.1023
4902.1937
4903.2788
4923.8399
4899.7224
5061.7062
5114.2751
4946.4164
7316.7963
6314.4129
5619.5874
5397.9871