/*--------------------------------*- C++ -*----------------------------------*\
  =========                 |
  \\      /  F ield         | OpenFOAM: The Open Source CFD Toolbox
   \\    /   O peration     | Website:  https://openfoam.org
    \\  /    A nd           | Version:  6
     \\/     M anipulation  |
\*---------------------------------------------------------------------------*/
FoamFile
{
    version     2.0;
    format      ascii;
    class       pointScalarField;
    location    "1.85";
    object      p;
}
// * * * * * * * * * * * * * * * * * * * * * * * * * * * * * * * * * * * * * //

dimensions      [1 -1 -2 0 0 0 0];

internalField   nonuniform List<scalar> 
3969
(
6352.2972
-30864.589
70.292806
169.73164
125776.02
63727.713
182.53208
24.871911
36613.645
17562.225
9630.5103
-10785.749
-19570.602
-32935.765
-37656.569
126.91152
-153.50022
10.55134
57.999889
179.71259
288.88237
228.49509
13559.309
11944.785
19406.829
20221.713
25762.314
26265.642
31948.267
31525.479
35633.296
36545.635
38116.167
38455.084
39876.959
39340.505
38981.388
38771.677
37264.623
36384.556
34507.65
33303.102
31121.213
29273.823
27107.186
25284.161
23104.907
21138.134
19388.207
17680.253
15712.24
14390.306
12785.267
11445.672
10286.76
9154.491
8035.0688
7348.8691
6521.2268
5461.0756
4878.9253
4177.1974
3545.8208
2994.8865
2481.3911
1963.7135
1438.5767
905.16739
446.29702
-8173.4843
-16935.351
-18383.489
-24225.583
-24459.1
-28834.901
-29457.108
-32975.676
-33530.057
-36863.638
-37668.466
-39151.685
-40437.613
-41609.933
-42247.033
-42774.193
-42756.576
-42265.03
-42353.762
-40410.404
-40443.372
-37658.739
-37224.438
-33812.331
-32485.85
-29093.201
-27831.874
-24119.557
-21760.119
-18815.829
-15996.591
-13464.969
-10820.566
-8561.282
-6294.6023
-4448.0673
-2697.8128
-1218.7892
-108.09609
885.50116
1378.5605
1802.94
1925.9892
1970.3072
1676.4274
1317.0043
713.8017
120237.4
107060.16
89710.081
61849.457
47494.428
21633.539
3746.5201
3937.8479
-2157.2097
-7576.0486
-13826.053
-11476.136
-18307.623
-16903.711
-21905.296
-19354.51
-26428.535
-26461.674
-24487.988
-27887.838
-23631.916
-28032.434
-22028.216
-25145.309
-20408.42
-21402.297
-17944.08
-17328.496
-14506.005
-13197.265
-10807.131
-9326.682
-7362.5493
-5628.0289
-4370.4191
-2841.1519
-1354.5512
-501.42333
691.75833
1654.3215
2240.6467
2689.9083
3264.9492
3657.53
3542.8329
3708.4488
3664.9414
3410.0281
3198.5692
2736.3454
2336.4569
1801.7591
1256.7198
513.71163
149.47094
236.99532
278.9055
222.02003
-105.34195
-23.041988
94.726759
284.77063
809.59062
1517.8776
2261.3276
3194.3553
4308.5343
5521.3349
7067.0911
8608.6284
10523.821
12367.333
14960.165
17126.991
20094.615
22749.629
25898.781
28859.065
32028.278
35419.315
38443.656
41337.801
44735.716
47161.814
50520.35
52009.947
54956.823
55902.488
58633.706
58608.089
60490.509
59820.162
60774.294
59322.731
59516.433
59541.883
57283.065
54915.636
53798.856
50606.904
47846.342
46748.59
43044.609
40827.86
38428.097
33378.642
28895.109
26994.144
12235.998
15792.996
25951.08
29471.355
35600.64
42631.119
40152.929
-12262.25
-9507.5341
-4580.8447
1266.5377
14191.18
25098.854
38829.516
164.44977
252.004
114.06376
145.63189
38.205215
160.69464
191.91528
140.17549
65.639126
62.414878
-53.730041
-117.2874
-65.184835
50.37977
10844.013
9321.41
13657.471
17383.061
19433.052
23069.444
23909.751
26535.487
27452.924
28587.091
28534.616
30381.085
29097.293
29735.739
28690.954
28475.909
26790.655
26272.924
24469.07
23447.67
21560.076
20448.861
18739.764
17470.77
15685.681
14743.053
13261.285
12166.706
11037.356
10136.638
9252.7245
8585.691
7918.1254
7297.5112
6836.0039
6315.3122
5884.3133
5433.0432
5120.8771
4626.168
4247.2862
3734.3705
3221.3639
2584.0898
2015.6352
1325.4379
728.06912
6734.5885
3174.1952
8483.8185
9272.2985
10970.236
13805.751
15369.772
16575.747
17733.583
18220.763
19105.18
18934.369
18814.167
18823.884
17738.461
17428.728
16234.255
15804.635
14327.141
13535.478
12236.757
11250.903
10237.635
9211.6343
8479.0226
7785.8603
7276.854
6793.8482
6219.5517
5988.6171
5662.1437
5463.8771
5265.3416
5140.4314
5021.6147
4863.5044
4740.1076
4497.4643
4336.409
4030.0256
3718.0348
3371.3749
2897.6752
2511.7002
1964.1118
1378.6048
728.39357
1561.1219
228.07547
4238.0127
4322.1009
5900.2043
8177.5796
8961.9869
9407.4303
9641.9882
9854.5824
9053.5277
9843.433
8699.1948
8366.0664
7009.6793
6924.2129
5680.2017
5613.6528
4189.9008
4347.1313
3310.7505
3718.5349
2765.554
2955.6786
2639.2835
2682.9578
2364.3951
2454.9623
2450.9459
2706.0634
2738.3928
3069.7392
3242.7964
3554.6854
3682.0754
3893.0986
4019.418
4005.3186
4026.5809
3921.0661
3735.8526
3495.5018
3063.1697
2719.9845
2030.7166
1545.829
705.37252
-2010.0053
-5807.1473
-2722.1233
-3729.1783
-3180.9712
-2512.426
-1505.9193
-2164.1277
-976.97741
-2823.3304
-989.55954
-3100.1323
-2841.3082
-3734.198
-4567.3284
-4498.9288
-5641.2328
-5486.0508
-6389.4485
-6267.2664
-7011.9955
-7285.8409
-7784.1879
-7109.4281
-7212.4204
-6321.6986
-5808.3664
-4896.2352
-4093.0692
-3187.1389
-2393.2048
-1391.7881
-588.26683
254.68768
975.75766
1633.9332
2199.2647
2596.6841
3051.0682
3221.4496
3183.2077
3116.2533
2767.4095
2498.589
1961.5653
1466.2277
729.5102
-7312.1592
-8154.0585
-6375.9925
-8093.3632
-7298.2686
-8071.2805
-8341.3476
-9319.0693
-9854.0879
-10400.894
-10987.936
-12224.783
-12294.511
-13411.268
-13573.7
-13961.673
-14812.561
-14265.097
-15169.9
-14548.024
-14661.116
-14110.929
-13900.604
-13636.959
-12226.991
-11106.677
-10386.099
-8843.9693
-7856.4
-6342.497
-5254.9029
-3743.8839
-2708.3592
-1421.3541
-428.49964
476.16944
1311.7798
1797.3287
2224.2016
2716.8437
2852.1961
2836.6241
2584.2942
2426.7732
1794.6885
1519.1327
645.91751
-9490.2423
-12739.344
-13636.814
-14908.977
-16544.931
-17833.293
-18715.106
-20396.345
-20701.473
-22291.66
-22429.419
-23407.884
-24743.51
-24797.456
-25935.454
-25741.369
-26596.775
-25717.559
-26596.463
-25081.728
-25313.325
-24181.857
-23377.5
-21397.627
-20650.73
-18343.825
-17173.324
-15157.38
-13342.962
-11477.801
-9544.6725
-7738.8807
-6022.6715
-4305.8211
-2920.6266
-1481.691
-366.82361
631.18571
1440.2754
2000.1379
2218.3709
2423.2425
2378.1231
2170.7608
1803.4089
1415.8947
710.41863
-15063.864
-15321.557
-17611.046
-21042.666
-21574.851
-25468.565
-25355.686
-28885.702
-28815.91
-31801.238
-32264.132
-33876.595
-34516.674
-36257.211
-35734.487
-37093.941
-35984.439
-37028.496
-34991.133
-35363.162
-33267.391
-32714.792
-30524.122
-28865.741
-26974.898
-24169.627
-22474.47
-19896.945
-17472.183
-15112.041
-12694.292
-10425.039
-8286.6281
-6192.5827
-4428.4772
-2709.1012
-1278.2549
-257.36231
888.79569
1422.2886
1859.4128
2109.5435
2099.9143
1969.8493
1660.165
1307.1471
668.52347
26454.15
29285.488
34216.962
37764.806
40263.383
45109.851
43403.941
15822.494
18361.027
23202.559
24603.229
30815.981
36850.358
38891.291
10415.59
15180.585
19579.529
24286.621
28854.529
31836.724
30851.159
-3116.9002
-2873.0435
3864.7276
7651.1875
13016.871
19176.978
23207.73
-10868.665
-5308.2267
-14.862585
4353.8888
8063.979
12141.608
16305.05
-17813.038
-18675.756
-12310.356
-8428.9048
-4273.8272
-780.05018
4884.7435
-28547.999
-18269.599
-15588.46
-11763.891
-7025.3773
-4187.8434
-688.89652
-8840.3007
-5622.0604
-4106.5702
-1944.7535
717.08667
2987.868
5529.4626
-17928.533
-18515.601
-16474.624
-15715.278
-13957.887
-11332.222
-8363.3073
-17010.816
-14346.711
-13849.762
-12771.967
-11515.932
-8841.7553
-9055.5441
-24629.668
-25284.751
-23804.077
-22701.039
-19746.87
-17950.715
-14160.129
-24951.143
-22128.691
-20076.092
-18541.079
-18158.206
-14643.328
-15178.692
-28945.901
-27576.248
-26043.356
-24469.847
-22145.845
-19951.146
-17624.59
-30792.363
-28685.72
-26841.713
-25615.449
-23232.856
-21427.588
-20625.574
-32775.649
-31076.748
-28631.189
-27905.411
-26458.001
-24433.277
-22230.88
-35548.472
-33453.077
-31483.339
-28995.393
-27480.71
-24757.678
-23592.243
-36513.54
-34800.626
-33150.149
-32256.393
-29772.44
-27254.646
-25414.894
-38587.02
-36925.884
-34393.789
-32841.62
-29741.685
-26856.363
-26523.451
-40313.848
-38017.243
-36185.701
-33979.543
-32134.754
-27548.575
-27794.761
-40857.012
-39083.625
-37779.028
-34699.925
-32648.235
-29089.57
-26887.926
-42198.734
-40067.493
-37740.445
-34176.781
-33068.958
-28066.706
-27516.922
-42735.585
-40118.322
-38448.924
-35082.751
-33259.999
-28856.753
-27294.682
-42663.283
-40436.458
-38358.441
-34147.848
-32647.89
-27184.469
-26247.507
-42815.717
-40016.008
-37806.364
-33619.531
-32035.516
-26947.581
-25870.159
-42097.767
-39083.748
-36920.586
-32534.326
-30767.654
-25139.633
-23990.132
-41401.623
-38419.856
-35945.1
-31672.634
-29737.031
-24398.767
-23265.656
-40230.704
-36687.275
-34507.342
-30017.169
-27978.985
-22350.716
-21063.484
-38683.998
-35704.607
-32929.302
-28711.69
-26401.175
-21067.592
-19784.746
-37131.547
-33410.187
-31113.004
-26638.533
-24461.454
-19010.807
-17623.255
-35077.072
-31998.078
-28971.781
-24915.623
-22437.67
-17317.458
-15827.734
-33130.524
-29259.966
-26583.459
-22648.825
-20356.213
-15263.937
-13900.313
-30488.315
-27431.673
-24032.257
-21203.812
-17911.913
-13663.012
-11944.568
-28502.766
-24581.505
-21540.16
-19087.898
-15599.001
-12152.352
-10227.625
-25256.661
-22409.325
-19327.913
-16700.522
-13811.457
-9878.8106
-8819.159
-23148.394
-19938.03
-17189.713
-14111.534
-11624.388
-8123.727
-7035.0356
-20242.36
-17459.126
-14813.475
-12276.759
-9869.7897
-6577.915
-5395.9622
-17489.239
-14814.906
-12611.374
-9936.9816
-7755.1875
-4711.7032
-3495.1281
-14903.018
-12385.765
-10301.592
-7891.8741
-5935.9082
-3207.8888
-2146.6102
-12250.982
-9996.5027
-8138.5439
-5944.6467
-4196.8915
-1803.4494
-798.30397
-9885.9287
-7785.3114
-6190.3787
-4207.4473
-2695.148
-569.26001
368.91466
-7578.5019
-5763.3763
-4325.4085
-2577.1566
-1218.2319
602.94963
1389.3808
-5558.2211
-3902.4635
-2750.6001
-1213.9623
-87.730854
1440.3854
2089.4561
-3636.4164
-2318.7735
-1288.9466
29.906305
1006.9472
2078.5799
2731.3268
-2196.8773
-1019.5075
-215.28441
912.60474
1626.4739
2732.814
3259.2492
-687.67172
393.07804
1044.7705
1943.6976
2552.7335
3244.8174
3675.2625
333.50701
1092.0584
1539.2999
2342.0412
2776.6536
3341.8591
3620.1113
1205.9076
1781.0825
2218.6589
2771.4048
3153.3679
3542.164
3763.0273
1725.0109
2208.8521
2466.7261
2915.9221
3197.0164
3404.6327
3576.7513
2061.6935
2531.205
2680.8219
3015.7403
3205.3233
3310.9047
3452.8238
2173.3766
2451.627
2542.6717
2763.4263
2921.1981
2928.8996
3061.2482
2116.4061
2345.8293
2451.3305
2583.6527
2704.8408
2626.0062
2708.4484
1789.4998
1923.134
1961.1763
2021.0213
2079.6006
1995.5618
2113.3674
1451.2992
1544.2802
1587.5912
1588.2458
1657.3184
1592.181
1653.3467
751.43644
642.78502
654.79075
648.55878
726.31204
602.76647
673.60417
41.811531
121.20398
13.444426
-12.580939
-102.97334
-96.78076
-143.54771
-247.37287
-374.74887
-445.13882
-454.39128
-561.08567
-440.75267
-313.62455
-26.55914
-29.753002
-105.67823
-138.85065
-213.37386
-167.05512
-72.059064
-44.620745
-134.70584
-188.44376
-242.37451
-280.54141
-168.61855
-78.452915
113.64414
145.4436
47.984136
65.325719
38.373937
31.403284
190.68411
203.80945
312.95425
252.89865
139.33688
148.66485
203.90198
347.01115
169.2236
66.239287
-7.9389213
-37.865787
4.99777
-39.599384
45.205462
13828.937
15662.25
18679.197
21185.956
22613.465
27473.521
25455.653
15797.97
16957.912
19929.156
20500.325
24670.248
25625.68
28500.51
22774.184
25842.997
27730.872
29767.302
32163.07
30908.995
33391.425
25003.507
24293.302
28000.043
28681.721
30609.966
33247.582
36885.604
27791.651
30266.768
32511.944
33709.969
36348.38
36033.717
39156.784
31000.785
30603.05
33983.76
35193.68
38806.281
39925.493
43294.663
32964.561
34965.823
37216.441
38097.65
41031.412
42303.584
43882.915
36354.678
36461.703
39767.277
41733.314
43362.5
44180.483
48107.954
37301.479
38549.579
40939.784
43611.303
45364.712
45962.451
49181.867
39145.887
40686.184
44182.527
45011.962
48073.503
48551.057
52702.314
40344.476
42139.687
44248.537
45922.991
48501.306
49781.715
52600.418
41668.413
43028.936
47180.348
48247.115
51126.641
52106.316
55622.142
41649.217
43966.972
46538.346
48402.549
51262.588
52593.292
54776.644
41875.794
44239.901
48036.082
49203.489
52713.943
54086.611
57881.886
41569.961
44151.26
47385.02
49214.426
52224.996
54030.418
57614.454
41250.086
43993.211
47519.715
49541.063
53251.908
54037.552
58387.495
40185.637
43018.038
46349.953
48608.197
51837.031
53218.268
58070.994
38951.072
42069.85
45976.415
47836.979
51844.435
53459.37
57955.278
37607.103
40516.173
44248.038
46535.705
50343.411
51757.562
56391.192
35824.142
38985.753
43083.54
45340.343
49334.71
51148.137
55885.602
33997.662
37063.931
41069.023
43272.265
47281.831
48958.798
53650.559
32005.337
35051.169
39099.692
41478.133
45712.275
47617.148
52374.72
30057.544
32986.583
37109.485
39506.489
43570.38
45282.236
49651.202
27768.931
30895.413
34746.71
37275.644
41257.671
43099.939
47529.263
25720.121
28698.342
32318.93
34901.493
38575.619
40392.16
44662.916
23552.007
26663.689
30123.445
32655.319
36259.361
38025.78
42207.506
21770.691
24381.682
27790.301
30040.637
33597.52
35208.248
39248.878
19710.79
22307
25424.854
27526.041
30868.449
32462.832
36069.51
17825.243
20108.883
22963.993
25097.575
28289.564
29635.111
33194.898
16176.643
18168.672
20945.275
22686.494
25622.271
26850.325
30211.046
14406.976
16236.907
18638.08
20281.38
23014.125
24125.986
27176.701
13025.132
14445.278
16733.802
18109.161
20681.625
21544.841
24378.216
11583.322
12748.604
14745.264
15963.23
18202.608
18972.738
21539.848
10271.848
11180.286
13068.179
13975.463
16016.405
16571.707
18907.849
9110.5398
9772.0772
11286.207
12107.208
13884.185
14647.439
16687.781
8135.9441
8576.6944
9966.162
10579.662
12136.392
12565.104
13753.618
7005.3237
7211.835
8268.0941
8895.4517
10022.336
10520.892
12006.696
6086.1261
6065.8307
6979.4478
7449.3204
8560.4014
8859.8297
10076.774
5416.9621
5271.1981
6139.743
6275.926
7235.0697
7297.8267
8375.1482
4650.8353
4259.036
5006.2964
5031.4416
5892.6222
5954.0961
6865.512
3929.0904
3531.8319
4132.7925
4050.4865
4804.9457
4711.2461
5546.7237
3272.4336
2737.5064
3255.6686
3142.3269
3728.3871
3688.2199
4343.8593
2590.5606
2189.674
2540.3657
2379.2499
2852.1585
2786.4146
3330.7946
1907.3748
1489.0001
1747.1354
1594.6565
1926.886
1860.4143
2370.2064
1376.1128
1105.8979
1198.1939
1103.8376
1275.1665
1328.6188
1647.493
780.83314
540.29981
648.76012
515.13021
660.73557
655.65965
820.83511
511.85661
404.54843
343.6538
292.72403
348.02235
300.60683
422.72466
36166.233
31095.291
28816.125
30697.148
33634.239
35616.412
38419.822
40147.518
43132.096
44111.886
45953.498
47308.559
48691.088
48520.846
50848.569
50418.806
50581.587
50010.68
49816.616
48600.893
47719.889
46099.995
44539.717
42419.165
40230.291
37998.528
35462.798
32978.092
30199.562
27573.283
25085.54
22466.63
20063.699
17660.689
15482.339
13221.825
11563.264
9945.7616
8351.7702
6905.5076
5657.0128
4570.1709
3610.2015
2754.326
2018.3406
1283.258
814.50335
27270.377
27062.493
19349.182
25231.509
28099.863
28966.525
31448.665
33543.755
33519.344
36808.097
36361.62
39177.916
38662.822
40169.432
40447.285
41557.173
40878.362
42126.046
40722.123
41120.584
39630.604
39277.486
37537.175
36567.118
34577.116
32665.452
31690.873
29249.761
27179.681
24991.814
22790.187
20622.161
18544.589
16425.114
14606.127
12608.098
10944.907
9308.4593
8088.3667
6586.2154
5529.5864
4388.2969
3482.3396
2579.2715
1852.6585
1106.2785
630.11124
25916.969
26175.469
15735.255
22069.993
19268.625
20356.102
20250.756
22473.15
21886.39
24288.501
23744.341
25706.554
26081.291
27215.618
27571.304
28184.539
28665.72
28759.957
29001.15
28829.402
28694.358
28220.098
27592.133
26840.843
25778.473
24808.4
23561.058
22107.046
21079.903
19305.292
17945.017
16372.006
14858.496
13409.559
12024.778
10559.915
9341.0765
8158.0331
7073.4728
5993.2346
5111.1596
4219.0162
3464.7318
2682.0337
2082.8214
1378.3493
831.18972
20503.513
18445.21
10547.888
14742.264
12775.323
15020.423
12795.329
12988.309
13793.095
13638.618
14001.597
16067.461
14462.627
17918.672
17117.672
19899.492
18906.551
20597.168
20015.754
21074.405
20562.919
21047.916
20544.463
20615.059
20020.022
19498.625
18655.214
17852.23
16967.829
15859.021
15035.695
13673.842
12678
11517.074
10387.862
9313.302
8285.6809
7275.2592
6376.3757
5433.1202
4635.5628
3901.2584
3154.4278
2477.1834
1849.0332
1193.0555
551.54967
14046.586
13612.857
6028.1668
11225.056
5431.3238
8053.1021
5232.4899
6125.8687
4709.2376
6239.6647
5358.4402
6516.0345
6177.0493
6209.0535
6816.6677
7438.0145
8355.1356
8892.7398
9925.7286
10457.206
11001.615
11603.296
11878.181
12305.455
12077.593
11832.01
11867.532
11630.017
11449.99
11132.082
10803.159
10122.479
9757.3181
8993.633
8414.1255
7709.6001
7049.8169
6356.9744
5734.1328
5013.319
4461.2699
3763.1225
3193.0774
2524.0457
1970.6281
1330.675
711.76971
10380.038
6362.4363
3045.7317
3108.1284
-755.47005
-62.107643
-3283.5688
-3221.1731
-5659.5396
-6353.2739
-8430.0001
-5856.0468
-8613.3128
-5657.2341
-7146.0602
-3968.0082
-4945.1115
-2390.4154
-2398.231
-590.58979
-10.645632
1632.3847
2271.3615
3872.5643
5084.2739
6162.2609
6216.5622
6915.7941
7063.7761
7268.9964
7346.3047
7262.0623
7175.5764
6872.4967
6608.3325
6298.4666
5850.5995
5450.8153
4945.3554
4538.852
3940.3992
3488.5503
2898.6197
2402.2027
1809.1227
1329.1894
599.5466
3347.3668
2700.2791
-692.6457
-1862.2234
-6571.1156
-6680.2418
-10704.345
-11501.517
-13695.114
-14482.764
-14851.006
-17080.197
-16578.199
-17100.858
-16049.459
-16003.075
-14129.272
-13760.54
-11504.754
-10770.647
-8602.1256
-7540.8306
-5586.9409
-4221.5231
-2932.3897
-1378.2189
595.66115
1805.5186
2658.4878
3410.7799
4133.7534
4463.5991
4863.2683
5086.7336
5199.7851
5177.4877
4909.0323
4725.1458
4631.4456
4129.9059
3851.9148
3298.4843
2920.604
2304.7039
1810.2447
1185.9398
754.73011
15204.278
19668.846
21525.424
23490.72
29110.069
31520.261
33292.062
16786.812
20807.054
23446.891
27338.732
29606.299
28522.695
28601.304
16923.882
18762.297
21656.939
24172.16
24715.896
27100.629
31947.319
19397.799
23224.142
24904.112
27628.028
28814.731
31972.181
29486.591
20783.116
24210.945
25716.223
28129.176
31438.02
31545.068
33647.858
24018.736
27922.698
29094.479
32415.45
31419.821
34574.058
35077.495
24940.852
28861.463
29993.302
32634.647
34532.074
34950.327
37048.837
27617.984
30932.558
31532.626
35093.545
35795.31
38512.858
40298.991
27979.577
31815.636
34150.428
35458.88
36764.953
40189.293
41119.611
29988.441
34765.567
33792.371
38086.683
38286.231
41967.226
41562.377
31207.054
33480.424
36249.959
39105.011
40639.613
42922.133
45381.136
31196.153
35414.482
36422.888
39313.136
40783.785
44218.915
44368.081
31170.819
34643.847
37122.725
39151.273
42601.579
43749.164
47646.432
31461.084
35916.869
36107.79
40665.77
41995.615
45281.628
47776.814
31293.038
34315.974
38029.514
40065.276
43341.052
45244.107
47000.423
29741.598
34590.49
36108.698
39571.527
42065.082
45229.05
48301.782
29571.568
33205.409
36459.581
39198.478
42399.348
45895.406
48339.421
28100.483
32671.239
34910.81
38395.196
41566.488
44463.703
47339.585
26980.033
31071.575
34382.68
37584.401
40990.776
44107.84
47820.73
25168.249
30030.097
32709.732
35973.104
39296.317
42592.585
45956.852
23917.9
28461.147
31467.447
34885.862
38579.808
41710.812
45626.487
22207.467
26870.499
29823.512
33247.197
36490.027
39768.325
43423.67
20673.729
25278.835
28444.438
31598.375
35157.176
38206.535
42392.638
19219.297
23507.85
26390.027
29397.552
32719.039
35800.859
40087.075
17801.918
21816.944
24844.553
28005.258
31261.537
34410.866
38690.574
16209.765
19982.1
22773.33
25882.926
28609.119
32084.605
35791.055
14824.811
18322.757
21255.268
23811.38
26704.47
29966.96
33432.467
13273.311
16812.425
18926.903
22052.624
24769.03
27432.187
31346.547
12348.021
15092.095
17974.857
20187.281
22626.404
25330.943
28941.7
10872.192
13975.743
15892.268
18225.857
20515.83
23082.695
26318.658
10063.997
12518.772
14559.139
16609.297
18792.713
20964.742
24047.519
8966.9125
11408.338
12970.223
14958.839
16666.551
18773.517
21522.363
8164.4873
10300.492
11768.107
13390.755
15031.777
16804.992
19362.85
7346.7278
9343.8725
10380.965
11921.668
13292.139
14993.186
17088.163
6790.9957
8504.6048
9347.1281
10604.762
11872.17
12970.348
14946.899
6046.1195
7418.6386
8171.9198
9283.6485
10258.453
11436.12
13058.799
5370.9209
7017.0976
7334.3955
8200.7906
9102.0757
9826.3072
11674.47
5065.5278
6172.2601
6674.5569
7232.9719
7850.5511
8652.3279
9270.9273
4538.933
5666.8325
5577.5811
6345.8034
6643.8937
7252.6382
8231.6272
4014.0456
4957.4404
4771.8685
5421.9662
5591.5983
6194.3662
6719.4047
3596.2465
4498.362
4224.0199
4843.8282
4836.4192
5186.2932
5649.9812
3116.8036
3824.2282
3538.6463
3917.9532
3886.8191
4236.5955
4531.4762
2683.1322
3407.5017
3003.7446
3421.3136
3351.5886
3490.6613
3602.6445
2289.8323
2676.2735
2427.3315
2694.2811
2586.9938
2710.2692
2818.489
1846.4819
2247.3864
2030.5586
2200.2037
2118.8672
2210.1313
2049.3107
1434.8814
1602.9639
1505.5457
1548.7943
1561.4801
1518.227
1490.2748
810.32762
977.54263
932.24614
974.78989
847.63632
909.63377
828.1066
10507.682
15434.187
18378.083
22541.96
27371.045
29316.507
32278.644
9091.4055
12326.468
16074.703
19057.408
22566.654
24315.05
26915.762
11739.115
13455.468
17216.957
18348.902
21691.716
21282.29
27746.953
11401.92
12715.191
16788.53
18415.947
21231
24146.857
23249.312
15205.389
16501.67
20230.928
21261.044
24141.586
22554.762
26907.095
16116.378
16333.343
19410.479
20671.348
22179.487
25235.019
27392.462
17947.232
18598.256
22459.526
22951.182
26304.602
27606.093
28506.635
18593.821
19862.912
23077.897
23950.46
26183.572
28026.954
30129.948
19999.682
21638.123
24627.34
25155.157
28525.092
29717.131
31160.694
21138.081
22049.801
25184.801
26529.454
29533.189
30505.552
32821.407
21115.192
22665.534
26523.9
27307.361
29970.83
31799.969
33515.847
21223.851
23918.059
26922.135
28272.028
31354.46
33046.034
35218.879
22029.431
23662.549
27313.275
28698.598
32015.551
33340.582
35791.885
21186.328
24407.895
27962.226
29982.952
32637.762
34354.49
36938.584
21060.13
23870.174
27137.398
28973.262
32424.191
33887.599
37676.951
20222.432
24681.91
27218.371
29967.539
33412.741
35041.426
38792.542
19859.547
23133.848
26185.343
28932.126
32564.709
34078.79
37923.628
18714.042
23265.444
26256.969
29326.915
32858.215
34774.962
38769.705
17979.831
21887.783
25239.531
27953.781
31760.437
33532.003
37778.566
17002.338
21570.048
24566.983
27839.088
31684.024
33837.81
38051.703
16193.598
19967.354
23462.444
26425.322
30402.362
32295.593
36651.971
14964.314
19360.654
22583.068
25805.419
29713.013
31922.684
36326.494
14090.761
17847.399
21195.752
24096.865
28172.451
30305.632
34768.663
12768.363
16976.622
20166.195
23445.308
27260.992
29797.985
33647.966
11931.112
15585.116
18992.371
21721.668
25882.921
27886.739
31899.38
10873.475
14736.489
17715.114
21077.702
24100.218
27046.659
30140.735
9821.599
13774.826
16491.712
19190.285
23320.93
24981.935
28467.726
9234.6658
12651.006
15966.028
18122.65
21396.341
23677.003
26451.418
8562.1132
11835.854
14351.851
16755.056
19827.054
22034.584
24511.004
8024.6554
10986.943
13448.559
15451.532
18581.882
20259.253
22734.86
7359.8974
10103.771
12243.283
14231.263
16893.728
18473.565
20680.992
6989.8407
9356.1984
11427.955
12944.038
15527.688
16800.646
18876.55
6489.7785
8638.6034
10336.887
11771.902
14033.054
15247.021
16967.016
6220.7765
7990.9573
9561.19
10647.389
12781.324
13564.157
15164.506
5798.9796
7329.7631
8567.889
9669.1431
11328.837
12127.857
13405.838
5491.3336
6734.7709
7928.0411
8587.0994
10213.558
10634.717
12106.695
5225.696
6367.4752
7100.6268
7850.7453
8941.6812
9547.305
10285.143
4967.5351
5631.7275
6356.4428
6761.6514
7950.522
8078.5545
8922.4094
4553.5405
5102.6444
5585.6689
5869.0569
6817.7045
6936.6492
7590.4417
4267.6529
4601.2928
5124.5512
5295.8681
6029.318
6019.3205
6481.2956
3834.8976
4055.1596
4411.0869
4416.3923
5014.2677
4982.8445
5364.1397
3450.4029
3591.2906
3850.7463
3806.07
4318.8939
4150.4321
4455.293
2988.2362
3048.8562
3165.5826
3154.806
3465.7335
3323.2824
3581.3575
2479.6734
2479.046
2643.3998
2524.8063
2773.7096
2607.1479
2828.5071
1974.6535
2077.4761
2026.2517
1969.855
2113.3399
1942.744
2010.6391
1406.84
1325.7545
1361.4668
1287.5953
1362.8457
1230.1801
1351.0044
900.29092
1007.3658
977.66861
896.48192
916.17554
888.46453
894.64766
6201.4755
11366.725
13677.35
17331.221
21085.439
24974.42
24437.799
7306.0649
13883.779
16615.625
20419.577
23484.139
24082.096
22673.988
5304.7716
8512.2698
10428.984
14037.487
15655.373
16876.009
21080.521
6015.7529
11064.804
14058.027
16931.817
18176.141
21242.8
17738.099
7076.6654
10930.207
11546.556
13532.527
16213.072
15975.487
20168.552
8197.5817
11319.072
13254.44
15968.509
16743.031
20291.792
21567.469
6896.6776
12548.19
13034.179
15227.824
17751.709
17995.423
20213.313
8861.4872
13652.046
12816.824
16778.989
17990.647
19087.654
22200.839
8844.1569
13156.466
13454.843
16097.082
18308.261
19350.759
22880.022
8904.7311
14312.89
13395.381
17235.572
18253.451
20762.146
22685.875
9237.2236
13566.551
14298.865
17151.932
19549.81
20679.193
24682.032
9576.9927
14603.433
13517.715
17884.426
18659.651
22489.914
24236.858
8591.6598
13346.822
14613.256
17320.404
20815.878
21553.55
25345.995
8402.6395
14208.265
13848.954
17643.308
19689.432
21542.424
26639.041
9031.8045
13037.806
14962.426
17407.277
20871.288
23098.831
26885.637
8107.2591
12894.174
13696.476
17527.613
20266.956
22397.678
26856.443
8060.0727
11736.483
14560.861
17453.294
20764.996
23043.087
28310.864
6668.3603
12033.347
13484.494
17209.508
19994.792
22885.842
27523.328
6789.1679
10846.33
13484.755
16756.256
20517.793
22962.75
28495.93
5575.5185
10634.074
12588.28
16580.211
19550.096
22592.379
27506.134
5305.2018
9676.8745
12558.64
15982.99
19699.261
22363.129
27858.539
4369.0128
9420.6405
11601.586
15634.502
18734.845
21842.064
26905.491
4138.8392
8525.646
11578.021
15175.269
18667.528
21526.199
26609.827
3510.8173
8278.0649
10965.711
14453.441
17923.997
20498.449
25507.342
3462.5643
7867.5434
10570.048
13866.842
17252.624
19677.856
24819.712
2917.6925
7483.9752
9996.465
13144.869
16693.852
18855.093
23740.249
3149.455
7084.1228
9785.6983
12272.5
15936.052
17498.916
22722.737
2752.9628
6732.9899
8867.9259
11800.397
14719.174
16625.805
21205.445
3020.9087
6372.2826
8640.7187
11055.417
14271.799
15872.271
20118.211
2736.5162
6336.3718
8069.4482
10580.575
13165.883
14629.659
18669.1
3041.6574
6036.7436
7764.7455
9894.8083
12394.024
13646.992
17308.672
3016.7613
5940.0148
7263.8398
9313.7599
11463.68
12589.811
16002.882
3232.3746
5783.9746
6967.7852
8752.0917
10702.926
11605.8
14548.027
3280.3362
5647.9771
6530.2342
8179.1146
9820.6969
10531.902
13165.022
3451.1605
5535.0297
6240.7947
7666.9428
9033.1682
9625.0994
11917.589
3560.5597
5373.9367
5889.8394
7097.7526
8202.7118
8721.0773
10530.817
3565.2347
5249.0975
5503.7584
6560.9887
7506.7992
7813.3835
9326.3193
3611.6848
4964.8849
5122.0116
6060.7749
6717.718
6955.0544
8141.8845
3616.5018
4807.9933
4828.5732
5671.1366
6078.457
6218.5112
7159.7637
3440.8297
4498.2416
4376.7551
5053.9698
5335.5547
5440.7387
6118.1283
3356.8073
4276.7149
4000.0898
4635.5779
4730.1662
4796.1518
5178.5615
3077.976
3827.2447
3533.9697
4073.5523
4068.5406
4092.2176
4314.3415
2811.6542
3433.0805
3139.9813
3590.8017
3469.3115
3525.3516
3504.5608
2469.8178
2966.0352
2691.9586
3022.5974
2927.5795
2904.7869
2795.218
2027.1095
2388.4809
2153.7942
2449.0884
2278.1847
2303.7687
2021.026
1590.3509
1794.8889
1712.2292
1832.9786
1775.464
1736.207
1567.2392
978.23734
1116.3416
1033.7648
1118.2055
985.953
1040.566
847.42186
-865.89927
5676.6913
8067.9083
11717.214
16367.927
17710.257
21355.946
-1035.8556
209.96218
2963.0516
7121.3825
11043.965
11833.535
16581.179
307.19014
1478.5861
5074.7626
7489.8324
9475.3362
10313.588
16476.637
-952.96963
745.47576
3940.058
4813.1881
7999.4721
10555.84
11365.515
1351.7684
2387.4999
4360.4359
5867.3051
9308.843
8513.2137
13843.657
844.16163
1277.0818
3486.8796
4821.029
8832.6521
8417.9101
11579.919
-198.36623
3249.039
4600.294
7016.8946
8421.6499
8584.2873
13348.951
739.00436
737.07854
4379.8199
5080.7748
8166.6555
9719.3222
13018.74
-215.1844
2904.1599
5085.057
5956.8347
9832.7715
9932.646
12055.6
983.48284
2282.5299
4893.8414
6239.3138
8962.0078
10216.312
13312.272
525.53596
2409.9468
4601.7499
6130.1674
9226.9495
10485.493
13285.737
-60.11261
2336.6799
4580.9181
6843.7386
9329.1721
11085.45
13637.477
-539.9153
1670.0565
4113.8542
6012.7671
9538.7853
10389.337
15430.853
-604.46443
2430.2158
3801.9039
8258.9035
8669.5081
13204.372
14439.625
-916.88514
1368.8683
3254.7476
6723.61
9733.8108
12212.5
14627.55
-2214.9018
2328.8123
3190.0761
8306.5113
9571.6899
13496.271
15494.145
-2253.3855
914.55426
3537.2923
7128.6677
9609.2778
13096.37
15527.511
-3035.018
1817.3887
3105.6753
8059.5065
10108.678
14323.926
16403.6
-2843.5222
437.57165
3306.5674
7339.2731
10040.963
13643.891
16241.292
-3718.459
1367.8467
3257.5194
8100.4708
10385.89
14520.095
17140.539
-3194.1386
361.50946
3328.5158
7350.2231
10295.779
14031.206
17007.247
-4103.9952
1118.2359
3444.4252
7960.703
10608.421
14562.373
17424.109
-3711.5723
624.87358
3550.9811
7162.3521
10387.827
13858.881
17250.905
-4044.9683
1382.3408
3414.9756
7554.5936
10374.046
14127.243
17274.061
-3625.9389
833.6342
3427.825
7133.0077
10416.957
13544.124
17200.558
-3664.6528
1229.8634
3475.8966
7505.001
10194.898
13575.35
16809.52
-3222.1714
1521.4167
3475.7494
7191.4913
10112.839
13056.922
16366.923
-2497.6737
1817.8295
3722.7366
7359.5556
9845.0064
12688.194
15851.184
-2112.0691
1986.4199
3888.658
7167.4313
9653.9662
12306.769
15217.753
-1347.7961
2494.5248
4149.9004
7207.6691
9389.7622
11715.629
14312.795
-642.25054
2687.5518
4229.8055
7007.6239
9021.0748
11216.869
13587.222
4.8212946
3079.0834
4495.5883
6956.2252
8787.9721
10591.745
12813.994
656.03449
3318.3484
4543.3846
6753.6895
8304.0076
9967.6834
11764.595
1267.8739
3613.3047
4722.2386
6572.6043
8002.7016
9244.9489
11047.023
1838.7323
3840.3224
4718.0277
6378.479
7459.998
8659.4748
9998.5785
2337.4501
3980.9192
4793.9862
6052.8159
7150.6517
7906.8161
9185.8974
2698.5194