/*--------------------------------*- C++ -*----------------------------------*\
  =========                 |
  \\      /  F ield         | OpenFOAM: The Open Source CFD Toolbox
   \\    /   O peration     | Website:  https://openfoam.org
    \\  /    A nd           | Version:  6
     \\/     M anipulation  |
\*---------------------------------------------------------------------------*/
FoamFile
{
    version     2.0;
    format      ascii;
    class       pointVectorField;
    location    "1.88";
    object      lm;
}
// * * * * * * * * * * * * * * * * * * * * * * * * * * * * * * * * * * * * * //

dimensions      [1 -2 -1 0 0 0 0];

internalField   nonuniform List<vector> 
28033
(
(-1.780536e-14 4.8656612e-16 1.3104288e-15)
(-5.4375576e-15 3.3318594e-15 9.9433006e-16)
(7766.2049 198.27783 199.38864)
(7452.1647 -1828.1174 185.15046)
(-1.338461e-14 3.0090723e-15 -2.870051e-16)
(-1.2587315e-14 4.9008913e-15 -4.4266115e-15)
(7438.4021 -1950.8141 190.29977)
(7758.7938 63.677791 196.14947)
(-5.6329745e-15 1.0535579e-15 6.7193838e-16)
(-2.4534443e-15 3.0423504e-16 5.8836893e-16)
(-5.4923298e-15 2.4302826e-15 8.9528572e-16)
(-2.6209443e-15 -1.1537891e-15 -6.7979696e-16)
(-7.2548563e-15 1.5542294e-15 1.0013199e-15)
(-4.7613589e-15 -9.2108094e-16 -7.3952737e-16)
(-1.132389e-15 -2.2256662e-17 -6.4484848e-16)
(-7.4239857e-16 -2.4218299e-16 -3.6669977e-16)
(-1.1196198e-15 4.5550132e-16 8.383863e-16)
(-2.3465882e-16 2.2667819e-16 1.4996246e-15)
(-4.0583243e-15 -8.7236639e-16 -1.3429605e-15)
(-5.8237189e-15 8.4462789e-16 7.5519031e-16)
(-5.1611762e-15 1.0100276e-15 9.7613867e-16)
(-1.7679952e-15 -8.1010255e-16 4.5192313e-16)
(-4.4158752e-15 1.0299569e-15 -9.452958e-16)
(7746.5108 72.731157 198.38901)
(7726.4168 -52.257825 197.53365)
(7706.7159 -177.23939 197.48524)
(7686.8447 -301.98884 197.02874)
(7667.0721 -426.70247 197.3601)
(7647.4031 -551.86069 197.15416)
(7627.5729 -676.93846 197.10756)
(7608.3014 -802.75052 196.92622)
(7588.7165 -928.90367 196.24249)
(7569.5258 -1055.8288 195.48813)
(7550.3822 -1183.3929 194.30763)
(7531.1159 -1311.4259 192.59029)
(7512.2146 -1440.1719 191.50629)
(7492.9344 -1569.5324 189.60059)
(7472.9805 -1699.2716 187.66091)
(-1.7392264 2.7946312 6.188143)
(-2.3113985 7.0708479 6.2697002)
(0.75635264 15.043812 4.0753296)
(7.5332487 22.883825 0.18111024)
(16.147288 32.514977 -3.9254899)
(27.727263 42.535618 -7.6445214)
(40.747737 53.462168 -10.609038)
(55.802866 64.461214 -12.490146)
(72.073308 76.19624 -13.053523)
(89.950914 87.89513 -12.154704)
(108.93965 99.931176 -9.9295424)
(129.37732 111.99162 -6.3788697)
(151.04561 124.17479 -1.5576817)
(174.4 136.34028 4.0303937)
(199.19801 148.5377 10.440029)
(225.96256 160.65198 17.0243)
(254.64358 172.93874 23.831717)
(285.64212 184.99563 30.260595)
(318.86856 197.37175 36.23899)
(354.77615 209.63019 41.435357)
(393.33097 222.15739 45.75999)
(434.70241 234.67664 48.932033)
(478.96892 247.4875 51.105624)
(526.10311 260.41501 52.091967)
(576.19098 273.48731 52.042505)
(629.13467 286.6897 51.007715)
(684.88881 299.92863 49.174765)
(743.30151 313.20225 46.693862)
(804.36142 326.27153 43.687611)
(867.8024 339.16173 40.447459)
(933.59171 351.66238 37.033195)
(1001.4735 363.53942 33.629752)
(1071.3841 375.05436 30.35574)
(1143.0508 385.43306 27.415904)
(1216.6077 395.13325 24.695978)
(1291.6754 403.64965 22.101428)
(1368.2764 411.26214 19.909478)
(1446.3141 417.56008 17.808971)
(1525.6752 422.78017 15.80256)
(1606.3275 426.89552 13.876147)
(1688.1778 429.83156 11.857387)
(1771.1862 431.9012 9.7553904)
(1855.3362 432.96118 7.4303649)
(1940.5266 433.3638 4.9400756)
(2026.7284 433.08535 2.2149264)
(2113.8756 432.42441 -0.58090336)
(2201.8743 431.43446 -3.4424518)
(2290.7275 430.33718 -6.2160795)
(2380.2838 429.22391 -8.7555116)
(2470.578 428.24799 -10.906066)
(2561.4843 427.47107 -12.497108)
(2653.0401 426.97588 -13.3745)
(2745.1847 426.77831 -13.406403)
(2837.9729 426.88304 -12.492618)
(2931.4219 427.25759 -10.586097)
(3025.6232 427.84224 -7.685073)
(3120.6711 428.56012 -3.8540554)
(3216.701 429.31629 0.78700911)
(3313.8692 430.01394 6.0618267)
(3412.3454 430.53971 11.740748)
(3512.3205 430.81197 17.580625)
(3613.971 430.74811 23.258317)
(3717.4781 430.27228 28.530327)
(3823.0084 429.36063 33.11256)
(3930.6631 428.02056 36.705515)
(4040.6158 426.20768 39.230193)
(4152.7121 424.02927 40.347981)
(4267.1627 421.51348 40.347164)
(4383.8535 418.71456 38.795991)
(4502.658 415.77365 36.118421)
(4623.4011 412.70884 32.447894)
(4745.8905 409.69303 28.019124)
(4869.9312 406.76586 23.135433)
(4995.2267 403.95702 18.204393)
(5121.5085 401.34553 13.61346)
(5248.4954 398.85168 9.780045)
(5375.9135 396.52224 7.0798367)
(5503.5199 394.20021 5.8767205)
(5631.0742 391.80794 6.4785754)
(5758.4498 389.23555 9.0890307)
(5885.4422 386.23383 13.786274)
(6012.0096 382.62594 20.734749)
(6138.1426 378.27836 29.782613)
(6263.6488 372.91503 40.853471)
(6388.9837 366.48046 53.543025)
(6513.8905 358.41345 67.574087)
(6638.7843 348.90096 82.589869)
(6763.3997 337.83188 98.018001)
(6888.3238 324.81136 113.68263)
(7013.0563 310.58783 128.67161)
(7138.5074 293.9471 143.43283)
(7263.4155 277.15294 156.49527)
(7389.4662 257.34946 169.11517)
(7514.721 238.49127 179.84558)
(7640.4271 218.4987 189.95706)
(20.475809 -39.751767 -47.126779)
(30.815674 -57.364014 -56.746265)
(39.837953 -75.636213 -72.53385)
(45.506692 -92.353239 -82.089782)
(54.309449 -108.96468 -90.478431)
(62.975821 -125.95607 -96.645317)
(73.663585 -142.03032 -100.77938)
(85.890736 -158.72264 -103.24708)
(100.04042 -175.16366 -104.09534)
(115.6674 -191.57579 -103.51868)
(133.39978 -208.50323 -101.6132)
(152.51992 -225.30883 -98.715981)
(173.65385 -242.8676 -94.895722)
(196.23414 -260.62579 -90.612189)
(220.61952 -278.94574 -85.862501)
(246.51311 -297.87277 -81.156642)
(274.13135 -317.16777 -76.481672)
(303.29757 -337.17563 -72.322994)
(334.18945 -357.54403 -68.690525)
(366.81496 -378.27894 -65.75268)
(401.2896 -399.48515 -63.561268)
(437.69563 -420.81794 -62.305948)
(476.19191 -442.26046 -61.641137)
(516.97668 -463.87379 -61.802449)
(559.97332 -485.31175 -62.457144)
(605.67496 -506.59965 -63.49247)
(653.91099 -527.75368 -64.820551)
(705.03564 -548.47109 -65.986243)
(758.97053 -569.06093 -67.135873)
(815.84812 -589.10131 -67.733835)
(875.78145 -609.04997 -67.92983)
(938.50436 -628.488 -67.416711)
(1004.1674 -647.74318 -66.246202)
(1072.51 -666.70067 -64.346649)
(1143.4619 -685.43402 -61.753068)
(1216.5563 -703.93278 -58.734276)
(1291.8914 -722.20461 -55.089944)
(1369.0023 -740.51112 -51.355882)
(1447.6123 -758.50597 -47.471162)
(1527.5114 -776.48548 -43.743873)
(1608.3883 -794.28529 -40.314164)
(1689.9704 -811.96598 -37.41289)
(1772.0629 -829.46513 -35.137798)
(1854.4599 -846.80725 -33.630252)
(1937.028 -863.93903 -32.920306)
(2019.6735 -880.88703 -33.029024)
(2102.344 -897.62727 -33.904898)
(2185.0524 -914.19847 -35.453701)
(2267.8399 -930.61821 -37.541173)
(2350.7987 -946.95139 -39.996779)
(2434.0522 -963.25611 -42.630406)
(2517.7441 -979.62721 -45.245298)
(2602.0407 -996.15213 -47.646909)
(2687.1105 -1012.9464 -49.665218)
(2773.1197 -1030.1076 -51.156083)
(2860.2247 -1047.7469 -52.025044)
(2948.5643 -1065.9525 -52.217129)
(3038.2517 -1084.7986 -51.742203)
(3129.376 -1104.3396 -50.65171)
(3221.9995 -1124.5914 -49.055019)
(3316.1541 -1145.5489 -47.096957)
(3411.8503 -1167.1609 -44.956039)
(3509.0809 -1189.3557 -42.824115)
(3607.8164 -1212.0058 -40.901436)
(3708.0246 -1234.9937 -39.36547)
(3809.6634 -1258.1529 -38.366389)
(3912.7548 -1281.276 -38.017997)
(4017.0984 -1304.236 -38.37304)
(4122.8522 -1326.7471 -39.573505)
(4229.9735 -1348.7704 -41.112427)
(4338.4301 -1370.2146 -43.35675)
(4448.2013 -1390.725 -45.8939)
(4559.4155 -1410.4863 -48.491001)
(4672.056 -1429.2979 -50.847881)
(4786.2332 -1447.2779 -52.651625)
(4901.9326 -1464.4453 -53.5839)
(5019.2429 -1480.9007 -53.317188)
(5138.234 -1496.822 -51.551923)
(5258.8658 -1512.3095 -48.014439)
(5381.2074 -1527.6289 -42.535856)
(5505.1845 -1542.9207 -34.976566)
(5630.7403 -1558.3935 -25.327628)
(5757.793 -1574.2432 -13.616465)
(5886.1661 -1590.5911 -0.035695223)
(6015.7132 -1607.5903 15.221107)
(6146.1998 -1625.2952 31.788507)
(6277.3987 -1643.7662 49.325674)
(6409.0429 -1662.9645 67.361293)
(6540.8758 -1682.8557 85.471389)
(6672.6129 -1703.3149 103.17414)
(6804.0328 -1724.1974 120.06564)
(6934.9124 -1745.3036 135.74703)
(7065.1033 -1766.4382 150.04303)
(7194.5388 -1787.3829 162.80296)
(7323.5808 -1807.9039 174.28671)
(3.2927448e-15 -1.3239155e-15 2.3845803e-16)
(2.4470133e-15 -9.6672015e-16 3.215493e-17)
(-9.0574249e-15 9.0550918e-16 6.4029168e-16)
(-1.2642219e-16 -5.721845e-16 4.4370095e-16)
(-7.6811722e-15 -4.9270561e-16 4.1193361e-16)
(-7.3893964e-15 2.7533729e-15 -1.0951501e-15)
(-3.2915852e-15 -8.1743692e-16 3.8364228e-16)
(-1.9032499e-15 5.3200654e-16 -8.2319016e-17)
(-4.7409759e-15 -4.8623412e-16 4.3918642e-16)
(-1.2869644e-14 1.1845665e-15 6.4228907e-16)
(-9.6157521e-15 1.4157374e-15 5.9836601e-16)
(-9.4077204e-15 4.9518432e-16 1.1192419e-15)
(-5.982767e-15 2.6210694e-16 3.0473736e-16)
(-1.1478475e-14 -5.3386198e-16 1.6580808e-15)
(-5.257323e-15 3.6289085e-16 2.8600704e-16)
(15.7434 -10.454655 22.048703)
(15.913749 -36.845091 33.718434)
(18.792416 -43.048024 36.283568)
(26.574488 -61.651889 39.88561)
(33.238284 -72.159288 37.907768)
(43.951312 -89.753531 36.343584)
(54.368364 -103.74813 33.897682)
(67.202578 -121.14814 31.602091)
(80.518755 -137.00314 29.940032)
(95.371142 -154.55841 28.688523)
(111.07054 -170.74428 28.611649)
(127.85444 -188.15893 29.090207)
(146.10741 -204.49747 30.62624)
(165.41338 -221.34849 32.497382)
(186.6256 -237.32786 35.344604)
(209.27092 -253.23125 37.979381)
(233.93029 -269.70533 41.008708)
(260.90374 -284.24377 44.082319)
(289.7156 -300.33209 46.477855)
(321.91305 -315.11274 48.833767)
(356.04978 -330.4704 50.108618)
(393.40223 -345.89663 50.961811)
(433.4304 -361.15517 51.390514)
(476.72424 -377.04118 50.885762)
(522.75562 -392.7918 49.768188)
(572.26809 -409.28418 48.113725)
(624.09383 -425.29697 46.121104)
(679.41801 -442.66837 43.935368)
(736.9281 -459.13359 41.733657)
(797.4742 -476.86876 39.581113)
(860.37143 -494.00966 37.620038)
(925.74925 -511.40181 35.8772)
(993.28092 -528.71659 34.614715)
(1062.9383 -545.76322 33.643475)
(1134.4948 -562.47109 33.072498)
(1207.838 -579.22471 33.002469)
(1282.6141 -595.39742 33.138623)
(1359.2569 -610.96921 33.446895)
(1437.105 -626.32208 33.753379)
(1516.3386 -641.24308 34.038458)
(1596.7009 -655.86831 34.146562)
(1678.1527 -670.23117 33.982854)
(1760.5546 -684.48136 33.480532)
(1843.8163 -698.69872 32.598625)
(1927.811 -713.05686 31.344317)
(2012.457 -727.65204 29.744252)
(2097.634 -742.65305 27.885763)
(2183.2684 -758.14874 25.866296)
(2269.2667 -774.27281 23.830902)
(2355.5794 -791.0832 21.914961)
(2442.1582 -808.65974 20.283501)
(2528.9969 -827.01106 19.064488)
(2616.1083 -846.15864 18.393959)
(2703.5428 -866.05988 18.348959)
(2791.3837 -886.68394 18.989975)
(2879.7438 -907.949 20.307966)
(2968.7716 -929.7917 22.263137)
(3058.636 -952.11457 24.746212)
(3149.5319 -974.84467 27.614658)
(3241.6636 -997.89972 30.677301)
(3335.2405 -1021.222 33.715644)
(3430.4706 -1044.7644 36.494711)
(3527.54 -1068.5095 38.779105)
(3626.612 -1092.4496 40.34408)
(3727.8339 -1116.6316 41.003079)
(3831.264 -1141.0424 40.601236)
(3936.9562 -1165.8534 38.998389)
(4045.0848 -1191.065 36.463043)
(4155.1348 -1216.6071 32.450971)
(4267.3878 -1243.0064 27.802092)
(4381.5504 -1269.907 22.272335)
(4497.4715 -1297.5259 16.279648)
(4614.8967 -1325.8935 10.086676)
(4733.6044 -1355.0469 4.1286251)
(4853.3366 -1384.9284 -1.2665442)
(4973.8619 -1415.5067 -5.6920255)
(5094.9656 -1446.6869 -8.801832)
(5216.456 -1478.3479 -10.269536)
(5338.1741 -1510.3292 -9.8429869)
(5460.014 -1542.459 -7.3273872)
(5581.8959 -1574.5296 -2.6258276)
(5703.8053 -1606.3322 4.2803696)
(5825.7431 -1637.6528 13.307017)
(5947.7691 -1668.2773 24.293373)
(6069.9428 -1698.0217 36.983653)
(6192.3701 -1726.7053 51.065516)
(6315.129 -1754.2098 66.163656)
(6438.327 -1780.4191 81.87523)
(6562.0156 -1805.3091 97.783433)
(6686.25 -1828.854 113.48054)
(6811.0092 -1851.1417 128.61374)
(6936.2312 -1872.2693 142.88267)
(7061.8004 -1892.4323 156.095)
(7187.4638 -1911.9826 168.25744)
(7313.2269 -1931.2848 179.45651)
(7458.3538 -1825.8789 191.15354)
(7478.8496 -1700.3685 191.55806)
(7498.3369 -1574.8631 192.69635)
(7518.265 -1450.1675 194.08481)
(7537.5311 -1325.3604 195.72143)
(7557.2206 -1200.8864 197.508)
(7576.114 -1076.4924 199.25915)
(7595.7941 -951.58737 200.90068)
(7615.6593 -826.96543 201.81056)
(7634.8413 -701.52995 202.87418)
(7655.2446 -575.9261 202.7613)
(7675.1714 -449.08802 202.93593)
(7696.8342 -322.60198 201.41179)
(7716.9519 -193.66959 200.30221)
(7738.2935 -65.5002 198.32398)
(7629.688 84.021451 181.98944)
(7500.6465 103.49919 167.91809)
(7371.3607 122.80259 152.624)
(7240.7749 142.25942 136.14651)
(7109.4277 161.99828 117.75648)
(6977.651 182.00956 98.762067)
(6845.5875 202.47181 78.880194)
(6713.6588 223.31846 58.942101)
(6582.0793 244.48786 39.355043)
(6451.2357 265.99185 20.515734)
(6321.1989 287.59342 2.999972)
(6192.3618 309.21801 -12.867014)
(6064.6417 330.67125 -26.816005)
(5938.2152 351.71502 -38.677878)
(5813.1217 372.22958 -48.307577)
(5689.375 391.96693 -55.562244)
(5566.887 410.73012 -60.583693)
(5445.5537 428.36649 -63.549696)
(5325.2985 444.72991 -64.669575)
(5205.9849 459.69901 -64.283347)
(5087.4853 473.22346 -62.715524)
(4969.7145 485.23987 -60.351325)
(4852.525 495.81548 -57.581704)
(4735.9594 504.91673 -54.680788)
(4619.838 512.69964 -52.08718)
(4504.3182 519.2982 -49.984472)
(4389.268 524.6734 -48.706073)
(4274.8996 529.70814 -48.102785)
(4161.3193 533.30093 -48.574129)
(4048.7878 536.5806 -49.56915)
(3937.2252 539.58508 -51.586557)
(3826.9535 542.31971 -54.141484)
(3718.1417 544.97489 -57.100822)
(3610.9422 547.67018 -60.239151)
(3505.5069 550.47512 -63.302407)
(3401.9562 553.44229 -66.066444)
(3300.3738 556.58534 -68.312052)
(3200.7984 559.90233 -69.868842)
(3103.2277 563.34366 -70.609568)
(3007.6117 566.8594 -70.470291)
(2913.8588 570.35978 -69.442963)
(2821.8392 573.764 -67.588335)
(2731.3886 576.96331 -65.019441)
(2642.3244 579.86782 -61.905572)
(2554.4431 582.37083 -58.44905)
(2467.5471 584.39258 -54.885912)
(2381.4358 585.84186 -51.4536)
(2295.9376 586.66404 -48.39638)
(2210.9008 586.78615 -45.922539)
(2126.2125 586.18157 -44.225635)
(2041.8053 584.80515 -43.437511)
(1957.6581 582.62541 -43.629437)
(1873.7789 579.63483 -44.868255)
(1790.312 575.79989 -47.071718)
(1707.2341 571.16012 -50.17758)
(1624.9271 565.55614 -54.018722)
(1543.2939 559.32565 -58.411617)
(1462.8823 551.69237 -63.122249)
(1383.8093 543.58603 -68.031223)
(1306.0081 534.26302 -72.689353)
(1230.1332 523.9299 -77.225412)
(1156.2387 512.68039 -81.449385)
(1084.5248 500.52671 -84.452552)
(1015.2491 487.12674 -87.048425)
(948.1179 472.73294 -88.868194)
(884.00652 457.34364 -90.212546)
(821.97154 441.28198 -90.237894)
(763.17852 423.97738 -90.142178)
(706.52377 406.36406 -89.335755)
(652.64045 387.8895 -88.342168)
(601.03812 369.00416 -87.216057)
(551.86414 349.96684 -86.235346)
(505.20337 330.40231 -85.209875)
(460.43089 311.20006 -84.582372)
(417.97411 292.31565 -84.59785)
(377.46043 273.30915 -84.613922)
(339.06422 255.50193 -85.417132)
(302.5144 237.56738 -86.250202)
(267.91503 221.2184 -87.610059)
(235.50642 204.76664 -88.844735)
(204.83009 189.79892 -90.129235)
(176.2491 175.51384 -91.04061)
(149.79625 162.04592 -91.534438)
(125.68689 148.62922 -91.357671)
(103.41971 137.10045 -90.586608)
(83.873624 124.65096 -88.275511)
(66.377592 113.23399 -85.633034)
(51.490611 101.88768 -81.361571)
(38.889373 90.535434 -76.277955)
(28.920851 78.816307 -69.794767)
(21.164701 67.166801 -62.42392)
(16.33827 55.075818 -53.722803)
(13.588744 43.785261 -44.114106)
(12.258742 31.242573 -32.165927)
(17.458391 17.905782 -16.240777)
(-6.8708141e-15 1.5083581e-15 1.9262289e-16)
(-1.2504183e-14 5.7375616e-16 8.4327435e-16)
(-8.3449101e-15 1.4891922e-15 5.3018253e-16)
(-4.9731758e-15 1.4991158e-15 6.2376313e-16)
(-3.4146159e-15 1.5624416e-15 3.1576894e-17)
(2.0582335e-15 9.3962624e-16 -5.746342e-16)
(2.2101935e-15 3.7457559e-17 -1.1841335e-16)
(2.4553765e-15 -8.5141669e-16 -9.3419562e-16)
(1.2987427e-15 1.0081898e-16 1.7950851e-15)
(-4.5074861e-15 9.063971e-16 1.0710522e-15)
(-5.2682467e-15 2.1856155e-15 1.0652666e-15)
(-7.4917339e-15 1.915055e-15 2.2418828e-16)
(-9.400838e-15 1.3708275e-15 6.2833768e-16)
(-6.2048683e-15 1.3247981e-15 5.4317906e-16)
(-6.971104e-15 1.5128103e-15 7.5678131e-16)
(-1.2693866e-14 6.2923345e-15 -2.1364834e-15)
(-5.2452578e-15 2.6791924e-15 -5.3037742e-16)
(-1.0752404e-15 9.8318743e-16 -1.0111087e-16)
(-2.7353382e-15 1.7746034e-15 7.3085398e-17)
(1.0178949e-15 -1.5450237e-16 -4.119182e-16)
(-1.4303492e-15 4.136346e-16 -3.3264033e-16)
(-1.0059749e-14 4.7133437e-15 -1.6449855e-15)
(2.9801421e-15 -1.9180379e-15 -8.3172098e-16)
(-4.79756e-15 2.8035442e-15 1.1420498e-15)
(-5.4778068e-15 3.5047253e-15 -3.934403e-16)
(-1.8117877e-15 1.1581936e-15 -9.1309836e-16)
(-3.9812639e-16 4.7407236e-16 -2.2932148e-16)
(-1.5272242e-15 1.100363e-15 -2.2557932e-16)
(-4.1024849e-15 1.9838802e-15 2.8069696e-17)
(-5.3424143e-16 2.551799e-16 -1.9455919e-16)
(7453.3367 -1839.4624 185.4534)
(7453.706 -1850.743 184.66559)
(7453.9083 -1860.7002 183.28103)
(7453.4603 -1869.0528 181.93431)
(7452.5908 -1876.0142 180.77082)
(7451.1851 -1881.6204 180.04253)
(7449.3661 -1886.2794 179.79938)
(7447.2988 -1890.4536 180.13368)
(7445.1062 -1894.5949 181.00096)
(7442.9909 -1899.1518 182.28942)
(7441.1738 -1904.6641 184.03271)
(7439.6303 -1911.3376 185.7754)
(7438.7961 -1919.4247 187.60083)
(7438.2265 -1929.1609 188.91457)
(7438.6044 -1939.7656 190.18897)
(7765.8815 188.58919 198.9269)
(7765.1646 178.96289 197.69973)
(7765.0275 170.26208 196.11124)
(7765.5299 162.55665 194.02161)
(7766.6331 155.91357 192.04069)
(7768.109 150.03299 190.20236)
(7769.7671 144.67506 188.88748)
(7771.3119 139.42915 188.0874)
(7772.5273 133.91518 187.96291)
(7773.125 127.72325 188.50375)
(7772.9754 120.47473 189.59086)
(7771.8257 111.86403 191.19965)
(7769.7634 101.80086 192.99542)
(7766.6813 89.945915 194.6662)
(7762.7855 77.175828 196.0317)
(-2.6214698 3.2828668 2.6230594)
(-4.5930075 6.0640551 1.8017697)
(-2.3371301 11.229261 -1.5778209)
(4.0105346 16.707316 -5.6425305)
(12.027383 23.960853 -9.3292825)
(23.355704 31.898234 -12.955737)
(35.95688 40.653199 -15.740636)
(50.946344 50.242497 -17.470722)
(66.883163 60.015489 -17.929906)
(84.636706 70.411654 -17.138595)
(103.51489 80.676097 -15.041617)
(123.88911 91.444475 -11.620249)
(145.50546 101.74755 -7.2740129)
(168.71685 112.46599 -1.9544288)
(193.47774 122.59503 3.9168284)
(220.15227 133.08245 10.18003)
(248.72416 143.00081 16.379355)
(279.42106 153.15495 22.495974)
(312.59757 163.02237 28.061314)
(348.1906 173.016 32.96003)
(386.43577 182.91393 37.0063)
(427.4923 192.95945 40.106617)
(471.37763 203.16332 42.116804)
(518.11174 213.43097 43.206333)
(567.84896 223.90852 43.209739)
(620.35365 234.50667 42.383878)
(675.74856 245.2781 40.734776)
(733.81524 256.02207 38.571469)
(794.58564 266.73817 35.868443)
(857.74593 277.39305 32.931417)
(923.35127 287.62871 29.881623)
(991.1319 297.60011 26.789469)
(1060.9793 306.97398 23.931344)
(1132.6816 315.6065 21.218578)
(1206.2163 323.55115 18.77067)
(1281.3941 330.47628 16.598206)
(1358.1226 336.50388 14.613573)
(1436.234 341.42016 12.786361)
(1515.7761 345.3236 11.138939)
(1596.4848 348.19479 9.4846697)
(1678.4423 350.01932 7.8379175)
(1761.4844 350.90544 6.0530858)
(1845.6343 351.05095 4.0824683)
(1930.7379 350.43391 1.9363346)
(2016.7559 349.35492 -0.35281637)
(2103.672 347.87275 -2.7598744)
(2191.3815 346.1521 -5.2303536)
(2279.8526 344.35771 -7.6131298)
(2369.0079 342.59304 -9.8143753)
(2458.8274 340.97518 -11.66791)
(2549.2544 339.57045 -13.034681)
(2640.2908 338.42098 -13.76744)
(2731.927 337.5394 -13.752021)
(2824.1984 336.89687 -12.892258)
(2917.1522 336.447 -11.146374)
(3010.8728 336.10579 -8.5080758)
(3105.4636 335.78634 -5.0353186)
(3201.0597 335.3755 -0.83245428)
(3297.8108 334.77176 3.9448873)
(3395.8883 333.86565 9.0982951)
(3495.4627 332.57565 14.38427)
(3596.7184 330.84086 19.559039)
(3699.8108 328.57167 24.364039)
(3804.9094 325.84762 28.546621)
(3912.1031 322.59153 31.852726)
(4021.5472 318.81495 34.154797)
(4133.1998 314.84502 35.356197)
(4246.9681 310.42832 35.443413)
(4363.1033 306.05239 34.296114)
(4481.2304 301.50643 32.056745)
(4601.3092 297.05387 28.873162)
(4723.1522 292.81997 25.06651)
(4846.5421 288.78725 20.873192)
(4971.1873 285.08281 16.698597)
(5096.874 281.70221 12.849049)
(5223.341 278.6269 9.7105669)
(5350.2944 275.82407 7.6560972)
(5477.5532 273.12278 7.0134863)
(5604.858 270.47994 8.0206958)
(5732.0845 267.61372 10.932231)
(5859.0561 264.39602 15.81072)
(5985.7538 260.5357 22.847509)
(6112.0362 255.81966 31.653712)
(6237.9977 250.27557 42.406689)
(6363.6003 243.22928 54.722788)
(6489.2005 234.79293 68.351328)
(6614.569 224.72891 82.862214)
(6739.9402 213.00317 97.926414)
(6865.3887 199.67505 113.03861)
(6990.9516 184.66663 127.97689)
(7116.8103 168.16147 142.15576)
(7242.5159 150.65988 155.49136)
(7369.0193 131.45391 167.79509)
(7494.4633 112.6975 178.71717)
(7620.8606 92.665165 188.8461)
(-5.1044494 0.5962497 -0.1889795)
(-6.8516072 0.74192991 -2.404822)
(-3.9883973 5.5016373 -7.4299684)
(1.1699107 8.371342 -10.760431)
(9.197726 14.600864 -15.096457)
(19.742884 20.30651 -18.509936)
(32.365478 27.876357 -21.283793)
(46.596284 35.436154 -22.813554)
(62.634299 43.812874 -23.221936)
(80.092293 52.348569 -22.474478)
(98.900757 61.18356 -20.276298)
(119.09243 70.034013 -17.246965)
(140.71135 78.918164 -12.8808)
(163.85264 87.570173 -8.0292583)
(188.60277 96.177992 -2.3015796)
(215.23078 104.46026 3.3237522)
(243.60465 112.65357 9.4576932)
(274.39485 120.53713 14.997586)
(307.24452 128.3998 20.346261)
(342.71184 136.0266 24.871129)
(380.69514 143.76134 28.772244)
(421.48232 151.45442 31.589107)
(464.98375 159.29068 33.644655)
(511.42955 167.23379 34.596656)
(560.71399 175.35236 34.748406)
(612.89586 183.70268 33.954672)
(667.89755 192.14881 32.587881)
(725.63074 200.72032 30.573133)
(786.04309 209.37451 28.178437)
(849.00677 217.90132 25.543648)
(914.3416 226.28432 22.812433)
(981.98941 234.34225 20.083559)
(1051.6894 241.96339 17.528712)
(1123.4195 248.98231 15.114851)
(1196.9357 255.26389 13.025639)
(1272.1735 260.73383 11.108731)
(1348.9962 265.26108 9.4277741)
(1427.2847 268.81021 7.9192248)
(1506.8428 271.3481 6.5426087)
(1587.6769 272.93859 5.177863)
(1669.6303 273.47974 3.7816195)
(1752.698 273.26284 2.3194479)
(1836.7593 272.1681 0.66265024)
(1921.7231 270.47154 -1.1439204)
(2007.5519 268.30545 -3.1461835)
(2094.2015 265.75939 -5.2282357)
(2181.5716 263.01706 -7.3789241)
(2269.642 260.2257 -9.4616021)
(2358.3543 257.48292 -11.401085)
(2447.6826 254.91087 -13.016037)
(2537.5995 252.55207 -14.210905)
(2628.114 250.45602 -14.825141)
(2719.2306 248.61043 -14.768753)
(2810.9982 246.98491 -13.943193)
(2903.473 245.51264 -12.314625)
(2996.7444 244.10598 -9.8721973)
(3090.9205 242.66035 -6.6729807)
(3186.1348 241.0561 -2.8018876)
(3282.5289 239.18907 1.5902702)
(3380.2718 236.94227 6.3240084)
(3479.5156 234.24133 11.188987)
(3580.4409 231.02083 15.952673)
(3683.1845 227.21964 20.380506)
(3787.8814 222.93865 24.250421)
(3894.6536 218.08035 27.303403)
(4003.5753 212.76817 29.624788)
(4114.5101 207.51117 30.65084)
(4227.874 201.65177 30.75526)
(4343.2304 195.57571 29.691561)
(4460.7367 189.45676 27.739268)
(4580.0885 183.64173 24.951565)
(4701.2042 178.0945 21.644321)
(4823.8085 172.94728 18.053458)
(4947.7613 168.25598 14.487503)
(5072.7784 164.06648 11.243223)
(5198.6225 160.32897 8.7528599)
(5325.0865 156.98305 7.2686982)
(5451.9261 153.89664 7.1427325)
(5578.9789 150.94395 8.5806045)
(5706.0481 147.82687 11.853738)
(5833.0795 144.46437 16.92361)
(5959.8311 140.43911 24.046024)
(6086.555 135.58079 32.850293)
(6212.799 129.3179 43.493893)
(6339.1726 122.02683 55.3605)
(6465.1782 113.19108 68.854295)
(6591.2704 102.74827 83.072758)
(6717.2256 90.699462 97.781552)
(6843.4518 76.855715 112.74541)
(6969.5142 61.545538 127.20328)
(7096.1292 44.512471 141.46734)
(7222.0833 26.761906 154.38321)
(7349.2193 7.0910818 166.98025)
(7474.5281 -11.891781 177.66071)
(7601.5062 -32.283062 188.20694)
(-6.8061308 -2.0313473 -3.053823)
(-8.1560976 -2.4229077 -6.8124274)
(-6.5615954 0.1590619 -12.009536)
(-1.1370546 2.1474827 -16.061139)
(6.4589619 6.2770965 -20.725556)
(17.105521 10.741801 -24.177609)
(28.975686 16.021074 -26.847972)
(43.52471 22.064411 -28.385044)
(59.101363 28.197423 -28.927366)
(76.475861 35.231924 -27.997191)
(95.086237 41.791977 -26.149543)
(115.32953 49.111674 -22.972339)
(136.78958 55.643108 -19.056367)
(159.93115 62.738499 -14.194164)
(184.66344 69.058717 -9.0746647)
(211.11096 75.564073 -3.3011402)
(239.62628 81.506479 2.1587743)
(270.12717 87.4686 7.6366726)
(302.9378 93.099293 12.564807)
(338.16696 98.694113 17.009663)
(375.96173 104.24375 20.576933)
(416.41176 109.73702 23.422072)
(459.65941 115.437 25.272616)
(505.69758 121.15609 26.292972)
(554.62647 127.21256 26.394181)
(606.38167 133.33559 25.801349)
(661.00279 139.73004 24.512702)
(718.34496 146.27076 22.704838)
(778.43924 152.87372 20.563691)
(841.03158 159.47278 18.194325)
(906.1641 165.97237 15.736581)
(973.55208 172.20347 13.343084)
(1043.1595 178.06301 11.093366)
(1114.766 183.36047 9.0522839)
(1188.2666 188.07303 7.2616795)
(1263.5004 191.97397 5.7080638)
(1340.3182 195.03636 4.4390956)
(1418.5511 197.1702 3.2860483)
(1498.2694 198.41617 2.2520197)
(1579.1615 198.60625 1.1873745)
(1661.1843 198.01071 0.17144317)
(1744.2411 196.50541 -1.041654)
(1828.2449 194.33813 -2.2837967)
(1913.1065 191.4948 -3.7965635)
(1998.7964 188.23455 -5.482759)
(2085.1778 184.63349 -7.2626959)
(2172.2456 180.84697 -9.1384147)
(2259.9352 177.02004 -10.992225)
(2348.22 173.24766 -12.715023)
(2437.0681 169.63231 -14.181446)
(2526.4859 166.22094 -15.26892)
(2616.4725 163.04626 -15.840844)
(2707.0666 160.09353 -15.804096)
(2798.3152 157.32467 -15.06637)
(2890.2933 154.67006 -13.588109)
(2983.093 152.03725 -11.363184)
(3076.8322 149.32067 -8.4282061)
(3171.6367 146.40385 -4.873099)
(3267.6568 143.18414 -0.82677957)
(3365.0435 139.54826 3.5477943)
(3463.9516 135.43681 8.0487217)
(3564.5416 130.76566 12.470392)
(3666.9315 125.56272 16.576603)
(3771.2676 119.77107 20.189496)
(3877.6784 113.53255 23.058443)
(3986.0383 106.75845 25.211627)
(4096.8311 100.10158 26.063641)
(4209.4813 92.400956 26.56224)
(4324.3972 85.234913 25.680794)
(4441.1547 78.220281 24.073781)
(4559.8492 71.422881 21.60493)
(4680.2023 65.033792 18.696768)
(4802.133 59.047123 15.471512)
(4925.3359 53.574861 12.295009)
(5049.633 48.625832 9.5130241)
(5174.8629 44.127698 7.3747382)
(5300.7314 40.051777 6.2752495)
(5427.1086 36.19955 6.4530416)
(5553.783 32.462012 8.1868156)
(5680.6047 28.584285 11.612984)
(5807.5077 24.395189 16.871929)
(5934.3631 19.530026 24.02166)
(6061.0962 13.933872 32.894069)
(6187.9398 7.002331 43.529937)
(6314.6624 -0.52031406 55.73285)
(6441.0756 -9.8027145 68.957635)
(6567.6249 -20.64844 82.94996)
(6694.2183 -33.30002 97.637846)
(6820.8906 -47.435848 112.25916)
(6947.6081 -63.241018 126.85567)
(7074.5681 -80.3946 140.80477)
(7201.0841 -98.49739 153.98608)
(7328.5959 -118.18625 166.28793)
(7454.2173 -137.23763 177.29772)
(7581.8959 -157.53831 187.59353)
(-7.6171307 -3.9709961 -6.8675293)
(-9.240993 -6.3243521 -11.246171)
(-7.1224342 -4.9319754 -17.731171)
(-2.0601474 -4.6569415 -22.047955)
(5.6131408 -1.8623709 -26.946606)
(15.38956 0.41622134 -30.142017)
(27.702007 4.3314872 -32.95759)
(41.53354 8.1103442 -34.504272)
(57.044574 12.800708 -34.707891)
(74.193687 17.500956 -34.086895)
(92.811151 22.50731 -31.937875)
(112.73046 27.486008 -29.1663)
(134.23874 32.427124 -25.048793)
(157.31597 37.265454 -20.778708)
(181.87547 41.738985 -15.374227)
(208.43457 46.116753 -10.344448)
(236.69685 50.147693 -4.8068154)
(267.19443 53.96544 0.20978662)
(299.8013 57.591276 5.0726673)
(334.90403 61.071659 9.1106012)
(372.37664 64.496798 12.656039)
(412.61698 67.960242 15.218105)
(455.45521 71.504895 17.076714)
(501.19192 75.230045 17.971047)
(549.69408 79.131352 18.190935)
(601.09813 83.254529 17.598619)
(655.27575 87.655667 16.464611)
(712.28898 92.167855 14.840643)
(771.96078 96.853124 12.927953)
(834.30396 101.57181 10.774581)
(899.09744 106.21897 8.6488057)
(966.30587 110.65452 6.5365932)
(1035.723 114.78556 4.6195429)
(1107.2259 118.45488 2.8843973)
(1180.6941 121.47594 1.4585212)
(1255.895 123.88332 0.19467263)
(1332.8616 125.32129 -0.81090669)
(1411.286 126.05703 -1.7096664)
(1490.896 125.77002 -2.4189278)
(1571.8109 124.75841 -3.0260637)
(1653.8348 122.8038 -3.7845178)
(1736.8684 120.05913 -4.566572)
(1820.767 116.64867 -5.5831637)
(1905.4922 112.63064 -6.7723235)
(1990.96 108.2105 -8.1383002)
(2077.0795 103.46608 -9.6475287)
(2163.8238 98.552385 -11.273076)
(2251.1339 93.598359 -12.891291)
(2338.9926 88.700734 -14.430972)
(2427.382 83.952911 -15.753029)
(2516.3122 79.397132 -16.745533)
(2605.8002 75.06184 -17.279545)
(2695.8944 70.925987 -17.263661)
(2786.6505 66.953355 -16.602946)
(2878.1545 63.066203 -15.266508)
(2970.5036 59.176776 -13.229646)
(3063.8146 55.177651 -10.538567)
(3158.2191 50.956222 -7.2613136)
(3253.858 46.412415 -3.5215516)
(3350.8764 41.44135 0.53278883)
(3449.4231 35.977897 4.7196292)
(3549.6364 29.981388 8.8303571)
(3651.6413 23.418993 12.690382)
(3755.5813 16.330032 16.057939)
(3861.4678 8.7703948 18.837199)
(3969.4364 0.80707828 20.740318)
(4079.5041 -7.4781926 21.924787)
(4191.6298 -15.763354 22.085006)
(4305.7364 -24.155462 21.364427)
(4421.7957 -32.3384 19.799517)
(4539.7061 -40.250683 17.674969)
(4659.3367 -47.766971 15.063187)
(4780.3565 -54.651909 12.230622)
(4902.7277 -60.947706 9.5116999)
(5026.4198 -66.728904 7.1220975)
(5150.963 -71.965095 5.5114645)
(5276.3313 -76.750497 4.8366769)
(5402.2609 -81.22269 5.4599416)
(5528.6309 -85.567646 7.5286122)
(5655.2877 -89.980656 11.278005)
(5782.1475 -94.71533 16.767296)
(5909.031 -100.07224 24.03938)
(6036.1259 -106.1295 33.034465)
(6163.01 -113.41692 43.629278)
(6290.0036 -121.97462 55.577921)