/*--------------------------------*- C++ -*----------------------------------*\
  =========                 |
  \\      /  F ield         | OpenFOAM: The Open Source CFD Toolbox
   \\    /   O peration     | Website:  https://openfoam.org
    \\  /    A nd           | Version:  6
     \\/     M anipulation  |
\*---------------------------------------------------------------------------*/
FoamFile
{
    version     2.0;
    format      ascii;
    class       pointVectorField;
    location    "1.75";
    object      u;
}
// * * * * * * * * * * * * * * * * * * * * * * * * * * * * * * * * * * * * * //

dimensions      [0 1 0 0 0 0 0];

internalField   nonuniform List<vector> 
3969
(
(0 -7.752392e-20 0)
(0 -4.1505091e-19 0)
(-0.52381394 -0.10445658 -0.054307643)
(-0.53382191 0.036868015 -0.056866401)
(0 4.2430643e-18 0)
(0 3.4191704e-18 0)
(-0.53345101 0.052095173 -0.056946846)
(-0.52342953 -0.089203002 -0.054465503)
(0 1.8161594e-19 0)
(0 1.0945528e-18 0)
(0 4.7605382e-19 0)
(-2.7338207e-18 -2.4615991e-19 0)
(0 1.3100257e-18 0)
(0 -7.542034e-19 0)
(0 -7.3672962e-19 0)
(-0.52507069 -0.086746157 -0.054612666)
(-0.52628058 -0.069080228 -0.054928896)
(-0.52752248 -0.051426346 -0.055264632)
(-0.52876857 -0.033790243 -0.055601011)
(-0.53002236 -0.016157272 -0.055940228)
(-0.53130564 0.0014960339 -0.056264972)
(-0.53257865 0.019187806 -0.056570292)
(-0.00023290162 -0.0015138253 -0.0015877297)
(-0.0002406777 -0.0023911145 -0.002214501)
(-0.0003817863 -0.0043506101 -0.0026808443)
(-0.0012991326 -0.0056105865 -0.003245118)
(-0.0022427131 -0.007660412 -0.003709308)
(-0.0039939379 -0.0092649356 -0.0042559456)
(-0.0058343124 -0.011390897 -0.0048510643)
(-0.008494744 -0.013245405 -0.0054348761)
(-0.011392686 -0.015511583 -0.0061444875)
(-0.014995331 -0.017509278 -0.0067708272)
(-0.019053095 -0.019967633 -0.0075406694)
(-0.023683348 -0.022123962 -0.0082787202)
(-0.028935314 -0.024696265 -0.0090297076)
(-0.0347379 -0.027101818 -0.0098505594)
(-0.041228257 -0.029742201 -0.010635164)
(-0.048265714 -0.032326443 -0.011460142)
(-0.05599837 -0.035081854 -0.012304878)
(-0.064327327 -0.037800973 -0.01315286)
(-0.073351814 -0.040654925 -0.014020167)
(-0.082975907 -0.04347946 -0.014904426)
(-0.093289765 -0.046387835 -0.01579918)
(-0.10420254 -0.04927976 -0.016720358)
(-0.11577073 -0.052211673 -0.017652141)
(-0.1279303 -0.055116146 -0.018616382)
(-0.14069619 -0.058014105 -0.019597461)
(-0.1540122 -0.060896248 -0.02061859)
(-0.16787826 -0.063736978 -0.02166997)
(-0.1822544 -0.066519781 -0.022758326)
(-0.19711573 -0.069259482 -0.023892251)
(-0.21241146 -0.071906556 -0.025070368)
(-0.22811851 -0.074493938 -0.026296999)
(-0.24419486 -0.076981269 -0.027577008)
(-0.26060097 -0.079379285 -0.028909499)
(-0.27729894 -0.081682338 -0.030290367)
(-0.29425012 -0.083871225 -0.031743014)
(-0.3114253 -0.085973004 -0.033223144)
(-0.32876725 -0.087958379 -0.034781899)
(-0.34627047 -0.089843673 -0.036378788)
(-0.36388568 -0.091634907 -0.038020569)
(-0.38157922 -0.09332069 -0.039720668)
(-0.39934936 -0.094935819 -0.041444129)
(-0.41713071 -0.096458149 -0.043220924)
(-0.43497229 -0.097900902 -0.045015831)
(-0.45274984 -0.099313976 -0.046843828)
(-0.47059232 -0.10061876 -0.048696359)
(-0.48833469 -0.10193914 -0.050555975)
(-0.50609556 -0.10318773 -0.052441623)
(0.00028734598 0.0011551207 0.0018664311)
(-7.701271e-05 0.0022073431 0.0016853053)
(-3.3122782e-05 0.0031849909 0.0025395204)
(-0.00094580396 0.0048369602 0.0020141132)
(-0.0021742537 0.0061806614 0.0021416246)
(-0.0037883885 0.0079867137 0.0016605991)
(-0.0060219797 0.0096219681 0.001431859)
(-0.0086022037 0.011576381 0.00093047063)
(-0.011796186 0.013421166 0.00052147655)
(-0.015498525 0.015514901 -4.9157116e-05)
(-0.019741831 0.017496564 -0.00057936936)
(-0.024607584 0.019703147 -0.0012062411)
(-0.030027496 0.021806875 -0.0018525624)
(-0.036113121 0.024040118 -0.0025599434)
(-0.042781751 0.02621163 -0.003299827)
(-0.050165765 0.028458268 -0.0041042913)
(-0.05812879 0.030584131 -0.0049478445)
(-0.066865079 0.032792475 -0.0058596074)
(-0.076133179 0.034811028 -0.0068145231)
(-0.086234262 0.036894261 -0.007846798)
(-0.096814117 0.038770214 -0.0089214821)
(-0.10822291 0.040629783 -0.010073932)
(-0.12011901 0.042308805 -0.011290841)
(-0.1327626 0.043905601 -0.012577837)
(-0.14588356 0.045300312 -0.013918038)
(-0.1596663 0.046577909 -0.015340431)
(-0.17387879 0.047644701 -0.016828327)
(-0.18869887 0.048580444 -0.018386351)
(-0.20394392 0.049299867 -0.019998565)
(-0.21962137 0.049848968 -0.021683304)
(-0.23570282 0.050216077 -0.023426585)
(-0.25211471 0.05040478 -0.025223272)
(-0.26885265 0.050419629 -0.027075799)
(-0.28584471 0.050266731 -0.028970568)
(-0.30307125 0.049953106 -0.030906147)
(-0.32048693 0.049496722 -0.032874555)
(-0.33805911 0.048892473 -0.034877746)
(-0.35573718 0.048167785 -0.036881796)
(-0.37351379 0.047334948 -0.038922014)
(-0.39134606 0.046391951 -0.040950726)
(-0.40921788 0.045378681 -0.04299931)
(-0.42709522 0.044284392 -0.045025428)
(-0.44497567 0.043134398 -0.047058574)
(-0.46282297 0.041934552 -0.049058856)
(-0.48065009 0.04070249 -0.05105074)
(-0.4984262 0.039446801 -0.053015156)
(-0.51616008 0.038159012 -0.054950468)
(0 -4.7344178e-20 0)
(0 5.5874606e-19 0)
(0 -6.6150082e-19 0)
(1.3470905e-18 -1.37121e-19 0)
(0 -1.1328606e-18 0)
(0 -5.2486353e-19 0)
(0 -4.4190405e-19 0)
(-0.00078343177 0.0011509951 -0.0017017072)
(-0.00082663537 0.0039283688 -0.002741484)
(-0.00072509986 0.0043332411 -0.0033174444)
(-0.0015767421 0.0072183067 -0.0039956445)
(-0.0025651531 0.0086449979 -0.0047007899)
(-0.0041944139 0.011081339 -0.0051816192)
(-0.0062041155 0.013122958 -0.006017097)
(-0.0087327887 0.015431003 -0.0065391031)
(-0.011816081 0.017788508 -0.0074323499)
(-0.015419952 0.020135795 -0.0080690437)
(-0.01957991 0.022580329 -0.0089716196)
(-0.024383141 0.025120609 -0.0097973113)
(-0.029687425 0.027383211 -0.01059509)
(-0.03582032 0.030209163 -0.011548818)
(-0.042377599 0.032343529 -0.012316701)
(-0.049791115 0.035205719 -0.01332699)
(-0.057709559 0.03738078 -0.014135247)
(-0.066435349 0.040074055 -0.015129104)
(-0.075732773 0.042295582 -0.016006707)
(-0.085789099 0.044765441 -0.016987549)
(-0.096447296 0.046927975 -0.017921569)
(-0.10781308 0.049157147 -0.018916391)
(-0.11978566 0.051158374 -0.019896794)
(-0.13239731 0.053105082 -0.020922224)
(-0.14561225 0.054882224 -0.021942024)
(-0.15944208 0.056511759 -0.022978917)
(-0.1737335 0.058024722 -0.024103364)
(-0.18854419 0.059321602 -0.025232252)
(-0.2038231 0.060455267 -0.026416222)
(-0.21953042 0.061396329 -0.027635991)
(-0.23561878 0.062145618 -0.028893619)
(-0.25205469 0.062713142 -0.030207119)
(-0.26879162 0.063092735 -0.03156608)
(-0.28578957 0.063285416 -0.032975193)
(-0.30300707 0.06329736 -0.034432172)
(-0.32041441 0.063162924 -0.035949663)
(-0.33797555 0.062822097 -0.03749262)
(-0.355624 0.062378361 -0.039118771)
(-0.37337068 0.061757414 -0.040757678)
(-0.39118055 0.061029233 -0.042458051)
(-0.40900808 0.060175774 -0.04418649)
(-0.42686217 0.0592231 -0.045952028)
(-0.44469859 0.058181068 -0.047746423)
(-0.46252347 0.057060531 -0.049561913)
(-0.48031427 0.055882047 -0.051399346)
(-0.49806472 0.054645616 -0.053245745)
(-0.51578613 0.053381904 -0.055098915)
(-0.53219995 0.034430041 -0.056631861)
(-0.53091766 0.016759654 -0.056315686)
(-0.52966544 -0.00087663566 -0.056012964)
(-0.52836508 -0.018526244 -0.055722293)
(-0.52716581 -0.036132797 -0.055423155)
(-0.52589252 -0.05382088 -0.055117469)
(-0.52469153 -0.071486395 -0.054800556)
(-0.50571825 -0.087931053 -0.052555395)
(-0.48793617 -0.086677755 -0.050644158)
(-0.47015014 -0.085388242 -0.048704069)
(-0.45230692 -0.084090521 -0.046742468)
(-0.43444472 -0.082755148 -0.044756142)
(-0.41657405 -0.081386394 -0.042757131)
(-0.39871342 -0.07997292 -0.040751243)
(-0.38088493 -0.078506211 -0.038742424)
(-0.36310849 -0.076985862 -0.036733681)
(-0.34542033 -0.07540476 -0.034739258)
(-0.32783351 -0.073742436 -0.032764795)
(-0.31045736 -0.071996675 -0.030827275)
(-0.29315966 -0.0702051 -0.028878229)
(-0.27614189 -0.068314305 -0.026998093)
(-0.25936737 -0.066346826 -0.025141538)
(-0.24288886 -0.064299629 -0.023340177)
(-0.22674501 -0.062174063 -0.021588848)
(-0.21097737 -0.059973332 -0.019891984)
(-0.19562127 -0.057702411 -0.018259746)
(-0.18071917 -0.05536474 -0.016689175)
(-0.16629939 -0.05297695 -0.015183941)
(-0.15240008 -0.050528003 -0.013753969)
(-0.13905003 -0.048053742 -0.012385366)
(-0.12627113 -0.045526738 -0.011097221)
(-0.11409239 -0.043010148 -0.0098623947)
(-0.10253105 -0.040445184 -0.0087213388)
(-0.091596914 -0.03793018 -0.007617574)
(-0.081310728 -0.035367662 -0.0066177877)
(-0.071671674 -0.032900369 -0.0056402323)
(-0.062685362 -0.030380694 -0.0047753022)
(-0.054348832 -0.028003116 -0.0039100745)
(-0.04666095 -0.025582154 -0.0031650031)
(-0.039605774 -0.02331582 -0.0024321476)
(-0.033208093 -0.020976195 -0.0017946094)
(-0.027436067 -0.018901715 -0.001122421)
(-0.022220333 -0.016721147 -0.00066143736)
(-0.017598792 -0.014871912 -3.1136514e-05)
(-0.013570704 -0.012801262 0.00031744776)
(-0.010000061 -0.011157154 0.00084551953)
(-0.0071028216 -0.0092275694 0.0011489418)
(-0.0045618904 -0.0079785528 0.0015252791)
(-0.0025946046 -0.0061255578 0.0016805867)
(-0.0010158255 -0.0050827376 0.0020036886)
(3.5082014e-05 -0.0034980607 0.0019411771)
(0.0006131684 -0.0026341361 0.0019944986)
(0.00085485169 -0.0012985372 0.0017870561)
(-0.0001168234 -0.000682471 0.00088897416)
(0 5.7373068e-19 0)
(0 4.4850875e-19 0)
(0 -2.3241723e-19 0)
(0 -1.5271784e-18 7.6427333e-19)
(0 -1.3408761e-18 0)
(0 -2.9481173e-19 0)
(0 1.4098213e-18 0)
(0 1.9516925e-18 0)
(0 1.8604565e-18 0)
(0 1.7677508e-18 0)
(0 1.5267322e-18 -1.8755264e-19)
(0 4.1243572e-18 0)
(0 1.8080612e-18 0)
(0 -3.3313912e-19 0)
(-0.53380126 0.038813123 -0.056875338)
(-0.53376939 0.040747141 -0.056883143)
(-0.53372285 0.042663472 -0.056887655)
(-0.53367156 0.04456053 -0.05689501)
(-0.53361281 0.046451762 -0.056911133)
(-0.53354888 0.048330344 -0.0569283)
(-0.53349541 0.050217148 -0.056936701)
(-0.52376892 -0.10255523 -0.054328538)
(-0.52372853 -0.10065336 -0.054335773)
(-0.52368543 -0.098763812 -0.054351834)
(-0.52364513 -0.096873123 -0.054365973)
(-0.52359891 -0.094974014 -0.054386125)
(-0.52354851 -0.093068568 -0.054411511)
(-0.52349121 -0.091142921 -0.054446603)
(-4.8733523e-05 -0.0059735593 -0.0015128347)
(-0.0002539221 -0.011360609 -0.0016697003)
(-0.00046564756 -0.017056745 -0.0021549686)
(-0.0015104673 -0.022316995 -0.0025788585)
(-0.002493911 -0.027408193 -0.0029952341)
(-0.0043890686 -0.0323274 -0.003483751)
(-0.0061512347 -0.036631347 -0.0040253341)
(-0.0088706052 -0.040844389 -0.0045838537)
(-0.01165923 -0.044298586 -0.0051788359)
(-0.015212082 -0.047457916 -0.0058512777)
(-0.019076067 -0.050026798 -0.0065392055)
(-0.02362519 -0.052033712 -0.0072321551)
(-0.028650673 -0.053620236 -0.0080069202)
(-0.034324889 -0.054537681 -0.0087663202)
(-0.040597363 -0.055050248 -0.0095776955)
(-0.047513383 -0.054992797 -0.010408985)
(-0.055118007 -0.054547004 -0.011260253)
(-0.063380424 -0.05360751 -0.012138912)
(-0.07235104 -0.052364921 -0.013040541)
(-0.082021212 -0.050749464 -0.013959075)
(-0.092392816 -0.048912434 -0.014915411)
(-0.10345936 -0.046856868 -0.015883262)
(-0.11521729 -0.044686849 -0.016892627)
(-0.12763094 -0.042438593 -0.017925361)
(-0.14069779 -0.040218211 -0.019002396)
(-0.15437943 -0.038057115 -0.020095522)
(-0.16862136 -0.036044369 -0.021245428)
(-0.18340776 -0.034248754 -0.022434423)
(-0.19868399 -0.032710902 -0.023665036)
(-0.21439045 -0.031506636 -0.02494478)
(-0.23049397 -0.030681937 -0.026273211)
(-0.24693843 -0.030273326 -0.02765071)
(-0.26366977 -0.03033312 -0.029074775)
(-0.28064894 -0.030876873 -0.030553843)
(-0.29782415 -0.031936638 -0.032071566)
(-0.31515148 -0.033528679 -0.033637182)
(-0.33259619 -0.035635222 -0.035248098)
(-0.35012106 -0.038283553 -0.036889457)
(-0.36769669 -0.041441156 -0.038573181)
(-0.38528787 -0.045085793 -0.040289909)
(-0.40288704 -0.049203134 -0.04202176)
(-0.4204611 -0.053724354 -0.04379515)
(-0.43801646 -0.058640004 -0.04556801)
(-0.45550541 -0.06386264 -0.047375078)
(-0.47299222 -0.069346829 -0.04917871)
(-0.49037515 -0.075044301 -0.050991971)
(-0.50776318 -0.08085658 -0.052805118)
(0.00039588268 -0.0075450121 -0.0010169526)
(6.7857314e-05 -0.014230739 -0.0012583162)
(-0.00040717046 -0.021846918 -0.0014964635)
(-0.0013435048 -0.028070674 -0.0019987449)
(-0.0026748113 -0.034726497 -0.0022898832)
(-0.0041751317 -0.040338098 -0.0027918762)
(-0.006280948 -0.045800235 -0.0032764835)
(-0.0087342717 -0.050331257 -0.0037217283)
(-0.011607989 -0.054336967 -0.0044335016)
(-0.014996868 -0.057478591 -0.0049643532)
(-0.018908369 -0.059949649 -0.0056458021)
(-0.023309963 -0.061505947 -0.0063448791)
(-0.028322259 -0.062381385 -0.0070787009)
(-0.033932498 -0.062327415 -0.0078442632)
(-0.040171095 -0.061621543 -0.0086575183)
(-0.047064899 -0.060093127 -0.0094612345)
(-0.054630953 -0.057955095 -0.010323244)
(-0.062879665 -0.055134173 -0.011210136)
(-0.071885942 -0.051815405 -0.012117882)
(-0.081581865 -0.04798578 -0.013075315)
(-0.092049418 -0.043809373 -0.014050549)
(-0.10321116 -0.039336225 -0.015063809)
(-0.11509942 -0.034683729 -0.016120844)
(-0.12767064 -0.029972474 -0.017209603)
(-0.14092267 -0.025278012 -0.018335109)
(-0.15477349 -0.02072632 -0.019523564)
(-0.16923216 -0.016413272 -0.020749267)
(-0.18422879 -0.012425286 -0.022014444)
(-0.19970307 -0.0088819461 -0.0233437)
(-0.21562318 -0.0058409165 -0.024710133)
(-0.23192415 -0.0033957505 -0.026129122)
(-0.24854715 -0.001604415 -0.027595035)
(-0.26544464 -0.00052356881 -0.029108591)
(-0.28256354 -0.00020158073 -0.030660758)
(-0.29984901 -0.00066602319 -0.032255712)
(-0.31726455 -0.0019319411 -0.033890008)
(-0.33476682 -0.0040128541 -0.035550063)
(-0.35231386 -0.0068947334 -0.037244997)
(-0.36988983 -0.010557801 -0.038964662)
(-0.3874478 -0.01496012 -0.040700023)
(-0.40500212 -0.020074988 -0.042454635)
(-0.42248786 -0.025805729 -0.044226838)
(-0.43995902 -0.032123382 -0.046002066)
(-0.45732869 -0.038912586 -0.047786205)
(-0.47469421 -0.046102685 -0.049576492)
(-0.49193415 -0.053605758 -0.051356252)
(-0.50916908 -0.061292354 -0.053154557)
(0.0009892092 -0.0051634151 -0.00075127899)
(0.00059953412 -0.010105649 -0.00084493342)
(0.000433685 -0.015081888 -0.0010289267)
(-0.00071547576 -0.019692487 -0.0014002453)
(-0.0015900238 -0.024014976 -0.0016965874)
(-0.0035262369 -0.028161532 -0.0021330376)
(-0.0053714407 -0.031565362 -0.0024990826)
(-0.0080042664 -0.034847778 -0.0031127469)
(-0.010834665 -0.037321779 -0.0036319946)
(-0.01444334 -0.039464999 -0.0041803874)
(-0.018260744 -0.040969306 -0.0048925229)
(-0.022864759 -0.041876987 -0.0055415432)
(-0.027888076 -0.042294874 -0.0062597233)
(-0.033607388 -0.042049867 -0.0070251136)
(-0.039899318 -0.041366171 -0.0078184009)
(-0.046891066 -0.040086419 -0.0086244733)
(-0.054530966 -0.038395206 -0.0095041693)
(-0.062907441 -0.03621449 -0.010361348)
(-0.071959947 -0.033705676 -0.011311644)
(-0.081741675 -0.030839002 -0.012253731)
(-0.092213895 -0.027759259 -0.013266786)
(-0.10339764 -0.024465716 -0.014301773)
(-0.11528714 -0.021115892 -0.01539064)
(-0.12785251 -0.01770062 -0.016498997)
(-0.14104867 -0.014356388 -0.017690044)
(-0.1548783 -0.011137183 -0.018890799)
(-0.1692962 -0.0081200766 -0.0201429)
(-0.18423287 -0.0053771269 -0.021456196)
(-0.19966737 -0.0029746317 -0.022809964)
(-0.21553575 -0.00096206541 -0.024211227)
(-0.2317885 0.00059316362 -0.02566938)
(-0.24837521 0.0016580477 -0.027170616)
(-0.26525128 0.002190809 -0.02872117)
(-0.28235429 0.0021552896 -0.030311905)
(-0.29965196 0.0015544721 -0.031953562)
(-0.31709074 0.00034621102 -0.033620602)
(-0.33463422 -0.0014372073 -0.035332799)
(-0.35225185 -0.0038162461 -0.037070307)
(-0.3699036 -0.0067492136 -0.038833468)
(-0.38756828 -0.010220998 -0.040626396)
(-0.40522062 -0.014192883 -0.042427941)
(-0.42284381 -0.018609013 -0.044259909)
(-0.44043724 -0.023447652 -0.04607663)
(-0.45796058 -0.028609417 -0.047931815)
(-0.47545971 -0.034071226 -0.049758881)
(-0.49285875 -0.039736323 -0.051608408)
(-0.5102543 -0.045543957 -0.053436708)
(0.0013548333 -0.00025542864 -0.00012720729)
(0.0011606854 -0.00016612021 -0.00017844996)
(0.0010801603 -0.00065155796 -0.00027340151)
(0.00044343306 -0.00048111381 -0.00076644938)
(-0.00075358153 -0.00084737323 -0.00095106248)
(-0.0021954278 -0.00079329802 -0.0014559114)
(-0.0042530753 -0.00093238504 -0.0019404843)
(-0.006654195 -0.0010148332 -0.0024368841)
(-0.0097400306 -0.0010569281 -0.0029924055)
(-0.013198221 -0.0011619007 -0.0036679701)
(-0.017330297 -0.001206812 -0.0042838395)
(-0.022031961 -0.00129534 -0.0049422761)
(-0.027290753 -0.0014476707 -0.0056531224)
(-0.03324405 -0.0015036654 -0.0064109903)
(-0.039769308 -0.0017398044 -0.0071521943)
(-0.046996877 -0.001884697 -0.0079787356)
(-0.054847021 -0.002173622 -0.0087918821)
(-0.063369351 -0.0024315158 -0.009682958)
(-0.072571299 -0.0027836598 -0.010590942)
(-0.08241778 -0.0031676966 -0.011534119)
(-0.092975815 -0.0036197908 -0.012528666)
(-0.10417601 -0.0041520042 -0.013540322)
(-0.11601663 -0.0047288638 -0.014610242)
(-0.12845557 -0.0053755932 -0.015732281)
(-0.14152016 -0.0061153073 -0.016885227)
(-0.15515131 -0.0069116456 -0.018084507)
(-0.16931701 -0.0077892033 -0.019369246)
(-0.18399595 -0.0087194224 -0.020686942)
(-0.19915266 -0.0097265311 -0.022060603)
(-0.2147458 -0.01078367 -0.023496147)
(-0.23074024 -0.011903222 -0.024978182)
(-0.24709467 -0.013067712 -0.026514751)
(-0.26376676 -0.014276056 -0.028101927)
(-0.28071491 -0.015522563 -0.02973848)
(-0.29790525 -0.016795212 -0.031419551)
(-0.31528839 -0.01809416 -0.033142606)
(-0.33284144 -0.019408997 -0.034907644)
(-0.35051229 -0.020731698 -0.036703356)
(-0.36828003 -0.02205535 -0.038536149)
(-0.38610904 -0.023385137 -0.040385534)
(-0.40399825 -0.024718934 -0.042261915)
(-0.42188498 -0.026037918 -0.044150977)
(-0.43979659 -0.027360544 -0.046055564)
(-0.45765506 -0.028658386 -0.047966245)
(-0.47553397 -0.029959466 -0.049875963)
(-0.49332379 -0.031244707 -0.051783945)
(-0.51111418 -0.032526903 -0.053695597)
(0.001669637 0.004841534 0.00036410388)
(0.0016345638 0.009532288 0.00028719374)
(0.0020461475 0.014133373 0.00012400836)
(0.0011790144 0.018568348 -0.00010781608)
(0.00046901278 0.02275471 -0.0003738836)
(-0.0012290136 0.026540754 -0.00085169319)
(-0.0030707452 0.030085166 -0.0012386729)
(-0.0058042697 0.032944446 -0.0016984972)
(-0.0087624387 0.035574673 -0.0023304035)
(-0.012556338 0.037418568 -0.002850614)
(-0.016773335 0.03886005 -0.0034673743)
(-0.021685383 0.039530188 -0.0041411561)
(-0.027160823 0.039752532 -0.0048750037)
(-0.03330464 0.03924618 -0.0055857756)
(-0.040028152 0.038156006 -0.0063934281)
(-0.047449435 0.036519199 -0.00718808)
(-0.055449458 0.03423016 -0.0080478985)
(-0.064148052 0.031505837 -0.0089085593)
(-0.073418229 0.028208514 -0.0098327933)
(-0.083363601 0.024546307 -0.010771334)
(-0.093889424 0.020458026 -0.011772704)
(-0.10501644 0.01610726 -0.01280293)
(-0.11672792 0.011507995 -0.013903977)
(-0.12903011 0.0067492521 -0.015011564)
(-0.14190138 0.0019073898 -0.016191551)
(-0.15529181 -0.0029471435 -0.017419272)
(-0.16922024 -0.0077231707 -0.018700561)
(-0.18363866 -0.012361518 -0.020011199)
(-0.19852773 -0.016785403 -0.021397214)
(-0.21385537 -0.020922208 -0.022823149)
(-0.22960287 -0.02471547 -0.024313208)
(-0.24573185 -0.028102991 -0.025854799)
(-0.26221757 -0.031034695 -0.027458616)
(-0.27902067 -0.033482983 -0.029106743)
(-0.29611561 -0.035392823 -0.030819294)
(-0.31345964 -0.036771125 -0.032572365)
(-0.33102684 -0.037581064 -0.034377798)
(-0.34877619 -0.037829663 -0.036227789)
(-0.36668174 -0.037529985 -0.038103686)
(-0.38473075 -0.03671905 -0.040023667)
(-0.40283681 -0.035379234 -0.041968445)
(-0.42101162 -0.033576142 -0.043947877)
(-0.43921788 -0.031356414 -0.0459263)
(-0.45743389 -0.02876346 -0.047934862)
(-0.47565628 -0.025885065 -0.049925986)
(-0.49381367 -0.022763016 -0.05194133)
(-0.51197696 -0.019504346 -0.05393821)
(0.0015740069 0.0070075595 0.00097105937)
(0.0015683433 0.01415958 0.00078115956)
(0.0018887794 0.020761353 0.0010131439)
(0.0013053672 0.027549861 0.00060799302)
(0.00038252171 0.033538718 0.00045674208)
(-0.0011022499 0.039453973 -5.3181229e-05)
(-0.0031778211 0.044551999 -0.00036526528)
(-0.0057393717 0.049166712 -0.00097112693)
(-0.0089297218 0.05302709 -0.0014609248)
(-0.012692335 0.05610108 -0.0020506138)
(-0.017070849 0.058407242 -0.0026838369)
(-0.02205367 0.059869431 -0.0033557875)
(-0.027659839 0.060452004 -0.0040299365)
(-0.033910768 0.060208791 -0.0047751386)
(-0.040756621 0.059058944 -0.0055328453)
(-0.048276247 0.057148709 -0.0063412299)
(-0.056384034 0.054376837 -0.0071649718)
(-0.065140822 0.050945498 -0.0080465873)
(-0.07449198 0.04677461 -0.0089626291)
(-0.084462053 0.042081778 -0.0099125772)
(-0.095006796 0.036830774 -0.010917487)
(-0.1061671 0.031163923 -0.011966717)
(-0.11785181 0.025202787 -0.013046051)
(-0.13014752 0.01909483 -0.01418457)
(-0.14293347 0.012813613 -0.015389992)
(-0.15626365 0.0065908909 -0.016618591)
(-0.17009607 0.00043152993 -0.017923475)
(-0.1844094 -0.0054829208 -0.019281894)
(-0.19917863 -0.011099602 -0.020698919)
(-0.21440426 -0.01628661 -0.022175212)
(-0.23004281 -0.020979949 -0.023714032)
(-0.24607402 -0.025094386 -0.025312761)
(-0.26247616 -0.028568217 -0.026970006)
(-0.27921093 -0.031342567 -0.028682637)
(-0.29625574 -0.033381885 -0.030454719)
(-0.31356846 -0.034656751 -0.032270061)
(-0.33113537 -0.03514581 -0.034144238)
(-0.34889213 -0.034858185 -0.036051592)
(-0.36684737 -0.033801018 -0.038006961)
(-0.38491876 -0.032001256 -0.039988457)
(-0.40311328 -0.029520391 -0.042001887)
(-0.42138543 -0.026387359 -0.044026634)
(-0.43971704 -0.022673778 -0.046072033)
(-0.45806519 -0.018462591 -0.048117241)
(-0.47642123 -0.013838705 -0.050166424)
(-0.49474892 -0.008898485 -0.052204576)
(-0.5130736 -0.0037535864 -0.054231037)
(0.0009922137 0.0056884048 0.0013385943)
(0.0009922163 0.011012775 0.0013583579)
(0.0012883609 0.016346182 0.0015419579)
(0.00045091878 0.021519161 0.0013626293)
(-0.00032794656 0.026529069 0.0011712039)
(-0.0021007516 0.031275888 0.0007821148)
(-0.0040236969 0.035682998 0.00044403727)
(-0.0067480371 0.039626871 -7.2128908e-05)
(-0.0098642574 0.04319831 -0.0005274036)
(-0.013659019 0.046117457 -0.0011137172)
(-0.018004303 0.048665406 -0.0017244382)
(-0.022950748 0.050455507 -0.0023150455)
(-0.028530844 0.051785374 -0.0030267087)
(-0.034736809 0.052455715 -0.0037497594)
(-0.041545325 0.052534598 -0.0044980773)
(-0.049041451 0.052031486 -0.0053194501)
(-0.057112647 0.050957067 -0.0061527974)
(-0.065886077 0.049350672 -0.0070611742)
(-0.075222223 0.047259742 -0.007982071)
(-0.085236408 0.044710377 -0.0089807085)
(-0.095826165 0.041778504 -0.010001998)
(-0.10702343 0.038523335 -0.011103989)
(-0.11883262 0.034990596 -0.012234205)
(-0.13120225 0.031294388 -0.013442211)
(-0.1441116 0.027456931 -0.014684279)
(-0.15756703 0.023579383 -0.015995757)
(-0.17153327 0.019726267 -0.017380648)
(-0.18598923 0.015962759 -0.018805776)
(-0.20092257 0.012368395 -0.020300012)
(-0.21629431 0.0090166776 -0.021858363)
(-0.23207073 0.005951005 -0.023473395)
(-0.24823689 0.0032394524 -0.025151883)
(-0.26474551 0.0009210183 -0.026883769)
(-0.28157705 -0.00096097774 -0.02867242)
(-0.29868738 -0.0023757527 -0.030510807)
(-0.31604822 -0.0033089895 -0.03239245)
(-0.33362736 -0.0037253506 -0.034325886)
(-0.35138304 -0.0036522297 -0.036285221)
(-0.36928975 -0.0030677627 -0.038276981)
(-0.38730606 -0.002008159 -0.040296454)
(-0.40541516 -0.00048858216 -0.042333089)
(-0.42358615 0.0014629128 -0.044385906)
(-0.441786 0.0037925851 -0.046434325)
(-0.45999612 0.0064601202 -0.048489907)
(-0.47819683 0.0093953291 -0.050522807)
(-0.49637344 0.012549252 -0.052553875)
(-0.51450875 0.015841959 -0.054562647)
(0 -1.7339835e-19 0)
(0 9.7000128e-19 0)
(0 8.3883443e-19 0)
(0 7.4025669e-19 -2.537504e-19)
(0 2.9244055e-19 0)
(0 -1.0270931e-20 0)
(0 1.4215833e-19 0)
(0 5.3271797e-20 0)
(0 -3.4614149e-19 0)
(0 -8.5334272e-19 0)
(0 -1.0601112e-18 -1.7602713e-19)
(0 -1.7379563e-19 0)
(0 2.1408478e-19 0)
(0 4.1353106e-19 0)
(0 3.3282485e-19 0)
(0 5.2424531e-19 0)
(0 9.5746609e-19 0)
(0 9.6009052e-19 4.8359965e-19)
(0 8.2727997e-19 0)
(0 9.6327779e-19 0)
(0 3.2620371e-19 0)
(-5.5845711e-18 2.6308704e-19 0)
(2.3783321e-18 -5.9558425e-19 0)
(-1.3833392e-19 -2.3934881e-19 0)
(4.2943362e-19 -4.2163439e-19 -3.1996409e-19)
(-8.0209841e-19 -5.8862597e-19 0)
(-2.0529889e-18 -8.4141581e-19 0)
(3.1375655e-19 -6.9476456e-19 0)
(0 5.167693e-19 0)
(0 1.8477506e-19 0)
(0 -3.5853855e-19 0)
(0 3.4952909e-20 9.1470255e-19)
(0 3.9425163e-19 0)
(0 5.7420887e-19 0)
(0 -1.5953441e-19 0)
(0 -4.1633681e-19 0)
(0 -3.4037424e-19 0)
(0 8.006211e-20 0)
(0 3.9946603e-19 -9.1025008e-20)
(0 2.9555935e-19 0)
(0 -1.0712195e-19 0)
(0 2.765817e-19 0)
(0 5.1189705e-20 0)
(0 -3.0183912e-19 0)
(0 4.4190438e-19 0)
(0 2.8140677e-20 3.2346891e-19)
(0 4.3780742e-19 0)
(0 6.9236672e-19 0)
(0 6.2705161e-19 0)
(-0.00026103008 0.00028956138 0.0010308451)
(-0.00052301029 0.00044790653 0.00082260988)
(-0.00075645262 0.00049647334 0.00043646674)
(-0.00089028446 0.00053830128 0.00015962099)
(-0.00092115698 0.00053958589 -0.00015676061)
(-0.00094996336 0.00062336366 -0.00051027142)
(-0.00079596117 0.00039946484 -0.00084499611)
(-0.00064405336 0.00226392 0.0014665755)
(-0.0010009662 0.0026815986 0.00077274464)
(-0.0012140169 0.0025949831 0.00029918349)
(-0.0013625313 0.002615902 -0.00018346665)
(-0.0014203586 0.0028753319 -0.0006381815)
(-0.0013258148 0.0029685063 -0.0012410208)
(-0.0011665859 0.0030705305 -0.0019303908)
(-0.00065488809 0.0029432873 0.001721204)
(-0.0012536077 0.0028401705 0.0012187209)
(-0.0016326779 0.0032312044 0.00026779102)
(-0.0017306939 0.0033704695 -0.00020183794)
(-0.001787772 0.0033985506 -0.0010763853)
(-0.0016123452 0.0036131898 -0.0016199104)
(-0.0013412612 0.0041114362 -0.002687007)
(-0.0018102366 0.0051173082 0.001354856)
(-0.0021526991 0.0054656525 0.0007368792)
(-0.00251948 0.0056422257 -3.556476e-05)
(-0.0026385243 0.0057890662 -0.00068126619)
(-0.002682584 0.0060019411 -0.0014774462)
(-0.0024297703 0.0064465759 -0.0023005046)
(-0.0021147026 0.0064818578 -0.0031033576)
(-0.0027847493 0.0063411328 0.001358237)
(-0.0034001806 0.006550766 0.00066024724)
(-0.0038087462 0.0068021545 -0.00026021114)
(-0.0039157297 0.0070631375 -0.0010819365)
(-0.0039266299 0.0074124318 -0.001945378)
(-0.0037000475 0.0076875874 -0.0027779352)
(-0.0032814315 0.0081354295 -0.0038268247)
(-0.0046605927 0.0084580897 0.00084765771)
(-0.0050954627 0.0087681027 0.00017497774)
(-0.0055249236 0.0090876961 -0.00078084119)
(-0.0055835383 0.0094493442 -0.0014730858)
(-0.0056150322 0.0096947124 -0.0025055548)
(-0.0052372335 0.010087328 -0.0033744462)
(-0.0048479084 0.010469864 -0.0042753086)
(-0.0067262987 0.009966624 0.0005881412)
(-0.0072910767 0.010267434 -0.00028411122)
(-0.0076264701 0.010702259 -0.0011618929)
(-0.0077829212 0.011015557 -0.0020555344)
(-0.0077127779 0.011474126 -0.003025385)
(-0.0074603325 0.012023336 -0.003922425)
(-0.0069685628 0.012459397 -0.0050489634)
(-0.0094367382 0.012083862 2.0730243e-05)
(-0.0099768449 0.012596597 -0.00071053944)
(-0.010412982 0.01304955 -0.0017923454)
(-0.010456099 0.013486452 -0.0026685732)
(-0.010370921 0.013859607 -0.0035975786)
(-0.010062409 0.014339159 -0.0046410901)
(-0.0094789812 0.014771054 -0.0055950721)
(-0.012624551 0.013943067 -0.0003901805)
(-0.013171511 0.014331447 -0.0013816377)
(-0.013487213 0.014762228 -0.0023256069)
(-0.013590806 0.015291477 -0.0032225233)
(-0.013493439 0.015860898 -0.0042920803)
(-0.013182975 0.016437725 -0.0052441607)
(-0.012634579 0.017079775 -0.0063837379)
(-0.016319217 0.016037922 -0.0010206146)
(-0.016888899 0.016674172 -0.0018951961)
(-0.017289389 0.017219305 -0.0028911182)
(-0.017393374 0.017832346 -0.0039686328)
(-0.01729223 0.018341488 -0.0049234522)
(-0.016887037 0.018896642 -0.0060230493)
(-0.016303495 0.019378034 -0.0070749601)
(-0.020630342 0.018122939 -0.0015964127)
(-0.021187504 0.018648003 -0.0025374)
(-0.021521155 0.019188521 -0.0037102191)
(-0.021586751 0.01971468 -0.0045755379)
(-0.02143855 0.020329239 -0.0056974951)
(-0.021056092 0.020938512 -0.0067355662)
(-0.02044117 0.021766692 -0.0078563094)
(-0.0254537 0.020263806 -0.0022124956)
(-0.026056786 0.020924707 -0.0032551131)
(-0.02643254 0.021625971 -0.0042543578)
(-0.026544089 0.022383633 -0.0053038984)
(-0.026433903 0.022999935 -0.0064836916)
(-0.025974018 0.023725298 -0.007471377)
(-0.025388054 0.024322292 -0.008726551)
(-0.030970132 0.022501396 -0.0029173071)
(-0.031497393 0.023120983 -0.0039897726)
(-0.031852051 0.023789164 -0.0050349243)
(-0.031914772 0.024340488 -0.0061540129)
(-0.031755553 0.025035693 -0.007212376)
(-0.031279491 0.025743259 -0.0083132903)
(-0.030664575 0.026522695 -0.00947916)
(-0.037027398 0.024707108 -0.0036350146)
(-0.037582527 0.02542934 -0.0046933192)
(-0.038009075 0.026179962 -0.0057799748)
(-0.038087324 0.026990606 -0.0068424967)
(-0.037930464 0.027755812 -0.0080519266)
(-0.037495414 0.028570317 -0.0090942846)
(-0.036844098 0.029284889 -0.010388373)
(-0.043734541 0.026970748 -0.0043764351)
(-0.04429601 0.027672552 -0.0055456747)
(-0.044695284 0.028440231 -0.0065645899)
(-0.044693562 0.029116412 -0.0077715056)
(-0.044590388 0.029881091 -0.0088596608)
(-0.044050725 0.030631823 -0.00997987)
(-0.043424184 0.03149366 -0.011206641)
(-0.051101426 0.029210049 -0.0052214295)
(-0.051700784 0.030001942 -0.0063184094)
(-0.052043624 0.030787993 -0.0074104297)
(-0.052185733 0.031655607 -0.0085351948)
(-0.051968346 0.032485891 -0.0097139969)
(-0.051534952 0.033406433 -0.010820823)
(-0.050846717 0.034189356 -0.012128008)
(-0.059120625 0.031432805 -0.0060401941)
(-0.059647513 0.032193382 -0.0072204857)
(-0.060108833 0.033072161 -0.0082755538)
(-0.060077373 0.033841633 -0.0094708414)
(-0.059977819 0.034727783 -0.010619519)
(-0.059440116 0.035534208 -0.011738465)
(-0.0587853 0.03648728 -0.013011129)
(-0.067774228 0.033618401 -0.0069812894)
(-0.068422328 0.034497232 -0.0081051122)
(-0.068736441 0.035344428 -0.0091851047)
(-0.068862222 0.036272391 -0.010353326)
(-0.068662664 0.037164239 -0.011498607)
(-0.068199257 0.038156426 -0.012641174)