/*--------------------------------*- C++ -*----------------------------------*\
  =========                 |
  \\      /  F ield         | OpenFOAM: The Open Source CFD Toolbox
   \\    /   O peration     | Website:  https://openfoam.org
    \\  /    A nd           | Version:  6
     \\/     M anipulation  |
\*---------------------------------------------------------------------------*/
FoamFile
{
    version     2.0;
    format      ascii;
    class       pointVectorField;
    location    "0.18";
    object      lm;
}
// * * * * * * * * * * * * * * * * * * * * * * * * * * * * * * * * * * * * * //

dimensions      [1 -2 -1 0 0 0 0];

internalField   nonuniform List<vector> 
3969
(
(0 0 0)
(0 0 0)
(3619.629 318.15634 24.886854)
(3440.2611 -974.29108 1.7162085)
(0 0 0)
(0 0 0)
(3442.1619 -966.00017 10.842822)
(3620.3169 304.5681 12.848273)
(0 0 0)
(0 0 0)
(0 0 0)
(0 0 0)
(0 0 0)
(0 0 0)
(0 0 0)
(3593.1582 148.26956 17.051511)
(3565.1858 -14.531099 10.665524)
(3540.6147 -171.00057 10.580206)
(3518.4192 -325.00711 11.513356)
(3499.2348 -479.3583 13.340501)
(3481.507 -638.16461 12.683681)
(3463.9394 -803.32064 9.044119)
(19.841179 42.895627 42.677764)
(36.384768 69.553176 50.454614)
(65.728571 96.708489 51.069874)
(103.11479 123.36163 48.661004)
(147.71305 147.29106 44.104803)
(197.36275 170.04922 40.287181)
(251.92483 190.23129 36.767271)
(310.11695 208.67432 34.200552)
(372.35492 224.74252 32.072053)
(438.13988 238.82315 30.129964)
(508.1242 250.54995 27.480528)
(581.86895 259.5706 23.983324)
(658.99726 265.57704 19.025869)
(738.72532 268.79824 12.864987)
(819.51267 268.56269 6.0783774)
(899.62147 265.53888 -0.82222102)
(977.71485 260.17676 -6.9728319)
(1052.3648 252.88368 -11.739374)
(1122.7521 244.39316 -14.682989)
(1188.807 235.36092 -15.805341)
(1251.178 226.20121 -15.58426)
(1310.8643 217.22087 -14.741631)
(1369.1111 208.25289 -14.069601)
(1426.8727 199.17878 -14.294856)
(1484.4187 189.56287 -15.697083)
(1541.5848 179.62549 -17.988269)
(1597.4336 169.14341 -20.65755)
(1650.7248 158.90653 -22.615236)
(1700.3831 149.66155 -22.792181)
(1745.7284 142.45981 -20.481411)
(1786.9502 138.57543 -15.036821)
(1825.1617 139.06589 -6.5545338)
(1862.2855 144.68519 4.7362985)
(1900.9359 156.03579 17.854678)
(1944.0161 172.75411 32.438286)
(1994.5927 194.7671 47.149968)
(2055.6588 221.29537 61.370006)
(2129.4742 250.24739 74.033335)
(2218.6355 280.85501 84.284117)
(2324.2466 310.40072 91.355021)
(2447.6871 337.31432 94.301738)
(2588.288 359.01746 92.736681)
(2744.5345 373.83836 86.106513)
(2914.4605 379.47113 75.843963)
(3091.1927 376.65589 62.376456)
(3271.9163 364.39227 48.691578)
(3450.0294 343.00046 35.428171)
(10.405287 -43.427605 -56.55206)
(40.408593 -71.404302 -52.679335)
(70.315386 -102.71692 -57.603123)
(105.97335 -127.64354 -54.499849)
(151.61572 -155.49541 -51.496935)
(200.49434 -179.18649 -47.857585)
(254.55524 -201.87581 -44.974804)
(312.88053 -222.40895 -42.159468)
(374.95828 -241.7008 -39.73693)
(440.93046 -258.8948 -37.123414)
(511.08541 -274.73698 -33.888254)
(584.37601 -288.21995 -29.765708)
(660.99397 -299.47574 -24.719295)
(739.26082 -308.04744 -18.945705)
(818.03072 -313.78931 -12.976283)
(895.80019 -316.87255 -7.3971726)
(971.06327 -317.58898 -2.812151)
(1042.7685 -316.5581 0.32297765)
(1110.4394 -314.49746 1.8988739)
(1174.1627 -311.95106 2.0971199)
(1234.6124 -309.79879 1.5190453)
(1292.7273 -307.89049 0.61913122)
(1349.5803 -306.85125 0.31632594)
(1405.6753 -306.10463 0.58818528)
(1461.3297 -305.57356 1.7425341)
(1516.1692 -305.06588 3.2632644)
(1568.9839 -304.00986 4.3791029)
(1618.8672 -303.29646 4.4963696)
(1664.9041 -302.84595 2.744357)
(1706.4017 -303.76856 -1.2825629)
(1743.7067 -307.07261 -7.6990323)
(1777.6341 -314.03983 -16.231788)
(1809.9825 -325.85161 -26.305332)
(1842.8685 -343.59182 -37.243171)
(1879.0003 -368.09327 -48.194066)
(1921.4212 -399.70077 -58.491711)
(1972.2655 -439.04249 -67.398913)
(2035.0774 -484.63187 -74.395384)
(2112.4126 -537.06753 -78.84935)
(2205.5033 -593.71618 -80.385999)
(2316.2891 -653.55081 -78.468162)
(2444.9093 -714.09752 -72.607472)
(2590.5718 -773.14992 -62.990285)
(2750.6563 -828.05969 -50.301074)
(2921.0626 -876.49388 -35.89191)
(3096.4098 -916.93334 -21.57798)
(3270.9568 -948.45728 -8.3938806)
(0 0 0)
(0 0 0)
(0 0 0)
(0 0 0)
(0 0 0)
(0 0 0)
(0 0 0)
(24.225546 -28.653137 43.451435)
(45.49026 -84.592507 53.557482)
(70.454482 -92.803313 49.449888)
(111.89607 -131.75711 49.870418)
(154.56184 -153.86723 46.295891)
(203.51586 -178.6595 42.8599)
(257.47961 -201.48699 40.587592)
(314.94838 -221.72964 38.085089)
(377.27185 -240.52189 35.357446)
(443.0639 -257.83827 32.854543)
(513.26549 -272.43586 29.043972)
(587.24572 -284.96273 24.021202)
(664.2776 -295.08633 18.090741)
(742.72596 -302.3684 11.401506)
(821.53724 -307.36204 4.8188291)
(898.83609 -309.49362 -1.4522784)
(973.60931 -309.7792 -6.5671553)
(1044.7564 -308.38978 -10.380226)
(1112.0677 -306.12384 -12.788129)
(1175.8209 -303.5323 -14.119397)
(1236.7059 -301.06762 -14.777535)
(1295.583 -299.03406 -15.365297)
(1353.3532 -297.4706 -16.28519)
(1410.2441 -296.23709 -17.716816)
(1466.1882 -295.19974 -19.357273)
(1520.0977 -293.98527 -20.605741)
(1572.0967 -293.18647 -21.326586)
(1620.8439 -292.43833 -20.916833)
(1665.6341 -293.16525 -18.453322)
(1706.3793 -295.60615 -13.874746)
(1743.3383 -300.99633 -6.9687381)
(1777.5544 -310.41152 2.2128603)
(1810.4521 -324.85294 13.32749)
(1844.3139 -345.14694 25.869214)
(1881.0801 -372.19131 39.166706)
(1924.6642 -404.39948 52.293946)
(1974.5834 -446.03202 64.462392)
(2039.4747 -492.77259 75.288812)
(2116.334 -544.65702 83.229926)
(2210.1773 -601.20842 87.436578)
(2321.681 -660.0938 87.459799)
(2450.9077 -719.4375 83.201673)
(2596.9446 -776.48787 74.635026)
(2757.0262 -829.06164 62.682775)
(2926.8366 -874.83039 48.639627)
(3101.1094 -912.55659 34.496313)
(3273.4422 -942.29744 22.378649)
(3465.0587 -797.7353 5.3396461)
(3484.0329 -634.27526 3.7857288)
(3500.4909 -479.14957 5.7444549)
(3520.4585 -327.7216 11.631119)
(3542.3112 -177.76648 16.839239)
(3567.7858 -23.36578 20.413086)
(3594.7798 136.82211 18.600567)
(3454.0958 329.56897 1.0997814)
(3279.1982 350.28233 -11.04802)
(3100.4192 362.90161 -25.430136)
(2923.3654 365.84316 -40.245386)
(2753.8765 359.41243 -52.930576)
(2596.1444 344.62135 -62.831391)
(2453.7525 322.94025 -69.029668)
(2328.3695 296.6478 -71.454551)
(2220.3233 267.95604 -70.438439)
(2129.147 239.20252 -66.751127)
(2052.7159 213.23035 -60.380335)
(1991.0625 186.57384 -51.306742)
(1938.433 169.41221 -42.886796)
(1893.7418 154.80595 -33.541817)
(1854.1374 146.36268 -24.273447)
(1816.8057 143.07281 -15.402263)
(1779.3313 144.53055 -7.6448351)
(1739.8737 149.66497 -1.1841721)
(1697.1643 157.62623 3.6400224)
(1650.7566 167.05076 6.9818604)
(1600.5711 177.31226 8.7505697)
(1547.3456 187.52385 9.4622249)
(1491.8039 197.44015 9.5253982)
(1434.6525 206.97901 9.2124684)
(1376.2993 216.31115 8.9134963)
(1316.7715 225.63717 8.7502892)
(1255.6699 235.05846 8.6871476)
(1192.3426 244.53874 8.5238279)
(1126.1185 253.69237 7.9674792)
(1056.4108 262.15506 6.6411653)
(983.15758 269.03664 4.4385876)
(906.61403 274.00605 1.2355032)
(827.85862 276.05631 -2.8910138)
(747.98998 275.28283 -7.7242098)
(668.16657 270.95922 -12.948213)
(589.7715 263.7697 -17.858101)
(514.57622 253.81555 -22.450565)
(442.81888 241.30334 -26.746113)
(375.00916 226.58898 -30.375941)
(312.32676 209.2553 -33.626362)
(253.75053 190.44563 -36.663267)
(198.75003 170.30334 -40.479691)
(150.70103 146.42133 -43.200787)
(106.37087 122.95566 -47.023901)
(69.838045 96.179951 -47.886992)
(41.824883 65.984822 -46.01696)
(33.470211 42.67351 -32.619219)
(0 0 0)
(0 0 0)
(0 0 0)
(0 0 0)
(0 0 0)
(0 0 0)
(0 0 0)
(0 0 0)
(0 0 0)
(0 0 0)
(0 0 0)
(0 0 0)
(0 0 0)
(0 0 0)
(3444.1944 -983.62653 -0.3283639)
(3449.8278 -990.01185 -0.096939007)
(3453.5573 -993.54771 2.7834255)
(3455.0589 -994.05661 6.5600302)
(3453.6754 -991.68704 10.423789)
(3450.1583 -986.22586 12.454648)
(3445.029 -978.5733 12.111345)
(3628.7317 326.26714 25.80608)
(3635.5217 330.58426 25.308987)
(3640.0319 331.97164 22.65537)
(3641.2321 331.00989 18.616174)
(3639.1111 328.11424 14.849913)
(3634.0932 322.47169 12.75968)
(3627.6084 315.08326 12.497405)
(7.0996062 27.543975 36.959931)
(26.885164 43.94779 34.761198)
(55.369194 64.797539 37.388923)
(93.279113 83.747546 34.924457)
(138.11585 102.31403 32.247945)
(188.61961 119.56049 29.478645)
(244.01965 135.64701 26.575235)
(303.15512 149.73205 24.534367)
(366.37001 162.03877 22.505682)
(433.26548 172.25017 20.555128)
(504.13262 180.14247 18.3772)
(578.65549 186.04004 15.552099)
(656.60816 189.85603 11.886819)
(736.93606 191.76052 7.6728599)
(818.18809 191.92401 2.8542739)
(898.8064 190.53526 -1.767734)
(977.27163 187.79792 -5.9897801)
(1052.1594 183.78686 -9.3863642)
(1122.6804 178.82683 -11.605123)
(1188.8487 172.89418 -12.743916)
(1251.1861 166.15993 -12.929792)
(1310.7834 158.63122 -12.634492)
(1368.8271 150.45683 -12.330266)
(1426.1801 141.75005 -12.455415)
(1483.4759 132.9338 -13.170746)
(1540.2371 124.02994 -14.506431)
(1595.5958 115.78635 -15.97312)
(1648.2821 108.60456 -16.986783)
(1697.2869 102.83096 -17.02654)
(1741.6964 99.229849 -15.320623)
(1781.7443 98.176789 -11.615328)
(1818.3537 100.05114 -5.7011507)
(1853.3864 105.16911 2.1793771)
(1889.5114 113.53966 11.695137)
(1929.6826 124.95043 22.34144)
(1976.8797 139.18044 33.156691)
(2034.3945 154.85712 44.108862)
(2105.1231 171.50907 53.584051)
(2190.9584 187.75212 61.482326)
(2293.9263 201.87464 67.109742)
(2415.1616 212.85564 69.722629)
(2554.3085 219.26 68.906924)
(2710.3871 220.43131 64.950212)
(2880.5027 215.87533 57.780739)
(3058.7164 206.02332 48.699231)
(3242.2405 191.34604 39.025036)
(3422.8152 170.42338 28.253726)
(-2.0941201 17.325801 23.865189)
(17.39291 24.963484 22.780896)
(47.827577 41.172677 24.158442)
(85.619019 53.141856 22.56445)
(131.12855 65.341647 20.695093)
(182.21535 77.097367 18.50618)
(237.945 87.590409 16.680553)
(298.04781 96.967337 15.275367)
(362.03679 104.89034 13.799724)
(429.90945 111.35044 12.532366)
(501.51653 116.22303 10.944116)
(576.88678 119.4922 8.9120322)
(655.23731 121.20734 6.3912024)
(735.76404 121.61943 3.3760531)
(817.06704 120.83686 0.2089636)
(897.58646 119.08782 -3.0178264)
(975.80527 116.42629 -5.9787528)
(1050.5487 113.05992 -8.2452562)
(1121.1382 108.98104 -9.8643284)
(1187.5319 104.21911 -10.7223)
(1250.2225 98.696548 -11.029419)
(1310.1683 92.47907 -11.066743)
(1368.3756 85.642056 -11.123211)
(1425.825 78.342786 -11.405582)
(1482.6432 70.662305 -12.165491)
(1538.5049 63.250134 -13.042477)
(1592.7398 56.154016 -14.034482)
(1644.2641 50.158336 -14.87843)
(1691.7801 45.503671 -14.74519)
(1734.8778 42.611482 -13.590619)
(1773.5143 41.698973 -10.988422)
(1808.6796 42.934994 -6.8239245)
(1842.2 46.294526 -1.2713874)
(1876.6703 51.531027 5.5850087)
(1914.921 58.359111 13.164301)
(1960.3681 66.181465 21.28282)
(2016.0612 74.372779 29.158831)
(2084.7157 81.897569 36.423168)
(2169.1875 88.270072 42.449358)
(2270.8343 91.780339 46.942801)
(2391.1839 92.30259 49.215161)
(2529.7732 88.611857 49.266906)
(2685.2954 80.649335 46.874053)
(2855.0144 68.264304 42.359999)
(3033.4361 52.055326 36.621513)
(3216.8544 32.385223 29.207797)
(3399.2198 7.8160131 21.74667)
(-6.378243 7.9707982 12.191676)
(13.375432 11.750374 10.460586)
(42.445174 18.92137 11.200958)
(80.758425 24.781029 9.9124588)
(126.88265 30.42054 8.7943976)
(178.08054 36.234145 7.6362559)
(234.73785 40.886655 6.5238495)
(295.13131 44.968147 5.7597591)
(359.78468 48.38127 4.9468594)
(428.07033 50.842704 4.347129)
(500.28309 52.344156 3.396762)
(575.8354 53.019962 2.3694244)
(654.4335 52.83139 1.0132528)
(734.99683 51.912513 -0.4885397)
(816.10404 50.295698 -2.285186)
(896.42427 48.092491 -4.0978327)
(974.41554 45.329721 -5.7009681)
(1049.0054 42.14069 -7.0971008)
(1119.4537 38.547035 -8.1165052)
(1185.759 34.551398 -8.7278305)
(1248.3306 30.18426 -8.9566242)
(1308.2212 25.451338 -9.0128969)
(1366.3743 20.233382 -8.9817319)
(1423.3517 14.437773 -9.0664208)
(1479.5514 8.4755736 -9.2509419)
(1534.7903 2.3117024 -9.798639)
(1588.3138 -3.6096967 -10.5358)
(1638.8293 -8.9602184 -11.075836)
(1685.4564 -13.433031 -11.40119)
(1727.5887 -16.81747 -11.192629)
(1765.2431 -18.872896 -10.152911)
(1799.4829 -19.664226 -8.2493277)
(1831.9875 -19.280405 -5.3849638)
(1865.3492 -18.031725 -1.6446327)
(1902.4717 -16.31916 2.8229256)
(1946.5863 -14.600318 7.676965)
(2000.7934 -13.818565 12.827077)
(2068.3707 -14.012759 17.683533)
(2151.406 -16.561393 22.102002)
(2251.9868 -21.677117 25.646011)
(2371.1179 -29.970141 28.053388)
(2508.7024 -42.09962 29.133118)
(2663.4363 -57.58234 28.874185)
(2832.5374 -76.592904 27.195714)
(3010.8197 -98.338435 24.591406)
(3194.5883 -122.15362 20.786469)
(3377.398 -148.43455 16.852743)
(-8.0105077 -0.58422892 0.093175326)
(11.277332 -2.2475221 -2.575019)
(41.068455 -1.4815484 -2.7659204)
(79.47719 -2.386292 -3.1827172)
(125.47179 -3.2808166 -3.0850909)
(177.0623 -3.7314824 -3.5543255)
(233.2378 -4.9852487 -3.3534292)
(294.00022 -6.0440968 -3.4123455)
(358.54133 -7.2646342 -3.3574566)
(427.10226 -8.8337166 -3.4077159)
(499.32614 -10.460277 -3.4479887)
(575.13484 -12.442384 -3.579604)
(653.7425 -14.712399 -3.8396229)
(734.17331 -17.370421 -4.0838269)
(815.32249 -20.239342 -4.5717907)
(895.505 -23.371502 -5.008626)
(973.31605 -26.719951 -5.5727803)
(1047.6477 -30.193024 -6.0661815)
(1117.8282 -33.736185 -6.5457479)
(1183.9206 -37.368993 -6.8710067)
(1246.4357 -41.062852 -7.1956222)
(1306.2873 -45.073243 -7.5133386)
(1364.2414 -49.308562 -7.6874902)
(1421.319 -53.838691 -7.8815678)
(1477.5412 -58.664833 -8.289779)
(1532.6458 -63.605847 -8.7580654)
(1585.5795 -68.603459 -9.1531709)
(1635.4846 -73.44081 -9.6898846)
(1681.376 -77.899794 -10.263532)
(1722.6291 -81.793043 -10.620107)
(1759.4047 -84.988767 -10.851443)
(1792.628 -87.68308 -10.605066)
(1824.1017 -89.947969 -9.9541589)
(1856.38 -92.318244 -8.6679706)
(1892.3148 -95.143265 -6.9231531)
(1935.1494 -99.108899 -4.6275674)
(1988.2718 -104.52546 -1.9229862)
(2054.1619 -112.27333 0.79284169)
(2135.6868 -122.52291 3.4516831)
(2234.9801 -135.5662 6.1234211)
(2353.172 -152.08162 8.4599817)
(2490.0177 -171.55351 10.363295)
(2644.1207 -194.07686 11.871363)
(2812.6542 -219.11809 12.507605)
(2990.6816 -245.74504 13.174112)
(3173.955 -273.24887 12.852087)
(3356.7492 -301.24481 13.148022)
(-7.9957648 -8.4649293 -12.183652)
(13.472451 -12.86853 -15.989931)
(42.19648 -20.235572 -15.950738)
(80.645066 -27.707072 -15.598585)
(127.04902 -35.34293 -15.260966)
(178.09113 -42.607125 -14.252344)
(234.79322 -49.552424 -13.678148)
(295.09421 -56.019249 -12.903911)
(359.72977 -61.964741 -12.344302)
(427.96208 -67.508484 -11.56922)
(500.1508 -72.548646 -10.779734)
(575.69358 -77.430025 -9.9820566)
(654.17331 -81.961553 -8.9334087)
(734.57924 -86.372416 -7.9720774)
(815.48882 -90.684914 -6.9673546)
(895.38912 -94.911447 -6.0834423)
(972.88009 -98.984699 -5.4629808)
(1046.797 -102.81197 -5.0697803)
(1116.5352 -106.34459 -4.9970022)
(1182.2087 -109.47237 -5.0953)
(1244.2587 -112.41563 -5.3750588)
(1303.6252 -114.96358 -5.5501762)
(1361.4663 -117.46581 -5.5711423)
(1418.1265 -120.23487 -5.5153986)
(1474.0906 -123.1601 -5.4165475)
(1528.6007 -126.54998 -5.1993271)
(1581.1777 -130.3683 -5.2907406)
(1630.6513 -134.50452 -5.8466966)
(1675.9868 -138.77035 -6.7385324)
(1716.5956 -143.15043 -8.1828269)
(1752.6605 -147.61647 -9.939983)
(1785.1272 -152.41415 -11.878779)
(1815.8564 -157.72546 -13.858748)
(1847.3016 -164.18687 -15.528163)
(1882.3928 -172.18634 -16.849274)
(1924.4341 -182.20559 -17.645221)
(1976.5227 -194.7541 -17.722792)
(2041.4233 -210.51814 -17.470103)
(2122.6624 -228.55613 -15.889968)
(2221.965 -250.26738 -14.291454)
(2338.7959 -274.46575 -11.842118)
(2474.6623 -301.6656 -9.0227493)
(2627.5781 -331.06881 -5.6746651)
(2794.9863 -362.08502 -2.2931007)
(2972.0451 -393.67303 1.7140318)
(3154.642 -424.90083 4.8525285)
(3336.5383 -454.24647 9.2232011)
(-5.4427583 -17.426819 -26.197021)
(18.477372 -28.725491 -28.181052)
(47.859649 -43.986927 -29.384508)
(87.128126 -58.244151 -29.144962)
(132.60011 -72.794475 -27.126291)
(183.56379 -85.918842 -25.746725)
(239.24359 -98.51088 -24.028459)
(299.16381 -109.9114 -22.56307)
(362.89929 -120.21124 -21.136345)
(430.60908 -129.45774 -19.592239)
(502.21579 -137.71004 -18.115137)
(577.33355 -145.14934 -16.227448)
(655.40649 -151.72572 -14.033255)
(735.43966 -157.73506 -11.583069)
(816.05234 -163.09578 -9.0470236)
(895.62852 -167.90541 -6.7721204)
(972.73178 -172.07981 -4.9214522)
(1046.1453 -175.55444 -3.7006732)
(1115.3245 -178.33514 -3.1159631)
(1180.3161 -180.37547 -3.0823097)
(1241.7469 -181.91938 -3.3689312)
(1300.5172 -182.88605 -3.8367187)
(1357.6523 -184.07311 -3.9596229)
(1414.2368 -185.34036 -4.0356384)
(1469.8876 -186.85013 -3.5735404)
(1524.7158 -189.2487 -3.2318266)
(1577.5779 -192.25355 -3.3135777)
(1627.141 -195.90241 -3.7477628)
(1672.5632 -200.1866 -5.1031603)
(1713.2582 -205.13738 -7.3190535)
(1749.321 -210.88253 -10.527154)
(1781.7751 -217.70207 -14.485699)
(1812.452 -226.04096 -18.898361)
(1843.7699 -236.59963 -23.342186)
(1878.6113 -249.6019 -27.651515)
(1920.2094 -265.86253 -31.178011)
(1971.5301 -285.58684 -33.9593)
(2035.5436 -308.81469 -35.422252)
(2114.9899 -336.12742 -36.267105)
(2211.0163 -366.38521 -34.878053)
(2326.562 -398.75108 -32.487544)
(2460.7089 -433.64061 -28.571034)
(2612.1721 -470.27597 -23.202946)
(2778.2028 -507.7051 -16.897008)
(2954.2596 -544.57843 -9.8959191)
(3135.2914 -580.07443 -3.2682974)
(3315.5383 -611.23871 4.9252056)
(-0.14741736 -27.958703 -36.61945)
(26.055594 -43.151018 -40.410819)
(55.970985 -67.662492 -43.108762)
(94.646002 -88.154284 -41.270791)
(139.70941 -108.7853 -39.109392)
(189.95888 -128.10985 -36.725218)
(245.08021 -145.97771 -34.290501)
(304.08157 -162.41115 -32.265201)
(367.14281 -177.12719 -30.24994)
(434.07652 -190.46282 -28.173942)
(505.16845 -202.15937 -25.759646)
(579.77595 -212.50414 -22.70812)
(657.45444 -221.4431 -19.242118)
(737.21479 -229.08262 -15.222141)
(817.39902 -235.36066 -11.22082)
(896.47834 -240.30738 -7.4678887)
(972.91235 -243.98286 -4.3900885)
(1045.5255 -246.42984 -2.2544541)
(1113.865 -247.85128 -1.1143525)
(1177.962 -248.35741 -0.89148603)
(1238.6965 -248.23841 -1.2171943)
(1296.9419 -247.86764 -1.6303499)
(1353.9324 -247.47262 -1.7661196)
(1410.3623 -247.49813 -1.49081)
(1466.1769 -247.9202 -0.94636668)
(1521.2757 -249.17878 -0.24861259)
(1574.1809 -251.04635 0.27529154)
(1623.8898 -253.64144 -0.0088856539)
(1669.3428 -257.03686 -1.5930682)
(1709.9526 -261.41437 -4.678294)
(1745.846 -267.14348 -9.4172672)
(1778.1791 -274.82061 -15.482644)
(1808.6801 -285.20988 -22.499139)
(1839.8395 -299.00388 -30.029123)
(1874.4654 -316.94909 -37.361365)
(1915.7211 -339.54616 -44.18906)
(1966.3555 -367.04097 -49.867278)
(2029.5852 -399.54406 -53.834333)
(2107.8694 -436.49597 -56.34677)
(2203.0312 -477.28295 -56.436883)
(2316.8518 -520.96584 -54.129474)
(2449.2821 -566.46519 -49.229736)
(2599.2246 -612.69718 -41.959091)
(2763.8171 -658.11964 -32.869525)
(2938.419 -701.35446 -22.719095)
(3117.6744 -741.0575 -12.434812)
(3294.6236 -774.59764 -2.1389124)
(0 0 0)
(0 0 0)
(0 0 0)
(0 0 0)
(0 0 0)
(0 0 0)
(0 0 0)
(0 0 0)
(0 0 0)
(0 0 0)
(0 0 0)
(0 0 0)
(0 0 0)
(0 0 0)
(0 0 0)
(0 0 0)
(0 0 0)
(0 0 0)
(0 0 0)
(0 0 0)
(0 0 0)
(0 0 0)
(0 0 0)
(0 0 0)
(0 0 0)
(0 0 0)
(0 0 0)
(0 0 0)
(0 0 0)
(0 0 0)
(0 0 0)
(0 0 0)
(0 0 0)
(0 0 0)
(0 0 0)
(0 0 0)
(0 0 0)
(0 0 0)
(0 0 0)
(0 0 0)
(0 0 0)
(0 0 0)
(0 0 0)
(0 0 0)
(0 0 0)
(0 0 0)
(0 0 0)
(0 0 0)
(0 0 0)
(26.664199 -15.514275 -28.365795)
(30.801969 -19.10952 -18.529391)
(35.422967 -19.777331 -9.7435005)
(37.329056 -20.96355 -2.2611452)
(36.475324 -19.341438 5.079702)
(35.339551 -19.989865 13.021393)
(29.969646 -15.00751 22.415237)
(55.201871 -72.004812 -42.235334)
(63.869236 -76.491059 -24.200675)
(67.233452 -71.459508 -11.203232)
(67.591504 -68.868219 -1.3903886)
(68.716494 -72.317864 8.7888134)
(63.57524 -72.110397 20.70464)
(58.915949 -73.194154 37.01386)
(79.383145 -97.111577 -41.71388)
(88.548214 -93.232769 -29.535513)
(94.819317 -94.662605 -15.011048)
(96.191852 -94.179711 -1.6869257)
(94.956151 -92.538015 11.146008)
(90.744869 -93.77455 22.079726)
(84.984183 -97.717065 38.9942)
(119.06089 -130.27456 -41.459043)
(128.10712 -130.3016 -29.216066)
(132.4257 -128.48952 -14.101251)
(134.58386 -127.82847 -2.457962)
(133.43619 -128.06421 10.194598)
(130.10384 -129.72594 24.602929)
(121.11096 -129.05367 36.314316)
(161.67573 -157.49956 -38.912721)
(169.36022 -155.68264 -27.846418)
(175.21014 -155.68432 -14.961329)
(176.77543 -154.73727 -2.1182496)
(175.92924 -154.63817 10.347905)
(171.87104 -155.16233 22.23584)
(165.6243 -156.30725 35.31288)
(210.54701 -181.32626 -36.694643)
(217.71883 -180.50704 -25.658728)
(222.16279 -179.39654 -13.479056)
(224.3773 -179.1431 -1.9961137)
(222.75465 -179.06632 9.9356078)
(219.55041 -178.82038 22.146248)
(211.99088 -179.26214 32.773248)
(264.00815 -203.88194 -34.51231)
(270.82182 -203.69063 -24.444658)
(275.88468 -203.79598 -13.103133)
(277.24671 -203.4703 -2.2103104)
(276.49545 -203.24175 9.7115572)
(272.61473 -203.60981 20.140475)
(266.63935 -203.38301 31.080918)
(321.84943 -224.64883 -32.600356)
(328.09826 -224.42389 -22.958185)
(332.31454 -223.75441 -12.157218)
(334.04077 -223.61155 -1.8636482)
(332.86795 -223.45944 9.0368591)
(329.19095 -222.74783 19.674388)
(322.93361 -222.66947 29.295332)
(383.40958 -243.65814 -30.817386)
(389.60849 -243.90669 -21.810833)
(394.036 -244.34074 -11.810183)
(395.33847 -243.73789 -1.6346187)
(394.52064 -243.78631 8.443323)
(390.68042 -242.97553 18.125874)
(385.3758 -242.80221 27.620339)
(449.29029 -261.60465 -28.967418)
(454.86076 -261.70416 -20.571115)
(458.78357 -261.44932 -10.972362)
(460.32505 -261.4874 -1.4888138)
(459.14588 -261.04985 8.0427638)
(455.82635 -260.29067 17.119856)
(450.46595 -259.95767 25.884119)
(518.44712 -277.59209 -26.510552)
(523.73928 -278.03136 -18.724753)
(527.50438 -278.252 -10.306256)
(528.77138 -277.80026 -1.7335516)
(528.03259 -277.35511 6.9110731)
(524.76131 -276.52462 15.074017)
(519.97372 -276.08938 23.139118)
(591.11722 -291.7263 -23.515827)
(595.81137 -292.18194 -16.729376)
(598.87981 -291.9819 -9.4529294)
(600.17469 -291.53504 -1.8326113)
(599.34203 -291.11388 5.656804)
(596.31686 -290.17012 12.721093)
(592.73199 -289.43698 19.045586)
(666.13847 -303.37425 -19.837348)
(670.03714 -303.71554 -14.271573)
(672.74054 -303.59939 -8.3328087)
(673.8345 -303.18433 -2.1066818)
(673.22255 -302.43326 4.0741577)
(671.16634 -301.70813 9.5872014)
(668.02871 -300.36659 14.37486)
(742.72896 -312.12153 -15.536573)
(745.89558 -312.43428 -11.498983)
(747.87508 -312.07342 -7.162628)
(748.76336 -311.45685 -2.4082461)
(748.39207 -310.63969 2.0420373)
(746.75405 -309.57865 6.1252107)
(744.69872 -308.01196 8.9911023)
(819.77761 -317.66871 -11.159685)
(821.97027 -317.93124 -8.7183346)
(823.2048 -317.56192 -6.0244178)
(824.09592 -316.89962 -2.8814519)
(823.6745 -315.85782 -0.055086232)
(822.93324 -314.6226 2.5023909)
(821.7921 -312.7584 3.6332238)
(895.85848 -320.21909 -7.0397036)
(897.03719 -320.49393 -6.0703803)
(897.69448 -319.99109 -4.95627)
(898.24284 -319.09318 -3.3554722)
(898.07157 -317.93207 -2.0414469)
(897.89626 -316.50314 -1.0281183)
(897.66945 -314.4122 -1.4321596)
(969.74501 -320.15212 -3.6851819)
(970.06507 -320.40393 -4.0227735)
(970.11639 -319.83203 -4.2119923)
(970.51237 -318.88939 -3.9214047)
(970.46041 -317.61593 -3.9588715)
(970.79114 -315.97723 -4.1748946)
(971.34916 -313.69422 -5.6509036)
(1040.5658 -318.22952 -1.4171957)
(1040.1526 -318.45878 -2.6450497)
(1039.8158 -317.86102 -3.7989739)
(1039.9963 -316.8413 -4.5321423)
(1040.133 -315.39541 -5.5344146)
(1040.7606 -313.63311 -6.6972013)
(1042.0215 -311.30303 -8.8034379)
(1107.8262 -315.27025 -0.29378262)
(1106.9886 -315.51497 -2.0273284)
(1106.2857 -314.8267 -3.7794299)
(1106.4131 -313.78697 -5.2146657)
(1106.6323 -312.23728 -6.8523431)
(1107.5616 -310.42029 -8.5656531)
(1109.2166 -308.11602 -10.883158)
(1171.5765 -312.18575 -0.14971606)
(1170.4829 -312.32436 -2.0374508)
(1169.6493 -311.645 -4.0579929)
(1169.7227 -310.60052 -5.8918234)
(1170.1144 -308.9121 -7.8635668)
(1171.2071 -307.15551 -9.8842512)
(1173.148 -304.93339 -12.116691)
(1232.3119 -309.56158 -0.608894)
(1231.2112 -309.67585 -2.4451808)
(1230.2364 -308.93409 -4.5175012)
(1230.4312 -307.77955 -6.5735125)
(1230.8762 -306.05972 -8.7354173)
(1232.2088 -304.31471 -10.807601)
(1234.2497 -302.24601 -12.853143)
(1290.7841 -307.77421 -1.1686284)
(1289.6616 -307.77923 -2.8986444)
(1288.7039 -306.92955 -4.9153769)
(1288.9501 -305.67516 -7.2070926)
(1289.4829 -303.80184 -9.4386597)
(1291.0547 -302.21555 -11.567762)
(1293.1866 -300.33328 -13.564348)
(1347.7152 -306.83237 -1.3588519)
(1346.6113 -306.61532 -3.06019)
(1345.6105 -305.61781 -5.2606212)
(1345.9368 -304.11506 -7.7246844)
(1346.5384 -302.37256 -10.148057)
(1348.4896 -300.87106 -12.454918)
(1350.6813 -299.0805 -14.563066)
(1403.6676 -306.14281 -1.0057358)
(1402.4257 -305.91206 -2.9056424)
(1401.3806 -304.67541 -5.2963032)
(1401.6658 -303.03579 -8.1054674)
(1402.4261 -301.15916 -10.861133)
(1404.6233 -299.63658 -13.444921)
(1407.0299 -297.99271 -15.951462)
(1458.8289 -305.71318 -0.15593858)
(1457.283 -305.26264 -2.181702)
(1456.1185 -303.63267 -5.3450016)
(1456.3831 -301.82721 -8.3936957)
(1457.2197 -299.9261 -11.529521)
(1459.7435 -298.50092 -14.592004)
(1462.3589 -296.83946 -17.460565)
(1512.8262 -304.84269 1.1152804)
(1510.9542 -303.94654 -1.486785)
(1509.6068 -302.16011 -5.146711)
(1509.7461 -300.22912 -8.522144)
(1510.7058 -298.15454 -12.16094)
(1513.2943 -296.8723 -15.722351)
(1516.0617 -295.04479 -18.520041)
(1565.2439 -303.39505 1.9678931)
(1562.714 -302.1393 -1.2389292)
(1561.3643 -300.17681 -4.9172064)
(1561.0713 -298.08938 -8.8901606)
(1562.1466 -296.21034 -12.547444)
(1564.8412 -295.03273 -16.354903)
(1567.833 -293.29399 -19.194851)
(1614.697 -301.44768 2.039716)
(1612.0582 -300.02207 -1.4697085)
(1610.6453 -297.82862 -5.0053578)
(1610.3893 -296.03851 -9.1328443)
(1611.5229 -294.09858 -12.545795)
(1613.8667 -293.04417 -16.417403)
(1616.7178 -291.59234 -19.029665)
(1660.8745 -299.7936 0.42406173)
(1658.5019 -298.16144 -2.5458396)
(1657.0884 -296.16786 -5.9953664)
(1656.7921 -294.25709 -9.1932838)
(1657.7564 -292.56967 -12.300031)
(1659.66 -291.84403 -15.32714)
(1662.2854 -290.62967 -17.201826)
(1703.3828 -299.36276 -2.6397533)
(1701.3908 -297.65362 -4.9461394)
(1700.4156 -295.87113 -7.0394002)
(1700.2115 -294.26999 -9.3458215)
(1701.0133 -292.93933 -11.204254)
(1702.4439 -292.39335 -13.070062)
(1704.3612 -291.66769 -13.662744)
(1742.2878 -301.5592 -7.7395636)
(1741.315 -299.99653 -8.2794682)
(1741.0034 -298.5679 -8.9001889)
(1740.9304 -297.23353 -9.2696587)
(1741.5744 -296.22261 -9.4655944)
(1742.1951 -295.95145 -9.5330717)
(1743.1353 -295.66156 -8.2900041)
(1778.6123 -307.86888 -14.187608)
(1778.9644 -306.45189 -12.627196)
(1779.5625 -305.45509 -10.878734)
(1779.8025 -304.47913 -8.990746)
(1780.2152 -303.86672 -6.8630201)
(1779.957 -303.76076 -4.6936398)
(1779.6024 -303.97094 -1.0886588)
(1813.729 -319.46224 -21.78854)
(1815.7755 -318.38773 -17.457304)
(1817.5327 -317.94155 -13.081645)
(1818.1554 -317.37303 -8.3344646)
(1818.3287 -317.10592 -3.5405794)
(1816.9883 -317.08187 1.3439296)
(1815.116 -317.73028 7.6564698)
(1849.7633 -337.58861 -29.834108)
(1853.7553 -337.0127 -22.518967)
(1856.7805 -337.10387 -15.082262)
(1857.8453 -336.89448 -7.3124219)
(1857.6521 -336.8452 0.47027414)
(1855.2927 -336.86854 8.2704737)
(1851.7801 -337.78135 17.570764)
(1889.0786 -363.01107 -37.870365)
(1895.1498 -362.97048 -27.383525)
(1899.4523 -363.59998 -16.865788)
(1901.017 -363.72928 -5.9051521)
(1900.5855 -363.83619 4.8764755)
(1897.2668 -363.80408 16.100329)
(1891.5319 -364.95589 28.360471)
(1934.5451 -395.95561 -45.03619)
(1942.5199 -396.70806 -31.410394)
(1948.1304 -397.8468 -17.884871)
(1950.1989 -398.1943 -3.9002931)
(1949.2159 -398.72829 9.8935309)
(1944.4607 -398.76581 24.295507)
(1936.5627 -399.20047 38.495485)
(1988.0836 -437.01844 -51.139646)
(1998.3543 -438.08458 -34.889009)
(2005.1198 -439.6169 -18.817174)
(2007.3983 -440.41619 -1.8978135)
(2006.0688 -440.62024 14.502401)
(2000.9499 -440.15777 30.814727)
(1991.3155 -440.32024 49.268344)
(2054.0208 -485.00958 -56.283507)
(2065.1492 -486.57601 -37.2164)
(2072.9017 -488.63165 -18.591793)
(2075.5272 -489.41091 0.23193578)
(2074.1425 -489.81042 19.149989)
(2066.8752 -488.85637 38.086484)
(2056.6881 -489.02178 57.34972)
(2132.1449 -538.72183 -58.952789)
(2144.8413 -541.34566 -38.508726)
(2153.3789 -543.66787 -18.545187)
(2156.331 -544.65259 2.0455741)
(2154.681 -544.94444 22.439645)
(2147.3667 -544.10896 42.749383)
(2135.7973 -543.73654 64.1044)
(2226.2172 -598.04676 -59.713715)
(2239.8371 -600.9255 -38.253681)
(2248.6875 -603.36345 -17.351835)
(2251.8311 -604.4491 4.1061575)
(2249.9427 -604.60197 25.129894)
(2242.2926 -603.54926 46.315159)
(2229.79 -602.58049 67.928091)
(2336.8297 -660.03074 -57.670819)
(2350.6578 -663.40877 -36.564223)
(2359.5376 -665.816 -15.490383)
(2362.7518 -666.78667 5.6615043)
(2360.8496 -666.74684 26.640475)
(2353.123 -665.48097 47.487442)
(2340.6451 -663.94341 68.604508)
(2464.3234 -722.79044 -52.939045)
(2477.729 -726.37627 -33.124102)
(2486.2185 -728.4807 -12.969893)
(2489.4605 -729.32281 6.8848052)
(2487.4816 -729.02775 26.867599)
(2480.2143 -727.6583 46.359678)
(2468.3041 -725.59426 65.91976)
(2607.7241 -783.39226 -45.662081)
(2619.976 -786.93667 -28.088417)
(2627.7828 -788.85481 -10.049463)
(2630.821 -789.41651 7.7778218)
(2628.9774 -788.87757 25.803614)
(2622.4535 -787.3121 43.055402)
(2611.6973 -784.66155 60.04112)
(2764.6665 -839.12514 -36.422698)
(2775.3243 -842.64569 -22.002932)
(2782.0822 -844.34468 -6.8535251)
(2784.8177 -844.61314 8.2897123)
(2783.1515 -843.76219 23.638191)
(2777.6067 -841.89818 37.975035)
(2768.4087 -838.61778 51.548055)
(2931.5156 -887.6486 -26.121142)
(2940.1094 -891.19638 -15.37094)
(2945.7326 -892.80783 -3.6179539)
(2948.0323 -892.92703 8.4232549)
(2946.589 -891.78788 20.727252)
(2941.9578 -889.37804 31.712185)
(2934.6445 -885.24728 41.4456)
(3103.5643 -927.48702 -16.046852)
(3110.2872 -931.1784 -9.136174)