/*--------------------------------*- C++ -*----------------------------------*\
  =========                 |
  \\      /  F ield         | OpenFOAM: The Open Source CFD Toolbox
   \\    /   O peration     | Website:  https://openfoam.org
    \\  /    A nd           | Version:  6
     \\/     M anipulation  |
\*---------------------------------------------------------------------------*/
FoamFile
{
    version     2.0;
    format      ascii;
    class       pointVectorField;
    location    "0.18";
    object      u;
}
// * * * * * * * * * * * * * * * * * * * * * * * * * * * * * * * * * * * * * //

dimensions      [0 1 0 0 0 0 0];

internalField   nonuniform List<vector> 
3969
(
(0 0 0)
(0 0 0)
(0.37784626 0.050424955 0.001210735)
(0.3679318 -0.089537033 0.0006140675)
(0 0 0)
(0 0 0)
(0.36829256 -0.089989247 0.00052664767)
(0.37823278 0.04974821 0.0010001329)
(0 0 0)
(0 0 0)
(0 0 0)
(0 0 0)
(0 0 0)
(0 0 0)
(0 0 0)
(0.3763526 0.032064858 0.00068239664)
(0.37474515 0.0146666 0.00072448272)
(0.37328903 -0.002458303 0.00069263464)
(0.37203745 -0.01943639 0.00086560712)
(0.37093223 -0.036450868 0.00093380235)
(0.36989207 -0.053636408 0.0010464784)
(0.36905335 -0.07115792 0.00092006981)
(-0.00053257468 -0.00064455429 -0.00041162351)
(-0.0012013841 -0.00077326169 -0.00025588023)
(-0.0019665536 -0.00085543239 -5.3532321e-05)
(-0.0027083273 -0.00077075383 0.00016113778)
(-0.003430993 -0.00057922717 0.00038324685)
(-0.0041046696 -0.00024265016 0.00061778043)
(-0.0046577897 0.00023806446 0.00084416052)
(-0.005100868 0.00085321104 0.0010765193)
(-0.0053403426 0.0016279364 0.0012858048)
(-0.0053810406 0.0025287684 0.0015044831)
(-0.005160564 0.0035783524 0.0017084084)
(-0.0046504574 0.0047660603 0.0019111163)
(-0.0038135277 0.0060823309 0.0020887099)
(-0.0026240531 0.0075492621 0.00228345)
(-0.0010241134 0.0091322711 0.0024664544)
(0.00098655951 0.010834051 0.0026485402)
(0.0034565719 0.012660229 0.0028439326)
(0.0064236084 0.014595492 0.0030314556)
(0.0099238776 0.016633561 0.0032176149)
(0.013989548 0.01876207 0.0033942459)
(0.018662032 0.020968818 0.0035582909)
(0.023963439 0.023242635 0.0037055775)
(0.029924703 0.02556161 0.0038348998)
(0.036563742 0.027907281 0.0039477723)
(0.043886487 0.030263634 0.004040978)
(0.051909811 0.032630915 0.0041261099)
(0.060633133 0.034969929 0.0041986432)
(0.07007541 0.037273929 0.0042551676)
(0.080229537 0.039518776 0.0043025954)
(0.091090187 0.041688073 0.0043342976)
(0.10266419 0.043758417 0.0043444135)
(0.11493976 0.045713485 0.0043296879)
(0.12790183 0.047517511 0.0042877076)
(0.14152581 0.049170575 0.0042119095)
(0.15579117 0.05063296 0.0041065796)
(0.17064878 0.051887134 0.0039756917)
(0.18606124 0.052969939 0.003799296)
(0.20197686 0.053733191 0.0036209335)
(0.21833676 0.054429681 0.003380193)
(0.23511504 0.054684356 0.0031930055)
(0.25221281 0.054958696 0.0028951061)
(0.2696165 0.054816066 0.0026885839)
(0.28725998 0.054518034 0.0024303377)
(0.30504895 0.054175505 0.0021477033)
(0.32302058 0.053314352 0.0020036342)
(0.34103243 0.052662711 0.0017443089)
(0.35899646 0.051735782 0.0017185268)
(-0.00030710874 0.00052063756 0.00067415747)
(-0.0012326064 0.00067581446 0.00013380306)
(-0.0019152184 0.00078552821 0.00011234612)
(-0.0027067444 0.00064935879 -0.00031051003)
(-0.0034670516 0.00048944946 -0.00053960615)
(-0.0041247316 0.00014708898 -0.00086276486)
(-0.0047218106 -0.00032127255 -0.0011595937)
(-0.0051490804 -0.00091295007 -0.0014551489)
(-0.0054256191 -0.0016633315 -0.0017660575)
(-0.0054838754 -0.0025208597 -0.0020552016)
(-0.0052836805 -0.0035473069 -0.0023478548)
(-0.004814203 -0.0046789537 -0.0026467631)
(-0.0040266631 -0.0059595063 -0.002937347)
(-0.0028952307 -0.0073589036 -0.0032107084)
(-0.0013818964 -0.0088998793 -0.0034896595)
(0.00053924875 -0.010563003 -0.0037541054)
(0.0029116919 -0.012356814 -0.0040103156)
(0.0057585154 -0.014276189 -0.0042545581)
(0.009121772 -0.016322734 -0.0044812119)
(0.013028986 -0.018479372 -0.0046898968)
(0.017510517 -0.020775623 -0.0048700527)
(0.02260162 -0.023141136 -0.0050360374)
(0.028322451 -0.02565681 -0.0051474739)
(0.034688616 -0.028235078 -0.0052551752)
(0.041701852 -0.030905344 -0.0053298523)
(0.04939596 -0.033643268 -0.005380414)
(0.057721592 -0.036440326 -0.0053876473)
(0.066784752 -0.03932647 -0.0053683211)
(0.076536176 -0.042240998 -0.005331246)
(0.086973379 -0.045200873 -0.0052490655)
(0.098114806 -0.048192046 -0.0051328099)
(0.10993923 -0.051205465 -0.004972472)
(0.12244872 -0.054216069 -0.0047714654)
(0.13561561 -0.057219584 -0.0045292547)
(0.14942729 -0.060181683 -0.0042450724)
(0.16383823 -0.063104823 -0.0039292141)
(0.17882125 -0.0659458 -0.0035873696)
(0.19432135 -0.068699241 -0.0032075373)
(0.21031032 -0.071373148 -0.002825727)
(0.22671557 -0.073904976 -0.0024330688)
(0.24350089 -0.076335214 -0.0020333599)
(0.26061174 -0.078624422 -0.0016391362)
(0.27798246 -0.080754595 -0.0012618586)
(0.29559936 -0.082772944 -0.00087717892)
(0.31335157 -0.084616269 -0.00052536184)
(0.33130108 -0.086313873 -0.00020274658)
(0.34931666 -0.087990952 0.00015666979)
(0 0 0)
(0 0 0)
(0 0 0)
(0 0 0)
(0 0 0)
(0 0 0)
(0 0 0)
(-0.00050303349 0.00040979142 -0.0005279117)
(-0.001282321 0.001059861 -0.00035868384)
(-0.0019281857 0.0006919802 -0.00014447478)
(-0.0027303516 0.00092488913 8.9625916e-05)
(-0.0034628396 0.00062995113 0.00027024765)
(-0.0040850269 0.00035534833 0.00051527748)
(-0.0046914575 -0.00010281306 0.00072651669)
(-0.0050510121 -0.00069943105 0.0009227831)
(-0.0053572943 -0.0014100175 0.0011507569)
(-0.0053289526 -0.0023158122 0.0013314892)
(-0.0051408788 -0.0033283354 0.0015542192)
(-0.0047043581 -0.0044728675 0.0017744695)
(-0.0038624328 -0.0057668058 0.0019452043)
(-0.0027202411 -0.0071807168 0.00214083)
(-0.0011850961 -0.0087355899 0.0023254967)
(0.00075575993 -0.010420634 0.0025112824)
(0.0031399112 -0.012243729 0.0027021093)
(0.0060022553 -0.014190755 0.002885092)
(0.0093755904 -0.016267172 0.003064386)
(0.013295271 -0.018465608 0.0032325358)
(0.017790111 -0.020778387 0.0033892911)
(0.022886266 -0.02320277 0.0035296681)
(0.028611958 -0.025723403 0.0036518956)
(0.034970201 -0.028336675 0.0037608986)
(0.042008267 -0.031050921 0.0038359996)
(0.049769291 -0.033831459 0.0038640834)
(0.0581517 -0.036726524 0.0039190925)
(0.067209495 -0.039652891 0.0039595051)
(0.07696766 -0.042641487 0.0039867543)
(0.087423932 -0.045661785 0.0039852786)
(0.098575575 -0.048708615 0.0039555706)
(0.11042016 -0.051769248 0.003901431)
(0.12294112 -0.054823976 0.0038145724)
(0.13612666 -0.057853549 0.0036973504)
(0.14994082 -0.060840906 0.0035482949)
(0.1643823 -0.063788251 0.0033751854)
(0.17934309 -0.066587974 0.0031678603)
(0.19485231 -0.069402621 0.0029612295)
(0.21082679 -0.07202663 0.0027239173)
(0.22722421 -0.074561355 0.0024861696)
(0.243988 -0.076963785 0.0022364372)
(0.26108478 -0.079229991 0.0019933397)
(0.27843172 -0.081352915 0.0017521877)
(0.29602629 -0.083339217 0.0015169159)
(0.31377165 -0.085173665 0.0012938693)
(0.3316989 -0.086866182 0.0010950098)
(0.34965147 -0.088563368 0.00087206082)
(0.36952673 -0.071651664 0.00035043557)
(0.37030989 -0.054185711 0.00036618634)
(0.37133767 -0.03696733 0.00055604066)
(0.37247203 -0.02004684 0.00074279827)
(0.37365454 -0.0030388888 0.0010656826)
(0.37508751 0.014032753 0.0011821544)
(0.37680296 0.031391363 0.0013108273)
(0.35958627 0.051078004 0.00042190501)
(0.3414015 0.051896549 0.00019266763)
(0.32343132 0.052726772 -0.00014109558)
(0.3055249 0.053376368 -0.00042436133)
(0.28773265 0.053839573 -0.00077467171)
(0.27012427 0.05409678 -0.0011279527)
(0.25274356 0.054148207 -0.0014884444)
(0.23563241 0.05398156 -0.0018654081)
(0.21886019 0.053597968 -0.0022485181)
(0.20247167 0.053008712 -0.0026267891)
(0.18650362 0.052183664 -0.0029985418)
(0.17114092 0.0511046 -0.0033265404)
(0.15618914 0.049906799 -0.0036738706)
(0.14189814 0.048466102 -0.0039717762)
(0.12822664 0.046868995 -0.0042424815)
(0.11522616 0.045110349 -0.0044692773)
(0.10290979 0.043218643 -0.0046569783)
(0.091303729 0.041207722 -0.0048055888)
(0.080409985 0.039106357 -0.0049138838)
(0.070239586 0.036920978 -0.0049830917)
(0.060785777 0.034688913 -0.0050211322)
(0.052050096 0.03240813 -0.0050219153)
(0.044030496 0.030108708 -0.0049883941)
(0.036699988 0.027803795 -0.0049317508)
(0.030064349 0.025509229 -0.0048447033)
(0.02409992 0.023244168 -0.0047302909)
(0.01878723 0.021025368 -0.0045930881)
(0.014104925 0.018867889 -0.0044285189)
(0.010022964 0.016785449 -0.0042449419)
(0.0065113503 0.014793274 -0.0040411339)
(0.0035344602 0.012898109 -0.0038185339)
(0.0010572338 0.011108289 -0.0035855166)
(-0.00096894741 0.0094465281 -0.0033420036)
(-0.0025370274 0.0078588883 -0.0030685837)
(-0.003705303 0.0064266552 -0.0028143991)
(-0.004546362 0.0051343598 -0.0025303645)
(-0.0050511856 0.0039309123 -0.0022593283)
(-0.0052741258 0.0028872703 -0.0019909028)
(-0.0052545624 0.0019699992 -0.0017044759)
(-0.0050140825 0.0011912032 -0.0014282716)
(-0.0045774806 0.00053253164 -0.0011302952)
(-0.0040199926 6.8962395e-05 -0.00085846175)
(-0.0033661818 -0.0003261061 -0.00057306896)
(-0.0026368403 -0.00054749068 -0.00029575919)
(-0.0018835057 -0.00066747375 -5.7156272e-05)
(-0.00115991 -0.00058270843 0.0001982891)
(-0.00057231286 -0.00058482047 0.00030190556)
(0 0 0)
(0 0 0)
(0 0 0)
(0 0 0)
(0 0 0)
(0 0 0)
(0 0 0)
(0 0 0)
(0 0 0)
(0 0 0)
(0 0 0)
(0 0 0)
(0 0 0)
(0 0 0)
(0.36804369 -0.089862212 0.00053375925)
(0.36816107 -0.090044235 0.00052109276)
(0.36823391 -0.090142108 0.00053375531)
(0.36830132 -0.090247195 0.00056883576)
(0.36835187 -0.090302829 0.00060664781)
(0.36836186 -0.090294513 0.0006377809)
(0.36838644 -0.090314191 0.00056615993)
(0.37813874 0.050668742 0.0012091358)
(0.3782358 0.050606597 0.0012348205)
(0.37830762 0.050561444 0.0011602579)
(0.37837273 0.050489352 0.0011080707)
(0.37840804 0.050398639 0.0010415587)
(0.37840908 0.050249124 0.00099122934)
(0.37847164 0.050187185 0.00099476705)
(-0.00040482878 -0.00015377459 -0.00034599243)
(-0.0012237656 -0.00013266083 -9.7971404e-05)
(-0.0019802819 -0.00018166757 -1.9783655e-05)
(-0.0027955795 -0.00011357379 0.00015003536)
(-0.0035431183 6.672788e-05 0.00029657117)
(-0.0042849233 0.00031558743 0.00047394046)
(-0.0048897559 0.00069702046 0.00062721158)
(-0.0053853524 0.0011551194 0.00078801923)
(-0.0056903094 0.0017420267 0.00094633517)
(-0.0057796414 0.0024095644 0.0010951983)
(-0.005617145 0.0032100533 0.0012362504)
(-0.0051667868 0.0040911469 0.0013739828)
(-0.004383632 0.00509295 0.0015067336)
(-0.0032554275 0.0061792984 0.0016459271)
(-0.0017186006 0.0073584603 0.0017713685)
(0.0002400199 0.0086391381 0.0019046428)
(0.0026530661 0.010000561 0.0020356973)
(0.0055644961 0.011437708 0.0021676944)
(0.0090071817 0.012943224 0.0022984549)
(0.013020349 0.014509305 0.0024214515)
(0.017634551 0.016127338 0.0025395308)
(0.022879847 0.017781083 0.0026452714)
(0.028783656 0.019465018 0.0027431241)
(0.035356251 0.021158786 0.0028271699)
(0.042630704 0.022866184 0.0029043856)
(0.050604954 0.024542476 0.0029616057)
(0.059279596 0.026202301 0.0030184063)
(0.068666557 0.027821736 0.0030680474)
(0.078774279 0.029371369 0.0031068056)
(0.089586702 0.030851198 0.0031363877)
(0.1011181 0.032235359 0.0031526624)
(0.11335428 0.033507843 0.0031530696)
(0.12627938 0.034653939 0.0031353388)
(0.13987755 0.035664907 0.0030946785)
(0.15412094 0.036508819 0.0030370076)
(0.16894994 0.03720417 0.0029529687)
(0.18436962 0.037719841 0.0028447459)
(0.20026913 0.038049844 0.002735049)
(0.2166596 0.038229162 0.0025880986)
(0.23344158 0.038181041 0.0024558191)
(0.25055788 0.038052704 0.0022662102)
(0.26800575 0.037591573 0.0021530115)
(0.2856702 0.037183844 0.0019072549)
(0.30351478 0.036449524 0.0018000123)
(0.32154431 0.035584382 0.0016101418)
(0.33954283 0.034757119 0.0014209232)
(0.35773159 0.033371534 0.0012147212)
(-0.00038935892 -9.0919186e-05 -0.00020350141)
(-0.0011836943 2.2654216e-05 -9.3119691e-05)
(-0.0019742998 -7.9463743e-05 -6.116618e-05)
(-0.0027708681 5.5089703e-05 2.7645621e-05)
(-0.0036268767 0.00012970582 0.0001391264)
(-0.0043637768 0.00031413273 0.00023842588)
(-0.0050318319 0.00054371761 0.00033011173)
(-0.0055689169 0.00086487058 0.00043936261)
(-0.0059138337 0.0012454118 0.00052066014)
(-0.0060557391 0.0017084196 0.00061192945)
(-0.0059331322 0.0022297466 0.00069623316)
(-0.0055219315 0.0028253832 0.00077517835)
(-0.0047881163 0.0034892785 0.00085209165)
(-0.0036765703 0.0042236587 0.00092772895)
(-0.0021813477 0.0050187318 0.001003903)
(-0.00027264289 0.0058786056 0.0010815488)
(0.0020980495 0.0067893235 0.0011594049)
(0.0049597853 0.0077515251 0.001243495)
(0.0083580454 0.0087500498 0.0013235851)
(0.012325089 0.0097885038 0.0014030846)
(0.016898306 0.010845503 0.0014778771)
(0.022102615 0.011924981 0.0015465975)
(0.02795413 0.013010828 0.0016091974)
(0.034492246 0.01410628 0.0016691564)
(0.041714754 0.01517785 0.0017146254)
(0.049626323 0.016244116 0.001777223)
(0.058250755 0.017262187 0.0018298157)
(0.067593981 0.018240324 0.001866861)
(0.077642238 0.019161637 0.0019199055)
(0.088414341 0.020006402 0.0019567468)
(0.09990277 0.020767114 0.0019898276)
(0.11209784 0.021428553 0.0020167812)
(0.12498763 0.021979683 0.0020283956)
(0.13855676 0.022412815 0.0020304654)
(0.15276029 0.02271321 0.002020477)
(0.16758521 0.022886004 0.0019929121)
(0.18297444 0.022921461 0.0019549332)
(0.19885529 0.02277909 0.0019163798)
(0.21524991 0.022590148 0.0018232812)
(0.23198668 0.02212583 0.001784721)
(0.24916424 0.021688396 0.0016665015)
(0.26656725 0.020972792 0.0016071563)
(0.2842838 0.020286714 0.001477823)
(0.30211879 0.019334922 0.0014317967)
(0.32016491 0.018359074 0.0012926266)
(0.3382687 0.017210261 0.0011681403)
(0.35658629 0.015884683 0.00098472529)
(-0.00044166446 -4.2539475e-05 -9.838819e-05)
(-0.0012689652 -3.2638059e-05 -1.5820335e-05)
(-0.0019847513 -2.3538707e-05 -2.5576602e-05)
(-0.0028990762 1.0235025e-05 4.5906292e-05)
(-0.0036938276 7.5153201e-05 6.7540103e-05)
(-0.0044896262 0.00016030413 9.9320166e-05)
(-0.0051751801 0.00030631727 0.00014145922)
(-0.0057174265 0.00046237101 0.0001506404)
(-0.0060832198 0.00067391246 0.00017705704)
(-0.0062304155 0.00090496942 0.00019845341)
(-0.0061273194 0.0011875375 0.00021216319)
(-0.0057505558 0.001490443 0.00023473289)
(-0.0050322415 0.0018471623 0.00024345181)
(-0.0039780771 0.0022199532 0.00027130076)
(-0.0025298774 0.002634393 0.00029681909)
(-0.00064771127 0.0030822182 0.00031466055)
(0.0016889493 0.0035526859 0.00034097329)
(0.0045245383 0.0040449416 0.00036440437)
(0.0078914971 0.0045523694 0.00039409663)
(0.011819698 0.005071068 0.00042574037)
(0.016338727 0.0055926213 0.00046381302)
(0.021480499 0.0061122595 0.00050059013)
(0.02729472 0.0066300232 0.00054217235)
(0.03376835 0.0071101372 0.00057427394)
(0.040927261 0.0075833133 0.00062611895)
(0.048794981 0.0080145313 0.00065865257)
(0.057384669 0.0084112236 0.00068636191)
(0.066682048 0.008759944 0.00073035887)
(0.07669546 0.0090521697 0.00076865482)
(0.087431512 0.0092732882 0.00080622915)
(0.098879138 0.0094240599 0.00085035216)
(0.11104001 0.0094856942 0.00088962962)
(0.12389713 0.009456397 0.00092771132)
(0.13742737 0.0093320534 0.00096346039)
(0.1516089 0.0090934098 0.00099528685)
(0.16640138 0.0087734996 0.001013269)
(0.18175384 0.0082972924 0.0010452016)
(0.19764961 0.0077954274 0.0010362466)
(0.2140041 0.0071127422 0.0010497036)
(0.23076668 0.0063611031 0.0010669938)
(0.24789993 0.0055807882 0.001014111)
(0.26531361 0.0045509433 0.0010792636)
(0.28301917 0.0036483335 0.00098063342)
(0.30089027 0.002459026 0.0010375202)
(0.31902087 0.0013231918 0.00092503218)
(0.33715881 9.2758288e-05 0.00090655587)
(0.35541806 -0.0012579765 0.00084148921)
(-0.00043984351 1.9055917e-05 -3.0682558e-05)
(-0.0012251018 3.2977817e-05 -1.5966364e-05)
(-0.0020187852 -6.6087012e-06 -3.4038822e-05)
(-0.0028335085 6.4282681e-06 -7.9487823e-05)
(-0.0036873973 -1.049675e-06 -0.00011151907)
(-0.0044694162 -9.5700604e-07 -0.00013317978)
(-0.0051556017 1.2535404e-05 -0.00019039114)
(-0.005712976 2.160608e-05 -0.00021271723)
(-0.0060974385 3.5384339e-05 -0.00024399269)
(-0.0062775547 4.7048373e-05 -0.00027508445)
(-0.0062065819 6.193718e-05 -0.0003035541)
(-0.0058316652 7.674643e-05 -0.00034444459)
(-0.0051357704 0.0001015786 -0.00038848091)
(-0.0040912573 0.00011314584 -0.00041623397)
(-0.0026425576 0.00014281449 -0.00046472805)
(-0.00078061565 0.00017068938 -0.00049544873)
(0.0015388891 0.0001947975 -0.00053107514)
(0.0043521234 0.00021209446 -0.00055524617)
(0.0076921427 0.00021718537 -0.00057504334)
(0.011596368 0.00020454067 -0.00058926852)
(0.016111629 0.00017730805 -0.00060606254)
(0.021271978 0.00012740878 -0.00061330955)
(0.027045844 3.0411783e-05 -0.00062236344)
(0.033502148 -6.8475063e-05 -0.00061481711)
(0.040649798 -0.00020755242 -0.00062356986)
(0.048491967 -0.00037597305 -0.00061567987)
(0.057027299 -0.00059598854 -0.00058141296)
(0.066270576 -0.00086460236 -0.00054492438)
(0.076232049 -0.0011881639 -0.00050475897)
(0.086909427 -0.0015730114 -0.00044546)
(0.098302575 -0.002022103 -0.00038647052)
(0.11040858 -0.0025461466 -0.00031459023)
(0.12320623 -0.0031427006 -0.00024044655)
(0.136687 -0.0038181565 -0.00015767792)
(0.15080971 -0.0045656355 -7.7959548e-05)
(0.16554971 -0.0054099734 1.8750891e-05)
(0.18086099 -0.0062977156 9.7569662e-05)
(0.19668655 -0.0072862938 0.00018956911)
(0.21298123 -0.0083553494 0.00029641099)
(0.22968622 -0.0094265802 0.00034524173)
(0.24680327 -0.010618804 0.00044769589)
(0.26417581 -0.011829712 0.00051704301)
(0.28188255 -0.013007052 0.00054564635)
(0.29974323 -0.014362919 0.0006706953)
(0.31780996 -0.015556912 0.00066940607)
(0.33592936 -0.016911343 0.00080254027)
(0.35420926 -0.018215896 0.00080904915)
(-0.00039125427 -1.6993123e-05 3.12172e-05)
(-0.0012745396 -0.00011907954 7.3291918e-05)
(-0.0019469106 -0.00014405372 -4.3147585e-05)
(-0.0028702053 -0.00019762751 -8.7532776e-05)
(-0.003688194 -0.00025346314 -0.00017418186)
(-0.0044873503 -0.00033364029 -0.00028008591)
(-0.0051692689 -0.00044248948 -0.00036861395)
(-0.0057399748 -0.00057748225 -0.00046754703)
(-0.0061171153 -0.00075161458 -0.00056774367)
(-0.0062852838 -0.00095543217 -0.00067921838)
(-0.0061895012 -0.001173037 -0.00079879419)
(-0.0058257361 -0.001427402 -0.00090876814)
(-0.0051344776 -0.0017176516 -0.00099946004)
(-0.0040878229 -0.0020353268 -0.0011058286)
(-0.002659593 -0.0023853138 -0.0011957463)
(-0.00080857467 -0.0027665818 -0.0012839415)
(0.0015011014 -0.003177658 -0.0013718253)
(0.0043001231 -0.0036249086 -0.0014465177)
(0.0076264924 -0.0041046525 -0.0015193785)
(0.011512915 -0.0046212243 -0.0015794427)
(0.016001212 -0.0051648899 -0.0016340893)
(0.02106795 -0.0057687045 -0.0016602165)
(0.026819807 -0.006391662 -0.0016822761)
(0.033227048 -0.0070919638 -0.0017044675)
(0.040325624 -0.0078255403 -0.0017008778)
(0.04810524 -0.0086168217 -0.0016825218)
(0.05660269 -0.0094597861 -0.0016595498)
(0.065805951 -0.010348439 -0.0016369368)
(0.075723448 -0.01129012 -0.0015912574)
(0.086353587 -0.012283871 -0.0015382727)
(0.097702714 -0.013335766 -0.0014673839)
(0.10975749 -0.014445392 -0.0013817892)
(0.12251368 -0.015615515 -0.0012810451)
(0.13594057 -0.016831338 -0.0011722876)
(0.15001978 -0.018122226 -0.0010384577)
(0.16471628 -0.019435432 -0.00091194601)
(0.17997081 -0.020812538 -0.00076750708)
(0.19577609 -0.022238472 -0.00060783211)
(0.21201652 -0.023662532 -0.00049145008)
(0.2287561 -0.025108743 -0.00032462505)
(0.24578181 -0.026606593 -0.00017037084)
(0.26316058 -0.028041321 -3.6269438e-05)
(0.28079452 -0.029535798 0.0001152372)
(0.29862524 -0.031004181 0.00028192664)
(0.31667586 -0.032385143 0.00038051149)
(0.33485195 -0.03382315 0.00056441844)
(0.35308964 -0.035141806 0.00070290685)
(-0.00038124428 6.5795651e-05 0.00021708088)
(-0.0012108365 1.5367592e-05 5.7931056e-05)
(-0.0019409278 -1.5391934e-05 -1.2438362e-05)
(-0.0028318047 -8.0554226e-05 -0.00016325215)
(-0.0036291866 -0.00018291466 -0.00033609086)
(-0.0043953447 -0.00035822525 -0.00049604481)
(-0.0050649233 -0.0005814855 -0.00066322586)
(-0.0055887956 -0.00087739568 -0.00083917948)
(-0.0059468352 -0.001234217 -0.0010032597)
(-0.0060787647 -0.0016547047 -0.0011732416)
(-0.0059809914 -0.0021395244 -0.0013378122)
(-0.0055860586 -0.0027080448 -0.0014934836)
(-0.0048718318 -0.0033260026 -0.0016604079)
(-0.0038103048 -0.0040124369 -0.0018153738)
(-0.0023629101 -0.0047579535 -0.0019682274)
(-0.00050027359 -0.0055651227 -0.0021190776)
(0.0018192049 -0.0064335979 -0.0022627414)
(0.0046216672 -0.007360636 -0.0023953167)
(0.0079500029 -0.0083539941 -0.0025201192)
(0.01183576 -0.009401455 -0.0026285315)
(0.01630013 -0.010537342 -0.0027302728)
(0.021418933 -0.011653517 -0.0027909686)
(0.027132154 -0.012914674 -0.0028814786)
(0.033539677 -0.014266185 -0.002909383)
(0.040601857 -0.015631427 -0.0029473883)
(0.048360544 -0.017064743 -0.0029681244)
(0.056820336 -0.018532056 -0.0029662001)
(0.065968876 -0.020055133 -0.0029396151)
(0.075824874 -0.021622084 -0.0029002933)
(0.086398359 -0.023244038 -0.0028329241)
(0.097677626 -0.024912243 -0.0027435729)
(0.10966448 -0.026623628 -0.002628052)
(0.12234187 -0.028370245 -0.0024928736)
(0.13569556 -0.030161779 -0.0023273162)
(0.14969482 -0.031961318 -0.0021528025)
(0.16430426 -0.033800026 -0.0019483221)
(0.17949274 -0.035638642 -0.0017316522)
(0.19518815 -0.037472752 -0.0015116908)
(0.21138849 -0.039325381 -0.0012698017)
(0.22797535 -0.041139087 -0.0010311331)
(0.24494466 -0.042908472 -0.00079973103)
(0.2622621 -0.044631214 -0.0005798201)
(0.27979782 -0.046375314 -0.00032428147)
(0.29760851 -0.047953767 -0.00013048837)
(0.31554952 -0.049521812 0.00011087696)
(0.33366425 -0.050996966 0.00038302016)
(0.35185026 -0.052286329 0.00066375463)
(-0.00028997341 5.6890562e-05 0.00028630031)
(-0.0011784807 2.18003e-05 0.00012686448)
(-0.0018974469 3.7794912e-05 1.7704237e-05)
(-0.002801675 -2.8840556e-05 -0.00022032645)
(-0.0035442212 -0.00019163155 -0.00042447967)
(-0.0043154252 -0.0004360887 -0.00065647842)
(-0.0049341673 -0.00077671631 -0.00088875307)
(-0.005443732 -0.0012259175 -0.0011204181)
(-0.0057686096 -0.0017551803 -0.0013488909)
(-0.0058828342 -0.0024072361 -0.0015788268)
(-0.0057551676 -0.0031287459 -0.0018068158)
(-0.0053278221 -0.0039826841 -0.0020299404)
(-0.0045949499 -0.0049108037 -0.0022543343)
(-0.0035093185 -0.0059479169 -0.0024679394)
(-0.0020472234 -0.0070715937 -0.0026810319)
(-0.0001661623 -0.0082925407 -0.0028867734)
(0.002163616 -0.0096046323 -0.00308187)
(0.0049756658 -0.011007552 -0.0032686837)
(0.0083111489 -0.012504945 -0.0034383281)
(0.012191227 -0.014089289 -0.0035973604)
(0.016670007 -0.015753157 -0.0037324508)
(0.021725994 -0.017515818 -0.0038488804)
(0.027476823 -0.019336902 -0.0039454996)
(0.033839738 -0.021273362 -0.0040115452)
(0.040880418 -0.023250123 -0.0040800661)
(0.048595504 -0.025304235 -0.004108381)
(0.056993652 -0.02741483 -0.0041016479)
(0.066098136 -0.029565251 -0.004091722)
(0.07590843 -0.031771445 -0.0040500203)
(0.086423782 -0.034024639 -0.0039771528)
(0.097641161 -0.036315462 -0.003875758)
(0.10956151 -0.038635842 -0.0037422061)
(0.12216908 -0.040984018 -0.003574905)
(0.13544751 -0.043336558 -0.0033793383)
(0.14937045 -0.045699405 -0.0031512708)
(0.16390468 -0.048049845 -0.0028958806)
(0.179003 -0.050371936 -0.0026286905)
(0.19464757 -0.052671662 -0.0023255093)
(0.21074329 -0.054912391 -0.0020356879)
(0.22726807 -0.057102016 -0.0017229661)
(0.2441684 -0.059202476 -0.0014172652)
(0.26139952 -0.061243035 -0.0010989254)
(0.27887102 -0.063183964 -0.00079417111)
(0.29659834 -0.064979942 -0.00052048379)
(0.31444027 -0.066745888 -0.00018002122)
(0.33248083 -0.068295208 8.0002494e-05)
(0.35056148 -0.069692712 0.00044335765)
(0 0 0)
(0 0 0)
(0 0 0)
(0 0 0)
(0 0 0)
(0 0 0)
(0 0 0)
(0 0 0)
(0 0 0)
(0 0 0)
(0 0 0)
(0 0 0)
(0 0 0)
(0 0 0)
(0 0 0)
(0 0 0)
(0 0 0)
(0 0 0)
(0 0 0)
(0 0 0)
(0 0 0)
(0 0 0)
(0 0 0)
(0 0 0)
(0 0 0)
(0 0 0)
(0 0 0)
(0 0 0)
(0 0 0)
(0 0 0)
(0 0 0)
(0 0 0)
(0 0 0)
(0 0 0)
(0 0 0)
(0 0 0)
(0 0 0)
(0 0 0)
(0 0 0)
(0 0 0)
(0 0 0)
(0 0 0)
(0 0 0)
(0 0 0)
(0 0 0)
(0 0 0)
(0 0 0)
(0 0 0)
(0 0 0)
(-0.00052982311 0.00022307069 0.00029904529)
(-0.00057028862 0.00029448502 0.00018978922)
(-0.0006593066 0.00029467853 9.5101362e-05)
(-0.00067937433 0.00030731673 1.4689545e-05)
(-0.00066884341 0.00028834055 -3.9268365e-05)
(-0.00066764477 0.00031848659 -0.00010247924)
(-0.00062105079 0.00024797282 -0.00023923887)
(-0.0013542574 0.00095261206 0.00013523839)
(-0.0013833602 0.0010903604 2.5872185e-05)
(-0.0013755978 0.00096349578 1.6991079e-05)
(-0.001380416 0.00091604867 -3.8409725e-05)
(-0.0014181776 0.0010162652 -6.2773742e-05)
(-0.0013797323 0.0010167116 -0.0001288198)
(-0.0013902828 0.0010383567 -0.00026829428)
(-0.0018988529 0.00080663114 5.260078e-05)
(-0.0019630062 0.0007261917 6.6534888e-05)
(-0.0020039178 0.00085168991 -3.9673899e-05)
(-0.0019764829 0.00084029452 -3.5128124e-05)
(-0.0019850478 0.00079559229 -5.9024743e-05)
(-0.0020033024 0.00080165898 -3.5275909e-05)
(-0.0020011418 0.0009573107 -0.00015246368)
(-0.0027218069 0.00092266403 -0.00025763722)
(-0.0026543797 0.00097944669 -0.00018684995)
(-0.0026288616 0.00096928428 -0.00016836768)
(-0.0026088865 0.00096191431 -7.6353267e-05)
(-0.0026487015 0.00098323704 -3.8565874e-05)
(-0.0026485011 0.0010674824 -4.4870588e-05)
(-0.0026769848 0.00096821088 4.4579099e-05)
(-0.0033221749 0.00066952341 -0.00041788806)
(-0.0032776716 0.00069001686 -0.0002773014)
(-0.0032636268 0.0007512894 -0.00020875134)
(-0.0032272284 0.00074678527 -0.00012151505)
(-0.003255813 0.00076089603 1.0787936e-05)
(-0.0033022785 0.00076364123 9.3068648e-05)
(-0.0033754561 0.00082319313 0.00017244129)
(-0.003986755 0.00038257332 -0.00069406839)
(-0.003850199 0.00040566708 -0.00050613128)
(-0.0037880661 0.00043464261 -0.00032871116)
(-0.0037659175 0.00047682437 -0.00015911926)
(-0.0037799195 0.00047789088 6.9072529e-06)
(-0.0038576949 0.00052927342 0.00016129668)
(-0.0039500835 0.00048636697 0.00033822628)
(-0.0044842597 -0.00010545251 -0.00091045138)
(-0.004323321 -7.266619e-05 -0.0006715956)
(-0.0042402214 5.7234373e-06 -0.00045035255)
(-0.0041907344 2.389541e-06 -0.00020618844)
(-0.0042272328 4.0520215e-05 1.4419886e-05)
(-0.0043069171 3.3016636e-05 0.00024894062)
(-0.0044678445 7.9240795e-05 0.00050842826)
(-0.0048668743 -0.00070053874 -0.0011564375)
(-0.0046755449 -0.00064289955 -0.0008414218)
(-0.0045532119 -0.00060232338 -0.00052876322)
(-0.0045078657 -0.00056532333 -0.00023680929)
(-0.0045477577 -0.00055386029 6.098221e-05)
(-0.0046388395 -0.00053526415 0.00034043326)
(-0.0048310029 -0.00055405303 0.00063438122)
(-0.00508535 -0.0014371831 -0.0013888244)
(-0.0048327811 -0.0013954301 -0.0010290877)
(-0.0046742625 -0.0013655982 -0.00067611818)
(-0.0046186956 -0.0013252833 -0.00029210966)
(-0.0046645946 -0.0012795545 6.9435553e-05)
(-0.0047886852 -0.0012863352 0.00042386105)
(-0.0050104789 -0.0012525279 0.00080751462)
(-0.0050649818 -0.0023319066 -0.0016258342)
(-0.0047958721 -0.0022596413 -0.0011883483)
(-0.0046236362 -0.0021990667 -0.00076433119)
(-0.0045490416 -0.0021820369 -0.00034916917)
(-0.0045986531 -0.0021596052 6.7060474e-05)
(-0.0047414719 -0.0021531501 0.0004993513)
(-0.0050043408 -0.0021505192 0.00090966463)
(-0.0048373702 -0.0033243245 -0.0018557404)
(-0.0045027801 -0.0032916769 -0.0013901789)
(-0.004295434 -0.0032449667 -0.00089410071)
(-0.0042132856 -0.0032235454 -0.00040063092)
(-0.0042647097 -0.0031847586 9.8616715e-05)
(-0.0044333968 -0.003171738 0.00055895705)
(-0.0046968084 -0.0031794156 0.001077722)
(-0.0042870871 -0.0044851042 -0.0020974483)
(-0.0039227977 -0.0044449461 -0.0015424459)
(-0.0037016277 -0.0043841393 -0.00098134735)
(-0.0036112294 -0.0043621074 -0.00043716023)
(-0.0036649046 -0.0043218888 0.00010894215)
(-0.0038520548 -0.0043314168 0.00063254456)
(-0.0041763944 -0.0043036712 0.0012523032)
(-0.0034413935 -0.0057519233 -0.0023203185)
(-0.0030492173 -0.005719887 -0.0017031134)
(-0.0027925993 -0.0056848589 -0.0011145874)
(-0.0026945836 -0.0056519811 -0.00049345655)
(-0.0027511943 -0.0056274322 0.00012562347)
(-0.0029780522 -0.0056106914 0.00070666422)
(-0.0033143894 -0.0056140557 0.0013589382)
(-0.0022457909 -0.0071754487 -0.0025396994)
(-0.0018270632 -0.0071457048 -0.0018650197)
(-0.0015349085 -0.007097954 -0.0012090831)
(-0.0014361762 -0.0070745285 -0.00052872745)
(-0.0014941145 -0.0070426181 0.00013862284)
(-0.0017289713 -0.0070463551 0.00076583328)
(-0.0021003404 -0.0070311462 0.0015032146)
(-0.00067898817 -0.0087178383 -0.0027607579)
(-0.00022024616 -0.0086919311 -0.0020231027)
(9.7205459e-05 -0.008656057 -0.0013206416)
(0.00020289581 -0.0086314141 -0.0005778375)
(0.00014518656 -0.0086068239 0.00014593391)
(-0.0001162283 -0.0085958509 0.00084308157)
(-0.0005226426 -0.0085855734 0.0016316411)
(0.0013033678 -0.010395272 -0.0029667211)
(0.0017932287 -0.01037765 -0.002174441)
(0.0021360256 -0.010338558 -0.0014145569)
(0.0022496915 -0.010319816 -0.00061712878)
(0.0021886761 -0.01029234 0.00016920229)
(0.0019079214 -0.010288741 0.00090921965)
(0.0014706755 -0.01027392 0.0017671152)
(0.0037268657 -0.012202822 -0.0031697731)
(0.0042496694 -0.012189364 -0.0023225406)
(0.0046226241 -0.012159333 -0.0015082325)
(0.0047396926 -0.012143676 -0.00065101685)
(0.0046765314 -0.012121381 0.00018399001)
(0.0043751734 -0.012112822 0.00098569004)
(0.0039070566 -0.012101877 0.0019036034)
(0.0066282765 -0.014141212 -0.0033593697)
(0.0071843255 -0.01413424 -0.002460145)
(0.0075824029 -0.014110785 -0.0015916176)
(0.0077043191 -0.014099107 -0.00068105524)
(0.0076405069 -0.014077097 0.00020929607)
(0.00731685 -0.01407129 0.0010618369)
(0.0068204936 -0.014058023 0.0020384071)
(0.010041877 -0.016205508 -0.0035367539)
(0.010627983 -0.016207233 -0.0025850524)
(0.011047368 -0.016187504 -0.0016670969)
(0.011174912 -0.016180269 -0.00070463939)
(0.01110827 -0.016163708 0.00023477968)
(0.010765528 -0.016156649 0.0011390369)
(0.010241254 -0.016144188 0.0021690642)
(0.013994521 -0.018395681 -0.0036952872)
(0.014609597 -0.018400014 -0.0026968978)
(0.015052191 -0.018393864 -0.0017338195)
(0.015183558 -0.018392629 -0.00072325549)
(0.015117519 -0.018377312 0.00026369101)
(0.014754978 -0.018373273 0.0012143113)
(0.014205623 -0.018355093 0.0022938277)