/*--------------------------------*- C++ -*----------------------------------*\
  =========                 |
  \\      /  F ield         | OpenFOAM: The Open Source CFD Toolbox
   \\    /   O peration     | Website:  https://openfoam.org
    \\  /    A nd           | Version:  6
     \\/     M anipulation  |
\*---------------------------------------------------------------------------*/
FoamFile
{
    version     2.0;
    format      ascii;
    class       pointVectorField;
    location    "0.48";
    object      u;
}
// * * * * * * * * * * * * * * * * * * * * * * * * * * * * * * * * * * * * * //

dimensions      [0 1 0 0 0 0 0];

internalField   nonuniform List<vector> 
28033
(
(0 2.1227553e-19 0)
(0 1.4535994e-18 0)
(1.911632 -0.13469112 0.0029080954)
(1.8260269 -0.53956023 0.0027631071)
(0 1.3127762e-18 0)
(0 2.1381252e-18 0)
(1.8260944 -0.54018096 0.0027227227)
(1.9118074 -0.13511524 0.0029582107)
(0 4.5963859e-19 0)
(0 1.3272945e-19 0)
(0 1.060266e-18 0)
(0 -5.033667e-19 0)
(0 6.7806792e-19 0)
(0 -4.018425e-19 0)
(0 -9.7099748e-21 0)
(-3.2388825e-19 -1.0565783e-19 0)
(0 1.987228e-19 0)
(0 9.8893511e-20 0)
(0 -3.8058966e-19 0)
(0 3.6848811e-19 0)
(0 4.4064749e-19 0)
(0 -3.5342565e-19 0)
(0 4.4934213e-19 0)
(1.9062575 -0.16004657 0.0028719359)
(1.9008724 -0.18538984 0.0028327196)
(1.8954912 -0.2107153 0.002805023)
(1.890114 -0.2360218 0.0027868102)
(1.88475 -0.26130599 0.0027818907)
(1.8793946 -0.28657827 0.0027875598)
(1.8740521 -0.311836 0.0028018271)
(1.8687188 -0.33709357 0.0028183198)
(1.8633949 -0.36235153 0.0028386793)
(1.8580725 -0.38761953 0.0028549555)
(1.8527525 -0.41290309 0.0028629076)
(1.8474265 -0.438205 0.0028614075)
(1.8420942 -0.46352446 0.0028492882)
(1.8367506 -0.48886173 0.0028275014)
(1.8313949 -0.51420711 0.0027970008)
(0.005037777 0.0076960877 0.0086564579)
(0.0059563427 0.012300669 0.011925405)
(0.0076383824 0.016979544 0.014406849)
(0.010135228 0.02187013 0.015997177)
(0.013184187 0.026846949 0.016976249)
(0.0171956 0.031922765 0.017646587)
(0.021949506 0.037040198 0.018008675)
(0.027557817 0.04202202 0.018154548)
(0.033931475 0.047061752 0.018165267)
(0.041121018 0.051879577 0.01806758)
(0.049004611 0.056643983 0.017873119)
(0.057647585 0.061198172 0.017598381)
(0.066951468 0.06563415 0.017345848)
(0.076984537 0.069846385 0.016987106)
(0.087578146 0.073887576 0.016681596)
(0.098835086 0.077706676 0.016305908)
(0.11065244 0.081360048 0.016003924)
(0.1230605 0.084760751 0.015662197)
(0.13597425 0.088003571 0.015365157)
(0.14943318 0.091010837 0.015066614)
(0.16337416 0.093846537 0.014828863)
(0.17782398 0.096464676 0.014569717)
(0.1927359 0.098899723 0.014385999)
(0.2081399 0.10115088 0.014187552)
(0.22398496 0.10319712 0.014026512)
(0.24030801 0.10507073 0.013873153)
(0.25707543 0.10673151 0.013744636)
(0.27431781 0.10823214 0.013597802)
(0.29200028 0.10949779 0.013459438)
(0.3101426 0.11058391 0.013314574)
(0.32874175 0.11146208 0.013143)
(0.34776361 0.11211532 0.012954303)
(0.36723046 0.11255916 0.012749819)
(0.38712295 0.1127545 0.012512621)
(0.40742448 0.11274698 0.012237539)
(0.42811602 0.11248051 0.011946205)
(0.44916945 0.11199071 0.011634425)
(0.47058774 0.1112625 0.011295652)
(0.49230916 0.11029581 0.010933724)
(0.51434107 0.10911138 0.010575814)
(0.53663653 0.10769537 0.010206693)
(0.55918184 0.10608207 0.0098487973)
(0.5819494 0.1042575 0.0094964841)
(0.60491948 0.10225094 0.0091680561)
(0.62806615 0.10006335 0.0088599872)
(0.65138237 0.097716753 0.0085810652)
(0.67484592 0.09521583 0.0083319784)
(0.69845896 0.092575296 0.008112321)
(0.72220517 0.089802315 0.0079220062)
(0.74609339 0.086904761 0.007756459)
(0.77011466 0.083888087 0.0076114296)
(0.79427935 0.080754298 0.0074805977)
(0.81858525 0.077506296 0.0073571825)
(0.84303986 0.074141081 0.0072338924)
(0.86764417 0.070659031 0.0071036081)
(0.89240051 0.067054828 0.0069602808)
(0.91730804 0.063326849 0.0067980062)
(0.94236343 0.059470329 0.0066134106)
(0.96756017 0.055483607 0.0064038798)
(0.99288913 0.051364047 0.0061692261)
(1.0183375 0.04711276 0.005910764)
(1.0438909 0.042730341 0.0056315657)
(1.0695306 0.038222354 0.0053375363)
(1.0952412 0.033591304 0.0050318821)
(1.1209981 0.02885163 0.0047265215)
(1.1467877 0.024004492 0.0044242242)
(1.1725852 0.019066241 0.004137437)
(1.1983797 0.014047325 0.0038670227)
(1.2241511 0.0089605554 0.0036190229)
(1.2498948 0.0038186652 0.0034078589)
(1.2755937 -0.0013686534 0.0032297562)
(1.3012479 -0.0065886196 0.0030864521)
(1.3268541 -0.011832065 0.0029798108)
(1.3524121 -0.017094072 0.0029082083)
(1.3779276 -0.022364248 0.0028672864)
(1.4034027 -0.027644597 0.0028551156)
(1.4288481 -0.032924906 0.0028637615)
(1.4542689 -0.038212622 0.0028901734)
(1.4796749 -0.043498103 0.0029255712)
(1.5050722 -0.048794171 0.0029682849)
(1.5304707 -0.054091175 0.0030066696)
(1.5558711 -0.059399356 0.0030449308)
(1.5812825 -0.064718207 0.003070958)
(1.6067006 -0.070048426 0.0030899733)
(1.6321335 -0.075393067 0.0030949123)
(1.6575729 -0.080751956 0.003089749)
(1.68302 -0.086127914 0.0030740137)
(1.7084664 -0.091510181 0.003051353)
(1.733912 -0.096913532 0.00302293)
(1.7593453 -0.10231013 0.0029941637)
(1.7847684 -0.10772757 0.0029671894)
(1.8101716 -0.11312873 0.0029428294)
(1.8355555 -0.11853797 0.0029305319)
(1.8609244 -0.1239322 0.0029154014)
(1.8862789 -0.12931972 0.0029127777)
(0.0019698666 -0.0087825111 -0.010204888)
(0.0035874068 -0.0119048 -0.012040293)
(0.0044932502 -0.016620488 -0.015685395)
(0.0056702411 -0.020436233 -0.016980239)
(0.0083401525 -0.02528213 -0.018296703)
(0.011450391 -0.030264667 -0.018928656)
(0.015429267 -0.034944478 -0.019348349)
(0.020187586 -0.040146821 -0.01940791)
(0.025800872 -0.045228239 -0.019373723)
(0.031987254 -0.050354943 -0.019161068)
(0.038999017 -0.05559564 -0.018870507)
(0.04655842 -0.060769222 -0.018508617)
(0.054847088 -0.066042796 -0.018075545)
(0.063665886 -0.071282024 -0.01767037)
(0.073105914 -0.076519614 -0.017185082)
(0.083072004 -0.081806551 -0.016761054)
(0.093569224 -0.087012863 -0.016292093)
(0.10458368 -0.092312755 -0.01585667)
(0.11606809 -0.097560446 -0.015448806)
(0.12804376 -0.10283425 -0.015052496)
(0.1404542 -0.10812105 -0.01467091)
(0.15333363 -0.11344998 -0.014346307)
(0.16660985 -0.11874421 -0.014014634)
(0.18037005 -0.12415771 -0.013717179)
(0.19450517 -0.12953253 -0.013443206)
(0.20912699 -0.1350085 -0.013155591)
(0.22412752 -0.14051103 -0.012920038)
(0.23961313 -0.14607377 -0.012632212)
(0.25549451 -0.15170529 -0.012390408)
(0.27185157 -0.15737752 -0.012083497)
(0.28862714 -0.16314369 -0.011801648)
(0.30586519 -0.1689409 -0.011469068)
(0.32352846 -0.17481443 -0.011128658)
(0.34164359 -0.18073089 -0.010746318)
(0.36017591 -0.18670104 -0.010345022)
(0.37912847 -0.1926976 -0.0099190717)
(0.39847818 -0.19872336 -0.0094515641)
(0.41821551 -0.20479014 -0.0089841397)
(0.43830692 -0.21084764 -0.0084949099)
(0.45874574 -0.21692442 -0.008003255)
(0.47949462 -0.22299237 -0.0075124228)
(0.50053679 -0.22905232 -0.0070324646)
(0.5218447 -0.23509962 -0.0065684151)
(0.54339798 -0.24112964 -0.0061294973)
(0.56517374 -0.24714298 -0.0057190856)
(0.58715738 -0.25313964 -0.0053416553)
(0.60933057 -0.25912286 -0.0050000077)
(0.63168588 -0.265096 -0.0046929645)
(0.65421296 -0.27106541 -0.004420322)
(0.67690961 -0.2770352 -0.0041776177)
(0.69977416 -0.28301344 -0.0039604155)
(0.7228086 -0.28900402 -0.0037624592)
(0.74601653 -0.29501296 -0.0035766267)
(0.76940289 -0.30104359 -0.0033958462)
(0.79297224 -0.30709796 -0.0032127803)
(0.81672912 -0.31317615 -0.0030212226)
(0.84067605 -0.31927714 -0.002815417)
(0.86481335 -0.32539598 -0.0025919097)
(0.88913863 -0.3315283 -0.0023480109)
(0.91364637 -0.33766589 -0.0020836548)
(0.93832748 -0.34380087 -0.0017998579)
(0.96317007 -0.34992312 -0.0015001511)
(0.9881592 -0.35602409 -0.0011882202)
(1.0132777 -0.36209278 -0.00087037799)
(1.0385065 -0.36812204 -0.00055196194)
(1.0638261 -0.3741031 -0.00023984586)
(1.0892166 -0.38003125 5.9953442e-05)
(1.1146576 -0.38590225 0.00034280823)
(1.140135 -0.39171122 0.00060228561)
(1.1656264 -0.39746147 0.00083704999)
(1.1911197 -0.40315712 0.001043322)
(1.2166089 -0.40879611 0.0012211796)
(1.2420818 -0.41439204 0.0013714106)
(1.2675343 -0.41994247 0.0014946154)
(1.2929649 -0.42546248 0.0015953293)
(1.3183726 -0.43095392 0.0016750535)
(1.343761 -0.43642758 0.0017401754)
(1.3691335 -0.44188799 0.0017932279)
(1.3944946 -0.44734225 0.0018398392)
(1.4198504 -0.45279334 0.0018822501)
(1.4452057 -0.45824673 0.0019258374)
(1.470565 -0.46370064 0.0019704165)
(1.4959328 -0.46916008 0.0020209807)
(1.5213102 -0.47461902 0.0020744334)
(1.5466998 -0.48008088 0.0021348514)
(1.5720998 -0.48553787 0.0021973016)
(1.5975096 -0.49099202 0.0022645032)
(1.6229252 -0.49643521 0.0023308786)
(1.6483438 -0.5018693 0.0023981618)
(1.67376 -0.5072877 0.0024615281)
(1.6991701 -0.51269252 0.0025218806)
(1.724569 -0.51808101 0.0025767421)
(1.7499539 -0.52345758 0.0026273747)
(1.7753238 -0.5288222 0.0026734279)
(1.8006784 -0.53418828 0.0027186341)
(0 -5.7758822e-19 0)
(0 -4.2175364e-19 0)
(0 3.9504896e-19 0)
(0 -2.4962849e-19 0)
(0 -2.1495402e-19 0)
(0 1.2012215e-18 0)
(0 -3.5662543e-19 0)
(-8.3033603e-19 2.3209994e-19 0)
(0 -2.1213068e-19 0)
(0 5.1679405e-19 0)
(0 6.1764761e-19 0)
(0 2.1603541e-19 0)
(0 1.1435011e-19 0)
(0 -2.3290942e-19 0)
(0 1.5831938e-19 0)
(0.004737745 -0.0036605349 0.0074469616)
(0.0048227078 -0.014071753 0.011984304)
(0.0044184961 -0.014705373 0.014539781)
(0.0063940813 -0.021753174 0.017061209)
(0.0083566416 -0.025162238 0.018184825)
(0.011836947 -0.03055222 0.018804072)
(0.015633408 -0.035139326 0.019176673)
(0.020668521 -0.040601684 0.019341781)
(0.026103916 -0.045366458 0.019232108)
(0.032432597 -0.050840154 0.019024144)
(0.039489602 -0.055984664 0.018820323)
(0.046968831 -0.061101771 0.018380071)
(0.055373875 -0.066622502 0.018069594)
(0.064067857 -0.071596601 0.017566584)
(0.073657573 -0.077270166 0.017206667)
(0.083501842 -0.082204548 0.016738299)
(0.094060861 -0.087766578 0.016381728)
(0.10501785 -0.092844187 0.015898125)
(0.1165191 -0.098331982 0.015597283)
(0.12848149 -0.10354738 0.015202727)
(0.14084414 -0.10892296 0.014957637)
(0.1537243 -0.11426514 0.014651631)
(0.16697361 -0.11965912 0.014446647)
(0.18071201 -0.12507478 0.014233783)
(0.19482934 -0.1304898 0.014055017)
(0.20942735 -0.13601933 0.013901997)
(0.22440411 -0.14149369 0.013731196)
(0.23987493 -0.1471523 0.013598017)
(0.25573965 -0.15272256 0.013420498)
(0.27208092 -0.15848636 0.013258551)
(0.28886186 -0.1642119 0.013059458)
(0.30608588 -0.17003405 0.012838734)
(0.32375872 -0.17589378 0.012580532)
(0.34186864 -0.18181021 0.012290129)
(0.36041459 -0.18778129 0.011977884)
(0.37936367 -0.19372365 0.011615069)
(0.39871411 -0.19979773 0.011240903)
(0.41845893 -0.2058213 0.010844798)
(0.43854737 -0.21187255 0.010436817)
(0.45898262 -0.2179288 0.010019378)
(0.47972316 -0.22397957 0.0096101244)
(0.50075247 -0.23002223 0.0092110336)
(0.5220446 -0.23604948 0.00883219)
(0.54357794 -0.24206147 0.0084795999)
(0.56533203 -0.24805497 0.008158256)
(0.58729134 -0.25403355 0.0078709921)
(0.60944121 -0.25999746 0.0076187965)
(0.63177299 -0.26595356 0.0074006594)
(0.65427929 -0.27190465 0.0072137897)
(0.67695828 -0.27785885 0.0070529173)
(0.69980913 -0.28382056 0.006912559)
(0.72283537 -0.28979667 0.006784076)
(0.74604033 -0.29579171 0.0066612917)
(0.76942948 -0.30180902 0.006534486)
(0.79300705 -0.30785188 0.0063982089)
(0.81677737 -0.31391884 0.0062442657)
(0.84074148 -0.32001 0.006069708)
(0.86489965 -0.32612017 0.0058697309)
(0.88924744 -0.3322446 0.005644581)
(0.91377871 -0.33837585 0.0053943597)
(0.93848265 -0.34450522 0.0051223903)
(0.96334664 -0.35062364 0.0048330355)
(0.98835404 -0.3567215 0.0045326766)
(1.0134872 -0.36278878 0.004228099)
(1.0387262 -0.36881759 0.0039270182)
(1.0640502 -0.37480005 0.0036372384)
(1.0894419 -0.38072635 0.0033660558)
(1.1148694 -0.38661061 0.0031211315)
(1.1403484 -0.39241722 0.0029091571)
(1.1658072 -0.39817245 0.0027248279)
(1.1912884 -0.40387305 0.0025817153)
(1.2167471 -0.4095182 0.0024776541)
(1.2421921 -0.41511476 0.00240758)
(1.2676133 -0.42067013 0.0023734067)
(1.2930111 -0.42618939 0.0023685297)
(1.318387 -0.43168048 0.0023892359)
(1.3437441 -0.43715008 0.0024292383)
(1.3690879 -0.44260483 0.002483018)
(1.3944234 -0.44804993 0.0025439674)
(1.4197578 -0.4534906 0.0026068982)
(1.4450959 -0.45892963 0.0026661707)
(1.4704442 -0.46437021 0.00271831)
(1.495805 -0.46981213 0.0027595107)
(1.5211825 -0.47525683 0.0027887997)
(1.5465758 -0.48070168 0.0028048576)
(1.5719857 -0.4861464 0.0028090633)
(1.5974081 -0.49158743 0.0028024415)
(1.6228409 -0.49702327 0.0027882812)
(1.6482776 -0.50245098 0.0027691421)
(1.6737145 -0.50786843 0.002748892)
(1.6991443 -0.51327514 0.0027308087)
(1.7245635 -0.51866898 0.0027175853)
(1.7499672 -0.52405386 0.0027113703)
(1.7753544 -0.52942882 0.0027122623)
(1.8007246 -0.53480298 0.0027198738)
(1.8314726 -0.51481453 0.002712378)
(1.8368338 -0.48944039 0.0027034055)
(1.8421881 -0.46408438 0.0026994755)
(1.8475219 -0.43873926 0.0027035158)
(1.8528634 -0.41342005 0.0027180493)
(1.8581833 -0.38811109 0.0027380322)
(1.8635231 -0.36282778 0.0027690062)
(1.8688529 -0.33754576 0.0027999882)
(1.8741969 -0.31227736 0.0028360102)
(1.8795468 -0.28700041 0.0028708266)
(1.8849162 -0.26173162 0.0029005646)
(1.8902832 -0.2364291 0.0029256097)
(1.8956671 -0.21113134 0.002940503)
(1.9010517 -0.18579935 0.002952826)
(1.9064364 -0.16046129 0.0029518852)
(1.8864613 -0.12974534 0.0029188503)
(1.8611137 -0.12436335 0.0028869568)
(1.8357511 -0.118979 0.0028491131)
(1.8103662 -0.11358945 0.0028045928)
(1.7849646 -0.10820129 0.0027546021)
(1.7595407 -0.10281439 0.0026968953)
(1.7341019 -0.097435157 0.0026330112)
(1.7086517 -0.09206375 0.0025654993)
(1.6831947 -0.086704096 0.0024961304)
(1.657737 -0.081356246 0.0024267523)
(1.6322823 -0.076020785 0.0023598847)
(1.6068348 -0.070698603 0.002297451)
(1.5813974 -0.065386639 0.0022393923)
(1.5559675 -0.06008323 0.002185836)
(1.5305486 -0.054789469 0.0021369933)
(1.5051359 -0.049499541 0.0020912534)
(1.4797254 -0.044213477 0.0020461607)
(1.4543105 -0.038929426 0.0019982815)
(1.4288852 -0.03364574 0.0019437725)
(1.4034406 -0.02836387 0.0018784881)
(1.3779699 -0.023084182 0.0017977846)
(1.3524651 -0.017810588 0.0016973587)
(1.3269211 -0.012547068 0.0015737265)
(1.3013321 -0.0073007885 0.0014235902)
(1.2756994 -0.0020788525 0.0012446065)
(1.2500206 0.0031114332 0.0010394109)
(1.2243002 0.0082418539 0.00079980292)
(1.198558 0.013337384 0.00054075852)
(1.1727767 0.018345887 0.00025422069)
(1.146999 0.023281861 -4.5818994e-05)
(1.1212264 0.028121872 -0.00036216214)
(1.0954806 0.032858186 -0.00068331128)
(1.069779 0.037480442 -0.0010052547)
(1.0441414 0.0419813 -0.0013217546)
(1.0185868 0.046354177 -0.0016274557)
(0.99313235 0.050596174 -0.001918115)
(0.96779394 0.05470447 -0.0021908939)
(0.94258461 0.058680086 -0.0024439775)
(0.91751489 0.062523677 -0.0026776427)
(0.89259185 0.066238951 -0.0028933384)
(0.86782016 0.069828423 -0.0030943101)
(0.84320128 0.07329646 -0.0032846215)
(0.81873478 0.076645559 -0.0034700848)
(0.79441832 0.079878353 -0.0036560608)
(0.77024893 0.082995388 -0.003849342)
(0.74622333 0.085995817 -0.0040554373)
(0.72233929 0.088876678 -0.0042801149)
(0.69859595 0.091632832 -0.0045274533)
(0.67499528 0.094257241 -0.0048012486)
(0.6515413 0.096741141 -0.005102212)
(0.62824295 0.099072904 -0.0054317819)
(0.60510988 0.10124369 -0.0057874748)
(0.58215983 0.10323543 -0.0061667142)
(0.55940775 0.10504493 -0.0065675277)
(0.5368783 0.10664801 -0.0069785576)
(0.51459241 0.1080485 -0.007404646)
(0.49256955 0.10923593 -0.007831793)
(0.47083126 0.11018443 -0.0082576878)
(0.4494631 0.11087486 -0.0086607047)
(0.42836677 0.11140372 -0.0090857025)
(0.40765654 0.11165249 -0.0094739655)
(0.38739 0.11163499 -0.0098331512)
(0.36745313 0.11146291 -0.010193174)
(0.34796398 0.11103483 -0.010536894)
(0.32888506 0.11039583 -0.010858336)
(0.31030501 0.1095021 -0.011162469)
(0.29209539 0.10848916 -0.011446441)
(0.27442636 0.10717229 -0.011723322)
(0.25713797 0.10576162 -0.012018972)
(0.2403482 0.10411591 -0.012293944)
(0.22400424 0.10229147 -0.012578619)
(0.20811893 0.10029345 -0.012870564)
(0.19276461 0.09803266 -0.013140992)
(0.17779874 0.095702324 -0.013474258)
(0.16336354 0.093111739 -0.013789594)
(0.14944084 0.090294375 -0.014098249)
(0.13597222 0.087373794 -0.014476855)
(0.12309588 0.084126266 -0.014782197)
(0.11068805 0.080816776 -0.015185558)
(0.098918767 0.077149569 -0.015506494)
(0.087726477 0.073374614 -0.015880562)
(0.077073801 0.06936318 -0.016205906)
(0.067098186 0.065227526 -0.016581843)
(0.05784409 0.060719501 -0.016822378)
(0.049189755 0.056304339 -0.017154387)
(0.041288371 0.051514418 -0.017324325)
(0.034171469 0.046675178 -0.017457238)
(0.027776365 0.041725931 -0.017474182)
(0.022152458 0.03673194 -0.017362721)
(0.017369124 0.031674097 -0.017045234)
(0.013412331 0.026550346 -0.016372863)
(0.010350385 0.02142322 -0.015366141)
(0.0081010236 0.016871294 -0.013888511)
(0.0062172349 0.011781698 -0.011113538)
(0.0071892228 0.007308528 -0.0065324508)
(0 6.580555e-19 0)
(0 2.5031416e-19 0)
(0 6.4969395e-19 0)
(0 6.5402333e-19 0)
(0 6.8165066e-19 0)
(0 4.099333e-19 0)
(0 1.6341711e-20 0)
(0 -3.7144988e-19 -4.0756407e-19)
(0 4.398457e-20 0)
(0 3.9543633e-19 0)
(0 9.5352442e-19 0)
(0 8.3548629e-19 0)
(0 5.9805463e-19 0)
(0 5.7797327e-19 0)
(0 6.5999785e-19 0)
(0 2.7451739e-18 0)
(0 1.1688586e-18 0)
(0 4.2893786e-19 0)
(0 7.7421105e-19 0)
(0 -6.7405172e-20 0)
(0 1.804575e-19 0)
(0 2.0563033e-18 0)
(0 -8.3678764e-19 -3.6285718e-19)
(0 1.2231099e-18 0)
(0 1.5290161e-18 0)
(0 5.0528828e-19 0)
(0 2.0682484e-19 0)
(0 4.8005835e-19 0)
(0 8.6551282e-19 0)
(0 1.1132803e-19 0)
(1.8260359 -0.53961475 0.0027666303)
(1.8260393 -0.53967597 0.0027642768)
(1.8260463 -0.53973959 0.002759102)
(1.8260558 -0.53980475 0.0027545775)
(1.8260666 -0.53986995 0.0027504851)
(1.8260786 -0.53993243 0.0027482211)
(1.8260892 -0.53999083 0.0027469018)
(1.8260984 -0.54004352 0.0027461518)
(1.8261054 -0.54008886 0.002745315)
(1.82611 -0.54012618 0.0027434853)
(1.8261114 -0.54015401 0.0027399401)
(1.826112 -0.54017338 0.0027349931)
(1.8261101 -0.54018375 0.0027295785)
(1.8261069 -0.54018664 0.0027237737)
(1.8261034 -0.54018321 0.0027225293)
(1.9116675 -0.13470249 0.00290661)
(1.9117007 -0.13470568 0.0029116451)
(1.9117352 -0.1347129 0.002921598)
(1.9117665 -0.13472365 0.0029310412)
(1.9117971 -0.13473883 0.0029391192)
(1.9118222 -0.13475849 0.0029444094)
(1.9118422 -0.13478184 0.0029479664)
(1.9118558 -0.13480915 0.0029492315)
(1.9118631 -0.13483957 0.002949938)
(1.911864 -0.1348733 0.0029499588)
(1.9118595 -0.13490981 0.0029509178)
(1.9118509 -0.13494894 0.0029524466)
(1.91184 -0.13499042 0.0029547075)
(1.9118268 -0.13503343 0.0029586469)
(1.9118173 -0.13507639 0.0029576777)
(0.0028439767 0.0062064772 0.0087904045)
(0.0040732426 0.010482827 0.010277663)
(0.0055939028 0.015004179 0.012785959)
(0.0081228857 0.019344742 0.013783808)
(0.010982282 0.023702838 0.014865401)
(0.015000097 0.028104588 0.015371459)
(0.019600979 0.03242467 0.015723259)
(0.025241888 0.036836163 0.015848631)
(0.031472236 0.041061251 0.015883767)
(0.038617774 0.045304836 0.015812183)
(0.046442639 0.049323589 0.015610269)
(0.055043361 0.053333576 0.015455562)
(0.064292493 0.057053369 0.015158393)
(0.074236666 0.060745159 0.014918472)
(0.084791776 0.064133349 0.014602626)
(0.096004469 0.06746445 0.014341083)
(0.10777285 0.070499807 0.014021561)
(0.12008388 0.073446121 0.013773627)
(0.13296585 0.076122702 0.013490091)
(0.14635829 0.078680446 0.01325788)
(0.16023647 0.081003443 0.013032204)
(0.17462148 0.083158427 0.012839686)
(0.18947065 0.085143398 0.012650309)
(0.20477439 0.086918568 0.012504456)
(0.22056293 0.088526619 0.012352181)
(0.23679494 0.089937716 0.012234009)
(0.25348422 0.091177263 0.01210435)
(0.27062205 0.092202473 0.011994411)
(0.28822659 0.093041378 0.011871109)
(0.30627075 0.093692995 0.011741434)
(0.32476266 0.094111669 0.011596935)
(0.34370704 0.094340452 0.011438463)
(0.36308204 0.094345251 0.011259973)
(0.38287423 0.094139529 0.011054754)
(0.4030843 0.093708588 0.010827622)
(0.4236872 0.093048757 0.010577427)
(0.44466257 0.092187959 0.010307573)
(0.46598672 0.091090238 0.010018807)
(0.48765216 0.089794341 0.0097139032)
(0.50961063 0.088286106 0.009410855)
(0.5318534 0.086580061 0.0091013559)
(0.55433908 0.08468033 0.008793485)
(0.57706118 0.082610226 0.0085004406)
(0.59998564 0.080361076 0.0082199376)
(0.62309177 0.077962026 0.0079599203)
(0.64636789 0.075411779 0.0077238423)
(0.66979631 0.072722315 0.0075106882)
(0.69337057 0.069902099 0.0073244239)
(0.71708173 0.066955848 0.0071602593)
(0.74093004 0.063888892 0.0070175678)
(0.76491279 0.060704241 0.0068907636)
(0.78903436 0.057402265 0.0067762397)
(0.81329708 0.053984303 0.0066664159)
(0.83770572 0.050447604 0.0065572322)
(0.86226353 0.046792012 0.0064412681)
(0.88697299 0.043013822 0.00631444)
(0.91183467 0.039112656 0.0061714454)
(0.936846 0.035085772 0.0060099246)
(0.96200219 0.030933972 0.0058274334)
(0.98729484 0.026657419 0.0056242347)
(1.0127126 0.022259167 0.0054011705)
(1.0382415 0.017743307 0.0051614991)
(1.0638642 0.013115565 0.0049091063)
(1.0895644 0.0083834049 0.0046488662)
(1.1153182 0.0035578196 0.0043875229)
(1.1411141 -0.0013568634 0.0041313178)
(1.1669289 -0.0063406044 0.0038824731)
(1.1927363 -0.011393421 0.0036562913)
(1.2185331 -0.016497938 0.0034456307)
(1.2442948 -0.021647748 0.0032685706)
(1.2700216 -0.026830394 0.0031160561)
(1.2957024 -0.032039622 0.0029950577)
(1.321335 -0.037267772 0.0029033496)
(1.3469177 -0.042510257 0.0028422044)
(1.3724544 -0.047763525 0.0028072524)
(1.3979487 -0.053026373 0.0027966787)
(1.423409 -0.058294476 0.0028038258)
(1.4488406 -0.06357275 0.0028267729)
(1.4742552 -0.06885565 0.0028574459)
(1.4996568 -0.074151976 0.0028947653)
(1.5250573 -0.07945439 0.0029295727)
(1.5504579 -0.084771523 0.0029639622)
(1.5758677 -0.090101264 0.0029892903)
(1.601285 -0.095443124 0.0030083409)
(1.6267152 -0.10080063 0.0030156619)
(1.6521551 -0.10616961 0.0030163401)
(1.6776032 -0.11155023 0.0030070315)
(1.7030512 -0.11693938 0.0029922624)
(1.7285032 -0.12233485 0.002972045)
(1.7539405 -0.1277325 0.0029515946)
(1.7793734 -0.13313212 0.002929788)
(1.8047839 -0.13852585 0.0029120621)
(1.8301754 -0.14391776 0.0028973969)
(1.8555517 -0.14930054 0.0028849648)
(1.8809053 -0.15467723 0.0028768199)
(0.00059943514 0.0055530491 0.0078471777)
(0.0017595141 0.0081082542 0.0093868711)
(0.0038846068 0.012749196 0.010992659)
(0.0059839289 0.016138216 0.012153555)
(0.0090689882 0.02023816 0.01284547)
(0.012871356 0.023896553 0.013272992)
(0.017596952 0.027845169 0.01352039)
(0.022996973 0.031511819 0.013650776)
(0.029301563 0.035247587 0.013693619)
(0.03636565 0.038778821 0.013554081)
(0.044146816 0.042287137 0.013502672)
(0.052682249 0.045589768 0.013247135)
(0.061880667 0.048817484 0.013099865)
(0.071781589 0.051834092 0.012819884)
(0.082280448 0.05473211 0.012635681)
(0.093446911 0.057435318 0.01232147)
(0.10510119 0.059996892 0.012144797)
(0.11742045 0.062353939 0.011871)
(0.13019547 0.064564107 0.011676537)
(0.14353404 0.066578588 0.01145661)
(0.15733378 0.068430834 0.011288521)
(0.17165241 0.070108839 0.011099261)
(0.18640732 0.071606666 0.010972163)
(0.20166406 0.07292905 0.010831085)
(0.2173552 0.074066995 0.010722555)
(0.23351442 0.075043234 0.010606507)
(0.25011573 0.07581454 0.010516677)
(0.26718187 0.076409443 0.010420359)
(0.28469044 0.076815731 0.010317219)
(0.30265283 0.077021021 0.0102109)
(0.32106218 0.077029179 0.010100338)
(0.33991544 0.076835854 0.0099641658)
(0.35919461 0.076439822 0.0098140098)
(0.37890486 0.075828464 0.0096473043)
(0.39903099 0.075012018 0.0094557042)
(0.41954952 0.073990142 0.0092513954)
(0.44045156 0.072755462 0.0090250715)
(0.46170657 0.071321764 0.0087876123)
(0.4832858 0.069688657 0.0085396344)
(0.50517689 0.06787329 0.0082847939)
(0.52734497 0.065864797 0.0080241179)
(0.5497711 0.063697309 0.0077736247)
(0.57243023 0.061351038 0.0075244031)
(0.59529158 0.058862368 0.007296941)
(0.61834555 0.056226603 0.0070778731)
(0.64156888 0.053454118 0.0068823927)
(0.66494753 0.050553343 0.0067051602)
(0.68847353 0.047530541 0.0065503329)
(0.71213886 0.044388837 0.0064122811)
(0.73594115 0.041133229 0.0062935913)
(0.75987952 0.037764011 0.0061863403)
(0.78395703 0.034281873 0.0060895147)
(0.80817623 0.030686922 0.0059961161)
(0.83254181 0.026976332 0.0059030344)
(0.8570574 0.023150232 0.0058037354)
(0.88172569 0.019205367 0.0056954348)
(0.90654744 0.015142156 0.0055732367)
(0.93152095 0.010958874 0.0054357225)
(0.9566416 0.0066580106 0.0052804293)
(0.98190175 0.0022401705 0.0051080632)
(1.0072904 -0.00228926 0.0049193319)
(1.0327939 -0.0069260123 0.004716634)
(1.058396 -0.011663297 0.0045040424)
(1.0840791 -0.016491058 0.0042840028)
(1.1098218 -0.021402695 0.0040653818)
(1.1356134 -0.026384504 0.0038469413)
(1.1614073 -0.031430979 0.0036471866)
(1.1872195 -0.036538013 0.0034540587)
(1.2130225 -0.041680319 0.0032769513)
(1.2387977 -0.046857254 0.003125648)
(1.2645374 -0.052058366 0.0029963213)
(1.2902312 -0.05728087 0.0028952474)
(1.3158778 -0.062515657 0.0028185155)
(1.3414743 -0.067763556 0.0027687043)
(1.3670255 -0.073019489 0.0027403869)
(1.3925318 -0.07828458 0.0027334904)
(1.4180036 -0.083555754 0.0027411288)
(1.4434442 -0.088838037 0.0027635773)
(1.4688666 -0.094126646 0.0027914635)
(1.4942726 -0.099430305 0.0028269268)
(1.5196783 -0.10474137 0.002858578)
(1.5450791 -0.1100702 0.0028923359)
(1.5704922 -0.11541079 0.0029167545)
(1.5959075 -0.12076685 0.0029354763)
(1.6213406 -0.12613138 0.0029468015)
(1.6467776 -0.13151107 0.0029515044)
(1.6722253 -0.13689921 0.0029478532)
(1.6976731 -0.14229108 0.0029386623)
(1.7231242 -0.14769314 0.0029262838)
(1.7485632 -0.15308812 0.0029095819)
(1.7739956 -0.15849061 0.0028958894)
(1.7994086 -0.16388135 0.0028789833)
(1.8248007 -0.16927123 0.0028688296)
(1.8501772 -0.1746527 0.0028543605)
(1.8755289 -0.18002879 0.0028455579)
(-0.0007021268 0.0043607986 0.006899843)
(0.00038793299 0.0067328692 0.0079280676)
(0.0016394109 0.010281327 0.0096301046)
(0.0040305454 0.013446063 0.010399914)
(0.0070133202 0.016760856 0.010862703)
(0.011004483 0.020097615 0.011178488)
(0.015510379 0.023265236 0.011390546)
(0.021090401 0.026474034 0.011493315)
(0.027290848 0.029464546 0.011401716)
(0.034320199 0.032537043 0.011434441)
(0.042058683 0.035300593 0.011229187)
(0.050567032 0.038133377 0.011152926)
(0.059709938 0.040648526 0.010914662)
(0.06954572 0.043187851 0.010791147)
(0.080016542 0.04543714 0.01051469)
(0.091062268 0.047644509 0.010393323)
(0.10273714 0.049598475 0.010137702)
(0.11492835 0.051470989 0.0099821928)
(0.12766639 0.053121181 0.0097823106)
(0.14092021 0.054647519 0.0096379973)
(0.15466971 0.055992249 0.0094678877)
(0.1688973 0.057168207 0.0093573273)
(0.18360301 0.058190664 0.0092251305)
(0.19875993 0.059027754 0.0091323738)
(0.21438168 0.059719185 0.0090293012)
(0.23045239 0.060213481 0.00895832)
(0.2469797 0.060546665 0.0088786554)
(0.2639506 0.060698857 0.0088023077)
(0.28137924 0.060664347 0.0087264803)
(0.299252 0.060443462 0.0086505014)
(0.31757435 0.060033382 0.0085534085)
(0.33633437 0.059430845 0.0084510454)
(0.35553581 0.058628125 0.0083361051)
(0.37516087 0.057630323 0.0082022076)
(0.39519801 0.056435852 0.0080541092)
(0.41563176 0.055044494 0.0078896074)
(0.43643583 0.053463547 0.0077138623)
(0.45759184 0.051692276 0.0075278657)
(0.47910492 0.04973828 0.0073271679)
(0.50091665 0.04760207 0.0071190966)
(0.52301555 0.045309719 0.0069190756)
(0.54537306 0.04285122 0.0067095781)
(0.56796058 0.040245927 0.0065219953)
(0.59076286 0.037500791 0.0063351049)
(0.61375507 0.034619998 0.0061629736)
(0.63691821 0.031617422 0.0060080859)
(0.66024104 0.028495122 0.0058673131)
(0.68371289 0.025260313 0.0057434835)
(0.70732602 0.021914783 0.0056349517)
(0.73107782 0.018462464 0.0055401243)
(0.7549683 0.014902585 0.0054544394)
(0.7789983 0.011236308 0.0053773879)
(0.8031723 0.0074618257 0.0053019563)
(0.8274935 0.0035778545 0.0052268062)
(0.85196652 -0.0004166759 0.0051460172)
(0.87659328 -0.0045238946 0.0050577082)
(0.90137564 -0.0087434227 0.0049577175)
(0.9263113 -0.013075752 0.0048451491)
(0.95139651 -0.017518574 0.004717751)
(0.97662356 -0.02206952 0.0045767423)
(1.0019819 -0.026723529 0.0044218353)
(1.0274584 -0.031475222 0.0042560607)
(1.0530365 -0.036316781 0.0040816983)
(1.0786991 -0.041239424 0.0039020886)
(1.104426 -0.046235696 0.003722394)
(1.1301987 -0.051293682 0.0035457464)
(1.1559985 -0.056398272 0.0033791314)
(1.1817995 -0.061553046 0.0032146487)
(1.2076003 -0.066748905 0.0030809495)
(1.2333715 -0.071960174 0.002958608)
(1.2591095 -0.077196862 0.0028580331)
(1.2848042 -0.082445092 0.0027790763)
(1.3104555 -0.087703581 0.0027194037)
(1.3360578 -0.092970111 0.0026822709)
(1.3616142 -0.098243493 0.0026624808)
(1.3871276 -0.10352236 0.0026609928)
(1.4126052 -0.10880735 0.0026716777)
(1.4380523 -0.114101 0.0026942629)
(1.4634794 -0.11940157 0.0027223819)
(1.4888912 -0.12471435 0.0027556834)
(1.5142993 -0.13003659 0.0027876853)
(1.5397046 -0.13537461 0.0028208086)
(1.5651177 -0.14072074 0.002844623)
(1.590539 -0.14608374 0.0028693014)
(1.6159705 -0.15145396 0.0028805803)
(1.6414056 -0.15683828 0.0028916648)
(1.6668532 -0.16222673 0.0028908989)
(1.6923003 -0.16762611 0.0028906718)
(1.7177521 -0.17302467 0.002881298)
(1.7431899 -0.17842572 0.002874347)
(1.7686251 -0.1838242 0.002862414)
(1.794038 -0.18921734 0.002852191)
(1.8194315 -0.19460622 0.0028427163)
(1.8448095 -0.1999875 0.0028298264)
(1.8701597 -0.20536093 0.0028201697)
(-0.0015575494 0.0038894176 0.0056993015)
(-0.0011029999 0.0052879306 0.006773006)
(0.00025385073 0.0082628859 0.0078131057)
(0.0024784139 0.010632308 0.0083763878)
(0.0055364521 0.013511661 0.0087321736)
(0.0092347571 0.016074137 0.009040795)
(0.013958968 0.018814018 0.0091692777)
(0.019362965 0.021289743 0.0091415192)
(0.025548794 0.023858815 0.0092532134)
(0.032549367 0.026175778 0.0090916749)
(0.040267062 0.028485058 0.0090879633)
(0.048688201 0.030612388 0.0088934633)
(0.057785011 0.032644903 0.0088414194)
(0.067599257 0.034537431 0.0086015117)
(0.0779454 0.036265065 0.008544692)
(0.08900824 0.037883849 0.0083149989)