/*--------------------------------*- C++ -*----------------------------------*\
  =========                 |
  \\      /  F ield         | OpenFOAM: The Open Source CFD Toolbox
   \\    /   O peration     | Website:  https://openfoam.org
    \\  /    A nd           | Version:  6
     \\/     M anipulation  |
\*---------------------------------------------------------------------------*/
FoamFile
{
    version     2.0;
    format      ascii;
    class       pointScalarField;
    location    "0.22";
    object      E;
}
// * * * * * * * * * * * * * * * * * * * * * * * * * * * * * * * * * * * * * //

dimensions      [1 -1 -2 0 0 0 0];

internalField   nonuniform List<scalar> 
3969
(
14678.505
12357.795
16888.912
11364.598
15503.524
13520.414
12110.013
16332.763
8193.3785
3290.2703
1288.7255
1096.4369
2435.2036
6036.4818
12014.012
15270.325
12890.676
13028.895
14145.797
15531.622
16279.569
16155.22
15537.917
13631.544
14583.289
15350.362
15879.647
16205.353
16230.248
16237.937
15937.938
15622.155
15288.495
14825.718
14241.851
13643.232
12915.979
12116.732
11322.904
10495.677
9684.675
8822.67
8016.4432
7235.2354
6567.4397
5995.5851
5433.1645
4970.2199
4394.2511
3892.9566
3423.4561
2956.4724
2529.7351
2117.4729
1740.7971
1456.965
1258.2153
1314.7406
1388.4096
1659.4537
1975.5343
2565.2787
3340.1576
4261.5037
5758.0894
6932.3976
8926.8084
10373.197
14087.277
14510.317
11556.231
14009.917
14280.694
15131.243
15029.474
15254.251
15049.322
14866.539
14446.361
13988.433
13480.387
12886.106
12205.528
11376.709
10483.686
9562.6322
8498.6479
7632.5275
6698.965
6065.9788
5572.9705
5207.6666
5089.8413
5130.8457
5369.7204
5505.394
5996.8981
6452.2302
6951.1686
7674.4124
8330.4254
9267.7492
10145.574
11153.986
12183.796
12943.972
13707.701
14432.413
14912.338
15380.975
15614.914
15773.112
15777.813
15830.419
15638.852
14628.71
8876.8805
3541.1267
1474.0051
1940.0632
2436.505
5354.731
10197.787
20059.298
15957.334
11763.909
17170.807
15713.335
16763.481
16654.793
16093.927
16324.124
15448.685
15713.959
15147.287
14935.147
14002.762
13106.19
12218.212
11123.147
10303.659
9369.871
8611.4848
7913.7264
7358.8176
6907.1341
6558.685
6372.692
6308.2347
6045.9133
6213.5284
6560.4979
7006.3962
7682.7563
8513.9801
9306.2155
10120.253
10682.22
11093.302
12176.35
12342.414
12565.259
12855.143
13117.497
13458.582
13668.86
13895.472
14014.112
13800.834
14939.838
16610.785
16387.927
16059.722
14826.67
13490.836
12696.504
15455.595
14434.26
12768.249
11804.434
10263.243
8876.5234
7694.5015
6660.4314
5794.0841
5138.811
4671.5076
4281.3874
3556.2437
3240.5963
3206.2829
3080.1767
3090.2482
3189.805
3438.1981
3730.1734
4146.3854
4572.3613
5096.0262
5603.974
6153.8957
6783.6244
7474.2115
8268.1912
9146.1592
10117.786
11079.333
12108.17
13030.476
13907.376
14349.39
15303.939
15867.141
16498.2
16762.246
16768.314
17055.348
17449.167
16955.106
17364.107
15968.098
15337.735
13951.807
17895.922
9218.9349
9544.3327
9195.9127
9326.2064
9296.4365
9175.586
9967.13
7317.1661
7813.5489
8393.7579
8727.1528
8640.7128
8979.2873
7177.3258
11461.244
11701.092
11732.876
11852.171
11881.087
12006.919
12001.543
16997.471
17015.919
17066.635
17123.572
17135.684
17107.49
16971.084
10118.616
8666.366
9316.7012
9645.6694
10111.824
10471.741
10598.806
10752.284
10719.66
10744.655
10568.519
10273.404
9950.9137
9474.7432
8976.4194
8581.1528
8159.748
7729.6325
7312.8003
6873.7541
6452.6308
6057.1825
5682.2123
5275.3309
4815.1837
4410.7701
4037.9309
3873.6083
3892.6154
4036.5377
4269.166
4537.697
4809.9175
5121.031
5500.7024
5840.4831
6289.1452
6705.9865
7355.3481
8078.1122
8920.9954
10000.798
11084.631
12040.487
13420.457
14146.612
15958.915
4785.7209
4087.5678
4563.7037
4569.7595
4796.4376
4969.4852
4983.6427
5130.7168
5111.7728
5144.5454
5072.1208
4990.4853
4841.1512
4668.9782
4503.7023
4299.4843
4114.7531
3929.3993
3766.9392
3609.7652
3496.1879
3418.4743
3319.7642
3279.7577
3244.2913
3251.2712
3287.8137
3424.3006
3705.8416
4067.6512
4540.1863
5050.8999
5581.3676
6183.6958
6729.2244
7349.0331
7985.494
8551.7425
9235.2557
9872.1426
10747.216
11419.502
12478.91
13063.917
14235.168
14367.35
15416.095
2011.5102
1028.1808
1569.585
1228.2331
1465.0227
1460.9747
1529.828
1574.643
1567.6321
1653.6299
1661.5892
1654.3106
1591.4929
1506.5812
1414.3411
1392.513
1391.937
1392.6299
1417.5119
1389.9514
1358.1679
1317.6789
1388.6689
1527.173
1647.1703
1844.79
2181.9813
2594.9856
3141.9411
3789.1538
4504.1999
5259.5748
6042.804
6837.8516
7653.45
8458.9058
9264.119
10069.18
10950.638
11643.078
12349.927
12985.686
13668.723
13986.614
14696.678
14460.156
15043.445
1325.7524
376.28739
496.42184
397.59112
422.84738
432.45421
387.55942
487.1254
456.48557
495.16469
539.08078
569.96695
591.25189
602.57666
603.12239
635.10129
683.45548
772.72848
839.63952
945.13748
1185.05
1491.1359
1781.1284
2026.6204
2322.729
2651.8893
2958.2814
3353.0092
3842.7063
4406.7033
5043.2437
5743.8388
6421.0768
7170.0886
7797.0646
8449.6104
9064.1587
9603.7154
10168.174
10714.597
11365.126
11791.092
12484.889
12845.33
13760.303
13695.051
14860.475
2937.8392
1613.3507
1762.9301
1453.8829
1438.4352
1481.0419
1337.2285
1381.9818
1308.6805
1378.4272
1418.4085
1352.8691
1260.8872
1149.1286
1062.0263
959.01583
926.73018
888.91006
909.31237
920.5517
1142.8017
1123.248
1122.3781
1239.7674
1294.8953
1313.5505
1404.3851
1552.3901
1758.5725
2003.8449
2320.343
2672.2192
3027.3003
3447.8918
3813.2909
4288.6859
4764.7286
5223.2264
6719.4155
8816.5278
9365.3262
10060.754
10784.088
11601.629
12393.916
12888.989
14973.668
6555.1428
5580.8845
5669.275
5771.5685
6024.416
6151.962
6202.5059
6175.4753
6129.2199
5998.8759
5938.6556
5756.7466
5493.3992
5262.6883
4975.3773
4721.4598
4459.8685
4231.4933
4030.2746
3820.8415
3728.7483
3653.2949
3382.6631
3306.8351
3263.2696
3261.0392
3272.4599
3295.5392
3291.3395
3398.4781
3527.8817
3685.8057
3880.6575
4138.2911
4308.7911
4728.9756
4950.5126
5305.4996
5738.319
6453.6666
6883.5884
7494.1984
8351.3755
9317.8686
10423.522
11772.533
14693.361
10117.62
8895.4188
9348.6941
10035.914
10359.277
10695.123
10659.68
10642.707
10582.466
10261.451
10190.348
9696.879
9205.7037
8672.8331
8183.5411
7700.2545
7235.3494
6763.1131
6281.6243
5841.7769
5405.305
4833.4178
4551.8817
3863.3249
3492.6248
3136.3798
2886.9396
2779.5065
2847.9876
3005.7536
3176.7751
3398.1889
3584.4852
3823.3081
4043.2633
4432.5322
4709.0765
5361.4746
5837.4376
5743.9052
6520.574
7717.2098
9117.6
10563.486
12027.518
13780.647
15716.798
4621.4132
4810.824
3954.5702
3924.0867
4034.3563
4287.1638
5590.2937
1744.964
1660.8681
1225.4113
1251.6723
1318.6114
1617.0129
2272.6621
693.8693
300.3521
-18.160831
124.03217
47.719836
319.95758
759.21208
502.24709
92.736974
-56.862668
-80.448984
15.682125
425.10803
1020.2964
960.13469
486.21402
277.82287
264.62367
369.11635
788.60872
1322.8563
3130.9557
1995.148
1688.4332
1491.1621
1589.7963
2037.8186
3317.8539
5678.4116
5467.9248
4421.4569
4497.7771
4500.7265
5015.4206
6739.1573
15080.294
13203.761
14095.836
15118.273
15049.074
15921.15
15935.01
15461.331
15757.398
14482.33
14055.04
15452.765
15634.982
16543.737
14344.493
14685.449
15071.973
14922.005
14879.612
14958.517
15837.058
16004.211
17202.223
16970.78
17163.471
17226.927
17272.398
16249.212
15719.501
16163.752
16844.569
16842.891
16738.99
16363.364
16361.44
16649.686
16836.75
17126.53
17302.044
17129.643
16941.038
16457.242
16328.151
16540.73
17194.382
17090.835
17101.86
16977.846
16852.605
16512.905
16489.677
16733.345
16698.559
16567.104
16363.576
16147.561
16143.295
16082.719
16405.989
16382.15
16428.351
16195.957
16368.904
15854.884
15736.809
15812.924
16051.543
15734.472
15510.684
15678.377
15457.483
15351.519
15679.932
15299.331
15386.873
15005.54
15400.86
15006.073
14804.152
14765.469
14905.445
14754.786
14196.283
15060.157
14430.616
14020.193
14422.024
13980.58
14053.627
13770.721
14472.997
13567.428
13300.476
13577.557
13212.923
13585.158
12756.245
13834.821
12825.226
12422.184
12684.887
12391.968
12430.698
12020.322
12845.81
11778.6
11256.314
11843.437
11255.904
11716.502
11046.875
11924.361
10668.144
10402.049
10791.68
10332.048
10678.237
10046.529
10828.978
9689.0142
9296.3844
9907.6842
9354.0788
9816.2585
9172.0212
9913.8279
8695.3297
8447.2542
9038.0243
8430.1094
8918.7381
8248.3516
9044.7439
7859.5921
7596.9198
8210.1103
7629.8722
8130.2192
7500.8455
8287.7491
7148.3661
6892.622
7512.0917
6864.6488
7363.4439
6718.5211
7608.816
6559.0262
6317.8885
6879.318
6284.6107
6761.6173
6175.9811
7108.0999
6187.4114
5943.7981
6443.3272
5893.1998
6316.7423
5799.8453
6815.4062
6012.9044
5837.1267
6223.3925
5771.6273
6086.4308
5594.6186
6630.6981
6034.6682
5983.663
5977.101
5915.6675
5948.465
5677.0575
6737.7267
6341.1277
6142.5256
6106.0205
6133.441
6011.8435
5902.6233
6810.338
6729.113
6457.7382
6414.9593
6341.9541
6637.5149
6152.7636
6945.208
7278.6527
6696.3602
6946.064
6526.223
6714.5513
6163.4072
7117.7911
7389.0398
7170.9233
7050.7417
7077.8234
7118.8304
6854.2645
7402.1455
7964.2437
7465.8256
7798.5597
7532.7714
7698.3581
7306.3388
7806.1105
8368.866
8276.9861
8349.1634
8244.9611
8320.7827
8040.1751
8434.0234
9207.2941
8954.9625
9173.4798
9026.6038
9119.4107
8881.7535
9254.6295
9964.7528
9856.6026
9983.5709
9862.7033
9916.7352
9727.1211
10114.777
10889.982
10707.515
10807.603
10684.276
10693.384
10558.481
11009.037
11704.322
11516.116
11533.736
11444.308
11423.481
11347.188
11752.422
12553.282
12276.644
12290.877
12166.203
12098.956
12391.24
12586.168
13220.958
12783.01
12876.518
12762.677
12868.589
12111.078
12828.445
13376.455
12864.632
12827.334
12892.714
12650.459
13338.967
13593.946
14199.868
13886.517
13988.308
13760.891
13742.189
13684.507
14392.093
14734.115
14358.52
14248.075
14260.201
14110.556
14137.835
14626.217
14891.447
14488.013
14573.7
14472.315
14444.617
14408.283
14776.231
15007.435
14701.016
14727.571
14738.469
14667.809
14666.372
14995.217
14988.444
14808.856
14946.471
14928.433
14873.374
14939.457
15121.115
14986.271
14925.391
14977.566
14989.5
14972.927
15059.596
15173.238
14956.953
14924.549
14988.219
15044.259
15035.479
15154.85
15192.201
14812.661
14800.077
14813.352
14857.939
14882.547
14980.755
14978.865
14535.916
14554.594
14550.675
14628.579
14704.123
14735.194
14842.88
14925.71
15337.055
15403.393
15485.45
15463.849
15386.829
15329.636
11705.016
12445.925
12439.932
12486.832
12481.725
12664.789
12111.336
12874.741
13149.11
13294.944
13372.825
13405.114
13447.854
12935.045
13897.268
14210.211
14277.84
14362.89
14346.804
14477.633
13820.073
15568.544
16514.72
16242.627
16244.568
16400.835
16281.915
15832.915
16447.156
16593.906
16575.58
16718.232
16449.096
16847.584
16155.506
15928.084
16379.308
16471.729
16497.552
16811.106
16634.259
16534.522
14680.952
13074.928
12461.135
12198.345
12331.759
12791.66
13363.322
14921.972
13692.97
13877.947
13813.117
13878.735
14116.863
14745.511
16127.43
16272.249
15999.261
15804.509
16146.941
15840.957
16203.593
16221.984
16470.294
16500.074
16613.58
16420.403
16168.117
16507.482
16918.355
16983.487
17191.038
17038.035
17091.244
16737.33
16739.412
16679.11
16860.522
16872.192
16849.409
16858.893
16533.137
16871.894
17053.227
16939.288
16996.572
16812.143
16920.28
16846.228
16991.465
16692.413
16619.013
16662.07
16540.793
16561.222
16395.135
16738.195
16600.997
16414.613
16474.667
16272.29
16451.543
16092.533
16820.489
16159.467
15991.487
15997.329
15823.169
15909.076
15715.849
16357.029
15759.265
15607.098
15701.75
15440.898
15669.65
15362.895
16064.954
15443.392
15183.379
15126.089
15084.213
15099.654
15006.28
15559.162
14866.913
14595.016
14685.876
14405.543
14610.187
14339.392
15312.853
14394.824
14109.31
13986.793
13904.585
14078.34
14156.981
14740.668
13673.252
13272.872
13372.44
13277.225
13510.147
12930.934
14153.95
12762.164
12499.119
12585.431
12277.23
12612.111
12409.487
13187.669
11904.48
11735.522
11692.474
11621.11
11752.509
11463.518
12279.762
11034.87
10793.65
10926.24
10674.315
10882.88
10619.471
11298.918
10088.542
9964.5407
10018.403
9809.3505
10038.58
9708.7812
10351.139
9237.4427
9088.2309
9164.3541
8959.0398
9151.7339
8820.03
9432.9081
8344.8332
8220.5038
8309.2693
8067.8095
8284.1802
7941.2501
8540.6291
7494.3014
7381.2432
7443.4348
7235.7318
7448.7099
7095.8408
7736.4112
6754.8808
6591.1246
6673.5863
6474.6022
6653.3212
6344.8245
7093.9421
6142.8522
5975.9369
6043.0982
5851.2074
6038.1783
5764.1984
6587.4093
5710.7188
5488.3466
5531.2143
5371.1878
5528.6641
5259.5117
6225.5437
5406.9822
5059.6537
5181.2922
4975.5378
5169.5022
4920.8659
5939.6488
5039.05
4679.8488
4776.9985
4606.4107
4801.3684
4506.0516
5529.1518
4632.3882
4262.3883
4390.3015
4219.6624
4463.9598
4161.3641
5118.2359
4111.7292
3819.4259
3953.3502
3770.1311
4048.0279
3672.6304
4571.0468
3620.2922
3386.839
3493.1872
3338.7519
3617.4275
3262.477
4090.5899
3171.8156
2972.2136
3088.2997
2927.7588
3230.3385
2859.8926
3647.5838
2822.8944
2652.0333
2747.8438
2595.2329
2895.5669
2526.4098
3331.0545
2567.2386
2392.9606
2480.1809
2339.7664
2604.9647
2269.1216
3103.2491
2394.5222
2220.7267
2292.3693
2153.2332
2392.8483
2130.6131
3070.0888
2350.3482
2143.406
2190.7607
2123.9013
2229.5551
2135.1407
2907.9478
2429.2591
2175.9287
2271.2954
2074.5871
2260.4342
2032.1996
2756.7803
2363.6202
2112.0853
2059.754
2084.7353
2267.0814
2148.1858
3896.0653
3003.0634
2724.3528
2755.7233
2679.4834
2803.7895
2846.0992
3716.7214
3553.2853
3295.9361
3310.4649
3294.5318
3330.1998
3290.0973
4413.9292
4230.1824
3969.5542
3957.6094
4022.5676
3952.6348
3996.2244
4913.1915
4950.6595
4735.7005
4773.7715
4779.5749
4780.2706
4781.7853
5573.3979
5762.6965
5646.0167
5642.3869
5673.083
5676.331
5677.6854
6418.42
7013.702
6965.8078
6923.7864
6997.8035
6954.9572
6953.1657
7478.089
8049.2235
7964.553
7989.8544
7986.5602
7993.5751
8031.9322
8636.9183
9848.5796
9917.6774
9858.8825
9907.6817
9907.4907
9996.3284
10363.848
11127.412
11089.864
11079.146
11092.162
11108.642
11110.56
11307.197
14214.288
14233.914
14159.003
14202.307
14197.54
14262.135
14273.965
15835.557
12339.285
11546.94
12068.505
13051.242
13080.885
13524.912
13506.109
13555.359
13541.786
13323.856
12892.088
12438.884
11929.189
11296.516
10946.443
10319.441
9712.3584
9169.0055
8617.7651
8106.1243
7623.1355
7117.2499
6584.2044
6083.2541
5657.4925
5473.1665
5470.5891
5705.8448
6111.8116
6594.862
7144.2537
7706.4743
8189.8984
8768.6603
9026.7677
9573.5348
10044.438
10503.743
11050.689
11837.009
12637.558
13461.623
14259.011
14979.546
15393.864
17048.295
7370.5401
7575.6994
6241.167
6573.2816
7089.7886
6804.7021
7272.059
7268.8664
7451.707
7372.5938
7436.325
7279.6345
7292.1406
7146.9794
6949.1466
6829.3063
6485.7961
6160.6941
5913.9046
5600.5099
5364.3113
5143.333
4937.3688
4818.6465
4750.0997
4614.7164
4971.9378
5332.1993
5653.6141
5976.6505
6391.3766
6870.3324
7334.518
7889.4542
8318.6662
8662.0103
9132.3938
9509.2718
9956.5926
10297.606
10765.494
11147.286
11629.491
11986.577
12631.608
12510.847
15387.218
2648.6905
2665.6103
2198.5435
2406.3176
2322.2845
1789.148
2377.0272
1973.0154
2265.3011
2159.5447
2199.5852
2236.4742
2217.4041
2311.471
2354.6013
2264.8442
2225.3852
2123.3565
2094.8649
2011.9562
2021.2582
1991.3792
1991.7399
1915.2516
1950.3884
1912.9265
2051.6759
2085.7339
2252.8359
2437.4013
2681.0527
2936.3394
3273.8226
3594.248
3889.9267
4324.2859
4715.1307
5192.0987
5759.7867
6434.9411
7225.8945
8128.5774
8995.8745
10099.4
11123.452
12127.841
14614.994
1198.6225
1152.847
166.67949
1199.4611
235.39116
946.93685
188.73607
517.34027
574.02098
337.60332
677.89437
356.07298
631.93238
987.8089
1088.0013
1241.3729
1322.4712
1428.9736
1578.0644
1712.9923
1842.5656
1973.2744
2014.7829
2122.4868
2153.6973
2275.5215
2375.4762
2470.0619
2633.8711
2805.9171
3028.0345
3295.2165
3610.3901
3904.2747
4294.7917
4671.5433
5019.2239
5471.1038
5994.9119
6560.9647
7272.6858
7990.7937
9005.3998
9897.7482
11316.661
11945.862
14734.842
2578.3054
893.12149
1101.7816
757.05915
891.47166
785.17176
921.14847
955.32557
730.53188
1018.6441
699.90307
918.73464
897.47772
818.42827
921.5903
914.81889
1029.5383
1070.7442
1202.4472
1293.5502
1445.9619
1535.0033
1628.6214
1595.4231
1583.5798
1519.7393
1389.4391
1450.9185
1504.7323
1587.9264
1738.4308
1948.6131
2201.8933
2538.9728
2904.8159
3250.0858
3726.492
4212.5732
4796.3328
5586.4367
6400.7816
7590.0242
8719.6225
10210.43
11645.726
13149.443
15049.321
4938.7985
4759.6959
3357.2789
4706.521
3716.2097
4768.5129
4510.2441
4535.0937
4995.7875
4814.8333
5420.7155
5118.3587
4950.6595
4805.5959
4550.5805
4357.8394
4114.6441
3952.5989
3788.0713
3662.1476
3535.2654
3444.6873
3366.5973
3229.8769
3276.3122
3033.6951
3338.5784
3424.6784
3618.048
3838.7769
4151.6717
4471.3022
4847.8608
5335.0675
5762.7492
6330.6919
6896.0355
7417.8585
8197.904
8747.6459
9660.0806
10413.118
11402.016
12287.707
13533.984
14238.76
15890.409
12829.17
8796.7718
10189.562
9727.6381
11004.592
10935.68
11111.921
11460.024
11050.821
10936.958
10746.915
10455.998
9636.8968
9205.5711
8722.937
8261.8646
7889.7036
7367.1953
6891.531
6354.3931
5820.3417
5206.8783
4619.8322
3901.8398
3436.6767
2988.3174
2771.3843
2794.6933
2899.0354
3110.7617
3250.7125
3421.713
3609.3375
3911.8067
4153.627
4865.7538
5130.0257
5817.767
6372.2764
7572.1069
8612.9767
9901.1189
11198.616
12544.856
13834.892
15087.186
16436.842
11768.656
9892.7727
9473.4319
9211.262
9370.7888
9431.5086
10076.036
11199.233
11556.758
10729.433
10639.366
10529.688
10861.558
11251.002
11046.825
11594.484
11558.43
11377.922
11398.845
11438.512
11553.616
11449.989
11786.475
11848.376
11902.001
11770.99
11733.742
11408.843
11691.3
12156.524
12419.701
12376.64
12371.059
12291.964
12073.452
11919.807
12151.735
12193.92
12306.732
12160.241
12104.008
12019.863
12121.725
12334.499
12460.041
12392.366
12364.031
12399.438
12284.88
12104.267
12256.803
12230.777
12331.995
12267.252
12171.301
12219.914
12197.517
12366.622
12273.934
12359.591
12217.238
12343.062
12333.122
12046.401
12142.304
12116.394
12107.203
12084.897
12125.915
12168.314
11885.04
12041.109
11976.921
12003.816
11987.347
12007.442
12131.783
11629.957
11682.619
11694.221
11691.394
11663.99
11733.214
11850.112
11317.446
11367.664
11333.97
11339.062
11382.079
11337.563
11465.296
10837.486
10870.36
10938.454
10940.248
10955.956
10898.518
11204.971
10391.136
10480.453
10342.215
10464.296
10410.16
10600.199
10554.628
9883.2264
9941.7263
9931.0252
10006.406
9960.8262
9951.1951
10051.812
9298.2852
9368.3383
9360.5477
9421.902
9424.0342
9459.9032
9608.6003
8746.2231
8829.6702
8815.2008
8865.2192
8871.955
8935.4079
8973.3771
8192.8423
8257.6738
8224.8392
8276.2309
8318.2877
8326.9567
8403.466
7662.1562
7735.0425
7685.0896
7744.7997
7740.0298
7776.7371
7851.1269
7206.2913
7241.9251
7196.1568
7222.2565
7247.4423
7283.7489
7347.3675
6801.0402
6824.1791
6788.7958
6817.6269
6830.5711
6855.2871
6926.7199
6454.1188
6443.8082
6461.5041
6452.5265
6470.1063
6459.1029
6575.7906
6118.6368
6070.6059
6145.5286
6134.4757
6137.3308
6138.4747
6254.8504
5800.5192
5687.9887
5805.8751
5796.0416
5805.8048
5740.4105
5922.0549
5519.0637
5360.9947
5525.8461
5506.2028
5514.248
5449.4386
5621.8199
5322.4185
5099.3991
5276.8127
5279.996
5294.4302
5215.7389
5447.0861
5276.0799
5047.6698
5233.979
5207.4068
5237.1351
5098.9869
5350.4688
5339.2517
5073.109
5315.1578
5289.3165
5288.567
5156.0454
5431.1541
5540.6652
5326.9405
5529.1026
5494.3295
5495.0522
5369.6174
5657.3779
5830.7488
5643.1817
5842.7422
5824.9754
5797.1155
5672.4136
5964.4745
6193.9783
6057.5934
6220.9318
6207.7879
6148.9339
6050.4702
6360.7976
6627.0086
6518.7229
6659.4142
6661.3364
6579.3032
6517.1217
6861.2352
7111.0887
7032.2449
7147.0459
7157.588
7086.2693
7070.6861
7326.4544
7632.9066
7558.4832
7658.1202
7675.9634
7606.6357
7479.1347
7852.5728
8152.8305
8063.5247
8154.0453
8192.4676
8092.4202
8183.5022
8434.2906
8693.1745
8476.5549
8702.2463
8656.2339
8759.195
8514.7828
9412.8309
9184.0668
9298.3575
9285.3694
9510.2725
9290.7821
9414.4689
9347.034
9746.8087
9632.6878
9748.9486
9838.9179
9740.0424
9676.9154
10132.915
10398.802
10312.004
10306.54
10452.677
10350.409
10391.608
10649.971
11129.107
10993.66
11035.924
11161.2
11104.647
11107.517
11379.816
11994.638
11960.031
11933.213
12077.247
11976.8
11996.154
12183.193
12844.716
12815.101
12796.013
12943.76
12857.472
12918.95
13029.718
13659.397
13653.927
13664.658
13783.991
13683.263
13781.966
13864.24
14735.464
14830.054
14799.379
14915.909
14847.456
14976.203
14861.664
15325.423
15347.325
15359.431
15481.262
15430.673
15457.684
15317.725
16644.841
16692.921
16698.229
16744.148
16677.351
16685.117
16716.29
5485.9349
4109.8434
3678.3936
3540.1192
3498.1197
3713.9032
4211.2743
5881.01
6179.7366
5703.0648
5762.4413
5766.7343
5977.6004
6217.2501
5784.6846
5870.0062
5858.8351
5719.8051
5805.6716
5633.4918
5856.092
5842.1969
6176.9733
6320.7968
6373.8877
6245.1812
6277.2812
5914.4602
5964.552
6118.4443
6358.7569
6196.3343
6340.4463
6112.5453
6126.0603
6083.8602
6258.1139
6161.256
6194.7924
6137.3084
6088.984
6064.5271
6125.8591
6227.8689
6354.6051
6300.5633
6329.7449
6294.5313
6172.9511
6258.9872
6369.2627
6264.5085
6231.3527
6225.9662
6185.3118
6207.7815
6277.9066
6339.5532
6316.5518
6264.9276
6249.1976
6292.9363
6281.7289
6305.0854
6327.8389
6278.085
6204.0887
6267.2172
6258.5045
6266.3665
6255.4348
6317.6061
6248.6196
6206.8733
6202.5264
6257.6304
6295.6371
6212.8509
6249.6695
6145.034
6109.8811
6097.7185
6161.0094
6212.9906
6083.1553
6131.5521
6032.6946
6075.9737
6023.2419
6143.0388
6174.9403
5950.5814
5967.0341
5920.2149
5837.2019
5893.1196
5917.4473
6060.2267
5776.7883
5768.268
5742.3029
5679.8733
5758.8082
5721.0358
5891.5577
5564.0938
5509.9037
5498.2624
5445.7405
5549.7749
5492.8992
5694.2061
5297.5932
5313.0958
5260.504
5219.1404
5271.8101
5287.7134
5490.2935
5067.7837
5062.4571
5007.2527
4978.0769
5053.6953
5037.371
5187.2932
4815.2572
4823.041
4755.5376
4742.9289
4798.2115
4770.8172
4966.4349
4604.954
4622.074
4544.2446
4533.9078
4572.4525
4570.5003
4744.1713
4396.5272
4443.9875
4354.1957
4329.5318
4391.7251
4390.6484
4531.1094
4224.792
4325.9582
4211.0813
4201.1023
4249.1635
4242.7117
4399.0241
4107.9924
4200.1887
4093.8517
4068.1606
4089.1694
4166.5256
4283.7973
4048.1369
4133.4248
4058.7398
3982.1516
4069.6375
4161.7453
4275.1911
4059.3998
4147.1168
4084.9566
3972.439
4088.6655
4135.015
4203.4251
4191.1682
4261.4983
4167.5324
4173.1482
4124.39
4211.2635
4399.5339
4340.7029
4443.1141
4369.9029
4237.4147
4395.9278
4525.8859
4560.9666
4723.3978
4451.4553
4521.5217
4564.6467
4589.7329
4726.3872
4708.291
4899.4137
4994.424
4946.3011
4869.0015
4896.1135
5094.5663
4988.2184
5308.3194
5355.6241
5299.7244
5302.2982
5306.6581
5510.1608
5377.1436
5765.4731
5840.3358
5791.089
5795.2469
5761.8766
6009.4622
5841.3192
6301.3195
6392.0592
6344.9031
6350.7731
6318.1552
6598.8749
6423.0052
6897.3185
6986.7827
6929.7232
6946.3326
6927.7142
7240.2548
6991.3738
7536.0276
7593.5348
7533.1485
7566.2681
7518.5854
7792.6329
7623.8134
8132.1548
8161.958
8122.7621
8148.6516
8093.6629
8530.8143
8344.2007
8769.9622
8754.2341
8686.1789
8763.1949
8727.7118
9047.8687
8847.1077
9393.7407
9279.9575
9245.6055
9346.7939
9127.8657
9703.6127
9336.6755
9994.5732
9789.5935
9752.8008
9887.8313
9811.8072
10194.586
9995.904
10627.224
10328.42
10389.448
10431.774
10356.203
10703.841
10542.399
11193.239
10808.369
10897.844
10943.543
10901.18
11221.654
11054.194
11815.412
11431.647
11549.498
11579.364
11498.457
11763.669
11565.439
12303.048
11928.344
12014.884
12053.954
11966.149
12211.167
12083.451
12957.387
12630.68
12714.794
12753.472
12680.345
12866.353
12674.961
13331.137
13051.333
13097.318
13134.455
13026.994
13148.879
13040.928
14117.304
13929.61
13915.375
13972.698
13923.038
14059.363
13843.168
14058.93
13782.493
13779.608
13808.036
13732.382
13693.139
13473.057
15202.448
15221.575
15057.189
15064.66
15038.345
15111.974
15175.163
2242.0137
1672.9792
1345.059
1259.8395
1179.0458
1373.1758
1467.3687
1930.3435
1985.728
1698.7366
1749.5812
1699.2843
1754.3072
1927.8673
2240.921
2122.1797
2020.3696
2007.1343
1929.172
1953.4821
2006.7212
1882.6784
2032.313
2271.5498
2338.8355
2246.4699
2291.9985
2023.0412
2241.7004
2325.1977
2291.3546
2209.6315
2173.7202
1982.9794
2193.4504
2060.2009
1852.3993
1892.241
2089.3338
1961.8193
1944.0182
1918.2315
2317.2302
2102.3289
2240.6955
2262.9284
2262.2132
2288.6059
2237.5492
2296.8261
1971.0193
1922.7544
1898.0276
1938.4616
1915.6813
1934.0233
2284.8388
1993.9214
2057.4647
2138.1087
2175.8582
2207.6742
2189.3062
2305.6798
1972.9134
1957.4745
1941.0344
1999.2522
2007.4294
2085.9722
2254.2201
1941.9966
1951.0725
1952.7435
2024.2773
2021.8755
2083.8086
2243.8615
1843.7826
1859.5714
1873.7676
2026.8839
2006.9232
2166.7538
2155.4384
1734.4872
1826.6492
1811.125
1936.741
1883.5962
2070.4289
2065.8719
1712.3515
1782.0878
1792.3632
1856.1033
1825.1218
1991.5868
1953.3312
1781.718
1735.9157
1775.8162
1752.5268
1789.4353
1991.221
1917.8786
1715.284
1716.1668
1766.6745
1702.7117
1747.2658
1970.244
1908.9029
1671.1197
1686.7606
1706.5015
1655.2089
1705.3338
1957.1568
1885.271
1623.9392
1636.0811
1676.8255
1619.9882
1663.5229
1917.7336
1890.0159
1596.2436
1614.3828
1642.9598
1579.3877
1632.0928
1936.6087
1914.2513
1590.4231
1611.9038
1644.2143
1582.2243
1644.8933
1923.0896
2000.1313
1626.4758
1649.2182
1671.4675
1631.4239
1663.2793
1973.6499
2096.8516
1695.8157
1717.1679
1733.4142
1681.5429
1711.0682
2044.862
2225.8022
1791.1822
1852.6449
1784.9039
1833.8909
1800.498
2171.2502
2403.2027
1927.7978
1970.9088
1949.4539
2001.6565
1857.1158
2233.0545
2595.426
2021.1472
2148.8792
2125.8146
2146.1587
1975.9013
2464.6076
2805.7011
2203.5877
2369.7743
2231.9837
2341.9672
2152.3637
2494.233
3158.3816
2424.7836
2579.8704
2513.8715
2618.4025
2353.7254
2816.4856
3474.4005
2763.1083
2858.1845
2828.8519
2938.6139
2602.6256
3116.3273
3898.0519
3182.8557
3321.9175
3210.5898
3355.7508
3002.0327
3520.1533
4406.3863
3574.347
3694.1967
3647.3623
3805.7592
3411.7105
3955.0163
4940.6212
4105.3551
4251.7209
4187.5556
4328.8483
3939.365
4497.3685
5537.2737
4665.8709
4780.9061
4703.437
4870.9318
4494.3348
5030.3993
6173.9237
5264.3588
5375.9675
5304.5047
5459.9793
5037.1523
5622.0888
6812.8178
5874.0437
5979.4225
5889.4125
6034.197
5703.3121
6261.0086
7468.4347
6516.3079
6606.0323
6494.8946
6676.4202
6258.0655
6750.394
8095.1041
7115.7166
7206.5618
7089.6978
7225.0752
6886.1976
7344.9482
8687.2216
7711.7309
7829.2565
7667.1419
7907.412
7447.903
7933.386
9212.4807
8291.8821
8432.6971
8290.8154
8438.6543
8087.2742
8380.3902
9756.5835
8965.261
9026.3769
8983.8412
9034.052
8720.6197
8974.3179
10310.826
9594.8431
9623.391
9622.1507
9645.6086
9439.2566
9497.0083
10844.731
10290.169
10273.936
10285.612
10298.458
10087.485
10079.664
11447.531
10968.593
10931.602
11007.402
10952.405
10900.921
10732.445
11980.39
11660.665
11603.182
11674.416
11633.674
11609.392
11326.269
12510.249
12244.693
12162.175
12305.226
12158.47
12261.82
11957.982
13206.457
13018.248
12941.702
13065.424
12933.369
13178.852
12730.368
13356.545
13207.361
13198.025
13298.608
13188.167
13338.539
12831.382
14304.892
14339.124
14193.95
14262.063
14221.743
14337.138
14316.081
1034.1353
737.04768
507.08576
468.46695
446.88451
520.82865
471.93345
654.72074
795.91614
722.71961
813.06749
779.9553
835.08205
850.65993
492.73064
309.11443
122.30084
128.42125
128.7462
179.20416
49.614911
583.13918
891.2913
1114.863
1203.9319
1219.2451
1176.205
1016.5747
513.86857
458.11615
197.0683
74.357407
43.770774
16.76764
111.70973
635.75774
765.69737
819.71432
947.43936
980.76216
1010.0309
854.24279
587.75109
534.20958
443.86707
432.39618
377.70982
277.80393
439.9607
741.75101
695.06323
631.94004
660.11537
599.68823
657.17427
589.82717
711.2658
698.46631
684.87893
606.03827
691.99323
560.64054
711.88203
773.9709
791.1756
593.05333
578.34289
499.78475
475.3768
483.95718
762.8065
723.73901
795.70534
670.31472
811.70294
690.47463
809.85607
780.67436
851.17016
721.28076
589.72207
651.77884
553.29219
643.83711
849.52949
821.83247
721.54993
732.01877
821.29984
656.37502
775.33687
821.31193
949.53582
703.10888
699.04552
765.50258
804.2991
753.76213
776.8757
860.98889
896.77406
727.54868
880.34715
800.79909
824.45071
824.93623
902.39721
941.74119
806.86081
904.07545
910.41867
897.73133
886.67865
960.09053
1050.0655
887.82786
1002.5353
993.38864
996.31945
998.82713
1053.7116
1154.975
993.56261
1094.36
1118.8499
1131.8826
1098.6056
1159.8235
1293.2271
1108.8205
1230.8496
1243.5044
1259.8595
1274.1223
1319.7064
1420.7483
1271.409
1372.7811
1389.6544
1421.2675
1440.763
1427.5378
1582.477
1417.2839
1495.944
1543.2116
1546.7694
1608.8769
1612.1567
1728.3514
1583.3892
1663.9294
1717.2482
1705.9967
1848.4159
1770.7915
1805.8112
1810.1743
1771.4814
1881.9573
1806.6467
2033.7143
1836.6874
2012.5799
1955.0438
1885.3529
2064.826
2013.8016
2223.2324
2001.0973
2226.1117
2031.5121
2022.3547
2245.9332
2080.9817
2499.4924
2216.5619
2359.0662
2290.2393
2222.5122
2449.5095
2352.7199
2695.958
2378.7774
2605.0985
2577.796
2426.6004
2724.3264
2496.7314
3000.3649
2658.5554
2946.4004
2823.5283
2740.2088
3024.9712
2765.0288
3374.2543
2960.27
3176.0196
3204.6443
2960.8325
3358.9573
3024.7749
3747.8077
3305.6773
3586.2156
3555.1446
3392.128
3784.2185
3389.3742
4193.2116
3772.6312
4004.9225
4009.0487
3780.1413
4215.96
3772.9857
4707.4783
4207.4405
4464.6458
4444.2547
4241.0622
4705.857
4212.4995
5206.6123
4697.4085
4953.2053
4958.3665
4755.2392
5238.0133
4699.9304
5755.8925
5199.4074
5453.4834
5440.715
5238.5829
5714.4241
5141.0388
6226.6913
5659.0629
5908.0901
5910.8993
5725.5644
6228.2378
5637.7429
6725.301
6150.9465
6376.7161
6402.6932
6242.7563
6682.3232
6122.4095
7184.0349
6599.0635
6829.8327
6892.475
6655.3634
7175.6674
6556.3125
7639.8589
7113.1764
7338.5871
7357.5964
7214.8294
7634.1577
7080.5652
8032.6829
7648.3527
7849.7214
7867.5142
7740.6907
8143.2492
7574.0419
8436.6825
8144.0877
8365.3538
8374.4963
8270.1369
8633.0458
8090.3533
9088.3239
8809.3428
9030.8844
9040.4135
8959.2904
9250.1656
8756.1355
9733.7603
9404.9268
9623.2891
9602.9981
9552.5474
9806.5792
9345.3602
10478.643
10230.329
10442.577
10409.689
10425.687
10567.513
10165.773
11225.336
10937.986
11130.019
11070.234
11056.686
11159.445
10818.328
12231.394
12103.906