/*--------------------------------*- C++ -*----------------------------------*\
  =========                 |
  \\      /  F ield         | OpenFOAM: The Open Source CFD Toolbox
   \\    /   O peration     | Website:  https://openfoam.org
    \\  /    A nd           | Version:  6
     \\/     M anipulation  |
\*---------------------------------------------------------------------------*/
FoamFile
{
    version     2.0;
    format      ascii;
    class       pointScalarField;
    location    "0.07";
    object      E;
}
// * * * * * * * * * * * * * * * * * * * * * * * * * * * * * * * * * * * * * //

dimensions      [1 -1 -2 0 0 0 0];

internalField   nonuniform List<scalar> 
3969
(
9421.6175
7193.213
18664.308
18769.495
9875.325
7369.8357
18601.828
18618.098
4305.3219
1615.3847
327.78052
-29.090939
494.66641
2022.1969
5152.8307
18864.723
18650.175
18626.06
18664.347
18766.954
18822.522
18819.634
8671.7457
6238.0608
5909.3967
5504.7726
5055.898
4592.2373
4076.5934
3612.03
3102.0723
2632.3421
2228.8981
1845.0754
1489.0125
1262.8649
1054.0365
943.44157
919.58005
1001.2397
1156.054
1379.3269
1673.839
2051.3223
2515.0517
3067.6263
3696.0716
4384.5545
5093.2214
5812.1626
6543.4855
7292.4931
8049.0139
8827.194
9628.5898
10453.582
11299.568
12108.983
12883.976
13549.526
14200.083
14675.182
15104.583
15458.197
15800.879
16196.307
16816.247
17182.287
17937.194
6767.6377
4383.6123
4962.1205
4243.3927
4083.9721
3521.5677
3197.0048
2730.1655
2391.182
1953.2729
1660.0043
1310.7888
1135.9133
967.25316
864.19193
837.42958
872.87822
914.31196
1052.9259
1216.3681
1479.5354
1852.3311
2343.0435
2960.4019
3707.9452
4479.3472
5426.3796
6217.7006
6961.1808
7637.0864
8198.1518
8764.8435
9333.1629
10003.355
10771.445
11633.91
12524.517
13414.28
14347.921
14988.481
15546.768
15960.907
16283.797
16558.868
16926.063
17311.585
17918.436
4874.5263
1984.481
377.84753
193.9449
383.46525
1594.4382
4495.2203
10373.008
7201.7657
3685.4764
5389.8852
3879.0774
3591.1349
3254.8606
2426.3783
2417.7144
1800.3816
1589.9254
1221.9166
1053.4272
725.61401
601.85875
445.55511
411.27259
476.33329
609.71016
855.19716
1207.1339
1677.339
2257.5076
2936.4126
3708.0122
4361.1353
4999.8943
5765.276
6397.7662
7056.4148
7747.6448
8505.4357
9350.9694
10282.381
11279.972
12222.75
12789.763
14222.45
14607.384
15168.778
15520.106
15740.052
15968.393
16239.608
16647.583
17183.093
17933.789
18780.578
18672.432
18815.482
18700.876
18714.752
18385.08
18812.681
18083.243
17333.148
16853.598
16428.718
16010.739
15629.772
15236.175
14805.261
14241.65
13712.923
12953.965
12031.85
11466.797
10639.099
9912.6678
9176.8884
8464.7535
7740.2437
6997.7327
6257.1232
5487.485
4765.2379
4027.335
3386.0371
2787.4179
2275.2504
1848.2185
1510.4405
1265.2312
1094.6604
1046.7874
1057.5346
1357.4812
1294.7096
1599.6354
2086.6537
2632.9653
3029.2131
3490.1543
3837.3657
4432.1758
4980.1306
5565.9947
5982.8408
6275.8084
6612.8647
10025.328
6438.4052
6866.1766
6727.8345
6783.7769
6767.6721
6643.649
7021.8376
4991.7255
5357.9035
5864.1197
6110.6486
5988.9789
6013.3119
4996.0882
18960.784
18968.871
18947.965
18892.716
18801.765
18796.916
18727.479
18737.521
18677.865
18699.963
18713.741
18670.189
18732.854
18755.441
5317.4777
3979.7569
3979.8172
3694.2913
3455.2572
3200.76
2885.3763
2602.8723
2304.555
2061.8341
1774.1572
1519.8844
1326.8299
1143.2461
1017.3181
995.09345
1036.4084
1140.6642
1324.8938
1572.1148
1888.0475
2269.9391
2717.3131
3232.3119
3810.6947
4449.7813
5175.6331
5990.3613
6882.7352
7832.7593
8783.2949
9686.8713
10513.028
11253.024
11936.622
12539.419
13134.505
13739.442
14293.152
14800.376
15303.691
15745.911
16143.394
16627.665
17043.533
17367.642
18033.572
2324.6556
1859.7886
2111.7569
1930.5709
1868.9349
1729.0016
1575.0336
1464.6827
1338.7641
1253.9284
1167.2705
1127.1581
1065.5458
1017.4209
993.82177
988.97024
999.88229
1068.9637
1202.2692
1403.7838
1675.1578
2033.6752
2495.5375
3042.0731
3655.7681
4368.6283
5114.5709
5894.732
6705.7826
7562.8157
8434.1006
9309.773
10165.165
10987.337
11763.293
12510.977
13215.179
13848.281
14435.088
14944.448
15371.237
15777.896
16080.005
16470.828
16914.035
17143.369
18023.106
799.57834
524.33013
830.21716
720.05392
743.98559
729.2713
717.87797
706.46212
707.83329
734.76021
767.55837
822.23823
847.2278
879.4066
886.73435
910.29162
956.46818
1040.3593
1172.6651
1368.8827
1642.3671
2018.7033
2467.1405
3005.5554
3645.1308
4308.6019
5002.7835
5756.0775
6568.233
7421.3878
8310.8533
9209.4588
10088.107
10924.429
11716.86
12451.702
13142.094
13786.917
14392.58
14917.189
15390.043
15780.104
16121.74
16475.033
16924.057
17180.776
18066.574
331.28396
154.90921
332.08342
333.57292
347.81103
340.30355
320.9362
349.54108
362.45282
418.8309
490.16934
557.48568
609.58216
657.74783
677.29244
707.29766
741.73285
815.26956
934.22233
1122.9645
1375.658
1697.8495
2113.9983
2637.2946
3218.5843
3879.1536
4609.4785
5373.7944
6163.4333
7000.347
7878.1617
8785.9434
9703.5847
10607.137
11480.635
12311.328
13088.651
13804.951
14431.304
14948.321
15367.843
15732.164
16033.875
16392.024
16850.682
17199.507
18060.365
765.66324
420.58908
533.31483
436.58003
377.1027
344.013
261.61416
258.66136
241.56106
288.94038
341.28596
403.4553
448.63034
500.76878
544.9789
599.24052
676.94532
795.86465
972.27094
1222.1655
1529.8286
2019.89
2466.8102
3042.4314
3660.0647
4329.9473
5006.4404
5735.9668
6511.5995
7345.4153
8211.8348
9100.3738
9974.2393
10813.218
11608.021
12344.232
13021.671
13659.807
14266.951
14711.36
15194.968
15625.898
16020.144
16437.666
16917.758
17354.095
18093.934
2175.0331
1753.2185
1739.3578
1650.1934
1581.3169
1456.4168
1341.3329
1219.6846
1133.9251
1022.4368
994.76966
915.94158
875.47036
840.37873
816.39649
811.69516
840.06147
917.87805
1060.9042
1257.2416
1557.7113
1892.4037
2495.0423
2982.2904
3594.4982
4192.9996
4878.9149
5596.437
6356.8985
7140.1499
7966.3326
8822.2004
9694.9946
10562.444
11421.611
12236.854
13019.139
13741.67
14364.462
15002.75
15377.423
15702.608
15995.943
16312.044
16771.504
17319.901
18046.335
3583.0095
2945.0616
2820.033
2683.3974
2431.6223
2208.9904
1884.2621
1649.6123
1386.9391
1135.0853
995.42904
755.1022
642.19694
573.37268
601.08693
698.95322
872.46418
1108.359
1375.5142
1701.0503
2044.1818
2465.2275
2825.5875
3353.2637
3968.8836
4650.7237
5466.3918
6349.2018
7294.161
8232.2974
9133.3937
9935.7221
10642.551
11246.528
11810.504
12364.381
12905.804
13464.049
14054.671
14676.898
15206.166
15720.532
16200.653
16640.086
17116.987
17580.145
18061.157
2636.0459
2897.9871
2508.8697
2529.7344
2561.8555
2621.6799
3198.9942
1025.5664
1040.0087
909.94308
935.93902
938.16528
1007.1666
1230.5314
188.71198
153.42086
73.545398
130.10047
98.60632
122.82239
232.43949
-81.501379
-102.96361
-99.857392
-87.266105
-93.611522
-44.877183
26.787553
129.82176
65.855338
49.609722
41.834447
65.931784
119.66343
187.31192
1119.1346
850.7464
782.76968
751.91134
773.00308
861.42881
1157.4488
2522.3651
2519.6977
2189.4499
2257.4706
2199.1338
2370.3206
3030.2995
8061.1781
7377.7832
8033.8588
8560.96
8515.4831
8834.3125
8385.0401
6876.244
7375.7434
6608.3431
6294.3768
7147.9887
7064.412
7259.7968
4921.6001
4928.2106
5263.2801
5215.0615
5042.4028
5007.3084
5462.7606
5101.9736
5602.7571
5398.5665
5426.115
5465.8378
5543.405
4944.3063
4355.2282
4315.4783
4590.9461
4514.2377
4451.3896
4213.5447
4430.5543
4006.3538
3943.4999
3939.2061
4011.4583
3876.2448
3995.3775
3721.9406
3511.2252
3422.1263
3678.2426
3572.0286
3482.8404
3511.631
3559.5465
3105.0457
2961.896
3033.6264
2939.9161
2884.7559
2820.1078
2781.3441
2728.1863
2553.3179
2572.5446
2531.9042
2619.4401
2484.311
2665.5331
2301.126
2130.4691
2153.7392
2227.4951
2066.6926
2024.4715
2118.227
1971.8551
1835.994
1983.9273
1758.6234
1834.9849
1617.062
1872.9225
1669.9457
1502.6429
1444.9863
1451.8992
1393.6904
1189.6079
1552.6842
1393.7584
1157.6324
1273.4666
1091.6157
1131.1809
1116.754
1322.7959
1105.7942
936.78042
1004.7716
844.28917
957.53511
709.35437
1085.2368
944.3954
782.54163
791.78671
725.72611
683.55723
670.27414
926.8883
819.9133
624.97121
727.77403
563.42037
634.08785
550.01076
794.01249
719.52999
639.24614
666.06262
575.13589
578.30789
566.92868
699.345
738.21354
663.76195
728.65694
634.95494
644.39517
639.2693
714.07607
794.45567
817.94473
857.76722
797.23912
769.61136
818.97179
811.07721
959.18464
1048.7799
1071.1161
1034.5677
1003.6478
1075.571
1008.1584
1230.4904
1381.5384
1372.6064
1377.7978
1313.984
1418.7111
1328.363
1612.4396
1812.6976
1776.9435
1814.6321
1727.122
1870.71
1775.9733
2132.795
2345.3571
2283.7141
2347.675
2237.3344
2417.7321
2342.1174
2780.3492
2954.1194
2904.7742
2963.9992
2842.914
3051.632
3000.4219
3538.1644
3617.7959
3618.0617
3559.3549
3554.6759
3731.2233
3757.7907
4315.3328
4347.9958
4352.2833
4316.9496
4346.6969
4358.0005
4419.465
5089.8085
5082.5045
5014.5479
4930.486
4997.4444
4984.5694
5099.9252
5725.2615
5736.3652
5557.9691
5652.8359
5569.8848
5691.0839
5664.3746
6321.1538
6287.5774
6247.0921
6212.5248
6237.9069
6324.9898
6204.4568
6800.2032
6922.8255
6803.8168
6850.3867
6835.8518
6947.805
6712.1511
7329.283
7500.1329
7463.588
7486.7215
7485.9269
7621.7976
7285.2843
7903.3294
8204.0934
8159.3368
8200.0637
8200.0138
8348.5097
7975.4902
8643.0457
8982.6209
8955.2694
8999.2589
9008.4528
9156.1617
8815.8647
9533.319
9875.4469
9842.7675
9883.4104
9891.8895
10024.016
9803.1942
10559.589
10835.625
10788.705
10821.904
10852.899
10998.605
10914.401
11633.233
11812.467
11748.327
11795.08
11819.431
11902.087
11802.841
12829.523
12811.388
12716.774
12722.804
12653.288
12906.886
12939.502
13828.011
13601.855
13546.392
13512.415
13600.029
13363.272
13923.117
14485.164
14236.855
14176.099
14161.688
14190.198
14276.535
14707.097
15100.883
14838.384
14774.058
14711.918
14786.349
14756.197
15096.071
15525.779
15240.816
15158.66
15135.434
15152.308
15150.227
15455.194
15764.689
15543.963
15490.139
15472.833
15462.751
15511.872
15652.633
15967.783
15851.391
15814.005
15814.04
15775.996
15844.486
15838.832
16210.712
16211.237
16184.486
16188.353
16127.949
16217.838
16102.879
16603.413
16699.991
16688.163
16698.62
16628.405
16708.075
16521.902
17124.109
17288.37
17283.767
17271.302
17216.551
17258.296
17116.4
17980.795
18133.372
18097.958
18069.167
18035.984
17994.421
17885.865
18850.363
18797.625
18763.738
18752.951
18740.419
18762.755
18798.782
18262.784
18449.456
18399.391
18378.585
18350.153
18403.605
18380.351
18669.565
18702.559
18658.006
18655.4
18595.703
18617.034
18643.183
18759.048
18811.038
18747.296
18702.285
18667.942
18662.122
18657.104
18871.856
18898.922
18801.271
18758.611
18746.644
18738.924
18758.989
18960.55
19023.414
18889.137
18900.157
18793.892
18819.864
18796.468
19006.057
18884.749
18864.107
18819.034
18783.301
18725.819
18742.265
8122.8532
7585.9372
7164.2873
6970.9914
7134.0664
7328.9659
7428.0177
7152.1678
6688.3274
6685.146
6622.3699
6724.2232
6735.2886
7056.2423
6722.2162
6916.0465
6827.2335
6737.4256
6912.5934
6663.2493
6818.9793
6055.9912
6147.7575
6227.2728
6293.0358
6223.2606
6097.3875
6173.5313
5564.0315
5625.7271
5723.7771
5665.7615
5755.2083
5546.4755
5601.6285
4946.6203
4971.8228
5031.5002
5009.0938
5071.747
4887.157
5105.4458
4440.3355
4404.8538
4470.826
4499.438
4508.2577
4458.603
4549.4413
3934.2312
3884.121
3910.9311
3904.6143
3901.5714
3851.4094
4049.4096
3409.2761
3355.5679
3427.4515
3357.6968
3490.2612
3245.0177
3661.9072
2935.3625
2906.5387
2936.2217
2909.1124
2937.1943
2863.9202
3131.73
2544.9488
2464.3492
2528.4108
2447.2387
2583.7613
2390.8021
2732.2492
2191.521
2054.9448
2056.6288
2100.9968
2092.1827
2061.1308
2266.8245
1744.1506
1638.1611
1687.5585
1612.9032
1771.8982
1612.4884
2117.5199
1587.326
1413.0685
1330.5898
1411.5699
1445.3556
1499.7227
1694.6865
1289.039
1081.0989
1215.3524
1193.3485
1257.9202
1004.3593
1538.2072
1088.2601
1036.8879
1025.9603
1013.6358
1071.4561
1178.722
1283.6484
1125.5749
1046.6449
1016.5202
1064.881
1021.6425
1071.7262
1242.66
1159.9862
1104.1353
1087.0204
1130.8978
1068.5607
1180.9709
1233.6264
1270.8211
1261.7851
1234.472
1295.3174
1212.4176
1344.9648
1329.5045
1461.7585
1502.955
1468.2727
1548.0468
1434.6172
1587.6066
1533.8865
1735.3189
1818.8411
1784.1495
1870.0108
1736.7545
1904.9987
1828.7106
2089.9133
2209.9284
2172.0143
2262.8677
2121.0526
2292.3276
2234.4258
2550.8674
2686.3656
2642.7144
2738.0668
2591.924
2757.7169
2737.614
3114.2595
3230.934
3187.1989
3287.3663
3126.0896
3308.749
3347.7301
3765.9235
3864.6644
3821.9697
3901.167
3741.4991
3954.5774
3998.966
4466.674
4543.7335
4473.1931
4557.8728
4415.8748
4635.6122
4661.5624
5168.049
5223.837
5145.2879
5238.207
5079.9876
5313.8527
5303.3963
5819.687
5883.0198
5801.7922
5881.7266
5716.4907
6020.0623
5887.7086
6423.5939
6504.5794
6414.6583
6504.8049
6317.0891
6661.6364
6417.746
7002.296
7115.6026
7017.9054
7102.0363
6888.9837
7293.5489
6954.4765
7603.0453
7736.9559
7637.0136
7718.7177
7490.0601
7924.7435
7555.566
8283.0975
8420.4642
8321.6563
8386.5847
8161.0919
8597.2224
8271.4229
9065.3281
9185.8632
9089.782
9133.5845
8933.7037
9322.8607
9109.8011
9956.3242
10033.713
9938.4309
9952.7979
9800.6728
10109.02
10049.737
10905.658
10927.207
10845.212
10830.581
10762.996
10958.872
11104.409
11843.295
11814.995
11733.601
11722.139
11689.898
11882.172
12032.298
12820.105
12764.397
12640.286
12627.055
12578.698
12619.221
12911.283
13612.629
13455.803
13423.936
13287.487
13419.893
13271.299
13794.07
14242.349
14053.792
14002.949
13928.417
14048.519
13987.679
14375.216
14761.108
14555.11
14550.528
14455.513
14584.318
14508.367
14807.558
15153.819
14964.687
14943.419
14870.491
14967.137
14952.034
15133.756
15452.913
15311.159
15305.528
15277.748
15316.799
15367.968
15376.159
15767.633
15680.37
15666.041
15635.033
15608.409
15712.447
15636.047
16068.926
16003.101
16003.554
16012.903
15971.152
16137.798
16014.398
16662.807
16740.363
16701.498
16710.631
16615.646
16752.647
16571.61
17040.319
17009.14
17006.032
16994.066
16986.333
17104.683
17041.96
18078.777
18115.854
18106.144
18085.472
18083.796
18054.952
18030.428
8953.178
6001.1228
5121.6995
4716.0471
4548.5236
4099.2625
3746.9729
3414.6648
2996.9663
2666.7961
2315.0557
1908.5852
1625.8385
1315.8062
1173.1966
1153.8723
1215.4809
1331.5462
1590.4487
1877.5048
2244.1402
2661.6955
3134.7252
3679.6089
4283.1207
5022.9824
5871.5308
6816.9805
7811.6406
8782.8605
9677.8349
10426.485
11052.74
11586.509
12030.454
12670.284
13116.271
13650.173
14173.232
14811.499
15382.921
15934.309
16429.353
16859.012
17245.139
17637.353
18171.945
3934.7822
3930.4
2861.1893
2898.8893
2883.5484
2495.5002
2489.5771
2272.2404
2107.2307
2019.1763
1884.8928
1822.5269
1790.1613
1745.2051
1723.0807
1695.2409
1634.4063
1611.4816
1663.2847
1744.6076
1939.6896
2232.7713
2646.1879
3199.7631
3812.0789
4629.2313
5294.2142
6057.9296
6733.5506
7358.512
7940.784
8557.6744
9243.6735
10030.141
10900.76
11886.103
12781.602
13761.132
14605.274
15295.753
15775.602
16100.651
16281.044
16443.82
16669.988
16845.747
17966.075
1256.6367
1430.5645
1079.0327
1310.376
1048.4762
920.63866
963.53631
824.15779
848.17139
807.50267
817.107
858.82819
884.81194
819.45286
875.13596
851.39194
886.94603
950.57378
1065.1786
1267.6685
1566.5009
1976.8725
2481.2447
3095.4154
3777.4108
4528.2814
5275.6016
6049.2985
6782.9167
7513.4977
8230.3218
8975.2964
9747.7046
10541.006
11356.041
12134.978
12924.006
13616.169
14234.568
14731.779
15152.144
15468.534
15796.57
16112.788
16565.743
17000.7
17990.11
322.15099
503.11939
378.2841
710.2551
414.31645
551.60613
329.90478
495.40028
490.70311
545.7493
678.71186
729.64609
846.49571
1122.1073
1138.2188
1160.2704
1186.4292
1204.8512
1287.1589
1434.7806
1663.338
1988.0529
2405.9602
2930.9929
3542.8657
4187.7818
4839.2264
5552.2127
6238.3595
6974.4153
7716.6583
8497.8239
9309.7652
10146.549
10995.055
11841.623
12667.987
13453.321
14166.013
14792.861
15306.355
15729.455
16069.765
16411.18
16803.164
17152.471
18018.291
554.51377
268.22383
482.81626
377.86316
450.88038
358.78906
406.34884
426.13607
361.38851
516.84435
519.66596
663.48474
784.3632
829.90759
912.93278
961.01671
1017.9496
1103.7819
1239.6276
1453.4285
1755.1424
2159.3445
2638.7325
3237.002
3840.2682
4533.6796
5330.2293
6045.8191
6765.8845
7476.2218
8166.8222
8881.6976
9623.655
10388.182
11183.324
11996.219
12782.864
13540.806
14247.988
14829.201
15318.333
15692.044
16020.31
16328.037
16725.872
17117.401
18003.191
1553.1574
1603.0817
1083.3924
1506.5025
1084.671
1227.4836
1122.9572
994.02796
1094.5218
914.02865
1005.4385
1002.6981
940.5878
977.48953
955.19651
930.53063
944.24771
985.90585
1085.0444
1267.6471
1539.5027
1911.5196
2376.1434
2972.54
3658.1062
4455.9423
5047.608
5785.0829
6489.4481
7198.538
7916.0079
8668.5644
9458.9185
10266.478
11129.772
11972.089
12790.386
13643.869
14309.198
14921.703
15398.494
15767.616
16079.2
16388.459
16782.334
17264.453
17993.514
4884.6426
2647.1349
3204.6855
2422.0023
2660.668
2230.6986
2008.635
1838.6429
1479.3126
1276.5799
859.73662
852.06749
680.07246
742.97573
781.90708
1005.6708
1223.6789
1485.5562
1770.4485
2072.4571
2404.3901
2789.8327
3247.9992
3827.3508
4530.7983
5135.9741
6074.1321
7043.8475
7970.3639
8811.3246
9503.094
10054.596
10510.02
10898.982
11382.623
11927.999
12561.63
13130.337
13938.287
14678.388
15351.832
15938.509
16401.12
16778.756
17104.802
17489.022
17912.495
6755.3803
5854.8452
5791.3017
5672.592
5737.6584
5703.2608
5879.5215
5622.7647
5843.3008
5547.1443
5509.6787
5459.8111
5533.1389
5642.1142
4885.3154
5302.247
5340.8267
5264.242
5264.8591
5241.1254
5242.8969
4526.5519
4730.6241
4839.8205
4881.2572
4835.3669
4781.0534
4622.9125
4090.8553
4291.1916
4445.2494
4443.351
4452.7474
4390.3878
4305.9245
3750.5805
3852.9916
3933.5715
4017.5389
3954.0623
3949.4688
3902.6857
3392.9725
3463.2343
3559.495
3520.1264
3563.2954
3531.7799
3510.154
3037.8284
3113.5794
3152.5291
3224.0499
3207.7792
3162.7739
3197.6877
2738.9688
2791.502
2839.1451
2858.0112
2832.2165
2882.0994
2843.9629
2404.2699
2460.2519
2500.4901
2521.3365
2537.6739
2532.9142
2513.9519
2104.8057
2148.6146
2203.7471
2227.0004
2235.8496
2241.6413
2242.8477
1832.4725
1849.011
1909.4665
1914.5609
1933.1433
1930.7392
1921.2908
1614.2397
1602.6394
1656.5001
1676.3
1690.291
1651.6927
1661.0109
1407.5011
1388.3067
1439.0762
1473.6829
1458.4616
1437.1789
1476.617
1307.2909
1284.8274
1284.0795
1334.6944
1318.3144
1356.747
1236.9327
1254.156
1208.5312
1256.0079
1307.7524
1263.4783
1266.4674
1158.8763
1257.8494
1220.2982
1270.8992
1326.5845
1288.2779
1290.5612
1199.9704
1363.6133
1335.2409
1394.016
1452.4134
1412.1703
1443.0126
1271.5055
1541.739
1543.9933
1594.8223
1642.2496
1610.091
1628.6253
1442.2511
1788.9239
1834.3256
1878.505
1921.2035
1887.0437
1905.179
1704.2685
2110.0725
2197.4243
2229.2388
2257.8834
2229.9357
2252.1034
2032.1586
2504.6614
2629.9052
2645.2357
2665.9802
2650.6226
2665.0995
2450.8529
2976.1054
3117.5664
3119.4455
3139.3266
3128.7243
3145.8993
2942.2757
3516.8334
3653.0653
3646.2147
3661.968
3661.3973
3682.3887
3501.3097
4127.9858
4242.8441
4231.7786
4239.2771
4258.7919
4298.1532
4113.8906
4804.6601
4881.3061
4861.1103
4885.3207
4924.9486
4952.6801
4790.8772
5530.6844
5595.9846
5571.6513
5599.8461
5628.4768
5654.8635
5555.0199
6319.0735
6386.47
6355.8657
6357.191
6406.3292
6465.2948
6352.3279
7137.8353
7221.4209
7195.6604
7195.9542
7253.0557
7313.704
7227.1184
7964.8756
8089.4614
8061.8297
8041.7996
8103.8004
8180.8549
8095.6223
8781.2614
8949.1576
8912.2768
8876.8503
8946.1225
9028.3819
8977.0381
9564.3044
9755.2388
9706.3678
9655.9169
9727.4842
9814.9953
9796.3019
10311.98
10499.883
10433.581
10375.158
10453.18
10540.719
10560.558
11029.528
11179.929
11096.782
11038.839
11110.942
11182.112
11258.594
11728.603
11813.16
11712.339
11659.024
11726.564
11826.642
11937.641
12387.203
12394.537
12306.266
12260.136
12324.918
12352.941
12448.951
13065.342
13017.751
12872.194
12835.85
12868.873
12962.471
13078.255
13702.087
13491.576
13415.6
13380.973
13428.828
13504.985
13743.962
14270.181
14046.991
13961.924
13954.495
13993.526
14045.447
14225.693
14813.267
14580.665
14516.258
14492.97
14502.143
14561.851
14722.576
15294.885
15075.046
15020.727
14994.234
15007.944
15058.157
15188.248
15734.873
15555.207
15520.277
15498.404
15496.507
15546.355
15634.974
16133.003
16005.139
15988.234
15945.015
15945.399
16001.344
16074.454
16585.835
16556.758
16537.905
16504.31
16509.687
16553.937
16559.043
16992.959
17009.726
16987.182
16947.543
16964.257
16990.731
17014.976
17491.939
17526.612
17512.386
17497.224
17494.357
17493.579
17502.345
18196.561
18197.622
18175.036
18167.032
18177.873
18169.144
18189.601
2945.5007
2408.3057
2266.3883
2217.1716
2212.0122
2243.5215
2355.5142
3000.5687
3418.9916
3279.7382
3323.7181
3330.4227
3329.9354
3339.9096
2754.0334
2980.3586
3049.9173
3019.2906
3064.2729
2912.5193
2941.7729
2527.853
2748.9801
2866.6894
2903.4642
2854.1294
2859.32
2619.0909
2387.7316
2499.3049
2630.5604
2600.6416
2675.0786
2542.7431
2557.2842
2199.498
2270.6125
2271.5301
2309.5975
2278.7951
2286.2346
2242.8871
2033.4448
2071.0948
2110.99
2118.85
2133.6264
2126.8439
2076.8926
1902.0352
1934.076
1905.3629
1942.2213
1915.4951
1947.2865
1930.6027
1768.5236
1767.5272
1761.1262
1759.9458
1754.9162
1792.5711
1762.6722
1662.5306
1665.4451
1639.3412
1672.9637
1667.8262
1712.3277
1663.9406
1582.4184
1564.5963
1542.5085
1557.9948
1525.2797
1575.953
1546.5542
1527.2346
1496.575
1450.7376
1497.8558
1447.9726
1546.8437
1483.6365
1474.6467
1418.586
1390.0067
1450.1598
1397.8245
1512.0663
1426.5626
1424.1333
1347.192
1359.8871
1383.7369
1351.5379
1443.534
1376.4398
1388.3641
1281.1926
1339.7226
1350.1936
1331.8888
1419.5596
1341.1833
1367.1666
1272.1617
1316.3017
1336.8566
1318.0083
1386.381
1331.3458
1361.1398
1288.4195
1355.2538
1366.77
1329.639
1422.6825
1325.4385
1395.8414
1353.0022
1406.3614
1425.9709
1394.0383
1469.9108
1357.9709
1478.2003
1459.597
1519.116
1552.1944
1495.6204
1568.4421
1453.7663
1627.969
1640.3416
1699.3405
1735.6268
1676.6609
1744.6096
1629.6598
1868.1086
1903.1378
1947.0003
1989.0443
1927.5334
1987.9172
1877.831
2207.7976
2250.6874
2284.2294
2330.2466
2273.1284
2323.4206
2235.9659
2650.29
2697.5664
2716.9209
2765.2026
2713.5801
2754.8962
2679.9079
3195.1463
3228.5362
3237.0788
3291.1833
3242.4104
3271.1638
3223.4784
3823.2487
3839.6607
3848.161
3895.1064
3831.9713
3866.0554
3836.8552
4526.1475
4500.66
4513.9372
4509.9419
4493.6163
4565.5358
4444.3431
5234.3952
5171.8843
5143.4296
5225.1366
5179.9743
5214.174
5233.6988
5908.2864
5895.7503
5862.1736
5882.8807
5880.2671
5917.1362
5898.5287
6622.5738
6595.0031
6565.8211
6566.7221
6563.5737
6613.0895
6633.3709
7304.2656
7293.918
7251.238
7236.0829
7245.2884
7312.6535
7361.4624
8007.0351
8008.9101
7948.9117
7922.1936
7935.8608
8013.934
8114.4973
8742.8622
8746.888
8675.7943
8636.5391
8656.1611
8738.2963
8887.06
9524.8249
9521.7288
9436.3781
9392.0276
9409.7607
9488.7976
9685.447
10351.136
10327.214
10233.883
10182.426
10206.117
10288.598
10508.835
11201.279
11162.356
11060.548
11013.1
11045.006
11105.975
11322.476
12078.051
11998.265
11898.935
11847.996
11878.48
11945.446
12177.308
12878.57
12794.896
12700.802
12662.396
12721.952
12755.343
12933.961
13666.309
13567.761
13489.568
13445.713
13476.609
13547.855
13655.312
14344.789
14233.153
14156.843
14113.719
14163.992
14229.165
14282.639
14926.742
14810.831
14751.798
14711.886
14743.484
14843.851
14842.974
15373.442
15266.201
15207.375
15164.655
15204.829
15305.188
15290.481
15757.732
15664.752
15626.74
15593.038
15618.577
15723.54
15677.779
16050.574
15977.422
15944.813
15905.719
15916.23
16008.958
15990.024
16378.012
16340.989
16306.979
16285.459
16281.431
16358.657
16342.868
16775.527
16755.88
16730.217
16700.443
16693.574
16759.332
16783.555
17134.374
17071.559
17056.845
17043.235
17027.211
17046.412
17050.786
18047.68
18066.093
17998.19
17980.619
17981.683
17983.06
18006.512
1091.3232
920.54469
851.51636
827.32752
798.63947
789.49992
762.98186
1059.353
1315.4342
1277.3921
1316.6287
1281.385
1234.8984
1236.8392
1211.3561
1277.576
1289.265
1306.246
1279.5508
1203.7414
1168.7193
1034.5014
1162.0658
1327.5559
1378.1225
1335.1323
1313.9414
1171.6923
1066.2615
1102.8638
1111.9018
1100.2317
1095.6595
998.38567
1084.9301
971.98718
870.43034
943.83407
1000.4382
971.92893
981.27844
931.39311
950.08517
847.06015
915.10381
912.56483
941.39829
916.82071
939.02004
892.82298
756.77115
778.915
756.05763
802.99315
792.53642
829.77862
846.64614
723.21655
761.25927
771.72632
812.50094
796.67293
833.29453
841.08661
706.39042
729.73145
700.98719
747.96334
729.84737
813.38637
839.65055
702.15127
729.03075
702.19001
754.9836
742.66501
809.43035
874.03109
713.35046
737.73063
710.49171
789.1346
761.87908
860.74505
899.09026
704.89424
796.91861
739.65127
794.96963
767.09547
873.66347
955.12705
754.03737
848.57762
788.44274
805.30782
801.29666
880.81949
1018.8845
873.70625
835.19834
838.4854
831.47119
825.47851
892.33492
1046.4695
905.48023
911.95725
923.40984
860.14934
897.29687
904.83707
1098.8338
982.98625
981.05483
980.68949
931.28062
958.8493
930.08047
1170.5825
1085.9572
1079.0353
1090.6062
1030.7187
1059.6756
1001.1552
1285.8157
1244.5004
1238.2947
1250.8598
1180.0027
1219.5253
1119.6028
1459.1877
1468.0334
1457.5194
1465.903
1400.9812
1447.4692
1299.5242
1706.0217
1764.6182
1747.479
1759.4754
1688.8304
1741.8183
1555.1621
2040.2096
2138.6858
2122.2356
2140.6482
2068.5326
2139.1583
1907.7212
2461.2841
2591.2317
2570.6931
2597.802
2516.8901
2600.9912
2334.7958
2965.619
3125.5654
3095.7248
3126.0681
3038.6106
3156.7771
2873.7931
3562.2384
3723.3468
3664.3005
3694.2478
3630.3034
3770.8834
3461.8543
4198.6044
4358.5176
4296.4676
4349.277
4285.5724
4418.666
4198.8337
4893.5988
5061.2983
4969.3713
5015.9811
4962.5959
5142.1401
4892.7749
5601.3184
5757.8396
5652.4831
5714.409
5676.6159
5868.4496
5640.8552
6320.2521
6498.6194
6381.1518
6438.942
6423.9939
6600.5672
6410.8293
7063.4967
7261.8353
7138.0129
7180.0361
7191.3878
7353.4336
7216.693
7835.76
8039.178
7901.1827
7929.8075
7970.8049
8114.0878
8030.6837
8636.2856
8838.1713
8699.35
8710.9086
8767.4773
8891.0403
8868.8598
9461.4132
9647.0445
9504.5687
9495.3731
9563.6134
9684.9218
9707.3017
10303.781
10457.186
10314.873
10291.114
10365.275
10473.831
10534.798
11148.744
11257.739
11110.468
11083.639
11145.163
11257.25
11354.327
11968.261
12019.42
11884.235
11852.63
11912.483
12018.121
12135.686
12767.446
12775.089
12622.029
12601.685
12636.051
12747.286
12874.504
13513.689
13438.572
13298.702
13274.703
13317.419
13414.378
13565.384
14174.459
14049.571
13918.051
13895.787
13940.004
14016.857
14179.99
14733.948
14568.256
14453.571
14442.785
14475.684
14533.703
14707.788
15218.354
15039.126
14931.771
14924.796
14955.024
14993.66
15157.195
15604.372
15429.252
15344.166
15335.464
15366.732
15380.025
15529.412
15958.086
15810.715
15740.67
15733.404
15750.47
15755.841
15890.551
16320.864
16213.368
16156.115
16151.333
16170.939
16169.854
16259.531
16748.694
16679.15
16644.912
16630.939
16648.041
16658.111
16732.27
17184.634
17139.871
17128.338
17142.754
17134.362
17137.087
17110.63
18030.829
18039.709
17970.394
17985.339
17995.684
17993.68
18014.6
356.95342
352.91597
348.43827
347.41213
318.61885
290.27049
167.11607
359.10416
609.44585
651.86487
702.56715
671.18683
620.87816
521.28454
441.06616
519.2616
522.5291
552.52266
547.29951
500.90952
384.00428
436.13736
593.73076
713.7695
762.43766
753.49496
716.19587
642.64352
434.95278
461.27273
407.39918
380.30744
385.50323
349.25801
384.81789
462.53137
482.16568
500.27616
583.71935
569.14795
541.60285
573.80808
475.69647
409.00159
362.6484
348.89326
346.61531
324.36687
448.62096
510.11152
458.42341
438.9097
442.87991
447.18164
458.64279
503.96196
541.76902
478.42383
470.25564
406.41446
461.38779
414.71077
544.10293
596.57722
536.21181
507.44054
470.94849
501.88849
508.36787
567.0251
663.96954
563.86864
614.46397
530.78724
611.45847
576.02554
674.69062
731.45787
654.80818
667.80806
591.33497
656.26594
657.3629
744.79263
806.72159
685.40472
719.51961
674.5179
755.54008
727.10211
801.10549
851.36475
761.46443
743.35206
719.30752
765.69564
836.20348
784.85771
873.18865
738.99507
863.1011
778.1471
835.83475
879.32866
841.45396
915.50251
779.23547
889.55818
836.27351
869.43457
928.46991
849.82712
962.82217
824.40501
952.03219
903.27452
929.17382
980.84237
880.46844
1038.2777
904.01243
1043.0697
997.13932
1014.8126
1061.0072
948.87444
1159.3594
1033.1909
1177.4203
1138.053
1153.7556
1185.0807
1058.5377
1350.7253
1227.3486
1367.9594
1330.9068
1346.5483
1355.6029
1242.2769
1606.3649
1499.314
1626.2244
1595.8176
1615.8777
1598.4054
1507.433
1939.0376
1856.8693
1961.1323
1924.721
1956.5851
1914.9172
1863.3415
2350.4162
2304.6802
2385.1274
2324.8109
2383.7923
2310.0183
2311.226
2882.6731
2838.824
2865.1561
2813.1649
2885.1042
2794.1558
2846.9284
3453.961
3426.9483
3430.8845
3399.5846
3464.8907
3365.5739
3481.3772
4093.1161
4092.6831
4063.016
4016.2682
4102.0654
4005.8221
4105.2685
4790.6135
4777.5015
4702.6269
4676.7173
4779.7866
4658.3619
4808.7252
5505.7114
5490.5602
5379.8482
5376.2677
5467.4528
5365.8984
5519.3524
6234.1385
6220.1549
6100.1152
6095.8854
6189.9659
6101.8466
6253.8795
6993.1549
6990.1769
6828.5178
6848.2405
6917.7903
6863.7089
7017.886
7776.0426
7785.2571
7607.3621
7633.4359
7688.3266
7669.6716
7820.1526
8592.915
8619.423
8421.6535
8454.7761
8494.1628
8499.7357
8653.1094
9440.1845
9471.3192
9265.0123
9297.0488
9323.532
9346.7027
9506.6317
10300.913
10331.639
10118.42
10147.945
10167.979
10199.291
10363.219
11153.312
11174.494
10965.696
10989.799
11009.948
11042.559
11204.797
11991.743
11993.343
11794.779
11807.637
11825.098
11864.053
12019.898
12776.675
12756.956
12569.061
12582.746
12606.519
12646.932
12793.6
13504.823
13453.388
13290.837
13301.625
13325.781
13374.91
13495.407
14149.184
14083.112
13928.067
13945.531
13963.062
14024.668
14118.963
14721.434
14620.724
14497.391
14508.422
14524.519
14597.424
14667.301
15168.659
15074.126
14967.698
14978.769
14986.801
15074.438
15115.494
15570.119
15485.829
15401.972
15419.192
15415.095
15506.09
15517.404
15921.239
15837.073
15784.792
15804.602
15784.63
15880.512
15870.847
16296.621
16245.028
16205.473
16230.15
16195.109
16279.081
16243.051
16759.919
16725.571