/*--------------------------------*- C++ -*----------------------------------*\
  =========                 |
  \\      /  F ield         | OpenFOAM: The Open Source CFD Toolbox
   \\    /   O peration     | Website:  https://openfoam.org
    \\  /    A nd           | Version:  6
     \\/     M anipulation  |
\*---------------------------------------------------------------------------*/
FoamFile
{
    version     2.0;
    format      ascii;
    class       pointVectorField;
    location    "0.29";
    object      lm;
}
// * * * * * * * * * * * * * * * * * * * * * * * * * * * * * * * * * * * * * //

dimensions      [1 -2 -1 0 0 0 0];

internalField   nonuniform List<vector> 
28033
(
(-1.780536e-14 4.8656612e-16 1.3104288e-15)
(-5.4375576e-15 3.3318594e-15 9.9433006e-16)
(3280.9386 -1055.4862 -69.804861)
(3381.9531 -811.44239 102.52266)
(-1.338461e-14 3.0090723e-15 -2.870051e-16)
(-1.2587315e-14 4.9008913e-15 -4.4266115e-15)
(3346.7853 -860.90386 -23.780941)
(3244.5171 -1058.9627 57.900309)
(-5.6329745e-15 1.0535579e-15 6.7193838e-16)
(-2.4534443e-15 3.0423504e-16 5.8836893e-16)
(-5.4923298e-15 2.4302826e-15 8.9528572e-16)
(-2.6209443e-15 -1.1537891e-15 -6.7979696e-16)
(-7.2548563e-15 1.5542294e-15 1.0013199e-15)
(-4.7613589e-15 -9.2108094e-16 -7.3952737e-16)
(-1.132389e-15 -2.2256662e-17 -6.4484848e-16)
(-7.4239857e-16 -2.4218299e-16 -3.6669977e-16)
(-1.1196198e-15 4.5550132e-16 8.383863e-16)
(-2.3465882e-16 2.2667819e-16 1.4996246e-15)
(-4.0583243e-15 -8.7236639e-16 -1.3429605e-15)
(-5.8237189e-15 8.4462789e-16 7.5519031e-16)
(-5.1611762e-15 1.0100276e-15 9.7613867e-16)
(-1.7679952e-15 -8.1010255e-16 4.5192313e-16)
(-4.4158752e-15 1.0299569e-15 -9.452958e-16)
(3279.4922 -1058.4438 -65.147118)
(3273.2162 -1056.4116 -62.863177)
(3267.0629 -1047.9844 -57.791052)
(3261.6424 -1032.6467 -49.54706)
(3260.3764 -1008.9993 -38.82971)
(3263.165 -979.69932 -23.468519)
(3270.8619 -945.75328 -6.6025021)
(3283.1029 -911.11372 12.187694)
(3299.1645 -877.49804 31.160456)
(3316.8094 -848.47362 49.221491)
(3335.5235 -826.18549 64.297584)
(3352.4662 -811.64704 76.341424)
(3366.8394 -804.94841 85.663183)
(3376.7787 -804.56057 92.219996)
(3381.4966 -807.80807 96.778295)
(12.391426 13.878498 11.109252)
(23.439191 22.058967 8.5908712)
(38.16316 29.373383 5.8538909)
(55.190903 36.694417 2.5783069)
(74.295969 43.462624 -1.243787)
(97.088847 49.932621 -4.9447)
(123.00167 55.402763 -9.2311407)
(152.48685 59.554327 -13.846164)
(185.30055 62.602982 -19.017778)
(221.07574 63.662818 -24.468646)
(259.11815 63.178196 -30.331817)
(299.09592 61.002017 -36.060132)
(339.85007 57.358739 -41.447637)
(380.76116 52.46409 -45.928444)
(420.9436 46.842279 -48.940072)
(460.20828 40.771436 -50.547232)
(497.65195 34.924114 -50.045189)
(533.144 29.52529 -47.190753)
(567.30107 25.428211 -42.081987)
(600.25879 22.526067 -34.911399)
(632.49764 21.266127 -25.679226)
(665.18415 21.387381 -15.177437)
(699.25276 23.098978 -3.6697509)
(735.55017 25.742705 8.0941442)
(775.68487 28.969305 19.302346)
(820.24142 32.093981 29.357923)
(870.12631 34.426751 37.443756)
(925.77814 35.092224 43.23906)
(987.71186 33.281074 45.946941)
(1055.9389 28.581169 45.487941)
(1128.8658 19.504995 41.717785)
(1207.2924 6.2682727 34.659405)
(1289.4395 -11.223755 24.54933)
(1373.8439 -34.137253 11.890422)
(1459.3045 -61.570095 -3.1413696)
(1543.6944 -93.984181 -19.69272)
(1626.2402 -130.0736 -36.83159)
(1704.2966 -169.8959 -54.045174)
(1776.8004 -212.47377 -70.750819)
(1842.7769 -256.49422 -85.831709)
(1900.3416 -301.29761 -98.815859)
(1949.2595 -345.66785 -108.95306)
(1988.8108 -388.54503 -115.8338)
(2018.9944 -428.83069 -118.99671)
(2040.0506 -465.70109 -118.39123)
(2052.6685 -498.30595 -113.84883)
(2057.8772 -526.16862 -105.66543)
(2057.107 -548.96853 -94.215996)
(2051.9626 -566.70066 -80.115429)
(2044.3642 -579.62675 -64.150809)
(2036.22 -588.28281 -47.244799)
(2029.5343 -593.45851 -30.410858)
(2026.1088 -596.1267 -14.679475)
(2027.5571 -597.41854 -1.0305831)
(2035.1062 -598.4999 9.6887292)
(2049.5494 -600.53507 16.8357)
(2071.1632 -604.55737 20.026538)
(2099.68 -611.41809 19.188976)
(2134.2959 -621.69488 14.557836)
(2173.7419 -635.66353 6.6978976)
(2216.3462 -653.24163 -3.5770379)
(2260.2147 -674.00149 -15.242069)
(2303.3007 -697.20365 -27.06073)
(2343.654 -721.85801 -37.987056)
(2379.6145 -746.80176 -46.620727)
(2409.459 -770.42894 -51.994412)
(2432.9665 -791.83472 -53.57499)
(2449.2628 -809.50014 -50.728506)
(2458.4219 -822.55793 -42.610025)
(2461.8701 -830.01031 -29.911022)
(2460.6752 -831.87233 -13.207024)
(2456.1509 -827.89162 7.3421703)
(2450.9482 -818.52547 30.365345)
(2447.0773 -804.65024 54.73299)
(2446.9383 -787.41025 79.006228)
(2452.6332 -768.35017 101.7848)
(2466.0658 -749.04797 121.61188)
(2488.6534 -731.36128 137.23264)
(2521.3058 -716.83471 147.56169)
(2564.1974 -707.20625 151.85684)
(2617.0664 -703.57237 149.7381)
(2678.5755 -706.93206 141.25453)
(2747.0781 -717.69502 126.81737)
(2820.4653 -735.52908 107.13418)
(2896.2734 -760.33484 83.692056)
(2971.2353 -791.1858 57.667547)
(3042.6135 -826.30631 30.872516)
(3107.3427 -864.32419 5.0580465)
(3163.7665 -903.12724 -18.67753)
(3208.7895 -940.77938 -38.376642)
(3243.3526 -975.61709 -53.56103)
(3264.6384 -1005.3643 -63.991294)
(3276.8027 -1029.3768 -68.264843)
(3279.9574 -1045.1334 -71.416092)
(3279.0288 -1054.0475 -68.199899)
(1.5747396 -23.055034 -23.746429)
(19.982886 -24.132637 -14.10215)
(34.319203 -37.794253 -14.449043)
(48.260964 -41.43478 -6.2076128)
(69.324613 -53.213586 -1.4480853)
(92.021764 -64.035831 5.7698788)
(117.81019 -72.993192 12.087201)
(147.47033 -84.318236 19.633893)
(180.31988 -93.681637 26.09089)
(215.02099 -102.76852 32.722732)
(251.935 -110.71741 38.019403)
(289.7509 -117.33016 42.270822)
(327.79073 -122.89665 45.348506)
(365.25457 -127.03022 46.141104)
(401.56012 -130.15892 45.498327)
(436.10813 -132.6054 42.561754)
(469.07567 -134.51152 37.847624)
(499.88763 -136.78609 31.346635)
(529.06709 -139.46875 23.427298)
(557.25406 -143.41374 14.368037)
(585.06099 -149.04829 4.6014651)
(613.24838 -156.95061 -5.1031478)
(643.11504 -166.96494 -14.681121)
(675.85195 -180.37098 -23.030822)
(711.71325 -196.22311 -30.195509)
(752.69725 -214.89816 -35.506772)
(798.95045 -236.45391 -38.77939)
(851.43435 -259.81417 -39.350982)
(910.37066 -285.24353 -37.770606)
(975.94685 -311.28121 -33.104105)
(1048.043 -338.01128 -26.231566)
(1125.6894 -364.03462 -16.818338)
(1208.4723 -388.74716 -5.4158108)
(1295.3455 -411.39491 7.8072039)
(1384.7371 -431.24291 22.444469)
(1475.4862 -447.35446 37.531227)
(1565.9367 -459.641 53.339705)
(1654.1621 -467.64974 68.449509)
(1738.6329 -470.99392 82.532605)
(1817.8247 -469.70103 94.920018)
(1890.2346 -464.01768 105.08382)
(1954.6386 -454.2097 112.49119)
(2010.1159 -440.84921 116.74881)
(2056.0852 -424.59618 117.61012)
(2092.3728 -406.30129 114.9892)
(2119.232 -386.89168 108.9797)
(2137.3237 -367.37639 99.858125)
(2147.7417 -348.77506 88.087676)
(2151.9122 -332.08329 74.284345)
(2151.5788 -318.198 59.207389)
(2148.6728 -307.89536 43.705842)
(2145.2306 -301.74611 28.677015)
(2143.2659 -300.11362 15.011586)
(2144.6461 -303.09758 3.527599)
(2150.9736 -310.53734 -5.0804685)
(2163.474 -322.00525 -10.309799)
(2182.9052 -336.839 -11.884087)
(2209.4931 -354.15552 -9.8057462)
(2242.9029 -372.93819 -4.3557184)
(2282.2486 -392.06321 3.8926271)
(2326.1433 -410.40945 14.109557)
(2372.7911 -426.91072 25.260325)
(2420.1174 -440.66205 36.167348)
(2465.9359 -450.94443 45.610891)
(2508.087 -457.36981 52.442512)
(2544.6809 -459.8096 55.648151)
(2574.2544 -458.51145 54.489946)
(2595.502 -453.96344 48.507509)
(2608.6531 -447.24313 37.788673)
(2613.6961 -439.53465 22.532294)
(2611.5187 -431.94682 3.8417444)
(2603.8731 -425.7734 -17.675447)
(2592.7111 -422.71699 -40.412853)
(2580.4618 -423.72112 -63.001545)
(2569.623 -429.99158 -83.979989)
(2562.7231 -442.12408 -101.93632)
(2562.0837 -460.48653 -115.665)
(2569.6609 -485.00603 -124.22855)
(2586.9216 -515.17451 -126.9907)
(2614.7894 -550.13119 -123.69951)
(2653.4961 -588.65612 -114.4114)
(2702.6283 -629.25622 -99.6125)
(2761.1246 -670.32723 -80.034872)
(2827.2987 -710.09839 -56.773668)
(2898.9843 -746.95587 -31.050266)
(2973.5981 -779.32811 -4.3115627)
(3048.3373 -806.00251 22.019964)
(3120.3064 -826.03438 46.515464)
(3186.7572 -838.98037 67.920254)
(3245.1811 -844.82365 85.188455)
(3293.648 -844.26477 97.733197)
(3330.8625 -838.37959 105.21784)
(3356.5333 -829.16472 108.10449)
(3371.4129 -819.26864 107.37821)
(3378.7543 -812.53649 104.34024)
(3.2927448e-15 -1.3239155e-15 2.3845803e-16)
(2.4470133e-15 -9.6672015e-16 3.215493e-17)
(-9.0574249e-15 9.0550918e-16 6.4029168e-16)
(-1.2642219e-16 -5.721845e-16 4.4370095e-16)
(-7.6811722e-15 -4.9270561e-16 4.1193361e-16)
(-7.3893964e-15 2.7533729e-15 -1.0951501e-15)
(-3.2915852e-15 -8.1743692e-16 3.8364228e-16)
(-1.9032499e-15 5.3200654e-16 -8.2319016e-17)
(-4.7409759e-15 -4.8623412e-16 4.3918642e-16)
(-1.2869644e-14 1.1845665e-15 6.4228907e-16)
(-9.6157521e-15 1.4157374e-15 5.9836601e-16)
(-9.4077204e-15 4.9518432e-16 1.1192419e-15)
(-5.982767e-15 2.6210694e-16 3.0473736e-16)
(-1.1478475e-14 -5.3386198e-16 1.6580808e-15)
(-5.257323e-15 3.6289085e-16 2.8600704e-16)
(6.4850392 -9.8550584 22.020779)
(17.515813 -39.615413 26.183967)
(19.363631 -30.504577 32.819453)
(31.723454 -50.164268 34.792368)
(46.164255 -55.32853 36.161543)
(66.852322 -65.034993 31.105242)
(91.846934 -73.88275 26.09959)
(123.28614 -84.860447 17.940565)
(157.90918 -91.484603 7.2870928)
(197.40299 -101.3537 -4.1847887)
(240.00526 -110.2068 -17.134634)
(284.66551 -114.61318 -30.409451)
(329.84177 -124.19032 -43.572826)
(375.72077 -127.10713 -54.960214)
(419.17222 -135.47398 -65.097365)
(460.8185 -139.0558 -71.952196)
(500.5061 -144.79991 -75.465467)
(535.23192 -150.58678 -76.881084)
(568.52569 -157.64252 -72.603123)
(597.36243 -164.58118 -66.446101)
(624.46013 -173.67855 -55.81725)
(650.56861 -185.39465 -43.403254)
(676.53804 -197.20592 -28.146634)
(703.64748 -211.64023 -12.322627)
(733.09994 -227.94987 3.6492864)
(767.33398 -245.87074 18.955267)
(804.85786 -266.72584 31.474023)
(851.44465 -288.15473 43.303997)
(902.30102 -310.53742 49.370056)
(962.79607 -334.45024 53.748756)
(1029.0801 -357.4492 52.921076)
(1103.0059 -380.2712 48.255375)
(1183.0215 -401.76453 39.354637)
(1268.3502 -421.35644 26.867019)
(1357.1691 -440.16991 11.920548)
(1449.7325 -452.05107 -6.4384996)
(1540.6935 -464.84545 -25.731426)
(1631.5631 -471.9036 -45.667922)
(1718.8042 -475.49181 -65.070494)
(1801.3077 -475.01464 -83.264278)
(1877.1112 -470.76213 -99.149058)
(1944.9656 -462.94115 -112.00666)
(2003.7515 -451.98499 -121.15973)
(2052.7821 -438.4705 -126.14622)
(2091.7705 -423.08739 -126.70266)
(2120.8929 -406.64092 -122.81575)
(2140.7774 -389.98098 -114.72397)
(2152.491 -374.00954 -102.90115)
(2157.4835 -359.58425 -88.05112)
(2157.5262 -347.5171 -71.063631)
(2154.6001 -338.49055 -52.957979)
(2150.7952 -333.03877 -34.832003)
(2148.1693 -331.4945 -17.767128)
(2148.6293 -333.96787 -2.7791283)
(2153.7966 -340.33499 9.2825481)
(2164.9078 -350.22556 17.77202)
(2182.7141 -363.06208 22.327047)
(2207.4413 -378.06825 22.872)
(2238.7522 -394.34139 19.65666)
(2275.7811 -410.89948 13.223062)
(2317.1785 -426.75848 4.3810482)
(2361.2222 -441.00826 -5.85421)
(2405.9284 -452.88012 -16.341818)
(2449.2359 -461.83769 -25.901966)
(2489.1371 -467.55983 -33.419581)
(2523.7882 -470.11008 -37.931453)
(2552.2024 -469.83282 -38.58012)
(2572.059 -467.37842 -35.526653)
(2586.0963 -463.38817 -27.387094)
(2591.522 -458.70905 -16.144073)
(2590.7263 -455.50347 -1.1174556)
(2585.2914 -454.34441 16.011435)
(2576.7757 -456.51304 34.666704)
(2567.6992 -462.97808 53.253147)
(2560.3332 -474.57998 70.598055)
(2557.078 -491.77349 85.47349)
(2560.052 -514.66 96.800031)
(2571.0759 -542.99369 103.73995)
(2591.4467 -576.14388 105.74215)
(2621.9097 -613.14866 102.58359)
(2662.5544 -652.76122 94.38142)
(2712.8365 -693.5299 81.60228)
(2771.5522 -733.87593 65.018577)
(2836.9575 -772.21182 45.685175)
(2906.8071 -807.01987 24.844417)
(2978.5559 -836.98137 3.8771346)
(3049.4443 -861.04601 -15.828551)
(3116.7571 -878.53468 -32.94021)
(3177.9183 -889.1966 -46.331084)
(3230.7752 -893.26618 -55.133822)
(3273.6945 -891.50888 -58.893663)
(3305.7969 -885.22339 -57.613299)
(3327.1905 -876.3404 -51.886314)
(3338.9363 -867.46581 -42.773949)
(3344.1419 -860.67512 -32.659692)
(3347.3746 -859.29105 -21.55447)
(3344.1487 -854.13714 -20.474098)
(3334.9498 -851.07734 -18.772417)
(3322.0289 -855.40874 -15.087781)
(3306.2227 -863.73254 -9.052317)
(3287.8266 -881.22409 -1.1199347)
(3271.7455 -902.99128 8.8746109)
(3256.0236 -929.65749 19.231635)
(3243.4035 -957.74242 30.220142)
(3236.3925 -985.89843 39.345055)
(3232.8187 -1011.7492 47.075154)
(3233.3281 -1030.4144 52.651116)
(3236.6162 -1046.3006 54.461432)
(3241.836 -1051.8663 56.165645)
(3245.3276 -1056.6854 55.208868)
(3246.5492 -1059.7483 59.294816)
(3251.9971 -1050.2085 65.025059)
(3254.2146 -1037.1171 68.330801)
(3249.0547 -1016.7427 70.512684)
(3234.5816 -991.17256 69.164149)
(3208.8312 -961.27851 63.59493)
(3171.6543 -928.79978 54.018238)
(3123.5312 -895.2709 40.256444)
(3065.633 -862.42011 23.270682)
(3000.0967 -831.74271 3.6142959)
(2929.0325 -804.88754 -17.160439)
(2855.5096 -782.74303 -38.214686)
(2781.8958 -766.34962 -58.011572)
(2710.9726 -755.87289 -75.715498)
(2644.9906 -751.54152 -90.184099)
(2586.4022 -753.05695 -100.47002)
(2536.5754 -759.61481 -105.96446)
(2496.2829 -770.12106 -106.68418)
(2465.7372 -783.28298 -102.66714)
(2444.4495 -797.61715 -94.449826)
(2431.3677 -811.61899 -82.687553)
(2424.9855 -823.87477 -68.312541)
(2423.3475 -833.0716 -52.315098)
(2424.543 -838.35278 -35.714915)
(2425.985 -838.92108 -19.592651)
(2426.3854 -834.45934 -4.981887)
(2423.2328 -825.62041 7.7350087)
(2414.8291 -809.97849 17.96678)
(2401.6801 -793.41317 24.458258)
(2382.027 -772.80535 28.853585)
(2356.6419 -750.71016 30.177373)
(2325.831 -728.11745 29.194218)
(2290.9199 -706.24736 26.494724)
(2253.2782 -686.11291 22.805628)
(2214.6024 -668.57926 18.90618)
(2176.6458 -654.20598 15.553035)
(2141.1001 -643.26626 13.424439)
(2109.4482 -635.68016 13.051553)
(2082.8539 -631.06583 14.784574)
(2062.0672 -628.73369 18.763268)
(2047.3793 -627.77737 24.916707)
(2038.5998 -627.10832 32.97657)
(2035.0849 -625.57448 42.507048)
(2035.7839 -622.01267 52.95433)
(2039.3236 -615.36121 63.690424)
(2044.0953 -604.71071 74.070462)
(2048.365 -589.38235 83.481071)
(2050.375 -568.95288 91.370891)
(2048.4315 -543.30461 97.310843)
(2041.0225 -512.57527 100.95471)
(2026.8528 -477.23011 102.14138)
(2004.9015 -437.94033 100.79989)
(1974.5669 -395.55243 96.964792)
(1935.4703 -351.17719 90.914514)
(1887.5335 -305.79862 82.700505)
(1831.5095 -260.77958 72.961897)
(1767.9745 -216.88523 62.031015)
(1697.3514 -176.69245 50.214634)
(1622.0779 -136.7167 37.395355)
(1542.2475 -103.76734 25.899666)
(1459.9709 -74.882118 14.340132)
(1377.5382 -49.164966 3.3242646)
(1295.0359 -30.233119 -5.3739678)
(1215.1372 -15.256773 -12.822516)
(1137.8336 -5.2072198 -18.072864)
(1066.2833 0.99286847 -21.658145)
(998.16957 4.5166983 -22.454236)
(937.33153 4.1383191 -21.462277)
(881.03001 3.5450499 -18.527902)
(830.59622 1.5787168 -13.737449)
(785.10344 -0.46271775 -7.4933187)
(743.9871 -1.4592833 -0.019026198)
(706.05871 -3.0767483 8.2911958)
(670.81103 -0.84225283 15.827551)
(636.65289 1.915209 23.69197)
(602.33931 5.9021803 30.600255)
(568.3105 12.402513 35.829034)
(531.70747 19.440032 39.86283)
(494.49704 27.188663 41.534055)
(454.44091 35.362569 41.856519)
(413.11501 43.84707 39.819444)
(370.32081 50.111965 36.709387)
(326.68486 55.126243 31.910098)
(283.32567 60.298394 25.766667)
(240.70169 61.707533 19.593827)
(200.02606 61.378425 13.016588)
(162.72409 60.538954 6.336377)
(128.31867 56.280466 0.85897183)
(98.472373 51.530226 -4.1699449)
(72.70524 45.749621 -8.2191048)
(52.147816 38.65557 -10.898739)
(35.54566 31.057984 -12.878444)
(23.469278 24.501027 -13.55531)
(12.74342 17.256513 -12.72804)
(9.3669278 10.669843 -9.8825145)
(-6.8708141e-15 1.5083581e-15 1.9262289e-16)
(-1.2504183e-14 5.7375616e-16 8.4327435e-16)
(-8.3449101e-15 1.4891922e-15 5.3018253e-16)
(-4.9731758e-15 1.4991158e-15 6.2376313e-16)
(-3.4146159e-15 1.5624416e-15 3.1576894e-17)
(2.0582335e-15 9.3962624e-16 -5.746342e-16)
(2.2101935e-15 3.7457559e-17 -1.1841335e-16)
(2.4553765e-15 -8.5141669e-16 -9.3419562e-16)
(1.2987427e-15 1.0081898e-16 1.7950851e-15)
(-4.5074861e-15 9.063971e-16 1.0710522e-15)
(-5.2682467e-15 2.1856155e-15 1.0652666e-15)
(-7.4917339e-15 1.915055e-15 2.2418828e-16)
(-9.400838e-15 1.3708275e-15 6.2833768e-16)
(-6.2048683e-15 1.3247981e-15 5.4317906e-16)
(-6.971104e-15 1.5128103e-15 7.5678131e-16)
(-1.2693866e-14 6.2923345e-15 -2.1364834e-15)
(-5.2452578e-15 2.6791924e-15 -5.3037742e-16)
(-1.0752404e-15 9.8318743e-16 -1.0111087e-16)
(-2.7353382e-15 1.7746034e-15 7.3085398e-17)
(1.0178949e-15 -1.5450237e-16 -4.119182e-16)
(-1.4303492e-15 4.136346e-16 -3.3264033e-16)
(-1.0059749e-14 4.7133437e-15 -1.6449855e-15)
(2.9801421e-15 -1.9180379e-15 -8.3172098e-16)
(-4.79756e-15 2.8035442e-15 1.1420498e-15)
(-5.4778068e-15 3.5047253e-15 -3.934403e-16)
(-1.8117877e-15 1.1581936e-15 -9.1309836e-16)
(-3.9812639e-16 4.7407236e-16 -2.2932148e-16)
(-1.5272242e-15 1.100363e-15 -2.2557932e-16)
(-4.1024849e-15 1.9838802e-15 2.8069696e-17)
(-5.3424143e-16 2.551799e-16 -1.9455919e-16)
(3376.0421 -808.96049 102.91462)
(3367.3376 -808.68778 99.415662)
(3359.0128 -809.79188 92.267826)
(3351.4129 -811.89268 83.168817)
(3345.0645 -814.5927 72.397607)
(3340.0486 -817.74984 60.796818)
(3336.5535 -821.168 48.558159)
(3334.4784 -824.85284 36.243009)
(3333.8158 -828.60165 24.02652)
(3334.318 -832.28051 12.21426)
(3336.0748 -835.8778 1.3101541)
(3338.5066 -839.29426 -8.4549664)
(3341.6231 -842.83361 -16.353731)
(3344.5092 -846.87999 -21.5047)
(3347.5109 -852.019 -24.042472)
(3277.2766 -1052.5318 -69.613339)
(3273.2035 -1045.7346 -65.920189)
(3269.7451 -1038.9691 -58.138459)
(3266.137 -1032.7455 -47.907325)
(3263.0772 -1028.2341 -36.269114)
(3259.49 -1025.4868 -23.825765)
(3255.7981 -1024.6423 -11.039264)
(3252.0479 -1025.6583 1.6267491)
(3248.4257 -1028.3538 13.84931)
(3245.1183 -1032.5129 25.285208)
(3242.333 -1037.8424 35.638952)
(3240.4798 -1043.7428 44.46743)
(3239.3269 -1050.1179 51.647737)
(3239.7851 -1055.3573 56.087809)
(3241.8314 -1059.1987 57.729936)
(8.6250964 6.072001 10.352824)
(20.814545 10.107167 5.1423266)
(34.878441 15.81862 5.2122959)
(52.251439 20.516035 1.2788593)
(70.883732 25.080093 -1.049942)
(93.8884 28.730484 -4.6112728)
(119.52072 31.439172 -8.0754358)
(149.17671 33.113181 -12.062132)
(181.72414 33.443133 -16.337692)
(217.50263 32.695339 -21.022089)
(255.52621 30.52524 -25.899794)
(295.43038 27.464039 -30.641779)
(336.11846 23.25267 -35.205761)
(376.99878 18.738567 -38.903827)
(417.07483 13.553601 -41.651774)
(456.01821 8.5518546 -42.86354)
(493.27828 3.7651876 -42.555707)
(528.57057 -0.19950398 -40.235656)
(562.19245 -3.6969245 -36.079509)
(594.45243 -5.9701619 -30.067221)
(625.87879 -7.5183225 -22.47214)
(657.66423 -8.1465649 -13.607624)
(690.5619 -8.1868857 -4.0238911)
(725.75267 -8.1293126 5.8962709)
(764.54529 -8.3440671 15.296959)
(807.68377 -9.2798412 23.740537)
(856.21364 -11.817234 30.621528)
(910.72731 -16.200196 35.547975)
(971.45591 -23.299572 37.793886)
(1038.3825 -33.415355 37.452914)
(1111.2914 -46.892017 34.316399)
(1189.324 -64.111634 28.312887)
(1271.287 -85.186058 19.77081)
(1356.1791 -110.34458 8.9610906)
(1442.4227 -138.67106 -3.8709044)
(1528.0926 -170.68234 -17.752002)
(1611.9744 -205.23411 -32.314166)
(1692.0448 -241.78944 -47.189152)
(1766.7477 -279.96098 -61.140812)
(1834.8717 -318.48542 -73.999301)
(1894.9694 -356.79026 -84.956845)
(1946.1928 -393.9847 -93.527924)
(1988.1096 -429.03372 -99.266501)
(2020.4431 -461.48851 -101.93468)
(2043.3354 -490.53791 -101.25292)
(2057.4663 -515.8655 -97.312011)
(2063.7533 -537.22263 -90.27424)
(2063.5571 -554.6237 -80.491154)
(2058.4822 -568.29386 -68.498202)
(2050.3901 -578.69143 -54.96122)
(2041.2423 -586.45018 -40.667472)
(2033.0523 -592.37672 -26.461011)
(2027.7215 -597.35204 -13.210667)
(2026.9512 -602.31265 -1.7159638)
(2032.1064 -608.13692 7.319936)
(2044.1266 -615.61556 13.380221)
(2063.4482 -625.35279 16.156818)
(2089.9553 -637.74516 15.599104)
(2122.9939 -652.92291 11.916274)
(2161.392 -670.75068 5.5712211)
(2203.5749 -690.81304 -2.7527845)
(2247.6348 -712.46935 -12.217331)
(2291.5629 -734.84681 -21.792077)
(2333.2688 -757.02824 -30.613656)
(2370.9965 -777.83434 -37.489426)
(2402.9324 -796.173 -41.825904)
(2428.282 -811.65725 -42.84411)
(2446.3852 -823.02336 -40.014288)
(2457.3779 -829.66552 -33.187894)
(2461.891 -831.47887 -22.395036)
(2460.9089 -828.63264 -8.2206835)
(2456.3484 -821.3426 8.9725655)
(2450.1044 -810.48851 28.270353)
(2444.4842 -797.09495 48.612301)
(2441.8608 -782.42312 68.884367)
(2444.4868 -767.89052 87.853369)
(2454.4184 -754.93051 104.36679)
(2473.2352 -745.00433 117.35152)
(2502.1296 -739.30008 125.95198)
(2541.508 -738.89566 129.50746)
(2591.2646 -744.40224 127.78496)
(2650.4833 -756.08454 120.62199)
(2717.6052 -773.91063 108.61871)
(2790.1872 -797.03048 92.543853)
(2866.432 -825.19176 73.14103)
(2943.0828 -856.25555 51.89741)
(3017.1794 -889.36535 29.708647)
(3085.5335 -922.5904 8.1033223)
(3146.1701 -954.63281 -11.787711)
(3195.9792 -983.81695 -28.736441)
(3234.8244 -1009.014 -42.429151)
(3261.0786 -1029.2781 -52.141764)
(3275.4709 -1044.1155 -58.325823)
(3281.2513 -1053.2753 -62.56591)
(3279.1294 -1057.5674 -63.703093)
(6.3167328 5.4006549 7.5430029)
(18.504018 4.4242506 5.2532069)
(34.117221 9.870799 3.8485442)
(49.950499 10.963021 1.7646024)
(69.561592 14.044613 -0.7983761)
(92.000445 15.052422 -3.5729067)
(118.02881 15.962041 -6.5764572)
(147.25613 15.317952 -9.8215807)
(179.91645 13.975077 -13.435883)
(215.42743 11.317511 -17.369138)
(253.25795 7.9688192 -21.347742)
(292.7887 3.7086752 -25.495983)
(333.14242 -0.92788299 -29.171477)
(373.58084 -5.9856317 -32.427796)
(413.29636 -10.917832 -34.627006)
(451.87914 -15.654921 -35.895445)
(488.51171 -19.862037 -35.524617)
(523.54393 -23.524624 -33.797759)
(556.67638 -26.293272 -30.350614)
(588.5094 -28.477107 -25.447809)
(619.62102 -29.931142 -19.077029)
(650.95831 -31.065989 -11.802659)
(683.41987 -32.053798 -3.7025356)
(718.28149 -33.460685 4.4822884)
(756.55817 -35.589532 12.377201)
(799.37065 -39.019363 19.448309)
(847.51113 -44.184313 25.26108)
(901.56888 -51.639583 29.254276)
(962.06867 -61.747553 31.267667)
(1028.8607 -74.80018 30.940283)
(1101.5204 -91.089218 28.288157)
(1179.4677 -110.73655 23.201409)
(1261.7329 -133.60903 16.030337)
(1346.9901 -159.6105 6.8327725)
(1433.5891 -188.45898 -3.805134)
(1520.2261 -219.72515 -15.66807)
(1604.8738 -252.83591 -28.033579)
(1685.9932 -287.3031 -40.418985)
(1761.9429 -322.22727 -52.32062)
(1831.2629 -357.00398 -63.177176)
(1892.7261 -390.84667 -72.413306)
(1945.3218 -423.09879 -79.645097)
(1988.5796 -453.01585 -84.493831)
(2022.1291 -480.17704 -86.621771)
(2046.2026 -504.09738 -86.049332)
(2061.3148 -524.6333 -82.666217)
(2068.4273 -541.71798 -76.691288)
(2068.8448 -555.53284 -68.389586)
(2064.1696 -566.44841 -58.247524)
(2056.2383 -575.00033 -46.797822)
(2047.0222 -581.88035 -34.729265)
(2038.5353 -587.8718 -22.736956)
(2032.6959 -593.79314 -11.552962)
(2031.2291 -600.45557 -1.8411498)
(2035.5355 -608.56637 5.8127483)
(2046.5994 -618.70641 10.986687)
(2064.906 -631.24756 13.424214)
(2090.4046 -646.34474 13.095453)
(2122.493 -663.8931 10.167656)
(2160.0694 -683.5519 5.0370013)
(2201.5913 -704.74332 -1.7446131)
(2245.2135 -726.71367 -9.4582007)
(2288.9192 -748.56902 -17.280041)
(2330.6272 -769.33505 -24.544061)
(2368.5787 -788.06763 -30.063374)
(2400.9268 -803.87878 -33.910544)
(2426.9245 -816.16663 -34.421968)
(2445.7543 -824.21784 -32.213448)
(2457.3145 -827.48097 -26.550733)
(2462.0241 -826.28087 -17.713267)
(2461.3113 -820.90535 -5.9057304)
(2456.6191 -812.06531 8.4261783)
(2449.9192 -800.66675 24.506738)
(2443.5308 -787.89431 41.558802)
(2439.8411 -775.00114 58.580104)
(2441.1076 -763.35717 74.601234)
(2449.4691 -754.26924 88.616887)
(2466.6052 -748.96302 99.760822)
(2493.7359 -748.3599 107.27491)
(2531.4596 -753.19749 110.63566)
(2579.6536 -763.72819 109.60172)
(2637.6498 -779.89332 104.07419)
(2703.8659 -801.5915 94.633895)
(2776.1328 -827.40498 80.686072)
(2852.7653 -855.75706 64.967984)
(2929.5281 -886.9476 47.01456)
(3004.4348 -918.64846 28.537035)
(3074.0885 -949.43672 10.382395)
(3136.1554 -978.20405 -6.5077744)
(3187.8889 -1003.3633 -21.300691)
(3228.3918 -1024.287 -33.380384)
(3256.486 -1040.5893 -42.943374)
(3272.1316 -1051.4094 -49.494111)
(3278.5855 -1057.5298 -55.31668)
(3275.6062 -1059.6282 -57.949515)
(6.0533062 2.2632974 5.7445459)
(19.353647 2.1229244 3.1228986)
(32.235093 4.5488105 3.4843979)
(49.089726 4.9420252 1.6004948)
(68.411552 5.758893 -0.31205787)
(91.431533 5.8052662 -2.4679001)
(117.14563 4.8343702 -4.721263)
(146.78578 3.1159149 -7.2877196)
(179.22928 0.28273337 -10.343987)
(214.65439 -3.0637692 -13.339623)
(252.22314 -7.4786508 -16.8753)
(291.49619 -12.065231 -20.104769)
(331.42472 -17.323747 -23.44387)
(371.45772 -22.272 -26.089093)
(410.74421 -27.405383 -28.333404)
(448.68545 -31.915021 -29.331467)
(485.06649 -36.105431 -29.479905)
(519.54716 -39.471244 -28.142732)
(552.29617 -42.370622 -25.60365)
(583.78258 -44.580405 -21.651066)
(614.61291 -46.474842 -16.669973)
(645.63219 -48.234069 -10.645132)
(677.93622 -50.193624 -4.1378199)
(712.56025 -52.7896 2.6467799)
(750.7421 -56.381863 9.1645457)
(793.37576 -61.494206 15.106352)
(841.42276 -68.547631 19.9316)
(895.50792 -77.873162 23.41599)
(955.91204 -89.828129 25.135486)
(1022.6804 -104.63395 25.038082)
(1095.5042 -122.355 22.903584)
(1173.6511 -143.07402 18.870387)
(1256.1587 -166.60773 12.962479)
(1341.741 -192.81512 5.4640527)
(1428.9489 -221.19651 -3.3704356)
(1516.1433 -251.52506 -13.108121)
(1601.5347 -283.05057 -23.269369)
(1683.4988 -315.24966 -33.617526)
(1760.3834 -347.52168 -43.487369)
(1830.6684 -379.13743 -52.474205)
(1893.1588 -409.48549 -60.18123)
(1946.8285 -437.93472 -66.22501)
(1991.0381 -463.96366 -70.190698)
(2025.5707 -487.21422 -71.976741)
(2050.5516 -507.41231 -71.479508)
(2066.4947 -524.45196 -68.656221)
(2074.347 -538.44386 -63.665645)
(2075.3973 -549.64952 -56.752876)
(2071.2397 -558.51723 -48.292686)
(2063.7042 -565.62457 -38.754367)
(2054.7663 -571.67484 -28.695726)
(2046.4243 -577.41593 -18.690662)
(2040.6086 -583.61439 -9.3491054)
(2039.0383 -590.97651 -1.2110631)
(2043.1262 -600.09945 5.2403626)
(2053.862 -611.42412 9.6599437)
(2071.7551 -625.18204 11.838843)
(2096.77 -641.38679 11.748546)
(2128.3408 -659.80956 9.5259346)
(2165.3883 -680.0022 5.4857886)
(2206.4129 -701.31875 0.078461196)
(2249.5904 -722.96194 -6.1106362)
(2292.9187 -744.0192 -12.475166)
(2334.3756 -763.59661 -18.306987)
(2372.1367 -780.76252 -22.926333)
(2404.4966 -794.7012 -26.037061)
(2430.2556 -804.77227 -26.381707)
(2448.9629 -810.38048 -24.856514)
(2460.832 -811.99609 -20.232288)
(2465.5607 -809.7031 -13.129199)
(2464.6207 -803.92586 -3.5952512)
(2459.6648 -795.27248 8.0181466)
(2452.6637 -784.72596 21.052338)
(2445.8347 -773.44241 34.849213)
(2441.5835 -762.62663 48.736635)
(2442.2169 -753.61781 61.786923)
(2449.8223 -747.55504 73.288912)
(2466.1267 -745.50579 82.497216)
(2492.3773 -748.23458 88.81523)
(2529.1755 -756.22245 91.798278)
(2576.516 -769.62008 91.252541)
(2633.5875 -788.14526 87.075777)
(2699.0171 -811.31146 79.744927)
(2771.2094 -838.24507 69.257002)
(2847.1039 -868.16639 56.714995)
(2923.4943 -898.78562 42.30401)
(2998.5067 -929.4687 27.57454)
(3068.3792 -958.63446 12.720878)
(3131.2192 -985.31279 -1.1188526)
(3183.5513 -1008.0991 -13.570613)
(3225.3114 -1026.7541 -24.090726)
(3254.3531 -1040.7397 -32.980546)
(3270.7777 -1049.7065 -39.619305)
(3277.674 -1054.1018 -46.312825)
(3274.1844 -1054.4928 -50.75861)
(6.7110577 2.3887106 3.7951809)
(19.276858 0.47998763 2.962012)
(32.992421 1.9884038 2.5147108)
(49.56135 0.94079813 1.306192)
(69.131623 0.99562699 -0.062212772)
(91.583017 -0.32762387 -1.4036268)
(117.75131 -1.9355471 -3.076606)
(147.00421 -4.7706155 -5.1527664)
(179.42232 -7.9540844 -7.1613669)
(214.64651 -12.206428 -9.8258911)
(252.01692 -16.815153 -12.337536)
(290.85472 -21.934618 -15.238283)
(330.43102 -27.155183 -17.734825)
(370.05956 -32.368478 -20.277139)
(408.78549 -37.367274 -21.92012)
(446.46419 -41.888182 -23.220141)
(482.27404 -45.918118 -23.333579)
(516.43814 -49.323882 -22.616939)
(548.86292 -52.185606 -20.674672)
(580.1726 -54.585752 -17.808282)
(610.76276 -56.767625 -13.845873)
(641.7854 -58.969235 -9.2423663)
(674.03825 -61.560688 -4.0319099)
(708.81705 -64.937981 1.3235738)
(747.06003 -69.527148 6.5886587)
(789.9117 -75.732883 11.320257)
(838.15473 -83.873589 15.255481)
(892.42341 -94.372846 18.045793)
(953.07516 -107.39417 19.521859)
(1020.1171 -123.13081 19.439145)
(1093.152 -141.61378 17.808595)
(1171.6024 -162.82403 14.575692)
(1254.4081 -186.53162 9.8738958)
(1340.3631 -212.50424 3.8804717)
(1427.9291 -240.36084 -3.1879955)
(1515.5647 -269.6054 -10.95829)
(1601.4201 -299.69495 -19.196448)
(1683.8441 -330.08085 -27.529983)
(1761.2808 -360.10787 -35.33274)
(1832.2246 -389.32085 -42.594893)
(1895.3606 -416.90603 -48.698649)
(1949.7318 -442.51844 -53.433225)
(1994.6848 -465.59136 -56.601996)
(2029.94 -485.92278 -57.970447)
(2055.6546 -503.28769 -57.482611)
(2072.3533 -517.69844 -55.135659)
(2080.9599 -529.31806 -51.050482)
(2082.7505 -538.47258 -45.416122)
(2079.3174 -545.65101 -38.553507)
(2072.4783 -551.44467 -30.836715)
(2064.1855 -556.55587 -22.705579)
(2056.4267 -561.70493 -14.633427)
(2051.1061 -567.61335 -7.096942)
(2049.9245 -574.922 -0.52705512)
(2054.2717 -584.16064 4.6941619)
(2065.1275 -595.68415 8.3000284)
(2082.988 -609.64975 10.126597)
(2107.8233 -625.99847 10.158874)
(2139.0774 -644.43646 8.5047602)
(2175.6909 -664.47812 5.4168845)
(2216.1953 -685.44343 1.2519525)
(2258.7958 -706.52868 -3.5479275)
(2301.5207 -726.84643 -8.4908592)
(2342.4599 -745.55669 -12.989561)
(2379.5313 -761.66003 -16.749263)
(2411.5881 -774.81624 -18.950513)
(2437.0199 -783.91695 -19.762014)
(2455.1749 -789.31937 -18.430306)
(2466.4775 -790.46832 -14.897088)