/*--------------------------------*- C++ -*----------------------------------*\
  =========                 |
  \\      /  F ield         | OpenFOAM: The Open Source CFD Toolbox
   \\    /   O peration     | Website:  https://openfoam.org
    \\  /    A nd           | Version:  6
     \\/     M anipulation  |
\*---------------------------------------------------------------------------*/
FoamFile
{
    version     2.0;
    format      ascii;
    class       pointScalarField;
    location    "0.3";
    object      E;
}
// * * * * * * * * * * * * * * * * * * * * * * * * * * * * * * * * * * * * * //

dimensions      [1 -1 -2 0 0 0 0];

internalField   nonuniform List<scalar> 
3969
(
8280.8263
8088.782
-473504.94
-231955.2
10238.655
8128.676
-351908.69
-716330.89
3912.0337
1768.8414
688.44677
543.29058
1288.8598
3070.0303
6475.5411
-255999.61
-253163.38
-255251.9
-258375.13
-261275.7
-263411.61
-197357.83
8375.9062
6424.737
6400.9822
6321.2723
6213.8322
6153.9611
5951.439
5939.1405
5746.2933
5751.5218
5659.9441
5672.9104
5578.6429
5542.3253
5428.2798
5324.7187
5200.7156
5009.5518
4815.3083
4573.7345
4313.1179
4040.3774
3751.6564
3444.2287
3221.5184
2960.884
2718.2833
2553.0592
2380.5251
2264.0706
2201.7457
2188.3005
2223.0143
2275.3411
2520.4469
2555.8037
2934.5935
3060.3367
3536.6578
3704.3509
4297.1117
4631.2817
5075.926
5818.4921
6132.4995
6652.6152
8287.8384
8104.1823
5283.0228
6393.5543
5502.3023
5507.5041
4916.5212
4676.6592
4233.353
3920.705
3589.5246
3226.6489
2904.3975
2583.6769
2309.379
2067.7166
1869.7514
1764.3001
1642.4022
1691.4342
1679.4449
1830.3691
2019.298
2137.6051
2451.4628
2717.2425
3106.948
3324.3589
3623.07
3931.6284
4321.3548
4704.771
5074.9567
5416.6141
5797.527
6169.0323
6490.011
6876.0025
7090.0886
7559.9115
7698.6796
8059.0552
8371.4067
8376.2828
8808.2361
8876.883
9040.2255
9070.831
4598.0019
2318.2072
828.92732
693.73568
989.91548
2503.9922
5171.2551
10973.564
8118.6654
5005.1923
7282.2876
5734.1827
5702.1594
5388.581
4743.3344
4666.7783
3969.7775
3867.5029
3728.1672
3421.7115
3099.8807
2986.9941
2782.4953
2659.8798
2572.2145
2536.4904
2534.6321
2618.806
2736.2695
2922.1903
3130.3116
3361.8554
3619.3434
3750.3556
4011.1582
4347.1457
4618.4614
4876.6063
5187.7509
5468.6281
5755.1461
6054.3995
6283.4784
6896.3366
6725.7784
6955.0484
7115.3425
7227.9493
7393.5567
7385.044
7553.8717
7539.1224
7883.8368
7098.1645
-571985.61
-475786.08
-566458.9
-521604.95
-516408.49
-458278.74
-562550.85
6894.5569
6580.0083
6882.662
6384.3253
5921.4218
5350.9201
4967.2331
4487.5067
4129.9489
3935.6012
3726.6859
2643.9882
2944.7984
2680.4595
2490.9805
2405.8995
2283.7335
2268.5009
2262.355
2310.3348
2359.952
2500.7643
2657.2066
2842.5809
3040.3833
3248.6517
3485.3655
3730.0905
3970.9671
4208.9464
4453.8909
4627.8243
4889.7016
5119.8612
5306.4231
5356.5697
5508.7847
5696.7085
5698.6697
5897.1214
6350.3577
6238.5977
6758.6224
6845.3709
6656.3801
7001.166
10736.02
6726.0371
6646.2912
6639.7139
6692.41
6729.325
6774.5929
7216.2342
5481.3498
5767.0547
6258.0713
6524.579
6374.2045
6648.9339
5665.9502
-262145.68
-262143.43
-262204.87
-262182.04
-262200.21
-262256.18
-262196.31
-534216.18
-533964.2
-534103.41
-534171.5
-534257.58
-534610.45
-535086.27
4986.2152
3899.241
4049.4728
3964.9294
3951.1162
3956.1965
3834.1378
3812.6055
3702.7609
3680.7654
3593.2646
3511.4474
3424.7044
3354.01
3224.3538
3107.0264
2998.2407
2844.81
2730.6397
2622.7381
2540.3389
2479.9651
2461.866
2469.763
2515.1297
2594.6508
2671.4134
2834.931
2973.6032
3172.8573
3377.4841
3602.0214
3820.1924
4070.2392
4333.6711
4515.9266
4915.5651
5045.7461
5423.9432
5704.7763
5982.3101
6340.5367
6747.6037
6992.2261
7778.2836
8299.161
9443.3841
2073.0446
1711.3794
1991.6487
1911.213
1972.7029
1981.1755
1931.5495
1966.1284
1898.176
1904.5264
1839.0477
1821.9852
1811.9639
1794.7154
1762.5602
1719.7561
1667.1219
1630.1407
1618.6172
1650.2216
1711.1062
1799.0959
1939.1667
2118.4482
2311.5837
2546.8121
2755.6131
3072.2125
3271.9201
3572.0227
3840.0367
4105.2296
4388.0006
4681.0192
4929.7385
5236.5663
5531.6067
5664.0755
6204.8495
6191.086
6830.7641
6962.3933
7510.3105
7774.4451
8286.7705
8367.7178
8705.6689
796.62038
435.08654
703.76892
638.61098
702.25839
729.44779
789.01826
793.48628
830.90677
869.60032
876.96513
869.57877
839.14635
804.39417
799.22461
809.32043
827.02146
871.6147
961.83769
1071.2722
1213.2414
1438.3655
1693.5516
1973.1949
2313.4496
2596.1899
2957.2853
3232.7399
3537.0646
3840.8318
4091.4579
4372.2743
4631.0322
4870.7368
5149.2848
5416.7027
5677.5363
6056.8754
6373.8666
6652.327
7183.6371
7366.5751
8017.0335
8331.9571
9429.8514
9509.656
8621.5473
427.57589
78.216387
206.15607
205.90133
236.00139
282.63599
277.84104
305.42025
302.03261
293.68323
295.90177
312.49703
324.38256
313.54266
311.72332
372.35016
429.91136
556.2243
682.40328
854.94527
1037.8891
1293.7879
1598.8141
1885.5751
2077.1614
2374.1055
2622.2412
2923.6353
3224.4731
3539.0602
3844.7309
4205.6754
4507.7885
4895.2971
5241.2691
5594.287
5999.5155
6385.1609
6878.2922
7316.3361
7795.0945
8159.7252
8710.7588
9160.2741
9657.9676
9458.6932
9352.1848
1138.6649
685.05394
785.15722
699.41528
716.01861
707.66698
696.80365
717.8615
716.92321
745.08181
797.69575
810.27915
848.11732
902.75365
984.62776
1049.4472
1138.4928
1218.743
1330.0417
1424.5705
1631.3924
1804.6604
2024.0845
2095.4532
2225.854
2330.6697
2448.0583
2572.1886
2689.8415
2827.7746
2985.0262
3162.2849
3379.8983
3590.1864
3860.8761
4194.3926
4407.5629
4971.5954
5638.0783
6383.4066
6724.519
7245.785
7672.8396
8238.6176
8569.7991
9669.6647
10823.989
2847.7386
2242.2087
2329.2577
2264.1211
2248.5831
2153.2448
2117.5201
2031.1654
1990.4601
1949.4934
1948.8611
1931.5528
1932.0475
1905.9385
1901.8402
1882.9294
1870.4368
1868.7401
1875.207
1873.5174
1856.9705
1963.4227
1854.894
1787.2021
1816.2891
1841.2029
1844.2284
1971.7604
2081.7752
2253.7351
2423.1187
2668.7133
2903.5243
3229.3451
3558.7909
3906.7415
4411.6172
4695.6188
5240.1397
6177.691
6604.1001
7227.6349
7661.9018
8302.5032
8741.9722
9247.256
10429.674
4423.981
3957.2715
3943.163
3890.0977
3766.5885
3618.2625
3420.0363
3253.1298
3131.3101
2957.5747
2918.4302
2763.4296
2722.2551
2628.6695
2588.4308
2515.9626
2478.857
2427.9178
2386.4463
2358.6881
2393.3785
2359.8335
2407.6638
2378.8201
2617.1414
2744.4107
2911.1143
3081.4172
3271.107
3456.3456
3626.8761
3865.6506
4100.0458
4342.1285
4605.6709
4952.9567
5177.0758
5662.9821
5921.8774
6040.7801
6275.9861
6759.295
7319.2782
7901.9544
8425.3753
9469.9953
9663.2396
2190.2676
2300.8573
1937.8066
1957.199
2024.8958
2138.3367
2782.8852
1088.1752
1025.4534
913.32147
941.16408
974.47392
1040.4589
1362.1544
365.58627
284.33294
194.98814
211.82346
209.66175
234.26622
447.31751
268.63436
205.46149
176.46002
171.12208
195.79576
223.73434
391.34149
529.52547
374.11751
308.24572
270.75315
294.50773
330.25516
536.45651
1700.2237
1306.9414
1171.9602
1129.1596
1176.8538
1317.4574
1753.0389
3099.4974
3048.6855
2633.4676
2651.3133
2577.1846
2712.7194
3535.6237
9347.2196
8329.289
8967.406
9542.6012
9393.935
10013.247
9399.36
7986.2018
8329.8906
7485.2117
7204.8401
8066.8216
8090.3765
8269.3153
6294.8436
6318.139
6710.0418
6629.2306
6434.899
6407.0653
6906.9717
6513.5988
7041.5615
6745.3405
6866.5034
6891.1848
7059.886
6360.3471
5806.972
5836.4166
6162.3628
6098.8901
6076.456
5925.3969
6127.6403
5559.443
5463.5191
5436.8657
5601.16
5454.1073
5431.3067
5323.3419
4969.0396
4974.3389
5175.1625
5152.0085
5227.705
5233.5539
5362.0278
4677.6916
4558.9263
4511.2456
4557.141
4479.2035
4469.197
4527.9524
4249.9648
4194.6807
4309.4217
4253.9039
4344.1752
4340.9978
4597.0588
3970.0641
3813.0158
3776.0047
3922.2297
3711.9149
3756.2165
3916.8466
3664.7413
3537.7791
3598.7339
3437.9872
3589.3611
3589.5395
3623.1791
3366.6205
3245.8995
3139.1917
3260.441
3187.7073
2958.6579
3438.6776
3082.9347
2858.2556
2977.3108
2828.4287
2905.4145
2953.0606
3110.0145
2763.0159
2624.7139
2688.8187
2535.6739
2706.0854
2476.7943
2810.2745
2558.087
2396.0323
2425.5466
2374.9519
2374.7283
2348.3074
2598.1124
2367.0432
2151.1416
2307.1393
2101.8159
2245.7942
2135.2757
2403.1611
2193.6166
2080.1002
2120.7231
2003.002
2081.0295
2012.8959
2225.5423
2142.2521
1929.5966
2091.6077
1893.5773
2013.7509
1924.4464
2130.6204
2084.6809
1963.0965
2060.691
1882.1167
1967.2171
1912.6336
2093.3004
2158.2781
1957.3259
2120.621
1897.2976
2018.5715
1954.3436
2115.9772
2239.6286
2092.7098
2201.5515
2009.5912
2108.5294
2060.6251
2187.9374
2420.7375
2220.3559
2374.9702
2152.0875
2245.8268
2192.744
2321.7107
2590.5447
2448.3568
2551.7282
2369.6692
2440.1589
2446.2691
2529.5316
2863.8119
2689.7404
2798.5923
2583.6138
2659.2465
2669.5977
2708.9955
3151.6424
2947.6237
3065.7621
2910.7996
2968.0027
2920.8874
2970.7271
3448.1308
3273.9742
3343.2658
3191.7394
3312.0216
3184.5141
3353.0043
3862.3772
3621.5837
3708.0875
3394.7322
3718.5244
3466.5445
3643.5503
4157.9632
3966.9765
3951.055
3825.1187
3897.7428
3759.7533
3892.9843
4463.3575
4286.3697
4376.0562
4111.6672
4268.483
4204.1075
4207.3202
4860.0278
4648.5604
4745.9177
4442.8771
4676.9607
4465.2202
4532.9764
5188.0291
5020.1609
5113.5894
4808.1499
5007.1764
4811.7904
4872.6467
5560.6299
5389.6491
5463.3911
5147.1106
5395.0617
5166.0323
5233.7019
5906.7409
5734.5709
5841.2773
5541.1693
5759.0019
5507.8707
5579.5922
6239.5024
6099.561
6198.0066
5868.4189
6105.0011
5858.3674
5920.7184
6582.6059
6466.5371
6531.5003
6248.144
6451.8743
6199.8391
6279.1944
6914.094
6745.9193
6885.6044
6555.9329
6828.9082
6518.8339
6543.7995
7122.4457
7133.7086
7113.2404
6963.5298
7014.6672
6699.4379
6812.2629
7344.3848
7292.5619
7347.2898
7127.2232
7268.5117
7195.515
7184.3289
7727.7654
7620.6838
7727.9438
7490.5229
7651.423
7430.4085
7493.4784
8060.1976
7848.8561
8022.6487
7726.4973
7910.7235
7634.2893
7693.9615
8208.3353
8023.0276
8225.124
7924.416
8147.3796
7849.5663
7936.2732
8436.3136
8315.3684
8418.0967
8242.12
8337.0795
8094.9993
8129.1954
8520.3307
8231.235
8498.4083
8233.2842
8432.2166
8168.475
8268.1796
8692.8597
8594.0971
8713.8914
8576.8655
8649.0605
8422.8304
8435.7268
8858.1018
8635.05
8820.7823
8621.4481
8775.4862
8552.4559
8605.3749
9033.0225
8835.7418
9043.0882
8931.4569
9015.3691
8859.7102
8865.3493
8488.0365
8408.0871
8463.5738
8378.0297
8390.5031
8287.5669
8317.6946
-315076.36
-347156.17
-347257.05
-347310.54
-347329.66
-347318.09
-347085.29
-341537.44
-341217.26
-341271.62
-341354.31
-341328.12
-368303.09
-341466.19
-369476.72
-342504.65
-342565.86
-342576.77
-342603.36
-310574.77
-342372.03
-346603.53
-346344.42
-346631.77
-346602.67
-346668.51
-346481.57
-346649.07
-350951.51
-317451.55
-350763.1
-350763.6
-350591.76
-350697.6
-350613.54
-320809.9
-381652.36
-354151.74
-354069
-382585.21
-354048.04
-354104.02
-381489.99
-353578.69
-353633.18
-353732.51
-320357.17
-353736.42
-353634.87
8307.1547
7593.1496
7261.9068
7059.3431
7308.7421
7605.4341
7546.0519
7402.1975
6948.2337
6923.7265
6879.2434
7004.2086
7083.1936
7406.9067
7217.9747
7435.627
7306.9458
7235.3466
7478.8597
7281.115
7295.8336
6838.2612
6904.0166
6985.3245
7075.0426
6995.2786
6882.9437
6880.9611
6744.3298
6761.0249
6854.1474
6825.426
6880.7679
6625.1899
6594.6274
6295.1383
6360.5711
6410.9703
6388.8483
6416.667
6307.6773
6307.0888
6282.408
6160.2457
6222.7684
6094.2109
6209.6974
6164.9909
6134.4039
5944.5126
5963.922
5940.2702
6011.4087
5878.2488
5843.7403
5883.5187
5979.3823
5804.2209
5837.8874
5754.8461
5854.0418
5684.3128
5815.7625
5841.002
5731.7226
5746.832
5682.6946
5669.7412
5631.6024
5642.6277
5781.965
5644.8125
5699.1187
5560.8789
5662.7838
5521.216
5578.317
5679.4887
5615.5488
5540.1882
5589.913
5510.1943
5549.7519
5523.8402
5636.9656
5475.6022
5483.1558
5398.4392
5429.5608
5341.2966
5273.9063
5473.9225
5451.0844
5459.9454
5385.3245
5371.4182
5304.9792
5338.3209
5352.1974
5248.0803
5265.2106
5255.873
5275.7055
5203.2664
5038.2581
5285.2877
5185.3754
5142.5952
5087.5405
5052.68
5082.6418
4909.5861
5135.7701
5043.38
4979.0832
5003.8697
4915.3056
4908.441
4716.9135
4949.8734
4843.2014
4822.9227
4789.4211
4699.4021
4733.3114
4491.0324
4697.1628
4654.7358
4576.7378
4586.4245
4477.9595
4516.3279
4238.0608
4455.1135
4424.0244
4325.4791
4374.3979
4213.5305
4291.6544
3994.5067
4175.1611
4187.9537
4071.5616
4117.5394
3931.0603
4042.0662
3715.8174
3901.2083
3934.2199
3783.7193
3861.0674
3658.5339
3791.82
3447.3874
3596.1129
3659.8576
3504.0125
3607.8583
3374.8568
3519.1173
3164.1604
3319.2859
3417.0749
3242.4662
3354.1842
3132.2854
3272.6417
2931.5818
3059.5012
3181.121
2969.7304
3142.1569
2861.1389
3037.2086
2662.0237
2811.3189
2969.0822
2744.4593
2915.0114
2639.2369
2801.9125
2484.6165
2551.5211
2793.8727
2559.4792
2704.3759
2454.3052
2610.276
2263.0361
2434.5474
2584.8443
2381.625
2555.1077
2287.6813
2443.6426
2136.3654
2265.0106
2441.1314
2287.41
2438.6851
2142.8842
2341.6951
2035.2891
2175.4044
2427.2889
2186.5816
2334.9047
2104.9301
2267.6134
1981.3023
2175.8132
2316.6542
2160.2745
2341.3942
2073.8249
2213.1512
1995.7959
2159.7739
2356.1491
2221.3393
2334.6601
2084.1658
2265.8075
2039.3258
2253.4301
2419.1873
2275.8796
2382.5039
2190.5
2299.8954
2172.4495
2382.2304
2496.8744
2409.2912
2530.73
2335.565
2470.4962
2281.399
2581.0048
2680.9983
2619.5804
2638.7093
2503.0578
2457.4935
2557.4594
2725.869
2813.1666
2775.5503
2883.1479
2715.8325
2881.8865
2694.2737
3063.6668
2917.5975
3049.6362
2815.8428
2908.3889
2826.9837
3119.0813
3398.7552
3429.5016
3356.6135
3487.3982
3198.4582
3335.3434
3413.7897
3700.2223
3784.0377
3845.1799
3744.1058
3698.8692
3701.9145
3785.8501
4169.4916
4127.1595
4050.8529
4135.1214
3995.2939
4016.4507
4182.9803
4552.118
4486.8116
4648.4397
4576.8417
4521.823
4468.8165
4657.6533
5067.2329
5150.7438
5066.1502
5070.1198
4956.3795
4905.9876
5134.4206
5604.8298
5381.2955
5486.767
5491.7093
5503.1747
5481.7621
5691.6102
6106.6859
6180.3193
6164.846
6221.3018
6081.8229
5981.4772
6181.8882
6867.3006
6609.3708
6767.0065
6676.0959
6630.2226
6644.6067
6739.3653
6581.0425
6757.7622
6671.2873
6710.1361
6704.6068
6567.8595
6707.7037
8448.0347
7949.1759
8065.0214
8030.253
7922.6406
8078.2973
7964.5022
8954.0251
5888.6707
5299.2133
5122.5201
5057.809
4845.2948
4670.1582
4505.4894
4242.6118
4125.4438
3923.0616
3694.3173
3542.9104
3368.888
3153.1593
3133.3379
2993.5105
2902.9692
2908.4034
2911.8041
2984.236
3109.0301
3276.5647
3472.0904
3720.4903
3975.47
4341.7109
4571.1805
4880.0902
5170.2332
5446.8896
5704.6435
5930.0603
6154.2364
6301.6637
6597.4285
6700.414
6901.1016
6848.4397
6990.6347
7118.2022
7202.7591
7376.5512
7491.9731
7898.1766
8327.5825
10180.919
3644.4256
3614.8581
2705.3125
2771.8272
2892.7727
2525.1685
2661.3607
2568.4443
2478.0275
2510.4721
2405.3328
2381.5062
2331.0556
2243.5119
2198.3477
2206.8252
2151.4759
2131.1151
2169.2531
2178.0871
2234.2148
2323.0409
2398.6798
2535.1986
2643.9774
2788.832
2821.4302
3110.4272
3261.9482
3440.7911
3626.3664
3845.589
4054.8083
4315.3743
4550.0412
4879.1995
5118.2698
5365.2329
5646.1663
5964.711
6317.953
6562.5902
7018.3759
7193.2044
7841.0277
7540.8948
9479.2729
1370.9045
1307.8275
965.25045
1258.4374
1073.6039
1038.4027
1164.5731
1062.8948
1177.4529
1183.2224
1200.4417
1325.0614
1412.4059
1747.8488
1896.7397
1986.5887
2113.7877
2203.9641
2308.7418
2387.849
2475.7502
2555.1498
2626.4349
2693.5936
2762.7742
2827.808
2955.3624
2964.5825
3082.7689
3151.5686
3279.9737
3370.1575
3528.1448
3655.0439
3833.6771
3988.8539
4181.6707
4441.5664
4627.1599
5027.6709
5250.1862
5765.8607
6089.5523
6711.8914
7159.8548
7870.9222
8043.4803
429.24722
424.16065
211.67562
636.47283
297.44965
533.93671
117.62195
471.70081
398.93552
478.64245
679.15627
615.26475
870.98464
1379.2284
1466.0883
1574.078
1630.3942
1679.5416
1717.0689
1742.8042
1740.2964
1754.7818
1728.1825
1789.9606
1787.9104
1873.7124
1838.7924
1910.2268
1957.9856
2074.6337
2183.285
2346.5432
2559.6514
2743.4421
3047.9977
3313.0629
3693.8108
4044.0786
4554.9779
4910.6648
5626.9958
6027.4951
6823.1166
7384.5857
8322.9434
8888.8584
8961.1073
796.75877
295.10781
493.48019
514.99099
581.26261
630.18223
754.24675
928.67908
819.23923
1135.5881
1031.3446
1275.3711
1334.9111
1449.9359
1601.3989
1634.1684
1700.0552
1737.1785
1768.8968
1784.3571
1808.6099
1797.7778
1856.0672
1816.8453
1746.2464
1750.3616
1784.1187
1864.9307
1963.648
2073.1404
2218.4989
2418.5583
2620.8579
2874.1989
3214.6842
3502.1752
3910.6497
4343.6383
4695.4241
5354.6026
5773.2804
6414.2758
7085.1889
7754.9947
8380.354
9383.556
10412.918
2207.129
1744.0345
1415.8734
1961.1435
1460.4628
1797.0312
1668.2529
1555.9443
1757.4362
1677.1365
1770.6939
1769.4866
1723.7125
1704.4785
1683.0446
1617.1657
1598.4189
1567.0327
1544.4548
1549.5024
1548.6592
1571.4612
1625.1911
1658.3597
1581.6118
1858.333
1922.8741
2092.7954
2269.6991
2471.3257
2729.5532
2981.1706
3296.7431
3624.613
4024.7239
4352.9105
4863.0796
5218.1364
5882.437
6276.4371
6881.7972
7492.9295
8084.3487
8735.6902
9325.7854
10453.841
10327.697
6272.0652
3444.9318
4349.0107
3343.2083
3896.2073
3438.3323
3367.9775
3249.4453
3044.2067
3002.4371
2893.3113
3198.8487
2880.3081
2871.8494
2672.5832
2612.7364
2489.1147
2402.2994
2323.2239
2252.778
2191.0989
2145.8449
2145.0636
2048.1142
2331.0742
2122.8736
2285.7806
2485.2441
2616.6943
2848.9015
3052.6096
3285.4485
3557.3375
3815.2058
4145.3359
4423.2229
4900.7835
5201.5245
5584.2317
5998.686
6487.769
6959.4719
7492.5882
8099.9964
8692.9148
9597.0366
9022.5933
6251.7898
5256.1675
5223.3021
5175.7783
5248.0702
5272.9974
5466.7244
5439.5521
5610.6675
5262.5526
5264.6825
5243.4166
5332.2287
5468.251
4950.3991
5356.7623
5383.5817
5330.3839
5336.9307
5345.2227
5326.8902
4812.27
5006.8525
5092.5117
5152.0354
5095.8388
5049.4586
4889.6496
4566.6377
4762.8517
4915.6615
4882.7266
4913.6169
4844.4336
4696.3759
4412.7018
4523.2698
4582.3596
4714.4519
4623.5248
4613.2123
4581.8391
4253.1834
4301.5715
4404.6526
4307.6056
4347.9451
4336.0632
4269.9137
4083.6573
4143.6519
4149.6589
4252.4848
4231.5892
4164.3279
4199.5426
3972.2243
3991.3961
3985.96
4000.2764
3933.1468
4017.1801
3991.8101
3806.0785
3822.5523
3822.1613
3824.9509
3837.5506
3844.1205
3837.0162
3680.214
3682.4233
3671.8214
3680.5302
3699.8474
3700.5028
3731.1443
3554.5733
3503.0461
3535.5336
3510.6414
3513.2819
3520.0485
3561.8994
3434.0143
3401.5966
3371.0298
3378.9745
3396.3869
3417.2401
3389.4871
3270.7224
3218.1107
3249.1459
3205.1321
3256.0525
3214.7409
3254.4558
3104.25
3112.8482
3036.776
3083.593
3032.8428
3160.3895
3072.9608
2950.7687
2950.199
2910.4113
2952.9047
2938.4508
2972.9143
2914.1939
2800.4063
2774.5514
2758.606
2759.9456
2786.8273
2847.4398
2821.5318
2644.0019
2643.0984
2633.6183
2650.7279
2662.8083
2766.6062
2665.7494
2558.5979
2534.7568
2542.2643
2547.3362
2595.3938
2673.758
2596.3797
2490.4339
2476.6459
2487.5068
2516.1421
2531.8154
2635.6401
2563.6226
2488.2624
2440.2863
2493.6752
2489.9223
2532.3314
2649.9891
2560.1172
2526.9109
2477.7022
2535.4439
2531.7807
2588.1762
2689.1501
2609.7021
2628.9517
2544.4221
2639.5546
2629.1596
2661.4293
2773.0297
2721.0267
2775.8499
2666.2384
2820.4327
2735.3478
2801.569
2916.5408
2862.7302
2957.2252
2827.2483
2946.3589
2918.6938
2950.6423
3057.6357
3039.2331
3107.1163
3016.6376
3226.8326
3095.3564
3155.1866
3291.0405
3228.1655
3397.8735
3264.7859
3382.8381
3367.9826
3367.4752
3546.6992
3513.6858
3627.6801
3528.127
3652.948
3624.6521
3639.2834
3761.6031
3778.8659
3872.5372
3741.3167
4015.0253
3841.3542
3903.0511
4050.2437
4046.216
4135.9548
4093.7955
4234.0357
4109.0273
4221.5597
4306.53
4330.2468
4424.4822
4310.6644
4522.4072
4428.7996
4478.6085
4574.9045
4609.3317
4662.0519
4624.2152
4824.9488
4667.4751
4741.0459
4851.4295
4879.5275
4936.28
4905.0133
5050.789
4955.3592
5046.8938
5117.0816
5160.8904
5194.2977
5144.7633
5331.5439
5232.8029
5278.614
5367.1921
5382.5867
5415.8657
5437.1185
5571.455
5465.3198
5549.8336
5558.8931
5676.5668
5655.6354
5659.7426
5770.3707
5748.2572
5726.6269
5885.2884
5747.0585
5862.6415
5908.3114
6055.4409
5919.4385
6054.8855
6011.4984
6274.6551
6118.3675
6154.245
6321.3486
6329.383
6280.6553
6392.0524
6307.7562
6284.337
6357.9135
6478.7064
6352.6417
6519.5068
6456.742
6560.4568
6606.834
6595.2354
6661.3666
6688.1773
6659.6662
6720.0538
6706.7606
6702.0005
6742.2585
6911.0394
6810.8125
6923.6665
6893.553
6958.6476
7097.0048
7144.4123
7155.1568
7161.6332
7151.0142
7171.594
7152.5981
7356.3951
7258.2774
7381.0735
7378.1678
7441.6526
7401.4111
7368.3432
7450.4116
7522.6981
7625.0701
7674.5525
7557.9048
7514.7677
7570.9696
8141.3909
8040.604
8201.6066
8120.2111
8115.2389
8227.7207
8036.4896
8491.1858
8830.4099
8697.3202
8791.6309
8820.2255
8730.2742
8735.8868
10132.907
9776.8772
10113.142
9989.7994
10004.032
10020.704
10100.72
2560.7688
1998.5678
1852.243
1803.1212
1810.2363
1848.0673
2034.9473
2713.2811
3015.4059
2879.8166
2934.5663
2956.77
2975.3702
3047.7074
2597.9688
2762.9037
2842.5629
2797.9491
2862.5444
2714.9414
2771.5615
2481.3291
2669.4984
2770.9425
2802.0152
2767.1938
2748.4411
2518.6297
2452.8875
2557.9857
2706.0463
2679.9112
2743.0191
2590.8658
2587.4879
2370.3764
2437.4195
2418.1924
2437.3399
2394.8353
2379.3737
2319.1684
2304.5934
2353.7721
2393.8417
2400.7693
2405.435
2357.8715
2288.2356
2286.6961
2331.978
2261.9388
2303.5593
2264.5365
2239.6415
2239.2171
2238.6882
2225.6266
2206.0431
2193.1981
2174.6823
2165.6713
2145.5847
2214.5808
2216.3735
2160.9968
2199.4629
2194.4701
2177.2924
2135.3683
2145.9581
2152.9397
2108.5769
2117.1904
2061.1947
2043.8718
2044.5479
2115.3125
2152.304
2053.5616
2089.7147
2045.6826
2062.4063
1990.5863
2051.0984
2043.2714
2049.5669
2056.2622
2006.0084
1998.5029
1913.547
2007.2792
1973.5753
1989.3613
1990.7063
1946.6978
1923.4872
1906.0997
1984.4531
1909.5482
1956.1407
1910.3412
1926.365
1857.936
1798.3311
1937.1712
1836.9896
1890.1219
1879.7246
1866.1776
1804.668
1747.8746
1874.3396
1823.1309
1840.8279
1865.2272
1796.8828
1783.7766
1734.6918
1852.0139
1802.927
1812.6822
1845.1338
1785.3663
1762.5406
1682.6311
1853.997
1827.2695
1821.8508
1860.9517
1784.1294
1763.4621
1695.6971
1882.607
1855.6131
1848.9899
1899.4912
1806.3326
1803.8322
1738.0858
1938.7528
1930.6783
1921.8719
1965.1313
1854.8956
1885.5366
1788.9526
2045.9089
2049.0512
2023.626
2067.4146
1973.1927
1983.3237
1906.3941
2199.434
2171.9498
2141.7848
2206.8928
2068.7769
2131.4641
2044.1436
2375.928
2333.3643
2319.9929
2339.1857
2252.8228
2344.7274
2228.9921
2579.402
2534.2232
2481.3895
2530.6207
2449.5272
2491.7599
2405.2148
2827.4956
2724.3052
2794.1547
2749.0153
2661.7263
2754.2383
2675.9125
3051.6059
3027.0265
2893.7704
2993.3136
2924.4178
2955.3249
2884.2621
3316.7389
3249.2909
3131.5054
3193.3125
3129.7863
3203.0707
3120.4873
3537.9179
3440.4277
3493.3108
3436.7922
3404.7091
3467.1477
3355.0497
3830.2573
3748.9839
3667.3709
3679.6836
3665.6806
3691.0142
3603.7817
4083.4927
3948.2922
3945.2297
3960.2759
3912.1931
3944.1224
3856.5429
4325.3958
4262.9967
4225.1243
4203.6495
4180.2099
4224.4292
4124.0974
4611.9477
4518.7645
4464.5914
4474.4432
4462.0616
4484.7392
4351.0718
4859.6332
4784.0655
4765.5557
4743.6443
4726.3529
4721.2476
4628.7254
5116.1694
5086.5566
5011.868
5016.5339
4984.3881
5028.7254
4885.8505
5405.0261
5298.2123
5327.1045
5265.225
5289.5297
5286.2166
5159.1928
5615.8826
5686.2703
5574.6384
5570.4419
5569.4563
5524.0653
5386.4429
5910.9901
5810.0009
5826.4871
5852.0545
5785.5032
5898.0412
5715.0711
6210.9768
6237.4238
6223.5601
6160.9076
6136.7991
6154.1661
5961.1662
6431.4623
6388.8622
6353.3675
6366.164
6329.4901
6433.7848
6227.577
6840.3749
6848.3447
6833.681
6837.7481
6802.5111
6794.8025
6596.7673
7048.9815
6995.1262
6975.1542
6932.6264
6872.9253
6973.2195
6808.1242
7417.2522
7475.8706
7453.1316
7508.0919
7520.7167
7544.9095
7301.1715
7664.9139
7565.8105
7620.609
7566.016
7445.3173
7527.0742
7387.9367
8193.2439
8265.6352
8219.3129
8169.6009
8213.9284
8479.0686
8258.2573
8187.8511
7733.3578
7980.9441
7834.3597
7830.8775
7902.0271
7610.4343
9166.7388
9263.9156
9166.8735
9099.7169
9091.7628
9113.8698
9118.8174
979.97749
774.86228
698.82853
683.23545
660.68248
665.37997
720.83366
830.37892
999.93737
979.09036
1017.952
1014.2927
980.05802
1058.0429
1034.0982
1053.752
1062.6608
1079.3254
1079.3299
1007.5566
1045.9062
937.16401
1045.4515
1211.4757
1275.6265
1251.4464
1241.1036
1118.6769
1034.3253
1060.8029
1091.3374
1045.0033
1064.1794
958.05557
1060.3401
999.87401
886.96436
985.9381
1062.6359
1023.4091
1019.9542
966.05361
1070.416
965.8999
1085.4292
1074.4275
1067.1926
1049.5521
1029.2928
1075.2546
930.25978
969.85342
919.35941
932.35328
951.51671
917.35463
1062.0972
944.54753
1017.4736
1024.1275
1021.1286
1037.2638
979.23556
1102.9096
960.77354
1018.4575
969.03161
935.73532
967.39772
961.95867
1125.2254
968.30407
1025.3961
965.56928
975.98296
994.35565
967.94634
1182.9145
961.03751
1055.3119
999.87417
1035.9472
1029.3285
1047.0898
1199.608
944.89744
1069.262
1036.2871
1035.737
1059.6067
1085.6229
1141.6186
1104.8412
1144.6731
1058.9057
1087.7961
1159.3513
1090.3903
1103.529
1147.3055
1164.0307
1132.4447
1100.1491
1198.1221
1172.5944
1112.7938
1213.953
1223.1083
1203.4671
1158.8111
1255.8269
1230.6914
1191.5121
1251.5695
1316.5962
1266.223
1219.6901
1348.1924
1290.7377
1251.2398
1340.031
1397.497
1338.4443
1300.7379
1448.1493
1355.9137
1364.604
1446.2215
1510.0903
1458.1484
1426.6338
1558.1611
1472.3923
1471.8469
1562.7684
1622.5444
1575.2304
1539.5528
1689.6558
1582.4778
1609.7858
1729.8251
1788.0841
1736.3004
1722.5748
1848.9997
1732.3574
1772.1666
1902.5094
1944.8078
1910.3935
1884.1634
2020.6935
1885.848
1948.0776
2095.677
2147.8376
2103.3755
2088.8108
2207.9316
2070.771
2137.5822
2311.0235
2353.4387
2322.8277
2306.8285
2398.7308
2199.5305
2358.9958
2503.9547
2563.4919
2545.7792
2525.1528
2590.9012
2435.1746
2529.1548
2704.7721
2794.3861
2736.2164
2722.8931
2837.1449
2599.7316
2798.9712
2949.4929
2993.782
2934.7724
2985.5939
3012.291
2824.5818
2951.4233
3121.0387
3210.4689
3200.9745
3157.3555
3246.1535
3013.3551
3214.1081
3353.0885
3471.5945
3333.9809
3421.1732
3441.4691
3237.5279
3438.3886
3587.4634
3598.3073
3572.259
3627.2684
3619.214
3453.5533
3659.6572
3754.6132
3850.6195
3795.616
3846.0105
3854.6208
3693.1906
3904.9054
3999.5725
4071.0581
3979.733
4071.4924
4033.9374
3896.3859
4151.1177
4199.7804
4254.9327
4206.7044
4288.766
4227.1304
4143.9868
4382.0763
4415.0878
4494.0033
4422.8676
4519.6576
4461.523
4395.1999
4675.5041
4645.5974
4714.9079
4645.1048
4765.7001
4663.861
4617.6435
4901.5756
4895.3744
4957.2916
4880.9293
5022.8115
4873.8198
4909.3509
5219.9754
5134.8422
5182.3496
5147.4547
5252.1475
5118.7111
5158.0948
5539.3157
5364.5955
5538.0529
5381.9429
5593.5843
5371.5883
5460.2374
5764.616
5743.6848
5746.5677
5672.6378
5827.3928
5631.3671
5739.7632
6258.1529
5927.5133
6151.5096
5992.0635
6240.9191
5994.5028
6101.8838
6443.9634
6364.9132
6442.1813
6324.481
6474.5061
6196.7414
6376.2051
6924.0747
6659.7997
6839.4689
6688.7507
6898.2511
6737.3364
6894.7006
7294.1752
7133.7242
7170.1386
7095.4453
7259.7348
7029.2401
7138.0616
7775.0043
7584.9232
7715.8345
7612.5722
7702.451
7507.5417
7747.3733
8407.4622
8185.0132
8179.0264
8097.5957
8195.7064
8144.7481
8082.471
8637.4659
8674.4566
8690.0883
8652.3184
8877.2633
8584.539
8672.0212
8202.1453
7939.8748
7894.6891
7787.5812
7975.6303
7693.4445
7947.169
379.94375
348.85908
312.80541
310.66311
275.88465
247.84507
155.57646
207.38675
438.56885
501.72345
557.85209
524.28718
481.0186
432.16593
314.22077
379.18724
396.06568
437.60936
417.86731
361.4831
270.28381
307.37945
504.4887
647.50217
715.63469
683.60013
652.11465
534.58649
307.27563
341.67726
303.54276
298.19981
257.64001
272.70991
265.15823
377.85774
432.36209
444.88044
552.66024
561.79128
546.24676
508.67195
407.58103
364.2578
300.26336
340.85004
304.19196
274.73728
346.00987
541.25454
474.14238
431.39267
478.54775
468.43613
497.03093
478.8914
606.92307
511.31699
470.45328
435.18567
509.04552
444.11343
568.53559
688.44036
593.88227
503.76284
529.21045
561.62093
566.14515
552.16636
770.00991
625.0045
670.80148
600.34221
738.88951
667.16936
730.18459
867.72974
753.16958
715.208
627.99406
755.43172
703.27564
768.46889
968.14107
789.27801
726.22388
771.30407
888.01939
789.22198
849.31934
1042.4915
929.4917
649.92737
771.03934
872.73317
848.80839
830.1228
941.99879
942.23499
1001.0938
856.45438
982.46609
897.97129
933.26999
1034.3891
992.3946
1059.8845
953.06148
1037.4187
1006.369
1019.3372
1125.677
1096.3108
1140.0824
1043.4561
1130.7158
1084.398
1104.6728
1235.526
1184.68
1225.7446
1135.1811
1211.5196
1171.4662
1196.8148
1334.1219
1274.5627
1325.1365
1231.0202
1317.7553
1273.0533
1285.8188
1461.7892
1379.1247
1418.176
1329.7336
1409.0726
1353.8007
1378.8987
1602.2367
1468.6955
1534.3778
1453.2327
1512.2527
1472.4308
1481.6167
1741.1385
1596.7288
1655.9972
1544.6792
1624.8445
1571.8762
1588.1475
1873.5333
1717.876
1758.7757
1674.7156
1743.0185
1686.5211
1670.084
2063.3259
1846.488
1886.5675
1790.3752
1856.7805
1818.265
1858.9415
2195.889
1996.2885
2032.1679
1916.6823
1956.2917
1967.0896
1958.3047
2363.1529
2171.1376
2188.3307
2059.4959
2146.4706
2095.7026
2100.972
2494.8415
2336.5341
2335.3439
2213.8767
2321.7085
2238.006
2259.0743
2722.2747
2465.2189
2534.8692
2382.2443
2495.2586
2412.8863
2423.6411
2914.5481
2693.1585
2705.8269
2587.0209
2657.4893
2585.8322
2578.0685
3109.9232
2891.5629
2881.8764
2786.4078
2878.4552
2808.3531
2766.0082
3335.5784
3106.7365
3112.1032
3032.0517
3097.6271
3009.801
2961.6437
3586.3287
3372.5641
3348.3224
3271.266
3290.503
3238.2338
3166.2833
3822.041
3595.6432
3580.4671
3511.9807
3563.3621
3542.4396
3432.8222
4130.5831
3896.6933
3869.8603
3822.0468
3834.6386
3780.8702
3663.8989
4399.9261
4177.7785
4150.6019
4108.6049
4098.9674
4101.3617
3959.1743
4731.23
4493.7326
4445.856
4424.5271
4420.8865
4388.4492
4273.0618
5093.5348
4843.6846
4793.737
4825.1715
4711.0221
4807.0108
4596.6923
5351.5496
5168.4562
5135.6096
5080.5815
5079.2844
5099.2568
4965.4293
5774.9554
5673.285
5512.5989
5638.8053
5488.1601
5606.3824
5407.5046
6010.8001
5957.7303
5898.1118
5881.0257
5821.6646
5883.0323
5726.5659
6536.0815
6626.8652
6384.9746
6536.6027
6364.0513
6533.8447
6356.4729
7061.8451
6923.2802
6845.1826
6824.4674
6765.1796
6889.1402
6713.9645
7532.2722
7604.0458
7405.9164
7538.6998
7431.3139