/*--------------------------------*- C++ -*----------------------------------*\
  =========                 |
  \\      /  F ield         | OpenFOAM: The Open Source CFD Toolbox
   \\    /   O peration     | Website:  https://openfoam.org
    \\  /    A nd           | Version:  6
     \\/     M anipulation  |
\*---------------------------------------------------------------------------*/
FoamFile
{
    version     2.0;
    format      ascii;
    class       pointScalarField;
    location    "0.45";
    object      E;
}
// * * * * * * * * * * * * * * * * * * * * * * * * * * * * * * * * * * * * * //

dimensions      [1 -1 -2 0 0 0 0];

internalField   nonuniform List<scalar> 
28033
(
33839.22
33154.909
-1979531.9
-928835.35
42013.749
38307.879
-1400692.3
-2971240.1
23675.416
16538.648
11543.047
8283.5697
5213.3268
3506.1419
2569.0158
2328.5832
3259.4286
4602.8738
7303.3559
10915.241
15507.595
20728.697
31156.739
-1097684.2
-1091947.1
-1087469.9
-1084178
-1080665.3
-1076981.1
-1073996.1
-1070558.7
-1067276
-1064023.5
-1060858.8
-1057593
-1054131.2
-1051351.6
-793837.12
28483.218
19419.074
19259.387
19500.934
20342.338
20744.742
21212.361
21377.061
21521.901
21510.179
21419.204
21252.802
21029.156
20774.412
20472.78
20143.31
19820.223
19466.421
19132.926
18736.364
18415.773
18034.33
17660.559
17311.845
16916.068
16613.509
16181.733
15880.743
15516.359
15170.406
14858.94
14536.798
14249.499
13876.349
13618.116
13348.081
13085.284
12871.366
12613.367
12420.162
12192.178
11995.059
11822.015
11643.261
11481.898
11326.158
11169.088
11022.091
10869.345
10726.884
10575.131
10433.625
10285.834
10143.678
10003.309
9866.4877
9735.3507
9610.7252
9497.4376
9394.155
9300.5182
9230.1014
9168.7576
9159.0012
9087.9864
9119.1433
9155.0948
9105.3043
9203.2983
9229.0818
9305.8294
9319.1345
9460.0827
9474.2875
9677.6214
9704.1276
9953.1705
10033.185
10312.478
10451.181
10807.233
10907.323
11369.171
11497.477
11993.989
12293.612
12909.108
13189.364
13934.568
14618.935
14757.317
16018.123
15781.274
15317.382
16417.763
26321.579
16488.281
18757.977
18088.428
18940.168
19366.956
19624.913
19905.306
20067.688
19961.829
20001.702
19742.144
19564.747
19329.454
19031.852
18781.155
18405.472
18099.021
17786.038
17439.34
17073.779
16786.764
16374.553
16107.032
15715.82
15418.493
15054.203
14688.523
14362.83
13949.076
13642.609
13292.238
13016.243
12735.301
12483.66
12220.281
11900.042
11677.668
11410.272
11241.647
11011.557
10834.768
10651.738
10483.036
10317.145
10162.994
10007.382
9858.5164
9712.3254
9563.6257
9422.2159
9276.6352
9135.3812
8994.617
8858.1798
8721.9143
8594.6574
8473.7129
8355.2214
8260.1837
8159.6325
8092.869
8014.9365
7986.8093
7932.4946
7957.6111
7953.5661
8038.4836
8076.853
8035.6655
8160.0597
8151.4541
8333.9483
8378.0431
8570.2871
8627.1914
8865.8555
8972.2999
9202.362
9401.6452
9640.6464
9920.5915
10184.277
10573.14
10836.817
11334.693
11690.059
12178.638
12629.634
13314.51
13537.574
14324.957
14919.432
15439.297
15660.845
27927.845
19049.096
13914.665
10942.279
6521.2655
4348.5172
3341.438
3003.4441
3805.6372
6000.3247
8147.2728
12230.058
16978.845
23896.731
30189.693
49227.544
21846.321
15285.451
21031.846
19016.433
21150.513
20555.547
21534.167
20996.905
21467.632
21305.21
20881.968
20931.017
20376.611
20490.423
19902.967
19718.314
18924.608
18968.998
18239.634
18019.227
17636.666
17189.355
16924.427
16506.536
16093.25
15858.105
15240.23
15093.32
14584.79
14303.685
13961.687
13635.527
13334.538
12885.598
12892.045
12390.358
12208.859
11939.507
11708.705
11491.601
11289.139
11088.935
10910.55
10731.494
10563.63
10393.729
10231.468
10063.228
9901.6337
9734.4551
9570.8857
9403.8448
9238.0395
9072.4154
8907.4228
8747.1799
8591.6677
8442.6078
8304.4686
8177.3495
8061.8977
7965.7124
7879.8179
7810.0335
7778.6798
7718.54
7462.7828
8153.6946
7687.541
7726.1093
7715.024
7753.6707
7791.2025
7840.9737
7897.9191
7985.5088
8078.7236
8206.0681
8356.9087
8523.3845
8746.411
8961.9956
9262.7638
9536.6444
9925.1125
10262.715
10730.85
11169.817
11729.182
12226.878
13002.026
13591.103
14752.062
12882.671
-2254859.6
-2119040.1
-1887173
-2274686.3
-1898766.3
-2288755.3
-1910789.3
-2158038.3
-2310327.4
-2173260.9
-1935500.2
-2334088.5
-1948715.6
-2353217.4
-2218420.4
12154.236
14810.476
16021.924
15429.624
14709.66
14077.153
13457.527
12939.526
12415.264
11986.268
11608.123
11224.012
10921.195
10551.714
10291.067
10011.623
9818.7591
9616.4369
9465.3735
9325.539
9203.6307
9103.1209
9022.3468
8947.8383
8889.3592
9015.1548
9101.0025
8476.7411
8854.7044
8849.112
8892.89
8950.7796
9011.9659
9093.0633
9185.6845
9291.3131
9407.6
9534.8949
9672.7059
9814.9808
9967.6428
10120.991
10282.06
10441.687
10606.388
10769.557
10935.703
11099.513
11268.987
11437.248
11606.911
11784.217
11974.052
12150.349
12352.886
12576.465
12873.149
13122.436
13236.474
13651.269
13925.479
13992.344
14534.611
14877.765
15133.319
15604.307
15807.752
16204.506
16603.534
16998.347
17391.254
17675.895
18114.169
18520.001
18726.101
19234.554
19473.43
19951.848
20164.988
20545.475
21047.204
21236.536
21374.469
21813.152
22070.307
21746.987
22224.935
21923.354
21690.787
20726.829
20773.545
20697.721
20042.839
17110.118
32347.996
24483.343
22790.73
21948.235
22009.351
22424.963
22788.655
22715.787
22962.604
22989.618
22891.708
22267.898
21866.381
22471.143
23298.745
25982.329
22731.116
22981.964
22224.273
23291.398
23215.983
23065.696
24516.322
25951.07
25300.862
25041.567
23799.812
22882.494
22566.791
22157.349
25242.428
-1046555
-1047070.4
-1046822.1
-1046934.9
-1046954.7
-1046957.5
-1046983.6
-1046974.1
-1046950.7
-1047008
-1046957.1
-1047037
-1046935.7
-1047109.7
-1047217.2
-2227994.3
-2228424.4
-2228699.4
-2228788.3
-2228576.1
-2228672.2
-2228721.9
-2228730.9
-2228764.3
-2228720.5
-2228744.4
-2228842.6
-2228716.2
-2229377
-2228392.7
21896.952
17243.905
16215.136
16199.446
16476.494
16827.737
17137.877
17405.523
17527.442
17634.632
17576.189
17540.191
17355.544
17213.892
16942.475
16734.173
16444.286
16174.07
15871.258
15603.693
15308.271
15002.491
14740.735
14415.337
14153.013
13855.189
13561.932
13297.562
13018.549
12755.405
12459.949
12236.938
11973.23
11763.13
11575.704
11329.601
11162.611
10930.468
10786.34
10611.504
10455.053
10274.16
10169.691
10001.09
9896.2313
9753.7225
9645.1478
9527.2419
9419.9484
9312.3058
9212.0188
9108.9339
9012.3815
8915.8992
8824.3357
8735.4732
8654.4612
8579.7677
8515.3893
8461.2863
8418.7713
8390.5049
8373.1999
8382.8437
8320.3583
8436.8392
8528.3236
8668.7086
8745.5092
8766.4833
8955.4614
9027.6619
9242.2276
9345.5961
9529.8853
9708.3867
9871.9842
10133.954
10264.67
10646.414
10764.071
11204.434
11588.481
11795.015
12204.981
12536.244
13101.475
13424.147
14239.89
14228.98
15336.846
15596.341
16102.701
18200.241
18388.459
14781.129
12624.906
12785.165
12454.872
12695.539
12710.141
12901.578
13025.748
13129.813
13172.039
13162.564
13142.456
13038.591
12927.41
12755.497
12619.355
12402.541
12213.858
11990.195
11787.763
11547.368
11342.42
11123.754
10899.958
10688.839
10487.495
10278.52
10065.763
9873.6214
9685.8401
9494.1329
9329.395
9148.5749
8967.4472
8796.8053
8616.4715
8512.1475
8344.9867
8233.5249
8089.8254
8006.4382
7859.9336
7786.2828
7667.7254
7597.0218
7517.0383
7445.0582
7385.5724
7324.8658
7277.0084
7227.3498
7186.8098
7147.9742
7114.2048
7084.2036
7060.3224
7042.3902
7033.351
7031.0279
7046.3106
7066.0879
7111.8038
7168.3734
7241.9545
7298.2381
7585.8978
7498.2396
7785.1562
7917.304
8107.7193
8289.8458
8398.492
8617.0153
8785.921
9054.4465
9252.4018
9524.3073
9777.5823
10073.08
10340.855
10728.602
10948.683
11470.816
11764.827
12450.787
12753.764
13433.753
13738.906
14352.686
14875.846
15631.604
15714.201
17206.666
17085.769
17927.615
9576.5633
8279.8255
9132.4622
9023.0542
9227.5433
9109.3948
9218.5805
9258.6451
9285.1685
9322.7125
9314.0629
9302.5048
9221.5524
9157.9476
9051.2782
8931.5069
8792.5946
8651.618
8503.2113
8357.255
8210.4449
8044.8754
7906.8947
7729.088
7601.2743
7439.8766
7291.9078
7151.8386
7026.1023
6884.8471
6753.6518
6637.7412
6513.8581
6406.1734
6319.4056
6193.8646
6087.5794
5942.7995
5895.8758
5825.4378
5711.7939
5680.6816
5623.3646
5555.702
5525.5815
5474.3437
5443.2476
5424.065
5401.0986
5394.4997
5387.1587
5389.1529
5394.1489
5405.0903
5420.7382
5443.7238
5471.565
5510.2792
5555.9826
5616.2224
5687.4023
5774.1405
5880.6012
5987.3936
6162.6083
6280.2784
6645.6568
6907.4475
7039.494
7207.9559
7431.6345
7668.8608
7970.3111
8193.4369
8493.5282
8712.618
9042.594
9308.335
9619.6657
9960.1544
10256.12
10688.634
10946.851
11437.526
11846.974
12445.387
12902.916
13291.051
14126.815
14267.517
15149.315
15644.901
16430.95
16944.792
17673.227
6269.0009
5167.1645
5737.0949
5963.9254
6093.1271
6103.6817
6158.1035
6177.8237
6171.7478
6213.2982
6177.3905
6191.3909
6126.7469
6115.2771
6008.0592
5974.1393
5858.5416
5787.491
5669.4644
5580.1314
5462.1362
5373.4094
5265.6061
5176.5104
5079.5928
4985.3942
4903.1969
4811.9798
4718.6145
4643.924
4562.2077
4488.4317
4416.9004
4345.4664
4296.7163
4176.6349
4209.8715
4180.6688
4207.1057
4132.0419
4128.1682
4073.5804
4049.472
4034.3655
4047.6605
4040.2494
4062.7645
4078.713
4104.6507
4141.0528
4178.251
4227.4009
4277.0743
4336.9485
4399.3578
4472.2697
4547.2485
4639.4917
4730.4922
4849.233
4963.6081
5110.8072
5261.2913
5444.6621
5617.0165
5869.4835
6023.841
6344.1283
6545.894
6815.4982
7162.886
7437.3521
7614.3986
7869.0914
8224.2376
8501.9676
8954.4672
9145.63
9686.3912
9863.4249
10452.499
10626.36
11321.436
11447.554
12035.118
12338.155
12991.494
13416.553
14135.852
14320.974
15642.543
15345.294
17032.868
16649.069
18016.193
4067.7897
2848.5583
3392.6732
3395.0674
3638.7483
3605.4147
3674.3921
3639.1428
3665.621
3667.9309
3669.8257
3669.7409
3651.3684
3627.4915
3592.222
3553.569
3492.4494
3451.8372
3387.4627
3336.3489
3280.6498
3219.236
3168.2642
3104.9664
3050.749
2995.7304
2946.7607
2889.8
2861.2765
2810.3314
2772.5462
2738.7409
2697.322
2675.3625
2635.6681
2586.9595
2693.763
2502.8952
2666.0946
2695.5498
2668.0861
2652.9777
2676.9455
2671.5178
2684.4576
2690.2617
2724.8788
2751.1359
2796.9983
2844.2241
2900.7798
2963.312
3031.4249
3107.1673
3188.0375
3277.3081
3372.7063
3481.0269
3593.8853
3725.6591
3869.6162
4022.3014
4197.5426
4404.296
4595.7704
4827.146
5156.7722
5321.737
5654.4812
5892.7656
6261.8097
6542.9832
6950.8827
7447.839
7754.4476
8160.1977
8489.9699
8874.8141
9258.5156
9640.9613
10006.468
10536.596
10756.953
11436.482
11691.003
12350.938
12824.954
13295.959
13982.492
14507.477
15274.716
15503.757
16720.551
16545.025
18038.548
2531.5768
1434.215
1592.0023
1573.5963
1710.9805
1756.2435
1773.4878
1823.765
1819.0648
1864.1866
1842.5046
1883.955
1849.26
1880.8258
1836.2633
1851.7152
1807.7352
1809.1119
1760.8729
1759.7816
1716.326
1707.3338
1671.2607
1654.651
1631.2325
1619.1159
1591.5194
1583.0816
1557.8018
1540.9966
1533.7394
1516.0338
1512.1589
1507.8229
1492.8766
1524.834
1490.1388
1685.9053
1761.0338
1692.3284
1732.3514
1734.5679
1771.0642
1804.3573
1841.6746
1888.5502
1943.776
2007.8878
2078.4476
2157.8663
2242.0299
2335.7646
2434.2235
2541.1076
2653.2544
2775.7402
2903.0802
3045.2882
3191.5954
3361.0814
3526.4009
3732.7164
3933.0736
4155.8526
4408.5416
4674.2643
4937.7953
5242.8553
5574.9171
5895.8048
6192.7901
6540.2764
6815.5156
7089.8141
7553.0282
7888.1708
8328.1412
8616.3494
9144.4847
9346.5364
10016.507
10131.749
10897.606
11094.525
11773.523
12225.284
12765.526
13281.196
13993.087
14214.02
15263.964
15267.963
16869.906
16351.252
18125.793
1853.6383
601.96497
649.1104
438.78749
547.25536
522.84509
595.5134
589.02607
636.12142
650.22557
677.21085
697.37152
713.77505
720.20356
721.41577
727.49569
707.32596
712.74457
690.98485
689.29512
671.92422
667.81655
649.44581
647.89541
644.29402
630.03683
635.39282
631.31081
634.96967
641.32213
642.23071
648.24875
659.68475
657.79624
684.63442
679.18166
723.39688
703.23412
772.32352
739.74368
836.24145
863.54452
919.93523
972.05017
1025.7567
1085.8522
1162.2925
1235.4409
1325.2656
1416.2684
1519.9725
1626.0482
1743.0845
1863.9323
1994.804
2131.9909
2277.8394
2437.6628
2601.6806
2785.9768
2980.5253
3194.3324
3412.4034
3673.1147
3926.5509
4205.7986
4515.5041
4826.1968
5171.8919
5477.6422
5910.5636
6198.1216
6605.4189
6967.9433
7352.5265
7784.0278
8079.6179
8593.4501
8892.1112
9424.5327
9746.1462
10296.118
10667.726
11190.026
11638.379
12128.579
12619.685
13176.235
13784.515
14264.627
15336.474
15457.071
16743.584
16294.67
18325.567
1601.8843
418.41089
248.08917
66.944535
55.750583
92.334853
103.81216
146.40832
179.74636
223.90739
236.30137
289.03234
286.29177
325.49497
326.94491
351.7549
345.0885
374.88183
356.57132
382.89928
363.16905
374.84792
374.51843
399.36711
390.42774
411.40299
416.16011
424.28968
434.72075
440.1044
453.33565
470.38835
474.06909
501.48157
514.63734
535.84916
557.1845
610.81362
614.63905
642.98114
678.56099
699.9993
743.11576
798.32858
856.36635
933.79737
1008.4795
1094.8553
1186.1828
1286.4628
1391.9073
1507.0229
1626.1829
1755.4393
1890.5174
2033.9103
2186.958
2351.9189
2520.6176
2718.408
2911.6951
3132.9743
3369.2735
3624.0931
3881.0785
4185.4559
4480.6312
4799.3806
5117.2138
5496.3999
5794.4421
6189.9039
6551.5189
6906.2294
7301.545
7659.5488
8089.5695
8459.0825
8885.9944
9228.7867
9778.8177
9987.5737
10718.462
10879.103
11629.616
12014.088
12603.102
13284.624
13715.211
14383.558
15030.528
15012.43
16583.726
16236.63
18320.048
2057.0488
739.45692
570.91309
324.72482
296.70701
278.87309
292.58476
296.78272
326.8787
345.55862
373.77376
392.88972
415.82101
427.55491
434.3483
443.0442
434.71162
441.51423
431.31923
445.11486
469.05178
503.00524
484.0326
472.28754
467.42635
468.92722
464.30813
467.28697
475.18185
474.9078
489.66253
484.67235
499.01337
513.66496
509.4448
540.64307
545.2732
576.06904
590.42398
622.20249
652.42594
699.34025
748.81926
798.40239
857.80119
912.82648
986.7732
1060.2341
1149.3373
1239.1566
1343.8319
1448.6243
1566.1007
1687.6643
1818.0261
1955.3462
2103.5247
2258.3591
2427.9414
2610.467
2798.8843
3019.5819
3238.9607
3486.7643
3749.1969
4037.7092
4325.622
4641.6741
4998.1565
5304.328
5693.5754
6057.3459
6363.8255
6813.8903
7205.5731
7677.6811
7965.7033
8480.0938
8708.8891
9358.1992
9525.8985
10186.057
10547.384
10936.879
11671.008
11819.149
12621.25
12935.2
13474.815
14216.123
14720.117
15418.814
16559.393
16216.457
18239.297
3103.208
1784.375
1600.1947
1428.5268
1410.9659
1410.5487
1422.7313
1417.4174
1464.486
1505.199
1515.8915
1570.2229
1583.2987
1599.8032
1617.0852
1616.0233
1606.619
1614.7017
1574.1044
1568.3842
1567.0514
1500.8358
1440.556
1426.8653
1429.1693
1411.9133
1399.9965
1395.6003
1382.2243
1373.3087
1363.9154
1357.3814
1358.4591
1339.4344
1360.7657
1348.2769
1358.1273
1369.4301
1373.3886
1399.9238
1414.1883
1447.9156
1463.4021
1509.5355
1547.0177
1604.7693
1662.6603
1731.8584
1803.7743
1887.1432
1974.2387
2069.5854
2172.046
2281.0098
2396.6907
2521.9307
2652.7146
2797.7533
2949.0849
3115.898
3296.8512
3496.1608
3699.8268
3944.7087
4174.7519
4450.8318
4718.1858
5045.1637
5323.239
5674.3475
6007.3957
6335.7243
6695.0454
7121.5422
7330.2813
7619.8268
8067.6443
8375.8094
8917.3994
9129.9985
9732.6527
10008.333
10532.642
10951.032
11450.388
11921.45
12444.284
13111.886
13480.637
14280.817
14771.388
15239.89
16034.204
16084.414
18298.173
3579.1201
2840.0167
2640.6389
2629.9289
2589.3548
2601.7377
2543.2332
2546.9929
2569.1146
2584.8992
2583.2079
2626.8448
2608.9582
2616.3492
2600.3807
2573.4112
2550.0223
2512.5287
2475.3778
2438.6406
2453.1293
2679.6468
2651.7495
2656.3302
2617.7872
2558.9031
2534.0546
2469.0018
2442.8108
2390.564
2363.101
2336.1537
2279.5223
2277.2954
2222.3211
2206.9254
2180.1314
2161.7174
2149.8747
2134.3028
2134.6367
2125.0193
2142.1977
2146.5191
2171.5281
2189.753
2225.6768
2261.1653
2311.1236
2362.9983
2426.8456
2493.3922
2570.8384
2650.9354
2742.1185
2836.6529
2943.1374
3056.7925
3179.5236
3318.1882
3467.9851
3629.3312
3815.2123
4018.1828
4228.5673
4477.5796
4733.0859
4991.0098
5285.3455
5591.2737
5893.0301
6235.1019
6561.1633
6908.6451
7431.5258
7768.5791
8092.0843
8525.2873
8794.8805
9344.6745
9606.7496
10177.426
10516.046
11055.421
11523.926
11985.176
12650.77
13000.132
13708.147
14269.148
14653.314
15484.25
16224.819
16726.286
18017.173
7513.979
4984.8378
5245.3519
5141.5617
5183.0671
5071.1607
5107.916
5090.815
5118.1762
5145.0601
5174.4129
5182.5099
5189.7392
5155.2539
5150.9021
5074.6815
5037.1869
4962.5339
4883.7757
4826.8895
4707.7972
4655.8629
4942.7293
4925.0397
4845.052
4782.8745
4696.3777
4621.9309
4548.4456
4458.4381
4408.5103
4308.546
4260.7391
4180.9565
4130.8708
4073.8425
4017.5635
3976.2167
3919.7769
3896.6188
3846.0324
3834.3992
3800.2121
3793.6225
3780.7053
3784.3605
3788.6768
3805.7733
3824.3449
3853.9503
3887.586
3928.0757
3974.8239
4026.9847
4085.775
4150.4835
4224.0021
4304.5146
4395.1863
4501.5406
4611.4018
4750.293
4889.9111
5066.4219
5230.7379
5449.2953
5643.6554
5903.6308
6146.398
6416.729
6696.5601
6977.4789
7300.4937
7592.8313
7894.3882
8197.0507
8528.127
8823.052
9217.5949
9537.0995
9907.7344
10317.964
10632.404
11172.11
11416.317
12095.748
12301.332
13020.007
13426.512
14033.254
14606.034
15361.312
15834.985
16250.164
18097.556
11226.5
9196.8243
9056.7126
8880.4268
8685.8483
8672.2304
8666.5926
8645.8334
8737.5196
8741.8306
8753.0631
8766.1008
8698.8669
8656.5069
8570.5165
8431.7713
8351.1035
8173.5004
8064.8397
7903.0387
7766.3419
7635.2754
7437.9548
7293.058
7163.4378
6969.9728
6862.6794
6691.166
6540.8904
6423.3059
6265.9672
6171.0374
6024.8622
5932.7845
5799.2496
5680.8413
5586.0097
5474.662
5399.8813
5293.9241
5233.503
5146.1464
5089.2165
5020.748
4969.8093
4917.1257
4876.8943
4838.9962
4810.8511
4786.9641
4770.8912
4758.4185
4754.4211
4752.6677
4760.1885
4771.1268
4791.7706
4818.1545
4857.3902
4903.4367
4965.9971
5039.8135
5128.8914
5240.1043
5364.3079
5523.4602
5690.9866
5872.6483
6053.7522
6284.1633
6489.7841
6775.5284
6988.6072
7278.3337
7576.3498
7832.5078
8130.7124
8472.9859
8769.6919
9141.5609
9503.588
9887.8504
10309.79
10743.367
11205.152
11720.85
12165.709
12898.166
13163.777
14076.609
14324.14
15241.081
15246.757
16780.117
17975.014
15905.625
13198.575
12784.126
12356.464
12601.107
12591.779
12742.55
12908.431
13062.865
13106.282
13172.957
13127.264
13087.604
12976.494
12836.793
12678.567
12491.723
12291.051
12089.693
11862.487
11652.569
11414.076
11195.789
11012.734
10782.862
10577.365
10395.354
10161.21
9984.7732
9757.9842
9589.8752
9369.2751
9189.9417
9024.2093
8843.5089
8693.935
8540.0626
8410.6974
8252.4971
8143.5992
8010.9605
7905.8077
7796.9587
7702.7315
7610.2264
7529.4369
7449.4469
7379.9007
7312.2622
7251.0904
7194.3126
7140.5731
7091.9776
7045.5157
7005.6844
6967.5921
6937.7365
6915.4996
6897.8755
6898.7982
6901.6974
6933.0759
6960.2064
7029.9734
7077.6123
7186.6534
7280.5627
7421.8657
7561.9051
7713.7019
7919.6321
8059.674
8301.9042
8477.6563
8743.0746
8923.1619
9226.3778
9440.775
9736.3745
10037.364
10320.649
10695.637
10991.692
11444.025
11748.451
12267.774
12626.191
13174.913
13494.822
14314.287
14419.81
15409.715
15628.458
16390.409
17602.134
19331.512
16087.788
15252.205
15226.301
15754.368
15851.312
16235.393
16502.073
16635.156
16785.561
16720.554
16746.019
16602.512
16414.412
16249.16
15966.87
15774.948
15485.143
15198.194
14924.302
14678.328
14312.464
14138.298
13762.61
13495.393
13231.67
12891.897
12723.824
12371.836
12238.786
11903.993
11682.313
11406.163
11148.954
10934.978
10696.548
10593.618
10323.879
10195.888
9983.0895
9842.5901
9673.0263
9529.5204
9380.9328
9244.7435
9110.3
8982.4138
8859.6388
8738.853
8624.0796
8510.5678
8400.4115
8294.4678
8191.3248
8092.8009
7998.9881
7914.4769
7831.6757
7765.677
7702.497
7660.3324
7622.2658
7611.8779
7605.1682
7617.4224
7632.2619
7659.6993
7733.8797
7791.6022
8027.6372
8030.9438
8251.4993
8345.1732
8538.1778
8693.4012
8916.1016
9099.1163
9353.8818
9604.7264
9859.4833
10170.745
10485.584
10833.235
11196.533
11636.655
12035.287
12505.584
13076.727
13538.489
14179.71
14864.271
15701.956
15968.394
17281.193
17385.51
13676.634
12818.422
10546.881
10192.674
9870.716
9911.0556
9669.551
9846.0842
9909.9879
10011.515
10000.564
10047.481
11081.312
12079.639
15255.776
9621.9581
7741.6173
6541.1277
6430.6282
5932.2842
5894.9416
5688.8421
5797.6753
5919.7558
5884.1341
6032.1382
6314.957
6922.4292
8148.325
10441.36
6610.8912
5044.5093
3544.2344
3292.1864
2889.2982
2783.6732
2741.6351
2659.1198
2709.1033
2784.9345
2974.6111
3192.412
3767.3451
5109.49
7035.6086
4469.615
3363.1119
2536.2673
2110.2089
1961.8364
1825.0303
1786.1379
1732.6884
1821.4755
1883.0043
2053.2841
2238.4095
2894.037
3780.6451
4975.4919
2959.0138
2157.5351
1429.2204
1202.4645
999.9487
922.00456
872.65279
860.46474
880.61044
951.36102
1052.3399
1284.4831
1688.1869
2284.2822
3480.8986
2393.5934
1536.4429
1038.8139
855.59977
706.03708
653.73148
606.93102
612.84
628.5731
670.90651
786.7414
910.00379
1188.7029
1742.3382
2637.8094
1594.9866
1051.8299
742.24395
564.79907
467.8097
387.24222
361.75169
345.9096
362.75419
401.90419
475.1831
612.85859
815.59789
1249.0722
2008.1039
1597.9369
1017.4766
687.01409
534.69861
423.98603
368.48814
332.74366
331.57113
347.16351
385.89204
469.3121
597.15262
796.87741
1213.8484
1979.7477
1787.3385
1175.4026
816.1679
631.53801
510.38922
442.09519
403.98218
402.55493
412.93954
489.57516
536.15021
675.13801
891.36569
1367.3734
2015.1827
2593.0856
1849.2529
1193.6878
969.87416
767.35081
692.93286
628.81647
619.38119
631.94039
670.92666
823.80496
934.41876
1334.7971
2025.0579
3049.3715
3399.1478
2526.0634
1643.9677
1386.3161
1100.573
1022.7452
934.97702
948.47315
958.30916
1028.2605
1191.5495
1447.0435
1918.1974
2773.7135
3829.2716
5340.7629
3624.017
2681.9944
2268.1787
1935.0719
1766.4378
1690.8363
1652.5679
1697.9884
1758.5834
2001.2631
2072.088
2856.7516
3962.8621
5573.7807
7111.7034
5558.8343
4152.1131
3638.9866
3186.7475
3095.7203
2916.8471
2991.0146
2989.6906
2965.4238
3287.1012
3517.2354
4281.8761
5820.4242
6973.0285
10822.217
8619.7676
6916.8386
6366.5667
5842.7196
5638.6474
5692.1916
5724.0468
5656.0785
5707.1677
5809.1488
6140.0863
6971.1485
8175.6993
11515.749
14466.814
14690.933
11535.62
11099.325
10471.607
9817.5408
10376.09
10812.668
10102.744
10640.706
10416.518
10801.9
11593.738
13205.884
16284.867
32893.48
26919.453
26825.723
27288.227
27752.772
27546.363
28944.13
30256.791
30915.491
30455.498
29512.373
27999.635
27714.333
28596.415
28006.913
24550.744
21813.614
20642.774
19897.834
19008.34
19578.353
19251.482
19308.815
20452.622
19498.519
19868.629
19612.44
21015.355
22611.433
25692.881
20728.604
21294.474
20191.15
19418.473
19588.449
17931.59
17807.662
17944.453
17125.307
18572.924
18564.98
20305.141
20935.307
21090.148
21748.594
20612.471
22604.546
22187.104
21414.28
20973.742
20762.527
20481.089
20598.519
20642.782
20794.648
21387.268
21936.66
22247.153
22734.801
21237.361
21102.62
22175.484
22371.218
22816.579
22133.058
21898.517
21932.533
21714.844
21968.883
22499.74
22477.744
23065.823
22899.275
22333.963
21163.771
21086.75
22720.797
22875.525
23032.859
23095.014
22996.541
22796.8
22762.441
22888.539
22805.269
23253.309
23283.159
23142.614
22723.714
21277.512
21229.324
22422.927
22931.834
23326.131
23273.952
23318.334
23383.695
23345.649
23473.63
23592.257
23453.674
23508.277
23092.091
22210.021
21635.415
21520.528
22299.602
22919.864
23321.829
23596.205
23556.707
23580.757
23655.111
23589.132
23666.405
23600.625
23361.37
23042.809
22093.546
21071.625
21153.485
22012.481
22595.007
22985.707
23034.663
23275.211
23293.712
23324.764
23419.71
23253.409
23136.464
22853.255
22521.894
21796.871
21478.998
21314.442
21715.501
22332.734
22645.675
22962.733
23050.092
23164.406
23169.198
23003.546
23156.275
22891.384
22808.819
22303.262
21813.959
21332.567
20848.212
21392.992
21893.454
22231.269
22388.611
22607.891
22660.385
22709.371
22814.209
22594.222
22619.059
22240.154
22024.072
21493.519
21171.218
20847.987
20974.954
21502.959
21750.985
22005.044
22109.776
22213.11
22209.895
22153.011
22110.178
21893.076
21746.968
21386.721
21040.021
20948.084
20517.654
20717.47
20940.636
21305.925
21483.377
21641.163
21715.875
21782.023
21863.882
21741.73
21668.041
21489.075
21207.162
20955.421
20664.728
20152.777
20249.151
20816.82
20802.879
21072.01
21153.54
21189.703
21218.647
21178.881
21078.751
20921.02
20800.689
20513.942
20295.507
20381.559
19925.159
19901.02
20163.469
20439.954
20625.316
20649.37
20826.963
20652.662
20845.805
20771.546
20739.981
20622.229
20352.932
20290.274
20078.901
19474.051
19542.665
19955.608
19998.068
20095.98
20240.057
20395.198
20261.796
20218.821
20106.892
19973.224
19890.75
19648.166
19524.228
19605.351
19265.045
19141.088
19429.129
19416.884
19745.15
19760.256
19831.411
19777.397
19915.323
19828.647
19862.5
19728.784
19720.906
19316.128
19637.863
18905.45
18862.702
19157.974
19124.419
19231.094
19338.99
19389.575
19374.666
19345.158
19258.947
19126.697
19023.775
18847.351
18781.298
18775.372
18528.896
18442.279
18738.665
18850.235
18920.875
18911.193
18916.283
18934.681
19027.974
18937.64
18888.944
18866.401
18802.889
18754.519
18865.257
18208.131
18090.155
18305.676
18275.581
18451.241
18532.85
18656.61
18525.415
18566.581
18474.336
18361.853
18395.225
18236.594
18118.595
18110.244
17888.364
17779.736
18055.067
18022.751
18088.867
18036.761
18186.294
18139.793
18221.24
18049.846
18139.641
18006.014
18035.713
17891.529
18021.643
17448.271
17402.05
17593.949
17635.961
17713.991
17778.076
17802.734
17777.678
17778.348
17794.423
17697.174
17678.199
17539.698
17289.557
17634.631
17234.73
17011.056
17307.391
17237.938
17361.057
17311.91
17414.135
17356.518
17392.948
17358.236
17291.611
17194.807
17122.84
17060.046
17185.052
16796.472
16717.897
16890.597
16952.864
16954.144
17012.809
17016.451
16958.504
17006.934
16919.682
16863.922
16874.351
16900.748
16633.201
16868.91
16520.629
16379.096
16477.419
16495.609
16599.681
16497.046
16722.47
16581.928
16669.936
16593.081
16574.817
16516.901
16386.88
16266.336
16477.955
16104.527
15929.217
16194.974
16076.915
16222.149
16264.479
16304.26
16199.212
16296.519
16163.044
16231.73
16145.756
16104.989
16005.53
16046.724
15754.679
15615.418
15777.843
15776.776
15937.692
15829.092
15932.897
15866.905
15923.647
15850.055
15830.941
15734.383
15668.702
15519.608
15785.052
15429.105
15193.594
15399.108
15321.539
15501.501
15431.473
15531.834
15455.781
15539.029
15433.749
15469.877
15371.959
15334.412
15293.316
15272.294
15050.267
14905.903
15115.6
14996.324
15120.097
15099.071
15168.266
15118.627
15160.418
15090.876
15074.474
15054.273
14934.159
14751.609
15085.488
14787.333
14426.205
14705.681
14666.674
14824.299
14718.189
14815.262
14735.188
14776.05
14674.695
14691.621
14590.103
14588.105
14473.31
14647.288
14427.74
14183.624
14482.805
14324.432
14463.612
14435.462
14468.127
14365.159
14429.98
14336.454
14403.929
14264.608
14298.621
14058.938
14323.675
14200.315
13795.155
14081.31
13961.667
14163.262
14031.262
14168.147
14051.323
14152.157
14018.273
14034.971
13947.569
13936.542
13761.835
14003.852
13828.813
13476.786
13789.312
13657.811
13817.641
13721.933
13864.091
13694.573
13810.997
13652.695
13748.091
13587.504
13627.555
13428.99
13681.538
13530.128
13184.177
13464.275
13319.861
13510.037
13409.168
13529.802
13408.771
13493.448
13376.819
13399.099
13290.887
13316.548
13124.577
13381.479
13211.347
12899.187
13212.957
13081.776
13200.315
13117.652
13231.386
13118.057
13208.356
13105.248
13131.217
13034.498
13033.604
12919.22
13004.771
12920.525
12686.698
12817.653
12808.908
12859.966
12834.183
12907.591
12833.296
12883.309
12739.035
12801.705
12691.518
12711.143
12507.231
12859.385
12673.202
12348.27
12606.639
12492.091
12664.232
12538.258
12669.452
12527.854
12608.751
12485.347
12543.811
12443.956
12424.4
12305.616
12509.446
12445.362
12152.782
12401.996
12322.104
12405.219
12346.865
12435.9
12319.682
12409.502
12263.84
12347.348
12155.985
12267.933
12005.783
12289
12319.923
11872.653
12197.915
12017.89
12236.941
12077.288
12243.295
12068.184
12182.915
12029.565
12068.594
11973.204
11990.855
11788.445
12068.757
12044.544
11667.542
11971.478
11843.067
11988.621
11877.085
12018.128
11851.138
11985.022
11795.371
11904.112
11712.574
11798.098
11571.459
11847.149
11884.734
11469.778
11802.132
11621.992
11826.129
11673.101
11832.177
11666.308
11771.118
11630.729
11686.031
11539.228
11607.738
11362.136
11649.597
11681.987
11291.365
11603.531
11457.581
11633.162
11490.285
11661.576
11462.982
11616.017
11426.074
11514.085
11352.103
11419.261
11180.385
11470.448
11527.794
11114.048
11452.688
11279.836
11467.348
11328.195
11476.049
11313.37
11429.283
11266.504
11345.902
11179.451
11251.937
11004.285
11291.61
11356.386
10959.008
11285.283
11115.013
11310.305
11154.797
11331.888
11139.325
11274.544
11107.879
11181.137
11024.431
11094.625
10841.977
11131.742
11210.658
10798.789
11136.302
10964.192
11147.427
11014.182
11170.456
10991.878
11121.64
10955.055
11029.079
10873.558
10937.969
10684.161
10974.853
11057.66
10648.724
10993.544
10801.941
11001.876
10855.355
11023.01
10839.227
10967.736
10807.334
10877.462
10725.588
10790.014
10534.298
10825.721
10912.296
10503.096
10841.81
10658.265
10850.7
10714.626
10880.51
10692.978
10823.682
10663.856
10728.451
10581.655
10641.279
10384.59
10677.193
10770.97
10350.691
10703.986
10506.571
10703.864
10567.85
10731.711
10542.957
10676.492
10515.682
10581.307
10436.377
10497.514
10238.521
10534.504
10622.763
10207.94
10555.791
10355.616
10556.94
10423.827
10588.135
10399.306
10531.611
10371.864
10433.521
10291.228
10349.695
10087.947
10389.189
10483.617
10058.22
10410.344
10209.204
10409.832
10273.556
10437.108
10243.391
10379.634
10218.883
10281.772
10140.574
10203.046
9938.7657
10247.778
10336.529
9908.1871
10264.391
10056.555
10255.577
10124.256
10287.595
10096.33
10233.92
10072.476
10131.523
9994.0989
10053.487
9786.4853
10102.97
10191.561
9760.0134
10114.508
9903.0151
10107.148
9971.3899
10132.315
9937.3464
10075.858
9911.7244
9975.2645
9837.611
9900.2586
9633.3774
9958.0927
10047.051
9608.0905
9963.7274
9753.1796
9952.2777
9816.0348
9978.6668
9785.8124
9925.3198
9763.9417
9822.933
9687.1929
9749.211
9479.8302
9811.9771
9899.9131
9456.1876
9814.9452
9597.5526