/*--------------------------------*- C++ -*----------------------------------*\
  =========                 |
  \\      /  F ield         | OpenFOAM: The Open Source CFD Toolbox
   \\    /   O peration     | Website:  https://openfoam.org
    \\  /    A nd           | Version:  6
     \\/     M anipulation  |
\*---------------------------------------------------------------------------*/
FoamFile
{
    version     2.0;
    format      ascii;
    class       pointVectorField;
    location    "0.93";
    object      lm;
}
// * * * * * * * * * * * * * * * * * * * * * * * * * * * * * * * * * * * * * //

dimensions      [1 -2 -1 0 0 0 0];

internalField   nonuniform List<vector> 
625
(
(0 0 0)
(0 0 0)
(-1051.3967 610.04474 176.45669)
(-693.30566 1055.1228 195.74199)
(0 0 0)
(0 0 0)
(-686.58568 1069.9324 200.55499)
(-1043.1145 625.78152 176.8631)
(0 0 0)
(0 0 0)
(0 0 0)
(-961.73576 720.51074 182.2994)
(-858.83763 817.63669 184.56866)
(-772.29275 926.21513 188.20711)
(14.755712 19.099492 13.2305)
(24.50867 35.947014 24.695673)
(38.978609 45.26614 34.993987)
(56.3798 51.349941 48.185121)
(73.692824 52.771367 61.002717)
(92.431776 48.141321 73.828866)
(107.64503 40.30963 85.952236)
(120.5464 28.682178 96.645088)
(126.28587 15.031698 107.10719)
(124.40564 -0.60602764 116.12552)
(110.7778 -15.028126 123.94647)
(83.787548 -26.553587 130.67856)
(40.483759 -32.154739 136.46516)
(-19.515052 -28.815163 141.35818)
(-96.479002 -13.737801 145.75199)
(-188.41038 14.5089 149.7301)
(-292.36974 57.800832 153.61867)
(-404.59429 113.87781 157.48688)
(-520.38642 183.52918 161.44821)
(-636.14899 261.67017 165.52444)
(-749.10547 347.19198 169.20807)
(-854.71359 433.57174 172.19459)
(-955.85655 523.31603 174.16034)
(-7.4357374 1.2553334 -5.5951484)
(3.1294885 5.2394688 -0.2290388)
(15.204456 4.4507213 7.9176328)
(32.531983 4.4725542 18.503004)
(49.589511 5.7563051 31.026023)
(70.84891 3.3131469 44.18578)
(88.362816 5.9978438 57.294337)
(108.8528 8.9052247 72.13452)
(125.28374 15.708943 86.948231)
(139.93238 28.531545 102.85614)
(148.69524 47.747398 118.34631)
(150.43489 77.326271 134.09332)
(142.90448 116.67153 149.13438)
(123.42691 169.0634 162.98892)
(90.790521 233.97543 175.43789)
(43.498824 311.252 185.77591)
(-18.778493 399.81829 193.8286)
(-95.25169 496.7774 199.28037)
(-183.82173 598.58556 202.38809)
(-282.26381 701.57748 202.86212)
(-385.45395 800.30857 202.28708)
(-490.12538 893.24223 199.43461)
(-593.28702 976.24763 197.73355)
(0 0 0)
(0 0 0)
(0 0 0)
(9.017451 -9.9661513 8.8246145)
(23.124301 -32.740188 11.695494)
(35.247929 -33.090292 14.316469)
(52.182194 -42.218939 16.577383)
(71.978963 -52.793748 24.862142)
(87.794599 -48.049477 30.451441)
(110.66044 -53.811859 36.290927)
(127.15816 -46.34799 43.764037)
(143.92592 -39.016504 51.285879)
(157.69631 -23.728183 59.503318)
(165.93934 1.0697293 67.457996)
(167.10762 34.303842 76.998748)
(158.66363 80.84554 87.143418)
(138.74914 139.29715 98.534121)
(105.5332 211.71362 111.0723)
(57.679412 296.43566 124.53848)
(-5.1100314 392.18326 138.58128)
(-82.126672 496.00292 152.54601)
(-171.88962 603.8699 165.82761)
(-271.07643 711.59393 177.55197)
(-376.1949 814.74577 187.08202)
(-482.86393 909.57537 193.99029)
(-585.86168 990.99826 196.8455)
(-769.06029 943.01537 191.93292)
(-852.68957 834.83347 184.97979)
(-952.34034 736.0737 181.25797)
(-944.03013 537.22872 176.40606)
(-848.1561 449.40185 179.83928)
(-739.87634 357.44798 184.55753)
(-624.65362 267.64244 189.68854)
(-505.60547 182.11754 194.51273)
(-386.4036 105.96203 197.94808)
(-271.75488 41.317323 199.39217)
(-165.83313 -9.2221354 198.30527)
(-72.65024 -45.216186 194.42266)
(4.9545963 -66.847184 187.58756)
(65.328058 -76.18842 178.26741)
(108.56311 -75.140716 166.51374)
(135.24854 -67.437103 153.21912)
(148.29588 -54.603125 138.30835)
(149.28793 -40.465573 122.84076)
(142.31066 -26.823478 107.15986)
(127.18546 -12.826364 89.602799)
(107.46638 -1.3533892 72.872268)
(88.279198 3.850368 56.287876)
(65.262558 11.707788 39.062724)
(41.33904 12.680969 22.60346)
(23.320074 11.320145 7.8511842)
(7.1759513 6.9834572 -3.5121004)
(0 0 0)
(0 0 0)
(0 0 0)
(0 0 0)
(0 0 0)
(0 0 0)
(-689.64897 1059.94 197.60641)
(-688.38186 1064.0515 197.72012)
(-685.70281 1067.8311 199.36086)
(-1050.667 613.64205 176.26689)
(-1048.8576 617.91582 176.97416)
(-1046.4747 621.60516 176.76876)
(4.0864034 16.704642 19.219336)
(16.644817 33.18795 24.790968)
(35.094553 42.818471 34.144024)
(53.566438 50.139974 47.982312)
(76.6809 49.709226 59.603703)
(97.520904 44.846354 73.788742)
(117.00069 36.419366 84.780796)
(131.25417 24.514279 96.493813)
(139.23428 11.892866 105.36505)
(138.39777 0.36056721 113.29202)
(127.58786 -7.5861464 119.74276)
(105.22995 -9.7059024 125.29341)
(70.589477 -3.6412364 130.08304)
(23.293267 12.458563 134.58049)
(-36.752598 39.821883 138.95447)
(-108.87395 79.097076 143.35508)
(-192.23265 130.464 147.84246)
(-285.7619 192.90484 152.67296)
(-387.53442 266.06247 157.0853)
(-496.73106 347.24571 162.3023)
(-610.56496 436.08353 167.07073)
(-726.91308 528.42578 171.65764)
(-844.65478 625.07064 176.6457)
(3.3070202 8.7207605 7.6459957)
(16.174632 15.219263 13.105597)
(32.650549 20.620453 26.384526)
(53.188052 24.600876 39.468693)
(75.068165 23.278294 54.180634)
(98.191832 21.720878 69.191887)
(118.00679 17.124019 83.492491)
(135.01393 12.364351 96.476163)
(145.09509 9.0048443 107.55883)
(148.32685 7.5845939 117.2731)
(141.43144 10.69362 125.03055)
(124.68062 19.586073 131.08231)
(96.530464 35.699764 135.90706)
(57.34348 60.540974 139.67808)
(6.9077577 94.394571 142.81802)
(-54.038553 138.35721 145.64191)
(-125.53637 192.34764 148.65841)
(-206.76511 256.86742 151.84583)
(-298.01184 331.42209 155.79784)
(-398.0247 416.08092 160.71567)
(-507.18831 509.70276 165.99445)
(-623.35556 611.55325 172.50407)
(-743.86747 717.52144 178.87071)
(-1.8572533 6.2470031 6.8176436)
(9.497449 12.219854 11.802307)
(23.613559 18.397454 20.172132)
(42.828297 21.193663 31.114959)
(64.890117 20.318963 42.913028)
(86.056332 21.212471 56.49964)
(107.86044 18.181684 69.873781)
(126.31524 18.441314 82.73404)
(142.13974 19.499935 95.891228)
(151.22612 23.700085 108.34636)
(152.85994 33.727874 119.79038)
(144.85048 49.585273 130.65838)
(125.48769 74.467179 140.39976)
(93.776232 108.63508 149.13664)
(48.926312 153.67387 156.81395)
(-8.8768187 209.98585 163.40904)
(-79.345625 277.17739 168.9974)
(-160.73352 354.9345 173.52047)
(-252.15342 440.98992 177.46395)
(-350.28355 534.84818 180.10202)
(-454.55372 632.23448 182.87251)
(-560.66091 732.69622 184.90755)
(-668.54425 832.44362 186.98209)
(0 0 0)
(0 0 0)
(0 0 0)
(0 0 0)
(0 0 0)
(0 0 0)
(0 0 0)
(0 0 0)
(0 0 0)
(0.45371323 -0.49122194 -5.2269008)
(5.0960686 -4.2926171 -3.5553338)
(8.1790155 -6.1080225 -0.25871778)
(13.122335 -7.2850318 0.36593917)
(17.116599 -15.934843 1.3983334)
(21.569066 -22.093701 5.9001811)
(22.260078 -7.2332319 8.0149211)
(27.481198 -16.344516 8.008458)
(33.082887 -28.389642 11.482404)
(38.447049 -9.5247138 18.172149)
(43.414933 -22.077799 16.884412)
(47.734491 -31.603891 16.159747)
(55.362688 -12.678919 28.701419)
(59.695466 -24.6264 26.075937)
(65.698305 -39.25487 25.535076)
(72.352029 -11.931913 40.66561)
(76.845384 -23.685706 37.615424)
(82.752818 -37.756965 33.541084)
(90.959969 -10.633268 53.107802)
(94.899484 -24.978634 47.134258)
(100.47267 -40.586856 41.913796)
(107.60978 -6.269123 65.365495)
(112.66775 -17.683713 59.501155)
(118.54464 -33.628313 51.337841)
(123.51565 1.7727278 79.052099)
(128.17996 -10.328662 71.058741)
(133.2485 -24.133221 60.974861)
(136.50363 16.172447 92.846651)
(140.38556 6.5694652 83.021215)
(146.28338 -8.8507206 70.861736)
(143.73029 39.143548 106.5545)
(147.9048 29.118973 95.524286)
(153.52369 16.153571 80.998216)
(144.91536 70.092275 120.71641)
(148.4197 62.500409 108.02536)
(154.21893 50.571358 91.846438)
(136.52541 113.56431 134.31796)
(139.80589 107.36473 120.6236)
(145.64251 96.717078 103.18925)
(117.30137 168.60462 147.49015)
(120.06363 163.63008 133.08536)
(126.01256 155.16364 114.97032)
(85.207737 236.18423 159.67881)
(87.522536 233.20842 145.08336)
(93.595831 226.59533 127.35977)
(39.017562 316.08561 170.54073)
(40.908973 314.53874 156.55897)
(47.013953 309.96933 139.82125)
(-21.795307 406.26844 179.88705)
(-20.233924 406.19445 166.9922)
(-14.213571 403.58889 152.15988)
(-96.36084 504.40715 187.22045)
(-95.244208 505.60056 176.20755)
(-89.371264 504.83128 163.83522)
(-183.75975 606.71616 192.80277)
(-182.67614 608.89981 183.81241)
(-177.04879 609.80476 174.36752)
(-280.14285 709.2918 195.90107)
(-279.12143 712.09151 189.74561)
(-274.25739 714.31154 183.25607)
(-382.87502 807.85539 197.81463)
(-381.86708 811.55153 193.94877)
(-377.55593 814.66797 189.97185)
(-487.07234 899.77669 197.90626)
(-486.05334 903.05884 196.09639)
(-482.49822 906.88398 194.55609)
(-590.32903 981.4048 197.41166)
(-588.46478 984.94626 197.30826)
(-586.30611 989.03741 196.95538)
(-960.50812 724.49743 181.82313)
(-958.71375 728.94053 181.81625)
(-956.28979 732.43605 181.62571)
(-857.32007 821.67135 184.28862)
(-855.79462 826.29335 184.728)
(-853.78238 829.22813 184.85876)
(-770.93293 932.01993 189.40447)
(-769.30554 936.18631 189.70566)
(-767.30145 938.6437 190.6627)
(17.704743 13.430234 8.1408946)
(12.908976 11.739865 4.8778455)
(11.655706 12.372356 -0.00081540284)
(25.364042 26.121613 21.588276)
(26.325696 23.635852 12.343094)
(28.190423 20.787469 10.526247)
(42.947888 34.730582 30.546526)
(42.982159 27.226088 27.426686)
(43.413262 24.195841 24.640908)
(58.917357 39.641368 44.865946)
(60.91737 32.043341 41.282423)
(63.658501 25.78806 40.177292)
(77.512743 39.325799 58.196094)
(81.214856 29.381954 56.062826)
(85.407601 20.194398 56.829767)
(96.023111 34.760498 72.162879)
(99.534006 23.242012 71.120188)
(103.90966 13.658316 72.845353)
(111.47095 27.017045 84.769163)
(115.55874 15.265512 85.917756)
(121.29341 3.6759508 88.491142)
(123.26866 16.530887 97.532391)
(128.12117 3.5711654 99.433573)
(133.66478 -8.474593 103.89956)
(128.80088 3.0545212 108.35554)
(134.03457 -9.3414508 113.62697)
(139.72624 -22.903593 119.39887)
(126.01114 -10.052302 120.28623)
(130.699 -23.472278 125.41917)
(137.16078 -36.41078 133.15938)
(111.78441 -22.64486 129.48537)
(116.5962 -35.09514 137.33275)
(122.52013 -48.809821 146.70738)
(83.767261 -31.810742 138.54639)
(88.313709 -43.970639 147.87213)
(94.146243 -56.963844 158.7677)
(39.749947 -34.994702 146.27011)
(43.968856 -46.065061 157.10197)
(49.633324 -58.297513 169.26804)
(-21.035027 -29.077711 152.96459)
(-17.154207 -39.023958 164.78541)
(-11.649146 -50.028693 177.88788)
(-98.595243 -12.076664 158.7293)
(-94.971181 -20.341685 170.91898)
(-89.666181 -29.950437 184.34683)
(-190.81091 18.351308 163.1984)
(-187.56729 11.68301 175.24961)
(-182.54873 3.7999161 188.42616)
(-295.19264 62.127444 167.01321)
(-292.06766 57.646192 178.12238)
(-287.44476 51.691147 190.22798)
(-407.11297 119.89251 169.70337)
(-404.37084 117.45134 179.33839)
(-400.26246 112.98765 190.01129)
(-523.20495 188.68349 171.76058)
(-520.75469 187.92987 179.69821)
(-517.09623 185.78126 188.12159)
(-638.14672 267.27577 172.70941)
(-636.01871 269.00745 179.08805)
(-633.23041 268.05512 185.00266)
(-749.94364 351.69213 174.11937)
(-747.75576 354.04624 177.87337)
(-745.46361 355.009 181.61596)
(-854.82856 438.4231 174.52926)
(-852.85324 441.98781 176.6992)
(-850.85991 444.64004 178.33958)
(-952.88831 526.29923 174.54087)
(-951.04845 530.31567 175.77498)
(-948.56164 533.73105 176.37736)
(2.0914791 -0.04081287 0.11060488)
(21.567335 -1.7576671 12.43494)
(38.41275 -1.5838503 26.0149)
(63.235995 -4.6962256 38.500009)
(86.515942 -11.187002 56.018513)
(108.62479 -17.386712 70.228473)
(130.08924 -28.194416 85.516487)
(145.26145 -38.267415 99.493976)
(155.46957 -48.282757 112.40767)
(156.74218 -56.302067 124.31126)
(147.72189 -59.871548 134.50742)
(126.98243 -56.784356 143.51064)
(92.926319 -44.698401 151.08566)
(44.701922 -21.575305 157.4373)
(-17.750107 13.964071 162.73701)
(-94.058211 62.92033 166.86843)
(-183.14477 124.63626 170.25417)
(-282.92954 198.22113 172.84678)
(-391.00501 281.23139 174.80389)
(-504.81738 371.37226 176.30613)
(-620.54833 464.49021 177.75758)
(-735.70906 558.83213 179.29719)
(-845.10021 648.01818 179.61926)
(2.6016027 -2.4460109 7.0760661)
(24.326205 -11.096287 12.320978)
(44.619478 -20.810175 20.430913)
(73.595297 -26.942062 32.470897)
(96.710616 -37.703449 43.592944)
(123.25099 -43.714981 57.158833)
(145.78821 -51.484914 69.438738)
(163.21893 -56.189502 82.099787)
(174.15869 -57.851065 93.207896)
(175.80562 -54.505091 102.74913)
(167.56163 -45.869653 111.61125)
(148.29431 -29.568739 118.88482)
(117.4952 -5.0829442 125.21927)
(75.618396 27.930854 130.83539)
(22.987598 70.55346 135.82693)
(-40.02733 122.41561 140.57838)
(-112.97531 183.96314 145.31964)
(-195.35264 255.00534 150.09894)
(-287.44823 335.14711 155.13174)
(-388.05379 424.30278 160.64507)
(-496.90928 520.33049 166.29059)
(-612.35048 623.31958 172.13606)
(-736.29206 733.58031 179.3739)
(3.765137 -3.3440731 4.4523379)
(23.841638 -9.2017712 8.879146)
(38.426792 -21.090971 20.446885)
(59.939932 -19.881651 25.816539)
(82.464318 -30.397724 37.599625)
(104.44333 -32.960946 48.126037)
(127.81633 -35.91373 57.105994)
(147.0075 -39.908524 67.734419)
(161.89429 -34.827192 76.563247)
(171.06567 -29.720964 85.910165)
(171.72591 -16.163488 94.411815)
(162.59546 4.409902 102.60784)
(141.85305 34.393007 110.69081)
(108.85035 74.732487 118.45178)
(62.475983 126.38056 126.25165)
(3.3267273 189.63677 133.91966)
(-68.298559 264.01418 141.66019)
(-151.00605 348.36441 149.24364)
(-243.18396 441.17513 157.06419)
(-342.49462 539.92162 164.38834)
(-447.30508 641.83248 171.78997)
(-553.74706 745.25248 178.98748)
(-661.78102 845.56876 184.99649)
(7.5050274 5.1787669 8.9122537)
(5.6060308 5.4837716 6.0699278)
(6.1851054 3.1229414 0.083182658)
(20.967372 21.313001 18.194538)
(22.730403 17.391518 13.209703)
(22.308918 12.139304 12.344556)
(37.940423 27.908616 27.55406)
(39.241838 22.394496 26.575824)
(39.967109 11.798691 26.736473)
(56.650209 32.000008 42.914002)
(58.61169 24.613821 42.141283)
(61.555282 11.230821 40.542756)
(78.216517 31.392533 55.309731)
(81.169939 21.141395 55.242938)
(85.8382 7.0532424 56.482299)
(97.702707 26.243445 70.102069)
(102.21899 16.296111 71.546774)
(105.59167 -0.13974118 72.661182)
(116.58123 19.326729 82.831623)
(120.3182 7.717417 85.584061)
(125.79588 -8.5831947 86.893584)
(129.58244 9.3996135 95.683364)
(134.50186 -2.6979034 98.530612)
(140.06255 -19.39148 100.82352)
(137.45865 -0.8258146 106.44175)
(142.03937 -12.70494 110.9549)
(147.85876 -28.929166 113.52573)
(136.42935 -9.5785186 116.14953)
(141.23548 -21.522469 120.95214)
(147.10301 -36.686812 123.89958)
(125.68376 -15.041915 124.51088)
(130.1403 -26.136511 130.23064)
(136.40253 -40.144428 133.65348)
(103.39033 -14.704771 132.00236)
(107.62511 -24.880464 137.61032)
(113.78802 -37.733075 141.36121)
(68.625906 -6.1432073 138.29832)
(72.507287 -15.121796 144.20722)
(78.748591 -26.20851 148.03768)
(20.625834 12.110615 144.1652)
(24.262573 4.7463154 149.72261)
(30.437716 -4.8248995 153.4634)
(-40.620355 41.924575 149.24295)
(-37.108306 36.040329 154.37366)
(-31.099916 28.285183 157.96941)
(-114.41712 83.54357 154.00937)
(-111.14757 79.571705 158.4442)
(-105.27688 73.5402 161.72463)
(-200.02869 137.48853 158.26291)
(-196.69439 135.17962 162.02452)
(-191.27089 130.8836 164.76603)
(-295.48524 202.44322 162.36914)
(-292.56468 202.01157 165.05125)
(-287.46339 199.2736 167.48319)
(-399.17599 277.45349 165.66327)
(-396.35015 278.43756 168.13679)
(-391.83086 277.54651 169.65195)
(-511.20329 361.70523 170.32788)
(-504.42845 361.58722 169.83676)
(-502.47219 363.24125 171.83461)
(-624.59865 450.98583 173.50723)
(-616.57607 449.89159 172.04846)
(-616.15851 453.79121 174.14345)
(-735.95201 540.4837 175.53979)
(-733.62175 544.0284 175.99735)
(-731.14347 547.06107 176.38955)
(-849.65296 633.53054 178.34273)
(-847.85737 637.95493 178.807)
(-845.46954 641.33147 178.59875)
(2.9145595 2.6016568 2.2985777)
(4.3907635 1.3539485 1.2717167)
(5.0681092 -1.4821887 3.0496658)
(19.794824 7.5550279 9.5888354)
(23.498678 2.3812961 10.116222)
(22.057998 -4.9553209 10.080062)
(36.460804 8.2795957 23.880899)
(39.973738 -2.0305762 23.378891)
(40.225618 -11.831519 20.991193)
(56.421233 9.7234159 36.193362)
(63.628114 -2.9354192 35.692541)
(64.592971 -15.91227 32.597859)
(78.938172 7.3894247 51.974288)
(85.81691 -8.5272676 50.70876)
(87.49745 -21.547764 45.905055)
(101.7358 4.325578 67.337095)
(107.87954 -12.05907 65.632655)
(110.56498 -27.484249 60.560011)
(120.58372 0.80030084 81.720824)
(127.5162 -16.734185 78.929178)
(131.37175 -32.243245 72.53546)
(137.50993 -3.5901567 95.575215)
(143.3688 -20.171986 92.374864)
(148.12748 -35.795281 86.925484)
(146.7337 -5.0519978 106.69504)
(152.19016 -20.982129 103.02481)
(157.60454 -37.357649 96.77259)
(149.05213 -4.4391102 117.02479)
(153.5391 -18.833522 112.96287)
(159.57119 -34.080346 107.4533)
(141.15415 1.2276383 125.01717)
(144.92004 -11.007125 120.63595)
(151.38408 -25.892032 115.50921)
(123.4409 13.01686 131.33738)
(126.46872 2.7058844 126.92678)
(133.07657 -11.110005 122.75981)
(94.427312 31.853492 136.41537)
(96.794562 24.013355 132.25908)
(103.44925 11.546118 128.68978)
(54.556812 59.266444 140.34289)
(56.445162 53.553298 136.20201)
(63.001301 42.476332 133.77019)
(3.9003782 95.436314 143.65517)
(5.5052264 91.915831 139.99981)
(11.8425 82.519336 138.41119)
(-57.133774 141.19311 146.6028)
(-55.548131 139.59173 143.3328)
(-49.694852 131.89689 142.56836)
(-128.1929 196.73113 149.66486)
(-126.67413 196.60845 146.9093)
(-121.22216 190.7875 146.86298)
(-208.98659 261.8011 152.92933)
(-207.12939 263.27786 150.67699)
(-202.39761 259.39868 151.20942)
(-299.30551 337.21246 156.76877)
(-297.44428 339.49003 155.22636)
(-293.09032 337.37293 155.83824)
(-398.34917 420.58032 161.38391)
(-396.18839 425.42808 160.10994)
(-392.8783 424.49702 161.23399)
(-506.1979 515.25357 166.10686)
(-504.01149 517.59455 166.22141)
(-501.03445 519.74231 166.63907)
(-621.03696 615.41151 172.53722)
(-618.97344 619.33574 172.27362)
(-616.62154 621.4772 172.5943)
(-742.29058 722.08002 179.27756)
(-740.2888 726.53674 179.18088)
(-738.10179 729.47547 179.68498)
(2.5257205 1.4453914 3.6305775)
(2.8846553 -0.83714225 2.1379343)
(3.9523839 -0.31483083 2.7213956)
(15.085512 4.8099647 8.6519144)
(18.384788 0.90982719 7.9178257)
(22.744063 -3.8416941 7.9354114)
(27.929735 7.5805748 17.461476)
(31.536453 -5.140409 16.313516)
(37.984394 -12.001776 16.973622)
(47.737274 6.0630937 27.304566)
(50.51173 -2.0046057 25.70112)
(58.310296 -12.965392 24.855375)
(67.595032 6.2271899 39.759008)
(72.052828 -7.6481668 37.87277)
(79.681876 -19.975668 35.354546)
(88.353577 4.1433305 51.998621)
(91.49869 -7.7400909 48.483679)
(100.45261 -22.247274 45.923782)
(109.29963 2.3320529 65.204908)
(112.50674 -10.291018 61.09082)
(122.14265 -25.088553 57.402945)
(126.52594 3.331017 77.50968)
(130.14096 -9.5279569 72.576609)
(139.35906 -26.343847 67.493653)
(140.93975 5.1841939 90.012049)
(144.32548 -6.8304495 84.266886)
(153.37897 -22.865793 78.81126)
(148.8714 11.617216 102.14873)
(152.11775 -0.1393649 95.507866)
(160.95745 -15.125249 88.871305)
(149.33367 23.545866 113.18681)
(152.52947 13.174287 105.99109)
(160.74034 -1.365099 98.876378)
(140.38088 42.171755 123.98005)
(143.46914 32.657764 116.32893)
(150.95391 19.836521 108.61977)
(120.29854 69.671464 133.7338)
(123.17376 61.279676 125.76845)
(129.96333 50.430789 117.90792)
(88.338019 106.54726 142.74991)
(91.166308 99.74025 134.84855)
(97.203442 90.780778 126.93507)
(43.599377 154.25702 150.86396)
(46.239961 148.65843 143.24406)
(51.614061 141.851 135.52207)
(-13.733016 212.74192 158.10942)
(-11.13447 208.61225 150.89269)
(-6.530503 203.99833 143.69275)
(-83.227213 281.84044 164.41237)
(-80.870152 279.22602 157.91725)
(-76.697937 276.5771 151.46309)
(-163.65929 360.75769 169.84975)
(-161.23584 359.45778 164.23578)
(-157.83444 358.76953 158.52938)
(-253.53017 447.92422 174.54068)
(-251.46458 448.3603 169.71055)
(-248.33231 448.80261 165.37175)
(-350.65514 541.71135 178.29578)
(-348.36743 542.32521 174.83102)
(-346.14018 544.58045 171.16831)
(-453.4499 638.95128 181.67017)
(-451.68781 641.56722 178.75732)
(-449.78209 644.36113 176.95184)
(-558.75788 738.35662 184.41282)
(-556.98299 741.5575 182.92386)
(-554.99513 744.95023 181.84398)
(-665.68644 837.49616 187.10878)
(-664.04156 840.5115 186.65924)
(-662.37049 844.2983 186.03746)
)
;

boundaryField
{
    free
    {
        type            zeroGradient;
    }
    fixed
    {
        type            fixedValue;
        value           uniform (0 0 0);
    }
    traction
    {
        type            zeroGradient;
    }
}


// ************************************************************************* //
