/*--------------------------------*- C++ -*----------------------------------*\
  =========                 |
  \\      /  F ield         | OpenFOAM: The Open Source CFD Toolbox
   \\    /   O peration     | Website:  https://openfoam.org
    \\  /    A nd           | Version:  6
     \\/     M anipulation  |
\*---------------------------------------------------------------------------*/
FoamFile
{
    version     2.0;
    format      ascii;
    class       pointScalarField;
    location    "1.83";
    object      p;
}
// * * * * * * * * * * * * * * * * * * * * * * * * * * * * * * * * * * * * * //

dimensions      [1 -1 -2 0 0 0 0];

internalField   nonuniform List<scalar> 
625
(
-90708.389
-7588.3007
744.30135
-874.4013
-33629.901
372281.1
-1578.6676
519.60947
-91699.925
-64572.303
-26848.385
1702.8958
583.21674
-81.358544
-46241.212
-57587.722
-61779.091
-75597.173
-71040.503
-82821.757
-81402.053
-83627.669
-86916.755
-82235.036
-81330.58
-76901.722
-72750.49
-65656.861
-58936.547
-50879.981
-41634.938
-34362.009
-24650.196
-16633.95
-9966.3472
-3059.8061
-406.48445
23046.303
2351.2365
24783.457
19748.42
25102.203
28774.141
29775.931
31630.588
33486.273
32799.006
33310.051
31263.764
30750.766
28124.897
25546.556
22550.967
18926.181
16059.476
11875.429
9577.9085
5794.4453
3428.6666
948.9939
11788.679
118587.24
110846.01
69714.057
97743.813
85547.508
89024.201
110009.95
96864.834
105027.48
109923.12
101268.67
109888.5
98785.457
100952.92
90035.744
85424.13
75443.55
66686.488
55602.612
45761.408
34749.885
24906.467
15538.715
7465.5235
756.52408
-614.26549
927.60705
456.48173
93.259584
-1271.4472
-1782.4421
-3978.6741
-6639.0043
-9190.5675
-13014.868
-15270.51
-19285.629
-21314.929
-24426.033
-24992.723
-28442.872
-20084.031
-34235.096
-23378.478
-26854.419
-17814.334
-24162.025
-5331.3973
-11690.099
-9844.6966
6476.0139
-98120.557
-21207.136
-6422.649
56425.789
118078.82
114386.06
-1376.2599
-2739.2688
-2915.0769
1690.5183
576.36741
359.08103
-34593.83
-46352.589
-52929.385
-49800.494
-55164.593
-58674.361
-56477.278
-58064.233
-58209.261
-56191.451
-56318.818
-52793.337
-49395.439
-43849.559
-39433.524
-32601.817
-26912.833
-20669.23
-13853.193
-9293.1826
-4364.4399
-1448.5347
14.557165
-13449.531
-25403.869
-15300.339
-19738.303
-17419.028
-17176.614
-16463.63
-18362.29
-18381.128
-15830.634
-16290.134
-14180.03
-13440.085
-11730.85
-10624.488
-8487.2377
-7102.2284
-5097.5745
-3376.5908
-1839.4332
-271.82734
-42.807435
659.38076
6426.3243
4517.7115
6945.4494
3491.4908
13603.111
10147.118
12783.316
12248.965
13632.688
13593.213
11917.619
11870.494
10466.067
9797.4473
8457.0702
7656.5979
6486.6117
5283.2796
4701.5563
3015.9548
2793.9362
2346.5133
1389.7059
-49304.739
-15394.069
-18485.924
-22319.744
3856.3917
23119.907
-8582.467
10257.296
70053.136
39743.915
58505.272
72524.602
32680.539
48181.426
62947.843
51391.083
65042.033
74474.434
35680.42
53776.034
69665.49
46602.767
66715.628
81351.332
47252.414
61594.581
76470.531
50323.922
66789.218
84179.778
52721.95
67673.934
85056.525
52494.877
67366.602
83788.271
51911.321
67910.37
83689.291
50639.349
64871.371
80249.688
48394.473
63352.282
77500.043
45225.934
58580.285
71753.656
41244.307
54085.584
65595.681
36837.535
47830.239
58905.323
31774.473
42229.916
51215.347
26814.632
34814.949
42730.491
21292.814
28346.916
34635.457
16149.612
20962.582
25995.35
11228.722
14915.044
18574.557
6238.2702
8428.7909
11176.372
2906.5864
4698.6672
6158.684
873.97402
142.85568
1267.9968
1714.3779
864.4897
463.63181
872.50687
635.9988
-654.06721
-490.16413
-1726.9351
-2584.3038
-43942.832
-24366.469
-23573.752
-54127.484
-29725.936
-15867.112
-68460.793
-36681.799
-25864.055
-61161.291
-41028.765
-26365.618
-71393.097
-48680.771
-28342.045
-74289.463
-43889.187
-31305.267
-73732.393
-51046.684
-38181.765
-77910.366
-51043.589
-36509.588
-77597.172
-55570.929
-38641.97
-75610.774
-49293.666
-38045.303
-74678.887
-52035.589
-38768.035
-72402.326
-47160.272
-36896.539
-65439.879
-45055.001
-34510.991
-60406.407
-40540.253
-31034.458
-52679.034
-36518.724
-27636.611
-44946.805
-31018.926
-22853.154
-36604.256
-25991.857
-18653.691
-28518.319
-20365.141
-14034.751
-19699.044
-15242.754
-9555.3301
-13141.711
-10253.119
-5891.4862
-6870.4032
-5397.9831
-2067.9442
-2441.5831
-2227.8151
-366.38582
-453.75428
25.891948
191.48346
20446.455
6112.8303
9895.7287
2063.5703
522.29403
-1467.126
-859.5473
-2327.6753
-936.27295
-2857.7503
-4496.2316
-1703.846
-2025.3343
-1542.9829
-445.03097
-609.72958
300.72351
490.85807
627.46552
881.74252
684.46073
360.55437
1486.4659
52844.829
40296.811
35233.98
36511.34
27216.134
35851.733
27418.006
31275.788
26663.503
30330.054
24370.507
26368.092
21600.893
22261.436
18214.583
16835.346
13959.228
11319.983
8872.1858
6145.4276
3730.918
2193.5871
959.85023
55455.367
60794.968
64883.881
69456.588
72138.456
76826.756
73132.081
76493.419
76952.097
75209.474
73977.662
70198.025
67520.16
61578.087
56116.641
49396.211
42358.911
34645.481
27441.23
19756.697
13497.488
7309.6766
3701.6939
-37773.353
-18765.068
6486.6323
-44624.758
-19059.519
588.65058
-35358.493
-19949.947
-13824.915
-33927.389
-28231.226
-131.13443
-48346.901
-20685.974
-5685.2826
-34676.795
-27734.958
-11473.933
-42902.013
-32019.486
-8195.8889
-45464.187
-29178.943
-10280.576
-42277.988
-25260.786
-11320.85
-40983.165
-31622.237
-12349.738
-40414.455
-28524.936
-10257.037
-35709.649
-26076.145
-9884.4516
-33719.212
-24612.303
-8704.2611
-30318.257
-21943.988
-8223.9968
-26349.892
-18471.304
-5996.1122
-21957.234
-15617.857
-4815.1768
-18258.857
-11906.271
-3284.0381
-13465.02
-8717.5145
-1633.5008
-9538.1055
-5373.7888
-423.43512
-6988.7571
-3020.7877
510.43358
-2965.0883
-194.36764
1732.3296
-1567.9649
474.65713
791.08766
987.31277
2108.7404
2411.8907
-8873.4871
21646.792
34853.847
-15333.435
9914.7385
17607.794
-11349.445
6481.1482
23924.828
-19574.249
6482.7768
22205.507
-11802.315
4219.4402
21567.382
-14429.799
1145.5082
22505.815
-18269.403
-535.24074
24390.959
-15128.493
5216.3886
23729.38
-12935.755
-2118.659
21906.869
-16787
1386.7021
22275.216
-13465.344
103.75924
21948.808
-14228.237
435.32562
20119.032
-12113.135
-1256.9971
19550.165
-11940.483
237.66736
17994.357
-9234.9368
-898.32773
16664.752
-8519.1932
-280.41984
14598.108
-6274.7269
-511.88212
12768.818
-4758.2504
-325.00243
10947.04
-3481.2766
46.832843
8172.8906
-2220.8983
118.33118
7264.6674
-1264.6845
1689.3519
3980.3805
450.98471
-10.575588
2516.1501
340.94211
550.82813
674.9655
23503.94
46905.17
75052.679
7226.6375
21173.991
46945.376
11923.032
35682.256
50778.658
24216.699
35467.071
54601.209
18583.229
40505.284
57707.651
20398.121
41675.192
60713.911
22367.957
46664.191
63392.52
25033.221
44930.396
62033.333
22606.487
46318.94
63773.012
25257.928
46618.663
62459.448
24419.536
45027.038
61097.73
24117.634
43128.473
58345.498
22307.991
41479.972
55707.687
21213.075
38445.364
51479.099
18968.831
35045.695
46290.636
17216.749
30957.131
41244.64
14430.839
26863.393
35190.684
12400.225
22282.628
29140.872
9764.925
17902.483
23083.514
7501.9951
13433.591
16641.036
5968.1042
9727.4558
11280.672
2778.9118
4559.994
4581.216
1799.9481
3665.7076
4731.7504
)
;

boundaryField
{
    free
    {
        type            calculated;
    }
    fixed
    {
        type            calculated;
    }
    freeTop
    {
        type            calculated;
    }
}


// ************************************************************************* //
