/*--------------------------------*- C++ -*----------------------------------*\
  =========                 |
  \\      /  F ield         | OpenFOAM: The Open Source CFD Toolbox
   \\    /   O peration     | Website:  https://openfoam.org
    \\  /    A nd           | Version:  6
     \\/     M anipulation  |
\*---------------------------------------------------------------------------*/
FoamFile
{
    version     2.0;
    format      ascii;
    class       pointVectorField;
    location    "0.22";
    object      u;
}
// * * * * * * * * * * * * * * * * * * * * * * * * * * * * * * * * * * * * * //

dimensions      [0 1 0 0 0 0 0];

internalField   nonuniform List<vector> 
3969
(
(0 0 0)
(0 0 0)
(0.49131387 0.050521726 0.0024798047)
(0.47899158 -0.10521909 0.0012447455)
(0 0 0)
(0 0 0)
(0.47987986 -0.10671124 0.0011192341)
(0.49221138 0.048820259 0.0022881477)
(0 0 0)
(0 0 0)
(0 0 0)
(0 0 0)
(0 0 0)
(0 0 0)
(0 0 0)
(0.48951899 0.030222053 0.001880481)
(0.48761915 0.010873757 0.0018645295)
(0.48587871 -0.0082335109 0.0017500508)
(0.48433643 -0.02720907 0.0018369614)
(0.48292108 -0.046218998 0.0018167675)
(0.48158094 -0.065390211 0.0018527572)
(0.48043099 -0.084901291 0.0016354638)
(0.00017657061 0.00093790545 0.0011833098)
(3.856373e-05 0.0018388139 0.0016709271)
(0.00027327678 0.0028509374 0.0019798732)
(0.00087839377 0.0040213183 0.002164779)
(0.0018170327 0.005213941 0.0022744994)
(0.0030925524 0.0065166584 0.0023781045)
(0.0047416489 0.0078488189 0.0024461285)
(0.0067271628 0.0092511239 0.0025242646)
(0.0091130282 0.0106912 0.0025727388)
(0.011864536 0.012180325 0.0026388602)
(0.01502437 0.013708835 0.002690316)
(0.018591973 0.015282237 0.002752346)
(0.022579298 0.016877043 0.0027883372)
(0.026998109 0.018532658 0.0028454045)
(0.031869219 0.02019517 0.0028919394)
(0.037175185 0.021891232 0.0029368703)
(0.042941847 0.023622647 0.0030013227)
(0.049174509 0.025378939 0.0030654331)
(0.055887718 0.027166547 0.0031422722)
(0.063088272 0.028985147 0.0032283471)
(0.070802655 0.030834221 0.0033254389)
(0.079041846 0.032722248 0.0034300756)
(0.087835191 0.034636195 0.0035408402)
(0.097208745 0.036573756 0.0036543043)
(0.10718091 0.038522532 0.0037573184)
(0.11778506 0.040498227 0.0038582442)
(0.12903921 0.042448912 0.0039378951)
(0.14097626 0.044379266 0.0039895695)
(0.15360034 0.046256323 0.0040226967)
(0.16690561 0.048057078 0.0040242802)
(0.180901 0.049760956 0.0040009857)
(0.19556727 0.051344601 0.0039523607)
(0.21088249 0.052773206 0.0038839312)
(0.22681395 0.054051562 0.0037953518)
(0.24334075 0.055131546 0.0036963199)
(0.260403 0.056001289 0.0035965846)
(0.27797135 0.056719841 0.0034677974)
(0.29598593 0.057096362 0.0033760815)
(0.31439647 0.057442371 0.0032262442)
(0.33317996 0.057321653 0.0031735751)
(0.35224735 0.057259237 0.003009572)
(0.37157338 0.056776988 0.0029681053)
(0.39114881 0.056140063 0.0028814529)
(0.4108029 0.055517445 0.0027711409)
(0.43071454 0.054308118 0.0028058376)
(0.45060549 0.053396345 0.0027173644)
(0.47051222 0.052153184 0.0028516596)
(1.9749264e-06 -0.0010371825 -0.0013784947)
(7.4796938e-05 -0.0019183739 -0.0018042029)
(0.00035509945 -0.0029986925 -0.0021040038)
(0.0008556552 -0.0041349172 -0.0024031217)
(0.0017968868 -0.0054295536 -0.0025372522)
(0.0030352832 -0.0067444917 -0.0026993416)
(0.0046140295 -0.008159201 -0.0028350165)
(0.0065635342 -0.0095935544 -0.0029635185)
(0.0088589561 -0.011119789 -0.0031038119)
(0.011534078 -0.012656892 -0.0032307524)
(0.01460249 -0.014294154 -0.0033594715)
(0.018058126 -0.015946714 -0.0035011501)
(0.021926579 -0.017677766 -0.0036330513)
(0.026204366 -0.019447691 -0.003756883)
(0.03091112 -0.021287425 -0.0038869636)
(0.036048439 -0.023176661 -0.0040108294)
(0.041632766 -0.025129848 -0.0041362174)
(0.047659994 -0.02714523 -0.0042637295)
(0.054150215 -0.029237245 -0.0043929868)
(0.061106423 -0.031391735 -0.0045291077)
(0.068544534 -0.033661345 -0.0046623267)
(0.076489034 -0.0359765 -0.0048130102)
(0.084959214 -0.038442043 -0.0049344013)
(0.093974951 -0.040974984 -0.00507927)
(0.10355169 -0.043616598 -0.0052074888)
(0.11374204 -0.046351561 -0.0053203084)
(0.12450385 -0.049161455 -0.0053961682)
(0.13596549 -0.052090347 -0.0054426273)
(0.14808633 -0.055062394 -0.0054642499)
(0.16086658 -0.058096037 -0.0054304205)
(0.17433171 -0.061167339 -0.0053523026)
(0.18845649 -0.064268751 -0.0052178026)
(0.20323904 -0.06736766 -0.0050316731)
(0.21864797 -0.070461898 -0.0047943459)
(0.23466461 -0.073515567 -0.0045033724)
(0.25124198 -0.07653265 -0.0041719117)
(0.26835284 -0.079470481 -0.0037998589)
(0.28593682 -0.082331838 -0.00338347)
(0.30397294 -0.085127744 -0.00295019)
(0.32238541 -0.087781535 -0.0024961304)
(0.34113907 -0.090361501 -0.0020264576)
(0.36019339 -0.092826192 -0.001558706)
(0.37947852 -0.095144789 -0.0010973675)
(0.39899975 -0.097383955 -0.00063076837)
(0.41865377 -0.099474047 -0.00018507718)
(0.43851377 -0.10144114 0.00023499422)
(0.4584526 -0.10339081 0.00068889796)
(0 0 0)
(0 0 0)
(0 0 0)
(0 0 0)
(0 0 0)
(0 0 0)
(0 0 0)
(0.00031332657 -0.00062929173 0.0010611571)
(0.00019024655 -0.0020760491 0.0016958616)
(0.00033002121 -0.0027553255 0.0018395465)
(0.0010176387 -0.0040908648 0.0021125276)
(0.0018901551 -0.0052803483 0.0021614738)
(0.0032040235 -0.0065871021 0.0022367692)
(0.0047844091 -0.007989737 0.0022946772)
(0.0067977083 -0.0094165189 0.0023130882)
(0.0090886986 -0.010909043 0.0023639784)
(0.011831398 -0.012491236 0.0023820327)
(0.014908096 -0.014113636 0.0024400212)
(0.018344952 -0.015757793 0.002481406)
(0.022274217 -0.017505452 0.0024963766)
(0.026579889 -0.019272469 0.0025203499)
(0.031322052 -0.021126979 0.0025505989)
(0.036490893 -0.023024992 0.0025776334)
(0.04209909 -0.025001168 0.0026201738)
(0.04815241 -0.027038301 0.0026672775)
(0.054658861 -0.029152783 0.0027295418)
(0.061631367 -0.03134703 0.0028034872)
(0.069083998 -0.033626185 0.0028940371)
(0.077032407 -0.035999557 0.0029940348)
(0.085508638 -0.038466051 0.0031003517)
(0.094520203 -0.041031649 0.0032090412)
(0.10413196 -0.043717019 0.0032952543)
(0.1143952 -0.046489443 0.0033356501)
(0.12523834 -0.04940239 0.0033924355)
(0.13672005 -0.05237137 0.0034192386)
(0.14886965 -0.05543552 0.0034266035)
(0.16169708 -0.058552024 0.0033917401)
(0.17519401 -0.061715062 0.0033224013)
(0.18936079 -0.064909462 0.0032268707)
(0.20417254 -0.068111564 0.0031033917)
(0.21961564 -0.071298805 0.0029567953)
(0.23565132 -0.074458355 0.00279396)
(0.25226593 -0.07758143 0.0026248839)
(0.26936651 -0.080554915 0.0024413412)
(0.28696876 -0.083586219 0.0022762877)
(0.30498476 -0.086407173 0.0021152243)
(0.32339636 -0.089159469 0.0019638844)
(0.34212773 -0.091786711 0.001830241)
(0.36116607 -0.094291063 0.0017212028)
(0.38042802 -0.096660903 0.0016263585)
(0.39993044 -0.098908347 0.0015444473)
(0.41957709 -0.10101815 0.0014755281)
(0.4394185 -0.10299452 0.0014251829)
(0.45930232 -0.1049794 0.0013381741)
(0.48141658 -0.086425431 0.0010598049)
(0.48250634 -0.067014952 0.0011633979)
(0.48384711 -0.047792762 0.0014483443)
(0.48527072 -0.028894775 0.0017029238)
(0.48675957 -0.0098801739 0.0020970987)
(0.488457 0.0091951696 0.0022738771)
(0.49047568 0.028501904 0.0025052885)
(0.47160152 0.050460963 0.0015976199)
(0.45143316 0.051594573 0.0012418431)
(0.43152777 0.05273216 0.0007941356)
(0.41168036 0.053729717 0.00039809909)
(0.39194589 0.054557909 -6.9334725e-05)
(0.37238669 0.055215176 -0.00053606878)
(0.35303509 0.055686906 -0.0010002589)
(0.33392657 0.055965153 -0.0014748326)
(0.31511925 0.056044334 -0.0019440031)
(0.29666711 0.055929654 -0.0023942908)
(0.27856762 0.055584476 -0.0028215129)
(0.26108959 0.054949384 -0.0031829985)
(0.24389982 0.05426307 -0.0035758203)
(0.22737619 0.053267871 -0.0038767022)
(0.21141284 0.05211715 -0.0041524339)
(0.19608143 0.050785586 -0.0043666944)
(0.18139758 0.049303541 -0.0045323334)
(0.16739557 0.047682916 -0.0046464501)
(0.15407446 0.04596378 -0.004712441)
(0.14145017 0.04414868 -0.004727238)
(0.12950805 0.042289394 -0.0047092797)
(0.11824096 0.040384471 -0.0046519725)
(0.10763643 0.038467247 -0.0045624885)
(0.097652492 0.036552317 -0.0044608481)
(0.088279369 0.034649845 -0.0043435646)
(0.079481405 0.032772599 -0.0042200506)
(0.071232867 0.03092302 -0.004098003)
(0.063512043 0.029105387 -0.0039758097)
(0.056298077 0.027314848 -0.0038595719)
(0.049572768 0.025558109 -0.0037501436)
(0.043324424 0.023824829 -0.003642552)
(0.037541795 0.022121459 -0.0035384414)
(0.03220563 0.020448216 -0.0034389852)
(0.027344294 0.01876542 -0.0033169521)
(0.022928167 0.017148236 -0.0032284115)
(0.018913681 0.015560789 -0.0030944767)
(0.01533318 0.013977677 -0.0029899162)
(0.012156283 0.012453057 -0.0028849754)
(0.0093633655 0.010951177 -0.0027669233)
(0.0069788101 0.0094867118 -0.0026568989)
(0.0049817872 0.0080582383 -0.0025226562)
(0.0032882983 0.0067339438 -0.0024302538)
(0.0020177771 0.0053611961 -0.002284123)
(0.0010427504 0.004157512 -0.0021403464)
(0.00044633287 0.0029642819 -0.0019254548)
(0.00018932594 0.0018452894 -0.0015748952)
(0.00060067435 0.00093927214 -0.00090388212)
(0 0 0)
(0 0 0)
(0 0 0)
(0 0 0)
(0 0 0)
(0 0 0)
(0 0 0)
(0 0 0)
(0 0 0)
(0 0 0)
(0 0 0)
(0 0 0)
(0 0 0)
(0 0 0)
(0.47916128 -0.10566381 0.001165976)
(0.47933003 -0.1059628 0.0011545116)
(0.47945433 -0.10617667 0.0011604354)
(0.47957787 -0.10640197 0.0011904098)
(0.47969379 -0.1065919 0.001216937)
(0.4797783 -0.10671278 0.001259723)
(0.47987768 -0.10688998 0.0011622203)
(0.49165086 0.050610274 0.0024774995)
(0.49179061 0.050392421 0.0024910678)
(0.49191628 0.050218708 0.0024135514)
(0.49204912 0.050026935 0.0023657796)
(0.49215946 0.049820353 0.0023088552)
(0.49224387 0.049562757 0.0022653209)
(0.49238506 0.049382219 0.0022849881)
(-0.00038585087 -0.0028501515 0.0010427889)
(-0.00078211982 -0.0058736793 0.0012398562)
(-0.00080648519 -0.0086595731 0.0014613605)
(-0.00050340806 -0.011234969 0.0015942016)
(0.00017560695 -0.013473441 0.0016793557)
(0.0011673547 -0.01538811 0.0017653856)
(0.0025667257 -0.016876254 0.0018003285)
(0.0043021737 -0.017955984 0.0018550786)
(0.0064569663 -0.018553881 0.0018901264)
(0.0090113118 -0.018673154 0.0019250067)
(0.011992833 -0.018269103 0.0019537887)
(0.015407526 -0.017357081 0.0019844391)
(0.019296018 -0.015912137 0.0020084528)
(0.023641828 -0.013957772 0.0020424307)
(0.028487201 -0.01150704 0.0020672527)
(0.033830888 -0.0085671071 0.0021023819)
(0.039680627 -0.0051797924 0.0021386222)
(0.046048763 -0.0013848317 0.0021837399)
(0.052947175 0.0027815651 0.0022370786)
(0.060389946 0.0072663202 0.002296304)
(0.068387965 0.012018058 0.0023681385)
(0.076958507 0.016968583 0.0024451222)
(0.086125072 0.022058456 0.0025313422)
(0.095898162 0.027208035 0.0026159204)
(0.10632665 0.032364799 0.0026993809)
(0.11741238 0.037414613 0.0027615677)
(0.12916936 0.042315444 0.0028183364)
(0.14160992 0.046984619 0.0028608292)
(0.15474957 0.051323636 0.0028774966)
(0.16855426 0.055288537 0.0028777975)
(0.18302845 0.058798912 0.0028589334)
(0.19813472 0.06179501 0.0028232489)
(0.2138341 0.064232459 0.0027742702)
(0.23009021 0.066067756 0.0027160539)
(0.24686063 0.067255747 0.0026558436)
(0.26405797 0.067811892 0.0025883873)
(0.28169482 0.067690512 0.0025186032)
(0.29964172 0.066904793 0.0024771021)
(0.31792304 0.065509699 0.002414711)
(0.33642992 0.063436435 0.002397888)
(0.35512569 0.060891954 0.002335457)
(0.3740203 0.057625841 0.0023781686)
(0.39301451 0.054100393 0.0022919335)
(0.41208579 0.049958292 0.0023588365)
(0.43132091 0.045442914 0.0023389536)
(0.4504206 0.040822593 0.0023105059)
(0.46977548 0.035505179 0.0022574414)
(-0.00083515373 -0.0047247276 0.00071741792)
(-0.0013091243 -0.0095213995 0.00080067897)
(-0.0013884801 -0.014003716 0.00093372734)
(-0.0011713491 -0.018201335 0.0010018021)
(-0.00065607148 -0.022072716 0.0010676532)
(0.00025883705 -0.025447085 0.0010958735)
(0.0015018345 -0.028326633 0.0011211544)
(0.0031364666 -0.030604869 0.0011533581)
(0.0051751657 -0.03226565 0.0011572844)
(0.0076254339 -0.03324737 0.0011762474)
(0.010516127 -0.033548239 0.0011876248)
(0.013865867 -0.033133498 0.0011947385)
(0.017685193 -0.0320081 0.0012026448)
(0.022011189 -0.030171017 0.0012113626)
(0.026838533 -0.027656542 0.0012210751)
(0.032175688 -0.024478861 0.0012278799)
(0.038038436 -0.020692434 0.0012382448)
(0.044437583 -0.016342744 0.001259218)
(0.051391184 -0.011500237 0.0012808902)
(0.058909251 -0.0062246404 0.0013114615)
(0.06700767 -0.00061045383 0.0013478651)
(0.075698849 0.0052711794 0.0013880507)
(0.084993293 0.011321098 0.0014311508)
(0.094934237 0.017457393 0.0014787502)
(0.10551971 0.023552667 0.0015137139)
(0.11676138 0.029546245 0.0015710251)
(0.12869366 0.035290803 0.0016139715)
(0.14132415 0.040724427 0.0016278151)
(0.15462576 0.045740537 0.0016619452)
(0.16861091 0.050247298 0.0016702974)
(0.18324732 0.054167876 0.0016757795)
(0.19849949 0.057432216 0.0016786914)
(0.21432583 0.059976652 0.0016740549)
(0.23069054 0.061758347 0.0016742741)
(0.24751062 0.062740211 0.0016731684)
(0.26477007 0.06290009 0.0016804191)
(0.28238984 0.062246937 0.0016877624)
(0.30028575 0.060723401 0.0017263577)
(0.31849446 0.058516778 0.0017148174)
(0.33682755 0.055383836 0.0017931254)
(0.35543578 0.051719062 0.0017887428)
(0.37406631 0.047218334 0.0018720891)
(0.3928958 0.042287327 0.0018818952)
(0.41168616 0.036677641 0.0019799203)
(0.4306426 0.030698909 0.0019888766)
(0.44953542 0.02432722 0.002000421)
(0.46868186 0.01758454 0.0019659502)
(-0.00099185783 -0.0034623198 0.00039381221)
(-0.0013881098 -0.0069618028 0.0004229185)
(-0.0013584269 -0.010217492 0.00046236946)
(-0.0011112957 -0.013316133 0.00050602665)
(-0.0004311966 -0.016153647 0.00050333621)
(0.00053073634 -0.01866256 0.00051021785)
(0.0018894403 -0.020822346 0.0005040263)
(0.00360111 -0.022584732 0.00048569962)
(0.005720334 -0.023898438 0.00047127795)
(0.0082354184 -0.02476055 0.00046220466)
(0.011179014 -0.025129959 0.00043774279)
(0.014543194 -0.025017188 0.00042781157)
(0.018381143 -0.024391372 0.00040334327)
(0.022667885 -0.023295513 0.00039924727)
(0.027444035 -0.021711225 0.0003920602)
(0.032719941 -0.01967265 0.00037832582)
(0.038496451 -0.017215012 0.00037314995)
(0.044791694 -0.014373477 0.00036617842)
(0.051611344 -0.011193547 0.00036732427)
(0.058962961 -0.0077251882 0.00037514902)
(0.066855053 -0.0040279828 0.00039369428)
(0.075312543 -0.00015710598 0.0004140321)
(0.084378602 0.0038238107 0.00044474535)
(0.094037569 0.0078155271 0.00046975124)
(0.1043282 0.01179069 0.00051670542)
(0.11528485 0.015644749 0.00053970845)
(0.12693286 0.01932578 0.00055112167)
(0.13925892 0.022761813 0.00057896614)
(0.15227294 0.025884399 0.0005941636)
(0.16597379 0.028627542 0.00060344097)
(0.18033513 0.030949261 0.00062140678)
(0.1953399 0.032784604 0.00063423613)
(0.21095268 0.034103554 0.0006534897)
(0.22712257 0.034876744 0.00067677312)
(0.24381725 0.035056844 0.00071347705)
(0.26097654 0.034685031 0.00074559878)
(0.27853461 0.033662715 0.00081326953)
(0.29648309 0.032147986 0.00085648558)
(0.31472372 0.029981581 0.00093850832)
(0.33321253 0.027304211 0.0010503454)
(0.35193149 0.024195109 0.0010948003)
(0.37077691 0.020431959 0.0012958082)
(0.38983292 0.016486579 0.0013103308)
(0.40891077 0.011931165 0.001528238)
(0.42824543 0.0071995946 0.0015433134)
(0.44747093 0.002197591 0.0016780108)
(0.46687431 -0.0030688485 0.0017525035)
(-0.00087220707 2.6015721e-05 6.5923324e-06)
(-0.001018225 -1.8135778e-06 -8.3322405e-05)
(-0.00079899632 1.7601464e-05 -8.8411706e-05)
(-0.00024160536 7.1332852e-06 -0.00012812778)
(0.00062972617 -1.780055e-05 -0.00014056331)
(0.0018504466 -1.8923231e-05 -0.00017536424)
(0.0034080345 -4.9419277e-05 -0.00020534363)
(0.0053306823 -6.4021155e-05 -0.00022948613)
(0.0076153553 -9.2644879e-05 -0.00025164984)
(0.010280352 -0.00012716804 -0.00028175428)
(0.013336297 -0.0001668471 -0.00030884515)
(0.016811777 -0.00021383126 -0.00034715134)
(0.020697155 -0.00026457531 -0.00039132436)
(0.025003346 -0.00034105883 -0.00041532507)
(0.029756673 -0.00041067189 -0.00046568382)
(0.034942892 -0.00049734805 -0.00049735704)
(0.040575239 -0.00060165759 -0.00053582554)
(0.046665638 -0.00072629409 -0.00056378892)
(0.053219281 -0.00087525415 -0.00058978179)
(0.060254654 -0.0010531742 -0.00061134448)
(0.067798621 -0.001254551 -0.0006386842)
(0.075879264 -0.0014867635 -0.00065931897)
(0.084460157 -0.0017742018 -0.00068102082)
(0.093625169 -0.0020729068 -0.0006890632)
(0.10339177 -0.0024178912 -0.00072137343)
(0.11378399 -0.0027972174 -0.0007399458)
(0.12480804 -0.0032347153 -0.00073164136)
(0.13649994 -0.0037262522 -0.00072567115)
(0.14888062 -0.0042781415 -0.0007180922)
(0.16195295 -0.0048952845 -0.00068737489)
(0.17571675 -0.0055788493 -0.00065727523)
(0.19016845 -0.0063416746 -0.00060590216)
(0.20527538 -0.0071719858 -0.00054774094)
(0.22103265 -0.0080868176 -0.00046538208)
(0.23738271 -0.0090645058 -0.00037835698)
(0.25430274 -0.010145437 -0.00025384965)
(0.27174861 -0.011258976 -0.0001370205)
(0.28965172 -0.01248286 1.5834315e-05)
(0.30797361 -0.013780099 0.00019512929)
(0.32666199 -0.015080516 0.00033657953)
(0.34572948 -0.016511539 0.00054276915)
(0.36501204 -0.017964977 0.00072940276)
(0.38462871 -0.019388975 0.00087628059)
(0.40435107 -0.021012862 0.0011397181)
(0.42434574 -0.02247226 0.0012500723)
(0.44431483 -0.024103864 0.0015249392)
(0.46456351 -0.025706122 0.0016442726)
(-0.00063414399 0.0034208504 -0.00040762274)
(-0.00055765839 0.0068435513 -0.00051290947)
(-5.5227579e-05 0.010088688 -0.0006120253)
(0.00066285409 0.013128051 -0.00064938043)
(0.0018146766 0.015907996 -0.00072307244)
(0.0032402933 0.018377618 -0.00077668142)
(0.0050521883 0.020479266 -0.00083754325)
(0.0071681059 0.022181314 -0.0008947398)
(0.0096636171 0.023432254 -0.00095864949)
(0.012504621 0.024215791 -0.0010274859)
(0.015722128 0.024524873 -0.0011036623)
(0.019284367 0.024320943 -0.0011731629)
(0.023231023 0.023601622 -0.0012212012)
(0.027554449 0.022379809 -0.0012866437)
(0.032257037 0.020658051 -0.0013380821)
(0.037344621 0.018459377 -0.001387155)
(0.042827329 0.015811476 -0.0014420582)
(0.048705846 0.012744354 -0.0014870956)
(0.054994843 0.0093019861 -0.0015371214)
(0.061706705 0.0055316716 -0.0015805154)
(0.068865166 0.0014890506 -0.0016248397)
(0.076450591 -0.0027924782 -0.0016498447)
(0.084562401 -0.0072175491 -0.0016764285)
(0.093184286 -0.011783234 -0.0017091089)
(0.10237798 -0.016377741 -0.0017250323)
(0.11214367 -0.020967482 -0.0017251583)
(0.12255263 -0.025486051 -0.0017269239)
(0.133618 -0.029865449 -0.0017342302)
(0.14536876 -0.034056774 -0.0017172271)
(0.15782204 -0.038007287 -0.0016966849)
(0.17100058 -0.041674115 -0.0016551332)
(0.18490167 -0.045015544 -0.0015973239)
(0.19953283 -0.04799862 -0.0015181667)
(0.21487044 -0.050579575 -0.0014253081)
(0.23090176 -0.052771534 -0.0012952087)
(0.24760549 -0.054504114 -0.0011637041)
(0.2649207 -0.05582194 -0.00099634552)
(0.28284931 -0.056721446 -0.00079741774)
(0.30127666 -0.057152672 -0.00062997049)
(0.32027808 -0.05716427 -0.0003907641)
(0.33963391 -0.056825454 -0.00015701142)
(0.3594188 -0.056062094 8.5450892e-05)
(0.3795219 -0.055028742 0.00034339905)
(0.39988462 -0.053700514 0.00063922124)
(0.42054714 -0.052049961 0.00085487982)
(0.44134832 -0.050293754 0.0011856879)
(0.46234173 -0.048298446 0.0014392954)
(-0.00041710738 0.0047153062 -0.00076649982)
(-0.00011561979 0.0094087458 -0.00099910694)
(0.00043944484 0.013814024 -0.0011301754)
(0.0013024764 0.017961766 -0.0012769038)
(0.0025375939 0.021699481 -0.0013648651)
(0.0040858519 0.02500373 -0.0014655981)
(0.0059774567 0.027768036 -0.0015454423)
(0.0082129597 0.029960997 -0.001638323)
(0.010784398 0.031518607 -0.0017195867)
(0.01371138 0.032413899 -0.0018027496)
(0.016969311 0.032609211 -0.0018899082)
(0.020589987 0.032070189 -0.0019661484)
(0.024561932 0.030823143 -0.0020547809)
(0.028887816 0.028854209 -0.0021328275)
(0.033573139 0.026187563 -0.0022092963)
(0.038618425 0.022849961 -0.0022893089)
(0.044035904 0.018876728 -0.002367641)
(0.049822636 0.014321903 -0.0024425546)
(0.055997104 0.0092315005 -0.0025193867)
(0.062568876 0.0036877422 -0.0025922524)
(0.06954663 -0.002275545 -0.0026687812)
(0.077006689 -0.0084707281 -0.0027246804)
(0.084878826 -0.014975415 -0.0028153332)
(0.093292458 -0.021650596 -0.0028645314)
(0.10221928 -0.028334504 -0.002926311)
(0.11173684 -0.034999382 -0.0029800398)
(0.1218738 -0.041520831 -0.0030223823)
(0.13264317 -0.047840498 -0.0030381402)
(0.14409252 -0.053865439 -0.0030449066)
(0.15625769 -0.059535405 -0.0030198985)
(0.16914391 -0.064772672 -0.0029711077)
(0.18277423 -0.06951637 -0.0028894419)
(0.19714389 -0.073706781 -0.0027826744)
(0.2122562 -0.077319821 -0.0026335992)
(0.22809066 -0.080278812 -0.0024682136)
(0.24462622 -0.082615069 -0.0022546777)
(0.26184215 -0.084270894 -0.0020179985)
(0.27967131 -0.08525573 -0.0017587049)
(0.29812615 -0.085621319 -0.0014603137)
(0.31708091 -0.085334669 -0.0011576765)
(0.3365287 -0.084400843 -0.0008370708)
(0.3564358 -0.082914906 -0.00051007337)
(0.37667045 -0.080977407 -0.00014537574)
(0.39727752 -0.078486828 0.00017479831)
(0.41811045 -0.075646873 0.00053457135)
(0.43919163 -0.072480523 0.00093378227)
(0.46045077 -0.068954138 0.0013222981)
(-0.00018133346 0.0027404867 -0.0010868338)
(2.4894007e-05 0.0057690285 -0.0013869515)
(0.00049054295 0.0084100578 -0.0016329269)
(0.001233452 0.010907456 -0.0018110524)
(0.0023931553 0.013047088 -0.0019408751)
(0.0038285808 0.014847842 -0.0020678722)
(0.0056502156 0.016248153 -0.0021776974)
(0.0077818597 0.01720981 -0.0022924585)
(0.010279546 0.017721701 -0.0023975596)
(0.013118135 0.017720508 -0.0025068986)
(0.016322618 0.017234594 -0.0026166313)
(0.019891321 0.016191425 -0.0027220042)
(0.023825764 0.014640414 -0.0028290166)
(0.028135262 0.012549762 -0.0029261389)
(0.032818053 0.0099549716 -0.0030290878)
(0.037886549 0.0068609515 -0.0031284734)
(0.043343588 0.0032986217 -0.0032250536)
(0.049192597 -0.00069938354 -0.0033242043)
(0.055449998 -0.0051008415 -0.0034200366)
(0.062115952 -0.0098530925 -0.0035226692)
(0.06923085 -0.014903472 -0.0036203986)
(0.07676587 -0.020218592 -0.0037199341)
(0.084841068 -0.025706433 -0.0038179764)
(0.093388152 -0.031363477 -0.0039007989)
(0.10248878 -0.037058383 -0.0040018834)
(0.11216807 -0.042769662 -0.0040726767)
(0.12245352 -0.048420401 -0.0041117339)
(0.1333955 -0.053935017 -0.0041491599)
(0.14501837 -0.059271983 -0.0041558245)
(0.15733866 -0.064371368 -0.0041262044)
(0.17036633 -0.06917535 -0.0040658608)
(0.18411802 -0.073631595 -0.0039664371)
(0.19858479 -0.077708482 -0.003826132)
(0.21376158 -0.081346955 -0.0036509187)
(0.22962792 -0.084541408 -0.0034321859)
(0.24616328 -0.087253106 -0.003175054)
(0.26331533 -0.089462677 -0.0028940358)
(0.28108992 -0.091190385 -0.0025559257)
(0.29937757 -0.092404906 -0.002226685)
(0.31817476 -0.093143662 -0.0018501455)
(0.33740612 -0.093388346 -0.0014679806)
(0.35704185 -0.093218498 -0.0010593209)
(0.37698427 -0.092630059 -0.00065597967)
(0.39724749 -0.091620763 -0.00027167223)
(0.41768943 -0.09035761 0.00017435441)
(0.43839867 -0.088720216 0.0005563125)
(0.45918445 -0.086816974 0.0010294856)
(0 0 0)
(0 0 0)
(0 0 0)
(0 0 0)
(0 0 0)
(0 0 0)
(0 0 0)
(0 0 0)
(0 0 0)
(0 0 0)
(0 0 0)
(0 0 0)
(0 0 0)
(0 0 0)
(0 0 0)
(0 0 0)
(0 0 0)
(0 0 0)
(0 0 0)
(0 0 0)
(0 0 0)
(0 0 0)
(0 0 0)
(0 0 0)
(0 0 0)
(0 0 0)
(0 0 0)
(0 0 0)
(0 0 0)
(0 0 0)
(0 0 0)
(0 0 0)
(0 0 0)
(0 0 0)
(0 0 0)
(0 0 0)
(0 0 0)
(0 0 0)
(0 0 0)
(0 0 0)
(0 0 0)
(0 0 0)
(0 0 0)
(0 0 0)
(0 0 0)
(0 0 0)
(0 0 0)
(0 0 0)
(0 0 0)
(0.00036754132 -0.00031515153 -0.00074028588)
(0.00047815355 -0.00037845567 -0.00050014217)
(0.0005612645 -0.00040389893 -0.00026674675)
(0.00060559354 -0.00043346107 -6.6804016e-05)
(0.00058528719 -0.00039556375 0.00015128242)
(0.00054198476 -0.00039098872 0.00038664904)
(0.0003949769 -0.00026435439 0.00058714272)
(0.00049428672 -0.0016637077 -0.0014221462)
(0.00078828861 -0.0017223956 -0.00086473106)
(0.000922856 -0.0016663914 -0.00039043728)
(0.00093501388 -0.0016218961 -6.5929161e-05)
(0.0009346416 -0.001660138 0.00029726013)
(0.00078043431 -0.0016444204 0.00069049193)
(0.00058806101 -0.0016431723 0.0011614837)
(0.00074317501 -0.002729945 -0.0015484713)
(0.0010409565 -0.0026741291 -0.0010643301)
(0.0012398804 -0.0026447323 -0.00058356319)
(0.0013072242 -0.0026462633 -8.3470961e-05)
(0.0012566776 -0.0026217088 0.00040214291)
(0.0010674248 -0.0026569635 0.00084807099)
(0.00083892954 -0.0026587713 0.0014150812)
(0.0013770028 -0.0039822872 -0.0018314653)
(0.0017737799 -0.0039644127 -0.001282986)
(0.001968888 -0.0039177638 -0.00067588451)
(0.0020647157 -0.003912557 -0.00014167368)
(0.0019850997 -0.0039075293 0.00039724295)
(0.0018435002 -0.0039003616 0.00096277699)
(0.001467145 -0.0039346608 0.0015235109)
(0.0023444644 -0.005324391 -0.001918408)
(0.002700165 -0.0052667008 -0.0013343369)
(0.0029414005 -0.005236351 -0.00075021072)
(0.0030301839 -0.0052194449 -0.0001689811)
(0.0029755233 -0.0052114708 0.00044627004)
(0.0027668628 -0.0052288283 0.00099715751)
(0.0024479428 -0.0052091231 0.0016187722)
(0.0035952753 -0.0066336235 -0.0020793096)
(0.0040009638 -0.0066030005 -0.0014615956)
(0.004237753 -0.006554916 -0.00081562479)
(0.0043397502 -0.0065344314 -0.00021342265)
(0.0042732674 -0.0065317626 0.00041365804)
(0.0040764751 -0.0064903439 0.0010419688)
(0.0036979531 -0.0065222409 0.0016453588)
(0.0052144438 -0.0080579398 -0.0021744942)
(0.0056306836 -0.0080457824 -0.0015476173)
(0.0059015054 -0.0080030731 -0.00089967911)
(0.0060007316 -0.0080111035 -0.00027073034)
(0.0059506549 -0.0079829785 0.00038877031)
(0.0057339644 -0.0080118285 0.0010062084)
(0.0053665678 -0.0079540857 0.0016952496)
(0.0071793377 -0.0095117204 -0.0022978757)
(0.007603461 -0.0094757394 -0.0016378861)
(0.0078784495 -0.0094367764 -0.00094204599)
(0.0079893068 -0.0094170878 -0.00029656018)
(0.0079196788 -0.0094073351 0.00037703572)
(0.007720018 -0.0093767835 0.0010335426)
(0.0073187672 -0.0093751206 0.0016833315)
(0.009493288 -0.011015658 -0.0024033292)
(0.0099528337 -0.0110061 -0.0017282951)
(0.010248892 -0.011008743 -0.001048091)
(0.010359936 -0.010975809 -0.00035622536)
(0.010307252 -0.01095471 0.00033364753)
(0.010079859 -0.010942484 0.0010065975)
(0.0096952937 -0.010903717 0.0017235991)
(0.012205091 -0.012595847 -0.0025193498)
(0.012661484 -0.012557084 -0.0018201989)
(0.012963982 -0.01251266 -0.0010969037)
(0.013092084 -0.012518277 -0.00040095173)
(0.013022205 -0.012495682 0.00030479728)
(0.012803211 -0.012472221 0.0010136015)
(0.012392414 -0.012454492 0.0017056968)
(0.015273414 -0.014193159 -0.0026261476)
(0.015767495 -0.01419594 -0.0019250213)
(0.016085171 -0.01418475 -0.0011830818)
(0.016211396 -0.014167192 -0.00046365618)
(0.016163622 -0.014145497 0.00027925259)
(0.015924703 -0.014118542 0.00097518434)
(0.015532247 -0.014109387 0.0017458114)
(0.018773391 -0.015877173 -0.0027519691)
(0.019272564 -0.015870163 -0.0020017856)
(0.01958877 -0.01583373 -0.0012451211)
(0.019728369 -0.015825359 -0.00050227419)
(0.019672753 -0.015798511 0.00024783513)
(0.019429787 -0.015783244 0.0009739313)
(0.019020188 -0.015742945 0.0017842122)
(0.022664839 -0.01759155 -0.0028589974)
(0.0231657 -0.017591422 -0.0020843453)
(0.02350894 -0.01758753 -0.0013388691)
(0.023646065 -0.017568278 -0.00056044389)
(0.023598204 -0.017551906 0.00022164713)
(0.023338692 -0.01752708 0.00095756729)
(0.022932185 -0.017504901 0.0017650155)
(0.026969605 -0.019383719 -0.0029683902)
(0.027479011 -0.0193858 -0.0021729152)
(0.02784677 -0.019361334 -0.0014041461)
(0.027976271 -0.019349558 -0.00059881723)
(0.027939913 -0.019328346 0.0001848657)
(0.027676838 -0.019314132 0.00093649365)
(0.027267428 -0.019275829 0.0017806087)
(0.031695934 -0.021218959 -0.003080012)
(0.03222791 -0.021223361 -0.0022609183)
(0.03260033 -0.021207641 -0.0014831348)
(0.032742507 -0.021202553 -0.00065349233)
(0.032703701 -0.021181961 0.00014638045)
(0.032439545 -0.021157867 0.00093137111)
(0.032017126 -0.021124311 0.0017852545)
(0.036860054 -0.02311528 -0.0031838669)
(0.037401076 -0.023126141 -0.0023451317)
(0.037789394 -0.023106146 -0.0015486366)
(0.03793372 -0.023101121 -0.00070081604)
(0.037900811 -0.023077535 0.0001250663)
(0.037629908 -0.023060483 0.00091720168)
(0.037200451 -0.023024524 0.0017990759)
(0.042460882 -0.02507101 -0.0032910217)
(0.043020692 -0.025086093 -0.0024338987)
(0.043422675 -0.025071404 -0.0016162744)
(0.043570859 -0.025069673 -0.0007431708)
(0.043537508 -0.025049926 9.5494367e-05)
(0.043263262 -0.025029836 0.00091569028)
(0.042822706 -0.024995939 0.0018186769)
(0.048514229 -0.027094277 -0.0033962324)
(0.049088437 -0.02711219 -0.0025191987)
(0.049506821 -0.027102229 -0.0016778249)
(0.049656018 -0.027102787 -0.00078225268)
(0.049627465 -0.027081795 8.0005064e-05)
(0.04934247 -0.027063789 0.00092011995)
(0.04889551 -0.027030211 0.0018468259)
(0.055027646 -0.029186828 -0.0035042454)
(0.055620475 -0.02921204 -0.0026019689)
(0.056047453 -0.029201476 -0.0017376329)
(0.056203139 -0.029206496 -0.00081684201)
(0.056171832 -0.029188267 6.7649966e-05)
(0.055881687 -0.029170537 0.00093362843)
(0.055421825 -0.029138526 0.001884556)
(0.062010633 -0.03136067 -0.0036112143)
(0.06261981 -0.031383227 -0.0026835644)
(0.063063167 -0.03138603 -0.001794599)
(0.063219639 -0.031395284 -0.00084637315)
(0.063192743 -0.03137637 6.5387433e-05)
(0.062890245 -0.031363096 0.00095514058)
(0.062419485 -0.031325749 0.0019345443)
(0.069480894 -0.033616571 -0.0037229159)
(0.070110788 -0.033650945 -0.002766555)
(0.070562575 -0.033659517 -0.0018490871)
(0.070728158 -0.033667036 -0.0008719985)
(0.070698223 -0.033656753 6.6772393e-05)
(0.070386767 -0.033636319 0.00098625039)
(0.069899212 -0.033598443 0.0019979179)
(0.077455874 -0.035969699 -0.0038326061)
(0.078100194 -0.036010135 -0.0028480166)
(0.078572085 -0.036024963 -0.0018960881)
(0.078737233 -0.036039024 -0.00089730715)
(0.078709149 -0.036021271 7.9600495e-05)
(0.078380446 -0.036007504 0.0010262282)
(0.077880396 -0.035966411 0.0020703683)
(0.085954031 -0.038431021 -0.0039348284)
(0.086621237 -0.038468856 -0.0029213497)
(0.087102338 -0.038491137 -0.001949208)
(0.087273439 -0.038505784 -0.00091616936)
(0.087241123 -0.038510799 9.3187477e-05)
(0.086907235 -0.038494694 0.0010611175)
(0.086386962 -0.038440964 0.0021491936)
(0.095002041 -0.040971947 -0.0040317409)