/*--------------------------------*- C++ -*----------------------------------*\
  =========                 |
  \\      /  F ield         | OpenFOAM: The Open Source CFD Toolbox
   \\    /   O peration     | Website:  https://openfoam.org
    \\  /    A nd           | Version:  6
     \\/     M anipulation  |
\*---------------------------------------------------------------------------*/
FoamFile
{
    version     2.0;
    format      ascii;
    class       pointScalarField;
    location    "0.54";
    object      p;
}
// * * * * * * * * * * * * * * * * * * * * * * * * * * * * * * * * * * * * * //

dimensions      [1 -1 -2 0 0 0 0];

internalField   nonuniform List<scalar> 
3969
(
976522.55
-1400426.8
8729.552
5958.5557
1844106.4
-2839403.8
7447.7613
4328.7021
770280.73
553145.14
274505.14
-7884.4358
-242501.71
-550322.56
-644438.76
-10712.071
-2577.9356
-2435.5265
2460.681
7961.0407
12320.854
12715.358
308648.89
362258.7
357124.94
378577.06
377381.89
380688.57
377713.95
373458.42
369020.56
360864.99
355959.92
348818.17
339531.51
332327.94
323725.97
313379.71
305000.68
293762.21
283935.73
271810
260854.86
248637.05
236848.31
225405.6
212415.97
200159.51
187505.18
175935.03
165253.11
153419.4
143040.55
133029.88
123067.91
113758.56
105318.23
97285.558
88174.133
80817.46
71713.196
64756.977
55661.197
47774.837
40394.03
31379.141
26581.594
20176.716
14368.001
-316294.95
-283048.02
-347387.51
-317193.88
-353572.27
-334578.28
-343672.05
-332811.63
-331747.69
-324653.23
-318730.98
-314828.54
-304645.72
-300499.31
-291914.41
-283678.16
-275506.73
-265449.93
-256709.61
-246906.04
-235587.27
-227003.71
-214394.89
-204887.82
-192993.08
-181780.77
-169967.04
-158143.96
-147978.27
-136864.47
-128258.57
-117714.69
-109037.16
-99399.469
-91172.347
-82126.388
-74404.921
-65482.476
-58720.82
-50127.592
-42460.06
-35476.211
-28616.79
-21570.478
-14716.075
-9913.6325
-3310.114
1403245
1056213.3
487253.88
-35918.753
-462979.08
-1020234.3
-867745.37
-375224.86
-445577.89
-282545.24
-413200.25
-361140.38
-378210.29
-369136.03
-368509.49
-358655.41
-347934.87
-360769.64
-338978.5
-342507.97
-330980.25
-322732.13
-314927.78
-303565.29
-293759.78
-282081.06
-269921.64
-259343.57
-247576.79
-236240.03
-224386.3
-214273.11
-204675.7
-192334.93
-179330.42
-168062.99
-156419.1
-144283.45
-133399.73
-122274.61
-111674.1
-101777.2
-92410.563
-80131.625
-72714.829
-64597.737
-55699.675
-46790.527
-39144.527
-30467.823
-22651.225
-15554.082
-8628.8356
-3358.5692
17383.914
11161.523
7666.6256
5732.5661
-3672.1982
-3096.9702
-11603.82
24803.903
22590.101
25695.161
33249.449
40392.159
47994.21
56358.03
63951.067
72769.52
79975.201
86623.191
103501.68
108219.46
118536.06
129045.21
140081.9
150274.69
162166.82
173419.14
185398.8
197949.54
209638.76
222170.66
234770.92
247091.89
259547.74
271532.26
282640.5
294482.9
304878.75
316332.1
324855.26
331238.95
341553.52
358558.83
358089.84
367927.48
371195.52
375334.55
387738.93
398986.3
385645.99
399951.03
384010.61
369489.05
378500.52
379539.35
792900.59
877210.17
931189.86
920973.17
909647.4
925019.07
736684.52
-1069257.4
-1369685.3
-1578208.2
-1687367
-1598447.2
-1586447.7
-1190583.6
7389.8594
8274.2741
9229.9364
10586.081
10270.459
8858.4827
8909.7155
519.30213
2283.2565
1391.1385
902.52813
1890.5491
6138.9861
2259.5283
276656.32
277966.55
281318.71
292009.23
294513.32
299945.29
296223.67
298895.2
291421.72
292028.32
285049.46
278736.55
276085.03
269409.57
263381.07
256343.96
249062.42
240631.56
231678.02
222630.16
213407.57
203211.33
193457.01
183522.5
174082.57
163088.66
152886.76
143501.07
133135.77
123541.8
114585.86
105555.47
97102.018
89370.678
81691.243
74273.849
66644.746
60530.724
53538.328
48183.687
41205.952
36517.924
29542.856
24859.741
20216.822
12641.311
6827.4232
176676.97
173796.98
173715.58
184772.63
189807.32
198130.56
196612.77
196988.8
195271.83
195259.12
191391.77
189351.56
183931.82
178638.28
174828.98
169210.67
164484.24
158274.12
152419.87
145739.49
138391.35
130805.91
123281.1
115986.63
108074.19
101636.5
95175.932
87101.048
81634.636
75199.337
69685.402
64487.371
59646.733
55300.957
51145.177
47164.689
43636.291
40657.375
36127.11
33554.904
28771.255
26033.751
21128.223
18962.784
14502.269
9374.5353
3409.4082
74297.36
87772.871
81152.897
91459.308
91795.224
98772.763
98207.214
100908.25
99320.931
98806.399
98098.255
96693.876
94463.416
90077.682
86358.176
84419.625
82271.379
79505.618
77157.453
74131.136
71886.176
69212.818
66041.407
62704.773
59923.728
56359.926
52677.328
50290.789
47288.269
44170.207
41399.11
38657.224
35898.874
33428.549
31152.638
28580.906
26383.219
23795.486
21379.779
19603.676
16675.598
16158.859
12391.605
12193.055
8979.8031
5823.0045
4211.9152
-8832.9282
-7429.7126
-11691.744
-5312.7102
-10716.287
-7103.05
-10943.062
-7779.3428
-8655.085
-4141.3646
-5385.7275
-3566.979
-4158.6563
-3023.77
-2848.8209
-2268.4519
-2359.0375
-1886.876
-1914.4617
-2290.7121
-2277.1754
-3275.8866
-5211.8884
-4742.5036
-3941.7538
-3517.257
-2397.1345
-1733.7859
-1049.9693
-126.27802
699.17708
1567.703
2178.2085
3075.1638
3626.6854
4715.952
4480.4694
5193.9965
5805.0435
5776.2785
6243.9788
6292.6277
5182.8451
6760.3421
5425.4423
6527.2338
6713.6989
-106987.04
-93941.514
-98724.907
-103439.64
-108460.87
-108070.89
-109097.26
-106845.79
-106392.25
-100606.44
-101884.35
-96014.916
-96033.672
-90522.911
-88643.441
-84070.66
-81359.012
-77454.461
-74188.573
-70831.242
-65251.211
-58264.167
-55183.272
-48683.175
-46610.065
-44831.275
-40472.038
-36827.674
-33798.186
-30741.596
-27659.131
-25113.617
-22201.4
-19915.205
-17056.954
-15071.753
-13148.795
-10493.007
-10744.016
-8753.5034
-7955.5355
-6419.8518
-4516.782
-2314.7292
-1089.7123
2009.8872
4746.4334
-192404.65
-184207.43
-192914.19
-206168.38
-210004.71
-210522.92
-210419.24
-205932.46
-206026.07
-198752.96
-198658.3
-190251.02
-188381.62
-183435.34
-178485.34
-172038.46
-166577.92
-159864.75
-153588.19
-147231.25
-138604.63
-132357.21
-120888.54
-112373.51
-104460.46
-97300.599
-91280.103
-84761.789
-78481.53
-72399.822
-67262.805
-61497.778
-56527.655
-51325.768
-47016.107
-41883.642
-37531.78
-33722.155
-29720.079
-25963.857
-22300.965
-18487.323
-14159.45
-10350.402
-6137.5464
-1038.0426
6528.9798
-320490.14
-236781.38
-282958.19
-286849.56
-296983.39
-294221.26
-295541.19
-290600.67
-290454.29
-280700.37
-280166.91
-272623.58
-266727.82
-258865.36
-250875.8
-242232.78
-233017.29
-225046.45
-215768.95
-207006.46
-198204.82
-188645.14
-179367.56
-170312.66
-160650.21
-151866.82
-144983.87
-134674.43
-125772.92
-116936.54
-108887.9
-100481.19
-92464.778
-84904.162
-77478.885
-69904.458
-63387.703
-56118.555
-50147.295
-42396.312
-36077.688
-29412.592
-23332.778
-18035.255
-12261.252
-6200.9376
1992.504
637816.91
587808.98
614389.97
614966.77
619239.17
610269.71
562390.71
400896.93
456742.8
430555.98
443673.21
444347.81
436897.84
421011.62
202731.36
243320.36
209268.13
228664.46
217935.31
218080.69
230051.89
36093.886
12010.237
3078.1892
25409.428
13006.799
-11691.338
65929.99
-135697.74
-133309.28
-141045.24
-125546.17
-130755.47
-128724.41
-77892.148
-408028.27
-424279.27
-418233.88
-427114.22
-435764.17
-425997.52
-404848.6
-532214.5
-477233.65
-418924.4
-425312.2
-404308.5
-373452.36
-419590.97
-499067.41
-519041.55
-586316.4
-612252.03
-620626.96
-613519.04
-470358.91
-414988.32
-476617.41
-476949.63
-486902.56
-508125.8
-486844.8
-445176.28
-353117.62
-393777.99
-413010.41
-416553.35
-413574.49
-386176.04
-408603.13
-365697.89
-396185.41
-388081.68
-411072.29
-395664.85
-393111.72
-368375.71
-368357.47
-385303.34
-396568.17
-398828.41
-397998.82
-382445.49
-385389.72
-364180.92
-358506.49
-363819.14
-371806.7
-370713.22
-362256.02
-359273.9
-354315.07
-363198.13
-367519.81
-375042.13
-371459.75
-370319.99
-370873.04
-354334.88
-350119.1
-349488.46
-356196.54
-352677.4
-355898.73
-352724.53
-345687.09
-348500.41
-349625.92
-353315.37
-353610.67
-355482.68
-357024.57
-342970.44
-339840.65
-338950.2
-344578.78
-341847.39
-341202.8
-343974.7
-336897.98
-336416.65
-333059.25
-338924.18
-336458.26
-336459.91
-343504.74
-327596.96
-328489.54
-326536.8
-332907.76
-331040.02
-324167.21
-333009.71
-322379.13
-316979.36
-323924.71
-320719.51
-325313.58
-319420.16
-327175
-312237.73
-311464.12
-316756.32
-313818.27
-318867.31
-310833.41
-318332.07
-306165.8
-302723.11
-309119.23
-304614.76
-309866.31
-302571.34
-310715.09
-296183.88
-293215.02
-299768.11
-295856.37
-302558.42
-294996.21
-302972.71
-286019.23
-285230.89
-290812.41
-286999.19
-293669.27
-285624.74
-292690.27
-276091.69
-275727.5
-281686.06
-277368.6
-284635.91
-276017.6
-283848.77
-265711.86
-266053.19
-272025.02
-267226.06
-274550.96
-266011.46
-273828.73
-254831.82
-255827.23
-261662.32
-257007.41
-264532.5
-256018.54
-263775.79
-244773.06
-244844.84
-251040.14
-246028.84
-253449.4
-245319.87
-252630.17
-233434.08
-234020.26
-239817.52
-235363.92
-242600.11
-234418.82
-242103.67
-222827.13
-222425.36
-228919.09
-224110.54
-230165.27
-223595.08
-230438.4
-210784.82
-211849.56
-216696.39
-211685.78
-219217.32
-212792.34
-219868.63
-199172.66
-201158.11
-202867.07
-201812.34
-206361.34
-201861.41
-207642.17
-186416.11
-189675.29
-188873.43
-191024.43
-194303.61
-192616.69
-197191.53
-177413.79
-177642.97
-178276.66
-178727.95
-180572.01
-179782.52
-183964.32
-166485.09
-165872.97
-166557.86
-167206.61
-168924.69
-168620.18
-170387.96
-154757.1
-154244.19
-154988.42
-154942.95
-155724.64
-157241.28
-157602.85
-143985.84
-143142.04
-144270.35
-143441.3
-145033.54
-145969.17
-145823.12
-132718.05
-133083.15
-132740.85
-132535.33
-133079
-134240.31
-133984.37
-122711.79
-122309.38
-122242.55
-121711.41
-122226.01
-123485.22
-123377.91
-112113.86
-112729.76
-111842.31
-111554.54
-111702.01
-113151.02
-112924.83
-102719.28
-103049.6
-102102.68
-101833.79
-101714.01
-103012.2
-102670.9
-93130.257
-93862.019
-92582.855
-92197.167
-91813.263
-93595.735
-93317.929
-84229.93
-85288.826
-83495.957
-83730.71
-82898.895
-83699.576
-84289.075
-76743.15
-75484.57
-75811.409
-73469.88
-74838.442
-75778.813
-75326.858
-67443.288
-69283.392
-66177.466
-67164.44
-65288.303
-67273.065
-66797.319
-59749.403
-60324.306
-58298.74
-58490.912
-57391.557
-58767.125
-58361.788
-52168.162
-52379.709
-51332.086
-50609.362
-49823.592
-51131.984
-51058.584
-44261.962
-45206.354
-43406.46
-42888.942
-42319.271
-43261.55
-42910.025
-37036.301
-37689.337
-35889.534
-35931.78
-34873.213
-35740.222
-35575.452
-29299.448
-30537.35
-28815.276
-28943.118
-27480.636
-28490.837
-28194.686
-22521.426
-22932.722
-21720.8
-21331.681
-20303.311
-21229.031
-20695.431
-16534.544
-17770.896
-16346.042
-16275.135
-15299.758
-15280.937
-14635.229
-11774.917
-11612.408
-11018.31
-10614.874
-9597.7824
-10154.384
-9426.9465
-7517.3594
-7970.7554
-7854.7353
-6320.7789
-7643.1897
-6667.7268
-5786.3504
-17844.011
-20782.121
-23270.701
-23337.772
-21783.615
-20563.361
-17928.498
-9287.1339
-10091.253
-10414.903
-11114.682
-10172.617
-8224.4049
-6805.7566
-6516.243
-8058.7151
-8885.6094
-8565.5786
-7943.5312
-6161.9344
-5390.8975
3311.7119
3576.8746
3443.7361
3489.0792
4420.0327
3707.3084
5039.8396
9962.9424
9897.2982
9880.6367
11248.624
10353.722
10259.967
9886.0638
15644.865
18793.365
19478.137
19843.065
21066.121
18232.972
17399.266
19952.506
20111.696
22022.309
22138.225
21637.419
20325.217
18531.419
385703.58
387317.6
431383.46
423397.62
436558.6
418226.87
405617.48
406519.58
417760.33
438491.12
436469.1
442711.4
417631.88
409684.86
399972.71
407524.73
418081.41
420686.35
422390.49
402316.94
400521.13
387825.91
398863.44
409569.82
412463.14
410667.77
400992.24
401915.22
391898.01
395457.11
399430.47
402732.03
402642.74
397864.06
391366.83
382062.03
382421.66
391840.44
386827.39
391116.66
381510.46
385553.99
383011.73
382836.67
385998.11
384249.91
392244.32
384155.67
391146.65
372993.92
369956.9
378341.61
367994.92
375855.91
370912
374963.67
370764.03
370853.35
372787.94
370139.09
376939.29
369461.69
378520.29
365012.07
359909.38
364523.93
357832
366111.51
358814.17
367886.94
358861.67
354117.21
362305.57
353236.93
362816.1
354987.92
363420.97
349489.61
348533.55
352446.17
345092.3
352501.13
347179.72
354941.15
345710
339643.7
344186.97
338430.95
345047.12
339723.62
340887.04
335938.16
333197.61
335666.3
331718.61
336650.41
332724.79
339856.61
327978.32
324913.36
324707.82
324405.54
327055.75
323746.02
328791.53
321290.28
315130.07
317775.52
313487.15
319451.15
313586.76
318101.7
310107.95
305849.07
307429.79
305724.67
308467.77
304449.81
308510.41
300603.67
294796.72
298487
294380.62
298262.42
294235.37
297855.49
289205.67
284978.06
287513.74
283848.32
287862.54
283636.79
287283.84
279019.32
273162.88
276356.14
272779.62
276625.46
272318.21
275909.06
267717.77
261330.46
265301.7
261432
265274.5
261055.82
264505.2
256191.84
249542.27
253881.53
249839.39
253423.09
248900.41
252801.08
244757.12
237576.01
242468.59
238116.46
241477.78
237319.41
241120.72
232658.28
225577.51
230245.56
225791.65
228869.33
224705.81
228803.12
221197.54
212200.16
218276.95
213117.22
216182.11
212450.91
216827.88
209101.5
199754.62
206183.76
200699.91
203606.75
200457.91
204124.19
196789.09
187930.13
193368.93
188753.39
190636.74
188087.03
192224.76
185585.24
176152.68
180853.56
176906.87
178360.5
176561.13
180142.17
172714.88
163384.55
169461.6
164553.67
165714.33
164188.41
167820.6
161204.12
153349.61
157143.39
153127.96
153925.94
153135.82
156309.32
150142.4
141884.08
145908.99
142170.77
142391.69
141666.66
144810.66
138808.49
131829.21
134708.59
131338.13
130928.02
130790.8
133644.11
128335.88
121915.99
124288.49
121104.88
120304.74
120613.35
123540.22
118323.88
112753.33
114201.51
111570.06
110521.11
111020.63
113086.05
108566.31
103614.89
104746.84
102408.8
100565.24
101467.59
102852.84
98650.491
95380.719
95487.147
93224.715
91683.434
92484.342
93723.539
89525.882
87156.547
85530.445
85287.273
82651.519
83499.351
85973.395
81461.091
79872.601
78237.677
77250.272
75582.674
74272.805
77854.396
72089.521
71082.921
69356.681
68891.257
66849.214
66885.103
68905.092
64648.734
64052.363
62197.474
61870.682
59543.629
59101.6
61154.876
55427.305
54890.193
53092.766
53072.436
50838.933
51688.644
52610.755
47934.429
47720.517
46261.43
46148.504
44473.419
44363.57
45332.692
40096.527
40018.348
38400.89
38781.013
36665.742
37044.701
37217.563
31645.675
31508.015
30568.893
30851.132
29588.655
29760.784
30512.859
26714.538
28216.356
27885.558
28233.92
26800.069
26166.502
25144.077
21677.95
22133.087
21409.253
21492.569
21392.873
22135.355
20382.538
24136.454
26792.799
27681.047
28483.837
28229.439
28596.318
26503.621
401551.4
310972.2
307299.58
304123.54
319663.92
324966.64
316179.35
318915.47
315638.17
313033.69
306304.32
300798.6
293364.87
286558.54
278839.31
273141.63
262892.62
254720.09
245422.03
235619.64
225251.51
214292.16
203311.61
192127.59
180674.25
169534.01
157550.52
146919.98
136229.08
126001.18
116288.76
107055.78
98099.937
89785.969
83267.685
73408.274
67504.763
61645.823
54326.095
48640.226
43074.546
37151.389
32084.704
26361.072
20983.138
14439.338
5312.5841
247540.98
240821.99
175785.37
207247.36
233448.85
221248.09
234686.16
223793.42
228229.07
221289.22
219636.32
214867.85
206998.26
203591.46
198628.88
193328.16
186490.89
179159.56
173513.67
165449.17
158265.74
150914.68
143423.53
135470.85
127952.76
118392.43
114426.02
105872.39
99254.963
92764.36
86200.552
80248.912
74013.531
69189.319
62732.455
58220.747
53005.344
48126.904
43873.444
39572.666
35059.494
30447.712
26281.688
21628.982
17227.83
11935.917
5227.2609
122223.79
140050.21
77732.433
122712.93
104389.55
99705.458
104273.11
101763.7
101848.33
98655.22
102764.38
100355.09
103644.67
100469.41
99573.256
98825.52
95824.935
93330.311
91080.283
86573.306
83526.79
79735.085
75670.472
71761.1
67746.014
63554.781
60283.489
55029.802
51417.937
47295.518
43635.573
40068.192
36890.679
33623.123
30259.818
27941.208
24933.314
22667.819
20244.026
18735.401
16669.198
14803.167
13217.341
11169.773
9407.1917
7511.255
1636.337
-4387.5289
30670.44
-4912.1612
19278.034
1823.525
12641.023
7618.4905
-1966.0039
4977.831
3620.984
2766.812
5950.3712
3036.3013
10551.317
11077.509
12458.354
12178.84
12886.264
13099.907
12936.358
13544.634
13705.602
13836.778
14191.759
13602.572
13547.012
13083.078
13201.185
12610.21
12567.116
12085.621
12258.102
11697.919
11384.689
10873.568
10836.109
9777.1605
9616.3616
9226.6198
9099.1833
8513.022
8284.218
7800.2532
7023.4193
7380.9473
5314.3814
3378.534
-152344.95
-73711.464
-94733.471
-66480.589
-91011.38
-74060.79
-90626.244
-85966.478
-81035.797
-85248.917
-76266.684
-80810.732
-75922.144
-77871.086
-72964.877
-71072.567
-68230.65
-65461.307
-62211.857
-59407.693
-56199.031
-53251.992
-50247.806
-47554.102
-44532.329
-42642.872
-38968.826
-36148.185
-33866.82
-31634.653
-29530.591
-27459.742
-25471.391
-23307.843
-21580.386
-19611.954
-17987.494
-15444.459
-14186.176
-11715.696
-9877.4881
-7474.9794
-5646.4898
-3146.1495
-985.13091
1380.3275
3513.4641
-237383.87
-185202.57
-165538.62
-170430.78
-185273.7
-181389.56
-191387.22
-177791.5
-190757.84
-188407.19
-192633.9
-189052.42
-184583.57
-181942.57
-175270.93
-170558.68
-163556.71
-156249.72
-149321.77
-142750.08
-136221.8
-128897.88
-122056.44
-112010.38
-103382.18
-94486.99
-89233.967
-82444.344
-76586.141
-70447.144
-65391.835
-59829.5
-54817.799
-49978.215
-45508.137
-41192.18
-36625.572
-32843.444
-28910.731
-24486.136
-21064.465
-16711.312
-13008.26
-8896.9401
-5045.3628
159.12131
3924.2381
-312023.26
-251749.77
-266294.12
-264251.74
-294464.34
-286506.79
-292473.38
-289489.32
-290802.43
-284314.84
-281601.31
-279584.03
-271949.74
-265797.3
-258153.43
-250672.51
-243539.83
-235103.77
-227665.31
-218271.6
-209153.98
-199108.02
-189350.84
-178597.06
-169600.14
-153977.14
-145627.54
-136752.47
-128746.19
-121066.49
-113571.23
-105690.68
-98913.648
-91604.182
-84724.208
-78109.28
-71663.122
-64728.641
-57925.094
-50968.897
-44636.055
-37047.132
-30855.357
-23646.031
-16179.001
-9382.8557
-1802.548
472742.67
514685.1
504676.95
522380.83
521022.1
493762.45
461197.68
337124.78
389501.13
383489.78
396123.67
386533.87
371613.45
343304.49
326083.49
353537.69
367709.04
371467.8
363423.32
361007.09
344679.33
315336.59
326907.67
330259.21
341578.04
328075.43
331770.34
305438.35
311520.54
321045.22
330369.25
327443.2
325495.92
321653.5
301108.99
309019.71
324095.16
312853
327534.16
316413.27
316334.33
313906.23
309326.63
311714.85
309795.34
314084.14
303082.31
311209.51
302990.37
303418.83
317677.82
305297.12
314790.13
310195.01
307811.63
304917.89
305370.64
307000.82
294823.13
308264.82
295173.09
302967.04
297859.36
298267.02
303104.74
297675.34
305717.52
294794.71
301454.77
295774.57
293762.19
300799.7
288307.22
297394.93
288107.99
294385.01
289956.42
292902.79
291941.34
286347.22
290761.82
287009.04
286672.74
284711.75
285026.32
288173.96
280109.54
287107.17
279606.92
282864.1
282441.2
280114.17
278335.86
275642.72
279809.61
272356.53
275658.81
272790.94
273936.82
272158.48
270885.21
269938.16
266687.59
269148.53
265934.4
264635.37
265219.87
262669.23
264480.77
259306.14
259821.68
259233.51
256497.52
257197.24
254029.24
256470.24
250479.22
253286.49
251965.59
247827.28
249374.52
246589.33
246939.46
242905.83
244421.1
242604.77
238538.35
240710.43
236318.22
238480.88
233954.03
234765.13
233572.04
228820.48
230810.68
227461.96
228923.34
224396.72
225391.39
224537.22
217127.14
221857.83
217181.06
218831.97
214387.59
215287.36
214387.12
206478.03
211801.76
206500.15
208035.26
203963.22
204854.06
204384.94
194740.21
201360.22
194965.8
196982.34
193021.42
194457.71
193286.29
182938.54
190049.19
183576.29
185581.38
182302.8
183044.81
182283.36
170004.38
180322.32
172252.21
175195.31
171325.41
173174.31
171566.6
160024.52
168926.02
161934.27
162847.21
161569.69
161100.4
160701.58
149740.59
157477.08
150945.84
152311.32
151014.98
150823.31
149791.63
138063.61
145335.64
142193.59
140903.19
140399.18
139947.59
138733.99
127853.7
137821.67
130254.21
130971.96
130848.75
130325.36
128998.63
119349.38
125986.52
121642.44
121562.96
121473.35
120621.09
118983.31
109893.58
116991.02
112264.26
111856.7
112260.33
111280.8
109820.9
101747.72
107684.91
104055.51
103385.62
103900.87
103174.88
101310.23
94125.359
99084.132
96044.282
94890.507
96314.528
95096.844
93169.761
86784.189
90828.965
88272.113
87235.236
88265.523
87079.344
84792.097
79673.843
82420.066
81185.422
79388.729
81497.853
79906.7
78286.381
73068.846
75564.028
74321.259
72705.308
74342.866
73562.844
71092.978
67401.621
67924.501
67516.994
65198.381
68259.886
66259.374
66033.296
61130.996
60579.696
61778.07
59520.746
59983.26
60725.811
58242.77
55027.793
53615.207
54370.208
52792.283
54582.141
54570.321
52661.084
48622.732
48008.616
48501.503
47338.219
47765.663
48381.117
46293.642
43203.083
41274.076
42814.421
40571.179
42124.423
42203.11
40825.27
37074.998
36453.309
37179.735
35816.529
36989.694
36698.431
35470.629
31512.619
29623.896
30974.793
29280.466
30266.397
30380.671
29864.561
26523.581
25810.99
27290.356
25519.635
26937.904
26496.369
25379.944
20012.233
19481.716
19743.878
18906.791
19633.114
19635.374
19368.534
13541.945
12733.748
14157.421
12582.476
13697.387
13592.292
12319.495
5778.9758
3234.5012
3002.2851
2666.3902
3555.1329
2558.7836
5315.9062
310728.58
323678.09
352568.69
348541.71
360702.94
332717.94
332546.1
242353.06
294286.27
301299.33
311707.53
310372.05
290621.18
275981.18
236999.29
220863.85
248048.2
239921.62
251622.21
226627.59
234751.65
207803.34
215695.41
228326.74
225652.23
229396.28
223744
203619.74
217890.31
215461.44
227239.1
220028.5
230506.91
215828.77
219640.65
210264.56
205480.48
210771.17
206142.37
204931.56
211199.29
208429.36
211114.83
208425.43
219650.5
208628.13
217649.24
216029.01
211821.28
209694.45
202554.67
205878.52
199859.64
206568.36
202323.21
208561.64
208659.61
199514.67
210585.69
201706.92
204183.18
206404.51
207604.61
203344
198740.4
204818.86
192854.57
201306.38
200196.75
204176.12
202708.43
196063.01
199312.83
192490.01
197265.06
197580.04
199465.66
199704.71
189930.68
199020.71
188268.77
196062.38
192474.52
199650.31
194750.11
187639.81
194810.76
182841.82
190938.37
186327.58
192374.32
190165.33
184769.57
189245.81
179398.32
186180.39
183739.61
185272.96
185401.17
182098.5
182287.72
174679.07
181690.94
177931.12
180368.24
180879.86
176157.97
176763.91
171197.1
175176.83
173235.54
174407.33
175027.74
171181.2
171783.27
165269.46
169536.44
168762.62
170869.4
168807.15
165346.75
164733.37
160202.01
163647.18
162489.45
163096.17
163012.61
158560.23
158897.46
154366.88
157346.93
156190.59
157987.79
155754.55
151905.29
152492.97
148126.66
150609.33
149706.91
151414.07
149520.17
145145.9
145653.37
141385.1
143835.35
143217.94
144762.53
142970.27
137987.42
138310.54
134817.74
137069.92
136471.19
137453.35
136336.68
130247.21
131405.45
128294.93
130435.23
129095.02
130513.72
129109.95
123312.58
124834.32
122042.42
123417.43
122323.01
123621.49
122102.06
116397.77
117710.98
114912.77
116544.62
114993.96
116070.39
114930.86
109757.02
109130.54
110040.13
108366.86
107535.39
110159.32
106226.82
103026.94
102827.93
101269.16
102457.24
100174.88
101542.25
101044.64
96357.212
96102.212
95338.641
95462.737
93930.331
95148.803
93642.294
89325.511
90244.574
88815.723
89399.439
87039.583
88212.606
87462.632
83732.932
83395.146
82941.841
82432.513
80851.043
81619.585
81129.15
77967.008
77789.018
77317.228
76614.896
75101.063
75610.249
75315.599
72844.623
72110.377
72086.754
70999.664
69884.725
69686.093
69899.89
67908.855
66836.609
66940.117
65740.697
64124.918
63567.079
64580.07
62996.794
61761.291
62340.071
60394.14
59132.805
58904.638
59311.87
58898.058
57457.407
57714.659
56216.762
55086.419
54335.529
54827.663
54867.255
52561.994
53738.386
51519.243
49943.284
48665.287
49908.347
50386.287
48535.477
49091.092
47277.175
45697.27
44836.452
44895.528
47094.285
44337.555
45477.22
43210.428
42200.134
40565.779
40677.982
42338.564
40385.839
40933.348
39398.393
38620.791
36067.66
36311.17
39225.812
36617.617
37329.966
35327.289
34265.716
31898.226
32309.319
34303.916
32238.352
32846.065
31568.577
30715.491
28448.712
27729.269
30774.937
28020.745
29297.359
27408.944
26757.129
24916.793
24214.9
25826.616
23978.039
24759.087
23177.646
22955.639
21077.979
19968.226
21908.112
19749.407
20724.843
19557.739
19305.802
17950.538
14666.246
16478.222
14716.06
15686.73
14365.683
14405.121
12893.581
9871.6096
10576.253
8603.168
9391.4912
8937.9793
9245.4789
8205.8598
4277.9004
2062.1282
241.15564
1087.5917
1087.2775
1446.6937
2770.5605
178450.22
183798.76
177264.92
193610.84
185214.46
175593.62
168075.64
125426.94
183470.05
172657.03
187581.18
166598.94
173286.87
144313.97
122307.59
115432.5
121948.25
125320.26
119954.97
112062.95
111216.41
99439.398
121276.99
125236.95
135428.81
119242.71
129463.44
104616.16
111928.26
106687.86
110564.55
104778.5
105418.48
99763.984
101108.2
100603.14
113146.32
102859.38
107602.99
106378.97
105640.89
103651.28
105998.79
111767.56
97765.369
103286.03
103637.63
99558.324
102372.5
102221.11
113772.3
95158.503
103841.69
99185.845
97315.743
102548.67
104940.26
114399.34
95141.971
101650.71
99182.188
99500.118
101955.01
104098.53
112497.01
91710.566
98538.044
98592.319
96332.67
100325.31
102771.56
111890.39
90592.275
100518.42
96686.816
97388.411
98123.563
99301.024
108769.23
88623.901
96664.699
94673.274
93879.26
97597.303
95315.107
109708.37
86744.284
96054.598
92741.094
93033.911
95716.06
95218.824
103965.17
87678.701
93921.459
93793.717
87921.86
98089.329
94933.411
99296.137
85703.532
92437.002
90224.444
86930.459
93922.108
91700.658
95326.4
85211.817
88297.609
88513.439
84488.729
92455.123
87582.541
93032.28
82407.445
86831.93
85317.338
82696.768
88363.502
85159.215
89194.886
80374.632
84033.254
82724.959
80417.244
84884.242
80956.804
86698.945
77732.261
81559.398
79519.36
77648.807
81509.266
77880.147
83455.466
74894.785
78400.784
76298.611
75063.399
78340.661
73810.9
80102.242
71724.038
75130.271
73097.663
72287.209
74034.225
70056.653
76128.528
68555.306
72005.916
70115.075
68486.912
70693.637
66289.733
72344.359
65468.581
69075.086
65639.03
65451.084
66889.158
62406.89
68084.771
62234.049
64368.16
61642.862
61820.307
62562.635
59150.406
64163.156
58671.658
60716.064
57973.544
58469.053
58941.12
55777.761
58864.862
55843.646
56200.988
54139.362
54932.707
54780.942
52943.7
56150.264
52273.329
53936.344
49967.854
52173.513
50587.847
49529.119
53518.751
48541.463
50118.496
47361.72
47930.338
48123.271
46380.754
49263.529
45565.297
46240.815
44145.775
44516.998
45005.624
44008.174
45907.745
42787.762
43386.629
41225.594
41459.916
41923.998
41582.88
42462.991
40048.188
40329.283
38238.358
38648.31
39147.225
39165.536
39530.457
37353.926
37440.387
35530.443
35703.146
35801.594
37149.121
36228.911
34771.164
34480.124
32851.81
32600.376
33825.043
34728.45
33556.649
32368.447
32039.826
30362.561
30745.138
31279.689
32984.527
30730.682
29982.624
29099.855
28127.662
27411.304
28785.763
30473.612
27973.369
27257.283
26839.899
25304.513
25409.827
26577.103
28772.519
25360.281
25379.686
24058.769
23657.544
22516.812
25354.065
26082.898
23337.416
22529.844
22384.744
20915.614
20965.298
22864.759
24619.524
20729.146
20518.01
19385.725
19105.238
18445.36
20836.035
22205.468
19557.999
17957.663
18673.59
16989.797
16854.894
18685.398
20070.23
15400.049
15873.217
14903.757
14651.692
14501.497
17216.727
17750.641
15902.819
15015.397
15113.457
14164.973
13739.366
15145.42
15762.662
11273.168
11720.972
10922.436
10825.024
10620.04
13544.714
13214.002
11395.829
11937.004
11597.182
11209.982
11265.553
12019.454
10007.617
7302.3561
7795.4055
6492.7156
7110.9913
6716.6567
8108.5815
7749.7882
6097.2085
5693.8069
5612.4094
6063.5152
5798.0607
7780.6712
4105.0315
187.55035
820.64678
420.3157
279.14696
403.64074
2247.0583
1734.3398
-5474.3737
160.55378
4259.6884
3178.5011
727.25483
17078.56
-2817.0792
1377.978
578.48762
7069.776
2224.5243
5115.9975
2973.512
11997.308
-15654.667
-9919.8776
-17325.675
-8686.7857
-16369.247
5231.1676
-3597.3334
-10118.378
789.25692
-4280.3982
-4541.5935
4553.6276
-6617.7971
2350.3845
-3348.5398
-2620.5692
-18839.295
-23.28799
-20747.288
5500.9859
-594.73602
-8052.3802
-9867.8308
-7363.0418
-7138.9419
-4509.8718
-1494.8521
83.860761
-4880.1858
2484.936
-10834.455
-1512.9436
-8897.2046
1764.7406
1327.5926
-4265.8194
-7322.5334
-7048.7219
-6446.6319
-4463.2763
460.86552
737.02512
-7121.7912
-1545.219
-9224.0241
-2718.5948
-4506.5194
-3968.3127
-1828.8521
-3861.5465
-3629.299
-9201.9742
-5041.9762
-6024.791
-1441.6407
-503.14963
-4498.3664
-4333.694
-9225.3148
-6116.8237
-5277.8662
-2098.5651
-1124.2299
-4108.3274
-5506.4807
-7700.5212
-6299.8911
-3343.1743
-2019.1202
816.29364
-5326.6193
-4385.7189
-7973.4481
-4503.8346
-5364.5338
-1281.8076
540.79383
-5492.3627
1448.8472
-6374.06
-7504.6398
-2800.9449
-4922.495
2432.7506
-102.8327
-6357.2954
-4968.5579
-7139.5642
-3344.4405
-1982.1198
1093.6223
-882.17422
-5770.487
-3328.8624
-7869.1318
-2543.1414
-2046.2318
2653.8884
-1078.1217
-4218.5326
-1681.5769
-7021.7248
-2182.6276
-434.39599
2291.0089
-284.09777
-3371.0841
-1299.6242
-6691.2551
-1543.1529
-619.42159
3376.5609
1010.1174
-2462.7371
-651.18319
-5571.8689
-1228.8842
254.98115
4028.9541
1471.9612
-2276.9497
-230.56415
-5088.8949
-394.08494
116.63312
4859.0587
2362.477
-1349.8122
625.5137
-3537.5319
-173.67975
619.55718
5728.396
3790.6614
-761.27071
1785.1416
-3347.981
616.78904
1251.33
6165.243
4464.7035
605.41376
1445.3449
-2347.6428
1343.3635
1634.4293
7413.5878
5324.4868
1699.0865
2326.7257
-308.05379
2715.2134
2464.8433
7553.5313
5835.8606
3075.8351
2920.1576
1748.2945
3018.253
2947.0516
7806.9065
8207.9059
3885.3903
4472.6359
3187.047
3594.7876
3864.3041
9288.7763
7997.8285
4980.9147
4771.3996
4066.3482
4340.6934
3737.1431
9373.188
8347.3329
5783.2831
5537.3325
4433.0389
5252.5992
3964.037
9923.8989
8908.989
6778.4663
6798.263
5674.7213
6167.3402
4576.0924
9883.1583
9664.6712
7453.7404
7249.9741
5980.4233
6797.0912
4614.5569
10116.706
9903.75
7981.2026
7997.8653
6632.4013
7351.6475
4623.304
10077.641
10133.158