/*--------------------------------*- C++ -*----------------------------------*\
  =========                 |
  \\      /  F ield         | OpenFOAM: The Open Source CFD Toolbox
   \\    /   O peration     | Website:  https://openfoam.org
    \\  /    A nd           | Version:  6
     \\/     M anipulation  |
\*---------------------------------------------------------------------------*/
FoamFile
{
    version     2.0;
    format      ascii;
    class       pointVectorField;
    location    "1.12";
    object      u;
}
// * * * * * * * * * * * * * * * * * * * * * * * * * * * * * * * * * * * * * //

dimensions      [0 1 0 0 0 0 0];

internalField   nonuniform List<vector> 
625
(
(0 0 0)
(0 0 0)
(2.5357986 -0.31674552 0.11998541)
(2.3608822 -0.88125971 0.12177351)
(0 0 0)
(0 0 0)
(2.3454841 -0.90099175 0.12042787)
(2.5201816 -0.33686013 0.11934542)
(0 0 0)
(0 0 0)
(0 0 0)
(2.4913564 -0.458455 0.11963331)
(2.4476161 -0.5984069 0.12075767)
(2.4047483 -0.73910899 0.12120811)
(0.0088345205 0.02697648 0.02413197)
(0.029895813 0.054494563 0.024340818)
(0.066531403 0.079569397 0.027101892)
(0.11863406 0.10187968 0.028072386)
(0.18039363 0.11890463 0.030379677)
(0.2566757 0.13177864 0.032794077)
(0.34085702 0.13952364 0.03600163)
(0.4350156 0.14187109 0.039396927)
(0.5372383 0.13998606 0.043630329)
(0.64622025 0.13255857 0.047480023)
(0.76161827 0.12103938 0.052169665)
(0.88244638 0.10480003 0.056814891)
(1.0078347 0.084543961 0.061645264)
(1.1372815 0.060426033 0.066616859)
(1.2700455 0.03285775 0.071650171)
(1.4055521 0.0020494444 0.076801068)
(1.5433846 -0.031370192 0.081886086)
(1.6828498 -0.067522898 0.087236877)
(1.8238552 -0.10549619 0.092326175)
(1.9655103 -0.14531867 0.097773793)
(2.108026 -0.18667955 0.10324555)
(2.2506843 -0.22891776 0.10873677)
(2.3929542 -0.27230575 0.11471646)
(-0.0051738044 -0.019638131 -0.030565488)
(0.016927881 -0.041449335 -0.021858671)
(0.049258292 -0.069561159 -0.022851693)
(0.092564748 -0.095427518 -0.016786586)
(0.14549771 -0.11978933 -0.012302245)
(0.21194549 -0.15167282 -0.0059951297)
(0.28406795 -0.17897745 -0.00093220837)
(0.36713583 -0.21106229 0.0061316764)
(0.45712777 -0.24450505 0.012309343)
(0.55477488 -0.27885994 0.019518526)
(0.65886306 -0.31600629 0.026562732)
(0.76890553 -0.35409779 0.033971662)
(0.88436198 -0.39411388 0.041386457)
(1.0044582 -0.43535514 0.048907108)
(1.128878 -0.4778174 0.05647693)
(1.2568994 -0.52130544 0.063981898)
(1.3881678 -0.56559028 0.071525503)
(1.5221455 -0.61039561 0.078893575)
(1.6584198 -0.65570222 0.086331553)
(1.7965595 -0.70103476 0.093476633)
(1.9362609 -0.74656978 0.10074767)
(2.0769759 -0.7917337 0.10770503)
(2.2185334 -0.83661493 0.11466533)
(0 0 0)
(0 0 0)
(0 0 0)
(0.0043024313 -0.014546514 0.021832136)
(0.020093873 -0.060481625 0.028200152)
(0.053549654 -0.075728397 0.02533346)
(0.092455096 -0.10562094 0.025440715)
(0.14831659 -0.14114641 0.029669663)
(0.21037666 -0.16479196 0.029297688)
(0.28208644 -0.19919001 0.033929644)
(0.36353589 -0.231132 0.036406138)
(0.45211599 -0.26557268 0.040679222)
(0.54829544 -0.30138906 0.045079072)
(0.65096625 -0.33785998 0.049422894)
(0.75976692 -0.37704701 0.054520624)
(0.8739537 -0.41642537 0.059475632)
(0.99309019 -0.45778509 0.064703396)
(1.1165262 -0.4999329 0.070078026)
(1.2437977 -0.54302933 0.075474828)
(1.3743806 -0.58698159 0.080995045)
(1.5078221 -0.63144274 0.086565975)
(1.6436367 -0.67631661 0.092157297)
(1.7814973 -0.72146937 0.097824366)
(1.9208306 -0.76655947 0.10350058)
(2.0615427 -0.81173823 0.1092457)
(2.2029166 -0.85637858 0.11501338)
(2.3895913 -0.75870688 0.12012156)
(2.431808 -0.6182343 0.11998084)
(2.4757104 -0.4787318 0.12015496)
(2.3776779 -0.29253087 0.11219767)
(2.2350698 -0.24923737 0.10541784)
(2.0926769 -0.20699479 0.098591168)
(1.9506063 -0.1658345 0.091654782)
(1.809156 -0.12622126 0.084725008)
(1.6687373 -0.088425142 0.077731337)
(1.5297259 -0.05264505 0.070714606)
(1.3925364 -0.019394138 0.063668897)
(1.2576942 0.011228289 0.056599952)
(1.1256791 0.038736878 0.049531883)
(0.99704417 0.062871834 0.042492569)
(0.87259626 0.083417888 0.035491639)
(0.75260319 0.099854176 0.028588547)
(0.63838813 0.11251895 0.02168662)
(0.5300045 0.12034161 0.015453508)
(0.42931219 0.12312449 0.0088838806)
(0.33611423 0.12281 0.0024939554)
(0.25185892 0.11630166 -0.0026404885)
(0.17842327 0.10538142 -0.0084954456)
(0.11502756 0.089506504 -0.012343233)
(0.064695392 0.072568471 -0.018408167)
(0.026979225 0.047246608 -0.019105692)
(0.012351383 0.022554839 -0.016968366)
(0 0 0)
(0 0 0)
(0 0 0)
(0 0 0)
(0 0 0)
(0 0 0)
(2.3567552 -0.88652706 0.12120997)
(2.3530628 -0.89156655 0.12118238)
(2.3489768 -0.89652231 0.12080056)
(2.5324467 -0.32135097 0.11993687)
(2.5285073 -0.32660463 0.11967133)
(2.5245713 -0.33146635 0.11948161)
(-0.0079514289 0.011364065 0.016711512)
(0.008509039 0.02424403 0.013225457)
(0.039830278 0.035637114 0.016492153)
(0.085188481 0.044679897 0.017816013)
(0.14357427 0.051611562 0.020969271)
(0.21627235 0.054725785 0.024219383)
(0.29838965 0.054167343 0.027831774)
(0.39255638 0.050106758 0.032171204)
(0.49526396 0.041650822 0.036529995)
(0.60678148 0.028871086 0.041243116)
(0.72541382 0.012328464 0.046310733)
(0.84989256 -0.0086144942 0.051450555)
(0.97934275 -0.033146213 0.056803933)
(1.1125591 -0.061297337 0.06228731)
(1.2484889 -0.092657917 0.067878999)
(1.3863211 -0.12675489 0.07351186)
(1.525173 -0.16340399 0.079272639)
(1.6644455 -0.20199889 0.085039599)
(1.8037498 -0.24223045 0.090800042)
(1.942444 -0.28393714 0.096780529)
(2.0807436 -0.32664327 0.1024438)
(2.2182117 -0.36991789 0.10845831)
(2.3550019 -0.41430057 0.11427818)
(-0.0092073318 0.0042838376 0.0015444399)
(0.013879753 0.0063240627 0.00028412845)
(0.046751723 0.0081708155 0.0034723024)
(0.094582157 0.0075334344 0.0063929395)
(0.15455409 0.0022903362 0.0097498234)
(0.22463793 -0.0051855129 0.013768759)
(0.30475987 -0.015952357 0.018077185)
(0.39397073 -0.031018455 0.023143196)
(0.49056332 -0.048705699 0.028043994)
(0.59490089 -0.070239724 0.033745202)
(0.70506695 -0.094697783 0.039370008)
(0.82116918 -0.12234573 0.045352498)
(0.94209984 -0.15276254 0.051443054)
(1.0673967 -0.18572983 0.057670553)
(1.1964125 -0.22104381 0.063933879)
(1.3286369 -0.25836717 0.070278683)
(1.4635353 -0.29747615 0.07663111)
(1.6006677 -0.33800908 0.082943311)
(1.7396159 -0.37987892 0.089338779)
(1.8798114 -0.42258253 0.095591118)
(2.0212539 -0.46609281 0.1019194)
(2.1631694 -0.51007297 0.10828547)
(2.3058284 -0.55441721 0.11453557)
(-0.0072760078 -0.0049790665 -0.010583456)
(0.022251904 -0.010742927 -0.010344159)
(0.057466191 -0.018360628 -0.008533967)
(0.10948935 -0.031908814 -0.0050886336)
(0.16867312 -0.048554192 -0.0012007461)
(0.23779227 -0.065386875 0.0035098313)
(0.31497551 -0.088622456 0.0091563094)
(0.39855697 -0.11220143 0.014565784)
(0.48910662 -0.13927808 0.020744155)
(0.58539234 -0.16905431 0.027110229)
(0.68725092 -0.20063932 0.033521538)
(0.79452251 -0.23484513 0.040266747)
(0.90672841 -0.2706749 0.046944826)
(1.0239732 -0.30837281 0.0537164)
(1.1458612 -0.34765431 0.060516874)
(1.2724123 -0.3882216 0.067282772)
(1.4031747 -0.43004866 0.074062714)
(1.5380743 -0.47286162 0.080833996)
(1.676481 -0.51639759 0.087535839)
(1.8182036 -0.56065282 0.094349889)
(1.9624494 -0.60521982 0.10095505)
(2.1088147 -0.64996113 0.10772024)
(2.2565201 -0.69469963 0.11439805)
(0 0 0)
(0 0 0)
(0 0 0)
(0 0 0)
(0 0 0)
(0 0 0)
(0 0 0)
(0 0 0)
(0 0 0)
(0.0077282895 -0.0086692963 -0.013855734)
(0.011421178 -0.012009523 -0.0028597736)
(0.010597849 -0.0083793895 0.0069093531)
(0.03144672 -0.05222106 -0.010969156)
(0.031333365 -0.054112706 0.00038954233)
(0.030246868 -0.052540087 0.014978456)
(0.0591339 -0.072232357 -0.011050204)
(0.06281953 -0.072209378 0.00022655152)
(0.062706929 -0.079485882 0.014909578)
(0.10086182 -0.10003333 -0.0056389049)
(0.10398357 -0.10516803 0.0045915031)
(0.10112028 -0.10395739 0.0160153)
(0.15538187 -0.12990892 -0.0022278136)
(0.15698824 -0.13249683 0.0066576199)
(0.15581623 -0.13793448 0.01898632)
(0.21744414 -0.15734993 0.0025563449)
(0.21959858 -0.161538 0.01185207)
(0.21764641 -0.16453117 0.021658419)
(0.2904587 -0.18785398 0.0080937907)
(0.29170694 -0.19362784 0.015209936)
(0.28973524 -0.1975764 0.025914901)
(0.37192625 -0.21986556 0.013648497)
(0.37260364 -0.22372539 0.020670025)
(0.37054561 -0.22874698 0.029443085)
(0.46104174 -0.25269807 0.019701447)
(0.46117644 -0.25870406 0.026021123)
(0.4587353 -0.26269396 0.03422247)
(0.55780345 -0.28821487 0.026003403)
(0.55743234 -0.29330013 0.031729327)
(0.55499577 -0.29837939 0.039188203)
(0.66085252 -0.32437247 0.032571421)
(0.66011724 -0.33013775 0.037764713)
(0.65726612 -0.33482064 0.044318588)
(0.77018378 -0.36298955 0.039390764)
(0.76890256 -0.36851384 0.043915804)
(0.7660061 -0.37342008 0.049850828)
(0.88474006 -0.40241523 0.046191891)
(0.88317925 -0.40795668 0.050246027)
(0.87997771 -0.41303511 0.0555099)
(1.0042003 -0.44355 0.053192968)
(1.0022153 -0.44909351 0.05675265)
(0.99887245 -0.45399958 0.061226636)
(1.127921 -0.48566185 0.060188306)
(1.1256352 -0.49105967 0.063195685)
(1.1221311 -0.4961339 0.067120338)
(1.2553795 -0.52880764 0.06715386)
(1.2528157 -0.53418511 0.06976361)
(1.249163 -0.53912221 0.073034641)
(1.3861255 -0.57272085 0.074164566)
(1.3832865 -0.57795416 0.076301955)
(1.3795311 -0.58292423 0.078980064)
(1.5196611 -0.61720239 0.0810657)
(1.5166115 -0.62240311 0.082789404)
(1.5127618 -0.62733202 0.084983056)
(1.6555265 -0.66210354 0.087963839)
(1.6522688 -0.66717794 0.089318576)
(1.6483575 -0.67208573 0.090957295)
(1.7933879 -0.70717958 0.09474848)
(1.7899672 -0.71225406 0.095737684)
(1.7860015 -0.71714866 0.096967167)
(1.9327 -0.75232688 0.10153032)
(1.9291093 -0.75724798 0.10217893)
(1.9251626 -0.76214869 0.10296618)
(2.0732795 -0.79729056 0.1081609)
(2.0696298 -0.80231611 0.10854369)
(2.0656486 -0.80727111 0.10896353)
(2.2146258 -0.84209107 0.11476776)
(2.2107889 -0.84693625 0.11478697)
(2.2069675 -0.85182716 0.11493476)
(2.4880346 -0.46323808 0.12011483)
(2.4842115 -0.4683067 0.12004581)
(2.4801288 -0.47327902 0.12006856)
(2.4438449 -0.60328445 0.12074713)
(2.4400347 -0.60851834 0.12044116)
(2.4359319 -0.61326769 0.12021486)
(2.4008955 -0.74438109 0.12083307)
(2.3971708 -0.74938744 0.12069861)
(2.3931747 -0.75418713 0.1204498)
(0.019919591 0.021696371 0.011317749)
(0.019203675 0.023550554 0.0031958797)
(0.020242623 0.022209918 -0.0057963067)
(0.037842468 0.050384698 0.012553497)
(0.039774724 0.04931006 0.00030502167)
(0.037529244 0.046696348 -0.010007108)
(0.077175358 0.076584149 0.014477031)
(0.075866387 0.074144435 0.0056037494)
(0.07543265 0.072953038 -0.0077356974)
(0.12480393 0.096486536 0.016619438)
(0.12631132 0.093762508 0.0066906348)
(0.12417468 0.092140823 -0.0041579415)
(0.18858218 0.11475535 0.020056828)
(0.18952184 0.11087052 0.010207382)
(0.18693994 0.10797803 0.00049437574)
(0.26277501 0.12586133 0.022802305)
(0.26203157 0.12133228 0.015137891)
(0.26045618 0.11856587 0.0049613659)
(0.34634426 0.13324047 0.027035708)
(0.34644282 0.12893821 0.019099439)
(0.34430558 0.12501529 0.0099557616)
(0.44000334 0.13552148 0.03128071)
(0.43948454 0.13052849 0.023949625)
(0.43668999 0.12695411 0.01560882)
(0.54098429 0.13355472 0.036064109)
(0.53998126 0.12764792 0.029140013)
(0.53767002 0.12337979 0.021556157)
(0.64955372 0.1256976 0.040765995)
(0.64823016 0.12028032 0.034960086)
(0.6455622 0.11548886 0.027452946)
(0.76419294 0.11397817 0.045975389)
(0.76246439 0.10847574 0.040168667)
(0.75954278 0.10360943 0.033727648)
(0.88421954 0.097891629 0.051244242)
(0.88225285 0.092135196 0.046137553)
(0.87928407 0.087093332 0.040270925)
(1.009006 0.077688281 0.056655114)
(1.0067789 0.071878652 0.052008163)
(1.0035355 0.066769714 0.04672067)
(1.1378338 0.053733708 0.062134445)
(1.1352783 0.047937506 0.058037738)
(1.1318985 0.042755605 0.0533337)
(1.269993 0.026336415 0.067733592)
(1.2672175 0.020539446 0.06408753)
(1.2637046 0.015335435 0.059953943)
(1.4049775 -0.0042383686 0.07328606)
(1.4019795 -0.0099495018 0.070175074)
(1.3982915 -0.015111689 0.066567523)
(1.5422616 -0.037476258 0.078992256)
(1.5390196 -0.043125928 0.076290541)
(1.5352656 -0.048332968 0.073218725)
(1.6812849 -0.073335932 0.0846309)
(1.6779212 -0.078865417 0.082379602)
(1.6740309 -0.083925426 0.079811992)
(1.8217352 -0.11108001 0.090322598)
(1.8181605 -0.11653268 0.088590986)
(1.8142388 -0.12165696 0.08642934)
(1.9630575 -0.15074942 0.096285474)
(1.959478 -0.15608813 0.094613742)
(1.9554744 -0.16113802 0.093010361)
(2.1051804 -0.19189631 0.10194177)
(2.1014229 -0.19721328 0.10082682)
(2.0973663 -0.20217744 0.099619513)
(2.2474277 -0.23421454 0.1077496)
(2.2436137 -0.23913549 0.10707931)
(2.2395986 -0.2442258 0.10616819)
(2.3900362 -0.27719882 0.11405765)
(2.3860615 -0.28230064 0.11337463)
(2.3820918 -0.28745922 0.11293418)
(-0.0067730663 0.0041652205 -0.010222861)
(0.0093094771 0.022744007 -0.010476619)
(0.03695322 0.025747735 -0.0059107384)
(0.083991941 0.034225052 -0.0046595162)
(0.14140054 0.037793264 0.00012412025)
(0.21222475 0.039179219 0.0042570093)
(0.2946134 0.037067641 0.0094164918)
(0.38674424 0.03126189 0.015086742)
(0.48904503 0.021859574 0.020877825)
(0.59923402 0.008353626 0.02730433)
(0.71665359 -0.0088287624 0.033629062)
(0.84023986 -0.030127774 0.040397843)
(0.96868937 -0.054792278 0.047112512)
(1.1009731 -0.082930161 0.053875197)
(1.2361292 -0.11417317 0.060681297)
(1.3731875 -0.14809083 0.067381378)
(1.5114083 -0.18442793 0.074099114)
(1.6501557 -0.22280482 0.080696462)
(1.788888 -0.26283461 0.087283894)
(1.9273535 -0.3042815 0.093778111)
(2.065277 -0.34682984 0.10030108)
(2.2025033 -0.39011788 0.1067505)
(2.3393767 -0.4344259 0.11342918)
(-0.0088577673 0.003548106 0.0019191634)
(0.011888633 0.0034988414 0.0021564183)
(0.047188808 -0.0020476358 0.0055321823)
(0.094449679 -0.0035413676 0.0067449884)
(0.15229672 -0.011737319 0.010189405)
(0.2225567 -0.021133514 0.014367201)
(0.30090614 -0.033893388 0.018263931)
(0.38905944 -0.049663312 0.02326113)
(0.48474204 -0.068880023 0.028261567)
(0.58762515 -0.090842004 0.033650199)
(0.69687845 -0.11588565 0.039220708)
(0.81199357 -0.14398613 0.045058367)
(0.93189185 -0.17434237 0.050962517)
(1.0563782 -0.20746644 0.057082368)
(1.1846081 -0.2425213 0.063199785)
(1.3160822 -0.27971099 0.06944537)
(1.4503941 -0.31849975 0.075721337)
(1.5869377 -0.3588423 0.081983263)
(1.7253846 -0.40034945 0.088358336)
(1.8652897 -0.44289479 0.094633704)
(2.0063209 -0.48621139 0.10099055)
(2.1479536 -0.53007043 0.10728855)
(2.290781 -0.57450293 0.11363165)
(-0.0069748818 -0.0072722808 0.011230169)
(0.025594443 -0.011103546 0.01287387)
(0.061887183 -0.033867122 0.018253995)
(0.10957694 -0.040332123 0.016640172)
(0.16990697 -0.063411102 0.021442516)
(0.23712892 -0.08341022 0.023610211)
(0.31241328 -0.10571377 0.02689823)
(0.39521305 -0.13313147 0.0312198)
(0.48384031 -0.15983464 0.035151403)
(0.57898394 -0.19094432 0.04002558)
(0.67934244 -0.222826 0.044887981)
(0.78541175 -0.25712486 0.050044933)
(0.89642583 -0.29307874 0.055522406)
(1.012699 -0.33055172 0.060992331)
(1.1336767 -0.36961101 0.066729567)
(1.259412 -0.40989923 0.072495816)
(1.3895733 -0.45138052 0.078355843)
(1.5238397 -0.49385098 0.084280158)
(1.6618687 -0.53713455 0.090265357)
(1.8031924 -0.58106895 0.096220109)
(1.9471547 -0.62536347 0.10231304)
(2.093448 -0.67000133 0.1082331)
(2.2409561 -0.71441835 0.11446342)
(-0.00055090617 0.0037677931 0.0074535073)
(-0.0010542516 0.0042093833 0.0028878174)
(0.0015697376 0.0027333827 -0.0044762594)
(0.018140883 0.023009092 0.0061745927)
(0.021029967 0.021731041 0.00030525249)
(0.017159449 0.021391443 -0.0059823926)
(0.049299687 0.031140776 0.0090919009)
(0.048239921 0.028895075 0.0042749988)
(0.047635355 0.026926003 -0.0017414364)
(0.093026335 0.041019871 0.011539279)
(0.095116511 0.038622217 0.0058375005)
(0.092637528 0.035653531 -6.9211068e-05)
(0.15191803 0.046455321 0.014009397)
(0.15264392 0.042532151 0.0094929287)
(0.15071663 0.039569249 0.0043505023)
(0.22258386 0.048723957 0.018306583)
(0.22315615 0.045160378 0.01371127)
(0.22026816 0.041419205 0.0083340283)
(0.30437608 0.048061176 0.022280631)
(0.30474448 0.043915114 0.017703288)
(0.302766 0.039725884 0.013343997)
(0.39742177 0.043654007 0.026732709)
(0.39751289 0.03833752 0.022800467)
(0.39453251 0.033814799 0.0183486)
(0.49946468 0.034311972 0.031833547)
(0.49893145 0.029692775 0.028033831)
(0.49631224 0.025127676 0.024407953)
(0.61007676 0.022020437 0.036839342)
(0.60939146 0.016579343 0.033352682)
(0.60638868 0.011425551 0.029978986)
(0.72795067 0.0050886144 0.042370453)
(0.7265887 -0.00040453769 0.039398478)
(0.72350838 -0.0053120117 0.036339433)
(0.85161952 -0.015702583 0.047949644)
(0.85006485 -0.021212534 0.045215209)
(0.84688219 -0.026514304 0.04261682)
(0.98043655 -0.040135616 0.053694821)
(0.978489 -0.04577771 0.051349487)
(0.975084 -0.051028983 0.049135567)
(1.1129503 -0.068178448 0.059605228)
(1.1106439 -0.073745844 0.057584023)
(1.1071278 -0.079052895 0.055642696)
(1.248262 -0.099272728 0.065526456)
(1.2456904 -0.10487281 0.063797991)
(1.2420567 -0.11014286 0.062176026)
(1.3855291 -0.13321284 0.071543673)
(1.3826641 -0.1387161 0.070116674)
(1.3788872 -0.1439376 0.068705959)
(1.5238084 -0.16953285 0.077588084)
(1.5207243 -0.17496964 0.076368633)
(1.5169005 -0.18017496 0.07521045)
(1.6626542 -0.20791723 0.083617872)
(1.6593743 -0.21331705 0.082663548)
(1.6554023 -0.21837515 0.081646514)
(1.8014559 -0.24789189 0.089691743)
(1.7979169 -0.253168 0.088871632)
(1.793996 -0.25832549 0.088087676)
(1.939714 -0.28935009 0.095807691)
(1.9362513 -0.29467981 0.095173938)
(1.9321621 -0.2996229 0.094406784)
(2.0775976 -0.33184687 0.10167578)
(2.074173 -0.33697261 0.10139813)
(2.0699569 -0.34193502 0.10079496)
(2.2148837 -0.37508832 0.10793824)
(2.2110718 -0.38007323 0.1076342)
(2.2069488 -0.38516805 0.1070855)
(2.3515822 -0.41903874 0.11400554)
(2.3476118 -0.4241695 0.11375108)
(2.3436411 -0.42917642 0.11352153)
(-0.0025955758 0.0025955669 -0.00011505128)
(-0.0010726562 0.0027190874 -0.0015807354)
(0.00089625983 0.003255689 -3.416625e-05)
(0.021441538 0.0050877469 -0.0021332992)
(0.023269978 0.0049540253 -0.0011968563)
(0.019721858 0.003081331 -4.5733078e-05)
(0.056204648 0.0047804962 0.0021623259)
(0.05661362 0.0022348591 0.0040007547)
(0.056142936 0.00068683609 0.0037018801)
(0.10170093 0.0026107206 0.0038208057)
(0.10512974 -0.0010982092 0.0048191559)
(0.10219269 -0.0044496608 0.0052829663)
(0.16209747 -0.0027860804 0.0080209845)
(0.1631746 -0.0071285034 0.010147463)
(0.16012423 -0.0091671088 0.0086455912)
(0.23076492 -0.011192885 0.012258399)
(0.23194454 -0.015905691 0.013006987)
(0.22963662 -0.019514477 0.013160721)
(0.31018763 -0.022178917 0.016193627)
(0.31109509 -0.027936445 0.017853694)
(0.30801854 -0.031912465 0.016803294)
(0.39857352 -0.037974042 0.021894142)
(0.39879856 -0.043544295 0.022971531)
(0.39554245 -0.046977909 0.022454917)
(0.49426236 -0.055499216 0.026667861)
(0.49406148 -0.061544014 0.027701701)
(0.49106585 -0.066148618 0.027107509)
(0.59782788 -0.077299183 0.032584123)
(0.5973027 -0.083562695 0.033736088)
(0.59383177 -0.087858495 0.033104192)
(0.70724278 -0.10190084 0.038391975)
(0.70612826 -0.10812332 0.039303624)
(0.70267078 -0.1127565 0.038608241)
(0.82257919 -0.1294423 0.044416757)
(0.82124915 -0.13577378 0.045300964)
(0.81764496 -0.1404416 0.044649899)
(0.9428844 -0.15976081 0.050688494)
(0.94113937 -0.16608776 0.051493047)
(0.93731082 -0.17080785 0.050756385)
(1.0674829 -0.19261199 0.056954703)
(1.0653997 -0.19891144 0.057615144)
(1.0615576 -0.20359297 0.056919852)
(1.1959656 -0.22770677 0.06334005)
(1.1935859 -0.23384328 0.06393395)
(1.1896291 -0.23860912 0.063212741)
(1.3276147 -0.2648358 0.069731429)
(1.3249331 -0.27089027 0.070201326)
(1.3209449 -0.27559563 0.069498128)
(1.4620433 -0.30367941 0.076148764)
(1.4591142 -0.30954558 0.076514076)
(1.4550515 -0.31432009 0.075842744)
(1.5987394 -0.34402154 0.082521872)
(1.5955273 -0.34979994 0.082798221)
(1.5915091 -0.3545031 0.082147873)
(1.7372204 -0.38560758 0.088945105)
(1.7338697 -0.39115916 0.089084556)
(1.7297731 -0.39597133 0.088558648)
(1.8771996 -0.4281031 0.095209781)
(1.8735382 -0.43374423 0.095392266)
(1.8695394 -0.43840058 0.094804549)
(2.0184057 -0.47145013 0.1017745)
(2.0142537 -0.47674805 0.10141949)
(2.010542 -0.48159357 0.10125297)
(2.1597816 -0.51536564 0.10795113)
(2.1560589 -0.52039459 0.1079577)
(2.1519071 -0.52537109 0.10745358)
(2.3022666 -0.55943486 0.11428428)
(2.2985063 -0.56469788 0.11411639)
(2.294612 -0.56946642 0.11389447)
(0.0020662832 -0.0032588677 -0.0049990247)
(0.0013896932 -0.0024779049 -0.00013862995)
(0.0011517536 -0.0025992027 0.0049380628)
(0.033976495 -0.011584306 -0.0056797052)
(0.036358945 -0.008129519 0.0014920426)
(0.033539933 -0.011754718 0.0075700529)
(0.068332831 -0.023040166 -0.0031562328)
(0.070740245 -0.029611306 0.0041571836)
(0.070469762 -0.031026533 0.011021465)
(0.11962421 -0.039198254 -0.00067189663)
(0.12045645 -0.038668356 0.0058848157)
(0.11898677 -0.042438025 0.011264012)
(0.17726902 -0.054115728 0.0039834162)
(0.17898515 -0.059503795 0.010073661)
(0.17775344 -0.061855222 0.015453785)
(0.24552686 -0.073997096 0.0074604736)
(0.24629015 -0.078041885 0.013129406)
(0.24457419 -0.082205781 0.017648631)
(0.32138854 -0.096737786 0.013154551)
(0.32174326 -0.10120217 0.018445151)
(0.3200286 -0.10458857 0.022456604)
(0.40400586 -0.12054769 0.018201242)
(0.40380836 -0.12597216 0.022367073)
(0.4019941 -0.13062511 0.02638025)
(0.49344423 -0.14817404 0.023887321)
(0.49288301 -0.15330533 0.028123326)
(0.49080891 -0.15789195 0.031567811)
(0.58875995 -0.17773988 0.030072184)
(0.58777431 -0.18338233 0.03349865)
(0.58545701 -0.18812488 0.036414562)
(0.68968582 -0.20936198 0.036070577)
(0.68822808 -0.21498959 0.039107164)
(0.6858124 -0.22002314 0.041822512)
(0.79611389 -0.24337957 0.042523849)
(0.7943311 -0.24900798 0.045183619)
(0.79166147 -0.25407275 0.047369518)
(0.90753629 -0.27895168 0.048912707)
(0.90533109 -0.28466974 0.051090926)
(0.90252657 -0.2898655 0.053059297)
(1.0240587 -0.3164608 0.055394768)
(1.0215884 -0.32199999 0.057281162)
(1.0185649 -0.32718396 0.058932383)
(1.145324 -0.35535463 0.061945694)
(1.1425271 -0.36085313 0.063492245)
(1.1394042 -0.36611525 0.06487652)
(1.2712478 -0.39564035 0.068469918)
(1.2682509 -0.40107951 0.069758081)
(1.2649059 -0.40627067 0.070898009)
(1.4015334 -0.43713917 0.075039472)
(1.3982596 -0.44241888 0.076058135)
(1.3948579 -0.44761368 0.077010821)
(1.535899 -0.47957425 0.08158528)
(1.5325145 -0.48485914 0.082420968)
(1.5289552 -0.48997326 0.083144646)
(1.6739403 -0.52287382 0.088133304)
(1.6703397 -0.52800147 0.08875879)
(1.666693 -0.5330559 0.089332197)
(1.8152383 -0.56675597 0.094751669)
(1.8115839 -0.57189831 0.095156482)
(1.8078895 -0.57690582 0.095539352)
(1.9591474 -0.6110287 0.10117349)
(1.9553576 -0.61603837 0.1015171)
(1.951577 -0.62094875 0.1017756)
(2.1052649 -0.65558412 0.10780928)
(2.1014575 -0.66062642 0.10803465)
(2.0977264 -0.66554906 0.10808117)
(2.2526569 -0.70009742 0.11431899)
(2.2487825 -0.70490581 0.11430362)
(2.2449069 -0.70996689 0.11418602)
)
;

boundaryField
{
    free
    {
        type            calculated;
    }
    fixed
    {
        type            calculated;
    }
    traction
    {
        type            calculated;
    }
}


// ************************************************************************* //
