/*--------------------------------*- C++ -*----------------------------------*\
  =========                 |
  \\      /  F ield         | OpenFOAM: The Open Source CFD Toolbox
   \\    /   O peration     | Website:  https://openfoam.org
    \\  /    A nd           | Version:  6
     \\/     M anipulation  |
\*---------------------------------------------------------------------------*/
FoamFile
{
    version     2.0;
    format      ascii;
    class       pointVectorField;
    location    "1.94";
    object      lm;
}
// * * * * * * * * * * * * * * * * * * * * * * * * * * * * * * * * * * * * * //

dimensions      [1 -2 -1 0 0 0 0];

internalField   nonuniform List<vector> 
625
(
(0 0 0)
(0 0 0)
(2366.5985 44.503378 -287.99955)
(2309.635 -417.42471 -452.04247)
(0 0 0)
(0 0 0)
(2487.1298 -344.32502 -451.74118)
(2543.7787 117.48329 -288.42812)
(0 0 0)
(0 0 0)
(0 0 0)
(2344.5687 -70.229673 -327.75589)
(2333.9492 -185.03667 -368.7009)
(2327.2833 -302.13112 -411.12574)
(8.1977205 37.398669 37.051039)
(34.469605 71.505879 40.058872)
(81.919194 102.21306 35.913384)
(146.7834 131.72558 29.933388)
(224.15062 154.25052 23.029152)
(313.83695 173.96622 13.517278)
(412.11642 188.00346 4.8420072)
(517.32767 198.26099 -5.7664942)
(627.95644 204.06211 -16.026537)
(741.97348 206.27473 -27.872217)
(858.6456 204.98521 -40.009817)
(976.27112 200.85788 -53.044294)
(1094.5006 193.96312 -67.141831)
(1212.5393 185.07155 -82.175595)
(1330.1385 174.53975 -98.415676)
(1446.9989 162.26189 -115.67419)
(1563.0372 149.71501 -134.31665)
(1678.5926 135.27954 -153.74457)
(1793.0562 121.38783 -174.49806)
(1907.5582 106.61518 -195.8005)
(2021.4042 91.391338 -217.90942)
(2135.3545 76.137242 -240.77456)
(2249.1034 60.760041 -263.90904)
(0.57831377 -35.527273 -45.024935)
(33.50736 -72.082261 -45.326684)
(82.628809 -108.27766 -52.549147)
(143.56624 -138.30639 -60.49726)
(219.72988 -164.67675 -68.128809)
(306.64686 -186.89015 -78.54025)
(400.59861 -205.95425 -90.054851)
(502.73368 -221.39619 -102.50532)
(608.96112 -235.64906 -116.61853)
(718.83938 -247.03701 -131.89385)
(830.70187 -258.05416 -148.55458)
(944.39697 -268.18146 -166.37257)
(1058.2511 -277.9818 -185.79055)
(1172.5935 -287.95918 -206.25454)
(1286.6528 -298.153 -228.1784)
(1400.4875 -308.94504 -251.09054)
(1513.9767 -320.20296 -275.14668)
(1627.2021 -332.22019 -299.87672)
(1740.273 -344.77452 -325.28141)
(1853.2246 -358.04233 -351.03439)
(1966.6544 -372.12226 -376.53437)
(2079.8076 -386.31938 -402.34232)
(2194.7403 -401.71286 -427.09145)
(0 0 0)
(0 0 0)
(0 0 0)
(10.503772 -17.453907 25.762692)
(48.453006 -66.961874 19.681128)
(106.58269 -85.367311 1.8885445)
(181.40723 -111.24651 -15.192714)
(268.12191 -133.51774 -30.375013)
(365.29541 -150.46534 -49.355693)
(470.77749 -164.14999 -66.966693)
(581.31553 -177.37309 -86.324215)
(698.15238 -187.65386 -105.33752)
(816.67129 -195.71304 -125.40865)
(938.16843 -204.04512 -145.52202)
(1059.8848 -210.43777 -166.55582)
(1182.4811 -217.81838 -187.7745)
(1304.5764 -224.56051 -209.96319)
(1426.3199 -232.25985 -232.59483)
(1547.2613 -240.54565 -255.91966)
(1667.3606 -249.79918 -279.85615)
(1786.6402 -260.18061 -304.25561)
(1904.9438 -271.61643 -329.0367)
(2022.4897 -284.30658 -353.97631)
(2139.1594 -297.83755 -378.98931)
(2255.1434 -312.67023 -403.61423)
(2370.2295 -327.95887 -428.02485)
(2505.3864 -229.19219 -411.61414)
(2509.1884 -111.51888 -369.30355)
(2523.5267 2.2955051 -328.43874)
(2426.3533 133.42655 -264.8035)
(2311.215 149.39456 -241.71955)
(2195.158 164.65883 -218.79384)
(2078.0178 179.6228 -196.66618)
(1959.8901 193.7575 -175.19717)
(1840.4298 207.12202 -154.74354)
(1719.6409 219.38741 -135.52888)
(1597.4789 230.50587 -117.57211)
(1473.9453 240.17925 -101.08897)
(1349.2018 248.21907 -86.238337)
(1223.5 254.22052 -72.774685)
(1097.2812 258.08069 -61.204711)
(971.23726 258.93516 -50.989584)
(845.86808 257.2824 -42.555077)
(723.23311 251.02235 -35.252828)
(603.72216 242.00076 -29.992196)
(488.08343 227.68838 -25.857597)
(380.11834 208.87636 -23.444998)
(282.36578 184.82119 -22.213675)
(192.72808 155.94908 -22.75891)
(118.33741 122.17687 -26.032263)
(59.934169 82.613346 -26.486828)
(32.036615 42.154722 -23.277502)
(0 0 0)
(0 0 0)
(0 0 0)
(0 0 0)
(0 0 0)
(0 0 0)
(2353.9327 -398.58252 -451.6577)
(2398.3594 -380.54059 -451.75809)
(2442.5853 -362.09958 -451.65632)
(2411.056 62.492238 -288.37962)
(2455.3546 80.959447 -288.70083)
(2499.8169 99.453788 -288.46938)
(-6.0121885 19.499325 23.284458)
(21.589251 33.968982 17.491982)
(70.222805 48.792555 13.582463)
(134.88901 63.071716 7.60614)
(213.29711 73.703715 -0.60292629)
(303.82892 83.391867 -9.1425802)
(403.13024 89.413669 -19.520983)
(508.99641 93.848159 -30.234054)
(620.30089 94.914777 -42.224084)
(735.06067 93.930081 -55.038402)
(851.9638 90.491044 -68.572442)
(969.79436 84.90726 -83.2411)
(1087.8479 77.390055 -98.754533)
(1205.4615 68.332094 -115.2594)
(1322.2815 57.697548 -132.84917)
(1438.0302 46.007937 -151.40942)
(1552.923 33.35199 -171.04455)
(1666.8215 19.799764 -191.4545)
(1780.0348 5.9585306 -212.99528)
(1893.0092 -8.6897812 -234.92833)
(2005.5824 -23.746427 -257.86697)
(2118.4671 -38.79089 -280.84657)
(2231.9709 -54.348666 -304.37483)
(-11.521235 0.3344134 0.36459764)
(19.582123 -2.64116 -5.4777337)
(68.023036 -3.0226788 -9.8367752)
(133.05418 -3.5431649 -16.05822)
(212.21681 -5.9498668 -24.195132)
(301.99674 -6.774708 -33.492527)
(400.2175 -9.5525653 -43.638575)
(505.15473 -11.881888 -55.136138)
(614.80604 -16.191574 -67.317349)
(727.61728 -20.398805 -80.759245)
(842.45494 -26.446573 -95.045537)
(958.33131 -33.226818 -110.56641)
(1074.5701 -41.223637 -127.11066)
(1190.7562 -50.408995 -144.87624)
(1306.4697 -60.5827 -163.87504)
(1421.8658 -71.809651 -183.90342)
(1536.6638 -83.914842 -205.11338)
(1651.1903 -96.762991 -227.20185)
(1765.376 -110.4856 -250.12177)
(1879.4998 -124.51506 -273.57178)
(1993.8234 -139.44103 -297.36371)
(2108.0252 -154.19647 -321.59219)
(2222.2255 -169.8362 -345.59045)
(-11.988303 -17.903568 -17.879656)
(21.165147 -33.559139 -24.920641)
(69.745112 -50.807887 -30.090209)
(134.76314 -66.352975 -37.621187)
(213.55983 -80.844268 -46.428443)
(302.08695 -92.624029 -55.717082)
(399.56154 -103.69964 -67.019097)
(503.00256 -113.59645 -78.828855)
(611.07608 -122.78934 -92.308302)
(722.1484 -131.61711 -106.63554)
(835.44289 -140.60493 -122.26744)
(949.63855 -149.50415 -139.05822)
(1064.5933 -159.05731 -157.02053)
(1179.4948 -168.97447 -176.26948)
(1294.4821 -179.56849 -196.59778)
(1409.2322 -190.8042 -218.10299)
(1523.7821 -202.69968 -240.60408)
(1638.3322 -215.25789 -263.96398)
(1752.6556 -228.49211 -287.99715)
(1867.3424 -242.15757 -312.54634)
(1981.7211 -256.53256 -337.43586)
(2096.6642 -271.15042 -362.15545)
(2211.1683 -286.54545 -386.73358)
(0 0 0)
(0 0 0)
(0 0 0)
(0 0 0)
(0 0 0)
(0 0 0)
(0 0 0)
(0 0 0)
(0 0 0)
(16.866054 -14.47263 -19.037252)
(21.692851 -18.383783 -5.7711888)
(20.009154 -14.16995 8.2068678)
(55.854049 -72.209259 -29.338117)
(59.394978 -69.657861 -13.918587)
(59.329445 -67.24047 5.069226)
(99.018239 -100.15334 -36.733047)
(107.57862 -96.099564 -22.059227)
(112.89054 -97.470243 -8.5378675)
(163.12205 -131.07522 -46.699163)
(176.56008 -127.18452 -35.375253)
(181.65997 -123.21315 -23.479931)
(241.28104 -156.50418 -57.439666)
(254.07331 -150.58669 -47.751614)
(264.36368 -145.88182 -38.148226)
(327.30374 -177.64768 -69.738485)
(344.60182 -169.93111 -61.614482)
(357.36909 -163.7124 -54.636729)
(424.36347 -195.08353 -82.954068)
(442.88776 -187.67156 -77.817762)
(459.05806 -180.3091 -70.886581)
(526.84545 -210.9049 -97.402934)
(547.62315 -199.94336 -92.902051)
(565.68229 -192.58958 -88.740223)
(634.42979 -223.04946 -112.64694)
(657.0859 -213.14668 -110.22912)
(678.52004 -204.27599 -106.7172)
(745.2994 -234.29523 -129.47171)
(770.3435 -222.95979 -127.63856)
(794.2347 -212.92047 -125.69313)
(859.11664 -244.38362 -146.88987)
(886.02808 -232.29779 -146.33936)
(912.28925 -221.44883 -145.18995)
(973.80211 -253.3986 -165.80553)
(1002.6957 -240.44691 -165.89483)
(1031.4343 -228.78671 -165.42056)
(1089.5203 -262.55485 -185.70168)
(1120.4772 -248.92941 -186.25605)
(1151.2895 -236.29566 -186.43303)
(1205.3266 -271.48965 -206.77279)
(1238.0994 -257.05791 -207.79423)
(1271.1217 -243.82853 -208.29294)
(1321.0662 -280.97443 -228.96897)
(1355.7757 -266.03438 -230.10878)
(1390.6885 -251.75856 -230.91328)
(1436.5188 -290.99292 -252.14925)
(1472.9856 -275.30602 -253.43649)
(1509.7758 -260.44859 -254.29007)
(1551.6127 -301.64156 -276.2677)
(1589.7617 -285.55669 -277.469)
(1628.2033 -269.94301 -278.39993)
(1666.3472 -313.19695 -301.01073)
(1706.0417 -296.632 -302.18126)
(1746.0489 -280.40527 -303.04335)
(1780.7801 -325.51648 -326.34081)
(1821.8895 -308.63147 -327.3817)
(1863.1783 -291.82585 -328.07168)
(1895.1115 -338.77061 -351.94143)
(1937.3764 -321.51869 -352.59481)
(1979.7857 -304.26967 -353.30297)
(2009.1912 -352.65808 -377.28164)
(2052.4425 -335.08392 -378.03582)
(2095.6687 -317.50981 -378.55788)
(2123.5551 -367.34962 -402.76957)
(2167.3572 -349.84089 -403.07038)
(2211.2522 -331.81288 -403.43475)
(2237.8832 -382.77697 -427.2879)
(2282.3141 -364.77512 -427.5363)
(2326.5514 -346.6151 -427.80258)
(2389.7144 -52.317981 -328.11588)
(2433.9102 -34.009811 -328.40475)
(2478.1216 -15.747752 -328.24617)
(2377.1473 -166.71074 -368.91825)
(2421.5157 -148.39065 -369.23102)
(2465.5555 -129.89978 -369.19845)
(2370.9844 -283.96176 -410.91708)
(2415.6795 -265.57955 -411.24078)
(2460.1718 -247.34852 -411.27846)
(27.850063 30.897195 20.01931)
(32.760744 36.707807 9.9677397)
(36.274577 40.641716 -3.8209553)
(53.606471 70.713312 24.249468)
(63.723916 77.32889 7.8124608)
(69.511498 80.535303 -10.943745)
(104.72941 106.79693 21.565712)
(114.89857 113.47416 8.2259137)
(121.9224 120.51521 -10.39361)
(167.98309 135.71163 17.277436)
(181.62107 145.03931 4.8917102)
(191.3914 153.28008 -10.139276)
(246.73641 162.27642 12.453353)
(263.7353 171.56553 0.99646641)
(275.7436 180.92309 -10.801858)
(337.70917 182.08407 4.6097613)
(355.11755 193.14265 -2.9461993)
(371.16382 203.83048 -14.460451)
(436.77993 196.95729 -2.7712406)
(457.05474 208.39108 -9.9039437)
(474.55357 220.50885 -18.317435)
(543.32083 208.02292 -11.864267)
(565.04774 221.20464 -17.149335)
(585.76259 234.11441 -24.060458)
(654.97352 215.24365 -20.920671)
(679.46225 227.84045 -25.416432)
(702.66333 242.21979 -30.483767)
(770.81638 217.65129 -31.935925)
(797.04013 231.99266 -34.552131)
(822.08388 246.58009 -38.994917)
(888.44904 217.07359 -43.108048)
(916.7024 231.87783 -45.40881)
(944.42982 247.84012 -48.413954)
(1007.7076 213.57619 -55.678266)
(1038.1647 229.17191 -57.145182)
(1067.9793 245.72235 -59.21853)
(1127.491 207.51304 -69.15271)
(1159.808 223.66257 -70.011909)
(1191.7065 240.91714 -71.495261)
(1247.0805 199.35811 -83.772363)
(1281.3791 216.00681 -84.300515)
(1315.1508 233.97 -85.337432)
(1366.2744 189.36693 -99.638441)
(1402.2093 206.64001 -99.958242)
(1437.8993 225.05554 -100.52776)
(1484.5417 178.0881 -116.71793)
(1522.2871 195.67009 -116.79715)
(1559.5856 214.58074 -117.2319)
(1602.2091 165.59645 -134.9786)
(1641.3029 183.61605 -135.14121)
(1680.101 202.82165 -135.353)
(1718.8349 152.19438 -154.46709)
(1759.2091 170.65099 -154.52872)
(1799.4813 189.95251 -154.64104)
(1834.6783 138.43515 -174.87894)
(1876.3679 156.7718 -175.05561)
(1917.7408 176.18038 -175.14727)
(1950.2137 123.71417 -196.36627)
(1992.5996 142.53595 -196.63586)
(2034.8854 161.76498 -196.6365)
(2064.9335 108.87455 -218.44795)
(2108.0755 127.4847 -218.75301)
(2151.224 146.68944 -218.74236)
(2179.4609 93.755931 -241.37351)
(2223.2118 112.59202 -241.54778)
(2266.8908 131.32594 -241.61486)
(2294.0466 78.246095 -264.37035)
(2337.9826 96.77023 -264.45906)
(2382.1163 115.33401 -264.65594)
(7.0785479 11.401847 -17.65721)
(48.11106 47.545872 -17.331741)
(102.37672 62.704481 -18.102692)
(179.35725 83.292847 -20.740477)
(268.14471 99.714241 -24.628036)
(368.06058 113.17065 -29.650397)
(477.27674 124.07645 -35.986997)
(592.66917 132.29637 -44.043801)
(713.44816 136.87917 -52.812223)
(837.04879 139.93114 -62.995872)
(962.74562 139.79474 -74.979818)
(1089.1225 137.55284 -87.562066)
(1215.3403 133.48923 -102.00293)
(1340.7521 127.48066 -117.68482)
(1464.9272 119.83682 -134.5886)
(1587.6564 110.77159 -152.8875)
(1708.6941 100.40348 -172.31231)
(1828.2501 88.830774 -192.71805)
(1946.3216 76.280989 -214.13336)
(2063.0242 62.769269 -236.1731)
(2178.8287 48.399065 -258.7313)
(2293.5989 33.554273 -281.72843)
(2407.8785 18.069702 -304.80195)
(-1.0381245 6.5725837 -1.1680871)
(40.071028 18.669332 -9.4587895)
(98.915616 16.813996 -11.697465)
(176.29459 25.524829 -20.312442)
(265.19884 26.957995 -27.908227)
(365.39634 30.332192 -37.44627)
(474.17932 32.104018 -47.836516)
(588.82123 32.894343 -59.636937)
(708.32407 31.74585 -71.483499)
(830.3594 31.149627 -85.674561)
(954.38062 27.615646 -99.533786)
(1078.6289 24.046221 -115.0424)
(1203.0301 18.850553 -131.44772)
(1326.6396 12.640907 -148.84858)
(1449.4099 5.061397 -167.30767)
(1571.0292 -3.6139747 -186.95067)
(1691.5483 -13.589024 -207.46567)
(1811.0266 -24.821286 -229.0399)
(1929.5074 -37.115293 -251.43561)
(2047.0256 -50.647476 -274.38457)
(2164.2022 -65.054881 -298.11453)
(2280.0168 -80.112629 -321.82761)
(2397.363 -96.292695 -346.24416)
(-5.4380483 -6.7039675 7.7307059)
(41.131787 -9.5058316 1.9765687)
(100.3562 -26.078069 -2.3070608)
(176.36595 -31.89075 -17.115949)
(264.84271 -42.371505 -28.046474)
(363.99596 -49.453797 -41.789872)
(471.201 -57.077914 -56.497899)
(584.27455 -63.145696 -71.16118)
(701.97871 -69.223247 -87.26033)
(822.0358 -75.143738 -103.68019)
(944.26554 -81.326598 -120.84085)
(1066.9918 -87.576228 -139.06609)
(1190.202 -94.379096 -157.94254)
(1313.1312 -102.01274 -177.81381)
(1435.548 -110.28389 -198.66812)
(1557.3678 -119.56256 -220.37393)
(1678.3552 -129.82355 -242.97931)
(1798.7108 -141.19116 -266.34316)
(1918.081 -153.56401 -290.21282)
(2036.9431 -167.10626 -314.62623)
(2154.6888 -181.50049 -339.01026)
(2272.0041 -196.78332 -363.57057)
(2388.8382 -212.95415 -387.75855)
(6.2140354 9.1715497 11.785127)
(9.8044004 11.186036 6.1141473)
(14.757835 11.475395 -4.0087918)
(40.561582 35.137676 9.5549936)
(49.475806 40.418618 0.76682415)
(52.878911 41.237724 -11.194149)
(90.421525 52.860932 5.8675718)
(100.46323 57.09039 -2.6394035)
(106.88388 61.92955 -10.346955)
(155.54287 68.33493 0.19504053)
(169.27084 75.788489 -6.6126908)
(178.01323 79.673136 -14.13384)
(236.1909 80.848639 -6.7894922)
(251.21865 89.0282 -12.228247)
(263.3605 95.703291 -18.98887)
(326.82287 90.802985 -14.541595)
(344.39218 100.81294 -19.435882)
(358.99694 107.66552 -24.694951)
(427.36856 98.532935 -23.725947)
(446.89227 108.80149 -27.595158)
(464.2212 117.48432 -31.629692)
(534.1741 103.21663 -33.730622)
(555.76793 114.57497 -36.470506)
(576.16258 124.36077 -40.531719)
(646.83956 105.16316 -44.832199)
(670.8637 117.47945 -47.224344)
(693.29436 128.44891 -49.665864)
(762.87965 104.90672 -56.954386)
(788.65081 117.9144 -58.303959)
(813.6436 129.63711 -60.581377)
(881.08902 102.34926 -69.869638)
(908.99149 115.77302 -70.906515)
(936.39872 129.06581 -72.710475)
(1000.4815 97.353015 -84.084368)
(1030.5227 111.88092 -84.572579)
(1060.0407 125.61752 -85.838724)
(1120.1289 90.738371 -99.185188)
(1152.0976 105.69237 -99.373364)
(1183.6828 120.45614 -100.38238)
(1239.3728 82.276984 -115.51025)
(1273.2997 97.970758 -115.50936)
(1306.8361 113.51916 -116.34325)
(1357.8232 72.404758 -132.93291)
(1393.5652 88.767786 -132.7695)
(1428.876 104.97762 -133.42936)
(1475.2906 61.384773 -151.4532)
(1512.7132 78.192342 -151.28902)
(1549.726 95.074858 -151.90397)
(1591.6564 49.267638 -171.11762)
(1630.6609 66.710405 -170.95188)
(1669.1644 84.02173 -171.47473)
(1707.0945 36.332843 -191.59873)
(1747.333 54.123655 -191.53138)
(1787.2574 71.83318 -192.03343)
(1821.5335 22.949056 -213.205)
(1863.1444 40.847971 -213.16539)
(1904.2456 58.844665 -213.6146)
(1935.6102 8.4406039 -235.31228)
(1977.8728 26.827936 -235.27467)
(2019.9664 45.01097 -235.78037)
(2049.0268 -6.0076353 -258.06718)
(2092.401 12.351662 -258.17541)
(2135.2293 30.517468 -258.43562)
(2162.5596 -21.166222 -281.15225)
(2206.1679 -2.6917027 -281.26263)
(2249.5712 15.430744 -281.57473)
(2275.9098 -36.437648 -304.58328)
(2319.9098 -18.04082 -304.69499)
(2364.0031 0.15411582 -304.85663)
(-1.2321073 1.4060998 0.31665095)
(3.9010932 3.7120615 -0.32090392)
(8.096255 4.0149945 0.58388708)
(35.998811 1.7740235 -6.0898117)
(43.69591 7.0514407 -6.0030236)
(46.206038 7.6100924 -8.3119959)
(86.541019 3.3566168 -10.626445)
(96.993397 6.8460029 -9.7995584)
(102.24488 12.280648 -10.870514)
(153.54559 1.9989319 -17.588299)
(167.17006 10.652463 -16.675527)
(174.43268 13.940531 -18.333533)
(233.10976 3.1203029 -25.230262)
(249.32474 9.8847885 -24.405296)
(259.62451 16.917402 -26.7206)
(324.56473 2.07405 -34.830341)
(342.37155 11.369285 -34.262524)
(355.56113 18.610149 -35.920149)
(423.72272 0.85964151 -44.862587)
(444.07772 10.031215 -43.964426)
(460.11304 19.173478 -46.421506)
(530.06417 -1.323879 -56.384771)
(552.27563 9.618514 -56.019671)
(570.91717 19.899571 -58.295766)
(641.10891 -4.2204171 -68.476407)
(665.4087 6.8124821 -68.159149)
(686.89086 17.95798 -70.38895)
(755.36327 -8.2019304 -81.944962)
(781.53054 3.9112045 -81.744766)
(805.5296 16.394435 -84.093759)
(871.82277 -13.484009 -96.120391)
(899.95575 -0.42210871 -96.10842)
(926.49567 12.933218 -98.487479)
(989.27918 -19.507908 -111.5882)
(1019.2353 -5.7360517 -111.76197)
(1048.1445 8.3910497 -113.81203)
(1107.106 -26.833947 -128.06767)
(1138.9342 -12.336851 -128.31334)
(1170.0305 2.7692894 -130.38492)
(1224.8784 -35.29337 -145.73223)
(1258.3794 -19.855932 -146.11872)
(1291.6637 -4.065127 -147.87429)
(1342.1506 -44.707202 -164.61637)
(1377.3459 -28.645526 -165.065)
(1412.5965 -12.195885 -166.52259)
(1458.9432 -55.296154 -184.5786)
(1495.6852 -38.431484 -185.0438)
(1532.8158 -21.474593 -186.26428)
(1575.0609 -66.692059 -205.66438)
(1613.3441 -49.363274 -206.15795)
(1652.0788 -31.945667 -207.00462)
(1690.7481 -79.226917 -227.66688)
(1730.3772 -61.36445 -228.07775)
(1770.5322 -43.53187 -228.7328)
(1805.8322 -92.264237 -250.49567)
(1846.7697 -74.085105 -250.91181)
(1888.2899 -56.148916 -251.29765)
(1921.0109 -106.4657 -273.86864)
(1962.8582 -88.031973 -274.22399)
(2005.224 -69.731106 -274.36245)
(2035.2228 -120.61577 -297.57368)
(2079.483 -102.57199 -297.9815)
(2121.8605 -84.115858 -298.18483)
(2150.1064 -135.84858 -321.8657)
(2193.7908 -117.25809 -321.86389)
(2237.4446 -99.072954 -322.10875)
(2265.321 -151.48575 -345.70746)
(2309.447 -133.01739 -345.87)
(2353.71 -114.67678 -345.97348)
(0.84217977 -9.0019985 -7.6147424)
(2.4121604 -8.3465244 -1.3207995)
(3.7197602 -5.813395 4.1724573)
(41.330797 -26.991224 -16.572208)
(47.870236 -21.672925 -8.4121979)
(48.414296 -18.354297 -3.2933421)
(89.532808 -43.70252 -22.568727)
(99.520403 -40.854438 -16.39249)
(103.44844 -33.715344 -9.4585811)
(156.48824 -58.750139 -31.165544)
(167.71872 -52.170273 -25.024588)
(176.29135 -44.860045 -20.530485)
(235.32927 -70.940775 -40.868308)
(250.046 -64.722603 -36.430638)
(260.44732 -55.645946 -32.708017)
(325.19759 -82.696193 -51.628332)
(341.49243 -74.797304 -47.551616)
(355.45622 -63.984055 -44.932306)
(423.44759 -92.591947 -63.598381)
(442.16628 -83.400833 -60.670505)
(459.07254 -71.789635 -59.097922)
(528.12822 -101.46672 -76.451818)
(548.529 -91.376031 -74.637099)
(568.54585 -79.390556 -73.209037)
(637.27635 -109.99777 -90.657587)
(660.26327 -98.993247 -89.00304)
(682.73785 -85.485979 -88.410366)
(749.83584 -118.15638 -105.56967)
(774.5224 -105.76292 -104.73759)
(799.75578 -92.065457 -104.58333)
(864.3905 -126.14107 -121.65219)
(891.42795 -113.17071 -121.08429)
(918.95 -98.634306 -121.2873)
(980.1909 -134.42419 -138.8464)
(1009.0949 -120.46218 -138.64278)
(1038.9576 -105.46288 -139.09241)
(1096.6249 -143.18374 -157.03912)
(1127.6623 -128.37082 -156.99993)
(1159.4757 -112.63672 -157.66609)
(1213.1661 -152.36897 -176.4737)
(1246.1167 -136.81057 -176.62039)
(1279.9981 -120.645 -177.31886)
(1329.6609 -162.28592 -196.93385)
(1364.5772 -145.99665 -197.09972)
(1400.1452 -129.30115 -197.90672)
(1445.9251 -172.87057 -218.48749)
(1482.649 -156.06349 -218.70699)
(1519.9898 -138.90263 -219.51329)
(1561.9161 -184.29717 -241.02485)
(1600.3811 -166.9791 -241.25017)
(1639.1454 -149.35148 -242.01582)
(1677.7534 -196.4315 -264.38515)
(1717.7502 -178.72961 -264.5649)
(1757.9527 -160.80987 -265.34096)
(1793.3105 -209.39916 -288.40595)
(1834.5543 -191.3493 -288.65691)
(1876.1075 -173.21691 -289.30166)
(1908.8149 -222.94425 -312.91425)
(1951.6555 -204.98562 -313.07116)
(1993.8879 -186.61817 -313.7406)
(2024.3317 -237.39351 -337.76838)
(2067.3923 -219.00472 -337.91584)
(2110.867 -200.60453 -338.37807)
(2139.8553 -252.3419 -362.39314)
(2183.9918 -234.04986 -362.61008)
(2227.8902 -215.56813 -363.04627)
(2255.3229 -267.78205 -387.06149)
(2299.8156 -249.58591 -387.09541)
(2344.0055 -231.17915 -387.57371)
)
;

boundaryField
{
    free
    {
        type            zeroGradient;
    }
    fixed
    {
        type            fixedValue;
        value           uniform (0 0 0);
    }
    traction
    {
        type            zeroGradient;
    }
}


// ************************************************************************* //
