/*--------------------------------*- C++ -*----------------------------------*\
  =========                 |
  \\      /  F ield         | OpenFOAM: The Open Source CFD Toolbox
   \\    /   O peration     | Website:  https://openfoam.org
    \\  /    A nd           | Version:  6
     \\/     M anipulation  |
\*---------------------------------------------------------------------------*/
FoamFile
{
    version     2.0;
    format      ascii;
    class       pointVectorField;
    location    "1.92";
    object      lm;
}
// * * * * * * * * * * * * * * * * * * * * * * * * * * * * * * * * * * * * * //

dimensions      [1 -2 -1 0 0 0 0];

internalField   nonuniform List<vector> 
28033
(
(-1.780536e-14 4.8656612e-16 1.3104288e-15)
(-5.4375576e-15 3.3318594e-15 9.9433006e-16)
(6070.2684 -476.74611 43.443956)
(5901.5205 -1347.7316 35.523083)
(-1.338461e-14 3.0090723e-15 -2.870051e-16)
(-1.2587315e-14 4.9008913e-15 -4.4266115e-15)
(5897.9322 -1410.6414 44.018336)
(6063.2412 -527.43522 32.398097)
(-5.6329745e-15 1.0535579e-15 6.7193838e-16)
(-2.4534443e-15 3.0423504e-16 5.8836893e-16)
(-5.4923298e-15 2.4302826e-15 8.9528572e-16)
(-2.6209443e-15 -1.1537891e-15 -6.7979696e-16)
(-7.2548563e-15 1.5542294e-15 1.0013199e-15)
(-4.7613589e-15 -9.2108094e-16 -7.3952737e-16)
(-1.132389e-15 -2.2256662e-17 -6.4484848e-16)
(-7.4239857e-16 -2.4218299e-16 -3.6669977e-16)
(-1.1196198e-15 4.5550132e-16 8.383863e-16)
(-2.3465882e-16 2.2667819e-16 1.4996246e-15)
(-4.0583243e-15 -8.7236639e-16 -1.3429605e-15)
(-5.8237189e-15 8.4462789e-16 7.5519031e-16)
(-5.1611762e-15 1.0100276e-15 9.7613867e-16)
(-1.7679952e-15 -8.1010255e-16 4.5192313e-16)
(-4.4158752e-15 1.0299569e-15 -9.452958e-16)
(6047.8801 -531.87222 41.830251)
(6023.6628 -586.79315 40.460205)
(6003.1459 -641.88441 38.705643)
(5988.0647 -697.37137 37.477071)
(5978.8566 -753.75669 35.80241)
(5975.127 -810.63473 34.597413)
(5975.9588 -868.31995 33.436608)
(5979.0431 -926.0314 32.377141)
(5982.7911 -983.57208 31.962023)
(5984.5052 -1040.1721 31.66941)
(5982.3812 -1095.4201 31.903116)
(5975.2853 -1149.1133 32.680952)
(5962.1287 -1200.698 32.95163)
(5943.9625 -1250.5051 33.830382)
(5922.4088 -1298.9766 34.598839)
(25.740113 38.704411 40.595086)
(29.880948 59.069141 58.316215)
(35.220537 79.955626 71.383319)
(43.882225 100.95456 81.402375)
(53.91938 122.40098 87.709694)
(67.854208 143.87572 92.31995)
(84.654921 165.62689 94.51477)
(104.96309 186.76829 95.160979)
(128.42135 208.12067 94.246546)
(155.15675 228.72883 92.131854)
(184.60775 249.10959 88.940149)
(216.86785 268.91377 85.089373)
(251.44593 288.30828 81.000624)
(288.29809 307.1006 76.670001)
(326.74651 325.4252 72.813049)
(366.91283 343.1019 69.283003)
(408.33092 360.4586 66.824804)
(450.9123 376.92031 65.236277)
(494.65839 393.24398 64.743338)
(539.36392 408.73527 65.394122)
(585.14276 423.87112 67.279075)
(632.22552 438.32452 69.917635)
(680.66176 452.33763 73.557657)
(730.7944 465.71021 77.552262)
(783.05949 478.64774 81.689292)
(837.5931 490.88424 85.6652)
(894.96277 502.60986 89.115227)
(955.3728 513.77304 91.510132)
(1019.4174 524.29214 92.61568)
(1087.1314 534.16479 92.213404)
(1158.9712 543.56574 89.868044)
(1234.8613 552.1067 85.683791)
(1315.0421 560.10053 79.569242)
(1399.5465 567.17971 71.55203)
(1488.071 573.72875 61.497274)
(1580.4496 579.28023 50.13709)
(1676.3037 584.011 37.685065)
(1775.5043 587.90417 24.333267)
(1877.1289 590.55839 10.441441)
(1981.1187 592.30453 -3.1481903)
(2086.6423 592.82183 -16.391784)
(2193.331 592.14161 -28.626198)
(2300.6306 590.07076 -39.622191)
(2408.0612 586.63205 -48.900553)
(2515.0919 581.66682 -56.364218)
(2621.438 575.2008 -61.821531)
(2726.7025 567.1075 -65.203052)
(2830.7342 557.38722 -66.578777)
(2933.2811 545.97315 -66.067576)
(3034.3429 532.87456 -63.889295)
(3133.8073 518.0715 -60.324049)
(3231.7791 501.59114 -55.698658)
(3328.2663 483.46229 -50.373846)
(3423.4166 463.72975 -44.71402)
(3517.3029 442.46885 -39.080104)
(3610.0592 419.74731 -33.789677)
(3701.7538 395.66878 -29.127332)
(3792.4616 370.33718 -25.304545)
(3882.1784 343.86214 -22.462048)
(3970.8998 316.37871 -20.670824)
(4058.5004 287.99682 -19.909043)
(4144.8933 258.88656 -20.103419)
(4229.8357 229.11428 -21.04927)
(4313.1597 198.88774 -22.642065)
(4394.5492 168.27227 -24.472638)
(4473.7618 137.41516 -26.411029)
(4550.599 106.45147 -28.075156)
(4624.6999 75.481572 -29.3192)
(4695.8336 44.547517 -29.811309)
(4763.8592 13.981745 -29.286749)
(4828.6507 -16.347428 -27.735356)
(4890.1576 -46.20973 -25.078275)
(4948.3918 -75.539952 -21.275085)
(5003.4886 -104.26696 -16.434903)
(5055.6244 -132.20216 -10.700486)
(5105.0561 -159.36099 -4.2148634)
(5152.1351 -185.5026 2.7345391)
(5197.2503 -210.70421 9.9272735)
(5240.8267 -234.66263 17.040927)
(5283.3419 -257.57331 23.874848)
(5325.2801 -279.06507 30.090678)
(5367.0671 -299.34021 35.587111)
(5409.2074 -318.19115 40.034217)
(5452.0774 -335.74788 43.518139)
(5495.9325 -352.0677 45.814887)
(5541.0815 -366.78171 47.200442)
(5587.7194 -380.59969 47.496171)
(5635.9641 -393.02882 47.167816)
(5685.7215 -404.70695 46.117803)
(5737.1259 -415.49312 45.051805)
(5789.601 -425.51077 43.516319)
(5843.7112 -435.70167 42.83554)
(5898.0926 -444.68341 41.824501)
(5953.6133 -455.04786 42.234795)
(6008.8792 -465.34424 42.495388)
(0.59939442 -23.39564 -29.131445)
(3.8427979 -31.487292 -33.359566)
(3.6706155 -46.860953 -45.075452)
(6.517961 -58.784583 -47.794471)
(15.879285 -75.660908 -51.068095)
(27.652164 -92.720818 -51.861535)
(43.116419 -109.13167 -52.504737)
(61.988636 -127.05026 -52.268608)
(84.164646 -144.3595 -52.271393)
(108.67822 -161.6259 -52.124697)
(136.3041 -178.7888 -52.250558)
(165.92654 -195.41031 -52.490526)
(198.11979 -211.87844 -52.833867)
(232.13552 -227.88715 -53.454023)
(268.18254 -243.60606 -53.948129)
(305.95504 -259.17715 -54.592033)
(345.40965 -274.57996 -54.956417)
(386.43241 -290.18372 -55.319551)
(429.01485 -306.04228 -55.407596)
(472.9434 -322.28473 -55.395011)
(518.46727 -339.29257 -55.129092)
(565.35352 -357.13313 -54.909572)
(613.71356 -375.84923 -54.567832)
(663.7713 -395.82918 -54.390253)
(715.32917 -416.89011 -54.441756)
(768.72389 -439.22769 -54.741238)
(823.97547 -462.75052 -55.696385)
(881.29533 -487.36935 -56.950686)
(940.82959 -512.99437 -59.108823)
(1002.7241 -539.36485 -61.638385)
(1067.2577 -566.38209 -64.979923)
(1134.354 -593.68994 -68.9012)
(1204.3683 -621.06877 -73.325941)
(1277.2565 -648.20243 -78.139962)
(1353.1715 -674.86333 -83.106794)
(1432.1357 -700.74439 -88.235565)
(1514.2113 -725.61091 -92.72421)
(1599.2598 -749.45196 -96.971206)
(1687.1497 -771.82933 -100.42216)
(1777.8018 -792.87276 -102.95595)
(1871.0239 -812.43014 -104.28022)
(1966.5486 -830.57832 -104.30009)
(2064.1315 -847.33006 -102.85215)
(2163.4372 -862.83009 -99.918112)
(2264.1628 -877.17695 -95.463161)
(2365.9521 -890.56778 -89.566682)
(2468.4668 -903.14944 -82.328931)
(2571.369 -915.12831 -73.920624)
(2674.3343 -926.65754 -64.546649)
(2777.0594 -937.91204 -54.449165)
(2879.2804 -949.0122 -43.886356)
(2980.7508 -960.0728 -33.131323)
(3081.2793 -971.14998 -22.442746)
(3180.6997 -982.28744 -12.072026)
(3278.8882 -993.46697 -2.2318729)
(3375.7544 -1004.6582 6.8943201)
(3471.238 -1015.7854 15.176931)
(3565.2984 -1026.757 22.52825)
(3657.9172 -1037.4637 28.919283)
(3749.0843 -1047.7879 34.365726)
(3838.7869 -1057.6152 38.933454)
(3927.0171 -1066.8382 42.723095)
(4013.7497 -1075.3746 45.870056)
(4098.9421 -1083.1548 48.524319)
(4182.5394 -1090.1575 50.843206)
(4264.4618 -1096.3721 52.981964)
(4344.583 -1101.8424 55.060418)
(4422.8186 -1106.665 57.209464)
(4499.0449 -1110.9201 59.51878)
(4573.0371 -1114.7935 61.870369)
(4644.6385 -1118.2209 64.448439)
(4713.8615 -1121.7807 67.098436)
(4780.3802 -1125.2546 69.67416)
(4844.2028 -1129.045 72.093354)
(4905.2517 -1133.2462 74.201231)
(4963.5112 -1138.0246 75.807371)
(5019.0204 -1143.5049 76.784775)
(5071.8668 -1149.7767 76.966769)
(5122.2471 -1156.9355 76.248888)
(5170.3392 -1164.9551 74.565992)
(5216.4724 -1173.9003 71.913969)
(5260.9397 -1183.6621 68.306484)
(5304.1442 -1194.2228 63.892317)
(5346.4676 -1205.4341 58.789284)
(5388.3467 -1217.2242 53.268411)
(5430.1731 -1229.399 47.545535)
(5472.3663 -1241.8793 41.96997)
(5515.2636 -1254.4563 36.811922)
(5559.1732 -1267.0551 32.421229)
(5604.3335 -1279.5008 29.052789)
(5650.8589 -1291.7458 26.964078)
(5698.7936 -1303.6759 26.303481)
(5748.0194 -1315.2353 27.054511)
(5798.2759 -1326.4696 29.168981)
(5849.7378 -1337.3402 32.226539)
(3.2927448e-15 -1.3239155e-15 2.3845803e-16)
(2.4470133e-15 -9.6672015e-16 3.215493e-17)
(-9.0574249e-15 9.0550918e-16 6.4029168e-16)
(-1.2642219e-16 -5.721845e-16 4.4370095e-16)
(-7.6811722e-15 -4.9270561e-16 4.1193361e-16)
(-7.3893964e-15 2.7533729e-15 -1.0951501e-15)
(-3.2915852e-15 -8.1743692e-16 3.8364228e-16)
(-1.9032499e-15 5.3200654e-16 -8.2319016e-17)
(-4.7409759e-15 -4.8623412e-16 4.3918642e-16)
(-1.2869644e-14 1.1845665e-15 6.4228907e-16)
(-9.6157521e-15 1.4157374e-15 5.9836601e-16)
(-9.4077204e-15 4.9518432e-16 1.1192419e-15)
(-5.982767e-15 2.6210694e-16 3.0473736e-16)
(-1.1478475e-14 -5.3386198e-16 1.6580808e-15)
(-5.257323e-15 3.6289085e-16 2.8600704e-16)
(18.066477 -13.539425 28.36877)
(18.421259 -54.280912 47.010774)
(15.86266 -57.004048 57.16999)
(23.242227 -84.836101 69.327717)
(29.725036 -98.772671 75.027143)
(43.324258 -119.53478 79.16474)
(58.288588 -137.50382 81.417785)
(78.994171 -158.06389 82.596487)
(101.42395 -176.09751 81.641679)
(128.34358 -196.79577 80.27506)
(157.78128 -216.14385 77.868584)
(189.53938 -235.13045 74.845902)
(224.32821 -256.00603 71.526092)
(260.4335 -274.74146 68.3684)
(298.89145 -296.06104 65.289425)
(338.06365 -315.43509 62.985048)
(378.85558 -335.92232 61.752964)
(420.2561 -356.63219 60.517316)
(462.67308 -377.089 61.527891)
(505.69007 -398.21376 62.598119)
(549.18191 -418.86402 65.575342)
(593.95949 -440.26549 68.928053)
(639.53135 -461.4751 73.012016)
(686.58551 -483.09206 77.531525)
(734.83696 -504.69696 82.0861)
(785.42036 -526.73746 86.473744)
(837.52511 -549.00307 89.89336)
(893.38082 -571.96843 92.739978)
(951.05555 -594.67171 93.592508)
(1013.1043 -618.73437 93.274951)
(1077.9973 -642.74628 90.940875)
(1146.8036 -667.44343 86.666059)
(1219.3274 -692.67435 80.320288)
(1295.676 -718.57263 72.064814)
(1375.9611 -745.53642 62.317407)
(1459.0944 -770.68814 50.43629)
(1546.3782 -799.23023 37.510136)
(1636.1368 -826.54356 23.957074)
(1728.4056 -854.26456 9.9236459)
(1822.8975 -881.96 -4.0718502)
(1918.9595 -909.49353 -17.557989)
(2016.2514 -936.65364 -30.147006)
(2114.2754 -963.28985 -41.438538)
(2212.6532 -989.16535 -51.135406)
(2310.9966 -1014.1437 -58.990852)
(2409.0295 -1038.0166 -64.869417)
(2506.4894 -1060.6779 -68.704004)
(2603.2308 -1081.973 -70.543952)
(2699.1343 -1101.8488 -70.500117)
(2794.179 -1120.2224 -68.787312)
(2888.3723 -1137.1036 -65.657169)
(2981.7863 -1152.4801 -61.438734)
(3074.5089 -1166.4251 -56.455162)
(3166.6504 -1178.9838 -51.071503)
(3258.3195 -1190.2753 -45.607009)
(3349.6062 -1200.3811 -40.38003)
(3440.5765 -1209.4377 -35.631745)
(3531.2506 -1217.541 -31.567794)
(3621.6048 -1224.8117 -28.302917)
(3711.5579 -1231.3391 -25.889529)
(3800.9754 -1237.2076 -24.298626)
(3889.6706 -1242.4765 -23.436702)
(3977.4076 -1247.1944 -23.138302)
(4063.9154 -1251.3743 -23.210338)
(4148.8965 -1255.0362 -23.404194)
(4232.0203 -1258.1702 -23.467749)
(4313.0489 -1260.7183 -23.12157)
(4391.5072 -1263.0182 -22.161194)
(4467.4326 -1264.1602 -20.322082)
(4540.2781 -1265.0944 -17.807343)
(4610.2552 -1265.5097 -14.050113)
(4676.9213 -1265.3637 -9.2654941)
(4740.4774 -1264.7863 -3.4718369)
(4800.9206 -1263.8561 3.1744146)
(4858.4001 -1262.7477 10.530463)
(4913.1367 -1261.5746 18.340614)
(4965.3942 -1260.5406 26.334122)
(5015.518 -1259.8363 34.22659)
(5063.8632 -1259.6684 41.716101)
(5110.841 -1260.2425 48.526823)
(5156.8364 -1261.7536 54.407591)
(5202.2714 -1264.3818 59.166669)
(5247.4921 -1268.2606 62.655945)
(5292.8689 -1273.5085 64.823804)
(5338.6568 -1280.1704 65.66252)
(5385.1249 -1288.2579 65.273505)
(5432.4027 -1297.7233 63.800971)
(5480.6313 -1308.4414 61.473684)
(5529.8104 -1320.2804 58.556615)
(5579.9523 -1332.974 55.352892)
(5630.953 -1346.3204 52.173409)
(5682.7265 -1359.9204 49.307702)
(5735.1013 -1373.541 47.020831)
(5787.9771 -1386.5642 45.393643)
(5840.1718 -1398.6637 44.531749)
(5920.726 -1358.8711 43.130737)
(5942.6057 -1307.3698 42.679337)
(5959.0353 -1254.0711 41.820977)
(5970.6722 -1198.7798 40.62256)
(5977.7661 -1142.5611 39.333559)
(5978.3488 -1084.3033 37.671599)
(5977.649 -1026.0306 36.165604)
(5975.174 -967.45414 34.545445)
(5970.0124 -908.7335 33.37134)
(5969.2486 -851.2277 32.256195)
(5974.433 -795.15805 31.920878)
(5984.1404 -740.36282 31.28381)
(5998.4808 -686.14284 31.873056)
(6019.651 -633.84849 31.877239)
(6045.1136 -581.11687 32.331923)
(6005.0822 -516.17178 31.545)
(5951.7817 -505.22866 30.609607)
(5898.0404 -494.36989 30.483242)
(5845.4566 -483.98152 31.167047)
(5794.321 -474.26419 33.698226)
(5744.5246 -464.97002 37.170072)
(5696.3587 -456.26498 42.042657)
(5649.6307 -447.87881 47.811322)
(5604.2844 -439.67549 54.282941)
(5560.0608 -431.47246 61.216699)
(5516.7615 -422.91756 68.186998)
(5473.9672 -413.86271 74.979776)
(5431.4905 -403.95587 81.301786)
(5388.9111 -392.99908 86.976788)
(5345.9112 -380.73286 91.828549)
(5302.0157 -366.98037 95.64622)
(5256.9253 -351.60859 98.341417)
(5210.3524 -334.52375 99.972056)
(5161.9791 -315.68937 100.51384)
(5111.5912 -295.15315 100.10791)
(5058.9731 -272.99338 98.849946)
(5003.98 -249.34499 96.895925)
(4946.488 -224.43069 94.405593)
(4886.3853 -198.35723 91.450485)
(4823.758 -171.55835 88.354597)
(4758.3738 -144.05307 84.972214)
(4690.7469 -116.37998 81.662452)
(4619.6289 -88.09257 77.976737)
(4546.7475 -60.54083 74.404937)
(4471.0964 -32.762047 70.631689)
(4393.119 -5.6431832 66.804891)
(4312.7601 21.072245 62.594792)
(4230.1422 47.233763 58.033123)
(4145.3342 72.839506 52.944323)
(4058.425 97.925079 47.25761)
(3969.4894 122.54776 40.884593)
(3878.6118 146.7751 33.77191)
(3785.8783 170.70766 25.91136)
(3691.3788 194.41577 17.335399)
(3595.2117 217.98843 8.1193712)
(3497.4835 241.46017 -1.6029735)
(3398.3169 264.86753 -11.666344)
(3297.8419 288.17357 -21.855214)
(3196.2141 311.33501 -31.936904)
(3093.5939 334.22646 -41.646448)
(2990.1751 356.71774 -50.731888)
(2886.1508 378.59702 -58.925535)
(2781.7497 399.66743 -66.011439)
(2677.2013 419.64831 -71.771485)
(2572.7485 438.31648 -76.0714)
(2468.6718 455.381 -78.811829)
(2365.1844 470.57642 -79.91342)
(2262.6368 483.75593 -79.497398)
(2161.1979 494.60496 -77.493676)
(2061.1728 503.04556 -74.204789)
(1962.8066 508.95709 -69.792192)
(1866.3839 512.38673 -64.505284)
(1772.0807 513.18351 -58.498294)
(1679.8233 511.54658 -52.220839)
(1590.105 507.95605 -46.151475)
(1503.0467 502.05029 -39.901988)
(1418.8652 494.15448 -33.979632)
(1336.8657 484.92211 -29.649356)
(1258.0481 474.34217 -25.519065)
(1182.0085 463.18286 -22.688175)
(1108.8544 450.79747 -20.385983)
(1038.173 438.6787 -19.928704)
(970.61126 425.76159 -19.802534)
(905.31968 413.35767 -21.092135)
(842.76883 401.14054 -22.977908)
(782.64685 389.2268 -25.483469)
(724.83907 377.97864 -28.521611)
(669.72847 366.31507 -31.525129)
(616.37617 355.72039 -34.933708)
(565.30134 345.10491 -38.107841)
(516.70495 333.93923 -40.949977)
(469.51133 323.55407 -43.76155)
(425.14033 311.81367 -45.832164)
(381.99276 300.56174 -47.923103)
(341.55404 287.68285 -49.27925)
(302.88394 274.73064 -50.613764)
(266.21895 260.42546 -51.550554)
(231.47229 245.46966 -52.603958)
(199.66088 228.87603 -53.161092)
(169.36123 212.32428 -54.364594)
(141.71143 194.01473 -55.205997)
(116.78149 175.54252 -56.136128)
(94.210174 156.17178 -57.176339)
(74.251891 136.86585 -58.002038)
(57.329556 117.27358 -58.417146)
(43.4616 97.623071 -57.467465)
(32.999966 78.19345 -55.441262)
(25.40469 61.575788 -51.546601)
(19.857723 42.566202 -41.517579)
(25.534887 27.778266 -24.106685)
(-6.8708141e-15 1.5083581e-15 1.9262289e-16)
(-1.2504183e-14 5.7375616e-16 8.4327435e-16)
(-8.3449101e-15 1.4891922e-15 5.3018253e-16)
(-4.9731758e-15 1.4991158e-15 6.2376313e-16)
(-3.4146159e-15 1.5624416e-15 3.1576894e-17)
(2.0582335e-15 9.3962624e-16 -5.746342e-16)
(2.2101935e-15 3.7457559e-17 -1.1841335e-16)
(2.4553765e-15 -8.5141669e-16 -9.3419562e-16)
(1.2987427e-15 1.0081898e-16 1.7950851e-15)
(-4.5074861e-15 9.063971e-16 1.0710522e-15)
(-5.2682467e-15 2.1856155e-15 1.0652666e-15)
(-7.4917339e-15 1.915055e-15 2.2418828e-16)
(-9.400838e-15 1.3708275e-15 6.2833768e-16)
(-6.2048683e-15 1.3247981e-15 5.4317906e-16)
(-6.971104e-15 1.5128103e-15 7.5678131e-16)
(-1.2693866e-14 6.2923345e-15 -2.1364834e-15)
(-5.2452578e-15 2.6791924e-15 -5.3037742e-16)
(-1.0752404e-15 9.8318743e-16 -1.0111087e-16)
(-2.7353382e-15 1.7746034e-15 7.3085398e-17)
(1.0178949e-15 -1.5450237e-16 -4.119182e-16)
(-1.4303492e-15 4.136346e-16 -3.3264033e-16)
(-1.0059749e-14 4.7133437e-15 -1.6449855e-15)
(2.9801421e-15 -1.9180379e-15 -8.3172098e-16)
(-4.79756e-15 2.8035442e-15 1.1420498e-15)
(-5.4778068e-15 3.5047253e-15 -3.934403e-16)
(-1.8117877e-15 1.1581936e-15 -9.1309836e-16)
(-3.9812639e-16 4.7407236e-16 -2.2932148e-16)
(-1.5272242e-15 1.100363e-15 -2.2557932e-16)
(-4.1024849e-15 1.9838802e-15 2.8069696e-17)
(-5.3424143e-16 2.551799e-16 -1.9455919e-16)
(5900.0002 -1350.51 35.11818)
(5899.3865 -1353.0007 35.825393)
(5898.8803 -1356.1969 37.271882)
(5898.9222 -1360.4735 39.050843)
(5899.1557 -1365.6792 40.934589)
(5899.6868 -1371.7359 42.724307)
(5900.3362 -1378.4183 44.253432)
(5901.0118 -1385.2655 45.442031)
(5901.5942 -1391.9763 46.186574)
(5901.9764 -1398.1299 46.571676)
(5902.0102 -1403.3395 46.460235)
(5901.7879 -1407.4221 46.157658)
(5901.0169 -1410.1626 45.536538)
(5900.1735 -1411.2727 45.013057)
(5898.6644 -1411.5253 44.115194)
(6071.9461 -477.88537 43.896301)
(6073.7604 -479.74859 44.557929)
(6074.9322 -482.41026 45.049365)
(6075.386 -485.92355 45.556901)
(6075.0877 -490.23611 45.778847)
(6074.1422 -495.13307 45.680808)
(6072.666 -500.39668 45.119701)
(6070.8581 -505.75181 44.132678)
(6068.9007 -510.90259 42.707035)
(6067.0146 -515.5749 40.912819)
(6065.3723 -519.51736 38.892104)
(6064.1218 -522.57268 36.781501)
(6063.364 -524.67595 34.825878)
(6063.1421 -525.79944 33.242373)
(6063.2221 -526.5702 32.427015)
(14.83024 31.726682 43.274321)
(20.960464 51.252435 52.3592)
(26.203926 72.223429 65.749495)
(34.942465 91.373114 73.181877)
(44.406632 110.42608 79.739551)
(58.384816 129.20803 83.611233)
(74.704857 147.78966 85.90326)
(95.072786 166.45718 86.587941)
(118.03339 184.59349 86.008899)
(144.58269 202.84908 84.229706)
(173.768 220.48065 81.538418)
(205.89118 238.27217 78.322055)
(240.19832 255.30973 74.639483)
(276.77893 272.53794 70.944208)
(315.05378 288.93981 67.418715)
(355.15197 305.4591 64.429343)
(396.47264 321.20434 62.053845)
(438.92274 336.80687 60.600246)
(482.61778 351.66619 60.028788)
(527.31228 366.19221 60.520007)
(573.06993 379.94834 61.949018)
(620.1294 393.07002 64.239353)
(668.55537 405.59285 67.134929)
(718.60342 417.13644 70.515277)
(770.78545 428.04772 73.949135)
(825.18696 437.97504 77.237453)
(882.34021 447.2466 79.939043)
(942.54442 455.44486 81.836645)
(1006.2803 462.93787 82.502127)
(1073.6565 469.62677 81.728748)
(1145.0661 475.46341 79.361111)
(1220.6539 480.60828 75.232315)
(1300.4474 485.04062 69.354977)
(1384.467 488.83324 61.725306)
(1472.6253 491.96346 52.413673)
(1564.7003 494.41972 41.830262)
(1660.3685 496.42338 30.253556)
(1759.223 497.6231 17.861177)
(1860.9584 498.22676 5.1677435)
(1964.9517 498.15326 -7.3848169)
(2070.7231 497.26574 -19.461951)
(2177.6563 495.38797 -30.757451)
(2285.407 492.77022 -40.640106)
(2393.4005 488.89822 -49.103945)
(2501.0723 483.92185 -55.819094)
(2608.1401 477.6284 -60.656036)
(2714.2247 469.93474 -63.587944)
(2819.0937 460.74235 -64.640758)
(2922.5443 449.96837 -63.950704)
(3024.4843 437.55084 -61.711257)
(3124.8435 423.45804 -58.186768)
(3223.6522 407.66508 -53.675155)
(3320.9456 390.19955 -48.516034)
(3416.8226 371.08809 -43.040703)
(3511.3687 350.41123 -37.58332)
(3604.6951 328.24888 -32.438229)
(3696.8759 304.72974 -27.866408)
(3787.9789 279.97494 -24.058833)
(3878.0115 254.14462 -21.151921)
(3966.9636 227.39079 -19.200283)
(4054.7337 199.88279 -18.200105)
(4141.2295 171.79321 -18.053764)
(4226.2336 143.25375 -18.62845)
(4309.5661 114.46771 -19.746808)
(4390.9638 85.555508 -21.120678)
(4470.1095 56.601276 -22.510201)
(4546.8227 27.860731 -23.860174)
(4620.947 -0.72508428 -24.678206)
(4692.0606 -29.081924 -24.988803)
(4759.9375 -56.979722 -24.277416)
(4824.6362 -84.515765 -22.638427)
(4885.9752 -111.57371 -20.023196)
(4944.0533 -138.1165 -16.448721)
(4998.9225 -164.08625 -11.973645)
(5050.7658 -189.41427 -6.703086)
(5099.8243 -214.11935 -0.80201703)
(5146.4322 -238.08494 5.4739609)
(5190.9634 -261.3291 11.936217)
(5233.8594 -283.71412 18.299698)
(5275.5681 -305.30218 24.36087)
(5316.5911 -325.87722 29.85274)
(5357.3475 -345.54894 34.617697)
(5398.3663 -364.1368 38.567145)
(5440.0174 -381.83989 41.497013)
(5482.7097 -398.3011 43.471868)
(5526.4715 -413.85914 44.503349)
(5571.9109 -428.3235 44.729372)
(5618.7962 -441.85906 44.296889)
(5667.5145 -454.5452 43.423782)
(5717.6305 -466.41909 42.285648)
(5769.4185 -477.68728 41.226886)
(5822.4236 -488.63599 40.424084)
(5876.3655 -498.88643 39.956853)
(5931.4776 -509.83293 40.376705)
(5987.3658 -520.47643 41.009469)
(4.6606411 28.899514 39.4222)
(10.046878 40.999104 49.694081)
(17.987819 62.6752 59.487822)
(25.372699 78.501065 67.499065)
(35.967724 96.555794 72.280423)
(49.332662 112.84532 75.961363)
(66.057292 129.82585 77.814462)
(85.723431 145.83154 78.597074)
(108.9266 162.00694 78.082983)
(135.03963 177.65256 76.51)
(164.13594 193.28169 74.333089)
(195.81837 208.58683 71.281703)
(229.97253 223.84967 68.230285)
(266.21415 238.69473 64.800722)
(304.40226 253.54364 61.854941)
(344.2191 267.9641 58.886001)
(385.23739 282.22666 56.96731)
(427.78565 295.90999 55.408841)
(471.30957 309.3633 54.947921)
(515.96676 322.01967 55.173776)
(561.77085 334.22884 56.399318)
(608.82536 345.59608 58.153998)
(657.29012 356.19221 60.704822)
(707.47231 365.83609 63.444681)
(759.64643 374.55433 66.374097)
(814.10107 382.32312 68.989143)
(871.26002 389.03949 71.223814)
(931.4221 394.74304 72.580519)
(995.0175 399.55992 72.855504)
(1062.2359 403.39037 71.83377)
(1133.446 406.42118 69.366923)
(1208.7262 408.68085 65.251882)
(1288.1963 410.28071 59.56289)
(1371.8698 411.22509 52.288121)
(1459.7011 411.68241 43.61457)
(1551.4403 411.73004 33.66133)
(1646.7899 411.32178 22.875258)
(1745.4391 410.49449 11.450307)
(1846.9324 409.28978 -0.2627141)
(1950.7951 407.69035 -11.832829)
(2056.5431 405.53258 -22.901182)
(2163.6012 402.81198 -33.170539)
(2271.568 399.40185 -42.216977)
(2379.7801 395.15344 -49.715342)
(2487.9223 389.96812 -55.693392)
(2595.5099 383.68198 -59.871948)
(2702.2198 376.14796 -62.286984)
(2807.7789 367.25163 -62.925101)
(2911.9802 356.85714 -61.965872)
(3014.6917 344.89481 -59.544497)
(3115.836 331.28597 -55.953591)
(3215.4129 316.0043 -51.440931)
(3313.4382 299.05342 -46.347783)
(3409.9911 280.46046 -40.963051)
(3505.1415 260.30544 -35.615033)
(3598.9857 238.68238 -30.562576)
(3691.5907 215.72601 -26.054028)
(3783.0151 191.58738 -22.259348)
(3873.2726 166.44117 -19.306243)
(3962.3418 140.46905 -17.241196)
(4050.1488 113.8617 -16.052213)
(4136.5852 86.806783 -15.6595)
(4221.4668 59.464066 -15.922231)
(4304.6116 32.056603 -16.71127)
(4385.8012 4.6040434 -17.662274)
(4464.7155 -22.645281 -18.855046)
(4541.4331 -49.817533 -19.733284)
(4615.2068 -76.651989 -20.231184)
(4686.0864 -102.71219 -20.081051)
(4753.8509 -128.39488 -19.258391)
(4818.3544 -153.58094 -17.599176)
(4879.5628 -178.3441 -15.080518)
(4937.4462 -202.56781 -11.741956)
(4992.0611 -226.32568 -7.5639423)
(5043.6327 -249.58874 -2.7346854)
(5092.3595 -272.41091 2.621061)
(5138.5851 -294.66508 8.264715)
(5182.6494 -316.47048 14.052503)
(5225.0103 -337.63844 19.677506)
(5266.0705 -358.29159 25.01404)
(5306.3757 -378.18089 29.785282)
(5346.3444 -397.48537 33.911628)
(5386.4261 -415.84748 37.219751)
(5426.2546 -433.21932 39.77618)
(5467.2959 -449.89675 41.484628)
(5510.1303 -465.62535 42.192254)
(5554.4417 -480.54081 42.26333)
(5600.359 -494.48405 41.798093)
(5647.9645 -507.68976 40.887746)
(5697.2901 -520.01007 40.011711)
(5748.0865 -531.70893 38.938712)
(5800.605 -543.06022 38.53456)
(5853.8092 -553.53003 38.035693)
(5908.8254 -564.75871 38.809453)
(5964.215 -575.38535 39.278612)
(-1.3375686 24.022147 36.592625)
(3.0860004 35.544052 44.712973)
(8.0119901 52.834985 54.907557)
(16.51049 67.671114 61.120916)
(26.900907 82.933435 65.265226)
(40.942737 97.882796 68.421747)
(57.170814 112.16772 70.194613)
(77.480215 126.45381 70.841917)
(100.24749 139.96669 70.328492)
(126.40808 153.89444 69.141341)
(155.17276 166.92034 67.003769)
(186.84582 180.51632 64.557088)
(220.62668 193.20006 61.617264)
(256.77674 206.45645 58.765577)
(294.67717 218.97057 55.784412)
(334.21768 231.64772 53.485802)
(375.31304 243.78327 51.375287)
(417.60201 255.74709 50.111915)
(461.0609 267.12604 49.48419)
(505.73861 277.99009 49.693706)
(551.54686 288.23786 50.556953)
(598.66491 297.54541 52.16484)
(647.2343 306.16639 54.187976)
(697.48217 313.62639 56.537933)
(749.72276 320.27084 58.918937)
(804.23843 325.66705 61.124999)
(861.42442 330.10563 62.858952)
(921.56466 333.44227 63.775183)
(985.05909 335.77615 63.767636)
(1052.1447 337.15103 62.520537)
(1123.1235 337.69381 59.912391)
(1198.0898 337.48997 55.836868)
(1277.2511 336.6048 50.332027)
(1360.5566 335.24997 43.372132)
(1447.9066 333.45785 35.118592)
(1539.1921 331.29362 25.790798)
(1634.0467 328.92831 15.658977)
(1732.1579 326.27174 4.9593506)
(1833.3103 323.40355 -5.9120862)
(1936.8271 320.2675 -16.622871)
(2042.3268 316.87049 -26.797606)
(2149.2739 313.06553 -36.213802)
(2257.1175 308.78034 -44.35824)
(2365.4121 303.8635 -51.134685)
(2473.6957 298.11578 -56.373539)
(2581.5301 291.46483 -59.954471)
(2688.5937 283.71062 -61.832399)
(2794.5806 274.71515 -62.068742)
(2899.2808 264.34703 -60.769603)
(3002.5333 252.50459 -58.124318)
(3104.2596 239.11149 -54.37198)
(3204.4163 224.12576 -49.770492)
(3303.0194 207.54795 -44.62989)
(3400.1153 189.40382 -39.232124)
(3495.764 169.77677 -33.879164)
(3590.0452 148.75828 -28.816885)
(3683.0127 126.49735 -24.275808)
(3774.725 103.14609 -20.414725)
(3865.18 78.89058 -17.354122)
(3954.3734 53.918467 -15.12514)
(4042.2216 28.42588 -13.734571)
(4128.6304 2.6017308 -13.077782)
(4213.4207 -23.368242 -13.069811)
(4296.4562 -49.320041 -13.495579)
(4377.4313 -75.143935 -14.186806)
(4456.2468 -100.63501 -14.952153)
(4532.3582 -126.0591 -15.506188)
(4606.4488 -150.34233 -15.723434)
(4676.9901 -174.54381 -15.649147)
(4744.5543 -198.32003 -14.707162)
(4808.8914 -221.69355 -13.006953)
(4869.8206 -244.58692 -10.530663)
(4927.5016 -267.04045 -7.2655603)
(4982.0007 -289.08357 -3.3348737)
(5033.4811 -310.71344 1.1480983)
(5082.0828 -331.93304 6.113804)
(5128.1927 -352.78036 11.27782)
(5172.1073 -373.24214 16.521607)
(5214.2627 -393.25424 21.57038)
(5255.1061 -412.84358 26.299811)
(5295.0825 -431.89596 30.463916)
(5334.6829 -450.452 34.017307)
(5374.3777 -468.30062 36.727139)
(5414.4068 -485.53156 38.748323)
(5454.0344 -502.19651 39.656567)
(5496.3385 -518.12406 40.225161)
(5540.0506 -533.12661 40.010199)
(5585.2688 -547.38535 39.385374)
(5632.3299 -560.80424 38.472779)
(5680.9556 -573.53639 37.499691)
(5731.3467 -585.57369 36.60449)
(5783.2635 -597.27133 36.176071)
(5836.1214 -608.0981 36.014645)
(5890.89 -619.59611 36.731262)
(5945.5241 -630.46343 37.637221)
(-5.4378392 22.128151 32.24623)
(-3.6530468 30.216845 40.490976)
(1.4188257 44.990861 48.220367)
(9.0772095 56.811699 54.061813)
(19.849139 70.286111 57.681685)
(33.172827 82.554943 60.78742)
(50.212031 95.235039 62.152634)
(69.942534 106.90823 62.73669)
(92.918606 118.8463 62.545527)
(118.87798 130.15227 61.230395)
(147.731 141.48466 59.658109)
(178.99311 152.51056 57.193958)
(212.80964 163.50272 54.887104)
(248.71661 174.34822 51.955489)
(286.40919 184.93568 49.741172)
(325.96048 195.43906 47.212264)
(366.79325 205.6314 45.583212)
(409.06853 215.41709 44.230257)
(452.50742 224.81851 43.730637)
(497.19652 233.56419 43.699059)
(543.00881 241.67211 44.505246)
(590.22413 248.93244 45.696105)
(638.84156 255.32661 47.437397)
(689.2171 260.68653 49.321531)
(741.5227 265.00117 51.319582)
(796.13225 268.18735 53.031979)
(853.31238 270.33908 54.300414)
(913.44284 271.32328 54.864098)
(976.82313 271.34417 54.509333)
(1043.7426 270.40333 52.996661)
(1114.4231 268.64192 50.279134)
(1189.0871 266.14088 46.219312)
(1267.7954 263.08656 40.816843)
(1350.5607 259.58434 34.142544)
(1437.3663 255.69873 26.300802)
(1528.0117 251.66478 17.544267)
(1622.2599 247.47037 8.0418367)
(1719.9701 243.26636 -1.9343971)
(1820.4765 238.93457 -11.934807)
(1923.4109 234.49807 -21.797354)
(2028.3569 229.91847 -31.085495)
(2134.8352 225.06528 -39.494914)
(2242.3166 219.93272 -46.830726)
(2350.3041 214.28428 -52.805005)
(2458.3825 208.01097 -57.27757)
(2566.142 200.93513 -60.166264)
(2673.2304 192.90053 -61.459393)
(2779.3321 183.74396 -61.185596)
(2884.2317 173.33259 -59.490473)
(2987.753 161.55521 -56.5344)
(3089.7946 148.33006 -52.555113)
(3190.2992 133.60872 -47.797544)
(3289.2641 117.39022 -42.559828)
(3386.714 99.700895 -37.100241)
(3482.6982 80.618409 -31.71209)
(3577.2761 60.241555 -26.615284)
(3670.4989 38.719547 -22.034197)
(3762.407 16.204753 -18.108966)
(3853.0092 -7.1125725 -14.946663)
(3942.2879 -31.04078 -12.588141)
(4030.1738 -55.395726 -11.010598)
(4116.5683 -79.961524 -10.149689)
(4201.3331 -104.60303 -9.8787368)
(4284.2856 -129.10756 -10.045043)
(4365.1994 -153.41725 -10.459425)
(4443.9021 -177.31682 -10.927357)
(4520.1849 -200.82586 -11.296605)
(4593.574 -223.9634 -11.339382)
(4664.3138 -246.45203 -11.006026)
(4731.8678 -268.53009 -9.7828038)
(4796.2444 -290.17349 -8.1021581)
(4857.3856 -311.34232 -5.7099964)
(4915.3832 -332.19019 -2.6615521)
(4970.0968 -352.65537 0.98090316)
(5021.7033 -372.78042 5.1512468)
(5070.5159 -392.69576 9.6215326)
(5116.7822 -412.30083 14.263485)
(5160.8393 -431.69265 18.909806)
(5203.1351 -450.77092 23.333742)
(5244.0143 -469.58276 27.417187)