/*--------------------------------*- C++ -*----------------------------------*\
  =========                 |
  \\      /  F ield         | OpenFOAM: The Open Source CFD Toolbox
   \\    /   O peration     | Website:  https://openfoam.org
    \\  /    A nd           | Version:  6
     \\/     M anipulation  |
\*---------------------------------------------------------------------------*/
FoamFile
{
    version     2.0;
    format      ascii;
    class       pointScalarField;
    location    "1.59";
    object      p;
}
// * * * * * * * * * * * * * * * * * * * * * * * * * * * * * * * * * * * * * //

dimensions      [1 -1 -2 0 0 0 0];

internalField   nonuniform List<scalar> 
3969
(
-1117476.8
1609230.1
715.20503
508.2666
-2009125.7
3233348.7
85.005578
72.466648
-858113.76
-611420.12
-288397.84
-22014.563
206804.23
523467.78
576652.77
54.419161
-293.33417
-315.43591
-558.32773
-257.6169
299.81401
270.55893
-300702.97
-355459.66
-325938.37
-342622.94
-319497.8
-315625.75
-291425.94
-279713.56
-258138.29
-240063.61
-224187.83
-207118.89
-191590.73
-177575.11
-163137.66
-148532.93
-137530.33
-124118.12
-114265.73
-102469.08
-93438.688
-83769.963
-75104.947
-67079.904
-59280.983
-52155.05
-45308.548
-39196.995
-33924.131
-28197.554
-23573.413
-19139.48
-15054.805
-11512.821
-8467.611
-5562.6496
-3450.2019
-2011.5664
-390.97231
691.3724
1179.2972
1566.6116
1740.7412
1468.0685
1280.4491
688.71216
377.81082
376044.14
318741.6
355101.06
308137.88
335751.97
297884.71
299204.07
274766.02
265234.45
245406.44
232396.91
217788.47
202594.03
189931.65
177192.66
164163.01
152769.45
140948.6
129830.84
120368.39
108662.59
101259.61
90750.637
83410.792
74376.914
67158.811
58836.983
52348.213
45726.095
39528.161
34558.26
28884.413
24478.929
19888.169
16282.716
12591.052
9826.7736
7429.6969
5028.361
3546.8932
1999.573
1195.7839
663.75119
513.90333
346.55646
295.98963
278.71924
-1384473
-1014487.8
-341247.85
151059.36
612649.38
1113733.4
924592.14
429935.57
506127.8
296519.74
409182.42
353560.83
349646.47
331941.41
309482.16
294828.34
266183.17
261128.23
239226.95
226802.94
214102.86
193558.18
185917.53
165474.64
156552.89
140558.82
129796.82
117787.55
108471.68
97942.722
89522.899
80954.016
74296.995
65987.563
58030.163
51234.906
44619.927
37969.975
32396.14
27123.058
21919.92
17799.076
14021.9
11603.32
7158.4383
5719.0046
3879.7457
2504.3112
1617.7854
892.83838
678.13489
397.90451
333.1115
-167.90748
421.21983
-60.710361
-256.26203
184.65413
-841.35553
-76.00388
257.37505
138.47613
993.55578
1609.7138
1954.0907
2215.0174
2302.5783
1970.546
1767.9349
430.03314
-651.33821
-2294.3077
-4705.9023
-8108.7568
-11130.685
-15200.086
-19535.538
-24417.92
-29798.756
-35482.074
-41728.558
-48570.879
-55531.012
-63289.684
-71165.411
-80394.464
-89413.38
-99334.6
-108824.16
-120335.13
-130517.17
-144056
-153327.98
-166026.79
-180131.69
-200533.31
-205899.82
-227189.57
-235096.63
-249081.96
-278077.53
-297729.73
-293769.89
-321737.3
-322498.36
-301189.61
-344847.25
-364871.71
-905713.13
-1019812.1
-1063202.8
-1049234.3
-1010521.3
-990892.62
-729771.47
1325601.7
1646833.2
1872183.4
2006341.8
1904704.2
1932704.8
1583634.5
626.70854
1099.251
905.61876
1181.2832
1112.5541
823.61863
917.70474
546.90536
270.38146
317.46631
255.54242
206.4888
357.2786
449.5175
-259138.73
-266985.04
-259486.06
-257557.88
-253618.41
-245214.39
-233553.75
-223994.35
-207790.48
-197445.77
-183701.92
-167298.52
-158831.6
-143397.34
-133437.17
-121608.17
-112224.98
-101373.64
-92366.87
-83079.386
-75453.381
-66935.018
-60098.786
-53233.127
-47375.733
-40875.064
-35576.131
-30772.623
-25761.447
-21464.462
-17604.768
-13796.822
-10772.181
-7948.3192
-5561.1408
-3570.7964
-2009.9171
-647.01979
386.99363
988.48271
1409.1554
1622.1307
1643.1088
1271.9845
1235.9991
657.35113
702.45323
-167803.16
-174197.88
-157970.32
-169029.97
-165618.2
-167060.92
-156310.37
-149406.14
-139978.89
-132510.21
-122005.98
-113949.77
-103903.9
-94509.425
-87541.074
-78963.326
-72318.313
-64647.548
-58662.763
-52361.595
-46489.69
-40966.279
-35997.067
-31533.138
-27174.179
-23622.581
-20473.241
-17022.33
-14616.337
-12011.201
-9893.7188
-7896.6869
-6357.4753
-4761.4706
-3559.6856
-2446.8979
-1476.0779
-767.40298
-193.62634
319.70507
509.61614
872.44648
716.50289
844.53471
783.21352
482.35485
320.37028
-72922.528
-90853.55
-70557.892
-81767.076
-76063.474
-78786.038
-73317.332
-71744.577
-66963.079
-60749.024
-58251.565
-51586.501
-47979.227
-41315.412
-37238.266
-32798.955
-29900.414
-25884.919
-23866.738
-20154.421
-18694.474
-15988.515
-14350.871
-11921.158
-10423.27
-8532.7215
-7090.077
-5762.8603
-4641.0035
-3327.1692
-2371.5141
-1276.9216
-504.36661
437.7394
891.32281
1469.6428
1855.0667
2006.3027
2165.8195
2214.8659
2130.8494
2122.9426
1776.4821
1747.7493
1227.5379
846.26359
300.79409
6963.7634
-3321.3887
12310.93
619.77362
8717.1588
4862.9254
12519.25
8519.0939
12492.549
8114.2333
12244.221
9427.4882
11721.246
11001.823
10656.833
11323.418
10913.388
11056.634
10704.394
11200.038
10319.583
10675.511
10940.809
10835.126
9800.0337
9443.7857
8520.6633
7895.3283
7280.7449
6685.6475
6039.7977
5690.4012
5171.2562
4846.191
4376.396
4163.9296
3839.3494
3685.2259
3306.8904
2900.3806
2590.795
2460.5886
1997.2996
1843.9689
1307.7654
997.04244
401.25262
106620.95
88577.056
99246.65
95593.968
98648.235
95131.047
91998.373
87119.403
83703.847
76919.78
75017.255
67637.016
66717.887
60474.033
57782.04
54301.549
49994.596
47770.299
43506.606
41582.039
36869.641
33081.396
29825.424
26209.508
24449.148
23080.746
20249.822
18440.401
16537.379
14831.462
13133.015
11907.097
10322.095
9318.3086
8063.5806
7025.2956
6337.525
5366.0632
5522.6157
4624.5924
4054.1191
3336.2325
2696.8412
2279.6607
1504.1531
1260.194
208.28314
203207.22
180878.9
187989.04
186855.38
185172.85
175780.23
170846.39
159388.65
154477.17
141830.81
137199.85
126595.42
120288.23
113486.72
105858.03
99001.447
91649.178
85890.731
78605.189
73861.209
66673.833
62592.139
54513.98
49465.484
44057.966
40068.066
35808.466
32104.788
28380.375
24994.041
22115.822
19058.809
16464.318
14076.107
11734.337
9863.7535
7978.8458
6513.2656
5234.3674
4640.5876
3514.7391
2806.9851
2150.7709
1516.5841
1023.7914
667.73414
315.59502
333225.79
247143.81
283150.19
271297.44
269213.25
255499.88
247006.62
231911.75
223671.01
207275.35
198182.89
184895.03
173956.7
160233.3
149971.01
138089.28
128183.65
117900.53
109649.82
99826.369
93016.395
83992.177
76912.682
69538.142
63017.204
57028.628
51485.64
45433.199
40020.299
34981.929
30339.995
25850.959
21848.178
18116.147
14696.395
11803.948
9073.4121
6762.3724
5141.4147
3563.2998
2442.1032
1554.4775
977.44788
500.68225
341.72398
217.01789
407.18421
-595964.09
-581523.34
-603191.02
-591924.39
-594483.37
-567994.63
-510955.6
-406001.74
-492454.42
-436594.1
-457798.74
-442404.68
-417157.09
-388398.74
-195646.19
-226151.89
-172559.02
-190987.27
-163459.11
-155585.63
-177303.59
-37478.488
-11472.685
8367.5573
-6576.7301
11082.285
49712.939
-19905.762
137713.91
146177.94
170431.04
167730.27
173499.11
185626.37
132943.79
421320.94
441889.72
449565.85
463625.62
483138.7
476734.12
459353.4
577681.95
505977.38
464695.59
480803.93
466509.33
434506.24
492018.66
548897.23
561111.67
629213.71
654153.41
666124.64
666889.86
536947.22
442892.05
501120.75
496935.06
504481.58
529711.43
513945.79
476943.21
348647.44
393433
413156.33
416584.89
411693.17
394686.04
410466.62
356927.64
380398.94
375002.54
393412.88
382765.15
384359.65
364757.67
340406.19
360288.54
373806.04
375528.14
374744.76
367952.66
366518.63
328459.28
322086.17
328534.98
335946.06
336193.77
331285.55
332573.51
305326.06
313650.41
319049.3
323073.22
324347.31
325899.41
328109.02
294061.21
289453.24
293606.11
295928.53
290744.94
297694.35
297559.97
272898.4
274532.15
275657.46
278479.67
280544.98
285134.55
287604.08
260839.47
256074.01
254737.17
258637.36
258469.06
260332.55
261858.72
243241.9
240675.15
239466.23
241918.7
243072.83
244390.76
250814.37
226573.17
223955.25
223161.52
227492.01
226066.58
225274.06
231637.15
213375.01
206278.91
208889.85
207558.94
211158.25
209472.45
218865.52
196844.18
192339.09
196536.26
195909.27
198279.87
196504.14
202344.16
183392.82
179079.53
181549.1
179365.38
181398.61
180056.05
186919.36
170305.94
165320.6
169082.32
167664.67
170925.89
170037.98
175609.76
156425.53
154100.94
156085.77
154740.12
156993.89
155348.76
159767.63
144825.65
142544.04
144414.51
142803.87
146269.42
144518.42
149057.78
132811.33
131056.43
132884.2
131058.64
134126.22
131798.9
136231.54
121796.79
120988.37
122540.75
120822.43
124175.78
122149.64
126133.39
111743.45
110164.27
111909.72
109775.53
113063.19
110770.39
114463.85
101929.24
100965.79
102320.56
100864.68
103806.35
101821.98
105381.18
92717.687
91093.218
93157.372
91268.495
93785.101
92241.365
95372.093
83688.364
83061.204
84361.631
82503.526
85175.459
84123.352
86724.179
75191.323
74726.7
75298.837
74363.3
76552.834
75646.718
78075.935
66858.876
67226.17
66750.164
66599.813
68052.455
68733.297
70582.515
60586.109
59460.131
59573.96
59401.576
59905.096
60750.558
61872.563
53598.766
52300
52571.071
52108.149
52811.221
53726.157
53947.125
46846.422
45736.313
45843.35
45126.252
45475.688
46751.547
46712.196
40808.371
39421.789
39587.076
38725.961
39384.265
40588.145
40414.845
34581.227
33841.547
33464.803
32806.6
33106.697
34327.307
34058.11
29487.522
28393.379
28090.618
27345.572
27614.742
28889.696
28676.727
24221.982
23561.006
22932.078
22330.49
22463.39
23885.778
23653.497
19961.979
19190.009
18506.814
17920.421
18113.185
19377.385
19004.586
15872.243
15317.238
14357.878
13929.193
13943.543
15486.659
14979.774
12467.665
11755.735
10856.84
10532.908
10635.432
10974.38
11811.76
9369.7462
8927.7001
8099.6138
7477.3643
8049.6035
9378.9979
8912.4741
7067.825
6811.3187
5735.3906
5738.6265
5584.1161
6530.6295
6562.125
5078.8936
4722.6356
3680.5263
3765.4768
3748.9426
4568.3102
4407.7307
3405.8536
3082.1833
2348.4908
2301.5169
2321.8489
3027.7237
3012.6001
2158.3505
1971.6518
1275.374
1315.4968
1421.0532
2088.5548
2058.0655
1496.1763
1357.1139
880.00808
959.2837
1072.2626
1550.3568
1522.0036
956.91473
759.47148
407.77038
505.59533
627.89217
1052.2454
978.52775
853.06748
704.63648
581.40005
667.77619
811.79785
1050.0621
905.05988
609.75184
475.73188
450.9658
518.98464
609.24078
828.32532
686.13646
702.84602
635.16507
760.71226
783.34899
958.97729
1006.9466
811.86969
248.69905
49.638773
351.30359
339.9902
386.68483
388.95788
194.74043
-298.92399
-151.04023
-356.55943
-344.43076
-335.71548
-236.05678
-312.42802
-142.08478
-484.2043
-786.20012
-637.56532
-827.40724
-573.41429
-550.00829
-590.43809
-526.99086
-787.91562
-686.16267
-764.61182
-534.16292
-502.68353
-368.86659
-480.15707
-560.44732
-539.11381
-564.57776
-449.49714
-435.56656
-295.91433
-194.35359
-605.20967
-245.44641
-540.34826
-384.19894
-272.21428
58.920027
344.68453
510.96766
429.86855
450.80838
422.71282
415.40258
660.48253
364.20082
637.51027
535.60361
472.6315
550.56559
112.31863
-386264.37
-394045.07
-448095.14
-429993.16
-443150.72
-409757.35
-395286.17
-411101.57
-425236.37
-447565.79
-446294.2
-442845.62
-406086.03
-391862.75
-379438.18
-389140.16
-395763.03
-397279.46
-391112.59
-361505.2
-358727.85
-348523.71
-369100.14
-373739.19
-380128.88
-369159.36
-352210.93
-345377.54
-339453.09
-342086.49
-343738.76
-345313.67
-340244.52
-326410.02
-314291.44
-310527.7
-317951
-321034.42
-316335.47
-312746.63
-298918.38
-296324.38
-300220.24
-298108.92
-298824.82
-295395.78
-298354.36
-287257.73
-291254.58
-273383.01
-274499.84
-277126.86
-264978.34
-271248.44
-261815.82
-260366.67
-261877.18
-261092.28
-260580.66
-255049.78
-259948.05
-249894.78
-255639.93
-242097.5
-238602.4
-237332.67
-232485.99
-236214.43
-228606.97
-233054.45
-226092.06
-222968.42
-227220.4
-219306.31
-224999.46
-216172.23
-221327.06
-207774.37
-207939.35
-205919.78
-199874.71
-204267.36
-197617.24
-204013.15
-195919.26
-190793.88
-192155.44
-187400.14
-190699.74
-185834.84
-185060.38
-178452.35
-177426.07
-175377.51
-173615.58
-174780.56
-171204.38
-175290.71
-165480.68
-163416.04
-160887.52
-160588.59
-160826.54
-159355.47
-162189.07
-153395.23
-149128.73
-148617.79
-146423.02
-148399.81
-145848.99
-147145.52
-139458.68
-137164.72
-136104.45
-135725.69
-136097.62
-134340.75
-135871.2
-127688.63
-124825.58
-124505.45
-123376.43
-123544.36
-122599.91
-123669.83
-115568.35
-114152.29
-113556.59
-112344.76
-113194.93
-112328.38
-113712.27
-105583.05
-103257.83
-102774.36
-101988.21
-102657.44
-101828.25
-102933.34
-95409.359
-93148.103
-93243.83
-92326.934
-93073.516
-92347.198
-93709.605
-86003.928
-83716.832
-83990.367
-82991.888
-83459.831
-82878.38
-84368.048
-77206.391
-75142.247
-75719.599
-74355.742
-75101.316
-74616.975
-76224.3
-69181.919
-66937.87
-67206.273
-66074.913
-66610.649
-66036.747
-67950.831
-61186.332
-58730.316
-59619.283
-58201.929
-58768.631
-58561.466
-60406.351
-53973.958
-51530.821
-52236.455
-50928.05
-51321.482
-51267.061
-53028.515
-46671.591
-45031.453
-45442.23
-44177.981
-44464.856
-44394.542
-46362.355
-40726.27
-38599.232
-38745.987
-37727.41
-37959.482
-38290.952
-39887.056
-34018.482
-32400.68
-32889.677
-31850.507
-31799.771
-32236.055
-33693.174
-28431.041
-27490.833
-27111.553
-26430.81
-26159.564
-27030.092
-28122.79
-23287.338
-22322.751
-22000.907
-21464.982
-21063.386
-21965.379
-22942.106
-18244.215
-17896.509
-17150.233
-16857.236
-16263.539
-17411.754
-18301.186
-13999.117
-13931.709
-13045.555
-12894.375
-12231.947
-13526.829
-14127.956
-10199.153
-10311.157
-9213.6709
-9312.1658
-8569.3227
-9864.1898
-10295.603
-6760.5509
-7180.3644
-6079.3288
-6133.9893
-5385.7119
-6743.5759
-7276.9576
-4023.529
-4700.0804
-3453.3893
-3782.7795
-3128.1448
-5028.7954
-4998.0947
-2452.2574
-2770.9599
-1359.739
-1680.8967
-1188.8022
-1384.4098
-2492.5786
350.32954
-605.5353
156.01297
274.09496
436.21727
-619.06733
-804.88907
1447.5106
505.8167
1870.485
1117.9777
1765.673
805.16106
512.60041
2282.8872
1351.8049
2365.9814
1698.3508
2461.9988
1384.2234
1406.27
2777.6131
1880.8101
2767.1371
2130.1195
2775.2776
1761.9449
1990.001
2841.731
1897.1233
2707.0731
2055.8054
2659.2414
1864.5035
2067.5269
2712.32
2064.7389
2568.5086
1995.3714
2478.5086
1782.8365
1996.0734
2132.679
1434.9931
1789.9668
1286.2436
1686.7574
1203.6687
1558.6231
1754.7341
1362.3131
1473.6132
1170.4845
1371.8563
1113.4841
1207.499
977.9459
490.60501
560.17252
262.27827
461.30112
326.20322
362.54506
613.50272
382.21305
283.31321
177.40365
359.63649
190.25526
341.21728
-395023.41
-251290.53
-257695.59
-243880.13
-252447.97
-252751.01
-234380.26
-227325.83
-216561.78
-205611.47
-192347.64
-178763.28
-166587.05
-154966.02
-141945.84
-132207.36
-120849.55
-110491.27
-101103.11
-91405.978
-82719.968
-73853.265
-65969.883
-58392.567
-51357.276
-44548.518
-38173.939
-32400.06
-27236.739
-22461.236
-18203.142
-14380.764
-11037.025
-8177.4003
-5645.6478
-3563.0021
-1443.4633
-338.98661
880.32882
1420.9364
1876.9805
2136.6929
2204.926
2042.9204
1821.9423
1379.518
1167.3765
-225577.86
-199502.07
-148911.42
-164874.56
-196671.96
-167196.14
-179828.22
-157682.66
-160366.92
-141046.29
-139530.61
-124659.96
-117485.35
-107873.84
-101365.05
-92406.831
-85417.477
-76015.99
-70594.319
-62822.685
-56740.165
-50349.311
-44897.146
-39101.163
-33918.629
-28362.933
-25048.367
-20553.496
-16923.667
-13495.919
-10343.864
-7591.5784
-5069.8745
-3015.5081
-947.24485
152.12876
1599.0132
2662.379
3365.2631
3407.2921
3696.788
3413.5582
3139.4177
2610.8542
2058.5001
1342.8932
831.70735
-81974.896
-91687.057
-46307.63
-76635.375
-71722.386
-60263.688
-70026.444
-59984.437
-61327.575
-52937.492
-57597.26
-50213.122
-52434.98
-46884.09
-45729.922
-42614.321
-39474.157
-35463.975
-33446.736
-28772.895
-26094.984
-22833.402
-20000.976
-16889.313
-14646.465
-11881.209
-9710.7659
-7054.6451
-5181.5622
-3376.7273
-1921.8234
-671.09168
385.13648
1245.7353
1952.2664
2389.3312
2782.4176
2840.8788
2987.5658
2738.9307
2758.1085
2361.5119
2190.0485
1672.0213
1396.8748
805.0705
647.59724
44328.752
7275.0485
23608.903
7726.0395
13978.223
10885.348
6316.3809
19945.314
6944.939
12193.627
9211.5217
10275.041
7010.8568
5850.0511
3271.7642
4871.5591
3475.5084
3818.6399
3206.5732
4092.0084
3274.2215
3607.0151
3659.1159
3731.4214
3992.1834
4530.8838
4599.0984
4693.6207
4920.4996
5095.9908
5036.3441
4836.6456
4854.4257
4664.8191
4577.907
4374.0892
4198.0084
3898.7278
3759.2576
3324.383
2953.2569
2627.2951
2143.7493
1679.8163
1193.2125
816.17471
47.908603
190752.64
112700.61
111643.34
90098.947
97151.998
83122.496
89374.419
83484.615
70243.936
76951.268
61723.216
66306.551
56328.62
58529.773
49928.431
49258.458
43454.401
41717.661
37830.972
35649.167
32274.354
30512.661
27870.707
25898.242
23545.222
21806.917
19895.135
18135.717
16789.065
15369.252
13925.228
12571.525
11214.201
9812.5354
8648.9535
7484.2014
6374.3298
5422.7114
4601.4435
3600.9273
3012.0669
2259.9478
1753.9987
1137.4408
820.45961
266.64685
-32.467463
269999.72
219287.19
180977.34
181688.19
181118.36
174440.87
169125.21
151697.65
150384.13
143485.88
134858.74
131745.17
116771.27
114888.66
103142.91
98244.463
88420.686
82389.698
74699.676
69135.187
63416.194
58391.491
53128.833
47700.612
42992.666
38891.035
35560.496
32035.194
28663.003
25534.518
22711.625
19882.908
17255.764
14867.451
12624.293
10752.174
8819.5612
7045.2247
5725.6598
4551.1384
3342.2228
2627.7668
1746.955
1337.1549
722.98766
574.65606
-132.48254
349725.82
303317.81
296962.88
283220.12
294363.37
271358.35
266561.85
249841.59
239062.75
221068.91
209586.06
193388.55
178892.43
166610.57
153244.5
142750.62
132668.52
122138.06
113827.53
104427.87
96372.749
87836.242
80937.445
73351.813
67316.011
58214.649
53594.82
48374.005
43781.077
39354.32
35222.988
31012.882
27351.342
23856.687
20267.545
17311.781
13722.071
11687.071
9375.7818
6963.7341
5352.245
3658.9598
2600.7223
1488.1405
885.7348
338.13468
13.158372
-520902.23
-552065.14
-543454.3
-558250.53
-547904.37
-505608.4
-462170.75
-334485.88
-388104.32
-382011.72
-387129.43
-373943.82
-348817.1
-309188.42
-316277.69
-346983.89
-371711.97
-365352.13
-356809.79
-349187.59
-317274.33
-293475.45
-296210.66
-305702.65
-310028.49
-296702.62
-290462.41
-259226.01
-276383.68
-284751.37
-301017.34
-291142.34
-283347.57
-277040.1
-246289.56
-261705.28
-268684.34
-263709.26
-268886.91
-262327.83
-253325.6
-251096.32
-250255.22
-251257.07
-251380.26
-252424.68
-238327.91
-244431.41
-231054.53
-233066.97
-240507.1
-234034.71
-236396.21
-232515.7
-223761.51
-218726.73
-222638.76
-223443.17
-211223.88
-223494.53
-209039.02
-212848.33
-207174.62
-206906.38
-204493.1
-206883.14
-207720.23
-198898.59
-200363.97
-196281.6
-190786.67
-197036.17
-186293.12
-190848.95
-182533.93
-185990.83
-181881.16
-182102.33
-177573.14
-175233.26
-177785.74
-173597.35
-172632.29
-171782.35
-165633.75
-167571.5
-162152.32
-167218.55
-159239.16
-162139.06
-159925.01
-153922.03
-150807.06
-151576.32
-151136.3
-147358.67
-148435.34
-147570.26
-141820
-140988.19
-139010.02
-139275.91
-136648.65
-137772.62
-136439.99
-129790.33
-127514.34
-129001
-127562.03
-126360.36
-124688.25
-125994.44
-117484.08
-117580.68
-116327.56
-117206.03
-114338.32
-114855.01
-115695.47
-107500.03
-106486.65
-107289.96
-105677.59
-104765.34
-104782.13
-105858.22
-96963.054
-97601.373
-95970.07
-96692.365
-95145.973
-95286.823
-95415.742
-88010.896
-87359.088
-87347.763
-87289.859
-86044.024
-85760.196
-86989.968
-77874.101
-79302.97
-78171.813
-78538.248
-76999.882
-77514.517
-77948.896
-69856.993
-71320.39
-69971.389
-70114.33
-69411.457
-69333.064
-70261.059
-61866.291
-63556.17
-61413.354
-62461.126
-61302.784
-62010.203
-61902.644
-54310.925
-56038.394
-54284.2
-55059.703
-54436.57
-54580.074
-54622.443
-47056.094
-49727.682
-47413.177
-48623.603
-47552.015
-48329.593
-47795.562
-41554.631
-43419.906
-41683.382
-41843.217
-42048.251
-41751.615
-41582.448
-36143.391
-37141.769
-35238.349
-36235.258
-35983.977
-36178.213
-35501.847
-30383.027
-31311.047
-30924.741
-30743.88
-30809.201
-30657.67
-30033.212
-25750.46
-27583.573
-25252.449
-25885.522
-26082.064
-25993.151
-25083.342
-22107.509
-21927.465
-21394.2
-21497.769
-21818.453
-21381.214
-20611.114
-17900.114
-18204.132
-17258.797
-17387.808
-17668.392
-17533.729
-16443.245
-14893.408
-14342.275
-14058.455
-13921.999
-14488.648
-14083.229
-12977.191
-11943.733
-11097.907
-10781.545
-10763.142
-11196.023
-10963.021
-9545.5887
-9397.1319
-8064.5954
-8305.1721
-7979.7115
-8514.1162
-8065.5974
-7009.855
-7113.877
-5763.0897
-5961.9484
-5727.5702
-6264.6536
-6352.979
-4667.016
-5530.346
-3553.4734
-3920.9765
-3585.3031
-4258.3455
-3709.7548
-2318.6728
-3603.8406
-1452.0828
-2450.2269
-2064.838
-2171.8615
-2408.205
-807.78678
-2221.1579
-489.60677
-425.86637
-763.57235
-861.78596
-723.47723
-91.678582
-1289.7147
925.01026
-267.20923
630.35098
-160.98611
140.91578
1171.6987
-326.89101
1524.2322
751.69064
1306.5953
747.10037
1041.6348
1792.912
280.47432
2171.1904
1280.3983
2105.1344
1362.5428
1632.0115
2277.5997
856.47656
2332.4299
1716.2822
2174.0838
1659.9741
1892.487
2425.8709
997.92946
2526.4431
1745.3818
2426.1209
1923.6467
2074.6287
2405.5019
1315.2508
2204.2755
1839.1901
2276.7547
1911.4081
1951.0256
2287.4951
1231.2359
2126.0749
1719.5745
2132.7758
1793.6858
1942.0234
1959.5179
1134.384
1421.8616
1355.4675
1477.9615
1461.8495
1364.2446
1587.2628
860.25648
1170.8863
1090.8647
1326.5318
1087.7857
1189.6934
1121.6507
-332071.51
-330348.83
-358138.78
-344814.36
-348833.28
-308812
-301838.96
-237565.28
-301536.04
-304287.09
-313056.98
-304072.15
-273435.31
-247125.78
-240682.89
-224119.39
-250715.16
-237421.12
-242276.23
-212574.37
-201174.91
-195063.82
-210778.04
-221503.17
-215740.21
-216327.29
-199414.71
-172464.69
-198244.59
-201780.28
-212766.65
-203068.68
-208133.49
-192257.34
-177328.43
-181111.43
-184384.26
-188907.25
-180864.63
-180333.64
-176001.08
-165127.36
-173103.4
-178832.43
-186921.86
-177713.35
-180739.09
-174616.59
-161846.14
-164310.22
-161678.89
-164593.17
-156281.48
-161686.84
-151532.62
-151867.52
-153420.85
-152541.48
-161877.95
-154372.98
-153484.03
-151185.15
-145959.94
-141329.57
-142820.7
-146357.31
-134544.17
-140218.25
-135203.89
-135704.03
-133261.93
-133246.94
-134730.87
-129761.99
-132622.15
-130083.47
-126013
-123627.64
-119928.73
-126966.95
-118005.17
-123126.33
-116080.64
-119675.04
-112553.75
-112881.51
-117221.42
-108837.28
-112430.3
-109088.66
-108496.03
-104208.24
-103643.44
-105771.08
-99441.135
-103244.15
-100042.64
-97669.674
-95341.618
-96761.132
-96254.009
-92944.999
-94850.667
-92696.994
-90673.757
-87152.095
-86658.073
-86735.896
-84282.58
-84484.239
-84010.837
-81437.205
-78923.308
-80148.798
-79882.027
-77080.167
-77779.285
-78208.162
-76827.624
-71354.316
-71917.819
-70993.942
-69681.723
-70082.929
-70129.752
-68042.868
-64602.108
-64932.891
-64381.82
-63398.221
-63307.398
-63591.735
-62399.483
-57484.002
-57700.538
-57584.393
-56533.517
-56255.223
-56815.238
-55789.544
-51534.527
-52130.64
-51449.894
-50700.346
-50499.077
-51258.858
-50411.122
-46381.905
-45772.146
-45172.413
-44868.341
-44495.538
-45226.25
-44140.705
-41072.754
-40243.824
-40061.711
-39949.303
-39452.488
-39803.205
-39288.256
-36387.687
-35263.273
-35366.135
-34992.383
-34358.84
-34641.36
-34411.124
-31903.942
-30910.797
-30663.362
-30443.723
-30031.584
-29870.784
-30072.723
-27868.335
-26676.472
-26134.563
-26571.766
-25108.712
-25407.836
-25859.395
-23729.586
-22698.259
-22137.327
-22414.929
-21394.354
-21244.007
-21382.951
-20369.064
-19468.56
-18708.231
-18534.558
-17956.666
-17584.71
-17852.422
-17176.616
-15863.872
-15476.981
-15443.201
-14590.066
-14123.382
-14333.289
-14030.116
-13048.602
-12275.485
-12425.581
-11155.77
-11111.466
-11158.712
-11389.768
-10571.061
-9672.3378
-9764.4172
-8539.261
-8563.6011
-8459.7177
-8971.1404
-8121.4131
-7006.7157
-7354.4777
-5973.9331
-6005.5278
-5856.835
-6752.6909
-5963.9421
-4875.4923
-5120.1439
-3676.0243
-3766.1137
-3781.5644
-4743.3668
-4146.9347
-2948.2778
-3281.0958
-1876.117
-2156.2518
-1938.3712
-3226.7865
-2543.8213
-1224.6884
-1474.0604
-252.8336
-189.69119
-432.32712
-1555.2665
-884.59854
248.32725
-203.89275
1306.5613
760.73172
1104.0033
-489.76543
-12.971913
1076.9491
1131.3571
1949.0315
2127.9042
1848.5812
477.57719
1055.6265
2319.9379
2028.4409
3078.7936
2739.8748
2410.7865
1221.3233
1612.4348
2800.8793
2452.3619
3554.6948
3111.0703
3046.5267
1752.3602
2130.5971
3521.8497
3046.9558
3945.1536
3579.7533
3315.4214
1984.3284
2353.0707
3492.8852
2954.6445
3858.2239
3477.6162
3208.0706
2183.5008
2495.9269
3584.0972
3017.3353
3860.4526
3337.9491
3213.8262
2042.0615
2328.9711
3198.9197
2774.8157
3393.1451
2987.4367
2874.0277
1963.2298
2093.437
2940.2794
2391.7144
2941.452
2550.3331
2573.1261
1588.5
1870.2674
2330.7421
1983.1307
2359.0022
2032.2552
1938.8517
1181.2797
1095.6581
1568.5506
1257.2914
1467.1771
1278.8474
1325.8261
797.61931
880.02262
1063.3752
894.36822
918.45254
1057.5495
963.6269
-187757.11
-172931.79
-158953.55
-168507.84
-152382.28
-134554.3
-132962.95
-123139.57
-174394.08
-155934.56
-166548.36
-136743.35
-136463.29
-110247.11
-128469.7
-111802.41
-123807.07
-117814.37
-107601.07
-94708.725
-85714.248
-95839.947
-108400.11
-115861.82
-117876.11
-102822.05
-101147.05
-81004.79
-106745.91
-95905.432
-105576.24
-96224.597
-92137.172
-81622.832
-73519.965
-88894.071
-95417.978
-91056.138
-87285.766
-89305.699
-75625.242
-72827.193
-90950.966
-91944.138
-81448.085
-85748.127
-82511.724
-74577.248
-71135.986
-82524.778
-86947.136
-77280.88
-79054.674
-75229.015
-66787.041
-67015.088
-79291.843
-86176.8
-70778.688
-76337.102
-71001.867
-68120.818
-64823.286
-75785.51
-76233.621
-64265.808
-66811.545
-66731.232
-60060.21
-59871.775
-68802.542
-73927.747
-59766.205
-67507.559
-62331.91
-59724.728
-55791.387
-62295.545
-65468.711
-54458.967
-57630.064
-56606.397
-50800.301
-53243.163
-55662.592
-64158.316
-49099.321
-56126.949
-52058.965
-50867.824
-49489.216
-52032.617
-54640.112
-47406.232
-49663.408
-50126.93
-43247.601
-47963.048
-46655.551
-49113.235
-41790.749
-46901.614
-44187.936
-40976.059
-43340.917
-42256.884
-42572.017
-40039.118
-39879.98
-41036.649
-36793.089
-40466.597
-36291.974
-39904.527
-34800.893
-37788.401
-36738.36
-34694.085
-35438.798
-33749.289
-33771.354
-32034.223
-32839.249
-33159.695
-30175.801
-31961.865
-28320.803
-31240.112
-28106.345
-30199.38
-28877.589
-27875.13
-28231.452
-25872.338
-27171.237
-25322.807
-26064.879
-26037.712
-24527.944
-25572.219
-21910.585
-24269.286
-21572.192
-23333.825
-22343.403
-22111.281
-21613.734
-19204.104
-20610.698
-19190.444
-20098.55
-19861.149
-18845.522
-19006.81
-16165.45
-18221.006
-16249.128
-17730.038
-16355.965
-16632.286
-16159.873
-14010.005
-15173.45
-13899.834
-14635.62
-13617.13
-14240.693
-13430.74
-11740.65
-12800.692
-11369.726
-12132.635
-11009.692
-12179.423
-10625.235
-10069.09
-9823.2129
-9409.8217
-9734.7046
-8836.7411
-9781.4759
-8427.3029
-8130.4244
-8480.4891
-7522.5648
-8075.5476
-6294.9705
-8157.7072
-6089.4216
-6964.3025
-6633.3564
-5617.6792
-5733.5214
-4999.5197
-5867.0328
-4722.3749
-5202.42
-4708.3916
-3761.8222
-4004.1316
-3120.9853
-4102.881
-2971.3356
-4287.4667
-3084.5505
-2711.1849
-2431.8715
-1748.5339
-2677.467
-1502.2083
-3052.4245
-1754.1877
-1132.0442
-1068.221
-218.1356
-1488.5029
40.791121
-2157.295
-360.26633
-163.57774
154.61969
834.41217
-261.00099
1252.8026
-1224.113
591.51693
826.48836
1124.6674
1886.694
529.75269
2117.4778
-564.76379
1561.7726
1581.0347
2018.2546
2578.1527
1307.6088
3019.7887
176.03043
2268.8994
2239.3065
2623.1503
3258.1137
1962.8182
3544.5456
703.16651
2729.9631
2646.0149
3101.1615
3550.6358
2278.0969
3889.3052
1113.5988
3133.4533
3012.154
3449.3481
3879.0229
2785.8908
4260.5036
1463.7711
3381.5138
3319.9584
3623.6186
4061.6446
2884.8617
4232.5784
1741.1353
3525.0773
3185.0662
3653.7708
3947.1774
2814.1077
4370.2397
1819.0693
3479.0158
3094.2044
3514.7661
3715.2721
2828.9843
4073.4068
1973.3859
3433.1348
2839.7287
3426.5354
3524.7214
2767.0917
3723.9746
2004.5676
3115.3414
2663.2854
3221.2865
3172.0724
2484.8357
3358.9449
1894.3014
2733.2341
2334.5112
2798.1313
2694.5464
2353.0299
2829.0475
1874.5846
2464.4736
2159.0697
2455.5604
2521.0886
1975.9536
2375.8812
1485.1646
1815.9208
1543.4523
1949.037
1780.5389
1590.5618
1697.2626
1220.1388
1176.6144
1274.612
1216.6576
1354.3102
1110.8543
1283.1844
749.25519
836.43923
660.0629
746.67443
663.87664
655.44846
452.05909
-8093.356
18166.217
15531.327
20951.807
31151.815
35299.768
25697.039
3436.3346
-2798.0571
552.99174
-3122.9708
12023.908
8990.2887
24902.982
-18116.995
10438.794
4277.265
17897.61
16438.242
21256.274
21148.989
-2100.1643
2384.6026
-8932.2927
-1615.8792
2114.541
-1017.218
21962.275
-6506.125
-5366.296
-9042.7574
7976.9182
-1758.2454
18700.443
12403.903
-3210.441
1269.7073
-1238.8344
-103.06794
3383.6052
2997.3864
12359.012
-5624.9498
-6252.4746
-12664.431
43.233409
-3138.5131
5036.4926
9678.6042
-4828.5122
-3468.6642
827.74651
-1312.8254
3467.232
2854.0759
9776.646
-2807.0022
594.96757
-5593.5753
-124.85284
-642.91694
2170.0281
12945.539
1734.2427
-1488.603
-847.63919
2772.6576
3143.6841
6996.0829
9154.5291
630.08189
1116.8178
9.9485862
2740.5728
4040.7143
3403.1192
10051.266
4000.0441
2446.5384
2513.2001
4611.8376
4687.7616
5709.6881
9936.9604
2403.3892
3298.623
2331.6369
3734.9074
4137.9724
4239.4328
10879.256
4628.6279
6656.2773
1085.1459
5763.4706
6700.4788
6843.955
11731.928
4870.4262
3254.5416
5733.9216
4179.5558
7562.32
5711.6629
8855.4057
5961.2227
5464.3207
6159.1424
5323.3188
8155.411
6593.0139
9044.8993
5860.2918
5571.5309
6530.0824
3982.665
8299.1788
6304.5888
8243.3312
6402.2359
6800.58
6342.3238
5360.205
8811.4697
7081.4655
8308.6513
6916.1245
5331.2181
6578.2574
4859.5152
8291.6876
6321.5745
7512.1656
6059.1028
6568.7348
7079.1098
5938.4336
8619.7022
6855.8505
8243.3905
6913.2829
5867.6037
7051.1216
5402.4607
8018.6782
6724.2379
7960.9684
5863.1764
5894.0112
7083.6286
5807.5776
8347.9991
7018.7671
7794.1286
6061.7487
5556.1882
7039.8645
5891.4899
8165.4503
6657.559
7729.4676
5293.1635
5959.0119
6589.5474
6324.2934