/*--------------------------------*- C++ -*----------------------------------*\
  =========                 |
  \\      /  F ield         | OpenFOAM: The Open Source CFD Toolbox
   \\    /   O peration     | Website:  https://openfoam.org
    \\  /    A nd           | Version:  6
     \\/     M anipulation  |
\*---------------------------------------------------------------------------*/
FoamFile
{
    version     2.0;
    format      ascii;
    class       pointVectorField;
    location    "0.51";
    object      u;
}
// * * * * * * * * * * * * * * * * * * * * * * * * * * * * * * * * * * * * * //

dimensions      [0 1 0 0 0 0 0];

internalField   nonuniform List<vector> 
28033
(
(0 2.2761951e-19 0)
(0 1.5444683e-18 0)
(1.9102561 -0.13579679 0.0032749001)
(1.8179783 -0.55543641 0.0028496605)
(0 1.4103895e-18 0)
(0 2.2717859e-18 0)
(1.8181753 -0.55585893 0.0029922386)
(1.9105607 -0.13610808 0.0031349297)
(0 5.0191167e-19 0)
(0 1.4741133e-19 0)
(0 1.188681e-18 0)
(0 -5.6482614e-19 0)
(0 7.5492e-19 0)
(0 -4.4072688e-19 0)
(0 -1.04451e-20 0)
(-3.4134027e-19 -1.1135098e-19 0)
(0 2.0558891e-19 0)
(0 1.0088507e-19 0)
(0 -3.8522796e-19 0)
(0 3.7270985e-19 0)
(0 4.4858596e-19 0)
(0 -3.6446985e-19 0)
(0 4.7090981e-19 0)
(1.9044539 -0.16209381 0.0032011707)
(1.8986427 -0.18837405 0.0031271238)
(1.8928389 -0.21462982 0.0030769291)
(1.8870436 -0.240861 0.0030400143)
(1.8812606 -0.26706764 0.0030216289)
(1.8754898 -0.29326137 0.0030174136)
(1.8697302 -0.31943692 0.0030203568)
(1.8639827 -0.34561252 0.0030300914)
(1.8582442 -0.3717858 0.003042056)
(1.8525071 -0.39796975 0.0030515579)
(1.8467762 -0.42416883 0.0030517715)
(1.8410365 -0.45038638 0.0030362535)
(1.8352939 -0.47662378 0.0030132303)
(1.829537 -0.50288537 0.0029714389)
(1.8237657 -0.52915946 0.0029145886)
(0.0044306507 0.0070464842 0.007869415)
(0.0052296755 0.011165716 0.010866326)
(0.0066387153 0.01541688 0.013161993)
(0.0088477563 0.01985502 0.014604229)
(0.011533625 0.024433117 0.015542753)
(0.015120651 0.029055096 0.016153092)
(0.01939165 0.033782189 0.016521562)
(0.024426 0.038354118 0.016674058)
(0.030182946 0.04303053 0.01672737)
(0.03666965 0.047487653 0.016660177)
(0.043786162 0.051934826 0.01655496)
(0.051617017 0.056194643 0.016333516)
(0.060022753 0.060378682 0.016191345)
(0.069129752 0.064364089 0.015909503)
(0.078702906 0.068226101 0.01574666)
(0.088951991 0.07191004 0.015459372)
(0.099668926 0.075470449 0.015305809)
(0.11098198 0.078831632 0.015072129)
(0.12274694 0.082070206 0.014925429)
(0.13507602 0.085133318 0.014739669)
(0.14786148 0.088066589 0.014635089)
(0.16117356 0.090821934 0.014489885)
(0.17495797 0.093452931 0.014411521)
(0.18925547 0.095921663 0.014312925)
(0.20403 0.098231934 0.01423535)
(0.21932777 0.10040375 0.014149584)
(0.23509786 0.10238903 0.014073672)
(0.25139479 0.10423364 0.013979124)
(0.26818323 0.10587247 0.013866148)
(0.28547603 0.10735125 0.013745679)
(0.30326741 0.10861554 0.01359237)
(0.32153892 0.1096845 0.013418464)
(0.34029963 0.11054516 0.013221468)
(0.35951209 0.11117108 0.012999267)
(0.37918068 0.11159286 0.012746153)
(0.39928326 0.11176117 0.012473047)
(0.41978361 0.11171466 0.012190752)
(0.44068161 0.11142187 0.011888711)
(0.46192955 0.11089908 0.011567052)
(0.48353039 0.11015442 0.011253695)
(0.50543487 0.10917346 0.010931654)
(0.52764463 0.10799332 0.010620379)
(0.55012594 0.10658772 0.01031108)
(0.57286619 0.10498984 0.010021041)
(0.5958392 0.10319495 0.0097434171)
(0.61904227 0.10122126 0.0094853291)
(0.64245035 0.099071149 0.0092470755)
(0.666066 0.096756471 0.0090278775)
(0.68986857 0.094282667 0.0088287983)
(0.71386323 0.091656927 0.0086472853)
(0.73803526 0.088884353 0.0084814277)
(0.76238872 0.085968335 0.0083287462)
(0.78691496 0.08291313 0.0081855185)
(0.81161505 0.079718595 0.0080486294)
(0.83648413 0.076387865 0.0079140001)
(0.86152003 0.072918962 0.0077786171)
(0.88671863 0.069313295 0.0076384473)
(0.91207524 0.065569154 0.0074908206)
(0.93758359 0.061686573 0.0073330964)
(0.96323688 0.057664516 0.0071631958)
(0.98902584 0.053504574 0.0069796381)
(1.0149417 0.049205589 0.0067819163)
(1.0409702 0.044773047 0.0065710738)
(1.0671054 0.040204254 0.0063455808)
(1.0933228 0.035514362 0.0061129705)
(1.1196206 0.030696546 0.0058700408)
(1.1459732 0.025764697 0.0056263234)
(1.1723746 0.020727797 0.0053808731)
(1.1988087 0.015596336 0.0051324245)
(1.2252553 0.010377075 0.0049006774)
(1.2517116 0.0050831655 0.0046825942)
(1.2781621 -0.00027467141 0.0044800062)
(1.3046013 -0.0056856409 0.0042991453)
(1.331019 -0.011141243 0.0041430082)
(1.3574162 -0.016629865 0.0040107859)
(1.3837856 -0.022148391 0.0039059078)
(1.4101337 -0.027683832 0.0038241535)
(1.4364577 -0.033240064 0.0037669808)
(1.4627665 -0.038803226 0.0037272666)
(1.48906 -0.044383535 0.0037069118)
(1.5153505 -0.049970402 0.0036942801)
(1.5416366 -0.05557037 0.0036932028)
(1.5679316 -0.061184171 0.0036919295)
(1.5942313 -0.066811617 0.0036921983)
(1.620548 -0.072459218 0.0036865082)
(1.6468745 -0.078123692 0.0036750239)
(1.673219 -0.083816213 0.0036550174)
(1.6995714 -0.089523659 0.0036265089)
(1.7259342 -0.095263053 0.0035903843)
(1.7522982 -0.10101497 0.0035467165)
(1.7786582 -0.10679376 0.003501982)
(1.80501 -0.11258181 0.0034513642)
(1.8313436 -0.11838521 0.0034081733)
(1.8576608 -0.12418899 0.0033621974)
(1.8839606 -0.12999504 0.003320956)
(0.0019121518 -0.0080435988 -0.0093237364)
(0.0033231965 -0.010962882 -0.011079759)
(0.0041462895 -0.015202835 -0.014434049)
(0.00518234 -0.018874782 -0.015644732)
(0.0076020634 -0.023319914 -0.016901889)
(0.010408886 -0.027957006 -0.017475151)
(0.014037139 -0.032300808 -0.017915883)
(0.018361415 -0.037139816 -0.017971715)
(0.023470659 -0.041830463 -0.017981651)
(0.029109275 -0.046610509 -0.017807513)
(0.035502561 -0.051463503 -0.017573514)
(0.042399332 -0.056289068 -0.017277185)
(0.049935427 -0.061177818 -0.016938381)
(0.057972603 -0.066068643 -0.016612591)
(0.066565642 -0.070957044 -0.016250819)
(0.075627355 -0.075903202 -0.015934197)
(0.08519667 -0.080804327 -0.015608951)
(0.095209654 -0.085780114 -0.01531881)
(0.10567906 -0.090755817 -0.015067848)
(0.11661183 -0.095768711 -0.014831231)
(0.1279549 -0.10081806 -0.014626616)
(0.13976102 -0.10593298 -0.014460686)
(0.15197972 -0.11105829 -0.014297918)
(0.164659 -0.11629393 -0.014162695)
(0.17777141 -0.12154737 -0.014032934)
(0.19135978 -0.12691605 -0.013888398)
(0.20538746 -0.13233458 -0.013764417)
(0.21990765 -0.13784372 -0.013593308)
(0.23488672 -0.14343486 -0.013427984)
(0.25036126 -0.14909222 -0.01320569)
(0.26630168 -0.15484852 -0.012973517)
(0.28273623 -0.16066291 -0.012695199)
(0.2996345 -0.16656205 -0.01238702)
(0.31701184 -0.17251524 -0.012039226)
(0.33483592 -0.17853903 -0.011663167)
(0.35311202 -0.18460297 -0.011261575)
(0.37180534 -0.19070656 -0.010821704)
(0.39090825 -0.19686048 -0.010382296)
(0.41039557 -0.20302982 -0.0099232733)
(0.43025603 -0.20922906 -0.0094626323)
(0.45045831 -0.21544183 -0.009002622)
(0.47098957 -0.22166594 -0.008551248)
(0.49182635 -0.2278996 -0.0081109569)
(0.51295358 -0.23413827 -0.0076880763)
(0.53435251 -0.2403829 -0.0072835382)
(0.55601186 -0.24663257 -0.0068998589)
(0.57791589 -0.25288912 -0.0065381608)
(0.60005754 -0.25915375 -0.0061969482)
(0.62242589 -0.26543011 -0.0058762285)
(0.64501592 -0.27171932 -0.0055730168)
(0.66782201 -0.27802625 -0.0052850793)
(0.69084062 -0.2843519 -0.005009204)
(0.71406913 -0.29069956 -0.0047417459)
(0.73750585 -0.29707078 -0.0044793203)
(0.76114867 -0.30346631 -0.0042182808)
(0.78499638 -0.30988604 -0.003955488)
(0.8090468 -0.31632986 -0.0036877969)
(0.83329686 -0.32279432 -0.0034133325)
(0.8577431 -0.32927774 -0.0031299815)
(0.88238026 -0.33577506 -0.0028372645)
(0.90720181 -0.34228198 -0.0025346593)
(0.93219967 -0.3487919 -0.0022236628)
(0.95736445 -0.35529988 -0.0019048259)
(0.98268485 -0.36179769 -0.0015815752)
(1.0081484 -0.36828029 -0.001255705)
(1.0337418 -0.37473929 -0.00093205081)
(1.0594506 -0.38117062 -0.00061362493)
(1.0852589 -0.38756849 -0.00030262289)
(1.1111524 -0.39392258 -1.0285744e-05)
(1.1371156 -0.4002369 0.00027246566)
(1.1631327 -0.40651041 0.00052960538)
(1.1891928 -0.41273276 0.00076525753)
(1.2152826 -0.41891548 0.00097450561)
(1.2413915 -0.42504984 0.0011571394)
(1.2675124 -0.43114726 0.0013136415)
(1.2936379 -0.43720601 0.001443292)
(1.3197648 -0.44323372 0.001549321)
(1.3458914 -0.44923425 0.0016337395)
(1.3720175 -0.45521379 0.0017006919)
(1.3981451 -0.46117638 0.0017531987)
(1.4242776 -0.46712869 0.0017972458)
(1.4504184 -0.47307206 0.0018354521)
(1.4765728 -0.47901285 0.0018745792)
(1.5027436 -0.48494915 0.0019153531)
(1.5289356 -0.49088561 0.0019641383)
(1.5551494 -0.49681744 0.0020195577)
(1.5813871 -0.50274681 0.0020858342)
(1.6076468 -0.50866721 0.0021598474)
(1.6339262 -0.51457832 0.0022428532)
(1.6602209 -0.5204737 0.0023310114)
(1.6865249 -0.52635142 0.0024224846)
(1.7128319 -0.53220718 0.0025141523)
(1.7391344 -0.53804097 0.0026036204)
(1.7654277 -0.5438511 0.0026879687)
(1.791707 -0.54964682 0.0027704277)
(0 -6.2968012e-19 0)
(0 -4.6847779e-19 0)
(0 4.4280636e-19 0)
(0 -2.8027819e-19 0)
(0 -2.3928042e-19 0)
(0 1.3185469e-18 0)
(0 -3.8352842e-19 0)
(-8.758646e-19 2.4482633e-19 0)
(0 -2.1941678e-19 0)
(0 5.2745294e-19 0)
(0 6.2548584e-19 0)
(0 2.1840299e-19 0)
(0 1.1642527e-19 0)
(0 -2.4001324e-19 0)
(0 1.6624064e-19 0)
(0.0043906439 -0.003348609 0.0067722371)
(0.0044697787 -0.012848485 0.010960304)
(0.0040476419 -0.013443237 0.013333768)
(0.0057735707 -0.020064301 0.015660788)
(0.007635529 -0.023109032 0.016688583)
(0.010685082 -0.028230058 0.017286483)
(0.014253157 -0.032444497 0.017682645)
(0.018691406 -0.037484578 0.017825894)
(0.023789367 -0.041984179 0.017784298)
(0.029422563 -0.046995085 0.017636232)
(0.035934952 -0.051789351 0.017473472)
(0.042736843 -0.056592696 0.017156592)
(0.050367523 -0.061659733 0.016925887)
(0.058333483 -0.066367986 0.016572584)
(0.066981094 -0.071555479 0.016327228)
(0.07601031 -0.076223376 0.01602752)
(0.085558744 -0.081430049 0.015804347)
(0.095589781 -0.086174538 0.015517277)
(0.10601524 -0.091383709 0.015371241)
(0.11697045 -0.096262017 0.015162962)
(0.12827329 -0.10141462 0.015058858)
(0.14008245 -0.10651738 0.014926879)
(0.15229316 -0.11169061 0.014861036)
(0.1649763 -0.1169193 0.014775144)
(0.17808971 -0.12220354 0.014705864)
(0.19168862 -0.12758067 0.014634605)
(0.20571273 -0.13300934 0.014542888)
(0.220248 -0.13855619 0.014452327)
(0.23523846 -0.14413232 0.01431349)
(0.25070793 -0.14985436 0.014173291)
(0.26668215 -0.15559519 0.01397954)
(0.28311485 -0.1614432 0.013763961)
(0.30003499 -0.16734453 0.013503879)
(0.31740721 -0.1733243 0.013220941)
(0.33525664 -0.17935104 0.012905198)
(0.35351659 -0.18540999 0.012560905)
(0.37220002 -0.1915657 0.012205639)
(0.39130643 -0.19771063 0.011838529)
(0.41077918 -0.20389272 0.011465206)
(0.43062333 -0.2100977 0.011090323)
(0.45080653 -0.21631698 0.010725396)
(0.47131284 -0.22254659 0.01037156)
(0.49212389 -0.22878412 0.01003498)
(0.51322171 -0.23502674 0.0097186399)
(0.53459076 -0.24127416 0.0094251696)
(0.55621822 -0.24752679 0.0091551888)
(0.57809171 -0.25378551 0.0089091838)
(0.60020251 -0.26005301 0.0086857663)
(0.62254199 -0.26633107 0.0084838476)
(0.64510528 -0.27262318 0.0082996489)
(0.66788698 -0.27893174 0.0081314278)
(0.69088531 -0.28525932 0.0079730845)
(0.71409704 -0.29160876 0.0078234019)
(0.73752152 -0.29797995 0.0076751282)
(0.7611565 -0.30437599 0.007527379)
(0.78500139 -0.3107936 0.0073734359)
(0.80905259 -0.31723429 0.0072130678)
(0.83330859 -0.32369357 0.0070411748)
(0.85776343 -0.33016902 0.006857976)
(0.88241288 -0.33665616 0.006661385)
(0.90724831 -0.34314939 0.0064521108)
(0.93226208 -0.34964308 0.0062305246)
(0.95744267 -0.35613118 0.0059990911)
(0.9827788 -0.36260607 0.0057596351)
(1.0082571 -0.36906236 0.0055156589)
(1.0338625 -0.37549464 0.0052707968)
(1.0595836 -0.38188939 0.0050286923)
(1.0853945 -0.38827113 0.004795695)
(1.1112996 -0.39457858 0.0045787026)
(1.1372537 -0.40086596 0.0043683231)
(1.1632759 -0.4071048 0.0041796242)
(1.1893287 -0.41329961 0.0040159067)
(1.2154122 -0.41944909 0.0038724087)
(1.241513 -0.42556005 0.0037554609)
(1.2676239 -0.43163244 0.0036626034)
(1.2937398 -0.43767158 0.00359368)
(1.3198572 -0.44368214 0.003546228)
(1.3459752 -0.44966943 0.003518179)
(1.3720939 -0.455638 0.0035050785)
(1.3982165 -0.46159328 0.0035033134)
(1.4243455 -0.46753937 0.0035080815)
(1.4504863 -0.47348007 0.0035153102)
(1.4766417 -0.47941736 0.0035202354)
(1.5028175 -0.48535362 0.0035198876)
(1.529015 -0.49128813 0.0035108792)
(1.555238 -0.49722063 0.0034916886)
(1.581485 -0.50314893 0.0034614303)
(1.6077564 -0.50906995 0.0034206249)
(1.6340473 -0.51498094 0.0033709006)
(1.6603547 -0.52087678 0.0033143752)
(1.6866704 -0.52675624 0.0032549984)
(1.712989 -0.53261317 0.0031951416)
(1.7393017 -0.53845044 0.0031391147)
(1.7656044 -0.54426422 0.0030874393)
(1.7918887 -0.5500636 0.0030434872)
(1.8239694 -0.52957176 0.0029640389)
(1.8297435 -0.503285 0.0029421086)
(1.8355084 -0.47701686 0.002933623)
(1.8412495 -0.45076632 0.0029380981)
(1.8470015 -0.42454501 0.0029589647)
(1.8527299 -0.39833338 0.0029859467)
(1.8584801 -0.37214759 0.0030262993)
(1.8642239 -0.3459581 0.0030666284)
(1.8699827 -0.31978192 0.0031050295)
(1.8757458 -0.29359157 0.0031449824)
(1.8815344 -0.2674036 0.0031712274)
(1.8873179 -0.24117816 0.0031938046)
(1.8931307 -0.21495675 0.0031943972)
(1.8989371 -0.18868462 0.0031911519)
(1.9047572 -0.16240703 0.0031623018)
(1.8842638 -0.13030651 0.0030608351)
(1.8579588 -0.12450117 0.0029968911)
(1.8316317 -0.11869875 0.002921354)
(1.8052843 -0.11290237 0.0028434013)
(1.7789187 -0.10711625 0.0027586351)
(1.7525404 -0.10134493 0.0026715947)
(1.726159 -0.095593147 0.0025859498)
(1.6997788 -0.089861672 0.0025040621)
(1.6734075 -0.084153682 0.0024292071)
(1.6470492 -0.0784681 0.0023624817)
(1.6207064 -0.072805024 0.0023049769)
(1.5943804 -0.067163398 0.0022566006)
(1.5680698 -0.061540675 0.0022148487)
(1.5417715 -0.055935929 0.0021772006)
(1.5154841 -0.050347983 0.0021418772)
(1.4891995 -0.044774302 0.0021038427)
(1.462913 -0.039215817 0.0020590311)
(1.436618 -0.033673293 0.0020025921)
(1.4103087 -0.028146841 0.0019294917)
(1.3839801 -0.022641573 0.0018363671)
(1.3576289 -0.017160008 0.0017192096)
(1.3312533 -0.011709377 0.0015755292)
(1.3048532 -0.0062946433 0.0014036739)
(1.2784324 -0.00092653512 0.0012037733)
(1.2519943 0.0043903675 0.00097501488)
(1.22555 0.0096443232 0.00072314047)
(1.1990948 0.0148209 0.00044324565)
(1.1726868 0.019905773 0.00014881734)
(1.1462575 0.02491791 -0.00016658809)
(1.119898 0.029816307 -0.00048920819)
(1.0935829 0.034609209 -0.00082276422)
(1.0673406 0.039284863 -0.0011575608)
(1.0411821 0.043837132 -0.0014912846)
(1.0151233 0.048262194 -0.0018207945)
(0.98917778 0.052555009 -0.0021425193)
(0.96335777 0.056714264 -0.0024546484)
(0.93767493 0.060736815 -0.0027559912)
(0.91213887 0.064623063 -0.0030455311)
(0.88675817 0.068371356 -0.0033238941)
(0.86153938 0.071982832 -0.0035918862)
(0.83648839 0.075456454 -0.0038513694)
(0.81160919 0.078793117 -0.0041043809)
(0.78690541 0.081991434 -0.0043542264)
(0.76237951 0.085051124 -0.0046035224)
(0.73803426 0.087969573 -0.0048561213)
(0.7138719 0.090744659 -0.0051150777)
(0.68989591 0.093371855 -0.0053837568)
(0.66610994 0.095846954 -0.0056647279)
(0.64252021 0.098163088 -0.0059606957)
(0.61913285 0.10031466 -0.0062722671)
(0.59595891 0.10229145 -0.0066011835)
(0.57300706 0.10408956 -0.0069460728)
(0.55029529 0.10569211 -0.0073060063)
(0.52783459 0.10710357 -0.0076809459)
(0.50564931 0.10829609 -0.0080607244)
(0.4837589 0.10928272 -0.0084505638)
(0.46217424 0.11005394 -0.0088414221)
(0.44092358 0.11057073 -0.0092310968)
(0.42006526 0.11087293 -0.0096014347)
(0.39954841 0.11096565 -0.0099780838)
(0.37944683 0.11077978 -0.010329595)
(0.35980343 0.11039502 -0.010655086)
(0.34057736 0.10977942 -0.010960115)
(0.32181176 0.10894903 -0.011251346)
(0.30351355 0.10787732 -0.01151445)
(0.28574455 0.10663525 -0.011753331)
(0.26842329 0.10517517 -0.011958623)
(0.2516473 0.10354234 -0.012159207)
(0.23533735 0.10172483 -0.012341401)
(0.21955203 0.099748268 -0.012518471)
(0.20425432 0.097593811 -0.012678107)
(0.18945478 0.09528939 -0.012856757)
(0.17518068 0.092820514 -0.0130083)
(0.16137684 0.090246556 -0.013201998)
(0.14805935 0.087453947 -0.013401936)
(0.13527601 0.084579499 -0.013589473)
(0.12294583 0.081503145 -0.013852458)
(0.11116849 0.078307249 -0.014052103)
(0.099863612 0.074954593 -0.014369031)
(0.089130726 0.071410613 -0.014595369)
(0.078941017 0.067771508 -0.014910571)
(0.069268053 0.06389477 -0.015147668)
(0.060219709 0.05998102 -0.015495365)
(0.051784102 0.055754277 -0.015675549)
(0.04397324 0.051639461 -0.015980396)
(0.036801608 0.047127481 -0.016100528)
(0.030352638 0.042727891 -0.016233199)
(0.024585657 0.038078907 -0.01620219)
(0.019522289 0.033549978 -0.016103951)
(0.015232673 0.028852353 -0.015765116)
(0.011699559 0.024210548 -0.015135872)
(0.00896765 0.019493284 -0.014190995)
(0.0070548713 0.015399927 -0.012790831)
(0.0053916387 0.010710832 -0.010208947)
(0.0064615559 0.0067049375 -0.0059966469)
(0 7.077473e-19 0)
(0 2.689266e-19 0)
(0 6.9800279e-19 0)
(0 7.0265409e-19 0)
(0 7.3233569e-19 0)
(0 4.4041443e-19 0)
(0 1.7556821e-20 0)
(0 -3.9906952e-19 -4.3786903e-19)
(0 4.72551e-20 0)
(0 4.2483952e-19 0)
(0 1.024425e-18 0)
(0 8.9760996e-19 0)
(0 6.4252376e-19 0)
(0 6.2094923e-19 0)
(0 7.090729e-19 0)
(0 2.916783e-18 0)
(0 1.2419274e-18 0)
(0 4.5575207e-19 0)
(0 8.2260932e-19 0)
(0 -7.1618873e-20 0)
(0 1.9173844e-19 0)
(0 2.1848491e-18 0)
(0 -8.8909776e-19 -3.8554048e-19)
(0 1.2995702e-18 0)
(0 1.6245995e-18 0)
(0 5.3687538e-19 0)
(0 2.1975409e-19 0)
(0 5.1006824e-19 0)
(0 9.1961864e-19 0)
(0 1.1828748e-19 0)
(1.8179968 -0.55553219 0.0028499291)
(1.8180148 -0.55562772 0.0028449813)
(1.8180386 -0.5557197 0.0028427674)
(1.8180653 -0.55580404 0.0028457886)
(1.818094 -0.55588101 0.0028549136)
(1.818121 -0.55594642 0.0028709726)
(1.818144 -0.5559988 0.002890958)
(1.8181619 -0.55603687 0.0029139875)
(1.8181739 -0.55605974 0.0029368749)
(1.8181806 -0.55606781 0.0029588077)
(1.8181819 -0.55606125 0.0029755016)
(1.8181806 -0.55604103 0.002987806)
(1.8181778 -0.55600922 0.0029937565)
(1.8181759 -0.55596839 0.0029934011)
(1.8181764 -0.55591757 0.0029931076)
(1.9103394 -0.1357864 0.0032740988)
(1.9104165 -0.13577667 0.0032757669)
(1.9104946 -0.13577312 0.0032756672)
(1.9105673 -0.1357729 0.003269392)
(1.9106381 -0.13577713 0.0032578269)
(1.9106982 -0.13578486 0.0032406488)
(1.910746 -0.13579601 0.0032205445)
(1.9107787 -0.13581088 0.0031983513)
(1.9107953 -0.13582957 0.0031768443)
(1.910795 -0.13585262 0.0031575251)
(1.9107798 -0.13588025 0.0031425864)
(1.9107503 -0.1359142 0.0031330329)
(1.9107121 -0.13595258 0.0031291397)
(1.9106646 -0.13600024 0.0031312049)
(1.9106149 -0.13605126 0.0031340106)
(0.0020942981 0.0029862146 0.0078637156)
(0.0029255451 0.0042712369 0.0091309446)
(0.00383376 0.005736107 0.01147599)
(0.0056890728 0.0071438236 0.012402455)
(0.0077113947 0.0085448776 0.013470458)
(0.010812269 0.010103444 0.013980882)
(0.014332378 0.011660066 0.014385337)
(0.018850596 0.013417171 0.014559752)
(0.023789059 0.015097582 0.014670857)
(0.029632291 0.016960176 0.01467648)
(0.036003808 0.018716101 0.01456893)
(0.043141892 0.020647672 0.014505319)
(0.05081485 0.022434098 0.01430518)
(0.059187941 0.024394434 0.014174781)
(0.068079888 0.026226517 0.013963983)
(0.077645362 0.028185803 0.013814712)
(0.08772513 0.030061393 0.013597385)
(0.09836117 0.032025006 0.013465742)
(0.10956999 0.033954835 0.013286227)
(0.12131328 0.035934047 0.01315543)
(0.133584 0.037916033 0.013028515)
(0.14639173 0.039916862 0.012926839)
(0.15974938 0.041953879 0.012818523)
(0.17361561 0.043991291 0.01274991)
(0.18805443 0.046051477 0.012664755)
(0.20302823 0.048116449 0.012596418)
(0.21856472 0.050185097 0.012520857)
(0.23465494 0.052241331 0.012445451)
(0.25132166 0.054275929 0.012354567)
(0.26855475 0.05628386 0.01224912)
(0.28635249 0.058239024 0.012126799)
(0.30472323 0.060140692 0.011979671)
(0.32365128 0.061967337 0.011816483)
(0.34311773 0.0637048 0.011625451)
(0.36313112 0.065348795 0.011412703)
(0.38364706 0.066867348 0.011179479)
(0.40466412 0.068283737 0.010926787)
(0.42614 0.069556478 0.010658536)
(0.4480731 0.070701374 0.010377984)
(0.47041208 0.071699542 0.010096669)
(0.49314384 0.072551644 0.0098122021)
(0.51622584 0.073248563 0.0095262483)
(0.5396506 0.073802854 0.0092538631)
(0.563378 0.074192868 0.0089886577)
(0.58738467 0.074436982 0.0087384304)
(0.61165424 0.074521157 0.0085066607)
(0.63616261 0.074447063 0.0082904657)
(0.66089615 0.074212769 0.0080952546)
(0.68583726 0.073813316 0.0079161107)
(0.71097623 0.073245033 0.0077545548)
(0.73629941 0.072502943 0.0076063244)
(0.76179952 0.071579629 0.0074707039)
(0.78746651 0.070469728 0.0073422061)
(0.8132933 0.069163923 0.0072197072)
(0.83927096 0.067656095 0.0070979661)
(0.86539157 0.065936496 0.0069749877)
(0.89164568 0.06399925 0.006846676)
(0.91802304 0.061835401 0.0067113922)
(0.94451213 0.059439865 0.0065665161)
(0.97110056 0.056806738 0.0064107811)
(0.9977738 0.053932371 0.0062435185)
(1.0245169 0.050814249 0.0060651927)
(1.0513129 0.04745213 0.005875992)
(1.0781455 0.043845672 0.0056787848)
(1.104993 0.040002185 0.0054736005)
(1.1318468 0.035915252 0.0052664015)
(1.1586818 0.031608319 0.0050556843)
(1.1854731 0.027072978 0.0048528223)
(1.2122143 0.022322848 0.0046547878)
(1.2388838 0.017364245 0.0044719382)
(1.2654758 0.012210313 0.0042997941)
(1.2919753 0.006865477 0.0041455658)
(1.3183757 0.0013409311 0.004009113)
(1.3446698 -0.0043569082 0.0038934499)
(1.3708571 -0.01022013 0.0037976014)
(1.396935 -0.016244408 0.0037229474)
(1.4229088 -0.022420521 0.0036655123)
(1.4487802 -0.028748777 0.0036259813)
(1.4745582 -0.03521831 0.003599055)
(1.5002479 -0.041833471 0.003584899)
(1.5258605 -0.048581101 0.0035759323)
(1.5514007 -0.055465516 0.003574231)
(1.5768812 -0.062477985 0.0035713311)
(1.602305 -0.069615106 0.0035689049)
(1.627683 -0.076873113 0.0035612266)
(1.6530176 -0.084243268 0.003550384)
(1.6783166 -0.091719983 0.003532638)
(1.7035764 -0.09929367 0.0035093019)
(1.7288054 -0.10695543 0.003480409)
(1.7539976 -0.11469386 0.0034464316)
(1.7791554 -0.12249915 0.0034103441)
(1.80428 -0.13035637 0.0033700249)
(1.8293652 -0.13825789 0.0033320638)
(1.8544195 -0.14618573 0.0032893884)
(1.8794443 -0.15413643 0.0032467922)
(-0.00010314461 0.00026586399 0.00689519)
(0.00024427509 -0.0023381011 0.0082409358)
(0.0015421114 -0.002885684 0.0097865316)
(0.0025608755 -0.0045599632 0.010861243)
(0.0044907917 -0.0054550397 0.011583054)
(0.0068953948 -0.0066271 0.012037978)
(0.010141457 -0.0073949313 0.012357169)
(0.013863063 -0.0082448826 0.012560605)
(0.018428824 -0.0088301252 0.012696568)
(0.023600532 -0.0093957077 0.012640268)
(0.029411632 -0.0097375848 0.012703686)
(0.035911215 -0.010027259 0.012527456)
(0.043006741 -0.010105732 0.012504042)
(0.050764797 -0.010110808 0.012302929)
(0.059079596 -0.0099286798 0.01223728)
(0.068075663 -0.0096237677 0.012003488)
(0.077543137 -0.0091528424 0.01193726)
(0.087717361 -0.0085333151 0.011738916)
(0.098362005 -0.0077509486 0.011638749)
(0.10964202 -0.0068113756 0.011496139)
(0.12143997 -0.0056968973 0.011402464)
(0.13384971 -0.0044226606 0.011283784)
(0.14679016 -0.0029796274 0.011215503)
(0.16033944 -0.001378037 0.011131177)
(0.17444791 0.0003783569 0.011067973)
(0.18916761 0.002290679 0.010999645)
(0.20447335 0.0043354433 0.01094135)
(0.22039881 0.0065131571 0.010874131)
(0.23693779 0.0088011458 0.010799823)
(0.25410543 0.011191754 0.01071417)
(0.27189953 0.013659205 0.01061688)
(0.2903247 0.01619239 0.01049906)
(0.30936983 0.018769683 0.010361484)
(0.32903273 0.021374128 0.010205835)
(0.34929896 0.023984957 0.010026549)
(0.37015075 0.026586946 0.0098316631)
(0.39157651 0.02915894 0.0096154549)
(0.41353362 0.031689072 0.0093910222)
(0.43599329 0.034160014 0.0091539299)
(0.45894081 0.036569275 0.0089098975)
(0.48232934 0.038884515 0.0086592155)
(0.50613553 0.041122531 0.0084184333)
(0.53032624 0.043239039 0.0081730115)
(0.55486041 0.045257668 0.0079493993)
(0.57972075 0.047149061 0.0077296298)
(0.60487239 0.048907665 0.0075296875)
(0.63028979 0.050523467 0.0073440035)
(0.65595288 0.051984787 0.0071770371)
(0.68183941 0.0532784 0.0070238404)
(0.70793276 0.054392543 0.0068880903)
(0.734216 0.055312465 0.0067631366)
(0.76067622 0.05602313 0.0066498591)
(0.78729882 0.056510922 0.0065426908)
(0.81407197 0.056758421 0.0064407397)
(0.84098233 0.056752711 0.0063388103)
(0.86801717 0.056477172 0.0062355789)
(0.89516194 0.055919618 0.0061271223)
(0.92240184 0.055065583 0.0060124203)
(0.94972017 0.053905786 0.0058885717)
(0.97709948 0.05242866 0.0057555577)
(1.0045197 0.050628211 0.0056127829)
(1.031962 0.048497846 0.0054602085)
(1.0594031 0.046033805 0.0052999519)
(1.086823 0.043237142 0.0051318762)
(1.1141981 0.040103763 0.0049607945)
(1.1415112 0.036643938 0.0047880531)
(1.1687215 0.032852349 0.0046214375)
(1.1958347 0.028732354 0.0044544949)
(1.2228264 0.024298781 0.0042915529)
(1.2496741 0.019553344 0.0041432152)
(1.2763694 0.014505176 0.0040045092)
(1.3028966 0.0091578754 0.0038830713)
(1.3292519 0.0035221108 0.0037764787)
(1.3554285 -0.002400347 0.0036886795)
(1.3814281 -0.0086001295 0.0036167286)
(1.4072488 -0.015075135 0.0035621194)
(1.432899 -0.021814052 0.0035201486)
(1.4583802 -0.028818315 0.0034937083)
(1.483706 -0.036073344 0.0034748166)
(1.5088798 -0.043582029 0.0034669134)
(1.5339187 -0.051327011 0.0034607874)
(1.5588252 -0.059310502 0.0034614023)
(1.5836191 -0.067516266 0.0034589817)
(1.6082995 -0.075939004 0.0034558832)
(1.6328882 -0.084561612 0.003449629)
(1.6573813 -0.093375277 0.003440585)
(1.6817942 -0.10236693 0.0034262311)
(1.7061283 -0.11151538 0.003407348)
(1.730393 -0.12081279 0.0033841187)
(1.7545894 -0.13023274 0.0033562464)
(1.7787235 -0.13976413 0.0033269796)
(1.8028003 -0.14938278 0.0032918287)
(1.8268225 -0.1590756 0.0032600031)
(1.8507966 -0.16881389 0.0032176016)
(1.8747374 -0.17859434 0.0031793734)
(-0.0013686132 -0.002321409 0.0059801967)
(-0.0012296308 -0.0063837734 0.0068523877)
(-0.0010711685 -0.0094940987 0.008542185)
(6.3139082e-05 -0.012710332 0.0092308943)
(0.0015896421 -0.015726273 0.0097729357)
(0.0039472482 -0.018523161 0.010112212)
(0.0066185322 -0.021312996 0.0104219)
(0.010252996 -0.023808519 0.010587736)
(0.014321132 -0.026302663 0.010604025)
(0.019133326 -0.028403818 0.010730487)
(0.024542539 -0.030537347 0.010622901)
(0.030653314 -0.03225309 0.01065043)
(0.037320025 -0.033955766 0.0105031)
(0.044658897 -0.035263429 0.01048)
(0.052605252 -0.036473864 0.010290613)
(0.061123886 -0.037359773 0.010261114)
(0.070296058 -0.038058297 0.010082207)
(0.0800177 -0.038467702 0.010003821)
(0.090347668 -0.038642694 0.009877989)
(0.1012577 -0.038547204 0.0097928935)
(0.11276702 -0.038187968 0.0096839595)
(0.12484559 -0.037575985 0.0096200468)
(0.13753497 -0.036686247 0.0095358448)
(0.15080685 -0.035551886 0.0094774215)
(0.16469959 -0.034149011 0.0094146072)
(0.1792009 -0.032515491 0.0093651604)
(0.19433962 -0.030638065 0.0093110379)
(0.21011363 -0.0285455 0.0092550156)
(0.22654312 -0.026244082 0.0091970644)
(0.24362942 -0.023762983 0.0091295244)
(0.26138522 -0.02110744 0.0090480749)
(0.27980471 -0.018309568 0.0089539495)
(0.29889791 -0.015384329 0.0088457105)
(0.31864589 -0.01235853 0.0087186375)
(0.33904838 -0.0092522035 0.0085755964)
(0.36007943 -0.0060826116 0.0084163425)
(0.38171375 -0.0028770787 0.0082464625)
(0.40392682 0.0003499738 0.0080636206)
(0.42672181 0.0035727567 0.0078666754)
(0.45002873 0.0067701571 0.0076587088)
(0.47382674 0.0099482333 0.0074607404)
(0.49807822 0.013063612 0.0072485851)
(0.52274318 0.016118596 0.0070594879)
(0.54779288 0.019092302 0.006867478)
(0.57318923 0.021965601 0.006687807)
(0.59889816 0.02473053 0.0065237386)
(0.62489474 0.027364717 0.0063708967)
(0.65115061 0.029853459 0.0062336944)
(0.67764191 0.032177142 0.0061099819)
(0.70434738 0.034317738 0.0059999589)
(0.73124872 0.036254448 0.0058991601)
(0.75832705 0.037967815 0.0058091555)
(0.78556711 0.039437029 0.0057234013)
(0.81295221 0.04064142 0.005642653)
(0.84046709 0.041562069 0.0055613941)
(0.86809462 0.042178711 0.0054793904)
(0.89581802 0.042474662 0.0053927951)
(0.92361837 0.042432903 0.0053009729)
(0.95147596 0.042039581 0.0052015599)
(0.97936918 0.041281661 0.0050952855)
(1.0072757 0.0401498 0.0049802526)
(1.0351717 0.038635175 0.0048586336)
(1.0630318 0.036733268 0.0047300459)
(1.0908332 0.034440434 0.0045968102)
(1.1185478 0.031753007 0.0044610811)
(1.1461525 0.02867747 0.004324845)
(1.1736333 0.025208212 0.0041905915)
(1.2009411 0.021352979 0.0040508856)
(1.2280894 0.017106882 0.0039362477)
(1.2550436 0.012489946 0.0038221539)
(1.2817952 0.0074950572 0.0037205572)
(1.30833 0.0021338293 0.0036319308)
(1.334648 -0.0035922217 0.003554443)
(1.3607397 -0.0096786039 0.0034917092)
(1.3866085 -0.016118844 0.0034398629)
(1.4122537 -0.022906917 0.0034018541)
(1.4376832 -0.030036689 0.0033735503)
(1.4629018 -0.037503299 0.0033561076)
(1.4879217 -0.0452958 0.0033445387)
(1.51275 -0.053410309 0.0033404755)
(1.5374024 -0.061832194 0.0033383221)
(1.5618857 -0.070557247 0.0033405403)
(1.5862161 -0.079563725 0.0033393009)
(1.6104024 -0.088849181 0.0033411511)
(1.6344598 -0.098386325 0.0033376193)
(1.658388 -0.10816868 0.0033332453)
(1.6822089 -0.11816939 0.003322247)
(1.7059224 -0.12837729 0.0033101957)
(1.7295428 -0.13876441 0.003292749)
(1.7530731 -0.14931312 0.0032728344)
(1.7765223 -0.15999743 0.0032498204)
(1.7999006 -0.170796 0.0032223138)
(1.8232103 -0.18168591 0.0031951383)
(1.8464643 -0.19263529 0.0031587829)
(1.8696782 -0.20363522 0.0031235831)
(-0.0020938697 -0.0031978803 0.0048997712)
(-0.002659249 -0.0086193536 0.0058635176)
(-0.0024553224 -0.012692302 0.0069294734)
(-0.0016259821 -0.017081285 0.0074339388)
(-9.0161149e-05 -0.020971254 0.0078818301)
(0.0018340486 -0.024917201 0.0082132206)
(0.0046782382 -0.028486759 0.0084078088)
(0.007981698 -0.032084731 0.0084533503)
(0.011961811 -0.035322351 0.0086487598)
(0.016623337 -0.038508615 0.0085514589)
(0.021900084 -0.041385023 0.0086460689)
(0.027792907 -0.044099149 0.0085178873)
(0.034316003 -0.046547936 0.0085597606)