/*--------------------------------*- C++ -*----------------------------------*\
  =========                 |
  \\      /  F ield         | OpenFOAM: The Open Source CFD Toolbox
   \\    /   O peration     | Website:  https://openfoam.org
    \\  /    A nd           | Version:  6
     \\/     M anipulation  |
\*---------------------------------------------------------------------------*/
FoamFile
{
    version     2.0;
    format      ascii;
    class       pointScalarField;
    location    "1.88";
    object      p;
}
// * * * * * * * * * * * * * * * * * * * * * * * * * * * * * * * * * * * * * //

dimensions      [1 -1 -2 0 0 0 0];

internalField   nonuniform List<scalar> 
625
(
-143923.74
133062.66
5020.5488
6697.7169
-115270.1
382104.76
5410.183
-622.8454
-81856.229
-29182.476
-14771.87
-16507.97
1128.3733
4425.7927
-42988.957
-45276
-29491.228
-18944.805
-5523.9613
5800.8035
18201.401
29337.946
39206.168
46961.033
54864.808
60900.173
64830.7
67647.468
68271.241
68092.4
63804.581
61800.294
55022.238
47274.69
39715.168
26829.385
18139.441
34442.794
12132.827
10751.987
-4626.8584
-15589.205
-22434.922
-33931.25
-39625.798
-48916.213
-54081.713
-59339.088
-63489.267
-66033.946
-66816.04
-66787.81
-65055.988
-61609.851
-57321.866
-51061.978
-44284.073
-35649.086
-25270.968
-12488.053
-33169.977
47863.715
53098.046
58680.797
62426.818
23015.323
15690.712
4394.9425
-16025.198
-20307.215
-38255.203
-47541.333
-57429.121
-64892.008
-72355.529
-75611.573
-79002.356
-79064.67
-77641.004
-74155.104
-68445.489
-60746.122
-51925.984
-39954.048
-29091.637
-13513.116
4622.4396
553.1144
-8867.0237
24508.671
29859.817
37989.416
48093.003
58066.652
64318.72
69900.162
74135.48
75877.29
76607.69
75224.297
72479.468
68141.199
61198.824
53455.505
49037.197
35682.507
29461.297
15812.892
6088.8917
-7675.824
-7666.9614
-31078.231
-140777.65
-124391.88
-112149.97
180930.43
210576.48
208809.58
15582.264
15042.587
17669.536
-7840.8126
-924.49217
-4966.5746
-29581.272
-25859.979
-19152.965
-10923.794
-3642.6834
5079.9428
12516.484
18877.421
24758.491
31104.47
35457.071
38844.826
41371.124
42578.793
43177.68
41491.885
39958.201
36943.446
31838.541
29253.031
22090.512
12233.517
8285.3701
-9103.8957
-11073.584
-10159.153
-11834.922
-10653.347
-11496.828
-11697.023
-11515.493
-11173.193
-11031.672
-11168.03
-10494.485
-10178.099
-9400.7694
-9122.2123
-8193.3631
-7383.5899
-6799.4602
-5761.8814
-4531.8224
-4531.2422
-434.89978
1537.3895
10373.463
52.92755
-5826.7709
-10904.395
-14126.865
-21938.38
-26354.962
-30607.774
-34321.199
-37450.237
-39929.32
-41425.736
-42106.689
-42479.163
-41243.959
-39540.613
-37183.322
-33187.274
-29491.735
-23861.797
-18057.566
-13295.313
-4082.9279
-67870.631
-46347.153
-39467.094
-13811.591
-2390.1496
16405.027
-5031.7959
17986.488
40128.319
62131.294
65828.368
76435.447
36489.951
44421.335
45506.164
11656.175
16439.03
22797.251
-4164.6308
3113.6249
4458.2963
-12648.886
-6252.7814
-1665.5868
-23802.844
-20279.146
-18606.925
-34108.546
-29820.236
-28019.459
-44311.439
-38345.344
-40006.954
-51809.208
-47738.052
-49438.603
-59051.432
-55626.297
-58023.771
-64964.843
-61477.404
-64260.292
-69156.079
-66258.927
-69776.536
-71909.44
-69231.937
-73136.441
-72987.62
-70788.976
-74801.805
-72793.473
-70509.809
-74852.026
-70401.367
-68757.813
-72712.486
-66898.478
-64882.162
-69067.254
-61238.819
-60158.391
-63774.86
-54851.217
-53106.544
-56051.771
-46317.156
-45049.44
-47960.011
-35727.568
-34894.889
-37037.553
-26282.863
-27406.365
-27781.176
-17722.085
-14590.302
-16851.005
-21617.286
-22987.363
-24151.09
147.55998
-286.3174
1415.7898
7958.8645
8988.792
7502.4004
-51920.023
-39896.738
-35250.654
-41418.028
-35524.117
-31108.17
-26262.894
-18486.331
-12015.763
-10827.438
-6284.8976
-707.55007
-81.123118
1519.8928
10430.698
15657.813
15831.481
22978.188
27684.309
24462.339
33388.436
39139.608
33659.344
41107.023
47746.812
43257.279
52854.243
58577.983
49585.2
59617.497
66150.414
55990.714
65794.605
71931.138
60932.401
70694.966
75927.008
64515.034
73822.075
78216.278
66569.662
75271.211
78665.844
66885.084
75225.826
76647.411
65811.568
73166.472
73204.587
62969.654
69886.019
68126.334
58782.784
64414.241
59506.855
52324.946
57283.536
52242.259
43652.296
50275.756
42511.467
36507.921
40465.14
30192.134
28981.895
29083.739
27267.98
28006.44
29496.789
2277.3603
-46.604605
1680.8732
5671.7814
12798.646
15514.933
21827.655
26257.985
29495.139
33492.376
36177.306
38152.45
39392.737
40290.331
39633.921
39025.832
36506.766
34343.229
30560.953
25309.71
20294.501
12514.609
2260.5569
17384.707
10544.39
5843.7324
5423.8776
4671.7312
5080.6559
5336.703
4827.2601
5411.8909
5643.8186
5780.4447
5846.6952
6158.7691
6019.1196
6256.8641
6315.7384
6186.269
6960.3117
6016.133
6506.5765
7238.5866
5745.6685
4706.9595
29446.919
27915.083
29459.096
14978.182
11130.271
2670.8562
-8107.6281
-11214.345
-19533.481
-25365.934
-30553.374
-34518.14
-38214.312
-40039.929
-41486.014
-41312.687
-40048.615
-37718.317
-34700.588
-29100.836
-24277.66
-15814.796
-13030.569
-41982.511
-32342.222
-21940.534
-21564.206
-17193.653
-8473.3431
-12485.927
-7635.0265
57.293125
-7339.668
-2333.1954
2195.3753
1275.5814
7862.0363
12670.059
6009.0492
13221.411
16680.951
12417.62
18978.258
20909.687
16347.982
25690.727
28457.269
23715.271
30171.069
31489.934
25454.524
34846.114
34860.002
29465.767
38351.318
37986.804
31798.305
40985.904
40062.081
33970.832
42478.229
41291.167
34815.11
43180.171
41758.438
34951.589
42695.306
41314.742
33860.265
41602.402
39842.553
32943.385
39250.597
37808.247
29774.392
36094.446
34000.393
26343.734
30983.568
30696.03
21684.969
29640.672
26299.245
15770.895
20656.371
17805.318
12805.57
12307.472
14989.952
2278.4846
-607.23145
-12.334122
-6091.1939
7539.5566
14974.535
-9375.7579
-6240.4636
2700.5009
-12382.592
-5912.0651
3295.27
-8423.9886
-2855.5164
4243.6317
-8042.5272
-5540.722
490.71422
-7024.967
-5064.2369
455.44467
-6879.5559
-3408.4744
547.9589
-4762.0752
-2561.1356
-1468.8866
-4417.8289
-2725.5562
-2378.0605
-3349.5826
-1820.3836
-2016.2954
-2700.2534
-661.26514
-3231.5049
-1478.9634
-115.88296
-3560.8082
-950.40615
744.35549
-3637.3538
64.985174
1370.8297
-3798.2121
420.86177
2010.9128
-3483.1938
1416.7079
2958.3444
-3407.7548
2029.8476
3082.9364
-2861.5431
2065.9335
3675.4066
-2920.8133
3295.4315
3351.2032
-713.88603
4039.1617
4808.4421
-2811.694
2444.7189
-411.75823
-1592.4856
4832.3554
4979.5558
638.77309
5377.9339
6251.8487
6093.781
15377.557
32748.023
37827.649
6021.6923
10499.791
22662.273
1994.3489
20247.507
23995.896
900.02884
3798.7675
9019.1995
-9592.444
-892.77245
2633.9121
-13967.47
-7962.2419
-3002.1591
-17779.845
-14226.571
-10694.061
-23882.975
-21468.388
-19579.549
-27338.366
-27582.417
-22713.837
-32336.909
-31422.21
-29635.24
-34438.294
-36389.264
-34380.449
-37091.661
-39777.988
-38101.647
-38722.878
-42433.256
-41044.431
-39366.996
-43917.907
-43013.39
-38999.991
-44559.532
-43388.773
-38207.106
-43905.27
-43380.68
-36011.193
-42765.103
-41506.771
-33533.557
-39590.197
-38367.236
-29223.071
-36058.983
-35075.782
-25483.026
-31958.126
-29606.588
-19954.813
-25977.28
-23645.967
-13099.674
-16056.329
-11797.293
-6283.3661
-11734.232
-10281.681
)
;

boundaryField
{
    free
    {
        type            calculated;
    }
    fixed
    {
        type            calculated;
    }
    traction
    {
        type            calculated;
    }
}


// ************************************************************************* //
