/*--------------------------------*- C++ -*----------------------------------*\
  =========                 |
  \\      /  F ield         | OpenFOAM: The Open Source CFD Toolbox
   \\    /   O peration     | Website:  https://openfoam.org
    \\  /    A nd           | Version:  6
     \\/     M anipulation  |
\*---------------------------------------------------------------------------*/
FoamFile
{
    version     2.0;
    format      ascii;
    class       pointScalarField;
    location    "0.74";
    object      p;
}
// * * * * * * * * * * * * * * * * * * * * * * * * * * * * * * * * * * * * * //

dimensions      [1 -1 -2 0 0 0 0];

internalField   nonuniform List<scalar> 
3969
(
875137.48
-1251490.6
255.14744
-338.9053
1632102.7
-2634143.3
-472.70813
404.47382
689302.86
474626.14
255057.85
20304.669
-150039.73
-426772.71
-448475.73
651.80884
1461.4043
1152.934
531.87945
-190.95499
-711.03627
-755.75447
277316.8
301805.04
283660.55
290014.56
273709.11
267975.93
249993.23
238154.07
222689.4
207222.13
194103.67
181591.32
168888.07
157923.68
146228.21
134291.2
123950.92
112712.58
102820.26
91873.526
82482.345
72677.665
63579.575
54824.724
46537.305
38784.466
31444.186
24778.189
18875.902
12878.566
8011.027
3633.5324
-344.44545
-3287.4127
-5664.2324
-7456.8696
-8666.8222
-8696.408
-8860.8666
-8214.8917
-7302.4927
-6107.6257
-4905.085
-3168.3853
-2327.8359
-417.29289
-339.23993
-285261.27
-226013.15
-265057.56
-224703.41
-246330.47
-215049.39
-218117.84
-194698.44
-189681.67
-173604.11
-163405.04
-153151.83
-138910.82
-131375.22
-118600.61
-109325.67
-99598.068
-88508.224
-80456.379
-70370.106
-60935.926
-53225.446
-43656.999
-36121.542
-27447.131
-20236.423
-12239.78
-6258.7969
-146.51821
5242.6775
9296.7587
13530.063
16387.585
19012.651
20706.653
21972.959
22379.16
22243.03
21737.001
20318.281
18685.067
16303.543
13522.383
10363.245
7305.6685
3985.2123
1464.1785
1177498
884227.5
391288.25
-36178.866
-382598.63
-855457.68
-688132.57
-345530.19
-372384.78
-225875.5
-307709.46
-261809.1
-256318.96
-241304.11
-224909.28
-210941.1
-180456.71
-193244.87
-164989.53
-162265.92
-147942.79
-134807.8
-126876.06
-110476.79
-102160.98
-89100.363
-78257.439
-68237.541
-58807.2
-49328.844
-41094.8
-32923.365
-26259.291
-19013.359
-11144.985
-5259.9699
237.75228
5602.0304
9673.9916
13156.857
16157.74
18326.993
19791.826
18757.035
20290.761
19042.682
17714.107
15972.32
13696.204
11307.74
8610.2623
5862.5553
3347.9798
986.93619
-603.43042
-491.79112
-409.54028
600.3764
1412.386
1368.2483
859.07903
-346.37378
-737.89256
-2459.1311
-4571.7323
-6722.906
-8816.6099
-10523.845
-11975.712
-12653.872
-12920.427
-11886.862
-12832.678
-9916.8991
-8221.3748
-5070.6667
-1519.7341
3053.4232
8473.0115
14142.495
21256.851
29077.734
36740.765
45792.673
54801.556
64998.936
74950.64
85514.314
95235.442
106822.01
117092.88
128404.07
138713.49
146953.55
162750.12
179413.25
182995.71
202307.31
207475.06
222732.39
243135.45
261729.64
259128.18
286846.27
280247.89
283877.97
310909.39
316128.72
786574.79
838245.37
872824.84
857561.87
853560.08
846658.71
695341.64
-1018139.1
-1294530.6
-1492646.8
-1593698.5
-1527269
-1518641.1
-1187918
-1259.1143
-1490.1683
-1806.1336
-1736.4042
-1314.1715
-771.08623
-1058.0108
146.00171
589.13981
903.45312
1167.7777
1236.406
799.57779
389.47977
230321.32
236143.95
229908.8
224094.85
217589.5
207606.88
196440.36
188237.84
173229.62
167239.45
155059.31
143249.71
135907.9
124914.49
116201.3
107081.09
99269.159
90253.829
82034.457
73943.191
66441.843
58638.05
51699.316
44957.495
39022.534
32728.104
27234.697
22354.328
17415.868
13053.059
9231.4394
5498.9704
2530.922
25.391268
-2077.2438
-3513.6647
-4393.5355
-4938.0248
-5132.7778
-4689.8101
-4311.8987
-3611.7961
-2944.2756
-2062.8331
-1638.4649
-458.3692
-295.23401
147408.65
149374.71
143437.98
148156.33
143783
143485.89
133420.83
127760.79
119630.17
114097.92
105133.32
99803.009
92459.967
86126.62
81425.705
74968.397
70004.762
63534.965
58623.226
53012.226
47702.301
42551.533
37694.997
33433.226
29191.597
25485.331
22131.093
18605.529
15699.545
12794.944
10151.852
7701.0177
5609.5441
3749.5782
2242.7247
1162.6958
236.64652
-135.92619
-537.54892
-444.4809
-537.22796
-377.0344
-427.52814
-141.61624
-537.2189
311.59221
-65.625072
73687.998
82306.22
73323.213
76563.846
73294.353
72563.038
67997.998
67332.279
62151.747
58980.406
56743.612
52532.814
50124.352
46105.942
43365.115
40242.134
37725.014
34616.97
32479.149
29370.506
27380.887
24722.779
22666.113
20190.214
18119.281
16183.149
14580.8
13008.194
11644.784
10123.769
8810.5547
7388.4581
6240.0424
5080.4835
4284.0299
3577.1575
3082.0275
2923.0599
2653.8787
2593.7294
2305.1056
2138.8724
1754.1271
1449.3587
810.65532
914.08004
204.31213
5481.3979
8457.2885
955.042
9855.7285
3074.3814
7378.9107
2367.6312
4658.462
2758.9862
8484.9246
3581.8356
7617.1087
5674.9475
7419.7977
7841.5264
8102.4358
8316.4928
8420.3201
8571.4346
8089.4308
8372.9179
8047.988
7549.6437
7616.749
8441.0262
8877.3806
9346.6613
9827.3552
10063.824
10161.059
10252.778
9992.9196
9779.2963
9440.4488
9125.0355
8751.6055
8334.8026
7889.3822
7060.8434
6440.1297
5761.8298
5006.5374
3940.0722
3189.368
1872.5324
1510.0428
356.75747
-71257.143
-59482.851
-62551.417
-61462.367
-64806.985
-59984.66
-59596.485
-53974.122
-52750.505
-45261.807
-45154.306
-36887.187
-37638.472
-30185
-29541.526
-24509.389
-22435.904
-19289.013
-16520.279
-14484.017
-10710.536
-7305.5399
-4673.7733
-1363.5051
437.83419
1961.9504
4472.7571
6227.0442
7841.3497
9071.836
10245.554
10693.094
11345.739
11471.283
11563.978
11548.622
11271.251
11062.355
10188.354
9439.3164
8719.5637
7709.1614
6484.7446
5230.8562
3626.189
2383.6357
759.36457
-151283.06
-132690.49
-132417.33
-135134.39
-133315.48
-126437.3
-121899.01
-112270.24
-109078.23
-97390.014
-94427.03
-85796.374
-80139.155
-73792.354
-67990.96
-60821.026
-55311.159
-48990.565
-43448.758
-38099.736
-32105.461
-27621.843
-20478.894
-15368.435
-10279.903
-6259.3383
-2116.8682
1557.8668
4896.9725
7776.0934
10008.663
12040.155
13537.751
14594.655
15456.215
15756.865
15850.283
15566.644
14865.115
13786.087
12655.47
10872.28
8926.0221
6879.356
4513.0827
2770.2141
978.50701
-255942.45
-172718.72
-203457.01
-191589.66
-197917.17
-182651.66
-179980.27
-165361.46
-162572.87
-144529.82
-142206.93
-129260.5
-119927.53
-110118
-100343.42
-91112.548
-81511.175
-73565.016
-65174.98
-56911.526
-50022.239
-41826.712
-34820.84
-27724.218
-21257.636
-15448.15
-9507.4689
-3742.4842
1245.8278
5586.6063
9366.6591
12462.752
15032.474
16858.938
18260.563
19020.343
19294.935
19201.143
18273.133
17080.762
15491.119
13364.372
11111.761
8462.7374
5942.3836
3467.388
1380.195
534059.88
508297.53
533242.96
530788.24
531939.75
511167.92
481249.81
357489.18
393288.5
371852.24
379229.15
377934.79
366006.98
355525.39
188207.36
219087.13
185833.97
198339.99
184537.42
181217.42
189805.98
45663.491
26655.436
10223.944
27043.139
11162.956
-14126.629
54347.271
-75632.799
-85040.504
-98473.351
-86092.067
-98320.632
-95611.325
-50043.501
-321461.15
-348841.12
-351796.3
-364835.68
-377379.18
-366813.75
-344710.15
-373418.67
-343232.62
-293617.15
-304975.85
-284707.93
-263432.27
-299539.06
-475234.57
-494849.95
-559845.02
-576923.7
-594457.31
-578912.72
-456014.25
-333635.54
-388834.79
-393738.66
-403616.28
-421996.71
-401619.16
-366129.89
-272715.01
-315294.34
-333982.56
-336860.63
-336607.87
-314220.59
-327822.22
-257626.07
-285077.51
-279372.29
-299189.96
-288147.99
-286724.73
-269619.29
-252587.11
-272027.61
-283507.62
-284476.05
-285396.82
-272539.06
-276105
-238607.66
-233334.77
-240295.74
-246372.8
-247069.28
-242309.25
-240536.13
-218852.45
-227252.78
-231935.1
-235402.02
-233727.66
-237031.15
-235125.04
-210894.77
-207534.89
-209147.92
-211743.92
-210489.47
-212064.22
-211864.24
-194470.46
-195895.85
-196421.53
-200000.95
-201441.85
-204294
-204106.97
-185344.76
-181627.68
-180640.81
-181383.37
-182320.34
-179677.32
-181638.38
-170685.83
-171198.15
-168123.67
-170600.09
-170759.01
-171810.55
-174733.56
-158059.37
-156422.77
-155515.83
-157791.45
-156810.86
-154859.87
-160553.09
-150536.97
-143124.51
-145217.53
-144534.42
-145600.08
-146253.83
-151943.38
-134308.7
-131560.78
-134580.81
-133484.99
-135312.91
-133009.8
-137288.89
-126301.44
-121259.01
-123876.04
-121780.76
-122996.48
-122176.52
-126789.75
-114005.41
-109649.4
-113509.71
-111436.75
-113952.33
-112783.62
-116750.31
-103278.38
-100606.37
-102824.44
-101006.1
-102957.07
-101447.08
-103997.09
-93270.42
-90370.523
-93061.07
-90770.759
-93729.42
-91494.012
-94781.016
-82800.436
-81002.141
-82957.36
-80681.348
-83232.318
-81226.394
-84351.494
-72858.658
-71329.717
-73267.735
-71115.894
-74117.366
-72197.055
-75213.271
-63684.206
-61762.434
-63716.963
-61452.327
-64311.112
-62473.496
-65239.199
-54101.628
-52833.532
-54245.407
-52699.771
-55254.678
-53804.047
-56691.031
-45416.711
-43379.266
-45486.718
-43731.615
-46084.487
-45162.503
-47617.052
-36278.685
-35442.556
-36868.763
-35356.07
-37543.015
-37133.682
-39290.313
-28113.502
-27168.333
-28163.733
-27214.657
-29479.747
-29383.125
-31399.833
-19886.776
-19787.92
-20039.344
-19868.598
-21023.643
-22335.387
-23929.536
-13609.67
-12277.876
-13075.689
-13205.496
-13595.147
-15014.049
-15747.686
-6696.355
-5571.3535
-6419.0135
-6464.1218
-7012.9422
-8457.8824
-8470.604
-413.37607
501.13446
-341.03532
-210.4558
-550.86263
-2471.7703
-2253.0599
4896.4385
5946.9146
5061.6157
5099.8286
4592.0354
2657.0097
2899.909
10044.086
10561.89
9895.0526
9818.2542
9437.1944
7444.0278
7738.6739
13909.859
14579.792
13868.687
13739.759
13337.537
11355.824
11598.34
17447.552
17825.616
17254.438
16988.251
16608.101
14625.794
14757.898
19964.991
20291.34
19766.637
19428.592
19023.181
17125.935
17314.583
21906.961
22072.715
21717.219
21250.039
20875.133
19029.443
19134.963
22983.681
23169.429
22752.378
22273.189
21730.05
20525.517
20119.53
23572.286
23537.4
23363.328
22678.306
22366.888
20979.511
20632.55
23534.751
23078.262
22779.469
22226.763
21733.035
20178.64
20463.218
22518.447
22261.721
22060.224
21356.039
20970.465
19742.38
19899.906
20932.411
20593.583
20294.849
19637.577
19223.223
18173.122
18354.969
18920.551
18438.425
18164.19
17535.901
17136.012
16252.381
16397.996
16360.212
15612.397
15285.668
14785.991
14281.542
13674.923
13825.385
13319.935
12587.434
12301.205
11836.528
11316.025
10985.861
11053.723
10024.078
9221.7396
8815.3205
8411.7891
7887.0177
7871.2736
7877.8236
6714.4151
5951.2318
5614.1297
5280.6378
4924.0486
5064.6564
4985.5021
3297.2564
2629.5937
2220.2283
2015.695
1726.4719
2079.036
1957.3689
1300.4776
871.16497
469.53775
354.40957
319.50887
547.60062
917.5943
771.67868
745.61276
1188.8898
1412.0199
1577.4864
1469.5612
1575.1825
2165.3394
2287.0297
2642.6905
2848.8352
3150.9365
2864.0809
2778.7386
760.8306
889.77655
1043.1237
1331.9257
1588.7359
1613.2917
1418.8097
-31.265389
89.614733
267.0792
453.93898
649.86673
776.72616
625.58269
-1163.7638
-1127.3676
-1310.0659
-1098.2417
-825.91352
-600.06429
-628.50502
-1816.2699
-2119.3509
-2253.4224
-1944.7522
-1839.2596
-1306.9013
-1738.3785
-1502.9255
-1722.6041
-1944.2218
-1727.1286
-1522.3438
-1129.7947
-1059.1982
340401.43
338282.38
381839.79
371673.19
380517.82
355511.74
346314.59
346758.98
357849.22
370059.54
367655.05
371275.89
346407.35
338915.24
322246.55
324291.16
334422.12
333569.84
331350.93
314672.52
309723.74
295586.56
306815.86
312133.29
315121.27
311959.29
300694.47
299348.62
287903.05
288634.57
291139.28
292976.06
290447.77
284818.74
278397.09
265715.04
269410.24
271792.4
268559.1
269492.17
259985.5
260169.78
255424.57
254408.45
255095.25
255086.24
257176.02
250439.41
254901.69
234895.59
235132.07
237175.95
229453.13
234389.3
229713.75
230357.33
223511.5
225464.49
224058.2
221307.41
224773.87
220039.65
224869.82
209499.71
207054.49
205467.32
203573.17
206283.2
201935.66
206632.24
196058.21
194261.53
197046
192943.79
196325.52
192279.13
195795.05
181788.35
183226.19
180054.6
178017.22
180324.44
176882.34
181955.49
171282.7
169105.86
169088.57
166774.88
169084.78
165041.43
166025.69
158344.47
157938.48
155723.6
155684.59
156380.74
155065.56
158138.94
146412.53
146650.76
144188.75
144422.13
144208.28
142365.03
146130.05
136331.5
134422.79
133403.41
132907.92
134036.54
132278.75
133908.03
124432.1
124109.07
122224.58
122730.86
122139.23
120857.42
122594.04
113542.93
113102.19
111543.9
111898.66
111109.93
110635.83
111374.97
102741.88
102958.36
101341.18
101375.96
100811.65
100490.58
101404.61
92435.067
92339.486
90716.659
91084.103
90283.454
90114.553
90574.55
82877.846
82421.59
81194.83
81185.991
80458.766
80487.084
80912.645
72913.629
72623.197
71424.851
71420.206
70409.658
70379.194
70820.63
64001.864
63450.499
62526.74
62075.822
61111.638
61231.034
61862.143
55102.715
54515.914
53392.532
52955.589
51911.282
51896.711
52610.439
46767.169
45767.424
44939.585
44375.084
43265.427
43436.827
44022.317
38799.079
37657.19
36782.485
36172.405
34901.618
35093.662
35542.654
31033.567
30343.537
29255.305
28414.032
27329.624
27418.691
27743.688
24515.003
23149.567
21924.361
21289.641
20249.824
20410.259
20811.319
17613.739
16451.659
15626.449
14845.332
13484.096
13919.964
13825.353
11882.246
11028.881
9568.4196
8994.4201
7644.2157
8357.4782
7881.0704
6847.6318
5708.4047
4417.3256
3954.2008
2517.0651
3274.6861
2645.6358
2104.5564
1295.8563
-179.98842
-528.81295
-2131.3476
-1010.1446
-1869.6262
-1630.6172
-2369.9354
-3808.0047
-4155.6251
-5563.2845
-4433.9738
-5564.7953
-4684.9961
-5359.594
-7029.6448
-7133.4682
-8648.3773
-7483.2169
-8632.2303
-7125.0071
-7777.4609
-9140.0802
-9415.0696
-10671.284
-9705.6246
-10765.523
-9006.5009
-9258.9586
-10939.453
-10994.344
-12262.98
-11144.073
-11839.961
-9633.7965
-10399.997
-11773.334
-12103.481
-12999.663
-12233.419
-13010.745
-10364.684
-10793.428
-11803.633
-12196.635
-13128.403
-12329.952
-13311.878
-10314.01
-10466.973
-11844.627
-11853.582
-12820.357
-11966.049
-13088.408
-9567.0123
-9720.9665
-10917.185
-10886.109
-11911.125
-11153.504
-12186.504
-8559.9443
-8618.4572
-9639.6132
-9594.8473
-10491.488
-9810.5139
-10906.39
-7095.1184
-6885.7346
-7858.6609
-7764.1628
-8579.1374
-8129.6718
-9110.4272
-5376.0867
-5297.8353
-5932.9055
-5828.9393
-6487.2213
-6164.957
-7030.3108
-3423.9206
-2978.625
-3479.1241
-3339.4631
-3886.8889
-3772.7251
-4701.9454
-1844.4927
-1600.4702
-1780.2593
-1769.2938
-2113.9806
-2235.6105
-2678.7902
-117.41662
280.37297
242.50151
402.80887
156.14701
35.118017
-284.93942
-6.876783
246.18896
474.42043
490.71389
264.16793
125.93073
-146.08797
317733.11
242102.5
234029.24
225407.85
224877.1
221743.92
203203.75
198147.21
186238.99
177592.95
164795.73
155066.26
144241.42
132547.97
124360.06
114381.1
104828.28
96256.419
87428.615
79199.617
70938.647
62757.498
54928.255
47564.597
40224.848
33485.853
26710.718
20612.385
15391.434
10527.104
6270.1899
2761.9534
-272.72204
-2580.1708
-4865.805
-5661.1585
-7602.2282
-8040.2046
-7890.7728
-7496.788
-6827.1027
-5861.7375
-4704.6481
-3421.4203
-2232.5496
-1203.761
-393.6324
188621.17
187026.63
138134.37
154634.99
169992.68
151154.17
155138.9
139681.17
138927.65
126261.98
121339.42
113295.31
103413.63
99078.242
91712.418
86207.18
79531.356
72300.536
67131.198
60367.335
54610.759
48431.059
42775.712
36765.89
31052.368
25396.336
20861.716
16194.139
12203.253
8542.5117
5337.3529
2582.1289
292.12764
-1628.6282
-3245.5983
-3972.4268
-5084.9847
-5726.3813
-5865.5335
-5588.4453
-5133.5068
-4320.1893
-3343.259
-2191.6581
-1179.3241
99.102296
210.19147
89546.85
104661.33
57293.973
91068.347
75690.542
68279.253
69955.312
64433.28
63244.876
56356.118
59893.157
53086.344
55504.043
50438.737
49045.621
46945.178
43106.768
40667.1
37974.051
34386.379
31522.837
28621.984
25497.952
22607.94
19867.012
16973.789
14432.946
11614.754
9329.1838
7615.8226
5952.9194
4769.1011
3700.2896
2775.3203
2048.314
1469.9777
823.41863
433.23795
124.71745
-99.783986
-83.548925
-48.102615
189.29983
434.39008
588.67464
668.7256
626.74332
-6927.4904
23492.425
-3085.7719
16303.184
1091.8635
11250.684
9386.1228
3313.9953
6890.2359
10561.211
7122.984
12203.213
11041.921
13883.869
14753.965
13736.03
14269.11
13981.754
13823.885
12918.622
13033.089
12206.776
11522.518
10674.875
9527.8165
8467.9267
7638.8596
6836.274
6080.6808
5434.1764
4956.2288
4835.6323
4421.6863
4252.2987
3944.4674
3656.7397
3259.541
2968.3673
2498.0218
2315.9215
2061.4046
1822.8133
1805.7838
1725.9387
1550.0908
1516.4683
1052.8812
-134829.77
-60165.519
-72000.304
-46579.102
-62185.842
-45056.003
-54441.167
-47329.667
-39485.394
-41093.06
-32094.926
-34418.209
-26682.756
-27332.255
-23585.027
-21520.893
-18606.472
-16261.087
-14138.875
-11669.755
-9484.8539
-7552.056
-5777.0084
-3988.8265
-1834.6727
-364.21512
719.8544
2042.4746
2851.3789
3895.3328
4867.184
5795.2907
6548.5875
7261.6975
7602.0413
7851.7019
7781.6748
7474.1718
7091.5266
6544.775
5859.3965
5288.1705
4567.6848
3936.6119
3158.824
2331.5345
1306.5774
-213024.86
-149279.19
-125719.24
-124399.75
-127719.86
-118202.01
-120910.31
-100630.07
-110935.11
-97562.962
-94239.42
-85877.484
-77268.164
-73925.931
-65040.571
-59643.993
-51479.31
-45990.979
-39373.891
-34141.678
-29033.118
-24314.356
-19683.622
-15078.738
-11339.417
-8356.9531
-5513.7702
-2838.2854
-188.36477
2285.9892
4314.5118
6347.7002
8005.1513
9337.0437
10274.737
10745.171
10872.294
10846.066
10191.871
9412.1025
8652.695
7493.7805
6482.8062
5286.4383
4096.4942
2679.7767
1166.3795
-265982.12
-201011.02
-206088.32
-195337.58
-205554.73
-197150.73
-188521.02
-177979.13
-171939.35
-156239.28
-145310.81
-134135.61
-123631.09
-113801.23
-104002.37
-95318.686
-87893.035
-78108.037
-71152.915
-62375.482
-54801.755
-46917.763
-40298.502
-33251.397
-27736.003
-19381.254
-15233.605
-10621.554
-6125.692
-2043.586
1719.6481
5307.249
8140.0911
10571.342
12248.615
13540.528
14739.814
14218.707
13762.165
13198.774
11934.785
10733.533
9148.2581
7681.3496
5866.8174
4123.8788
1675.7529
408707.33
449567.54
436822.62
455777.11
444530.56
420165.08
388858.98
282808.36
321817.76
320443.58
325913.9
315821.88
303191.48
273157.93
255781.6
282070.74
290751.63
295658.1
287545.05
283874.92
264599.85
243080.4
247577.8
252053.68
257936.1
245906.95
247986.24
225200.01
227718.07
233078.37
240258.38
235639.18
232132.38
229639.58
211210.32
216251.79
221700.35
215004.9
222662.58
215169.16
213736.88
213945.14
206127.23
202769.99
204395.84
203944.2
195298.7
202061.85
196357.77
191475.39
199225.31
191503
194893.31
192716.59
190113
187478.52
185677.91
180746.01
173597.65
182301.41
174169.23
177128.48
175151.81
170295.55
168923.39
170826.54
171851.47
166372.79
169116.98
167505.32
159269.74
161820.37
155556.24
157826.49
153886.34
156689.05
155061.17
152602.09
147771.03
147147.88
148448.59
146648.43
146251.2
145967.38
140323.38
138690.52
137243.01
140649.94
135042.75
138825.89
138789.94
130491.22
127729.64
128985.74
128435.04
125888.22
127848.64
127877.08
121776.7
119995.16
119039.17
119402.8
117726.98
119813.21
118836.01
112112.36
109331.83
111140.93
110083.84
108764.16
108823.48
110094.42
102386.04
100950.33
101263.9
101116.7
99791.722
100763.45
101384.23
94267.153
91939.57
93606.889
91999.843
91504.515
92030.687
93076.153
84969.068
83984.649
83909.844
83715.84
82886.216
83425.743
83624.931
77533.075
75406.448
76297.479
75549.975
75069.646
75351.356
76143.615
68145.803
67776.246
67812.246
67484.274
66771.558
67217.757
67355.187
61056.634
60359.053
60113.851
59635.085
59427.546
59574.261
60283.072
53147.926
52818.581
52071.102
52127.938
51671.548
52463.116
51961.422
46219.31
45870.236
45004.368
44843.306
44918.068
45075.409
44666.553
39177.14
39176.284
38079.661
38190.262
37732.016
38313.589
37513.23
33382.92
33039.57
32183.481
31239.392
31789.123
31683.769
30963.711
27936.425
26892.418
25410.934
25583.792
25542.167
25441.546
25008.41
22148.907
21043.601
20730.276
20030.122
19619.56
19850.172
18677.07
17209.191
17017.309
15055.424
14676.154
14764.397
14619.861
13599.024
13359.986
11626.262
10880.757
10257.64
10236.678
9805.0713
8948.0622
8995.6335
7762.5312
6764.0735
6035.8486
5889.1975
5656.9047
4670.6385
5795.7992
4227.7879
3551.5891
2566.6732
2718.9405
2252.8438
1278.6139
2912.473
1216.2073
382.70392
-422.64632
-420.76939
-862.46535
-1990.557
552.76522
-1347.5502
-1782.7898
-2721.5013
-2750.7071
-3399.4346
-4073.4201
-1497.8282
-3274.355
-3692.5022
-4563.9306
-4762.8111
-4625.4656
-5943.3516
-2468.8453
-4422.9695
-4921.9258
-5883.319
-5810.49
-6825.9708
-7691.2006
-3724.8903
-5883.5789
-5952.0868
-6455.7076
-7117.7222
-6671.6762
-8340.1079
-3998.6109
-5463.9129
-6318.0003
-6826.9652
-6892.5534
-8020.0954
-8146.6984
-4084.4794
-6167.2401
-5990.0343
-7030.4517
-6997.4899
-7529.4034
-8452.0379
-3859.3034
-5563.7997
-5449.2097
-6485.4193
-6286.1059
-7232.6468
-7828.3393
-3433.0546
-5045.0321
-4891.9062
-5852.8001
-5749.5564
-6371.5709
-7121.9434
-2748.089
-4009.4051
-3877.0822
-4578.7876
-4505.1412
-5220.2405
-5888.1105
-2003.2708
-3210.1642
-2873.3422
-3574.5229
-3578.3667
-4050.6488
-4622.06
-1417.9108
-1927.6412
-1839.6737
-2265.1773
-2288.2127
-2696.7349
-3242.6759
-576.70151
-1225.4257
-968.66185
-1235.5729
-1266.6537
-1560.6411
-1864.599
-296.98086
-300.3438
-216.6613
-244.89257
-385.93464
-512.13862
-864.21143
518.26037
463.72391
681.58734
637.31745
743.51099
570.70607
330.3009
270174.48
280849.86
306153.63
297995.45
303060.34
275249.51
267634.26
201580.78
240094.1
250636.07
253331.35
251596.13
231306.37
214895.7
193253.13
179268.65
200958.15
191710.49
198343.96
177325.21
175274.48
161167.45
168220.04
176501.38
170795.44
172754.71
164406.89
147514.29
161883.15
161699.21
167358.22
160144.63
168118.01
155696.54
154769.95
147683.32
147308
148347.23
144747.91
142682.99
145970.92
140431.57
142135.81
145047.1
149892.19
141178.85
147193.65
144733.15
137160.12
134258.93
132260.72
130070.61
128002.31
131469.09
126633.71
128384.36
127130.15
124213.61
131036.18
125914.17
124816.41
126103.8
124262.25
116031.96
119608.63
119683.35
112097.27
116621.41
115274.77
116281.09
111960.24
112508.97
110502.27
108530.56
110628.75
109850.85
108119.99
104532.35
102902.35
106236.86
101587.2
104985.17
101925.98
105288.21
95987.809
98112.5
100133.5
93354.783
96903.892
94949.889
95118.955
91037.594
91834.261
92073.559
87466.496
91343.909
89928.052
87388.873
84039.743
86455.094
85049.266
82452.563
84579.72
82719.813
81148.559
78149.047
79406.186
78211.39
77307.862
76964.092
77860.616
74165.039
72058.906
74553.589
73111.384
71405.882
71663.061
72638.853
70199.137
65898.873
68433.6
65992.938
66002.162
65306.786
66593.284
62927.468
61111.844
62721.244
61058.021
60722.821
60059.465
61194.891
58299.492
54553.058
56760.227
55002.653
55177.507
53981.275
55252.669
52357.29
49982.945
51648.771
49870.324
49912.35
48734.201
50100.916
47637.592
44771.122
45980.354
44153.66
44601.853
43202.66
44600.224
41854.897
40262.831
40838.713
39383.076
39808.65
38434.534
39163.201
37100.78
35615.076
35893.636
34637.431
34916.832
33308.832
33710.729
32246.293
31229.942
31325.859
29969.451
30235.352
28848.539
28817.722
28019.394
27051.86
26957.017
25484.389
25826.77
23994.049
23971.761
23376.942
22986.286
22795.337
21136.95
21778.244
19654.056
19834.851
18667.871
19331.437
18844.422
17627.265
17104.575
16177.864
15370.514
15132.41
16012.048
15108.175
13923.086
13812.281
12367.219
11803.128
11243.535
12589.801
11784.361
10423.304
10413.935
8622.1714
8472.8184
7791.754
9719.2901
8935.3204
7677.39
7361.4384
5819.3579
5680.2464
5028.6787
7049.5072
6260.7922
4649.5101
4705.7054
3038.3668
3041.7542
2332.8471
4877.5306
3818.425
2569.6979
2426.8075
841.33517
754.37089
338.94134
2697.5831
1850.5864
495.77676
473.26737
-1099.9736
-820.58011
-1323.4597
1383.7129
305.39422
-876.20866
-1175.316
-2408.7931
-2534.7722
-2797.1259
-55.314975
-1087.8975
-2255.6782
-2239.2727
-3673.8303
-3296.6169
-3914.057
-730.46561
-2026.0476
-2763.8425
-3286.6134
-4103.0277
-4377.7339
-4201.1735
-1346.0265
-2384.3907
-3358.905
-3571.8399
-4727.342
-4526.039
-4811.9546
-1436.1029
-2781.0513
-3464.5206
-3621.5303
-4693.4215
-4606.3543
-4670.9518
-1537.3847
-2647.1861
-3371.8782
-3606.4674
-4457.753
-4475.4813
-4520.0378
-1326.4616
-2498.008
-2971.5903
-3086.0062
-3912.9878
-3907.0724
-3994.4642
-1081.0095
-1990.7378
-2412.1511
-2546.7983
-3289.9581
-3200.3805
-3404.8725
-694.27367
-1605.4702
-1720.8107
-1901.7064
-2413.1967
-2376.5964
-2650.7503
-283.65332
-713.67368
-912.13429
-882.0217
-1378.7896
-1313.9295
-1742.5086
30.214574
-623.87777
-328.81291
-405.0647
-739.90658
-631.69282
-949.17027
648.84718
757.99038
905.02882
960.04609
774.66842
862.3467
247.42043
466.26733
97.944558
591.31121
565.46293
623.88394
432.43652
349.83627
160297.78
166322.51
154634.97
170233.34
156037.01
144466.89
134505.33
112994.35
155465.85
146953.33
155675.55
135075.71
139403.24
112788.68
104875.02
97760.471
102645.78
101713.03
96648.162
87329.731
81899.472
83503.464
97763.821
98377.654
104024.65
91334.854
96951.003
79277.201
89752.977
81781.403
85417.449
77564.401
77264.68
73293.006
70337.712
75838.648
84977.799
75762.953
77807.009
76755.552
72544.813
71037.907
79560.254
76798.916
66401.64
71762.759
69351.471
65122.926
66273.26
72024.382
74912.937
65603.438
68776.511
64313.469
60861.548
64594.792
70700.049
73369.195
60972.828
64539.287
61666.722
61803.673
61187.62
69074.788
66853.01
56616.19
58568.709
59756.485
55504.066
57943.98
64553.612
64318.632
53382.146
59634.46
56276.618
56003.793
55181.466
59486.089
59049.255
51017.04
53465.368
52712.423
49648.37
52315.242
56014.338
58842.015
46722.614
52256.573
49244.6
49475.598
48711.607
52754.798
52084.983
45687.773
48507.657
49198.618
43315.511
49580.614
48419.258
48857.326
41495.906
46400.189
44401.473
41807.816
46085.756
45177.145
44284.093
41614.913
41640.16
42582.243
39195.425
44327.308
40515.649
42191.041
37468.818
39430.127
39187.815
36975.142
39910.437
39118.41
37870.386
35607.643
36306.055
36782.672
34317.172
37159.87
34481.141
35362.917
32533.02
33815.392
33335.918
31658.971
33709.921
32614.641
32378.295
30262.743
30743.673
30753.246
29387.984
31568.102
29144.226
29636.97
27278.496
28173.363
27725.875
27104.36
27759.385
26802.624
26771.179
25021.566
25543.407
25452.064
24400.579
25420.519
24115.344
24253.995
22363.154
23258.617
22166.621
22187.146
22456.108
21924.481
21533.934
20106.602
20499.129
19456.547
20120.826
19802.809
19757.034
19147.815
17745.728
18067.403
16895.517
18028.817
16914.069
18005.654
16454.627
15698.941
15912.51
14462.612
15609.95
14182.173
15849.97
14918.973
13877.333
13962.301
12015.441
13651.489
11764.591
14481.073
13161.981
11906.296
11642.988
10538.433
11400.798
9956.158
12555.299
11133.007
10029.502
9997.0188
8543.0271
9421.8425
7886.6486
11262.028
9494.3584
8988.4422
8206.6042
7111.2752
7878.128
6089.061
9704.4077
8181.6464
7257.8478
6877.8326
5569.6417
6504.5021
4458.5027
8659.1889
6716.9258
6294.7035
5652.0098
4489.5929
5305.0696
2988.8183
7363.1119
5598.7921
5198.5454
4617.0747
3430.2539
4319.0326
2021.043
6564.4972
4689.63
4459.8889
3774.4745
2666.2139
3507.566
1058.1392
5651.1992
3750.5328
3700.8868
3035.2195
2019.4035
2838.1154
409.81021
5024.234
3245.0634
3220.3758
2537.07
1664.5343
2198.9195
-29.922114
4507.7683
2599.6248
2836.6823
2125.9677
1255.5189
1807.85
-425.6387
4050.0503
2423.7211
2595.7895
1877.98
1119.0463
1515.5228
-680.79077
3647.6657
1952.5435
2392.5478
1491.8329
1009.3583
1201.0477
-747.44528
3345.9845
1912.5841
2452.1476
1566.9759
1089.4911
1163.9045
-713.31136
2995.6247
1604.4453
2333.0821
1249.4002
1082.5766
951.1699
-546.26583
2658.0507
1761.483
2285.5406
1417.8242
1256.0709
1090.347
-240.2916
2420.7736
1507.7244
2169.7094
1344.9688
1347.8967
1058.7991
48.629546
1814.1312
1451.323
1907.1208
1348.6617
1255.7855
1075.9261
354.6866
1658.219
1273.5712
1826.759
1323.8859
1397.6644
1233.9385
789.87932
1164.3511
1028.7053
1299.684
1057.8582
1091.2168
1044.5889
631.43797
671.53766
730.27447
1117.2989
1014.1452
1357.3169
1065.9533
1355.8601
25593.427
9968.8318
14773.212
14693.447
8112.049
6014.5246
13405.153
11018.468
13965.272
14358.646
15486.687
8159.78
9832.3822
1609.5657
26561.226
-874.53899
4034.3453
-5631.2886
534.31972
-8442.4286
3402.9849
10678.153
4036.0172
13721.363
7530.8985
4927.9533
11375.451
-3261.4017
15234.764
11592.694
12994.824
-3182.7519
11692.472
-10120.344
7672.4301
14295.563
5320.9606
2784.8297
7922.5543
2345.0402
7858.2299
2902.0812
14802.007
10111.023
17337.908
3293.053
11183.065
4452.137
6085.1056
15666.717
11693.796
7247.9691
9410.2509
7547.2224
9291.7944
5547.1141
16208.592
7364.0122
13512.222
7205.8411
10332.07
8072.1835
4719.4326
11693.18
11595.366
11316.499
7750.9679
8624.2591
8537.7213
7249.2677
12938.513
10891.117
11182.418
7883.6736
9432.8282
8310.8556
7705.4468
11901.302
11223.861
9693.948
9348.376
8236.506
10791.029
7241.7161
12361.324
10594.841
10595.687
8701.4476
10529.113
9899.0613
7660.11
10701.056
10434.885
12202.125
10203.193
8069.1396
10165.814
6156.8543
11833.006
12339.628
9298.8469
11269.795
7548.5098
10870.11
8770.3666
9770.5958
11443.599
8730.4176
11584.878
7076.0805
11263.298
8217.8358
11274.156
11579.213
9332.4018
12349.281
7803.7183
11411.927
9043.9202
9785.892
10901.865
9396.9695
11997.305
7593.7766
10837.135
8507.3974
10195.905
11923.223
9811.6715
12101.684
8060.0047
11165.088
9489.5165
10089.56
11198.74
9377.5355
11493.108
7896.1481
11063.555
8350.0079
9940.9161
11506.994
9521.3815
11610.488
8619.5213
10632.303
8538.1335
10425.163
11275.866
9265.8762
11370.007
7952.7338
10199.555
8220.7818
10380.656
11146.86
9436.9189
10897.185
8101.8364
10118.513
7975.1257
10718.443
10708.425
9552.093
10464.32
8362.4988
9658.8772
7306.8829
10848.569
10501.172
9729.6295
10230.5
8640.6631
9062.3015
6885.0069
10839.22
10648.324
9899.6344
9746.3687
8543.5684
8464.7914
6718.8315
11272.168
10280.644
9640.2723
9574.7528
8183.4981
8397.3716
5908.0121
10964.321
9928.004
9600.601
9062.8383
7970.9612
7846.7129
5274.7036
11140.048
9782.7236
9558.8396
8929.0532
7888.9479
7441.7416
5165.0597
10764.712
9492.4001
9251.0542
8450.525
7390.7719
6992.839
4887.9974
10572.52
9233.4683
9019.8966
8029.4018
7286.0673
6681.8327
4634.8359
10153.314
8821.7451
8564.2921
7736.3899
6861.4284
6290.2854
4314.4037
9852.3244