/*--------------------------------*- C++ -*----------------------------------*\
  =========                 |
  \\      /  F ield         | OpenFOAM: The Open Source CFD Toolbox
   \\    /   O peration     | Website:  https://openfoam.org
    \\  /    A nd           | Version:  6
     \\/     M anipulation  |
\*---------------------------------------------------------------------------*/
FoamFile
{
    version     2.0;
    format      ascii;
    class       pointScalarField;
    location    "0.33";
    object      p;
}
// * * * * * * * * * * * * * * * * * * * * * * * * * * * * * * * * * * * * * //

dimensions      [1 -1 -2 0 0 0 0];

internalField   nonuniform List<scalar> 
3969
(
657631.46
-928862.83
6992.5294
3215.0322
1203189.2
-1825659.6
3870.647
2084.9555
482359.36
350747.37
177223.01
9439.7691
-119598.25
-319170.55
-344090.84
-13648.707
-4757.8709
-4394.3687
127.12616
4969.0509
9434.9119
9833.5878
190104.29
214788.11
201519.31
206707.54
196592.92
190298.75
180193.62
170071.95
160009.75
149382.32
140161.72
131956.35
123460.71
116674.47
110356.06
104379.84
100224.24
96193.567
93306.914
90541.583
88648.793
86820.145
85262.608
84129.224
82465.52
81023.763
79101.645
77189.305
75337.097
72492.673
69803.74
66742.912
63376.599
60010.336
56601.374
53672.606
49749.699
46872.965
42604.078
40373.799
35420.369
32213.904
28910.688
23324.012
21587.237
17012.216
12576.146
-203781.86
-168940.35
-194874.58
-169158.33
-180157.38
-163507.19
-159565.7
-147061.77
-139466.56
-129408.41
-120573.87
-112958.94
-104682.01
-99080.07
-92836.268
-87750.302
-83658.652
-79749.887
-77312.579
-75023.88
-73168.075
-72370.474
-70923.477
-70426.482
-69506.433
-68436.978
-67257.061
-65821.784
-64583.096
-62597.196
-61106.107
-58506.674
-56193.334
-53225.986
-50509.63
-47349.442
-44672.37
-40680.346
-38503.533
-34395.657
-31323.237
-27554.298
-24192.368
-19465.407
-15180.409
-11935.957
-6581.6336
870600.63
665585.13
299385.63
1947.9331
-257951.44
-591326.5
-486509.97
-241345.8
-268854.73
-153796.8
-220038
-182099.43
-181162.73
-168869.78
-159698.43
-146531.99
-136151.44
-132964.94
-119386.74
-115897.45
-106633.98
-101546.93
-95975.312
-91208.39
-87541.785
-84184.94
-81383.715
-79869.229
-78331.143
-77283.121
-76213.656
-75825.215
-75152.395
-74041.686
-71964.488
-70452.878
-68206.381
-65455.142
-62731.4
-59585.568
-56406.217
-53414.547
-50068.923
-44642.189
-43619.541
-39820.471
-36437.94
-32696.059
-29274.036
-24761.732
-20403.924
-16407.067
-11551.513
-7891.8259
14578.037
8018.0106
4225.8945
4346.8616
-6396.1773
-5017.791
-13756.051
23529.282
19664.955
21410.001
26219.996
30672.214
34582.372
39055.753
42631.42
46583.514
49586.932
52188.638
59918.616
60661.241
64975.665
68548.31
72305.591
75210.43
78430.725
80843.4
82974.127
84975.638
86243.132
87564.792
88757.1
90029.258
91539.487
93225.777
95204.605
97998.307
101359.74
105563.2
109842.53
115199.68
121858.8
132308.23
137857.14
147393.67
155999.77
164314.15
177770.46
191523.52
192980.8
207834.88
212209.9
204212.38
225408.73
235513.19
547829.38
608936.82
640473.71
632165.41
622936.13
626597.84
513131.07
-754704.88
-953150.45
-1081146.9
-1155269.1
-1091351.4
-1077590.2
-852525.4
5047.3721
6011.3288
6404.595
7631.299
7109.4233
5591.046
5668.447
-1489.7915
660.04421
-331.83196
-874.42323
-350.23923
3787.322
-200.4514
167479.52
163475.45
159266.16
159254.04
154746.13
151001.95
143027.21
138107.16
128722.83
123506.1
115219.47
108281.71
102371
96721.531
91569.953
87464.668
83817.803
80535.115
77711.745
75490.88
73668.614
71894.496
70554.75
69314.833
68195.469
66429.823
64793.157
63150.26
60773.839
58453.681
55951.65
53196.667
50467.956
47685.11
44962.222
42053.025
38842.684
36598.775
33507.755
31232.434
27664.601
25732.739
21178.941
18396.59
15697.806
9261.62
4782.5301
110025.63
102770.05
100512.19
104456.63
101821.68
102300.68
97687.303
93298.644
88748.96
84528.022
79759.41
75531.664
70853.26
66874.837
63680.199
60402.049
57769.616
55255.981
53203.852
51342.642
49533.712
47945.354
46535.03
45244.776
43652.743
42542.256
41228.945
39121.062
37845.409
35878.029
34148.398
32390.241
30524.455
28899.038
27254.649
25570.663
24254.807
23015.326
20753.256
20030.434
17395.892
16415.466
13359.725
12967.796
9924.3064
5989.4098
858.51309
48691.264
53558.754
49479.611
53037.322
50070.704
52587.44
49654.081
49400.835
46279.715
44571.248
42327.267
40221.306
37982.451
35616.151
33370.655
32066.628
30763.567
29730.702
28833.55
28066.844
27603.067
27176.233
26600.274
25958.665
25497.764
24705.765
23779.245
23294.763
22362.664
21454.269
20600.008
19646.878
18700.503
17810.568
16945.782
15765.726
15093.347
13607.701
12893.024
11997.282
10464.121
10606.756
8166.223
8344.3314
5773.3009
2945.2512
1700.2628
3170.0779
2731.7241
-1006.4197
3850.2119
-273.32423
2521.25
803.81332
2439.9974
2384.8369
3520.2488
3392.1251
4005.776
3704.5363
4064.2646
4033.4602
4178.9082
4036.599
4200.5716
4026.9105
3780.0016
3586.4001
2910.2245
1908.4047
1725.3415
1392.7498
951.12557
792.82881
466.98308
258.63965
236.95155
223.07847
371.15811
455.434
695.19762
819.69301
1355.1623
1161.8036
1566.299
1901.4462
1591.1858
2161.6509
2282.0093
1555.0388
3166.3703
2331.2263
3684.8018
4000.4845
-53563.806
-48069.265
-47780.429
-48169.85
-49150.591
-45948.376
-44665.17
-41463.892
-39545.955
-35705.291
-33753.96
-30493.775
-29061.616
-26161.204
-24767.066
-22764.867
-21715.043
-20391.037
-19623.084
-18890.948
-17487.351
-16370.517
-16020.655
-14703.826
-15000.479
-15390.106
-14799.417
-14306.288
-13938.388
-13464.545
-12831.459
-12330.617
-11480.316
-11025.106
-9869.7647
-9483.3889
-8737.5857
-7627.0452
-7592.4547
-6577.6496
-6000.4191
-5557.6445
-4038.232
-2804.6937
-1937.8747
304.72949
2174.2237
-109268.25
-100185.2
-100758.37
-102050.13
-100529.53
-95709.503
-90800.343
-84649.254
-80091.294
-73148.948
-69418.059
-63632.746
-60405.074
-56642.927
-53607.663
-50430.004
-48236.581
-46038.192
-44549.22
-43210.724
-41587.342
-40739.408
-38412.644
-37281.85
-36382.64
-35923.509
-35541.824
-34836.753
-33982.917
-32957.215
-31996.705
-30592.596
-29260.483
-27532.427
-26294.388
-24365.826
-22823.774
-21398.42
-19644.437
-18083.837
-16686.555
-14788.88
-12106.783
-10151.16
-6940.9733
-2917.4657
3956.943
-186133.04
-130085.8
-150327.98
-146031.41
-145565.34
-137491.38
-131244.3
-123580.2
-116606.71
-107923.62
-102513.13
-95006.889
-89097.38
-83327.64
-78389.055
-73984.888
-70190.597
-67616.981
-65094.174
-63431.674
-61978.2
-60757.801
-59765.044
-59094.406
-58165.333
-57451.221
-57235.462
-55737.944
-54333.683
-52823.97
-51200.451
-49279.903
-47091.693
-44922.441
-42540.106
-39868.133
-37818.402
-35000.091
-32682.79
-29289.978
-26233.044
-22918.354
-19367.283
-16611.595
-12287.03
-7885.6562
-294.26128
402345.92
373016.93
390603.63
390829.83
391742.44
381221.11
352387.59
257800.47
298664.08
278295.9
288930.04
285527.64
279275.67
263979.33
129777.56
152531.6
131802.73
144220.9
135701.46
135572.06
140527.74
29487.757
16559.261
9966.7368
22943.607
15583.438
3247.6266
43704.705
-66033.408
-68423.169
-75551.186
-65395.452
-70244.671
-65912.082
-38001.644
-239461.9
-261959.92
-257670.8
-265976.89
-271515.14
-263457.7
-254460.85
-304324.68
-266514.09
-242979.76
-247872.81
-230796.78
-215880.91
-236436.11
-333358.27
-342748.1
-382777.5
-397998.82
-405724.86
-396779.68
-311504.8
-251872.4
-296108.71
-295318.45
-300214.36
-315510.99
-296913.87
-270952.98
-193694.48
-217592.28
-229728.42
-232698.01
-228691.76
-212432.12
-227473.6
-194353.11
-213467.69
-208071.81
-220997.02
-212525.12
-211537.78
-195142.58
-187585.5
-197762.86
-202826.76
-202734.77
-202245.12
-193264.62
-195509.94
-176164.69
-172408.2
-174488.8
-178372.77
-176648.5
-173071.39
-171460.36
-163541.96
-166816.49
-169203.25
-170919.75
-169091.3
-170284.33
-169569.36
-155349.36
-152436.04
-152217.01
-153785.73
-151652.03
-153612.09
-152921.53
-143985.38
-143160.68
-143443.48
-143641.36
-143819.18
-145032.62
-145576.02
-135664.47
-132738.09
-131779.11
-133045.57
-131943.08
-132336.25
-132777.22
-125955.28
-124141.05
-122771.14
-123510.14
-122559.08
-123095.49
-125597.92
-117205.65
-115148.56
-114000.01
-115243.82
-114111.22
-112626.47
-115898.2
-109894.18
-105976.73
-107256.42
-105928.84
-106962.39
-106399.72
-109405.93
-101670.11
-99553.763
-100363.17
-98950.522
-100434.04
-98816.802
-101563.19
-96163.568
-93129.291
-94336.947
-92756.658
-94057.903
-93088.837
-95926.813
-90353.806
-87575.211
-89017.331
-87537.949
-89381.954
-88428.723
-91036.209
-85526.81
-83578.223
-84660.491
-83318.239
-85274.153
-84112.871
-86295.408
-81811.371
-80120.647
-81513.286
-79990.302
-82119.229
-80597.291
-83030.225
-78892.333
-77691.126
-79076.874
-77355.072
-79585.741
-77964.38
-80445.091
-76644.732
-75769.524
-77216.532
-75542.326
-77885.088
-75987.572
-78375.778
-75283.827
-74445.435
-75992.794
-74223.096
-76553.904
-74462.765
-76860.059
-74120.972
-73592.933
-75121.134
-73506.001
-75767.718
-73382.306
-75889.324
-73508.99
-72997.981
-74737.263
-72958.69
-74941.487
-72605.065
-75032.249
-72772.015
-72871.411
-74109.549
-72336.21
-74694.955
-72138.148
-74701.855
-72164.773
-72782.558
-73002.226
-72483.183
-73917.296
-71692.585
-74006.672
-71218.157
-72293.865
-71615.189
-72622.616
-73483.051
-72090.837
-73655.914
-71258.165
-71274.599
-71376.691
-71578.979
-72131.15
-70999.943
-72552.06
-70385.962
-69870.336
-70395.206
-70396.535
-70798.262
-69953.364
-70667.468
-68725.931
-68256.774
-68954.284
-68602.483
-68758.747
-68425.734
-68617.254
-66898.185
-66270.561
-67213.896
-66514.566
-66973.052
-66397.589
-66368.82
-64500.971
-64158.703
-64707.062
-64122.57
-64268.108
-63689.577
-63581.314
-61953.077
-61327.12
-62037.137
-61322.185
-61438.182
-60889.486
-60816.981
-58940.582
-58571.476
-59031.492
-58328.144
-58352.165
-57815.87
-57633.872
-55866.612
-55366.487
-55798.236
-55117.355
-54987.973
-54501.363
-54354.939
-52430.229
-52100.971
-52441.366
-51715.552
-51593.591
-51142.402
-51044.178
-49114.5
-49150.661
-49140.827
-48776.162
-48378.297
-48222.028
-47778.9
-46224.928
-45268.25
-45988.846
-44825.791
-44964.08
-44510.761
-44128.358
-42612.02
-42668.444
-42149.515
-42182.421
-41397.697
-41242.409
-41067.022
-39205.858
-39216.915
-39011.177
-38739.416
-38214.01
-38164.963
-37877.165
-36334.527
-35869.771
-36176.658
-35496.987
-35169.624
-34944.727
-34804.213
-32590.378
-32828.698
-32570.185
-32147.242
-31804.571
-31449.154
-31204.175
-29070.328
-29130.594
-28816.811
-28733.602
-28134.554
-27799.053
-27623.446
-24902.813
-25734.769
-25311.805
-25477.415
-24458.642
-24212.116
-23881.576
-20741.727
-20993.064
-20814.453
-20579.611
-19861.582
-19719.001
-19149.203
-17342.402
-18670.477
-18157.599
-18356.636
-17567.104
-16712.515
-15942.58
-14388.703
-14499.587
-14519.832
-14346.144
-13464.313
-13442.43
-12446.205
-11110.243
-12018.126
-11888.853
-10967.703
-11994.046
-10969.572
-9574.6848
-20983.909
-23753.461
-26682.659
-26783.314
-25680.043
-24382.495
-21645.442
-10519.773
-11493.841
-12389.436
-12934.313
-12455.551
-10750.288
-8837.6168
-8433.117
-9860.045
-11056.19
-10881.066
-10544.302
-8464.8455
-7443.2837
1291.4061
1775.7864
1551.021
1595.3631
2224.665
1671.3187
2708.9192
7111.7708
7393.018
6837.7094
8241.0569
6876.8938
6827.9118
6434.1087
12676.78
15938.472
16745.751
16923.46
17972.194
15035.295
14181.609
17486.127
17818.187
19815.881
19646.736
18844.953
17770.362
15402.044
243612.71
248250.45
274352.23
270657.28
276726.28
261888.92
250422.48
245042.46
255225.38
266470.25
265143.24
269071.1
250979.1
247760.98
228827.63
234461.69
241227.44
242405.35
242436
227459.27
227597.84
213648.39
221848.18
227942.18
230364.9
227706.09
221490.54
219937.96
205038.24
207753.05
210422.85
211807.56
212339.96
206569.5
204716.54
192057.21
194018.21
198346.4
195931.31
198149.62
193224.94
194431.52
182948.74
183230.51
185274.54
184208.97
188127.79
184243.87
186772.13
170430.35
170300.53
173105.37
169433.26
173198.25
170166.35
172712.03
161120.22
160928.89
162162.2
161003.69
164569.79
160897.82
165850.75
150972.03
149529.32
151402.06
148755.61
152608.39
150025.21
154392.97
141609.37
140134.45
142646.68
139572.29
144027.75
141047.79
144964.94
132196.91
131872.67
132484.05
130386.26
133604.54
131565.37
135832.87
124902.1
122998.11
124193.51
122351.44
125342.08
123867.43
125257.04
117187.77
116258.94
116243.73
115519.57
117831.7
116953
120277.16
110791.92
109736.55
109319.99
109339.7
110652.98
110129.37
113031.8
106099.72
103946.08
104516.62
103537.73
105778.54
104889.69
106830.87
101110.45
99578.82
99521.724
99423.259
100408.01
100037.95
101804.04
97583.912
95584.969
96269.317
95409.659
96682.79
96329.477
97903.694
94251.323
92779.34
93145.905
92408.503
93609.386
93160.517
94621.64
92166.881
90219.34
90842.311
90054.092
91232.705
90633.615
92048.968
90303.829
88203.083
89118.004
88231.672
89368.625
88660.336
89978.383
88803.003
86673.137
87797.123
86789.661
87888.668
86952.742
88466.395
87693.86
85442.213
86840.107
85663.211
86766.961
85765.533
87226.001
86589.263
84394.978
85839.903
84615.635
85709.156
84428.614
86117.401
85671.661
82900.574
84970.255
83430.739
84614.672
83282.938
85086.146
84497.507
81501.605
83939.861
82299.654
83466.89
82164.793
83828.663
83001.536
80149.67
82459.584
81110.913
82008.794
80764.351
82658.457
81552.456
78390.777
80780.901
79469.335
80378.393
79160.794
80891.945
79123.814
75935.905
78911.135
77307.195
78191.173
76980.608
78722.356
76686.149
73794.928
76277.424
74893.804
75745.355
74697.316
76271.179
73955.364
70699.338
73458.811
72044.9
72813.77
71750.311
73342.433
70596.444
67636.315
70140.773
68806.242
69425.18
68594.194
69955.374
67326.493
64220.067
66702.384
65259.201
65866.049
65140.595
66626.838
63697.471
60809.885
62956.697
61760.366
62209.598
61710.737
62789.674
60096.324
57145.932
59295.148
58042.056
58248.151
58078.952
58819.255
56172.453
53967.116
55463.066
54237.824
54462.259
54079.379
54652.775
51976.083
50206.351
51092.254
50838.887
50398.883
51072.126
51586.051
49233.649
47950.07
47789.275
47781.353
47401.993
46647.995
48183.372
45152.576
43484.948
44395.704
43567.677
43845.589
43311.205
44304.814
42162.415
41128.939
41377.988
40752.068
40573.536
39596.942
40875.887
37489.146
36244.885
36654.198
36135.609
36089.657
36059.625
36796.46
34385.545
33569.736
33898.593
33281.924
33359.202
32322.79
33098.037
30172.179
29810.272
29779.861
29645.656
28978.482
28250.739
28457.853
24884.399
24655.966
24855.956
24582.814
24338.655
23408.384
24492.11
22956.172
24668.558
25032.32
25178.2
24404.144
22885.657
21771.323
19409.541
19791.284
19615.618
19370.345
19539.237
19499.919
17696.25
23447.718
26229.035
27359.106
27991.458
28010.51
27878.936
25874.002
244081.68
178440.98
173800.46
165945.66
168698.08
165562.73
155180.11
149914.39
142543.12
134608.94
126918.19
119093.49
111411.7
105388.82
98900.492
94249.289
89486.285
85689.012
82559.099
80025.971
77879.896
76057.151
74574.626
73184.456
71715.132
70065.215
67975.745
66035.201
63649.606
61083.819
58353.105
55573.296
52626.855
49725.008
47518.691
43493.821
41556.831
39264.76
36113.965
33245.076
30450.275
27200.706
24256.921
20362.259
16523.49
11153.49
3462.4867
152231.61
145949.88
99923.516
117233.88
126727.94
114155.52
117330.64
107640.53
104024.04
97630.568
92142.216
86237.913
80099.922
75811.642
71434.42
67998.387
64339.752
61342.967
59391.167
57356.35
55856.493
54794.429
53852.502
52914.161
52155.115
50751.011
51122.449
49587.902
48571.54
47334.809
45747.608
44165.803
42134.242
40480.107
37941.4
36057.779
33694.301
31602.367
29668.532
27232.072
24998.486
22258.539
19688.449
16368.391
13363.84
9144.0679
3145.2341
74852.112
80975.763
42080.656
70544.693
58178.151
54466.314
54471.277
51808.53
49279.09
46697.403
46178.863
43798.17
43545.736
41269.411
39822.479
38766.979
37027.757
35710.606
34770.26
33347.667
32566.603
31813.016
31047.006
30464.284
29828.714
29239.161
28633.358
27545.395
26757.36
25693.236
24611.353
23493.906
22328.273
21139.187
19759.915
18848.066
17427.053
16381.339
15119.214
14060.171
12874.772
11404.493
9941.6075
8259.0645
6633.6676
4742.0142
-637.44968
3971.0152
22949.922
1774.4118
16601.546
5538.0329
13286.032
10112.998
5091.105
9048.8207
8114.59
7352.1607
9180.9091
7600.2321
10201.869
10057.832
10269.439
9859.5709
9864.2605
9659.5373
9494.7702
9451.9293
9448.4043
9423.4863
9537.0912
9464.7525
9513.5045
9471.4211
9655.3768
9523.9145
9570.8043
9410.1567
9407.7891
9071.85
8844.34
8348.5116
8228.8107
7404.1078
7162.7271
6665.6612
6306.1641
5782.8771
5398.7957
4854.5561
4203.2787
4198.476
2650.1359
576.58857
-85870.847
-38900.534
-50389.869
-29129.894
-42836.613
-28076.253
-35887.186
-30615.794
-26490.16
-27007.403
-22302.941
-22011.359
-19693.497
-19202.187
-17105.469
-16100.328
-15125.872
-14480.084
-13742.4
-13333.434
-13038.713
-12677.968
-12518.36
-12414.169
-12383.747
-12567.584
-11798.876
-11389.748
-11051.878
-10754.933
-10422.457
-10084.794
-9716.1777
-9261.1168
-8991.7537
-8423.2616
-8270.178
-7342.8089
-7241.5961
-6398.0596
-5947.3415
-4989.4333
-4442.6578
-3331.4926
-2095.2909
-684.52681
1264.1918
-137352.45
-103414.9
-85414.729
-85302.593
-87529.956
-81158.469
-81857.23
-69762.388
-72862.515
-67210.423
-65022.734
-59893.581
-55886.557
-53006.937
-49898.465
-47204.276
-44894.181
-42728.147
-41220.483
-40232.603
-39575.416
-38726.096
-38136.702
-36562.11
-34768.084
-32441.56
-31793.641
-30470.038
-29422.365
-28164.048
-27097.413
-25771.926
-24559.146
-23285.687
-22040.8
-20781.284
-19349.71
-18289.415
-16835.165
-15202.948
-14034.98
-11907.055
-10432.226
-7975.7991
-5761.8241
-1787.9772
1313.3454
-180822.69
-139762.78
-147851.57
-135435.52
-147196.32
-135372.63
-130677.72
-123261.36
-117149.38
-107887.98
-101564.8
-96248.876
-89523.901
-84479.844
-79230.879
-75697.807
-72448.962
-69774.916
-67955.136
-66025.138
-64387.304
-62894.888
-61365.92
-59654.031
-58184.784
-55133.806
-53668.736
-51952.621
-50433.099
-48881.289
-47264.401
-45315.363
-43740.807
-41570.858
-39839.873
-37685.806
-36362.259
-33464.734
-31321.816
-29000.528
-26527.633
-23521.831
-20995.202
-17524.089
-13054.728
-9280.3795
-3188.6838
302196.61
325230.38
323450.19
333207.99
332165.24
314252
290698.79
200921.05
234853.08
233519.22
240551.48
234248.72
222456.94
206481.68
190529.35
207218.72
219870.5
221217.55
215549.16
215601.95
200504.27
174418.49
180005.22
184197.54
188943.38
183438.3
183902.44
169072.98
165968.11
171957.78
178690.27
176338.06
176084.66
172976.68
162037.26
157649.21
164401.84
160544.72
167311
161914.1
161966.81
160711.76
150784.41
152497.36
152060.86
153382.26
149755.59
151850.04
149137
141554.54
147240.58
142103.53
147575.71
144904.48
143522.39
143328.2
135566.57
136372.3
132203.78
137173.62
131868.5
135847.86
134586.19
126420.65
128813.45
125907.13
129681.53
125935.9
128400.74
126843.6
119575.92
121171.64
117125.78
120927.45
117601.53
119882.49
119706.57
113381.8
112966.28
111413.48
113356.58
111775.3
112448.07
112899.85
106306.73
106816.78
104454.65
107236.66
104887.04
106570.52
107380.16
100555.36
99659.674
98971.579
100726.14
98293.473
99966.436
99980.627
95489.996
94535.466
94311.641
94410.705
93621.872
94765.793
94989.205
90152.046
89938.195
89363.89
89979.336
88686.48
89123.001
89740.684
86073.67
85634.619
85156.412
85712.011
84526.622
85399.497
85897.858
82462.628
82495.747
82019.146
82093.571
81192.074
81822.634
81900.548
79679.734
79847.944
78941.621
79351.424
78420.28
78797.792
78836.327
77256.255
77486.334
76776.871
77136.548
76061.637
76518.025
76439.722
74847.583
75958.276
74928.655
75289.447
74197.245
74614.528
74426.958
73098.956
74562.166
73269.567
73699.449
72619.681
73104.741
72836.43
71324.363
73293.939
71677.085
72328.456
71249.971
71854.811
71291.596
69490.55
71775.352
70082.875
70906.926
69885.284
70403.902
69918.496
67164.701
70700.728
68533.176
69705.307
68465.679
69370.879
68676.655
65615.338
68999.57
67019.245
67726.346
67292.889
67461.742
67360.463
63544.44
66892.294
65138.153
65894.186
65381.777
65787.469
65391.267
60780.016
64298.862
63399.199
63489.545
63179.733
63664.519
63422.738
58112.938
62842.965
60264.114
61144.373
60942.428
61354.79
61303.304
55690.898
59488.472
57966.839
58596.846
58305.589
58697.346
58746.574
52610.715
57026.194
55119.495
55638.429
55557.134
55881.084
56160.575
49988.703
54157.687
52433.855
52898.612
52815.815
53185.084
53414.101
47279.087
51356.113
49684.263
49956.431
50203.414
50303.66
50745.277
44726.645
48631.802
46985.828
47289.842
47398.95
47523.531
47625.748
42251.449
45681.397
44487.676
44386.661
44953.117
44499.861
45259.565
39825.234
43258.865
42061.337
42024.877
42421.325
42688.715
42438.14
38180.78
40566.191
39699.55
39128.253
40551.592
39316.161
40773.378
35767.409
37592.895
37949.85
37044.552
37202.611
37512.262
36933.209
33463.379
35085.593
34426.808
34780.04
34740.544
35084.053
34708.447
30611.644
32631.802
32115.053
32389.721
32026.449
32420.823
31970.053
28737.242
29668.72
29800.809
29462.793
29585.414
29686.57
29155.339
25578.136
27285.101
27217.256
27250.549
27364.733
26929.155
26401.22
22685.12
23012.429
23463.661
23201.121
23177.302
23279.699
23152.311
20165.674
20979.383
21978.315
21392.077
22001.71
21680.108
20648.654
15838.543
16308.048
16499.102
16412.366
16564.444
16659.32
16115.487
10550.107
10396.893
11844.497
10684.16
11494.307
11334.102
10209.209
4083.9253
1932.7652
1866.317
1845.0226
2227.35
1528.2126
3879.7253
193977.09
203244.1
222959.96
218914.89
225963.06
207986.03
202650.5
145925.99
187244.19
190550.58
197399.35
196012.8
181212.06
167209.97
141270.18
132408.85
148208.35
143364.12
149936.12
133476.16
137367.89
116771.78
124758.13
132573.53
130944.1
132852.9
128664.01
112409.83
117745.95
119497.99
126311.3
122560.68
128824.12
117735.29
119719.9
108894.67
109203.52
111556.27
110143.88
109049.28
111627.99
110120.72
104467.2
105324.79
111600.73
106702.45
111230.57
109554.32
106374.06
98866.062
97970.358
99841.272
97715.744
100577.48
98271.063
102167.67
94177.885
92440.177
97698.842
93817.348
95307.223
96189.562
96777.618
88093.068
87621.94
90090.709
85965.047
89915.067
88930.166
91462.635
83400.628
82447.027
84529.876
82150.175
84040.613
84277.745
86023.456
78641.94
77053.219
80357.941
76468.008
79941.992
78843.566
82237.4
73957.869
72744.05
75370.903
71244.943
74469.537
73108.499
75598.279
69767.688
69080.074
70669.26
67469.585
70109.536
69433.044
70424.557
66000.696
65806.928
65775.71
63388.407
65740.156
64999.827
66024.948
62822.386
62174.921
62000.755
60636.639
61868.025
61901.747
62183.094
59737.975
59261.886
59084.506
57429.99
58665.654
58910.392
59732.3
57190.967
56903.572
56288.618
55231.988
56157.032
56393.036
56551.202
55357.106
54517.162
54262.873
53161.189
54039.16
54086.475
54577.858
53494.845
52780.39
52686.395
51619.357
52341.348
52390.913
52898.681
52369.03
51355.487
51365.313
50230.709
51027.871
51073.146
51535.366
51450.448
50154.347
50213.519
49274.007
50099.89
50066.048
50333.057
50644.102
48874.343
49366.947
48466.847
49347.033
48999.216
49498.204
49678.113
48025.554
48779.061
47896.493
48658.267
48344.385
48891.406
48805.452
47201.191
47946.141
47083.44
48035.485
47515.078
48014.439
47653.529
46352.047
46582.574
46995.616
46804.199
46605.549
47484.241
45892.797
45308.851
45761.158
45249.113
46252.473
45453.253
46072.549
45140.925
43989.328
44589.543
44404.823
45128.146
44642.902
45000.951
43249.005
42497.042
43456.977
43062.079
43996.042
43289.936
43565.312
41650.742
41137.321
41768.842
41752.027
42347.797
41989.507
41998.159
39868.706
39596.076
40294.474
40270.034
40847.356
40512.081
40403.386
38001.725
37993.156
38472.043
38672.41
39123.994
38988.474
38572.332
36244.75
36293.872
36737.876
36970.216
37444.97
37063.094
36625.075
34373.026
34493.065
34880.331
35304.149
35409.066
35194.411
34868.598
32383.94
32886.72
33212.782
33464.934
33824.167
33613.438
33247.703
30726.086
31265.69
31234.055
31839.186
31887.465
31342.697
30906.044
28591.046
29392.468
29462.96
29874.999
29945.194
29461.513
29429.246
26741.094
28071.103
27719.696
28359.494
28056.01
27888.517
27253.774
24937.482
25555.089
26098.528
25946.709
26418.744
25984.341
25352.159
23145.575
24616.941
24600.244
24632.045
24467.832
24082.668
23140.429
21381.329
21908.721
22440.918
22103.562
22627.917
21991.066
21172.564
19079.587
20569.546
20358.499
20522.228
20388.927
19727.499
19246.313
17333.304
17691.961
18135.675
17867.125
17875.941
17479.762
16810.171
15091.263
16061.79
15996.946
15859.956
15995.029
15358.188
14629.968
10884.126
12091.011
11948.251
11975.196
11801.639
11246.783
10214.661
7374.2427
7909.7952
7195.0176
7317.5829
7421.9062
7308.3611
6363.6387
2295.4934
100.04264
-1029.7793
-774.56139
-530.54654
-179.47309
904.36759
115178.37
116083.9
112741.09
121979.24
117473.68
110044.86
105268.87
78773.995
113640.41
106857.47
116079.66
103296.14
103427.55
89851.2
78110.001
70053.46
75169.702
77374.165
72922.607
68125.738
68470.717
57585.48
70030.75
74935.469
80183.781
72328.303
76433.992
61045.661
63683.948
61086.168
64143.008
60317.275
62061.675
55944.983
59925.948
55303.671
61507.63
57356.308
59762.149
58361.204
58882.238
56932.467
54717.299
58083.408
51975.495
55023.717
55722.032
52488.092
53879.076
51347.003
57796.42
49082.962
53975.411
51173.882
50275.219
52473.582
50637.302
55043.301
46477.782
49935.41
48741.206
49106.361
49529.985
47737.846
52185.424
43294.42
47167.653
46735.345
46258.301
46931.271
45598.122
49785.655
41474.487
45785.128
44124.49
44543.121
44316.67
42652.702
46899.755
38670.808
42340.721
41418.858
41569.286
42017.329
39790.247
45133.617
36832.21
40777.444
39937.703
39840.331
39950.776
37738.063
41700.406
35889.672
38635.324
38399.235
36608.189
39447.673
36636.589
38515.141
34081.486
36727.121
36333.268
35363.081
37059.43
34520.435
36389.44
33135.73
34566.482
34903.313
33582.193
35500.957
32863.694
34962.259
31835.988
33396.626
33243.658
32345.64
33688.152
31744.777
33477.789
30811.378
32203.922
32038.805
31319.365
32123.015
30502.839
32510.661
29987.909
31234.441
30955.446
30176.509
31063.04
29652.558
31709.744
29252
30445.362
30046.662
29536.277
30263.771
28785.699
30951.705
28670.554
29703.755
29421.258
28885.264
29344.589
27965.743
30108.743
28103.562
29187.665
28887.83
28151.986
28792.63
27198.522
29475.8
27735.74
28811.005
28153.783
27697.064
28305.477
26356.445
28718.757
27156.868
27973.049
27440.539
27175.952
27546.508
25677.591
27925.306
26522.513
27305.866
26814.533
26572.758
27026.159
24842.827
26719.599
25946.005
26295.708
26027.986
25987.738
26412.975
24140.265
26100.035
25023.952
26029.598
25072.23
25550.054
25726.373
22916.904
25638.244
24026.536
25000.768
24495.369
24401.629
25409.27
21912.355
24434.377
23120.41
23938.237
23682.997
23447.785
24812.67
21155.476
23489.8
22253.119
23148.998
22793.115
22559.809
24026.863
20225.425
22417.873
21308.56
22110.545
21806.812
21619.638
23189.58
19364.544
21467.415
20342.216
21138.174
20903.195
20602.179
22092.566
18672.785
20351.371
19472.6
20175.188
19909.992
19448.849
21320.003
17801.233
19399.712
18664.259
19212.747
18979.283
18779.128
20286.577
17199.088
18443.171
17786.497
18178.525
18127.16
17432.036
19206.474
16371.509
17281.788
16839.617
17324.909
16986.237
16776.408
18094.435
15904.206
16478.454
16258.678
16268.623
16421.196
15514.58
17568.847
14850.014
15458.946
15054.343
15610.378
15205.834
14979.46
16206.633
14418.864
14637.185
14345.823
14265.051
14485.801
13610.967
15188.844
13299.348
14179.631
12868.161
14085.942
13310.951
12953.38
13897.279
12563.816
11846.97
11796.425
11896.064
11880.112
11429.495
12828.904
11430.353
12344.712
11408.585
12246.635
11647.182
11036.021
11575.72
10682.533
9089.8133
9169.5223
9147.9704
9154.9492
8703.5875
10309.232
8985.709
8971.9278
9164.0451
9373.1066
9211.3938
8836.1066
8931.4313
6734.7892
5388.4436
5631.5114
4915.0539
5474.4089
4772.1804
5797.9802
5014.7539
3883.1461
3465.4703
3356.5531
3894.5443
3441.4984
5235.2554
2023.7766
-1446.002
-1120.3429
-1610.7682
-1706.9539
-1880.5108
-350.53068
12188.432
6312.1064
11791.262
11864.678
10461.667
9742.1955
15994.145
3826.3162
11038.013
10853.196
15154.244
10890.507
13051.259
7205.5388
14331.674
-1689.3589
3361.0148
-1246.5175
2650.8966
64.437029
8770.2401
2986.4866
1738.7135
10630.112
7500.9131
7213.6787
12116.418
1881.3829
8369.5741
8111.7394
8559.6513
-569.26426
8548.975
-3069.5778
10338.078
6349.6943
2576.2294
2086.1485
4655.0193
4196.0137
6950.7339
4807.8749
6204.5562
7173.0793
10303.508
5413.1536
9126.1923
4962.6328
9183.7438
6906.1665
5213.7124
4460.0939
5737.9534
4906.6307
7014.9218
7395.0666
5675.2575
4949.1585
7835.3908
5102.7437
8067.5759
7213.8238
5643.0414
5508.0132
6361.4326
6438.2232
5283.7767
6388.3806
5798.083
7639.0281
5605.3174
5461.6275
6123.96
4671.5946
5671.7697
6411.0033
6795.669
5146.7283
5684.6973
5777.7096
5277.6412
5938.503
7025.7166
6485.1027
5833.7568
5001.2473
5823.2698
4586.9941
6276.0534
5639.0726
6969.0459
5760.4022
4596.2183
7843.6823
5181.6091
4806.1263
6200.8498
5291.5486
6232.6985
6598.5787
4618.8779
5478.1836
4810.7218
5734.9646
6295.6758
5605.0193
6345.7442
4352.2526
5995.0511
4155.5228
5733.2178
6088.2453
6116.084
5830.5414
4628.8469
6174.3065
4133.3128
5556.2202
6377.8131
5716.1461
5943.3798
4655.9182
6031.0205
3976.5464
5585.4226
6041.0602
5982.6787
6017.6663
4687.6779
5890.394
4077.452
5411.9311
6012.637
6032.1661
5934.1543
4574.6283
5810.1675
4033.5977
5525.2642
5695.1242
6061.0745
5835.919
4576.112
5683.0332
4227.7336
5313.0382
5606.687
6067.5259
6026.9743
4563.6026
5765.8898
4130.4648
5425.5498
5593.4021
5926.3961
5953.5359
4681.5616
5331.9956
4206.5321
5366.1034
5525.611
6010.6079
5846.6935
4724.1314
5253.8242
4483.6567
5499.1692
5651.3716
5584.9934
5713.408
4804.8741
5137.6655
4887.5888
5442.4401
5785.9314
5349.2985
6197.5628
4799.7793
5514.7845
5192.9339
5539.2973
5995.2927
5468.2491
5825.5261
4936.9586
5391.2043
5262.6754
5712.3942
5801.1313
5183.5248
5757.6973
4967.5467
5408.2942
5296.5405
5930.664
5864.6592
5183.401
5750.882
5029.7902
5840.5233
5629.1154
6246.5841
6073.9528
4930.5882
5803.8967
5184.9245
5852.7274
5664.5994
6390.2242
6078.0713
4825.8482
5833.4243
5206.3052
6100.8018
5902.0665
6585.2518
6082.8645
4769.9729
5846.6138
5368.114
6278.0648
5879.9426
6741.6459
5993.8325
4658.5666
5908.3194
5486.1139
6334.1734
6091.6693
6928.8028
5943.7941
4820.018
5971.4594
5518.3101