/*--------------------------------*- C++ -*----------------------------------*\
  =========                 |
  \\      /  F ield         | OpenFOAM: The Open Source CFD Toolbox
   \\    /   O peration     | Website:  https://openfoam.org
    \\  /    A nd           | Version:  6
     \\/     M anipulation  |
\*---------------------------------------------------------------------------*/
FoamFile
{
    version     2.0;
    format      ascii;
    class       pointVectorField;
    location    "1.7";
    object      u;
}
// * * * * * * * * * * * * * * * * * * * * * * * * * * * * * * * * * * * * * //

dimensions      [0 1 0 0 0 0 0];

internalField   nonuniform List<vector> 
625
(
(0 3.2649732e-19 0)
(0 2.938214e-19 0)
(-1.0854183 -0.2464355 -0.15370971)
(-1.1141938 -0.0081579173 -0.15653573)
(0 4.2335592e-19 0)
(0 2.2976923e-18 0)
(-1.1178164 0.018293175 -0.15688578)
(-1.0890153 -0.21997158 -0.15410029)
(0 -4.9630733e-20 0)
(2.2819372e-19 -5.3005362e-19 0)
(0 1.0843787e-18 0)
(-1.0926274 -0.18680066 -0.15441132)
(-1.0997699 -0.12725857 -0.15510581)
(-1.107005 -0.067734187 -0.15584331)
(-0.0039756571 -0.015428422 -0.013102455)
(-0.013801053 -0.029668418 -0.014703759)
(-0.028767214 -0.045395531 -0.017934889)
(-0.051785815 -0.059553402 -0.02148333)
(-0.077856312 -0.073008636 -0.026097847)
(-0.11113234 -0.086251062 -0.031342092)
(-0.14715366 -0.098528644 -0.037480637)
(-0.18821702 -0.11001697 -0.043861754)
(-0.23242049 -0.12166847 -0.050850907)
(-0.27996938 -0.13183479 -0.057878313)
(-0.33007156 -0.14229557 -0.065099268)
(-0.38261222 -0.15185643 -0.072421891)
(-0.43707438 -0.1611929 -0.079656952)
(-0.49305395 -0.17000702 -0.086860533)
(-0.55035607 -0.17855617 -0.093923441)
(-0.60854583 -0.18671185 -0.10088449)
(-0.66747231 -0.19465682 -0.10769196)
(-0.72685481 -0.2023267 -0.11440316)
(-0.78653651 -0.20987464 -0.12097945)
(-0.84635298 -0.21726425 -0.12753977)
(-0.90623247 -0.22459717 -0.13402546)
(-0.96604203 -0.23187025 -0.14055046)
(-1.0257985 -0.23913304 -0.14709641)
(0.0019944646 0.0086267563 0.013919992)
(-0.012056412 0.019296954 0.0075026255)
(-0.029528525 0.029431919 0.0053691069)
(-0.0540898 0.038709062 -0.0015854617)
(-0.083594477 0.045343648 -0.008024549)
(-0.11967446 0.052581599 -0.015875971)
(-0.15847188 0.056464609 -0.023782147)
(-0.20249212 0.06018213 -0.032537446)
(-0.24950261 0.062187734 -0.041107751)
(-0.29924077 0.0626515 -0.050117893)
(-0.35183832 0.062300103 -0.058975227)
(-0.40612391 0.06065764 -0.067779362)
(-0.4622379 0.057998203 -0.076431935)
(-0.51949478 0.054548023 -0.084807936)
(-0.57780514 0.050204591 -0.092992972)
(-0.63670592 0.045256204 -0.10082918)
(-0.69615105 0.039698918 -0.1084634)
(-0.75580955 0.033664619 -0.11576402)
(-0.81565062 0.027249508 -0.12291561)
(-0.87546487 0.020504889 -0.12979202)
(-0.93531742 0.013545325 -0.13661259)
(-0.99500574 0.0063967429 -0.14326343)
(-1.0546706 -0.0008622871 -0.14991654)
(0 2.9644733e-19 0)
(-4.0510929e-18 -8.7165878e-19 0)
(0 2.2091945e-18 0)
(-0.005141671 0.0083231707 -0.010933895)
(-0.017668872 0.034884231 -0.01606747)
(-0.034088404 0.040670702 -0.016781121)
(-0.05842003 0.057256414 -0.021330446)
(-0.088803804 0.067791815 -0.027345719)
(-0.12356734 0.076435647 -0.031938645)
(-0.16292968 0.083217758 -0.039146348)
(-0.20702091 0.088822504 -0.045787575)
(-0.2533867 0.091354066 -0.052973032)
(-0.30388527 0.093430985 -0.060476724)
(-0.35566355 0.092764255 -0.06783511)
(-0.41035922 0.091592578 -0.075380556)
(-0.46604193 0.088514198 -0.08270579)
(-0.52336457 0.084754374 -0.090018879)
(-0.58145548 0.079854896 -0.097123055)
(-0.64032696 0.074333132 -0.10412671)
(-0.6996441 0.068148154 -0.11094004)
(-0.75928463 0.061562669 -0.11765834)
(-0.81907288 0.054636866 -0.12425137)
(-0.87893159 0.047493568 -0.13077438)
(-0.93875976 0.04023998 -0.13726845)
(-0.99854644 0.032921484 -0.14376182)
(-1.0582213 0.025595033 -0.15028255)
(-1.1106077 -0.041296846 -0.15616845)
(-1.1033477 -0.10087352 -0.15547273)
(-1.0962194 -0.16038396 -0.15479408)
(-1.0294381 -0.21268071 -0.14748522)
(-0.96976001 -0.20540665 -0.14090312)
(-0.91010718 -0.19795808 -0.13428845)
(-0.85041297 -0.19038955 -0.12757208)
(-0.79079715 -0.18259418 -0.12073142)
(-0.73132564 -0.17455951 -0.11370609)
(-0.67212419 -0.16627308 -0.10644615)
(-0.61336011 -0.15766532 -0.098954837)
(-0.55523188 -0.14881487 -0.09116972)
(-0.49795944 -0.13962052 -0.083145129)
(-0.44182035 -0.13022528 -0.07482024)
(-0.38718404 -0.12051426 -0.066363062)
(-0.33421202 -0.11074448 -0.057623713)
(-0.28347454 -0.10062948 -0.048940634)
(-0.23565908 -0.09050119 -0.040245564)
(-0.19032911 -0.080127477 -0.031708767)
(-0.14851992 -0.070469151 -0.023096357)
(-0.11090881 -0.059652665 -0.015598191)
(-0.07764566 -0.049794648 -0.0076915947)
(-0.049439418 -0.039187922 -0.0018004641)
(-0.025514207 -0.030050508 0.0043055267)
(-0.0096052743 -0.017428821 0.0090162924)
(-0.0027290518 -0.010206159 0.0083119942)
(0 -5.2933104e-19 0)
(0 -5.5198147e-19 -1.1385169e-18)
(0 -1.62682e-18 0)
(0 9.5647392e-19 0)
(0 -1.05832e-19 3.3744892e-19)
(0 7.2850594e-19 0)
(-1.1150906 -0.0015513703 -0.15663078)
(-1.1160256 0.0050870733 -0.15673216)
(-1.1169307 0.011718397 -0.15680147)
(-1.0863209 -0.23984474 -0.15381901)
(-1.0872204 -0.23320975 -0.1539359)
(-1.0881109 -0.22656074 -0.15400892)
(0.0022657778 -0.0090587457 -0.0097095428)
(-0.0086088228 -0.017197562 -0.0091895142)
(-0.024419455 -0.026026256 -0.013171118)
(-0.048089551 -0.034121539 -0.016753649)
(-0.07559219 -0.042462659 -0.021924385)
(-0.10977326 -0.050777781 -0.027786489)
(-0.14700728 -0.058526459 -0.03412129)
(-0.18922605 -0.066706617 -0.041106061)
(-0.23433807 -0.074578241 -0.048345527)
(-0.28290518 -0.082271722 -0.055864088)
(-0.33393649 -0.090288119 -0.063439913)
(-0.3872531 -0.097858148 -0.071111269)
(-0.44232987 -0.10559201 -0.07867958)
(-0.49891044 -0.11315966 -0.086154964)
(-0.55662317 -0.12070584 -0.093510544)
(-0.61517955 -0.12816625 -0.1006875)
(-0.67436125 -0.13556698 -0.10772838)
(-0.73391969 -0.14293562 -0.11460305)
(-0.79371702 -0.15027085 -0.12136464)
(-0.85359354 -0.15756528 -0.12804127)
(-0.91348572 -0.16487457 -0.13461608)
(-0.97329841 -0.17217282 -0.1412213)
(-1.0330268 -0.17948707 -0.14778868)
(0.0047937168 -0.0031750465 -0.0016215342)
(-0.0079094162 -0.0043409971 -0.0036626003)
(-0.023850168 -0.0076818206 -0.0070280493)
(-0.047712936 -0.010118338 -0.012159521)
(-0.076691345 -0.01302535 -0.017699151)
(-0.11092068 -0.016324052 -0.024007935)
(-0.14929844 -0.020299235 -0.030935695)
(-0.19222068 -0.024359573 -0.03844468)
(-0.23802023 -0.029088952 -0.046150776)
(-0.28735619 -0.034022203 -0.054037988)
(-0.33885024 -0.039521433 -0.062055613)
(-0.39269567 -0.045138503 -0.070046819)
(-0.44822854 -0.051208502 -0.077946698)
(-0.50515657 -0.057427008 -0.085719771)
(-0.56316957 -0.063902317 -0.093334128)
(-0.62194777 -0.070521056 -0.10072212)
(-0.68129538 -0.077310434 -0.10796073)
(-0.74096105 -0.084214317 -0.11497031)
(-0.80083804 -0.091218013 -0.12186994)
(-0.86075308 -0.09830837 -0.12859994)
(-0.92067091 -0.10547804 -0.13527055)
(-0.98048261 -0.11270869 -0.14188918)
(-1.0402229 -0.11998138 -0.14848651)
(0.0055216044 0.0027791981 0.0037509636)
(-0.0084995853 0.0060812641 0.0014244826)
(-0.023770198 0.0090551806 -0.0019181685)
(-0.049297975 0.012253459 -0.0073951775)
(-0.078219743 0.015068633 -0.013128854)
(-0.11321456 0.015789027 -0.020004245)
(-0.15255642 0.016903123 -0.027577881)
(-0.19574315 0.01631227 -0.03546482)
(-0.24233005 0.015088741 -0.043573157)
(-0.29217189 0.013103931 -0.05204466)
(-0.34416632 0.010144653 -0.060403632)
(-0.3985819 0.0066735346 -0.068824225)
(-0.45441677 0.0024332771 -0.077061836)
(-0.51173183 -0.0023148436 -0.085159739)
(-0.56995462 -0.0075646557 -0.093025176)
(-0.62895785 -0.013268061 -0.10066869)
(-0.68841452 -0.019309265 -0.10808596)
(-0.74819164 -0.025681376 -0.11528033)
(-0.80809595 -0.032296093 -0.12228901)
(-0.86804851 -0.039120505 -0.12914929)
(-0.92793693 -0.046124739 -0.13586856)
(-0.98774675 -0.053236365 -0.14255838)
(-1.047433 -0.060449639 -0.14917611)
(0 -3.3539909e-19 0)
(0 5.5415189e-19 1.1623567e-18)
(0 1.2073468e-18 0)
(-6.0496312e-19 1.2079363e-20 0)
(2.5267927e-19 -3.7439345e-19 -1.8647389e-20)
(-1.5923693e-18 -1.4320762e-18 0)
(0 5.4475367e-19 0)
(0 1.4640391e-18 -3.8936996e-20)
(0 1.6122392e-18 0)
(-0.0040388918 0.0039547489 0.0065154256)
(-0.0066501908 0.0061985906 0.0015958826)
(-0.0070067029 0.0047501 -0.0029605149)
(-0.019830797 0.025636762 0.0024158819)
(-0.020554595 0.028054138 -0.0025625846)
(-0.020996252 0.028330695 -0.0089989901)
(-0.033991869 0.031729137 -0.00017151096)
(-0.036547595 0.03325757 -0.0048624859)
(-0.037692813 0.039014476 -0.011859614)
(-0.059498288 0.043605109 -0.0067537765)
(-0.06165571 0.048908842 -0.011230005)
(-0.061048768 0.051152057 -0.016296175)
(-0.08881251 0.051630276 -0.012698114)
(-0.090295953 0.05542245 -0.016340091)
(-0.091336195 0.061838861 -0.02231086)
(-0.12355723 0.058454015 -0.019829687)
(-0.12584933 0.064624766 -0.024172298)
(-0.12576556 0.069916813 -0.028195692)
(-0.16281284 0.063685369 -0.027955943)
(-0.16435123 0.069788499 -0.030733233)
(-0.16495508 0.076387856 -0.035491166)
(-0.20637188 0.067748475 -0.035806415)
(-0.20774239 0.074012768 -0.038868994)
(-0.20856027 0.081045449 -0.042578539)
(-0.25260289 0.069449345 -0.044337731)
(-0.25430779 0.076565488 -0.046987085)
(-0.2546437 0.083810476 -0.050327528)
(-0.3026123 0.070665727 -0.052836537)
(-0.30388066 0.077883792 -0.05511996)
(-0.30468113 0.085315969 -0.058034839)
(-0.35438796 0.070052106 -0.061369317)
(-0.35581193 0.077305565 -0.063450805)
(-0.35643667 0.085007284 -0.065933373)
(-0.4087158 0.068512496 -0.06990561)
(-0.40993334 0.076011629 -0.071627066)
(-0.41065304 0.083586305 -0.07369488)
(-0.46432356 0.065758566 -0.078188358)
(-0.46553039 0.073120886 -0.079650667)
(-0.4662999 0.080835883 -0.081421555)
(-0.52147378 0.062194934 -0.086323822)
(-0.52257184 0.069602592 -0.087579463)
(-0.52331008 0.077105683 -0.088961982)
(-0.57943025 0.057694534 -0.094218348)
(-0.58047418 0.064956433 -0.095195675)
(-0.58129555 0.072462655 -0.096318346)
(-0.63820154 0.05259107 -0.10182311)
(-0.63921495 0.059808237 -0.10264564)
(-0.63999616 0.067096514 -0.10351487)
(-0.69743131 0.046862304 -0.10923063)
(-0.69836978 0.05390978 -0.10985858)
(-0.69918991 0.061113944 -0.11050169)
(-0.75696554 0.040659847 -0.11636254)
(-0.75789244 0.047645928 -0.1168528)
(-0.75871784 0.054685024 -0.11733287)
(-0.81667363 0.034118031 -0.12333508)
(-0.81757561 0.040970466 -0.12369702)
(-0.81841827 0.047897617 -0.12403081)
(-0.87645193 0.027251512 -0.13010635)
(-0.87734891 0.034042772 -0.13038627)
(-0.87819322 0.040863022 -0.13061661)
(-0.93620153 0.020213836 -0.13681114)
(-0.93708039 0.026924628 -0.13700322)
(-0.9379538 0.03366119 -0.13715186)
(-0.99590837 0.013019593 -0.14340601)
(-0.99682185 0.019706292 -0.14355383)
(-0.9976969 0.026379954 -0.14366638)
(-1.0555479 0.0057429424 -0.1500041)
(-1.0564413 0.012398882 -0.15010326)
(-1.0573384 0.019034366 -0.15020132)
(-1.0935233 -0.18021402 -0.15451631)
(-1.0944315 -0.17359246 -0.15463122)
(-1.0953183 -0.16696757 -0.15470301)
(-1.1006523 -0.12067507 -0.1552001)
(-1.1015712 -0.11405296 -0.15531423)
(-1.1024534 -0.10745063 -0.15538247)
(-1.1079181 -0.061105783 -0.15593746)
(-1.1088253 -0.05446917 -0.15603022)
(-1.1097346 -0.047860613 -0.15609372)
(-0.0099730598 -0.012115213 -0.0058719349)
(-0.0082218616 -0.012201108 -0.0015847999)
(-0.0090079763 -0.01005195 0.0040065432)
(-0.017957626 -0.026235474 -0.0076910161)
(-0.018067175 -0.0240616 -0.0011203036)
(-0.015814228 -0.021568984 0.0045643559)
(-0.033922448 -0.042737051 -0.011144853)
(-0.032943676 -0.038584299 -0.0063909704)
(-0.032130228 -0.035760338 0.00048621957)
(-0.055443386 -0.053986923 -0.015288213)
(-0.056118011 -0.049650778 -0.010759962)
(-0.054345373 -0.045448795 -0.0050934769)
(-0.082159231 -0.068501659 -0.020901815)
(-0.0825604 -0.063020854 -0.015954508)
(-0.081412907 -0.057703016 -0.011221659)
(-0.11475039 -0.079977119 -0.026539119)
(-0.11525193 -0.073134955 -0.023157792)
(-0.1145397 -0.067876169 -0.018424158)
(-0.15077477 -0.091901999 -0.033234057)
(-0.15155048 -0.085774034 -0.029780702)
(-0.1512455 -0.079022753 -0.025859086)
(-0.19164744 -0.10348475 -0.040347039)
(-0.19268655 -0.095985838 -0.0373578)
(-0.19245761 -0.089148148 -0.033958007)
(-0.23544356 -0.11427549 -0.047807163)
(-0.23684429 -0.1069028 -0.045022891)
(-0.23676005 -0.099591601 -0.042410789)
(-0.28302036 -0.1247336 -0.05534989)
(-0.28420471 -0.11700796 -0.053478536)
(-0.28468968 -0.10964464 -0.050728612)
(-0.33287802 -0.13483403 -0.06305724)
(-0.33427278 -0.12727488 -0.061145148)
(-0.33471376 -0.11957954 -0.059170114)
(-0.38526584 -0.14457601 -0.07073953)
(-0.38657813 -0.13678795 -0.069345008)
(-0.38733209 -0.12923077 -0.067659286)
(-0.43940768 -0.15381928 -0.078411836)
(-0.44084839 -0.14628562 -0.0772219)
(-0.44165494 -0.13865555 -0.075900078)
(-0.495249 -0.1628481 -0.085883205)
(-0.49659868 -0.1553117 -0.085026854)
(-0.49754904 -0.14778222 -0.083999442)
(-0.55226236 -0.17143502 -0.093274322)
(-0.55364784 -0.16407353 -0.092611881)
(-0.55462661 -0.15665277 -0.091850572)
(-0.61029192 -0.17975998 -0.10041918)
(-0.61158295 -0.17252302 -0.099991231)
(-0.61261887 -0.16522465 -0.099443749)
(-0.66899261 -0.18780274 -0.10744965)
(-0.67025219 -0.18070987 -0.10716351)
(-0.67129058 -0.1735491 -0.10680387)
(-0.72821407 -0.19560794 -0.11426914)
(-0.7293901 -0.18864233 -0.11413063)
(-0.73043124 -0.18160744 -0.11392077)
(-0.78773655 -0.20321719 -0.12098458)
(-0.78885851 -0.19635721 -0.12095259)
(-0.78987756 -0.18944055 -0.12084668)
(-0.84743705 -0.2106824 -0.12760309)
(-0.8484824 -0.20392523 -0.1276163)
(-0.84948383 -0.19710116 -0.12760089)
(-0.90721673 -0.2180254 -0.1341197)
(-0.9082139 -0.21131872 -0.13421204)
(-0.90918764 -0.20457174 -0.13425503)
(-0.96697033 -0.22532213 -0.14067572)
(-0.96791006 -0.2186596 -0.14077217)
(-0.96885888 -0.21197785 -0.1408331)
(-1.0266897 -0.23255086 -0.14719688)
(-1.0276124 -0.22591879 -0.14729411)
(-1.0285306 -0.21926976 -0.14738911)
(0.0025318918 -0.0023323197 0.0040557115)
(-0.0067691621 -0.0096314067 0.0018301081)
(-0.022465975 -0.0088650243 -0.0031829584)
(-0.047961309 -0.014814914 -0.0075753944)
(-0.075802013 -0.01931484 -0.013538761)
(-0.11081673 -0.024154683 -0.020579237)
(-0.14911002 -0.030499109 -0.027874235)
(-0.19189076 -0.036478797 -0.035794579)
(-0.23765017 -0.043748077 -0.043802278)
(-0.28670133 -0.050742774 -0.05215362)
(-0.33803611 -0.058556868 -0.060417428)
(-0.3916484 -0.066317931 -0.068720813)
(-0.44686509 -0.074461325 -0.076865956)
(-0.50348935 -0.082590885 -0.084846682)
(-0.56119128 -0.090806806 -0.092629915)
(-0.61965345 -0.098988107 -0.10015946)
(-0.67870182 -0.10708014 -0.10749585)
(-0.73811603 -0.11507943 -0.11460093)
(-0.79774805 -0.12294147 -0.12152889)
(-0.85748187 -0.13066107 -0.12830422)
(-0.91725346 -0.13824801 -0.1349848)
(-0.97695747 -0.14571278 -0.14158978)
(-1.0366549 -0.15307863 -0.148188)
(0.0041695285 -0.00078163033 -0.0023060613)
(-0.0075455003 0.0045076718 -0.0038289076)
(-0.025617518 0.0076540756 -0.0081781065)
(-0.05028797 0.0085894774 -0.01220371)
(-0.078374299 0.0087578993 -0.017442506)
(-0.11436984 0.0096640672 -0.024898778)
(-0.15231968 0.0064842486 -0.031049041)
(-0.1960055 0.0049702827 -0.039052349)
(-0.2419653 0.00069835933 -0.046587099)
(-0.29155436 -0.0031955347 -0.054779877)
(-0.34310831 -0.0087415365 -0.062609931)
(-0.39721863 -0.01423409 -0.070778237)
(-0.45260354 -0.020740478 -0.078573031)
(-0.5096048 -0.027317489 -0.086421176)
(-0.56746335 -0.034475208 -0.093936326)
(-0.62616215 -0.041653398 -0.10135993)
(-0.68535866 -0.049097446 -0.10853335)
(-0.7449123 -0.056554425 -0.11553116)
(-0.80465147 -0.064036052 -0.1223829)
(-0.86447458 -0.071515828 -0.12909815)
(-0.92431143 -0.078914796 -0.13573242)
(-0.98405525 -0.086297468 -0.14231337)
(-1.0438066 -0.093601241 -0.14887097)
(0.0036921896 0.0067276903 -0.0070250277)
(-0.012120656 0.01391895 -0.0092518119)
(-0.028377038 0.026176392 -0.014824944)
(-0.051966375 0.028699524 -0.016867439)
(-0.081550227 0.037389283 -0.023899389)
(-0.117429 0.040475228 -0.029280442)
(-0.15570145 0.043288442 -0.035801853)
(-0.20018074 0.045002084 -0.043145102)
(-0.24621566 0.044681378 -0.050425891)
(-0.29648178 0.043422157 -0.058002716)
(-0.34841826 0.040926304 -0.065674796)
(-0.40281306 0.037364813 -0.073315979)
(-0.45863685 0.032987361 -0.080909039)
(-0.51585377 0.027756844 -0.088351877)
(-0.5740055 0.021993759 -0.095664933)
(-0.63288709 0.015702825 -0.10281005)
(-0.6922599 0.0090415781 -0.1097873)
(-0.75192305 0.002119078 -0.11661164)
(-0.81177169 -0.0049839138 -0.12333239)
(-0.87165846 -0.012199252 -0.1299301)
(-0.93152268 -0.019456299 -0.13650131)
(-0.99132586 -0.026748957 -0.14302619)
(-1.0510151 -0.033998053 -0.14958971)
(-0.001617702 -0.0033156176 -0.0039565248)
(-0.0012516845 -0.0036644241 -0.0012501463)
(-0.0022725731 -0.0021726861 0.0020925244)
(-0.012881786 -0.01564331 -0.0053542076)
(-0.014370746 -0.013217435 -0.0019376213)
(-0.011980478 -0.011585727 0.0011953682)
(-0.029260443 -0.02154421 -0.0091218856)
(-0.027815442 -0.018426263 -0.0063436287)
(-0.027998095 -0.01501506 -0.0042527733)
(-0.051711344 -0.030011099 -0.013488425)
(-0.053143103 -0.025719257 -0.010596469)
(-0.052223874 -0.020568709 -0.0089161767)
(-0.079955323 -0.03728745 -0.018497683)
(-0.080180902 -0.031786986 -0.01677813)
(-0.079998702 -0.026386639 -0.014467915)
(-0.11334134 -0.044576966 -0.025172652)
(-0.11441646 -0.038831692 -0.023102573)
(-0.11382001 -0.032525368 -0.021654699)
(-0.15070001 -0.052135698 -0.031723836)
(-0.15144207 -0.045879133 -0.030158605)
(-0.15165973 -0.038575704 -0.028701173)
(-0.19248084 -0.059933821 -0.039121314)
(-0.19384628 -0.052596516 -0.037816085)
(-0.19383831 -0.045422333 -0.036676272)
(-0.23767315 -0.067122546 -0.046678284)
(-0.23870574 -0.060167875 -0.045688392)
(-0.23906006 -0.052430259 -0.044539707)
(-0.28591975 -0.075067211 -0.054590976)
(-0.28710796 -0.067659793 -0.053654352)
(-0.28771727 -0.059725839 -0.05280345)
(-0.33667946 -0.082755617 -0.062373802)
(-0.33799548 -0.075187381 -0.061679537)
(-0.3385792 -0.067246323 -0.061037535)
(-0.38978966 -0.090389949 -0.070344195)
(-0.39106141 -0.082879101 -0.069849386)
(-0.39186681 -0.075029199 -0.069246244)
(-0.44461227 -0.098200252 -0.078104638)
(-0.44594263 -0.09069357 -0.077690278)
(-0.4467898 -0.082839027 -0.077304885)
(-0.50099274 -0.10586773 -0.085784837)
(-0.50225648 -0.098437599 -0.085558255)
(-0.50319532 -0.090755007 -0.085229073)
(-0.55845551 -0.11353259 -0.093278091)
(-0.55974224 -0.10619676 -0.093118151)
(-0.5606888 -0.098661396 -0.092917277)
(-0.61684659 -0.12112852 -0.10059157)
(-0.61803926 -0.11394629 -0.10053759)
(-0.61902538 -0.10657848 -0.10039503)
(-0.67580316 -0.12868034 -0.10771482)
(-0.67698443 -0.12160011 -0.1077118)
(-0.67796512 -0.11440048 -0.10765187)
(-0.73523193 -0.13615705 -0.11466105)
(-0.7363362 -0.12920845 -0.11471848)
(-0.73730637 -0.12216347 -0.11469968)
(-0.79486532 -0.14359124 -0.12146122)
(-0.79593522 -0.13673691 -0.12154208)
(-0.79689868 -0.12983635 -0.12157394)
(-0.85465103 -0.15094669 -0.12815309)
(-0.85566795 -0.14420148 -0.12825602)
(-0.85660841 -0.13739941 -0.12829746)
(-0.91445641 -0.15830125 -0.13474565)
(-0.91544278 -0.15161999 -0.13486053)
(-0.91635975 -0.14489595 -0.13493787)
(-0.97422823 -0.1656158 -0.14134265)
(-0.97516008 -0.15894768 -0.14144531)
(-0.97607108 -0.15229373 -0.14152135)
(-1.0339318 -0.17291976 -0.14788797)
(-1.0348544 -0.1662879 -0.14799274)
(-1.0357539 -0.1596586 -0.14808182)
(0.0015153168 -0.0013178974 3.7732133e-05)
(0.00051988598 -0.0016296003 0.00027257815)
(-0.00056582572 -0.00060930851 0.00013242732)
(-0.011698233 -0.0024864982 -0.0018191171)
(-0.012898585 -0.00099551911 -0.001695311)
(-0.010709551 0.001010876 -0.002355122)
(-0.028499128 -0.0043901403 -0.0058500447)
(-0.029153005 -0.0013140496 -0.0071419593)
(-0.029127211 0.0025469975 -0.0068334894)
(-0.051595892 -0.0051848622 -0.010548929)
(-0.054384659 -0.00062032394 -0.011417166)
(-0.053106939 0.0044955462 -0.011086931)
(-0.080858486 -0.0079630269 -0.016820164)
(-0.08215369 -0.0029021328 -0.017844767)
(-0.081235319 0.0021454685 -0.016711666)
(-0.11462688 -0.010333331 -0.023172427)
(-0.11666761 -0.0039782573 -0.023681847)
(-0.11602701 0.0023366848 -0.023693052)
(-0.15298182 -0.013853381 -0.030157951)
(-0.15448304 -0.0073369111 -0.03127349)
(-0.15429621 -0.00027544186 -0.030611299)
(-0.19551195 -0.017396744 -0.038040208)
(-0.19736778 -0.010087222 -0.038697178)
(-0.19701015 -0.003288836 -0.038249879)
(-0.24119154 -0.021866248 -0.045788907)
(-0.24272119 -0.014787483 -0.04632963)
(-0.24291307 -0.0069584039 -0.046153981)
(-0.29015598 -0.026815552 -0.053827885)
(-0.29186708 -0.018978616 -0.054532886)
(-0.29203122 -0.011488086 -0.054314159)
(-0.34155072 -0.031975473 -0.061982477)
(-0.34301509 -0.02447244 -0.062541583)
(-0.34348912 -0.016551845 -0.06232082)
(-0.39511543 -0.037739265 -0.070056471)
(-0.39663604 -0.029995815 -0.070577852)
(-0.39716493 -0.022326983 -0.070472434)
(-0.4504505 -0.04378793 -0.078043695)
(-0.45181529 -0.036277113 -0.078512425)
(-0.45250704 -0.028421784 -0.078403392)
(-0.50712444 -0.050122056 -0.085864696)
(-0.50849125 -0.042530049 -0.086282977)
(-0.50921857 -0.034982503 -0.086239715)
(-0.56495488 -0.056692781 -0.093526366)
(-0.56619231 -0.049359357 -0.093873439)
(-0.56701678 -0.041836368 -0.093848148)
(-0.62352149 -0.063465724 -0.10092655)
(-0.62471519 -0.056187097 -0.10124847)
(-0.62556364 -0.048891203 -0.10125569)
(-0.68270058 -0.070381146 -0.10818109)
(-0.68381242 -0.063283053 -0.10843806)
(-0.68470181 -0.056089682 -0.10846606)
(-0.74222115 -0.077408454 -0.11517885)
(-0.74328172 -0.070403378 -0.11540783)
(-0.74417423 -0.063411869 -0.11546013)
(-0.80196289 -0.084508623 -0.12206854)
(-0.80296721 -0.077647422 -0.12225557)
(-0.80387787 -0.070756546 -0.12231643)
(-0.86179587 -0.091696945 -0.12877243)
(-0.86275906 -0.084911896 -0.12893555)
(-0.86366289 -0.078123056 -0.12901364)
(-0.92162696 -0.098913194 -0.13542129)
(-0.92255991 -0.092163194 -0.13555471)
(-0.92346975 -0.085490156 -0.1356544)
(-0.98139475 -0.10613218 -0.14201525)
(-0.98230401 -0.099480505 -0.14213964)
(-0.98320732 -0.092817341 -0.1422082)
(-1.0411173 -0.11340639 -0.14857983)
(-1.0420276 -0.10677492 -0.14868346)
(-1.0429225 -0.10017254 -0.14878292)
(0.0010237989 0.0032107206 0.001721707)
(0.00094017357 0.003189459 -0.00013656419)
(0.0004861669 0.0035466317 -0.002808624)
(-0.014470197 0.0077232836 -0.00042603441)
(-0.016098496 0.0075532565 -0.003144149)
(-0.015225361 0.010897575 -0.0059497944)
(-0.029520807 0.012947791 -0.0040567688)
(-0.030617013 0.017989473 -0.0071515113)
(-0.032009322 0.021397177 -0.010389127)
(-0.054823709 0.017511199 -0.0093254033)
(-0.05582272 0.020082169 -0.011690127)
(-0.056327142 0.024919082 -0.014047043)
(-0.083167154 0.020007268 -0.015182852)
(-0.084283195 0.025809857 -0.017576454)
(-0.084884062 0.030905474 -0.019995546)
(-0.11806518 0.022493595 -0.021686715)
(-0.11936928 0.027851566 -0.023911129)
(-0.11992426 0.034260423 -0.026122434)
(-0.15689404 0.023651181 -0.029282906)
(-0.15760688 0.029985296 -0.031521957)
(-0.1586341 0.036281072 -0.033260131)
(-0.19968713 0.023465682 -0.037068702)
(-0.20111349 0.030216163 -0.038644323)
(-0.20177287 0.037407166 -0.040430181)
(-0.24617839 0.022661203 -0.044969494)
(-0.24703487 0.029765301 -0.046806062)
(-0.24806525 0.037012457 -0.048431032)
(-0.29548001 0.020782444 -0.053429684)
(-0.2967154 0.028009862 -0.054887979)
(-0.2975176 0.035587859 -0.056126339)
(-0.34725465 0.017940834 -0.061622799)
(-0.34831961 0.025457025 -0.062885735)
(-0.3493507 0.033029401 -0.06412954)
(-0.40129173 0.014452645 -0.069928933)
(-0.40244753 0.021897942 -0.071077752)
(-0.40329512 0.029522176 -0.072054793)
(-0.45684407 0.010132578 -0.078044206)
(-0.45790153 0.017686399 -0.078986574)
(-0.45892665 0.02525887 -0.07983866)
(-0.51385698 0.0052990342 -0.086026796)
(-0.51497449 0.012728324 -0.086822736)
(-0.51585304 0.020192172 -0.087544509)
(-0.57184214 -0.00012113585 -0.09376572)
(-0.57286021 0.0072425821 -0.094431395)
(-0.57382601 0.014583023 -0.095012056)
(-0.63058485 -0.0059698114 -0.10130943)
(-0.63163248 0.0012620571 -0.101846)
(-0.63252116 0.008491006 -0.1023142)
(-0.68985943 -0.012189079 -0.10861375)
(-0.69084099 -0.0050559532 -0.10903417)
(-0.69176325 0.0020097501 -0.10942046)
(-0.74944925 -0.018702803 -0.11571168)
(-0.75044428 -0.011701422 -0.11605482)
(-0.75130834 -0.0047651176 -0.11634411)
(-0.80923295 -0.025459299 -0.12263533)
(-0.81015938 -0.018570432 -0.12289094)
(-0.81105917 -0.011734445 -0.12312514)
(-0.86906146 -0.032390955 -0.12941654)
(-0.87003498 -0.025573933 -0.12960871)
(-0.87088895 -0.018848703 -0.12978785)
(-0.92889582 -0.039459987 -0.13606906)
(-0.92979873 -0.032733905 -0.13623545)
(-0.93067212 -0.026060483 -0.13637824)
(-0.98866267 -0.046616411 -0.14270871)
(-0.98959162 -0.039932234 -0.14283621)
(-0.99047052 -0.033320024 -0.14294181)
(-1.0483261 -0.053841993 -0.14927821)
(-1.0492401 -0.047182621 -0.14938805)
(-1.0501219 -0.040577122 -0.14947843)
)
;

boundaryField
{
    free
    {
        type            calculated;
    }
    fixed
    {
        type            calculated;
    }
    freeTop
    {
        type            calculated;
    }
}


// ************************************************************************* //
