/*--------------------------------*- C++ -*----------------------------------*\
  =========                 |
  \\      /  F ield         | OpenFOAM: The Open Source CFD Toolbox
   \\    /   O peration     | Website:  https://openfoam.org
    \\  /    A nd           | Version:  6
     \\/     M anipulation  |
\*---------------------------------------------------------------------------*/
FoamFile
{
    version     2.0;
    format      ascii;
    class       pointScalarField;
    location    "0.85";
    object      p;
}
// * * * * * * * * * * * * * * * * * * * * * * * * * * * * * * * * * * * * * //

dimensions      [1 -1 -2 0 0 0 0];

internalField   nonuniform List<scalar> 
3969
(
1519980.4
-2276569.9
10601.367
8401.7862
2816767
-4794114.6
9105.9612
5492.6313
1155637
810338.01
404604.01
-59525.645
-406747.85
-912412.68
-1032310.3
-8033.5315
-2091.1878
-1239.7418
4768.7694
10616.973
15112.923
14940.31
495409.94
571018.39
562622.96
586113.34
579512.07
579654.51
568748.34
555051.23
543788.13
523545.51
510943.66
494496.61
476942.22
461827.3
446303.75
429141.35
415485.44
399184.61
385364.33
369462.42
355780.38
340980.3
327249.29
313998.93
299126.88
285317.83
270757.71
257258.08
244341.23
229835.94
216152.15
202358.93
187968.04
173726.98
159715.32
145768.55
130515.93
117156.58
101815.41
89195.08
74552.373
62114.393
50335.321
37427.842
29923.946
20742.758
14442.187
-502964.68
-431473.17
-540574.25
-482642.03
-544433.53
-503760.48
-520028.83
-491945.63
-491926.25
-473105.86
-461966.24
-452762.98
-431482.53
-425706.36
-408438.4
-395826.52
-382825.24
-366278.99
-355400.81
-340298.61
-325924.46
-315132.43
-299056.21
-287912.81
-273445.61
-260349.94
-245914.46
-231830.83
-219190.03
-205406.72
-194379.64
-180278.67
-168235.92
-154399.5
-141696.66
-128075.38
-115323.57
-100787
-88581.943
-74254.626
-61384.975
-49482.959
-37962.822
-26971.718
-16676.905
-8721.7147
-1032.7606
2138871
1580761.2
704197.61
-137632.55
-793174.44
-1720675
-1405682.5
-624798.75
-700320.36
-451165.01
-655514.36
-563964.06
-587998.84
-566728.66
-560325.13
-538571.07
-506120.64
-537518.35
-493851.2
-498685.59
-477644.33
-462377.03
-449455.77
-428829.98
-414662.09
-396412.09
-378197.27
-363990.03
-348008.33
-333279.27
-318213.11
-305730.53
-294151.8
-280190.05
-262720.35
-249761.72
-234853.52
-219053.67
-204148.18
-188694.99
-172956.66
-158063.85
-143502.45
-122981.28
-111293.46
-96518.265
-81786.521
-67139.06
-54204.744
-40586.901
-28562.211
-17895.74
-8257.8215
-171.57806
20119.131
13586.068
11740.463
6358.2126
-1519.3009
-2221.2738
-9410.2424
24884.736
23531.208
29155.645
39958.648
51288.717
63411.329
76791.799
89884.561
104502.22
117729.7
128713.8
152870
162642.77
177806.67
192824.79
207731.64
221767.17
236706.69
250413.77
264857.74
279745.76
293154.42
307896.91
322760.29
337721.43
353118
368410.95
382614.93
399219.86
413397.34
430163.01
443037.01
451923.26
476402.9
501367.97
499005.46
525995.56
527657.16
547471.57
571171.39
593948.89
577603.06
612211.07
579552.59
580671.96
599348.48
580881.02
1271243.6
1382363.1
1460054.1
1437092.2
1435559.6
1441230.7
1190271.8
-1745263.5
-2247569.3
-2606346.5
-2781043.2
-2657013.8
-2632644.5
-1944152
9140.9318
9979.1309
10871.374
12204.392
11693.536
9967.8439
10073.959
3012.3857
4086.6925
3282.9088
2392.3733
3572.0326
7950.4414
3983.7215
429987.41
442236.04
447545.79
455450.82
455703.79
455451.66
445163.29
443846.43
425980.78
424441.1
409115.57
394523
388017.52
374481.28
362329.59
350481.63
338345.34
325157.35
312028.81
299376.39
287107.7
273767.79
261651.66
249328.87
238352.71
225248.98
213357.57
202141.98
189970.78
178154.44
166726.97
154903.7
143425.22
132009.85
120887.12
109340.13
97985.84
87395.96
76815.433
67353.836
56783.036
48761.511
38770.155
31566.827
24989.629
15693.817
8947.3389
270437.69
268648.82
275625.79
289749.96
294829.2
304622.31
297086
295181.51
288938.61
285857.61
275956.66
270618.84
259961.6
250203.6
243471.89
233022.51
224995.98
214653.49
206026.64
196374.78
186306
176478.51
167071.72
158456.1
149171.43
141795.2
134423.5
125276.62
118845.82
111110.72
104069.06
97104.198
90121.943
83487.486
76821.287
70298.294
63989.237
58287.509
51522.235
46223.065
39510.435
34654.1
28152.034
24150.319
18774.314
12200.164
6272.4297
114275.39
133399.4
128507.99
137833.59
138356.34
143899.95
140890.21
144188.19
138901.72
137731.85
135286.93
131942.68
127473.69
121686.27
116089.3
112526.66
108868.86
104262.29
100850.68
96260.513
93332.53
89669.514
85698.904
81341.977
78045.956
73480.637
69300.221
66250.65
62476.46
58585.234
54868.211
51081.689
47298.914
43594.321
40287.75
36481.383
33267.018
29591.33
26133.218
23663.956
20229.211
18828.652
15016.74
14087.826
11215.868
7674.6535
6550.9045
-20479.598
-22773.038
-26092.433
-16837.391
-26082.262
-20331.966
-26956
-23216.789
-24836.922
-15306.737
-20621.551
-15269.239
-16937.654
-13634.482
-12456.9
-10472.03
-10157.325
-8819.6078
-8321.1378
-8316.3716
-7937.8214
-9268.3257
-11792.124
-10934.499
-9970.6107
-9527.0608
-8239.3754
-7377.6507
-6570.0723
-5591.4408
-4639.1421
-3606.9061
-2899.792
-1812.2142
-950.68162
295.05068
652.31404
1837.1339
3283.844
4403.0944
5243.697
5896.9099
5418.5893
7258.8539
6463.3663
7452.6126
8465.5476
-173663
-153683.4
-157304.43
-167172.72
-177101.46
-175122.04
-178531.18
-173108.53
-173038.49
-161139.93
-163026.23
-149346.68
-150383.49
-138243.46
-136228.07
-127012.58
-123150.6
-116165.95
-110990.25
-105694.02
-97102.899
-87324.866
-81987.03
-72724.097
-69790.023
-67503.988
-61501.208
-56490.231
-52433.299
-48201.408
-44011.225
-40512.303
-36556.728
-33216.277
-29309.034
-26183.421
-23278.205
-19219.969
-19564.766
-16320.77
-13984.43
-10959.392
-7708.4929
-4296.5515
-1697.3555
2353.6747
6794.1805
-312677.53
-293625.82
-299178.85
-323167.16
-328490.65
-327806.81
-326865.63
-317069.86
-316232.38
-300884.75
-299276.24
-284994.4
-279549.49
-270814.17
-261441.12
-249920.1
-240987.05
-229958.55
-220487.9
-210761.91
-198514.78
-189595.68
-173202.21
-161432.8
-150704.25
-141772.93
-134127.21
-125528.08
-117408.14
-109445.38
-102440.92
-94542.414
-87310.224
-79820.16
-72730.708
-65334.656
-58136.327
-51473.435
-44351.239
-38008.025
-31847.509
-25459.603
-18672.807
-12564.876
-6416.59
64.754733
8208.3945
-515098.81
-360721.81
-435032.65
-434543.34
-458547.56
-446784.27
-452057.44
-437953.64
-439953.63
-415946.02
-417981.06
-400164.77
-389198.46
-374971.42
-360532.59
-347002.6
-331560.72
-319883.79
-305578.5
-293062.82
-280714.34
-267581.38
-255302.37
-243559.96
-231093.4
-219939.35
-210869.59
-197476.67
-185612.76
-174008.13
-162811.6
-151207.58
-139635.66
-128351.18
-116658.71
-105191.58
-94224.094
-82967.892
-72834.794
-60441.341
-49970.368
-39611.298
-30181.317
-21651.591
-13463.538
-5557.552
3600.5809
1006789.7
913295.97
955291.12
957802.47
962184.83
937789.82
885055.99
620997.8
674885.52
648056.66
660559.7
666315.47
652413.51
649296.06
307644.54
368694.19
319144.53
344462.03
330733.45
326874.12
352335.65
33943.197
-9605.2102
-28400.294
6520.6317
-15459.204
-58546.765
87039.089
-211476.27
-220745.62
-229448.86
-201470.97
-217294.37
-210341.83
-112407.86
-657133.53
-700777.7
-690005.34
-710954.36
-725681.53
-711668.51
-659029.65
-766090.41
-721266.47
-607077.25
-624484.77
-584064.17
-541270.87
-613385.06
-849270.39
-889677.69
-1010078
-1047033.5
-1071423.9
-1049777.4
-800338.33
-649739.4
-751525.14
-761730.5
-781446.13
-815770.66
-778664.94
-709863.67
-560685.7
-640708.21
-673670.39
-680832.16
-681827.84
-631768.33
-667658.83
-558029.99
-619351.93
-605267.22
-648983.19
-623833.19
-617916.62
-581712.45
-566882.91
-602871.57
-622488.08
-628783.29
-628969.59
-599387.56
-608627.4
-553045.88
-547881.52
-560207.13
-575599.08
-575447.63
-561385.57
-554734.12
-531422.39
-552075.83
-559491.51
-572571.81
-565846.78
-567579.29
-564223.15
-528971.13
-525285.35
-526088.72
-536385.31
-533649.6
-534891.89
-530192.66
-509415.86
-517617.94
-520266.46
-528958.2
-530855.59
-533944.62
-533393.62
-503037.62
-499852.16
-497912.47
-504986.44
-504015.72
-497691.04
-501767.15
-485924.14
-491123.99
-485904.72
-494033.63
-492136.83
-491761.08
-500395.84
-468987.59
-471520.08
-469765.28
-478861.59
-477310.05
-469648.87
-483513.67
-461882.52
-451448.86
-461710.31
-458928.35
-464353.67
-460392.68
-473645.18
-439581.81
-439352.43
-447531.28
-444917.64
-452175.84
-442133.12
-454380.34
-430716.57
-424108.62
-434110.36
-428483.78
-435419.85
-428571.82
-441746.85
-412458.15
-407066.91
-418583.52
-412814
-423588.26
-415274.03
-427443.81
-397038.14
-394936.82
-404077.78
-398960.3
-408874.69
-399600.76
-409674.08
-382474.24
-379810.39
-390539.6
-383742.68
-395242.69
-384490.8
-396283.04
-367257.77
-366366.39
-376272.75
-368799.83
-380148.98
-369728.92
-381225.07
-352486.12
-352003.94
-361873.8
-354439.38
-366492.2
-355757.21
-367138.54
-339477.58
-337678.18
-347767.27
-339774.09
-351487.72
-341038.94
-352014.72
-324901.33
-324121.43
-333328.32
-326152.49
-337538.16
-326955.13
-338449.11
-312201.7
-309950.35
-319990.73
-312269.3
-322114.78
-313122.99
-323588.59
-297744.3
-298047.96
-305261.41
-297465.2
-308947.8
-299871.04
-310898.63
-284180.8
-286004.36
-288245.4
-286341.43
-293458
-286716.81
-296282.58
-268934.95
-273224
-271241
-275446.08
-279582.59
-277102.95
-284228.88
-259639.55
-259214.66
-259864.93
-261281.41
-263803.74
-261796.31
-269219.71
-246703.22
-245340.72
-246471.23
-248068.34
-249626.91
-249242.26
-252777.75
-232601.86
-231320.51
-232899.52
-233061.42
-233942.1
-235570.93
-237219.45
-219586.44
-217542.37
-219869.79
-219058.32
-221112.67
-221710.75
-222778.38
-205110.4
-204634.64
-205304.21
-204988.15
-205969.94
-206630.22
-207628.87
-192033.61
-190267.04
-191450.77
-190613.18
-191639.08
-192246.26
-193303.26
-177401.76
-176577.89
-177006.82
-176264.79
-177017.57
-177703.29
-178650.65
-163605.05
-162305.96
-162732.24
-161816.79
-162328.51
-162931.64
-163446.68
-148980.77
-147987.52
-148019.17
-146944.56
-147227.11
-148272.77
-148820.14
-134572.3
-133846.6
-133404.54
-132892.3
-132800.73
-132925.78
-133719.4
-120656.22
-118636.72
-119356.92
-116810.06
-118197.77
-119488.55
-118957.72
-106594.79
-105587.89
-103934.45
-103975.87
-102755.27
-103498.47
-104164.13
-91755.619
-90433.332
-89597.93
-88797.121
-88484.07
-89450.766
-89643.884
-78423.217
-76404.368
-76397.244
-74755.104
-74473.002
-75617.583
-75977.819
-64065.636
-63130.403
-62122.334
-60741.732
-60723.941
-61727.503
-61689.429
-51471.803
-50341.563
-49046.421
-48429.685
-47778.639
-48879.14
-48992.802
-38490.045
-37697.918
-36352.783
-35918.913
-34838.718
-36419.372
-36293.751
-27410.097
-26151.188
-25216.485
-24465.637
-23685.542
-25202.071
-24699.365
-17308.751
-16727.593
-15588.466
-15122.777
-14361.476
-15223.016
-14545.023
-9897.2949
-8849.5069
-8398.8381
-7763.1001
-7089.9941
-8234.3653
-7692.462
-4260.8829
-3784.8214
-3248.9804
-2217.3006
-3096.7592
-3065.025
-1849.61
-15152.085
-17516.31
-19973.506
-20149.087
-18687.579
-17594.63
-15469.179
-9474.5255
-10227.389
-10640.329
-11453.39
-10561.48
-8534.5687
-7575.3419
-4501.9949
-6106.0062
-6583.934
-6418.9363
-5950.8538
-4305.0491
-3409.4815
5669.6873
5889.3174
5693.1926
5625.5151
6672.9233
5959.941
7457.6852
13626.607
13606.342
14083.539
15028.876
14561.353
14262.852
13843.983
18935.17
21431.097
21904.544
22156.495
23402.276
20605.415
20238.425
21766.622
22380.228
24091.729
24161.224
23551.907
22404.289
21254.021
611940.84
608504.07
678192.84
664237.57
682334.58
650061.18
634055.74
642411.22
656471.54
685685.63
679636.85
690057.05
652046.79
637845.41
625350.05
630432.67
649887.67
651069.45
651503.45
624693.67
615876.17
597765.23
614006.13
627221.72
631154.28
629354.21
612452.81
615040.55
600684.04
604209.78
609824.9
613757.24
611857.18
605570.8
594619.19
578765.59
580175.48
589804.63
583500.86
588643.39
571898.03
575726.97
574574.06
574597.33
576383.21
575104.8
585040.18
571659.92
581872.23
552346.86
546733.18
557371.4
539931.36
552200.56
544385.13
548243.73
542244.74
546218.63
545267.64
540390.26
549240.66
539189.93
549625.2
529115.7
520255.05
522585.44
514169.47
525357.73
513664.61
526229.27
513691.36
506795.42
516733.68
504197.44
515625.82
505352.63
514413.17
494242.52
494282.32
495075.2
485240.59
495395.4
486054
497849.17
484666.46
475294.56
479097.18
471507.66
479696.06
470842.18
470681.86
466847.2
461421.54
462668.15
457243.48
463372.15
458467.87
466951.31
450833.97
447157.3
444064.36
443488.84
445885.91
441413.92
448201.31
439610.85
429705.47
430556.79
426435.75
432879.75
426364.24
430682.69
421905.12
415236.1
414721.69
412723.14
415122.21
410164.75
415560.61
406846.35
399072.29
400768.53
396544.48
399986.62
396060.74
399527.28
391021.36
384888.04
385565.12
381344.47
385200.69
381047.15
385215.52
376673.12
369112.85
370615.99
366700.08
370144.28
366017.1
369782.72
362320.94
354065.34
356741.81
352090.85
355795.65
351763.21
355512.19
347584.5
339665.09
342733.01
337986.18
341258.15
336686.77
340939.05
333755.43
325698.54
329526.53
324166.85
327322.31
323004.63
327366.38
319236.52
312185.19
315445.7
310126.86
312817.55
308189.23
312940.31
305890.36
297182.66
301960.42
295776.24
298783.51
294225.74
299513.85
291901.71
283213.59
288498
281967.42
284920.59
280426.61
285143.62
277460.77
269962.94
274254.37
268496.89
270672.06
266387.58
271754.49
264249.18
256547.77
260259.71
255011.38
257171.03
252995.93
258104.16
249129.84
241947.27
246774.95
241076.08
242762.82
238600.03
243835.8
234904.32
229351.76
232375.19
227576.82
228910.3
225366.61
230065.53
220829.56
215153.18
218382.28
213846.39
214876.65
211105.3
215910
205875.24
201379.13
203743.75
199821.52
200272.67
197070.87
201611
191345.55
187359
189592.95
185881.75
186040.94
183273.48
187813.88
176594.66
173351.56
174917
171744.02
171683.46
169251.35
172826.73
161846.39
158952.75
160238.1
157566.86
156703.8
155540.3
158216.99
146390.71
144641.7
145625.96
142800.38
142799.57
141070.51
143335.58
131839.03
130861.78
129913.02
129252.73
127616.38
126537.16
129942.97
117376.17
116857.23
115756.03
114617.82
114164.75
111240.43
115995.41
102319.37
101865.26
100589.17
100165.06
99334.595
97777.39
101378.28
88837.853
88711.309
87460.476
87065.661
85673.348
84296.427
87627.416
74220.895
73855.418
72570.174
72296.024
71191.273
71320.918
73601.796
61654.37
61479.093
60221.09
60110.229
59307.717
58854.055
60906.802
49358.678
49105.85
47714.671
47997.212
46588.836
46861.074
48100.134
36941.691
36372.938
35514.144
35632.625
35086.362
35461.861
37189.386
29165.515
30201.062
29737.677
30101.822
29068.53
28797.73
28472.623
21752.766
21767.462
20922.494
20855.007
21080.914
21968.755
21184.035
23317.822
25729.878
26079.803
26835.69
26679.266
27116.277
25613.842
586184.59
487566.65
469696.98
471998.82
482721.95
489572.37
465651.04
469906.85
455830.86
450609.44
433315.16
422629.05
408950.06
390415.07
380951.08
367246.48
351943.59
339280.7
325496.41
312595.81
299458.87
286196.43
273648.74
261376.58
248912.96
236964.07
223633.59
211860.97
199790.81
187612.05
175571.89
163658.38
151576.8
139557.07
129073.53
114902.65
104450.8
94802.703
82650.738
72292.608
62403.952
52505.822
43638.73
34766.586
26782.46
18659.172
7829.1308
346701.58
363396.11
272668.65
319742.03
353314.39
333709.89
348176.95
328617.36
333029.5
318711.15
311693.16
304792.48
286927.66
283303.42
273597.08
264778.28
254310.16
243086.71
234368.08
223317.51
213344.98
203472.9
193674.39
183397.02
173626.25
162389.28
156622.29
146337.07
138199.53
130013.52
121844.97
114085.6
106025.94
99045.147
90158.485
83574.598
76069.017
68277.967
61333.684
53852.456
47000.341
39723.923
33210.733
26445.445
20569.304
13449.068
6936.5387
162086.78
208562.48
114641.76
186705.2
153290.32
146080.4
147822.69
143584.05
142544.89
134280.95
141664.99
134579.87
142243.17
136719.87
135686.35
133799.85
127886.13
123756.32
119377.26
112531.36
107749.7
102319.72
96898.356
91851.709
87077.455
82412.623
78275.972
72221.41
68346.222
63506.043
59272.757
55178.345
51348.567
47274.831
43358.504
40172.244
36408.539
33133.272
29617.614
27068.033
24094.339
20985.983
18363.394
15703.073
12919.45
10803.716
3500.4607
-29219.042
37726.688
-18388.889
21603.085
-12866.305
6620.8028
-3072.2891
-15749.428
-9457.0343
-4355.7926
-9951.4241
359.18564
-3976.5224
7176.6337
8682.6158
10616.725
10634.047
11661.089
11833.146
11397.316
12318.062
12274.921
12457.013
12696.618
11966.716
11503.765
10716.865
11204.297
10728.546
10767.357
10632.439
11280.243
10957.532
11246.226
11130.615
11294.162
10678.999
10667.374
10176.891
10140.332
9454.7435
8906.0853
8604.7456
7612.7932
8118.9037
6133.738
4720.3106
-274440.02
-126993.99
-160205.62
-113201.06
-158427.84
-129343.59
-155304.58
-146380.57
-137414.76
-142262.37
-127073.5
-133970.47
-121358.09
-124374.16
-117858.67
-113181.18
-108880.97
-103523.12
-98689.701
-93881.765
-88838.491
-84253.265
-79509.245
-75386.422
-70860.046
-68070.017
-62516.043
-58303.598
-54556.55
-50791.611
-46977.063
-43224.482
-39426.961
-35401.281
-31989.438
-28382.449
-24889.013
-21126.411
-18205.154
-14516.824
-11523.218
-8154.2141
-5590.8355
-2274.6521
166.28045
3592.6802
4839.7864
-423168.23
-306317.69
-269385.72
-277506.41
-301728.68
-292785.84
-312746.22
-284446.61
-312976.72
-297619.26
-302964.86
-289487.88
-280996.37
-275040.24
-261865.56
-252752.14
-240001.66
-227855.95
-216604.34
-206258.7
-196468.54
-186033.3
-176245.4
-162975.08
-150765.03
-138669.82
-131141.92
-122031.07
-114016.05
-105583.29
-98343.405
-90270.749
-82706.371
-75181.744
-67963.625
-60743.875
-53499.822
-46942.499
-40406.676
-33636.013
-27757.097
-21714.382
-15879.094
-10604.466
-5010.671
737.45247
6378.8712
-522477.41
-390907.56
-409623.62
-407845.9
-456111.92
-450263.86
-455978.86
-448662.05
-449434.37
-433901.32
-419526.95
-414812.81
-398066.24
-385722.54
-372298.38
-359802.01
-348710.2
-334901.11
-324557.31
-310751.26
-298106.87
-284618.08
-271796.2
-257573.95
-245717.44
-225290.9
-214309.99
-202441.17
-191087.69
-180080.17
-168869.27
-156900.88
-145854.77
-134015.34
-122291.42
-111067.09
-100476.02
-88534.055
-77235.456
-66358.678
-56062.421
-45011.894
-36007.18
-26094.352
-16846.754
-7916.9135
89.452746
708844.69
784780.86
760110.4
794072.06
781564.97
742525.12
693376.66
520736.78
595380.16
588057.97
604674.61
589550.58
569769.13
521769.76
491292.52
535122.34
546009.42
556779.69
543676.97
537685.48
517890.23
482629.23
496576.43
500677.12
515516.31
492134.73
502615.26
460402.19
470878.79
481115.08
490879.2
485511.11
482402.22
477203.66
450229.23
464788.72
482037.9
464034.28
483506.73
466462.16
467801.86
467380.48
459288.27
454469.37
453107.55
457717.27
439690.83
453351.71
445752.22
444984.78
466040.73
446144.8
457283.52
449872.1
448962.77
444464.67
446486.85
439701.6
420469.67
440019.15
422209.29
430775.12
427325.89
428539.65
430820.69
426444.34
435904.01
418062.11
428949.46
422444.58
416864.23
424411.94
406301.31
415522.96
403646.84
412041.12
408926.82
413909.09
407179.91
397961.78
404962.91
397490.95
398779.93
395216.88
397215.88
396325.83
386655.68
396529
382822.12
389591.51
392410.72
385137.26
381721.06
376590.63
381292.12
369056.81
375765.28
374481.74
375494.05
369551.57
366191.3
365632.58
360476.54
364478.24
361142.3
358865.94
355991.79
353729.38
354666.22
346533.44
347351.51
350295.31
345430.46
343690.21
340102.61
342035.79
333526.99
338008.16
336949.56
332927.07
330956
328435.81
327260.99
322014.39
323657.53
324193.07
318666.6
318970.45
313655.72
315676.48
309080.28
310603.78
310085.78
306309.73
305401.53
302081.43
302448.89
296834.05
298050.19
298238.95
290416.26
294168.51
288640.93
289882.25
284054.34
285323.73
284618
278151.94
281945.41
275944.26
276731.22
271874.43
272818.45
272874.36
264135.01
269660.49
262210.43
264062.23
259092.57
261179.9
259436.33
251181.56
256781.32
249506.07
251060.68
247511.23
248465.79
247089.38
236742.18
245929.97
236652.64
240028.58
235180.42
237892.96
235288.72
226029.31
233169.61
225615.49
226449.17
224791.2
224970.7
223569.87
214641.07
220478.18
213434.79
215053.56
213236.03
213686.56
211890.12
201812.95
206898.77
203104.96
202710.21
201001.97
201986.69
199638.65
189685.49
197366.55
189813.64
191034.23
190109.16
190947.82
188750.79
179066.46
183461.87
179123.1
179581.82
178701.46
179266.21
177144.12
166792.97
171743.85
167097.9
167491.75
166862.21
167782.05
165825.24
155508.62
159527.54
156130.82
156160.41
155913.75
156831.23
154795.98
144038.74
147604.3
144439.99
144290.76
144476.34
145369.47
143418.59
132745.57
135521.45
133082.15
132753.22
133249.51
133980.6
131990.7
121346.89
123484.53
121741.96
121110.21
122143.03
122522.69
121292.31
110128.18
111949.12
110744.65
109968.12
111046.54
112157.69
110537
100137.17
100744.46
99725.322
98024.517
100755.86
99184.284
100663.04
89201.729
88321.21
89077.111
87894.836
87837.049
90789.974
88532.261
78839.383
77208.881
78146.533
77035.776
78475.084
79388.262
79049.047
68172.677
67769.66
67988.958
67068.068
67414.795
69114.177
68372.968
58802.795
56850.262
57876.669
56029.031
57852.036
58636.499
58636.867
49298.999
48625.045
49109.631
48039.441
49224.64
49283.443
49441.169
39950.958
37976.241
38791.932
37218.325
38394.043
39134.191
40264.776
32803.664
31855.946
32934.121
31289.401
32908.237
32863.385
32680.237
23697.201
22998.551
22777.127
21920.491
22866.946
22856.072
23761.68
16425.406
15265.358
16276.632
14896.453
15979.494
16212.18
15479.37
7958.6139
5433.9117
5146.2586
4947.2906
5746.829
4868.1681
7894.604
458482.04
487088.72
529812.81
523146.29
537072.82
493069.3
493394.21
368652.71
429994.9
445598.21
456032.56
453578.73
425678.84
406720.56
355884.07
328362.03
367923.44
354245.9
369261.51
335357.57
344814.49
314339.19
322383.64
337225.96
330351.33
336187.39
327333.89
302040.61
328131.2
322854.31
333427.88
322746.61
338528.72
318539.56
326897.63
311895.23
304919.44
308003.96
302554.45
298294.51
310701.74
305470.08
312552.61
311269.6
323288.89
304894.79
319007.71
317937.26
310682.98
306936.65
297440.74
295752.87
289160.19
298052.34
292907.36
299774.34
302944.92
289561.72
304129.78
291846.64
292706.55
297377.77
298597.78
288975.66
287584.86
292559.92
274358.57
285499.47
285681.29
290663.03
288156.99
280933.25
280231.9
271105.03
277840.42
278621.55
279012.16
279741.46
267256.42
278546.53
263854.31
274187.12
269151.2
279673.41
268935.57
262192.75
271170.77
252023.95
262782.51
258126.57
264107.99
261812.02
255379.49
260389.52
245123.37
255085.94
253773.3
250619.05
251590.24
248828.67
248233.04
236599
245960.4
241785.02
241841.69
243320.31
239467.05
238530.04
231224.94
234413.22
235181.31
232033.69
234203.6
231400.64
230643.23
220922.47
225920.96
227462.41
225767.91
224340.06
222512.48
219479.52
213416.69
216546.58
217499.94
214008.23
216539.3
212584.76
211529.31
204973.88
207855.94
208702.98
206985
206007.3
203469.45
202235.83
196298.52
198495.53
199201.28
197677.19
198571.03
194608.61
193396.31
187568.06
189852.05
190512.71
189704.57
190404.86
185393.05
183978.8
179277.15
181301.47
181802.29
180545.65
182662.58
175789.23
175654.71
171290.69
173571.5
172443.92
172725.41
174347.31
167464.22
168021.69
164104.81
165346.52
164144.85
165090.94
166289.14
159303.42
159888.46
155754.03
157782.26
155365.8
157086.94
157974.76
151716.39
149680.41
150873.59
147811.45
147366.15
149814.21
148129.01
143872.19
143161.27
139921.77
142092.95
137972.62
141240.53
141668.55
135384.84
135641.29
133271.67
134201.61
131054.01
133681.83
132848.19
127708.37
128609.15
125363.97
127402.54
122708.7
125888.69
124710.9
120625.37
120175.07
118381.15
118955.9
115528.5
118041.22
116632.76
113431.15
113454.02
111346.4
112255.27
108572.51
110688.9
108581.17
106566.35
105595.65
104368.46
104683.49
101456.84
102944.36
100883.73
99417.557
98446.598
97353.181
97751.386
94326.47
95409.899
92988.63
92466.353
91025.732
90662.637
90397.44
87296.849
88333.64
85263.693
85695.808
84131.244
83778.294
83698.396
80952.157
82054.05
77792.031
78945.371
76600.213
77121.298
76377.826
73664.463
73645.292
70157.345
71913.206
69657.889
70134.891
69371.231
67021.801
67129.341
62548.103
65582.243
62401.414
63555.08
62492.307
60591.568
60637.276
55402.746
58126.51
56043.499
56262.621
55865.661
54534.291
53399.227
48515.269
52252.03
49050.01
49738.931
49039.431
47497.183
46643.373
42290.728
44751.561
42134.358
43092.951
42475.586
41281.804
40492.906
35445.695
38674.761
35618.808
36910.337
35699.98
34885.293
34686.825
29923.561
31853.668
29292.823
30325.806
29203.422
29111.236
28650.87
24106.159
25923.848
23411.211
24434.446
23763.073
23424.882
23369.183
17722.329
19585.61
17130.296
18290.462
17248.049
17181.939
17279.476
11741.889
11989.437
9848.8235
10658.722
10329.667
10681.374
11165.909
6236.1255
4575.6564
2544.585
3162.2989
3396.3309
3370.7893
5116.7051
256857.36
277503.32
259213.09
290764.36
268609.78
254813.55
238507.9
188595.95
269969.69
257179.7
275680.44
242329.01
258045.85
206923.67
173593.19
165226.89
169436.94
173115.96
166714.59
154374.66
151014.56
146740.04
177189.51
175904.21
190974.81
165530.59
183648.6
149387.51
163568.99
149825.5
152776.9
141429.33
141452.04
137340.43
138250.05
145845.23
164153.93
143299.48
150238.19
147048.13
146489.21
145342.98
156386.77
156110.16
130817.04
140915.82
138996.88
133028.64
140343.7
148758.79
159055.81
130994.8
142581.02
133599.51
130722.88
141018.02
151566.06
158970.8
129200.29
136344.18
132883.14
133351.29
138346.11
151665.52
154819.33
124103.49
131533.32
132515.04
127355.02
135466.31
147838.19
152088.63
121455.39
134176.7
129052.05
129073.58
132026.05
140699.29
146789.32
118368.05
128288.23
125519.72
122357.04
130090.57
135442.85
148810.04
114500.79
126971.48
121607.34
121656.26
124198.6
132176.5
138600.63
115037.18
122835.18
123699.85
111792.42
127929.89
128914.1
133192.31
110475.55
120620.15
117485.01
110650.82
122068.39
123665.41
125670.02
111349.46
113742.33
114822.59
106757.12
119820.07
116259.22
122798.43
105852.79
111226.87
110030.35
104018.07
113255.3
113655.7
116340.77
102831.33
107093.37
106320.69
100304.26
108516.74
106603.39
112645.88
98753.995
103497.06
101368.61
96400.979
103663.09
102899.37
107921.39
94768.389
98742.281
96844.937
92707.892
99704.044
97104.395
103207.08
90315.276
94653.679
92351.95
89417.764
93889.989
92192.19
97677.785
86370.505
90340.305
88512.926
84496.596
89872.805
87204.452
92871.383
82418.349
87053.224
82626.95
81231.779
84985.645
82323.21
87399.214
78793.85
81105.747
77879.53
77137.479
79897.348
77940.905
82592.93
74267.772
76900.577
73108.336
73726.642
75059.798
73851.809
76183.072
71368.593
71284.132
69007.093
69322.81
70504.82
69836.312
73086.237
66551.004
69154.627
63547.517
66872.532
65435.742
65534.043
69979.82
62472.299
64470.632
60651.778
62077.843
62695.377
61423.381
64777.031
58244.752
60229.462
56467.941
58066.731
59045.397
57918.731
60685.627
55086.693
56695.555
53265.272
54626.498
55722.944
54293.787
56657.249
50994.817
52957.451
49203.047
50996.054
52199.545
50806.86
52529.543
47481.188
49263.911
45923.983
47539.678
48629.22
47402.457
48515.578
43922.667
45704.909
42441.698
43841.639
45841.818
44088.992
44741.156
40661.111
42321.741
39255.155
41104.966
42814.149
40923.151
40884.853
37296.62
38584.421
36065.408
37189.864
39364.008
37512.176
37212.166
33941.96
35420.974
32862.399
34534.52
36708.881
34918.958
33638.929
31189.769
31895.16
30407.605
30713.113
34195.388
31327.999
30464.344
27695.225
29276.877
26894.716
28420.24
31201.766
29161.113
27048.353
24998.346
25760.158
24482.714
25461.548
28135.671
26160.698
24671.443
22129.541
23877.631
21884.691
22734.469
24980.371
23267.892
20052.157
19368.475
19617.885
18835.608
19723.673
22710.515
20556.987
19443.339
18131.778
18824.13
17731.815
18201.806
19837.899
17791.261
14511.375
14156.991
14042.132
13716.484
14379.882
17027.723
15378.305
14175.547
14205.817
14422.585
13886.594
14540.578
15063.817
11564.902
9443.6259
9326.9704
8565.9473
8718.9062
9099.5778
10124.851
9609.5605
8891.9628
8129.6248
8504.4949
8635.0697
8994.1525
9814.2927
5646.7645
1824.6599
2048.1109
1812.5936
1375.1866
1947.7233
3120.7197
-11954.505
-24168.332
-18614.905
-10820.964
-17855.71
-20794.954
5524.2509
-12489.361
-16925.298
-18598.592
-13676.998
-20757.546
-14697.698
-16351.347
9471.4794
-39611.115
-35584.309
-48598.679
-33747.664
-49050.057
-11355.076
-14202.247
-29565.113
-15318.687
-24760.14
-27118.036
-11476.382
-27339.166
-4889.1347
-16171.89
-17905.022
-45224.015
-13760.445
-50979.21
-5820.741
-6361.4421
-25215.045
-33173.667
-26256.088
-29138.452
-22788.361
-16843.388
-5906.1384
-20368.605
-7081.2118
-32409.706
-16258.514
-26943.675
-11945.277
-2830.006
-16114.192
-22751.012
-24033.892
-21167.978
-19737.125
-13943.342
-52.363215
-22108.197
-12444.496
-26868.271
-16611.373
-20766.782
-17831.022
-6663.0773
-15085.8
-14448.242
-25309.152
-18994.341
-19311.443
-14218.343
-3615.1945
-15010.656
-15185.556
-25125.681
-18727.133
-20488.475
-14290.687
-3878.9963
-13127.008
-16857.95
-19902.265
-19594.943
-13922.451
-13157.625
-1341.7887
-15205.633
-15250.524
-21746.293
-16425.992
-17103.739
-13708.526
-2964.8581
-13550.938
-5863.4769
-15541.081
-20310.132
-12990.529
-17647.88
739.51113
-6284.2958
-17601.909
-14366.048
-20423.988
-13411.241
-13152.622
-3082.8722
-7112.91
-16536.474
-10969.706
-21184.892
-11118.64
-12957.862
-262.76705
-7166.0642
-13573.649
-8685.9783
-19278.942
-10293.693
-10134.62
-1820.4766
-6182.5358
-12152.822
-7469.3607
-18551.166
-9200.5619
-10456.274
-226.8326
-4216.6779
-10415.857
-6683.4317
-16766.718
-8348.9179
-8367.3935
152.9186
-3667.5239
-10149.811
-5899.4961
-15780.151
-6698.7814
-8931.4628
1136.739
-2581.5625
-8750.8335
-4828.4217
-13221.923
-6437.7942
-7809.4617
2162.5578
-821.48416
-7897.1121
-3296.9396
-12995.395
-5309.4781
-7040.5213
2558.2129
-11.522063
-5942.2668
-4149.7631
-11248.131
-4371.0801
-6206.6151
4252.6519
724.98588
-4640.2154
-3446.4594
-8584.1371
-3114.0503
-5205.6285
4310.7834
1357.4757
-2952.5886
-3080.983
-5656.5519
-3176.6165
-4111.6276
4488.1899
4113.1634
-2010.3085
-1321.0008
-3602.9425
-2640.6797
-2589.7923
6426.3261
3922.6982
-637.25527
-1214.19
-2440.8812
-1960.4453
-2476.0761
6360.4151
3862.479
334.68346
-663.01368
-1775.1296
-916.9141
-2200.4545
6907.6234
4561.5936
1697.1231
823.53524
242.26103
277.49734
-981.09754
6791.3166
5403.9083
2460.5713
1491.5563
554.93639
1035.989
-539.04467
6994.6246
5778.8869
3240.3827
2504.8126