/*--------------------------------*- C++ -*----------------------------------*\
  =========                 |
  \\      /  F ield         | OpenFOAM: The Open Source CFD Toolbox
   \\    /   O peration     | Website:  https://openfoam.org
    \\  /    A nd           | Version:  6
     \\/     M anipulation  |
\*---------------------------------------------------------------------------*/
FoamFile
{
    version     2.0;
    format      ascii;
    class       pointScalarField;
    location    "0.93";
    object      E;
}
// * * * * * * * * * * * * * * * * * * * * * * * * * * * * * * * * * * * * * //

dimensions      [1 -1 -2 0 0 0 0];

internalField   nonuniform List<scalar> 
625
(
681.90803
-861.81856
34721.689
22647.81
1693.2001
-640.84528
18623.454
27935.857
-452.90276
-86.575915
-955.96113
17147.623
10261.737
41574.05
2641.4402
1206.786
2486.1151
4332.1863
4099.0381
6386.1691
7116.5833
6734.6208
7564.6229
4870.7138
2585.6944
-1286.5369
-5811.9233
-11927.079
-17656.518
-24167.04
-29064.862
-33230.012
-31313.012
-28067.211
-19180.157
-9118.0119
11772.515
5516.7144
-643.51034
6405.5399
946.83022
-3953.4742
-2818.2616
-9741.4008
-9256.8519
-9837.2559
-8345.3574
-3586.0542
2339.2764
11341.456
22267.216
35382.171
49447.034
63730.088
76162.111
85435.113
89297.573
85692.343
76691.982
54078.103
4.8024168
-596.96624
-1055.2078
3928.6795
12148.62
-1080.2962
400.24492
2409.1738
-9891.0233
-8275.24
-10840.345
-11872.222
-10740.652
-8779.4952
-2438.5088
5538.7809
16623.576
30223.645
43653.72
57382.505
67833.059
74572.875
75625.24
70589.048
59853.53
48340.814
31155.159
8056.6534
12491.805
11703.434
2764.2884
-4893.7304
-11540.982
-15283.44
-16090.149
-15713.748
-13390.301
-10777.895
-7600.7572
-5136.5098
-2254.0297
-578.45598
2749.1846
923.57846
2166.6553
3313.1402
2828.2829
3607.7818
14.230319
4829.2145
523.54409
4291.937
649.76629
482.74855
-240.13054
-844.22491
-2246.8409
-3112.5109
20833.757
20710.526
18993.103
32646.804
32133.656
30496.324
797.84
-1125.1777
-2356.9036
-3330.5992
-5943.1291
-5486.2742
-7525.0164
-6727.4514
-6305.5588
-4569.0257
-797.78928
3521.0545
9824.6168
17474.337
26589.643
36237.307
46040.748
54691.041
61295.36
62809.632
62863.02
56025.335
40881.92
513.06011
111.81183
170.0231
-1497.15
-1379.4173
-2088.5484
-2752.5942
-1791.5456
-985.20656
1605.4866
3644.103
7081.3224
10612.282
14448.314
18069.271
21506.153
24487.916
26288.653
28053.137
26379.481
25587.525
21482.653
17120.892
660.39293
-1487.1613
-1080.9574
260.82053
3452.2083
3978.6573
8470.3446
9073.9606
10193.602
9686.9426
7248.3456
4000.272
-1522.5074
-8251.645
-16301.524
-24466.411
-32636.671
-37955.756
-41492.69
-38046.692
-30388.335
-16781.207
6825.6509
-308.99274
-410.80273
-392.69683
-334.18943
-556.40819
-392.54463
-766.35493
-1453.5985
-1488.218
5536.5788
7239.1727
5361.1882
9018.3395
6388.7033
7650.7779
2653.1416
-346.61234
4432.4763
193.74796
1455.8198
-1500.6823
502.57842
-3492.1052
581.89857
-5781.8845
-5169.6455
-6901.3554
-6329.6917
-9467.6785
-7089.5607
-8706.1155
-12496.976
-9844.0657
-9685.4618
-11466.213
-10889.276
-7261.0959
-10881.018
-8434.7796
-4895.3387
-6515.008
-6171.8317
2445.6066
-550.99368
769.19643
10656.279
9637.9285
10137.821
22815.063
21724.421
21520.574
36103.326
36497.852
36225.466
50821.694
52124.476
51026.887
64940.25
66917.196
65628.208
76770.525
79093.751
77853.321
84767.012
86893.814
85769.227
86830.671
88081.509
87278.149
82042.559
82762.534
82342.335
70389.188
71151.871
70659.259
53306.833
51649.421
52078.81
15063.016
14547
13635.488
12065.987
10426.026
7102.7005
39162.154
38074.978
35966.051
2875.3339
3085.324
2577.1379
1724.3141
147.4143
1112.2625
5059.8336
4046.3924
5573.7614
3503.6536
2339.7507
2288.7499
6565.2703
5484.8137
5440.225
6181.4494
3348.5775
4816.6018
6658.8369
6425.4582
5641.9184
6834.3052
4999.13
5714.4536
6138.9251
4950.9618
4683.0426
3680.3189
2188.3388
4418.789
1301.1256
1619.8068
2285.4041
-1461.1278
-2314.2806
-77.218815
-6190.3724
-6001.8493
-3723.0949
-10656.093
-11012.027
-8047.099
-15805.817
-16294.642
-12853.035
-20784.343
-21653.545
-17833.018
-24759.321
-26025.575
-21838.681
-26715.852
-28428.037
-24685.51
-25972.257
-29148.871
-24285.362
-21482.558
-26828.603
-21599.481
-12137.785
-17859.403
-14189.891
-4293.1616
-6372.2398
-5777.7399
12744.03
11484.191
11001.582
964.4544
372.44501
-1972.8863
-1051.3572
-3796.419
-4705.9522
-5107.1661
-7281.8785
-6530.6792
-6044.3876
-3696.8617
557.34146
6276.3343
13819.568
23042.485
32715.565
42161.208
50162.423
55143.624
56962.378
54214.733
46033.864
41006.828
12.041482
2038.3911
-448.98317
1042.6445
-417.09062
1143.1238
1415.9929
2620.5513
5172.4854
6079.5575
7315.5114
7857.9581
6412.6914
4620.0261
1375.3501
-2596.0421
-6429.6439
-10246.672
-12712.956
-13969.135
-12791.5
-10412.581
1638.4509
872.20359
-2585.7179
984.28443
-670.7939
4653.4018
8158.8985
8154.4514
12519.937
10694.53
10768.689
6207.748
1017.0397
-6994.4436
-16386.427
-26511.836
-36416.545
-44387.784
-49306.308
-49435.144
-43909.659
-32754.921
-15312.914
6151.5564
293.9831
638.80459
926.3535
-241.46622
-136.22335
198.03328
-1884.4339
-2516.2475
-1350.4245
-2170.9602
-1468.6618
-1397.8258
-3323.6821
-4451.0263
-3505.7962
-4438.0479
-4415.5649
-4280.7902
-6189.6961
-6202.7511
-5318.7492
-5487.0323
-5660.7569
-6026.1851
-5578.6591
-6500.4798
-6147.6667
-3906.0096
-3777.7622
-4171.1955
-285.72118
-1264.3655
-1998.0585
4012.161
3439.2469
2890.0861
11428.949
10051.295
9249.3789
19835.365
18286.565
17376.83
29905.711
27715.602
27047.96
40279.282
38119.037
37413.875
50517.375
48047.075
47600.85
59017.073
57073.072
56093.367
64825.327
62269.773
62538.191
64182.063
66687.509
63987.19
63005.947
63637.754
61239.839
55390.444
53595.565
52658.085
42056.489
41606.081
41020.658
148.70271
210.51902
145.86034
948.39943
1455.1211
1704.5979
148.34359
-1774.3492
-65.252639
-56.636537
-66.492002
783.95436
799.64122
-1953.3377
-1040.8043
-99.684231
-1818.9096
-289.04581
1183.5177
-1032.8976
-144.48611
2624.6821
-55.394197
483.49986
3302.9648
1456.043
2171.5906
5970.8214
3792.9264
4192.7638
7376.2539
5592.3966
5576.7289
9105.0657
7431.4833
7417.7155
10363.05
9244.9238
8302.8847
11026.486
9929.4016
8738.2526
11554.558
10620.797
8885.799
11506.289
10242.755
8468.9477
11409.553
10027.645
7814.4685
10795.092
8518.3871
6884.9053
10446.601
7831.5099
6096.1686
9032.7202
6936.6493
4789.7962
3670.489
14220.723
5264.2827
6855.478
4168.38
2901.1337
8805.5511
6569.5369
6066.2604
1638.1393
1600.7209
1371.7823
-1431.9601
-3058.5304
-2684.7114
317.68275
1979.813
1853.8935
3478.575
1794.1306
1668.811
4432.563
5707.6969
4920.6075
7352.4506
8352.2567
7817.0078
10649.738
10840.723
9505.3901
10836.341
12451.878
11633.353
12264.315
12563.806
12000.895
10868.349
11737.161
10942.405
8100.2305
8008.6773
7911.6033
3772.5644
2845.327
2987.0691
-2667.0156
-4884.2099
-3650.5243
-10163.284
-13731.888
-11932.435
-18793.519
-23783.29
-21003.435
-27395.4
-33159.325
-29970.687
-34980.776
-41171.563
-37829.205
-40137.298
-45987.284
-42852.439
-41859.438
-46270.697
-44315.609
-37683.298
-41847.782
-40441.057
-29442.562
-31304.601
-31654.315
-14209.62
-15277.352
-15989.632
7939.8917
7071.7565
6597.9073
)
;

boundaryField
{
    free
    {
        type            zeroGradient;
    }
    fixed
    {
        type            zeroGradient;
    }
    freeTop
    {
        type            zeroGradient;
    }
}


// ************************************************************************* //
