/*--------------------------------*- C++ -*----------------------------------*\
  =========                 |
  \\      /  F ield         | OpenFOAM: The Open Source CFD Toolbox
   \\    /   O peration     | Website:  https://openfoam.org
    \\  /    A nd           | Version:  6
     \\/     M anipulation  |
\*---------------------------------------------------------------------------*/
FoamFile
{
    version     2.0;
    format      ascii;
    class       pointScalarField;
    location    "0.33";
    object      E;
}
// * * * * * * * * * * * * * * * * * * * * * * * * * * * * * * * * * * * * * //

dimensions      [1 -1 -2 0 0 0 0];

internalField   nonuniform List<scalar> 
28033
(
26152.296
23616.624
-1131698.5
-542927.93
31583.862
27895.866
-820330.48
-1699963.9
16952.484
11690.852
7821.0514
5404.786
3196.4143
1867.2534
1107.8311
804.16921
1233.2733
1962.9315
3621.8066
5863.5575
8981.5912
12703.303
20280.863
-627035.5
-624883.76
-623398.57
-622385.12
-621302.31
-620189.49
-619330.92
-618393.48
-617450.78
-616531.84
-615786.49
-614888.12
-613936.09
-613482.2
-463364
21297.094
13229.548
12502.263
12093.364
12095.286
11909.206
11728.967
11391.632
11058.719
10635.402
10173.686
9717.8572
9220.6744
8753.5967
8264.2341
7803.7401
7369.4396
6959.9049
6559.6118
6182.0229
5867.4082
5522.8174
5233.082
4962.1665
4685.5927
4494.1988
4228.0998
4070.6527
3877.024
3727.0705
3580.0816
3458.097
3366.5272
3222.9319
3170.367
3100.3584
3055.2486
3039.6852
3007.121
3022.7072
3019.4186
3057.7558
3109.4495
3165.8135
3246.4419
3334.078
3430.663
3538.5894
3642.7785
3757.079
3858.5176
3963.666
4054.2311
4139.1905
4212.7395
4277.0932
4331.8109
4379.5607
4424.2223
4465.8746
4505.9301
4554.8006
4609.3511
4673.4535
4738.4498
4829.0167
4948.7426
4996.1496
5156.6434
5264.33
5418.9311
5541.2149
5748.7438
5897.0738
6142.6829
6333.5157
6605.9933
6851.5407
7140.5118
7432.4632
7752.4069
8014.7831
8392.0079
8622.7854
9021.2336
9290.5933
9737.4591
9963.8901
10441.474
10852.475
11008.775
11706.284
11580.616
11516.197
11813.432
17782.611
10244.108
11781.549
10551.834
10670.017
10526.131
10159.817
9962.4478
9640.2636
9183.0615
8839.8518
8329.0264
7911.0601
7464.8023
7029.4991
6630.6058
6199.7478
5833.8876
5488.2937
5149.081
4831.2953
4566.9755
4277.9706
4064.3728
3811.7903
3645.5522
3425.9284
3264.7945
3089.4033
2937.9966
2787.8765
2684.2897
2592.9509
2524.686
2466.5362
2418.7539
2372.8062
2324.594
2326.1967
2340.4374
2351.9304
2391.5747
2439.9679
2501.8764
2573.7899
2659.0576
2748.4813
2847.0122
2948.4615
3050.1948
3154.4597
3253.5542
3350.1968
3441.3958
3526.7528
3604.697
3678.6312
3746.8062
3808.7676
3875.0413
3931.3116
3999.9704
4059.0962
4137.5839
4205.3397
4306.5124
4400.61
4524.6297
4642.3233
4761.9584
4890.6114
5044.2827
5245.9151
5407.0957
5655.0333
5831.2129
6128.4386
6331.6721
6647.2251
6902.077
7223.2679
7525.6481
7841.9842
8197.4331
8485.0244
8887.3732
9182.0493
9554.3038
9877.3322
10312.256
10477.761
10973.148
11326.56
11573.819
11902.994
19741.766
13460.275
9180.0382
7092.6913
3890.7514
2288.4768
1458.9324
1059.6298
1487.8715
2715.159
4104.4708
6725.0657
10054.787
14774.828
19797.498
34902.596
14442.363
9141.5553
12965.754
10777.082
11517.649
10717.177
10789.982
9995.753
9924.5265
9378.7634
8800.8568
8450.3847
7842.3635
7548.4552
6947.4658
6754.3836
5990.8161
5968.6463
5303.4217
5175.693
4908.9892
4471.5025
4269.3547
4030.1681
3812.0396
3763.3374
3368.7277
3428.2437
3022.4023
2994.2499
2845.3478
2746.8624
2656.4862
2612.047
2730.3745
2400.1022
2484.6884
2440.9614
2437.8077
2460.7007
2496.7004
2540.5499
2607.6395
2681.686
2770.3185
2863.8744
2968.137
3071.2284
3179.8746
3283.0603
3384.9331
3477.6322
3564.0629
3639.514
3706.6096
3763.8458
3814.7199
3857.8931
3899.47
3938.2108
3978.5868
4024.3813
4072.5917
4133.2356
4203.3901
4275.4301
4325.8377
4744.1252
4537.7867
4728.6936
4851.9089
5000.9686
5175.3215
5357.2436
5556.6396
5774.0483
6005.4878
6256.1579
6518.058
6793.0144
7084.5126
7371.4113
7685.734
7976.9946
8307.4189
8594.8186
8941.5173
9233.763
9608.8021
9890.8941
10380.042
10678.41
11404.617
10371.092
-1320820.8
-1238574.3
-1101160.1
-1325460.7
-1104239.1
-1329282.6
-1107555.7
-1249371.5
-1335427.5
-1253834.6
-1114919.3
-1342693.7
-1119125.9
-1349677.4
-1269837.5
9498.0759
11133.705
11721.348
11370.66
10971.602
10568.589
10203.7
9833.9565
9485.9684
9137.2003
8825.2313
8476.4595
8171.388
7822.3363
7518.3611
7202.9346
6927.1287
6652.7869
6403.7995
6169.6127
5949.2534
5748.9989
5567.2456
5391.2246
5246.4548
5175.2724
5113.6221
4655.5652
4807.419
4670.4424
4608.7633
4540.2589
4479.1992
4424.6155
4375.1379
4327.5649
4279.9813
4230.6708
4178.3633
4118.3893
4053.9236
3979.263
3899.1472
3809.5358
3716.0061
3616.4202
3516.4919
3415.5547
3319.0897
3228.9476
3144.0136
3073.274
3018.5933
2960.9081
2935.1807
2927.9406
2978.6785
3001.3194
2972.6136
3087.4401
3169.1781
3103.5334
3342.7578
3460.6464
3580.4247
3772.4297
3901.9859
4060.7784
4296.6726
4534.2314
4810.6041
5050.1345
5310.3498
5683.2267
5954.347
6335.7616
6703.5465
7127.7848
7559.6098
7954.9998
8513.268
9059.9149
9459.4228
10039.338
10605.613
10854.983
11482.786
11846.407
12090.463
11956.834
12349.913
12801.611
13036.498
11940.025
23760.579
19567.829
18378.674
17804.345
17875.054
18237.85
18499.267
18468.495
18628.863
18645.834
18563.588
18035.821
17695.996
18023.295
18566.521
20342.631
16966.305
17487.107
17013.992
17947.87
17859.465
17768.869
18911.127
20051.332
19518.623
19311.83
18377.368
17672.734
17316.349
16998.036
18946.721
-612217.23
-612511.04
-612435.16
-612493.01
-612524.93
-612527.34
-612558.21
-612557.75
-612542.45
-612582.01
-612523.77
-612587.84
-612492.31
-612568.96
-612430.47
-1274121.5
-1274320.8
-1274481.6
-1274502
-1274384.4
-1274426.8
-1274459.9
-1274465.4
-1274491.3
-1274478.2
-1274505.9
-1274561.6
-1274533
-1274875
-1274356.5
15593.223
11389.996
10472.869
9967.0567
9816.7544
9656.3385
9481.7366
9303.8133
9031.5263
8749.4688
8396.5725
8065.8951
7662.9835
7299.0847
6888.3109
6530.9532
6152.5199
5805.5554
5454.6528
5167.3757
4868.3103
4585.7259
4361.6146
4103.9082
3907.9977
3706.2399
3521.91
3374.2922
3218.7543
3101.3142
2966.7762
2891.2016
2794.3028
2749.3365
2721.4566
2654.9235
2662.6553
2637.2983
2656.2657
2683.6093
2726.8721
2758.1772
2848.9013
2906.9864
3009.2989
3097.2147
3206.4411
3312.1001
3421.9514
3528.9193
3632.2172
3727.4862
3815.4678
3894.1098
3964.7601
4026.8732
4084.2372
4138.0764
4189.7904
4243.6886
4300.0561
4361.9568
4430.3522
4507.2464
4572.5429
4682.8005
4768.1681
4951.8254
5092.0669
5199.7239
5409.176
5546.0515
5789.8537
5960.1704
6217.7208
6440.2644
6701.7938
6992.9305
7237.5292
7610.0539
7835.9659
8245.4407
8597.599
8893.6265
9268.1592
9548.3889
9964.6854
10204.973
10698.027
10780.429
11347.378
11552.413
11856.182
12905.207
13101.644
9981.4792
8084.3907
8113.4331
7574.5721
7566.7555
7300.1794
7218.8788
7037.0213
6868.0128
6647.4926
6422.7935
6174.9705
5903.7323
5636.9328
5353.1896
5096.3063
4807.0744
4561.1713
4302.0674
4076.5356
3835.1401
3645.682
3447.2696
3274.9924
3110.8883
2976.6956
2840.7483
2721.802
2623.2876
2536.5504
2459.4112
2402.7252
2348.881
2301.4374
2257.7211
2235.3362
2247.4424
2234.8759
2272.4457
2288.7685
2349.1596
2383.8315
2475.2878
2528.9271
2627.658
2720.9386
2821.2919
2928.1526
3033.2665
3139.3382
3239.4276
3336.0176
3424.8116
3507.8509
3582.9154
3654.1283
3720.5351
3785.7681
3849.3907
3920.2245
3987.6683
4071.2212
4156.1486
4251.9801
4348.5166
4509.0486
4618.8978
4798.4443
4927.8972
5093.449
5261.9184
5425.6985
5640.9787
5840.0473
6085.618
6334.2648
6590.9247
6897.1252
7164.3388
7509.0661
7810.3435
8145.0285
8506.6127
8862.2995
9270.5275
9559.534
10015.513
10240.635
10696.564
10978.761
11463.702
11587.772
12323.62
12428.626
12899.037
6252.1971
5158.1731
5640.6723
5472.8171
5479.074
5299.7633
5221.4666
5103.6043
4964.0579
4839.2622
4674.1471
4515.3263
4324.4437
4142.3834
3948.3208
3747.5897
3558.6928
3369.2649
3186.606
3022.1141
2865.8561
2713.0912
2583.5324
2445.1946
2342.7224
2234.2888
2138.8358
2064.2609
1996.7405
1937.2875
1884.1591
1850.419
1818.5137
1801.5085
1808.3773
1798.6076
1808.181
1817.1237
1865.8308
1912.7908
1956.7181
2040.9374
2110.5015
2188.7323
2291.5911
2382.5564
2484.8846
2593.0507
2694.4415
2798.5243
2896.4727
2988.6261
3075.5081
3154.3291
3228.3987
3297.7343
3363.1028
3429.0893
3494.7967
3564.4541
3640.0628
3722.5754
3811.8354
3915.5543
4027.3977
4158.3663
4361.4504
4490.8678
4624.7235
4786.8703
4984.9252
5175.3728
5402.0046
5601.4091
5894.7122
6097.8687
6426.8943
6677.2211
7001.7139
7319.1106
7614.0421
8013.2103
8266.8879
8644.9756
8974.5442
9475.7586
9778.3511
10148.819
10576.141
10784.235
11256.406
11587.812
12027.619
12411.051
12716.012
3949.4943
3111.4837
3499.9667
3631.2658
3679.475
3641.4185
3615.2492
3536.8762
3462.8325
3381.15
3273.783
3175.3618
3046.3546
2938.7313
2784.6235
2678.0796
2522.673
2408.5042
2266.8932
2158.7267
2030.8123
1939.3508
1833.9973
1760.7091
1679.2031
1615.4931
1559.9848
1511.1949
1463.8461
1437.0171
1408.7476
1397.432
1386.1559
1389.0809
1400.2985
1391.9333
1448.0454
1470.1741
1536.7447
1572.209
1640.8474
1689.6919
1769.0467
1851.4223
1951.8081
2043.2999
2152.2389
2255.5505
2360.6389
2466.5059
2566.146
2663.9616
2754.5294
2841.645
2922.7665
3002.1917
3077.0756
3156.5114
3230.7765
3319.448
3402.845
3499.9684
3608.6347
3718.842
3843.3914
3983.6941
4128.8139
4297.9732
4451.5858
4642.7331
4855.1997
5063.2947
5297.316
5551.3242
5805.5643
6053.2555
6403.0871
6616.628
7039.928
7254.5753
7713.7472
7948.2599
8422.2867
8680.4009
9133.0416
9370.9628
9861.4389
10079.833
10590.254
10741.382
11458.415
11449.865
12264.374
12254.224
12847.01
2398.8599
1633.3198
2062.6314
2134.4379
2281.6014
2291.4346
2301.2313
2269.3133
2242.3951
2205.2039
2154.3057
2099.7686
2038.4536
1956.1978
1888.8892
1797.0628
1716.3451
1634.4725
1552.7643
1478.7972
1409.5465
1344.0383
1289.124
1235.2022
1187.3686
1150.5627
1117.8648
1089.6596
1079.3176
1064.5042
1060.3265
1062.8072
1066.103
1083.8509
1098.536
1116.9356
1197.1887
1186.2445
1300.2626
1381.1144
1444.3527
1516.7751
1614.5583
1697.7884
1797.0283
1892.6576
2003.3
2106.0296
2215.6234
2319.4866
2421.4708
2517.1505
2608.7775
2693.6694
2774.9467
2852.077
2927.0613
3003.2653
3079.1177
3162.1945
3246.9237
3343.304
3443.2104
3561.4968
3682.2189
3817.6033
4001.7773
4106.9251
4316.3846
4467.9627
4683.352
4904.5315
5116.4263
5349.2539
5625.6114
5911.58
6209.3492
6513.5777
6848.1179
7177.7001
7505.2085
7913.391
8167.5928
8665.2819
8844.5266
9409.4948
9639.3886
10106.9
10492.428
10896.205
11330.279
11523.727
12141.677
12243.536
12819.594
1313.1989
749.74288
978.88714
1074.5416
1219.4827
1288.3728
1324.4746
1350.9229
1353.4539
1355.5234
1329.4825
1323.1914
1271.4706
1255.1966
1190.5046
1161.2574
1096.234
1059.7221
995.47303
964.58385
908.78061
882.96309
838.55813
815.39156
787.75306
777.66977
754.76454
755.31605
743.71839
746.54117
753.79121
763.76996
782.87843
809.47626
833.03526
881.53956
909.15871
1047.2176
1075.9086
1083.8727
1164.3089
1228.7074
1315.0986
1407.1051
1501.9801
1602.6113
1706.3096
1813.625
1919.6006
2025.3992
2126.4385
2224.8599
2318.0212
2406.99
2491.8158
2575.3895
2655.6718
2740.8516
2823.5519
2917.3949
3009.4038
3121.0654
3227.9082
3358.724
3487.2796
3645.2863
3788.3369
3973.179
4168.5326
4355.3399
4570.5651
4794.8317
4986.5886
5294.6496
5614.4186
5880.8317
6216.2845
6463.2574
6878.2203
7091.7256
7584.5588
7776.6568
8317.3514
8516.6385
9064.6033
9331.6931
9780.3446
10111.604
10519.515
10727.958
11220.644
11433.352
12186.607
12118.699
12832.686
773.24905
189.2074
383.19785
418.33328
546.24679
617.12722
693.83204
727.53781
767.39933
783.92764
805.33432
800.33871
808.51053
782.42339
773.03688
741.63387
714.03858
683.561
654.13023
626.82645
601.06544
580.07542
556.31608
546.35251
539.45007
526.47197
531.51208
533.10845
541.57107
557.11631
570.74264
593.80423
620.41736
645.52552
685.73009
722.58207
772.88912
819.66283
892.7049
958.63686
1053.3075
1138.0522
1231.4076
1330.7643
1429.2939
1534.8436
1648.7307
1757.3082
1871.9368
1979.5787
2088.3149
2188.3404
2287.1726
2377.6283
2466.7916
2550.5897
2633.9461
2718.8357
2801.856
2894.3225
2989.3134
3091.614
3203.1219
3327.4388
3459.9878
3599.7404
3770.3908
3933.4086
4118.7816
4312.5853
4548.527
4734.1654
5003.2166
5219.7066
5467.6117
5775.404
6018.3806
6393.3139
6665.3311
7051.7464
7361.4991
7774.1498
8056.5455
8543.9337
8764.8235
9263.771
9514.8026
9970.9528
10331.504
10734.17
11390.974
11564.819
12151.572
12118.756
12923.445
517.81698
16.314898
109.0378
147.49989
244.26109
351.02687
412.58003
470.19612
521.11707
559.69234
573.25202
602.70413
592.25246
600.03789
582.89069
573.73228
546.97178
539.39994
505.45811
496.0702
463.86743
451.63894
438.072
442.65078
425.13646
435.65837
434.56285
441.37119
451.88245
462.93287
482.33184
506.41226
527.04572
564.9818
601.84583
641.19727
692.22734
759.0115
807.20043
870.82757
941.40295
1014.5015
1100.3391
1196.9438
1296.1951
1408.3845
1515.9796
1629.1292
1739.5122
1849.9745
1955.214
2058.3925
2155.1533
2248.6807
2338.3079
2425.057
2511.2898
2599.5428
2686.5428
2787.4119
2881.7906
2997.1037
3112.5543
3245.9576
3377.7869
3542.4601
3695.6421
3872.2944
4061.74
4274.4726
4457.3423
4721.2087
4943.2872
5216.3266
5536.1146
5804.0178
6136.1767
6438.7881
6786.0025
7084.6403
7536.4214
7715.5464
8332.3506
8437.1191
9035.1245
9327.9026
9704.204
10231.931
10429.319
10950.409
11126.176
11266.417
12012.766
12078.355
12920.194
681.59244
138.88112
200.66112
207.09289
298.13981
371.61505
428.67876
476.98364
522.6296
540.16201
569.77641
571.90254
580.645
567.32944
558.90733
535.49904
516.95036
491.42084
471.45199
456.223
458.7
463.98597
447.79225
428.03445
426.92077
424.00897
424.76601
432.61027
445.31975
459.54024
482.70972
501.08735
532.30858
570.13819
594.76256
651.69218
690.21086
754.07704
808.0132
879.69509
952.41001
1041.21
1133.3603
1229.6727
1334.2062
1436.8178
1549.5587
1658.9697
1773.5929
1881.6376
1991.4153
2091.9999
2191.6719
2283.5212
2373.569
2457.9187
2543.6866
2626.4805
2714.45
2803.8826
2899.4119
3004.6895
3114.5524
3236.2663
3370.3051
3513.8334
3667.7954
3840.7628
4031.5821
4204.2788
4444.6901
4651.5258
4867.5929
5146.2231
5345.6545
5675.7245
5922.926
6287.0113
6523.2259
6991.4851
7175.8911
7699.3599
7957.4765
8339.253
8802.3546
9029.8767
9495.3274
9833.5967
10108.424
10661.062
10970.516
11542.952
12093.903
12071.45
12864.876
1270.078
667.04697
725.68804
760.02046
840.08728
908.40956
965.55964
992.80383
1031.3621
1054.5018
1052.9575
1061.9726
1043.6257
1021.1002
995.32323
957.61717
914.18587
881.5543
825.81277
788.22696
759.38922
690.86435
633.06881
612.00278
601.66174
582.61603
575.99866
571.39707
571.60951
573.22598
582.47388
594.92522
618.98923
630.32455
676.97602
703.11422
751.12824
801.15828
854.84262
927.00551
996.62279
1082.7883
1162.0719
1262.5592
1358.9229
1469.0139
1576.5442
1689.3519
1798.1095
1908.1478
2012.0747
2113.2395
2209.3737
2300.9183
2388.6589
2474.2955
2558.0648
2644.6183
2730.3071
2825.1911
2921.5051
3031.4185
3141.5464
3275.587
3402.0091
3558.7654
3710.7135
3897.4095
4061.8247
4287.6277
4488.4233
4712.7739
4972.1079
5233.6374
5506.6949
5800.0754
6126.7678
6391.0052
6819.4631
7008.2847
7530.797
7717.8343
8215.7223
8483.8027
8927.9906
9251.4763
9621.9367
10135.88
10252.265
10957
11034.795
11452.884
11738.372
11938.098
12907.998
1546.5586
1214.5828
1227.691
1325.9343
1376.6463
1436.6653
1439.6939
1447.5822
1458.3392
1443.0931
1418.015
1401.0544
1349.586
1305.7258
1253.5581
1185.8793
1135.2933
1066.4425
1014.9399
953.53134
941.01864
949.21376
906.39787
889.81512
861.78376
826.59452
817.44772
790.31085
790.44561
781.20474
790.47069
806.41544
807.67079
849.35589
861.60701
903.03992
940.82922
990.49954
1049.3648
1109.5727
1183.9949
1258.4785
1350.8825
1441.3524
1545.1443
1646.7816
1757.7615
1865.8274
1978.3994
2085.4684
2192.4004
2292.1085
2389.4228
2478.7082
2566.8217
2647.741
2731.0554
2809.4302
2893.3521
2977.1799
3069.2329
3162.9681
3270.7048
3383.582
3506.2262
3643.4862
3792.1888
3942.2378
4125.261
4301.5803
4496.534
4719.8868
4934.5579
5184.0808
5511.0412
5720.4225
6002.7383
6331.3156
6591.0051
7018.057
7252.3976
7717.3785
7988.3147
8420.7122
8772.2175
9113.5848
9589.7678
9815.3654
10284.977
10666.263
10818.987
11485.513
11860.536
12327.363
12864.865
3789.4327
2391.9589
2669.2429
2645.5529
2739.6423
2663.5207
2698.9666
2640.3571
2613.047
2566.7383
2507.2558
2432.5548
2355.0718
2252.59
2165.2686
2050.3702
1948.7374
1844.898
1732.9267
1652.7118
1526.2419
1462.1744
1453.3612
1395.7229
1328.6358
1273.3695
1222.2694
1176.6122
1145.5222
1105.3006
1099.018
1065.3309
1073.0302
1062.4049
1077.9168
1093.4036
1119.3201
1158.3237
1195.0022
1256.5741
1312.0441
1392.2981
1467.6609
1562.6235
1656.2662
1762.1223
1867.2568
1977.959
2085.0364
2192.802
2295.0319
2393.5324
2486.3873
2574.3904
2657.6352
2738.0472
2816.4936
2895.1178
2974.8243
3060.66
3146.9521
3246.9779
3347.3524
3467.8685
3583.7998
3729.5643
3864.5931
4040.6518
4202.1756
4397.816
4604.3068
4815.9946
5060.249
5305.6799
5590.7714
5842.1007
6171.4588
6446.1972
6821.0065
7116.5527
7496.0439
7846.7075
8183.0661
8611.7511
8881.4723
9369.631
9601.3256
10075.155
10387.481
10800.883
11118.351
11665.713
11753.361
12043.327
12841.563
6154.5474
4969.996
4859.6861
4767.7051
4573.7923
4520.4529
4395.2909
4270.9639
4183.0411
4045.6611
3894.7515
3762.4176
3574.8937
3418.7711
3239.096
3048.6762
2890.9567
2704.5322
2556.7969
2401.3157
2265.862
2145.5346
2002.5752
1897.2075
1815.9955
1702.911
1650.7682
1569.7615
1515.1836
1479.6012
1435.4114
1429.0295
1403.449
1412.9293
1408.8409
1420.5028
1448.3402
1474.6357
1525.5742
1571.0924
1640.7572
1707.1036
1792.6387
1877.7055
1975.0829
2074.0596
2179.9272
2285.0769
2392.57
2496.3687
2597.7188
2692.6911
2783.8098
2866.6727
2947.0248
3020.6103
3093.909
3163.1352
3236.9119
3308.0125
3388.0289
3468.5308
3560.2473
3656.5696
3767.2477
3886.3183
4022.3467
4158.2411
4311.5104
4483.9491
4654.6289
4862.9396
5066.4509
5294.1495
5542.7872
5782.8949
6055.1171
6357.0551
6634.22
6976.6672
7286.1423
7635.3749
7977.3436
8336.7508
8684.0218
9067.6543
9389.1791
9832.9799
10076.535
10550.821
10751.82
11280.524
11253.146
12280.638
12902.457
9441.5474
7494.9961
7236.6562
6771.0058
6833.6969
6612.6693
6493.0335
6385.1756
6222.1739
6019.8776
5820.5815
5565.4779
5327.8326
5057.9996
4795.6576
4531.7079
4267.3351
4021.6748
3785.8804
3549.6764
3349.7672
3135.209
2960.4816
2808.5378
2650.5264
2514.9876
2406.3086
2279.8677
2196.4706
2090.7825
2033.7122
1953.5545
1905.4037
1870.5865
1839.7626
1827.6234
1821.0322
1834.9125
1849.7387
1888.2484
1930.7501
1992.5848
2061.2228
2144.922
2235.5545
2337.2555
2442.0511
2553.269
2663.8132
2774.4438
2881.3108
2983.3427
3079.3673
3168.5465
3252.3292
3329.7064
3403.4243
3475.9599
3545.0169
3619.5321
3692.048
3776.2419
3857.176
3956.9329
4049.6118
4168.6919
4285.2239
4427.1662
4579.6873
4736.1313
4924.5949
5106.7455
5326.16
5536.423
5809.3473
6033.7652
6351.0502
6608.0815
6952.4185
7261.602
7606.494
7963.0258
8301.1606
8692.5514
9012.6186
9422.0432
9726.9968
10139.545
10390.88
10875.686
11056.226
11565.728
11738.323
12268.006
12753.743
11597.642
9843.2659
8979.6868
8638.9863
8717.4985
8344.0171
8285.9709
8067.8733
7809.6103
7569.3114
7206.4763
6924.6401
6553.6265
6189.6185
5855.4102
5485.599
5183.4929
4857.8077
4553.5761
4284.9002
4046.2048
3768.7903
3608.3134
3360.1048
3182.5121
3026.9842
2850.034
2770.0839
2619.7886
2578.245
2464.4394
2404.7186
2337.2502
2282.6897
2262.755
2236.6586
2273.7984
2262.6205
2308.662
2333.2495
2397.1276
2455.664
2535.1935
2619.1487
2714.7536
2815.1739
2921.188
3028.6914
3135.0077
3238.9303
3336.5897
3427.8109
3512.2751
3588.7295
3659.5941
3723.9719
3787.0494
3844.1355
3905.5183
3963.1691
4030.4048
4094.1281
4174.017
4250.3153
4343.492
4428.8185
4538.303
4659.2192
4779.8909
4968.2765
5098.0441
5294.9142
5468.8152
5694.688
5899.8121
6165.3686
6399.5547
6701.3676
6971.6975
7280.5495
7587.3909
7916.1155
8237.8122
8570.8482
8927.556
9239.2235
9602.1958
9966.5784
10276.816
10680.227
11083.603
11507.273
11751.192
12424.135
12310.195
9893.4437
9496.4246
7929.1575
7730.1124
7537.5467
7596.5132
7451.7849
7554.8523
7600.2595
7638.5962
7582.2766
7570.2588
8175.3223
8791.5932
10902.778
7081.1244
5897.692
5096.412
5123.8911
4751.9238
4753.0406
4591.3451
4688.5923
4757.0454
4716.631
4785.7587
4933.4519
5288.8711
6078.4391
7472.1999
4466.4701
3545.3703
2596.1642
2463.9074
2226.5797
2168.244
2146.0615
2091.4921
2125.0366
2149.3786
2248.7479
2365.1351
2698.0331
3493.0016
4638.4601
2946.3828
2350.0922
1837.6494
1621.3509
1537.5313
1459.0006
1441.7953
1400.9375
1447.5638
1468.0761
1550.857
1616.4121
1987.209
2453.2776
3078.6173
1731.3957
1324.8141
905.16806
809.70922
701.42574
673.96668
651.04611
632.08415
645.19483
675.85119
712.63523
818.40079
1021.5141
1320.0215
1933.8922
1187.1122
810.30798
559.05593
497.37172
434.10885
418.56242
397.9377
396.63125
405.06008
411.53324
450.05197
490.10935
604.56928
816.79429
1255.1504
608.70455
388.01388
272.87665
201.12257
183.40211
156.20335
151.92604
144.21464
147.82023
152.91076
176.17852
208.10248
283.10412
425.36007
747.86359
488.55206
288.37388
187.81384
153.18309
129.65891
119.45069
114.35411
113.44026
116.51337
125.14547
140.32253
159.83219
219.10064
317.15474
613.1112
584.4893
364.26306
251.0071
195.08802
164.66826
144.70211
136.93142
133.08277
136.15927
136.88416
164.99288
193.85528
268.91876
415.63764
651.8425
999.93985
741.72112
480.70722
410.11559
342.98178
324.88742
304.85551
306.01364
311.31453
320.45828
384.4255
390.86352
558.68498
808.60209
1211.0472
1570.7914
1263.1983
847.422
773.30659
644.47097
612.31689
581.79139
584.81279
590.23919
592.78485
670.14998
772.74096
972.94163
1348.2809
1799.5759
2846.2355
2023.0745
1552.8654
1372.909
1209.7281
1148.4963
1116.1561
1105.6073
1132.3916
1152.6849
1285.0082
1258.1356
1696.9008
2216.2498
2976.5571
4156.8617
3361.2663
2650.2513
2354.4141
2129.6345
2084.8094
1996.3151
2054.4789
2049.6647
2008.0226
2187.3466
2289.3004
2690.4297
3522.0171
4101.1581
6863.5087
5617.5414
4654.5353
4366.4084
4090.4943
3966.2099
4060.5862
4107.4036
4062.2916
4067.4283
4116.4854
4280.1729
4760.8012
5446.5368
7377.8537
9432.529
9937.0131
7807.6296
7619.7297
7213.5787
6734.597
7257.7753
7618.4411
7046.7906
7464.0028
7234.4433
7458.2549
7919.5099
8973.3888
10847.398
23489.366
19955.214
20172.949
20616.465
21104.829
20864.717
21986.533
23072.098
23509.368
23205.141
22436.682
21288.295
20969.221
21328.477
20785.46
16382.041
14439.152
14112.216
13721.792
13120.607
13755.784
13519.553
13646.898
14532.219
13686.924
13905.169
13547.235
14469.474
15400.561
17218.749
12540.644
13318.519
12477.969
12030.802
12411.606
11097.29
11062.213
11172.135
10532.892
11672.948
11561.103
12849.486
12954.043
12959.729
13379.723
12112.075
13619.786
13351.074
12833.793
12574.053
12622.459
12390.014
12578.437
12580.891
12547.848
12953.02
13134.014
13400.839
13715.66
12637.259
12078.768
12702.871
12752.562
13199.392
12733.386
12581.543
12706.287
12510.806
12716.826
13070.782
12958.539
13365.474
13204.171
12764.972
12115.498
11420.108
12446.641
12584.468
12629.018
12716.631
12710.229
12559.064
12544.16
12602.432
12462.277
12787.288
12762.137
12669.39
12457.672
11547.377
11164.656
11819.826
12082.469
12383.724
12263.223
12309.493
12394.935
12348.756
12452.17
12505.647
12389.711
12413.092
12157.76
11607.688
11405.482
10870.621
11208.75
11567.619
11793.444
12007.222
11950.865
11976.88
12016.495
11968.321
12024.455
12006.43
11846.537
11685.389
11138.808
10611.497
10252.18
10652.691
10958.778
11169.055
11128.9
11278.85
11284.394
11303.335
11324.438
11255.034
11173.863
11018.142
10857.111
10465.939
10386.585
9921.7324
10025.322
10335.171
10484.837
10660.162
10679.59
10751.663
10741.2
10661.303
10758.115
10596.726
10603.667
10298.052
10082.87
9864.6805
9291.4063
9480.7234
9723.0072
9876.8663
9920.9405
10049.242
10056.884
10084.486
10154.367
10023.222
10071.801
9857.6578
9785.0248
9522.6728
9436.1432
8901.6189
8855.7598
9088.5852
9180.4903
9289.1471
9310.456
9362.7627
9339.3041
9304.4746
9295.6022
9183.4012
9132.6198
8968.4524
8808.758
8864.7586
8377.115
8373.9928
8445.9672
8619.4323
8669.7409
8748.7998
8777.8155
8795.6783
8855.1901
8790.3377
8782.103
8702.1356
8589.6412
8508.8367
8409.3853
7867.5608
7807.4363
8052.6209
7976.8755
8088.7456
8105.5246
8119.5146
8087.8127
8075.3314
8028.9488
7952.4588
7922.2083
7808.9094
7713.7029
7893.2172
7440.3791
7300.6875
7394.5811
7514.2519
7575.1928
7552.0157
7647.4342
7530.8578
7647.5879
7610.8667
7629.8449
7589.8431
7488.0845
7522.6439
7461.7038
6937.6305
6869.7957
7048.1611
6993.8447
6999.3289
7068.1614
7085.5017
7029.8883
6980.5308
6936.9443
6868.1152
6858.4346
6791.2546
6745.9708
6953.8953
6548.914
6384.0557
6473.9615
6467.8177
6584.2214
6552.0849
6578.7145
6532.5709
6628.719
6584.3944
6631.1005
6594.3808
6601.9442
6455.2218
6722.1488
6165.7751
6041.1522
6129.865
6053.0246
6074.6942
6103.0167
6108.2213
6090.519
6061.3193
6029.0234
5974.1912
5948.8919
5899.7788
5934.9868
6016.2806
5774.9708
5633.4489
5739.8398
5726.2499
5737.2192
5689.7218
5719.2935
5690.9895
5752.1064
5710.2627
5706.0168
5710.5588
5740.6214
5718.4353
5950.3288
5410.0215
5267.5174
5316.6694
5291.3182
5330.2605
5350.7682
5361.464
5301.3242
5309.1116
5275.6983
5279.8258
5294.5313
5240.5892
5243.6096
5337.4139
5129.0158
4991.784
5071.1449
5003.9896
4992.9965
4973.7372
5016.7675
4978.5333
5018.4521
4959.3359
4984.0436
4968.0605
5048.8345
4997.9873
5241.08
4780.2909
4687.7029
4722.7929
4709.3035
4707.8741
4722.82
4694.5155
4679.7635
4669.1131
4686.9737
4646.079
4690.8464
4613.8976
4561.9173
4857.9484
4563.3946
4393.4638
4472.992
4393.2204
4418.8216
4365.4942
4408.8284
4371.4749
4441.559
4366.8009
4391.9903
4363.9066
4404.7966
4383.7304
4556.0364
4315.614
4179.4429
4209.3651
4193.6299
4173.4228
4140.3116
4149.9606
4099.0727
4122.2969
4093.7759
4123.2109
4116.7007
4145.9535
4081.8464
4314.9494
4083.8437
3902.7487
3931.2793
3906.7657
3927.6123
3895.0133
3952.1911
3876.0226
3922.7467
3880.9385
3890.6951
3907.9059
3891.7559
3874.8482
4083.6185
3844.5782
3712.1843
3767.309
3704.221
3739.1838
3707.2445
3708.1552
3655.6993
3694.1969
3649.8676
3661.8559
3666.0585
3753.8882
3695.6552
3847.3348
3630.7821
3506.4274
3558.948
3529.0291
3532.2374
3467.8756
3514.1714
3464.235
3508.7218
3457.4187
3515.9662
3433.6906
3499.4256
3458.9563
3710.9446
3464.7582
3322.5154
3303.8941
3328.2125
3306.1048
3285.8175
3313.4051
3271.2464
3317.5804
3275.2848
3310.9429
3349.7639
3303.2626
3317.8334
3436.966
3272.8869
3178.7026
3190.4803
3122.513
3163.5824
3125.7077
3153.5711
3115.9847
3140.7175
3119.8948
3137.5561
3142.3494
3182.939
3100.8727
3383.7428
3150.0569
2978.2617
3052.9514
3007.0651
3044.2423
2962.9796
2996.4301
2965.6471
3002.2895
2945.2247
2985.886
2945.965
3025.0971
2955.5516
3152.474
3056.8662
2899.5701
2972.8863
2875.3889
2927.0878
2834.8436
2897.7868
2812.0879
2911.2151
2812.2348
2863.332
2833.9731
2857.3778
2826.2877
3010.3491
2966.2855
2747.8309
2810.9315
2752.5037
2788.9437
2737.2778
2766.474
2726.7226
2753.1131
2696.3116
2748.7181
2705.1316
2766.3774
2702.3675
2919.0947
2837.2925
2645.913
2727.9747
2646.2476
2700.0778
2616.8515
2689.8337
2587.1471
2658.847
2591.471
2649.6805
2609.8585
2646.9706
2617.1587
2803.6817
2748.5623
2570.7127
2619.4267
2568.1887
2596.5225
2546.1745
2580.3913
2524.0482
2570.6006
2511.3738
2557.7632
2512.5864
2573.3538
2522.4416
2709.4009
2674.8201
2493.0467
2574.8974
2459.455
2507.8243
2457.1591
2502.3775
2447.6037
2493.1403
2448.4528
2490.6444
2461.7006
2516.092
2483.105
2630.7026
2533.6091
2434.162
2452.8911
2393.6398
2441.0954
2407.0754
2432.2218
2398.1179
2436.2387
2391.3252
2446.0028
2398.5769
2454.4659
2405.055
2628.2716
2506.2308
2399.0307
2443.7793
2401.7917
2428.384
2370.2528
2421.5355
2346.8516
2396.8175
2394.0081
2369.5938
2348.3725
2367.2624
2349.9095
2524.5023
2537.4843
2388.2556
2434.7678
2378.2381
2398.0175
2354.1298
2381.7773
2321.5115
2384.4172
2282.4464
2369.4946
2305.4369
2375.5437
2340.9507
2466.4042
2537.1501
2343.0353
2410.0978
2337.7071
2396.0532
2316.2714
2379.9301
2306.4309
2352.1314
2299.4826
2346.2309
2304.8643
2363.1294
2298.9681
2486.0554
2511.9595
2346.9717
2408.7388
2352.1046
2383.7961
2326.2296
2382.872
2298.5794
2374.0871
2289.4105
2360.4528
2302.8552
2349.4099
2324.9995
2470.8714
2538.0925
2365.6838
2435.7874
2360.0295
2416.124
2344.1532
2401.1543
2328.8209
2383.4637
2316.47
2377.6332
2314.0075
2383.9427
2333.219
2479.7679
2557.7234
2397.3042
2457.0892
2398.9685
2444.3298
2374.2
2442.1508
2352.2821
2426.5984
2347.3208
2408.165
2357.5664
2411.4513
2367.8083
2516.6728
2607.3363
2441.3502
2512.9192
2444.2438
2492.793
2428.7861
2484.2367
2410.2502
2473.1233
2396.1486
2464.2751
2401.8172
2459.4782
2418.349
2556.7112
2658.5022
2504.1456
2568.3319
2502.9448
2556.4891
2485.5684
2553.8063
2470.2398
2535.9607
2464.0906
2524.082
2465.7627
2526.2069
2480.6057
2616.6701
2732.5266
2574.6544
2644.3371
2579.571
2626.734
2567.71
2628.3184
2548.1032
2616.06
2540.6686
2601.3728
2545.2692
2601.6163
2555.8087
2688.7899
2811.191
2659.8635
2732.0497
2660.3028
2715.4087
2653.3173
2716.2429
2637.674
2703.0298
2630.0065
2691.1718
2633.543
2691.5161
2643.7605
2774.0427
2903.6324
2755.5545
2825.5369
2759.9422
2812.3828
2754.9802
2819.0017
2737.9198
2804.1638
2732.4684
2790.1361
2733.8156
2790.8566
2740.2697
2867.5376
3005.0675
2856.8366
2934.9607
2865.35
2918.266
2864.2078
2925.5561
2844.7178
2913.4129
2840.03
2898.8093
2842.0385
2901.3189
2845.7708
2972.8757
3110.2006
2969.3126
3045.7337
2976.1239
3032.6316
2980.813
3041.9485
2962.6306
3030.0587
2956.5696
3014.4742
2957.456
3015.6985
2955.2865
3082.0541
3224.8426
3083.1961
3163.0436
3096.9638
3151.7017
3099.2462
3159.8439
3078.4879
3147.5706
3073.9223
3133.4565
3073.7743
3136.4043
3068.5393
3197.4935
3337.559
3198.8312
3282.9973
3214.8036
3268.2545
3220.932
3281.1306
3201.2079
3271.3719
3196.7797
3253.6373
3195.1123
3255.9047
3180.9037
3312.3803
3451.5256
3315.6928
3400.029
3332.9933
3389.5295
3340.9129
3398.2502
3317.1792
3387.8545
3310.3987
3372.0248
3309.7818
3372.9822
3291.7539
3426.3098
3562.9129
3426.3564
3513.2142
3449.5375
3502.0841
3454.3861
3513.208
3434.0759
3504.2471
3428.8032
3486.8591
3423.0661
3486.0121
3396.9118
3534.1718
3667.114
3531.4369
3621.8363