/*--------------------------------*- C++ -*----------------------------------*\
  =========                 |
  \\      /  F ield         | OpenFOAM: The Open Source CFD Toolbox
   \\    /   O peration     | Website:  https://openfoam.org
    \\  /    A nd           | Version:  6
     \\/     M anipulation  |
\*---------------------------------------------------------------------------*/
FoamFile
{
    version     2.0;
    format      ascii;
    class       pointScalarField;
    location    "1.81";
    object      E;
}
// * * * * * * * * * * * * * * * * * * * * * * * * * * * * * * * * * * * * * //

dimensions      [1 -1 -2 0 0 0 0];

internalField   nonuniform List<scalar> 
28033
(
3685.7903
-442.23328
39872.55
7538.9125
3016.4351
4602.578
12123.526
37910.337
2789.111
3483.8192
2296.6887
1981.1515
418.60585
228.37737
34.102069
160.3713
-112.0471
-511.96094
-2003.747
-2919.4776
-3883.0003
-3769.6994
-3027.797
31161.916
22274.278
21509.829
22108.546
24161.484
27097.328
28799.44
31993.407
34137.04
35816.83
37431.348
37291.942
36723.721
34989.755
29014.353
2142.2387
1434.7307
1000.9796
736.00031
1238.3959
1252.4622
1372.5655
1299.1323
1735.3568
1111.3631
1701.6347
1448.9732
1672.3458
1356.8375
1515.1687
1388.9864
1287.3753
1342.9317
1249.8357
1145.4321
1220.9344
915.27057
1212.3245
1152.6226
1107.6165
1278.465
1182.0092
1483.7151
1203.2275
1394.4519
1441.1892
910.31964
940.68022
673.98616
728.72453
769.20027
424.83722
831.92281
393.81232
381.43393
111.88254
18.672258
-302.63218
-440.8682
-667.91245
-654.03925
-824.62393
-596.57244
-696.25248
-440.22476
-519.91069
-415.24961
-573.95018
-685.06498
-943.12948
-1180.3193
-1482.7068
-1755.7126
-2056.5746
-2335.2518
-2701.2826
-3027.0123
-3601.9745
-3931.6683
-4433.1666
-5001.2049
-5417.1166
-5776.6462
-5885.1138
-5947.4044
-5867.113
-5694.7329
-5479.5434
-5100.8109
-4808.5428
-4394.6134
-4101.9081
-3538.6057
-3201.0764
-2633.3549
-1869.7182
-1286.0268
-182.2799
409.07265
1786.3178
2408.7447
4100.4815
4781.3239
6831.9204
7560.7031
10065.767
10853.047
13722.605
15294.634
27016.001
6843.8063
-4899.1671
3773.5499
-1949.0907
1331.8669
174.3438
31.945825
-223.8632
403.29876
-411.87729
457.57977
-92.360613
346.34341
130.64809
149.43111
75.592904
69.20146
-332.88263
-155.59503
-130.02957
-476.02629
-50.431064
-459.4695
148.09502
-158.88234
333.43845
-96.735947
237.16704
-176.75701
-28.22858
-419.79208
-332.15476
-471.80827
-507.51672
-381.43756
-374.77312
-109.67204
-91.367186
91.028506
529.73349
785.32159
1293.1569
1717.7934
2362.1493
2888.2522
3687.2146
4366.7718
5277.4405
6122.3216
7104.9162
8039.9583
9045.5174
9933.7678
10893.042
11680.944
12517.05
13273.112
14071.371
14881.38
15834.28
16835.092
18023.727
19285.272
20677.182
22113.768
23509.963
25029.827
26482.205
27822.583
29037.486
30495.531
31306.69
32862.608
33534.913
34719.703
35464.146
36065.723
36722.748
36949.222
37176.363
37203.983
37008.676
36873.831
36467.054
36174.516
35648.834
35211.189
34563.291
33932.968
33160.867
32287.676
31317.572
30253.337
29288.143
23014.96
1596.3355
2382.5405
1500.6036
1670.6223
361.52434
325.30709
203.79458
35.364768
58.862194
-394.90466
-709.84084
-1583.4106
-2120.0631
-3372.5538
-1383.3011
3965.2445
9745.329
-11306.8
4450.8115
-1373.8658
-511.73831
619.4891
-92.23327
714.16975
1014.1011
712.70815
-168.03399
1385.1006
-703.6279
1134.7063
-1258.563
1516.0979
-1755.505
868.48402
-1408.7745
-591.62317
625.57781
-458.38548
921.19683
-883.34554
499.37777
99.188757
-82.19833
662.75035
-859.31822
-468.05862
-331.58933
-301.03072
-20.853623
269.29252
1899.6471
529.87472
2353.1877
2674.8173
3085.7701
3574.8564
3884.0085
4365.4693
4785.2232
5450.1735
6107.3943
7001.4162
7893.5733
8901.5975
9828.6513
10722.679
11470.095
12129.196
12627.987
13160.631
13656.677
14282.58
15097.745
16045.914
17256.67
18531.648
19935.63
21291.762
22564.087
23703.405
24702.258
25415.478
25523.33
27460.847
27294.703
28121.368
28569.943
29106.91
29617.126
29951.278
30117.67
30109.129
29966.832
29592.286
29254.39
28781.485
28411.601
27923.423
27596.673
27066.741
26656.376
25981.123
25337.107
24430.554
23509.504
22446.78
21339.145
20372.207
19032.104
26211.347
33252.125
31510.328
34946.832
36618.193
37732.67
34907.635
36019.193
27350.755
30050.815
27813.22
25120.901
21537.181
22698.291
21201.339
27029.56
26337.55
26760.231
27519.678
25417.037
24104.465
22468.978
21005.513
19539.167
18084.656
16746.448
15400.595
14258.991
13111.804
11940.651
10906.602
9905.6772
8954.7807
8063.8001
7105.3226
6221.2833
5295.3215
4457.4587
3559.8634
2853.3818
2190.3318
1364.2857
2235.5972
-78.601693
259.95267
-478.49288
-659.43749
-992.03311
-1263.035
-1442.2129
-1594.6976
-1654.6458
-1666.8954
-1615.1161
-1537.3377
-1435.9531
-1370.2412
-1309.3159
-1332.6414
-1377.3406
-1502.0941
-1628.5266
-1796.4884
-1930.2298
-2049.779
-2105.8697
-2161.5492
-2085.0645
-2092.649
-1947.6798
-1954.766
-1715.8142
-1639.0876
-1279.621
-1873.8391
-1314.8048
-1272.1875
-1390.0225
-1279.9985
-985.19767
-546.6137
-181.90213
-352.10566
-54.053387
-274.65858
340.72803
613.5938
367.29537
31.160099
935.42864
237.55643
631.80312
630.17016
791.14841
1033.327
1412.7176
1229.1781
249.87001
2311.4237
570.66613
2483.3495
1170.6335
1155.9967
388.04408
1945.7356
1090.7238
-220.53359
2363.0983
2321.2962
-2292.0633
5934.9828
1636.1212
2527.6325
1791.7604
2554.2737
1678.0022
2654.6111
1367.568
2588.5765
1902.3431
2152.9577
1825.6417
1730.894
1749.7296
1948.735
91.433922
-1850.9651
-1107.2713
-2535.6957
-1184.3943
-1347.4373
-2544.542
-1607.4459
-1241.4354
-2177.3588
-1107.1001
-1291.439
-1562.7425
-1685.4284
-2296.631
-2680.7006
9508.6298
9452.2557
9513.8419
9516.406
9250.7809
9208.4157
9140.5456
9104.9918
9151.287
9062.414
9016.2529
9241.0392
9402.3801
9076.6466
10771.119
40397.703
39450.748
39615.03
38987.167
39585.556
39477.573
39462.844
39435.875
39456.84
39443.356
39556.769
39470.777
39555.856
39405.733
39384.84
4634.8995
1417.2455
1585.1789
1393.9975
1201.232
1486.5188
1207.8954
1564.5829
997.54257
1615.7673
467.52661
1091.8762
-23.158303
640.99215
-551.84964
73.668949
-422.97738
-484.88492
-582.20113
-801.28745
-777.4003
-1336.713
-1222.8005
-2066.6398
-1958.784
-2589.8927
-2633.512
-3084.933
-2897.4639
-3025.7078
-2896.1929
-2694.2699
-2263.0196
-2109.9996
-1682.5399
-1853.9673
-1599.3928
-1757.4337
-1561.8428
-1701.5179
-1520.9316
-1687.7679
-1528.537
-1399.793
-1540.2289
-1470.7616
-1641.2768
-1746.974
-2009.5824
-2196.2854
-2455.9811
-2551.7377
-2584.5181
-2384.5632
-2030.1213
-1463.3374
-782.67236
2.2208155
780.37274
1511.7124
2129.0227
2648.0205
3045.7716
3367.0901
3488.4818
3691.7327
4440.1928
5509.8482
5931.2195
6040.5186
6599.536
6889.5717
7325.4451
7745.4698
8258.2936
8796.803
9552.9477
10327.889
11343.97
12381.154
13677.216
14788.772
16235.268
17168.996
18474.836
19835.229
20799.561
21934.824
23004.987
23926.483
25306.957
26035.54
27860.537
28479.366
33416.522
3699.3284
1311.9514
2037.5656
1013.7966
1892.2492
1380.2378
1702.0962
1504.7028
1497.82
1282.6135
1180.303
1020.5392
739.73007
507.13545
244.25771
271.08737
-356.63877
-220.19673
-499.76865
-628.53172
-867.5692
-1026.7059
-1222.2912
-1429.0895
-1647.9913
-1886.5015
-2005.3949
-2253.1034
-2326.0578
-2495.4083
-2352.9919
-2416.6018
-2362.0534
-2425.3001
-2225.7388
-2200.9384
-1947.2371
-1795.2407
-1895.9765
-1962.7268
-1977.3791
-1956.2475
-1856.4367
-1940.7627
-1895.9144
-1707.2762
-1668.4239
-1540.7468
-1446.745
-1367.7973
-1286.9771
-1158.9096
-1005.9566
-751.27308
-439.9258
-15.32403
444.01717
977.56801
1487.9523
2007.9975
2448.9807
2911.7995
3258.7835
3535.4733
4068.0627
4328.3371
7279.1399
13194.775
14300.579
15221.558
16208.843
16990.947
17768.08
18564.145
19349.195
20206.056
21060.889
21914.007
22845.206
23598.905
24567.905
25092.575
26134.509
23624.737
20241.1
20588.322
21831.043
22201.909
23657.55
23934.951
25509.951
25711.998
27581.273
27043.621
31036.302
2992.3864
666.82527
1913.2547
875.87813
1369.5444
901.49955
1051.9759
1127.4382
927.37266
1007.5667
622.23926
760.14865
172.61548
303.15397
-211.91344
-281.848
-545.46486
-600.14386
-887.69044
-988.57979
-998.39861
-1226.044
-1176.2429
-1499.1892
-1460.3864
-1814.7276
-1818.4044
-2136.6404
-2041.5056
-2249.8189
-2165.2787
-2282.8978
-1999.6927
-2012.7145
-1756.5777
-1764.4425
-1811.5549
-2051.1195
-1787.9728
-1813.3779
-1626.0253
-1656.6536
-1627.3031
-1299.7088
-1019.7044
-821.9079
-598.97038
-391.12735
-198.67406
-64.058525
167.42449
373.18266
718.50446
1124.0211
1666.3512
2280.7796
2974.4939
3693.2322
4403.1027
5074.5577
5701.718
6289.384
6732.4406
7329.0921
7770.23
8456.5515
5252.3739
12889.847
14203.907
14922.43
15613.995
15871.623
16518.796
17159.748
17951.806
18563.892
19320.305
19981.542
20712.178
21292.159
22037.71
22567.055
23047.02
24230.819
21234.57
21437.316
21891.642
22737.673
23431.09
24040.53
25178.404
25451.797
27117.901
27050.434
29959.145
1556.4597
903.05999
835.64214
864.68746
710.95738
665.91307
700.48143
621.17957
397.26969
460.65632
325.42367
225.58271
-33.020448
70.006151
-424.38205
-237.45333
-724.89205
-607.71074
-903.01097
-744.8841
-1084.8449
-923.13178
-1183.6959
-1103.15
-1290.1782
-1321.4085
-1460.8448
-1530.5226
-1695.9347
-1746.7212
-1748.1499
-1707.3302
-1620.714
-1601.2092
-1344.2948
-1386.8085
-1047.5796
-663.94967
-1087.9723
-998.17308
-1010.6906
-735.97659
-617.53755
-422.29918
-314.03274
-41.139833
259.72844
583.29241
927.58075
1300.5245
1713.3057
2137.9445
2644.3087
3178.0207
3786.32
4437.9463
5134.8289
5852.6285
6584.0297
7319.7054
8037.5807
8723.0466
9399.4283
10133.189
10641.565
11293.966
12748.33
10362.278
10510.611
10581.42
11622.669
12887.822
13266.407
13313.912
13953.633
14598.609
15336.66
15973.57
16783.67
17409.78
18282.182
18782.452
19867.266
20059.814
23344.773
24293.794
25579.03
25664.734
26730.832
26734.542
27958.052
27572.141
29585.721
28180.016
30230.959
1474.2836
-128.25081
768.78379
-181.03323
498.69396
-109.63826
363.10616
-58.402663
210.44887
63.843023
-4.6105254
-108.05586
-174.13487
-324.49128
-491.3485
-527.31728
-742.32917
-676.8092
-918.12714
-823.16904
-941.82942
-768.94559
-917.13046
-769.51126
-955.71488
-955.12565
-1086.3999
-1227.4744
-1258.7568
-1310.2968
-1298.5934
-1300.358
-1175.4006
-1103.4316
-952.46491
-967.28828
-810.10323
-1928.5871
-2153.7254
-2024.3212
-1513.5029
-1459.8994
-1125.5065
-670.17829
-198.67599
314.02725
836.24175
1340.9865
1913.3229
2494.4427
3151.2301
3832.4935
4642.8156
5464.627
6408.5922
7366.5157
8393.9277
9424.0811
10468.343
11519.538
12518.537
13539.514
14560.325
15483.581
16433.161
17428.053
18280.768
19285.743
19994.2
20753.035
21799.354
22204.951
22469.026
20611.714
20892.415
21541.531
22195.718
22884.625
23528.592
24156.367
24735.941
25334.776
25772.961
26395.275
26700.555
27306.204
27429.711
27802.085
28037.375
28276.498
28779.13
28864.645
30172.124
28986.74
30169.848
780.05039
-33.350201
382.05884
122.4624
126.94598
114.16151
-20.988542
38.85027
-59.673405
-59.729168
-131.85073
-105.83206
-328.91602
-287.43982
-554.19362
-579.34863
-797.72109
-750.54517
-965.03728
-659.3453
-973.69583
-616.1515
-932.35284
-641.52865
-1015.4802
-737.34866
-1163.0086
-964.59914
-1234.9413
-1172.833
-1275.6901
-1184.4784
-1133.2918
-1039.2785
-941.14889
-832.14406
-646.18718
-69.806793
-64.547199
791.2224
626.66924
993.48454
1021.1532
1392.1964
1581.7078
1868.503
2089.0372
2409.2199
2703.6053
3064.9394
3446.9006
3902.2422
4391.09
4947.0588
5533.0801
6161.5209
6798.3045
7442.7402
8090.5867
8712.633
9320.9916
9979.4218
10502.465
11120.476
11783.546
12259.625
12934.984
13435.067
14158.781
14712.757
15330.224
15474.407
15979.891
18173.607
19136.142
19824.05
20623.072
21339.273
22187.847
22781.273
23688.797
24092.299
25102.155
25295.395
26352.053
26494.648
27620.687
27729.305
28873.331
28819.509
30146.207
29674.847
31530.404
29962.581
30295.705
492.59403
-435.68267
503.79937
-523.62447
160.59689
-409.58319
27.487717
-391.63142
1.4811851
-395.77717
-132.82159
-562.00038
-422.03203
-795.35093
-819.88089
-1027.2566
-1093.0971
-1168.2872
-1273.8046
-1123.5777
-1379.2689
-1018.2667
-1412.9284
-1077.7112
-1460.2706
-1314.059
-1683.4342
-1560.7103
-1873.3486
-1714.4548
-1814.5455
-1647.8544
-1590.999
-1523.171
-1396.305
-1306.6442
-1375.5488
-1481.1634
-1097.9876
-629.09239
-840.53585
-604.79552
-530.65409
-319.44465
-90.650444
141.66402
485.95198
733.12074
1078.7603
1359.912
1743.4885
2088.794
2549.218
3006.5348
3571.6121
4139.332
4795.8596
5447.0486
6140.5482
6813.0214
7538.0833
8185.0051
8881.3073
9632.0992
10246.122
11072.808
11744.881
12600.94
13382.528
14205.787
15076.685
15954.32
16617.128
19540.725
21425.322
22353.618
23242.565
24082.708
24900.512
25698.834
26456.211
27202.486
27867.636
28517.274
29123.971
29559.469
30047.921
30349.716
30774.186
30825.279
31348.301
31036.834
32546.3
30417.356
30645.357
291.12778
-174.93995
367.64008
32.024147
222.33242
81.959287
105.58933
30.782176
176.11702
-5.9394174
49.353873
-26.638409
-109.28585
-298.46106
-308.3691
-566.35415
-586.55402
-671.27425
-770.34916
-596.13967
-933.30436
-632.86015
-1061.0372
-616.4002
-1321.8876
-871.35411
-1465.0932
-1186.371
-1551.3005
-1331.0811
-1542.9888
-1338.9247
-1461.6574
-1274.4016
-1201.6787
-1302.3599
-1019.3518
-1122.1443
-926.23631
-887.42485
-849.19155
-602.81018
-421.17861
-177.00013
6.8699395
329.32437
552.71428
882.73969
1179.9025
1548.8932
1905.3947
2333.2315
2774.9159
3267.046
3786.9159
4340.0731
4919.4616
5506.1959
6112.5929
6739.2304
7351.8406
7996.9707
8668.2688
9315.2727
10032.757
10731.311
11497.616
12262.986
13042.796
13875.933
14694.997
15585.147
16547.238
17255.808
18013.362
18994.325
19914.389
20868.302
21865.142
22689.293
23713.878
24392.822
25430.799
25944.15
26993.308
27408.631
28478.934
28768.026
29811.594
29988.328
31166.043
30999.548
32518.567
30572.876
30683.244
23.678379
-835.72467
246.60924
-760.24481
-127.73116
-753.63694
-185.57264
-706.35204
-137.90179
-781.01942
-345.47092
-919.2735
-839.49989
-1325.9283
-1281.644
-1692.0803
-1564.7145
-1796.9686
-1706.3519
-1618.2527
-1743.4935
-1369.8796
-1663.8693
-1478.8756
-1941.3935
-1602.8267
-2219.6706
-1859.7554
-2279.1745
-1978.2763
-2130.7844
-1903.94
-1859.1798
-1661.0182
-1814.5591
-1456.2779
-1690.2731
-1491.5545
-1598.6652
-1532.2235
-1450.1308
-1390.1482
-1196.0301
-1104.3855
-786.25688
-590.03326
-273.67609
-35.124662
295.77196
552.60205
900.07056
1202.4226
1583.6685
1951.4322
2391.9818
2835.3906
3339.7805
3839.5508
4408.2243
4948.3846
5536.5201
6144.3106
6742.3927
7408.3865
8061.0241
8823.4196
9533.24
10369.068
11214.408
12160.03
13078.829
14140.017
15136.667
16309.734
17101.349
16901.756
18138.263
19163.201
20190.736
21270.713
22254.968
23325.699
24256.735
25280.988
26172.941
27040.908
27833.872
28547.781
29202.33
29725.391
30291.276
30367.014
31602.613
29624.202
31249.419
378.71221
-769.06503
507.00217
-483.27638
232.8551
-157.67164
274.92305
17.876003
319.52305
269.18568
342.94184
302.68067
332.76122
204.98979
323.57913
113.27122
291.44502
140.09794
274.89825
337.64225
155.55047
141.4795
-419.43785
-105.26817
-529.71333
-264.23334
-677.87845
-322.55265
-677.85156
-317.66196
-597.22005
-262.8155
-409.76954
-371.52195
-158.40804
-333.57926
-169.85702
-224.52236
-175.10189
-68.990399
-57.586853
86.183025
139.65676
321.07315
363.58701
539.34869
616.65305
791.30436
906.97259
1090.6241
1244.8466
1444.2831
1644.7093
1875.5954
2113.3832
2386.2438
2660.674
2973.9839
3309.2799
3652.9364
4062.2154
4480.7857
4923.8089
5442.8073
5966.5563
6529.9306
7155.2806
7816.4625
8504.9347
9235.9126
10013.906
10867.944
11692.175
12567.724
8163.8514
3928.1635
5315.4907
6038.8624
7124.1902
8086.3664
9272.1762
10313.941
11652.848
12733.575
14195.79
15284.196
16892.977
17959.609
19714.242
20793.348
22668.459
23880.468
25957.969
25832.688
31667.12
292.45373
-1443.1484
-459.98784
-1588.9865
-804.37663
-1305.6312
-877.36855
-1116.4153
-700.94468
-943.25881
-773.04859
-921.10818
-770.49668
-929.91856
-600.16211
-824.24114
-212.43293
-472.90554
138.58626
15.9573
512.68025
-516.4181
-799.92535
-675.23829
-918.56628
-722.48166
-1003.5848
-806.00302
-1033.8216
-835.14498
-904.74503
-672.92351
-805.49618
-366.74981
-646.53825
-346.44315
-444.20717
-332.83516
-315.59189
-341.45374
-264.4597
-322.61836
-212.94257
-241.3293
-120.97829
-92.88725
29.447061
47.865459
159.0444
174.73178
248.37328
260.98931
326.84802
349.16745
435.27175
520.33955
662.63394
845.30912
1079.4445
1359.4628
1700.8883
2068.8748
2470.7929
2966.691
3399.7079
4006.9577
4535.5032
5205.5966
5877.8098
6681.6623
7490.9154
8417.0464
9329.3175
10917.755
15228.188
7267.4532
9216.6542
10187.896
11320.111
12485.701
13718.378
15011.542
16333.201
17718.596
19082.785
20526.793
21871.162
23302.418
24587.541
25963.634
27254.667
28358.256
29962.47
30216.654
36072.511
88.277508
-2182.8143
-1111.9385
-1597.4828
-908.5374
-1086.7655
-504.85391
-671.04621
-252.77672
-173.3589
-13.77344
41.035062
413.53657
318.79361
649.21398
781.97313
1070.926
1135.5257
1546.841
1546.3997
1752.1525
2129.8865
1426.8875
1554.626
1592.2693
1753.9764
1761.1352
2068.3013
2075.8178
2460.2447
2480.5688
2715.8085
2871.8195
2917.2442
3063.518
3168.9946
3127.9582
3186.2249
3034.4885
3068.709
2876.5315
2882.6099
2693.1708
2691.3603
2530.8334
2521.3869
2431.3059
2429.8531
2402.3832
2418.4738
2411.1199
2435.2131
2439.5141
2454.0497
2466.5161
2496.9111
2530.2666
2598.03
2686.2978
2811.6422
2962.8351
3159.4174
3345.9591
3613.9488
3813.3337
4141.263
4393.5038
4768.9306
5141.8542
5603.2894
6099.7366
6619.3088
7412.5697
7830.5249
8423.5189
12568.639
14494.958
15294.522
16335.977
17343.631
18439.942
19436.183
20516.098
21496.468
22532.106
23402.86
24364.342
25088.437
25936.589
26649.007
27388.905
28257.91
29528.395
30057.432
36747.296
79.665907
-2891.7803
-1586.9831
-2300.3784
-2137.9987
-2397.7012
-2059.276
-2368.687
-1963.8343
-2231.2622
-1959.3667
-1973.0919
-1946.319
-1827.7892
-1655.2269
-1597.7578
-1305.0107
-1210.803
-800.08036
-755.14133
-352.16781
-349.24955
411.4481
727.86717
1020.5479
1073.2264
1280.93
1266.1741
1389.3047
1470.8794
1476.2294
1727.1268
1609.1439
1897.8025
1801.7867
1935.0485
1895.7097
1919.0423
1938.118
1854.6026
1870.7922
1765.0657
1758.8378
1673.3227
1645.8141
1548.2674
1500.1729
1330.1232
1205.7298
957.52674
717.11133
392.95875
83.310728
-270.4695
-558.64937
-819.6426
-988.29332
-1060.1449
-1027.8879
-891.40612
-673.41689
-369.55168
-76.93628
353.63438
586.98101
1092.1186
1279.094
1802.3717
2135.1047
2637.8513
3003.0195
3781.2745
4039.3516
4995.2339
5512.4523
6415.1335
6847.3172
7652.1548
8503.9914
9553.4772
10610.941
11867.679
13155.942
14621.848
16027.48
17612.783
19059.564
20642.395
22105.689
23607.182
25080.792
26534.597
27936.206
29442.321
36368.869
474.7434
-3383.3992
-1505.8917
-2540.3998
-1432.4925
-1699.4803
-1243.5198
-1175.7676
-880.64197
-712.50383
-444.20984
-388.4453
-30.863394
128.39001
382.80617
673.77197
993.80258
1198.7104
1749.8609
1880.5724
2454.5498
2654.7495
2910.759
3213.756
3409.9365
3714.3242
3861.2161
4081.3852
4158.9112
4214.1216
4349.4947
4401.9222
4520.7864
4684.8002
4690.3665
4853.7818
4801.6568
4949.6737
4778.9096
4850.1232
4622.6746
4594.9804
4342.8984
4256.556
4033.7834
3933.0973
3767.6753
3653.6826
3503.6618
3354.5506
3143.5447
2919.2333
2641.6506
2350.4999
2055.582
1792.4837
1563.5589
1406.8401
1312.4551
1278.0532
1275.4521
1314.4364
1332.3549
1368.858
1325.688
1431.1864
1295.2068
1486.6313
1442.4046
1589.7908
1956.5065
2099.3073
2718.4933
3083.0358
3727.9496
4307.4429
5116.9023
5850.857
6751.904
7685.0046
8748.6168
9858.3794
11149.569
12391.248
13833.983
15156.376
16660.286
18000.566
19505.485
20889.343
22387.36
23942.397
25591.489
27979.536
36047.627
2274.0879
-4111.8558
-1026.5809
-2311.1133
-1292.6478
-1771.4912
-1306.4619
-1390.9784
-1343.0374
-1247.2746
-1570.6108
-1218.0151
-1348.9068
-1050.4671
-785.83959
-469.47461
36.944609
205.56892
729.373
642.80012
1147.9378
703.96744
1065.7799
522.32452
790.61751
584.83272
827.83591
976.83848
1314.793
1786.7656
2054.6024
2578.7887
2795.1047
3124.6021
3014.1946
3250.7118
3151.8826
3076.7401
2914.1702
2670.0904
2455.0869
2168.4534
1922.6037
1607.9428
1303.7683
908.61524
529.30553
60.233671
-344.86507
-757.6424
-1055.7254
-1244.6278
-1247.5487
-1123.0711
-793.41172
-369.53928
123.33935
640.76401
1094.3061
1447.7242
1688.1185
1823.6563
1825.761
1821.2296
1756.8432
1827.091
1667.0061
2087.5193
1933.0779
2672.0143
2627.8996
3543.7307
3721.3049
4730.1069
5324.0248
6513.929
7588.8828
8965.7115
10537.953
12236.433
13974.124
15866.988
17595.419
19469.207
21088.18
22853.733
24381.274
26072.529
27658.443
29339.02
31133.228
32977.742
34799.442
37344.67
39678.747
346.23192
799.76225
-70.212709
-236.75474
-358.18273
-226.39443
-248.83399
-138.02406
-366.75407
329.07196
-130.68665
-12.589836
645.22695
679.28951
23.781509
2322.1418
1790.9883
1395.5454
1589.0758
1174.8454
1291.6592
1123.6107
1108.4034
1363.3224
1162.0469
1196.3968
1549.0891
1457.9471
1987.6014
1377.2051
1473.0987
838.92035
132.52808
260.10393
-19.968064
-97.303423
-7.0876987
-183.61815
-112.97362
-81.13458
61.154868
-95.370421
138.4959
732.22089
387.47222
888.14823
878.13478
643.9155
410.53957
485.12747
372.19593
393.01201
339.82321
491.49696
394.43359
561.85817
529.23825
776.51941
1286.1433
19.357514
174.93691
104.64672
-257.97689
-260.07166
-430.00365
-377.05327
-451.85479
-420.10344
-490.91536
-456.04098
-420.2157
-367.6733
-214.32868
-138.27999
86.268259
296.83451
142.455
-1.1954904
60.026706
-8.0823679
14.331611
-55.399214
-17.19124
-13.401459
-7.5339726
31.46922
-1.2697428
48.539846
95.356457
30.5258
-74.483234
-136.73668
-232.79421
-289.26418
-308.19754
-344.47053
-343.83244
-384.87905
-384.75837
-358.56094
-374.42412
-289.84344
-273.96848
-121.48869
-148.57362
70.660986
32.808757
-36.801885
-21.955746
-69.669126
-61.697203
-88.32706
-81.752069
-65.871304
-88.653908
-67.408953
-59.780738
-70.231615
-67.215287
-149.44264
-226.38967
-166.71786
-331.78526
-287.74137
-337.68234
-347.68973
-354.3753
-319.1326
-356.80268
-232.42527
-306.1851
-221.92052
-283.94242
-147.68392
-306.21307
-26.851933
-120.56779
-153.36109
-131.52616
-186.53957
-187.3473
-170.86613
-198.41789
-189.36283
-248.21273
-180.55183
-260.4029
-312.45464
-310.49962
-479.71368
-1224.1376
-1120.7568
-1145.0333
-1171.3415
-1156.8998
-1015.8905
-1115.9982
-991.56322
-1078.1026
-813.03833
-972.13445
-1043.0147
-990.31672
-1020.2841
-1168.5368
-1991.5394
-1713.3787
-1601.667
-1777.3843
-1625.2538
-1834.9703
-1742.6688
-1829.9563
-1762.5891
-1759.1945
-1750.5104
-1542.3321
-1851.4814
-1905.7409
-1963.7901
-3135.1682
-2192.1591
-2801.222
-2553.9536
-2646.6109
-2560.7528
-2750.9936
-2498.1697
-2471.7109
-2352.5905
-2357.1658
-2587.1675
-2629.0332
-2647.5629
-2380.9257
-2793.6937
-3071.6236
-2930.6764
-3200.0421
-3312.6984
-3443.7041
-3144.0189
-3068.9003
-3082.7012
-3392.3707
-3239.1307
-3393.3695
-3506.7401
-3525.8847
-3625.3511
-2924.8854
-2966.5314
-3407.7316
-3493.7337
-3748.4959
-3531.2154
-3429.1666
-3090.4517
-3397.9523
-3376.9566
-3620.8488
-3535.2076
-3254.3736
-2647.6156
-3040.4489
2101.4019
6944.4155
3261.6864
5101.576
6067.553
4833.3576
5821.5359
6883.1314
4570.122
5635.461
5667.1229
5739.2469
5532.1258
6190.3912
2527.0475
5844.2309
925.46446
3139.5781
3623.3397
2001.7921
4861.795
4234.426
4085.8526
5079.2066
2460.0901
3182.1038
1441.8844
2342.1892
3901.2026
3883.4358
-1676.2682
-1406.1066
-2506.4796
-1933.2562
970.59993
-2477.9725
-2501.1683
-2224.1809
-4600.8992
-1000.5798
-2448.7683
871.2475
-1365.8095
-3337.8617
-1218.8785
-1467.2467
648.54911
372.98774
-2294.0684
-2090.0492
-1311.3672
-2009.8706
-1229.3134
-1073.5056
-2844.5034
-1367.1808
-2143.4888
-791.27902
32.778355
-772.86935
1762.6272
214.9057
-1624.452
942.20963
-429.44045
-163.16561
575.72866
-51.798732
328.86133
2273.957
-63.184061
1133.6675
-594.25331
-14.548476
1536.6428
-1916.421
-744.4991
-1037.8105
-924.03307
-1119.9736
-1101.1299
-1644.9501
-1665.4035
-1348.7686
-2624.7518
-1070.673
-1975.7449
-1244.316
-346.25215
-1119.3941
-279.07123
184.98517
-220.60175
-683.55663
-764.3603
-474.56437
-152.26147
-376.47783
-113.06754
108.1393
-677.65377
-71.58023
-443.79245
-668.10392
732.00441
-310.48113
-844.01143
-474.43523
-191.3566
-18.116403
-465.85896
-428.0587
-264.35301
-711.41489
-243.87574
-200.84799
-296.76092
-199.09722
-631.00055
396.25226
-304.06301
460.86053
138.26573
428.93243
-351.11622
147.04294
-73.507925
206.98025
73.460646
117.47304
31.760248
-287.10443
31.296813
-88.758183
331.99242
488.94117
-355.08239
146.78279
-74.652371
202.37238
-115.69736
67.703991
-200.857
-457.3044
344.25705
-473.31851
644.47581
-159.34233
129.58751
1032.6668
328.88971
720.23063
696.35553
934.69012
508.50685
896.03834
537.14215
845.07858
1085.5846
504.00857
1299.5416
698.36155
875.81311
1064.5469
1266.2079
1365.6146
344.65044
482.98162
477.27514
637.41072
464.28267
558.95006
331.73783
72.94285
351.96108
-86.393329
208.56884
43.696407
-180.4892
1137.7166
848.62585
833.8957
703.19424
1052.0503
616.8005
825.92184
666.13874
655.01238
1031.9185
894.2782
1095.4166
1046.5856
997.38535
1287.144
1528.4945
1064.007
522.49236
1004.0433
437.19256
661.62975
832.02934
876.58868
328.7491
181.61999
121.00087
-234.18438
13.09566
-270.29043
-578.35634
924.736
887.12874
279.27598
379.90461
900.69443
865.54548
512.91989
445.12282
471.38227
651.79882
648.74308
1066.8717
890.28789
817.9652
1206.954
1531.757
579.37101
294.01575
814.77734
429.39278
85.576055
629.33211
534.23742
334.22292
8.3962267
-42.207299
-650.97697
-400.66681
-360.16297
-731.14495
383.05055
411.69952
-221.73403
-152.52268
-122.19464
380.59216
131.43189
161.78809
-234.37097
261.17085
-33.454885
489.83928
412.50002
107.92472
-263.46923
1500.0209
119.85899
-24.550047
145.31042
385.72764
-156.01052
15.64827
-351.71934
140.67366
-178.6996
-136.95967
-566.10626
-844.34487
-1110.0617
-693.99945
-643.74717
217.58665
-261.23539
308.05646
-205.21914
197.02058
-248.69611
448.71985
-486.46202
-141.11644
-411.53282
-624.33045
-383.37449
86.194107
-526.92683
1236.5826
143.05337
-305.12695
-415.36844
-198.23866
-340.60002
-155.34616
-88.640778
-199.75337
-155.33874
-280.55191
149.73279
-152.1154
-632.94206
-710.2456
-144.77879
480.87429
-5.3503468
413.12741
10.475458
140.69169
-311.60898
134.89001
-254.20384
-53.84188
-706.91834
-457.7419
-700.24171
370.97818
-564.67759
869.22412
457.83354
265.69032
33.169256
326.04987
-118.02529
400.45124
-71.727223
160.7809
-430.68244
690.95615
213.02707
317.06291
-386.73912
-909.75528
1496.0488
1232.4691
187.07323
715.0417
142.55255
473.91472
407.47396
311.70597
-175.70757
313.69465
-199.16899
-571.49256
-605.35347
-400.91589
-557.75821
1372.1766
1083.0512
973.01609
517.60139
668.31489
408.7143
-31.625427
181.9162
-45.802399
134.48567
-145.11574
140.32477
418.03722
708.17237
-148.75149
2990.3435
2133.9106
563.06608
665.16295
133.82442
599.66028
172.18711
693.38691
159.29845
380.56246
18.10105
505.7219
218.35726
-221.99164
-341.38778
2259.8929
1650.2008
589.78162
761.14117
610.9385
559.98555
613.05068
217.53101
157.43345
175.26666
25.349445
142.62452
321.85865
1070.1458
703.38108
2586.6435
1937.7656
599.84838
1007.5103
289.23327
877.07298
230.12105
440.07371
242.68853
280.55109
151.98047
392.86968
-580.24564
68.947738
-943.59051
2642.1907
1476.2515
371.1974
303.75292
501.86805
124.95946
-123.68472
162.46252
-330.70994
189.64523
-312.50344
250.41794
280.89442
206.21204
376.63746
1832.1706
1430.0205
386.02778
129.75131
-200.45631
-0.015703506
-72.740979
-79.666723
-286.08633
-290.78558
-338.70482
-342.98028
-214.09466
-250.71606
-1049.6425
2244.991
655.20571
-353.54688
-10.176917
-242.4283
-230.83675
-194.08341
-432.30628
-630.96177
-728.78763
-882.6286
-752.66089
-926.78431
-255.22236
-689.65206
793.85106
823.30195
97.327481
212.82361
-275.78932
-30.26565
-906.95747
-424.76372
-917.92051
-195.84031
-692.53352
-630.49271
-848.48931
-867.15508
-1164.8131
418.85602
438.98838
-319.79447
-369.30431
-497.32463
-545.8453
-484.74204
-586.15339
-688.47886
-931.7096
-1036.986
-923.02966
-952.77155
-842.14589
-965.26367
278.64481
205.16293
-439.05659
-250.43759
-558.12888
-300.21097
-754.76645
-413.94881
-959.25708
-598.02951
-972.58725
-633.75639
-921.47897
-716.34807
-844.83433
-179.16652
94.266009
-351.3808
-238.24409
-215.13489
-360.33849
-489.33619
-483.79102
-601.56569
-572.0442
-705.18807
-676.22754
-713.08821
-618.20941
-792.53547
-177.09488
369.5032
-202.89309
-11.732135
149.41562
-124.3604
-304.79103
-141.74496
-335.72934
-266.83496
-419.88161
-255.10184
-244.16744
-220.32826
-49.026808
282.47594
487.34588
140.5841
254.01764
-209.93782
104.83528
-89.237904
16.631155
-206.68723
82.368982
-653.02586
-3.1683154
-270.79912
89.90176
-231.05363
759.45685
392.27034
213.33881
576.90932
477.06808
522.52252
140.27023
432.16485
51.797917
303.41562
374.55438
392.37777
412.26867
214.34036
527.17806
795.26275
1149.8771
1289.1752
1021.9677
1108.6977
833.59485
924.35355
714.59166
742.94784
730.97097
292.011
686.59671
475.07316
938.75392
709.60915
1158.0157
1692.1228
1310.4766
1470.2612
1158.0617
1464.4257
982.94862
1316.0498
934.34073
1106.5797
992.20841
1015.3376
1170.7808
1154.0786
1121.7264
1790.092
1878.6651
1896.2272
1682.2612
1846.1153
1550.6941
1580.6516
1450.0213
1334.3684
1442.5204
1171.6227
1451.0283
1263.7127
1420.1476
1468.919
2052.6064
2461.8805
2233.6657
2275.9974
1986.3602
2148.0462
1800.7269
1930.9694
1731.0269
1761.6224
1670.4596
1735.4573
1698.1887
1847.5985
1784.1887
2490.3433
2760.8506
2773.5692
2396.7412
2542.238
2333.5488
2233.4042
2207.2609
2006.0136
2091.6348
1904.4194
1985.3814
2013.7305
2018.0089
2049.6131
2926.7505
3351.258
3115.1859
3025.0307
2865.1402
2864.6511
2628.2653
2655.5148
2479.9996
2529.6181
2342.7404
2478.5644
2413.5409
2465.4318
2499.392
3468.5304
3729.9781
3743.5717
3339.8673
3418.4555
3233.5196
3096.5161
3063.0949
2928.0569
2899.1943
2815.6647
2803.8791
2862.3072
2859.5756
2864.3361
4135.814
4499.449
4278.9856
4055.9625
4006.393
3902.3628
3689.9305
3732.3063
3531.7565
3588.9793
3407.0595
3489.6748
3503.867
3512.8641
3507.2963
5042.9082
5164.6478
5066.7546
4675.0249
4750.2866
4500.5435
4403.4539
4325.142
4248.1008
4157.9117
4126.277
4093.9961
4176.1782
4210.4146
4119.921
6115.7032
6172.4975
5881.3263
5575.5036
5568.496
5429.6931
5215.0513
5244.6881
5059.643