/*--------------------------------*- C++ -*----------------------------------*\
  =========                 |
  \\      /  F ield         | OpenFOAM: The Open Source CFD Toolbox
   \\    /   O peration     | Website:  https://openfoam.org
    \\  /    A nd           | Version:  6
     \\/     M anipulation  |
\*---------------------------------------------------------------------------*/
FoamFile
{
    version     2.0;
    format      ascii;
    class       pointScalarField;
    location    "1.81";
    object      p;
}
// * * * * * * * * * * * * * * * * * * * * * * * * * * * * * * * * * * * * * //

dimensions      [1 -1 -2 0 0 0 0];

internalField   nonuniform List<scalar> 
28033
(
-34326.671
121397.42
217.52584
-98.508013
16562.399
214398.54
-2.4559304
143.4782
-4805.7129
3011.5763
9171.5121
10210.005
15757.221
17091.288
19361.4
16902.478
22170.441
16855.721
24415.288
23793.837
28935.737
42623.094
29976.405
338.46032
803.94263
1154.0035
1079.5637
1061.794
666.77233
512.68801
83.059667
-191.46686
-536.82181
-724.84945
-859.64579
-776.01895
-622.02765
-357.88982
812.54714
-3388.3988
2960.3512
1464.2466
8035.345
7177.0554
11314.594
11623.507
14760.127
14347.58
17884.426
18013.227
19639.015
19362.665
21769.587
21442.941
21881.566
22552.586
22664.752
22645.341
22654.885
22672.667
21800.732
22013.217
21007.566
20380.408
19279.483
18701.042
17201.38
16280.517
14481.933
13176.542
11130.731
9682.431
7234.2567
5806.8374
3365.5219
1170.4676
-601.27453
-3006.7345
-5012.8661
-6563.4693
-8501.8227
-10181.418
-11623.499
-12932.351
-14012.669
-14893.835
-15510.107
-15997.965
-16171.1
-16224.643
-16080.181
-15743.533
-15329.275
-14751.578
-14142.299
-13431.45
-12736.857
-12010
-11322.12
-10646.434
-10032.477
-9504.3965
-8975.8993
-8504.146
-8314.3199
-7906.2284
-7539.4882
-7345.494
-7027.2514
-6784.9487
-6522.1574
-6242.5054
-5897.129
-5545.4737
-5100.9341
-4677.823
-4130.6818
-3597.5836
-3052.2033
-2468.5828
-1791.283
-1098.1823
-613.93345
-133.25227
273.17681
558.54905
868.09543
928.23057
1061.8115
995.34413
733.74504
672.97808
163.33505
23516.739
11854.821
13860.184
6710.1168
8390.6048
5020.022
5348.1927
1916.7181
2095.1152
-1400.5994
-1465.3338
-4702.0202
-5553.9421
-7899.0024
-9082.1424
-11365.214
-12086.9
-13845.062
-14540.242
-15384.776
-15958.655
-16294.06
-16126.627
-15823.389
-15298.72
-14483.659
-13556.725
-12367.877
-11088.874
-9717.1168
-8174.9588
-6855.9706
-4904.9532
-3820.6901
-1524.2316
-523.25847
1572.1287
2900.372
4829.2262
6092.5061
8099.7967
9301.6582
11268.851
12562.788
14391.629
15736.449
17434.474
18702.762
20216.154
21313.48
22535.61
23361.329
24196.13
24670.786
25050.738
25107.318
25041.014
24672.501
24187.167
23482.52
22671.321
21736.578
20753.571
19737.689
18727.873
17774.203
16929.368
16151.307
15571.433
15078.45
14628.121
14420.911
14284.809
14197.152
14194.511
14179.786
14136.413
14065.003
13843.903
13561.512
13087.48
12502.279
11722.133
10835.609
9764.8394
8630.8337
7376.4983
6108.5434
4824.864
3592.9759
2450.4043
1475.2117
690.38504
174.82265
-35.488487
27338.506
44454.161
58275.465
64488.83
72527.323
72034.676
81888.661
81570.464
86624.8
87370.067
92961.284
95173.683
104603.33
113374.09
114889.39
41886.458
25159.903
5703.8772
12213.088
8556.7683
5380.1372
5490.0231
2203.8008
3708.3041
1973.4683
-126.99765
-2088.575
-2286.4745
-4385.9553
-3639.167
-6298.3781
-3722.0577
-7365.1944
-5243.4619
-7354.3683
-5439.6403
-5285.1625
-8540.7864
-3149.2173
-8890.4271
-4100.5757
-4370.3081
-2326.9818
-1349.9179
618.67948
-306.84473
3248.9132
3261.8415
6555.6123
7494.2738
9877.5393
11513.285
14293.157
15741.678
18441.077
19964.102
22369.439
23867.917
25873.323
27111.643
28720.457
29592.383
30649.351
31141.089
31658.836
31743.194
31764.151
31465.611
31073.476
30471.039
29733.528
28937.384
28004.328
27059.141
26077.721
25092.223
24121.181
23187.882
22290.138
21440.045
20652.348
19855.469
19067.748
18794.319
17724.274
17284.061
16569.48
15886.253
15193.721
14422.993
13635.503
12780.299
11908.674
10953.761
9986.0243
8966.2634
7965.0696
6921.3778
5964.2605
4985.042
4115.797
3262.7321
2554.3334
1867.7184
1341.6364
875.38494
528.06878
280.72758
83.150658
-109.83101
-481.16041
-834.85742
-811.86197
-1048.3031
-521.22726
-599.70535
88.787571
111.96845
654.39704
1199.6096
942.10813
1231.123
728.89724
863.29975
206.51747
216.32089
749.35116
626.69777
254.08797
-288.49663
-1048.6605
-1893.6356
-2790.8914
-3723.5929
-4624.6509
-5449.7795
-6113.586
-6710.4273
-7172.259
-7487.4894
-7649.8894
-7672.3171
-7530.9504
-7335.1817
-7010.4016
-6672.2592
-6318.7517
-6009.1231
-5718.1324
-5540.2218
-5505.0996
-5370.2478
-5793.1886
-6071.2582
-6464.4082
-7107.8848
-7786.6079
-8464.0024
-9202.3048
-9918.4234
-10529.545
-11102.069
-11457.841
-11742.442
-11739.025
-11643.092
-11207.655
-10720.931
-9852.2999
-8989.4336
-7745.5228
-6589.1365
-5057.5204
-3667.2176
-1974.292
-453.00652
1397.0143
2935.443
4687.1997
6309.9247
8274.9743
9838.7368
11627.695
13464.058
15356.227
16801.701
19114.132
20069.736
22651.996
23214.462
26199.574
26435.239
29041.236
29618.09
31235.514
31401.177
32321.616
33213.706
33429.836
32942.285
33321.927
31253.57
32075.124
28914.067
27433.358
26717.559
26731.967
24132.962
22003.23
17408.2
15709.093
15376.029
13853.592
11368.839
8095.784
7867.953
4640.9055
4240.035
3400.6867
551.93528
-19203.996
-28610.501
-28973.293
-31540.301
-26403.878
-30716.982
-25014.408
-28259.427
-22712.357
-22174.299
-22514.049
-19440.779
-16639.544
-10546.889
-8951.796
116494.32
152426.63
147846.86
155924.39
151705.22
142075.31
162537.09
175360.04
165822.7
168728.54
166894.18
166814.33
162991.14
168435.03
153164.54
-110.3609
-163.71047
-234.48326
-219.42941
-194.89948
-89.765665
17.766914
185.0355
367.0632
548.09766
677.77104
835.57914
821.49626
736.62514
317.21108
-266.75246
-683.47101
-861.91898
-909.60548
-793.97362
-631.85745
-416.25079
-202.36223
-10.714055
167.08518
300.25192
351.12192
363.79904
368.82983
266.06885
2567.8457
-902.49585
2929.2572
4685.1368
6696.1513
7186.1456
9816.9064
10787.991
12616.123
14408.499
15604.832
16126.384
17324.938
18392.953
18846.611
18708.419
19546.878
19664.38
19317.167
19738.767
19167.987
19150.621
18611.309
18468.875
17413.985
17609.518
16408.663
15765.602
14503.361
13911.848
12172.44
11348.159
9630.2516
8257.5594
6375.9876
4579.5386
2692.8821
964.34647
-1230.8301
-2986.4788
-5001.1593
-6688.8149
-8368.3618
-9817.6115
-11108.621
-12259.933
-13097.424
-13847.391
-14264.008
-14560.947
-14588.741
-14506.49
-14211.029
-13818.367
-13319.262
-12741.259
-12123.009
-11484.886
-10861.026
-10247.806
-9682.6887
-9162.7595
-8718.6987
-8308.1107
-7953.2371
-7720.3758
-7341.8126
-7195.6779
-6933.3685
-6829.3306
-6478.1199
-6257.4449
-5867.3837
-5469.2282
-4963.1098
-4470.5285
-3875.6471
-3305.7909
-2651.8502
-2103.7613
-1488.6435
-970.66445
-450.07403
-135.57749
236.62127
489.25316
707.37801
824.43696
854.45656
823.6124
764.14645
637.80192
541.21522
600.6919
463.86753
3227.9819
1202.4432
4896.4037
4506.4959
6988.9131
7654.5227
10165.654
11233.694
12824.358
13185.163
14997.681
15091.405
16381.985
16056.001
17089.061
16915.02
17554.922
17048.951
17377.031
17258.582
16956.324
17093.949
16630.07
16504.796
15892.423
15757.573
14860.875
14590.066
13653.914
12920.513
11788.562
10923.856
9433.372
8245.1746
6620.9648
5251.4009
3408.0136
1822.4331
33.865723
-1526.032
-3276.3118
-4751.2231
-6162.257
-7429.2964
-8519.6844
-9462.0582
-10142.936
-10701.713
-10965.69
-11133.921
-11064.379
-10896.615
-10578.202
-10184.275
-9738.6654
-9236.9681
-8756.8541
-8279.5209
-7844.9033
-7452.6871
-7124.6829
-6850.7581
-6647.4704
-6434.7585
-6394.3921
-6183.6582
-6338.9132
-6118.2116
-6247.4423
-5858.9054
-5543.0157
-5218.7802
-4742.8116
-4266.4078
-3737.0517
-3223.4755
-2582.3667
-2062.343
-1453.8083
-951.78799
-421.86943
30.054791
358.99223
763.78127
876.52762
1078.9931
1140.1692
1056.846
994.39642
799.89758
704.66739
530.08909
406.26142
648.35383
523.31342
3895.1667
2592.4996
5633.3052
5091.8926
7579.0559
7544.3974
10238.842
10264.17
11475.014
12668.148
13568.039
13739.036
14457.624
14862.474
15016.154
15013.477
14881.77
15142.462
14765.089
14813.214
14208.248
14567.159
13578.91
13962.485
13116.088
13339.58
12361.746
12464.784
11326.155
11324.483
10047.312
9595.1071
8188.5406
7443.9944
5893.3596
4748.6541
3199.2236
2085.7466
267.22682
-969.62417
-2464.6542
-3696.2685
-5164.5323
-6073.081
-7136.2722
-7785.2385
-8421.6244
-8724.5368
-8959.0203
-8939.4454
-8827.1604
-8552.179
-8202.0041
-7769.1749
-7312.0142
-6821.529
-6372.7605
-5932.6974
-5557.0331
-5230.7209
-4975.5038
-4770.2536
-4623.2129
-4500.9389
-4458.9596
-4443.663
-4458.845
-4687.0687
-4476.7398
-4441.4049
-4157.1752
-3871.7024
-3468.6017
-3005.3658
-2491.0196
-1930.2366
-1363.9269
-768.93629
-223.65238
296.44803
772.98334
1096.3315
1469.9337
1420.4918
1325.0679
1410.0245
1339.4326
1220.2263
1035.4195
844.00059
660.0437
540.97245
404.62638
767.85518
612.95618
5726.2136
2662.884
6198.0343
5422.6707
7239.2385
8243.8978
9702.5651
9938.224
11584.551
11832.512
12650.383
12488.97
13626.921
12897.36
13679.957
12859.263
13582.226
12673.968
12755.287
12373.253
12371.757
11999.357
11742.002
11832.856
11224.091
11329.438
10794.051
10713.248
10130.412
9861.7652
8965.7409
8634.3908
7609.9516
6911.3711
5672.6538
4918.9476
3383.0176
2245.0517
710.93783
-228.37939
-1768.6594
-2680.2781
-3732.7496
-4487.1885
-5245.1589
-5761.6437
-6143.5903
-6323.2262
-6377.8401
-6238.8487
-6008.0703
-5657.8868
-5251.039
-4793.7538
-4338.2768
-3897.1827
-3500.6225
-3163.6323
-2904.2674
-2718.687
-2618.2063
-2579.5026
-2600.9156
-2669.9427
-2757.9086
-2823.6746
-3019.2004
-2945.8315
-2737.2975
-2737.5187
-2515.064
-2143.3286
-1700.3361
-1203.4703
-730.62084
-225.78358
268.2893
740.06128
1196.2652
1584.4536
1893.9445
2148.7904
2252.0549
2387.5388
2408.7247
2171.2663
1956.8484
1680.1993
1388.145
1062.6787
812.15593
575.03618
482.16466
691.24685
574.93592
5329.5583
3853.4471
5950.4127
5537.8063
7794.248
7791.758
9187.0776
9669.5708
10580.372
10975.962
11354.759
11629.342
11692.804
11683.398
11328.119
11289.322
11019.823
10668.03
10420.485
10468.464
9663.6543
9905.7507
9281.5497
9509.0263
8757.1775
9299.9235
8366.6957
8891.0581
7982.608
8270.9024
7357.1362
7448.672
6280.6581
6073.0884
4930.9102
4363.312
3002.6752
2502.4051
1300.7705
-172.9826
-842.27289
-1748.7603
-2802.9775
-3370.0777
-4072.1713
-4396.9298
-4686.9792
-4724.6397
-4713.1438
-4465.0586
-4198.171
-3799.7988
-3375.1332
-2909.2487
-2476.8971
-2050.515
-1698.3477
-1404.3809
-1200.376
-1060.0166
-1028.4175
-1011.5998
-1131.548
-1194.3469
-1303.4372
-1492.8567
-1445.4986
-1666.9198
-1591.3303
-1507.674
-1369.5797
-1055.3936
-536.14674
95.887803
488.74539
981.20648
1386.9528
1823.7315
2195.5127
2511.6411
2770.8149
2898.5485
2987.2017
2921.7503
2767.4363
2547.4684
2247.5932
1939.7326
1564.4172
1206.8667
884.17125
658.3615
446.65346
694.14525
412.20938
5807.4962
4666.3327
6234.56
6021.4005
7507.8183
7503.6213
9335.3502
9046.4493
10027.912
10043.526
10508.439
10056.27
10710.372
9627.2752
10177.313
9319.2219
9345.5673
8339.2147
8601.8691
7665.0833
7650.6854
7394.6318
7099.9646
7137.79
6889.0083
7025.4612
6729.6291
6978.1669
6527.2722
6773.2288
6208.6165
6229.6801
5530.1856
5415.2516
4511.4599
4113.114
3159.7581
2556.8944
981.6551
669.17208
-507.29043
-913.34087
-1638.574
-2056.1718
-2495.2826
-2640.904
-2761.074
-2646.2524
-2484.8481
-2126.1516
-1766.0557
-1268.8532
-798.58737
-279.51063
165.73288
611.04801
933.41396
1212.0365
1363.4804
1447.4901
1418.5921
1321.3483
1168.0421
973.47206
734.02405
558.88995
350.31332
194.87348
150.30685
173.19897
301.80835
570.75621
1002.2459
1316.9675
1684.8349
1998.0481
2421.4155
2751.302
3091.753
3323.4463
3526.5301
3608.5586
3585.0401
3483.4684
3257.7737
2975.3666
2589.4505
2219.8525
1739.1055
1356.3377
932.97167
647.00749
401.25345
498.01165
351.52653
6348.0143
5211.7502
6429.6536
6232.6021
7477.1851
7963.6788
8998.0717
8646.9071
9479.3067
9560.5885
9269.7585
9481.8901
8873.4057
8632.8218
8207.1456
7557.3248
7040.9146
6789.178
6197.3247
5916.4417
5519.3297
5439.4632
4978.2695
5328.1403
4653.444
5360.6476
4711.5903
5392.952
4803.9464
5468.5812
4713.4633
5261.8375
4498.1112
4736.6623
3881.3708
3957.0391
2964.5125
2783.5285
1832.6599
1769.4236
900.88632
714.87796
186.61886
48.666922
-230.45867
-151.48984
-114.72929
156.50319
426.3159
881.57787
1293.0501
1831.6416
2298.5283
2801.3205
3211.7014
3594.5191
3854.6363
4048.4279
4120.0495
4112.0699
3988.7697
3816.8598
3560.4189
3278.1185
2990.0427
2690.9833
2445.3987
2264.3871
2134.2744
2088.6496
2122.9185
2243.6709
2416.4588
2681.1415
2990.7022
3321.9984
3699.9505
4018.6087
4305.0882
4515.1119
4660.3028
4661.831
4608.0871
4407.4507
4117.9533
3732.8471
3252.7596
2750.2169
2175.9249
1691.287
1132.0236
811.04161
396.95357
484.37273
68.692454
6936.5631
4650.3342
6430.7114
5652.8435
7327.769
6885.5948
8044.162
7682.6182
8293.0322
7912.1031
7948.4242
7189.1697
7257.8679
6293.2484
6014.634
5052.8795
5040.5776
3792.6158
3785.7085
3093.7295
2997.7219
2656.0843
2691.7034
2563.9999
2646.3334
2937.7076
2782.6306
3334.4474
3188.612
3701.1072
3462.7573
3993.4695
3565.7837
3875.2592
3444.0195
3559.3121
2975.8038
3123.9779
2291.1667
2323.7812
1835.0233
1746.8445
1559.1488
1622.7166
1553.6481
1801.2437
1988.8795
2351.2363
2726.8712
3242.1697
3712.9991
4269.3004
4766.0346
5269.686
5671.854
6044.5699
6280.578
6442.936
6485.729
6427.0051
6265.9155
6033.1277
5718.571
5375.2499
4992.9131
4641.5372
4297.0251
3994.3216
3785.4497
3620.0831
3583.5912
3619.0166
3810.3477
4004.9532
4220.9981
4442.5193
4735.3036
4965.4168
5172.924
5325.2503
5375.0706
5362.0761
5200.3576
4986.9371
4596.7819
4196.2192
3627.355
3107.2456
2443.5544
1902.6746
1283.52
869.9821
446.16529
329.55787
-104.24818
6985.6652
6182.6924
7105.6752
6812.959
7810.9806
7337.381
8601.9445
7537.7175
8110.0309
7758.0433
6954.4622
6782.119
6181.4079
5187.3928
4572.8762
4056.7847
3031.1935
2519.9417
2135.6018
1539.2143
1147.3828
978.37909
614.54464
1037.482
750.51952
1385.9898
1166.0575
2080.7316
1731.7856
2727.818
2364.9078
3259.0824
2795.874
3570.2587
3066.1608
3559.5415
3123.0346
3409.0612
2943.5541
3231.8801
2906.2466
3114.1063
3013.8632
3257.437
3314.3007
3744.5538
4022.2434
4542.9557
4999.8814
5630.5176
6145.5692
6779.7958
7302.1609
7833.7074
8237.0251
8610.4165
8814.0381
8954.1768
8942.5359
8836.8037
8605.816
8313.6754
7914.8818
7500.6355
7054.4092
6609.1398
6179.038
5825.0754
5525.9118
5296.2787
5190.7723
5131.6521
5189.1565
5259.5642
5551.6595
5825.6157
6037.2089
6267.865
6460.1321
6560.4395
6596.4726
6495.3865
6309.4396
5977.7392
5543.3318
5016.8971
4371.9364
3732.4998
2963.6668
2348.8085
1578.7597
1111.634
495.5555
273.96187
-251.71629
7465.6556
5790.1482
6695.4222
5668.1743
6962.3183
6447.5869
6859.1569
6254.3004
6445.872
5410.4844
5049.4302
4334.0169
3454.4729
2332.8041
2006.243
637.46999
131.58494
-742.67725
-1166.8171
-1831.0095
-1821.9433
-2184.738
-1833.281
-1865.0693
-1634.2118
-1233.2361
-936.09484
-370.6848
-106.14416
711.92285
820.37741
1670.8874
1728.0897
2451.1593
2364.9338
3039.4666
2875.2648
3421.2312
3309.1629
3730.8588
3775.2608
4135.6623
4307.2095
4773.6312
5083.367
5632.3679
6106.1374
6710.4055
7299.1647
7962.4389
8551.9565
9194.1312
9735.4419
10247.538
10643.296
10976.513
11154.836
11248.944
11202.067
11047.682
10781.216
10438.135
9997.312
9547.4621
9036.2778
8548.8171
8073.2376
7666.2489
7297.5313
7027.404
6843.3061
6739.6985
6706.6751
6742.4248
6719.2193
6906.3763
7048.3282
7280.2203
7324.5769
7438.9107
7322.0892
7253.8568
6907.52
6600.8349
6025.5992
5488.9048
4730.7718
4049.349
3206.8377
2497.285
1710.9463
1117.3052
486.14368
141.90588
-217.80792
7204.3475
6743.5837
6191.0877
6627.9651
7153.5643
6442.4229
6781.6668
6240.4272
5471.8129
5092.9517
4179.3155
3264.0347
2181.3797
1397.5273
214.51823
-768.35371
-1501.7775
-2424.5648
-2894.5447
-3311.2798
-3812.0128
-3679.3328
-3630.6377
-3397.6908
-3225.3294
-2491.8044
-2353.2223
-1315.393
-1162.6226
-17.722374
57.321831
1318.3336
1319.4029
2429.9652
2431.2826
3383.5789
3360.0772
4183.8281
4187.0676
4904.0966
5033.3763
5656.5098
5942.9782
6616.1729
7009.5876
7749.0924
8306.3654
9071.8269
9719.7742
10500.987
11142.605
11859.246
12426.346
12982.258
13377.484
13720.603
13873.032
13947.176
13848.404
13649.456
13304.784
12893.073
12366.049
11821.861
11221.226
10648.411
10067.772
9551.3794
9101.7126
8721.8596
8447.7233
8276.2936
8139.2118
8186.9802
8027.3839
8089.041
8115.8847
8234.0767
8318.7783
8322.2704
8274.1768
8066.2243
7781.0677
7340.2269
6794.7307
6128.778
5376.6105
4558.7758
3697.1491
2867.2756
2025.8307
1352.3285
670.39626
231.01005
-453.73254
8596.4971
7359.5
7485.4964
6560.8338
6630.3038
6126.3069
5741.6828
5001.4568
4409.8532
3267.7478
2495.216
1163.1895
316.44657
-1288.9352
-2069.4797
-3361.1821
-4292.7713
-5193.372
-5709.5702
-6501.6535
-6476.5851
-6760.1034
-6610.5825
-6508.6682
-6002.9197
-5675.2485
-4876.3719
-4170.1195
-3483.7223
-2542.5201
-1840.188
-811.00988
-201.74696
912.9681
1381.444
2401.5065
2836.2058
3756.2624
4231.0522
5071.1985
5603.5099
6439.4334
7071.6758
7915.8991
8636.8384
9501.0967
10302.502
11158.317
11961.569
12795.881
13518.272
14234.264
14822.056
15334.666
15703.552
15971.655
16068.324
16055.545
15889.465
15602.8
15194.954
14718.22
14125.083
13542.577
12892.859
12303.723
11678.564
11180.463
10690.148
10314.309
10038.936
9818.0723
9733.9573
9619.3943
9718.1693
9810.4584
9757.7073
9764.6703
9700.9783
9604.6362
9374.0331
9060.5813
8606.6502
8055.1431
7363.4401
6590.2024
5727.4967
4816.762
3879.5794
2974.6943
2100.197
1365.9039
656.15087
222.67399
-365.14784
10299.932
8628.9869
8248.3477
7298.5951
7629.3828
6180.5419
5945.4985
4733.7683
3901.6639
2684.9665
1336.8826
596.941
-1310.2044
-2215.5374
-3808.5525
-4702.3018
-6072.6403
-6621.1708
-7737.6403
-7949.8852
-8306.8325
-8570.8715
-8483.9557
-7918.8135
-7716.6615
-6836.7824
-6255.7392
-5093.8914
-4538.8286
-3125.3641
-2538.8835
-1147.8988
-476.56517
996.96487
1558.6255
3002.2763
3506.1404
4834.0463
5399.1792
6568.3819
7246.7418
8327.4455
9049.9773
10109.963
10904.646
11936.091
12798.953
13777.891
14631.228
15546.676
16297.177
17064.459
17660.222
18196.614
18555.325
18819.594
18891.05
18852.93
18637.931
18306.106
17842.333
17282.484
16623.184
15942.066
15195.742
14505.28
13785.528
13163.347
12580.575
12089.711
11689.348
11392.288
11150.901
11037.056
10938.57
10875.587
10860.002
10818.505
10708.087
10537.586
10274.84
9892.4753
9398.8235
8787.174
8040.5959
7215.5666
6287.7028
5315.4697
4316.1369
3331.5507
2389.687
1558.2859
796.60687
310.19189
-341.01714
13209.239
10785.109
8360.1216
7711.3783
6735.8151
5673.0718
4615.2933
3338.6004
1945.8501
634.70693
-578.12264
-2323.1569
-3545.8079
-5155.3768
-6666.1631
-8051.088
-9204.7321
-10470.285
-11093.896
-11782.841
-12210.521
-12349.439
-11966.642
-11696.453
-10991.778
-10416.9
-9415.3934
-8455.1916
-7278.1962
-6046.1032
-4894.4391
-3566.6976
-2454.6386
-1079.1764
202.53356
1571.0085
2648.3443
3974.7369
5080.9237
6374.6841
7504.5676
8764.2805
9944.6358
11198.38
12388.808
13621.401
14780.488
15943.142
17010.429
18038.039
18924.242
19732.592
20369.856
20875.244
21193.369
21360.746
21329.09
21145.978
20787.439
20302.827
19677.721
18975.82
18192.096
17384.243
16541.317
15769.588
14959.527
14366.427
13807.508
13335.782
12982.509
12735.043
12540.436
12464.262
12378.559
12353.431
12298.955
12222.328
12038.753
11806.75
11423.529
10937.971
10302.579
9550.9937
8660.1622
7689.6718
6619.0729
5525.2825
4404.0561
3319.9151
2322.8674
1425.428
708.36298
190.55467
-216.18499
17684.802
10013.643
9691.8347
7630.55
7413.0983
5037.2926
4500.8889
2514.8358
1431.966
58.763938
-1982.9684
-2834.4267
-4846.2361
-6103.9573
-8052.5926
-9117.6587
-11190.441
-11766.458
-12970.042
-13397.244
-13951.691
-13844.918
-14043.005
-13523.282
-13152.726
-12348.687
-11481.234
-10141.974
-9218.9331
-7275.4784
-6280.3856
-4420.6578
-3381.7067
-1496.3283
-172.45887
1884.3371
2644.6495
4522.1865
5732.7968
7341.5892
8660.9832
10196.115
11528.521
12983.015
14328.083
15701.723
16995.094
18268.971
19422.966
20520.982
21457.572
22289.944
22934.749
23417.877
23711.765
23816.772
23721.484
23452.308
23012.082
22410.754
21695.996
20881.419
20007.223
19086.746
18200.642
17285.69
16457.178
15734.194
15147.846
14587.045
14257.793
13897.145
13710.94
13568.39
13479.687
13400.842
13333.449
13174.32
12962.766
12636.454
12206.238
11619.629
10922.476
10064.985
9111.0248
8035.591
6908.3653
5726.6818
4544.6986
3423.1627
2364.1939
1452.8371
700.38632
175.87713
-222.87249
-1051.7399
-3807.984
-2087.4487
-4344.3843
-3172.4815
-3946.5061
-3387.1797
-3477.4337
-1187.6486
-3292.8764
-544.94242
532.39968
-55.826535
4673.6102
3287.7188
1758.0125
-2039.2228
-1648.3416
-5110.9072
-79.927178
-3627.3181
-919.81646
-2008.3804
-929.17829
312.21675
22.283519
1991.9765
4411.4352
7520.2088
8125.3862
6945.4153
6759.7266
9411.0337
8614.2134
8620.9093
10041.062
9548.5641
10158.616
10934.332
11311.494
10975.084
13279.932
13120.347
16956.233
16625.563
8853.0959
7197.6308
8165.5071
8797.1893
8449.7893
8917.4663
9828.8066
10569.988
9663.9588
11772.032
12388.324
13218.488
12989.019
19901.67
15042.28
12866.302
13533.436
14852.609
13017.995
17452.618
14011.115
17020.067
15771.925
17518.24
17792.225
17449.288
18254.658
17920.706
19636.304
18040.501
10152.288
10661.361
11363.564
11590.537
11827.029
12202.52
13333.166
13797.948
13957.449
14839.985
16133.205
17466.011
17123.82
22622.137
20608.446
13879.085
15516.882
15947.165
17010.413
18188.615
18410.869
19151.81
20363.807
20060.859
19989.772
21708.822
19543.589
20387.507
23673.236
14918.097
12409.641
12556.299
13687.519
13645.124
15518.044
14798.333
17074.302
16409.738
17511.827
18154.102
20098.751
18828.031
19915.619
23923.31
21000.361
13670.802
15331.047
15670.528
17805.182
17853.405
19109.52
19502.808
20629.213
20817.245
20879.947
23423.703
20791.585
22708.43
24987.03
16591.605
12535.33
13682.639
14715.523
15007.371
16837.541
16558.118
18388.661
18353.009
19235.73
19172.18
21513.892
19719.147
21207.359
25472.957
20638.26
14169.583
20266.948
18297.932
22013.068
21044.124
23467.766
23569.581
24587.175
24373.144
24753.639
26191.673
23578.423
26053.456
26574.461
21326.549
17960.825
15604.18
19812.302
17405.271
20960.465
20593.914
21831.899
22137.496
22381.113
23790.261
24437.376
24081.884
25281.828
28460.595
21954.178
17646.388
22730.808
21023.48
24204.396
23752.36
25501.444
25669.891
25681.341
26762.326
26480.965
28140.847
26879.945
25975.63
28468.443
19805.496
28038.146
33452.304
34586.686
35622.205
38136.526
37180.057
38094.487
40697.753
39605.598
40771.292
39107.945
40366.655
40590.701
40110.78
38227.576
23600.003
22549.398
19210.423
21902.043
23108.778
25815.431
25506.898
26507.768
23554.39
24798.963
24739.256
24623.263
25854.178
28941.56
24537.075
40654.668
37485.284
47414.936
49327.349
49542.302
55211.172
51237.603
46724.022
54830.95
54495.802
54006.251
52854.289
53233.388
49969.014
44179.299
20363.555
21522.103
24400.253
25118.057
24931.242
26496.917
27119.619
28749.884
30519.012
28278.891
28230.017
26241.884
28033.989
27305.673
26881.401
12091.406
16025.851
15543.313
17562.585
19861.221
18647.143
20318.236
19764.661
19104.127
20818.387
19743.416
21020.66
19101.757
17412.125
17346.888
8223.8439
9607.3168
10579.723
10196.05
10997.382
11050.439
11492.303
11623.612
12126.233
11028.332
11891.309
11302.167
11239.955
10922.364
9828.293
8755.9933
11281.617
12051.231
12967.314
13532.181
13840.497
14612.514
14235.59
14975.231
14875.048
14211.401
14291.08
13067.727
12602.416
11567.578
6077.7997
5301.5438
5346.1863
5927.8835
6416.8909
6782.2841
6829.9773
6965.1048
7431.6566
7294.5566
7472.1531
7602.031
6567.7135
7075.806
6808.7361
4253.9136
5405.7856
5769.8326
6384.8447
7193.9981
7877.9781
8074.1985
8491.4137
9015.7199
8687.8269
8830.6246
8644.4894
8252.0929
7860.7388
7972.2969
3152.642
2140.7544
3035.0317
2177.7285
3197.2442
2767.5043
3325.0643
3499.0937
3813.7593
3604.7271
3791.7342
3775.8868
4041.4995
3756.1351
4171.2024
565.19573
1475.8436
1790.4099
2261.8861
2513.9329
3227.1353
3428.599
3723.941
4772.5949
3766.3903
4330.4882
4499.3794
3901.3975
3925.7275
2947.2381
-163.93641
-1165.6956
-774.44134
-1333.6442
-721.65251
-899.50002
-180.79213
-9.064669
-620.73108
727.8669
730.64532
1042.6428
892.6305
1330.2007
951.16208
-2789.8311
-2625.0461
-2475.1161
-2062.1798
-1789.8408
-1483.1631
-1291.2544
-752.33548
-521.86975
-402.13162
102.82507
255.72634
484.27664
672.47171
1209.8441
-3682.4785
-4767.4103
-4590.5035
-4565.3114
-4068.6985
-4388.6426
-3471.9989
-3157.0733
-2804.1822
-2395.6746
-1966.7067
-1621.0407
-1459.2188
-1371.0215
-1107.3573
-6169.3863
-6258.7405
-6074.7846
-6089.9231
-5782.3069
-5271.179
-5022.0184
-4478.5922
-4240.4379
-3710.2427
-3290.7481
-2721.3256
-2788.1677
-2105.0942
-1761.1909
-7261.025
-8554.639
-7646.1995
-8100.9061
-7455.1942
-7618.1462
-6686.9163
-7142.7659
-6188.6687
-6041.7394
-5334.6433
-5101.6784
-4567.4083
-3851.4591
-3537.1482
-9643.02
-9695.5445
-9131.2556
-9603.1041
-8494.3553
-8563.7017
-8928.5619
-6558.235
-7167.182
-6413.9636
-5959.1406
-5192.4862
-5039.5485
-3931.1611
-4241.2366
-10556.229
-11707.887
-10483.09
-11254.566
-10204.553
-10767.086
-9287.3266
-9556.1051
-8547.8303
-8583.788
-7728.8205
-7241.2257
-6545.8746
-6230.3919
-5730.503
-12394.738
-12573.805
-12270.515
-12087.336
-11651.664
-11422.443
-11049.116
-9995.0559
-10087.035
-9111.5099
-8468.8753
-7619.332
-7403.8185
-5226.6354
-6028.821
-13622.355
-13549.842
-13281.321
-13007.318
-12291.975
-12286.595
-11684.926
-10996.94
-10330.925
-9962.5347
-9111.1517
-8649.1287
-8733.7434
-6923.2838
-6972.1539
-14586.69
-14729.661
-14131.425
-14318.536
-13195.585
-13381.197
-12426.617
-12101.696
-11600.816
-10783.641
-9398.0437
-9109.5997
-8634.4269
-7363.6166
-6774.7039
-15309.418
-15085.512
-14963.628
-14636.474
-14035.998
-13824.626
-12571.788
-12097.105
-11526.076
-10763.069
-10600.751
-9489.8617
-9686.4826
-7893.1588
-7524.0805
-15944.539
-15640.85
-15231.346
-15194.312
-14126.849
-13860.887
-13060.389
-12687.296
-12006.512
-11391.47
-10918.218
-9616.3908
-9372.2162
-7326.9185
-7068.3507
-16104.773
-15678.332
-15608.833
-15065.535
-14543.439
-14027.279
-13308.74
-12687.679
-12261.899
-10621.36
-10285.046
-9469.0823
-9119.1845
-7309.3952
-7549.5581
-16037.117
-15686.381
-15290.471
-15116.053
-14154.72
-14065.048
-13367.68
-12763.079
-11533.02
-12075.894
-10085.391
-9717.6207
-7783.0167
-7527.0223
-6837.6894
-15869.48
-15305.009
-15185.873
-14674.038
-13918.646
-13690.748
-12355.95
-11911.988
-11193.694
-10150.925
-10456.688
-8266.1601
-8031.7337
-6186.574
-6717.9069
-15250.198
-15046.472
-14479.25
-14241.079
-13155.824
-12876.143
-11933.692
-11620.076
-10549.748
-10406.468
-9245.6705
-8816.5339
-7326.9264
-6874.9616
-5586.4294
-14631.965
-14227.317
-13618.79
-13437.679
-12574.851
-12101.199
-11367.99
-10610.925
-10026.433
-8959.6849
-8140.5344
-6498.8609
-7133.951
-4708.8134
-4924.7115
-13702.354
-13439.245
-12640.723
-12507.756
-11483.72
-11304.174
-10379.625
-9726.2059
-9002.8682
-8287.869
-7409.6416
-7056.9488
-5692.4049
-5127.5164
-4496.2997
-12531.998
-12123.932
-11455.276
-11490.979
-10364.73
-10026.85
-8950.1138
-8513.1927
-7593.3093
-6897.3752
-5998.7653
-5283.1865
-4547.6372
-3207.7542
-2740.1599
-11354.895
-11010.964
-10308.398
-10100.117
-9172.0499
-8806.5484
-7953.4115
-7331.0494
-6591.8168
-5910.3068
-5141.4334
-4423.859
-3347.1693
-2421.721
-2217.2075
-9735.0862
-9440.2605
-8795.3664
-8430.9483
-7573.1784
-7028.8348
-6336.6759
-5812.339
-4951.0485
-3998.1247
-3378.2124
-2387.816
-2138.188
-691.94029
-388.81519
-8249.3692
-8245.8375
-7166.4502
-7269.1688
-6005.3387
-6126.3563
-4575.2825
-4384.0747
-2991.3635
-2866.09
-1841.7777
-1239.4669
-464.41967
395.80641
1038.3395
-6457.0272
-6433.1548
-5535.1574
-5360.5672
-4413.7169
-3839.2127
-3141.5745
-2317.8904
-1718.2833
-895.03566
-231.24395
731.57623
1166.3271
2456.9049
2478.1674
-5064.6062
-4902.2976
-3902.159
-3948.1588
-2595.7327
-2556.2179
-1275.4004
-1020.7332
108.30774
513.42498
1517.4771
2097.389
2904.0234
3585.2875
4232.1947
-2966.6794
-3109.1541
-2016.046
-1889.04
-734.18843
-314.91717
585.74338
1205.2605
2040.5529
2729.0506
3403.3269
4283.6891
4697.8739
5726.6642
5951.4831
-1742.4768
-1316.7809
-412.75585
-424.10808
835.18914
1249.401
2182.6405
2824.3221
3610.7345
4256.1848
5058.2836
5748.273
6469.1815
7214.302
7849.1564
438.13989
401.9151
1577.7792
1974.4764
2938.6873
3525.1722
4332.3523
5015.7857
5789.6865
6467.7284
7250.113
8051.8672
8487.7916
9502.1231
9745.5886
2021.0477
2276.6403
3260.75
3554.5686
4824.2207
5140.633
6271.266
6673.2612
7735.0609
8408.6176
8969.6162
9708.6367
10274.371
11145.442
11559.021
3836.2389
4116.4807
5270.1576
5610.3241
6768.0728
7330.8864
8226.2856
8931.0455
9732.2987
10380.755
11069.303
11903.311
12321.428
13400.823
13513.087
5462.3524
5885.2864
7019.1485
7351.2042
8649.6848
9006.8819
10138.714
10620.616
11522.459
12134.293
12895.515
13593.164
14197.535
15075.672
15467.811
7416.3873
7781.9474
8984.0733
9462.4163
10668.362
11241.579
12252.673
12824.888
13723.609
14362.635
15039.972
15864.029
16230.586
17294.808
17415.551
8953.1811
9617.0272
10737.121
11217.746
12478.706
12955.8
14003.954
14551.224
15466.157
16034.987
16789.356
17489.929
18021.672
18983.589
19288.621
10906.036
11452.595
12632.818
13230.861
14475.268
15030.588
16084.399
16642.924
17522.111
18147.981
18796.812
19596.71
19987.905
21031.254
21126.525
12469.352
13260.961
14378.362
15017.039
16231.876
16807.02
17809.476
18354.212
19251.962
19808.086
20503.098
21230.963
21678.317
22621.234
22870.392
14306.733
15022.125
16176.968
16856.25
18116.552
18689.397
19693.816
20259.589
21113.159
21700.169
22332.523
23093.7
23435.949
24455.182
24533.601
15858.929
16761.165
17819.48
18576.364
19746.098
20346.285
21304.605
21840.907
22684.225
23214.701
23845.715
24536.243
24936.874
25823.645
25997.824
17576.043
18375.357
19496.321
20230.668
21420.644
22023.255
22958.714
23507.016
24312.441
24835.589
25425.214
26135.387
26433.764
27323.239
27397.179
19003.999
19974.113
20979.431
21758.532
22862.277
23468.832
24352.946
24867.935
25621.758
26111.947
26692.561
27305.443
27647.506
28402.414
28554.497
20547.6
21383.579
22412.655
23150.948
24245.463
24858.903
25703.857
26188.308