/*--------------------------------*- C++ -*----------------------------------*\
  =========                 |
  \\      /  F ield         | OpenFOAM: The Open Source CFD Toolbox
   \\    /   O peration     | Website:  https://openfoam.org
    \\  /    A nd           | Version:  6
     \\/     M anipulation  |
\*---------------------------------------------------------------------------*/
FoamFile
{
    version     2.0;
    format      ascii;
    class       pointVectorField;
    location    "0.2";
    object      lm;
}
// * * * * * * * * * * * * * * * * * * * * * * * * * * * * * * * * * * * * * //

dimensions      [1 -2 -1 0 0 0 0];

internalField   nonuniform List<vector> 
625
(
(-3.6361799e-15 2.112754e-16 -3.2990721e-16)
(2.8178306e-17 1.9013092e-16 6.1994168e-17)
(6537.0719 -761.7039 190.95715)
(6080.3515 -2581.9326 1.0919458)
(6.5239771e-16 2.739523e-16 -5.5565719e-16)
(-3.7042918e-15 1.4868296e-15 -1.3023874e-15)
(6259.6076 -2714.5231 -10.187437)
(6697.5115 -886.38646 190.58126)
(-1.9658614e-16 -3.2115893e-17 -1.1045223e-16)
(1.4766345e-16 -3.4299605e-16 -2.8648028e-16)
(-1.0135278e-15 7.0169807e-16 1.7538027e-16)
(6228.132 -1176.4962 140.23538)
(6189.7261 -1633.5921 95.099691)
(6260.3432 -2142.5599 49.919966)
(-71.040083 -30.311439 13.173724)
(-157.72583 -25.366413 44.978404)
(-233.06164 15.823325 86.841799)
(-270.77207 79.417081 115.69915)
(-260.63656 157.01994 136.01103)
(-184.46802 242.74889 141.7772)
(-47.417447 324.50335 141.88849)
(151.15925 396.08441 135.82689)
(404.94302 450.37399 130.04439)
(704.35672 483.24325 120.24136)
(1046.1463 495.02628 115.17033)
(1416.3513 481.56533 110.25484)
(1810.3603 446.68171 108.50401)
(2217.137 391.8463 110.04714)
(2632.1249 320.06446 115.41989)
(3049.516 234.15798 124.48829)
(3468.6855 136.65434 135.30401)
(3887.7075 28.298166 147.48464)
(4310.4907 -88.425225 155.48618)
(4733.7496 -211.83989 162.7724)
(5162.0446 -343.51852 165.79484)
(5589.8338 -477.3525 169.78567)
(6014.6323 -614.65925 177.43044)
(-64.332273 43.675366 28.696448)
(-157.58849 44.200597 -10.494641)
(-248.89851 22.933197 -55.083961)
(-299.82716 -31.268047 -86.285427)
(-311.04136 -102.12547 -115.66925)
(-265.50186 -198.69524 -134.59575)
(-169.92347 -299.13278 -151.69584)
(-19.820804 -411.14423 -158.52183)
(179.95091 -527.1183 -163.87716)
(422.05874 -642.9148 -161.58734)
(703.85505 -763.59838 -155.3028)
(1018.7183 -886.04698 -145.97318)
(1361.7264 -1011.3744 -135.32276)
(1728.2682 -1139.9327 -124.23026)
(2114.3144 -1271.6554 -112.96109)
(2516.3308 -1407.5399 -101.17963)
(2931.7377 -1548.4397 -88.315536)
(3359.0961 -1694.9029 -75.959573)
(3796.5378 -1847.315 -62.881269)
(4243.6323 -2000.0886 -52.430507)
(4697.186 -2152.1485 -40.992036)
(5152.7719 -2297.0402 -29.182379)
(5616.8745 -2439.8263 -15.718216)
(-4.8813632e-16 1.9183015e-16 -1.0607077e-16)
(-2.6214496e-15 -5.6404768e-16 7.244144e-16)
(-2.4010456e-15 1.4295629e-15 -1.6975308e-16)
(-50.271058 31.740489 -37.241469)
(-117.77106 49.175189 -12.572416)
(-178.13939 27.197148 15.301881)
(-219.51904 -17.785875 30.60096)
(-207.13934 -91.23604 37.391184)
(-144.41382 -175.44181 28.963985)
(-38.672505 -278.73944 16.988354)
(129.36528 -400.80106 -5.6523984)
(338.21283 -524.22306 -23.47172)
(587.8914 -654.59066 -41.295141)
(873.62407 -786.67307 -55.372182)
(1189.6066 -922.71817 -64.784122)
(1533.4337 -1060.3115 -71.830133)
(1901.9995 -1201.4257 -76.549813)
(2290.0099 -1345.8502 -77.69188)
(2692.6836 -1493.0068 -73.787534)
(3106.2723 -1642.8586 -64.438237)
(3529.7186 -1794.5361 -51.616448)
(3964.0148 -1947.6292 -40.492431)
(4409.4368 -2101.1883 -34.042885)
(4862.2312 -2254.3924 -32.301305)
(5316.1379 -2404.5543 -29.923704)
(5752.6003 -2545.0285 -22.393401)
(6448.12 -2273.1477 41.861273)
(6323.3035 -1744.9689 90.187424)
(6443.0175 -1308.2315 140.21181)
(6196.0518 -739.41746 176.73924)
(5777.6835 -597.08005 167.82041)
(5346.9316 -461.10748 156.38916)
(4913.872 -329.75359 143.52867)
(4480.9492 -204.52579 127.89123)
(4050.053 -85.644214 109.34937)
(3621.567 28.68026 89.133909)
(3195.9929 136.34849 68.942588)
(2773.3671 234.84078 49.807221)
(2355.8571 319.76377 32.311512)
(1947.417 387.37428 16.408036)
(1554.1747 435.47654 2.3212286)
(1183.3003 462.05777 -9.8527198)
(843.84399 465.21057 -17.959333)
(538.84769 441.27609 -24.714331)
(279.86499 401.30151 -26.800356)
(75.619915 335.5548 -23.729971)
(-71.348357 254.39016 -18.306514)
(-154.95355 166.74859 -10.266774)
(-184.61805 78.649436 0.014428586)
(-163.35355 16.855688 4.7627061)
(-115.42783 -30.406635 13.519168)
(-55.448872 -37.39348 18.741314)
(-1.3028228e-15 -3.4252847e-16 3.3068324e-16)
(-2.0449562e-15 -3.5718549e-16 -7.3673077e-16)
(-1.4121951e-15 -1.0527101e-15 6.223458e-16)
(-1.2019486e-15 6.189313e-16 -3.4292956e-16)
(-1.2511779e-16 -6.848356e-17 2.1836215e-16)
(-3.8898857e-17 4.7141393e-16 -3.1043199e-16)
(6122.5293 -2615.8169 -1.4430646)
(6168.4745 -2649.8287 -4.0276981)
(6213.05 -2683.5141 -9.1429683)
(6577.391 -792.51576 191.83468)
(6617.177 -823.59086 192.67693)
(6656.593 -855.8556 191.07977)
(-60.904056 10.958446 4.4266574)
(-152.82004 22.855616 28.052323)
(-236.84558 45.449267 51.288919)
(-291.81617 75.112838 68.064556)
(-301.50445 112.18528 79.485411)
(-245.39422 150.02359 81.423465)
(-128.8475 182.78581 77.755883)
(55.434014 208.56604 70.366415)
(297.99414 219.64808 62.633649)
(597.53636 213.45925 57.296956)
(939.99091 188.83916 53.337157)
(1315.9854 144.05201 51.18853)
(1715.1228 82.010271 51.179001)
(2126.7671 3.8378713 53.048105)
(2542.9074 -87.25549 57.983567)
(2957.3615 -188.37497 65.727229)
(3368.4621 -298.35915 76.026262)
(3775.0893 -414.76174 87.231388)
(4181.2163 -536.80104 96.984646)
(4586.2467 -663.99964 106.07353)
(4996.4396 -792.83432 112.20307)
(5408.748 -921.78288 120.34399)
(5836.4271 -1053.1879 129.59474)
(-79.554358 8.9027029 14.132684)
(-170.85937 17.994097 17.773063)
(-265.92553 29.290066 21.089175)
(-320.83515 39.722523 19.934196)
(-324.60332 43.501882 15.14724)
(-268.78755 40.83697 6.24088)
(-150.39715 30.21053 -4.2997011)
(27.90568 7.2759324 -13.002937)
(257.77176 -26.524476 -19.407714)
(532.5893 -73.067468 -22.88419)
(844.08499 -131.81648 -23.011962)
(1186.0301 -202.6331 -20.005669)
(1551.1392 -284.28744 -15.236334)
(1933.9347 -375.38763 -8.5171862)
(2329.544 -474.70034 0.14491882)
(2735.3353 -581.72803 10.877596)
(3150.2845 -696.76419 23.426203)
(3573.8716 -820.111 36.210069)
(4009.7217 -951.91609 47.930075)
(4454.1139 -1090.7504 57.452779)
(4910.5114 -1233.6762 64.697202)
(5370.2141 -1376.9464 73.918399)
(5823.845 -1517.8991 83.933827)
(-76.198838 -3.5997308 5.0230175)
(-179.91738 -10.962111 -1.022132)
(-279.81739 -15.544165 -19.624423)
(-331.719 -32.130951 -34.447386)
(-334.76501 -61.665122 -50.711294)
(-275.5315 -98.622801 -65.496793)
(-157.51212 -149.36622 -75.676883)
(11.952933 -206.3502 -83.290066)
(226.60578 -271.4276 -86.962418)
(480.92543 -344.97573 -86.293969)
(767.38639 -426.27987 -82.537866)
(1081.842 -516.37037 -76.83833)
(1420.602 -614.1966 -70.461999)
(1781.5661 -719.47684 -63.314391)
(2162.4663 -832.42246 -55.222854)
(2562.5508 -953.22497 -45.690687)
(2979.7598 -1083.5714 -34.400269)
(3416.1265 -1223.8333 -22.227164)
(3869.0471 -1372.9224 -10.796981)
(4339.3109 -1530.0345 0.66422948)
(4822.2152 -1688.0432 9.8040494)
(5309.7728 -1845.0119 21.89053)
(5778.4186 -1991.8735 33.921235)
(-2.5953868e-15 -2.1703571e-16 4.2716933e-18)
(-3.8783653e-15 3.5858996e-16 7.5215743e-16)
(-9.8459492e-16 7.8127033e-16 2.7525688e-16)
(-3.9146975e-16 7.8165185e-18 1.2560621e-16)
(1.6350797e-16 -2.4226884e-16 -1.2066667e-17)
(-1.0304172e-15 -9.2669207e-16 -7.5672327e-16)
(-6.4481012e-16 3.525084e-16 2.7116342e-16)
(-3.5205005e-15 9.4737515e-16 -2.5196009e-17)
(-3.8147498e-15 1.043275e-15 1.2924308e-16)
(-73.46078 28.308123 4.6481611)
(-70.388895 31.440815 -7.2928806)
(-60.759472 25.492296 -18.64249)
(-151.72398 60.880295 -8.7899837)
(-137.42766 55.567383 -11.656011)
(-128.65162 49.747696 -13.235366)
(-214.61106 42.742698 -38.452206)
(-191.78662 41.437668 -22.286648)
(-179.55727 35.381719 -1.9610572)
(-252.73444 -11.265492 -55.593416)
(-227.4538 -18.159012 -28.482067)
(-211.9339 -14.399717 4.1420501)
(-249.71995 -91.167498 -77.513317)
(-216.3557 -91.536017 -40.968409)
(-199.77985 -94.041289 2.0730908)
(-200.86383 -186.98569 -95.441753)
(-163.06712 -192.29779 -52.343346)
(-143.14588 -186.7858 -8.2554238)
(-100.48154 -298.35976 -110.31903)
(-58.392355 -302.32355 -70.739628)
(-32.908453 -299.30017 -19.200331)
(51.954055 -417.5473 -122.36636)
(94.448842 -415.67889 -85.061134)
(123.29368 -417.06809 -42.633804)
(248.59923 -534.64637 -130.12328)
(293.72792 -540.3343 -98.274525)
(327.15914 -541.29879 -56.825885)
(489.10858 -659.40659 -133.18352)
(535.92253 -663.7648 -105.24561)
(570.89329 -668.04647 -70.832968)
(767.41805 -782.83434 -131.01022)
(814.08109 -788.85732 -108.84447)
(850.46259 -795.06779 -79.923973)
(1078.7146 -908.78236 -125.84821)
(1124.8445 -916.18035 -109.24437)
(1162.7166 -924.98196 -85.169573)
(1418.4179 -1036.0415 -119.58216)
(1464.2631 -1045.4566 -107.5672)
(1502.6219 -1057.3729 -87.742924)
(1782.5303 -1166.0493 -112.29763)
(1827.8027 -1177.7466 -104.26722)
(1867.0073 -1193.2239 -88.620653)
(2166.5067 -1298.6322 -104.1512)
(2211.6022 -1313.0086 -98.986746)
(2251.6801 -1332.6265 -86.719349)
(2566.655 -1435.2472 -94.169821)
(2611.9188 -1452.1871 -90.255494)
(2652.1272 -1475.2767 -80.503205)
(2980.4076 -1576.6699 -82.288546)
(3025.1855 -1596.0914 -77.942332)
(3065.8021 -1621.3071 -70.033211)
(3405.6251 -1723.638 -69.092001)
(3450.5944 -1745.0803 -64.401627)
(3491.1043 -1771.4189 -56.818592)
(3841.9015 -1875.1896 -57.297866)
(3886.1582 -1899.1278 -52.286465)
(3927.5754 -1925.2125 -45.236462)
(4287.4044 -2027.9815 -47.450233)
(4331.7088 -2053.8609 -43.508534)
(4374.09 -2080.8631 -37.882772)
(4738.9054 -2178.7607 -39.087139)
(4783.0286 -2207.5188 -37.817496)
(4826.7702 -2235.5301 -34.446943)
(5192.3048 -2324.5002 -30.354979)
(5236.589 -2355.4107 -30.994212)
(5280.7533 -2385.8897 -30.447663)
(5642.6837 -2463.511 -18.100494)
(5686.3131 -2495.9907 -20.260833)
(5731.3742 -2527.852 -21.731728)
(6285.9313 -1209.6343 141.24768)
(6325.283 -1240.6238 141.79909)
(6364.4454 -1271.2387 140.02291)
(6204.3315 -1657.3961 95.422546)
(6252.5998 -1690.7674 95.858407)
(6293.9565 -1720.6545 92.418726)
(6281.71 -2168.9516 49.641119)
(6336.7592 -2205.622 49.213924)
(6382.0354 -2237.5031 43.811577)
(-75.2355 -48.58389 12.181711)
(-67.904009 -36.268754 14.420891)
(-60.356095 -34.127197 15.177513)
(-145.04337 -39.633731 35.212253)
(-125.54827 -31.038062 28.714653)
(-122.16543 -27.897717 19.558134)
(-200.47048 3.3354696 65.0066)
(-181.00555 7.4457436 46.611975)
(-166.0865 15.573126 25.49821)
(-230.80011 63.158286 85.201894)
(-200.32476 72.129468 58.673089)
(-182.49494 75.625724 28.012535)
(-207.44427 150.27733 100.37542)
(-171.96028 155.51382 63.642838)
(-153.01296 159.69747 26.157724)
(-124.85814 235.44131 100.65684)
(-90.709707 240.2496 64.904726)
(-64.322846 244.9661 18.514972)
(15.058048 318.39823 99.316036)
(53.345283 323.7735 60.957013)
(80.473431 325.81609 14.964831)
(215.98967 387.57976 92.893883)
(253.4346 391.78247 56.179909)
(282.49367 392.80326 8.7874452)
(466.12756 443.66204 90.145474)
(508.25335 440.70903 47.533245)
(537.48098 440.46769 10.174424)
(767.82587 473.37585 81.656407)
(804.3296 468.37444 54.255547)
(839.25572 464.47519 9.3586026)
(1103.7675 481.11756 81.367125)
(1142.8264 473.7898 50.711021)
(1176.0648 467.40209 16.207254)
(1472.2921 466.40103 80.186816)
(1509.0547 455.14577 55.149789)
(1544.9443 445.6915 23.79934)
(1861.4569 428.71375 82.655615)
(1899.3004 414.83858 59.981337)
(1935.1676 402.19115 34.54866)
(2266.5964 371.29978 86.906389)
(2304.2159 354.68508 68.165682)
(2340.4441 338.38176 46.818885)
(2680.1048 296.61189 94.767859)
(2718.1581 277.2628 78.731087)
(2754.6085 257.60407 61.577113)
(3097.5494 207.93361 105.47242)
(3136.6459 185.82491 92.558904)
(3173.0723 163.18067 78.601577)
(3517.0587 108.20509 119.09059)
(3557.0848 83.286575 108.46384)
(3594.0139 58.258735 97.643002)
(3937.5192 -1.1820862 133.13606)
(3978.9757 -28.318641 124.94274)
(4016.4009 -54.458913 116.84544)
(4360.4496 -117.00393 145.76053)
(4402.4227 -146.6169 139.97786)
(4440.8228 -174.20513 133.96899)
(4784.9966 -240.53928 156.61191)
(4827.8381 -271.39065 151.23224)
(4866.1895 -300.13258 147.62594)
(5212.8682 -370.86738 162.67371)
(5254.1439 -402.84601 160.79931)
(5293.0587 -432.63921 158.49252)
(5639.2422 -505.54523 168.97664)
(5679.1536 -536.85939 168.18312)
(5718.8575 -567.72319 167.13832)
(6066.8853 -645.13115 176.8067)
(6106.3138 -676.72559 176.30842)
(6145.8396 -708.23852 176.00579)
(-37.718375 3.5634263 11.748471)
(-112.88565 19.92501 -0.02471101)
(-172.29368 38.882929 6.0590278)
(-206.15763 80.380823 0.69249557)
(-196.09357 124.65131 -3.4641357)
(-130.00716 164.43909 -9.5710482)
(-1.6381041 197.85874 -15.233282)
(189.56431 214.94089 -22.088966)
(441.02891 215.37278 -23.719481)
(742.71861 193.93589 -23.31174)
(1088.212 155.40955 -19.964049)
(1467.4459 95.975383 -11.750404)
(1869.917 19.937436 -1.9324662)
(2286.3924 -71.514551 10.442739)
(2708.1446 -175.80027 24.67581)
(3128.8525 -289.02324 40.859545)
(3545.651 -407.6384 58.363607)
(3958.7018 -528.93053 75.377052)
(4368.8512 -652.35471 90.100913)
(4777.5486 -778.67457 101.16145)
(5185.0776 -907.39171 110.22588)
(5590.4653 -1038.1935 118.35116)
(5988.6954 -1169.8267 127.56499)
(-52.166405 -0.80942376 -4.5507358)
(-131.4787 6.7741385 4.4361927)
(-196.12718 23.668561 11.558014)
(-234.5884 43.732321 13.648728)
(-223.70729 57.326336 13.586455)
(-153.79757 58.16258 10.491867)
(-25.746413 49.734831 1.5551347)
(163.71979 21.883946 -7.7515271)
(404.45421 -22.601431 -17.068795)
(689.12721 -81.96164 -24.205311)
(1010.0895 -154.5512 -27.964623)
(1359.6259 -240.32341 -28.751457)
(1730.3576 -335.72171 -26.872575)
(2117.6046 -440.71526 -21.893695)
(2514.5913 -553.37006 -14.37777)
(2917.734 -672.70873 -3.1084202)
(3326.024 -796.20222 11.138308)
(3740.5899 -923.29771 26.597907)
(4164.2636 -1053.8333 40.845307)
(4597.3206 -1188.9147 52.316413)
(5038.2512 -1329.4521 61.426846)
(5482.4345 -1472.9643 70.171083)
(5954.8522 -1626.3902 79.607256)
(-48.681909 -5.8415131 -5.6074599)
(-134.19487 -1.8592234 -3.3181258)
(-205.32719 -11.444556 11.326045)
(-240.65694 -12.007693 19.536724)
(-221.64504 -38.868387 22.265154)
(-145.26953 -72.423849 15.570634)
(-17.341973 -122.06382 3.7067438)
(166.05677 -188.21593 -10.213341)
(388.16218 -263.62513 -24.134452)
(647.47766 -351.38665 -33.909491)
(934.69187 -446.23877 -40.7625)
(1248.5579 -548.60682 -44.689054)
(1586.4332 -657.85954 -45.454513)
(1947.2868 -774.16051 -44.428064)
(2328.2948 -898.84692 -40.07852)
(2727.2226 -1031.9248 -31.967924)
(3142.8085 -1172.6649 -20.761439)
(3575.3609 -1319.8419 -8.3001228)
(4026.363 -1472.2364 2.9613082)
(4495.215 -1629.1109 10.743584)
(4977.049 -1789.0791 16.768354)
(5462.7664 -1951.2833 22.736614)
(5953.7767 -2114.3526 31.268011)
(-52.493512 4.4353753 8.5766353)
(-48.715583 3.9890865 10.515462)
(-45.331149 4.7026875 9.923738)
(-140.33295 14.566911 23.673649)
(-123.22514 15.995044 17.615697)
(-118.41994 17.310964 12.382372)
(-208.13462 32.846715 41.300204)
(-190.48265 34.331391 30.626512)
(-175.61856 37.199943 18.682959)
(-251.85677 67.926768 53.036396)
(-222.00519 71.261516 34.469616)
(-205.75255 71.407328 17.314529)
(-247.43359 106.5917 58.21599)
(-214.65029 108.46367 37.645142)
(-194.37151 111.49311 16.423421)
(-186.1277 145.28113 57.83513)
(-148.93569 149.25686 34.129359)
(-125.90348 151.44584 9.6857423)
(-64.126807 179.16008 51.639575)
(-24.116358 182.78247 26.350108)
(2.1495878 183.39748 3.4136566)
(122.10139 203.84451 42.74903)
(163.64498 202.8465 19.359072)
(191.35071 203.15167 -4.6476515)
(366.3654 209.81589 35.622986)
(407.64795 209.46004 13.669676)
(438.55456 207.14559 -9.6793147)
(662.53788 201.73647 31.426377)
(704.31693 198.42051 9.7441568)
(737.0817 190.88618 -9.5929466)
(1002.1183 174.02345 29.492412)
(1043.0378 165.73662 10.135436)
(1077.7116 157.78094 -6.8999875)
(1375.1011 126.72065 29.771126)
(1415.8948 116.1892 13.595597)
(1451.7007 104.08717 -1.8606396)
(1772.3644 62.245158 32.558974)
(1812.1669 48.165992 18.559946)
(1848.9667 33.105283 7.1395011)
(2183.0823 -18.535883 37.176829)
(2222.518 -35.317573 26.586048)
(2259.5906 -54.13085 17.380564)
(2599.2899 -112.05361 44.761901)
(2638.4629 -131.95045 36.762701)
(2675.7851 -153.85034 30.159291)
(3014.6174 -215.7271 55.133907)
(3054.1755 -238.37854 50.048256)
(3091.4072 -263.02988 45.200341)
(3426.3029 -327.47218 68.089362)
(3466.3579 -352.299 65.142356)
(3503.9292 -378.74266 62.152621)
(3833.9721 -444.7865 81.454796)
(3874.9874 -471.68037 80.413145)
(3912.8149 -498.74624 78.62169)
(4239.7763 -566.93088 93.769281)
(4280.9313 -594.9951 93.375846)
(4320.3042 -622.75983 92.663668)
(4646.2825 -693.93777 103.47818)
(4684.8405 -722.43575 102.96561)
(4725.7169 -750.12647 102.43312)
(5051.2428 -821.83247 110.74409)
(5093.7107 -850.62991 110.7588)
(5132.465 -879.66107 110.69582)
(5459.3575 -951.16608 119.43923)
(5499.4437 -980.68085 118.51737)
(5538.994 -1010.9001 117.71993)
(5870.9725 -1080.9673 128.37457)
(5910.4539 -1111.7261 127.73755)
(5950.0208 -1142.2129 127.32303)
(-72.444431 1.3133798 6.6896857)
(-65.612647 2.8471357 5.0003593)
(-58.989892 4.1571735 -2.091013)
(-157.93403 13.224941 11.472547)
(-144.50345 15.60493 8.4269883)
(-135.30231 16.261971 5.4107339)
(-233.46446 25.996622 16.984638)
(-213.60861 30.154569 15.949855)
(-196.95236 30.461608 12.918112)
(-278.33747 35.661637 14.879545)
(-249.20446 40.347486 13.388818)
(-231.24269 41.329216 13.781147)
(-271.59532 42.464809 10.799035)
(-237.87235 47.810545 12.508071)
(-217.72073 52.135173 12.26845)
(-210.64678 38.944503 1.4708928)
(-172.00147 44.365107 2.6531645)
(-148.20938 47.43324 6.1095264)
(-88.176915 27.924153 -10.519934)
(-47.054308 30.589978 -6.2198581)
(-21.545726 33.185557 -3.1789584)
(91.096535 1.6199735 -20.216864)
(134.02781 2.64018 -16.107746)
(161.46269 5.5604753 -13.954026)
(320.60389 -33.414809 -28.12245)
(366.03545 -36.368412 -25.009025)
(395.01046 -37.806389 -22.908722)
(596.6683 -83.057759 -32.381457)
(641.55425 -91.141768 -28.246608)
(671.60622 -93.535778 -28.257125)
(907.76966 -145.66461 -32.63482)
(953.19226 -156.61768 -28.140775)
(983.51881 -163.09005 -31.948758)
(1249.1042 -219.2345 -29.447432)
(1294.2084 -233.91583 -26.044187)
(1325.5617 -242.47615 -31.362592)
(1613.435 -303.54929 -24.287076)
(1658.1929 -321.22062 -21.391813)
(1689.8193 -332.68733 -28.357718)
(1994.886 -397.23379 -17.17676)
(2039.1045 -417.8101 -15.022908)
(2071.582 -431.88547 -23.040181)
(2388.8508 -498.91128 -7.8084844)
(2432.6209 -522.0067 -6.3830647)
(2465.9582 -539.24319 -14.801872)
(2791.6992 -608.05557 3.8842735)
(2834.9565 -633.54665 5.1890837)
(2869.2272 -653.44321 -3.1714652)
(3202.3829 -724.27792 17.930367)
(3245.258 -751.32934 18.987331)
(3280.474 -773.77744 11.665938)
(3620.926 -847.35145 32.175047)
(3663.2573 -876.22665 33.543044)
(3700.2642 -899.53689 27.6582)
(4049.3149 -978.38424 45.220821)
(4092.0091 -1007.0003 46.033056)
(4130.3412 -1031.6748 42.186143)
(4487.4918 -1113.8553 55.200356)
(4528.877 -1144.6153 55.564692)
(4569.344 -1169.2467 53.077185)
(4926.2834 -1253.6719 62.832973)
(4988.1434 -1288.754 62.357227)
(5017.4783 -1312.1683 62.009543)
(5384.1793 -1398.2629 71.723745)
(5426.2265 -1428.5691 70.485594)
(5468.0994 -1457.1684 69.539549)
(5840.1651 -1540.86 82.001985)
(5881.331 -1572.5374 81.202407)
(5923.461 -1602.3219 80.386128)
(-72.920706 -4.0699307 1.4248158)
(-64.196182 -2.7436957 -1.5999548)
(-57.816194 -2.2914667 -5.0822414)
(-163.58485 1.8054958 1.165873)
(-148.72717 6.8423144 0.75879744)
(-140.31818 3.4141605 -0.25116132)
(-243.13625 -2.2783073 -9.4290066)
(-221.53485 -2.8909247 1.3906394)
(-208.20935 -1.6202176 9.1867855)
(-280.42265 -21.418574 -20.362324)
(-251.92996 -13.961601 -4.51117)
(-237.99241 -14.359932 9.6526656)
(-272.78244 -50.493477 -31.446097)
(-237.42085 -49.203719 -11.233777)
(-220.10719 -43.864303 10.16012)
(-207.09542 -93.826575 -46.091802)
(-167.16894 -92.148263 -22.074275)
(-148.33514 -87.067451 -1.3896997)
(-87.675804 -149.61229 -56.986982)
(-44.774317 -148.27906 -32.871808)
(-20.996542 -141.16017 -12.980215)
(82.458411 -211.3161 -66.830266)
(126.95976 -213.79193 -46.676536)
(154.49235 -209.10338 -27.025186)
(296.68532 -283.41521 -73.833539)
(340.96735 -288.2418 -54.260381)
(372.92073 -283.65358 -38.285873)
(548.29948 -362.48647 -75.558411)
(592.14477 -369.64312 -60.048448)
(627.03186 -368.21462 -47.861557)
(831.3535 -447.53097 -74.470496)
(873.67884 -458.10981 -62.621935)
(911.97042 -458.94418 -53.084431)
(1142.6448 -540.39503 -71.097391)
(1183.4102 -552.64845 -62.273568)
(1223.7346 -556.32621 -55.775956)
(1478.1751 -639.58029 -66.649707)
(1517.6769 -653.76835 -60.585915)
(1559.9087 -660.96984 -56.245251)
(1836.2336 -746.12511 -61.313706)
(1875.1897 -761.74375 -57.392307)
(1918.8119 -772.68534 -54.322834)
(2214.5291 -859.99326 -54.594006)
(2253.361 -877.49424 -51.962454)
(2298.0206 -892.46722 -49.663241)
(2611.5015 -982.16465 -45.793465)
(2650.6175 -1001.6163 -43.401587)
(2695.6663 -1020.4104 -41.305476)
(3026.2209 -1113.3466 -34.282505)
(3065.7143 -1134.7691 -31.957204)
(3110.504 -1156.6466 -29.268219)
(3458.9132 -1253.3274 -21.778962)
(3498.9768 -1276.8249 -18.597743)
(3543.3138 -1300.682 -15.51298)
(3908.9903 -1401.8974 -9.3158864)
(3949.9969 -1426.9596 -6.1632578)
(3993.6361 -1452.0498 -2.9266025)
(4375.6853 -1556.7244 1.6291843)
(4417.5726 -1583.3364 3.4072954)
(4461.2388 -1609.28 6.7443916)
(4854.3233 -1713.5394 9.8935419)
(4897.1732 -1741.8573 11.752368)
(4941.2607 -1769.1962 13.616598)
(5338.4255 -1870.5809 20.45089)
(5381.894 -1901.5998 20.389528)
(5426.2742 -1930.6646 21.126475)
(5820.2887 -2024.4581 32.427883)
(5863.12 -2056.6003 31.544376)
(5907.6103 -2088.1638 30.637624)
)
;

boundaryField
{
    free
    {
        type            zeroGradient;
    }
    fixed
    {
        type            fixedValue;
        value           nonuniform List<vector> 
25
(
(-2.5953868e-15 -2.1703571e-16 4.2716933e-18)
(-1.3028228e-15 -3.4252847e-16 3.3068324e-16)
(-1.9658614e-16 -3.2115893e-17 -1.1045223e-16)
(-3.6361799e-15 2.112754e-16 -3.2990721e-16)
(-3.8783653e-15 3.5858996e-16 7.5215743e-16)
(-2.0449562e-15 -3.5718549e-16 -7.3673077e-16)
(-9.8459492e-16 7.8127033e-16 2.7525688e-16)
(-1.4121951e-15 -1.0527101e-15 6.223458e-16)
(-4.8813632e-16 1.9183015e-16 -1.0607077e-16)
(6.5239771e-16 2.739523e-16 -5.5565719e-16)
(-3.9146975e-16 7.8165185e-18 1.2560621e-16)
(1.4766345e-16 -3.4299605e-16 -2.8648028e-16)
(1.6350797e-16 -2.4226884e-16 -1.2066667e-17)
(-1.0304172e-15 -9.2669207e-16 -7.5672327e-16)
(-2.6214496e-15 -5.6404768e-16 7.244144e-16)
(-6.4481012e-16 3.525084e-16 2.7116342e-16)
(-1.0135278e-15 7.0169807e-16 1.7538027e-16)
(-3.5205005e-15 9.4737515e-16 -2.5196009e-17)
(-3.8147498e-15 1.043275e-15 1.2924308e-16)
(-2.4010456e-15 1.4295629e-15 -1.6975308e-16)
(-1.2019486e-15 6.189313e-16 -3.4292956e-16)
(2.8178306e-17 1.9013092e-16 6.1994168e-17)
(-1.2511779e-16 -6.848356e-17 2.1836215e-16)
(-3.8898857e-17 4.7141393e-16 -3.1043199e-16)
(-3.7042918e-15 1.4868296e-15 -1.3023874e-15)
)
;
    }
    freeTop
    {
        type            zeroGradient;
    }
}


// ************************************************************************* //
