/*--------------------------------*- C++ -*----------------------------------*\
  =========                 |
  \\      /  F ield         | OpenFOAM: The Open Source CFD Toolbox
   \\    /   O peration     | Website:  https://openfoam.org
    \\  /    A nd           | Version:  6
     \\/     M anipulation  |
\*---------------------------------------------------------------------------*/
FoamFile
{
    version     2.0;
    format      ascii;
    class       pointVectorField;
    location    "1.1";
    object      lm;
}
// * * * * * * * * * * * * * * * * * * * * * * * * * * * * * * * * * * * * * //

dimensions      [1 -2 -1 0 0 0 0];

internalField   nonuniform List<vector> 
625
(
(0 0 0)
(0 0 0)
(-3023.9859 1122.0631 90.382584)
(-2758.8682 1588.7441 326.98533)
(0 0 0)
(0 0 0)
(-2979.109 1661.2584 325.73837)
(-3240.7526 1193.4902 89.003751)
(0 0 0)
(0 0 0)
(0 0 0)
(-2947.0569 1231.092 147.64134)
(-2843.6115 1329.6324 203.2904)
(-2787.2727 1451.1762 263.73699)
(-31.733486 -68.932248 -57.730219)
(-84.765464 -128.40343 -71.67573)
(-167.26697 -172.44841 -78.811463)
(-276.1723 -198.68539 -86.106664)
(-397.35491 -208.03936 -92.915387)
(-537.00343 -199.25808 -97.59279)
(-685.54268 -176.09714 -101.83203)
(-845.69232 -138.39148 -103.1766)
(-1015.4731 -88.001387 -103.23025)
(-1193.6892 -25.078517 -100.10213)
(-1378.9281 48.876023 -94.357768)
(-1567.1327 132.64712 -86.005516)
(-1754.6566 223.93743 -74.849821)
(-1936.6434 320.34163 -61.594712)
(-2108.8406 418.88554 -46.661452)
(-2266.9079 516.59197 -30.807805)
(-2408.9456 610.85445 -14.391127)
(-2533.0921 700.48844 1.3934852)
(-2638.5855 782.45592 17.517825)
(-2731.7403 859.01576 32.071194)
(-2810.9783 929.74637 46.901545)
(-2877.3632 993.10158 60.955858)
(-2946.3256 1056.0126 75.179523)
(18.381843 41.833863 68.665637)
(-26.772302 75.781739 54.165694)
(-94.671861 131.22673 53.382765)
(-174.94269 173.73273 44.755178)
(-267.63316 220.53432 38.576149)
(-378.24528 277.27522 35.296526)
(-492.38364 333.19141 35.67718)
(-622.35612 396.53148 37.348972)
(-758.97333 466.32218 43.512132)
(-906.09034 540.37495 52.11992)
(-1059.7321 619.57092 64.820174)
(-1220.2142 702.78628 80.22459)
(-1384.6884 788.61755 99.074133)
(-1551.1841 876.15827 120.26007)
(-1717.3764 964.15239 143.61049)
(-1879.9558 1051.0798 168.13757)
(-2035.9444 1135.727 193.24187)
(-2181.8606 1216.4356 218.00989)
(-2314.4409 1292.3151 241.49794)
(-2431.5602 1361.8025 263.40163)
(-2531.6427 1425.0482 282.55147)
(-2614.7699 1481.2991 299.2488)
(-2686.4672 1533.9256 313.83963)
(0 0 0)
(0 0 0)
(0 0 0)
(-14.174873 35.128725 -47.806561)
(-60.895593 123.7878 -47.914479)
(-140.61357 151.85682 -30.172929)
(-230.05094 199.15102 -13.500621)
(-336.77011 265.97242 -9.2699178)
(-451.91598 305.25033 3.374324)
(-582.39987 367.44264 14.438929)
(-718.45318 428.20809 25.726964)
(-869.31986 495.95875 39.748557)
(-1028.2909 569.57186 55.265654)
(-1197.2111 648.00496 73.672717)
(-1371.7133 731.98341 94.34907)
(-1551.1037 820.21732 116.48599)
(-1731.7054 911.02129 140.54304)
(-1910.8722 1003.6642 165.15956)
(-2085.0855 1096.2361 189.8662)
(-2250.7611 1186.8843 213.96325)
(-2404.5119 1274.1467 236.59952)
(-2543.1327 1355.9487 257.31171)
(-2664.0556 1431.1474 275.46632)
(-2766.3848 1498.6391 291.27881)
(-2849.9071 1558.4227 304.33399)
(-2910.6869 1606.7791 314.97114)
(-3016.9139 1529.2908 263.41026)
(-3064.991 1402.7503 203.28527)
(-3164.4121 1303.6679 147.18502)
(-3154.8827 1124.62 73.202847)
(-3109.6302 1068.0256 58.137621)
(-3042.644 1001.6475 42.072267)
(-2963.2507 927.57104 25.47847)
(-2867.8272 845.86386 8.4163463)
(-2754.2175 756.66554 -8.632744)
(-2621.2906 660.85513 -25.290681)
(-2469.1314 560.45324 -41.022779)
(-2299.4107 457.71066 -55.065511)
(-2115.2046 355.64499 -66.851322)
(-1920.5323 257.05285 -75.912494)
(-1720.4098 164.73295 -81.573481)
(-1519.0891 81.065973 -84.134731)
(-1321.5116 7.0439045 -82.898752)
(-1132.4106 -55.534166 -78.727446)
(-949.97731 -104.47633 -72.184786)
(-774.26789 -143.37253 -60.820312)
(-611.5122 -168.37229 -47.77756)
(-464.03073 -174.98642 -33.446093)
(-324.80964 -171.54553 -15.995606)
(-203.91327 -150.59041 5.2782971)
(-106.18801 -110.79907 21.468246)
(-48.203747 -57.102889 30.05479)
(0 0 0)
(0 0 0)
(0 0 0)
(0 0 0)
(0 0 0)
(0 0 0)
(-2814.1749 1605.967 326.43249)
(-2869.2718 1623.8215 326.07187)
(-2924.2413 1641.7023 326.06353)
(-3077.6736 1140.4405 90.683686)
(-3132.2856 1157.6512 90.634434)
(-3186.8765 1175.3777 89.376224)
(-2.1121127 -42.810338 -48.582252)
(-58.58267 -84.956886 -47.022062)
(-146.78824 -114.37637 -53.52462)
(-260.64963 -129.85779 -61.879965)
(-394.022 -127.10361 -67.715068)
(-543.38833 -107.14564 -72.765056)
(-699.20825 -71.26033 -74.277965)
(-859.27479 -21.23929 -74.52591)
(-1018.9985 41.007157 -70.392457)
(-1175.3361 112.53977 -63.711876)
(-1326.6853 190.55994 -53.944045)
(-1471.2364 272.42757 -41.845562)
(-1609.0562 356.28509 -27.586418)
(-1740.1362 440.10369 -12.097946)
(-1865.2492 522.98106 4.3844368)
(-1985.5249 603.93029 21.222525)
(-2102.5773 683.35793 37.926229)
(-2217.7729 761.00526 54.429007)
(-2331.9447 837.09616 70.613965)
(-2449.329 914.21051 85.748132)
(-2569.4816 991.30089 101.60992)
(-2690.8456 1069.0017 116.43274)
(-2817.166 1148.8937 131.95252)
(10.755719 -13.599662 -8.2866757)
(-43.444491 -21.202058 -8.69364)
(-130.58073 -25.812669 -17.110886)
(-243.71691 -17.06867 -27.107898)
(-377.01227 7.6649451 -31.47827)
(-524.29179 42.777825 -36.695829)
(-676.15534 89.868955 -38.972744)
(-830.658 145.71717 -37.034727)
(-980.59078 208.53636 -32.896638)
(-1124.554 275.35974 -25.097219)
(-1259.3247 344.75248 -14.959153)
(-1384.6993 414.57242 -2.2794122)
(-1500.7587 483.70634 11.896254)
(-1609.1783 551.64273 27.229877)
(-1712.3819 618.35333 43.329174)
(-1813.6456 684.71205 59.642597)
(-1916.5108 751.78014 76.280609)
(-2024.4476 821.08368 93.042001)
(-2141.0318 894.26083 110.19825)
(-2267.4832 972.61452 127.64804)
(-2406.7708 1057.3267 146.37352)
(-2556.9447 1148.3025 165.23326)
(-2707.4689 1241.858 185.21997)
(25.019242 13.669875 14.95399)
(-28.274816 22.042775 19.010467)
(-104.90534 42.581547 14.234539)
(-205.90959 75.822325 10.753269)
(-321.65421 119.25597 7.6830367)
(-449.89209 166.35237 3.3091693)
(-585.69802 223.18381 4.2641846)
(-727.75422 283.99247 5.784323)
(-873.65827 349.07759 10.82172)
(-1020.6448 417.98958 18.193107)
(-1168.0456 489.09907 28.395546)
(-1313.7731 561.60223 40.912674)
(-1457.1938 635.13328 55.398875)
(-1597.1238 708.71016 71.799477)
(-1733.1405 782.26233 89.35835)
(-1864.7573 855.42249 108.03474)
(-1991.7428 928.18476 127.25062)
(-2114.4374 1000.8394 146.89929)
(-2232.8927 1073.2908 166.71766)
(-2348 1146.6517 186.31134)
(-2460.5355 1220.6334 206.18675)
(-2571.0305 1296.1291 225.39436)
(-2681.3911 1373.9034 244.9046)
(0 0 0)
(0 0 0)
(0 0 0)
(0 0 0)
(0 0 0)
(0 0 0)
(0 0 0)
(0 0 0)
(0 0 0)
(-16.059738 18.283979 33.020285)
(-27.658859 27.632058 11.237181)
(-28.678757 23.133405 -12.902338)
(-66.987171 101.75052 33.915802)
(-73.766243 109.85269 10.880694)
(-76.671173 112.26435 -21.8409)
(-122.6716 142.5031 33.181564)
(-138.29493 148.6103 12.838173)
(-147.6424 166.56103 -12.222094)
(-199.91631 187.24661 27.935401)
(-220.9915 200.32741 12.770764)
(-226.60833 204.78705 -2.1558236)
(-296.23614 241.57085 27.411164)
(-313.59253 252.9705 17.569646)
(-326.78321 264.75548 2.7370818)
(-400.2634 291.74904 27.258892)
(-422.63912 301.79906 17.356877)
(-439.04752 311.60799 8.8129105)
(-518.53125 346.81954 28.535836)
(-542.06673 360.74291 25.000435)
(-560.84457 371.75669 18.139419)
(-647.11826 410.32242 34.516962)
(-674.36904 420.54155 29.942219)
(-695.55222 431.30161 27.182012)
(-786.52989 476.75873 41.489092)
(-815.16694 488.08297 40.329722)
(-840.63556 498.10155 39.178172)
(-935.00429 549.6455 52.58176)
(-966.70759 560.56902 52.980829)
(-996.00145 571.80249 53.649424)
(-1091.9978 627.52393 66.73942)
(-1127.0033 638.68832 68.310151)
(-1160.0448 649.66344 70.656272)
(-1255.3627 709.5957 83.745817)
(-1293.3552 720.54675 86.845861)
(-1330.5561 732.39917 90.514893)
(-1423.3094 795.01261 103.7664)
(-1464.7795 806.6699 107.66906)
(-1505.7526 819.23667 112.23853)
(-1593.3956 882.54721 125.96452)
(-1637.9355 894.70666 130.68416)
(-1682.7176 908.32694 135.91641)
(-1762.94 971.07622 149.84391)
(-1810.4297 984.2002 154.90856)
(-1858.5077 998.64223 160.50474)
(-1928.6862 1059.0696 174.61969)
(-1978.8457 1073.0785 179.90788)
(-2029.9237 1088.7824 185.39596)
(-2087.5068 1145.0083 199.56612)
(-2139.9068 1160.1951 204.52059)
(-2193.2857 1176.8208 209.81472)
(-2235.717 1227.5107 223.68317)
(-2289.9463 1243.7294 228.28404)
(-2345.1133 1261.3081 232.9558)
(-2370.3883 1305.1266 246.49224)
(-2425.9205 1322.3874 250.27788)
(-2482.2526 1340.5405 254.23935)
(-2488.9895 1376.6416 267.19382)
(-2545.2966 1394.5007 269.95487)
(-2602.1634 1413.2091 273.0635)
(-2590.1007 1441.3361 285.22745)
(-2646.5868 1459.8433 287.20849)
(-2703.5861 1478.6088 289.5228)
(-2673.81 1499.1562 300.77225)
(-2730.1438 1517.9937 301.95708)
(-2786.8161 1536.7489 303.1894)
(-2742.6185 1551.1093 314.0762)
(-2798.4156 1569.4744 314.36545)
(-2854.4172 1587.8146 314.68089)
(-3001.3566 1249.7576 148.10698)
(-3055.5544 1267.3051 148.11809)
(-3110.3449 1285.5066 147.35013)
(-2895.2024 1346.5123 203.23942)
(-2951.3142 1364.7014 203.47174)
(-3004.6811 1381.896 203.14301)
(-2846.2761 1471.0936 263.67453)
(-2900.3029 1488.4569 263.37819)
(-2954.5714 1506.3949 263.0661)
(-56.19931 -53.696942 -31.160728)
(-56.646324 -57.420352 -14.679536)
(-59.824259 -61.676224 4.8730699)
(-105.06855 -114.16018 -47.475481)
(-116.05814 -116.00864 -20.543354)
(-121.64093 -114.55872 0.27806361)
(-194.92281 -157.29949 -55.748699)
(-204.74259 -154.59821 -37.123756)
(-212.01816 -156.47126 -14.633888)
(-298.17234 -182.08856 -65.963231)
(-313.70641 -179.42775 -47.776962)
(-324.55759 -179.89435 -31.363356)
(-423.4362 -191.81322 -75.666641)
(-443.53147 -186.60252 -61.114862)
(-458.08621 -184.38717 -47.643503)
(-562.90208 -181.80641 -83.266536)
(-583.45579 -176.63657 -71.275896)
(-602.68862 -175.1322 -59.615679)
(-712.4347 -159.2995 -89.185822)
(-736.98558 -153.53895 -79.764974)
(-759.43624 -150.64011 -70.441885)
(-873.86067 -122.74963 -93.369499)
(-901.52115 -116.38033 -85.687639)
(-927.22905 -113.9438 -79.070985)
(-1044.4039 -73.398776 -94.821107)
(-1076.971 -66.653208 -89.958325)
(-1105.6384 -62.859247 -84.659033)
(-1224.8554 -11.486232 -94.158042)
(-1260.3728 -4.9045892 -90.38376)
(-1293.1351 -0.88893175 -86.954614)
(-1412.0319 61.146024 -90.036303)
(-1449.6436 67.811812 -88.130333)
(-1486.9258 72.19229 -86.414609)
(-1602.6209 143.70064 -83.261647)
(-1643.4868 150.77375 -82.770897)
(-1683.971 155.9014 -82.442397)
(-1792.3178 234.23606 -73.573947)
(-1836.4176 241.81766 -74.41418)
(-1879.9968 247.44056 -75.204145)
(-1976.9758 330.40607 -61.473601)
(-2024.0562 338.51679 -63.194911)
(-2070.4991 345.02796 -64.983473)
(-2151.8555 429.1961 -47.333783)
(-2201.4175 438.17038 -49.677016)
(-2250.6559 445.80895 -52.275068)
(-2312.8986 527.90341 -31.87367)
(-2364.7649 537.92583 -34.659559)
(-2416.5419 546.79633 -37.661899)
(-2457.8938 623.81442 -15.835866)
(-2511.2417 634.9527 -18.446718)
(-2565.2703 645.47946 -21.716104)
(-2584.6812 714.93425 0.50092358)
(-2639.3572 727.24313 -2.0719848)
(-2695.3635 739.22429 -5.2339658)
(-2694.0642 799.23556 16.379232)
(-2750.5702 813.34004 14.238168)
(-2806.8695 826.96983 11.389503)
(-2787.4968 877.25103 31.54755)
(-2843.2432 892.17364 30.16149)
(-2901.0169 907.14863 27.767182)
(-2866.689 948.65726 46.638111)
(-2921.563 964.22977 45.479097)
(-2979.9066 980.42548 43.712025)
(-2934.7149 1012.7815 61.160646)
(-2990.1444 1029.1446 60.220352)
(-3047.128 1046.2495 58.865566)
(-2995.0386 1073.2981 74.863976)
(-3049.6152 1090.2036 74.178895)
(-3104.5769 1107.568 73.785154)
(-11.96756 -15.113375 20.120678)
(-88.875131 -60.448403 6.3761348)
(-176.71503 -75.257723 -8.3092442)
(-301.72223 -85.169803 -17.541215)
(-440.43143 -78.597468 -32.846862)
(-592.23058 -59.446987 -41.223679)
(-755.94189 -25.099104 -49.520447)
(-925.35094 21.331844 -54.095252)
(-1099.5139 79.717113 -54.742348)
(-1275.6495 148.63065 -53.310153)
(-1451.6311 225.9805 -46.743796)
(-1625.5742 310.5684 -38.005443)
(-1795.7246 399.95894 -25.982141)
(-1960.3756 492.55679 -11.713012)
(-2118.119 586.44807 4.1016702)
(-2267.9495 679.80145 21.033345)
(-2408.898 771.15717 38.364479)
(-2540.5538 859.33404 55.605029)
(-2662.9938 943.43799 72.427142)
(-2776.228 1023.0751 88.624504)
(-2881.7785 1098.2589 103.98422)
(-2980.1502 1169.3035 118.81037)
(-3063.1328 1233.3472 132.57079)
(1.5701565 -7.4801045 -8.8957341)
(-73.842242 -14.50716 -6.9338779)
(-173.03391 0.27317243 -12.20764)
(-307.86965 13.277093 -18.24139)
(-453.02804 44.323893 -20.987839)
(-616.85551 80.450052 -23.158814)
(-785.84599 130.57432 -25.476795)
(-955.9427 185.70639 -22.60581)
(-1122.0715 249.1053 -19.607779)
(-1279.456 315.09284 -11.776179)
(-1425.7862 384.27273 -2.7631709)
(-1559.2099 454.18386 8.5543055)
(-1681.0069 523.11215 21.711384)
(-1792.5651 591.91533 35.692279)
(-1897.6045 659.87313 50.447335)
(-1999.9597 728.10396 65.706161)
(-2103.79 797.78829 81.193131)
(-2212.9779 870.09915 96.983224)
(-2330.4612 946.385 113.18574)
(-2458.189 1027.4057 129.79175)
(-2597.2699 1114.324 147.31203)
(-2746.5221 1206.1631 165.10891)
(-2918.909 1310.3614 185.15241)
(14.312733 13.080453 -18.046966)
(-66.437432 18.252157 -17.830042)
(-153.27133 69.449038 -29.434389)
(-266.50132 91.156195 -18.376621)
(-395.64319 142.4261 -17.810483)
(-533.60208 192.84642 -15.422568)
(-683.83448 246.9341 -7.1374643)
(-838.50763 310.20291 -1.2746285)
(-997.08388 373.13922 8.5562834)
(-1157.6204 442.0371 19.818835)
(-1317.695 513.48518 32.790456)
(-1475.8107 587.18143 48.010235)
(-1630.4792 662.73378 64.402151)
(-1780.5002 739.99982 81.889591)
(-1925.0909 817.54495 100.21592)
(-2063.8278 895.75175 118.84692)
(-2196.525 973.95243 137.62179)
(-2323.5377 1052.0627 156.23316)
(-2445.2422 1130.0981 174.65571)
(-2562.6017 1208.2162 192.77969)
(-2676.4437 1286.3372 210.36884)
(-2788.0709 1365.3197 228.17302)
(-2898.4728 1444.8129 245.27747)
(-18.308201 -17.873797 -22.869906)
(-20.544607 -20.375159 -12.970764)
(-26.666923 -17.596152 5.2652402)
(-84.42727 -71.150724 -28.676788)
(-95.911073 -70.187112 -15.513547)
(-96.955633 -66.394465 -1.462474)
(-170.03313 -94.952746 -35.368113)
(-182.1435 -90.03952 -26.84026)
(-188.18734 -84.796896 -17.018402)
(-280.79615 -108.10879 -46.76309)
(-298.4029 -104.27769 -38.73721)
(-307.10302 -96.393836 -28.039805)
(-412.093 -104.64451 -53.765124)
(-431.51147 -97.960292 -47.796227)
(-446.42269 -90.02936 -39.612506)
(-556.08822 -84.753129 -60.979549)
(-579.82057 -78.410014 -55.609356)
(-595.89194 -70.046878 -49.407474)
(-710.30518 -51.296219 -64.906853)
(-736.47478 -44.483509 -62.026457)
(-757.8245 -35.609285 -56.23227)
(-869.53585 -3.5787883 -67.040754)
(-898.68314 3.9763368 -64.222333)
(-923.72613 12.471667 -59.564098)
(-1031.022 55.961357 -65.013228)
(-1063.8474 62.940733 -63.243033)
(-1092.2442 71.685041 -60.119463)
(-1192.7328 125.1071 -60.274146)
(-1228.0518 132.34921 -59.429266)
(-1259.7473 140.86332 -56.412615)
(-1351.804 201.68767 -52.046346)
(-1389.7346 208.97043 -51.624342)
(-1424.9987 217.47895 -49.511524)
(-1507.1564 283.95206 -41.272764)
(-1547.7891 291.15747 -41.142582)
(-1585.5897 300.27375 -39.553762)
(-1657.5883 369.30717 -27.805898)
(-1700.3271 376.95809 -27.955844)
(-1740.7385 386.40964 -26.916473)
(-1802.343 456.3916 -12.589287)
(-1847.1825 464.37748 -12.921542)
(-1889.8659 474.56473 -12.228766)
(-1941.1398 543.34954 3.9643443)
(-1987.7513 552.09192 3.4511248)
(-2032.517 563.21538 3.7726009)
(-2073.9689 629.26018 21.208894)
(-2122.2496 638.96043 20.529994)
(-2168.9523 651.1262 20.587387)
(-2201.0755 713.29278 38.534725)
(-2250.97 724.05506 37.784223)
(-2299.4477 737.44817 37.660921)
(-2323.1996 794.91577 55.675064)
(-2374.3275 807.04155 54.832469)
(-2424.4896 821.55965 54.534605)
(-2439.8451 873.7094 72.224778)
(-2494.7565 888.02918 71.401632)
(-2545.0529 903.44142 71.092908)
(-2568.344 956.33496 88.411979)
(-2597.5385 962.22277 86.983391)
(-2662.0436 982.84276 87.05767)
(-2681.7768 1032.2086 104.01096)
(-2709.3101 1037.6327 102.53632)
(-2775.617 1060.0775 102.4276)
(-2779.7274 1101.6637 117.98293)
(-2832.3591 1117.2805 117.57799)
(-2886.671 1135.5922 117.5844)
(-2889.2643 1175.0496 132.79602)
(-2944.3021 1192.3826 132.69486)
(-2998.3315 1210.5579 132.47751)
(-1.999101 -6.7286675 -2.4230403)
(-9.8055459 -7.209491 0.23604259)
(-15.160923 -5.3686549 -5.0704883)
(-67.918761 -14.992052 -3.7174698)
(-80.788429 -14.280383 -4.3811689)
(-79.685723 -6.6989381 -5.2441211)
(-157.21238 -12.645428 -13.170777)
(-171.32477 -5.6481679 -15.951308)
(-177.88724 0.87090938 -12.596925)
(-270.54015 0.2075904 -21.137281)
(-293.5171 7.8467277 -21.758645)
(-300.11057 17.110174 -19.12632)
(-405.52679 24.209561 -27.765071)
(-429.31076 34.982239 -28.895056)
(-441.22892 43.826447 -22.893692)
(-554.02905 60.847128 -32.972742)
(-580.52542 71.344922 -32.469718)
(-597.16054 80.441128 -27.494167)
(-707.9264 106.77122 -35.430469)
(-737.59537 118.06137 -34.676243)
(-758.01237 127.45369 -28.263354)
(-865.05672 162.25841 -34.23494)
(-896.93202 172.86233 -32.383784)
(-921.9712 181.86526 -27.219785)
(-1018.3013 223.73674 -30.153528)
(-1052.6178 234.10202 -28.286176)
(-1081.4419 243.70002 -22.691107)
(-1164.8148 289.86796 -22.518982)
(-1201.1335 299.60851 -20.171232)
(-1233.5184 309.00282 -15.531515)
(-1301.9184 358.19012 -12.49733)
(-1340.2866 367.1375 -10.010649)
(-1375.734 376.76112 -5.5364622)
(-1428.8754 427.0447 0.20713613)
(-1468.62 435.90887 2.7960413)
(-1506.7302 445.81641 6.2804293)
(-1545.7374 495.42273 14.435127)
(-1586.8889 504.00523 16.87498)
(-1626.9822 514.30218 19.988315)
(-1654.4595 562.79267 29.690891)
(-1696.5593 571.44935 32.074841)
(-1738.5561 582.20315 34.584516)
(-1757.5611 629.20016 45.718473)
(-1800.7913 638.15228 47.896225)
(-1843.9607 649.79928 49.878125)
(-1858.5741 695.48196 61.87813)
(-1902.7548 705.14893 63.788004)
(-1947.2713 717.39637 65.487541)
(-1961.2035 762.85329 78.263943)
(-2006.7219 773.24139 79.96195)
(-2052.058 786.41936 81.366092)
(-2069.0573 832.46751 94.731203)
(-2115.7048 844.13178 96.206736)
(-2162.2967 858.05794 97.310709)
(-2185.0633 906.22738 111.56361)
(-2233.4603 918.83037 112.64348)
(-2281.0006 933.73971 113.67469)
(-2309.7856 984.11914 128.35443)
(-2362.8522 999.63625 129.77935)
(-2410.6001 1014.5899 130.36416)
(-2447.7722 1068.8036 146.72063)
(-2504.8969 1086.7793 147.5563)
(-2551.2698 1101.1596 147.88109)
(-2599.1581 1160.5803 165.21258)
(-2651.1947 1176.5063 165.69252)
(-2702.5306 1193.3657 165.81662)
(-2758.796 1258.2885 185.05146)
(-2812.6598 1275.4355 185.26029)
(-2865.8347 1293.0934 184.97482)
(1.5459247 8.7973743 6.8661873)
(1.0875159 10.475886 -1.0594758)
(-1.1893438 7.4573775 -10.248282)
(-61.195746 27.462299 12.715276)
(-72.472663 23.235932 -1.2460961)
(-76.535646 26.570134 -10.190722)
(-133.77018 54.983229 8.6362191)
(-148.96837 70.592118 -1.4276071)
(-159.02501 71.457016 -13.52853)
(-235.24243 94.551455 6.5593281)
(-251.12974 98.877828 -3.2732715)
(-265.0658 102.47812 -11.359768)
(-349.40096 133.47793 3.2162388)
(-369.49612 145.07857 -4.1706088)
(-387.40552 149.58106 -7.837746)
(-477.28116 183.44319 1.5569313)
(-499.09405 194.35572 -2.6321647)
(-520.29346 198.58385 -6.4678909)
(-614.18003 238.32454 2.6803012)
(-638.41317 247.96305 -0.70647232)
(-663.81319 252.88126 -2.2549128)
(-757.50255 296.92679 5.2452478)
(-784.50526 307.08835 4.1320861)
(-813.2714 313.87117 4.304318)
(-904.67886 361.02923 11.230151)
(-935.03508 371.18854 10.875969)
(-966.81805 376.6033 10.977769)
(-1054.0285 428.21925 19.154956)
(-1087.063 437.39833 19.845755)
(-1122.2338 443.64917 21.622796)
(-1203.644 497.82372 29.899053)
(-1239.7157 507.43511 31.370724)
(-1277.957 513.88654 33.394234)
(-1351.8251 569.58882 42.969213)
(-1390.8431 579.07205 44.981243)
(-1431.8293 586.01338 47.477011)
(-1497.6863 642.49855 57.788234)
(-1539.2944 652.31754 60.162976)
(-1583.0149 659.68864 63.0637)
(-1639.9179 716.03539 74.471169)
(-1684.0821 726.45332 77.146271)
(-1730.1627 734.75598 80.086816)
(-1778.1117 789.95936 92.251819)
(-1824.3604 801.02805 94.949821)
(-1872.5289 810.36225 97.957786)
(-1911.6223 863.87702 110.9485)
(-1959.7354 875.91779 113.63023)
(-2009.7109 886.39873 116.52842)
(-2040.3659 937.81318 130.12244)
(-2090.0439 950.71647 132.71713)
(-2141.4383 962.51391 135.36506)
(-2164.4944 1011.6567 149.61647)
(-2215.4196 1025.6088 151.8756)
(-2267.913 1038.816 154.14153)
(-2284.2469 1085.7632 168.99406)
(-2336.259 1100.7071 170.96679)
(-2389.5874 1115.0625 172.94581)
(-2400.4727 1160.4988 188.31615)
(-2453.2461 1176.3094 189.97652)
(-2506.9357 1191.8706 191.32736)
(-2513.6146 1235.7412 207.66318)
(-2567.1019 1252.2451 208.65277)
(-2621.2517 1268.5504 209.43938)
(-2624.9458 1312.4614 226.25268)
(-2678.7209 1329.6797 226.742)
(-2733.3075 1346.9621 227.4015)
(-2735.5975 1390.8745 245.13509)
(-2789.9348 1408.4493 245.2103)
(-2843.9205 1426.0214 245.47008)
)
;

boundaryField
{
    free
    {
        type            zeroGradient;
    }
    fixed
    {
        type            fixedValue;
        value           uniform (0 0 0);
    }
    traction
    {
        type            zeroGradient;
    }
}


// ************************************************************************* //
