/*--------------------------------*- C++ -*----------------------------------*\
  =========                 |
  \\      /  F ield         | OpenFOAM: The Open Source CFD Toolbox
   \\    /   O peration     | Website:  https://openfoam.org
    \\  /    A nd           | Version:  6
     \\/     M anipulation  |
\*---------------------------------------------------------------------------*/
FoamFile
{
    version     2.0;
    format      ascii;
    class       pointScalarField;
    location    "1.65";
    object      p;
}
// * * * * * * * * * * * * * * * * * * * * * * * * * * * * * * * * * * * * * //

dimensions      [1 -1 -2 0 0 0 0];

internalField   nonuniform List<scalar> 
28033
(
161611.23
-197053.19
5204.873
564.97257
279491.78
-287808.44
1341.8506
-1085.1679
120470.75
105149.45
88234.444
71919.396
54268.651
40901.182
24834.474
10242.408
-6784.9661
-18782.556
-39661.805
-50071.898
-69180.991
-93436.445
-86900.311
-15915.045
-9337.0974
-9734.0179
-6299.6585
-5623.6281
-3698.588
-1850.3992
84.039198
1755.4357
3734.821
5837.9226
6940.2821
8639.8803
10003.382
9039.2282
35247.948
38180.074
31278.796
33101.515
29282.837
30107.14
27638.998
26636.752
24830.794
23837.301
21033.771
19848.048
17674.284
16195.573
13647.408
11920.536
10033.448
8150.6092
6040.5294
4332.7805
2407.7613
527.84911
-717.23544
-2545.1272
-3994.1509
-5249.8196
-6510.8567
-7660.3287
-8460.623
-9385.3195
-9838.567
-10323.068
-10487.988
-10687.315
-10246.756
-10124.55
-9189.5899
-8256.1917
-7462.3002
-5916.0406
-4542.6524
-3106.7991
-1311.8126
663.8613
2572.7288
4787.6875
6878.5605
9163.7078
11319.156
13622.752
15723.099
17922.446
19933.78
21915.54
23767.656
25491.381
27107.996
28572.27
29892.472
31098.026
32151.235
33068.563
33845.759
34591.001
35141.699
35615.364
36064.133
36302.664
36354.935
36569.269
36568.513
36671.7
36380.309
36381.882
35787.259
35803.841
34850.897
34782.581
33582.887
33285.897
31958.33
31385.741
29871.838
28722.324
27198.512
25641.498
24125.472
22613.214
19826.599
18539.669
16990.708
12817.46
14198.454
12714.897
10321.1
-37859.65
-27007.811
-30213.774
-23998.255
-26376.301
-23880.101
-23399.026
-20805.119
-20170.85
-17339.208
-16384.308
-13638.216
-12035.786
-9815.6708
-7851.557
-5560.2817
-3776.8825
-1341.7275
315.2333
2287.2791
4121.9565
5752.3763
7402.8676
8644.4463
10325.145
11003.301
12439.404
12794.53
13695.231
13688.524
14323.278
13879.533
13978.721
13392.723
12811.142
12015.207
10977.285
9858.151
8447.6632
7068.6002
5325.2643
3720.6989
1760.7349
-98.71393
-2165.7375
-4203.3504
-6345.577
-8435.2355
-10588.604
-12670.443
-14741.144
-16727.503
-18655.933
-20489.307
-22205.148
-23817.091
-25303.06
-26648.701
-27869.553
-28949.309
-29898.336
-30712.771
-31417.743
-31973.324
-32456.415
-32771.724
-33121.536
-33294.924
-33585.332
-33468.595
-33567.818
-33456.431
-33443.292
-33239.479
-33075.32
-32821.168
-32439.882
-32097.904
-31551.619
-30972.472
-30255.193
-29440.013
-28393.894
-27391.434
-26042.194
-24665.418
-23118.846
-21516.109
-19496.864
-17858.155
-15951.713
-13651.847
-12033.041
-11190.741
-8615.1451
212880.59
196269.43
133981.23
137326.6
93092.951
59472.11
40937.982
6544.7114
-17213.466
-50261.405
-72476.908
-104278.08
-137581.04
-169114.38
-184683.13
-59504.313
-42185.827
-18843.136
-34205.077
-26935.366
-26494.791
-24749.751
-23596.544
-22100.623
-20385.411
-18845.562
-15559.006
-14913.646
-11274.371
-11216.306
-8029.4545
-8231.971
-3254.0275
-3794.6483
674.03427
1189.8539
2841.6988
4762.1678
5970.6377
8606.367
9313.1924
9952.0834
11496.935
11709.516
12733.827
14197.345
13625.621
14676.228
14005.916
14324.462
13109.283
13205.554
11980.68
11082.436
9609.4105
8334.7933
6518.1121
4777.0826
2733.1825
738.48319
-1596.2179
-3731.7692
-6157.5124
-8416.1487
-10819.607
-13080.837
-15391.844
-17537.587
-19685.36
-21656.5
-23526.888
-25295.736
-26882.518
-28348.017
-29675.03
-30840.057
-31878.407
-32773.148
-33538.674
-34177.485
-34720.473
-35174.833
-35738.146
-35155.454
-35872.539
-35949.691
-35910.265
-35801.95
-35683.002
-35394.764
-35119.915
-34675.806
-34243.451
-33618.193
-32933.062
-32063.536
-31175.559
-29970.578
-28837.582
-27382.38
-25929.7
-24166.525
-22517.236
-20488.664
-18609.887
-16598.133
-14536.802
-13367.492
-11629.984
-10857.629
11975.827
11752.035
8357.1956
8885.3318
4858.3024
5086.4549
1454.5244
82.174018
-2317.956
-4578.6348
-4521.7154
-8133.9873
-7896.2324
-13339.928
-11584.947
19531.369
14514.735
14113.385
16144.507
17340.153
19546.718
21367.69
23324.657
24986.213
26745.413
28225.126
29460.2
30782.53
31860.5
32872.319
33601.523
34360.73
34882.895
35350.988
35757.215
36014.355
36299.66
36430.96
36554.931
36571.441
36565.114
35936.644
36975.693
36103.743
36001.949
35640.498
35236.272
34672.708
34043.302
33264.587
32355.933
31337.328
30131.793
28844.635
27369.144
25804.839
24064.796
22288.598
20310.988
18356.834
16225.046
14155.286
11936.552
9826.293
7621.0658
5504.4603
3464.9443
1345.3636
-352.22187
-2154.6905
-4064.4185
-5512.3061
-6243.4631
-8504.5841
-9151.0239
-9264.6737
-10941.926
-10969.187
-11179.137
-10771.089
-11325.235
-10163.476
-10251.702
-9302.506
-8215.9253
-6943.6581
-5803.9153
-4212.4893
-2457.6914
-1029.7318
1186.5585
3002.6911
5101.2833
7400.3169
9986.8903
12196.645
13240.047
15263.478
18372.466
20861.671
22024.267
24656.228
25657.57
27077.385
28125.096
29532.02
32741.764
33364.117
32025.325
46323.887
119206.61
131962.65
138765.85
143621.68
145690.89
149669.94
149057.18
151302.35
149122.81
146656.18
148945.66
139879.66
136347.91
138759.61
113342.6
-173536.26
-222872.47
-220208.31
-236950.07
-230513.7
-219894.65
-252184.81
-269076.97
-254365.37
-255780.34
-248337.59
-242547.25
-229868.51
-227548.87
-205146.76
438.00304
606.02621
1289.0308
1636.4142
2569.2158
3060.2518
3189.0654
3231.9278
3219.6791
2948.8215
2664.7092
1838.7847
1428.3548
932.92752
946.94713
-2320.0307
571.95861
-81.087003
-626.19861
-1389.6627
-1406.1514
-1896.2929
-1802.4041
-1652.9919
-1521.7087
-696.45091
-172.08295
0.39207635
3484.7904
-1796.9471
34707.948
34200.025
28604.535
27736.234
27393.857
26233.153
25045.985
24349.659
22851.765
21106.709
19817.973
18428.328
16584.075
14790.058
13062.238
11737.842
9754.8256
8087.1577
6378.6742
4911.058
3328.0802
2040.1238
430.93723
-977.62691
-2157.1214
-3370.4707
-4489.725
-5353.5578
-6247.9996
-6993.6
-7395.5145
-7889.3086
-8137.0456
-8151.7815
-8117.9112
-7609.5707
-7127.8896
-6576.2046
-5497.7518
-4524.1027
-3235.134
-1823.5974
-305.64369
1337.3522
3064.085
4951.1286
6763.6939
8785.7794
10679.849
12669.904
14562.846
16479.454
18269.306
20029.455
21671.027
23223.139
24663.79
25977.512
27185.763
28268.958
29220.109
30049.489
30793.079
31424.431
31846.049
32292.006
32491.603
32755.445
32995.484
32981.458
32893.273
32893.601
32630.408
32558.954
32123.231
31908.904
31258.159
30972.652
30036.39
29627.521
28630.598
27724.019
26760.982
25708.416
24355.768
22997.421
21665.693
19738.9
18285.765
17044.22
14192.095
12958.114
11578.133
6049.9443
1444.3824
31887.553
27646.932
23230.114
24110.045
22462.036
22033.624
21101.698
20252.694
19003.886
18347.839
16763.15
15682.518
14262.759
13100.876
11564.561
10232.582
8721.1328
7539.2806
6055.3221
4763.137
3438.3998
2032.8796
863.79899
-241.61775
-1293.6879
-2416.2697
-3227.5071
-4160.126
-4829.0558
-5503.8953
-5959.2752
-6441.9891
-6548.735
-6673.583
-6545.544
-6415.7719
-6033.886
-5495.4965
-4828.6574
-3995.2839
-3011.0008
-1860.2964
-734.30019
685.43037
2091.2797
3632.7229
5164.9817
6833.6176
8404.5164
10075.162
11653.22
13264.533
14756.757
16252.099
17635.949
18955.82
20179.193
21322.479
22357.425
23308.78
24147.448
24914.68
25601.065
26189.858
26691.828
27463.657
28094.473
28586.782
28874.736
29016.837
29052.616
29241.796
28865.23
29027.828
28278.108
28483.623
27422.913
27596.318
26297.664
26352.864
25024.856
24443.469
23479.776
21896.988
20494.254
19360.025
17571.712
16517.641
14925.092
12895.661
11133.296
9550.2841
6091.2056
2823.2219
-3400.9845
24432.907
23797.267
19493.543
20082.239
18605.167
18781.858
17765.192
17420.208
16560.237
15584.583
14516.822
13726.718
12531.663
11332.998
10260.931
9193.3688
8009.282
6886.0986
5714.9655
4710.7086
3678.6234
2560.5491
1796.3526
674.11639
-181.43711
-1075.0021
-1789.8562
-2657.2098
-3149.4261
-3887.2631
-4230.866
-4649.4188
-4830.0714
-5056.7619
-5041.8717
-4891.8547
-4604.1228
-4305.6424
-3650.2842
-3002.6609
-2281.8515
-1323.9991
-236.4781
883.12338
2106.1513
3365.0981
4682.6813
6034.4632
7398.5039
8765.8701
10121.248
11457.331
12724.949
13988.368
15151.425
16264.368
17303.487
18268.341
19135.13
19939.17
20646.59
21271.336
21825.477
22231.805
22690.96
23075.606
23492.082
23844.436
24149.89
24344.342
24361.016
24309.882
24148.751
23964.743
23786.968
23436.767
23152.599
22606.643
22267.162
21548.13
20943.591
20353.379
19221.696
18452.994
17347.521
16310.921
14878.946
13992.707
12393.989
11052.563
9675.7676
6903.9388
5218.9341
368.74364
-1828.0488
19983.641
19441.63
15066.509
16414.78
14920.918
14955.85
14373.755
14137.278
13195.686
12819.012
12068.219
11422.43
10401.237
9823.6622
8825.5823
8130.3314
7064.426
6451.7321
5437.5542
4750.9893
3685.9397
3036.4588
2155.2434
1316.4798
682.49639
-86.47612
-721.96488
-1338.5375
-1861.7549
-2444.5527
-2715.2852
-3215.5182
-3398.6809
-3626.2965
-3541.8557
-3706.1083
-3350.7521
-3128.7698
-2720.0268
-2363.4446
-1635.9752
-1016.7148
-287.48139
489.82864
1376.8013
2352.8325
3319.5944
4377.9082
5417.7622
6485.8398
7516.0451
8576.4969
9546.9662
10552.993
11442.997
12345.731
13149.883
13932.868
14618.009
15289.126
15863.264
16395.455
16869.539
17307.852
17668.292
18001.51
18355.558
18333.552
18509.918
18672.828
18755.462
18721.954
18697.823
18528.062
18326.08
18058.369
17728.531
17448.277
16940.757
16562.738
15996.113
15534.529
14716.622
14105.091
13227.151
12805.084
11722.26
10733.342
9580.3813
8501.645
6646.1162
5243.3259
2793.7511
145.48067
-3480.2418
16894.248
14860.461
11657.425
12723.411
11497.832
11765.536
11455.48
11050.628
10583.611
10270.43
9652.572
9110.321
8585.9083
7951.7769
7397.6197
6797.5981
6022.6154
5582.4312
4842.7059
4207.591
3711.094
3099.3946
2475.7277
1963.135
1426.2365
777.22559
395.54989
-271.14963
-614.10237
-1133.7213
-1419.6691
-1894.0836
-1983.0324
-2267.4204
-2369.7028
-2482.447
-2209.3703
-2414.8933
-2236.3969
-1554.4281
-1469.8125
-915.24343
-257.70656
369.46127
1129.1368
1892.4533
2648.5978
3489.7392
4340.2479
5154.7841
6012.7264
6856.2746
7649.5769
8458.0782
9201.6097
9928.2558
10608.003
11239.698
11833.254
12368.12
12873.185
13267.595
13744.619
13979.05
14311.345
14577.694
14713.443
14905.137
14997.809
15062.234
15087.882
14933.183
14455.086
14215.038
13784.514
13602.292
13372.554
13045.545
12749.59
12472.773
11914.855
11714.88
10993.375
10797.939
9930.0943
9746.7478
8589.9237
8152.2244
7010.3402
5963.3327
4865.0659
3619.805
2157.9628
-390.63223
-2753.5582
10960.39
11257.513
8399.1859
9441.6149
8379.9911
8661.6613
8206.9442
8248.1234
7863.4536
7755.1345
7347.6748
7205.7236
6665.5686
6561.0583
6036.2803
5771.24
5326.3328
5305.6731
4467.0734
4528.3336
3876.3581
3583.303
3116.7585
2808.2483
2271.9286
1985.7486
1522.9364
1119.0326
824.46474
336.85438
84.972514
-312.39003
-443.30754
-884.30931
-856.76285
-1096.0902
-1090.9898
-1247.4151
-849.6222
-984.49
-597.94684
-440.25227
-90.219699
316.23403
778.73603
1252.7967
1773.8624
2318.4168
2878.5482
3438.8035
4020.9452
4585.4676
5133.075
5677.3647
6202.0756
6683.7285
7163.7728
7602.7348
8008.6273
8389.9238
8738.5197
9058.8473
9325.1784
9592.8301
9821.1599
9976.0612
10183.712
10283.091
10378.772
10395.816
10448.534
10206.426
10092.803
9575.5156
9203.498
9090.4099
8889.0727
8701.248
8422.626
8355.7718
7726.6427
7945.4705
6999.5381
7251.2562
6254.1583
6453.5592
5368.202
5528.1272
4495.9087
4442.4527
3625.6664
2660.9522
1525.3822
-375.09598
-1331.1248
6870.3571
6779.1795
4788.5682
5978.7579
5007.2278
5204.8944
5195.5545
5250.6307
4959.8342
4986.9746
4888.8336
4713.7689
4705.4737
4600.6624
4369.8786
4394.2633
4207.7051
3984.7572
3847.0001
3853.3159
3475.6292
3500.5506
3178.9601
3023.7051
2782.4885
2528.941
2231.4357
1966.8138
1679.8986
1290.8047
1126.7783
731.45595
497.95076
190.33811
73.134
-290.37669
-275.1067
-556.95286
-489.04283
-542.77717
-471.73483
-436.92377
-288.87692
-112.57813
105.73916
358.20067
575.10067
876.96112
1136.6211
1436.0745
1726.5976
2023.0418
2290.556
2603.9939
2846.9142
3123.325
3362.086
3613.9772
3808.1605
4044.3733
4216.2334
4385.2698
4565.0785
4693.7007
4802.0997
4929.2661
4994.8874
5048.7522
5098.084
5132.7299
5099.4406
5075.7453
4981.2452
5074.2553
5058.9076
4988.2457
4836.1969
4688.9915
4571.2385
4375.9842
4200.9411
4137.1953
3674.3098
3925.3791
3214.0409
3590.1188
2838.8394
3149.9109
2407.7651
2304.229
1460.974
967.69105
731.65638
-3.7422384
-404.3068
2105.2328
3116.9497
1548.7582
2721.4622
1937.9921
2564.339
2343.3609
2619.6342
2477.611
2816.9523
2757.1734
3078.2067
3035.5102
3225.2717
3322.0187
3642.3433
3418.9388
3991.2792
3764.0335
4053.1802
3875.5107
4118.6962
3814.9796
4091.9528
3750.143
3802.1365
3590.4177
3467.6945
3199.0468
2980.3503
2780.647
2339.9332
2235.709
1811.7441
1630.2712
1215.613
1135.2623
608.40574
682.29043
332.27563
261.5819
74.99799
-38.13266
-219.5237
-233.542
-336.30577
-383.85761
-383.15149
-392.93831
-396.79862
-375.39102
-348.13885
-329.76586
-282.82702
-255.82181
-207.82562
-167.13946
-108.30085
-75.630421
1.4566323
29.734834
106.72687
150.83402
205.07567
271.63077
320.26119
379.02484
415.73481
467.96223
468.12739
470.9836
449.97491
339.64005
324.26022
250.23673
267.67696
152.44921
173.02354
63.290536
77.824793
54.268381
-80.169878
59.011446
-85.34145
-103.70781
74.626441
-322.31805
303.64777
-382.56396
488.39304
301.76504
986.60628
1067.4515
503.75233
1029.5003
-2197.4173
-1366.6943
-1775.4019
-872.21096
-1187.1949
-838.55269
-908.06189
-405.37334
-463.70632
-79.416479
241.47024
517.96023
731.50515
1270.6583
1615.0254
1778.9856
2283.7304
2639.5563
2695.6375
3301.552
3375.1224
3775.4482
3853.5491
4137.2192
4008.4624
4290.8212
4086.9543
4104.8591
3934.328
3812.7225
3530.1675
3294.0951
3062.3569
2629.2465
2403.3394
1977.4679
1664.7704
1261.5236
976.20149
548.9746
229.98896
-127.12388
-441.66916
-724.6205
-984.25941
-1270.5178
-1537.9801
-1754.617
-2003.6273
-2236.2042
-2435.2856
-2625.7708
-2836.792
-2989.7005
-3161.5759
-3303.8349
-3442.9501
-3538.1655
-3666.3225
-3721.8403
-3799.2802
-3855.5732
-3894.2947
-3912.8859
-3957.386
-3949.4526
-3965.8636
-3964.0284
-3949.6117
-3943.5787
-3925.5247
-3897.1773
-3901.3613
-3877.2212
-3823.7348
-3875.9721
-3792.2122
-3795.295
-3748.031
-3729.1287
-3621.283
-3613.4147
-3399.3131
-3313.8815
-3204.3907
-2654.0298
-2900.5455
-1754.2032
-2262.8322
-978.4251
-1369.7397
-860.75744
-768.9415
390.21841
1998.4069
-7034.0143
-5259.1833
-4990.9135
-4043.7914
-4534.1851
-3821.0775
-3778.7381
-3191.8456
-3048.0079
-2285.6037
-1927.1537
-1374.7532
-730.89592
4.763445
331.83813
1219.3718
1726.9967
2380.8553
2862.0667
3640.5851
3783.247
4507.6356
4625.0073
5227.8675
5284.3199
5685.9525
5564.6367
5824.358
5694.2731
5589.5704
5443.4676
5174.0002
4903.7394
4482.5668
4239.9255
3590.7125
3341.8444
2637.6072
2270.6119
1607.4528
1136.1354
502.80752
14.9259
-642.02844
-1169.1186
-1759.4808
-2311.6961
-2845.979
-3388.7508
-3915.0556
-4393.7505
-4882.7394
-5349.9677
-5765.6066
-6173.4007
-6554.3197
-6890.106
-7193.5724
-7491.5902
-7696.0941
-7933.2864
-8098.2078
-8236.1309
-8362.9943
-8465.6579
-8514.6521
-8563.5815
-8602.2253
-8605.1145
-8636.6369
-8614.6041
-8601.8503
-8607.7704
-8291.0083
-7935.4205
-7753.5557
-7543.935
-7611.7199
-7273.6756
-7501.8039
-6787.4641
-7246.7758
-6303.2896
-6620.9948
-5871.5139
-5549.4491
-5361.7283
-4073.7898
-4480.7856
-2559.7087
-2732.7563
-1638.6178
-414.93378
1051.2267
2886.8428
-11527.939
-8387.9933
-7359.7302
-7095.1009
-6863.1842
-6595.1108
-6206.0827
-5840.2021
-5122.2264
-4708.4363
-3934.3866
-3255.1176
-2313.6928
-1740.0828
-767.40693
102.73235
744.48066
1721.4109
2305.731
3103.2493
3685.4786
4040.044
4452.2244
5279.8904
5395.6214
5962.8721
5978.7837
6385.1274
6184.7795
6346.0279
6114.3632
5919.0288
5606.0717
5250.2644
4794.0117
4276.4081
3754.6235
3079.5645
2494.4302
1755.7815
1068.4906
323.35787
-412.36915
-1216.7389
-1957.6441
-2745.2804
-3539.8528
-4304.0909
-5078.6709
-5827.0097
-6558.7875
-7264.7593
-7956.0151
-8586.6711
-9205.1412
-9775.7517
-10301.248
-10775.533
-11218.921
-11590.315
-11937.676
-12212.78
-12461.312
-12663.845
-12852.734
-12965.773
-13086.539
-13147.984
-13192.544
-13197.952
-13173.523
-13201.142
-13053.959
-12916.18
-12607.188
-12428.277
-12046.203
-11805.991
-11581.788
-11298.531
-11113.261
-10643.765
-10376.735
-9866.2309
-9303.0697
-8883.6825
-7948.8324
-7497.2716
-6376.0831
-5386.6945
-4474.9718
-2676.1726
-1272.9492
764.17774
4633.0846
-14914.067
-13553.083
-11692.573
-10995.172
-10505.723
-10021.254
-9507.0218
-8773.8516
-8137.8587
-7159.0788
-6456.0983
-5216.5123
-4561.2513
-3075.2509
-2332.0626
-982.95552
-136.00526
1173.7785
1842.7492
3203.6882
3807.8252
5030.5899
5581.0331
6481.233
6795.7025
7579.7561
7775.1893
8165.2592
8264.5059
8409.4539
8251.7699
8099.3045
7835.4257
7330.2192
6971.1416
6234.5831
5697.9138
4828.9901
4107.5556
3127.6224
2268.5624
1197.7484
216.42461
-895.39639
-1944.2542
-3052.948
-4163.6871
-5249.522
-6324.6425
-7407.3462
-8431.7776
-9434.4573
-10399.298
-11305.851
-12159.55
-12970.132
-13695.589
-14360.507
-14983.097
-15500.206
-15972.921
-16377.784
-16704.572
-16992.146
-17226.466
-17408.656
-17545.951
-17642.048
-17708.95
-17711.221
-17768.899
-17678.332
-17657.612
-17575.246
-17388.619
-17538.814
-17353.27
-17001.69
-16717.831
-16397.284
-15912.293
-15474.539
-14850.897
-14246.686
-13400.13
-12799.932
-11486.327
-10944.208
-9480.4907
-8215.082
-7281.016
-4423.6614
-2432.078
1867.1173
6258.0954
-22334.857
-19113.858
-15753.587
-15642.672
-14801.971
-14199.407
-13513.077
-12526.035
-11642.965
-10529.647
-9265.0665
-8278.746
-6769.5032
-5524.7512
-4072.6202
-2788.2481
-1286.0573
-50.674917
1246.4526
2508.2952
3461.111
4855.5565
5579.9056
6635.9879
7139.159
8130.0893
8214.6761
8928.8606
8936.1971
9235.3812
9060.7517
9057.3942
8634.7706
8276.9682
7713.3323
7000.1753
6290.5345
5341.1375
4429.9055
3341.4356
2251.6698
1034.2457
-154.90169
-1454.5057
-2742.7702
-4073.2616
-5431.8223
-6744.9153
-8093.7149
-9407.0077
-10684.7
-11919.983
-13130.142
-14253.637
-15333.857
-16340.413
-17261.346
-18117.012
-18894.228
-19565.527
-20189.546
-20703.996
-21153.261
-21520.238
-21823.838
-22083.905
-22258.897
-22406.348
-22498.891
-22526.403
-22496.804
-22469.18
-22348.999
-22220.401
-21983.686
-21812.516
-21489.941
-21211.998
-20758.951
-20312.266
-19759.206
-19123.542
-18400.496
-17579.256
-16708.198
-15627.924
-14526.629
-13435.179
-11644.235
-10718.834
-8296.6671
-6408.7034
-4010.4251
-297.20689
4544.8756
-26677.22
-24004.872
-19289.68
-19482.684
-18666.655
-17844.796
-16777.798
-15771.107
-14472.299
-13075.027
-11849.368
-10078.504
-8731.6891
-6915.7774
-5340.3011
-3495.8805
-1995.6593
-74.339933
1199.1257
2914.2101
4282.0381
5733.764
6621.4258
7897.3038
8594.8099
9598.9895
10215.64
10753.853
11091.508
11321.224
11400.073
11199.437
11059.182
10525.304
9986.9242
9148.0525
8336.8384
7253.7941
6174.8831
4874.853
3569.0696
2088.1672
602.709
-1005.1921
-2618.0672
-4291.88
-5956.7457
-7648.6978
-9314.7996
-10971.476
-12567.387
-14133.924
-15626.475
-17048.481
-18378.232
-19629.697
-20774.108
-21817.642
-22758.937
-23595.237
-24329.193
-24961.615
-25503.541
-25930.939
-26272.604
-26533.69
-26691.437
-26900.283
-27060.914
-27028.492
-27102.875
-27022.989
-26914.721
-26822.094
-26577.104
-26332.354
-26009.431
-25627.403
-25145.929
-24660.208
-23995.773
-23295.518
-22436.53
-21545.16
-20381.171
-19299.985
-17918.735
-16502.819
-14830.221
-13551.153
-10720.524
-9797.9375
-6303.8416
-2395.2579
4163.1027
-38148.515
-24647.014
-24466.544
-23120.315
-22795.478
-20782.701
-20241.435
-18604.584
-17245.109
-15693.919
-13887.016
-12337.741
-10452.928
-8469.5312
-6600.4614
-4581.0261
-2898.7383
-750.5225
677.24858
2985.1405
4273.8342
6101.0547
6977.3524
8617.0923
9043.9287
10764.186
11052.752
12143.493
12238.983
12821.288
12706.944
12669.929
12452.45
11865.941
11296.327
10255.381
9518.4516
8200.9039
6989.7811
5519.4197
3987.7398
2312.125
573.28615
-1235.2738
-3137.7107
-5022.8899
-6994.8838
-8931.0556
-10878.727
-12780.751
-14655.382
-16454.99
-18195.748
-19829.048
-21382.465
-22824.152
-24144.186
-25349.965
-26442.712
-27396.41
-28246.039
-28980.752
-29600.306
-30110.418
-30542.004
-30808.474
-30988.905
-31162.803
-31376.234
-31411.859
-31467.319
-31323.241
-31260.211
-31076.96
-30836.503
-30541.89
-30246.854
-29776.294
-29304.404
-28674.438
-27948.342
-27087.001
-26171.778
-24988.043
-23807.158
-22470.949
-20851.484
-19375.243
-17618.65
-15899.498
-13754.025
-12924.316
-9662.102
-7108.3797
-588.38219
79334.302
80496.405
78618.056
81623.236
82069.984
82753.031
85685.635
83931.194
83229.281
82934.117
82487.238
79040.668
78425.828
79616.547
67523.36
71941.883
76467.962
72220.18
76322.236
75443.946
77713.368
75167.264
77952.471
76966.119
77336.929
75552.112
74465.084
73630.313
72457.916
62037.156
50688.249
58415.128
51891.433
53722.452
54523.072
53684.151
54486.882
53845.472
54316.078
53128.521
53271.795
52619.143
48975.27
53228.002
48063.919
45536.938
46982.52
45983.473
46176.872
47353.372
47012.005
47484.11
47361.454
46880.123
46916.52
46073.615
44371.436
43991.707
45614.694
32143.886
32362.138
35631.209
31602.844
34051.996
32819.078
33905.902
33621.039
33332.095
33529.477
33020.781
32392.236
32342.355
31707.482
32037.071
28614.668
25074.969
27925.807
25163.675
26271.665
26160.262
26121.713
25861.613
25578.38
25485.125
24859.243
24146.316
24303.863
22593.422
23669.589
21765.557
15109.093
15358.482
14857.453
14303.371
14795.538
14810.266
14127.067
14266.981
13783.885
14091.979
13308.329
12914.652
13177.129
13551.378
11574.391
6410.7468
7810.8962
5377.5923
6751.6581
5661.9004
5896.3145
5371.525
5291.1315
4919.1251
4908.1897
3696.4723
4401.4643
5062.9035
2421.0549
6710.8049
-2172.4623
-3020.5303
-2847.99
-3899.5701
-3944.0322
-4085.1754
-4734.7663
-4521.4455
-5382.6902
-4531.911
-6244.2369
-4598.7614
-5003.3575
-6217.3998
482.29404
-10539.84
-11892.675
-12026.881
-12123.892
-12894.5
-13210.813
-13707.182
-14097.933
-14532.509
-13919.721
-16107.441
-13851.677
-13806.272
-16756.722
-7926.1939
-19639.96
-25797.97
-21838.405
-25082.974
-24266.947
-25193.798
-25492.301
-25489.721
-26045.075
-24539.431
-25880.082
-24374.883
-23391.157
-25215.949
-15324.912
-32487.622
-31548.204
-32884.646
-32701.448
-34652.363
-35012.689
-35668.798
-36415.989
-36344.716
-36488.464
-37792.953
-34006.816
-35302.356
-37250.986
-24825.102
-38925.61
-42951.597
-39865.658
-41576.341
-40762.523
-42269.938
-42523.86
-42059.492
-42584.93
-41423.457
-42637.779
-42128.775
-38833.305
-43988.08
-23594.556
-52965.925
-65192.138
-59412.893
-64463.785
-67119.335
-66166.906
-67269.661
-70792.318
-69204.401
-71335.502
-67230.098
-66748.315
-66900.677
-63674.161
-57984.287
-59186.545
-50381.98
-46545.279
-48271.764
-50839.465
-54948.337
-53372.508
-51655.293
-48612.666
-48920.452
-49916.554
-49568.377
-49276.706
-53048.079
-45415.918
-63362.339
-59361.764
-72468.289
-75356.986
-77951.412
-85068.858
-81057.246
-75577.753
-86627.031
-85470.376
-83322.23
-79949.133
-77618.623
-72872.448
-61333.192
-41451.447
-42489.688
-48509.684
-50186.82
-52005.433
-54226.534
-55730.174
-57553.227
-59553.992
-56684.739
-55699.317
-52187.468
-52678.088
-50748.065
-49278.34
-30295.409
-35664.615
-35592.336
-39038.164
-42007.665
-40842.49
-43196.198
-42532.219
-41557.73
-43471.644
-41622.856
-42460.908
-39953.279
-35804.741
-35895.521
-28561.307
-32832.181
-34152.605
-34973.606
-36315.546
-37276.262
-37810.115
-38199.155
-38225.591
-37105.676
-37122.942
-35674.908
-34407.383
-33252.29
-30755.132
-28732.008
-32307.561
-32112.652
-35040.105
-35632.221
-36441.365
-37730.225
-37401.572
-37932.34
-37771.209
-36455.728
-35783.948
-33773.584
-32149.408
-31073.261
-26181.667
-27205.164
-28225.885
-29598.796
-30292.377
-31356.236
-31430.917
-31622.48
-31650.739
-31183.158
-30834.282
-30230.576
-28910.823
-28198.733
-26519.814
-24110.576
-26475.826
-26982.436
-28499.381
-28922.147
-29759.245
-30246.31
-30351.896
-30505.904
-30116.889
-29415.136
-28877.285
-27918.215
-26584.73
-26588.306
-22940.264
-23182.786
-24403.087
-24678.824
-25912.99
-25976.079
-26564.358
-26657.319
-26670.621
-26442.692
-26080.726
-25502.146
-25026.912
-24101.173
-23757.713
-20374.131
-21793.555
-22291.809
-23175.165
-23362.269
-24200.047
-24266.712
-24479.635
-24724.718
-24110.045
-23894
-23676.975
-22893.81
-22586.322
-21849.501
-19016.24
-18990.605
-19667.557
-19697.692
-20405.193
-20496.755
-20958.444
-20992.956
-20659.339
-21141.923
-20899.926
-20682.951
-20358.386
-20070.538
-19915.453
-16478.872
-17125.434
-17482.487
-18035.19
-18385.544
-18785.404
-18916.2
-19186.32
-19263.48
-19162.317
-19156.838
-19027.059
-18754.192
-18633.685
-18506.175
-14886.095
-14624.676
-15023.315
-15212.671
-15580.479
-15586.862
-15984.038
-16124.817
-16274.542
-16318.142
-16381.197
-16354.077
-16324.482
-16149.933
-16258.01
-12576.741
-12614.963
-12975.49
-12995.971
-13295.511
-13638.6
-13800.673
-13976.916
-14064.277
-14196.318
-14210.074
-14407.453
-13999.652
-14337.655
-14209.385
-10458.331
-10090.457
-10715.646
-10558.07
-10763.104
-10889.365
-11261.427
-11027.543
-11432.958
-11452.056
-11690.451
-11672.196
-11912.295
-12059.312
-12289.748
-8214.6572
-8105.595
-8580.2517
-8214.4667
-8947.8578
-8752.3498
-8818.7721
-9407.2816
-9384.8957
-9604.9698
-9589.3675
-10004.852
-9616.3237
-10391.47
-10104.717
-6057.5858
-5709.5114
-6271.6824
-5928.2015
-6311.8896
-6083.2943
-6802.1367
-6529.1741
-6886.465
-6821.5375
-7179.3392
-7387.6011
-7448.4097
-7472.2818
-7806.2055
-4032.5229
-3674.5214
-4052.3879
-3778.7594
-4121.1229
-4027.6181
-4371.4089
-4627.2195
-4510.2094
-4980.257
-4969.5892
-5454.7895
-5298.5746
-6414.4723
-5956.5721
-1758.0892
-1689.0474
-1781.1596
-1749.1783
-1934.9045
-1891.6484
-2151.9173
-2216.6283
-2548.7649
-2639.3021
-2925.3392
-3048.7111
-3483.474
-3463.3845
-3977.3795
89.032326
442.63898
117.35366
449.22522
-112.26145
316.36178
-111.03243
-194.46712
-297.83499
-748.10833
-787.5057
-1366.4882
-1255.2153
-2279.5851
-2224.5827
2237.7719
2268.6084
2362.7644
2306.7795
2267.5289
2320.833
1804.193
1868.2853
1680.2534
1567.7887
1271.6308
1056.5383
922.98692
267.77194
65.066726
3942.7011
4272.9889
3919.5033
4494.49
3996.1781
4200.6023
3881.8421
3705.3466
3621.0701
3171.8832
3062.8314
2418.4575
2240.4357
1451.4679
1170.7324
6091.7458
5768.9016
6120.4484
6032.688
5967.2209
5922.6935
5804.1023
5746.6893
5506.0049
5157.6442
4880.0972
4686.9694
4492.0111
3709.4682
3685.7378
7242.9104
7630.9563
7501.9069
7835.9047
7573.0181
7723.8461
7456.3636
7463.4143
7045.8626
7087.1437
6507.3514
6125.8881
5865.5331
5059.8945
5191.0288
9143.3982
9064.1302
9322.4946
9291.9137
9229.7162
9454.9613
8876.336
9033.4677
8702.6899
8477.6054
8403.3497
7682.5616
7558.5264
6743.4033
6646.5745
9958.0264
10522.177
10350.786
10969.237
10512.43
10673.852
10477.105
10409.274
10190.067
9970.5546
9743.2721
9313.1707
9047.9231
8220.3434
8107.5225
11635.512
11824.908
11784.525
12030.869
11931.638
12101.626
11904.303
11903.858
11606.564
11331.597
10910.581
10425.575
10383.888
9521.4699
9331.1777
12159.074
13006.364
12593.764
13360.622
12807.539
13253.297
12888.141
12925.726
12652.279
12490.655
12193.601
11870.234
11445.677
10722.314
10633.689
13442.676
13677.62
13814.109
13970.625
14012.304
14186.973
13883.007
13967.65
13640.593
13481.61
13110.848
12762.74
12542.48
11796.788
11438.363
13701.648
14441.515
14285.461
14869.73
14507.114
14925.831
14655.025
14754.938
14554.882
14313.879
14077.165
13778.413
13311.841
12499.882
12563.101
14542.626
14800.857
14879.219
15480.439
15245.44
15491.417
15361.371
15428.122
15109.727
14947.688
14642.421
14250.505
14120.558
13182.721
13072.594
14480.094
15161.604
15125.496
15677.577
15424.186
15931.032
15475.581
15751.408
15317.5
15342.24
15037.916
14643.898
14504.812
13736.68
13669.49
14686.29
15186.92
15215.2
15856.441
15728.722
15977.443
15899.91
15930.345
15807.407
15684.219
15356.255
15012.891
14811.036
13944.307
13966.443
14394.937
15028.594
15090.27
15770.644
15493.803
16029.599
15686.87
15983.367
15652.176
15630.611
15319.509
15054.236
14810.16
14151.359
14102.094
14022.975
14688.415
14767.58
15396.865
15300.316
15681.322
15558.213
15710.625
15475.885
15422.724
15199.726
14853.9
14692.866
13974.83
13964.258
13471.911
14087.376
14234.853
14909.128
14735.505
15204.293
15026.706
15169.229
15051.539
15013.146
14769.965
14558.58
14275.308
13837.894
13670.073
12588.524
13275.837
13368.333
14120.713
14029.65
14412.908
14397.577
14528.883
14439.267
14424.089
14160.678
13934.83
13807.608
13174.272
13207.589
11697.738
12341.568
12583.985
13173.937
13154.058
13567.618
13426.623
13708.332
13452.744
13396.484
13314.52
13076.082
12964.568
12439.761
12439.483
10420.797
11146.454
11274.596
12034.89
11903.522
12383.188
12311.408
12510.009
12341.461
12484.878
12247.921
12093.609
11977.671
11443.297
11534.497
9135.5051
9850.0064
9986.1328
10745.306
10611.911
11172.252
10991.053
11278.375
11164.763
11214.217
11051.405
10913.713
10783.517
10408.947
10454.793
7524.259
8310.8223
8414.0314
9147.0236
9045.9995
9532.1623
9399.5066
9737.2119
9547.8135
9682.6346
9508.2083
9391.4487
9371.7556
8990.8996
9036.4327
5935.7554
6632.3244
6745.4045
7502.4907
7376.6567
7889.834
7810.5732
8080.8975
7960.8272
8088.3853
7949.5146
7895.6336
7838.3595
7511.4841
7604.1601
4040.1191
4789.2436
4881.1277
5591.5102
5450.9176
5997.2133
5847.5077
6184.8563
6049.5622
6217.0061
6113.2001
6060.1032
6033.4454
5811.2615
5895.7673
2147.5063
2863.8043
2939.2779
3636.3618
3534.8413
4011.732
3928.3456
4235.772
4126.1
4297.0589
4200.7564
4148.3573
4192.4183
3995.9705
4079.8372
85.115984
794.9935
820.73215
1508.8425
1303.3643
1825.0721
1705.3839
2041.8643
1924.9251
2125.0765
2037.7426
2068.8637
2115.2682
1973.6836
2083.6072
-2012.7141
-1350.7624
-1303.6638
-704.85871
-855.62274
-366.47835
-452.51357
-136.98908
-232.65451
-39.032252
-58.335699
-58.158816
13.291042
-63.091435
56.964462
-4220.2017
-3541.9173
-3598.1878