/*--------------------------------*- C++ -*----------------------------------*\
  =========                 |
  \\      /  F ield         | OpenFOAM: The Open Source CFD Toolbox
   \\    /   O peration     | Website:  https://openfoam.org
    \\  /    A nd           | Version:  6
     \\/     M anipulation  |
\*---------------------------------------------------------------------------*/
FoamFile
{
    version     2.0;
    format      ascii;
    class       pointScalarField;
    location    "1.97";
    object      E;
}
// * * * * * * * * * * * * * * * * * * * * * * * * * * * * * * * * * * * * * //

dimensions      [1 -1 -2 0 0 0 0];

internalField   nonuniform List<scalar> 
28033
(
4592.673
5240.3628
-567857.28
-317652.91
6542.4838
9057.5272
-462362.13
-871809.67
1388.2206
-547.83953
-814.80775
-99.346618
134.29059
555.19239
545.5553
398.29382
675.62083
978.49974
2351.2362
4144.6751
5858.5503
6343.0031
5511.9696
-311250.1
-302658.92
-298135.12
-299171.67
-303435.74
-310296.4
-318810.71
-326473.26
-333358.07
-339080.85
-342675.54
-346086.36
-345763.85
-342991.77
-257596
5040.1983
3009.5757
3538.3883
3753.6171
4477.1074
4914.6224
5538.081
5658.8266
6310.1722
6581.9961
6947.6365
7220.9977
7416.8048
7796.6098
7919.2712
8046.3735
7930.798
8383.5312
8064.5235
8197.9801
8049.994
8077.5289
7714.4283
7821.4044
7337.4941
7367.9777
6912.8412
6796.4511
6416.5162
6176.2492
5746.3743
5417.8499
4969.7955
4634.0453
3904.7839
3817.3793
3379.5612
2642.4101
2344.7456
1879.2253
1274.1647
882.52912
313.17283
-127.34776
-681.99838
-1106.8998
-1690.8413
-2077.4951
-2684.1575
-3077.5389
-3662.4676
-4100.0492
-4640.9995
-5135.6824
-5650.8947
-6168.6136
-6700.8953
-7227.5652
-7770.1765
-8312.6205
-8881.8713
-9411.0405
-9984.2054
-10483.136
-11129.23
-11654.382
-12362.268
-12802.269
-13373.688
-13618.811
-14071.339
-14411.884
-14753.383
-15101.658
-15106.161
-15643.535
-15243.259
-15855.348
-15186.545
-15788.304
-14877.205
-15356.521
-14394.197
-14740.403
-13623.754
-13267.735
-12629.669
-11984.834
-11129.436
-10142.763
-10652.521
-7657.8773
-9173.6283
-7130.7936
8620.6735
8871.3255
1007.458
6984.6873
3369.9122
5727.0841
6334.328
6039.3642
6565.3486
7051.7203
6667.6676
7135.2996
6666.9794
6991.132
6386.478
6284.3606
5826.6276
5465.5279
5163.3258
4564.9976
4209.479
3290.2535
3124.2952
2007.5013
2105.1684
1105.7729
1099.2889
138.03233
-43.91723
-782.27201
-1033.2283
-1759.0903
-1901.5014
-2467.5385
-2578.0945
-3010.9229
-2912.0432
-3367.5321
-3238.4976
-3446.8377
-3241.9461
-3245.4647
-2994.1319
-2808.657
-2422.2023
-2108.1194
-1568.2262
-1096.378
-434.53128
213.89608
988.31785
1800.6695
2704.1152
3637.9743
4679.0248
5722.2246
6855.2092
8007.5514
9204.8605
10413.352
11669.305
12886.32
14152.83
15344.239
16581.34
17707.535
18827.904
19833.41
20948.902
21691.344
22660.557
23029.22
23780.339
24193.821
24435.41
24657.204
24639.787
24476.509
24245.244
23761.84
23218.332
22471.749
21592.864
20580.916
19423.726
18173.425
16735.727
15294.901
13690.598
11973.664
10308.254
8502.7891
6645.5428
4597.4692
3542.8827
-5207.9001
3457.1567
1227.3049
-78.29985
957.88908
337.54232
531.83058
529.3139
345.24529
461.37982
861.97864
1430.9999
2512.1191
3247.1174
4448.6569
4868.4115
11296.169
8598.4366
-2506.8066
6146.8766
5050.6072
4527.2871
6518.8712
6948.7258
6949.0558
6704.4366
8101.438
5931.7499
7950.7978
5127.7667
7382.6437
5539.2383
6528.156
4059.3725
5827.3275
3625.8494
4293.4282
3135.5645
2657.0144
2346.1209
1459.6714
1280.6031
442.43632
244.30562
-526.43494
-452.04721
-1058.3371
-1415.714
-1693.4038
-1875.0031
-2663.5953
-2505.2907
-1969.2524
-2232.4449
-2245.8608
-2134.314
-1905.1569
-1669.8698
-1336.0723
-958.71757
-495.16191
10.176845
586.44851
1219.3915
1899.9317
2640.6153
3410.9631
4242.1623
5094.4504
5969.5683
6883.8957
7795.8627
8714.2624
9647.6859
10539.978
11448.385
12296.618
13137.146
13912.345
14657.397
15317.588
16006.234
16440.133
16191.179
18955.08
17076.186
17961.174
17816.41
17806.032
17689.146
17437.269
17067.512
16595.757
16023.563
15252.725
14494.066
13482.924
12531.344
11300.418
10166.922
8699.6513
7387.2941
5751.7743
4219.4811
2503.8314
815.28069
-957.07563
-2753.9376
-4568.1339
-6270.4097
-4056.4418
-724864.77
-701648.41
-623469.47
-750154.6
-616321.88
-730289.4
-592207.8
-658465.21
-676048.37
-614457.88
-538462.64
-641746.92
-535496.71
-659158.21
-647104.42
7443.4552
3381.1284
5452.2176
4684.2616
4389.5797
3685.8812
3127.4784
2524.559
1753.8335
1245.7463
456.44971
-166.61008
-732.03196
-1550.2369
-2303.4263
-3001.5098
-3638.5344
-4278.751
-4838.1869
-5459.3389
-5962.418
-6533.5597
-6941.2313
-7486.0943
-7686.8243
-8132.8325
-6492.5482
-9466.8335
-8538.6162
-9377.3831
-9235.3455
-9374.3228
-9416.2365
-9402.3423
-9349.7498
-9251.6105
-9111.3364
-8934.2397
-8710.8991
-8463.5936
-8168.8396
-7855.2456
-7499.5672
-7128.6983
-6717.3668
-6302.0038
-5836.502
-5388.1713
-4880.7766
-4394.2506
-3856.0272
-3329.9601
-2759.7139
-2238.0834
-1643.7006
-1056.5205
-956.02798
1250.5144
1341.8492
318.43766
2902.6341
2790.1847
2791.8157
3203.0571
4550.1703
4720.2486
5009.894
5751.6276
5698.1443
6717.2835
6544.9133
7332.8197
7311.5466
8030.0838
7694.5377
8253.2237
8226.6482
8345.8141
8585.7311
8001.0951
8533.0486
8126.0997
8144.7211
7311.2945
8685.1357
6455.9282
6940.6683
6091.4474
6506.0898
4880.9883
4632.7076
4336.5885
5263.2835
2040.4049
8032.5496
3657.7828
3497.5695
3184.1875
3242.0189
3207.0644
3446.1222
3176.7376
3490.136
3416.0937
3635.428
3204.5806
3166.7661
3193.8866
3303.3038
2946.2108
2577.8173
2473.4848
1279.5721
1854.7081
1795.7976
990.02216
1716.3127
2164.6684
1382.9949
2056.6975
1861.847
1524.729
1684.7783
1755.6163
1962.4662
-353520.75
-353911.12
-353414.14
-353668.84
-353673.31
-353655.25
-353781.56
-353819.13
-353865.3
-353972.78
-354181.5
-354012.19
-354243.71
-354243.24
-354484.75
-641741.65
-642385.87
-642453.63
-642473.17
-642708
-642811.66
-642903.77
-643067.88
-643167.19
-643254.69
-643401.52
-643638.04
-643291.26
-644765.86
-644337.63
3551.8967
896.66608
1817.0431
2177.8715
2368.9208
2969.4871
3013.1513
3715.6593
3723.1251
4538.4853
4354.3274
5190.7559
4979.233
5801.1114
5392.8104
6137.7378
5987.7509
6274.121
6182.8515
6421.3699
6338.0455
6331.7645
6347.1179
6123.2913
6055.4339
5833.3659
5636.7276
5314.5776
5022.0705
4667.015
4198.2768
3923.3921
3519.4393
3050.9789
2573.2777
1946.1547
1548.769
866.78589
417.18341
-148.03208
-645.20934
-1321.5988
-1793.0935
-2283.1482
-2867.9763
-3327.3755
-3861.7172
-4294.0163
-4774.3581
-5149.0132
-5561.8724
-5887.787
-6212.9418
-6484.9351
-6722.172
-6931.9179
-7085.4992
-7213.6546
-7302.1041
-7340.4089
-7353.2256
-7295.0582
-7261.1293
-7087.3957
-7092.4402
-6701.4557
-5773.1496
-5131.0663
-4521.4305
-4613.575
-4139.4204
-3894.9415
-3405.3251
-3078.7601
-2558.7167
-2271.6859
-1558.5175
-1459.9801
-521.16218
-453.48519
345.40761
745.28111
1458.2878
1594.3265
2578.0786
3079.3434
3573.7224
4277.7207
5048.8015
4713.4902
6887.8847
6650.4486
6951.0382
11054.212
13332.951
1680.9005
-713.04138
696.63318
341.01167
1145.9726
1135.7758
1636.8124
1796.2884
2158.2021
2421.4195
2774.6321
3115.5065
3379.8902
3751.2559
3977.3393
4513.7982
4361.3381
5013.366
4981.3083
5402.8337
5299.1534
5658.1182
5507.5769
5808.3508
5693.4603
5803.3016
5619.6726
5674.8888
5493.7664
5403.2409
5217.0574
5026.2514
4623.8752
4344.4695
3986.8368
3692.4518
3319.203
2979.4859
2459.8468
2034.5856
1504.8381
1048.524
537.6068
-3.354704
-519.56199
-974.81361
-1514.0452
-1974.7394
-2450.8795
-2895.9488
-3339.629
-3740.4229
-4122.9965
-4484.7489
-4803.9822
-5095.2914
-5351.6588
-5576.337
-5752.6713
-5892.4295
-6004.288
-6053.6485
-6112.4298
-5987.5812
-6145.7147
-5557.5954
-4740.2701
780.22063
3437.6397
4727.4978
5674.6457
6306.7302
7081.9828
7485.9933
8489.5224
8590.5914
9768.6116
9547.6806
10972.072
10286.531
11892.95
11188.844
12309.665
9690.4396
6138.3741
5304.6708
6382.3923
6536.7495
6760.6803
7842.3359
7964.1482
7597.315
9577.1718
9114.2126
12057.145
1101.8091
-1017.3662
-25.387628
-443.46571
49.055946
66.144503
245.39808
629.94462
705.48958
1126.8052
1171.9964
1700.1355
1712.6484
2256.9537
2301.5555
2763.9158
2911.7911
3334.7532
3361.4003
3780.0036
3887.7013
4240.1429
4356.2695
4592.0243
4611.488
4814.4743
4842.1462
4911.4458
4883.6262
4892.544
4807.6822
4695.8561
4630.8286
4482.1722
4265.3364
4082.7308
3671.676
3248.0669
3015.9934
2619.8711
2269.2299
1903.1373
1383.3941
1044.2411
616.60886
182.46074
-286.24063
-684.18956
-1125.8964
-1537.5838
-1911.7253
-2292.9032
-2611.236
-2942.586
-3186.4833
-3445.6301
-3628.5952
-3790.7676
-3893.1876
-3970.9783
-3985.4705
-3954.322
-3896.2694
-3689.848
-3845.7991
-2039.533
-7550.1079
-865.2136
1800.6397
2693.3677
3197.3079
3295.6587
3720.2133
4288.2596
4813.8306
5228.0514
5770.7195
6122.0375
6591.6432
6885.4538
7495.5536
7338.7776
8316.1331
8556.7999
6103.5904
5651.4566
6046.7232
6112.3122
7468.0075
7327.1984
7785.0552
8624.8271
8238.2178
9126.9556
9165.3564
606.62642
-634.34673
-253.12948
-489.31107
-285.06554
-387.10774
-131.2456
-91.339352
-37.970894
146.00149
321.81791
496.87691
576.21518
987.99839
908.34051
1464.3226
1292.4409
1884.2889
1780.4387
2338.3552
2204.092
2699.306
2554.9158
2975.4887
2937.2419
3257.2819
3196.2017
3465.6346
3429.3789
3581.2037
3517.1839
3608.9828
3528.3482
3452.9378
3376.9758
3274.7533
3125.5873
3278.4443
2567.2891
2454.3999
2201.4797
1990.1696
1740.6152
1481.3468
1160.0113
884.85629
608.99696
345.48305
57.783894
-183.19722
-428.20328
-660.45959
-853.03175
-1043.2091
-1178.8519
-1315.7464
-1383.2206
-1442.6096
-1449.6995
-1418.7416
-1352.2172
-1232.7998
-1092.5702
-896.52322
-608.68876
-761.94529
1652.1816
-2073.8146
-2300.9976
-2053.5209
-1272.4659
-320.3834
185.56287
462.15466
945.29449
1350.0343
1992.4959
2223.4166
3085.4465
3203.4701
4100.1137
4147.7252
5316.7429
4828.4795
8093.5819
8871.523
9580.1242
9940.7093
10227.058
9833.3375
10879.218
9400.2502
10024.608
8427.7185
6829.5813
596.24804
-563.63904
-80.312536
-614.55315
-311.83815
-551.82097
-369.92646
-441.99796
-353.20375
-215.25822
-255.5172
-97.211707
-34.563224
140.17146
149.46231
443.62419
401.61121
739.94186
655.12008
1017.079
954.71384
1354.8434
1291.6909
1720.1971
1633.6339
1960.8559
1978.51
2164.0457
2202.7507
2351.7015
2406.9172
2514.321
2511.959
2598.295
2544.8312
2602.4528
2966.5144
2979.0791
1842.6413
1481.4312
1660.0566
1523.0827
1548.1495
1563.0637
1603.4476
1636.2862
1703.1927
1741.7969
1838.5836
1940.394
2079.9276
2220.1938
2435.1782
2627.3819
2898.2706
3160.2918
3490.1402
3818.9252
4195.8499
4598.5766
5021.8219
5476.7577
5929.4648
6455.0877
6936.8779
7497.4179
7898.9545
8862.8815
8892.3092
9175.9626
9799.6009
10149.428
10510.663
8497.6947
7519.1276
7708.9794
7800.6284
8420.5668
8540.4737
8998.7553
9183.335
9609.5227
9569.9772
9942.6288
9993.1053
10018.817
10634.226
10093.178
10244.881
10204.415
9888.0878
9188.2694
8574.45
7219.1873
3088.5533
307.19129
-174.18806
58.863896
-230.87608
-201.39773
-289.02953
-367.69516
-402.95989
-436.46991
-474.94109
-498.45981
-396.13151
-539.96837
-301.04668
-502.25976
-189.80883
-405.55322
6.1342983
-218.02212
231.2495
-0.38356992
434.47764
227.47591
617.37443
408.60139
844.2244
643.65243
1024.0996
951.90794
1210.2474
1194.7486
1337.7203
1398.356
1482.9548
1511.1848
1660.1564
1495.2331
3736.1998
3172.3422
3034.1937
3014.2735
3018.0992
2886.6601
2897.3578
2770.0307
2679.7122
2542.5323
2443.4329
2312.3057
2203.2783
2078.7562
1978.8178
1875.544
1789.763
1722.9753
1671.2195
1641.9512
1632.2046
1663.1941
1700.9532
1764.8431
1901.64
1984.3249
2174.9876
2327.7707
2582.642
2780.0383
2957.5308
3408.3307
3515.5716
4046.9035
4229.7899
3253.5463
6695.65
7792.5065
7735.8647
8111.6845
8290.4131
8706.2153
8729.8425
9342.4804
8878.8958
9745.4115
9144.0144
9711.2189
9373.0427
9754.6553
9263.9571
9967.33
9010.8654
9329.0672
7821.8853
8155.0071
5730.69
818.31101
394.61305
-259.4447
290.06764
-318.92647
-30.276196
-359.79184
-300.4709
-497.00933
-489.32911
-628.04354
-637.34189
-744.89998
-761.9214
-756.1745
-871.90551
-739.54149
-882.73258
-755.69524
-926.45668
-678.68199
-907.72507
-539.16303
-815.96868
-430.65306
-581.75446
-299.81278
-371.58751
-107.94627
-168.8143
88.414399
78.834982
326.62385
399.03696
530.81239
709.73159
768.80523
953.96292
853.23506
1563.654
1586.2307
1672.979
1808.9218
1877.1496
1984.208
2051.1257
2125.4058
2243.5291
2303.2067
2408.0823
2475.7376
2591.8203
2669.1031
2799.2571
2903.409
3056.7069
3187.0696
3371.6579
3546.3991
3759.7533
3963.8363
4239.219
4478.1441
4762.0545
5086.7117
5387.0548
5742.8738
6063.9787
6475.052
6791.8569
7135.1164
7523.3277
7967.5967
7938.7312
9892.9476
11476.655
11859.789
11866.437
12176.038
12101.536
12403.929
12112.811
12273.802
12168.267
11648.458
12001.235
10933.924
11246.777
10142.277
10051.192
8692.5502
8594.8999
7479.2055
7235.9996
5120.1038
90.773882
355.24392
-88.59982
182.40451
-84.652721
-27.039929
-209.70101
-216.2194
-447.76945
-428.34112
-626.16929
-709.6452
-759.4551
-915.60278
-926.05577
-1083.5258
-1023.4632
-1219.2837
-1059.1174
-1235.9452
-1070.2538
-1341.4693
-1102.6889
-1346.8077
-928.31621
-1307.0381
-832.13491
-1088.2648
-717.10013
-828.3624
-515.55138
-540.97469
-271.4655
-265.16343
5.744376
88.45873
285.63095
441.62818
671.03352
836.65013
1077.2735
1187.058
1432.9571
1587.5906
1806.5601
1944.9351
2194.5676
2355.6595
2592.8182
2790.6698
3043.7801
3265.3404
3534.9502
3792.4063
4079.4335
4370.6407
4681.5203
5010.4108
5345.9036
5694.4184
6074.4332
6440.7895
6825.0178
7225.1569
7627.7165
8003.034
8411.7907
8784.9716
9183.8941
9474.0875
9933.105
10101.545
10427.949
10839.031
10801.393
11078.016
11141.845
11283.35
11236.569
11310.989
11044.575
11081.648
10698.136
10513.958
10036.164
9850.3401
8948.1178
9065.6774
7742.3732
7993.649
6745.6924
7257.4616
5253.8905
5773.3463
3881.0559
-138.99819
578.80869
-169.63068
375.33039
-243.76491
-57.68072
-450.00487
-354.2218
-770.4654
-733.14988
-1091.2014
-1152.8798
-1384.5579
-1524.8002
-1666.1432
-1815.7653
-1909.3018
-2029.6516
-2099.2656
-2229.9007
-2177.0808
-2259.1707
-1930.3132
-2006.4523
-1933.5296
-1999.8122
-1789.7883
-1911.5128
-1638.1975
-1705.229
-1427.6178
-1402.1246
-1165.1762
-1005.4818
-777.47711
-629.47064
-319.005
-159.0065
144.99242
357.1811
633.0595
925.92752
1200.8031
1548.9855
1832.1378
2215.3355
2528.377
2904.2765
3239.7563
3628.8057
3980.6655
4381.9305
4755.8292
5165.219
5559.7469
5977.8462
6389.4082
6819.3334
7227.443
7680.9419
8087.8708
8521.5073
8947.2472
9368.035
9764.943
10161.306
10575.332
10919.144
11260.956
11640.329
11868.261
12163.74
12477.812
12606.224
12652.688
11877.698
10955.921
11123.642
11070.444
10831.405
10914.185
10421.193
10443.622
9957.4439
9669.8985
9414.073
8593.0681
8703.22
7235.4961
7531.5346
5785.2794
5350.1515
4054.225
4558.9485
2842.479
948.83401
1027.634
182.16261
668.30212
36.147251
350.42634
29.098624
176.25776
-203.86483
-175.46012
-362.17878
-533.80835
-675.62233
-820.4795
-1020.6109
-1086.6252
-1312.9997
-1346.8734
-1542.9301
-1511.5553
-1710.5136
-1817.53
-2038.7802
-2352.2217
-2253.2177
-2396.6668
-2235.3649
-2326.5446
-2061.5302
-2144.6462
-1834.7604
-1879.1185
-1554.0322
-1501.9203
-1264.0398
-1037.691
-829.54677
-585.8988
-301.76227
-90.060147
270.47481
516.77159
865.37689
1121.9263
1482.8775
1747.2291
2109.3279
2414.2769
2779.6824
3109.3285
3482.478
3833.5273
4203.9941
4575.6446
4949.908
5325.5371
5709.5377
6078.8147
6464.1623
6839.6261
7192.7114
7571.0799
7920.3197
8243.0189
8583.4058
8903.9246
9181.0703
9420.4605
9729.3457
9847.4197
10092.96
10248.194
10311.092
10630.813
10259.39
3538.0152
-1074.7347
-252.22883
-662.43282
-788.56492
-1239.237
-1258.9712
-1611.57
-1807.282
-1857.9685
-2228.689
-2209.4275
-2319.411
-2734.2309
-2069.9004
-3276.8991
-1595.5799
-2635.1186
-1434.0646
-2274.3723
1515.0197
774.0502
491.63617
821.56982
101.27634
601.00068
-30.185013
213.17229
-279.24117
-112.45236
-498.158
-554.69892
-815.63534
-861.85912
-1182.7692
-1062.6528
-1557.5228
-1172.1631
-1802.8399
-1303.2254
-1910.9175
-1415.535
-1828.402
-2164.3703
-2636.1911
-2685.3891
-2830.3451
-2684.6715
-2733.0358
-2614.1298
-2532.4966
-2419.5888
-2223.8977
-2126.3781
-1820.6315
-1716.8533
-1428.4045
-1199.5537
-946.04478
-618.85213
-374.24697
-14.938136
240.2262
638.728
944.21924
1345.5454
1689.11
2100.8933
2451.062
2868.8772
3242.0093
3649.3087
4034.0387
4443.6427
4821.6839
5223.7862
5597.1727
5978.824
6344.0906
6698.2976
7036.6662
7383.5387
7665.4913
7976.5512
8254.9285
8483.9486
8722.5562
8958.1071
9110.1197
9296.0899
9463.5123
9494.8778
9694.8693
9812.8844
10728.946
13101.396
4112.2499
5555.9004
5412.364
5126.4815
5158.6617
4912.3408
4799.662
4702.4325
4504.5004
4387.3557
4359.1698
4129.0005
4068.5239
4108.8049
3543.1658
3890.617
2221.3881
2887.7727
2114.4034
6267.9374
2326.5929
926.6178
1434.8828
1103.7366
1393.1246
1107.3599
1214.8723
903.41175
908.85778
687.50424
473.88778
249.62925
160.56591
-250.90184
-364.36414
-623.52108
-844.25533
-1075.8505
-1248.4801
-1480.7154
-1605.9526
-1741.5452
-1646.6315
-2132.851
-2369.0507
-2556.6269
-2619.7685
-2595.6011
-2629.731
-2539.4351
-2520.629
-2432.0173
-2325.3347
-2217.8369
-2072.1144
-1852.2987
-1707.8629
-1428.3305
-1271.7917
-960.12381
-764.84244
-423.85514
-200.89643
138.02584
388.97866
714.18264
1002.4167
1312.1075
1621.9821
1924.2852
2229.9002
2526.0745
2822.5817
3100.4243
3380.976
3639.0396
3897.4057
4127.3814
4355.9849
4568.0827
4751.0762
4930.8347
5095.5821
5219.6622
5328.8577
5474.5441
5502.0974
5616.315
5650.8748
5626.1488
5695.1657
5606.287
5596.0362
5552.0857
5772.7249
8528.0669
9555.047
9059.7099
8996.5199
8714.0759
8509.4987
8260.4446
7841.3889
7621.0937
7028.9889
6922.3446
5974.2895
6036.6269
5107.4734
4397.0674
4307.9177
2677.8786
3303.6534
1175.6756
5945.0552
3031.7535
2394.2358
2753.2625
2292.5612
2483.8672
2147.6866
2329.2551
1910.7155
2045.5114
1684.8158
1514.057
1334.9579
950.39607
688.88257
436.35064
30.500955
-180.8056
-615.48665
-771.95358
-1301.7143
-1291.391
-1977.4536
-1637.4068
-1967.8449
-1715.7853
-2338.0427
-2145.5032
-2514.7998
-2440.5117
-2576.4949
-2596.6431
-2572.7541
-2572.9175
-2501.6528
-2439.3578
-2369.2723
-2220.7802
-2146.614
-1924.7511
-1839.6189
-1577.9609
-1449.0969
-1192.7236
-1006.3144
-751.40531
-543.00626
-273.19278
-65.114379
201.51501
419.11329
668.4882
884.81824
1120.6518
1323.1949
1536.1646
1729.4288
1912.7677
2079.144
2249.1789
2378.7642
2517.1821
2636.6325
2730.0142
2828.9607
2893.9189
2986.1524
2965.8629
3054.9539
3025.5296
3112.9988
3038.5058
3128.6526
3014.7232
3069.3723
3072.9789
3239.6338
2758.1585
2688.8039
2530.6482
2539.3788
2444.2917
2363.7219
2343.5927
2273.03
2281.8161
2256.4648
2194.3489
2661.0058
1927.845
3123.1005
2384.0146
2432.0839
2145.9242
616.0671
5826.3602
4165.1836
2698.508
3540.1489
3184.9081
3888.9894
3846.9201
4103.37
4227.5416
4293.5782
4285.1496
4206.0759
3974.0986
3970.2567
3568.0066
3517.641
3027.8633
2895.6005
2403.4345
2313.5977
1782.243
1714.7134
1132.5938
964.24087
424.24393
310.86263
-55.767952
-187.06293
-504.08641
-630.82108
-861.16223
-956.84036
-1123.571
-1194.7333
-1254.1519
-1359.7591
-1366.9252
-1434.2026
-1370.9806
-1431.2021
-1325.9505
-1333.4784
-1232.7772
-1201.8825
-1108.7948
-1052.188
-974.76463
-897.81871
-842.57143
-765.63947
-721.11263
-667.05339
-642.31447
-607.80524
-616.52476
-610.10314
-641.3995
-679.79568
-732.7809
-802.6479
-889.78642
-985.96606
-1091.3376
-1222.0277
-1339.0914
-1497.4186
-1576.9416
-1784.1916
-1804.9456
-2021.6431
-2178.5648
-2238.4702
-2415.5989
-2480.0587
-2571.6382
-2652.2128
-2717.4501
-2715.7851
-2705.4578
-2687.7513
-2586.8017
-2597.5995
-2412.3889
-2367.7451
-2128.4362
-2050.6239
-1741.6017
-1510.0827
-1270.8094
-1052.4849
-109.71249
-921.2735
805.1794
280.79342
-171.89275
6653.6646
5614.4764
1836.5332
3985.1578
2648.6728
4000.2211
3296.1557
4129.8701
4134.1072
4331.782
4478.5117
4248.7544
4382.8865
4245.4264
3954.7039
4098.8776
3340.4848
3615.8874
2740.787
3081.9239
2136.1646
2602.3943
1431.2663
1853.6153
622.49418
948.46235
32.708904
171.93302
-511.08026
-556.01331
-932.34314
-1136.2673
-1451.9215
-1622.96
-1911.9336
-2151.9401
-2382.2829
-2450.3388
-2726.3525
-2775.1108
-2986.2297
-3051.9937
-3203.1554
-3260.4289
-3367.5072
-3409.2616
-3488.4973
-3507.8924
-3566.8845
-3569.5307
-3595.2713
-3596.2381
-3591.0408
-3569.0589
-3550.5604
-3502.2303
-3454.1698
-3387.6621
-3307.5593
-3207.6743
-3103.0271
-2966.8247
-2820.6446
-2652.6888
-2474.7772
-2262.0261
-2014.9141
-1887.1641
-1527.5451
-1353.1262
-823.2551
-671.27414
-139.78852
63.065716
580.91177
886.59776
1394.1354
1740.2622
2248.3395
2678.6293
3177.5499
3650.8029
4205.6772
4684.7686
5285.4443
5775.591
6486.8983
6889.2553
7698.9772
8245.0952
8892.9521
9415.3486
10798.762
10310.102
12543.691
14176.414
454.57767
562.69617
118.46615
-98.097356
-20.542313
-65.905246
-72.594241
-13.563533
61.32355
263.59213
49.429247
77.72743
291.01276
266.38472
282.94807
-156.9013
-265.77303
-446.36291
-382.49051
-529.15927
-571.09031
-563.67256
-638.02129
-491.31885
-595.57994
-560.25871
-467.9165
-584.08448
-443.66458
-542.11466
-577.25727
-890.38714
-945.20063
-983.49478
-1051.6183
-1045.0627
-1027.8168
-1092.427
-1065.974
-1053.6423
-991.42809
-1066.3291
-1079.6147
-985.60425
-808.20364
-233.58597
-214.57451
-300.63834
-400.64493
-410.82935
-440.52708
-447.7357
-477.05344
-421.36927
-442.91629
-416.20062
-435.21789
-372.16422
-376.93707
-413.30035
43.237135
-71.348193
-195.98892
-243.19101
-303.8737
-319.96188
-337.16424
-310.21595
-365.01662
-356.01221
-350.59217
-325.97932
-312.57928
-343.60551
-124.59479
358.43901
226.27705
131.84786
127.13643
76.128203
55.90187
31.717032
34.145201
32.337761
38.030811
67.414931
49.201503
88.01962
121.64639
208.20952
276.65894
202.66548
113.66913
57.55477
49.400711
12.097078
7.7845182
-22.754308
-19.501422
-6.7213736
-19.205539
30.981539
54.187308
141.27457
152.52649
280.65574
164.16942
73.243865
67.89221
27.717327
22.690844
9.1112027
-0.34475973
29.405113
-1.7970439
34.294247
40.886695
60.400079
105.36428
175.93252
125.48868
101.46666
-36.718603
-51.915359
-94.081878
-123.07771
-127.55452
-114.75102
-132.91053
-79.733282
-96.852328
-28.570801
-32.083262
140.85987
176.92868
468.53184
320.5325
114.52874
96.032181
13.50226
9.4244489
8.5015852
-5.5430877
11.429443
-13.897791
104.61084
40.5231
192.992
457.93063
301.35261
506.28396
529.61847
158.44625
127.5
-12.958683
32.469089
-43.601349
10.489976
-36.715719
41.032369
107.38935
184.13837
368.91667
849.43671
597.75562
1609.6432
1066.8362
763.90005
446.03514
463.83606
302.54605
330.53684
272.17979
311.83821
382.33157
476.6578
455.58825
902.86569
1481.5576
1307.5144
1863.4285
2031.2974
1077.9761
1081.0954
749.48702
843.45189
614.10589
734.82919
773.43258
757.28954
942.76825
956.41921
1307.3858
2266.8709
1908.4642
3195.3498
2471.8748
1777.6102
1658.7579
1498.4319
1501.6298
1547.9849
1559.1503
1529.8427
1350.0206
1405.2633
1363.9214
1529.1648
2213.3427
1542.6195
2092.9155
2025.8525
1175.7372
887.79977
643.82746
716.08143
678.53974
732.75601
495.3213
523.2046
495.71397
683.9867
1048.1043
1758.7463
2036.0449
8051.6539
9473.4306
7908.3029
9092.0721
9668.4388
9187.654
9897.8936
10389.16
9492.671
9934.25
9809.8612
9335.9865
9120.0508
9792.4325
7456.5405
6772.8205
3575.5079
5382.9586
4542.3637
4553.4514
5228.3087
5112.0314
5382.8525
5738.3773
4447.3519
4745.19
3941.567
4166.5971
5764.5411
5225.4606
5332.2732
5991.9424
4939.005
5426.2219
6563.5253
4652.6126
4697.5246
4840.9763
3549.5595
5503.8155
4550.8367
6493.6141
5501.1724
3871.5802
5272.6549
3978.8976
5069.4775
4965.3468
3393.8042
3729.5048
4064.8835
3362.6108
3858.2943
3875.433
3135.7829
3974.7225
3564.4186
4023.454
5145.3303
3197.7123
8019.4601
7643.3598
7057.762
8469.8014
7101.8541
7422.6416
7945.1222
7536.7303
7956.3238
8650.0178
7689.3941
8147.1642
7281.1475
6775.393
8242.9212
5363.9927
6061.6369
5804.0144
5492.8743
5984.5498
5902.496
5419.9061
5394.9879
5356.6684
4756.1725
5695.4378
5443.8994
5404.5413
6412.9647
4807.8095
7074.252
7740.3407
7646.2097
7908.4927
7424.8675
7834.2381
7848.7281
7757.0751
7860.5728
7915.7035
7307.8848
7692.6664
7477.8429
6681.4222
8112.2377
7322.6481
6832.9348
6911.9746
7201.3563
7490.5631
7011.7525
7144.1899
7263.841
6831.5225
7428.7536
7298.447
7150.3536
7283.0747
6490.574
6878.5155
7181.6323
7769.1331
7915.8144
8434.1495
7891.154
8319.8729
8171.2808
8211.9578
8477.7621
7912.3925
7991.8866
7611.1913
7697.8778
7296.1407
7580.8552
7679.6269
7012.872
7144.4301
7109.2012
7270.1313
7048.6645
7190.2819
7189.1668
6692.4932
7629.7969
6654.3544
7422.6191
6752.7726
6890.3519
7197.1233
7207.7732
7585.7458
7588.5047
8032.9775
7980.1969
8328.5507
8196.6902
8190.3336
8411.1397
7759.463
8517.5697
7820.875
8011.3264
7698.5989
8059.0912
7280.865
6850.386
7377.6983
7214.885
7187.5431
7128.7282
7070.7021
7003.6284
6623.8253
6975.412
6495.4627
6682.2058
6470.9969
6261.085
6901.9175
7191.0054
7187.5998
6665.7117
7378.0869
7281.2607
7476.5723
7584.4548
7433.7182
7746.527
7500.5311
7737.0483
7387.2354
7436.9639
7387.7431
7395.3771
6704.9109
6705.2449
6884.0358
6656.5784
6776.384
6928.0567
6506.5251
6766.0306
6161.7262
6189.2808
5818.223
5987.3546
5777.9831
5569.9151
6382.2575
6751.0432
6360.6491
6391.3262
6814.3512
6850.343
6519.4074
6577.4626
6654.8714
7093.9487
6940.455
7357.9016
7029.5966
7162.6216
7177.3846
7111.0098
5972.6808
6168.6178
6021.6889
6466.9592
5681.4637
6465.2184
6112.4057
5948.3357
5427.1019
5566.126
5013.0111
5171.8188
4669.9119
4859.396
5718.8458
5786.2404
5443.8739
5604.3642
5509.7
6162.2227
5658.739
5890.1401
5605.6865
6126.5016
5894.1343
6400.6468
6058.8757
6652.6251
5918.657
6689.5374
5406.5676
5302.9923
4995.0658
4993.8569
4941.2006
5335.2739
5279.8927
5312.5099
4796.6935
4980.3959
4494.1786
4539.9518
4240.4219
4186.0759
4619.4997
4965.1807
4664.0928
4905.7779
4984.2994
4899.9037
4561.5049
4675.962
4596.731
4935.0367
4689.3184
5119.1146
4818.7083
5185.0099
5159.7608
5825.7124
4101.2649
4101.6295
3934.1329
4186.1119
4062.6659
4597.6469
4037.7987
4203.011
4047.4614
4140.849
3583.4513
4075.193
3712.2313
3628.1092
3871.6816
4299.7077
3635.7684
3856.6869
3584.4053
3818.6505
3330.4211
3956.2458
3576.556
3796.7073
3378.5786
3794.5677
3478.6821
4055.612
3901.5691
4648.4303
2957.8695
3243.5005
2858.2274
3333.7265
2907.2377
3486.6769
2833.9139
3349.5313
2860.9512
3323.5117
2982.362
3242.2077
3074.8372
2476.667
3351.8128
3232.9858
2371.4307
2731.809
2396.4637
2749.2423
2321.2228
2729.4206
2406.7136
2745.0678
2464.1355
2665.0116
2280.726
2366.3013
2507.8665
2809.671
2115.8115
2212.1042
1857.5624
2304.7245
1924.5949
2196.8162
1865.7179
1983.3969
1866.2832
1941.2553
1766.0576
2069.426
2126.4722
1801.4421
2413.8161
2002.5686
1447.6227
1430.6201
1338.6501
1647.8519
1135.8742
1693.417
1380.5392
1558.1448
1364.0158
1413.8793
1389.1403
1347.1304
1252.5246
1695.4911
1083.3822
1095.4596
915.07494
1018.7257
784.03524
1176.0642
758.41845
976.24255
769.48924
855.14149
1047.8956
855.53757
1085.6382
992.17403
1383.5757
672.72635
404.11061
620.79556
437.98152
678.16822
318.38611
577.22512
406.30856
483.87393
416.85119
480.51381
351.17692
448.06496
108.56871
806.10606
168.50141
80.546488
-381.53281
11.198993
13.763929
-98.682482
-89.124157
-151.59481
-4.344607
-168.20543
11.535436
-319.28939
-23.19717
18.589498
236.81734
-392.72245
-475.15257
-128.349
-598.54732
-528.19178
-602.49693
-448.18437
-581.51312
-448.18149
-571.8308
-435.94016
-418.92377
-474.79523
-834.64672
-43.043967
-612.43051
-996.60892
-1113.7392
-861.55284
-940.45604
-933.77971
-935.69068
-1024.0144
-1029.1712
-1143.7198
-1045.4764
-1190.4159
-1226.6804
-1062.9307
-796.44995
-1200.9903
-1249.9243
-1138.0084
-1252.2819
-1302.8444
-1177.7213
-1306.7594
-1495.7801
-1575.2095
-1435.3431
-1337.0738
-1451.5994
-1246.1128
-1580.8724
-1034.0691
-1470.0065
-1556.7514
-1725.1225
-1665.9789
-1683.9667
-1804.884
-1772.7584
-1732.3573
-1673.0968
-1775.0738
-1855.025
-1802.4033
-1808.0495
-1878.7791
-1382.6949
-1737.9995
-1991.8315
-1934.4921
-1942.1154
-1919.2054
-2072.8088
-1948.1464
-2146.9883
-1991.8458
-2156.5162
-1989.971
-2126.4902
-2024.5189
-2165.9315
-1707.3126
-2035.1339
-2187.2232
-2241.118
-2236.6532
-2286.1764
-2260.3328
-2340.2419
-2292.6651
-2377.3357
-2339.8286
-2409.8995
-2355.0108
-2389.0913
-2430.6697
-2021.2181
-2257.2188
-2439.3685
-2302.4005
-2233.774
-2379.4146
-2528.0187
-2432.5407
-2541.7261
-2463.5371
-2489.6985
-2429.9195
-2513.292
-2397.9348
-2475.1159
-2064.1958
-2293.9782
-2532.7964
-2697.6633
-2428.0666
-2760.0718
-2728.9566
-2679.8264
-2774.1619
-2558.1934
-3088.1297
-2663.0858
-2820.3074
-2618.6294
-2958.4555
-2230.8976
-2250.475
-2919.1439
-2766.8708
-2983.1455
-2655.4205
-2923.3679
-2719.1654
-2953.7367
-2841.5718
-3121.7926
-2954.6249
-2815.6801
-2955.5982
-2845.0686
-2554.849
-2752.4459
-2638.5198
-2689.8588
-2606.5263
-2822.2817
-2725.8869
-2873.3302
-2816.5262
-2860.4387
-2781.931
-2807.0015
-2988.2566
-2790.5951
-3048.4331
-2497.2483
-2399.1677
-2783.1825
-2685.7261
-2807.0085
-2654.5843
-2871.9439
-2721.5252
-2888.6393
-2820.1749
-2870.2827
-2882.1467
-2811.4628
-2872.4718
-2973.4607
-2392.2081
-2476.3768
-2605.5938
-2678.9314
-2557.0847
-2713.952
-2685.7694
-2740.9713
-2796.1618
-2734.2644
-2859.3519
-2762.7046
-2848.9372
-2819.0756
-2870.3922
-2392.1876
-2211.9589
-2517.0013
-2409.5849
-2525.1142
-2442.4825
-2596.8154
-2528.8748
-2615.4122
-2602.5778
-2641.2602
-2633.7367
-2666.2561
-2602.5415
-2759.3475
-2207.0126
-2065.6117
-2237.0102
-2307.6369
-2226.1158
-2305.5028
-2354.7737
-2334.3241
-2448.6432
-2379.1899
-2466.6827
-2455.7659
-2423.8346
-2464.3255
-2534.974
-1980.3366
-1687.0821
-2026.1754
-1901.1166
-1978.868
-1953.6539
-2061.8229
-2037.5731
-2119.9003
-2081.7102
-2175.3576
-2115.8834
-2173.897
-2149.1746
-2247.2305
-1687.1588
-1405.342
-1604.1088
-1618.066
-1613.0347
-1654.1977
-1742.3571
-1705.2737
-1793.9966
-1777.756
-1805.6649
-1839.3688
-1805.4772
-1827.4896
-1913.4062
-1332.8569
-891.20592
-1232.0505
-1122.9624
-1182.5255
-1193.6059
-1288.6441
-1237.0355
-1360.4934
-1297.1777
-1396.2927
-1372.9266
-1376.3856
-1404.6257
-1484.9865
-889.43056
-448.67981
-706.36936
-659.69044
-705.93809
-748.89078
-820.88057
-800.205
-876.43746
-876.87853
-896.54218
-930.13763
-899.97785
-940.02815
-1004.0432
-396.6081
165.78048
-168.38708
-69.899538
-137.29186
-139.97062
-244.61265