/*--------------------------------*- C++ -*----------------------------------*\
  =========                 |
  \\      /  F ield         | OpenFOAM: The Open Source CFD Toolbox
   \\    /   O peration     | Website:  https://openfoam.org
    \\  /    A nd           | Version:  6
     \\/     M anipulation  |
\*---------------------------------------------------------------------------*/
FoamFile
{
    version     2.0;
    format      ascii;
    class       pointVectorField;
    location    "1.97";
    object      u;
}
// * * * * * * * * * * * * * * * * * * * * * * * * * * * * * * * * * * * * * //

dimensions      [0 1 0 0 0 0 0];

internalField   nonuniform List<vector> 
28033
(
(0 0 0)
(0 0 0)
(0.46152315 0.038300091 -0.0069896086)
(0.45537398 -0.07159799 -0.0083169055)
(0 0 0)
(0 0 0)
(0.45668087 -0.07057543 -0.0082851793)
(0.46284717 0.039284433 -0.0071915951)
(0 0 0)
(0 0 0)
(0 0 0)
(0 0 0)
(0 0 0)
(0 0 0)
(0 0 0)
(0 0 0)
(0 0 0)
(0 0 0)
(0 0 0)
(0 0 0)
(0 0 0)
(0 0 0)
(0 0 0)
(0.46102284 0.030905227 -0.0073044513)
(0.46046583 0.023928127 -0.0073598596)
(0.45992193 0.017069605 -0.0074736235)
(0.45945631 0.010266401 -0.0075149187)
(0.45900482 0.0035260156 -0.0075634657)
(0.45857411 -0.0031789102 -0.0075992525)
(0.45818022 -0.0098632967 -0.0076239457)
(0.45780258 -0.016538267 -0.0076428795)
(0.4574489 -0.023214505 -0.0076714324)
(0.45711356 -0.029915845 -0.0076928729)
(0.45679863 -0.036629587 -0.0077334992)
(0.45649407 -0.043406347 -0.0077910041)
(0.45622711 -0.050224501 -0.0078592193)
(0.45592933 -0.05714865 -0.0079379147)
(0.45571565 -0.064194276 -0.0080906955)
(0.0011129966 0.0018911848 0.0019892504)
(0.0012650568 0.0028557364 0.0028343381)
(0.001567743 0.0038739222 0.0034146527)
(0.0020610952 0.0049767398 0.0038036583)
(0.0026709495 0.006065476 0.004042777)
(0.0034751782 0.0072084417 0.0042100979)
(0.0044379007 0.0083667375 0.0042866474)
(0.0055733116 0.0095137208 0.0043355841)
(0.006865093 0.010688845 0.00433511)
(0.0083278839 0.011837897 0.0043221142)
(0.0099308279 0.012998259 0.0042729158)
(0.011696125 0.014132847 0.0042282975)
(0.013601583 0.015270149 0.00415893)
(0.015660829 0.016378855 0.0040937032)
(0.017852542 0.017483136 0.0040101842)
(0.020190991 0.018557052 0.0039322075)
(0.022659571 0.019625272 0.0038430452)
(0.025270919 0.020659517 0.0037608326)
(0.028007408 0.021687083 0.0036601042)
(0.03087992 0.022679703 0.0035695457)
(0.033874006 0.023665025 0.0034713307)
(0.037001039 0.024612486 0.0033685358)
(0.04024664 0.025550231 0.0032671962)
(0.043619666 0.026456633 0.0031615611)
(0.047108403 0.027344761 0.0030488595)
(0.050718565 0.028203677 0.0029381253)
(0.054442272 0.029042459 0.0028229153)
(0.05828268 0.029854519 0.0027030939)
(0.062234467 0.030641283 0.0025780911)
(0.066295857 0.031399683 0.0024544683)
(0.070465468 0.03213865 0.0023219552)
(0.074738331 0.032840898 0.0021870768)
(0.079112354 0.033526179 0.0020519012)
(0.083590341 0.034170873 0.0019103988)
(0.088162323 0.034801082 0.0017654822)
(0.092828405 0.035389646 0.001617081)
(0.097582711 0.035957969 0.0014692494)
(0.10242748 0.036493091 0.0013172664)
(0.10735164 0.036997431 0.0011599244)
(0.11235862 0.037476033 0.0010043824)
(0.11743974 0.037921977 0.0008456702)
(0.12259294 0.038341091 0.00068714613)
(0.12781744 0.038731191 0.00052574761)
(0.13310777 0.039093511 0.00036468195)
(0.13845952 0.039427602 0.00020298202)
(0.14387241 0.039735947 4.0203014e-05)
(0.14934008 0.040018806 -0.0001219218)
(0.1548635 0.040276398 -0.00028540513)
(0.1604363 0.040511448 -0.00044840677)
(0.16606008 0.040723115 -0.00061225945)
(0.17172897 0.040914798 -0.00077630725)
(0.17744436 0.041084852 -0.00094096612)
(0.18320196 0.041238075 -0.0011062111)
(0.18900196 0.041371175 -0.0012720334)
(0.19484205 0.041490203 -0.0014388719)
(0.2007212 0.041591348 -0.0016060364)
(0.20663847 0.041679761 -0.0017744533)
(0.21259242 0.041753405 -0.0019431222)
(0.21858242 0.041815173 -0.0021127196)
(0.22460714 0.041864302 -0.0022824161)
(0.23066618 0.041903019 -0.0024525543)
(0.23675828 0.041930996 -0.0026225588)
(0.24288235 0.041949439 -0.0027918022)
(0.24903903 0.041957676 -0.0029608788)
(0.25522506 0.041959625 -0.0031283451)
(0.26144194 0.041950774 -0.0032937865)
(0.26768828 0.041935103 -0.0034586843)
(0.27396141 0.041912565 -0.0036190469)
(0.28026297 0.041881523 -0.0037787642)
(0.28659059 0.041846266 -0.0039316802)
(0.29294586 0.041804361 -0.0040832087)
(0.29932448 0.041751653 -0.0042270009)
(0.30573121 0.041705276 -0.0043716429)
(0.31216114 0.041633211 -0.0045034095)
(0.31861634 0.041586263 -0.004640236)
(0.32509903 0.041492209 -0.0047581487)
(0.33160015 0.041445964 -0.0048867806)
(0.33813773 0.041331696 -0.0049913006)
(0.34468477 0.041281557 -0.0051107074)
(0.35127692 0.041154163 -0.0052030173)
(0.35787744 0.041088623 -0.0053148451)
(0.36451899 0.040957921 -0.0053961016)
(0.3711818 0.040868332 -0.0055006889)
(0.37787357 0.040731163 -0.0055751887)
(0.38459999 0.040615146 -0.0056720163)
(0.39135282 0.040475036 -0.0057511855)
(0.3981488 0.040318684 -0.0058430555)
(0.40496469 0.040164968 -0.0059250115)
(0.41183418 0.039981566 -0.006027972)
(0.41872099 0.039806712 -0.0061181183)
(0.42566886 0.039563945 -0.0062133606)
(0.43263892 0.039419567 -0.0063523928)
(0.43966548 0.039116625 -0.0064153501)
(0.4467764 0.038931048 -0.0065768536)
(0.45388675 0.038714798 -0.0066535055)
(0.0004888625 -0.0017321 -0.0021643867)
(0.00091054002 -0.0025020616 -0.0024837691)
(0.001187178 -0.0035503066 -0.0032056141)
(0.0015081828 -0.0044216557 -0.0034985294)
(0.0021541264 -0.0055007447 -0.0037532494)
(0.0028822968 -0.0065602098 -0.0039145512)
(0.0038036392 -0.0076161072 -0.0040136611)
(0.0048919228 -0.0087140873 -0.0040718628)
(0.0061504512 -0.0098047442 -0.0041032135)
(0.0075514173 -0.010893862 -0.0041139357)
(0.0091161105 -0.011989413 -0.0041147629)
(0.010821313 -0.013073939 -0.004105185)
(0.012676102 -0.01415707 -0.0040906949)
(0.014669802 -0.015236432 -0.0040787814)
(0.016800389 -0.016299782 -0.0040605194)
(0.019070581 -0.017367243 -0.0040484946)
(0.021467191 -0.018412196 -0.0040347757)
(0.024003993 -0.019460508 -0.004020499)
(0.026663395 -0.020494932 -0.0040157403)
(0.02945151 -0.021516933 -0.0040072717)
(0.032367485 -0.022534819 -0.0040015204)
(0.035405235 -0.02354354 -0.00400345)
(0.03856131 -0.024534506 -0.0040014708)
(0.041845555 -0.025528842 -0.0040045343)
(0.045238503 -0.026502392 -0.0040113523)
(0.048755579 -0.02747052 -0.0040137912)
(0.052383425 -0.028430223 -0.0040267203)
(0.056125949 -0.029373631 -0.0040309829)
(0.059980189 -0.030313889 -0.0040450695)
(0.063941676 -0.031234023 -0.0040512752)
(0.068014149 -0.032153705 -0.0040637351)
(0.072187889 -0.033051549 -0.0040736206)
(0.076468437 -0.033945141 -0.0040846941)
(0.08084588 -0.034820007 -0.0040949763)
(0.085325579 -0.035687629 -0.0041049278)
(0.089893659 -0.036535002 -0.0041179058)
(0.09455968 -0.037373563 -0.0041245582)
(0.099310785 -0.038197022 -0.0041378808)
(0.10414892 -0.039005925 -0.0041487033)
(0.10906718 -0.039799725 -0.0041624482)
(0.11406686 -0.040581071 -0.0041768682)
(0.11913757 -0.0413452 -0.0041948821)
(0.12428356 -0.04209755 -0.004214706)
(0.12949382 -0.042833402 -0.0042393296)
(0.1347715 -0.043557013 -0.0042673178)
(0.14010799 -0.044265595 -0.0043008032)
(0.14550434 -0.044961711 -0.0043392529)
(0.15095425 -0.045644235 -0.0043838688)
(0.15645788 -0.046314891 -0.0044344605)
(0.16200996 -0.046972838 -0.0044918647)
(0.16761082 -0.04761999 -0.0045557012)
(0.17325592 -0.048255569 -0.0046266509)
(0.17894549 -0.048880969 -0.0047041424)
(0.18467624 -0.049496178 -0.0047884838)
(0.19044794 -0.050102004 -0.0048791652)
(0.19625816 -0.050698362 -0.0049760923)
(0.20210696 -0.051286499 -0.0050786816)
(0.2079921 -0.051865871 -0.0051866002)
(0.21391349 -0.05243745 -0.0052995059)
(0.21987015 -0.053001637 -0.0054162224)
(0.22586074 -0.053558011 -0.0055373008)
(0.23188539 -0.054108098 -0.005660681)
(0.23794261 -0.054650763 -0.0057874442)
(0.24403243 -0.055188118 -0.005915109)
(0.25015319 -0.055717947 -0.0060454059)
(0.25630583 -0.056244578 -0.0061748539)
(0.26248836 -0.056762963 -0.006306314)
(0.26870023 -0.057279837 -0.0064355611)
(0.2749422 -0.057788739 -0.0065669612)
(0.28121204 -0.05829573 -0.0066925915)
(0.28751054 -0.058799785 -0.0068196523)
(0.2938362 -0.059299523 -0.0069433443)
(0.3001913 -0.059798896 -0.0070644221)
(0.3065704 -0.060294101 -0.0071835424)
(0.31298115 -0.060791359 -0.007296586)
(0.3194144 -0.061284734 -0.0074097005)
(0.32587895 -0.06178224 -0.0075142008)
(0.33236811 -0.06227629 -0.0076185855)
(0.33888747 -0.062776243 -0.0077143729)
(0.34543342 -0.063273284 -0.0078081018)
(0.35200995 -0.063777214 -0.0078940171)
(0.35861594 -0.0642798 -0.0079760229)
(0.36525161 -0.064787915 -0.0080511216)
(0.37192176 -0.065297286 -0.0081202489)
(0.37862061 -0.065808903 -0.0081842288)
(0.38535808 -0.06632513 -0.0082395165)
(0.392126 -0.066839155 -0.0082906189)
(0.39893383 -0.067357713 -0.0083342305)
(0.40577594 -0.06787603 -0.0083695111)
(0.41266101 -0.068392937 -0.0084006611)
(0.41957989 -0.068908353 -0.0084241476)
(0.42655361 -0.069430102 -0.0084413105)
(0.43356405 -0.069953143 -0.0084422911)
(0.44066283 -0.07046442 -0.0084591603)
(0.44784081 -0.071051855 -0.0084166441)
(0 0 0)
(0 0 0)
(0 0 0)
(0 0 0)
(0 0 0)
(0 0 0)
(0 0 0)
(0 0 0)
(0 0 0)
(0 0 0)
(0 0 0)
(0 0 0)
(0 0 0)
(0 0 0)
(0 0 0)
(0.00097585782 -0.00072082661 0.0015516248)
(0.0010320651 -0.0028024998 0.0024888082)
(0.0010744771 -0.0030777702 0.0028983703)
(0.0015964448 -0.0044964578 0.0034153681)
(0.0020808911 -0.0052761719 0.0035857115)
(0.0028969439 -0.006387215 0.0037181679)
(0.0037973676 -0.0073880742 0.0037687307)
(0.0049332292 -0.0084702948 0.0038016177)
(0.0061816695 -0.0094949807 0.0037634189)
(0.0076150959 -0.010576698 0.0037307598)
(0.0092089146 -0.011636554 0.0036720163)
(0.010903339 -0.012657229 0.0036013072)
(0.012804398 -0.013743787 0.0035195191)
(0.014784912 -0.014743876 0.0034348822)
(0.016963824 -0.015815979 0.0033362054)
(0.019227516 -0.016806971 0.0032470162)
(0.02165235 -0.017837824 0.003143537)
(0.024203815 -0.018843654 0.0030385884)
(0.0268783 -0.019834609 0.0029337411)
(0.029695689 -0.020838564 0.0028203909)
(0.032619539 -0.021803522 0.0027163481)
(0.035676511 -0.022777854 0.0025973234)
(0.038856597 -0.023744548 0.0024815817)
(0.042159531 -0.024698244 0.0023611648)
(0.045572988 -0.025635694 0.0022382287)
(0.0491168 -0.026581091 0.0021121733)
(0.052754861 -0.027483809 0.0019816025)
(0.056532825 -0.028425468 0.0018492759)
(0.060396717 -0.029301991 0.0017105444)
(0.064390795 -0.030221383 0.00157239)
(0.06847987 -0.03108719 0.0014249848)
(0.072681631 -0.031971366 0.0012798411)
(0.076979449 -0.032820667 0.0011251345)
(0.081384386 -0.033677716 0.00097178378)
(0.085881475 -0.034507366 0.00081295504)
(0.09047277 -0.035324153 0.00065202251)
(0.095155542 -0.036137762 0.00048678856)
(0.099930712 -0.036931996 0.00032283019)
(0.10478348 -0.037705893 0.00015382931)
(0.10972305 -0.038473431 -1.4486022e-05)
(0.11473631 -0.03921796 -0.00018586939)
(0.11982635 -0.039954084 -0.00035592861)
(0.12498534 -0.040668789 -0.0005289426)
(0.13021342 -0.041373982 -0.00069984875)
(0.13550416 -0.042059153 -0.00087331508)
(0.14085781 -0.04273475 -0.0010447155)
(0.14626832 -0.043391969 -0.0012181656)
(0.15173573 -0.044039772 -0.0013899976)
(0.15725541 -0.044671692 -0.0015635505)
(0.16282663 -0.045294504 -0.0017359641)
(0.16844589 -0.045903969 -0.0019099464)
(0.17411276 -0.046505372 -0.0020836439)
(0.17982397 -0.047095745 -0.0022585815)
(0.18557922 -0.047679152 -0.0024340235)
(0.19137619 -0.048254167 -0.0026105806)
(0.1972141 -0.048823127 -0.0027880281)
(0.20309123 -0.049385911 -0.0029664043)
(0.20900699 -0.049944055 -0.0031457678)
(0.21495961 -0.050497467 -0.003325756)
(0.22094866 -0.051047653 -0.0035063488)
(0.22697261 -0.051594449 -0.0036871509)
(0.23303082 -0.052139018 -0.0038678852)
(0.23912196 -0.052681362 -0.0040480234)
(0.24524531 -0.053222323 -0.0042272766)
(0.25139987 -0.053761927 -0.0044050351)
(0.2575842 -0.054300863 -0.0045806623)
(0.263799 -0.054839241 -0.0047543913)
(0.27003956 -0.055378951 -0.0049223346)
(0.27631266 -0.055913304 -0.0050910379)
(0.28260703 -0.056455003 -0.0052525887)
(0.2889306 -0.056992765 -0.0054098604)
(0.29527841 -0.057533364 -0.0055614716)
(0.30165178 -0.058073295 -0.005708467)
(0.3080497 -0.058615625 -0.0058484417)
(0.31447175 -0.059158229 -0.0059829694)
(0.32091839 -0.0597028 -0.006110467)
(0.32738903 -0.060248444 -0.0062319874)
(0.33388436 -0.060795358 -0.0063464984)
(0.34040451 -0.061344353 -0.0064552305)
(0.34694991 -0.061893305 -0.0065572148)
(0.35352162 -0.06244491 -0.0066546507)
(0.36012061 -0.062995729 -0.0067460987)
(0.36674753 -0.06354824 -0.0068345981)
(0.37340451 -0.064099645 -0.0069190032)
(0.38009218 -0.064650873 -0.0070025316)
(0.3868127 -0.065200861 -0.0070838304)
(0.39356657 -0.065747079 -0.0071678536)
(0.40035788 -0.066293583 -0.0072512135)
(0.40718406 -0.06683098 -0.0073413264)
(0.41405363 -0.067371403 -0.0074321422)
(0.42095898 -0.067897252 -0.0075353619)
(0.42791995 -0.068433764 -0.0076376706)
(0.43491654 -0.068953101 -0.0077625881)
(0.44201625 -0.06949083 -0.0078845951)
(0.44914584 -0.07007785 -0.0080520146)
(0.457066 -0.063180669 -0.0083420404)
(0.4572875 -0.056197724 -0.0083390655)
(0.45754261 -0.049241748 -0.0082656023)
(0.45783498 -0.042447887 -0.0082016797)
(0.45812433 -0.035666841 -0.0080836023)
(0.45844122 -0.028957252 -0.0079845599)
(0.45876919 -0.02225965 -0.0078496183)
(0.45911662 -0.015578925 -0.0077285129)
(0.4595074 -0.0089126535 -0.007602523)
(0.45988165 -0.0022190145 -0.0074766022)
(0.46031549 0.0044854474 -0.0073696832)
(0.46076394 0.011225118 -0.0072707689)
(0.46124246 0.018023869 -0.0071742566)
(0.46171344 0.024905341 -0.0071219532)
(0.46235277 0.031844907 -0.0070817311)
(0.455251 0.039706086 -0.007374924)
(0.4480354 0.039873098 -0.007363916)
(0.44094836 0.040138759 -0.0073749943)
(0.43390176 0.040376985 -0.0073532019)
(0.42691032 0.040609295 -0.0073479714)
(0.41995958 0.040829874 -0.0073264281)
(0.41304929 0.041040186 -0.0073008543)
(0.40617485 0.041242394 -0.0072710704)
(0.39933906 0.041432037 -0.0072311567)
(0.39253702 0.041618317 -0.007189354)
(0.38577027 0.041792802 -0.0071374675)
(0.37903599 0.041964581 -0.0070825087)
(0.37233384 0.042127373 -0.0070200106)
(0.36566177 0.042287099 -0.0069547034)
(0.3590207 0.042439867 -0.006882012)
(0.3524086 0.042588265 -0.0068053509)
(0.34582519 0.042730977 -0.0067231258)
(0.33926871 0.042867775 -0.0066370962)
(0.33273914 0.042999684 -0.0065470313)
(0.32623621 0.043123457 -0.0064529748)
(0.31975839 0.043242643 -0.0063559286)
(0.31330722 0.043351739 -0.0062553782)
(0.3068803 0.043455852 -0.0061527662)
(0.30048021 0.043548078 -0.0060469909)
(0.29410435 0.043634411 -0.0059400426)
(0.28775578 0.043708487 -0.0058310183)
(0.28143115 0.043772649 -0.0057204287)
(0.27513871 0.043824819 -0.0056086041)
(0.26886712 0.043868864 -0.00549802)
(0.26262718 0.04389696 -0.0053855831)
(0.2564141 0.043915167 -0.0052746847)
(0.2502307 0.043918911 -0.0051642883)
(0.24407665 0.043910089 -0.0050551762)
(0.23795323 0.043886639 -0.004948194)
(0.23186084 0.043849454 -0.0048435333)
(0.2258004 0.043797098 -0.0047418116)
(0.21977258 0.043729904 -0.0046438036)
(0.21377827 0.043646782 -0.0045496401)
(0.20781835 0.043547939 -0.004460298)
(0.20189363 0.043432112 -0.0043758348)
(0.19600532 0.043299621 -0.0042972233)
(0.1901544 0.043148919 -0.0042241294)
(0.18434223 0.042980478 -0.0041579216)
(0.17857018 0.042792277 -0.0040975478)
(0.17283992 0.042585238 -0.0040446843)
(0.16715319 0.042356531 -0.0039977065)
(0.16151207 0.042107801 -0.0039584402)
(0.15591873 0.041835325 -0.0039246762)
(0.15037571 0.041541549 -0.003898511)
(0.14488566 0.041221815 -0.0038768422)
(0.13945155 0.040879598 -0.0038624814)
(0.13407627 0.040509332 -0.0038513014)
(0.12876341 0.040115123 -0.0038465111)
(0.12351662 0.039691314 -0.0038438762)
(0.11833856 0.039242623 -0.0038461149)
(0.11323396 0.038762828 -0.0038494194)
(0.10820382 0.038259772 -0.0038569511)
(0.10325327 0.037720741 -0.0038637376)
(0.098398652 0.037152701 -0.0038705492)
(0.093612102 0.036563905 -0.0038823848)
(0.088922478 0.035940962 -0.0038934936)
(0.084342959 0.03528031 -0.003898647)
(0.079838187 0.034608742 -0.0039109032)
(0.075443029 0.033897063 -0.0039196085)
(0.071144319 0.033161638 -0.0039309941)
(0.066967986 0.032389985 -0.0039392114)
(0.062874436 0.031607903 -0.0039472622)
(0.058920603 0.030776595 -0.0039542904)
(0.055051712 0.029944227 -0.0039695956)
(0.05131292 0.029070088 -0.0039775039)
(0.047682314 0.028179597 -0.0039916737)
(0.044171373 0.027259368 -0.0040043826)
(0.040794553 0.026309911 -0.0040154355)
(0.037519695 0.025350642 -0.0040352543)
(0.034374291 0.024362864 -0.004053586)
(0.031372305 0.023338681 -0.0040696641)
(0.028468566 0.022319737 -0.0040970246)
(0.025730125 0.021247796 -0.0041145783)
(0.023087745 0.020188101 -0.0041455608)
(0.020613265 0.019076513 -0.0041688978)
(0.018262731 0.017962202 -0.004195013)
(0.016041303 0.016836665 -0.0042272632)
(0.013966395 0.015685517 -0.0042525928)
(0.012054704 0.01450982 -0.0042744559)
(0.010266444 0.013343104 -0.0042944615)
(0.0086352317 0.012157932 -0.0043066867)
(0.007177514 0.010943277 -0.0042966981)
(0.0058546017 0.0097710653 -0.0042788244)
(0.0047035384 0.0085628078 -0.0042173849)
(0.0037110009 0.0073915137 -0.0041282577)
(0.0029047017 0.006184026 -0.0039489559)
(0.0022809963 0.0050345251 -0.0036919842)
(0.0018107628 0.0039767875 -0.0033339841)
(0.0014675534 0.0028153658 -0.0026277581)
(0.0017122007 0.0018253726 -0.0015250648)
(0 0 0)
(0 0 0)
(0 0 0)
(0 0 0)
(0 0 0)
(0 0 0)
(0 0 0)
(0 0 0)
(0 0 0)
(0 0 0)
(0 0 0)
(0 0 0)
(0 0 0)
(0 0 0)
(0 0 0)
(0 0 0)
(0 0 0)
(0 0 0)
(0 0 0)
(0 0 0)
(0 0 0)
(0 0 0)
(0 0 0)
(0 0 0)
(0 0 0)
(0 0 0)
(0 0 0)
(0 0 0)
(0 0 0)
(0 0 0)
(0.45552556 -0.071647981 -0.0083282642)
(0.45562865 -0.071629329 -0.0083359441)
(0.45571395 -0.071577205 -0.0083455956)
(0.45580501 -0.071526065 -0.0083453595)
(0.45589205 -0.071466424 -0.0083445513)
(0.45597888 -0.071403734 -0.0083339833)
(0.45606209 -0.071337502 -0.0083262702)
(0.45614421 -0.071270019 -0.0083094325)
(0.45622538 -0.071204479 -0.0082978179)
(0.45630095 -0.071136776 -0.008284915)
(0.45638844 -0.07107911 -0.0082710629)
(0.45645687 -0.071002047 -0.0082654847)
(0.4565397 -0.070941286 -0.0082616088)
(0.45661235 -0.070860754 -0.0082633597)
(0.45669817 -0.070792259 -0.0082755345)
(0.4617272 0.038501512 -0.0070041341)
(0.46181824 0.038565267 -0.0069878712)
(0.46190147 0.038641969 -0.0070106689)
(0.462 0.038716055 -0.0070253744)
(0.46207762 0.038777048 -0.0070405073)
(0.46216655 0.038841293 -0.0070673095)
(0.46225206 0.03891 -0.0070878053)
(0.46233758 0.03897437 -0.0071141509)
(0.46242183 0.039041949 -0.0071371845)
(0.46250352 0.039108331 -0.007157181)
(0.46258528 0.039169898 -0.0071764682)
(0.46266239 0.039231508 -0.0071915611)
(0.46274363 0.03929321 -0.0071870351)
(0.46281448 0.039315577 -0.0072173765)
(0.46290515 0.03940408 -0.0071994334)
(0.00058331446 0.001505178 0.0020531861)
(0.00084274931 0.0023973907 0.00245756)
(0.0011224248 0.0033834972 0.0030271956)
(0.001610596 0.0043231429 0.0032952414)
(0.0021838148 0.0052617402 0.0035492274)
(0.0029875514 0.0062245145 0.0036660637)
(0.0039302397 0.0071998073 0.0037533545)
(0.0050609441 0.0081759018 0.0037916951)
(0.006343968 0.0091768882 0.0037941129)
(0.0077962948 0.010154801 0.0037792765)
(0.0093962553 0.011149312 0.0037432242)
(0.011161221 0.012124331 0.0036961023)
(0.013062598 0.0131024 0.003637161)
(0.015115437 0.014055378 0.0035744567)
(0.017307642 0.015007928 0.0035017024)
(0.019648495 0.015938212 0.0034255162)
(0.022114332 0.016857788 0.0033485586)
(0.024722653 0.017757419 0.0032637813)
(0.027459936 0.018640559 0.0031788374)
(0.030334333 0.019508104 0.0030890929)
(0.033325602 0.020354739 0.0029989075)
(0.036456429 0.021179722 0.0029042831)
(0.039699798 0.021994763 0.0028069096)
(0.043071537 0.022777492 0.0027077423)
(0.046562145 0.023549886 0.002602919)
(0.050173539 0.02429471 0.002499077)
(0.053896655 0.025026013 0.0023874286)
(0.057737534 0.025726052 0.0022767981)
(0.061691133 0.026412166 0.0021595827)
(0.065753469 0.027073112 0.0020407562)
(0.069922674 0.027708774 0.0019166849)
(0.074202068 0.028324648 0.0017907965)
(0.078579536 0.028914629 0.0016621477)
(0.083058812 0.029480635 0.0015289076)
(0.087633293 0.030023742 0.0013921894)
(0.092303988 0.030537711 0.0012548137)
(0.097064257 0.031033585 0.0011127903)
(0.10190973 0.031497178 0.00096880151)
(0.10684256 0.031940068 0.00082306339)
(0.11185344 0.032357515 0.00067578159)
(0.11694143 0.032747893 0.00052745783)
(0.122102 0.033111559 0.00037655469)
(0.12733225 0.033455691 0.00022490105)
(0.13262987 0.033770122 7.2529831e-05)
(0.13798791 0.034064397 -8.1430652e-05)
(0.14340707 0.034334053 -0.00023483561)
(0.14888192 0.03458123 -0.00039051525)
(0.15441088 0.034806792 -0.00054533675)
(0.1599908 0.035011368 -0.00070192003)
(0.16561981 0.03519543 -0.00085853206)
(0.17129513 0.035360812 -0.0010165256)
(0.17701552 0.035507048 -0.0011746787)
(0.18277856 0.035636598 -0.0013345571)
(0.18858326 0.035748703 -0.0014946428)
(0.19442781 0.035846116 -0.001656487)
(0.2003111 0.035927418 -0.0018186577)
(0.20623203 0.035996057 -0.0019824643)
(0.21218943 0.036050249 -0.0021466655)
(0.2181823 0.036092725 -0.0023119926)
(0.22420979 0.036122837 -0.0024775965)
(0.23027108 0.036142198 -0.0026439965)
(0.23636484 0.0361508 -0.0028100192)
(0.24249094 0.036148976 -0.0029759089)
(0.24864799 0.036137766 -0.0031413315)
(0.25483477 0.036119085 -0.0033058961)
(0.26105229 0.036087898 -0.0034676392)
(0.26729899 0.036053156 -0.0036291472)
(0.27357135 0.036006609 -0.0037860706)
(0.27987371 0.035954472 -0.0039411977)
(0.28619923 0.035893131 -0.0040926643)
(0.29255472 0.035826476 -0.0042419273)
(0.29893155 0.035750565 -0.0043852389)
(0.30533855 0.035672573 -0.0045262663)
(0.31176538 0.035579401 -0.0046592417)
(0.31822107 0.035492625 -0.0047911216)
(0.3246997 0.035380417 -0.0049125028)
(0.33120138 0.035286876 -0.0050354577)
(0.33773318 0.035153656 -0.005143536)
(0.34428139 0.035052432 -0.005258544)
(0.35086782 0.034901817 -0.0053544117)
(0.3574654 0.03478065 -0.0054595391)
(0.36410637 0.034623801 -0.0055490408)
(0.37076302 0.034472775 -0.0056440022)
(0.377455 0.03430116 -0.0057291157)
(0.38417406 0.034132841 -0.0058227314)
(0.39092902 0.033936057 -0.0059034474)
(0.39771842 0.033734807 -0.0059930018)
(0.4045357 0.033520999 -0.0060834675)
(0.41139815 0.033291641 -0.0061761543)
(0.41828642 0.033023786 -0.0062613469)
(0.42522554 0.032789072 -0.0063893401)
(0.43219277 0.032484266 -0.0064762642)
(0.43922504 0.032140212 -0.006612904)
(0.44631091 0.031864859 -0.006774945)
(0.45349747 0.031356408 -0.0069563986)
(0.00010009992 0.0013145426 0.0018106908)
(0.00031057595 0.001806143 0.0022334325)
(0.00071498544 0.0027856205 0.0026267849)
(0.0011342633 0.0035319808 0.0029133629)
(0.0017628236 0.0043707918 0.0030712302)
(0.0025358508 0.005182827 0.0031823912)
(0.0034827523 0.0060228414 0.0032437229)
(0.0046044546 0.0068506763 0.0032746958)
(0.0058880706 0.0076964207 0.0032662405)
(0.0073314332 0.008520001 0.0032629817)
(0.0089358749 0.0093635381 0.0032152516)
(0.010693436 0.010184761 0.0031799562)
(0.012591573 0.011009324 0.0031202866)
(0.014645925 0.011815814 0.0030682211)
(0.016840183 0.012622573 0.0029926072)
(0.0191717 0.013405553 0.0029331037)
(0.021640963 0.014188473 0.0028505917)
(0.024247966 0.014944839 0.0027814895)
(0.026986132 0.01569993 0.0026956407)
(0.029853623 0.016427043 0.0026180312)
(0.032851245 0.017150543 0.0025286056)
(0.035974037 0.017849366 0.002442512)
(0.039220797 0.018539705 0.0023496022)
(0.042591213 0.019204621 0.0022585601)
(0.046083284 0.019860442 0.0021601723)
(0.049691436 0.020493375 0.0020607924)
(0.053417398 0.021112532 0.0019575183)
(0.05725836 0.021708063 0.00185403)
(0.061212499 0.022292285 0.0017418473)
(0.065275056 0.022848915 0.001631477)
(0.069449068 0.02339461 0.0015153735)
(0.07372664 0.023912822 0.0013969243)
(0.078104995 0.024417666 0.0012750326)
(0.082587233 0.024896469 0.001149246)
(0.087165048 0.025358029 0.0010232955)
(0.091838455 0.02579627 0.00089162811)
(0.096602007 0.026214989 0.00075896742)
(0.10145398 0.02660903 0.00062496058)
(0.10638848 0.026984247 0.00048736472)
(0.11140333 0.027337085 0.00034819535)
(0.11649426 0.027666686 0.0002081672)
(0.12165894 0.027977354 6.6418262e-05)
(0.12689557 0.02826405 -7.8953532e-05)
(0.13219461 0.028530526 -0.00022177845)
(0.1375585 0.028777532 -0.00036815016)
(0.1429822 0.029002321 -0.00051469612)
(0.14846131 0.029208523 -0.00066210358)
(0.15399512 0.029394563 -0.00081049368)
(0.15957948 0.029562576 -0.00096027759)
(0.16521275 0.02971157 -0.0011106014)
(0.1708922 0.02984451 -0.0012623844)
(0.17661658 0.029958896 -0.0014151476)
(0.18238312 0.030059393 -0.001569319)
(0.18819139 0.030142512 -0.001724559)
(0.19403877 0.03021285 -0.0018812815)
(0.19992502 0.030267654 -0.0020389712)
(0.20584827 0.030310864 -0.0021983307)
(0.21180775 0.030339661 -0.00235811)
(0.21780239 0.030358211 -0.0025194394)
(0.22383148 0.030363928 -0.0026811089)
(0.22989345 0.030359677 -0.0028433298)
(0.23598844 0.030344563 -0.0030056992)
(0.2421149 0.030319226 -0.0031675636)
(0.24827149 0.030285273 -0.003329741)
(0.2544595 0.030242545 -0.0034898363)
(0.26067619 0.030187903 -0.0036480565)
(0.26691736 0.030130609 -0.003806787)
(0.27318949 0.030058114 -0.0039598943)
(0.2794887 0.029981078 -0.0041142996)
(0.2858158 0.029894035 -0.0042629258)
(0.29216838 0.029803778 -0.0044101513)
(0.29854567 0.02969875 -0.0045489039)
(0.30494924 0.029596938 -0.0046901561)
(0.31137552 0.029470673 -0.0048165774)
(0.31782931 0.029361517 -0.0049531092)
(0.32430428 0.029211497 -0.0050645336)
(0.33080642 0.029095375 -0.0051959813)
(0.33733267 0.028920948 -0.0052924264)
(0.34388307 0.028797077 -0.0054191113)
(0.3504617 0.028597811 -0.0055002883)
(0.35706409 0.028458712 -0.0056214144)
(0.36369722 0.028247558 -0.005696679)
(0.37035536 0.028071461 -0.0057998433)
(0.3770468 0.027850137 -0.0058826531)
(0.38377163 0.027647574 -0.0059780649)
(0.39052074 0.027400444 -0.0060547409)
(0.39731266 0.027166504 -0.006150814)
(0.40412324 0.026899317 -0.0062336704)
(0.41099692 0.026601564 -0.0063225214)
(0.41787453 0.026325186 -0.0064359383)
(0.42483074 0.025981218 -0.0065299385)
(0.43179226 0.025620942 -0.0066505985)
(0.43884054 0.02526031 -0.0067969223)
(0.44593261 0.02482126 -0.006947846)
(0.45314309 0.024355715 -0.0071346268)
(-0.00019974795 0.0010250751 0.001600002)
(-2.152586e-05 0.0014510111 0.0019245024)
(0.00024575829 0.0021911793 0.0023036947)
(0.00072859302 0.0028501054 0.0024862979)
(0.0013400571 0.0035235814 0.0026170776)
(0.0021262753 0.0042201264 0.0026915312)
(0.0030831044 0.004911428 0.0027378815)
(0.0042063852 0.0055969537 0.0027497639)
(0.0054825563 0.0062868255 0.0027527714)
(0.0069328729 0.0069735823 0.0027276453)
(0.0085318208 0.0076643257 0.0026949963)
(0.01028357 0.0083362299 0.0026576496)
(0.012185391 0.0090169703 0.0026074136)
(0.014238896 0.0096810092 0.0025487755)
(0.016422719 0.010340793 0.0024946626)
(0.018759709 0.01098898 0.0024266488)
(0.021224992 0.011628232 0.0023615702)
(0.023832921 0.012256449 0.0022895243)
(0.026564297 0.012871265 0.0022173516)
(0.029437364 0.013476013 0.0021396042)
(0.032428292 0.014068485 0.002061591)
(0.035555161 0.014644015 0.0019797878)
(0.038797833 0.015211426 0.0018957813)
(0.042170813 0.015758296 0.0018088511)
(0.045656992 0.016299404 0.0017169044)
(0.049267826 0.016816708 0.0016259798)
(0.052991718 0.017327296 0.0015294244)
(0.05683324 0.017816358 0.0014298288)
(0.060784036 0.018294408 0.0013280632)
(0.064849621 0.018752756 0.0012243522)
(0.069020057 0.019197907 0.001114423)
(0.073297254 0.019623732 0.0010053088)
(0.077678826 0.020035016 0.00088995917)
(0.082160859 0.020426178 0.00077496346)
(0.086738346 0.020802549 0.00065476614)
(0.091412071 0.021159149 0.00053340946)
(0.096173652 0.021498929 0.00041088914)
(0.10102235 0.021819125 0.00028578077)
(0.10596021 0.02212269 0.00015696963)
(0.11097707 0.02240435 2.7532168e-05)
(0.1160709 0.022671334 -0.0001038224)
(0.12123864 0.022918041 -0.0002393845)
(0.12647473 0.023147017 -0.00037069515)
(0.13177823 0.023357488 -0.00050685252)
(0.13714544 0.023549986 -0.00064480501)
(0.14257054 0.023724612 -0.00078203594)
(0.14805328 0.023882534 -0.00092241378)
(0.15358926 0.024023082 -0.001063075)
(0.15917643 0.024147573 -0.001205734)
(0.16481186 0.024255634 -0.0013489092)
(0.17049413 0.024348787 -0.0014948827)
(0.17622024 0.024426196 -0.0016408393)
(0.18198936 0.024490376 -0.0017899938)
(0.18779912 0.024539152 -0.001939228)
(0.1936485 0.024576342 -0.00209135)
(0.19953618 0.024599193 -0.0022440842)
(0.20546065 0.024611104 -0.0023989923)
(0.21142134 0.024610105 -0.0025545211)
(0.21741695 0.024599193 -0.0027122187)
(0.22344635 0.024575908 -0.0028696225)
(0.22950932 0.024543728 -0.0030289444)
(0.2356045 0.024500326 -0.0031877653)
(0.24173079 0.024447987 -0.0033471098)
(0.24788818 0.024386238 -0.0035064806)
(0.25407652 0.024315213 -0.0036639599)
(0.26028991 0.024233714 -0.0038216413)
(0.26653831 0.024151616 -0.0039775651)
(0.27281153 0.024051553 -0.0041294693)
(0.27911143 0.023947488 -0.0042802714)
(0.28543639 0.023833902 -0.0044263087)
(0.29178805 0.023711915 -0.004571151)
(0.29816332 0.023583493 -0.0047102906)
(0.30456675 0.023444433 -0.0048473685)
(0.31098964 0.023301164 -0.0049783001)
(0.31744293 0.023147448 -0.0051064415)
(0.32391422 0.022984898 -0.0052260115)
(0.33041776 0.022818411 -0.0053470848)
(0.33693808 0.022634847 -0.0054541067)
(0.34349134 0.022453476 -0.0055668457)
(0.35006463 0.022248214 -0.0056627448)
(0.35666783 0.022054328 -0.0057700713)
(0.36330007 0.021816831 -0.0058503977)
(0.3699536 0.021610033 -0.0059571306)
(0.37665065 0.021348508 -0.0060307247)
(0.38336285 0.021105229 -0.0061275207)
(0.39012309 0.020825901 -0.0062028187)
(0.39690365 0.020554462 -0.0063023239)
(0.40373492 0.020227693 -0.0063729273)
(0.4105928 0.019935829 -0.0064872723)
(0.41748893 0.019570467 -0.0065639895)
(0.42444026 0.019202943 -0.0066793212)
(0.43141479 0.018824346 -0.0067961537)
(0.43847381 0.018377392 -0.0069303516)
(0.44556719 0.017948886 -0.0070838195)
(0.45274572 0.017470142 -0.0072578224)
(-0.00038419382 0.00087887524 0.0013388935)
(-0.0003333304 0.001127942 0.0016333153)