/*--------------------------------*- C++ -*----------------------------------*\
  =========                 |
  \\      /  F ield         | OpenFOAM: The Open Source CFD Toolbox
   \\    /   O peration     | Website:  https://openfoam.org
    \\  /    A nd           | Version:  6
     \\/     M anipulation  |
\*---------------------------------------------------------------------------*/
FoamFile
{
    version     2.0;
    format      ascii;
    class       pointScalarField;
    location    "0.92";
    object      E;
}
// * * * * * * * * * * * * * * * * * * * * * * * * * * * * * * * * * * * * * //

dimensions      [1 -1 -2 0 0 0 0];

internalField   nonuniform List<scalar> 
625
(
-177.49543
-2205.3928
21695.29
20051.45
1517.2981
-701.29749
20100.239
20665.441
-115.17821
-184.34314
-477.33254
21543.167
18913.867
20886.85
1697.2782
-286.18293
-544.82473
655.80804
-1269.3957
595.84659
136.53511
389.93279
1655.5961
1639.0645
2290.1358
3294.3228
4295.4066
5089.7873
6583.1388
7740.2755
9306.0315
10900.17
13023.484
14606.266
17181.464
18300.13
20673.593
3857.0357
-1923.8854
7033.2813
4392.9429
2187.7084
8160.3541
2881.8083
5821.8937
5943.2625
5402.0725
6866.6523
7186.4054
7997.9262
8784.0943
9913.0522
10932.702
12162.161
13575.842
15097.854
16381.097
18514.091
19142.921
21263.841
146.70164
-133.90096
-1191.0979
2947.7771
11130.12
-2871.6424
2683.0603
10666.749
1.1928153
6268.9651
4629.3891
5023.1787
6515.855
5580.6975
7615.3361
8120.5154
9057.2435
10615.877
11316.111
12817.628
13937.263
15158.372
16362.978
17333.654
18342.279
19962.24
19279.608
16227.083
21117.302
20845.923
17822.132
16810.423
14930.608
13355.57
11721.457
10213.215
8834.8421
7644.241
6650.1774
5282.2195
5023.7204
3422.5668
3289.7078
1571.431
1379.5078
1358.7257
563.67897
343.44486
-2288.9123
2667.0248
-1700.0767
3131.3003
-206.09203
-289.9422
-557.54637
-2065.959
-2659.9739
-3289.6117
19540.676
19995.862
19392.965
21056.134
21320.3
20839.604
1965.1913
474.93321
229.63955
821.04133
-406.99084
1228.7103
573.18339
1542.4619
1913.5445
2382.7751
3696.0828
4288.1186
5278.7519
6232.3805
7376.1065
8400.4913
9803.2642
10958.494
12589.113
14048.127
15863.613
17145.5
20985.514
432.61432
-189.05447
333.9015
-923.73836
-26.768243
39.248403
-631.49962
593.3588
377.21161
1604.7796
1903.7832
2924.1542
3906.7695
5142.9056
6241.5767
7679.4715
8954.0108
10370.798
12161.957
13259.939
15541.536
16682.602
21480.76
675.85751
-1716.3265
-1867.6362
-2309.5439
-1163.4449
-3076.651
-583.42518
-1063.6395
-109.14396
977.33822
1563.8848
2938.4014
3861.8335
4994.8937
6027.9363
7433.6025
8531.8987
10249.653
11490.503
13847.598
15395.991
18125.683
21179.42
-227.9383
-214.69623
-332.16955
-394.59026
-478.73314
-200.94093
-496.57749
-994.05466
-1119.4874
4045.1029
5643.1185
4073.0396
6922.8223
4384.4281
6029.3101
2677.9817
-398.38913
4630.1193
4159.3044
5714.8414
1500.6347
7950.6263
4194.5995
8367.6445
4217.3948
5395.0575
4848.2417
6302.4612
4970.5633
6263.6615
5480.2107
4150.3076
6380.601
5360.4427
6599.6025
5284.7052
6861.1635
5608.6658
7502.3302
6073.982
7159.6781
6489.2095
7834.6052
7057.2381
7745.9623
7842.1358
8515.2245
8830.0214
9420.103
9160.9712
9303.925
10258.857
10341.383
10807.901
11415.272
11462.855
11723.822
12697.127
12646.954
12867.938
13932.165
13957.238
14185.768
15303.633
15301.075
15410.03
16534.577
16676.215
16504.629
17783.744
17771.256
17574.424
18615.728
18830.396
18509.333
20212.281
19981.205
19699.714
21464.315
21633.171
20963.099
18228.358
18336.222
16615.592
21172.506
21149.357
20302.337
1104.9123
2865.7178
1485.9615
-1279.9859
-1410.5646
-1067.4424
2028.4491
569.76742
3014.6314
-697.21364
-878.1605
-615.40114
1680.5656
684.63981
1762.7668
1410.6293
-958.05372
1858.9111
1391.8617
1137.1874
2034.5518
2326.2231
986.07556
2785.6106
2811.7349
1949.0472
2506.2008
3521.4431
1848.2276
4527.7672
3524.2767
3327.4964
3901.0021
5090.6333
3620.3299
5322.2286
5222.5775
4847.5904
5869.8107
6676.7059
5760.9992
6866.4216
7681.491
6937.2972
8050.4176
8828.654
8199.2534
9178.1699
10395.832
9683.5062
10565.412
11838.087
11264.771
12078.673
13784.802
13203.995
13704.551
15107.812
14974.947
15169.511
17500.469
17215.412
17024.323
18520.016
17993.488
17866.154
20955.916
20645.168
20598.155
918.93115
256.46354
-2455.6423
185.53656
-2180.6118
-1095.5574
-359.84141
-843.54188
470.31358
1114.3972
1809.529
2967.3896
3792.2289
4767.6564
5962.403
7102.2619
8350.1025
9768.6413
11243.107
12967.831
15311.047
16768.747
21334.722
199.45982
1857.7928
-789.94468
2165.5043
478.05717
2668.994
2185.2675
2682.3003
3791.0946
3765.181
4682.86
5644.5925
6028.2132
7367.1368
8354.5337
9434.7484
10833.614
12156.113
13629.375
15024.174
16842.053
16853.91
22820.592
711.55143
-2754.9822
-744.82182
-4622.4749
-1902.4942
-865.40488
-3329.6536
935.12319
-1636.4059
1635.1828
989.41767
2407.2355
3128.7477
4071.4037
5147.3873
6336.107
7672.0828
9133.0908
10924.85
13014.688
15194.549
17918.853
20608.238
620.55312
785.347
848.20309
525.66134
611.84115
785.47901
-230.30948
-1357.3437
-742.58397
344.67578
809.96458
575.25603
954.36658
-600.94579
345.89393
949.28858
1056.8547
240.21782
1193.3916
518.06525
1070.2531
2016.132
1840.8867
1190.0505
2446.6368
1472.8153
1607.0797
2963.179
3042.4941
2640.7937
4132.945
3523.5618
2913.7062
4343.175
4200.0693
4223.6028
5639.6158
5312.8811
4988.3089
6435.0102
6176.164
5944.1536
7512.6859
7099.8634
6977.8632
8594.1776
8342.7154
8177.2691
9871.7297
9466.1472
9291.0238
11077.621
10797.866
10532.923
12597.153
12106.876
12008.048
13475.546
13953.605
13160.172
15085.517
16350.196
15012.641
17361.737
16557.025
15895.459
20750.313
20719.734
20621.999
38.896711
69.296812
58.308223
909.12053
1438.6361
1464.2249
249.75574
-1492.622
-304.34853
501.62531
1623.6344
1504.0876
1842.2184
-25.727138
-107.86702
1027.0452
709.09666
1139.8888
1483.727
974.83456
612.58282
2638.3615
1351.0065
848.83635
1986.777
1528.3684
1389.2541
3468.5251
2518.7213
1890.8163
3799.997
2731.6625
2495.397
4747.2944
3736.8288
3494.4147
5687.4448
4855.0513
4258.5955
6643.8788
5638.9831
5189.5866
7794.0652
6996.219
6505.3896
8937.5226
8090.2252
7571.0832
10220.368
9524.033
8913.2113
11531.231
10750.916
10291.871
13045.726
12508.206
11872.212
14625.816
13666.228
13158.893
17197.263
14607.495
15686.878
17017.914
16572.137
15811.359
21737.896
21811.577
21773.854
1532.5228
1588.4704
1389.4369
-1899.3351
-3449.6309
-2768.3686
-1345.8781
44.608022
688.53546
137.76781
-3142.6893
-1786.3165
-1497.3755
-1626.2663
-413.45004
-74.574495
-2036.0326
-117.36478
1273.8976
-1602.0434
23.63278
376.87359
-944.12656
1658.4005
2337.1545
-435.76077
1608.4266
2718.0417
450.50061
2862.6806
3299.7236
1125.9031
3582.9927
4426.3559
2241.9605
4300.0182
5099.9981
2831.8018
5273.0947
6191.4964
4048.8309
6181.365
7189.6592
4950.7508
7177.9354
8397.8392
6322.2503
8382.6093
9637.8279
7560.3895
9564.7724
11092.543
9248.4269
11022.648
12597.72
10744.079
12350.805
14355.87
13230.273
14325.652
16158.318
14942.847
15656.541
18395.067
18188.602
18776.93
21203.146
20399.461
20505.585
)
;

boundaryField
{
    free
    {
        type            zeroGradient;
    }
    fixed
    {
        type            zeroGradient;
    }
    freeTop
    {
        type            zeroGradient;
    }
}


// ************************************************************************* //
