/*--------------------------------*- C++ -*----------------------------------*\
  =========                 |
  \\      /  F ield         | OpenFOAM: The Open Source CFD Toolbox
   \\    /   O peration     | Website:  https://openfoam.org
    \\  /    A nd           | Version:  6
     \\/     M anipulation  |
\*---------------------------------------------------------------------------*/
FoamFile
{
    version     2.0;
    format      ascii;
    class       pointVectorField;
    location    "0.92";
    object      lm;
}
// * * * * * * * * * * * * * * * * * * * * * * * * * * * * * * * * * * * * * //

dimensions      [1 -2 -1 0 0 0 0];

internalField   nonuniform List<vector> 
625
(
(-3.6361799e-15 2.112754e-16 -3.2990721e-16)
(2.8178306e-17 1.9013092e-16 6.1994168e-17)
(-6987.3687 -245.22679 217.56012)
(-6903.8334 1102.3746 116.59424)
(6.5239771e-16 2.739523e-16 -5.5565719e-16)
(-3.7042918e-15 1.4868296e-15 -1.3023874e-15)
(-6784.274 959.10326 115.00476)
(-6867.2129 -388.28982 215.68835)
(-1.9658614e-16 -3.2115893e-17 -1.1045223e-16)
(1.4766345e-16 -3.4299605e-16 -2.8648028e-16)
(-1.0135278e-15 7.0169807e-16 1.7538027e-16)
(-6966.2733 92.497403 192.4064)
(-6945.6648 429.4702 167.52197)
(-6924.8792 765.61303 141.78906)
(-38.223283 -115.7984 -98.710959)
(-131.20102 -223.0034 -102.94434)
(-280.24978 -318.93113 -112.98089)
(-479.35091 -400.72621 -120.26581)
(-707.91368 -461.90477 -130.68717)
(-979.14602 -512.22723 -138.51037)
(-1267.4108 -543.10548 -145.35775)
(-1579.0243 -561.67145 -147.4853)
(-1904.3303 -569.15373 -146.93133)
(-2238.2907 -564.13527 -140.7556)
(-2578.0942 -552.3801 -130.73166)
(-2920.6623 -534.08748 -116.39086)
(-3263.2812 -511.16542 -98.406443)
(-3605.3953 -485.95002 -77.135264)
(-3945.9681 -459.26436 -53.210927)
(-4285.2588 -432.53082 -27.01883)
(-4623.4472 -405.76301 0.63617581)
(-4961.0517 -380.64487 30.281072)
(-5298.3248 -355.47998 60.136594)
(-5636.2517 -331.49521 91.541905)
(-5973.7889 -309.15926 123.06185)
(-6311.9611 -286.47949 154.41996)
(-6650.1588 -265.37637 186.35095)
(2.3170066 84.121898 123.18382)
(-129.5225 177.22489 60.256889)
(-290.39611 279.06017 38.078405)
(-487.8784 361.44487 -7.4888536)
(-723.63477 432.21068 -47.743352)
(-998.65377 509.17755 -87.074055)
(-1282.3115 563.68826 -118.66627)
(-1592.8082 618.73834 -148.97029)
(-1911.1909 667.34227 -168.68545)
(-2238.7323 708.18304 -183.98604)
(-2570.48 747.60639 -189.85457)
(-2903.7714 781.73579 -189.51137)
(-3237.7334 814.41861 -181.78457)
(-3570.6639 844.99531 -167.97403)
(-3902.8672 874.53502 -148.97098)
(-4234.2124 903.21124 -125.64412)
(-4565.3673 931.54857 -98.954145)
(-4896.739 959.16219 -70.07901)
(-5228.8635 986.08403 -39.42958)
(-5562.057 1012.2784 -8.2625296)
(-5896.3267 1036.9222 23.502058)
(-6231.758 1060.3167 54.78174)
(-6567.4529 1082.0893 86.090077)
(-4.8813632e-16 1.9183015e-16 -1.0607077e-16)
(-2.6214496e-15 -5.6404768e-16 7.244144e-16)
(-2.4010456e-15 1.4295629e-15 -1.6975308e-16)
(-40.521488 72.309022 -102.81095)
(-136.22214 282.99481 -139.557)
(-272.30769 320.35665 -137.14676)
(-452.10845 435.87553 -154.57339)
(-682.20849 520.42693 -181.58961)
(-927.48211 566.63423 -188.66381)
(-1206.4476 622.58293 -207.40978)
(-1500.987 658.44308 -217.15012)
(-1810.2689 686.14398 -223.44954)
(-2128.7149 708.1914 -225.66195)
(-2453.3588 723.52851 -221.97662)
(-2781.401 737.86681 -213.9243)
(-3111.7146 750.28667 -201.01336)
(-3442.2256 762.87306 -183.8025)
(-3773.5259 777.29818 -162.8328)
(-4104.837 792.69635 -138.27165)
(-4436.8863 810.6658 -110.97493)
(-4769.7437 830.1136 -81.222493)
(-5103.6775 851.14689 -49.80529)
(-5438.7527 873.0953 -17.10125)
(-5774.7847 895.24099 16.166309)
(-6111.3236 917.20162 49.630406)
(-6447.8701 938.68769 82.712025)
(-6805.0685 621.87935 140.39434)
(-6825.3598 285.52869 165.36865)
(-6846.3289 -51.058059 190.38682)
(-6530.2917 -408.50528 183.67605)
(-6192.6923 -429.7598 151.04279)
(-5854.9176 -450.5769 119.11225)
(-5517.6032 -470.84509 86.824403)
(-5181.0339 -490.4391 54.802971)
(-4844.9911 -509.21102 23.337351)
(-4509.7015 -526.6588 -7.2059169)
(-4174.6454 -542.62578 -36.081514)
(-3839.5602 -556.47611 -62.469553)
(-3504.1131 -567.66459 -85.526156)
(-3168.0115 -575.20525 -104.02919)
(-2832.3449 -578.37704 -117.27078)
(-2496.8554 -575.19116 -124.69091)
(-2164.2812 -566.77576 -123.42071)
(-1838.8892 -549.05148 -118.82863)
(-1519.7764 -521.6286 -103.38527)
(-1216.1492 -488.49038 -82.082544)
(-928.75002 -441.95359 -56.667162)
(-671.34367 -388.58716 -25.049528)
(-438.15606 -321.148 4.6730452)
(-243.21541 -255.81551 40.463154)
(-100.65833 -159.99337 68.833162)
(-32.543234 -90.145435 65.642806)
(-1.3028228e-15 -3.4252847e-16 3.3068324e-16)
(-2.0449562e-15 -3.5718549e-16 -7.3673077e-16)
(-1.4121951e-15 -1.0527101e-15 6.223458e-16)
(-1.2019486e-15 6.189313e-16 -3.4292956e-16)
(-1.2511779e-16 -6.848356e-17 2.1836215e-16)
(-3.8898857e-17 4.7141393e-16 -3.1043199e-16)
(-6873.4542 1066.8628 116.11148)
(-6844.0662 1031.5928 115.54519)
(-6814.3527 996.16234 115.50825)
(-6957.7586 -280.9514 217.01821)
(-6927.6196 -316.34156 216.16274)
(-6897.3347 -351.91296 216.23165)
(7.3609325 -60.220812 -71.838227)
(-98.637875 -113.1328 -58.262493)
(-251.03945 -160.1749 -77.980815)
(-454.16099 -197.31697 -89.746375)
(-690.3838 -227.03551 -107.31215)
(-964.647 -246.11943 -121.87337)
(-1256.5669 -255.25526 -134.08307)
(-1571.1367 -257.74213 -144.099)
(-1897.3327 -251.39048 -148.29147)
(-2231.5386 -238.67074 -147.84342)
(-2571.6989 -222.01694 -142.29175)
(-2912.7956 -200.43344 -132.08954)
(-3254.377 -176.61235 -117.13919)
(-3594.7665 -150.96788 -98.232713)
(-3933.6227 -124.46962 -75.95994)
(-4271.2924 -97.59252 -50.864709)
(-4607.6219 -71.045898 -23.50897)
(-4944.0941 -45.09842 5.6545829)
(-5280.0945 -19.456055 35.59342)
(-5617.0071 4.6249007 66.991384)
(-5953.6458 28.130317 98.08017)
(-6291.5439 50.769604 129.72942)
(-6629.0177 72.066786 161.2742)
(22.300456 -13.684387 -6.0459614)
(-94.249833 -16.062182 -15.944871)
(-245.40906 -21.081434 -39.762263)
(-448.14261 -21.919382 -65.024226)
(-690.28329 -12.912136 -87.928812)
(-961.17178 -4.588942 -110.66292)
(-1255.9971 9.0283171 -130.19247)
(-1570.2881 26.700983 -145.08177)
(-1894.9581 47.0256 -154.52484)
(-2229.8325 70.141922 -158.75019)
(-2567.8162 95.520883 -156.94683)
(-2907.8217 122.37926 -149.58714)
(-3247.6573 150.31001 -136.84361)
(-3586.1829 178.48552 -119.75597)
(-3923.3169 206.96784 -98.576591)
(-4258.9715 234.99861 -74.191908)
(-4593.8272 262.56479 -47.309684)
(-4928.6068 289.4039 -18.548762)
(-5263.0845 315.40371 11.519234)
(-5598.992 340.40894 42.439118)
(-5934.7351 364.25608 73.740157)
(-6271.902 387.42044 105.06357)
(-6608.8063 409.09871 136.31533)
(31.013712 25.934763 34.666385)
(-99.2387 58.761235 17.818839)
(-245.09728 97.804825 -7.6177068)
(-456.68888 143.12536 -37.974883)
(-695.68542 188.78877 -67.90808)
(-967.43655 224.74449 -98.028116)
(-1263.5776 268.85232 -123.71109)
(-1574.7493 305.11129 -144.71672)
(-1899.8731 342.12444 -160.20729)
(-2231.7226 378.65438 -169.42885)
(-2567.7215 412.50018 -171.74656)
(-2905.352 446.3004 -167.85609)
(-3242.625 478.29461 -158.04565)
(-3578.7517 509.53791 -142.82055)
(-3913.5004 539.69684 -122.96681)
(-4247.0462 568.91327 -99.424093)
(-4580.2035 597.18903 -72.891743)
(-4912.9502 624.57202 -44.139809)
(-5246.7227 651.03682 -14.121196)
(-5580.8347 676.30816 17.118193)
(-5916.229 700.54379 48.276906)
(-6252.2727 723.74049 79.806871)
(-6588.4428 745.05817 111.09112)
(-2.5953868e-15 -2.1703571e-16 4.2716933e-18)
(-3.8783653e-15 3.5858996e-16 7.5215743e-16)
(-9.8459492e-16 7.8127033e-16 2.7525688e-16)
(-3.9146975e-16 7.8165185e-18 1.2560621e-16)
(1.6350797e-16 -2.4226884e-16 -1.2066667e-17)
(-1.0304172e-15 -9.2669207e-16 -7.5672327e-16)
(-6.4481012e-16 3.525084e-16 2.7116342e-16)
(-3.5205005e-15 9.4737515e-16 -2.5196009e-17)
(-3.8147498e-15 1.043275e-15 1.2924308e-16)
(-48.989862 40.773575 52.159989)
(-65.253441 56.960941 4.0623753)
(-62.24208 39.280836 -35.425785)
(-185.46145 234.27385 12.996231)
(-178.84614 240.50749 -28.764329)
(-174.38345 233.34711 -85.304607)
(-310.85871 293.81204 -8.8478365)
(-317.23009 289.98233 -48.542183)
(-313.18092 321.39151 -101.31245)
(-507.63185 388.98697 -49.876325)
(-508.84088 409.38606 -84.483185)
(-487.87346 407.95475 -121.89824)
(-741.60851 469.6519 -83.217357)
(-731.02975 476.2157 -110.88696)
(-718.26939 497.11141 -149.83387)
(-995.68374 531.79755 -116.10974)
(-986.09122 541.95996 -144.14041)
(-964.55051 552.06348 -168.87705)
(-1279.7001 587.94293 -146.34084)
(-1264.7095 599.22062 -164.5841)
(-1242.6253 609.02003 -190.71403)
(-1581.2211 637.16337 -169.64567)
(-1560.783 641.1324 -186.92215)
(-1536.9578 648.89787 -205.18824)
(-1894.4433 678.17718 -187.38465)
(-1872.2362 681.83682 -201.5384)
(-1844.3476 682.21704 -215.19517)
(-2217.5994 714.78786 -198.37964)
(-2191.1913 711.7167 -209.13804)
(-2163.2091 709.56154 -219.78128)
(-2544.7881 745.63729 -201.64857)
(-2517.4213 739.28998 -211.24462)
(-2487.059 731.23986 -218.5568)
(-2875.8129 774.5096 -199.11297)
(-2846.0247 762.9524 -206.46554)
(-2814.9253 750.4575 -211.68673)
(-3207.4972 800.64486 -189.37295)
(-3176.8601 785.05991 -195.73647)
(-3144.8908 768.28871 -199.66054)
(-3539.3476 826.08392 -174.43824)
(-3507.7733 806.30208 -180.00209)
(-3475.3722 785.32657 -182.8137)
(-3870.9506 850.87117 -154.41563)
(-3839.1185 827.75308 -159.28429)
(-3806.3965 803.58644 -161.72778)
(-4202.2519 875.94942 -130.32291)
(-4170.2691 849.69857 -135.003)
(-4137.6098 822.55718 -137.09053)
(-4533.6117 901.15802 -103.24991)
(-4501.8912 872.35619 -107.49032)
(-4469.2524 843.05461 -109.48737)
(-4865.4411 926.53311 -73.701191)
(-4833.8601 895.85511 -77.711203)
(-4801.7286 864.75484 -79.532928)
(-5197.9572 951.99805 -42.793696)
(-5166.974 919.61047 -46.334184)
(-5135.1801 887.20477 -48.025591)
(-5531.6466 977.02804 -10.871611)
(-5500.9252 943.62571 -13.930435)
(-5469.6352 910.16831 -15.402417)
(-5866.317 1001.273 21.280902)
(-5835.9778 966.989 18.729019)
(-5805.1515 932.78451 17.672217)
(-6201.8186 1024.5548 53.160898)
(-6171.6716 989.6704 51.451221)
(-6141.2066 954.63396 50.758336)
(-6537.7029 1046.2688 85.202306)
(-6507.6134 1011.0955 84.27489)
(-6477.5886 975.85135 83.665689)
(-6936.6178 56.826448 191.85079)
(-6906.6707 21.301948 191.00392)
(-6876.3758 -14.534181 190.98674)
(-6915.7213 393.6568 166.99784)
(-6885.6867 358.29954 165.92229)
(-6855.7968 322.194 166.06548)
(-6894.4101 730.09044 141.17365)
(-6864.6624 694.94794 140.66987)
(-6834.8345 658.65612 140.61331)
(-85.598502 -96.913478 -47.049874)
(-74.396623 -100.46467 -14.307464)
(-80.165626 -88.375886 26.865082)
(-166.03468 -204.45418 -54.049851)
(-161.93949 -196.84259 -6.6513705)
(-147.46289 -182.66859 32.861822)
(-313.35602 -311.09445 -70.583143)
(-305.28708 -290.20828 -38.234349)
(-294.59032 -281.48337 8.4155978)
(-497.5892 -378.65157 -84.643702)
(-494.33631 -363.93491 -54.312058)
(-477.01085 -347.01122 -20.356017)
(-726.89409 -449.75194 -104.2613)
(-720.7253 -431.85917 -77.477969)
(-704.2199 -416.19475 -50.129174)
(-986.3578 -496.23012 -117.74803)
(-977.22748 -477.68583 -99.174274)
(-961.43596 -464.22557 -76.846187)
(-1270.6583 -530.81388 -130.67148)
(-1261.9422 -518.72409 -115.51093)
(-1244.3399 -504.96544 -98.404915)
(-1576.445 -555.29987 -139.29319)
(-1565.0826 -542.84093 -127.94721)
(-1546.1128 -533.66755 -116.01404)
(-1895.7613 -565.46654 -141.97114)
(-1881.782 -559.20267 -136.52433)
(-1861.7945 -554.44297 -128.06732)
(-2224.7486 -566.5386 -141.22758)
(-2209.3162 -566.02518 -136.9226)
(-2188.7231 -564.92773 -132.03528)
(-2561.1099 -559.19694 -133.11678)
(-2542.7321 -563.02692 -131.58333)
(-2520.341 -566.96769 -129.27637)
(-2899.665 -545.5281 -120.94184)
(-2879.3066 -555.01279 -121.44046)
(-2855.9318 -564.01777 -120.90475)
(-3239.7627 -527.2174 -104.00404)
(-3217.4284 -541.85632 -105.51585)
(-3192.7379 -555.60755 -106.02427)
(-3579.7209 -505.92845 -83.059355)
(-3555.5522 -525.41168 -85.265963)
(-3529.6778 -543.42408 -86.73942)
(-3918.8742 -482.80139 -58.92919)
(-3893.2229 -506.41569 -61.454844)
(-3866.3256 -528.36865 -62.968469)
(-4257.2997 -458.86539 -32.271075)
(-4230.2626 -486.26722 -34.563806)
(-4202.5757 -511.50868 -36.268822)
(-4594.89 -435.00617 -3.4432856)
(-4566.9559 -465.2682 -5.7339316)
(-4538.5845 -493.22311 -7.1081759)
(-4932.2471 -411.61887 26.614934)
(-4903.5635 -443.94154 24.73249)
(-4874.6686 -474.19101 23.576869)
(-5269.6814 -388.27131 57.712337)
(-5240.3318 -422.46503 56.196365)
(-5211.0871 -454.37396 55.22003)
(-5607.1356 -366.0583 89.686627)
(-5577.3585 -400.78182 87.932073)
(-5547.9887 -434.1646 87.38418)
(-5944.6815 -344.03063 121.65973)
(-5914.6653 -379.6741 120.30414)
(-5885.2927 -413.67543 119.77614)
(-6282.4034 -322.45196 153.00329)
(-6252.5514 -357.70345 152.40547)
(-6222.884 -392.73972 151.84541)
(-6620.1644 -301.18885 185.60799)
(-6590.4351 -336.70016 185.2774)
(-6560.2778 -372.00537 184.4025)
(15.410796 -19.093631 31.464947)
(-76.843804 -81.384187 15.803606)
(-212.12423 -83.429362 -15.930532)
(-416.88727 -125.68546 -35.677212)
(-645.69852 -150.75959 -64.113728)
(-910.06825 -176.55938 -89.512927)
(-1198.7437 -200.49964 -111.54375)
(-1503.1904 -218.00441 -128.97583)
(-1822.9381 -232.97591 -139.43155)
(-2150.032 -242.22814 -145.63197)
(-2482.3042 -246.81271 -144.58672)
(-2817.3773 -247.31427 -136.77756)
(-3152.7954 -242.92631 -124.41536)
(-3488.1969 -235.07272 -106.48067)
(-3822.8629 -223.82549 -84.554577)
(-4157.1213 -209.76408 -59.255835)
(-4491.3075 -193.39941 -31.375071)
(-4825.8165 -175.16189 -1.5830314)
(-5161.1908 -155.51799 29.432363)
(-5497.2739 -134.97302 61.299402)
(-5834.1525 -113.66717 93.584281)
(-6171.9693 -92.378279 125.93494)
(-6509.3541 -71.300939 158.36923)
(29.246433 -7.2417078 -21.252678)
(-74.374518 21.474382 -31.384743)
(-222.19305 46.046722 -55.335312)
(-419.76156 49.063533 -74.864491)
(-644.23404 56.059948 -96.84613)
(-908.96361 62.390029 -122.21197)
(-1192.4224 60.958558 -139.58227)
(-1496.5554 62.547742 -155.11687)
(-1813.5655 63.359295 -166.08781)
(-2138.2763 65.143428 -169.78823)
(-2469.5242 69.226648 -168.37057)
(-2802.7761 74.874116 -161.19249)
(-3136.9348 83.501393 -148.81945)
(-3471.2779 94.101062 -131.26641)
(-3805.0982 107.34595 -109.90453)
(-4138.6644 122.66104 -85.029216)
(-4472.3179 140.05099 -57.392757)
(-4806.5608 158.86773 -27.785217)
(-5141.4879 179.36653 3.3495453)
(-5477.5029 200.37541 35.246382)
(-5814.1929 222.14022 67.809641)
(-6151.7271 243.77885 100.12134)
(-6488.6478 265.49071 133.08209)
(33.5367 52.615384 -59.914898)
(-99.50935 98.306921 -76.668786)
(-233.43458 193.61289 -111.86577)
(-420.53755 208.46207 -113.95067)
(-650.18624 270.56067 -143.74195)
(-910.86343 300.93118 -159.1705)
(-1191.5121 325.63726 -173.78959)
(-1495.24 351.33756 -187.33226)
(-1808.1966 365.48503 -193.84514)
(-2132.5876 380.74226 -196.20507)
(-2461.0394 392.56414 -193.58339)
(-2792.541 404.01636 -185.45223)
(-3125.2938 415.86151 -172.69695)
(-3457.955 428.32531 -155.37021)
(-3790.5037 442.38893 -134.44626)
(-4122.9322 457.9957 -109.97502)
(-4455.6786 475.24702 -82.931572)
(-4789.0905 494.20849 -53.638429)
(-5123.4555 514.52958 -22.756535)
(-5458.9117 535.72176 9.1315321)
(-5795.173 557.73828 41.956075)
(-6132.0252 579.62192 74.676766)
(-6468.5689 601.53652 107.9659)
(-20.085377 -23.431804 -32.118875)
(-16.302475 -26.679013 -12.574292)
(-23.555389 -18.394117 13.704585)
(-131.7825 -105.73526 -32.854576)
(-135.66839 -96.086063 -14.517328)
(-117.70354 -89.28085 8.800469)
(-279.25335 -139.45071 -54.300828)
(-267.43263 -125.83643 -38.017224)
(-258.68811 -114.36046 -26.345275)
(-472.11045 -182.18046 -72.927722)
(-470.58328 -168.63735 -59.733336)
(-454.01696 -148.77982 -47.410123)
(-706.35996 -210.55174 -91.517512)
(-698.33296 -191.58187 -84.459035)
(-683.1427 -176.66191 -73.296559)
(-970.25378 -229.27771 -112.71826)
(-961.68544 -216.14889 -106.11178)
(-942.09706 -200.00404 -98.661388)
(-1258.0694 -243.18253 -128.22932)
(-1247.0552 -230.90686 -124.88349)
(-1228.6876 -217.63653 -119.24096)
(-1566.0458 -249.0643 -141.01835)
(-1553.1052 -239.28577 -139.10035)
(-1531.5362 -230.60917 -135.81769)
(-1887.0885 -246.54746 -148.6918)
(-1870.8394 -242.54772 -148.44961)
(-1849.2067 -238.50756 -145.94572)
(-2217.0836 -240.34055 -149.96129)
(-2199.3468 -240.96906 -150.85334)
(-2176.1301 -241.14346 -149.49824)
(-2553.2281 -228.02979 -145.8736)
(-2532.8154 -233.27336 -147.85668)
(-2507.8596 -239.23204 -147.94699)
(-2891.0679 -211.66246 -136.72695)
(-2868.7162 -222.7777 -139.06995)
(-2843.1775 -233.41939 -139.49921)
(-3230.2878 -192.73945 -122.17895)
(-3206.114 -208.3676 -124.81107)
(-3179.247 -223.77093 -125.73334)
(-3568.6969 -171.2683 -103.35248)
(-3542.9734 -191.46034 -106.01239)
(-3515.1613 -210.95842 -107.33167)
(-3906.3134 -148.47586 -80.812808)
(-3879.323 -172.45072 -83.407585)
(-3850.7627 -195.81531 -84.675483)
(-4242.9789 -124.80285 -55.253522)
(-4215.023 -152.22326 -57.522975)
(-4185.814 -178.58011 -58.955468)
(-4579.0047 -100.99241 -27.297688)
(-4550.331 -130.84596 -29.420393)
(-4520.6753 -159.81801 -30.675968)
(-4914.9739 -76.985179 2.3075322)
(-4885.7105 -108.8485 0.57166883)
(-4855.8745 -139.93763 -0.6824808)
(-5250.9793 -53.034872 33.126139)
(-5221.5133 -86.588976 31.646773)
(-5191.3419 -119.28716 30.517893)
(-5587.727 -30.392776 64.737763)
(-5557.7746 -64.457131 63.488337)
(-5527.9802 -98.207024 62.349042)
(-5924.4471 -7.3185088 96.519829)
(-5894.2571 -41.775852 95.571658)
(-5864.6585 -76.742035 94.727423)
(-6261.9656 14.654193 128.50401)
(-6232.2131 -20.152304 127.76797)
(-6202.3937 -55.904029 126.76169)
(-6599.4533 36.32265 160.59898)
(-6569.5712 1.0541237 159.84965)
(-6539.4492 -34.799272 159.15886)
(-1.6663391 -6.6260086 -0.28099044)
(-6.9194803 -9.3111759 -0.73457395)
(-12.287795 -5.5503739 -5.3299647)
(-121.8748 -5.7895022 -8.7022267)
(-124.54604 -2.3210001 -13.270321)
(-104.09306 9.0911898 -19.414862)
(-272.95515 -6.8335239 -38.267058)
(-267.8648 7.5082808 -50.077564)
(-259.51199 20.507754 -48.897936)
(-465.35265 0.4217106 -60.435666)
(-469.99355 16.950398 -68.506463)
(-449.88424 38.265006 -69.431959)
(-704.37714 4.7104672 -89.266474)
(-696.31608 22.796092 -99.680784)
(-677.06771 35.618725 -94.328177)
(-966.50264 13.828537 -113.24096)
(-958.14348 30.246343 -118.76848)
(-938.59691 45.952705 -119.68779)
(-1255.7394 23.293085 -132.79756)
(-1243.9422 37.800661 -140.98593)
(-1221.7223 50.595896 -138.84356)
(-1564.1594 37.930927 -150.73123)
(-1547.6911 47.514776 -156.35014)
(-1525.122 54.535409 -155.58329)
(-1883.6086 52.753394 -160.13353)
(-1865.0901 57.457027 -165.2127)
(-1841.5057 62.047701 -165.82086)
(-2213.7586 70.657468 -165.30901)
(-2191.9622 70.459834 -170.26846)
(-2167.2857 69.291165 -170.98146)
(-2547.6827 90.811997 -163.87751)
(-2523.8344 85.058686 -167.62493)
(-2498.0552 79.045066 -169.12037)
(-2884.6043 112.22881 -156.43695)
(-2858.6558 100.83323 -159.9975)
(-2832.085 89.95877 -162.14835)
(-3221.9085 135.11931 -143.53944)
(-3194.5569 118.85867 -146.77045)
(-3166.8414 103.79151 -149.08144)
(-3558.6531 158.93609 -126.04754)
(-3530 138.21518 -128.78366)
(-3501.6805 118.63527 -131.67673)
(-3894.5466 183.46981 -104.29681)
(-3865.1621 158.60194 -106.892)
(-3836.1198 135.66578 -109.76195)
(-4229.5536 208.12538 -79.336524)
(-4199.5812 180.11425 -81.594176)
(-4170.062 154.03122 -84.710125)
(-4564.0856 233.00471 -51.740412)
(-4533.8516 202.44655 -53.882529)
(-4503.936 173.81119 -56.779366)
(-4898.6872 257.72245 -22.27839)
(-4868.316 225.08478 -24.122654)
(-4838.1608 194.47645 -26.973689)
(-5233.4105 282.03036 8.4656498)
(-5203.0428 248.27801 6.7101508)
(-5172.9185 215.81138 4.2955784)
(-5569.1794 305.874 40.03006)
(-5538.9441 270.75254 38.553792)
(-5508.6347 237.88008 36.285228)
(-5904.8932 329.31603 72.154831)
(-5875.3952 293.76079 69.954195)
(-5844.6842 259.70114 68.935967)
(-6242.3508 351.68161 103.50189)
(-6212.1451 316.65085 102.47867)
(-6182.0695 281.07852 101.1299)
(-6578.8354 373.56953 135.62913)
(-6548.9918 338.10796 134.87487)
(-6518.8643 302.42581 134.00163)
(-4.7784338 27.342502 13.647527)
(1.3008896 24.747215 -5.9041881)
(0.32334226 26.332955 -27.998942)
(-141.49254 74.039323 -0.050235167)
(-145.44182 64.255409 -27.099638)
(-133.09401 82.947243 -50.711228)
(-276.9332 125.64444 -27.995511)
(-275.71174 153.35608 -52.663724)
(-272.28396 165.89593 -79.727276)
(-482.66129 177.70585 -55.280319)
(-473.84 179.79174 -77.175339)
(-463.30421 198.62194 -95.711499)
(-710.51407 214.08001 -86.898952)
(-702.68501 234.5901 -105.53554)
(-689.13589 248.97046 -121.41268)
(-976.1621 255.97759 -112.54787)
(-963.23738 269.24446 -128.0034)
(-945.98732 284.24708 -142.31451)
(-1263.7737 292.74943 -138.46519)
(-1246.8275 303.2809 -152.97543)
(-1228.1071 313.91538 -163.26079)
(-1568.1516 323.68812 -157.95773)
(-1549.7759 333.1428 -167.7163)
(-1527.6882 340.98716 -177.41118)
(-1887.2644 355.84335 -171.84672)
(-1865.6047 359.19791 -181.38709)
(-1841.2246 362.79858 -188.87396)
(-2213.6903 384.63481 -180.26107)
(-2190.1504 384.30701 -187.18531)
(-2163.6303 382.49779 -192.60971)
(-2545.5823 412.23041 -181.27014)
(-2520.3413 406.61228 -186.94886)
(-2491.9087 400.0634 -191.64353)
(-2879.8983 439.24325 -176.39856)
(-2852.9504 428.55856 -181.2208)
(-2822.9408 417.12193 -184.80736)
(-3214.6426 465.06307 -165.69129)
(-3186.6323 450.07615 -169.53263)
(-3155.5005 434.0144 -172.52039)
(-3549.1834 490.92938 -149.60038)
(-3520.232 471.52224 -152.90407)
(-3488.19 451.03252 -155.65189)
(-3882.9237 516.31047 -129.01286)
(-3853.3982 493.1832 -132.0582)
(-3820.8547 469.12322 -134.47477)
(-4216.0799 541.64368 -104.81802)
(-4186.1876 515.49547 -107.43757)
(-4153.3156 488.14762 -109.87289)
(-4549.0335 566.87667 -77.537737)
(-4518.9492 538.16884 -80.097777)
(-4486.1611 508.15288 -82.430576)
(-4882.1043 592.0423 -48.280452)
(-4851.9583 561.34212 -50.530667)
(-4819.3903 529.16592 -52.852229)
(-5215.9326 616.74454 -17.455628)
(-5185.8262 584.56043 -19.527749)
(-5153.7627 550.93764 -21.688241)
(-5550.4292 641.11131 14.27369)
(-5520.375 608.0484 12.383782)
(-5488.8871 573.06268 10.374334)
(-5886.0871 664.92427 46.180794)
(-5856.0815 631.01166 44.759418)
(-5825.0562 595.48416 43.119013)
(-6222.1304 687.78612 78.229173)
(-6192.0151 653.38151 76.988548)
(-6161.5686 617.26134 75.935798)
(-6558.3959 709.67985 110.33301)
(-6528.5737 674.75894 109.51569)
(-6498.4192 638.12301 108.59354)
)
;

boundaryField
{
    free
    {
        type            zeroGradient;
    }
    fixed
    {
        type            fixedValue;
        value           nonuniform List<vector> 
25
(
(-2.5953868e-15 -2.1703571e-16 4.2716933e-18)
(-1.3028228e-15 -3.4252847e-16 3.3068324e-16)
(-1.9658614e-16 -3.2115893e-17 -1.1045223e-16)
(-3.6361799e-15 2.112754e-16 -3.2990721e-16)
(-3.8783653e-15 3.5858996e-16 7.5215743e-16)
(-2.0449562e-15 -3.5718549e-16 -7.3673077e-16)
(-9.8459492e-16 7.8127033e-16 2.7525688e-16)
(-1.4121951e-15 -1.0527101e-15 6.223458e-16)
(-4.8813632e-16 1.9183015e-16 -1.0607077e-16)
(6.5239771e-16 2.739523e-16 -5.5565719e-16)
(-3.9146975e-16 7.8165185e-18 1.2560621e-16)
(1.4766345e-16 -3.4299605e-16 -2.8648028e-16)
(1.6350797e-16 -2.4226884e-16 -1.2066667e-17)
(-1.0304172e-15 -9.2669207e-16 -7.5672327e-16)
(-2.6214496e-15 -5.6404768e-16 7.244144e-16)
(-6.4481012e-16 3.525084e-16 2.7116342e-16)
(-1.0135278e-15 7.0169807e-16 1.7538027e-16)
(-3.5205005e-15 9.4737515e-16 -2.5196009e-17)
(-3.8147498e-15 1.043275e-15 1.2924308e-16)
(-2.4010456e-15 1.4295629e-15 -1.6975308e-16)
(-1.2019486e-15 6.189313e-16 -3.4292956e-16)
(2.8178306e-17 1.9013092e-16 6.1994168e-17)
(-1.2511779e-16 -6.848356e-17 2.1836215e-16)
(-3.8898857e-17 4.7141393e-16 -3.1043199e-16)
(-3.7042918e-15 1.4868296e-15 -1.3023874e-15)
)
;
    }
    freeTop
    {
        type            zeroGradient;
    }
}


// ************************************************************************* //
