/*--------------------------------*- C++ -*----------------------------------*\
  =========                 |
  \\      /  F ield         | OpenFOAM: The Open Source CFD Toolbox
   \\    /   O peration     | Website:  https://openfoam.org
    \\  /    A nd           | Version:  6
     \\/     M anipulation  |
\*---------------------------------------------------------------------------*/
FoamFile
{
    version     2.0;
    format      ascii;
    class       pointScalarField;
    location    "0.09";
    object      E;
}
// * * * * * * * * * * * * * * * * * * * * * * * * * * * * * * * * * * * * * //

dimensions      [1 -1 -2 0 0 0 0];

internalField   nonuniform List<scalar> 
28033
(
22324.078
16356.303
21018.252
21092.417
24401.334
18674.915
20994.898
20869.266
12736.667
8667.816
5769.9723
3840.3007
2177.3405
1135.5912
495.4743
183.3638
351.27313
838.34967
1833.8535
3389.6556
5538.5021
8237.7666
13657.557
20809.476
20907.277
20867.454
20891.93
21012.223
21023.423
21155.07
21213.921
21297.005
21356.924
21374.17
21294.942
21314.154
21161.099
20991.934
16716.43
9948.4908
9115.9591
8707.4349
8562.9673
8334.3586
8091.133
7764.6103
7446.6977
7087.5791
6709.3968
6350.4262
5992.1027
5668.0743
5344.0682
5035.5696
4755.2788
4509.1305
4266.3306
4018.0456
3815.7519
3591.6867
3398.6266
3217.854
3023.9627
2848.7731
2687.3859
2544.076
2363.1479
2273.3172
2128.2602
1982.3963
1849.176
1754.7251
1692.9418
1615.1632
1539.2281
1511.4676
1483.0894
1447.6642
1471.3896
1486.4037
1529.1859
1597.2543
1691.5822
1816.3578
1973.5293
2162.7254
2386.6286
2639.6298
2921.8619
3227.9363
3555.5297
3900.4045
4258.972
4627.942
5002.8938
5380.3389
5756.9261
6127.7991
6490.1593
6842.19
7186.3984
7499.8091
7839.4484
8140.7367
8469.3836
8746.8643
9059.1728
9385.0997
9738.7511
10118.867
10545.139
11011
11524.45
12089.35
12694.265
13337.58
14017.505
14698.797
15386.032
16079.698
16708.416
17331.218
17860.216
18382.755
18815.597
19207.348
19512.448
19813.792
19999.091
20175.077
20413.458
20581.21
20736.028
12388.059
6944.4911
7542.0807
6789.3884
6720.5255
6509.1076
6198.0857
5951.8886
5644.3058
5283.6048
5008.6522
4631.5315
4356.1351
4049.5407
3788.2054
3557.2989
3293.0257
3094.4771
2907.5434
2699.3002
2536.1245
2380.5091
2185.1235
2104.546
1935.5899
1837.3322
1735.5247
1616.3322
1548.1091
1425.4609
1368.5001
1280.5091
1240.2992
1187.1875
1174.0159
1148.7521
1145.4521
1113.7694
1131.4299
1167.7217
1204.7869
1267.827
1350.3388
1455.6003
1584.8717
1741.6945
1927.2089
2143.1094
2391.6531
2673.2619
2988.3724
3335.2512
3709.9707
4107.6354
4520.9276
4943.5663
5368.1871
5789.6666
6203.2327
6605.9035
6995.2801
7371.2211
7731.1255
8076.9829
8408.3275
8721.4565
9035.8776
9323.0268
9621.3634
10007.748
10255.183
10691.992
11052.04
11505.958
11986.575
12522.918
13106.958
13721.495
14390.991
15065.381
15759.026
16433.251
17078.262
17672.479
18206.987
18666.942
19060.029
19380.73
19648.242
19864.107
20051.535
20219.046
20382.262
20564.358
20780.11
15406.369
10015.372
6953.4266
5228.7416
2744.9993
1529.3651
777.19031
382.54866
486.81098
1225.9691
2081.4739
3819.7865
6057.8364
9489.3046
13477.424
23718.905
10098.524
5847.831
8285.5624
6576.3321
7022.6932
6330.7927
6181.3791
5706.0596
5423.6597
4927.0018
4703.5878
4265.8872
4061.3566
3646.009
3389.832
3366.0363
2787.9904
2900.487
2382.3412
2299.0836
2333.5672
2037.9115
1876.679
1710.1316
1447.8989
1621.0934
1187.4253
1438.7934
1081.9572
1006.4008
908.04589
848.37999
771.35887
665.46797
1048.679
645.80602
785.18234
764.21791
806.05922
862.64902
928.16286
1012.8121
1122.2487
1252.3919
1413.3029
1603.9581
1829.2674
2087.6292
2380.7358
2702.9118
3051.6582
3419.8212
3802.476
4194.4703
4592.0323
4992.9556
5395.583
5799.0706
6201.7316
6601.3872
6994.2604
7376.7051
7742.6134
8096.3673
8420.8739
8733.721
9172.7384
9565.4118
9588.5959
10056.872
10428.069
10828.379
11311.749
11831.39
12401.685
13021.825
13679.47
14366.534
15065.262
15760.588
16432.514
17065.349
17645.818
18165.622
18622.498
19018.272
19357.798
19648.693
19896.601
20112.889
20299.306
20486.225
20624.275
20840.073
20884.953
21143.236
21016.448
21228.122
20997.331
21233.051
20965.776
21061.504
20916.415
20946.746
20649.533
20884.537
20645.244
20779.606
20604.563
20751.305
20429.28
20390.918
20250.147
20077.188
19892.908
19663.42
19369.162
19015.989
18590.831
18095.207
17535.306
16925.312
16280.447
15582.866
14894.367
14200.272
13530.33
12892.419
12295.928
11747.209
11242.55
10794.509
10367.48
10022.31
9631.2164
9335.9111
8797.8499
8826.4395
8354.3645
8088.7305
7751.1156
7407.54
7048.4982
6679.7282
6299.8923
5913.5755
5524.1938
5135.0547
4750.4451
4374.3474
4011.2307
3665.4298
3340.9658
3041.8436
2770.192
2529.3925
2316.5577
2137.8656
1984.9785
1859.487
1760.8758
1685.793
1632.131
1589.9869
1584.491
1560.1577
1651.2388
1605.9171
1627.2101
1885.7705
1759.9346
1933.9794
2065.2465
2301.81
2266.4713
2544.7704
2554.8824
2838.9361
3049.3575
3259.382
3441.9846
3505.815
3865.3597
4052.67
4184.8477
4514.6008
4682.1276
5005.0848
5213.2211
5517.9867
5911.8762
6267.7829
6525.6476
7000.9248
7307.8447
7653.8264
8113.522
8384.987
8391.0168
8675.2246
9201.8363
9745.1046
8772.058
17999.179
14428.125
14423.267
14000.151
14109.373
14427.009
14648.21
14647.288
14767.373
14805.401
14738.955
14302.221
14017.233
14216.578
14431.373
15736.625
11776.518
12483.604
12376.41
13027.646
13101.453
13061.651
13723.969
14499.352
14221.135
14031.278
13365.554
12840.918
12476.683
11941.953
12902.54
20992.442
20764.691
20642.685
20484.528
20353.971
20256.453
20207.104
20194.243
20233.355
20305.401
20410.72
20519.611
20638.014
20758.547
20964.64
20808.336
20671.723
20511.912
20347.861
20201.618
20088.787
20019.273
20003.447
20046.708
20130.817
20255.831
20396.517
20496.083
20636.384
20816.157
11993.951
8486.4536
7653.2269
7206.7774
7037.4225
6860.3297
6700.1875
6521.5816
6294.9655
6047.3294
5774.83
5511.5001
5219.759
4952.8344
4681.6642
4448.4857
4216.8908
3994.2749
3777.5258
3608.9037
3404.5928
3238.02
3071.9977
2889.6311
2744.5689
2604.1931
2449.7384
2313.5857
2214.7876
2086.4881
1986.3815
1943.6451
1895.1507
1845.333
1818.0066
1765.07
1760.0339
1728.0101
1741.1037
1729.0623
1751.2728
1761.4351
1823.6027
1873.8478
1962.0617
2062.353
2193.329
2346.2453
2526.8679
2732.6886
2967.5325
3231.8022
3528.2453
3857.5584
4219.0788
4609.7243
5023.4043
5452.8646
5887.381
6318.6673
6736.3647
7136.154
7507.7309
7853.2528
8194.4004
8459.268
8691.834
9011.6585
9332.2339
9628.0843
9968.6954
10329.649
10735.045
11185.704
11689.807
12233.702
12833.171
13473.827
14148.852
14851.753
15564.296
16283.473
16988.022
17700.983
18353.584
18847.669
19327.853
19667.62
19984.905
20181.1
20350.907
20441.352
20585.217
20606.85
20662.641
7573.1205
5962.8336
5927.0757
5524.9072
5474.9505
5282.7498
5199.2797
5052.6619
4909.1409
4729.9209
4539.9678
4335.8668
4117.0581
3910.761
3699.2661
3509.8838
3308.5144
3145.4277
2982.9422
2831.2136
2689.4948
2564.2273
2448.2526
2340.5553
2251.4238
2159.0959
2086.8904
2027.4562
1962.5839
1926.7782
1895.7107
1851.6569
1814.7142
1776.9397
1761.0098
1738.563
1725.2936
1706.7877
1699.7722
1674.1291
1687.1407
1713.7273
1736.6622
1795.6288
1876.6849
1989.0266
2130.0733
2302.0092
2504.6021
2737.3481
3000.0626
3291.112
3609.4319
3952.8834
4318.2633
4701.7232
5097.6288
5499.7556
5901.3216
6296.074
6677.3464
7041.9654
7386.1803
7713.8565
8032.788
8272.278
8722.7182
9094.6115
9378.1502
9682.4505
10038.536
10434.795
10857.485
11325.184
11834.043
12399.355
13007.235
13658.055
14342.149
15059.334
15752.821
16494.559
17133.382
17760.487
18156.31
18713.041
19120.197
19510.72
19759.438
20060.074
20144.941
20349.358
20463.488
20542.925
20591.646
4766.1233
3800.3525
4181.9329
4024.6225
4040.0918
3922.7517
3872.8939
3782.4158
3674.419
3562.9747
3420.7329
3279.5193
3117.3213
2963.6742
2807.3926
2657.9804
2521.0232
2390.6684
2268.2652
2165.3811
2067.316
1986.0349
1908.6007
1845.7518
1791.3262
1754.0479
1719.3199
1695.1196
1683.9707
1676.1621
1664.8468
1669.8805
1676.3901
1679.5653
1694.1533
1680.0969
1661.2872
1643.1597
1633.9791
1634.9918
1642.7437
1661.3633
1689.3245
1755.4236
1836.7593
1944.5885
2081.455
2248.0627
2444.2177
2670.7253
2926.7782
3211.9754
3525.1874
3864.754
4227.3622
4609.3843
5004.2842
5406.5636
5807.902
6202.0758
6582.6234
6946.0866
7284.932
7620.815
7894.644
8247.3639
8445.7034
8776.1995
9120.6937
9458.1177
9828.2349
10208.252
10607.268
11085.141
11615.637
12175.686
12796.549
13442.63
14130.656
14834.619
15540.624
16238.724
16935.844
17501.672
18155.571
18683.122
19166.15
19487.501
19831.317
20023.777
20204.554
20343.46
20493.998
20544.213
20569.893
2971.6899
2314.3795
2637.6936
2749.6423
2806.7698
2811.7709
2800.5031
2749.8072
2690.4976
2612.1893
2512.7226
2409.6108
2288.2791
2180.1937
2053.7461
1954.3429
1841.4803
1755.2316
1666.323
1598.8931
1531.5888
1481.6854
1440.6142
1413.0265
1396.2548
1388.1308
1389.934
1401.7927
1419.2182
1437.5647
1467.7416
1490.6906
1513.5206
1529.108
1540.8287
1526.8901
1558.1482
1601.4399
1591.5636
1588.4198
1590.8277
1603.4049
1640.5062
1688.5261
1761.9078
1862.8967
1994.1388
2156.6477
2351.2005
2578.758
2837.92
3127.6132
3444.9937
3787.064
4149.0431
4526.4528
4912.6711
5302.5599
5688.4242
6066.7053
6431.2319
6776.0598
7114.5552
7413.8725
7733.3822
7994.2947
8342.0094
8562.3085
8884.546
9221.8208
9561.0279
9995.7977
10538.734
11070.569
11585.008
12171.044
12792.826
13459.151
14157.629
14864.341
15587.065
16290.381
16944.66
17617.093
18244.996
18734.818
19134.367
19508.633
19764.376
20031.606
20144.132
20344.139
20429.195
20525.712
20505.617
1789.6063
1234.0362
1624.4909
1716.1107
1864.4476
1904.5814
1927.9051
1913.2922
1884.6649
1840.4924
1775.1786
1704.8813
1627.2603
1542.783
1466.3305
1390.6902
1323.8551
1265.2663
1215.9375
1176.06
1145.743
1130.2211
1121.486
1125.8912
1136.9995
1161.7945
1193.2409
1232.9789
1275.7492
1327.2427
1372.5076
1418.1562
1459.645
1489.2226
1522.4183
1527.1063
1571.5229
1529.7144
1494.5692
1517.0964
1523.6559
1564.1947
1599.8432
1669.2176
1760.9945
1878.7413
2025.2079
2201.6551
2408.9913
2647.9926
2917.8909
3218.0068
3546.2506
3899.6835
4273.9522
4664.1865
5063.5283
5465.8735
5864.2647
6253.143
6623.9389
6984.6267
7315.3861
7636.1118
7945.1948
8241.6907
8534.8744
8822.1027
9159.5718
9489.2001
9846.5263
10275.134
10608.629
10962.395
11530.703
12102.375
12745.427
13411.512
14110.264
14832.012
15548.891
16254.505
16944.033
17561.02
18136.22
18630.407
19108.538
19456.185
19783.397
20011.69
20178.619
20342.237
20458.683
20560.864
20498.828
954.95032
598.68667
875.55151
983.5184
1138.2682
1221.0128
1268.5335
1289.5256
1284.2245
1262.7376
1216.6751
1175.4297
1109.0595
1059.971
995.69126
951.41815
899.6466
869.15826
835.47006
822.41446
811.20022
815.34555
824.16393
847.1984
878.50048
922.36223
969.44553
1025.2755
1086.35
1144.2661
1203.4789
1259.1704
1304.654
1346.7773
1375.7974
1384.042
1428.5394
1447.2008
1495.5186
1489.08
1498.275
1516.7248
1555.0784
1613.5928
1691.8734
1795.7152
1928.0502
2090.1116
2283.1905
2507.841
2763.7146
3050.0766
3364.6891
3704.5807
4065.1355
4441.5946
4826.6839
5215.901
5599.8019
5975.5603
6338.8129
6681.5331
7009.3828
7329.4162
7615.8223
7923.5198
8209.4698
8517.4158
8844.6141
9170.5721
9571.3563
9968.4237
10392.687
11051.297
11607.864
12214.584
12852.691
13526.864
14235.879
14947.607
15670.624
16371.176
17038.856
17665.623
18234.805
18739.172
19159.431
19525.85
19800.036
20056.702
20179.983
20379.899
20473.633
20586.81
20543.814
469.498
152.452
400.42605
495.78169
643.26533
737.23909
809.18747
841.03362
858.59785
849.74055
831.68048
796.07076
762.576
717.97806
683.43838
647.81265
622.23581
602.38621
593.57098
593.71493
602.5823
623.02007
649.39106
690.44035
739.96159
795.1024
860.46801
933.48572
1005.2336
1081.8211
1155.7604
1222.1506
1283.9151
1333.6852
1368.1186
1415.8243
1412.6904
1427.7919
1454.0393
1462.516
1480.1388
1514.9524
1564.5532
1634.3661
1725.9921
1845.6359
1992.3928
2167.6632
2372.5995
2606.5411
2869.4018
3159.6344
3475.5369
3814.2669
4171.9306
4544.4147
4925.4548
5310.0078
5690.4817
6064.7985
6422.0776
6766.0106
7096.1824
7398.7628
7706.9962
7992.4325
8290.6347
8590.4484
8900.2759
9259.0716
9611.8327
10034.071
10501.321
10984.865
11491.926
12075.29
12705.116
13373.023
14071.555
14784.375
15506.518
16209.51
16894.933
17532.709
18122.778
18648.037
19110.344
19497.212
19810.189
20072.841
20235.873
20433.795
20535.257
20669.723
20584.896
236.36375
-0.97872696
181.94905
271.47143
401.75549
517.55249
579.07778
626.0266
648.95215
652.17918
632.87316
615.3625
578.46013
550.53448
517.8289
494.07285
472.41604
463.68416
455.90867
460.35429
464.10796
482.25693
515.86434
562.65068
608.12402
674.38203
741.42169
813.23535
888.0975
963.29964
1031.7061
1097.3673
1152.7145
1196.3884
1243.2003
1248.9587
1282.4475
1292.2919
1297.7778
1305.6715
1331.3119
1359.5024
1407.2012
1471.6522
1559.5728
1673.214
1813.6481
1984.3154
2185.5048
2417.9707
2681.3438
2974.2197
3294.6515
3638.8336
4003.1194
4381.9541
4769.1908
5159.7523
5546.6578
5924.6348
6289.0712
6642.0982
6969.8992
7295.6403
7599.1465
7904.595
8205.4274
8516.5247
8849.4382
9193.3151
9577.8785
10010.927
10453.951
10990.105
11603.861
12213.546
12864.735
13558.515
14271.858
15003.534
15733.661
16444.402
17127.154
17759.319
18331.292
18843.266
19266.333
19643.163
19914.122
20168.227
20315.202
20485.082
20589.535
20723.397
20637.756
269.71529
16.305805
176.50688
243.0876
360.56235
450.71759
507.63544
548.27213
566.27606
558.46379
543.88992
510.80783
477.84605
437.48167
404.57587
371.68601
351.51379
334.19886
331.25803
340.92353
369.6298
420.53269
459.73606
494.17798
555.93165
616.78076
684.33245
761.353
841.24868
920.1983
1000.1267
1073.5832
1139.1008
1201.4777
1235.4317
1286.2146
1312.9879
1334.2555
1360.7373
1391.6962
1419.6978
1462.8619
1521.1259
1596.6243
1695.4679
1818.1315
1967.9684
2145.9655
2352.8751
2588.6962
2853.0587
3144.4424
3461.3346
3800.3
4159.0398
4531.2749
4913.8556
5300.3076
5683.6572
6061.0022
6427.3247
6774.3551
7112.1295
7426.9071
7734.6804
8029.5425
8329.062
8631.262
8945.9458
9284.191
9658.4064
10047.466
10506.283
10969.435
11394.535
11960.942
12601.456
13259.723
13965.05
14677.992
15404.49
16116.313
16808.586
17456.51
18057.188
18601.501
19064.612
19490.008
19799.246
20105.68
20296.02
20477.028
20646.284
20789.677
20705.919
645.137
345.26538
478.21942
550.2029
650.63892
737.07518
790.66069
820.08994
839.65249
832.84869
810.30067
780.61419
740.71345
697.16505
660.4837
619.45996
591.23389
565.339
548.35044
537.99541
526.67592
511.21539
509.5052
552.94808
592.09284
645.07119
705.61401
775.36284
840.35509
910.9055
975.0648
1034.3667
1089.1223
1125.6205
1172.7091
1194.6428
1212.749
1228.8921
1244.6058
1258.5833
1284.8283
1322.0048
1372.7844
1443.1889
1534.8951
1651.1417
1794.2344
1966.205
2168.235
2401.2681
2664.864
2958.0171
3278.4319
3622.6779
3986.9866
4364.8004
4752.9438
5142.0275
5528.5567
5908.5238
6270.8031
6624.2219
6955.5886
7276.1245
7582.5512
7885.439
8183.2023
8492.2461
8815.8785
9168.8621
9544.0967
9957.823
10447.568
10896.938
11585.731
12229.803
12821.575
13522.477
14222.204
14956.821
15689.98
16409.405
17103.764
17749.787
18342.16
18870.273
19310.408
19713.12
19976.051
20261.769
20393.707
20548.215
20695.443
20772.632
20725.283
794.0958
655.85463
752.7446
851.47466
920.60087
994.45831
1004.3075
1020.8535
1008.2782
974.09565
924.3655
868.5872
797.06438
732.38498
666.7933
603.47441
559.65642
510.2991
485.37647
464.40685
464.39247
464.54611
528.633
532.91517
563.50787
600.59674
648.36955
696.26923
754.64112
815.19294
878.1803
940.19787
994.50328
1055.628
1093.9232
1133.2324
1171.3533
1208.5723
1243.6268
1286.3149
1335.0496
1394.1673
1468.9126
1560.3202
1672.6767
1807.4209
1967.62
2153.9503
2367.9568
2609.3707
2877.996
3172.5119
3491.3542
3831.9189
4191.6288
4565.8966
4952.2997
5342.5257
5736.9711
6123.2779
6504.2018
6870.435
7223.061
7558.4166
7883.8824
8192.8768
8507.5572
8818.9471
9141.6259
9474.8113
9838.3549
10231.24
10671.089
11100.984
11728.653
12085.695
12713.974
13359.137
14051.797
14753.605
15468.655
16176.475
16863.141
17512.788
18115.732
18655.44
19135.021
19543.917
19878.005
20171.279
20381.072
20557.593
20741.921
20833.514
20851.54
2344.1634
1491.3535
1663.9642
1686.0779
1756.2721
1746.0891
1775.3829
1752.3726
1726.2365
1678.4324
1618.6084
1538.7116
1460.6924
1371.075
1291.887
1209.1671
1142.9101
1072.0967
1025.889
976.14875
929.22466
907.74575
905.46394
892.08747
896.57342
918.81827
936.68807
973.69998
1010.9286
1049.7471
1094.0957
1122.979
1169.6137
1188.6593
1218.6962
1243.1322
1262.7975
1276.3415
1293.5138
1314.7048
1342.1479
1383.6639
1437.6565
1511.4576
1606.0681
1725.2977
1871.5238
2046.8102
2252.6182
2489.4887
2756.9322
3053.5384
3376.6962
3722.9892
4087.9456
4466.5143
4853.3209
5242.149
5628.1463
6004.9868
6369.4761
6718.428
7048.606
7365.2335
7664.9924
7961.2246
8250.6023
8541.199
8850.3495
9186.8503
9551.3289
9956.1493
10386.386
10902.258
11455.24
12043.283
12730.804
13424.364
14166.072
14920.54
15685.664
16435.048
17155.719
17824.413
18434.358
18968.761
19428.052
19809.093
20106.885
20354.052
20516.536
20635.309
20809.013
20853.497
20870.879
4023.2884
3116.4802
3043.4843
2924.623
2797.5565
2752.3635
2657.4576
2564.5959
2476.4897
2350.7388
2218.928
2081.8884
1925.7751
1787.4329
1637.8197
1499.8937
1380.4043
1249.6159
1161.0914
1051.5614
975.92827
915.18282
851.43512
828.39679
790.26022
771.89716
757.08384
758.06448
759.76937
785.71221
804.68962
843.24014
881.05489
920.02295
966.37393
1008.0049
1050.3674
1096.2721
1147.882
1201.6934
1267.0035
1338.7289
1425.3674
1526.3677
1645.6102
1785.2365
1948.3963
2136.6463
2352.1643
2595.4909
2866.9664
3166.0015
3491.663
3842.068
4215.1374
4607.1978
5014.8611
5431.8446
5854.848
6273.8401
6688.665
7086.4023
7472.3574
7833.3576
8184.2955
8512.0205
8829.4716
9146.0339
9476.4996
9802.7292
10157.805
10519.99
10960.104
11382.632
11889.325
12421.992
13018.673
13630.315
14290.684
14968.314
15659.195
16346.485
17013.297
17647.67
18235.801
18765.78
19234.507
19632.816
19960.654
20238.828
20424.853
20614.173
20795.384
20827.871
20900.456
6352.8424
4935.0597
4647.5157
4320.9922
4291.0279
4146.4648
4030.7216
3928.1272
3789.0548
3611.1087
3454.0211
3243.6266
3068.0766
2869.722
2685.7086
2521.1098
2356.9972
2209.6666
2086.9557
1954.7637
1859.2229
1765.6635
1664.3279
1614.1916
1520.9359
1494.0404
1436.1182
1397.6759
1369.5675
1327.5737
1314.025
1278.2071
1275.6327
1247.1061
1242.4701
1230.1753
1229.6011
1229.5168
1243.8249
1268.666
1304.4446
1360.1869
1433.0564
1528.0627
1646.4908
1790.9268
1962.8983
2163.6481
2393.5583
2651.7975
2936.7219
3245.823
3575.9099
3923.5667
4284.9628
4656.3683
5033.7632
5413.9966
5792.2512
6166.165
6531.6431
6884.6193
7227.0077
7549.7777
7870.6713
8164.9893
8466.3967
8766.6326
9083.5612
9403.8814
9749.0313
10158.006
10564.455
11048.306
11576.748
12142.616
12763.006
13427.794
14132.558
14852.808
15585.081
16300.947
16992.986
17637.464
18228.988
18752.976
19211.406
19597.861
19922.427
20185.892
20391.608
20583.624
20725.467
20798.473
20900.928
8177.8339
6357.699
5767.9297
5463.7428
5424.1062
5155.5732
5014.2618
4826.4294
4587.9156
4373.4551
4096.5134
3870.0169
3612.1632
3368.0704
3144.8691
2925.4666
2739.2886
2545.1919
2366.1623
2206.4168
2054.2183
1897.6121
1774.5884
1621.5435
1499.4872
1410.9433
1288.6753
1253.7418
1183.3874
1182.1348
1153.8503
1169.9344
1187.4095
1203.106
1236.4267
1281.1089
1326.6663
1376.2965
1424.9611
1474.6335
1537.4176
1606.0069
1687.4281
1783.7336
1896.7581
2028.9366
2182.8112
2360.464
2564.566
2797.7943
3063.2996
3363.9686
3701.9898
4077.3078
4487.8229
4927.4455
5389.5824
5862.4667
6337.6178
6802.2809
7249.142
7667.7494
8060.0907
8413.2035
8751.2516
9047.3864
9350.3256
9629.4499
9917.1375
10182.172
10550.604
10866.331
11280.831
11707.639
12187.663
12712.917
13294.203
13914.402
14569.988
15262.156
15967.618
16677.43
17366.27
18017.558
18608.541
19126.957
19559.354
19906.589
20164.436
20352.565
20466.23
20550.663
20598.151
20611.073
20752.848
7870.5013
7705.9917
6573.2366
6439.2116
6316.943
6370.6948
6233.1971
6347.3865
6378.2398
6406.2472
6362.7707
6327.0074
6794.1198
7153.0888
8753.8574
5302.5264
4529.9945
3938.1724
3995.1319
3735.3284
3750.1571
3630.3209
3715.9846
3765.6154
3737.9306
3777.8552
3875.6799
4100.7461
4625.627
5622.442
3372.6334
2746.3373
2071.7211
2016.2241
1854.1179
1821.101
1814.6772
1776.8084
1798.5502
1812.8896
1879.024
1939.441
2169.5924
2719.3417
3490.913
2100.3691
1696.0998
1332.0074
1192.7058
1151.2498
1100.9776
1096.9486
1066.1576
1105.751
1117.3431
1177.9555
1213.7102
1471.0277
1818.1024
2200.9957
1168.3301
921.09156
635.40348
585.20526
516.28674
503.25191
492.0584
480.27409
488.95493
510.71065
528.01324
597.93654
734.51977
917.83337
1323.5586
708.61865
467.95945
301.02551
268.81415
236.68053
233.39081
220.80662
224.97311
229.28712
230.56644
256.76753
280.0227
345.68645
510.8649
760.98526
229.24069
119.9643
62.659447
31.725731
29.971272
17.348142
19.930629
15.739134
19.472552
21.702786
30.017033
46.99294
77.591032
167.30351
347.80275
78.614546
-3.2237787
-47.370925
-49.322567
-54.577393
-55.323299
-54.720169
-53.177108
-51.627487
-52.538425
-48.513919
-34.203114
-22.259692
34.674094
191.74802
91.254184
4.2306324
-37.418954
-50.238362
-56.806478
-59.593612
-59.515125
-58.486904
-56.891505
-48.24388
-47.906254
-36.80214
-17.275525
53.77291
160.49165
377.54143
241.59819
119.59331
95.028634
66.578055
62.441807
53.921111
55.686063
55.984866
52.839657
82.527069
79.047549
149.64996
285.80947
467.82992
727.45693
556.97623
345.16288
317.32757
252.70567
243.83429
230.18168
237.12926
239.63862
243.23925
279.50304
337.10707
426.34924
648.47821
849.44418
1606.4536
1124.65
867.40537
774.28439
679.46192
646.23722
632.1111
624.00483
638.94846
637.27975
715.46024
685.03045
930.61304
1229.9967
1647.6513
2593.0526
2086.5273
1694.7985
1518.6127
1389.6703
1375.2005
1326.1589
1369.9398
1361.284
1318.3464
1437.3308
1476.8241
1711.2002
2229.4764
2498.297
4547.4936
3786.3674
3235.4646
3063.055
2903.2403
2834.1786
2904.4266
2944.5329
2902.9729
2888.7859
2903.859
2992.2829
3255.4119
3606.8251
4767.0399
6588.6712
6938.3171
5609.3086
5485.3769
5284.879
4956.6659
5329.9349
5550.9219
5177.0574
5444.9296
5268.2656
5393.5846
5660.8036
6327.4864
7462.4258
16069.042
13807.726
14414.722
14706.702
15106.971
15047.216
15738.961
16476.055
16871.151
16590.698
16016.644
15205.135
14890.705
15095.173
14176.417
11230.804
10094.534
9972.2281
9818.238
9354.1616
9939.5996
9712.5956
9761.265
10418.263
9779.5874
9920.188
9596.1907
10176.809
10759.43
11821.016
8345.7769
8787.4945
8286.1241
8010.9746
8235.7729
7431.6679
7405.3795
7473.5942
7068.7533
7758.5982
7696.7911
8469.491
8552.4373
8496.9052
8773.8219
7864.0368
8982.0448
8900.5965
8558.1737
8413.6587
8418.0903
8307.1732
8396.2645
8397.5345
8336.1787
8617.524
8741.5792
8926.7863
9001.9424
8274.2788
7684.422
8006.1805
7983.9866
8337.7845
8063.8333
7982.4351
8036.5849
7927.9021
8026.0115
8286.6666
8175.6729
8408.5968
8281.2757
7989.0235
7555.6814
7113.6213
7795.5361
7914.5027
8049.76
8024.2006
8015.7411
7941.0076
7932.7223
7967.2981
7888.6593
8063.8243
8043.5043
7975.8157
7802.4891
7206.3781
6845.9232
7175.737
7365.9394
7516.3795
7478.4637
7514.2736
7552.6558
7532.9316
7572.6316
7614.2728
7524.7192
7537.3694
7358.9563
7004.6058
6811.275
6457.0187
6659.3053
6893.3998
7036.9852
7160.0674
7126.7124
7141.3592
7156.577
7116.8163
7145.802
7121.2945
7015.5661
6910.8629
6554.4249
6357.3761
6034.8039
6188.2965
6368.8091
6496.3331
6480.3071
6563.5659
6568.0382
6569.8097
6519.9245
6519.3032
6467.591
6351.4708
6272.1844
5978.3091
6004.3874
5645.5613
5675.107
5879.5449
5957.1742
6062.217
6066.7351
6104.1629
6085.8005
6061.477
6082.9091
5987.0289
5973.642
5789.8782
5677.7419
5577.3807
5273.425
5275.9418
5400.6082
5485.281
5517.896
5586.7064
5595.6115
5595.4861
5630.6539
5543.0137
5561.7046
5417.3844
5400.4877
5216.9563
5224.9207
4932.4129
4828.2551
4925.7607
5006.1205
5072.682
5075.6525
5100.3809
5079.93
5043.0643
5034.8037
4960.6493
4922.7971
4827.0242
4731.8951
4834.6027
4523.7288
4488.9453
4622.2839
4631.2895
4662.8241
4701.2003
4721.3354
4715.727
4743.505
4698.9654
4686.4262
4630.0899
4572.286
4535.4566
4502.0474
4291.7968
4150.9193
4229.1526
4223.6288
4295.2312
4304.4837
4365.7031
4248.0523
4263.9341
4237.228
4182.9642
4159.3654
4096.1099
4031.0917
4201.5136
3935.6138
3831.6909
3911.7951
3964.8673
3995.592
3983.228
4039.5659
3985.0037
4017.3661
3992.0279
3993.9422
3971.9307
3911.0543
3941.4872
3911.3746
3733.9398
3609.7387
3727.8009
3629.0086
3681.1989
3713.431
3702.6933
3681.9193
3646.6192
3625.5529
3572.9642
3560.3817
3596.6189
3514.315
3636.3049
3480.3785
3323.6745
3387.9914
3421.7801
3464.3418
3448.7719
3451.0404
3427.458
3471.6985
3446.3686
3464.5476
3442.3592
3351.1298
3298.7418
3481.6021
3218.3931
3168.2497
3221.7398
3238.8206
3191.849
3216.5037
3162.9778
3198.9644
3167.8043
3157.0091
3114.0642
3089.0923
3081.6543
3186.1798
3121.1821
3107.0365
2963.1042
3042.9024
2970.1277
3023.8892
3001.6478
3097.2129
3020.967
3039.5767
3026.9325
2941.1951
2984.5771
2999.3892
2908.124
3059.6951
2896.8741
2760.5278
2812.927
2811.4534
2855.2752
2796.1449
2848.6472
2798.4971
2804.8848
2779.5439
2889.8892
2831.6286
2756.0452
2758.3384
2747.0576
2687.1764
2639.3882
2709.3815
2688.2098
2651.5416
2693.0711
2669.6254
2677.7649
2684.683
2641.7437
2630.7592
2595.216
2721.6845
2602.5731
2682.2315
2608.52
2479.5474
2548.2335
2524.8543
2561.5275
2561.6652
2548.4643
2538.9592
2444.4164
2606.4486
2493.9445
2515.0603
2365.2582
2305.0107
2512.3914
2419.4531
2311.2434
2403.9876
2367.6923
2371.1198
2426.3396
2380.181
2355.5315
2403.7908
2355.1729
2265.7528
2295.4567
2315.6661
2254.2149
2355.7371
2298.2815
2303.5091
2289.0005
2269.2598
2283.0376
2182.9013
2218.8551
2209.3667
2216.1007
2165.5813
2218.4655
2178.2172
2217.2231
2062.9577
2276.2155
2263.3823
2039.5915
2092.1569
2035.869
2092.4088
2103.178
2138.7294
2107.7532
2095.1253
2094.388
2179.6255
2111.643
1960.401
1948.6684
2131.7954
2027.6024
1911.8198
1998.8915
2006.0316
2020.2807
2037.0209
2001.7638
1966.5523
1976.9016
1945.7414
1897.4716
1980.9803
1991.8116
1907.1501
1988.6422
1978.8379
1827.2699
1906.6885
1832.2912
1977.3825
1853.8422
1866.9367
1859.0258
1855.922
1845.0935
1839.3421
1674.5085
1775.8107
1619.3409
1898.1412
1785.974
1673.6383
1769.8912
1761.6587
1703.775
1702.3775
1711.6749
1695.382
1705.334
1691.2971
1686.1673
1731.5846
1645.4012
1677.5457
1700.5156
1748.9663
1583.5059
1611.266
1584.1273
1573.4974
1604.7612
1586.6968
1575.0504
1568.046
1566.9663
1556.8189
1594.1539
1467.0624
1361.8678
1699.6114
1534.2119
1420.4441
1471.7464
1504.7312
1498.7522
1537.8761
1474.276
1471.6089
1378.6042
1432.28
1394.9518
1365.3561
1482.5445
1343.1735
1489.9911
1485.8132
1405.3993
1487.9462
1411.2108
1419.5041
1332.8642
1358.7519
1326.102
1425.5963
1336.4073
1343.3527
1302.7953
1328.2121
1178.2286
1440.5054
1423.0206
1294.1044
1337.4831
1303.0337
1329.1501
1283.4078
1298.4497
1278.3386
1264.6119
1250.8511
1230.9062
1227.8948
1215.7937
1138.5208
1327.7786
1319.7544
1209.4639
1254.0366
1234.4487
1225.3662
1212.7653
1212.6519
1177.1589
1181.7212
1151.6581
1161.3717
1129.7713
1137.937
1063.0865
1232.037
1242.5953
1143.0341
1200.5823
1168.1823
1167.5586
1142.7678
1138.0779
1117.8394
1114.4716
1098.8684
1083.1905
1071.5087
1063.1484
1005.0436
1130.037
1194.6403
1112.5794
1152.814
1166.3364
1099.3651
1083.1758
1085.4166
1066.2137
1068.0222
1049.3883
1061.7244
1041.2463
1050.339
1024.9008
1114.5215
1161.2177
1033.9754
1100.5757
970.48713
1040.6359
1021.6036
1028.469
1008.6867
1035.2163
939.95944
1002.1728
977.31184
994.87799
916.2544
1082.6934
1001.9418
1026.1149
1044.8443
1049.3665
1037.3969
1020.116
1014.4037
1001.1555
969.9128
1094.2141
972.60941
982.33852
930.70566
940.16629
1002.8672
1105.3869
1101.4469
1114.9729
1088.1616
1068.9508
1054.0228
1042.9405
1016.0531
1027.3893
974.05459
989.1272
970.86437
981.26401
960.62792
996.01801
1120.7936
1095.628
1103.4691
1080.4245
1080.7385
1062.7647
1049.8715
1039.987
1022.7324
1021.3797
1004.6797
1010.7454
981.59761
964.56619
1042.5659
1137.7667
1137.1489
1138.527
1128.7163
1113.4832
1097.9036
1085.8282
1068.4854
1065.5923
1042.4258
1048.7847
1032.0601
1007.4627
1022.2128
1055.6631
1184.874
1193.5337
1188.3042
1178.4039
1161.435
1150.9148
1132.2778
1123.4656
1107.747
1099.404
1092.3621
1081.4619
1068.7059
1062.0575
1113.9748
1249.1235
1263.7771
1248.8662
1244.5336
1225.3972
1214.783
1198.5612
1184.4037
1176.5402
1161.8745
1155.5262
1153.4731
1124.8074
1132.2207
1187.9376
1332.728
1349.0515
1328.4719
1330.4705
1305.0505
1300.7232
1277.7681
1270.6393
1258.8532
1242.1797
1243.5405
1231.165
1209.7324
1215.5378
1276.2071
1436.3787
1453.6145
1429.1029
1434.2043
1408.7931
1405.2081
1383.5107
1377.2697
1361.3661
1351.323
1345.7351
1336.7158
1317.2015
1317.1339
1391.9432
1564.544
1581.006
1551.4538
1563.7213
1533.9366
1535.3821
1512.3846
1505.7005
1494.4938
1479.1466
1476.7015
1466.6205
1446.3093
1442.4993
1531.8137
1720.1945
1733.0746
1703.3005
1719.9556
1689.2768
1695.1589
1669.1792
1668.4406
1652.5787
1638.9634
1637.7805
1623.2117
1607.8396
1596.2792
1701.4878
1905.8955
1916.1268
1885.4924
1907.6905
1876.3971
1884.8903
1860.9367
1859.8788
1845.0458
1831.9095
1829.7201
1813.3411
1801.878
1779.1178
1904.1854
2126.2652
2131.6953
2102.1519
2129.9009
2096.872
2110.8916
2084.6068
2086.584
2071.5288
2057.0244
2056.363
2036.7999
2030.1448
1996.0576
2142.8516
2382.1523
2382.2638
2354.2785
2385.0471
2351.991
2368.181
2341.8709
2346.1045
2329.9103
2316.1403
2316.1712
2293.3682
2292.6267
2245.947
2415.4888
2673.1907
2667.0829
2638.7526
2672.9977
2638.2199
2657.3657
2630.3092
2635.6317
2619.2552
2605.3181
2606.0124
2580.3549
2586.6754
2527.4686
2720.2866
2995.8819
2982.1752
2953.2945
2988.5705
2951.9308
2972.6755
2943.9289
2950.7678
2933.4956
2919.9127
2921.1814
2893.9056
2906.4007
2836.6936
3049.6967
3342.9391
3322.9452
3290.7002
3325.9666
3287.0163
3308.2337
3278.0369
3285.4837
3267.4835
3254.0871
3256.3865
3227.196
3246.3062
3168.9215
3396.1042
3706.9373
3682.1581
3645.0425
3679.7055
3637.8149
3659.0723
3626.887
3634.9388
3615.7958
3603.3718
3605.5395
3576.2728
3600.0582
3519.0945
3750.6174
4078.8721
4053.5412
4010.1616
4043.2788
3998.4819
4019.0615
3985.0797
3993.0496
3973.4753
3961.4039