/*--------------------------------*- C++ -*----------------------------------*\
  =========                 |
  \\      /  F ield         | OpenFOAM: The Open Source CFD Toolbox
   \\    /   O peration     | Website:  https://openfoam.org
    \\  /    A nd           | Version:  6
     \\/     M anipulation  |
\*---------------------------------------------------------------------------*/
FoamFile
{
    version     2.0;
    format      ascii;
    class       pointScalarField;
    location    "1.45";
    object      p;
}
// * * * * * * * * * * * * * * * * * * * * * * * * * * * * * * * * * * * * * //

dimensions      [1 -1 -2 0 0 0 0];

internalField   nonuniform List<scalar> 
625
(
-758306.22
1201651.9
274.53946
-3621.5524
-1539884.8
2165153.1
-3538.6064
1094.0038
-580714.95
326.75716
151909.22
2396.3099
-15.222239
-1219.6207
-293338.14
-341793.48
-341091.61
-348213.62
-322174.1
-316760.35
-296891.16
-276114.34
-268951.1
-235628.1
-220867.83
-196724.45
-176898.32
-153163.21
-132115.8
-110162.6
-88609.061
-69994.682
-50093.858
-34445.359
-20440.578
-7505.6552
-2062.8662
405353.1
306565.92
382950.57
316423.27
309198.33
300705.84
271371.32
255702.18
240828.6
218365.94
200102.42
179487.04
161542.62
140838.21
121168.01
101437.54
81974.474
64307.509
46156.521
32483.987
17967.022
8597.0111
1301.636
-852445.18
-1371.8974
320422.5
399605.75
537979.18
398642.52
376144.07
407463.75
334917.84
319353.57
316445.74
281605.91
270681.26
239583.66
221099.56
193399.03
169710.39
145301.22
120067.18
97265.02
75142.309
54623.745
36600.254
21374.459
9092.5226
85.788489
-1814.7583
1409.9246
2009.4139
-2303.3703
-9634.7801
-19538.027
-34473.33
-51868.542
-70769.053
-91888
-113640.71
-136436.14
-159198.49
-181754.25
-205148.57
-224586.91
-231664.32
-289291.82
-282487.8
-312343.32
-313311.77
-370452.02
-333904.9
-375001.07
-414572.07
-332590.26
-825924.9
-785407.44
-708610.04
1283954.2
1298895.1
1237251.6
-3328.84
-4276.9885
-5552.5824
2045.6954
2029.1005
1751.9379
-182320.54
-215678.74
-224418.79
-207451.02
-197484.23
-200406.3
-177667.95
-171671.75
-154453.88
-143106.73
-133355.24
-119415.89
-104816.32
-90435.818
-76911.873
-62399.551
-49687.234
-37500.23
-26053.795
-18263.883
-9860.7801
-4866.5538
-1862.8397
49699.859
24285.573
44116.947
18358.375
30349.537
22145.469
24685.826
17184.75
15351.968
16282.088
14064.006
14447.535
12636.121
11123.338
9278.6126
8119.9517
5953.1293
4353.1125
2991.7417
1368.9978
615.97394
-993.20293
-1279.0836
251124.85
218514.4
209509.58
186411.62
202914.2
173541.61
170536.83
154122.03
146344.39
132480.17
120403.16
106917.57
94754.158
82285.036
70346.633
58606.984
47015.406
36067.235
26623.815
16464.23
10739.116
5201.6083
1206.8382
-457758.46
-432671.5
-466325.21
20987.902
-11409.771
26796.605
152974.85
197769.06
290653.11
544998.77
527616.34
546372.03
472384.39
447515.55
436425.77
388424.83
378684.9
401866.77
339274.63
338814.2
346296.55
334784.23
335705.49
362806.7
308377.97
300295.87
313434.24
297705.4
291565.5
309098.85
277603.67
263828.54
287953.81
255221.54
247141.58
265490.41
234903.27
227445.16
247462.68
214053.41
207177.13
223443.98
193795.26
186989.53
202354.67
170901.87
165204.24
178189.33
149620.04
143653.76
155094.51
127447.6
122168.53
132593.83
106330.74
101670.85
109671.43
85611.635
80683.123
87543.39
65775.056
61903.796
67144.387
47413.156
43625.93
47551.758
31534.439
28729.556
31147.728
16483.783
14608.599
16088.827
6567.4885
6355.2677
6805.0288
767.01825
-1473.836
-308.7421
2710.613
2631.5147
3199.6289
1365.4467
1612.9674
1027.5379
-3209.2519
-3648.7234
-4453.6018
-429180.43
-367124.4
-413316.06
-427624.92
-362308.58
-393897.53
-426391.31
-358187.28
-397280.88
-375463.69
-334832.92
-363447.8
-367309.23
-332625.36
-330621.24
-350941.24
-290852.37
-321660.94
-322424.1
-289618.75
-308244.32
-310573.45
-266358.93
-281087.09
-277579.06
-254895.48
-258306.77
-261758.31
-227974.84
-244347.19
-239043.89
-211832.92
-220228.98
-217927.47
-187136.26
-200548.02
-189630.24
-168204.14
-177946.44
-166870.36
-146790.54
-155505.91
-141309.98
-126131.75
-132835.76
-117113.95
-105203.75
-110515.56
-93742.28
-85353.923
-88942.451
-71566.422
-66115.405
-68386.367
-50538.145
-48266.851
-49062.686
-33340.052
-31615.525
-32853.695
-17986.574
-16372.432
-17789.253
-6625.1497
-6819.9908
-7740.7987
-1051.4588
-759.67196
-1522.1765
-228382.78
-221470.64
-180985.77
-201814.24
-196172.18
-182393.24
-172021.2
-162679.21
-142381.61
-135178.54
-129515.68
-110595.93
-98996.338
-86971.93
-74452.113
-62958.205
-51206.754
-40531.058
-30625.599
-21140.12
-13517.05
-7141.45
-168.00001
43476.821
-23594.093
-3285.883
-36849.535
-50217.836
-22174.822
-44389.497
-30179.062
-31017.136
-25969.944
-28309.018
-22768.538
-22398.155
-19259.707
-17611.206
-15233.794
-12784.789
-11042.638
-8263.2027
-6271.2403
-4519.5125
-1732.9607
-268.36442
165429.98
174521.26
230670.51
201784.67
216321.48
209392.49
188280.83
181731.19
167892.27
155139.87
142841.79
128049.99
115810.69
100285.74
87333.705
73150.955
60090.269
47236.334
36207.25
25385.65
16934.698
8570.7341
5306.7702
-297734.84
-322162.02
-269405.4
-250223.56
-269753.59
-250420.04
-203700.67
-219611.09
-259596.17
-180301.99
-236803.84
-189435.07
-210494.15
-184487.57
-198088.47
-156330.4
-196855.65
-197394.37
-165325.94
-186721.44
-168375.03
-154390.05
-164374.29
-161369.87
-145116.72
-148600.46
-157040.58
-128107.39
-145174.04
-137268.79
-117740.78
-127039.11
-124242.89
-100557.35
-114415.99
-112632.11
-90477.012
-101023.97
-99018.079
-78068.18
-86547.351
-86299.755
-65417.507
-72411.144
-73227.567
-53757.074
-59597.713
-60545.275
-42994.116
-46446.749
-48527.118
-32550.571
-34898.23
-36679.946
-23413.806
-23655.317
-26531.597
-16315.026
-15848.491
-17697.558
-7967.8974
-8659.8946
-9064.848
-5158.8481
-4273.5882
-5749.6494
182.21076
818.44791
939.40762
37964.21
66775.735
35485.668
-822.40389
-31804.392
-8101.5362
-35484.212
-23731.638
-1474.961
-31611.426
-24347.26
8707.1359
-25057.817
-32465.697
-19572.32
-26059.539
-40631.301
430.49824
-31752.913
-33350.47
2538.0432
-23176.321
-29044.779
-3522.5231
-18949.3
-34651.536
2402.0361
-22622.89
-26007.309
-274.21567
-16572.64
-24758.067
1686.3779
-16224.183
-23515.536
-523.54941
-14115.381
-22112.855
1679.0528
-12153.793
-17926.311
83.371806
-9199.0203
-17258.169
134.49286
-8181.8746
-14571.932
-596.13532
-6284.9807
-12531.285
-1155.5652
-4862.3833
-10784.252
-1279.3093
-4421.8726
-7858.173
-2683.5343
-3736.42
-6530.9529
-1377.6231
-2656.9275
-2406.4114
-2203.9099
-910.16174
-2997.677
-1596.4108
-1195.2224
-1705.6654
-1952.9518
242306.74
274093.09
322053.92
167817.25
161468.45
215490.21
168036.82
255394.81
224672.12
208139.2
194296.93
195331.77
162188.96
208779.45
199107.53
161349.25
196896.54
196315.14
152831.41
191639.63
178468.02
144222.75
175688.99
176921.11
128713.08
169161.03
160390.66
125416.63
154218.22
150359.05
112135.05
140816.08
136983.27
103051.82
127174.82
125456.68
90998.918
115300.68
112342.67
80949.752
101102.15
98915.743
69298.203
87416.469
84945.671
58756.923
73570.567
72517.803
47716.495
60602.533
59156.997
38226.686
47364.848
47260.541
28320.663
35976.067
35695.331
20407.294
24094.644
24927.845
13946.109
15863.094
16581.226
5618.5747
5985.7136
5372.6505
3134.1439
4002.7333
5968.3367
)
;

boundaryField
{
    free
    {
        type            calculated;
    }
    fixed
    {
        type            calculated;
    }
    freeTop
    {
        type            calculated;
    }
}


// ************************************************************************* //
