/*--------------------------------*- C++ -*----------------------------------*\
  =========                 |
  \\      /  F ield         | OpenFOAM: The Open Source CFD Toolbox
   \\    /   O peration     | Website:  https://openfoam.org
    \\  /    A nd           | Version:  6
     \\/     M anipulation  |
\*---------------------------------------------------------------------------*/
FoamFile
{
    version     2.0;
    format      ascii;
    class       pointVectorField;
    location    "0.82";
    object      u;
}
// * * * * * * * * * * * * * * * * * * * * * * * * * * * * * * * * * * * * * //

dimensions      [0 1 0 0 0 0 0];

internalField   nonuniform List<vector> 
28033
(
(0 3.6266869e-19 0)
(0 2.4834469e-18 0)
(0.55744132 0.033785554 0.0067903083)
(0.54996108 -0.088876138 0.0071200152)
(0 2.2428531e-18 0)
(0 3.6529462e-18 0)
(0.54951788 -0.089279663 0.0071396182)
(0.55710262 0.033380675 0.0067662636)
(0 7.8528376e-19 0)
(0 2.2676574e-19 0)
(0 1.8114443e-18 0)
(0 -8.5999241e-19 0)
(0 1.1584661e-18 0)
(0 -6.8654024e-19 0)
(0 -1.6589307e-20 0)
(-5.533569e-19 -1.8051439e-19 0)
(0 3.3951412e-19 0)
(0 1.6895768e-19 0)
(0 -6.5023018e-19 0)
(0 6.2955491e-19 0)
(0 7.5283783e-19 0)
(0 -6.0382098e-19 0)
(0 7.6769246e-19 0)
(0.55696398 0.026087131 0.0067964623)
(0.55648421 0.018389697 0.0067986941)
(0.55600275 0.010702002 0.0068018793)
(0.55552475 0.0030210006 0.0068118844)
(0.55504916 -0.0046470549 0.006824886)
(0.55457761 -0.012306766 0.0068464302)
(0.55411163 -0.019959754 0.0068717084)
(0.55364706 -0.027607124 0.0068995528)
(0.55318895 -0.035252106 0.0069331267)
(0.55273076 -0.042897607 0.0069661214)
(0.55227459 -0.050546607 0.0069979504)
(0.5518183 -0.058202324 0.0070302157)
(0.55135753 -0.065862157 0.0070536524)
(0.55089464 -0.073528553 0.0070783919)
(0.55042867 -0.08119635 0.007098964)
(0.0019311407 0.0030443576 0.0032056449)
(0.0024486035 0.0046368373 0.004346383)
(0.00326711 0.0062530478 0.0051585519)
(0.0043866512 0.0078480167 0.0056631859)
(0.005637058 0.009493427 0.0059327159)
(0.0072439791 0.011091286 0.0060974679)
(0.0090400381 0.012743653 0.006152624)
(0.011133822 0.014257065 0.006123989)
(0.013418592 0.015865961 0.0060492729)
(0.01597934 0.0173088 0.0059422248)
(0.018694781 0.018793156 0.0057966104)
(0.021650597 0.02015688 0.0056234625)
(0.024751961 0.021530764 0.0054753375)
(0.028084655 0.022800501 0.0052762317)
(0.031507166 0.02404114 0.005129728)
(0.035132241 0.025203257 0.0049377065)
(0.038861369 0.026348103 0.0048123064)
(0.04274857 0.027394799 0.0046584742)
(0.046718413 0.028423308 0.0045584582)
(0.050828137 0.029378263 0.0044461396)
(0.055015133 0.030301261 0.0043901088)
(0.059314504 0.031158468 0.0043229733)
(0.063693882 0.03198959 0.0043076982)
(0.068166456 0.03276391 0.0042916313)
(0.072713672 0.033501764 0.004307416)
(0.077347344 0.034203164 0.0043319689)
(0.082052713 0.034865515 0.0043785271)
(0.086841677 0.035500627 0.0044288665)
(0.09170688 0.036097738 0.0044916753)
(0.096647601 0.036672391 0.004558126)
(0.10167025 0.037222156 0.0046286377)
(0.10676779 0.037746917 0.0046970799)
(0.11194801 0.038253061 0.004768151)
(0.11720828 0.038737191 0.0048336381)
(0.12254856 0.039210694 0.0048945517)
(0.12797351 0.039667622 0.0049536141)
(0.13347574 0.040108328 0.0050094257)
(0.13906515 0.040542925 0.005063397)
(0.14473029 0.040958849 0.0051105076)
(0.15048103 0.041371039 0.0051605312)
(0.15630907 0.041765736 0.0052097282)
(0.16221939 0.042155934 0.0052601947)
(0.16820893 0.042529837 0.0053118261)
(0.17427825 0.042896248 0.0053696025)
(0.180425 0.043245078 0.005429036)
(0.18665138 0.043583581 0.0054945208)
(0.192953 0.043904128 0.0055638154)
(0.19933462 0.044209353 0.005637173)
(0.20578985 0.044495703 0.0057141369)
(0.21232477 0.044762761 0.0057929833)
(0.21893303 0.045009034 0.0058726949)
(0.2256196 0.045232473 0.0059515028)
(0.23237988 0.045433731 0.0060276808)
(0.23921642 0.04560897 0.0060992776)
(0.2461265 0.045760679 0.0061646051)
(0.25311015 0.045884661 0.0062222583)
(0.26016548 0.045983466 0.0062703983)
(0.267291 0.04605405 0.0063087409)
(0.27448396 0.046098361 0.00633623)
(0.28174203 0.046114151 0.0063532669)
(0.28906136 0.046103976 0.0063597602)
(0.29643851 0.046064829 0.0063577514)
(0.30386828 0.046000649 0.0063474688)
(0.31134754 0.045907746 0.0063314645)
(0.31886835 0.04579146 0.0063124796)
(0.32642866 0.045646817 0.0062915022)
(0.33402014 0.045478838 0.0062726567)
(0.34163979 0.045285125 0.0062566316)
(0.3492812 0.045069145 0.0062441215)
(0.35694068 0.044830144 0.0062409467)
(0.36461284 0.044568844 0.0062464068)
(0.37229437 0.04428695 0.0062608604)
(0.37998294 0.043984459 0.0062850291)
(0.38767487 0.043662768 0.0063188805)
(0.3953706 0.043323098 0.006360642)
(0.40306641 0.042964954 0.0064104713)
(0.41076476 0.04259143 0.0064648136)
(0.41846324 0.042201273 0.0065232499)
(0.42616467 0.041797808 0.0065816813)
(0.43386783 0.041379333 0.0066394884)
(0.44157578 0.040949274 0.0066927997)
(0.44928741 0.040508058 0.0067405153)
(0.45700518 0.040054722 0.0067801473)
(0.46472824 0.039594132 0.0068104875)
(0.47245779 0.039123445 0.0068320274)
(0.48019261 0.038646785 0.0068431252)
(0.48793029 0.038164276 0.0068462118)
(0.49567191 0.03767678 0.0068417403)
(0.50341203 0.03718754 0.0068311407)
(0.5111516 0.03669491 0.0068191481)
(0.51888443 0.03620443 0.0068041683)
(0.52661415 0.035711227 0.0067936443)
(0.53432877 0.035226835 0.006785841)
(0.54204343 0.03473836 0.006781898)
(0.54974624 0.034257273 0.0067826677)
(0.00084817686 -0.0031001424 -0.0038119472)
(0.0020121662 -0.0042645548 -0.0039514592)
(0.0027175145 -0.0059548609 -0.0051411056)
(0.0036409016 -0.007280798 -0.0052489119)
(0.0049615502 -0.008849459 -0.0055619553)
(0.0064800023 -0.010534196 -0.0055338181)
(0.0082217384 -0.011967631 -0.0055370459)
(0.010216452 -0.013617131 -0.0053673856)
(0.012463278 -0.01512415 -0.0052292386)
(0.014868714 -0.016642898 -0.005014391)
(0.017529883 -0.018122994 -0.0048028761)
(0.02032171 -0.019551561 -0.0045721216)
(0.023347865 -0.020960065 -0.004322337)
(0.02649861 -0.022312986 -0.0040940244)
(0.029836507 -0.023613941 -0.0038339981)
(0.033306844 -0.024895138 -0.0036005473)
(0.036922239 -0.026087727 -0.0033437565)
(0.040673116 -0.027291889 -0.0030997828)
(0.044541247 -0.028408578 -0.0028500749)
(0.048543529 -0.029526874 -0.0026064055)
(0.052630401 -0.030574006 -0.0023542135)
(0.056849307 -0.031632353 -0.002120382)
(0.061124645 -0.03260829 -0.0018784623)
(0.065536687 -0.033621247 -0.0016451552)
(0.069986162 -0.034556673 -0.0014221176)
(0.074576639 -0.035527376 -0.0011944192)
(0.079189407 -0.036440762 -0.00099965872)
(0.083932347 -0.0373756 -0.00078821697)
(0.088704141 -0.038278482 -0.0006163933)
(0.093588116 -0.039187237 -0.0004305882)
(0.098513527 -0.040088043 -0.00028041881)
(0.10353732 -0.040982297 -0.00012505395)
(0.10861235 -0.041880364 3.1718048e-06)
(0.11377602 -0.042768659 0.00013074608)
(0.11900309 -0.043665288 0.00023959264)
(0.1243093 -0.044550759 0.00034242505)
(0.12969026 -0.045444594 0.00044118599)
(0.13514994 -0.046334676 0.00053186721)
(0.14068614 -0.047226989 0.00062066815)
(0.14630288 -0.048118707 0.00070830024)
(0.15200112 -0.049013137 0.00079785341)
(0.1577796 -0.049907272 0.0008905072)
(0.16364288 -0.050805323 0.00098936773)
(0.16958744 -0.051703932 0.0010936812)
(0.17561629 -0.052606287 0.0012065138)
(0.18172856 -0.0535109 0.0013272741)
(0.18792308 -0.05441873 0.001456323)
(0.19420119 -0.055329641 0.0015941376)
(0.20056025 -0.056243736 0.0017393396)
(0.20700062 -0.057160097 0.0018918162)
(0.21352045 -0.058079285 0.0020500876)
(0.22011879 -0.058999533 0.0022130247)
(0.22679361 -0.05992036 0.002379288)
(0.23354419 -0.060840669 0.0025474739)
(0.24036755 -0.061758609 0.0027161672)
(0.24726276 -0.062672583 0.0028842539)
(0.25422737 -0.063581355 0.0030507363)
(0.26125909 -0.064481921 0.0032146358)
(0.26835578 -0.065373318 0.0033757143)
(0.27551506 -0.06625296 0.0035334873)
(0.28273399 -0.06711922 0.0036882388)
(0.29000985 -0.06796997 0.0038398371)
(0.2973399 -0.068804564 0.0039894059)
(0.3047203 -0.069620395 0.0041366087)
(0.31214814 -0.070418027 0.0042831072)
(0.31961945 -0.071195468 0.0044284562)
(0.32713044 -0.071954021 0.0045740753)
(0.33467736 -0.072692199 0.0047197411)
(0.34225618 -0.073412066 0.0048658984)
(0.34986195 -0.074111776 0.0050124743)
(0.35749241 -0.074798055 0.0051594545)
(0.36514165 -0.075464964 0.0053052042)
(0.37280902 -0.076120847 0.0054509475)
(0.3804885 -0.076761591 0.0055937622)
(0.38817964 -0.077393607 0.005734705)
(0.39587785 -0.078014125 0.0058704896)
(0.40358322 -0.078628173 0.0060025068)
(0.41129207 -0.079233494 0.0061272487)
(0.41900476 -0.079834071 0.006245866)
(0.42671881 -0.080427172 0.0063554223)
(0.43443485 -0.081016227 0.0064572218)
(0.4421507 -0.081597686 0.0065486652)
(0.4498678 -0.082174731 0.0066316549)
(0.45758344 -0.082742971 0.0067037443)
(0.46529963 -0.083305348 0.0067675771)
(0.47301341 -0.083857374 0.0068211697)
(0.48072658 -0.084401554 0.0068676203)
(0.48843623 -0.084934005 0.0069055641)
(0.49614372 -0.085457155 0.0069384773)
(0.50384631 -0.085968118 0.0069656523)
(0.51154493 -0.08646934 0.0069903124)
(0.51923741 -0.086960203 0.0070131496)
(0.52692462 -0.087443724 0.0070364908)
(0.53460623 -0.08791957 0.007061298)
(0.54228218 -0.088397724 0.0070902864)
(0 -9.8679847e-19 0)
(0 -7.2055805e-19 0)
(0 6.7493361e-19 0)
(0 -4.2648552e-19 0)
(0 -3.6724484e-19 0)
(0 2.052264e-18 0)
(0 -6.0928775e-19 0)
(-1.4186133e-18 3.9653833e-19 0)
(0 -3.6242123e-19 0)
(0 8.8293278e-19 0)
(0 1.0552392e-18 0)
(0 3.6909239e-19 0)
(0 1.9536498e-19 0)
(0 -3.9792131e-19 0)
(0 2.7048564e-19 0)
(0.0019042036 -0.0014241161 0.002935994)
(0.0025331031 -0.0053680451 0.0042869496)
(0.0028255319 -0.0055163079 0.0050435103)
(0.0039999865 -0.0080899827 0.0057746518)
(0.0050648746 -0.0091703784 0.0061051513)
(0.0066858824 -0.011053441 0.0061876328)
(0.0083230918 -0.012442019 0.0062704848)
(0.010417229 -0.01425563 0.00622367)
(0.012570047 -0.01564512 0.0061495733)
(0.015046307 -0.017347974 0.0059980403)
(0.017682855 -0.018779179 0.0058929925)
(0.020485515 -0.020267582 0.0056715536)
(0.023534218 -0.021775443 0.0055508677)
(0.026653363 -0.023083505 0.0053098374)
(0.030053505 -0.024612703 0.0052010069)
(0.033465974 -0.025791188 0.0049833295)
(0.03712414 -0.027221415 0.004894291)
(0.040811175 -0.028338029 0.004690822)
(0.044701358 -0.029684264 0.0046336388)
(0.048643383 -0.030762017 0.0044970517)
(0.052696903 -0.031972051 0.004462375)
(0.056890934 -0.033062223 0.0043931361)
(0.061102995 -0.034135638 0.0043880935)
(0.065476429 -0.035207504 0.0043837425)
(0.06986352 -0.036178955 0.0043953965)
(0.07439893 -0.037226439 0.004440519)
(0.078966492 -0.03815544 0.0044776167)
(0.083647465 -0.039142864 0.0045495517)
(0.088384439 -0.040049122 0.004607929)
(0.09321855 -0.040991271 0.004691067)
(0.098115834 -0.041876601 0.0047629955)
(0.10311075 -0.042795416 0.0048447222)
(0.10816988 -0.043673761 0.0049210757)
(0.11332395 -0.044575888 0.0049949656)
(0.11854723 -0.045458556 0.0050726455)
(0.12385726 -0.046344878 0.0051356742)
(0.12924737 -0.047239403 0.0052063067)
(0.13471706 -0.0481353 0.005270214)
(0.14026494 -0.049031236 0.0053341385)
(0.1458953 -0.049936886 0.0053962909)
(0.15160238 -0.050843194 0.005459311)
(0.15738929 -0.051758076 0.0055244757)
(0.16325363 -0.052674488 0.0055911185)
(0.16919606 -0.053597005 0.0056625495)
(0.17521513 -0.054520341 0.0057360808)
(0.18131223 -0.055447938 0.0058153209)
(0.18748547 -0.056373975 0.0058965743)
(0.19373668 -0.057301723 0.0059821388)
(0.20006466 -0.058226232 0.0060687362)
(0.20647054 -0.059148999 0.0061568585)
(0.21295378 -0.060067004 0.0062437034)
(0.21951548 -0.060980251 0.0063277981)
(0.22615499 -0.061887248 0.0064078807)
(0.2328725 -0.062786575 0.0064809654)
(0.23966766 -0.06367887 0.0065468145)
(0.24653954 -0.064560904 0.0066023784)
(0.25348689 -0.065434677 0.006648359)
(0.26050835 -0.066297045 0.0066822282)
(0.26760114 -0.067149008 0.0067054178)
(0.27476317 -0.067988998 0.0067169854)
(0.28199044 -0.068816674 0.0067185005)
(0.28927977 -0.069631234 0.006710738)
(0.2966263 -0.070432174 0.0066958062)
(0.30402578 -0.071218366 0.0066753648)
(0.31147279 -0.071989628 0.0066520198)
(0.31896252 -0.072745197 0.0066280981)
(0.32648947 -0.073483091 0.0066062751)
(0.33404814 -0.074209564 0.0065883357)
(0.34163496 -0.074905425 0.0065793415)
(0.34924096 -0.075599046 0.0065737511)
(0.35686909 -0.076265962 0.0065810939)
(0.36450844 -0.076917499 0.0065978806)
(0.37216086 -0.077550962 0.0066246697)
(0.37982162 -0.078167426 0.0066619796)
(0.38748945 -0.078767046 0.006707619)
(0.39516369 -0.079350989 0.0067608683)
(0.40284304 -0.079919791 0.0068191423)
(0.41052815 -0.080474755 0.0068806985)
(0.41821842 -0.081016652 0.0069424571)
(0.42591513 -0.081547045 0.0070025875)
(0.43361786 -0.082066504 0.0070578933)
(0.44132808 -0.082577186 0.0071072773)
(0.44904467 -0.083078815 0.0071479898)
(0.45676907 -0.083574293 0.0071798015)
(0.46449932 -0.084062698 0.0072013842)
(0.47223569 -0.084546915 0.0072134416)
(0.47997598 -0.085026042 0.0072160376)
(0.48771895 -0.085502455 0.0072111949)
(0.49546212 -0.085975715 0.0072002195)
(0.50320326 -0.086447098 0.0071856957)
(0.51094003 -0.08691756 0.0071702117)
(0.51867002 -0.087386721 0.0071559113)
(0.52639208 -0.087857416 0.007145335)
(0.53410548 -0.088328426 0.0071394742)
(0.54181036 -0.088803323 0.0071400578)
(0.54999294 -0.081573757 0.00709132)
(0.5504563 -0.073871541 0.0070469394)
(0.5509287 -0.066183108 0.0070035894)
(0.55138583 -0.058499664 0.0069646296)
(0.55186065 -0.050829504 0.0069333643)
(0.55231794 -0.043167728 0.0069051672)
(0.55279832 -0.035513886 0.006886427)
(0.55326579 -0.027867004 0.0068675507)
(0.55373985 -0.020220629 0.0068573213)
(0.55422355 -0.012577411 0.0068471499)
(0.55470985 -0.0049323933 0.0068390319)
(0.55518851 0.0027218477 0.0068283245)
(0.55567113 0.010379118 0.0068174762)
(0.55615565 0.018042234 0.0068030124)
(0.55663028 0.025714402 0.0067828512)
(0.54943621 0.03385229 0.0067443353)
(0.54176624 0.034328186 0.0067238256)
(0.53408453 0.034800668 0.0067053754)
(0.52639714 0.035266433 0.0066851337)
(0.51870108 0.035725278 0.0066669454)
(0.51099515 0.03617537 0.0066426285)
(0.50328093 0.036615319 0.0066141294)
(0.49555897 0.037046036 0.0065780442)
(0.48783072 0.03746632 0.0065342689)
(0.4800966 0.037877928 0.0064808654)
(0.4723589 0.038280311 0.0064181819)
(0.46461735 0.038675128 0.0063449058)
(0.45687421 0.0390629 0.0062616637)
(0.44912815 0.039444568 0.0061681674)
(0.44138244 0.039818962 0.0060648763)
(0.43363681 0.040188486 0.0059526046)
(0.4258922 0.040551908 0.0058324806)
(0.41814913 0.040908778 0.0057052217)
(0.41040884 0.041258467 0.0055722977)
(0.40267206 0.041599649 0.0054347004)
(0.39494064 0.041930543 0.0052939206)
(0.38721562 0.042249745 0.0051507838)
(0.37949957 0.042554585 0.0050068348)
(0.37179384 0.042843072 0.0048622624)
(0.36410172 0.043113494 0.0047183132)
(0.35642588 0.043363174 0.0045756439)
(0.34876697 0.04358535 0.0044332718)
(0.34113907 0.043786319 0.0042944474)
(0.33352666 0.043961414 0.004152748)
(0.32594934 0.044106221 0.004013838)
(0.31840498 0.044222004 0.0038739321)
(0.31089817 0.044308614 0.0037338001)
(0.30343261 0.044364625 0.0035919079)
(0.2960121 0.044391381 0.0034479755)
(0.28864065 0.044388595 0.0033013075)
(0.28132161 0.044357939 0.0031516561)
(0.27405872 0.04430008 0.002998553)
(0.26685519 0.044216652 0.0028424194)
(0.25971436 0.044109086 0.0026830778)
(0.252639 0.043978829 0.0025215168)
(0.24563211 0.043827618 0.0023579934)
(0.23869617 0.043656482 0.0021941678)
(0.23183355 0.043467317 0.0020303162)
(0.22504656 0.043260371 0.001868774)
(0.21833697 0.043037668 0.0017097529)
(0.21170678 0.042798524 0.001555658)
(0.20515712 0.042545061 0.0014066059)
(0.19868967 0.042275665 0.0012646871)
(0.19230487 0.041992505 0.00112944)
(0.18600389 0.041693742 0.0010025023)
(0.17978682 0.041380324 0.00088305876)
(0.17365335 0.041052327 0.00077071181)
(0.16760496 0.040707887 0.00066598841)
(0.16163765 0.040349762 0.00056519767)
(0.15575528 0.039974508 0.00047002164)
(0.14995362 0.039584832 0.00037665278)
(0.14423182 0.039180347 0.00028260105)
(0.13858663 0.038759268 0.00018728708)
(0.13303189 0.03832152 9.3229057e-05)
(0.12753935 0.037876257 -1.5222179e-05)
(0.12212752 0.037408405 -0.00012553655)
(0.1168015 0.036930345 -0.00024250511)
(0.11153448 0.036433565 -0.00037281943)
(0.10634689 0.035931486 -0.00051617531)
(0.10123032 0.035405918 -0.00066697134)
(0.096197299 0.034866628 -0.00082904508)
(0.091223687 0.034310426 -0.0010004773)
(0.086342266 0.03373526 -0.0011832261)
(0.081521802 0.033134683 -0.0013746107)
(0.076786156 0.032526659 -0.0015793085)
(0.072132193 0.031877156 -0.0017813739)
(0.067558665 0.031208601 -0.0019939577)
(0.063094361 0.030483007 -0.0021990466)
(0.058691392 0.02975761 -0.0024216805)
(0.05440917 0.028965938 -0.0026333786)
(0.050230699 0.028123535 -0.0028388518)
(0.046148552 0.027259757 -0.0030681475)
(0.04220573 0.026300633 -0.0032545025)
(0.03836381 0.025340187 -0.003487274)
(0.034683628 0.02425183 -0.0036715456)
(0.031131845 0.023182542 -0.0038944658)
(0.027718288 0.021960064 -0.0040650189)
(0.024464443 0.020779413 -0.0043021795)
(0.021416623 0.019404532 -0.0044574941)
(0.018497915 0.018137911 -0.0046938147)
(0.015801661 0.016653828 -0.0048404156)
(0.013300731 0.015238607 -0.005024254)
(0.011017343 0.013683131 -0.0051407769)
(0.0089343719 0.012181763 -0.0052610953)
(0.0071202721 0.010594314 -0.0052917781)
(0.0055459846 0.0089940725 -0.0052177242)
(0.0042794019 0.0073311971 -0.0050293154)
(0.0032432269 0.0059235819 -0.004688634)
(0.0023923091 0.0041889425 -0.0037979267)
(0.0025825389 0.0027582942 -0.002309444)
(0 1.1242753e-18 0)
(0 4.2765698e-19 0)
(0 1.1099897e-18 0)
(0 1.1173864e-18 0)
(0 1.1645872e-18 0)
(0 7.0036323e-19 0)
(0 2.7919502e-20 0)
(0 -6.3461504e-19 -6.9631544e-19)
(0 7.5146799e-20 0)
(0 6.7559544e-19 0)
(0 1.6290783e-18 0)
(0 1.4274124e-18 0)
(0 1.0217649e-18 0)
(0 9.8745631e-19 0)
(0 1.1275937e-18 0)
(0 4.6900773e-18 0)
(0 1.9969726e-18 0)
(0 7.3283216e-19 0)
(0 1.3227248e-18 0)
(0 -1.1516045e-19 0)
(0 3.0830819e-19 0)
(0 3.513155e-18 0)
(0 -1.4296357e-18 -6.1993457e-19)
(0 2.0896599e-18 0)
(0 2.6122948e-18 0)
(0 8.6327539e-19 0)
(0 3.5335629e-19 0)
(0 8.2017053e-19 0)
(0 1.4787121e-18 0)
(0 1.9020182e-19 0)
(0.54993502 -0.088901438 0.0071205514)
(0.54991242 -0.088932698 0.0071233398)
(0.54989324 -0.088968906 0.0071283384)
(0.54987742 -0.089009891 0.007133179)
(0.54986227 -0.089053046 0.007139175)
(0.54984769 -0.08909741 0.0071444845)
(0.54983116 -0.089140927 0.0071500822)
(0.54981222 -0.089182052 0.0071537699)
(0.54978963 -0.089218263 0.0071564539)
(0.54976306 -0.089249299 0.0071572058)
(0.54973083 -0.089272529 0.0071548466)
(0.54969641 -0.089288518 0.0071516965)
(0.54965577 -0.089296077 0.0071471217)
(0.54961283 -0.089295468 0.0071421876)
(0.54956507 -0.089287833 0.0071401516)
(0.55743834 0.033779746 0.0067907302)
(0.5574349 0.033778928 0.0067953194)
(0.55742912 0.033770444 0.006801524)
(0.55741858 0.033756247 0.0068075612)
(0.55740446 0.033735396 0.0068111755)
(0.55738526 0.033708868 0.0068127348)
(0.55736148 0.033677458 0.006811329)
(0.55733358 0.033642306 0.0068078653)
(0.5573022 0.033604702 0.0068025388)
(0.55726875 0.033565878 0.0067958496)
(0.55723399 0.033527364 0.0067891853)
(0.55720078 0.033490588 0.0067821679)
(0.55716973 0.033456482 0.0067756929)
(0.55714169 0.033426571 0.0067727133)
(0.55712104 0.033401013 0.0067662191)
(0.0011040195 0.0023568343 0.0032445113)
(0.0017865237 0.0037168072 0.003702433)
(0.0025522339 0.0052797944 0.004588412)
(0.0037257088 0.0067032587 0.0048709512)
(0.0049155994 0.0081109077 0.0052201248)
(0.0065558055 0.0095106292 0.0053447069)
(0.0083213366 0.010855702 0.0054040799)
(0.010462114 0.012250544 0.005391765)
(0.012709062 0.013528372 0.0053473895)
(0.015286356 0.014862631 0.0052585182)
(0.018005804 0.016066788 0.0051238431)
(0.020976384 0.017335926 0.0050221695)
(0.024093879 0.018444987 0.0048538229)
(0.027412367 0.019624274 0.004728265)
(0.030858174 0.020649025 0.0045711579)
(0.034496038 0.021733441 0.0044541407)
(0.038246669 0.022677021 0.004309845)
(0.042115672 0.023647064 0.0042197664)
(0.046122726 0.024523726 0.0041119395)
(0.050233416 0.025391383 0.0040477168)
(0.05443659 0.026188574 0.0039888875)
(0.058746822 0.026958972 0.0039618082)
(0.063141332 0.027688093 0.0039392763)
(0.067612254 0.02836961 0.0039509701)
(0.072178726 0.029024931 0.0039669591)
(0.076812667 0.029636487 0.0040087861)
(0.081530804 0.030222112 0.0040533136)
(0.086320383 0.030767979 0.0041158715)
(0.091191765 0.031290664 0.0041799895)
(0.096134055 0.031787455 0.0042521318)
(0.10115778 0.032253239 0.0043236381)
(0.10625719 0.032702392 0.0043982652)
(0.11143734 0.03312823 0.0044694219)
(0.11669228 0.033538056 0.004538884)
(0.12203316 0.033931036 0.0046045284)
(0.12745154 0.03430565 0.0046664339)
(0.1329497 0.034672134 0.0047256588)
(0.13853033 0.035022489 0.0047795656)
(0.14419335 0.035364405 0.0048329668)
(0.1499357 0.035693087 0.0048865891)
(0.15576105 0.036012643 0.0049384728)
(0.16166399 0.036318041 0.0049913071)
(0.16764822 0.036617677 0.0050488412)
(0.17371316 0.03689929 0.005106812)
(0.17985427 0.037171563 0.005170594)
(0.18607592 0.03742893 0.00523787)
(0.19237449 0.03767047 0.0053088601)
(0.19875103 0.037896378 0.0053851381)
(0.2052046 0.038103788 0.0054632289)
(0.21173564 0.038292197 0.0055445855)
(0.21834281 0.038460452 0.0056259641)
(0.2250267 0.038606548 0.0057078023)
(0.23178625 0.038730895 0.0057861849)
(0.23862135 0.038830931 0.0058618653)
(0.24553082 0.038907917 0.0059311017)
(0.25251389 0.038959347 0.0059940595)
(0.25956915 0.038987132 0.0060482524)
(0.26669453 0.038989095 0.0060940187)
(0.27388794 0.038967081 0.0061296989)
(0.28114657 0.038920253 0.006156223)
(0.28846705 0.038849767 0.0061733611)
(0.29584534 0.038755184 0.0061826565)
(0.30327725 0.038638506 0.0061845124)
(0.3107586 0.038498677 0.0061816099)
(0.31828229 0.038338311 0.0061750486)
(0.32584687 0.038155356 0.0061677615)
(0.33344444 0.03795424 0.0061603564)
(0.34106843 0.037731235 0.0061566274)
(0.34871531 0.037489473 0.006156493)
(0.35637952 0.037227464 0.006164381)
(0.36405818 0.036948595 0.0061788209)
(0.37174632 0.036650415 0.0062014796)
(0.37944153 0.03633559 0.0062322019)
(0.3871406 0.036003287 0.0062710577)
(0.39484299 0.035654665 0.0063170305)
(0.40254553 0.035288566 0.0063698374)
(0.41025044 0.034908628 0.0064258674)
(0.41795486 0.034511731 0.0064855957)
(0.42566218 0.034102494 0.006544698)
(0.43337025 0.033677744 0.0066033226)
(0.44108302 0.033242843 0.0066566514)
(0.44879829 0.032794917 0.0067055455)
(0.45651999 0.032338106 0.0067465344)
(0.46424522 0.031871195 0.006780323)
(0.47197758 0.031397277 0.0068040839)
(0.47971338 0.030917862 0.0068198308)
(0.48745319 0.030434597 0.0068272342)
(0.495195 0.029948177 0.0068275787)
(0.50293665 0.029460603 0.006822949)
(0.51067625 0.02897285 0.0068146991)
(0.51841017 0.028486333 0.006805462)
(0.52614021 0.028000215 0.0067971347)
(0.53385446 0.027519424 0.0067909739)
(0.54157143 0.027035196 0.006789007)
(0.54926784 0.026559693 0.0067890634)
(0.00030254947 0.0021094399 0.0028386051)
(0.0009794998 0.0027681713 0.0033930684)
(0.0020508727 0.004454128 0.0039242935)
(0.0030162225 0.005431431 0.0043373452)
(0.0043527716 0.0068102509 0.0045404639)
(0.0059169975 0.0079092061 0.0046458598)
(0.0077700478 0.0091873832 0.0046917129)
(0.0098006634 0.010284787 0.0046994349)
(0.012136516 0.011470249 0.0046696189)
(0.014684315 0.012526535 0.004567088)
(0.017421233 0.013633783 0.0045223008)
(0.020388351 0.014634611 0.0043664971)
(0.023513788 0.015660572 0.0042974831)
(0.026835686 0.016595791 0.0041457105)
(0.030298247 0.017534539 0.0040748365)
(0.033950831 0.018407317 0.0039128437)
(0.037666582 0.019260785 0.0038702734)
(0.041594807 0.020060925 0.0037477131)
(0.045579445 0.020838939 0.0037029789)
(0.049706109 0.021559014 0.0036342738)
(0.05391041 0.022262964 0.0036164479)
(0.058235787 0.022914995 0.003579438)
(0.06261885 0.023543707 0.0035980953)
(0.067116793 0.024124677 0.0036061644)
(0.07167573 0.024681878 0.0036451466)
(0.07632398 0.025201668 0.0036835197)
(0.081040578 0.025692497 0.0037467592)
(0.08584003 0.026148646 0.0038093645)
(0.090710632 0.026586447 0.0038806059)
(0.095658533 0.02698792 0.0039543499)
(0.10068106 0.027372892 0.0040342546)
(0.10578271 0.027732739 0.0041072729)
(0.11095723 0.02807496 0.0041832631)
(0.11621495 0.028397034 0.0042551596)
(0.1215494 0.028704073 0.0043220775)
(0.1269634 0.028999 0.0043883515)
(0.13246201 0.029278746 0.0044479426)
(0.13803775 0.029548681 0.0045084561)
(0.14369249 0.029804241 0.0045654697)
(0.14943135 0.030055475 0.004621196)
(0.15524703 0.030289879 0.0046758959)
(0.16114578 0.030521489 0.0047351959)
(0.16712623 0.030735988 0.0047908615)
(0.17318172 0.030942669 0.0048568261)
(0.1793206 0.031137475 0.0049208724)
(0.18553719 0.031317148 0.0049918939)
(0.19183162 0.03148347 0.0050662839)
(0.1982053 0.03163343 0.0051446327)
(0.20465626 0.031766136 0.005225484)
(0.21118491 0.031880165 0.0053095286)
(0.2177904 0.031974947 0.0053937581)
(0.22447311 0.032047865 0.0054781311)
(0.23123156 0.032100499 0.005560181)
(0.23806604 0.032129133 0.0056393805)
(0.24497492 0.032136454 0.0057130342)
(0.25195786 0.032119308 0.0057810412)
(0.25901263 0.032080438 0.0058412409)
(0.266138 0.032017298 0.0058937534)
(0.27333121 0.031933329 0.005937197)
(0.28058997 0.031826085 0.0059725226)
(0.28791018 0.031698936 0.0059993205)
(0.2952888 0.031550314 0.0060190014)
(0.30272131 0.031383539 0.0060319214)
(0.3102029 0.031196639 0.0060406352)
(0.31772809 0.030993073 0.0060461217)
(0.32529459 0.030772267 0.006050008)
(0.33288798 0.030532986 0.0060565177)
(0.3405139 0.030276267 0.0060643692)
(0.34816583 0.030005943 0.0060747237)
(0.3558346 0.029720629 0.0060917885)
(0.36351844 0.029420286 0.0061146091)
(0.37121099 0.029103549 0.006145538)
(0.37891214 0.028772912 0.0061824218)
(0.38661673 0.028426291 0.006227027)
(0.39432548 0.028064748 0.0062777033)
(0.40203439 0.027687713 0.0063331999)
(0.4097455 0.027297004 0.0063917781)
(0.41745591 0.026890311 0.0064532281)
(0.42516887 0.026471165 0.0065134406)
(0.43288215 0.026037762 0.0065724529)
(0.44059963 0.025592987 0.0066269314)
(0.44831898 0.025136472 0.0066766385)
(0.45604382 0.024669894 0.0067191833)
(0.46377272 0.02419627 0.0067536074)
(0.47150653 0.023715359 0.0067814526)
(0.47924349 0.023229725 0.00680039)
(0.48698319 0.022741014 0.0068111123)
(0.49472476 0.022250284 0.0068162471)
(0.50246579 0.021760143 0.0068151201)
(0.51020427 0.02127018 0.006811768)
(0.51793688 0.020783218 0.0068057337)
(0.52566661 0.02029701 0.0068010166)
(0.53337868 0.019817813 0.0067961125)
(0.54109655 0.019334403 0.0067954218)
(0.54878809 0.01885994 0.0067940783)
(-9.7592341e-05 0.001600592 0.0024717078)
(0.00061272071 0.0023028834 0.0028257404)
(0.001252036 0.0034767598 0.003471901)
(0.0023924204 0.0044654455 0.0037350429)
(0.0037013099 0.005518096 0.0038695903)
(0.005366359 0.0065672732 0.0039686472)
(0.0071139685 0.0075267002 0.0040229385)
(0.0092952122 0.0085467207 0.0040301102)
(0.011580827 0.0094216096 0.0039593893)
(0.01414324 0.010415714 0.0039581035)
(0.016889055 0.011224496 0.0038329461)
(0.019875902 0.012158871 0.0037965586)
(0.022993493 0.012908436 0.0036707259)
(0.026328051 0.013772288 0.0036194058)
(0.02980885 0.014484078 0.0034812122)
(0.033419014 0.015255622 0.0034561558)
(0.037202483 0.015924785 0.0033430434)
(0.041093047 0.016619022 0.0033033967)
(0.045096737 0.017237868 0.0032452234)
(0.049224395 0.01785322 0.0032277617)
(0.053448092 0.0184268 0.0031940946)
(0.057761642 0.018961274 0.0032142825)
(0.062172894 0.019480641 0.0032178783)
(0.066661086 0.019948258 0.0032568479)
(0.071233141 0.020411473 0.0032919862)
(0.075880089 0.020818902 0.0033575386)
(0.080607796 0.021218729 0.0034169559)
(0.085405079 0.021578768 0.0034905923)
(0.090281427 0.021922048 0.0035665796)
(0.095228391 0.022232458 0.0036505937)
(0.10025536 0.022530082 0.0037265567)
(0.10535111 0.022799423 0.003809479)
(0.11053167 0.02305598 0.0038866864)
(0.11578269 0.023291449 0.0039612223)
(0.12111551 0.02351567 0.0040331427)
(0.12652668 0.023724823 0.0041000799)
(0.13201469 0.023921388 0.0041654655)
(0.13757991 0.024108457 0.004227197)
(0.14323628 0.02428575 0.0042858966)
(0.14896551 0.024449851 0.0043427938)
(0.15477919 0.024609318 0.0044035174)
(0.16067218 0.024756615 0.0044597191)
(0.16664347 0.024892641 0.0045258667)
(0.17269719 0.02502169 0.0045891873)
(0.17883056 0.025135452 0.0046578424)
(0.18504152 0.025238091 0.0047323567)
(0.19133278 0.025326783 0.0048083324)
(0.19770246 0.025400092 0.0048898824)
(0.20415022 0.025456927 0.0049738841)
(0.21067589 0.025496304 0.0050611773)
(0.21727968 0.025516908 0.0051482647)
(0.22395987 0.025517577 0.0052371476)
(0.23071727 0.02549848 0.0053227717)
(0.23755007 0.025457474 0.0054070593)
(0.24445824 0.02539645 0.0054856859)
(0.25143979 0.025312931 0.0055599476)
(0.25849392 0.025209448 0.0056265144)
(0.26561816 0.025084452 0.0056866908)
(0.27281066 0.024940223 0.0057381224)
(0.2800681 0.024775882 0.0057826467)
(0.28738761 0.024593866 0.0058188818)
(0.29476531 0.024393941 0.0058487347)
(0.30219688 0.024177635 0.0058726548)
(0.30967764 0.023945591 0.0058923983)
(0.31720285 0.023698567 0.0059090735)
(0.3247678 0.023437752 0.0059240598)
(0.332366 0.023164896 0.005942231)
(0.33999364 0.022877809 0.0059555707)
(0.34764584 0.0225744 0.0059799287)
(0.3553155 0.022260325 0.0060063826)
(0.36299988 0.021932639 0.0060391418)
(0.3706953 0.02159243 0.0060778226)
(0.37839941 0.021240031 0.0061218426)
(0.38610812 0.02087376 0.0061733782)
(0.39382082 0.020494507 0.0062285825)
(0.401534 0.020101626 0.0062895334)
(0.4092497 0.019695961 0.006352147)
(0.41696476 0.019276619 0.0064171298)
(0.42468242 0.01884635 0.006479963)
(0.43240022 0.018402538 0.0065423085)
(0.44012178 0.017949464 0.006599042)
(0.44784458 0.017484952 0.006651816)
(0.45557286 0.01701327 0.0066962775)
(0.46330324 0.016534828 0.0067346114)
(0.47103756 0.016049358 0.0067641307)
(0.47877508 0.015558647 0.0067855228)
(0.48651547 0.015066947 0.0067997889)
(0.49425721 0.014573819 0.0068078292)
(0.50199769 0.01408118 0.0068104237)
(0.50973577 0.013590035 0.0068102023)
(0.51746802 0.013101616 0.0068071027)
(0.52519693 0.012614741 0.0068041313)