/*--------------------------------*- C++ -*----------------------------------*\
  =========                 |
  \\      /  F ield         | OpenFOAM: The Open Source CFD Toolbox
   \\    /   O peration     | Website:  https://openfoam.org
    \\  /    A nd           | Version:  6
     \\/     M anipulation  |
\*---------------------------------------------------------------------------*/
FoamFile
{
    version     2.0;
    format      ascii;
    class       pointVectorField;
    location    "0.57";
    object      u;
}
// * * * * * * * * * * * * * * * * * * * * * * * * * * * * * * * * * * * * * //

dimensions      [0 1 0 0 0 0 0];

internalField   nonuniform List<vector> 
3969
(
(0 0 0)
(0 0 0)
(2.1050817 -0.17885312 0.0097732911)
(1.9808626 -0.66079997 0.0057089187)
(0 0 0)
(0 0 0)
(1.983314 -0.66452595 0.0053288993)
(2.1074966 -0.18274913 0.0093270549)
(0 0 0)
(0 0 0)
(0 0 0)
(0 0 0)
(0 0 0)
(0 0 0)
(0 0 0)
(2.0890728 -0.23973689 0.0088592806)
(2.0732713 -0.29977599 0.0084611824)
(2.0576834 -0.35965519 0.0079938423)
(2.0423032 -0.419463 0.0077045057)
(2.0270395 -0.47935273 0.0073285345)
(2.0117751 -0.53940228 0.0069854739)
(1.9965691 -0.59979958 0.0064282052)
(0.005336495 0.01176447 0.012755656)
(0.0085839245 0.020848958 0.015836966)
(0.015294077 0.030932577 0.017547377)
(0.025425249 0.040773477 0.017952353)
(0.038116586 0.050567995 0.018000429)
(0.053969599 0.05989194 0.017661546)
(0.072196805 0.068732193 0.017382781)
(0.093292017 0.076990964 0.016876667)
(0.11665803 0.084541581 0.016530449)
(0.14254266 0.09135062 0.015992047)
(0.17063031 0.097477989 0.01566527)
(0.20096337 0.10279979 0.015207161)
(0.23335723 0.10731204 0.014811623)
(0.26778435 0.11110565 0.014451574)
(0.30418282 0.11400216 0.014066499)
(0.34233668 0.11612448 0.013732121)
(0.38230761 0.11743568 0.013425216)
(0.4239505 0.11792297 0.013129327)
(0.46722419 0.11759205 0.012858351)
(0.51202283 0.11643849 0.012599356)
(0.55830372 0.11445909 0.01236421)
(0.60597451 0.11167968 0.012136248)
(0.6549722 0.10807302 0.011921832)
(0.70522716 0.10366935 0.011714484)
(0.75663622 0.09844453 0.011510139)
(0.80916452 0.092491302 0.011323742)
(0.86269 0.085745108 0.011144747)
(0.91718206 0.078257355 0.010966059)
(0.97254049 0.070044276 0.010800166)
(1.0286714 0.061136544 0.010650421)
(1.0855252 0.051563946 0.010506583)
(1.143022 0.041354671 0.010379384)
(1.2010801 0.030542366 0.010263932)
(1.2596448 0.01916856 0.010160712)
(1.3186568 0.0072716205 0.010071758)
(1.3780284 -0.0051455542 0.01000289)
(1.4377573 -0.017928367 0.0099196042)
(1.4977088 -0.031268346 0.0098939361)
(1.5579585 -0.044774156 0.009807743)
(1.6183191 -0.058855552 0.0098267319)
(1.6789186 -0.072986253 0.0097374307)
(1.7395619 -0.087560204 0.0097712452)
(1.8003383 -0.10235168 0.0097434661)
(1.8611766 -0.11714949 0.0097214112)
(1.9219967 -0.13249135 0.009812823)
(1.9829004 -0.14759834 0.0098056637)
(2.0436804 -0.16293571 0.010007715)
(0.00051593373 -0.012013707 -0.015776853)
(0.00514998 -0.019804781 -0.016646277)
(0.010099227 -0.029395461 -0.020115846)
(0.018442439 -0.038703149 -0.019809677)
(0.02982908 -0.049050084 -0.020210603)
(0.043368871 -0.059251304 -0.01962975)
(0.059518452 -0.069759278 -0.019371253)
(0.077758013 -0.080244679 -0.018802718)
(0.098298967 -0.090991397 -0.018398412)
(0.12100178 -0.10181678 -0.01785697)
(0.14564362 -0.11283319 -0.017429529)
(0.17244799 -0.12407057 -0.016967642)
(0.201015 -0.13545538 -0.016514235)
(0.23156768 -0.14709208 -0.016019375)
(0.26386743 -0.159 -0.015569891)
(0.29797991 -0.17112138 -0.015069891)
(0.33381622 -0.18357046 -0.014586839)
(0.37125289 -0.19621208 -0.014077462)
(0.41036133 -0.20924137 -0.013547025)
(0.45096646 -0.22246219 -0.013011968)
(0.49306608 -0.23608243 -0.012428946)
(0.53664411 -0.24988206 -0.011861586)
(0.58156324 -0.26408395 -0.011206289)
(0.6278534 -0.27851514 -0.010573259)
(0.6753634 -0.29318541 -0.0099143406)
(0.7241254 -0.30812666 -0.0092180061)
(0.77395367 -0.32324025 -0.0084950441)
(0.82497192 -0.33867761 -0.0077443309)
(0.87700913 -0.35424017 -0.0070090326)
(0.92999372 -0.36997961 -0.0062270927)
(0.9838976 -0.38588824 -0.0054488157)
(1.038614 -0.4019161 -0.0046528598)
(1.0941149 -0.41804942 -0.0038610771)
(1.1503045 -0.43427148 -0.0030711279)
(1.2071477 -0.45054324 -0.0022899245)
(1.2645528 -0.46687214 -0.001529549)
(1.3224966 -0.48320385 -0.00078677005)
(1.3808808 -0.49953628 -6.7052406e-05)
(1.4396844 -0.51588317 0.00062143784)
(1.4988513 -0.53217001 0.0012740791)
(1.5583291 -0.5484543 0.001909686)
(1.6180811 -0.56467053 0.0024964887)
(1.6780719 -0.58081784 0.0030621578)
(1.7382685 -0.59692418 0.0036038895)
(1.7986117 -0.61292189 0.0041188815)
(1.8591501 -0.62885207 0.0045962331)
(1.9197424 -0.64478751 0.0051095134)
(0 0 0)
(0 0 0)
(0 0 0)
(0 0 0)
(0 0 0)
(0 0 0)
(0 0 0)
(0.0045778558 -0.0077439451 0.012036019)
(0.0064309141 -0.023596151 0.01695957)
(0.010509879 -0.026816017 0.017503753)
(0.020055833 -0.040287311 0.018285899)
(0.030911613 -0.048861772 0.018159596)
(0.044994356 -0.059570328 0.017147298)
(0.061133882 -0.070236233 0.016952153)
(0.079681505 -0.080583806 0.015785439)
(0.10026331 -0.091715354 0.015546404)
(0.12297102 -0.10230268 0.014521864)
(0.14770103 -0.11399051 0.014472965)
(0.17447327 -0.12469371 0.013539919)
(0.20329097 -0.13657677 0.013122577)
(0.2339313 -0.14823325 0.01252309)
(0.266324 -0.16021666 0.012014913)
(0.30053412 -0.17261251 0.01154368)
(0.33639493 -0.18509042 0.011068794)
(0.373917 -0.19801305 0.01063854)
(0.4130201 -0.21114197 0.010222339)
(0.45366639 -0.22460525 0.0098187832)
(0.49579416 -0.23834679 0.0094453338)
(0.53934966 -0.25238776 0.0090844764)
(0.58429903 -0.26670463 0.008732836)
(0.63054798 -0.28126743 0.0083998253)
(0.67811158 -0.29618582 0.0080375727)
(0.72696482 -0.31127865 0.007641108)
(0.77673419 -0.32670276 0.0074189453)
(0.82769896 -0.34219246 0.0071240033)
(0.87967404 -0.35792734 0.0068879833)
(0.93263483 -0.37379491 0.0066425287)
(0.98648901 -0.38979119 0.0064126141)
(1.0411802 -0.40590667 0.00621311)
(1.0966375 -0.42210115 0.0060303502)
(1.1528075 -0.43835695 0.005871608)
(1.2096124 -0.45464459 0.0057323526)
(1.2670021 -0.47099263 0.0056277754)
(1.324936 -0.48727702 0.0055171146)
(1.3832739 -0.50362412 0.005470911)
(1.4420796 -0.5198992 0.0054021736)
(1.5012366 -0.53616926 0.0053753284)
(1.5607041 -0.55238533 0.0053451288)
(1.6204746 -0.5685688 0.005334242)
(1.6804579 -0.58467851 0.0053304612)
(1.7406733 -0.60074828 0.0053367235)
(1.8010324 -0.61672634 0.0053504201)
(1.8615774 -0.63265261 0.0053941192)
(1.9221189 -0.64858837 0.0054081965)
(1.9991093 -0.60358982 0.0056137275)
(2.0142393 -0.54319446 0.0060793384)
(2.0295275 -0.48314836 0.0066925905)
(2.0447698 -0.42329813 0.0073029734)
(2.0601102 -0.36348117 0.0080378502)
(2.0756652 -0.30362033 0.0085829514)
(2.0915436 -0.24365124 0.0091525314)
(2.0462711 -0.16688335 0.0086068925)
(1.9852638 -0.15156663 0.0082027233)
(1.9244501 -0.13632574 0.00770858)
(1.8636133 -0.1212191 0.0072530741)
(1.8027945 -0.10630918 0.0067294167)
(1.7420339 -0.091603131 0.0061870702)
(1.6813561 -0.077136448 0.0056191373)
(1.6207811 -0.062925195 0.0050120315)
(1.5603592 -0.049008162 0.0043653621)
(1.5001174 -0.03538815 0.003687421)
(1.4400831 -0.02215396 0.0029719916)
(1.3803959 -0.0093470988 0.0022519207)
(1.3209319 0.0031177345 0.001462725)
(1.2618991 0.015061854 0.00067758311)
(1.2032983 0.026517129 -0.00013823673)
(1.145208 0.037411191 -0.00095125114)
(1.0876846 0.047730956 -0.0017699343)
(1.0308126 0.057420503 -0.0025899402)
(0.97465045 0.066463053 -0.0033940392)
(0.91928951 0.074806557 -0.0041894435)
(0.86479094 0.082458083 -0.0049724813)
(0.81124342 0.089347132 -0.0057252715)
(0.75871619 0.09550375 -0.0064626905)
(0.70727186 0.10087013 -0.0071799153)
(0.65701456 0.10545598 -0.0078740094)
(0.6079973 0.10923799 -0.008539066)
(0.5603009 0.11221776 -0.0091921603)
(0.51399849 0.11437643 -0.0098083551)
(0.46916619 0.11571829 -0.01041508)
(0.42586434 0.11623662 -0.010997375)
(0.38418156 0.11593511 -0.011569717)
(0.3441667 0.11482825 -0.012128107)
(0.30589699 0.11292742 -0.012667562)
(0.26960546 0.1099599 -0.013096928)
(0.23521539 0.1063812 -0.013727767)
(0.20264198 0.10203762 -0.014080169)
(0.17235724 0.096823638 -0.014678431)
(0.14409329 0.090809392 -0.015103182)
(0.11812929 0.084197406 -0.015699676)
(0.094716395 0.076468316 -0.0160508)
(0.073727735 0.068464779 -0.016521176)
(0.054969526 0.059659911 -0.016936471)
(0.039449403 0.050279269 -0.017237516)
(0.026278745 0.040523927 -0.017163301)
(0.016518703 0.030870204 -0.016616364)
(0.0093892288 0.020031013 -0.014988837)
(0.0095088046 0.011516119 -0.0095297954)
(0 0 0)
(0 0 0)
(0 0 0)
(0 0 0)
(0 0 0)
(0 0 0)
(0 0 0)
(0 0 0)
(0 0 0)
(0 0 0)
(0 0 0)
(0 0 0)
(0 0 0)
(0 0 0)
(1.9811451 -0.66149791 0.0056050413)
(1.981469 -0.66208607 0.0055572874)
(1.981783 -0.66259466 0.0055314644)
(1.9820927 -0.66311099 0.0055186633)
(1.9824021 -0.66357797 0.0055135138)
(1.9827038 -0.66398201 0.0054957411)
(1.9830057 -0.66441376 0.00539585)
(2.1056819 -0.17914616 0.0097371818)
(2.1060281 -0.17963308 0.009722692)
(2.106359 -0.18009171 0.0096293673)
(2.106679 -0.18057475 0.0095505742)
(2.1069688 -0.18106185 0.0094626984)
(2.107214 -0.18158787 0.0093867416)
(2.1075401 -0.18205911 0.0093576313)
(0.0014079882 0.0089434423 0.011517402)
(0.0048432827 0.015757006 0.011673592)
(0.011093073 0.023623627 0.013176889)
(0.020828543 0.030963786 0.013494215)
(0.033270778 0.038107637 0.013416692)
(0.048931129 0.045090058 0.013302144)
(0.066930959 0.051424842 0.012904995)
(0.087704314 0.057446689 0.012722558)
(0.11087682 0.062621785 0.012244412)
(0.13645179 0.06735252 0.01201653)
(0.16421565 0.071318144 0.011647804)
(0.19415905 0.074572287 0.011327784)
(0.22622878 0.077214198 0.011022572)
(0.26023378 0.079039349 0.01073352)
(0.29619724 0.080129708 0.01047707)
(0.33397702 0.080495148 0.010217006)
(0.37352001 0.080113787 0.010006315)
(0.41472682 0.078941682 0.0098063663)
(0.45755929 0.077034489 0.0096250857)
(0.50193166 0.074349527 0.0094578778)
(0.54777661 0.070915191 0.0093155668)
(0.59501494 0.066716164 0.0091767626)
(0.64359581 0.061771416 0.0090639591)
(0.6934082 0.056079885 0.0089526589)
(0.74444571 0.049673025 0.0088710319)
(0.79658288 0.042514553 0.0087614907)
(0.84974403 0.034681448 0.0086914973)
(0.90388895 0.026171201 0.0086241616)
(0.95891282 0.016983086 0.0085717829)
(1.0147395 0.0071874654 0.0085264763)
(1.0713153 -0.0032135732 0.0084972267)
(1.1285515 -0.014191067 0.0084776104)
(1.1863778 -0.02569595 0.0084721591)
(1.2447431 -0.037703843 0.0084766114)
(1.3035642 -0.050187585 0.0084940118)
(1.3627796 -0.06308029 0.0085192547)
(1.4223716 -0.076377515 0.0085442751)
(1.482214 -0.090043916 0.0086046597)
(1.542358 -0.10398869 0.0086312047)
(1.6026669 -0.11828798 0.008712909)
(1.6631772 -0.13273088 0.0087319065)
(1.7237793 -0.14757141 0.0088482929)
(1.7845612 -0.16240666 0.008838137)
(1.8453201 -0.17755911 0.008970682)
(1.9062045 -0.19288625 0.0090164848)
(1.9670353 -0.20812165 0.0090758466)
(2.0278655 -0.22390308 0.0091123599)
(-0.0020134947 0.005922512 0.0078201564)
(0.0012481513 0.0097295633 0.0075534758)
(0.00782661 0.016106084 0.0087347052)
(0.017284604 0.020686875 0.0087249404)
(0.029840027 0.025775459 0.0088042082)
(0.044943326 0.030300987 0.008526167)
(0.062747073 0.034435185 0.0085327363)
(0.083287928 0.038061315 0.0080903003)
(0.10606457 0.041089392 0.0080747812)
(0.13126518 0.04366213 0.0077602138)
(0.15868303 0.045435948 0.0075947131)
(0.1882756 0.046766517 0.0073707696)
(0.21990585 0.04731964 0.0072142696)
(0.25357245 0.047233973 0.0070645879)
(0.28912163 0.046468565 0.0069192542)
(0.32646191 0.045076168 0.0067738589)
(0.365552 0.042976825 0.0066491689)
(0.40630727 0.040190188 0.0065533545)
(0.44869178 0.036703814 0.006460838)
(0.49262356 0.032512166 0.0063985972)
(0.53803081 0.02761304 0.0063400943)
(0.58485761 0.022026656 0.0062989027)
(0.63297984 0.015752412 0.0062703344)
(0.6824242 0.00881878 0.0062631827)
(0.73302852 0.0011812767 0.006244325)
(0.78475677 -0.0070622673 0.0062897139)
(0.83754307 -0.015971486 0.0063224241)
(0.89131705 -0.02550243 0.0063572207)
(0.94597762 -0.035595148 0.00642901)
(1.0014896 -0.046276075 0.0064951235)
(1.0577591 -0.057485905 0.0065744099)
(1.114711 -0.069209094 0.0066749719)
(1.1722876 -0.081401431 0.0067729922)
(1.230416 -0.094043349 0.0068889183)
(1.2890208 -0.10708415 0.0070099296)
(1.3480634 -0.12050698 0.0071381402)
(1.4074798 -0.13425146 0.0072674748)
(1.4671593 -0.14834977 0.0074214511)
(1.5272161 -0.16261724 0.0075183234)
(1.58735 -0.17727423 0.0076996039)
(1.6478458 -0.19198913 0.007785116)
(1.7083313 -0.2070266 0.0079561108)
(1.7690886 -0.22211241 0.0080468224)
(1.8297796 -0.23743762 0.0082206375)
(1.8906542 -0.25285319 0.0083146947)
(1.9514694 -0.26839138 0.0084136019)
(2.0124297 -0.28416223 0.0084716194)
(-0.0047661881 0.0032057087 0.0046195859)
(-0.0013257792 0.005498518 0.0043242627)
(0.0047048526 0.0087228422 0.0045751225)
(0.0144276 0.011414472 0.0045491125)
(0.026514206 0.013898151 0.0043319423)
(0.041832543 0.016219473 0.0043169153)
(0.059566816 0.017753175 0.0038626426)
(0.079786621 0.019167165 0.0039452532)
(0.10238206 0.019855772 0.0037014794)
(0.12735882 0.020120832 0.0035659233)
(0.15438923 0.019899372 0.0034769344)
(0.18356457 0.019047726 0.0033696617)
(0.21477669 0.017688692 0.0032940073)
(0.24792558 0.015681588 0.0032421743)
(0.28296725 0.013161451 0.0032299642)
(0.31985781 0.0099723488 0.003149482)
(0.35847675 0.0061803469 0.0031473791)
(0.39878695 0.0017452419 0.0031196719)
(0.44071026 -0.0033317692 0.0031431223)
(0.48414909 -0.0090290383 0.0031720833)
(0.52905608 -0.01536169 0.0032394395)
(0.57534338 -0.02232368 0.0033163142)
(0.62304934 -0.029895907 0.0034175659)
(0.67197996 -0.038130951 0.0035096153)
(0.72213453 -0.04692408 0.003664947)
(0.7734395 -0.056334474 0.0037785958)
(0.82584748 -0.066316309 0.0039024165)
(0.87922615 -0.076845325 0.004071205)
(0.93354899 -0.087897433 0.0042297551)
(0.98872051 -0.099469515 0.0043993397)
(1.0446638 -0.11149259 0.0045958384)
(1.1013267 -0.12397886 0.0047915019)
(1.1586239 -0.13687095 0.004999979)
(1.2164955 -0.15014438 0.0052181115)
(1.274874 -0.16378167 0.0054417049)
(1.3337105 -0.17770872 0.0056591551)
(1.3929045 -0.19197344 0.0058989568)
(1.4524993 -0.20641473 0.0061029551)
(1.512332 -0.22115875 0.0063321297)
(1.5724171 -0.23607374 0.006576374)
(1.6327452 -0.25108112 0.0067352645)
(1.6931495 -0.2664103 0.0070352966)
(1.7538212 -0.28165548 0.0071428241)
(1.814464 -0.29720589 0.0074370422)
(1.8753519 -0.3127642 0.0075369999)
(1.9361652 -0.32838454 0.0077489485)
(1.9970686 -0.34415398 0.0079025465)
(-0.0054143452 0.00048182392 0.00048597852)
(-0.0021107757 0.0005080224 -0.00065687587)
(0.0037813435 0.0015317296 -0.00057204673)
(0.012971726 0.0016952486 -0.00063240372)
(0.025258722 0.0017095363 -0.00058538252)
(0.040117447 0.0016561155 -0.00080526434)
(0.057437246 0.00078957065 -0.00049967108)
(0.07730328 -2.580238e-05 -0.00064921148)
(0.099493505 -0.0016524998 -0.00053756109)
(0.12392037 -0.0034209174 -0.00044082687)
(0.15050571 -0.0059247663 -0.0004269784)
(0.17933682 -0.008764713 -0.00041042292)
(0.21007517 -0.012172124 -0.00043560764)
(0.24283105 -0.016124715 -0.00035464797)
(0.27743839 -0.020531703 -0.00038423748)
(0.31389074 -0.025529454 -0.00030391633)
(0.35201953 -0.031027847 -0.00026039011)
(0.3918567 -0.037133381 -0.00016004748)
(0.43324964 -0.043784904 -5.0110055e-05)
(0.47621362 -0.051015506 7.6283993e-05)
(0.52066806 -0.058828577 0.000206813)
(0.56662182 -0.067188926 0.00035212655)
(0.61379572 -0.076131352 0.00051024878)
(0.66230024 -0.085586638 0.00072203185)
(0.71202118 -0.095585507 0.00089497449)
(0.76291048 -0.10610117 0.0011113882)
(0.8148523 -0.11711648 0.0013828315)
(0.8678128 -0.12862882 0.001656718)
(0.9217218 -0.14059506 0.0019292271)
(0.97649545 -0.15301021 0.0022489322)
(1.0320806 -0.16582362 0.0025508506)
(1.0883967 -0.17904078 0.0028821208)
(1.1453719 -0.19259809 0.0032081491)
(1.2029529 -0.20649007 0.0035489082)
(1.2610602 -0.22066297 0.0038794892)
(1.319631 -0.23512693 0.0042312936)
(1.3786391 -0.24977987 0.0045532534)
(1.4379699 -0.26467813 0.004892959)
(1.4976159 -0.27975642 0.0052371537)
(1.5575317 -0.29492732 0.0055122442)
(1.6177166 -0.31031168 0.0058396884)
(1.6780283 -0.32575608 0.0061206707)
(1.7386162 -0.3412468 0.0063663304)
(1.7992042 -0.35692383 0.0066924822)
(1.8600323 -0.37250814 0.0068956786)
(1.9207979 -0.38822644 0.0072256)
(1.9817414 -0.40395907 0.0074386443)
(-0.0059916541 -0.0024003046 -0.0032827934)
(-0.0024020753 -0.0036558002 -0.0043940079)
(0.0027818237 -0.0054696408 -0.0046489034)
(0.01221872 -0.0076359713 -0.0048649962)
(0.024047228 -0.010002127 -0.0051168402)
(0.038778455 -0.012652232 -0.0048838958)
(0.055865784 -0.015761427 -0.0049841331)
(0.075573256 -0.019026566 -0.0049252279)
(0.097367316 -0.022869924 -0.0047954514)
(0.12158705 -0.026971623 -0.0047657323)
(0.14785655 -0.031577533 -0.0047542716)
(0.17617738 -0.036393324 -0.0046333147)
(0.20646146 -0.04188572 -0.0044658431)
(0.23873936 -0.047634615 -0.0043471707)
(0.27281782 -0.053984213 -0.0041654166)
(0.30870773 -0.060743961 -0.0039692022)
(0.34634435 -0.068017212 -0.0038089607)
(0.38562637 -0.075763053 -0.0035978838)
(0.42653519 -0.084005755 -0.0033952354)
(0.4689664 -0.092748297 -0.0031628236)
(0.51292624 -0.10196164 -0.0029186991)
(0.55817663 -0.11169974 -0.0026069795)
(0.60486501 -0.12189142 -0.0023037135)
(0.65283217 -0.13262855 -0.0019971909)
(0.7020809 -0.1438116 -0.0016615475)
(0.75245455 -0.15544953 -0.0012865798)
(0.80396646 -0.16754813 -0.00091420284)
(0.85650805 -0.18006074 -0.00054891875)
(0.91001194 -0.19296748 -0.00014808212)
(0.9644063 -0.20624486 0.00024963078)
(1.0196293 -0.21987322 0.00066478849)
(1.0756025 -0.23382971 0.0010918379)
(1.1322651 -0.24808093 0.0015227476)
(1.1895482 -0.26258363 0.001950943)
(1.2473738 -0.27735821 0.0023990527)
(1.305717 -0.29229924 0.0028157663)
(1.3644618 -0.3074492 0.0032447562)
(1.4236231 -0.32277127 0.0036731689)
(1.4830777 -0.3381681 0.0040298337)
(1.5429105 -0.35371528 0.0044446358)
(1.6028906 -0.36933861 0.0048134307)
(1.6631412 -0.38499647 0.0051788834)
(1.7235444 -0.40073556 0.0055244236)
(1.7840797 -0.4165076 0.0059011245)
(1.8448145 -0.43223759 0.0061908065)
(1.9055988 -0.44805022 0.0065760417)
(1.9664892 -0.46377528 0.0069019886)
(-0.0050631745 -0.0051455226 -0.0076796125)
(-0.00082665153 -0.0088785248 -0.0088330794)
(0.0042706356 -0.013230749 -0.0099668785)
(0.013442966 -0.017816297 -0.010308473)
(0.025070183 -0.022702449 -0.010235577)
(0.039392839 -0.027775357 -0.010132368)
(0.056241418 -0.033337412 -0.0099685169)
(0.075446972 -0.038930854 -0.0096797057)
(0.096908312 -0.045087795 -0.0094682115)
(0.12061239 -0.051295972 -0.0091708014)
(0.14637974 -0.058048255 -0.00892986)
(0.17419381 -0.065039476 -0.0086641271)
(0.20399908 -0.072491652 -0.0084663194)
(0.23570179 -0.080260523 -0.0081830967)
(0.2692298 -0.088451518 -0.0079363469)
(0.30457286 -0.097009278 -0.007657645)
(0.34161928 -0.10600875 -0.0073987936)
(0.38035149 -0.11538405 -0.0070829576)
(0.42066794 -0.1252388 -0.0067822848)
(0.46253824 -0.13546186 -0.0064380286)
(0.50586142 -0.1462088 -0.0060925623)
(0.550736 -0.15720058 -0.0056863098)
(0.59682315 -0.16876615 -0.0053388631)
(0.64427437 -0.18083998 -0.0048818156)
(0.69296264 -0.19319057 -0.0044537063)
(0.74281113 -0.20597256 -0.0040120454)
(0.79383354 -0.21907842 -0.0035443965)
(0.84587616 -0.23254277 -0.0030308946)
(0.89890844 -0.24632083 -0.0025274654)
(0.9528636 -0.26043547 -0.0019901793)
(1.0076583 -0.27482582 -0.001449513)
(1.0632366 -0.28948071 -0.00089016139)
(1.1195271 -0.30436222 -0.00033807642)
(1.176458 -0.31947463 0.00023163809)
(1.2339797 -0.3347316 0.00077643006)
(1.2920065 -0.35017647 0.001332581)
(1.3505114 -0.36573414 0.0018705538)
(1.4094003 -0.38137793 0.002382374)
(1.4686748 -0.39715821 0.0029082892)
(1.5282272 -0.41294836 0.0033820444)
(1.5880688 -0.42878458 0.0038523868)
(1.6481669 -0.44464094 0.0042797248)
(1.7084079 -0.46055819 0.0047342071)
(1.768893 -0.47639051 0.0051199223)
(1.8294756 -0.49223599 0.0055414405)
(1.89021 -0.50805106 0.0059871504)
(1.9510685 -0.52372787 0.0064357713)
(-0.0029627066 -0.0092132175 -0.010843892)
(0.0011343209 -0.013950893 -0.012662593)
(0.0059643617 -0.021013963 -0.014470971)
(0.015106823 -0.027784054 -0.014740679)
(0.026199971 -0.035012161 -0.014864777)
(0.040486878 -0.042732953 -0.014605836)
(0.056842604 -0.050565311 -0.014402292)
(0.075723476 -0.058684955 -0.014009145)
(0.096744937 -0.067079892 -0.013746435)
(0.11994004 -0.075549802 -0.013335208)
(0.14531158 -0.084560051 -0.013014194)
(0.17255738 -0.093531824 -0.012723807)
(0.20187806 -0.1030855 -0.012314366)
(0.2329717 -0.11274299 -0.011982699)
(0.26599669 -0.12281259 -0.011604179)
(0.30072863 -0.13316093 -0.011241428)
(0.33723079 -0.14387397 -0.010843419)
(0.37535388 -0.15492756 -0.010449541)
(0.41509478 -0.16634062 -0.010027466)
(0.45637058 -0.17811586 -0.0095965066)
(0.49915871 -0.19022643 -0.0091456076)
(0.54330377 -0.20273032 -0.0086519493)
(0.58895758 -0.21556044 -0.0081641969)
(0.63582264 -0.22880256 -0.007624459)
(0.68396941 -0.24230227 -0.0071145098)
(0.73330087 -0.25615593 -0.0065367121)
(0.78378569 -0.27030336 -0.0059212062)
(0.83534935 -0.28472669 -0.0053193457)
(0.88792338 -0.29943152 -0.0046947192)
(0.94142714 -0.31438648 -0.004045334)
(0.99579808 -0.32955294 -0.0033914145)
(1.0509794 -0.3449255 -0.0027249624)
(1.1068871 -0.36047246 -0.0020542837)
(1.1634752 -0.37615784 -0.0013897822)
(1.2206591 -0.39197582 -0.00072634355)
(1.2783984 -0.40788944 -7.5025213e-05)
(1.3366112 -0.42387107 0.00054980646)
(1.3952803 -0.43993324 0.0011792167)
(1.4542998 -0.45599878 0.0017487786)
(1.5136683 -0.47210486 0.0023241689)
(1.5733278 -0.48818685 0.0028581418)
(1.6332507 -0.50428697 0.0033876963)
(1.693365 -0.52033678 0.0038813099)
(1.7537143 -0.53632141 0.0043405199)
(1.8141456 -0.55229922 0.0048437969)
(1.8747984 -0.56815148 0.0052792597)
(1.9355231 -0.58388381 0.0057996871)
(0 0 0)
(0 0 0)
(0 0 0)
(0 0 0)
(0 0 0)
(0 0 0)
(0 0 0)
(0 0 0)
(0 0 0)
(0 0 0)
(0 0 0)
(0 0 0)
(0 0 0)
(0 0 0)
(0 0 0)
(0 0 0)
(0 0 0)
(0 0 0)
(0 0 0)
(0 0 0)
(0 0 0)
(0 0 0)
(0 0 0)
(0 0 0)
(0 0 0)
(0 0 0)
(0 0 0)
(0 0 0)
(0 0 0)
(0 0 0)
(0 0 0)
(0 0 0)
(0 0 0)
(0 0 0)
(0 0 0)
(0 0 0)
(0 0 0)
(0 0 0)
(0 0 0)
(0 0 0)
(0 0 0)
(0 0 0)
(0 0 0)
(0 0 0)
(0 0 0)
(0 0 0)
(0 0 0)
(0 0 0)
(0 0 0)
(0.0051816751 -0.0036576915 -0.0082673275)
(0.0064396756 -0.0046840123 -0.0056732233)
(0.0077294356 -0.004949945 -0.0029889886)
(0.0082332806 -0.0052223667 -0.00077987027)
(0.0079995995 -0.0048358494 0.0014680042)
(0.0075195329 -0.0050240026 0.0039023701)
(0.006082836 -0.0032904624 0.0064570197)
(0.0098435447 -0.01887044 -0.013686553)
(0.012566313 -0.020785073 -0.0078600486)
(0.013762743 -0.019554971 -0.0037452652)
(0.014000235 -0.018959399 -0.00042493225)
(0.014116741 -0.019966447 0.0029313665)
(0.01255535 -0.019660887 0.0068301328)
(0.010921214 -0.019496103 0.01186264)
(0.014191423 -0.02709992 -0.014683689)
(0.017519192 -0.026056629 -0.010490022)
(0.019728643 -0.027025996 -0.0050711738)
(0.020081623 -0.026961337 -0.00092622093)
(0.019841359 -0.026354232 0.0039594873)
(0.018092048 -0.026590035 0.0076169254)
(0.015750721 -0.027548974 0.013816171)
(0.023539542 -0.039252038 -0.015079647)
(0.026566068 -0.039900355 -0.010667577)
(0.028390988 -0.039481461 -0.005314873)
(0.029142668 -0.039439961 -0.0010465521)
(0.02871403 -0.039503857 0.0037016547)
(0.027173776 -0.039989947 0.0088417835)
(0.024029728 -0.039171479 0.013387347)
(0.034124771 -0.04952603 -0.015436683)
(0.037430931 -0.049372553 -0.01100761)
(0.039764208 -0.049761465 -0.0058514171)
(0.040347149 -0.049570932 -0.0010240756)
(0.040111371 -0.049713526 0.003927148)
(0.038360367 -0.049619926 0.0084098509)
(0.03571231 -0.049784615 0.013881767)
(0.047963781 -0.06038814 -0.015021061)
(0.050856191 -0.06045808 -0.010735252)
(0.052877124 -0.060370231 -0.0056860789)
(0.053611526 -0.060640896 -0.001381836)
(0.053189196 -0.060396726 0.0037090881)
(0.051575316 -0.060309522 0.0084239791)
(0.048715569 -0.059975259 0.012912731)
(0.063675989 -0.070598375 -0.014904737)
(0.06673111 -0.07101024 -0.010518941)
(0.068842875 -0.071534924 -0.0058427689)
(0.069555132 -0.07157065 -0.0013934346)
(0.069321935 -0.071715902 0.0034801244)
(0.06780453 -0.071929776 0.0077861033)
(0.065189988 -0.07135237 0.012788375)
(0.081959489 -0.081564795 -0.014472573)
(0.084831036 -0.082005329 -0.010414954)
(0.086782718 -0.082116066 -0.005690354)
(0.08753623 -0.082319827 -0.0013811895)
(0.087115561 -0.082094485 0.0030785163)
(0.085749608 -0.081809086 0.00761438)
(0.083070557 -0.081337905 0.01179335)
(0.10234183 -0.092166188 -0.014229568)
(0.10515415 -0.092646768 -0.010005428)
(0.10709757 -0.093281614 -0.0057513195)
(0.10779546 -0.093354899 -0.0015703878)
(0.10758691 -0.093636487 0.0028495143)
(0.10623285 -0.093337138 0.00707209)
(0.10383855 -0.092969968 0.011624403)
(0.12482984 -0.10313694 -0.013813239)
(0.1275719 -0.1037472 -0.0099389563)
(0.12942068 -0.10397855 -0.0056874845)
(0.13026209 -0.10446972 -0.0014595357)
(0.12986511 -0.10423042 0.0026987199)
(0.12864158 -0.10391485 0.0068208185)
(0.12623328 -0.10334893 0.010860711)
(0.14948625 -0.11417775 -0.013490475)
(0.15210402 -0.11480162 -0.0096477466)
(0.15395242 -0.11540856 -0.0054498168)
(0.15457184 -0.11542761 -0.0017123872)
(0.15445894 -0.11558151 0.002480353)
(0.15318169 -0.11533232 0.0062750422)
(0.15095014 -0.11500315 0.010689777)
(0.17606565 -0.12534445 -0.013228613)
(0.17867053 -0.1260991 -0.0093028837)
(0.18029538 -0.12656341 -0.0056240018)
(0.18116714 -0.1269739 -0.0016237897)
(0.1808807 -0.12693975 0.0023416845)
(0.17959686 -0.12653107 0.0060324395)
(0.17770604 -0.12610278 0.010089425)
(0.20466136 -0.13692489 -0.012795868)
(0.20700374 -0.13752604 -0.0091309471)
(0.20877265 -0.13821155 -0.0054409833)
(0.20947133 -0.13831723 -0.0016949625)
(0.20926751 -0.13835611 0.0021233052)
(0.20814401 -0.13824289 0.0056432359)
(0.20619914 -0.13759855 0.0096031204)
(0.23498478 -0.1484761 -0.01252223)
(0.237333 -0.14924625 -0.0089029378)
(0.23909802 -0.14987345 -0.0054316828)
(0.23971663 -0.15011682 -0.0017482785)
(0.23966746 -0.15033254 0.0019410384)
(0.23850455 -0.14993328 0.0053169892)
(0.23680358 -0.14945683 0.0092225393)
(0.26721385 -0.16051145 -0.012167282)
(0.26952983 -0.16124258 -0.0086482679)
(0.27114113 -0.1618263 -0.0053349038)
(0.27186159 -0.1621386 -0.0016976275)
(0.2717337 -0.16214478 0.001720036)
(0.27072911 -0.16189532 0.0051160206)
(0.26903034 -0.16135309 0.0087787306)
(0.30122989 -0.17261396 -0.011795626)
(0.30339517 -0.17335238 -0.0084397825)
(0.30507249 -0.17407189 -0.005203103)
(0.30570314 -0.17433086 -0.0018056756)
(0.30567264 -0.17449303 0.0016339613)
(0.30468494 -0.174232 0.0048001958)
(0.30310616 -0.17371075 0.0084198151)
(0.33688262 -0.18505934 -0.011444245)
(0.33905975 -0.18589446 -0.0081584579)
(0.34063295 -0.18653948 -0.0051106838)
(0.34127788 -0.18683252 -0.0017143025)
(0.34126084 -0.18698116 0.0014828643)
(0.34034517 -0.18669698 0.0046061285)
(0.33884331 -0.18621804 0.0080743692)
(0.3742746 -0.19778114 -0.011027247)
(0.37632474 -0.1985903 -0.0079412588)
(0.37790041 -0.19930083 -0.0049194779)
(0.37851028 -0.19964063 -0.0017294118)
(0.37853047 -0.1997933 0.0013832177)
(0.37765428 -0.19956205 0.0044024494)
(0.37623553 -0.19907552 0.0077363955)
(0.41321245 -0.21078011 -0.010648935)
(0.41521625 -0.21162692 -0.0076239433)
(0.41673703 -0.21234142 -0.0047564321)
(0.41732095 -0.212668 -0.0016606306)
(0.41737678 -0.21285251 0.0013234666)
(0.41654304 -0.21262233 0.0042339089)
(0.41522182 -0.21220762 0.0074264644)
(0.45371296 -0.22406476 -0.010195368)
(0.45564954 -0.22492286 -0.0073251857)
(0.45711573 -0.22566296 -0.0045636634)
(0.45769274 -0.22605349 -0.00159201)
(0.45777209 -0.22623633 0.0012612164)
(0.45698496 -0.22607146 0.004072455)
(0.45574773 -0.22563069 0.007130858)
(0.49571376 -0.23765209 -0.0097587261)
(0.4975653 -0.23853176 -0.0069976164)
(0.4989836 -0.23929722 -0.0043415281)
(0.49955353 -0.23966729 -0.0014994139)
(0.49964754 -0.23989559 0.0012375523)
(0.498916 -0.23971578 0.0039372349)
(0.49775604 -0.23933163 0.0068640586)
(0.53913854 -0.25151629 -0.0092785919)
(0.54091989 -0.25241937 -0.0066392595)
(0.54229873 -0.25318053 -0.0040975895)
(0.54284328 -0.25360834 -0.0013925772)
(0.54296473 -0.25382184 0.001234096)
(0.54226727 -0.25370411 0.0038162876)
(0.54119353 -0.25333891 0.0066132009)
(0.58394705 -0.26568938 -0.0087633676)
(0.5856652 -0.26658343 -0.0062490332)
(0.58697526 -0.26737147 -0.0038475952)
(0.58752368 -0.2677924 -0.001259218)
(0.5876406 -0.26806931 0.001244331)
(0.58701424 -0.26797139 0.0036968032)
(0.58601903 -0.26762791 0.0063747629)
(0.63010052 -0.2800845 -0.0082176723)
(0.63173472 -0.28104821 -0.005858244)
(0.63299885 -0.28179336 -0.0035710639)
(0.6335172 -0.28229407 -0.0010992042)
(0.63367535 -0.2825327 0.0012566746)
(0.63309086 -0.28244753 0.0036163013)
(0.63215749 -0.28214352 0.0061581721)
(0.6774763 -0.29478255 -0.007709326)
(0.67910662 -0.2957361 -0.0054172339)
(0.68024733 -0.29645754 -0.003287886)
(0.68081992 -0.29700773 -0.00091206482)
(0.68092857 -0.29723471 0.0012839617)
(0.68040157 -0.29728171 0.0035455074)
(0.67955073 -0.29702669 0.0058989058)
(0.72608124 -0.3097096 -0.0071203061)
(0.72766236 -0.3106401 -0.0049950701)
(0.72870736 -0.31142574 -0.0029732581)
(0.7292988 -0.31195379 -0.00067115217)
(0.72936353 -0.31219627 0.001296347)
(0.72898879 -0.31226527 0.0034451802)
(0.728214 -0.31201678 0.005607697)
(0.7758482 -0.32486577 -0.0065333578)
(0.77734306 -0.32579732 -0.0046031398)
(0.77836205 -0.32660655 -0.0025558435)
(0.77896005 -0.32713146 -0.00061399158)
(0.77910183 -0.32742419 0.0014453336)
(0.77870643 -0.32752491 0.0034543858)
(0.77793879 -0.32731814 0.0055116919)
(0.82676943 -0.34022862 -0.0059257655)
(0.82810622 -0.34115744 -0.0040831533)
(0.82914996 -0.34198184 -0.0021865595)
(0.8296533 -0.34248248 -0.00039334363)
(0.82982476 -0.34282255 0.0016011079)
(0.82947937 -0.34288583 0.0033771364)
(0.8287898 -0.3428152 0.0053726917)
(0.87866175 -0.35575319 -0.0053159287)
(0.879967 -0.35671937 -0.0035406511)
(0.88088611 -0.35751497 -0.0018668906)
(0.8814333 -0.35804126 -8.1458928e-05)
(0.88155951 -0.35840901 0.0016842296)
(0.88128903 -0.35853304 0.0033860417)