/*--------------------------------*- C++ -*----------------------------------*\
  =========                 |
  \\      /  F ield         | OpenFOAM: The Open Source CFD Toolbox
   \\    /   O peration     | Website:  https://openfoam.org
    \\  /    A nd           | Version:  6
     \\/     M anipulation  |
\*---------------------------------------------------------------------------*/
FoamFile
{
    version     2.0;
    format      ascii;
    class       pointScalarField;
    location    "1.18";
    object      E;
}
// * * * * * * * * * * * * * * * * * * * * * * * * * * * * * * * * * * * * * //

dimensions      [1 -1 -2 0 0 0 0];

internalField   nonuniform List<scalar> 
28033
(
61057.574
61291.799
-2609009.3
-1288732.5
74151.066
73876.478
-1922159.2
-3950946.1
39978.005
25501.629
17164.573
12759.853
8508.2172
6274.8536
4699.3247
4123.1781
6064.7954
8913.8739
15596.111
24320.651
34254.494
43480.269
59552.851
-1413712.9
-1355922.4
-1328810.9
-1321298.3
-1333198.6
-1358724.8
-1394566.8
-1433046.4
-1469879
-1501100.1
-1523304.6
-1534457.5
-1531205.4
-1508712.9
-1121495.9
52295.712
34656.709
34095.541
34288.114
35446.033
36087.622
36726.024
36905.2
37107.254
37425.367
37152.58
37160.175
36897.539
37034.385
36697.427
36409.096
36161.007
36207.055
35904.655
35613.916
35526.956
35345.231
35092.105
34978.765
34723.576
34616.869
34383.648
34064.966
34060.737
33600.865
33340.176
33187.169
32705.174
32414.056
31572.179
31629.896
31167.504
29987.695
29998.19
29195.188
28467.148
27718.496
26956.153
26110.55
25259.986
24354.945
23382.74
22413.876
21345.854
20296.533
19156.431
18026.244
16836.881
15630.902
14407.805
13155.455
11895.756
10623.438
9356.331
8088.0294
6809.2436
5584.0187
4368.7885
3279.1695
1907.1912
785.35091
-312.77354
-1450.618
-2417.4782
-3284.2191
-3959.7356
-4852.3609
-5348.2328
-6097.1661
-6344.4553
-6954.1476
-6974.678
-7358.0955
-7204.7744
-7415.4773
-7008.6103
-7213.6725
-6532.6715
-6500.6586
-5788.5238
-5271.8689
-4363.7144
-3772.7525
-2783.6344
-1247.7376
-1930.2789
571.65218
-315.50444
301.43978
16543.806
50110.73
29168.765
35321.886
32308.035
33979.307
35083.274
34807.52
35305.166
35326.432
34865.964
34690.753
33922.736
33716.724
32714.65
32259.304
31348.983
30708.462
30061.304
29279.219
28596.455
27779.504
27219.669
26345.947
25942.867
25251.27
24748.747
24208.854
23599.01
23235.212
22618.144
22093.768
21700.017
21231.152
20894.756
20351.822
20387.973
19620.371
19398.725
18977.12
18719.773
18368.332
18077.81
17780.935
17508.058
17232.467
16994.344
16751.447
16542.807
16351.865
16173.494
16040.302
15912.709
15830.556
15770.838
15746.604
15749.601
15792.495
15861.913
15954.442
16097.464
16228.881
16421.295
16577.112
16824.169
16993.921
17323.486
17505.286
17951.312
17849.476
18018.181
18064.671
18107.398
18284.668
18208.626
18274.929
18107.612
18081.982
17873.838
17647.795
17421.139
17047.24
16743.834
16243.121
15885.927
15227.098
14824.191
14099.83
13595.191
12799.52
12407.64
11470.67
11091.437
10416.004
9678.3821
4267.4291
48288.432
30852.768
21263.523
17647.593
10367.153
7282.6735
5738.4309
5309.4673
6988.0008
11845.808
16509.013
25573.201
35013.054
48631.477
58561.288
95909.7
41841.616
25530.463
36744.726
35126.909
35863.281
36857.528
37847.44
37294.175
36532.386
37444.119
35009.536
36090.882
33426.812
34838.955
33815.227
33351.38
30867.446
32025.227
29621.951
30159.005
28783.947
28451.034
27912.674
27170.4
26769.65
25994.798
25704.45
24686.84
25007.116
24186.198
23805.045
23339.244
23381.252
21963.294
21539.686
22484.529
21634.742
21284.603
20974.012
20720.076
20446.84
20201.09
19957.177
19734.217
19515.702
19302.075
19099.393
18895.066
18702.368
18514.563
18330.012
18156.978
17979.359
17814.233
17637.266
17474.741
17298.892
17122.679
16947.978
16754.865
16566.122
16363.492
16146.635
15916.172
15795.34
15551.997
14095.196
16627.24
14399.622
14415.836
13978.336
13626.917
13281.465
12903.494
12496.658
12119.942
11700.238
11271.187
10831.897
10340.165
9886.6464
9332.7699
8873.5197
8243.9581
7779.6082
7125.5002
6590.6386
6000.7919
5501.665
4904.4033
4654.3369
4020.8814
3711.6942
2293.3896
-3149430.9
-3040614
-2731688.9
-3287904.9
-2713873.9
-3200626.4
-2600380.6
-2860916.3
-2951463.4
-2694064.1
-2365209.5
-2833528.4
-2382033.3
-2945720.4
-2897471
16784.143
6102.9135
8531.9752
8178.2179
7130.0474
6322.6642
5420.8336
4584.115
3722.9564
3066.4472
2345.4345
1637.949
1162.6279
592.66959
60.147701
-482.7096
-869.56398
-1244.3958
-1516.2646
-1718.1555
-1876.3957
-1953.9475
-1914.4367
-1834.989
-1601.9595
-1024.5402
886.39476
-1466.4855
-84.826894
331.02034
1080.0031
1785.8514
2593.4534
3462.4403
4409.5134
5392.139
6441.9642
7535.2102
8668.8266
9830.9585
11029.872
12228.851
13453.961
14664.626
15881.113
17068.407
18252.863
19381.814
20507.236
21562.197
22601.946
23562.137
24534.269
25322.444
26220.366
26977.47
26548.027
29657.853
30258.922
27965.345
31646.119
31176.908
31101.841
30992.001
32630.441
32880.959
32742.703
33676.261
33260.811
34066.063
33983.085
34558.24
34897.406
35450.659
35119.04
35896.171
35925.648
36362.064
36860.025
36282.736
37564.39
37847.364
37364.323
37584.74
39424.045
37186.61
38249.015
37824.457
38110.497
35680.428
36011.333
35757.876
36348.768
30599.329
59033.278
45043.832
41807.416
40210.896
40096.999
40910.559
41503.774
41324.527
41715.323
41771.401
41675.124
40251.986
39514.519
40390.988
41562.493
46269.42
41012.322
41549.954
39646.515
41794.137
41779.099
41173.475
44204.75
47156.635
45508.887
45509.919
43293.466
41557.793
41283.865
40655.039
46406.137
-1448864.1
-1449149.7
-1448771.9
-1449361.6
-1448498.3
-1448238.6
-1448342.9
-1448285.1
-1448221
-1448234.2
-1447636.8
-1448465.3
-1448489.7
-1448311.5
-1447905.8
-2941922.9
-2938646.8
-2938474.5
-2936813.8
-2939139.3
-2938827.9
-2938931.7
-2938876
-2938840.2
-2938707.4
-2938651.8
-2938612
-2938134.6
-2939123.7
-2943686.1
38673.58
28802.88
27559.642
27643.746
28007.382
28734.529
29219.285
29893.063
30121.056
30781.607
30781.509
31253.628
31156.936
31585.772
31345.967
31721.373
31635.028
31731.25
31682.498
31798.058
31789.797
31745.883
31779.326
31612.842
31588.994
31427.043
31261.819
31055.996
30793.772
30473.851
30053.326
29772.736
29327.7
28825.942
28403.503
27681.884
27205.608
26426.589
25799.681
25016.275
24191.9
23322.972
22479.16
21538.598
20636.573
19626.454
18655.713
17636.791
16610.003
15582.15
14547.809
13507.711
12488.595
11464.235
10473.468
9479.7192
8538.6455
7605.2397
6712.3012
5861.3131
5040.2584
4269.7027
3520.5638
2895.5281
2056.3259
1774.6384
1730.2239
1862.6745
1617.6376
991.50103
797.30329
401.76605
298.27812
93.248001
-36.657189
-40.092229
-134.08684
81.10809
-19.142454
452.35739
460.53853
906.4527
1492.0784
1983.5839
2392.8002
2736.8858
3541.2793
3851.2172
5077.5572
5041.3564
6397.5959
6918.1532
8179.9291
13293.551
24243.079
25158.393
19743.843
20940.007
20450.178
21108.867
21411.677
21938.538
22468.274
22993.42
23532.922
23927.58
24486.005
24860.839
25310.239
25601.253
26130.162
26232.758
26724.09
26892.57
27224.343
27322.389
27573.505
27640.056
27802.966
27845.26
27864.993
27785.533
27715.113
27556.666
27367.599
27129.447
26769.693
26324.923
25855.539
25338.428
24741.143
24188.808
23454.653
22745.567
21976.935
21213.489
20369.875
19517.448
18536.732
17641.041
16669.786
15688.4
14695.609
13686.035
12675.143
11648.261
10631.839
9620.4518
8607.5865
7622.0015
6643.2212
5699.9667
4766.8958
3879.2204
3030.293
2190.0463
1430.6339
701.68832
20.147835
-733.70077
-1296.8725
-486.12889
2804.4732
3599.5302
3569.649
3613.7172
3480.699
3574.168
3520.1943
3670.1974
3705.3231
3928.1375
4022.0025
4313.742
4437.7841
4866.995
4856.6942
5380.1052
2828.2421
761.25733
1187.839
2087.003
2686.6977
3105.4014
4002.9042
4362.6739
5133.9667
7588.9564
11510.357
22399.262
16074.315
12590.362
14700.011
14527.026
15318.033
15415.282
15840.832
16442.324
16848.725
17449.588
17894.424
18559.086
18918.993
19532.454
19932.12
20417.814
20836.286
21249.223
21582.853
21929.078
22228.534
22494.226
22719.63
22864.239
22948.586
23006.336
22987.002
22928.604
22768.305
22570.495
22288.084
21954.264
21607.772
21152.691
20681.877
20089.592
19377.551
18591.079
17937.845
17174.34
16259.151
15568.752
14593.099
13652.542
12763.605
11777.776
10812.127
9861.0676
8875.993
7918.8936
6967.407
6030.0573
5122.8351
4225.1733
3384.0971
2552.5183
1779.3936
1036.1041
350.95456
-304.2878
-889.88336
-1427.1307
-1927.9063
-2362.1588
-2730.873
-2722.7395
-5734.9084
-795.92866
-501.23129
-648.68083
-813.59961
-932.48594
-819.18429
-834.22455
-698.35272
-616.65442
-426.26886
-199.80217
41.881421
366.18207
692.74103
1129.2926
1439.32
2016.306
26.978098
1404.7885
2449.7075
2943.2712
4271.7987
4599.4758
5804.5053
7110.7784
8634.3757
12097.626
17448.078
10605.812
7975.1964
9392.2808
9812.6569
10397.639
10589.405
11036.589
11460.092
11702.85
12234.272
12623.878
13134.804
13453.698
14068.797
14275.245
14925.912
15063.691
15631.641
15790.091
16254.081
16398.773
16741.416
16830.82
17053.512
17121.652
17222.92
17191.847
17171.787
17071.334
16937.04
16729.109
16478.795
16169.033
15787.281
15394.039
14888.654
14525.931
14151.384
13468.435
12822.042
12249.837
11505.1
10840.159
10160.283
9482.4636
8732.5555
8031.5438
7294.7805
6555.4598
5843.2376
5120.1636
4424.4957
3742.5366
3082.1134
2459.7884
1853.0763
1294.3233
771.45026
276.97048
-149.40498
-556.35854
-901.23697
-1219.72
-1412.1179
-1713.8511
-1775.7862
-1442.1604
-3258.9256
-3698.3448
-3951.1353
-3873.8326
-3231.1121
-3108.2078
-3471.0335
-3262.7485
-3084.6596
-2454.2679
-2234.7495
-1431.2937
-1114.288
-131.28741
172.31573
1496.7004
1715.4217
3873.1655
5068.2302
6333.1751
7248.0288
8371.45
8883.9075
10779.216
10551.315
12420.095
11921.267
10242.441
6984.9095
4541.9387
5811.3716
5789.4366
6522.0919
6551.6819
6942.2735
7036.2751
7338.1763
7651.8865
7890.1499
8212.1441
8489.5428
8819.6852
9048.1652
9405.9568
9572.908
9940.1644
10054.83
10378.301
10465.182
10732.868
10791.514
11008.068
11008.951
11124.846
11118.476
11128.57
11059.655
10979.268
10854.254
10707.432
10498.756
10300.496
9969.225
9692.1605
9703.3292
9447.1401
9001.7603
8339.2267
7951.439
7514.2057
7180.9851
6722.9965
6325.2933
5876.0997
5493.3233
5064.1142
4686.0289
4301.0155
3941.2198
3595.9514
3281.2853
2978.9233
2721.4216
2471.187
2274.3406
2089.0149
1952.6796
1832.8704
1773.4343
1686.9952
1732.5457
1683.4761
1824.9651
1764.0255
2064.4909
2166.2028
2537.5667
2636.009
2756.9646
3205.0706
2630.2239
1402.4854
1549.3981
2114.8387
2613.487
3240.4022
3844.9686
4529.1254
5175.9788
6090.9969
6628.5468
7682.9645
8388.835
9279.0797
10488.079
11268.352
12616.193
13760.069
14882.021
14886.089
15223.62
12595.169
4786.2597
4335.7867
2554.4338
2999.01
2958.8098
3259.193
3464.7111
3434.9016
3653.7502
3667.9921
3846.5413
3858.4418
4133.9329
4087.9463
4433.5244
4343.7962
4720.2423
4623.1867
5009.6967
4930.6768
5272.5045
5230.5447
5506.9886
5494.0492
5698.9265
5687.0471
5866.9111
5836.4386
5936.543
5935.2472
5973.4559
5965.1287
5932.3989
5914.8168
5841.947
5751.2095
5749.0936
5411.5634
7244.9418
6925.5995
6263.7398
6140.7899
5840.0937
5584.5955
5309.6866
4980.9514
4643.5283
4294.0838
3936.2769
3567.4445
3194.8975
2815.4197
2445.4931
2076.6601
1719.2502
1378.076
1055.9629
753.14742
481.49862
237.30678
28.040907
-162.43741
-262.37003
-415.13155
-417.50462
-467.51429
-389.476
-375.76618
-236.71197
-18.743604
238.04565
464.25029
777.84322
645.2605
2557.5663
4161.0009
4792.5725
5628.7158
6099.5286
7086.8504
7462.1291
8744.881
8949.0749
10429.998
10800.109
12134.72
13001.68
14229.953
15215.291
16795.339
17093.045
18537.113
17920.251
18816.892
14092.036
2682.9012
3330.1591
965.17778
1404.6594
794.92441
1181.2113
973.50152
1106.6101
1010.9453
1042.1603
1029.0297
1000.2287
1057.8828
1002.846
1107.3014
998.31306
1199.2885
1029.7009
1262.4334
1086.5644
1342.4064
1216.883
1475.0644
1358.158
1585.3252
1575.3573
1727.3243
1769.342
1931.4777
1980.6499
2124.3843
2180.2684
2314.0402
2391.3421
2468.0702
2596.4924
2587.3872
2753.2773
2620.3631
3292.9491
2956.7748
3099.3701
3031.5607
3010.412
2951.8876
2853.5212
2753.8645
2659.0421
2527.9621
2409.8451
2275.7664
2155.669
2025.6354
1918.8348
1812.014
1734.5248
1662.1172
1630.081
1611.5853
1633.6834
1672.9847
1777.8547
1876.682
2051.4926
2249.8935
2485.8412
2771.109
3088.4109
3466.834
3871.0541
4272.4131
4817.0336
5338.8873
5885.4096
7251.0142
8495.226
9301.544
9808.9764
10632.486
11183.17
12045.403
12644.684
13419.353
14293.026
14718.771
15894.053
16167.476
17257.502
17772.652
18657.551
19388.396
20895.72
20612.67
21137.947
16780.013
5452.3944
2912.9432
680.74878
503.42785
110.55467
-17.979408
-21.912504
-136.31675
-205.31616
-319.30847
-330.54854
-544.23199
-456.74171
-712.56134
-580.39899
-817.62585
-646.64652
-878.4917
-638.60033
-833.74321
-618.06347
-799.30189
-594.30954
-660.75068
-389.68905
-446.5811
-192.49373
-144.58234
63.107259
163.97727
369.33671
517.49379
729.87166
871.51135
1119.9396
1259.2123
1487.9538
1623.6202
1896.5089
2015.502
2189.6179
2326.3591
2431.2888
2525.6416
2623.2999
2686.683
2781.3935
2841.3217
2905.0995
2961.6637
3022.6199
3077.4777
3150.6138
3223.1187
3317.859
3424.8507
3552.7824
3707.6573
3884.3211
4082.7823
4328.8798
4584.4316
4874.2266
5205.5251
5565.5745
5932.1419
6350.3885
6783.8287
7246.2922
7689.6011
8254.16
8686.5327
9248.9206
9869.1083
10273.325
10957.566
11511.353
12210.401
12723.708
13423.407
13862.449
14607.522
14983.252
15711.081
16032.468
16803.317
17067.809
17911.495
18303.513
19075.456
19363.6
19682.147
18713.611
20627.348
18642.541
9818.5355
3964.6217
1232.2116
1170.99
451.57258
337.29639
208.36297
135.88685
-76.107239
-180.87827
-271.33848
-491.27462
-527.16586
-729.17506
-720.53357
-981.56878
-869.99117
-1151.4557
-1011.5678
-1245.2873
-1065.8755
-1139.9194
-774.78213
-855.11944
-776.21403
-771.70168
-639.79687
-591.57856
-414.85603
-308.63161
-108.11084
46.27712
236.3377
442.06076
656.80659
844.29918
1091.329
1286.7903
1531.0135
1707.6931
1951.9132
2146.3266
2353.3182
2567.2843
2771.0045
2969.7692
3138.2662
3319.7239
3480.647
3655.7431
3817.6128
3998.11
4169.0778
4358.1012
4554.8373
4759.6023
4985.379
5227.5104
5475.7165
5766.7268
6059.1686
6374.4381
6724.8278
7094.7205
7463.7018
7886.1535
8324.5261
8771.7921
9240.7352
9774.7057
10234.213
10785.182
11368.448
11818.501
12318.798
12420.397
12557.75
13004.313
13578.367
13926.972
14582.823
14862.071
15388.176
15819.599
15953.552
16635.997
16312.397
16981.62
16500.546
16632.18
16756.371
17099.207
18154.283
20349.465
18969.782
14078.85
6218.4755
3483.5092
3271.0214
2665.9005
2696.0821
2622.3767
2532.3536
2374.1364
2294.7209
2324.2709
2023.8764
2114.7035
1865.4916
1844.4179
1656.0715
1639.1083
1395.92
1460.4571
1222.1135
1182.4329
973.6514
925.65757
608.05921
599.22415
532.51054
610.54866
591.03332
731.76573
738.7582
906.71469
949.26078
1146.3661
1246.9033
1421.244
1605.411
1784.4508
1967.1252
2184.481
2353.1153
2585.799
2764.9152
2984.7858
3148.5626
3349.2171
3515.0598
3714.0497
3903.8024
4102.1509
4296.8853
4509.3987
4719.8124
4943.4779
5183.1346
5431.9442
5694.6848
5982.7902
6272.1893
6593.7585
6927.0529
7267.7014
7641.5904
8024.7183
8402.1675
8822.1875
9233.3669
9649.5235
10067.799
10524.15
10909.314
11368.71
11818.457
12191.557
12723.148
12666.135
8628.4065
7284.3213
7947.601
8186.5842
8547.3323
8641.5903
9075.8321
9218.2911
9487.1532
9781.6073
9898.2876
10169.921
10335.718
10538.673
10820.837
10921.413
11436.89
11580.839
13155.692
13947.573
18130.479
6607.9496
5930.2036
5500.5726
5276.7243
5429.8154
5243.6005
5196.762
5053.7681
5113.3013
5025.5097
4855.9528
4894.7472
4699.5276
4599.7712
4504.887
4258.7622
4253.4287
3943.8201
3971.9042
3687.9469
3772.4025
3872.7369
3498.842
3203.4624
3086.7877
2898.5742
2886.0437
2740.5278
2732.1444
2676.6973
2675.5724
2728.4036
2698.5239
2821.8346
2829.6073
2932.436
3023.4176
3124.2996
3254.7598
3362.0922
3510.5633
3618.1813
3787.1741
3923.1545
4092.0482
4236.2311
4407.3221
4558.9873
4738.8258
4911.5529
5099.5441
5292.76
5500.2193
5713.253
5941.1442
6180.5232
6428.9813
6696.8796
6966.3959
7256.7902
7562.006
7855.9175
8195.2394
8525.4574
8859.1562
9206.6241
9554.8354
9876.6594
10251.28
10604.739
10896.989
11316.173
11642.145
11992.818
12953.245
8907.3712
10123.085
10203.183
10427.62
10824.319
10974.794
11323.929
11466.864
11751.158
11870.736
11979.373
12208.02
11924.673
12184.847
11919.1
11942.678
12497.425
13938.595
15289.536
20487.399
15426.585
10374.448
10954.689
10713.74
10812.243
10537.586
10547.962
10461.926
10440.315
10334.936
10199.648
10076.653
9896.7513
9529.1291
9393.591
8959.0273
8722.1046
8306.3583
8034.6718
7626.6695
7399.0191
6995.5268
7001.1856
6735.5539
6471.1783
6237.4045
5955.4114
5788.1177
5537.2456
5406.5154
5239.3877
5123.5562
5020.6083
4959.1394
4896.5038
4902.6764
4883.0967
4925.6723
4931.3827
5014.7744
5049.4992
5158.8773
5225.426
5341.5897
5439.4837
5570.0349
5701.2839
5847.4638
6002.0567
6166.8756
6343.8935
6526.7398
6725.9771
6928.2178
7145.222
7366.2922
7598.8327
7834.2646
8074.7566
8327.6672
8563.0816
8821.0888
9059.387
9295.7614
9504.9105
9766.0385
9965.647
10227.518
10421.93
10572.615
10827.845
10935.616
11119.752
11272.993
11373.567
12913.514
13869.817
13660.041
13813.316
13783.924
13723.1
13741.975
13503.254
13539.171
13114.039
13197.985
12592.71
12624.122
12242.465
11924.601
11792.813
11344.488
10954.389
9633.06
14688.039
22177.125
19000.74
18673.552
17926.112
17832.493
17395.331
17716.782
17299.372
17575.198
17340.76
17158.601
16983.537
16530.076
16148.245
15762.052
15128.185
14743.163
14073.764
13633.774
12961.987
12626.259
11936.907
11755.507
11125.456
10998.755
10305.104
10156.731
9646.5578
9381.7515
9087.2233
8774.6513
8596.4771
8338.8273
8209.0028
8009.2279
7859.4126
7749.7978
7605.2879
7551.3924
7422.0764
7392.0304
7295.9315
7258.0643
7189.3341
7143.8206
7082.7407
7037.4584
6978.0014
6932.5288
6881.1216
6836.1665
6791.3717
6753.2325
6718.3201
6688.5215
6668.0599
6652.8149
6645.4524
6649.879
6656.5853
6675.3355
6703.1672
6734.1928
6800.9237
6845.9848
6984.762
6963.3437
7080.5907
7048.6729
7194.8625
7191.5784
7327.2869
7341.9482
7414.5229
7500.2111
7578.2561
7698.0736
7703.9177
7784.8768
7867.2962
7967.0279
8026.7318
8146.631
8224.0536
8358.6792
8494.1184
8584.0612
9062.8015
8850.9433
9700.8947
9578.7615
9954.3142
8462.151
5779.5456
9067.3179
30943.335
25789.251
24874.52
23771.019
24305.726
24188.558
24429.124
24598.745
24812.337
24653.022
24481.353
24155.848
23818.136
23236.241
22826.363
22053.375
21626.567
20835.762
20375.244
19630.56
19162.956
18366.969
17956.889
17197.642
16867.853
16253.409
15958.795
15408.809
15105.62
14700.721
14386.048
14069.668
13759.657
13558.606
13222.213
13061.192
12836.84
12665.362
12448.982
12304.827
12119.85
11963.68
11797.788
11640.86
11478.458
11317.682
11151.419
10980.503
10807.832
10623.673
10444.11
10246.882
10059.363
9853.7289
9655.4639
9445.655
9236.5825
9025.9352
8806.792
8598.0176
8371.5327
8165.517
7922.4905
7714.7992
7421.9573
7274.6123
6945.8429
6920.1484
6572.2604
6424.2038
6309.4516
6069.4295
5971.3556
5794.1838
5747.846
5547.2081
5553.0987
5451.1206
5432.2196
5480.3566
5444.7014
5602.2882
5594.4223
5859.8663
5886.4002
6255.2406
6422.954
6880.7036
7119.3614
8155.5106
8176.8798
9417.7692
9082.6432
5548.6705
7731.5742
37141.824
29025.324
28602.706
27259.488
29055.11
28330.308
29312.586
29534.977
29604.805
29631.445
29188.589
28986.881
28521.247
27827.23
27538.748
26413.163
26296.864
25146.288
25006.499
23886.502
23891.649
22657.078
22760.097
21652.199
21650.618
20804.966
20645.534
20043.007
19819.424
19485.959
19172.397
18838.283
18569.16
18264.202
17920.364
17681.513
17542.346
17176.254
16978.825
16655.142
16397.002
16078.813
15771.06
15422.932
15069.687
14684.338
14288.18
13870.214
13433.933
12989.42
12524.771
12057.938
11581.12
11105.072
10627.95
10157.089
9698.8576
9245.5524
8815.8843
8400.5519
8011.4466
7645.2486
7308.1761
6996.382
6675.4247
6429.5558
6036.8691
6044.9282
5720.15
6035.94
5635.2062
5849.0074
5683.6473
5794.7305
5870.8659
5995.2352
6151.7888
6384.5176
6641.9355
6897.6807
7234.6462
7607.996
7978.6565
8437.8967
8916.5824
9430.8555
9963.4364
10678.307
11258.921
12077.058
12947.547
14039.36
14178.024
15283.891
12881.457
23914.166
22210.486
18250.745
17530.46
17088.388
17079.998
16601.965
16953.682
17115.966
17260.689
17092.582
17077.019
18724.612
20140.066
25648.865
15207.387
11962.183
10014.307
9811.6492
8958.4182
8827.4108
8502.005
8617.8061
8874.8649
8730.2286
8963.1106
9355.1416
10185.61
12005.178
15892.889
9888.5773
7031.7082
4750.6433
4265.1825
3631.6101
3486.3108
3404.942
3249.9536
3300.7554
3407.4775
3713.9553
3971.3972
4781.2481
6746.6655
10246.813
6763.7901
4904.7053
3558.918
2815.111
2563.8809
2341.3966
2267.9189
2152.1614
2316.6085
2406.6555
2623.6962
2901.2868
3907.4025
5090.3665
7418.7349
4816.1099
3354.6073
2130.5758
1702.8323
1350.8788
1197.112
1109.0427
1111.9446
1084.9087
1190.3516
1327.7936
1706.6565
2282.976
3147.718
5194.9906
4213.1019
2662.3953
1779.1082
1453.0666
1182.865
1064.7875
987.82829
987.76217
1008.8355
1072.4658
1274.8618
1443.0444
1897.6058
2802.1023
4326.1052
2843.6315
1881.1855
1288.0746
954.45471
786.80571
629.05298
576.42093
534.67046
561.11819
637.5663
742.18488
1013.5762
1342.2642
2119.0739
3339.8191
2893.1655
1781.0331
1140.645
889.01272
662.88875
572.17497
503.00658
497.33562
549.27041
579.69406
762.9893
974.97829
1327.2591
2091.5623
3474.3338
3094.668
2003.0399
1277.3233
944.61466
701.70031
570.83928
498.07235
514.64897
515.72383
712.15638
762.03319
1078.5688
1462.9838
2460.6336
3660.0977
4956.7922
3470.1805
2118.5122
1704.4636
1279.934
1153.6488
1044.1092
1021.5254
1069.3695
1128.5868
1520.6687
1661.4923
2597.9814
4120.7867
5874.8266
6782.4029
5151.7013
3237.2447
2764.2798
2097.7215
2008.9713
1782.7615
1864.6133
1852.2968
2017.5637
2414.0068
2994.7723
4085.3051
6097.6659
7884.7763
11761.565
7913.3179
5981.5529
4883.7597
4328.195
3877.177
3786.0111
3676.0865
3791.8673
4000.4765
4527.4326
4595.956
6638.5133
9253.4988
12098.218
15306.594
12561.031
9169.828
8327.2237
7141.6956
7134.032
6624.5231
6856.3518
6905.9381
6829.0558
7605.6875
8096.2987
9927.4618
13654.259
15273.526
22877.756
18393.155
14652.614
13644.955
12614.639
12333.426
12383.069
12499.254
12312.125
12344.947
12534.555
13234.03
14850.146
17774.307
22927.897
27350.498
27861.614
21635.564
20825.991
19474.434
18464.037
19293.492
20061.63
18720.544
19754.757
19466.549
20304.77
22160.052
25278.451
31472.272
62453.705
52289.947
51463.595
53366.723
54123.482
53956.188
56802.174
59594.384
60502.079
59843.652
58200.201
55065.515
54855.647
56535.708
54812.659
45827.91
39784.797
38573.291
36511.013
35377.466
36052.532
35659.867
36107.218
38350.293
36223.008
37034.692
36255.819
38804.678
42223.688
47779.821
39580.229
40792.974
38658.004
37794.653
38104.571
34910.781
34811.46
35214.836
33263.271
36379.033
35982.904
39725.286
40704.832
40130.351
41766.904
36566.182
39737.368
39523.881
37527.075
37273.878
36631.564
35986.834
36191.463
36331.009
36533.124
37975.045
39144.221
39783.761
40951.433
37079.849
39338.85
41619.123
42019.114
43332.717
41507.831
41484.469
41692.018
41368.501
41987.306
42979.629
42834.113
43668.807
42907.8
41650.555
40429.651
37276.594
40284.147
40343.479
40637.386
41140.04
40780.837
40391.271
40318.039
40480.497
40408.155
41418.797
41576.23
41070.236
40893.529
37301.687
38081.621
40508.49
41502.745
42268.48
42250.91
42662.381
42622.737
42684.429
42837.859
43082.145
42586.467
42821.833
42108.03
40108.932
39538.228
38049.89
39319.581
40309.781
41200.74
41803.124
41570.166
41769.846
42036.233
41639.532
42306.075
41957.335
41578.169
40996.265
38880.774
37652.236
37231.197
38928.112
40119.522
41220.648
41240.026
41910.519
41927.665
41972.294
42432.94
41667.212
41673.703
40993.377
40262.368
39062.679
37757.823
37201.681
37728.496
38718.065
39253.287
39853.173
39963.098
40253.433
40438.802
39861.988
40705.168
39610.187
39738.888
38731.88
37826.138
37125.971
36156.106
37211.12
37946.756
38938.65
39463.702
40004.803
40171.573
40199.767
40383.233
39724.2
40208.055
39266.926
38867.946
37823.914
37249.524
35574.86
35848.062
37190.555
37478.381
37881.983
38139.312
38235.535
38306.771
37994.253
38172.508
37546.432
37373.526
36643.321
35957.932
35909.895
34995.559
35474.496
35641.354
36600.108
36997.057
37374.015
37811.932
37687.013
37976.539
37726.48
37689.095
37155.949
36718.687
36182.52
35598.066
33991.333
34382.233
35007.962
35352.199
35870.107
36209.023
36046.237
36364.852
35886.05
35771.906
35319.093
35159.814
34621.024
34109.166
34426.436
33452.187
33584.16
34160.755
34724.584
35070.643
35039.945
35247.865
35405.933
35837.373
35685.614
35817.086
35416.536
35118.142
34824.863
34363.691
32414.334
32812.949
33025.029
33793.971
33547.36
34297.443
34354.938
34100.459
33841.662
33798.96
33306.957
33142.919
32264.037
32368.341
32699.422
31724.017
31722.878
32358.91
32566.295
33339.423
33068.937
33404.792
33293.794
33676.182
33534.667
33773.78
33401.819
33698.353
32786.663
33112.19
31088.354
31217.92
31363.031
31424.669
31790.672
32329.327
32553.281
32522.002
32216.254
32241.571
31728.503
31684.305
31511.914
30844.794
31048.313
30403.612
30328.914
30783.692
31276.623
31333.966
31300.725
31409.017
31503.574
31690.412
31582.859
31767.352
31517.379
31418.117
31499.431
31610.275
29219.624
29587.317
29799.083
30203.364
30391.586
30907.788
30555.326
30800.091
30785.241
30791.453
30320.821
30505.367
30166.721
29880.808
29774.881
29216.715
28962.853
29342.724
29440.39
29764.563
29679.289
30168.477
30062.003
30015.532
29915.279
29933.183
29812.879
29945.627
29794.098
30051.848
27886.807
28298.128
28383.76
28871.958
28892.555
29281.843
29047.538
29407.722
29265.947
29423.205
29251.087
29298.479
29009.74
28379.695
28884.923
27927.997
27500.641
28011.655
28057.63
28483.181
28282.636
28723.599
28574.756
28689.884
28636.282
28673.625
28359.176
28197.376
28182.199
28217.435
26861.857
27050.418
27204.262
27676.601
27639.059
28019.698
27873.869
27965.174
27949.715
28012.348
27726.59
27970.416
27860.396
27440.295
27674.078
26535.547
26567.153
26665.252
26915.986
27221.021
27003.707
27470.57
27365.811
27453.591
27415.78
27206.115
27230.722
27056.053
26818.101
26989.929
25715.251
25946.423
26255.431
26262.936
26423.685
26745.525
26705.192
26780.63
26795.417
26766.104
27013.151
26772.052
26619.058
26522.182
26470.71
25246.517
25357.904
25570.213
25916.558
26130.532
26110.406
26287.592
26320.757
26330.535
26345.48
26268.589
26274.783
26049.383
25677.554
25989.616
24744.372
24945.065
24914.025
25216.69
25618.264
25597.296
25689.629
25739.021
25838.852
25769.435
25749.968
25404.671
25632.108
25493.051
25352.856
24162.691
24415.188
25019.93
24837.151
24984.658
24992.622
25233.195
25292.042
25457.856
25347.172
25327.428
25367.522
25035.269
24662.284
24961.995
24041.006
23822.283
24115.168
24428.887
24636.692
24679.403
24846.224
24831.895
24807.788
24769.665
24755.811
24583.073
24287.118
24271.576
24368.858
23313.531
23472.561
23897.184
23977.31
24136.685
24548.168
24374.519
24269.554
24101.182
24267.339
24367.089
24215.442
24256.972
23822.756
23950.121
23101.46
22985.607
23415.511
23487.429
23749.241
23646.689
23873.728
23925.098
24113.161
23959.26
23870.473
23801.789
23675.812
23425.688
23554.254
22656.618
22587.439
23024.583
23131.299
23351.547
23355.626
23550.333
23440.359
23600.288
23487.976
23548.5
23375.421
23305.27
22995.581
23119.66
22335.155
22185.343
22592.648
22481.112
22959.599
22982.414
23119.052
23121.985
23173.525
23125.288
23085.684
23009.573
22876.678
22634.338
22828.702
21680.927
21844.254
22445.493
22557.404
22610.112
22583.763
22760.907
22729.58
22832.094
22983.83
22869.128
22669.913
22635.587
22366.543
22393.273
21751.221
21564.913
21837.968
22372.072
22120.172
22216.504
22402.193
22336.294
22607.057
22088.559
22442.706
22223.839
22219.215
21806.892
21984.508
21675.944
21080.7
21524.605
21385.419
21935.976
21807.981
22097.061
21928.588
22026.732
21566.166
21844.043
21907.518
21741.203
21546.132
21611.939
20815.229
20760.83
21335.348
21364.111
21537.888
21575.224
21705.275
21657.772
21800.446
21873.548
21814.923
21502.805
21545.464
21152.495
21327.194
20856.793
20399.857
21011.825
20901.5
21305.57
21145.003
21449.924
21282.264
21462.155
21329.27
21370.308
21257.045
21178.406
20835.522
21071.858
20513.303
20107.768
20707.69
20656.332
20948.892
20863.336
21131.544
20945.64
21196.847
20975.229
21116.095
20883.479
20871.582
20548.454
20755.516
20310.668
19799.304
20466.432
20301.632
20703.49
20531.183
20839.167
20657.03
20868.649
20704.556
20798.932
20591.406
20616.135
20228.613
20493.823
20058.625
19518.795
20169.243
20036.141
20413.865
20233.548
20585.507
20326.423
20621.106
20390.178
20514.2
20324.784
20314.759
19954.288
20251.504
19866.177
19224.237
19952.15
19745.222
20151.837
19968.695
20291.528
20070.183
20335.241
20112.247
20263.336
20033.448
20057.731
19689.896
20006.726
19647.081
18975.203
19698.921
19450.866
19901.221
19670.448
20055.761
19778.32
20069.452
19856.1
19980.415
19780.681
19803.937
19429.68
19784.395
19475.498
18716.086
19480.893
19202.073
19645.829
19441.618
19812.649
19522.119
19836.647
19595.566
19736.57
19539.331
19556.219
19192.263
19572.883
19292.461
18473.632
19278.336
18912.968
19408.45
19171.365
19569.57
19260.576
19581.039
19348.953
19487.356
19299.15
19320.606
18962.18
19372.885
19130.997
18256.225
19067.337
18687.067
19195.107
18966.593
19382.883
19032.8
19379.646
19130.4
19261.83
19083.412
19098.39
18747.004
19181.416
18996.337
18033.555
18901.371
18446.295
18982.741
18743.351
19163.786
18789.844
19162.556
18896.621
19039.598
18867.273
18889.474
18542.157
19009.553
18850.774
17849.338
18724.407
18232.082
18805.173
18565.025
19005.615
18607.045
18994.759
18710.979
18852.018
18678.178
18698.827
18349.208
18845.667
18755.476
17668.369
18582.939
18048.423
18636.583
18370.63
18820.635
18382.013
18800.85
18497.458
18651.389
18480.797
18517.647
18161.355
18702.771
18648.407
17509.281
18456.72
17872.919
18480.191
18222.615
18689.452
18238.413
18681.164
18350.348
18504.776
18332.628
18361.819
17999.776
18573.34
18578.997
17378.628
18345.443
17719.928
18364.685
18072.006
18543.184
18050.945
18511.835
18153.856
18332.924
18153.539
18204.318
17835.452
18455.396
18523.002
17254.794
18250.911
17602.798
18244.968
17943.851