/*--------------------------------*- C++ -*----------------------------------*\
  =========                 |
  \\      /  F ield         | OpenFOAM: The Open Source CFD Toolbox
   \\    /   O peration     | Website:  https://openfoam.org
    \\  /    A nd           | Version:  6
     \\/     M anipulation  |
\*---------------------------------------------------------------------------*/
FoamFile
{
    version     2.0;
    format      ascii;
    class       pointScalarField;
    location    "0.91";
    object      E;
}
// * * * * * * * * * * * * * * * * * * * * * * * * * * * * * * * * * * * * * //

dimensions      [1 -1 -2 0 0 0 0];

internalField   nonuniform List<scalar> 
625
(
62235.499
71405.958
-982923.71
-445998.58
63898.032
66022.576
-670356.6
-1463402.4
19314.79
8347.6242
43218.863
-529633.05
-516311.46
-384224.76
86338.637
78413.379
73441.822
67969.122
58786.006
52024.495
44546.732
37085.282
31154.837
24884.638
20078.379
14831.412
10555.332
6859.3301
3610.8312
691.15938
-812.15316
-2762.6077
-3559.4647
-4972.381
-5623.8961
-6833.8661
-5263.9394
81130.894
57520.652
62279.787
52738.68
46502.062
40829.762
31284.662
27128.098
21259.161
15699.603
12796.89
7921.9736
5341.3079
2339.3687
195.63853
-1951.9652
-3152.4382
-4648.9859
-4510.4316
-6523.7002
-4548.9685
-6378.399
-5050.9405
18493.925
5133.9973
36289.876
116106.41
120408.28
83828.403
92279.163
81412.213
55564.556
59086.053
43186.517
40254.94
32898.525
24754.999
20189.724
13309.619
8832.2099
4159.7422
137.76088
-3125.5231
-5949.6672
-8550.5957
-10207.121
-11616.048
-12896.824
-18804.815
-1002050.7
-1107043.6
-1074958.5
-13183.494
-11867.303
-9043.8263
-9130.0662
-8719.4243
-7959.1934
-7377.4204
-5488.0935
-3701.8284
-530.52616
2167.034
7282.7179
11243.531
18810.975
24739.906
29021.495
40160.933
46730.073
58083.264
64984.812
77508.122
79599.012
90566.056
55614.081
55564.727
56977.952
53806.629
52398.652
54186.666
-502811.88
-502862.23
-504433.72
-1102083.5
-1103657.3
-1104408.3
37114.63
29951.787
30963.53
26886.803
24033.606
21161.916
17854.948
14727.145
12850.73
9916.8744
7831.6193
5749.5649
4000.3845
2809.6306
1205.57
475.19349
-475.7425
-1317.745
-987.45312
-1961.3886
-1053.4995
-1005.8958
2393.6562
12467.588
9745.872
12798.507
10744.766
10956.671
11645.693
9503.5322
10609.311
8963.9826
8551.4127
8385.7541
7584.1218
7134.7146
6453.4643
5737.1188
5176.3675
4528.5358
3944.4867
3471.174
2082.8166
3557.2377
690.01717
5605.9282
27371.296
25665.76
24718.589
21512.792
21038.43
18795.932
15719.106
14551.919
11544.423
10729.138
7866.6646
6835.3105
5104.1687
4042.1548
2759.0621
2246.4189
1097.8437
1100.4084
-158.07309
999.90437
-880.04951
975.76922
1943.2338
12864.766
13695.138
13215.061
4498.7915
3804.142
6092.0332
19495.269
21176.023
21687.446
95168.089
95496.986
103405.6
106838.24
102957.27
101626.65
76049.287
71394.018
76638.852
72598.755
78153.583
78970.824
62795.903
57639.789
64761.368
54040.818
52334.601
54236.616
47051.292
45196.204
53425.334
39916.672
33166.276
40137.563
34275.3
29989.867
35992.263
29967.402
21167.666
28666.218
23392.239
17004.162
23118.13
19596.713
12008.218
18176.778
14743.736
7266.5145
13415.675
11232.058
3804.2882
9245.6596
7761.7903
263.98055
5575.4256
4788.6719
-2336.0148
2366.3656
2139.6805
-4558.1555
-432.50205
-25.029377
-6352.1318
-2703.4653
-1949.2155
-7468.8695
-4647.7123
-3979.1808
-8960.7168
-6548.3132
-4818.9605
-8768.5385
-7258.5807
-5940.0636
-8889.5303
-8252.8088
-9566.8848
-11681.165
-10015.205
-713458.18
-711504.46
-712287.17
-631631.51
-694127.17
-694179.85
-724875.04
-669705.49
-670256.81
87198.263
77420.648
78121.172
86046.965
81263.581
84813.477
79589.095
72983.458
71694.575
70874.062
64060.614
65297.418
61018.936
58897.689
56899.172
53495.063
48375.677
47126.108
45803.017
42526.257
41555.61
39502.606
35015.391
34293.439
32241.3
28634.035
26790.969
24889.944
24171.792
21064.709
21105.942
18694.875
16277.595
15532.583
13328.697
11520.559
11073.436
9470.6572
7772.7496
7452.6367
5877.5423
4276.3544
3746.6688
2669.2558
1567.0985
1178.0689
328.78431
-806.25706
-1004.607
-1772.6923
-2435.2548
-2663.9326
-3144.9207
-3880.9315
-3817.8497
-4003.2902
-4574.7642
-4541.1079
-4811.175
-5344.4271
-4914.9435
-5569.9892
-5713.5301
-9644.2456
-9273.3157
-8788.4585
-9872.379
-11665.239
-11740.163
56830.855
53763.375
49750.49
43399.149
41666.946
33908.634
32092.563
27168.501
21516.541
20855.738
16939.376
13400.441
11002.486
8536.4525
6267.6048
4483.3928
2561.5128
1414.4225
-202.30853
-1054.4662
-1382.9691
-1530.6608
2739.1614
7222.5995
24528.057
7890.7832
16557.864
12016.518
9958.2724
11281.368
8388.4957
9272.2172
7370.8998
7305.7272
6315.8355
6075.3356
5616.4576
5160.7486
4848.5378
4597.7045
4408.786
4171.324
4208.06
4673.9567
2198.7571
6998.4808
41627.835
20198.068
25108.526
29253.129
21792.036
23080.087
19872.419
17914.152
13298.626
11434.487
9205.7857
6839.4519
5208.0911
3500.8175
2088.0955
1013.9008
206.61963
-488.74269
-764.49784
-662.00223
-1428.0134
647.54765
-1455.4619
47172.487
42896.097
43362.917
43550.111
44174.866
42697.304
40289.746
40475.827
38359.718
35920.307
33858.713
33749.95
32800.209
32867.746
31279.131
29167.253
26815.604
26013.405
26141.97
24844.282
23512.731
22361.172
21416.66
19791.458
19297.095
18133.419
16775.086
16775.228
14802.824
14052.618
14238.089
12932.363
11900.119
11719.177
10627.437
9208.297
9535.9244
8534.8221
7379.2524
7627.2003
6553.5305
5574.8534
5591.2149
4912.5992
4079.3418
4359.9847
3475.0493
2605.5206
2419.5045
1974.9134
1524.5785
1664.6987
1090.6258
285.15535
240.14649
-401.07969
-280.41523
-1139.9851
-1476.5545
-1629.787
-226.38145
-1261.8856
-1111.1021
-675.8883
167.35779
-625.04828
3850.4966
1931.9147
3127.9259
10738.713
9642.6887
7205.7201
17510.969
23575.358
23118.367
11223.747
8783.3968
7908.8892
12109.21
14516.527
15375.617
11040.07
10570.677
11093.892
11206.838
9051.3154
9546.0506
8872.3463
9067.6238
10341.502
9512.4641
6995.5184
7242.9875
8202.6355
6342.3059
8095.9231
7574.8007
5825.1182
6578.4972
6958.2977
5008.2385
6037.1556
6111.8822
4387.7349
5293.0151
5738.7474
3737.059
4551.6245
5036.6316
3195.8286
4054.6899
4612.1288
2731.4964
3427.5662
4106.5518
2446.6463
2980.7504
3701.03
2048.7879
2425.0021
3423.6537
1900.2925
2247.2119
2970.5319
1917.0287
1885.1569
2398.2453
1944.6426
1598.159
4032.2802
1783.9376
3201.4808
698.40116
331.96353
-974.6892
5398.3286
4320.6646
4480.6486
31352.948
33085.161
36086.5
25172.495
26466.987
31707.948
24009.046
31287.782
31104.315
23071.545
27504.624
29558.066
19963.588
25806.315
26004.052
15930.132
23351.488
24789.687
14484.773
19672.416
19691.791
10415.052
17616.014
19535.285
8339.0326
15482.794
15980.726
6204.4184
13131.443
13733.455
4309.3422
10677.855
11258.671
3044.7733
8920.4504
9337.2036
1332.5627
7153.6463
7465.5995
455.68083
5657.3232
5821.2051
-561.52867
4234.8497
4615.2564
-1067.5986
3406.2923
3319.039
-1563.1999
1909.1384
2401.4044
-1766.7017
2022.3789
2034.7841
-1928.3345
389.10823
834.98111
-1321.1027
1834.7076
1812.9113
-2874.0135
-925.21553
-694.86221
-813.17095
1878.3244
2494.1815
-544.19484
-132.75198
-1140.447
)
;

boundaryField
{
    free
    {
        type            zeroGradient;
    }
    fixed
    {
        type            zeroGradient;
    }
    traction
    {
        type            zeroGradient;
    }
}


// ************************************************************************* //
