/*--------------------------------*- C++ -*----------------------------------*\
  =========                 |
  \\      /  F ield         | OpenFOAM: The Open Source CFD Toolbox
   \\    /   O peration     | Website:  https://openfoam.org
    \\  /    A nd           | Version:  6
     \\/     M anipulation  |
\*---------------------------------------------------------------------------*/
FoamFile
{
    version     2.0;
    format      ascii;
    class       pointScalarField;
    location    "0.91";
    object      p;
}
// * * * * * * * * * * * * * * * * * * * * * * * * * * * * * * * * * * * * * //

dimensions      [1 -1 -2 0 0 0 0];

internalField   nonuniform List<scalar> 
625
(
1183992.7
-1772558.6
9297.8157
14700.343
2024697.7
-3576557.6
13906.839
4413.577
852266.97
-108495.99
-208403.04
-9136.673
7339.5706
10753.365
495888.56
552811.29
544334.95
551002.02
492370.45
485025.02
448013.45
413858.09
398676.42
354165.23
330567.49
301763.55
270105.95
242231.03
212686.57
185302.87
154442.36
131797.21
102548.23
78805.833
57497.776
33840.933
21305.431
-622436.7
-408744.47
-565551.1
-449621.19
-420873.56
-423979.02
-366986.74
-345479.3
-324117.88
-291525.63
-267898.97
-239107.77
-217051.83
-188131.85
-164489.4
-140072
-115619.26
-94184.652
-71324.966
-53994.856
-33932.287
-18790.668
-3485.0667
1281566.9
-163734.37
-393519.83
-667661.52
-866092.35
-644595.1
-565212.17
-681721.87
-510427.6
-487357.16
-469295.38
-435675.54
-411440.02
-363687.96
-338093.18
-298274.67
-264878.14
-231044.31
-195762.15
-164166.2
-131904.51
-101568.14
-73903.669
-47411.494
-25269.576
-2836.8856
11541.224
5231.9344
-2098.8629
25771.952
37255.75
51314.221
72917.58
97187.006
121768.41
149104.76
177483.97
206891.17
238105.47
266437.38
303556.28
328889.25
363614.72
376927.75
449617.39
458532.3
479351.61
570390.73
520959.27
650644.32
533287.82
594131.71
1216648.9
1209932.6
1219189.9
-1973728.5
-1994998.5
-2001299
20400.922
21512.092
24885.862
-2338.5998
3889.413
1118.1686
310141.67
333717.61
345469.56
310449.85
293184.86
296492.74
263042.87
258414.79
232981.35
216687.76
202704.5
182690.47
163741.91
146539.08
128349.5
109444.6
92857.874
76436.907
58483.238
47757.54
32590.159
20398.179
13908.576
-66051.182
-54120.128
-72228.435
-33873.188
-52735.378
-37628.075
-34864.127
-26205.849
-25739.968
-18669.819
-16439.351
-13333.346
-9722.7656
-5498.7047
-3874.9947
-972.23012
1402.951
2810.1495
3781.4576
5367.5802
3945.1881
8729.0964
8287.6522
-411585.5
-343441.63
-317990.13
-275641.12
-314339.65
-248124.05
-247390.77
-224631.69
-202519.9
-183546.52
-166254.29
-147107.8
-129216.71
-112531.54
-96207.572
-79945.63
-65274.255
-50345.437
-38371.428
-23968.105
-15092.335
-7446.2817
2521.2343
817890.17
730239.53
737465.25
-136174.41
-94561.423
-166718.43
-107459.9
-187606.27
-337755.28
-953131.05
-946852.62
-1004889.5
-770460.96
-721830.63
-714366.64
-630935.43
-593960.57
-638445.17
-507784.23
-514268.05
-529152.59
-502363.84
-506960.04
-536893.51
-457543.57
-441899.78
-464004
-429225.85
-435829.66
-462253.25
-401188.63
-385549.25
-415546.88
-368922.67
-361241.58
-384690.78
-335403.36
-327639.41
-356545.96
-303332.02
-300184.96
-322240.44
-275385.37
-270138.3
-291079.41
-242640.65
-240073.12
-260196.26
-213435.99
-210890.57
-228589.25
-184742.31
-182615.09
-199069.81
-156090.71
-154761.06
-168043.31
-129197.58
-127097.36
-139184.76
-102856.49
-102315.54
-111668.79
-78833.083
-76866.223
-83976.867
-56392.753
-55432.094
-60932.963
-33855.763
-33399.702
-37077.851
-18416.161
-20747.501
-21497.25
-7231.5675
-2504.1516
-5490.6749
-13087.438
-13426.119
-14311.339
5213.5685
4715.1093
7756.9855
14717.158
16939.245
17130.286
667196.05
598992.31
623270.56
611467.79
571262.19
634176.43
651867.68
566618.78
587008.12
562000.65
503271.07
556065.38
549226.27
515926.5
521040.63
523518.43
450733.07
484073.49
480218.65
436630.63
461873.6
459010.99
403343.95
415052.36
419854.21
373265.18
394008.55
386077.03
342975.48
362902.96
358700.37
312125.91
325313.71
323961.62
282281.63
298134
289407.2
254565.59
265082.72
258355.84
226654.92
234427.27
225387.32
198489.37
204648.14
193066.47
171470.28
175096.48
162718.71
145168.92
147320.82
133076.47
119744.71
120331.33
102745.78
95207.854
94474.926
78790.211
71422.759
72896.016
55363.101
49977.043
50657.047
35197.387
34901.995
33908.488
27400.437
27443.275
29154.805
304838.92
394913.75
298200.29
337759.99
300246.2
286237.44
281020.47
240849.85
234369.34
207972.08
194449.16
170413.56
152250.23
136029.8
117528.74
102590.34
86265.547
72267.129
58725.86
45032.234
33692.004
21972.038
6977.6448
-68346.548
9026.0139
-13487.946
25973.251
22816.412
22711.303
21224.989
26162.31
13349.677
22975.208
18430.3
17930.23
17655.758
15898.509
15750.694
15585.341
14496.143
15394.768
13372.802
13707.67
13821.268
10770.29
9192.688
-222511.27
-215191.92
-329995.33
-304240.75
-296898.18
-313745.81
-275366.81
-269372
-238773.4
-227317.04
-209896.99
-189145.62
-172871.74
-152858.45
-135535.26
-116619.99
-98435.501
-80536.39
-64067.131
-46232.547
-32501.539
-16110.627
-9675.1635
392999.52
486375.17
405695.31
394043.63
415018.57
352396.26
278213.9
296814.6
333504.24
259470.25
343483.66
276395.99
303586.53
261020.64
274038.48
225081.89
272990.97
265187.93
234755.32
259461.78
230373.09
222922.87
227475.47
227340.96
197468.54
214064.4
213085.83
188441.96
204927.07
183526.88
170670.82
181327.02
174923.38
151394.31
167180.59
157493.65
141707.98
148391.09
141737.24
124359.17
131252.22
125831.34
109373.12
113938.67
110138.8
94616.24
98881.399
94310.607
81197.893
81979.428
79899.26
66198.188
67447.707
64909.056
53259.264
52050.744
52326.303
42398.11
42559.984
40687.142
28311.138
27963.632
26467.579
21780.805
18759.683
22064.257
7495.2941
3840.5123
3874.594
-114622.96
-130305.43
-115388.04
-56513.118
-31803.243
-61299.871
-14979.38
-29632.788
-46104.65
-7928.4676
-29642.922
-70343.755
-12040.908
-15282.643
-15477.667
-6500.0601
3614.3566
-42205.82
12195.367
-4521.1607
-28636.898
-6582.4024
8287.0974
-22409.097
12262.379
10959.335
-27398.375
11835.481
9108.194
-16747.317
9418.2416
12364.383
-17264.195
15280.877
17127.792
-13787.069
16186.447
16344.58
-11384.508
16015.546
17164.723
-7746.3467
16322.734
19147.492
-4725.9628
17383.759
19116.733
-2815.1219
16549.17
18165.063
390.95113
15339.28
18724.8
1468.4877
16228.311
15822.972
5840.5551
15479.691
15642.247
3370.632
13113.815
7780.0892
6910.0847
11415.094
13449.155
8228.1179
11550.439
12018.614
12662.505
-397177.86
-446347.19
-505302.93
-289004.34
-233357.85
-361139.66
-275133.62
-403776.27
-381435.31
-360260.17
-303815.78
-350959.86
-272969.65
-318782.12
-331180.13
-262247.5
-305189.17
-317926.94
-259142.96
-278150.34
-293434.38
-223916.94
-262183.65
-289400.9
-205791.58
-247517.44
-259193.04
-195002.71
-224511.41
-239004.06
-171415.5
-203665.23
-219645.67
-153882.05
-184428.79
-198074.13
-136371.2
-167905.53
-177539.21
-120161.3
-146849.83
-156556.42
-102197.67
-128883.02
-136101.32
-87263.196
-110341.76
-117487.48
-71615.649
-92897.292
-97185.118
-57919.326
-74483.7
-78932.225
-43432.078
-59058.169
-61892.316
-32366.503
-42687.278
-43727.58
-22098.446
-29571.87
-29649.187
-7836.3574
-11058.666
-7331.7497
-1387.8607
-7078.2878
-8969.1853
)
;

boundaryField
{
    free
    {
        type            calculated;
    }
    fixed
    {
        type            calculated;
    }
    traction
    {
        type            calculated;
    }
}


// ************************************************************************* //
