/*--------------------------------*- C++ -*----------------------------------*\
  =========                 |
  \\      /  F ield         | OpenFOAM: The Open Source CFD Toolbox
   \\    /   O peration     | Website:  https://openfoam.org
    \\  /    A nd           | Version:  6
     \\/     M anipulation  |
\*---------------------------------------------------------------------------*/
FoamFile
{
    version     2.0;
    format      ascii;
    class       pointScalarField;
    location    "0.77";
    object      E;
}
// * * * * * * * * * * * * * * * * * * * * * * * * * * * * * * * * * * * * * //

dimensions      [1 -1 -2 0 0 0 0];

internalField   nonuniform List<scalar> 
28033
(
132351.02
139019.69
-3463796.9
-1670209.5
157812.36
165326.34
-2489677.7
-5225650.3
88457.511
59452.789
40301.221
28874.221
18472.948
12691.542
9468.2775
8840.7945
13383.73
19883.692
33369.082
50846.15
71743.574
93318.426
134600.11
-1893865.9
-1830565.9
-1798157.9
-1785539.6
-1792976.1
-1814525.4
-1847147.5
-1882906.5
-1917311
-1946344.6
-1966700
-1975686.1
-1970319.4
-1944926.9
-1453666.8
112564.19
75460.196
73472.203
73042.206
74646.511
75003.391
75447.606
75038.227
74496.575
73949.996
72579.315
71422.268
70049.65
68915.754
67374.2
65708.064
64480.019
63155.428
61852.082
60309.876
59333.852
58013.325
56983.807
55880.237
54912.099
54033.803
53147.774
52142.874
51679.865
50616.483
49952.238
49472.346
48650.729
47939.797
46887.177
46726.793
46030.133
44593.913
44511.775
43488.154
42585.409
41574.381
40630.654
39524.004
38422.628
37201.804
35910.596
34528.573
33063.856
31508.171
29864.537
28141.576
26334.312
24450.567
22508.17
20491.625
18432.722
16321.898
14193.672
12038.91
9856.5178
7723.9701
5591.3657
3621.3565
1325.9237
-657.77832
-2543.8856
-4614.4152
-6272.4111
-8017.3746
-9371.4925
-10992.197
-12099.345
-13446.056
-14252.23
-15304.781
-15825.695
-16525.36
-16798.051
-17215.814
-17133.759
-17529.583
-17066.878
-17076.393
-16621.688
-16163.282
-15215.487
-14748.43
-13634.844
-12076.66
-12607.44
-10192.515
-10768.514
-10618.412
5032.1085
107430.52
64020.075
72281.302
69773.32
70639.279
72323.401
71573.915
71924.39
70916.966
69929.225
68525.199
66759.912
65225.105
63213.06
61462.082
59482.989
57459.022
55704.148
53785.889
51996.77
50231.657
48654.435
46884.352
45376.382
43900.223
42394.595
41264.423
39710.443
38826.356
37320.548
36292.698
35172.982
34215.313
33280.803
32249.36
31799.754
30468.768
29715.108
28840.692
28109.321
27310.193
26565.207
25833.08
25105.768
24401.044
23705.8
23021.453
22351.314
21697.155
21044.983
20424.09
19801.921
19210.916
18630.418
18081.145
17543.567
17045.009
16569.411
16110.563
15709.911
15300.038
14954.555
14585.928
14320.039
13990.096
13859.225
13599.496
13640.635
13117.237
12802.215
12543.85
12145.683
12054.418
11629.923
11443.729
10957.808
10741.478
10242.654
9834.7342
9368.9937
8833.728
8324.1987
7679.9573
7153.1362
6350.5506
5813.666
4978.9909
4327.3743
3466.0827
2998.9395
1927.2388
1551.0916
928.80275
1.5802737
-5161.9674
103431.81
67764.459
47689.691
37715.887
22199.597
15116.78
11982.291
11718.168
16125.828
27331.814
37991.515
58155.231
80078.591
110788.35
134057.25
213726.56
86928.12
58274.644
78045.589
72245.718
76647.201
74779.733
76556.845
74178.265
73019.275
72347.249
69382.737
68446.77
65601.871
64533.809
63110.83
60681.08
57380.883
56790.617
53389.99
52568.02
50620.201
48960.526
47554.945
45985.978
44171.674
43199.477
41388.796
40130.493
39571.866
38110.127
37100.229
36000.897
35562.168
33131.202
32497.329
32856.039
31506.226
30695.647
29884.743
29145.481
28400.143
27681.821
26972.791
26279.204
25590.066
24899.6
24210.137
23512.228
22813.023
22114.86
21403.952
20701.709
19983.613
19273.185
18539.959
17825.467
17086.338
16353.809
15621.605
14878.742
14144.078
13413.756
12671.336
11940.34
11343.11
10624.845
8344.0709
11431.709
8267.1943
7878.0244
7125.5378
6433.3269
5819.8429
5174.9521
4529.2618
3936.279
3325.1888
2724.9905
2124.2223
1485.671
895.31156
209.08727
-361.19592
-1095.8503
-1645.6466
-2380.6031
-2960.4247
-3601.0288
-4096.0798
-4706.7267
-4862.6903
-5426.2037
-5604.3079
-7619.2574
-4059813.5
-3902707.9
-3504697.4
-4219120.4
-3495558.7
-4141948.3
-3389911.3
-3753003
-3909010.6
-3599491.1
-3177061.4
-3815190
-3210380.1
-3948806.9
-3850370.9
4098.6777
-5050.3353
-2270.3905
-2669.394
-3949.9375
-4825.7255
-5825.5091
-6690.611
-7546.9262
-8189.7739
-8800.642
-9426.0405
-9793.2877
-10177.315
-10452.316
-10774.775
-10839.697
-10866.356
-10740.489
-10469.868
-10142.304
-9639.1276
-9014.3792
-8233.7813
-7375.4994
-5885.7146
-3050.9861
-4858.9774
-2663.9544
-1177.5058
437.37398
2112.2322
3868.6327
5698.6572
7603.5886
9525.3229
11500.931
13486.909
15486.184
17466.305
19446.385
21369.372
23272.962
25102.693
26885.726
28586.459
30227.962
31768.383
33256.033
34634.275
35955.253
37161.349
38370.743
39347.148
40464.188
41391.69
40921.258
44605.271
45527.271
43100.342
47467.583
46818.977
47491.525
47385.775
49577.094
50392.929
50719.715
52133.371
52348.355
53723.115
54611.562
55883.545
57124.377
58676.951
59321.018
61173.32
62247.438
63979.342
65719.625
66072.006
69063.721
70872.5
71115.783
72957.81
75990.243
74557.94
76948.606
77363.863
77983.047
75146.075
75978.405
76736.802
76498.957
68877.324
123341.57
98498.882
91508.594
88348.491
88352.313
90118.066
91330.911
91136.179
91901.96
91995.424
91520.09
88872.472
87303.441
89139.445
91577.033
102253.03
92806.378
95026.693
92079.495
96753.547
96799.466
96333.963
102773.5
109400.08
106204.17
105253.22
100058.26
96100.849
95085.197
92767.385
106037.05
-1876802.8
-1877188.2
-1876852.5
-1877430.7
-1876599.8
-1876337
-1876466.4
-1876407.1
-1876351.4
-1876383.9
-1875777.1
-1876651.8
-1876645.6
-1876505
-1875998.5
-3902059.6
-3898667.2
-3898610.7
-3896912.5
-3899285.9
-3899015.9
-3899161.1
-3899116.1
-3899114.6
-3898990.2
-3898954.2
-3898935.3
-3898516.7
-3899469.1
-3904101.5
83565.761
65397.241
61134.829
60351.8
60731.689
61213.475
61785.387
62055.027
62049.71
61978.353
61504.93
61037.9
60285.617
59612.394
58682.939
57916.742
57032.803
56079.647
55227.085
54362.913
53566.933
52608.071
51904.563
50956.955
50224.377
49393.563
48584.474
47834.095
47016.015
46223.441
45349.344
44648.785
43800.104
42948.564
42326.104
41303.032
40597.729
39564.466
38731.769
37703.893
36582.191
35542.659
34467.11
33198.71
32071.665
30705.776
29424.853
28016.357
26597.253
25109.834
23607.004
22034.161
20460.072
18835.002
17208.203
15546.585
13901.474
12240.139
10593.151
8964.5563
7352.7525
5769.1486
4215.537
2751.9713
1114.7929
-106.56868
-937.41927
-1263.3012
-2408.8402
-3675.0251
-4530.2947
-5568.0647
-6249.295
-7009.0931
-7659.1835
-8100.8015
-8672.6308
-8760.6943
-9313.4963
-9011.973
-9371.1042
-9122.3006
-8660.3963
-8180.2045
-8053.6324
-7896.3217
-7087.3252
-6961.1628
-5638.5035
-5761.5424
-4456.4276
-3892.6462
-2489.8297
2548.5131
14089.827
55153.317
47019.606
47511.677
46583.718
47040.282
47181.799
47588.728
48075.304
48407.276
48691.974
48697.384
48874.545
48731.374
48629.164
48289.401
48123.336
47721.659
47359.264
46934.4
46454.522
45954.567
45454.02
44947.95
44367.116
43797.137
43210.76
42580.645
41899.929
41223.922
40534.33
39801.233
38962.552
38185.542
37305.149
36433.124
35401.14
34581.775
33472.024
32469.027
31386.1
30353.625
29224.42
28084.038
26753.255
25551.417
24215.289
22881.336
21499.949
20079.724
18640.343
17156.126
15658.398
14141.285
12598.4
11060.158
9503.5478
7966.815
6420.4424
4899.8758
3413.4138
1916.3926
507.29846
-875.75736
-2259.5221
-3559.7761
-5127.1197
-3120.8692
-224.25548
-1259.8055
-2142.1672
-2792.1453
-3462.8595
-3892.9454
-4406.4649
-4757.0684
-5056.5574
-5301.743
-5420.8872
-5570.86
-5531.6755
-5528.3045
-5605.8859
-5421.6281
-8508.1929
-10526.61
-9734.4097
-8887.6293
-8343.7691
-7875.7377
-7120.0378
-6637.4605
-5761.8964
-3212.5165
1059.8103
12312.757
35123.503
30719.758
34212.461
34376.634
35361.113
35284.078
35879.881
36327.169
36764.739
37199.442
37618.078
37968.593
38144.763
38335.833
38452.608
38432.847
38393.505
38253.519
38133.293
37851.497
37649.456
37205.59
36886.25
36350.385
35913.465
35317.079
34712.968
34091.448
33389.318
32628.913
31833.363
31024.676
30178.531
29226.759
28395.314
27288.999
26234.943
24966.786
23971.338
22872.472
21530.681
20540.807
19241.86
17899.638
16679.642
15326.169
14018.573
12704.412
11349.645
10025.17
8678.5354
7352.6295
6030.0552
4719.0038
3439.4972
2168.4518
939.80693
-269.9883
-1428.3666
-2565.8488
-3638.3502
-4670.3361
-5663.8932
-6626.6072
-7293.7589
-8694.6859
-10237.822
-5122.4221
-6530.6733
-7466.0076
-8086.7121
-8512.3059
-8775.9666
-9176.7151
-9350.8377
-9544.0422
-9626.6519
-9585.8899
-9573.1025
-9369.2771
-9273.234
-8788.1008
-8911.8027
-8253.5787
-10817.898
-8684.2435
-7582.8247
-7132.6387
-5886.3473
-5652.0523
-4290.6374
-3065.3886
-1159.6907
2471.5354
8081.2067
23029.766
19576.596
22243.708
23692.741
24680.656
25200.034
25739.835
26294.512
26607.321
27219.002
27507.729
28022.843
28219.867
28628.824
28673.827
28928.284
28916.202
28938.528
28816.178
28691.411
28489.317
28234.987
27948.545
27573.708
27171.741
26673.926
26183.327
25553.733
24945.223
24268.617
23566.982
22778.907
21979.675
21144.949
20311.057
19249.533
18650.6
17718.563
16855.579
15749.552
14825.863
13669.063
12624.44
11590.609
10596.733
9488.029
8455.6357
7372.843
6301.9026
5256.781
4199.324
3178.7061
2163.1445
1176.3223
220.52576
-713.9262
-1609.6328
-2462.8038
-3295.9814
-4051.0694
-4798.7663
-5465.6447
-6119.1317
-6607.1263
-7292.945
-7439.7905
-8227.0805
-8922.0268
-10038.925
-10792.002
-11085.583
-10199.263
-10297.878
-11091.639
-11061.419
-10978.156
-10449.775
-10313.907
-9583.1505
-9327.6461
-8374.3444
-8176.0071
-6824.1466
-6725.9386
-4896.9472
-3746.5179
-2406.9092
-1646.6071
-528.83184
-113.3014
1820.8724
1585.4847
3738.2491
3249.8909
1333.3477
14916.645
11334.926
13776.738
14579.616
15953.036
16287.995
16895.909
17090.952
17524.526
17841.232
18186.515
18491.82
18725.192
18964.857
19077.228
19232.308
19198.974
19260.903
19172.987
19076.722
18911.639
18665.689
18422.692
18064.587
17720.968
17298.997
16868.408
16379.144
15886.544
15293.034
14715.956
14073.118
13434.031
12756.779
12005.684
11180.714
10696.372
9389.6358
9385.9058
8661.5001
7802.9217
7017.4297
6359.4646
5543.3344
4817.0999
4042.4298
3370.2299
2660.4474
2015.2621
1377.1962
769.3959
195.8889
-354.27851
-870.06461
-1346.4344
-1804.0657
-2209.9366
-2595.0208
-2933.6368
-3248.5197
-3501.2414
-3784.9412
-3910.7354
-4154.6426
-4181.6932
-4454.1503
-4185.8893
-4420.9909
-3976.6827
-4103.8084
-4135.1999
-3430.0287
-5111.7263
-6425.3694
-5557.8317
-4819.2472
-4245.3149
-3641.7075
-2974.7468
-2291.4507
-1624.8108
-664.25733
-168.59269
968.86879
1593.5731
2476.9216
3570.5499
4300.4003
5614.0241
6580.3642
7748.9186
7616.5089
8110.1121
5043.3204
-3316.1418
9300.0679
6074.3187
7078.337
7528.4591
8358.79
8904.1543
9092.6478
9527.1495
9629.5181
9970.0808
10014.147
10329.285
10346.585
10602.056
10571.199
10747.88
10681.521
10774.067
10655.254
10653.132
10522.751
10416.731
10258.472
10064.9
9880.5102
9611.1008
9361.6069
9011.1792
8695.9338
8318.7267
7965.4035
7543.8008
7145.0792
6693.1689
6203.9334
5858.536
5153.9647
6149.5704
6016.6597
5023.2334
4568.2253
3920.3689
3403.1871
2826.3556
2237.7067
1651.6145
1079.2757
506.51654
-55.912074
-609.63134
-1153.3135
-1674.2809
-2181.2215
-2663.1782
-3120.9901
-3548.379
-3948.6216
-4308.8429
-4639.6613
-4921.6833
-5187.2621
-5350.8754
-5560.3088
-5622.9688
-5711.2498
-5689.1099
-5708.7331
-5585.6694
-5382.5952
-5065.9542
-5089.7178
-4455.5418
-4468.7172
-3568.8076
-1225.3341
-241.3662
704.23603
1205.3856
2287.0522
2657.6074
4026.1611
4208.964
5741.4742
6070.805
7416.6872
8224.091
9361.685
10254.896
11707.387
11812.495
13268.945
12334.082
13200.617
7685.7818
-4859.0788
6876.141
2580.5235
3040.1343
2542.5444
3160.3305
3196.0256
3537.4053
3564.729
3743.1693
3855.8963
3892.1756
4086.1835
4060.3639
4210.5585
4142.9689
4298.9145
4151.7326
4281.853
4123.8751
4176.9098
4066.756
4040.63
3923.1365
3834.0884
3734.7547
3583.7999
3474.0709
3314.5613
3187.7901
2982.6279
2801.3351
2567.266
2361.3875
2070.5306
1911.9135
1503.4839
1421.4621
859.64108
1257.5198
531.54259
462.24628
35.784344
-237.36409
-582.70151
-924.48077
-1262.4747
-1567.9485
-1888.9024
-2172.6666
-2446.9034
-2690.3966
-2915.8664
-3104.3891
-3269.0996
-3390.9604
-3487.2752
-3531.9375
-3545.8734
-3510.3902
-3439.0783
-3301.5946
-3150.9245
-2919.7752
-2658.9785
-2351.2401
-1984.1801
-1589.2603
-1120.4605
-601.73513
-130.36741
582.47003
1123.0842
1933.1644
3143.2454
4547.515
5592.6898
6217.0918
7149.8113
7785.6859
8702.5035
9389.5541
10176.891
11073.086
11514.286
12610.15
12871.231
13824.836
14289.719
15041.814
15656.346
17084.482
16333
16696.729
11227.511
-1523.7363
6085.4343
1561.1694
981.23257
380.42398
295.12531
515.90709
473.92562
609.41258
628.35511
792.98508
707.61986
942.4231
835.19603
1062.871
998.06054
1204.1765
1133.0012
1367.3322
1281.7265
1470.1488
1384.9878
1497.1801
1503.9622
1571.1903
1603.0485
1586.0259
1624.7229
1564.1386
1546.6193
1466.9704
1425.7654
1351.6786
1233.6545
1196.2646
1007.801
954.90722
734.15097
740.33913
488.89942
346.11151
188.10488
-33.218645
-219.07492
-377.2823
-543.87123
-661.80044
-782.97814
-883.59842
-961.60312
-1016.451
-1048.7619
-1040.5085
-1013.5079
-937.21081
-833.17036
-687.28057
-498.25438
-268.97222
-8.2447399
319.33903
662.12551
1054.3736
1490.8757
1973.8581
2458.5811
3005.8901
3581.1128
4169.5879
4748.6482
5447.0111
6016.574
6725.3127
7428.4246
8000.7421
8765.188
9436.2173
10220.564
10813.975
11542.182
12029.363
12775.67
13102.458
13852.888
14023.492
14770.959
14907.762
15577.239
15902.587
16361.175
16441.936
16361.935
14918.02
16599.763
13526.893
3185.8953
8290.6711
2806.457
1966.3459
976.52863
752.47347
757.93318
731.97607
755.09924
767.16926
934.65074
875.62228
1074.2814
1072.1478
1243.9927
1187.2942
1418.1858
1298.4822
1530.1301
1429.1361
1651.0376
1706.134
2007.5793
1908.0881
1924.9344
1871.4702
1846.4277
1830.4071
1769.1217
1762.3579
1668.2111
1644.1174
1493.8145
1453.165
1303.1768
1207.3058
1067.9339
960.36895
820.47136
672.66824
570.49585
440.06933
333.75984
247.37335
180.70243
111.15853
43.451348
12.582858
-8.7233568
7.8650336
42.06428
119.56282
213.80519
350.02701
520.54098
717.53042
959.28745
1235.7647
1538.9501
1893.6928
2278.46
2683.876
3147.6348
3636.0185
4133.4687
4687.1753
5270.3672
5852.9909
6461.6408
7145.4411
7745.9873
8425.6411
9131.1026
9660.006
10280.282
10430.306
10695.728
11112.626
11760.288
12105.8
12760.195
13019.666
13455.911
13855.941
13773.973
14407.755
13788.551
14245.874
13559.098
13209.67
13258.825
13255.773
14047.491
15938.472
13542.423
7302.1153
13055.112
7302.5221
6178.6557
5413.7082
5229.4927
5257.7106
5272.3183
5265.2576
5439.446
5701.0647
5657.9556
6019.4172
5999.9567
6206.1159
6215.2221
6373.719
6242.0845
6451.4414
6207.5735
6265.8108
6100.906
6007.6893
5700.6601
5562.1655
5498.3618
5356.2501
5239.9463
5084.9094
4932.3858
4757.0748
4565.2644
4403.8262
4193.5057
4006.3809
3822.7657
3632.498
3425.7145
3268.9193
3060.9977
2913.5347
2734.03
2609.2708
2446.0106
2338.3708
2233.0962
2174.8008
2143.4013
2138.4146
2159.9987
2222.9943
2310.1403
2436.6754
2599.4178
2798.1931
3027.3569
3305.0546
3599.4626
3944.6418
4311.1107
4707.4111
5135.3485
5595.4447
6045.364
6555.2729
7036.1791
7547.35
8051.4162
8594.063
9075.3184
9597.173
10123.965
10561.102
11091.862
10823.7
6476.4963
5841.8401
6522.5362
6700.3672
7050.2271
7065.1516
7377.8993
7406.0805
7492.2663
7550.5747
7500.0846
7384.2301
7325.8339
7187.7458
7021.8115
6937.9124
6812.1254
6584.0331
7742.7225
7822.0623
11143.615
14450.074
12192.064
10735.365
10821.1
10487.566
10677.78
10470.408
10624.292
10831.094
11050.864
11100.087
11413.32
11385.841
11524.758
11447.626
11464.07
11290.732
11266.292
11005.912
10971.628
10761.988
11001.884
10470.42
10376.266
10094.163
9715.4001
9382.7251
8938.3002
8607.5832
8159.4075
7836.1933
7440.5711
7042.6132
6708.4466
6318.1966
5962.9819
5638.6146
5301.4043
5008.446
4708.5732
4455.1095
4190.7668
3986.8306
3785.9397
3627.9175
3472.9503
3363.5448
3268.9963
3218.5311
3190.9487
3202.0635
3239.8443
3314.3777
3416.7773
3552.0396
3718.6521
3909.4782
4138.4866
4376.949
4657.6901
4951.8627
5256.3225
5603.7533
5959.8204
6311.1064
6703.3399
7061.7775
7407.1736
7782.6911
8147.1741
8433.9797
8829.6091
9125.8709
9170.2337
9331.638
6362.4091
7702.3117
7525.5995
7662.5075
7924.2566
7902.2694
8088.6685
7960.5017
8036.2187
7823.4162
7587.9557
7484.4795
6723.4124
6536.2312
5892.794
5317.0254
5890.8843
7040.0906
8141.3835
12908.185
32995.618
21618.804
22205.377
21575.798
21491.18
20976.019
21070.882
21119.504
21245.598
21356.63
21444.47
21465.977
21323.336
21105.557
20906.72
20440.656
20114.294
19590.947
19105.207
18601.355
18003.193
17391.828
16757.16
16631.537
16264.632
15705.781
15081.089
14467.957
13849.02
13253.578
12694.08
12115.913
11582.383
11078.856
10567.681
10128.408
9666.8855
9267.6511
8854.1247
8514.7842
8152.0245
7860.6971
7565.5577
7319.2176
7094.0089
6910.033
6751.1839
6631.1865
6530.2124
6468.0236
6429.5988
6418.5357
6436.913
6476.0475
6542.0855
6624.8625
6728.3707
6848.9885
6974.5185
7128.3167
7259.6228
7430.2002
7564.0571
7725.2339
7823.1801
7987.8018
8080.9514
8244.0824
8334.2459
8374.8813
8503.7549
8478.8161
8517.2609
8501.3048
8306.477
9519.4373
10628.537
10144.859
10093.188
9834.8365
9468.9675
9202.8977
8623.3356
8319.8581
7494.3951
7172.7384
6148.7597
5670.147
4882.0039
4167.3451
3547.1871
3021.425
2079.7738
686.84648
5492.7822
48044.373
39366.901
37885.218
36483.809
35542.581
34992.558
35150.755
34739.09
35131.929
34861.419
34706.55
34353.658
33778.99
33102.423
32393.184
31392.164
30559.905
29501.419
28516.988
27517.905
26514.875
25681.137
24535.832
23487.177
22711.922
21701.503
20948.663
19994.111
19188.29
18399.94
17604.81
16919.653
16189.944
15577.23
14894.588
14266.988
13692.967
13101.43
12593.529
12043.398
11579.507
11086.434
10648.386
10198.813
9783.4069
9368.4088
8976.6837
8595.7105
8231.4384
7881.394
7547.1934
7224.6417
6919.1403
6626.7211
6350.0548
6085.3823
5840.313
5606.0974
5387.3268
5183.1819
4988.4953
4811.6967
4632.486
4512.6471
4342.6908
4323.3996
4108.0842
4040.0277
3766.6686
3722.8476
3493.1898
3411.4151
3216.6639
3023.1216
2902.7994
2564.7985
2527.3806
2230.1274
2085.9878
1867.9887
1710.9142
1470.6682
1291.8827
1057.8058
860.45677
668.44693
390.51769
502.19419
-42.056008
363.511
-62.700687
150.33643
-1704.6198
-4199.9193
-1089.1227
67383.871
54819.465
51626.402
49201.97
49287.397
48912.416
48884.123
49150.203
49218.239
48793.208
48340.499
47591.849
46618.198
45531.792
44329.185
42970.408
41736.249
40286.083
38954.879
37624.472
36265.271
34934.58
33781.173
32494.499
31451.339
30270.269
29377.599
28263.444
27411.527
26464.033
25635.121
24800.712
23987.544
23325.048
22512.864
21931.465
21261.895
20664.387
20031.016
19475.21
18894.566
18343.283
17802.075
17272.295
16750.919
16240.802
15725.956
15223.506
14712.51
14203.26
13697.283
13177.563
12666.931
12142.486
11621.888
11090.493
10560.987
10027.009
9483.2213
8953.3837
8399.5612
7873.2619
7300.8773
6779.0916
6143.2934
5676.1991
5004.4746
4672.8281
3993.1662
3552.0059
3124.878
2564.1593
2160.7485
1651.4772
1342.7627
780.32405
506.76755
58.38081
-254.57627
-533.94457
-872.58885
-1046.8096
-1361.8691
-1422.6818
-1709.1491
-1665.9084
-1816.5358
-1655.557
-1732.0856
-997.26848
-1106.0062
-216.87743
-640.75894
-4475.4279
-2777.7984
80248.031
62915.267
59721.043
58244.956
60471.115
59459.533
60568.656
60758.081
60552.104
60099.861
59115.014
58148.548
56783.391
55247.369
53799.354
51955.642
50576.454
48768.535
47178.087
45549.673
44129.648
42463.546
41382.812
39854.766
38733.722
37417.226
36270.168
35235.497
34197.303
33395.091
32398.378
31531.285
30669.602
29821.504
28990.518
28271.118
27720.135
26862.242
26234.312
25465.882
24788.197
24053.331
23331.852
22578.792
21818.452
21033.975
20232.058
19415.3
18570.993
17719.197
16843.529
15956.073
15058.874
14154.033
13244.486
12336.726
11441.715
10545.995
9678.4073
8825.6471
8002.1161
7208.7261
6449.0284
5731.8343
4987.243
4351.7771
3535.0225
3190.6473
2460.2592
2538.1533
1711.611
1619.9922
1120.4074
898.09895
670.70497
481.77226
348.03673
278.60457
257.69924
208.92049
264.94853
355.38035
443.76688
618.2117
838.94307
1058.6549
1341.2373
1808.3608
2123.4263
2742.832
3451.9555
4317.4484
4356.8961
5172.5139
2069.0492
54307.688
50306.047
42082.59
40767.274
39777.722
39948.892
38953.82
39735.663
39944.109
40091.644
39936.325
39859.637
43291.204
46582.879
58866.116
35922.604
28551.91
24511.773
24100.221
22356.735
22170.522
21416.955
21797.956
22187.01
21983.427
22420.022
23214.884
25257.18
29322.423
38096.222
23629.44
17657.77
12601.761
11657.592
10334.192
10020.482
9855.5842
9575.3324
9685.1663
9880.2739
10475.07
11122.133
13045.192
17371.605
24754.091
15722.292
11688.441
8816.2907
7368.4941
6850.7543
6399.182
6246.401
6045.295
6320.9804
6523.3138
6996.5325
7585.0508
9783.3836
12560.694
17356.776
10453.51
7492.9298
4975.5483
4151.5397
3481.1066
3191.6322
3036.0864
2982.1199
3012.6824
3234.486
3517.9594
4315.6196
5589.6171
7582.895
11781.132
8549.6825
5423.518
3627.277
2970.9812
2457.7812
2257.8899
2109.8825
2114.0727
2169.1118
2285.8596
2701.8368
3074.6702
4055.0105
5970.0586
9121.9045
5770.2726
3734.2045
2583.2563
1927.758
1573.5762
1286.1639
1185.2749
1132.9153
1189.0201
1330.838
1584.0131
2097.3118
2802.9021
4416.2926
7154.3699
6022.2965
3704.1028
2381.9501
1815.6946
1379.3812
1176.3455
1042.9051
1039.2517
1117.5717
1238.5249
1607.6477
2084.5129
2890.2293
4580.385
7593.1855
7131.0837
4555.5404
3072.532
2294.843
1804.1765
1528.0826
1373.0216
1387.6344
1428.837
1794.0544
1966.4892
2571.9921
3498.4664
5580.1502
8279.9313
11074.661
7820.7386
4864.2555
3921.0196
3016.9931
2715.4442
2444.5782
2417.7251
2497.3105
2669.7351
3432.9166
3858.5735
5796.2695
8999.3051
13458.484
15192.679
11347.422
7270.5788
6180.0317
4823.3607
4514.5565
4101.4254
4206.7339
4264.3363
4588.8084
5416.4654
6637.9471
8920.0703
12956.097
17522.475
24844.011
16837.042
12543.492
10514.101
9038.5738
8236.9236
7921.904
7744.9498
7994.2365
8330.5771
9529.982
9712.7351
13739.334
19001.766
25928.393
32330.59
26007.305
19066.487
17011.392
14651.248
14420.703
13481.349
13938.259
13962.476
13919.566
15493.92
16609.028
20309.671
27736.764
31675.494
48014.754
39061.454
30600.79
28520.438
25987.127
25160.736
25261.723
25527.37
25125.76
25469.262
25968.384
27618.82
31335.301
36838.838
50636.432
59979.757
62152.734
48097.891
46401.848
43324.09
40706.064
42759.65
44660.412
41666.994
44211.168
43400.392
45287.121
48988.901
55837.383
69655.582
137029.65
111268.73
110434.63
113505
114729.78
114421.29
120542.39
127114.92
129494.61
127468.32
123504.12
116964.19
116055.94
119902.1
116434.05
99837.302
89652.97
83926.379
80456.197
77261.57
78616.361
77743.092
78235.657
83365.975
79360.088
80834.541
79712.119
85300.223
91327.942
105175.19
85248.4
87452.532
83347.24
80570.509
80232.211
74251.775
73996.702
74916.923
71574.09
76977.07
77016.328
83802.11
87184.836
88003.703
90107.236
80701.786
88083.63
87498.69
84602.473
83379.64
81724.093
80939.803
81030.654
81181.445
82212.608
84748.375
87648.918
88929.443
90018.027
82823.884
81184.401
86984.903
88814.839
90385.343
87772.341
87070.501
87006.304
86487.6
87378.225
89120.947
89589.743
91569.38
90600.85
87750.119
81951.382
79493.297
86955.873
87990.203
89029.523
89519.908
88968.065
88447.509
88367.575
88727.442
88949.49
90351.975
90675.563
89597.837
87223.876
80022.706
78921.108
84314.999
86914.799
88894.518
89166.78
89496.503
89581.695
89627.294
89954.07
90371.585
89925.378
89768.641
87974.063
83602.067
79873.011
78180.135
82447.759
85322.355
87213.06
88541.318
88515.118
88845.611
89149.859
88802.291
89313.733
88770.914
87662.487
85854.259
81295.584
76801.48
75971.765
79682.459
82622.232
84690.481
85405.401
86470.691
86692.225
86774.789
87144.597
86303.757
85889.991
84491.079
82511.13
79266.509
75903.979
74833.262
77525.843
80213.339
81818.818
83221.261
83767.7
84285.972
84509.274
84075.873
84328.847
83007.252
82132.058
79965.449
77237.763
74377.62
72471.182
74840.231
77018.44
78845.291
80089.303
81057.626
81486.129
81673.463
81689.337
80955.979
80820.623
79169.317
77712.938
75147.098
72718.011
70584.333
72167.421
74803.263
76000.64
77168.289
77796.393
78228.409
78329.783
78054.133
77774.717
76752.148
75809.948
74023.147
72086.33
70586.986
68677.446
70069.435
71534.674
72973.033
74052.464
74796.487
75509.664
75447.416
75642.016
75212.782
74649.187
73638.17
72168.655
70599.698
68649.994
66338.261
67385.096
69090.822
70218.534
71359.416
71923.946
72251.092
72350.429
72086.693
71630.111
70874.436
70028.867
68670.427
67272.736
66465.561
64300.607
65247.441
66738.262
67591.157
68527.312
68822.291
69500.162
69340.398
69744.724
69390.209
68980.459
68239.145
67109.336
66098.775
64582.65
62144.416
62846.496
64001.532
65017.969
65615.916
66382.29
66831.025
66492.071
66446.471
66034.875
65404.244
64708.938
63362.474
62623.745
62027.185
59982.242
60538.099
61852.131
62455.83
63474.771
63549.099
64018.699
63960.611
64197.548
63927.352
63711.15
63052.921
62529.373
61071.471
60752.917
58153.628
58571.47
59600.219
59908.52
60644.814
61221.052
61681.577
61569.423
61411.635
61084.039
60449.078
60018.876
59467.701
58459.433
57683.056
56244.003
56403.462
57408.145
58104.964
58634.163
58822.191
59120.79
59146.494
59227.808
58991.232
58768.74
58272.527
57660.029
57113.915
56693.618
54020.279
54476.878
55320.645
55872.431
56352.255
56730.926
56848.154
56949.948
56968.985
56752.301
56285.736
56024.156
55361.59
54725.052
53897.882
52488.9
52692.089
53532.66
53838.047
54421.673
54463.296
55002.227
54822.415
54845.338
54576.379
54310.662
53996.131
53723.655
53006.692
52772.137
50501.875
50815.32
51417.369
51960.791
52318.578
52624.165
52772.505
52895.322
52819.402
52839.466
52502.617
52186.98
51551.475
50688.977
50762.058
49047.819
49092.917
49931.338
50161.555
50700.409
50758.42
51031.41
51000.178
50941.109
50875.713
50565.034
50173.68
49760.149
49292.926
48981.354
47292.035
47598.63
48066.465
48562.535
48786.017
49088.762
49236.899
49156.619
49193.554
49059.887
48634.65
48619.737
48297.325
47476.67
47420.858
45979.368
46209.688
46548.123
46813.211
47292.34
47125.398
47667.266
47454.809
47600.27
47424.091
47213.367
46879.27
46361.455
45911.911
45847.449
44356.235
44450.577
45203.259
45134.785
45502.779
45831.641
46006.761
45870.843
46026.185
45728.18
45923.073
45592.121
45058.084
44676.757
44285.716
43096.17
43063.821
43513.179
43819.901
44432.646
44323.699
44516.292
44503.826
44525.105
44393.257
44204.88
43960.387
43527.381
42961.26
43069.442
41745.958
41790.142
42323.985
42265.475
42976.364
42893.886
43098.869
43056.887
43144.442
42948.806
42798.959
42343.989
42345.461
41996.669
41527.618
40535.061
40533.996
41323.29
41226.156
41494.249
41454.373
41742.656
41787.096
41946.506
41715.132
41536.004
41409.835
40779.168
40255.681
40418.37
39628.239
39168.697
39814.174
39956.76
40433.408
40496.786
40638.055
40535.22
40405.768
40310.436
40248.776
39846.569
39423.431
39151.894
39190.48
38263.53
38058.958
38863.554
38784.92
39178.058
39541.062
39412.27
39187.395
39025.497
39026.414
39117.588
38760.864
38735.659
37992.591
38084.05
37436.469
36888.159
37734.018
37632.015
38118.513
37897.544
38263.206
38138.479
38438.033
38058.397
37997.462
37664.565
37482.717
36933.934
37016.105
36379.405
35899.001
36744.78
36623.081
37066.108
36968.797
37288.099
37016.416
37216.135
36928.21
36981.952
36583.011
36486.837
35862.949
36004.056
35473.069
34909.031
35650.48
35291.383
36093.236
35954.481
36265.95
36053.224
36234.475
35949.8
35947.23
35615.929
35475.884
34925.478
35206.358
34196.103
34007.582
35032.166
35010.043
35140.463
35021.003
35275.685
35133.532
35264.242
35341.375
35126.945
34755.64
34616.529
34169.542
34014.653
33910.923
33309.265
33789.225
34283.527
34094.485
34122.217
34358.589
34209.853
34454.698
33735.454
34101.965
33703.104
33636.441
32963.482
33134.715
33208.052
32305.57
32987.364
32717.036
33370.992
33166.738
33532.459
33227.554
33351.867
32658.074
33034.836
32875.315
32706.259
32240.347
32329.125
31954.394
31382.292
32311.154
32152.157
32518.898
32405.228
32676.629
32437.673
32679.994
32534.672
32536.226
31951.389
32032.544
31311.18
31560.439
31529.54
30553.943
31564.416
31192.132
31822.933
31485.009
31946.477
31566.856
31860.693
31490.876
31568.309
31215.562
31171.897
30529.728
30800.401
30737.213
29782.913
30803.819
30475.251
31006.832
30726.745
31171.996
30761.72
31131.198
30676.573
30880.411
30368.99
30428.96
29746.183
30048.932
30084.043
29024.308
30103.617
29661.093
30308.583
29929.584
30421.03
29996.62
30341.896
29941.663
30098.254
29628.188
29699.043
28980.064
29329.284
29396.249
28293.244
29376.86
28956.61
29575.834
29186.808
29724.853
29222.06
29656.53
29175.043
29376.799
28890.86
28962.861
28246.488
28635.21
28764.069
27562.065
28713.462
28210.973
28868.371
28467.411
28980.379
28509.403
28914.178
28448.704
28665.39
28164.39
28255.737
27534.59
27940.883
28116.876
26868.878
28027.327
27481.866
28184.365
27738.204
28312.431
27779.88
28215.576
27748.055
27953.936
27467.059
27564.815
26830.387
27273.97
27502.307
26168.896
27369.667
26775.047
27479.277
27054.908
27617.456
27068.132
27525.172
27042.3
27252.175
26779.846
26866.421
26145.128
26609.466
26881.768
25481.17
26725.365
26039.517
26795.378
26343.939
26932.058
26357.742
26829.475
26344.922
26558.258
26095.416
26184.694
25466.405
25955.82
26272.699
24811.004
26067.764
25346.71
26123.099
25677.753
26286.788
25668.644
26164.015
25667.631
25872.905
25422.507
25504.496
24797.36
25304.983
25679.566
24128.055
25439.583
24642.55
25448.845
25004.468
25615.67
24963.374
25492.657
24976.112
25190.803
24746.399
24839.74
24128.287
24664.412
25074.598
23473.937
24801.917
23948.317
24799.315
24350.423
24976.401
24298.463
24848.428
24310.94
24524.34
24084.966
24176.214
23460.234
24028.877
24496.052
22812.046
24174.188
23279.362
24143.831
23675.321
24313.641
23593.588
24177.348
23617.001
23843.97
23407.202
23516.143
22790.471
23402.957
23906.371
22158.021
23562.758
22606.072
23491.875
23031.145
23682.514
22944.043
23559.07
22969.823
23197.231
22765.413
22869.941
22132.924
22784.401
23328.147
21520.556
22940.979
21940.344