/*--------------------------------*- C++ -*----------------------------------*\
  =========                 |
  \\      /  F ield         | OpenFOAM: The Open Source CFD Toolbox
   \\    /   O peration     | Website:  https://openfoam.org
    \\  /    A nd           | Version:  6
     \\/     M anipulation  |
\*---------------------------------------------------------------------------*/
FoamFile
{
    version     2.0;
    format      ascii;
    class       pointVectorField;
    location    "0.77";
    object      u;
}
// * * * * * * * * * * * * * * * * * * * * * * * * * * * * * * * * * * * * * //

dimensions      [0 1 0 0 0 0 0];

internalField   nonuniform List<vector> 
28033
(
(0 0 0)
(0 0 0)
(2.7302074 -0.41294823 0.006079947)
(2.5235602 -1.0209061 0.0049990432)
(0 0 0)
(0 0 0)
(2.5234615 -1.0226016 0.004615237)
(2.7300756 -0.41468663 0.0054975136)
(0 0 0)
(0 0 0)
(0 0 0)
(0 0 0)
(0 0 0)
(0 0 0)
(0 0 0)
(0 0 0)
(0 0 0)
(0 0 0)
(0 0 0)
(0 0 0)
(0 0 0)
(0 0 0)
(0 0 0)
(2.7169527 -0.45130925 0.0057952347)
(2.7038176 -0.48933802 0.0057148935)
(2.6907483 -0.52727564 0.0056073594)
(2.6777696 -0.5651756 0.0055651288)
(2.6648471 -0.603025 0.0055357423)
(2.6519667 -0.64084708 0.0055243582)
(2.6391384 -0.67865677 0.0055292721)
(2.6263406 -0.7164754 0.005543149)
(2.6135661 -0.75430746 0.0055491907)
(2.6007986 -0.79217958 0.0055595037)
(2.5880396 -0.83008849 0.0055445841)
(2.5752511 -0.86806373 0.0055034478)
(2.5624636 -0.90610553 0.0054497413)
(2.5495905 -0.9442286 0.0053682053)
(2.5367018 -0.98247666 0.0052174542)
(0.0062176455 0.0096564802 0.010759594)
(0.0075189534 0.015261882 0.014776723)
(0.0095243884 0.021246294 0.017913343)
(0.012662313 0.027410428 0.019879862)
(0.016422049 0.033781539 0.021189972)
(0.021402005 0.04023027 0.022092006)
(0.027308502 0.046788985 0.022660491)
(0.034272068 0.053182988 0.022982484)
(0.042213493 0.059667964 0.023168351)
(0.051189444 0.065908536 0.023224374)
(0.061064426 0.072103111 0.023212073)
(0.071939998 0.078058714 0.023086635)
(0.083697846 0.083882546 0.023018692)
(0.096454091 0.089442916 0.022801829)
(0.10999363 0.094798506 0.022675147)
(0.12449746 0.099876918 0.02241901)
(0.13980637 0.10472453 0.022259543)
(0.15600178 0.10924756 0.022007383)
(0.17297569 0.11352481 0.021799406)
(0.19079 0.11746744 0.021539843)
(0.20935517 0.12112321 0.021329405)
(0.22872123 0.12444372 0.021053182)
(0.24880418 0.12744486 0.020834071)
(0.26964579 0.13012248 0.020570291)
(0.29116769 0.13244594 0.020323778)
(0.31340229 0.13445193 0.020067784)
(0.33628597 0.13608636 0.019825218)
(0.35984338 0.13740805 0.019567722)
(0.38401916 0.13834775 0.019312415)
(0.40881295 0.13896175 0.019068263)
(0.43421961 0.13921851 0.018809976)
(0.46017792 0.13912444 0.018559494)
(0.4867165 0.13868734 0.018314267)
(0.51379594 0.13788569 0.018065024)
(0.54140609 0.13676216 0.017811931)
(0.56953734 0.13527224 0.017562362)
(0.59814868 0.1334519 0.017323707)
(0.62726621 0.13128499 0.017078296)
(0.65682695 0.12878106 0.016822868)
(0.68685941 0.12594726 0.016582908)
(0.71731548 0.12277046 0.016333029)
(0.74820652 0.11928423 0.01609228)
(0.77950803 0.11545475 0.0158387)
(0.81121372 0.11131346 0.015595393)
(0.84329638 0.10684628 0.015344732)
(0.87576211 0.10206903 0.015094961)
(0.9085793 0.096977577 0.014843772)
(0.94175411 0.091578531 0.014588998)
(0.9752561 0.085875626 0.014333043)
(1.0090899 0.079871409 0.014073818)
(1.0432284 0.07357209 0.01381151)
(1.0776709 0.066979164 0.013546533)
(1.1123969 0.060100824 0.013278171)
(1.1473986 0.052937776 0.013007318)
(1.1826617 0.045499501 0.012733398)
(1.2181735 0.037787743 0.012458229)
(1.2539223 0.029811188 0.012180979)
(1.289895 0.021574518 0.011903667)
(1.3260792 0.013085158 0.011626495)
(1.3624626 0.0043488418 0.011351028)
(1.3990333 -0.0046254043 0.011077837)
(1.43578 -0.01383274 0.010807853)
(1.472688 -0.02326078 0.010544243)
(1.5097541 -0.032913861 0.010281518)
(1.5469544 -0.042761103 0.010034557)
(1.5842932 -0.05282044 0.0097842996)
(1.6217467 -0.063073258 0.0095502757)
(1.659315 -0.073509043 0.0093208642)
(1.6969858 -0.084120055 0.0090945306)
(1.7347502 -0.094902216 0.0088836141)
(1.7726014 -0.10584683 0.0086806951)
(1.8105267 -0.11694869 0.00848804)
(1.8485324 -0.12818893 0.0082967524)
(1.8865898 -0.13958574 0.0081235268)
(1.9247213 -0.15108921 0.0079458833)
(1.9628853 -0.16275702 0.0077915136)
(2.0011149 -0.17449366 0.0076265075)
(2.0393647 -0.18640423 0.0074900757)
(2.0776674 -0.19834963 0.0073380167)
(2.1159816 -0.21046809 0.0072199162)
(2.154338 -0.22261093 0.0070795262)
(2.1926952 -0.23489569 0.0069797062)
(2.2310869 -0.247221 0.0068565647)
(2.269466 -0.25965201 0.0067704331)
(2.3078739 -0.27212813 0.0066704531)
(2.3462688 -0.28467962 0.006593008)
(2.3846724 -0.29730549 0.0065155292)
(2.4230622 -0.30995735 0.0064547432)
(2.4614539 -0.32269532 0.0063890911)
(2.4998254 -0.33543289 0.0063454708)
(2.5381817 -0.34828088 0.0063127809)
(2.5765546 -0.36104796 0.0062562888)
(2.6148685 -0.37397866 0.0062788831)
(2.6532504 -0.38683491 0.0062317503)
(2.6915948 -0.39971967 0.0062642516)
(0.0024065404 -0.01125917 -0.012684001)
(0.0039894323 -0.015131396 -0.01548737)
(0.0049448644 -0.020880356 -0.02007691)
(0.0060357453 -0.025733534 -0.021926987)
(0.0091116259 -0.031803045 -0.023669259)
(0.012611939 -0.0381 -0.02462962)
(0.01721669 -0.04403823 -0.025292064)
(0.022741173 -0.050699674 -0.025545401)
(0.029295492 -0.057222993 -0.025680207)
(0.036541876 -0.063891833 -0.025627067)
(0.044792241 -0.070750331 -0.025470415)
(0.053731777 -0.077617343 -0.025250279)
(0.063560014 -0.084661432 -0.024946869)
(0.074096372 -0.091770074 -0.024663362)
(0.085439797 -0.098956202 -0.024288132)
(0.097496021 -0.10629938 -0.023956913)
(0.11030737 -0.11364744 -0.023557517)
(0.12383389 -0.12118533 -0.02316975)
(0.13806575 -0.12877811 -0.022779818)
(0.15302583 -0.13648734 -0.022365443)
(0.16864277 -0.14429901 -0.021940439)
(0.18497043 -0.15225732 -0.021534201)
(0.20192552 -0.16025094 -0.021093514)
(0.21957457 -0.16845795 -0.02066183)
(0.23783023 -0.1766982 -0.020230644)
(0.25676065 -0.18512394 -0.019762934)
(0.27626337 -0.19363838 -0.019348058)
(0.29641881 -0.20229338 -0.018869921)
(0.31712975 -0.21107712 -0.018448219)
(0.33845565 -0.21997401 -0.01797188)
(0.36032087 -0.22903224 -0.017538243)
(0.38276874 -0.23819626 -0.017082802)
(0.40574485 -0.24751488 -0.016643342)
(0.42927031 -0.25695427 -0.016197449)
(0.45330692 -0.26654426 -0.015761276)
(0.47786292 -0.27625276 -0.015336768)
(0.50291453 -0.28609843 -0.01489112)
(0.52845444 -0.29609976 -0.01447695)
(0.55447179 -0.30621629 -0.014054467)
(0.58096284 -0.31648327 -0.013642042)
(0.60790695 -0.32688108 -0.013232642)
(0.63530252 -0.33741433 -0.012830029)
(0.66313467 -0.34808399 -0.012429937)
(0.69139759 -0.35888612 -0.012035975)
(0.7200786 -0.36982152 -0.01164463)
(0.74917291 -0.380888 -0.011256463)
(0.77866675 -0.39208393 -0.010871538)
(0.80855608 -0.40340713 -0.010487492)
(0.83882817 -0.41485623 -0.010105624)
(0.86947679 -0.42642667 -0.0097239234)
(0.90049176 -0.4381182 -0.0093426241)
(0.93186443 -0.44992498 -0.0089612322)
(0.96358566 -0.46184502 -0.0085791718)
(0.99564631 -0.47387407 -0.0081965226)
(1.0280364 -0.48600761 -0.0078130604)
(1.0607468 -0.49824121 -0.0074289071)
(1.0937673 -0.51057127 -0.0070439107)
(1.1270879 -0.52299115 -0.0066586797)
(1.1606984 -0.53549748 -0.0062733242)
(1.1945889 -0.5480849 -0.0058878137)
(1.2287481 -0.56074754 -0.0055033549)
(1.2631666 -0.57348161 -0.005119483)
(1.2978332 -0.58628123 -0.0047374319)
(1.3327383 -0.59914254 -0.0043565409)
(1.3678704 -0.61205888 -0.0039792273)
(1.4032213 -0.62502946 -0.0036027259)
(1.4387791 -0.63804486 -0.0032323869)
(1.4745351 -0.65110704 -0.0028615251)
(1.5104798 -0.66419976 -0.0025033806)
(1.5466026 -0.6773277 -0.0021355358)
(1.5828918 -0.69049835 -0.0017852986)
(1.6193458 -0.70367818 -0.0014342245)
(1.6559486 -0.71689737 -0.0010917795)
(1.6926959 -0.73012299 -0.00075505844)
(1.7295784 -0.74337376 -0.00042435303)
(1.7665863 -0.7566298 -0.00010356125)
(1.8037143 -0.76989945 0.00021307811)
(1.8409546 -0.78317266 0.00051916305)
(1.8782977 -0.79645041 0.00081997884)
(1.9157401 -0.80972671 0.0011108338)
(1.9532722 -0.82300318 0.0013963407)
(1.9908904 -0.83627255 0.0016729041)
(2.0285852 -0.84953665 0.0019440277)
(2.0663552 -0.86279135 0.0022077597)
(2.1041891 -0.87603301 0.0024646403)
(2.1420869 -0.88926499 0.0027170638)
(2.1800383 -0.90247688 0.0029615637)
(2.2180418 -0.9156756 0.0032005841)
(2.2560871 -0.92885367 0.0034348232)
(2.2941761 -0.94201317 0.0036609606)
(2.3322937 -0.95514783 0.0038801406)
(2.3704474 -0.96827354 0.004093263)
(2.4086178 -0.98138029 0.0043072338)
(2.4468435 -0.99448193 0.0044973088)
(2.48508 -1.0076432 0.0047274053)
(0 0 0)
(0 0 0)
(0 0 0)
(0 0 0)
(0 0 0)
(0 0 0)
(0 0 0)
(0 0 0)
(0 0 0)
(0 0 0)
(0 0 0)
(0 0 0)
(0 0 0)
(0 0 0)
(0 0 0)
(0.0059617059 -0.0046228087 0.0091967408)
(0.0056994043 -0.017714471 0.015123785)
(0.0048417825 -0.018440014 0.018524504)
(0.0069696452 -0.027355808 0.021799106)
(0.009176976 -0.031587032 0.023323121)
(0.013108003 -0.0384234 0.024217518)
(0.017578995 -0.044289465 0.024843751)
(0.02336001 -0.051205324 0.025171379)
(0.029817873 -0.057451002 0.025237833)
(0.037140554 -0.064474892 0.025176784)
(0.045533103 -0.071279804 0.025123237)
(0.054341064 -0.078077735 0.024831245)
(0.064333884 -0.085442161 0.02467331)
(0.074739278 -0.092240438 0.024308251)
(0.08622503 -0.099942337 0.024082899)
(0.098193646 -0.10685009 0.023739479)
(0.11103634 -0.11465153 0.023451861)
(0.12455768 -0.12189287 0.023050568)
(0.13877386 -0.12979312 0.022766672)
(0.15375618 -0.13738986 0.022373795)
(0.16932899 -0.14531484 0.022083995)
(0.18566966 -0.15327193 0.021695295)
(0.20259988 -0.16137565 0.021386837)
(0.22024519 -0.16957794 0.021031404)
(0.23848876 -0.17785598 0.020693138)
(0.25740203 -0.18634109 0.020357279)
(0.27689732 -0.19481607 0.020009751)
(0.29701712 -0.20358624 0.019682745)
(0.31773448 -0.21230104 0.019340059)
(0.33900364 -0.22130523 0.019020716)
(0.36088566 -0.23032892 0.01869118)
(0.38329424 -0.23952892 0.018375045)
(0.40626792 -0.24883975 0.018051359)
(0.42976558 -0.25829707 0.017738974)
(0.45380252 -0.26788987 0.017427227)
(0.47833897 -0.27756056 0.017113727)
(0.50336751 -0.2874648 0.016809819)
(0.52891272 -0.29743472 0.016508244)
(0.55491879 -0.30755744 0.016209066)
(0.58140638 -0.31781557 0.015907011)
(0.60834879 -0.32821044 0.015611167)
(0.63574269 -0.33873857 0.015314057)
(0.6635769 -0.34940366 0.015018485)
(0.69184201 -0.36020168 0.014723183)
(0.72052764 -0.37113359 0.014428372)
(0.74962601 -0.38219767 0.014132763)
(0.77912658 -0.39339199 0.013836777)
(0.80902129 -0.40471553 0.013539449)
(0.83929984 -0.4161651 0.013241627)
(0.86995419 -0.42773895 0.01294178)
(0.90097386 -0.43943372 0.012641912)
(0.93235123 -0.45124626 0.012339076)
(0.96407536 -0.4631736 0.012037069)
(0.99613815 -0.4752103 0.011732302)
(1.0285284 -0.48735478 0.011429081)
(1.0612381 -0.4995993 0.011124229)
(1.094255 -0.51194221 0.010822172)
(1.127571 -0.52437647 0.010520526)
(1.161174 -0.53689778 0.010222651)
(1.195055 -0.54950116 0.00992815)
(1.2292023 -0.56218071 0.009638731)
(1.2636066 -0.57493148 0.0093549187)
(1.2982565 -0.58774872 0.0090782518)
(1.3331426 -0.60062585 0.0088089361)
(1.3682543 -0.61355911 0.0085478533)
(1.4035812 -0.62654462 0.0082957764)
(1.4391176 -0.63957132 0.0080510599)
(1.4748422 -0.65265804 0.0078214794)
(1.5107702 -0.66574032 0.007596193)
(1.5468519 -0.67890439 0.0073798565)
(1.5831253 -0.69207039 0.0071766978)
(1.6195472 -0.70526704 0.0069820455)
(1.6561277 -0.71848628 0.0067935736)
(1.6928494 -0.73172438 0.0066168015)
(1.7297084 -0.74497736 0.0064464214)
(1.766696 -0.75824286 0.0062849598)
(1.8038041 -0.77151775 0.0061309811)
(1.841026 -0.78479901 0.0059855884)
(1.8783537 -0.79808419 0.0058474505)
(1.915781 -0.81136954 0.0057178206)
(1.9532999 -0.82465421 0.00559536)
(1.9909055 -0.8379342 0.0054817958)
(2.0285896 -0.85120739 0.005375315)
(2.066348 -0.86447218 0.0052779057)
(2.1041731 -0.87772447 0.005187718)
(2.1420602 -0.89096427 0.0051073331)
(2.1800033 -0.90418552 0.0050330674)
(2.2179969 -0.91739252 0.0049701231)
(2.2560353 -0.93057358 0.0049125315)
(2.2941141 -0.9437409 0.0048670433)
(2.3322261 -0.95687632 0.004825294)
(2.3703704 -0.97000603 0.0047985536)
(2.4085367 -0.98310335 0.0047678147)
(2.4467541 -0.99622357 0.0047531234)
(2.4849537 -1.0093617 0.0047124915)
(2.5366307 -0.98418858 0.004540231)
(2.5495022 -0.94598967 0.0045082254)
(2.5623601 -0.90782004 0.0045535869)
(2.5751539 -0.86980926 0.0045995664)
(2.5879336 -0.83182457 0.0047063592)
(2.6006843 -0.79391899 0.0048035762)
(2.6134465 -0.75605432 0.0049406104)
(2.6262135 -0.7182081 0.005068984)
(2.6390187 -0.6804132 0.0051951253)
(2.6518287 -0.64257544 0.005326282)
(2.6647127 -0.60477113 0.0054276367)
(2.677626 -0.56690563 0.0055164973)
(2.6906156 -0.52903167 0.0055863409)
(2.7036366 -0.49103596 0.0056121996)
(2.7168113 -0.45307616 0.0056128946)
(2.6915013 -0.40147537 0.005148098)
(2.6530665 -0.38858476 0.0049598751)
(2.6147378 -0.37567835 0.0047475696)
(2.5763844 -0.36280073 0.0045498978)
(2.5380351 -0.3499555 0.0043251984)
(2.4996705 -0.3371426 0.0041043036)
(2.4612968 -0.32437051 0.0038723642)
(2.4229132 -0.31163978 0.0036341597)
(2.3845229 -0.29896476 0.0033938334)
(2.3461315 -0.286339 0.0031438231)
(2.3077378 -0.27377852 0.0028932146)
(2.2693503 -0.26128004 0.0026350268)
(2.2309673 -0.24885282 0.0023724447)
(2.1925955 -0.23649916 0.0021007857)
(2.1542411 -0.2242307 0.0018267836)
(2.1159073 -0.21204624 0.0015453864)
(2.0775984 -0.19995635 0.0012604865)
(2.0393179 -0.18796479 0.00096732782)
(2.0010733 -0.17607641 0.0006685293)
(1.9628675 -0.16430227 0.00036357078)
(1.9247084 -0.15264194 5.1820873e-05)
(1.8866002 -0.14111067 -0.00026583609)
(1.848551 -0.12970502 -0.0005903616)
(1.8105654 -0.1184453 -0.00091925214)
(1.7726524 -0.10732261 -0.0012556275)
(1.7348212 -0.096357773 -0.0015942829)
(1.69706 -0.08554927 -0.0019409558)
(1.6594391 -0.074962366 -0.0022747087)
(1.6218745 -0.06447294 -0.0026339212)
(1.5844459 -0.054217893 -0.0029835281)
(1.5471338 -0.044141223 -0.0033421929)
(1.5099564 -0.034270529 -0.0036981254)
(1.4729191 -0.024609097 -0.0040565526)
(1.436035 -0.015165981 -0.0044163421)
(1.3993138 -0.0059487864 -0.0047762405)
(1.3627672 0.0030358087 -0.0051367813)
(1.3264064 0.011778948 -0.0054974386)
(1.2902435 0.020275325 -0.0058577165)
(1.2542904 0.028516341 -0.0062174526)
(1.2185594 0.036497396 -0.0065766601)
(1.183063 0.044210519 -0.0069348378)
(1.1478136 0.051651723 -0.0072919752)
(1.1128238 0.058813903 -0.0076483662)
(1.0781062 0.065693516 -0.0080035105)
(1.0436734 0.07228433 -0.0083580543)
(1.0095378 0.078583201 -0.0087119485)
(0.97571215 0.084584658 -0.0090656146)
(0.9422085 0.090285883 -0.009419186)
(0.90903999 0.095681808 -0.0097738136)
(0.87621824 0.10077075 -0.010128764)
(0.84375688 0.10554543 -0.010485581)
(0.81166679 0.11001015 -0.010845103)
(0.77996355 0.11414809 -0.011204741)
(0.74865606 0.117976 -0.011572521)
(0.71776346 0.12146569 -0.011935905)
(0.68729717 0.12463893 -0.012307859)
(0.65725969 0.12748631 -0.012683806)
(0.62767347 0.12999033 -0.013067062)
(0.59859319 0.13212981 -0.013426533)
(0.56994238 0.13400127 -0.013832011)
(0.54180318 0.13548206 -0.01422247)
(0.51422102 0.13660504 -0.014592606)
(0.48711841 0.1374312 -0.01499076)
(0.46057131 0.13789438 -0.015390371)
(0.43458193 0.138007 -0.01579047)
(0.40920986 0.13775422 -0.016179573)
(0.38438519 0.13719566 -0.01656611)
(0.36023179 0.13623541 -0.016952497)
(0.33666071 0.13498226 -0.017350528)
(0.31377455 0.13336919 -0.017737438)
(0.29153806 0.13140363 -0.018113674)
(0.26999744 0.12912167 -0.018502833)
(0.24920126 0.12643555 -0.018839861)
(0.22907313 0.12353207 -0.019228952)
(0.20973332 0.12021722 -0.019581561)
(0.19115322 0.11660279 -0.019901816)
(0.17334651 0.11271328 -0.020277333)
(0.15635681 0.10845781 -0.02055008)
(0.14017269 0.10400872 -0.020919057)
(0.12484991 0.099160943 -0.021165407)
(0.11040662 0.094126704 -0.021469841)
(0.096758099 0.088800267 -0.021694063)
(0.084060484 0.083345538 -0.021996536)
(0.072284307 0.077445659 -0.022109786)
(0.061400963 0.071663113 -0.02234643)
(0.051478276 0.065436744 -0.022390298)
(0.042542181 0.059216239 -0.022402198)
(0.034588901 0.052808477 -0.022266207)
(0.027577751 0.046438201 -0.022007655)
(0.021649695 0.039950893 -0.021491082)
(0.016719173 0.03346401 -0.020572216)
(0.01290785 0.026922384 -0.019242515)
(0.010145775 0.021135964 -0.017330815)
(0.007736275 0.014705626 -0.01391225)
(0.0089540855 0.0089902811 -0.0082159858)
(0 0 0)
(0 0 0)
(0 0 0)
(0 0 0)
(0 0 0)
(0 0 0)
(0 0 0)
(0 0 0)
(0 0 0)
(0 0 0)
(0 0 0)
(0 0 0)
(0 0 0)
(0 0 0)
(0 0 0)
(0 0 0)
(0 0 0)
(0 0 0)
(0 0 0)
(0 0 0)
(0 0 0)
(0 0 0)
(0 0 0)
(0 0 0)
(0 0 0)
(0 0 0)
(0 0 0)
(0 0 0)
(0 0 0)
(0 0 0)
(2.5235463 -1.0211737 0.0049652843)
(2.5235236 -1.0213725 0.0049268232)
(2.5235081 -1.0215374 0.0048876301)
(2.5234994 -1.0216981 0.0048598253)
(2.5234949 -1.0218471 0.0048355194)
(2.5234919 -1.0219836 0.0048242209)
(2.5234882 -1.0221069 0.0048109487)
(2.5234838 -1.0222178 0.0048082344)
(2.5234768 -1.02232 0.0047988251)
(2.5234671 -1.0224059 0.0047900333)
(2.5234618 -1.0224953 0.0047783499)
(2.5234519 -1.0225503 0.0047560956)
(2.5234489 -1.0226165 0.0047287282)
(2.5234505 -1.0226553 0.0046936628)
(2.5234604 -1.0227038 0.0046507899)
(2.7304001 -0.41298386 0.0060456143)
(2.7304488 -0.41306915 0.0060374356)
(2.7304963 -0.41314681 0.006000893)
(2.7305444 -0.41323871 0.0059660241)
(2.7305685 -0.41333588 0.0059290167)
(2.7305907 -0.41343968 0.0058771852)
(2.7306025 -0.41354154 0.0058293723)
(2.730601 -0.41364938 0.0057737609)
(2.7305894 -0.4137561 0.0057215408)
(2.7305646 -0.41386498 0.0056723259)
(2.7305289 -0.41397976 0.0056262038)
(2.7304808 -0.414096 0.005587202)
(2.7304304 -0.41421764 0.0055668021)
(2.7303507 -0.41436811 0.0055221723)
(2.7303092 -0.41448489 0.005515862)
(0.0030389935 0.0063754634 0.010828504)
(0.0042500204 0.010761577 0.012666358)
(0.0055916735 0.015305639 0.015782633)
(0.0082264197 0.019757943 0.017098501)
(0.011196248 0.024215849 0.018548017)
(0.015615686 0.028809376 0.019269929)
(0.020698762 0.033366415 0.019865554)
(0.027100845 0.038090851 0.020171482)
(0.034205185 0.042659471 0.020398731)
(0.042500934 0.04733372 0.020504725)
(0.051634884 0.051792354 0.020468937)
(0.061822739 0.056322747 0.020496414)
(0.072858309 0.060559995 0.020348763)
(0.084879763 0.064841477 0.02028564)
(0.097748938 0.068807663 0.020106207)
(0.11159034 0.072749021 0.019996688)
(0.12627056 0.076388914 0.019776327)
(0.14179788 0.079935839 0.019649028)
(0.15822496 0.08320009 0.019425897)
(0.17547374 0.086302597 0.019249232)
(0.19354505 0.089148265 0.019043142)
(0.21242868 0.091761828 0.018848156)
(0.23211813 0.094152965 0.018623025)
(0.25255173 0.096270699 0.018428032)
(0.27378379 0.0981448 0.01819787)
(0.29573834 0.099747219 0.017990284)
(0.31843033 0.10109094 0.017762965)
(0.34181892 0.10214775 0.01754923)
(0.36591741 0.10292772 0.017323646)
(0.39068387 0.10343135 0.017102452)
(0.41609991 0.10363178 0.016876451)
(0.44216965 0.10355142 0.016651808)
(0.46885879 0.10317112 0.016433416)
(0.49614261 0.10249512 0.016206199)
(0.5240265 0.10152069 0.015983784)
(0.55246976 0.10022801 0.015760662)
(0.5814733 0.098654589 0.015535336)
(0.610997 0.09675859 0.015310118)
(0.64105767 0.094564445 0.015083577)
(0.67160562 0.092058199 0.014862856)
(0.7026442 0.089243854 0.014640768)
(0.73413788 0.086110951 0.014411742)
(0.76609158 0.082681847 0.014191313)
(0.79847395 0.078923978 0.013963159)
(0.8312677 0.074869455 0.013735777)
(0.86446385 0.070497094 0.013509453)
(0.89803853 0.065814437 0.013277837)
(0.93198042 0.060821608 0.013048418)
(0.96626843 0.05551832 0.012814707)
(1.0008899 0.049905566 0.012580251)
(1.0358245 0.04398635 0.012342729)
(1.0710578 0.037760088 0.012104448)
(1.1065715 0.031231958 0.011862604)
(1.1423495 0.024401918 0.011620451)
(1.1783746 0.017276202 0.011375971)
(1.2146295 0.0098557013 0.011131492)
(1.2510984 0.0021479366 0.010886158)
(1.2877635 -0.0058450691 0.010642042)
(1.324609 -0.014115881 0.01039933)
(1.3616186 -0.022659751 0.010159063)
(1.3987766 -0.031470066 0.0099220407)
(1.4360674 -0.040539811 0.0096897413)
(1.4734761 -0.049863538 0.0094625656)
(1.5109898 -0.05943484 0.0092424445)
(1.5485897 -0.069236374 0.0090264904)
(1.5862758 -0.079286667 0.0088201387)
(1.6240322 -0.089547904 0.0086206494)
(1.6618241 -0.1000262 0.0084339888)
(1.699668 -0.11071461 0.008253811)
(1.7375372 -0.12160883 0.0080831136)
(1.7754383 -0.13269098 0.0079174929)
(1.8133498 -0.14396247 0.0077611091)
(1.8512765 -0.15540831 0.0076098743)
(1.889196 -0.16702952 0.0074703339)
(1.9271201 -0.1788051 0.0073339388)
(1.9650224 -0.19075047 0.0072104256)
(2.0029204 -0.20282096 0.0070869898)
(2.0407853 -0.2150618 0.0069800543)
(2.0786383 -0.22739614 0.0068679318)
(2.1164514 -0.23989927 0.0067775183)
(2.154242 -0.25247785 0.0066783405)
(2.1919954 -0.26519828 0.0066007705)
(2.2297127 -0.27800571 0.0065180062)
(2.2673917 -0.29091494 0.0064525116)
(2.3050324 -0.30390435 0.0063809828)
(2.3426374 -0.31699226 0.0063303023)
(2.3802044 -0.33015025 0.0062778177)
(2.4177273 -0.34337199 0.0062324365)
(2.4552207 -0.35666325 0.0061950451)
(2.4926531 -0.37001618 0.0061730653)
(2.5300845 -0.38339417 0.0061262375)
(2.5674431 -0.39683803 0.0061233631)
(2.6047871 -0.41035668 0.0060890754)
(2.6421394 -0.42383489 0.0060427002)
(2.6794333 -0.43752891 0.0059838516)
(-2.6920671e-06 0.0046384645 0.0097291144)
(0.00052215879 0.0058924582 0.011443632)
(0.0022465758 0.0096486102 0.013599257)
(0.0038509203 0.011987161 0.015076728)
(0.006669899 0.015220003 0.016045951)
(0.010276103 0.018046372 0.01670388)
(0.015032233 0.021275206 0.017169892)
(0.020575116 0.024283227 0.017486112)
(0.027265327 0.027476972 0.017726348)
(0.034876851 0.030534537 0.017736898)
(0.04343057 0.033680545 0.0178846)
(0.052969561 0.036692338 0.017759493)
(0.063411283 0.03973527 0.017804008)
(0.074833435 0.042630762 0.017643444)
(0.087111846 0.045491577 0.017631307)
(0.10039638 0.048224011 0.017410518)
(0.11444351 0.050869168 0.01737635)
(0.12952915 0.053371367 0.017171253)
(0.14537745 0.055751852 0.017058743)
(0.16217275 0.057978414 0.016879926)
(0.17976306 0.060061348 0.016735535)
(0.19825407 0.061976977 0.016542399)
(0.21752817 0.063721482 0.016389117)
(0.2376633 0.06528305 0.01620262)
(0.25857352 0.066646335 0.016027669)
(0.28029554 0.067827978 0.015835992)
(0.30277181 0.068787036 0.01565568)
(0.32602128 0.069541131 0.015468804)
(0.35000571 0.070067661 0.015274425)
(0.37471648 0.070372718 0.015082858)
(0.40013759 0.070434561 0.014893822)
(0.42625089 0.070258236 0.014699022)
(0.45302678 0.069836509 0.014501724)
(0.48046226 0.069156691 0.014308594)
(0.50853466 0.068217985 0.014110367)
(0.53722292 0.067016176 0.013915049)
(0.56651869 0.065538968 0.013715076)
(0.5963875 0.063787367 0.013521921)
(0.62680344 0.0617554 0.013325256)
(0.65777123 0.059448172 0.0131287)
(0.68924801 0.056838104 0.012925289)
(0.72123148 0.053953669 0.012734456)
(0.75369844 0.050749458 0.012522961)
(0.78661672 0.04726541 0.012331124)
(0.81998281 0.043471351 0.012125012)
(0.85376817 0.039370609 0.011925207)
(0.88795119 0.034962473 0.011721027)
(0.92251609 0.030243833 0.011519246)
(0.95743905 0.02521157 0.011311817)
(0.99270145 0.019866684 0.011107583)
(1.0282813 0.014207214 0.010898725)
(1.0641594 0.0082323151 0.010690971)
(1.100314 0.0019449182 0.010480429)
(1.1367247 -0.0046572326 0.010270903)
(1.1733711 -0.011569013 0.010059629)
(1.2102322 -0.01879079 0.009849799)
(1.247288 -0.026316964 0.0096398211)
(1.2845174 -0.034146595 0.0094328116)
(1.3219018 -0.042272102 0.0092270538)
(1.359421 -0.050691942 0.009025281)
(1.3970555 -0.059397967 0.0088279755)
(1.4347888 -0.068386131 0.0086347271)
(1.4726005 -0.077651571 0.008449651)
(1.5104765 -0.087181696 0.0082670222)
(1.5484004 -0.096976357 0.0080953198)
(1.586363 -0.10702807 0.007930768)
(1.6243154 -0.11731136 0.0077792495)
(1.66229 -0.12785957 0.0076325086)
(1.7002634 -0.13863887 0.0074815249)
(1.738217 -0.14964465 0.0073487286)
(1.776148 -0.16086209 0.0072163141)
(1.8140335 -0.1722993 0.0071002212)
(1.8518824 -0.1839271 0.0069830548)
(1.8896691 -0.19576766 0.0068843324)
(1.9274118 -0.20777258 0.0067764416)
(1.9650727 -0.21998619 0.0066956653)
(2.0026871 -0.23233351 0.0065951869)
(2.0402061 -0.24488857 0.0065311353)
(2.0776779 -0.25754454 0.0064372873)
(2.1150432 -0.27040754 0.0063904312)
(2.152364 -0.28334422 0.0063038165)
(2.1895759 -0.29646816 0.0062668285)
(2.2267347 -0.30967469 0.0062029293)
(2.2637938 -0.32302371 0.0061567935)
(2.3008105 -0.33645141 0.0061068015)
(2.3377199 -0.35000206 0.0060816867)
(2.3745798 -0.3636253 0.0060444433)
(2.4113496 -0.37733241 0.0060240107)
(2.4480701 -0.39114343 0.0060075916)
(2.4847167 -0.40496521 0.0059735004)
(2.5213195 -0.41891371 0.0059692889)
(2.5578395 -0.4328774 0.005942411)
(2.594362 -0.44690931 0.0059111199)
(2.6308122 -0.46099742 0.0058714127)
(2.6672937 -0.47517144 0.0058143011)
(-0.0019533032 0.0025753143 0.0084112398)
(-0.0017606548 0.0029960595 0.0096794349)
(-0.001398367 0.0046639534 0.011944635)
(0.00028257602 0.0061543423 0.012870658)
(0.0026157679 0.0078255304 0.013616327)
(0.0061318464 0.0096635866 0.014109932)
(0.01024058 0.011382237 0.01453295)
(0.01566242 0.013299427 0.014804055)
(0.021808493 0.015055731 0.014876511)
(0.029023293 0.017069664 0.015091225)
(0.037130594 0.018832555 0.015022659)
(0.046260129 0.02083748 0.015125036)
(0.056251939 0.022594559 0.015007555)
(0.067215284 0.024523317 0.015052191)
(0.079111136 0.026255203 0.014875614)
(0.091874144 0.028043217 0.01490187)
(0.10561958 0.029691652 0.014724016)
(0.12020576 0.031320658 0.014667279)
(0.13572018 0.032832979 0.014526785)
(0.15210519 0.034267053 0.014431046)
(0.16938776 0.035596448 0.014280504)
(0.18751322 0.036797475 0.014173415)
(0.20651704 0.037895278 0.014022091)
(0.22634137 0.038839277 0.013891186)
(0.24701544 0.03966386 0.013737499)
(0.26849405 0.040316372 0.013597807)
(0.29078748 0.040821124 0.013445324)
(0.31386152 0.041150711 0.013289323)
(0.33771521 0.041305202 0.013136352)
(0.36232425 0.041264752 0.012981635)
(0.38767518 0.041034172 0.012819798)
(0.41374448 0.040598265 0.01265897)
(0.44052634 0.03994641 0.012499988)
(0.46799053 0.039075244 0.012336212)
(0.4961241 0.03797373 0.012173239)
(0.52490356 0.036640709 0.012008743)
(0.55429962 0.035064011 0.011850094)
(0.58429424 0.033240365 0.011688721)
(0.61491152 0.03115047 0.011521329)
(0.64607705 0.028786925 0.011345796)
(0.67779356 0.026172969 0.011187491)
(0.71003393 0.023266791 0.011004411)
(0.74277315 0.02008497 0.010849144)
(0.77599658 0.016613761 0.010675454)
(0.80967732 0.012844873 0.010503858)
(0.84379019 0.0087826924 0.010335075)
(0.87831802 0.0044160392 0.010162119)
(0.91323644 -0.00025636699 0.0099892855)
(0.94852209 -0.0052390938 0.0098157145)
(0.98415228 -0.01053384 0.0096423589)
(1.0201053 -0.016144222 0.0094658699)
(1.056356 -0.022070424 0.0092917095)
(1.0928831 -0.028313802 0.0091146044)
(1.1296617 -0.034874933 0.0089395757)
(1.1666705 -0.041751543 0.0087632699)
(1.2038846 -0.048944125 0.0085890678)
(1.2412826 -0.056448826 0.008415811)
(1.2788411 -0.064263923 0.0082452215)
(1.3165388 -0.072384759 0.0080767217)
(1.3543527 -0.080808695 0.007913455)
(1.3922635 -0.089529408 0.0077530057)
(1.4302496 -0.098543723 0.007598873)
(1.4682915 -0.10784401 0.007450414)
(1.5063727 -0.11742425 0.0073056494)
(1.544475 -0.12728416 0.0071730802)
(1.5825695 -0.13740616 0.0070404423)
(1.6206879 -0.14778082 0.0069266812)
(1.6587459 -0.15842778 0.0067941301)
(1.696768 -0.16933169 0.0067062984)
(1.7347439 -0.18045576 0.0066068407)
(1.772655 -0.19182101 0.0065176628)
(1.810496 -0.20340431 0.0064373035)
(1.8482649 -0.21520883 0.0063572076)
(1.8859412 -0.22721599 0.0062876547)
(1.9235308 -0.23942972 0.0062203979)
(1.9610171 -0.25183299 0.0061631648)
(1.9984117 -0.26441948 0.0061044804)
(2.0356904 -0.2771855 0.0060601177)
(2.0728769 -0.29011196 0.00601013)
(2.1099418 -0.30320569 0.0059770896)
(2.1469164 -0.31643355 0.005933109)
(2.1837661 -0.32983164 0.0059176985)
(2.2205264 -0.34332032 0.0058747875)
(2.2571784 -0.35698199 0.0058687918)
(2.2937327 -0.37071665 0.0058441611)
(2.3301845 -0.38458649 0.0058435655)
(2.3665504 -0.39852747 0.0058208578)
(2.4028216 -0.41259913 0.0058312458)
(2.4390276 -0.42670669 0.0058064835)
(2.4751304 -0.440926 0.0058205046)
(2.5111877 -0.45520796 0.0058068098)
(2.5471657 -0.46952125 0.0057967526)
(2.5831078 -0.48394787 0.0057782004)
(2.6190049 -0.4983621 0.0057434802)
(2.6548929 -0.51286384 0.005695532)
(-0.0030454642 0.0018026771 0.0069944196)
(-0.0038086443 0.00078098313 0.0082987927)
(-0.0034986783 0.0015783889 0.0097077882)
(-0.002189615 0.0019055344 0.01041137)
(0.00010658795 0.0028038497 0.011021843)
(0.003114948 0.0035093498 0.011471231)
(0.0073754023 0.0045208266 0.011768716)
(0.012399363 0.0053444417 0.011868701)
(0.018418905 0.006409474 0.012154523)
(0.025429872 0.0073163684 0.012092904)
(0.033365159 0.0083562377 0.012259499)
(0.042226783 0.00932701 0.012159501)
(0.052009393 0.010324757 0.012268397)
(0.062796454 0.011317965 0.012110427)
(0.074374927 0.012234226 0.01219708)
(0.087015237 0.013187037 0.012041207)
(0.10043837 0.014032821 0.012037163)
(0.1148588 0.014875318 0.011937842)
(0.13010296 0.015613975 0.01187971)
(0.14630047 0.016312541 0.011773961)
(0.16331249 0.016905934 0.011702475)
(0.18125079 0.017427663 0.011596597)
(0.20000595 0.017837651 0.011501696)
(0.21964601 0.018146054 0.011397695)
(0.24010007 0.018326837 0.011294295)
(0.26139775 0.018383241 0.011187049)
(0.28349418 0.018303083 0.011071293)
(0.30639849 0.018070809 0.010963584)
(0.33007763 0.017681797 0.010846197)
(0.3545304 0.017130853 0.010727395)
(0.37972588 0.016401207 0.010609749)
(0.40566439 0.015487247 0.010490486)
(0.43231021 0.01438025 0.010366723)
(0.45965582 0.013074963 0.010244472)
(0.48768114 0.011549381 0.01011923)
(0.51635816 0.0098209388 0.0099918065)
(0.54569409 0.0078378497 0.009861356)
(0.575672 0.005641837 0.0097224174)
(0.60619355 0.0031894648 0.0095956515)
(0.63730703 0.00051468909 0.0094779302)
(0.66896878 -0.0024364295 0.0093393752)
(0.70116763 -0.0056498593 0.0092174345)
(0.73387326 -0.0091267609 0.0090805779)
(0.76706637 -0.012884094 0.0089454747)
(0.80072524 -0.016919063 0.0088158346)
(0.83482586 -0.021243756 0.0086831992)