/*--------------------------------*- C++ -*----------------------------------*\
  =========                 |
  \\      /  F ield         | OpenFOAM: The Open Source CFD Toolbox
   \\    /   O peration     | Website:  https://openfoam.org
    \\  /    A nd           | Version:  6
     \\/     M anipulation  |
\*---------------------------------------------------------------------------*/
FoamFile
{
    version     2.0;
    format      ascii;
    class       pointScalarField;
    location    "0.39";
    object      E;
}
// * * * * * * * * * * * * * * * * * * * * * * * * * * * * * * * * * * * * * //

dimensions      [1 -1 -2 0 0 0 0];

internalField   nonuniform List<scalar> 
3969
(
16972.851
14901.864
-758693.85
-355909.76
19382.953
16323.183
-541402.96
-1142277
9258.717
4074.1616
1520.06
979.17341
2272.9474
5680.8224
12358.104
-414058.55
-410846.81
-408626.26
-406537.94
-405108.64
-403939.19
-302648.11
17658.91
14403.938
14729.803
14638.174
14520.972
14136.987
13521.38
12988.889
12201.02
11579.233
10872.242
10266.961
9589.878
8974.8781
8379.4494
7781.0392
7264.2973
6723.6307
6247.6004
5798.7556
5393.4587
5051.3609
4749.4364
4507.8579
4385.6152
4301.8563
4251.0651
4334.3515
4436.7392
4621.2527
4861.7983
5181.6111
5521.8868
5920.5018
6477.8099
6816.7889
7555.0093
7892.2682
8741.7414
9090.5802
10010.083
10613.335
11293.86
12336.65
12984.635
13337.705
14017.709
15099.654
10713.951
13193.024
12237.179
12641.346
11850.228
11697.961
10977.276
10560.327
9937.7533
9316.537
8799.6321
8239.2405
7713.4426
7105.2909
6599.7037
6141.4667
5579.5394
5294.7855
4768.1953
4505.972
4240.0328
3831.8985
3691.2976
3495.684
3485.1946
3263.2389
3344.5264
3376.1003
3613.2511
3876.0179
4187.3388
4552.3271
4988.399
5504.3567
5952.2438
6631.723
7104.3873
7776.3387
8357.1291
9104.9933
9883.0822
10392.627
11390.611
12134.035
13069.962
14137.683
9826.3909
4609.6148
1574.1391
1621.0275
2208.1401
5255.8431
10809.879
22459.792
16277.246
11635.315
16262.81
13567.684
14045.36
13278.866
12188.229
11994.265
10622.77
10734.33
10022.016
9715.9888
8909.1972
8466.9574
7884.3204
7250.9407
6767.5319
6220.6945
5722.9028
5319.8965
4969.4979
4693.8358
4478.9694
4280.5161
4340.0779
3707.9925
3700.6328
3811.1751
3904.4649
4077.6594
4311.7448
4588.6714
4922.0684
5279.178
5506.6208
6971.1405
6378.4653
7106.711
7575.4733
8057.4932
8749.7638
9217.4661
9976.0889
10650.712
11829.805
10902.584
-875577.32
-729734.93
-881536.1
-829804.55
-834622.32
-745434.98
-905498.86
10202.833
11903.897
12493.532
11647.214
10914.719
10060.062
9420.3037
8671.619
8077.9611
7668.2918
7361.3982
5702.6417
6001.8089
5441.5754
5074.4562
4794.5054
4491.7189
4331.9152
4192.7979
4145.3579
4121.3638
4211.023
4349.6143
4556.2844
4803.6881
5108.6413
5479.7244
5909.4116
6392.8382
6910.3258
7506.221
8124.4807
8680.7173
9238.4599
10154.545
10703.806
11569.367
12182.559
12715.498
13497.107
14423.25
14487.768
15674.529
15012.933
14936.006
14877.879
20424.834
13300.17
13051.969
12761.214
12810.428
12756.081
12673.592
13529.865
9658.1834
10300.746
11244.908
11736.466
11639.044
12215.631
10267.89
-402137.25
-402445.5
-402325.44
-402489.81
-402484.56
-402581.06
-402678.66
-854694.17
-854879.76
-855016.04
-855075.71
-855103.28
-855618.76
-855780.43
11264.517
9335.7685
9667.2109
9469.7929
9453.2014
9291.2778
8876.5996
8567.0305
8064.5256
7712.7532
7238.9286
6792.7062
6374.3733
5971.3133
5568.4331
5215.7374
4876.9518
4548.3926
4276.3282
4028.2362
3821.2827
3640.0953
3521.4145
3441.1901
3399.4089
3442.3672
3458.1339
3710.094
3850.2363
4179.4779
4526.4028
4947.1753
5403.4995
5931.6996
6487.0095
7012.304
7791.1536
8333.1833
9048.4489
9792.1187
10506.886
11111.251
12219.428
12561.099
13928.622
14962.246
15748.129
5078.3498
4340.0983
4777.3672
4577.4788
4626.7792
4502.449
4251.5959
4148.7916
3861.6514
3688.593
3430.9863
3240.3892
3089.4756
2926.9498
2776.7071
2608.875
2457.7825
2315.9516
2186.901
2103.0032
2044.6111
2011.6998
2008.8412
2064.9898
2171.554
2357.1984
2518.3186
2873.1726
3156.269
3615.2755
4068.9208
4602.6001
5167.4141
5807.7093
6441.1292
7117.2541
7878.3764
8290.8897
9388.0828
9720.9724
10772.829
11340.933
12282.581
12728.742
14199.936
14406.655
15896.486
1954.8336
1045.6669
1616.2143
1329.2636
1492.9529
1455.564
1486.6553
1451.2233
1392.1108
1407.6121
1335.1914
1265.9611
1170.584
1124.9548
1065.8641
1037.9055
1004.4896
974.34051
978.9087
962.88965
936.53581
948.70947
1004.0211
1139.0408
1293.477
1477.5795
1818.1303
2102.4959
2470.2433
2928.2154
3373.0415
3944.5451
4493.5247
5121.4422
5745.2177
6460.6756
7083.4825
7980.9687
8662.1765
9356.5018
10268.053
10861.21
11857.508
12596.807
14078.049
14588.279
15922.581
928.10692
109.41974
363.81106
336.53559
417.93272
447.97393
409.48159
460.73794
415.69437
388.70717
358.81154
359.24549
354.09564
343.64876
296.94047
297.10009
279.09613
322.52043
331.25545
378.29448
485.55254
664.5417
892.58972
1105.8581
1253.5866
1500.9735
1739.119
2119.0362
2535.0291
3025.7799
3534.7656
4155.7532
4743.1982
5422.8486
6131.8683
6772.0434
7568.1122
8231.6067
9016.095
9720.9948
10588.746
11253.522
12221.352
12893.307
13972.576
14210.114
15812.708
2230.0554
1157.0559
1369.4617
1142.6627
1164.4846
1189.9063
1093.6166
1125.8067
1051.6602
1047.4748
1026.9215
949.96631
885.14698
843.82502
832.89378
788.29017
779.69025
749.43932
764.93501
742.99028
957.90016
804.64997
791.20393
984.56523
1153.0983
1356.332
1684.4283
2039.1346
2410.8082
2868.4515
3375.9897
3935.2747
4559.6019
5163.4356
5849.6535
6586.6575
7119.8892
8092.012
8558.1588
9296.4168
9892.7499
10768.845
11540.099
12449.018
13211.904
14503.752
16114.859
5492.9354
4409.034
4605.0831
4509.0906
4636.8829
4547.3422
4484.5521
4308.3305
4151.6804
3924.9928
3765.058
3567.2169
3346.4613
3161.2316
2953.6626
2778.7244
2591.672
2450.2098
2330.4923
2200.5119
2086.707
2265.8517
1961.9761
1839.7091
1936.4306
2035.364
2179.2163
2477.1337
2774.8742
3180.0831
3603.4855
4130.624
4658.3218
5271.9417
5924.49
6524.108
7370.8394
7866.1102
8739.1433
9641.4539
10429.383
11436.637
12049.514
13063.245
13764.39
14521.457
15844.989
8607.6663
7859.6398
7940.5776
8152.3515
8134.5859
8081.9129
7761.3265
7499.7509
7221.7514
6768.7503
6620.2128
6173.8012
5873.3773
5453.3283
5165.0168
4807.6857
4521.7264
4227.21
3955.3048
3744.3062
3612.4401
3328.8104
3476.1934
3186.0336
3392.8118
3392.713
3564.6373
3745.2164
4004.6543
4299.6225
4642.9647
5113.4145
5577.7771
6133.3405
6680.5691
7344.4344
7896.9805
8697.7282
9272.9339
9953.2685
10606.482
11291.868
12025.426
12903.634
13405.036
14779.419
15274.75
5288.423
5483.2129
4488.6198
4500.5234
4571.9657
4799.8655
6185.5412
2447.6659
2226.8935
1909.1552
1932.8077
1983.5444
2186.4691
2860.6116
798.01795
534.91761
255.27801
328.1254
278.46545
390.42278
827.42424
452.97743
212.31178
133.72947
127.06611
193.12717
397.4436
853.85481
874.62353
528.8505
391.63625
344.218
433.27707
634.55957
1124.6612
3028.2779
2161.5283
1903.3173
1784.763
1912.3722
2280.582
3390.7545
5743.194
5721.1006
4770.9335
4903.9206
4845.891
5275.0554
7096.2674
17375.042
15456.211
16687.314
17845.353
17830.166
19047.999
18514.73
15277.103
15786.234
14508.881
14094.981
15721.687
15950.488
16626.468
13460.366
13818.703
14429.681
14293.845
14133.882
14288.668
15147.276
14279.418
15563.66
15137.346
15479.93
15600.259
15875.178
14575.885
13494.402
13747.729
14504.547
14448.767
14422.173
14093.555
14358.297
13538.928
13440.198
13613.721
13962.147
13757.82
13519.151
13238.286
12520.77
12665.513
13236.269
13184.266
13284.569
13366.165
13282.058
12321.586
12046.006
12097.339
12162.704
11995.059
11840.655
11813.739
11523.509
11367.994
11712.095
11590.903
11778.2
11675.99
11899.594
11101.145
10722.377
10655.814
10945.166
10558.412
10468.953
10658.119
10499.206
10185.887
10432.146
10030.843
10220.59
10126.267
10195.55
9896.5319
9570.9607
9388.6752
9591.8266
9492.8389
8937.4694
9618.9544
9412.4427
8842.4089
9121.6253
8762.8856
8776.9265
8802.235
9027.9177
8638.3553
8316.8104
8436.1032
8118.236
8467.9158
7818.6365
8420.5152
8226.997
7742.2015
7825.4407
7712.9996
7592.6194
7484.9128
7838.562
7635.8788
7024.8132
7455.3322
6935.1936
7274.3539
6878.6737
7325.3384
7053.0226
6715.4404
6821.2415
6534.1559
6671.0831
6364.9639
6723.6044
6639.8118
6056.2034
6454.7639
5974.921
6245.0095
5885.8471
6251.7259
6102.4943
5723.9243
5987.3124
5535.297
5753.4748
5419.322
5804.3787
5735.1552
5239.8662
5597.0131
5093.2966
5373.079
5033.3071
5401.7074
5339.7978
4921.972
5205.6007
4734.9685
4989.6099
4649.8827
5022.8391
5027.3138
4564.2042
4886.2064
4408.3388
4661.3399
4325.4424
4719.897
4688.7386
4338.8009
4575.0711
4168.711
4374.4091
4106.7326
4491.3765
4475.1584
4125.4269
4329.1484
3931.8925
4124.5551
3907.8906
4242.801
4263.3749
3962.7636
4132.6727
3899.5368
3998.0257
3713.5133
4069.294
4139.4733
3917.0796
3975.784
3758.2277
3902.0109
3655.5509
4167.5832
4176.2258
3899.2205
4006.4642
3737.2509
4159.5163
3628.412
3986.6255
4272.9929
3923.3138
4000.1364
3762.3531
3876.4858
3633.2846
3953.644
4301.478
3991.8213
4121.8409
3843.7129
3995.8116
3834.5977
4029.1903
4498.1029
4141.5622
4313.5078
3955.1108
4178.865
3900.2515
4153.8187
4659.1431
4353.9201
4495.3185
4150.5728
4356.0045
4104.0029
4370.0819
4930.9842
4638.343
4753.1837
4417.1356
4647.6268
4379.2889
4635.5288
5255.3152
4947.6749
5075.6276
4747.579
4943.9707
4676.9886
4926.3802
5580.5817
5311.601
5429.6925
5091.7618
5309.1112
5057.9824
5268.9794
6008.4964
5777.3741
5849.276
5544.187
5691.6056
5440.3505
5663.0273
6444.1344
6163.205
6317.1952
5936.3757
6189.8416
6049.9443
6084.0778
6884.9891
6744.773
6726.842
6513.1722
6697.6891
6187.4184
6624.2005
7207.5419
7298.1118
7278.2811
7100.2534
7109.1366
7230.5129
7052.1759
8005.9073
7843.141
7924.1139
7594.6674
7790.9747
7503.0875
7492.7732
8657.2323
8400.1667
8546.2216
8215.1222
8360.2001
8061.638
8136.5107
9178.4243
8976.1795
9173.5329
8786.8883
8993.2476
8709.4895
8723.4506
9937.7589
9787.7828
9937.1535
9648.8193
9767.2903
9449.904
9400.0067
10516.18
10233.635
10515.694
10148.261
10343.082
10019.48
10074.004
11346.555
11202.077
11391.074
11113.121
11222.909
10895.849
10841.677
12247.548
12056.444
12278.494
11963.763
12150.142
11781.236
11768.789
13315.492
13047.901
13338.363
13058.496
13189.58
12882.057
12939.372
13259.383
13294.017
13349.027
13193.873
13223.554
13004.156
12943.695
-507638.07
-559641.58
-559702.87
-559737.05
-559777.48
-559805.44
-559504.01
-555428.74
-554977.34
-554962.03
-555073.06
-555023.84
-598713.18
-555072.31
-594915.38
-550760.83
-550814.87
-550789.69
-550795.77
-498622.24
-550496.61
-548230.69
-547782.09
-548205.92
-548175.25
-548234.03
-548031.05
-548018.27
-545776.81
-494650.18
-545815.25
-545720.52
-545586.45
-545581.36
-545401.59
-493021.84
-586620.44
-543899.59
-543790.31
-586994.23
-543646.23
-543497.74
-584323.78
-541449.37
-541664.93
-541620.89
-490787.31
-541625.37
-541614.8
17302.953
15533.365
14667.161
14179.936
14509.873
15020.702
15189.599
16227.692
15050.895
15091.374
14948.234
15079.864
15270.266
15726.794
16334.692
16483.595
16254.746
16046.655
16398.438
16038.75
15979.165
15632.411
15818.472
15905.231
16024.702
15808.721
15536.744
15578.229
15549.06
15603.842
15792.94
15681.431
15701.687
15259.49
15139.393
14497.763
14669.7
14675.858
14730.632
14666.446
14401.8
14422.765
14226.049
14091.579
14155.989
13954.571
14088.347
14043.139
14014.355
13196.333
13224.229
13207.156
13257.934
13117.852
13050.256
13179.93
12754.025
12587.237
12602.502
12549.428
12626.145
12404.287
12702.138
11948.83
11805.112
11820.64
11763.284
11755.331
11701.103
11870.586
11273.61
11154.938
11242.723
11089.53
11205.95
11035.92
11227.632
10578.835
10498.305
10423.735
10501.406
10422.292
10452.835
10577.947
9948.4468
9831.0824
9845.3339
9783.1482
9769.4744
9703.8167
9830.5093
9237.5101
9197.6922
9217.6887
9173.0172
9204.4678
9240.0532
9357.6742
8705.2965
8542.2754
8528.9545
8556.601
8629.7534
8484.6
8595.6131
8103.1189
8038.564
8016.4296
7973.6804
7945.5951
7892.5135
7981.2628
7504.2928
7468.5521
7432.7899
7475.7103
7436.5035
7381.3596
7418.3737
7001.7938
6943.1256
6951.1095
6930.6391
6891.7565
6872.8538
6863.6547
6488.2741
6477.386
6441.8726
6448.487
6423.4842
6369.2643
6356.8077
6052.5272
6047.5237
5988.5662
6036.8281
5964.9403
5947.808
5919.9861
5653.0133
5652.0427
5606.2874
5625.674
5559.6604
5550.2115
5504.3238
5312.813
5309.9242
5250.0615
5296.6866
5230.4229
5224.2901
5153.5801
5018.731
5006.573
4971.9945
5013.152
4943.3683
4925.4556
4851.4098
4804.7533
4793.2292
4755.1662
4795.9232
4744.2777
4704.5939
4627.4572
4662.5409
4615.4693
4593.1267
4650.1061
4560.1547
4546.0311
4439.2932
4557.0949
4536.5625
4501.6889
4545.9903
4465.7296
4440.3265
4350.7201
4486.1953
4495.9405
4487.4931
4490.2601
4434.1194
4393.0695
4258.7945
4575.796
4520.6518
4498.7448
4520.2422
4457.2969
4406.575
4284.5395
4640.5345
4570.444
4606.8607
4615.722
4519.7089
4494.7241
4358.7148
4783.7341
4795.1906
4752.7637
4737.1525
4694.7775
4646.2628
4493.31
5036.806
4949.4915
4956.3983
4976.0765
4888.8967
4828.7308
4693.7438
5276.1449
5244.5191
5247.7496
5213.5541
5140.7207
5124.7862
4947.5018
5612.582
5571.257
5550.97
5550.8151
5486.3684
5425.1268
5281.6117
5993.3892
5919.8777
5936.2683
5929.4953
5845.2623
5850.2828
5611.1202
6418.8402
6361.2982
6367.0883
6325.5963
6261.8723
6123.5388
6097.8895
6815.6065
6776.278
6803.6531
6806.3194
6721.3594
6994.5712
6633.094
7534.8419
7255.7631
7351.9981
7165.7032
7320.699
6842.8634
7054.1216
7785.0987
7861.0276
7833.9251
7869.8559
7662.7262
7876.4782
7607.1942
8465.1436
8527.6132
8516.5852
8497.6636
8376.2614
8432.9702
8222.5443
9134.146
9033.3475
9019.3009
9096.1632
8929.5323
9001.7936
8866.4566
9762.7026
9744.0337
9843.3012
9794.6581
9691.7359
9707.7901
9611.7191
10568.569
10620.166
10513.737
10627.848
10464.902
10459.365
10389.788
11291.981
11027.536
11183.864
11239.926
11162.417
11260.112
11273.489
12115.317
12247.927
12224.843
12298.966
12141.94
12161.52
12045.385
13236.797
12844.344
13030.557
12934.426
12888.49
12956.474
12924.548
12508.41
12790.534
12757.123
12776.56
12730.128
12590.891
12661.968
12901.966
12183.289
12172.534
12144.465
12000.633
12151.642
12049.494
18200.802
12789.896
11940.752
11840.796
12124.874
11721.08
11453.179
11033.888
10522.676
10148.774
9630.0592
9068.8325
8604.937
8094.8787
7536.0354
7319.7221
6782.2746
6365.1532
6013.3197
5663.6897
5357.6976
5107.4526
4882.8101
4712.4762
4612.6648
4529.6201
4595.4264
4622.4627
4779.8044
5005.7591
5279.9087
5646.8808
6038.4096
6541.6467
7008.611
7670.3497
7958.8334
8900.9696
9287.657
9888.0288
10498.984
11058.332
11656.236
12293.135
13270.741
14619.447
16307.182
8038.1746
7988.5011
6219.763
6435.0011
6689.2903
5957.5801
6172.2218
5838.8762
5613.9533
5379.5818
5068.9451
4770.5929
4531.3908
4230.7041
3947.0382
3771.8009
3471.986
3261.788
3096.2981
2906.2504
2762.3531
2675.2048
2576.4644
2584.922
2559.8045
2645.3481
2857.6886
2992.3633
3291.761
3610.1418
4016.6553
4490.5351
5007.5348
5573.5524
6179.7392
6821.8494
7482.7133
8144.8667
8844.2535
9560.766
10421.399
11089.754
12108.027
12757.354
14128.205
13936.347
16754.534
2808.3618
2832.1602
2210.9005
2599.2912
2335.1982
1926.5653
2299.7972
1899.9608
2066.4448
1926.5484
1850.9433
1943.2305
1698.4793
1882.8904
1815.1425
1743.0583
1705.6966
1653.0098
1647.747
1611.2997
1631.5935
1671.9183
1736.9531
1840.3185
1984.2382
2148.4709
2460.5075
2704.6127
3117.9179
3517.7513
4011.3404
4520.9096
5086.549
5677.469
6294.7049
6923.1441
7527.7966
8227.447
8804.1179
9575.1675
10116.554
10963.035
11505.518
12486.681
12967.335
14145.672
15556.44
918.85865
909.52363
182.27882
1195.9967
280.17858
885.27807
40.880242
486.45402
349.74631
224.30935
465.8134
138.1456
327.3812
497.00802
486.99885
515.55918
493.77306
482.63571
519.82503
538.71499
580.89136
667.77366
730.12038
918.75637
1083.8461
1358.5184
1603.5018
1963.1109
2347.227
2808.0523
3303.0492
3869.4102
4494.3555
5100.3924
5812.2919
6458.1396
7218.7508
7900.2549
8710.2132
9312.1574
10296.221
10832.361
11927.01
12416.834
13807.954
13817.485
15609.236
1975.9024
510.83
889.33269
649.35016
763.08941
698.67858
781.2804
889.91696
486.12413
894.52308
480.05731
731.27108
623.10592
598.4329
675.91698
639.73301
680.21667
693.61834
743.90888
764.69968
842.52006
904.66627
1069.1393
1187.3486
1309.198
1556.3223
1822.636
2196.9988
2603.1504
3074.1407
3587.108
4167.3585
4747.9208
5379.8315
6051.7847
6672.2984
7364.9004
8071.1355
8601.3555
9496.9174
9998.7017
10875.91
11502.136
12474.961
12986.139
14011.314
15294.82
4543.0482
3840.4264
2704.6672
3918.5771
2786.4529
3559.7839
3220.8609
2911.4772
3340.56
3046.2169
3295.6888
3092.3091
2886.3024
2744.3379
2581.572
2374.9837
2219.5737
2055.5332
1917.6995
1824.5026
1736.0395
1696.5965
1699.4951
1683.5532
1716.1053
1938.6267
2137.3262
2413.5227
2767.089
3177.5683
3660.7385
4175.2803
4774.2301
5366.0244
6049.8146
6640.0655
7460.1172
7953.0299
8913.3069
9450.3295
10307.806
11001.662
11879.491
12621.261
13540.175
14722.345
15129.7
12908.16
7395.211
9120.0141
7436.1136
8522.9258
7896.6629
7702.5397
7641.18
7070.8068
6882.7453
6310.5324
6457.6645
5671.5765
5443.2128
4901.3847
4612.8935
4276.5617
3975.2589
3727.9204
3487.9723
3274.3015
3072.0813
2984.8635
2754.5227
3159.6025
2810.0102
2909.7048
3149.9529
3386.0711
3740.614
4137.398
4611.5818
5129.4293
5696.4844
6282.4691
6779.2273
7600.6565
8278.7105
8875.9578
9545.8979
10232.531
10921.518
11631.206
12464.534
13153.855
14457.943
14080.686
13962.302
11735.636
11409.011
11161.7
11269.069
11227.907
11658.614
12357.323
12725.791
11840.88
11779.362
11632.861
11820.422
12036.516
11503.462
12280.322
12284.616
12124.569
12081.055
12056.6
11908.423
11321.599
11703.347
11796.887
11872.775
11704.769
11589.126
11180.304
10875.05
11309.397
11592.892
11521.326
11535.443
11414.188
11119.618
10544.134
10764.752
10807.957
10981.137
10806.543
10765.01
10710.711
10116.65
10258.47
10434.392
10295.239
10333.596
10337.489
10271.77
9624.2054
9764.0707
9742.0433
9845.3557
9818.0322
9740.473
9874.4435
9185.9833
9290.2862
9266.2367
9303.1235
9206.9607
9357.18
9426.0924
8664.2163
8750.284
8730.0891
8725.7091
8746.5992
8814.5359
8928.5758
8184.4281
8290.1989
8250.9161
8284.9822
8317.1859
8364.2558
8563.1911
7743.179
7757.2321
7784.5262
7766.488
7781.6799
7862.6907
8054.8239
7305.7043
7356.7305
7298.307
7319.5885
7407.8412
7426.5072
7574.9949
6823.2301
6883.4451
6895.2691
6893.1198
6948.5704
6959.8725
7217.7952
6395.4769
6494.6121
6371.7695
6477.6735
6445.0165
6675.2193
6713.2677
5994.1584
6107.3594
6014.9054
6107.8896
6093.1018
6165.1599
6307.3701
5588.8283
5664.7227
5621.5268
5660.5781
5698.157
5823.6576
5979.9314
5205.8107
5298.0113
5262.7939
5320.7478
5337.4094
5498.626
5568.3103
4882.671
4948.2744
4934.8623
4983.2045
5032.3048
5146.7503
5250.5291
4585.5974
4655.2301
4637.2196
4727.6401
4720.5619
4869.1225
4965.2402
4343.44
4370.9021
4399.1886
4460.5135
4475.9284
4629.4386
4695.0431
4143.8862
4171.2697
4194.9449
4266.5635
4284.6524
4419.6656
4477.8697
4003.5923
3994.1387
4050.1502
4118.6946
4105.1111
4241.5708
4315.4739
3908.6317
3882.7811
3979.4605
3997.3005
3998.9083
4152.812
4184.7932
3847.3158
3827.2685
3882.2568
3954.7542
3925.6678
4054.3255
4114.4554
3826.9955
3828.4189
3930.7822
3952.8787
3925.3521
4096.0284
4061.9056
3929.363
3896.9304
3935.7603
4014.3821
3973.0774
4135.5992
4134.0055
4068.067
4021.7104
4082.9374
4141.4742
4119.3635
4250.5263
4252.7783
4240.0006
4186.4833
4310.929
4298.1879
4305.9231
4438.2598
4408.7393
4508.9153
4470.5972
4550.4217
4555.7691
4573.9591
4683.4522
4662.3832
4845.1181
4761.9807
4868.722
4880.7225
4879.5722
5004.7228
4963.8231
5217.2787
5147.9181
5276.7927
5239.2927
5269.7623
5382.5174
5330.3065
5668.2825
5603.4565
5682.9799
5681.0133
5708.08
5806.1308
5770.6815
6161.0534
6043.2027
6199.3816
6158.7019
6192.7225
6305.1144
6251.1113
6657.2786
6642.9948
6728.8998
6682.5614
6761.5708
6809.023
6794.069
7291.0344
7173.0863
7277.1261
7273.0132
7275.6782
7345.0604
7297.3508
7771.0962
7719.2557
7972.9751
7778.5034
7987.8452
7976.5388
8065.9919
8504.4677
8414.5183
8544.9904
8608.4631
8501.8018
8675.0499
8550.2775
8957.7027
9044.882
9153.5671
9071.8897
9267.6742
9247.7365
9279.4218
9866.2692
9806.8094
9881.0666
9861.3177
9859.0644
9925.306
9832.2101
10272.873
10334.417
10462.01
10414.943
10565.282
10581.918
10544.552
11143.102
11208.022
11209.046
11234.211
11184.082
11257.696
11188.776
11984.618
11864.867
11983.859
11956.709
12040.151
12043.06
11891.028
12345.995
12521.071
12531.378
12660.713
12457.375
12481.628
12461.418
13685.751
13510.206
13736.982
13649.677
13658.791
13795.714
13554.386
14641.484
15101.413
14915.037
15078.392
15031.966
14986.99
15028.032
16140.112
15521.822
16055.491
15932.648
15971.52
15910.574
16076.993
6282.8976
4887.4148
4434.1333
4261.8861
4220.3456
4313.8991
4710.2769
6471.6307
7013.9132
6585.9078
6644.355
6641.2453
6694.7413
6855.7857
6108.1946
6303.7455
6435.824
6263.6038
6330.8547
6032.2065
6050.177
5899.1628
6239.3875
6426.6052
6454.5411
6327.0831
6260.9891
5798.417
5743.0298
5893.3376
6158.5323
6038.7187
6147.2287
5855.0585
5802.8393
5505.3723
5636.3011
5529.4914
5572.7961
5457.6317
5427.0282
5326.0707
5243.743
5313.1155
5426.5562
5387.7633
5408.3773
5358.1864
5203.4999
5056.9244
5127.5218
5006.3266
5033.4605
5000.4095
4960.0242
4975.6924
4817.5402
4784.1201
4791.6653
4752.89
4736.9591
4786.4246
4725.0296
4600.4576
4550.879
4525.327
4520.9917
4574.4181
4560.5097
4526.7758
4342.0727
4298.1764
4276.9891
4266.4244
4226.5163
4271.1038
4229.0521
4128.2628
4069.8765
4018.8979
4020.7772
4017.8083
4058.6799
4006.5463
3882.5252
3792.8161
3795.7348
3858.0691
3781.2186
3871.1125
3757.1892
3660.6886
3554.9691
3573.4744
3572.0075
3543.8328
3582.4733
3586.0241
3469.2871
3356.3303
3388.6868
3356.8927
3391.6308
3357.5082
3339.0286
3267.686
3112.2979
3163.7494
3156.9446
3177.8046
3145.954
3136.59
3066.4907
2969.1661
2959.2641
3005.0696
2968.3564
2994.0922
2982.4973
2896.5696
2791.0672
2777.298
2835.578
2800.876
2814.7571
2760.6304
2747.6254
2659.8608
2642.6683
2693.0868
2659.7334
2657.3029
2637.2486
2618.6806
2529.1651
2509.6377
2568.0315
2517.2812
2536.4711
2508.8225
2498.9464
2429.0423
2426.1855
2463.7932
2412.7299
2445.0281
2386.4497
2422.4937
2382.7778
2361.7689
2405.1047
2360.3841
2368.0221
2328.52
2396.7652
2332.8355
2319.0475
2372.6427
2292.8608
2343.4186
2288.2483
2410.5497
2337.9403
2348.8281
2354.3562
2332.5066
2404.1656
2313.7591
2474.263
2407.4407
2406.9104
2405.1975
2401.9375
2399.6749
2337.8125
2620.1238
2509.6235
2540.0833
2557.0521
2465.8331
2599.5238
2508.6093
2726.6678
2752.44
2667.8083
2720.45
2711.5663
2729.516
2658.0279
2997.81
3010.5012
2903.5355
2943.1318
2920.9747
2951.5327
2878.6397
3330.3729
3221.9015
3297.1485
3226.9038
3233.0089
3257.1588
3165.3436
3711.0188
3645.0756
3608.507
3576.2147
3597.1088
3599.6043
3519.1661
4120.6032
4021.602
4037.2676
4008.6338
4009.9878
4017.1035
3930.0838
4600.3518
4542.3932
4525.4305
4470.3742
4479.9792
4494.1166
4403.8678
5126.4637
5049.775
5023.2464
4990.7847
5010.0892
5018.1803
4929.1624
5692.4586
5642.3244
5617.4627
5561.5492
5584.4062
5587.873
5492.0325
6308.8362
6258.4589
6180.0011
6173.6461
6161.5457
6167.7547
6111.7764
6908.8132
6833.8664
6846.9155
6789.0537
6809.8455
6889.4956
6770.3655
7611.2239
7683.9435
7491.3796
7500.5522
7495.3979
7459.5758
7405.2967
8272.6521
8093.8955
8149.8393
8113.9242
8134.1995
8209.4658
8136.3016
9074.9338
9062.7348
8992.3432
8919.3091
8898.2029
8951.2171
8878.46
9691.3884
9534.9049
9559.7877
9548.9362
9545.8048
9646.6683
9545.4721
10526.538
10524.117
10501.074
10480.25
10452.324
10472.259
10444.513
11312.515
11144.787
11157.484
11096.307
11040.712
11150.157
11085.708
12037.698
12067.008
12068.49
12106.588
12141.148
12198.827
12112.553
12766.756
12610.713
12718.913
12649.824
12513.107
12619.589
12600.757
14127.657
14140.905
14099.022
14014.362
14065.593
14380.54
14298.355
14248.383
13834.943
14139.154
13968.685
13911.942
14046.656
13656.969
16558.436
16427.086
16384.568
16254.629
16297.877
16274.55
16384.28
2426.479
1873.2316
1600.1569
1520.3917
1436.9826
1497.1263
1557.4119
1993.2216
2261.3281
2097.941
2141.6319
2095.9438
2050.8793
2178.1123
2357.1738
2328.9045
2278.0266
2285.0369
2215.1611
2132.8024
2107.0521
2002.1752
2233.5497
2526.649
2629.7153
2524.9549
2528.9366
2235.6822
2222.9898
2298.1003
2296.3342
2189.5001
2181.2806
1992.1149
2173.6719
2011.755
1793.9024
1905.5572
2096.6727
1987.0736
1968.8404
1911.3612
2143.786
1931.627
2107.4783
2107.4996
2095.9527
2109.6013
2069.2869
2034.9285
1758.9487
1754.0676
1694.7014
1725.9613
1746.4524
1730.0763
1895.8526
1685.339
1770.1507
1827.7656
1843.0955
1873.086
1840.1799
1857.0666
1613.162
1641.5912
1606.5324
1595.2216
1639.2811
1674.0824
1730.9396
1523.4541
1561.3102
1535.3393
1568.755
1579.9167
1600.6555
1689.5437
1404.2022
1462.0986
1476.298
1545.2445
1564.4364
1644.0961
1548.2305
1285.2456
1453.9268
1347.0112
1437.2196
1409.5612
1529.854
1439.1247
1335.6868
1378.2798
1318.8165
1389.6114
1404.6944
1439.7142
1282.8598
1278.1002
1287.8266
1281.0649
1262.4804
1353.4584
1427.3373
1200.2008
1242.1375
1241.3485
1273.8277
1230.109
1307.7872
1383.2558
1183.0547
1161.2797
1226.4163
1212.8569
1161.3661
1279.8278
1338.9724
1120.2882
1140.501
1185.4813
1182.0099
1131.6608
1264.3065
1280.3535
1126.3657
1127.1727
1175.5591
1177.6003
1125.0327
1253.0494
1288.8628
1101.8885
1118.6722
1156.5755
1174.3857
1108.2994
1264.8832
1264.9641
1128.9197
1162.5248
1193.2007
1213.6578
1167.4044
1299.9531
1298.6276
1175.1423
1219.945
1230.133
1263.168
1196.0795
1360.8151
1336.6474
1261.8877
1306.4786
1332.6228
1337.613
1313.4481
1456.3856
1427.863
1392.5261
1448.3523
1468.2582
1499.6071
1458.2517
1564.4378
1488.2663
1566.5113
1591.6902
1642.9424
1665.8907
1633.3756
1715.0525
1684.5828
1746.6715
1820.311
1872.5544
1855.3071
1872.7316
1922.3266
1870.6198
2044.5544
2079.3566
2105.5014
2112.0924
2148.5854
2170.285
2120.4282
2295.0185
2396.2736
2434.6802
2467.4773
2412.5499
2511.2341
2408.5069
2713.2074
2760.5002
2820.7452
2775.2626
2831.5818
2884.7455
2786.5833
3121.409
3208.7707
3186.8029
3229.8694
3239.1261
3278.9767
3215.7615
3594.3152
3633.7811
3703.7512
3698.4782
3724.3821
3783.0812
3696.3256
4134.2345
4186.0402
4233.1887
4204.0383
4257.1809
4278.9753
4228.1031
4695.8133
4736.9081
4784.6367
4766.6214
4831.1535
4849.3309
4793.381
5319.7208
5340.2394
5392.8035
5372.8743
5434.2783
5420.6638
5432.8332
5944.0303
5927.6866
6034.7429
5980.3524
6073.8956
6093.2234
6046.6898
6618.2117
6661.6219
6715.5469
6639.7203
6779.2391
6668.9064
6736.869
7275.9618
7214.3441
7323.983
7305.3703
7390.6337
7365.7983
7391.2297
8017.0182
7973.9398
8158.5151
7997.0988
8175.7273
8039.1792
8126.9565
8576.6629
8684.6768
8683.8365
8662.4171
8785.7095
8695.5213
8794.5982
9502.4619
9349.0335
9577.5668
9433.7745
9645.8246
9480.6123
9568.1882
10045.457
10141.756
10170.505
10098.313
10180.82
10054.939
10195.157
10937.075
10852.871
11037.035
10905.191
11084.243
10996.127
11101.825
11620.992
11664.951
11643.554
11621.825
11697.174
11575.815
11660.825
12598.677
12582.52
12706.414
12634.997
12655.52
12547.207
12720.891
13518.437
13444.904
13400.718
13380.089
13398.145
13447.207
13316.791
14321.265
14478.028
14629.979
14545.865
14755.744
14543.629
14411.849
15864.191
15492.379
15517.848
15313.898
15572.373
15158.248
15409.137
838.86236
674.79381
532.29197
519.87377
455.36549
445.84915
289.09475
464.83492
835.71679
891.84168
992.55582
943.38396
891.94946
831.14089
525.63158
503.17155
439.42213
474.56024
459.63697
390.08801
192.46313
555.33273
945.53045
1251.6104
1380.5386
1355.7784
1265.5077
1061.3609
521.99814
514.26401
338.92623
226.82706
181.22075
182.77978
199.62676
584.51463
689.12124
738.75133
916.6391
946.49259
954.34128
804.10982
525.10476
481.20988
384.11301
384.68902
325.53889
242.31689
387.28747
629.45263
566.47067
497.4728
558.70848
521.922
583.9161
527.68589
587.7271
515.51221
499.77971
413.20266
549.28389
393.35725
576.84619
569.44034
557.76974
369.70254
402.10118
380.97794
397.5071
362.04705
530.03429
446.0876
531.32098
404.33969
617.88088
512.73878
573.74726
513.19475
524.82129
389.43874
309.24413
427.43662
349.42434
413.54669
512.53608
454.25493
398.80629
378.70881
521.50723
387.99508
391.51341
497.19742
557.8847
258.03258
353.98992
347.12018
440.20493
323.1709
438.98861
418.30523
488.68334
320.09207
430.88906
389.73758
340.1178
442.80659
408.308
414.3065
316.55286
374.52645
412.59513
324.42717
422.14489
413.94451
439.57269
322.90383
399.82066
409.05382
345.60947
448.32448
435.14638
433.87373
331.75492
403.17023
424.16365
356.22729
454.40255
444.73468
464.80291
358.12154
447.82579
450.31089
384.10898
522.96718
499.13349
489.94724
398.74399
481.18986
467.04197
428.17093
615.03919
523.92257
563.51028
476.40451
538.37695
539.90724
489.05754
740.93695
632.08381
641.92522
540.26785
623.47409
604.60657
577.86416
882.18593
741.7317
714.08033
697.04224
740.27575
710.62019
669.83997
1059.7663
852.89439
870.3239
817.90839
852.42739
852.47009
878.78289
1236.1069
1044.1096
1075.3856
969.65038
1019.5625
1040.269
1052.8061
1503.3998
1277.7246
1294.6173
1214.2574
1252.4212
1268.2605
1283.4426
1782.835
1556.2493
1571.961
1506.9145
1548.4944
1531.3661
1584.9943
2148.5117
1901.44
1960.6434
1827.5293
1930.4696
1863.7923
1958.1933
2542.512
2316.7996
2310.7568
2259.216
2292.2335
2260.0063
2346.1033
2999.1515
2786.0452
2792.8527
2711.2915
2777.6601
2733.7895
2809.4051
3512.7842
3297.9472
3276.9242
3235.2504
3285.6971
3232.9592
3330.7459
4091.6668
3889.4075
3869.3047
3803.5999
3825.0074
3801.7113
3869.3543
4667.9697
4476.5428
4434.0212
4381.0364
4446.857
4421.4335
4506.2625
5336.0631
5135.4433
5093.847
5071.3568
5078.9117
5066.8565
5119.9087
5984.984
5806.3297
5769.316
5715.1077
5737.5055
5745.6959
5801.5134
6654.5855
6498.4908
6411.0288
6423.4908
6423.5235
6422.5846
6490.9209
7421.7769
7234.0283
7185.2886
7188.0819
7111.4242
7205.9926
7198.8165
7990.1886
7912.4963
7850.1885
7793.6109
7828.5479
7851.1535
7901.9774
8879.5282
8769.527
8647.9944
8733.1905
8615.2431
8743.1529
8712.6014
9440.4666
9349.3001
9347.0933
9289.0105
9255.1295
9318.6269
9320.4696
10291.384
10356.043
10218.436
10300.79
10166.241
10336.058
10287.466
11102.755
10920.113
10930.507
10847.013
10838.093
10930.307
10874.75
11876.315
11977.171
11878.099
11980.819
11878.754
12023.475
11929.907
12775.74
12512.216