/*--------------------------------*- C++ -*----------------------------------*\
  =========                 |
  \\      /  F ield         | OpenFOAM: The Open Source CFD Toolbox
   \\    /   O peration     | Website:  https://openfoam.org
    \\  /    A nd           | Version:  6
     \\/     M anipulation  |
\*---------------------------------------------------------------------------*/
FoamFile
{
    version     2.0;
    format      ascii;
    class       pointScalarField;
    location    "0.39";
    object      p;
}
// * * * * * * * * * * * * * * * * * * * * * * * * * * * * * * * * * * * * * //

dimensions      [1 -1 -2 0 0 0 0];

internalField   nonuniform List<scalar> 
3969
(
671720.23
-912303.25
7921.1609
3383.0938
1259744.8
-1882294.7
3631.9636
2875.0543
522331.21
376546.97
202355.91
6284.3719
-136936.15
-348996.79
-378993.07
-12281.194
-3355.4794
-2508.2213
2050.4762
5906.1787
9707.3642
9722.1192
203801.28
237945.31
233695.57
244955.39
241066.11
241958.45
236371.06
231190.95
225576.09
218271.32
212318.01
205842.6
199315.24
192759.59
186294.11
179274.06
172959.41
166287.01
159808.4
153067.34
146737.69
140245.99
133835.01
127944.77
121240.6
114942.96
108529.77
102420.2
96333.531
89866.844
83626.997
77404.606
71102.019
65032.709
59045.812
53856.453
47912.769
43829.852
38057.128
35321.371
29964.329
27322.219
24651.136
20038.296
19343.74
16019.463
12315.01
-213452.05
-185423.07
-220924.9
-201232.86
-222004.35
-206332.68
-212273.62
-201000.01
-200787.9
-192930.88
-188973
-183833.33
-176718.46
-172954.72
-166103.19
-160261.42
-154658.61
-147696.63
-142529.24
-136055.51
-129762.2
-124681.21
-117958.85
-112595.11
-106233.63
-99910.387
-93552.244
-86988.617
-80852.985
-74329.579
-68691.247
-62254.981
-56540.037
-50543.328
-45257.326
-39970.029
-35579.097
-30626.957
-27223.302
-23024.26
-19966.206
-17102.631
-14946.088
-11865.479
-9718.9802
-8240.5489
-4932.2727
946958.2
711274.34
327305.76
-16557.125
-295283.88
-660941.3
-544108.59
-251632.83
-287306.49
-187040.59
-264411.88
-226690.18
-237918.78
-225424.1
-225199.54
-212729.6
-205520.71
-210711.27
-195121.76
-196969.03
-186654.63
-181476.71
-174229.08
-166214.05
-159445.86
-151659.63
-143986.66
-137331.39
-130408.48
-123857.47
-117275.88
-111459.44
-105877.34
-99481.602
-92534.949
-86893.862
-80568.527
-74136.627
-67970.381
-61786.907
-55746.469
-50245.088
-44812.714
-39109.151
-34618.473
-30679.549
-26792.364
-23121.574
-20324.976
-16954.808
-14123.117
-11975.753
-9014.9235
-6427.4349
14300.557
8198.8051
5426.6387
4865.4737
-4210.875
-3611.6853
-12624.333
23888.802
18171.861
18569.602
21963.667
25129.35
27953.667
31742.644
35240.723
39816.183
43970.269
48174.456
56015.106
60811.152
67046.332
73713.467
80837.04
87560.714
94922.649
101798.11
108901.72
116111.19
122761.21
129683.94
136625.57
143441.34
150509.06
157310.61
164035
171074.24
177685.29
184665.7
189804.72
193368.13
205060.98
216571.89
213120.8
225028.94
225820.52
230508.27
243364.1
251158.1
243737.98
258338.01
246532.16
241268.31
253040.64
246151.11
546523.98
605412.92
638515.17
629878.88
622820.28
620361.26
505493.03
-717682.38
-913639.1
-1054668.4
-1127895.8
-1068725.5
-1063840.3
-809000.27
4652.249
5389.7735
5253.6625
6318.5984
5766.436
5133.2879
4754.0621
-581.35004
1952.5807
1402.327
770.94526
1386.7867
5102.9942
722.41322
181292.98
187728.4
187639.78
190627.67
189702.51
188276.02
183638.8
182224.21
175004.16
173545.11
166868.07
161608.52
157725.44
152493.58
147209.51
142307.45
137358.04
132024.41
126673.57
121562.67
116525.26
111259.09
106366.69
101533.77
96991.122
91919.19
87122.258
82544.182
77606.905
72833.319
68084.86
63284.698
58595.708
53887.877
49488.776
44809.174
40412.434
36715.775
32689.376
29720.24
25755.541
23814.923
19309.268
17079.259
14878.249
9369.6776
5307.323
117475
114822.65
116420.24
122518.79
122731.09
126740.52
123107.26
121275.24
118401.51
115854.66
112098.3
109312.59
104907.26
101399.51
98308.512
94744.135
91408.224
87799.533
84397.667
80840.039
77055.147
73419.524
69912.54
66715.125
63220.318
60429.815
57654.274
53989.757
51430.633
48255.449
45350.784
42453.975
39396.518
36557.752
33746.668
30906.194
28422.509
25990.767
22929.912
21311.802
18285.72
16858.446
13707.553
13326.702
10178.002
7002.9722
1936.365
54056.683
62987.505
59023.9
63001.967
61684.48
64890.375
62600.038
63931.407
60867.721
59735.606
58301.813
56492.714
54419.512
51748.459
49132
47717.998
46041.544
44509.843
42959.442
41376.574
40322.748
39139.615
37570.656
35994.912
34740.812
33111.235
31516.917
30514.566
29111.418
27748.806
26351.059
24891.257
23376.045
21851.924
20390.4
18582.865
17313.661
15452.979
14402.204
13207.143
11381.087
11222.146
8771.2288
8582.0215
6247.0276
3700.3062
2542.9707
1643.0899
153.9719
-3757.6778
1512.4044
-3692.5328
-293.05972
-3754.1121
-1860.7841
-2339.4895
637.59551
-1065.1583
468.71872
-762.7881
597.08761
552.75565
1249.6684
1094.8017
1488.5726
1427.9503
1330.153
1280.0332
187.9802
-942.04204
-453.19071
-202.30173
89.08034
679.59001
1169.6296
1582.5568
2215.3834
2689.4692
3255.1671
3646.3272
4034.6946
4290.924
4777.1206
4538.702
4691.2217
4691.1518
4214.8256
4460.5141
4250.6922
3082.6235
4398.9144
3298.7257
4271.8039
4675.1945
-60751.567
-53012.905
-55141.4
-57383.403
-60866.572
-59076.224
-60012.639
-58155.778
-57784.37
-54198.088
-54305.529
-50584.156
-50531.062
-46949.437
-46082.516
-43345.527
-42060.374
-39861.096
-38297.817
-36629.14
-33824.237
-30696.335
-28824.233
-25836.17
-24451.397
-23345.091
-21130.258
-19072.471
-17196.859
-15260.255
-13333.516
-11671.591
-9776.5352
-8551.6855
-6636.3012
-5751.8741
-4754.4499
-3448.6847
-4352.8766
-3375.2594
-2603.0889
-2352.5031
-1159.8795
-212.98003
101.59279
1796.6279
3564.7651
-121766.88
-113485.28
-116926.28
-122849.94
-125313.26
-123718.83
-123179.31
-119312.64
-118526.17
-112659.19
-111524.95
-106458.41
-104493.32
-100777.32
-97637.456
-93345.849
-89986.682
-85960.753
-82563.247
-78876.806
-74472.903
-71429.711
-65311.214
-60855.564
-56822.633
-53220.523
-50088.069
-46193.001
-42546.791
-38839.014
-35360.428
-31672.131
-28307.53
-24816.165
-21955.607
-18889.237
-16365.077
-14200.687
-12077.657
-11072.824
-9690.0986
-8411.6947
-6430.2572
-5499.1612
-3267.148
-274.41035
5434.1848
-203601.94
-147653.2
-174674
-173417.02
-181059.9
-176974.35
-177196.65
-172646.59
-171574.4
-164169.77
-163287.13
-156387
-152478.05
-147020.32
-141474.21
-135917.72
-130025.02
-125195.11
-119405.12
-114234.37
-109258.5
-103753.33
-98840.681
-93914.697
-88859.781
-83963.452
-79671.293
-73714.636
-68404.888
-63041.435
-57818.5
-52578.386
-47372.76
-42571.857
-37686.434
-33255.63
-29422.026
-25605.57
-22687.5
-19203.794
-16376.334
-13953.47
-11485.287
-10079.28
-7157.9685
-4532.3853
1398.9612
432830.12
397610.16
413708.22
412869.35
413049.59
401912.89
378351.31
277894.33
307778.37
289712.01
296895.93
296981.02
290844.28
286038.13
146542.57
172655.13
148088.27
160014.21
151048.3
148584.38
157052.02
28573.451
14034.233
3981.9517
18961.146
10750.655
-7057.741
47234.801
-75587.753
-78166.038
-85833.025
-74448.247
-81414.476
-79523.644
-39708.315
-257414.6
-278210.74
-275727.73
-282776.68
-290613.22
-285407.43
-263809.22
-314906.95
-283461.04
-246218.31
-253233.74
-237289.03
-219581.34
-248931.8
-338724.58
-351428.76
-396432.37
-408717.4
-418746.66
-412093.28
-320599.51
-264544.02
-304821.32
-306979.67
-313779.19
-327164.4
-312851.99
-285518.13
-226415.07
-254743.89
-268391.27
-270850.38
-270169.22
-252449.86
-264364.37
-229825.37
-251225.18
-246766.34
-261890.45
-252050.97
-250606.1
-235445.69
-229178.34
-242285.32
-249601.88
-250933.22
-252179.77
-240166.28
-243988.11
-226295.66
-222550.13
-227459.02
-231857.45
-231525.18
-226466.91
-224461.08
-216655.14
-222974.88
-226210.18
-229450.2
-227559.26
-227910.41
-227071.97
-215883.96
-212807.63
-213938.32
-216082.23
-213896.43
-215080.25
-213654.24
-208060.22
-209275.04
-209849.38
-211501.16
-212529.15
-212302.47
-212891.33
-205408.48
-202182.63
-200806.28
-203229.78
-202060.25
-200240.56
-200501.36
-198454.52
-198155.79
-195901.58
-197604.43
-196756.82
-194411.2
-199893.54
-191768.5
-190788.66
-189263.84
-191823.99
-190178.26
-185713
-191288.76
-187263.13
-182924
-184997.43
-183280.31
-184844.52
-181690.88
-187295.3
-179246.48
-177277.75
-179256.23
-177161.92
-179213.06
-174088.73
-178961.71
-174392.63
-170694.23
-173422.53
-170330.68
-172281.78
-168034.52
-173241.01
-167240.4
-163835.33
-167294.57
-163700.49
-166814.51
-162090.7
-166939.79
-160499.09
-158325.92
-160877.4
-157287.72
-160379.57
-155323.19
-159419.27
-154116.25
-151762.87
-154696.96
-150632.38
-154245.6
-148659.62
-153226.29
-147425.7
-145685.44
-148314.26
-144042.06
-147656.3
-142204.89
-146870.56
-140824.87
-139286.09
-141876.13
-137644.05
-141487.43
-135993.42
-140489.08
-134796.71
-132930.05
-135453.11
-131197.87
-134944.33
-129535.83
-134014.51
-128330.64
-126693.56
-129089.77
-125129.17
-128714.66
-123373.2
-127920.44
-122402.69
-120464.03
-122944.92
-118924.17
-122033.96
-117279.11
-121530.07
-116132.17
-114719.1
-116439.64
-112656.51
-116151.87
-111527.04
-115784.56
-109831.66
-109153.24
-109001.95
-107445.81
-109270.4
-105754.95
-109320.81
-103304.31
-103053.59
-101625
-102602.5
-102987.27
-101298.51
-103810.36
-98327.838
-96698.399
-96246.626
-96087.905
-96433.669
-94590.617
-97406.053
-92312.212
-90224.261
-90327.39
-89675.353
-89776.517
-88778.787
-90232.877
-85585.773
-83633.531
-83978.3
-83060.23
-82914.373
-82804.363
-83397.016
-79160.006
-77081.609
-77778.468
-76489.286
-76806.09
-76535.302
-76850.174
-72494.739
-70799.857
-71066.103
-70040.964
-70128.784
-70029.043
-70273.73
-66070.615
-64191.081
-64658.025
-63620.873
-63786.728
-63830.228
-64034.804
-59659.114
-58092.084
-58337.27
-57422.01
-57571.273
-57740.694
-57870.997
-53512.947
-51938.859
-52186.558
-51431.979
-51501.007
-51836.92
-51831.317
-47551.355
-46196.376
-46312.315
-45577.799
-45689.058
-46306.505
-46221.326
-42021.478
-40995.682
-40943.424
-40578.626
-40676.678
-40786.772
-41004.355
-36878.717
-35794.014
-35834.656
-35130.733
-35607.049
-36277.916
-36178.035
-32459.725
-31707.948
-31373.142
-31314.973
-31189.756
-31912.454
-31736.485
-28150.033
-27511.722
-27292.806
-27220.349
-27229.988
-27994.323
-27416.334
-24864.981
-23975.988
-24284.153
-23910.833
-24031.466
-24545.205
-24308.912
-21254.439
-21092.165
-21005.634
-20910.757
-21023.275
-21551.504
-21078.558
-18683.83
-18605.775
-18584.992
-18734.76
-18726.716
-18969.875
-18530.32
-15976.997
-16550.927
-16441.9
-16869.171
-16496.545
-16654.073
-16142.566
-13652.732
-13788.827
-14103.39
-14193.694
-14042.771
-14085.384
-13399.591
-12261.907
-13562.158
-13631.078
-14003.448
-13770.038
-12983.336
-12021.557
-11473.241
-11809.284
-12358.083
-12410.545
-11992.789
-11743.261
-10736.909
-9411.339
-10512.398
-10717.863
-10168.811
-11028.936
-10201.551
-8356.8904
-19629.427
-22168.78
-24780.971
-24891.951
-23937.702
-22791.151
-20129.873
-8511.5369
-9352.5823
-10041.929
-10547.032
-9963.3459
-8719.0887
-6665.5343
-6166.6939
-7415.1473
-8371.7693
-8181.2544
-7902.1798
-6054.1375
-5135.449
2602.8438
3328.8476
3204.9384
3219.8053
3797.629
3347.8877
4207.3981
7766.0059
8280.3625
7853.2695
8954.4507
7982.6359
7821.8014
7212.0799
12285.543
14978.598
15497.394
15673.05
16624.392
14079.257
12993.842
16370.581
16726.823
18344.746
18196.37
17611.167
16664.108
14688.679
259911.59
257289.42
289002.05
281709.23
290107.19
276713.84
268148.85
272196.95
277525.18
291327.69
288670.35
294113.78
276401.67
271424.17
265326.37
267424.54
275481.71
276831.41
275948.02
262485.49
260619.08
252378.42
259486.41
265941.87
267782.15
265761.22
259169.06
260926.13
252773.57
254098.44
257048.71
258422.19
258336.45
252954.24
249881.44
243135.64
244887.64
248885.75
246935.59
248752.26
241822.48
244562.16
240767.76
240540
241968.8
241266.68
245202.44
240092.49
244321.14
231799.03
231320.64
235015.03
229302.13
233813.25
229854.16
233297.79
227635.04
228090.71
228468.54
227379.15
230794.88
225826.16
232429.81
221678.58
219149.44
221075.78
218063
222209.55
217664.08
224471.87
215390.83
213241.87
216945.04
213040.21
217517.98
213706.93
218474.8
207573.9
207956.26
208910.52
206102.83
209517.94
206085.24
212659.82
202857.85
200422.22
202085.43
200075.01
203674.86
199884.18
201236.24
195616.88
194588.19
195769.4
193755.22
196462.19
194458.7
198731.25
188700.93
188225.43
187914.93
188190.22
189538.99
187880.52
192679.42
183528.75
180966.67
181980.79
180794.72
184089.26
181044.71
185038.28
176137.47
174714.22
175013.98
174974.7
176385.21
174113.96
178396.68
169451.25
167739.19
169063.4
167995.76
169838.76
168102
171609.08
162360.04
161258.32
162228.07
161351.02
163223.37
161506.87
165025.61
156003.2
154445.28
155754.27
154904.71
156680.52
155065.7
158483.21
149532.77
147712.11
149451.34
148377.76
150210.99
148654.72
151943.44
143011.54
141264.83
143154.78
141985.57
143764.89
142103.64
145591.35
136813.39
134954.56
137115.31
135762.91
137580.51
135977.99
139299.84
130468.12
128807.48
130764.95
129425.87
131143.25
129373.25
132892.85
124372.73
122075.54
124648.89
122970.72
124826.52
123058.2
126550.04
118220.64
115756.52
118544.78
116576.67
118503.97
116749.15
119976.51
111850.65
109585.15
112063.33
110258.08
111986.61
110213.14
113556.52
105860.94
103199.15
105528.66
103788.86
105553.21
103852.74
106918.07
99036.652
96433.577
99134.067
97163.883
98762.922
97037.396
99952.27
92678.544
90330.978
92406.799
90605.447
92040.153
90582.254
93144.926
86242.864
83614.972
85748.32
83920.372
85235.969
83762.05
86135.105
79583.982
77172.727
78973.28
77290.27
78277.984
77158.752
79141.212
73266.007
70743.142
72468.25
70694.551
71616.286
70680.795
72498.234
66864.5
64532.894
65872.591
64403.135
64970.943
64414.185
65487.626
60861.775
58345.747
59753.308
58168.434
58634.572
58318.149
59216.521
54636.472
52995.981
53741.783
52408.497
52711.794
52767.108
53152.381
49332.076
47459.55
47642.087
47092.781
46920.531
47290.851
47802.305
44244.183
43401.203
42825.782
42586.986
42154.995
42194.949
42659.764
39238.859
37898.64
38111.946
37477.306
37631.944
37689.788
37935.416
35611.99
34906.138
34800.329
34248.953
33907.777
33650.761
34110.74
30985.29
30115.583
30101.815
29746.421
29581.902
30146.033
30124.48
28362.356
27974.821
27962.328
27545.847
27485.291
26928.72
27032.577
25146.49
25280.112
25029.107
25167.01
24325.181
23983.827
23581.975
21026.632
21340.983
21445.174
21342.583
21056.968
20267.139
20991.744
20738.766
22889.369
23260.098
23620.534
22691.313
21205.112
19965.154
18458.993
19206.419
19119.557
18954.414
19093.624
18935.145
17305.406
23583.98
26754.374
27931.833
28687.32
28578.388
28260.649
26157.434
256755.91
203725.77
195811.84
196155.77
201096.31
203638.58
194986.7
194456.39
190616.13
187317.2
180505.17
176577.14
170658.31
164012.43
160505.97
154769.8
148534.91
143246.18
137897.68
132529.26
127176.52
121726.39
116456.74
111220.81
105870.51
100645.94
94813.208
89471.907
83985.542
78426.271
72936.205
67540.697
62109.957
57057.286
52257.187
46965.545
42332.595
39074.692
35074.328
31374.7
28291.826
24853.406
22169.55
18561.279
15409.502
10876.533
3940.8806
151125.27
155218.74
114149.27
136141.39
150993.33
140657.01
147290.07
139432.93
140311.4
134794.54
132683.93
128692.02
122949.91
120238.45
116624.26
113928.64
109508
105716.97
102045.61
98044.834
94077.882
90314.272
86394.613
82335.641
78301.68
73532.915
71073.584
66341.206
62403.047
58380.729
54239.697
50265.044
46199.19
42532.746
38342.524
35350.636
31777.782
28483.942
25763.583
22951.189
20754.118
18145.503
16175.432
13538.512
11627.089
8429.9982
3553.3292
76730.244
92949.915
49762.887
82591.877
68201.487
65466.568
66595.72
64838.35
63978.383
61592.333
63265.433
61069.106
62831.899
60782.949
60674.601
59849.916
57718.248
56287.644
54800.888
52491.244
50802.486
48959.686
47011.982
45169.116
43281.836
41344.542
39573.866
36963.097
35070.914
32760.54
30599.864
28514.608
26415.611
24420.575
22375.068
20827.242
18872.918
17429.417
15836.995
14673.531
13434.489
11946.371
10591.427
9104.7943
7554.0206
5810.4163
542.74191
-2445.4347
22932.198
-2116.5365
17611.044
4176.3531
13735.246
9276.5364
4608.4454
8001.4864
8939.657
7423.5508
11223.726
9817.7037
14431.85
15017.235
15792.399
15620.935
15968.088
15734.459
15504.285
15521.21
15376.196
15172.229
14973.946
14473.416
13859.643
13186.227
12758.426
12038.302
11477.74
10846.889
10376.827
9694.5823
9207.7796
8578.0935
8216.0947
7507.1332
7171.5847
6579.1224
6323.6914
5809.7794
5420.4869
5131.5936
4472.5578
4622.4804
3252.8276
1692.7729
-102052.4
-45113.701
-59008.836
-34846.787
-54247.553
-38565.522
-50398.363
-44545.681
-42104.53
-42201.671
-37351.662
-38959.957
-35060.093
-36631.68
-34282.866
-33034.29
-31121.444
-29647.559
-27889.936
-26310.469
-24723.466
-23095.373
-21608.684
-20150.025
-18651.001
-17944.967
-16160.786
-14872.593
-13705.084
-12587.791
-11482.202
-10381.502
-9285.9569
-8128.9504
-7165.2656
-6055.07
-5190.9872
-4086.3901
-3450.4533
-2501.6541
-2056.7588
-1051.7262
-842.22596
73.233057
732.24411
1832.9323
3133.4034
-162601.02
-120257.4
-102901.85
-103303.52
-112306.23
-105786.52
-113086.15
-100394.29
-110840.64
-105593.87
-107090.17
-101568.14
-98385.395
-95534.208
-90877.734
-86519.03
-82087.368
-77622.152
-73539.051
-69824.375
-66293.721
-62468.594
-58922.49
-54262.87
-49604.824
-45502.51
-42924.051
-39753.943
-37021.977
-34176.078
-31592.927
-28858.505
-26216.823
-23655.911
-21083.315
-18894.678
-16374.379
-14354.948
-12474.486
-10523.534
-8990.9635
-7213.2486
-5832.7376
-4039.9439
-2372.9136
603.79713
3371.6703
-208575.19
-161965.48
-165445.73
-161426.34
-179000.6
-172239.75
-176823.2
-170085.71
-172390.39
-164606.56
-159208.84
-155934.94
-149873.35
-145222.96
-139561.19
-135033.55
-130097.64
-124673.63
-119895.41
-114442.51
-109004.27
-103636.3
-98252.256
-92773.687
-88314.541
-80470.774
-75435.955
-70642.243
-66145.117
-61789.181
-57392.588
-52829.729
-48629.645
-44114.558
-40086.227
-35930.414
-31839.514
-28564.079
-25112.84
-21708.687
-19060.625
-15867.491
-13759.747
-10866.471
-7518.837
-4999.094
-301.23541
314622.92
342989.69
334108.62
346598.37
343275.35
324423.57
303005.3
221382.22
258175.41
254693
262851.51
255240.69
243884.45
221429.94
211546.75
229891.8
239244.14
241291.23
235747.68
232767.75
223857.88
203869.62
210312.7
213345.52
219379.71
210439.28
214864.34
193710.47
198443.01
204675.12
210893.12
208096.48
208051.24
204000.31
192214.79
194777.81
201968.92
196652.26
204168.06
197055.99
198393.58
197084.44
191154.67
192185.48
193333.87
194264.88
188929.05
192558.43
188996.47
185423.2
193335.25
186401.87
192197.31
188892.65
188631.95
186960.89
183549.28
183506.56
179003.41
185489.82
178942.7
183680.71
181530.19
176180.21
179703.02
177524.45
181747.84
176117.01
180574.75
177093.37
171567.17
175354.74
170635.72
174455.54
170608.22
173625.71
173080.63
169058.23
168602.11
166897.45
169107.26
167397.23
168693.85
166770.25
161852.14
163599.45
161833.54
165015.69
161552.99
163802.35
165301.78
157155.96
157773.23
156560.42
159318.57
156269.22
158938
159600.02
152538.51
152375.89
152960.41
152654.36
152206.32
153574.51
152705.83
145752.57
147018.43
147112.17
148198.36
146358.72
147682.38
148812.08
140582.49
141354.76
141840.96
142574.71
141275.46
143267.45
143618.61
134957.87
136269.61
136525.95
136834.03
136110.9
137562.71
138231.71
129555.77
131125.12
130874.79
131726.75
131011.36
132196.12
132888.53
124097.14
125737.79
125624.42
126355.99
125685
126968.65
127742.45
118126.93
120901.66
120243.59
121106.68
120503.65
121752.33
122462.34
112841
115941.57
114839.2
115811.36
115318.01
116611.8
117367.5
107466.2
110945.51
109360.31
110650.09
110124.87
111623.93
112028.83
102104.91
105727.51
104000.61
105366.15
104978.96
106249.26
106698.3
96473.469
101234.06
98744.455
100734.16
99813.369
101686.85
101798.71
91976.987
96164.391
93967.376
95159.792
95136.319
96040.999
96542.447
87375.913
90941.498
88673.54
90307.05
89991.255
91117.516
91324.078
81882.973
85501.589
84153.116
85085.144
84689.265
85729.74
85779.661
77126.156
81472.256
78579.635
80046.757
79669.802
80641.035
80679.252
72513.58
75776.058
73757.251
74960.601
74488.51
75287.227
75145.353
67512.979
70907.86
68602.279
69748.613
69239.514
69951.113
69804.55
62843.671
65844.304
63781.781
64730.43
64202.596
64873.926
64495.153
58133.993
60892.008
58806.476
59558.899
59211.804
59639.417
59145.82
53609.598
55962.508
54036.066
54708.943
54330.075
54543.676
53965.169
49157.681
51157.957
49521.782
49897.198
49626.373
49879.842
49330.615
45122.68
46605.359
45192.323
45334.6
45363.59
45217.536
44355.477
41489.588
42021.354
41226.829
40959.978
41289.645
40771.716
40669.137
37575.252
38059.913
37659.536
37209.265
36968.57
36985.364
35980.321
34238.407
34137.44
33609.404
33761.363
33461.978
33594.483
32599.948
30470.873
31191.957
30524.068
30624.186
30119.874
30199.935
29212.649
28027.576
27504.306
27549.202
27049.189
27132.887
27025.708
26006.991
24840.444
25384.194
25473.037
25275.957
25323.647
24496.505
23548.007
21558.003
20823.396
21267.162
20813.365
20783.811
20801.233
20450.601
19867.727
19871.266
21021.084
20290.255
20857.732
20316.746
18868.909
15558.131
15375.175
15738.794
15473.83
15636.285
15622.386
14766.416
11197.989
10907.877
12425.886
11300.76
12045.667
11728.932
10204.185
5467.5684
3278.452
3594.3399
3640.3157
3940.4707
3285.9921
5226.0874
203004.6
211766.12
231822.17
227193.76
234683.31
214355.15
214438.43
157687.69
189958.27
196333.66
201606.13
200013.83
186528.16
175778.51
155414.63
142738.58
160932.97
153552.05
160531.47
144954.79
149895.58
133391.26
139246.82
147403.43
144247.51
147563
143253.35
128594.78
139388.57
138693.49
145500.05
139833.57
147162.57
135681.2
138925.74
131687.62
130623.35
133341.41
130979.69
129768.63
134000.56
131143.73
131062.09
132049.13
137966.69
130955.94
137223.42
135492.34
130817.65
127525.42
125654.29
126937.1
124506.95
127951.79
125402.23
127594.56
124957.66
122736.67
129486.59
124292.02
126000.35
127044.47
125625.17
119807.7
120845.77
123380.6
117202.37
122448.26
120889.4
122787.97
118122.05
117507.45
119176.81
116225.53
119184.4
119249.36
118312.65
113994.64
112756.32
117590.68
112408.61
117270.41
114638.3
118452.52
110140.2
110308.49
114187.54
108261.1
113273.33
111012.69
112811.22
106547.16
107557.41
110224.35
105688.87
109804.88
108404.71
108090.7
102596.56
105106.18
105211.37
102274.61
106150.67
104461.71
105014.03
99327.39
101590.81
101476.9
100059.62
102160.24
101628.31
101278.42
95635.389
98271.082
97980.664
96196.077
98538.78
98641.27
98699.653
92083.48
95075.375
94195.667
93412.076
95153.444
95174.358
94466.314
88951.434
91201.653
90806.851
89952.722
91701.644
91606.8
91559.484
85262.326
87749.844
87296.721
86766.129
88183.937
88177.894
88215.905
82370.496
84143.798
83855.618
83292.961
84794.309
84791.009
85012.66
79384.937
80619.415
80304.297
80055.927
81482.711
81421.341
81582.551
76435.271
76764.837
77009.49
76784.892
78277.523
77736.384
78387.159
73225.922
73434.841
73984.559
73771.037
74957.847
74449.848
75326.142
70144.523
70119.515
70667.303
70300.764
71766.294
70831.09
71976.818
66993.806
66879.737
66638.998
68075.654
67556.73
67650.15
68684.224
62884.898
63624.202
63776.575
63416.053
65042.793
63430.721
64877.217
60786.155
59771.254
60827.358
60365.542
61356.778
60252.676
61565.346
57125.603
56448.978
57431.434
56718.879
58012.37
56511.354
57789.971
53974.977
53168.144
53730.116
53392.158
54128.96
52936.52
54036.51
50674.449
49756.861
50493.942
49921.527
50612.348
49390.336
50386.962
47295.446
46464.202
46863.611
46398.785
46857.278
45825.871
46509.383
44080.726
43062.842
43405.649
42929.951
43330.749
42125.917
42804.971
40736.605
39722.416
39928.226
39575.948
39611.683
38675.408
39282.897
37445.052
36605.581
36615.621
36165.102
36288.356
35321.287
36025.474
34172.193
33374.188
33218.933
33060.201
32846.903
32133.617
32204.187
30910.715
30608.861
30203.309
29848.915
29780.34
28770.24
29497.505
28012.303
27923.48
27127.01
27148.398
26706.046
26250.704
26575.28
25403.9
24578.207
24669.305
24088.595
24170.981
23715.448
23942.362
22834.193
22791.643
22205.451
21978.053
21629.3
21228.854
21269.782
20758.599
19807.164
19957.159
19569.081
19627.443
19154.344
19196.066
17969.958
18202.588
17606.681
17628.26
17227.677
16796.475
17241.873
16533.836
15761.639
15921.939
15698.712
15477.9
15279.712
15273.71
14245.923
14482.806
14182.934
14143.454
14026.413
13457.14
13382.257
10746.63
11193.148
11114.883
11187.876
10896.184
10417.019
10024.619
7752.0615
8082.4755
7429.1494
7663.4103
7668.4175
7485.0577
6855.0009
3240.0558
1004.8885
292.39213
420.23091
656.75028
809.53741
1872.1478
123449.28
127614.38
120995.87
131751.82
124205.4
116908.73
109521.13
88395.035
127939.48
120636.29
129449.16
114445.33
117524.44
95076.827
83646.743
78316.311
82540.397
83522.997
80549.532
73611.53
72523.082
67257.989
83123.274
84390.847
91195.883
80946.298
86994.978
68787.206
74675.433
71398.421
74008.415
68725.739
70048.239
64933.653
66802.331
65258.283
75543.804
68011.059
71636.893
70278.077
70024
68825.546
67278.115
71092.438
62697.756
67426.504
67398.126
63133.808
65507.64
64029.495
72101.275
61640.602
67075.391
64055.236
61632.055
66417.177
64482.715
71116.623
59398.753
63922.114
62725.611
62208.783
64698.222
63696.04
68404.061
57024.799
61590.437
62084.418
59728.782
63050.4
61648.61
66833.187
55735.497
62076.43
60310.461
59803.875
62202.349
59178
64488.343
53699.534
59036.455
57993.335
57563.799
60288.11
56416.799
64334.246
52421.851
58023.052
57291.515
56039.062
58450.586
55278.096
60568.49
51815.111
56325.237
56880.688
52424.279
60027.465
54448.958
57651.651
50179.761
54659.527
54664.68
52131.718
57617.257
51717.934
54846.159
49717.318
52236.163
53348.975
50362.46
56736.798
49462.409
53191.828
48156.099
51125.966
51465.24
49335.79
54724.232
47811.19
50964.592
46558.629
49356.202
49843.529
47959.256
52652.27
45640.838
49250.08
45008.553
47821.496
48079.354
46311.315
51125.916
43990.515
47449.947
43396.524
46171.423
46180.489
45063.172
49458.778
42018.056
45592.772
41876.856
44473.534
44564.745
43709.882
47462.903
39993.121
43637.598
40240.297
42962.179
42908.005
42011.118
45746.264
38275.823
41798.963
38870.262
41605.57
40838.01
40739.358
44006.156
36461.079
39876.943
37437.646
39471.192
38930.714
39206.892
41873.386
34958.332
38141.35
35798.36
37752.246
37188.487
37782.196
39994.417
33332.029
35855.026
34533.717
35693.004
35538.671
35954.801
37929.925
32133.966
34748.474
32905.49
34720.086
33287.263
34699.172
35772.436
30373.069
33502.411
30964.547
32743.19
31811.676
32713.881
34110.309
28825.689
31523.919
29433.607
30942.796
30027.208
30913.572
32063.138
27469.971
29986.404
27962.636
29378.556
28286.604
29176.995
30056.377
26041.883
28253.94
26279.679
27603.015
26359.852
27445.857
27917.308
24621.52
26621.942
24686.71
25888.984
24654.524
25627.835
25741.208
23276.235
24861.335
23110.338
24181.168
22851.133
23827.708
23877.14
21900.233
23236.35
21626.301
22492.175
21177.553
22277.255
21852.516
20575.35
21508.466
20105.503
20815.443
19577.28
20465.577
19991.975
19242.401
19900.261
18644.596
19250.678
17991.626
18992.144
18195.002
18249.397
18402.046
17422.349
17733.399
16795.56
17279.142
16911.527
16673.516
16821.933
15803.684
16512.643
15170.812
16228.841
15195.041
15750.394
15581.518
14894.665
14950.813
14291.129
14675.028
13838.186
14332.148
14701.083
13515.42
14474.58
13131.454
13793.326
12450.967
13238.763
12315.357
12311.301
12168.922
11641.422
12095.602
11395.633
12070.039
12691.256
12071.176
12519.947
11623.765
11843.964
10454.265
11078.658
9563.5036
9883.3243
9562.698
9393.8886
9521.4216
9307.1774
9458.4925
9511.043
9866.9762
9906.0076
9460.7695
9556.3161
8492.1827
7328.2645
5983.9029
6614.2998
5721.2538
6068.9074
6022.8756
5972.5369
5734.7905
5169.7169
4920.3349
4664.6352
5102.3026
4884.6393
5496.4666
2723.2277
-431.43135
59.984833
-502.86142
-395.52229
-530.68293
838.32619
13502.027
4472.8026
8656.0566
9020.4459
7756.2029
4643.5729
15660.229
5192.4004
8387.6278
7400.62
11540.089
7597.8881
8214.0689
5605.1219
17082.495
-5492.4023
-709.31069
-6741.3494
-1608.217
-7810.3723
7119.4217
3711.0207
-127.99408
9124.2113
4515.4813
4115.1486
9999.6755
-806.80811
9397.486
6070.2875
6692.1174
-4781.7354
7734.5625
-9262.0716
9228.0531
8067.0377
220.06567
-364.76324
3664.8071
1882.7942
4876.3989
3332.3635
7989.396
5345.0354
10600.456
1350.4026
7795.6609
1778.1964
8015.595
9071.4674
3937.4538
3291.2407
3581.9179
4388.9637
5887.2959
6260.1007
8192.139
2780.9534
8859.2913
2542.3292
8305.2878
5029.6227
4531.0063
6415.5501
5409.3404
6319.1647
2875.904
5941.0857
5167.3006
6655.3479
7099.4873
4494.8757
6311.7424
2912.1367
6171.4613
4942.6879
6623.4128
5684.3757
5289.071
5080.1741
4416.4859
5330.4336
7095.4759
6486.8624
6621.0821
4157.3387
5182.0498
3777.7868
6960.4625
5732.3405
7629.6347
5467.7073
4587.725
7512.5446
6444.654
3836.2766
8019.5437
5096.1846
6182.9572
6737.4514
2852.9007
6456.3813
4165.6405
7824.6147
6634.1715
4539.5871
6447.3087
3115.9944
7959.0961
3522.8079
8421.6103
6639.1948
5168.3285
6009.3976
3902.7218
8175.4948
3862.9592
8614.0644
7354.6187
4435.6899
6374.1068
4171.456
8379.4747
4122.0896
8857.1914
7201.417
4789.1467
6646.1072
4537.4416
8443.2073
4517.8129
8870.7604
7771.4649
4755.3626
6781.593
4606.6885
8508.7887
4722.7525
9281.4885
7581.2569
4918.7836
6810.3714
4874.7354
8458.0413
5374.6531
9104.1557
7802.2093
5118.1122
7291.5502
5115.3079
8714.7372
5371.5239
9245.4876
7972.3714
5240.1108
7300.2995
5653.4103
8017.1618
5738.3417
9203.8312
8118.3352
5722.9933
7443.0475
5966.4659
7988.2975
6453.2249
9366.8779
8183.3653
5709.2142
7344.7988
6334.1767
7792.1554
7254.3398
8907.5214
8342.5596
5980.9268
8158.9004
6526.246
8227.8217
7569.9467
8724.3656
8499.6828
6637.1904
7820.5962
6799.98
7847.4128
7670.2039
8653.5842
8159.516
6824.1533
7787.9545
7037.1297
7701.7978
7696.8245
8374.6212
7918.5854
7262.0836
7852.6626
7270.3679
7972.2451
7969.1697
8330.9084
7910.612
7412.6558
8019.8898
7471.2363
7722.4419
7803.7992
8031.5559
7543.8672
7641.7065
8047.9978
7454.7111
7742.453
7878.1437
7892.9923
7262.6491
7808.6261
8047.0204
7621.642
7725.2286
7668.4829
7684.0836
6854.6901
7878.0303
8099.7991
7625.8041
7538.7803
7619.8771
7539.8252
6590.3766
8067.5282
8022.9402
7543.8168
7461.1107