/*--------------------------------*- C++ -*----------------------------------*\
  =========                 |
  \\      /  F ield         | OpenFOAM: The Open Source CFD Toolbox
   \\    /   O peration     | Website:  https://openfoam.org
    \\  /    A nd           | Version:  6
     \\/     M anipulation  |
\*---------------------------------------------------------------------------*/
FoamFile
{
    version     2.0;
    format      ascii;
    class       pointVectorField;
    location    "0.76";
    object      lm;
}
// * * * * * * * * * * * * * * * * * * * * * * * * * * * * * * * * * * * * * //

dimensions      [1 -2 -1 0 0 0 0];

internalField   nonuniform List<vector> 
3969
(
(-4.0340813e-15 -4.7705825e-17 1.3312818e-16)
(9.2297575e-16 -2.6090405e-16 -6.0252577e-16)
(-6240.445 325.21712 -72.070141)
(-6022.9548 1572.5121 -31.503771)
(-7.1783695e-15 2.6020842e-15 -1.0366567e-15)
(-4.622429e-15 2.1493156e-15 -1.5432914e-15)
(-6037.9565 1651.2328 -33.25036)
(-6254.4484 409.75943 -69.159228)
(-6.09887e-15 1.0869625e-16 -2.0095736e-16)
(-3.193382e-15 6.5333688e-16 6.3735029e-17)
(-2.9260211e-15 2.9260844e-16 -4.8432863e-17)
(-1.7497804e-15 -1.5755452e-16 -2.074758e-16)
(-4.3254872e-15 8.6218995e-16 7.3228779e-16)
(-2.4697388e-15 -4.9707839e-16 4.8086129e-16)
(5.2680668e-16 -4.7467027e-16 -5.3018058e-16)
(-6213.0904 482.11894 -67.726193)
(-6186.2416 639.32855 -62.929272)
(-6159.3491 797.81874 -56.748265)
(-6132.2444 955.22315 -50.460354)
(-6104.8429 1111.8795 -44.541562)
(-6077.5955 1266.8667 -39.580429)
(-6050.131 1420.4267 -35.33338)
(-52.73422 -73.226724 -71.687147)
(-98.020195 -121.00772 -80.690191)
(-158.33703 -161.11288 -79.25921)
(-229.61451 -194.40546 -72.238758)
(-308.0779 -220.08258 -61.483663)
(-392.01776 -239.70922 -49.577567)
(-478.76805 -253.30341 -37.974879)
(-567.10656 -262.29007 -26.940497)
(-655.30653 -267.41386 -18.312758)
(-742.96154 -270.07831 -11.552289)
(-829.7495 -270.97674 -7.9630501)
(-916.04851 -271.04039 -6.7538201)
(-1002.6695 -270.67887 -7.9109626)
(-1090.4655 -270.71037 -10.696422)
(-1181.1878 -271.01821 -14.509283)
(-1275.6937 -272.11016 -18.361875)
(-1375.5711 -273.75393 -21.879351)
(-1481.7649 -276.09856 -24.400271)
(-1595.2095 -278.67516 -25.663612)
(-1716.3362 -281.32112 -25.585743)
(-1845.3832 -283.35925 -24.293008)
(-1982.0878 -284.49056 -21.959691)
(-2125.9948 -283.89583 -18.871283)
(-2276.5717 -281.27222 -15.131025)
(-2432.8493 -276.02438 -10.777889)
(-2594.4201 -268.41304 -5.9356118)
(-2760.3603 -257.84837 -0.3213101)
(-2930.3189 -244.67184 6.0721645)
(-3103.6444 -228.91273 13.230674)
(-3279.5698 -210.83267 21.046117)
(-3457.5677 -190.66106 29.043151)
(-3636.7462 -168.47474 36.653273)
(-3816.0935 -144.39514 43.153709)
(-3994.5968 -118.45904 47.779953)
(-4171.1442 -90.483596 49.635104)
(-4344.8948 -60.645023 48.669682)
(-4514.7145 -28.939216 44.377792)
(-4680.8021 4.5248844 36.687048)
(-4842.7795 38.92648 27.083969)
(-5001.2254 74.626673 15.352274)
(-5157.1307 109.79904 3.2637138)
(-5310.7939 144.70822 -9.2467361)
(-5464.522 179.18086 -20.911956)
(-5616.9123 210.04996 -31.917228)
(-5771.8855 242.24479 -42.086264)
(-5926.8998 270.61987 -51.645834)
(-6083.0176 297.94942 -61.55156)
(-13.623566 72.15673 88.398989)
(-69.69839 108.3602 75.075494)
(-129.57667 155.01472 75.528295)
(-195.47466 187.89106 61.095779)
(-271.48731 225.38647 53.796341)
(-348.90958 256.83971 46.03212)
(-428.33547 284.90421 43.033566)
(-508.78214 310.38025 42.049894)
(-588.97365 333.184 43.709646)
(-668.93478 354.69146 46.86551)
(-748.5069 375.74654 50.839407)
(-827.97012 397.50059 55.600486)
(-907.7205 420.46005 60.110786)
(-988.4575 445.88213 64.945541)
(-1070.6579 474.10629 70.046963)
(-1155.5892 505.46445 75.380899)
(-1244.2465 540.14072 81.0446)
(-1337.6989 577.57981 86.851165)
(-1437.4198 617.99035 92.466783)
(-1544.0736 660.0887 97.660935)
(-1658.5964 704.22907 101.74325)
(-1781.4525 748.73347 104.86168)
(-1912.5821 794.36406 106.21324)
(-2051.6487 839.67848 106.55447)
(-2198.0421 884.70688 105.72845)
(-2351.0687 929.18832 104.53919)
(-2509.5852 972.4703 103.09885)
(-2673.3992 1015.0904 102.17068)
(-2841.567 1055.7658 101.82178)
(-3013.2696 1094.6047 101.78781)
(-3188.2936 1131.2551 101.8389)
(-3365.974 1165.4261 101.22911)
(-3545.8258 1197.0175 99.343549)
(-3727.0239 1226.0166 95.478886)
(-3908.6578 1252.631 89.296404)
(-4089.5314 1277.3821 80.747513)
(-4268.7809 1300.5537 69.929405)
(-4444.7089 1323.0623 58.125189)
(-4616.6538 1345.264 45.448009)
(-4784.4942 1367.7194 33.283095)
(-4947.4997 1391.0804 21.965004)
(-5106.3266 1415.1098 12.502926)
(-5261.7606 1440.147 4.2756521)
(-5414.7111 1465.8267 -2.5205362)
(-5566.5397 1492.2565 -9.0052346)
(-5718.2616 1518.9548 -15.794805)
(-5870.4764 1545.9064 -23.279862)
(-3.9179893e-16 -2.8384427e-17 -1.6191597e-16)
(6.8869455e-16 3.3255846e-16 -2.9305012e-16)
(-3.0379221e-16 -4.0639439e-16 3.7376104e-16)
(8.6048107e-16 -8.7588792e-17 1.0515471e-16)
(5.0258192e-16 -7.4376592e-16 6.4035694e-16)
(-2.9679417e-15 -3.4669267e-16 7.3060073e-16)
(8.9003905e-16 -2.834795e-16 1.0120244e-16)
(-37.054865 50.27142 -74.745991)
(-75.739338 136.07475 -85.719793)
(-129.15313 141.37139 -75.008449)
(-200.68824 194.87241 -67.067314)
(-276.47995 221.27483 -55.555018)
(-354.73668 251.51839 -41.392159)
(-439.49138 279.40314 -30.299068)
(-521.60325 303.83302 -18.419263)
(-607.16614 329.24175 -9.6508208)
(-689.4058 352.14796 -1.6928985)
(-772.69662 378.64496 2.6041701)
(-854.21411 401.71329 6.3236597)
(-934.84862 429.30394 6.5701813)
(-1015.4979 456.42908 6.1343495)
(-1097.4822 486.26175 4.4703194)
(-1181.9673 518.19761 3.1651655)
(-1271.0075 552.62896 2.6797523)
(-1365.3981 589.91605 3.837252)
(-1466.9359 630.10168 6.8032885)
(-1576.0094 672.73506 11.777337)
(-1693.3064 717.74194 18.200263)
(-1818.5495 764.18911 25.744266)
(-1951.696 811.6609 33.714317)
(-2091.8847 859.1519 41.644634)
(-2238.9086 906.66656 49.27641)
(-2392.0389 952.90262 56.384463)
(-2549.7769 998.76653 62.42337)
(-2713.0301 1042.9795 68.523974)
(-2881.0974 1086.497 74.61225)
(-3053.7239 1128.9982 80.936746)
(-3230.148 1170.5937 87.259192)
(-3409.5969 1211.1531 93.060952)
(-3590.8363 1250.3779 97.671279)
(-3772.5905 1287.7983 100.29537)
(-3953.3586 1322.8914 100.12555)
(-4131.2686 1355.5075 96.591775)
(-4307.0385 1386.0818 89.635545)
(-4476.5936 1412.5414 79.310554)
(-4642.8428 1437.1878 66.616617)
(-4804.3933 1459.9293 52.18535)
(-4962.0893 1481.4951 37.392353)
(-5117.3572 1502.7724 23.211222)
(-5270.6803 1524.5763 10.421259)
(-5423.4775 1547.3766 -0.60296747)
(-5576.2112 1571.7685 -9.9538111)
(-5729.412 1597.3667 -18.056308)
(-5883.748 1624.3767 -25.481211)
(-6064.8197 1496.9931 -37.400208)
(-6092.3018 1342.7404 -41.412805)
(-6120.9494 1187.7021 -45.072965)
(-6147.6182 1031.0666 -48.910222)
(-6176.2033 875.94885 -53.390574)
(-6202.2901 719.23901 -57.804956)
(-6227.9922 563.99039 -63.663607)
(-6099.7938 382.78618 -62.398327)
(-5946.057 355.75203 -56.616546)
(-5794.7005 328.45827 -52.362835)
(-5643.2772 299.86876 -48.162117)
(-5491.7271 270.57015 -43.220094)
(-5339.1425 239.46009 -36.964165)
(-5184.2559 206.22895 -28.686914)
(-5026.2843 170.72771 -18.29117)
(-4864.7854 132.87087 -5.9026148)
(-4699.5915 93.170204 7.3007461)
(-4531.2631 52.98636 20.659971)
(-4359.3276 12.36666 33.926712)
(-4185.4358 -27.617713 44.985497)
(-4010.1596 -65.388101 54.0645)
(-3834.2838 -100.21496 60.818595)
(-3658.2901 -131.71766 65.354144)
(-3482.7748 -159.55522 68.206231)
(-3308.2487 -183.71571 69.955769)
(-3134.9225 -204.485 71.14909)
(-2963.4598 -222.08388 72.259412)
(-2794.2407 -236.84418 73.377941)
(-2628.0672 -248.94231 74.498738)
(-2465.8912 -258.50951 75.230801)
(-2308.5648 -265.63624 75.262318)
(-2157.2153 -270.33167 74.049315)
(-2012.5986 -272.7092 71.40653)
(-1875.3925 -272.99473 67.317267)
(-1745.8625 -271.63235 61.96632)
(-1624.0166 -269.13081 55.834072)
(-1509.4093 -266.32606 49.456781)
(-1401.4103 -263.75648 43.288245)
(-1298.9916 -262.15231 37.891721)
(-1201.375 -262.37086 33.504457)
(-1107.507 -263.02909 29.570734)
(-1016.3237 -265.55769 27.141666)
(-926.59583 -268.89297 25.227816)
(-838.15077 -271.96744 24.389346)
(-749.93679 -273.66133 23.665973)
(-662.07622 -273.1971 24.543348)
(-574.45284 -268.47707 25.886716)
(-487.51861 -259.32475 29.127238)
(-400.65158 -243.5132 35.041564)
(-318.37809 -221.6598 41.727522)
(-238.20652 -193.16939 51.58655)
(-167.82777 -157.50073 58.279743)
(-102.95636 -113.82878 64.167921)
(-72.958601 -72.542721 50.830164)
(-6.7652979e-16 3.5118239e-16 1.2802193e-16)
(-2.3129286e-15 2.7505878e-16 1.3239036e-16)
(-3.6393531e-15 -1.4253491e-16 -1.5464221e-16)
(-4.9195801e-15 -9.3657526e-16 4.6870719e-16)
(-4.0844143e-15 -8.2232132e-16 1.723462e-16)
(-2.0271537e-15 -1.8079967e-16 2.6438577e-16)
(-2.0670014e-15 8.6459225e-16 1.4474963e-15)
(-4.5036838e-15 1.2268482e-15 -2.065022e-16)
(-1.9919023e-15 1.1694967e-15 -1.6367101e-16)
(-2.9438013e-15 1.1112212e-15 -1.969436e-16)
(-2.4504202e-15 9.597151e-16 -1.1789697e-16)
(-5.2893259e-15 2.5926013e-15 -8.0820905e-16)
(-1.8775489e-15 1.1365606e-15 -5.8525306e-16)
(-7.4714327e-17 -2.094137e-16 9.7564992e-17)
(-6025.1974 1581.5596 -32.257301)
(-6027.0512 1591.8493 -33.272716)
(-6028.9716 1602.4877 -33.812327)
(-6030.8582 1613.2888 -33.875794)
(-6032.6872 1623.77 -33.739015)
(-6034.3197 1633.648 -33.3842)
(-6036.1878 1642.7481 -33.38255)
(-6242.2942 336.26666 -72.397261)
(-6244.0734 348.03684 -72.375419)
(-6244.8518 360.18851 -72.434347)
(-6245.471 372.24377 -72.168704)
(-6246.2586 383.95427 -71.253821)
(-6247.7796 393.82991 -70.337229)
(-6250.7157 402.44958 -69.285199)
(-30.294937 -42.455967 -63.774647)
(-79.757529 -74.426919 -58.581662)
(-140.03835 -105.67683 -61.367607)
(-211.70406 -130.80086 -55.714186)
(-290.77163 -150.8496 -47.705246)
(-375.46495 -166.4206 -38.853003)
(-462.7934 -177.18898 -28.839872)
(-551.33886 -184.7393 -20.226206)
(-639.90136 -188.81154 -12.099768)
(-727.56374 -191.06022 -6.2718551)
(-814.18888 -191.35027 -2.287172)
(-899.87925 -190.55329 -0.49053661)
(-985.71034 -189.00332 -0.58495326)
(-1072.4115 -186.76066 -2.1309038)
(-1161.5066 -184.08803 -4.499502)
(-1254.1487 -181.15006 -7.0119352)
(-1351.8609 -178.00965 -9.2171352)
(-1455.7088 -174.52551 -10.556945)
(-1566.7659 -170.71844 -10.907217)
(-1685.6157 -166.36584 -10.12991)
(-1812.5122 -161.31767 -8.4604341)
(-1947.3102 -155.1682 -6.0312377)
(-2089.7273 -147.76252 -3.1007875)
(-2238.9339 -138.67092 0.20746127)
(-2394.5993 -127.88659 3.8031421)
(-2555.6315 -114.79777 7.9069196)
(-2721.3736 -99.785521 12.5409)
(-2891.2803 -82.734526 17.770876)
(-3064.7455 -63.587795 23.736901)
(-3240.9889 -42.763516 30.263594)
(-3419.5633 -20.342784 36.976794)
(-3599.5247 3.5180641 43.368286)
(-3779.972 28.54128 48.719286)
(-3959.8784 54.853503 52.18314)
(-4138.1182 82.257051 53.34113)
(-4313.5711 110.77981 51.543416)
(-4485.546 140.55935 46.925053)
(-4653.3163 171.36682 39.192902)
(-4817.0037 203.27279 29.59147)
(-4976.7239 236.03415 18.215991)
(-5133.3195 268.8518 6.6441603)
(-5287.3585 302.21197 -5.5439071)
(-5440.7772 334.54958 -16.397596)
(-5592.4473 366.40762 -27.367295)
(-5746.9848 397.64706 -37.160223)
(-5900.4605 426.7521 -46.793571)
(-6056.1172 454.65663 -56.847514)
(-15.595713 -28.320503 -44.036104)
(-63.431824 -44.875843 -41.84179)
(-125.97693 -68.886792 -43.937366)
(-197.66197 -84.892893 -39.281647)
(-277.65219 -97.918108 -33.929277)
(-362.14278 -107.32761 -26.322841)
(-449.28613 -112.83594 -19.247542)
(-538.0358 -115.73734 -11.337518)
(-625.9905 -116.08688 -5.0866762)
(-713.24021 -115.1004 0.47660289)
(-799.1808 -112.18862 4.1208596)
(-884.38824 -108.63133 6.4023446)
(-969.23154 -103.64759 6.9807499)
(-1054.9978 -97.895632 6.4868448)
(-1142.7852 -91.145783 5.3336974)
(-1233.994 -83.848686 4.1097962)
(-1330.0215 -75.670871 3.2321098)
(-1432.0842 -66.925516 2.9131276)
(-1541.3071 -57.448778 3.4833188)
(-1658.3637 -47.344746 4.811115)
(-1783.5548 -36.367138 6.8242415)
(-1916.9054 -24.523991 9.3507734)
(-2057.8859 -11.618328 12.200237)
(-2206.2382 2.6098971 15.176364)
(-2360.8635 18.487482 18.526677)
(-2521.12 35.737703 21.798125)
(-2686.3398 54.977192 25.710261)
(-2855.8566 75.757487 30.155585)
(-3028.9779 97.952105 34.933539)
(-3205.238 121.4561 40.261327)
(-3383.9437 145.90907 45.609737)
(-3564.2555 171.05219 50.491075)
(-3745.3157 196.82681 54.274348)
(-3926.076 223.05297 56.370372)
(-4105.3043 249.7627 56.234877)
(-4282.0253 277.31006 53.415669)
(-4455.3365 305.51398 48.184662)
(-4624.2961 334.83516 40.267929)
(-4789.2242 365.01939 30.795988)
(-4949.7574 396.35355 19.909955)
(-5107.4065 428.02747 8.7836284)
(-5261.5966 460.42025 -2.518506)
(-5415.5385 492.47786 -13.023699)
(-5567.1899 523.83768 -23.17234)
(-5721.386 554.87176 -32.652487)
(-5874.323 583.743 -42.088278)
(-6028.9335 611.49341 -51.978515)
(-6.7779065 -15.670769 -26.815247)
(-52.930463 -25.501287 -25.197052)
(-113.29827 -37.9916 -26.251021)
(-185.56917 -46.108127 -23.858775)
(-265.86603 -51.083924 -19.815578)
(-351.00677 -53.571904 -14.857667)
(-438.95591 -52.559684 -8.3912742)
(-527.04948 -50.013775 -2.9487945)
(-615.00047 -45.648593 2.9687279)
(-701.75014 -40.088621 7.7079418)
(-787.12873 -33.653869 11.478055)
(-871.32265 -26.133516 13.929199)
(-955.36914 -17.690603 15.237961)
(-1039.8764 -8.0635515 15.71668)
(-1126.4116 2.4147276 15.55704)
(-1216.2656 14.080086 15.597336)
(-1310.7641 26.747023 15.709191)
(-1411.2416 40.296047 16.505409)
(-1518.7535 54.765858 17.840394)
(-1633.9356 69.946282 19.723013)
(-1757.2469 85.954605 21.961773)
(-1888.7298 102.72024 24.496823)
(-2028.3204 120.55567 26.99369)
(-2175.0112 139.68197 29.566758)
(-2328.3897 159.81792 31.947586)
(-2487.7138 181.51738 34.707109)
(-2652.3985 204.53131 37.850942)
(-2821.4799 228.67438 41.279317)
(-2994.4305 253.9405 45.250097)
(-3170.6529 280.0059 49.663248)
(-3349.44 306.40066 54.009953)
(-3530.0693 333.15782 57.939316)
(-3711.6442 359.92514 60.796723)
(-3893.0577 386.66099 62.019284)
(-4073.248 413.72392 61.016395)
(-4251.0944 440.90669 57.670526)
(-4425.5431 468.78425 51.84081)
(-4596.103 497.33717 43.788421)
(-4762.282 526.91076 34.278402)
(-4924.192 557.38173 23.389777)
(-5082.4314 588.36734 12.677146)
(-5237.5419 620.23639 1.3560567)
(-5391.3602 651.29117 -8.3693698)
(-5542.9188 682.64503 -18.792319)
(-5696.1653 712.70724 -27.676053)
(-5848.1645 741.81128 -37.247328)
(-6002.0482 769.84927 -46.530004)
(-2.4820892 -4.3607371 -8.0853078)
(-47.101492 -6.9607133 -5.2421541)
(-107.11271 -10.275192 -6.4065434)
(-178.99743 -9.4750367 -6.1012081)
(-259.64272 -5.2996755 -4.8923278)
(-344.63881 -0.51019651 -1.4314946)
(-431.13467 7.8326084 1.3865871)
(-518.7336 15.863071 6.282762)
(-605.41481 25.553789 10.469222)
(-691.06641 35.270593 14.705109)
(-775.24402 46.065453 18.225096)
(-858.88929 57.400537 21.075759)
(-941.88297 69.754282 23.191296)
(-1025.5829 83.284137 24.432294)
(-1111.1988 97.840658 25.749904)
(-1199.9264 113.75249 26.787887)
(-1293.1124 130.69635 28.19637)
(-1392.1625 148.85596 29.952587)
(-1497.9857 167.97008 32.129031)
(-1611.6218 188.02798 34.608351)
(-1733.5046 208.9822 37.406013)
(-1863.9016 230.91728 40.10488)
(-2001.9269 253.79807 42.65976)
(-2147.6141 277.51057 44.921547)
(-2300.1475 302.37204 47.264713)
(-2458.8362 328.24985 49.484202)
(-2622.6774 355.14251 51.681462)
(-2791.1015 382.93121 54.282544)
(-2963.5229 411.28843 57.349586)
(-3139.2922 439.82195 60.572098)
(-3317.7822 468.30396 63.827671)
(-3498.2598 496.50282 66.497781)
(-3679.7888 524.17863 68.123681)
(-3861.4287 551.51893 68.017344)
(-4042.0118 578.55217 65.871162)
(-4220.4026 605.7006 61.334396)
(-4395.729 633.09019 54.646405)
(-4566.9889 661.26646 45.917588)
(-4733.9737 690.22031 35.757145)
(-4896.5036 719.85525 25.000286)
(-5055.7321 750.14893 14.157285)
(-5211.1459 780.76661 3.6872671)
(-5365.318 811.20844 -5.9839816)
(-5516.9319 841.42766 -15.337869)
(-5670.1452 870.89559 -23.828753)
(-5822.1609 899.57839 -32.40151)
(-5975.5954 927.46238 -41.265988)
(0.95748206 7.1729616 10.233702)
(-45.496508 8.6436956 14.468385)
(-103.56849 15.073716 11.907593)
(-176.12159 25.495438 10.350014)
(-256.43715 37.705497 10.145748)
(-340.55322 51.528694 10.211656)
(-426.80866 66.127975 12.689102)
(-513.36737 80.713583 15.792682)
(-599.16645 95.478096 19.549164)
(-683.8275 110.24242 23.483684)
(-767.23418 125.228 27.189283)
(-849.53163 140.39237 30.318528)
(-931.38839 156.73308 32.666363)
(-1014.0907 173.89347 34.944409)
(-1098.3522 192.63773 36.817973)
(-1185.6937 212.69017 38.778955)
(-1277.499 234.24257 41.130425)
(-1374.8959 257.00064 43.719353)
(-1479.1822 280.98206 46.674285)
(-1591.1449 305.81927 49.745011)
(-1711.3033 331.76913 52.750255)
(-1839.4162 358.56271 55.178583)
(-1975.9862 385.95399 57.390906)
(-2120.137 414.43194 59.19142)
(-2271.4997 443.61171 60.639148)
(-2428.8062 473.72134 61.776311)
(-2591.7477 504.62546 63.155243)
(-2759.4165 535.97706 64.976611)
(-2931.1653 567.34585 67.066976)
(-3106.3811 598.45913 69.507515)
(-3284.4891 628.93912 71.810295)
(-3464.7854 658.51418 73.623171)
(-3646.408 687.13302 74.281498)
(-3828.4214 714.76127 73.36871)
(-4009.6279 741.86119 70.340399)
(-4189.0071 768.56601 65.172858)
(-4365.356 795.4589 57.941731)
(-4537.9551 822.9394 48.768957)
(-4706.0479 850.92266 38.823892)
(-4870.1499 879.63346 28.084897)
(-5029.9498 909.24238 17.602725)
(-5186.3431 939.34262 7.1763966)
(-5340.4256 969.22451 -1.9297262)
(-5492.599 999.16032 -11.114159)
(-5645.134 1028.1609 -19.069452)
(-5796.6038 1056.7458 -27.688059)
(-5949.3622 1084.4861 -36.116691)
(1.8013298 22.275645 34.232777)
(-46.655374 30.674219 33.349306)
(-105.93206 48.73462 32.276214)
(-178.92559 68.218218 28.598739)
(-258.30121 89.670647 24.863608)
(-341.15973 110.52967 23.382658)
(-425.96465 131.77894 23.346101)
(-510.912 151.40937 25.10312)
(-595.14982 170.79229 27.859127)
(-678.39151 189.09623 31.178759)
(-760.38611 207.47375 34.768985)
(-841.63609 225.95949 38.166276)
(-922.70496 245.46168 41.570064)
(-1004.3878 266.16307 44.570756)
(-1087.7519 288.4897 47.59139)
(-1174.0889 312.49696 50.777672)
(-1264.6208 338.2181 54.242424)
(-1360.7101 365.4236 57.886881)
(-1463.3774 394.1144 61.733005)
(-1573.6923 423.82764 65.366457)
(-1691.9518 454.9264 68.738029)
(-1818.9913 486.05133 71.326832)
(-1953.8505 518.74468 73.660414)
(-2096.6996 552.54436 74.944038)
(-2246.4074 586.61455 75.717878)
(-2402.6063 621.40775 76.302033)
(-2564.5047 656.3806 76.993765)
(-2730.9899 691.26674 77.778504)
(-2901.6984 725.76002 79.101031)
(-3076.0148 759.50718 80.595282)
(-3253.2865 792.07168 82.104951)
(-3432.9294 823.25813 82.994343)
(-3614.1234 852.9857 82.759252)
(-3795.9965 881.3993 80.803198)
(-3977.4267 908.71942 76.7085)
(-4157.2717 935.40514 70.436338)
(-4334.4841 961.90178 62.006171)
(-4507.9458 988.54116 52.086379)
(-4677.4991 1015.6623 41.022113)
(-4842.3375 1043.4116 29.882066)
(-5003.1002 1071.6755 18.986229)
(-5160.0559 1100.3131 9.0972903)
(-5314.5259 1129.0343 0.040850824)
(-5466.9529 1157.3774 -8.1263118)
(-5618.9306 1185.3479 -15.912551)
(-5770.6845 1212.6839 -23.636378)
(-5923.1908 1239.9749 -31.655382)
(-0.21968737 38.095464 51.085154)
(-52.724013 51.4095 54.05859)
(-113.25976 84.702664 52.845335)
(-186.01989 114.04408 45.356381)
(-263.3997 144.06706 39.636838)
(-344.91366 173.20778 35.428051)
(-427.43064 200.04056 33.849304)
(-510.28127 224.79758 34.264245)
(-592.59077 247.86424 36.380342)
(-673.9458 269.2142 39.443714)
(-754.55256 290.63792 43.220418)
(-834.52625 311.53456 47.19425)
(-914.62093 334.01683 50.912306)
(-995.31176 357.61681 54.79907)
(-1077.7821 383.54556 58.71402)
(-1162.9037 411.44701 62.919002)
(-1252.2203 441.6489 67.269809)
(-1346.7123 473.76752 71.903544)
(-1447.8151 507.66685 76.423924)
(-1556.2837 542.95935 80.756564)
(-1673.025 579.29038 84.423332)
(-1797.8421 616.80024 87.167926)
(-1931.4991 654.75841 89.066996)
(-2072.7335 693.77497 89.80036)
(-2221.1667 732.85596 90.076393)
(-2376.1021 772.30787 89.733259)
(-2536.5509 811.64308 89.388041)
(-2701.8738 850.33355 89.484208)
(-2871.4295 888.13168 90.002955)
(-3044.6172 924.44723 90.705418)
(-3220.8979 958.89652 91.390946)
(-3399.8164 991.2474 91.428626)
(-3580.579 1021.4509 90.250406)
(-3762.4564 1049.6941 87.297453)
(-3944.2186 1076.4058 82.173181)
(-4124.9026 1101.9707 74.906365)
(-4303.0699 1127.2577 65.557153)
(-4477.979 1152.4672 54.863191)
(-4648.4266 1178.128 43.552566)
(-4814.6313 1204.5117 32.055672)
(-4976.1199 1231.4439 21.335563)
(-5133.7703 1258.9134 11.449979)
(-5288.3189 1286.3308 2.9042089)
(-5440.7812 1313.6504 -4.9879393)
(-5592.5231 1340.5019 -12.245269)
(-5744.3185 1367.0702 -19.72486)
(-5896.8111 1393.8326 -27.622592)
(-1.8726199e-15 -1.0357256e-16 4.2324109e-16)
(-4.3693994e-15 5.8098526e-16 1.0825799e-16)
(-1.86708e-15 5.0203615e-16 5.7484399e-16)
(-1.1298519e-15 4.4303811e-16 -1.5186772e-16)
(-1.5283164e-15 1.7502349e-16 4.7144117e-17)
(-3.9278597e-15 -6.147074e-18 -1.0233878e-17)
(-3.270765e-15 8.5080195e-17 2.8271762e-17)
(-1.444637e-15 3.1767481e-17 -1.0328492e-16)
(-1.9600489e-15 -2.0641393e-16 2.5996682e-17)
(-1.0758982e-15 -5.0887233e-16 -1.6282415e-16)
(-1.1902312e-15 -6.3217422e-16 -1.0496995e-16)
(-2.2455722e-15 -1.0363924e-16 3.7607835e-16)
(-1.7254929e-15 1.2766475e-16 7.9907906e-17)
(-6.542485e-16 2.4659353e-16 4.7610311e-16)
(-1.0183069e-15 2.0413811e-16 3.0876606e-16)
(-1.2825224e-16 3.2154578e-16 2.6910031e-16)
(-2.4669526e-15 5.8726168e-16 -3.2350189e-17)
(-1.9694108e-15 5.8752001e-16 2.9593509e-16)
(-1.9972486e-15 5.0741204e-16 1.6376266e-16)
(-5.0142844e-16 5.9082617e-16 -1.5096731e-17)
(2.8672985e-17 2.0007103e-16 -2.079567e-16)
(-3.5598279e-15 1.6770216e-16 6.1584209e-17)
(1.5219227e-15 -3.8112137e-16 -3.4960392e-16)
(-8.8364966e-17 -1.5289127e-16 1.7491834e-16)
(2.7397895e-16 -2.6900304e-16 -2.0413732e-16)
(-5.1236454e-16 -3.7600259e-16 -4.411389e-17)
(-1.3114086e-15 -5.3747975e-16 1.2489795e-16)
(2.0041989e-16 -4.4379834e-16 -1.4360784e-16)
(-1.3448657e-15 3.3966264e-16 -2.7012678e-16)
(-2.2010094e-15 1.2158219e-16 1.1470551e-16)
(-1.2722141e-15 -2.3577892e-16 -7.7366055e-17)
(-2.6936153e-15 2.298542e-17 6.0151854e-16)
(-1.8084585e-15 2.5926424e-16 8.2177642e-17)
(-1.0121806e-15 3.7760621e-16 1.5728837e-17)
(-3.5076342e-15 -1.049112e-16 -1.8966684e-16)
(-1.2388067e-16 -2.746004e-16 -1.3203227e-16)
(-1.1077126e-15 -2.2449831e-16 5.9960705e-17)
(-7.9462407e-16 5.2806017e-17 1.8160622e-16)
(-1.481116e-15 2.6347307e-16 -6.003674e-17)
(5.3541372e-16 1.9494005e-16 5.7756958e-17)
(-2.5861876e-15 -7.0653702e-17 -1.8824779e-16)
(-1.6152529e-15 1.8241927e-16 3.8488004e-16)
(-1.0389662e-15 3.299921e-17 2.9700946e-16)
(-3.8817577e-15 -1.9427146e-16 -1.2145786e-15)
(-1.6161979e-15 2.8442108e-16 -1.856842e-16)
(8.1577518e-16 1.8112067e-17 2.0819295e-16)
(-2.485062e-15 2.8178417e-16 -5.4749215e-16)
(-1.8307085e-15 4.4562511e-16 -1.4619564e-16)
(-1.4586292e-15 4.0358521e-16 -4.0281137e-16)
(-43.956455 25.677357 43.173282)
(-50.878502 32.911704 27.285632)
(-58.845512 34.292588 12.964618)
(-62.225488 36.077843 1.2539019)
(-60.684878 33.625465 -10.744377)
(-58.193009 34.760673 -22.885858)
(-50.627779 25.777023 -39.846537)
(-94.973121 114.28969 61.589123)
(-108.13032 127.12924 31.238305)
(-113.29672 118.23067 12.468852)
(-113.644 114.27459 -2.2347527)
(-115.57465 120.62576 -16.677522)
(-107.47632 119.06434 -34.354094)
(-101.02736 121.06227 -61.182668)
(-144.68068 153.02158 51.560884)
(-158.68439 147.48733 35.75959)
(-168.07586 151.50055 14.995525)
(-169.47374 150.9397 -2.9589282)
(-168.17558 148.30667 -21.471457)
(-161.55116 148.94231 -35.783994)
(-151.97714 155.75735 -61.329856)
(-210.83201 197.4259 45.251335)
(-222.77562 200.10501 31.932613)
(-228.29465 197.86039 11.765518)
(-231.4024 197.81128 -1.7974636)
(-229.68811 198.31102 -17.665316)
(-225.53133 200.21523 -36.53011)
(-213.00095 197.57157 -50.821433)
(-282.40419 233.67182 40.073624)
(-292.10872 231.97828 28.730713)
(-299.52593 233.72165 13.905003)
(-301.47278 232.37116 -0.016289921)
(-300.99793 233.39706 -14.839018)
(-296.11536 233.00492 -28.162252)
(-288.60881 233.83793 -43.526902)
(-357.3983 262.37336 34.841509)
(-365.23674 261.97162 25.917926)
(-370.23965 261.22005 13.361669)
(-373.15966 262.45263 3.3190105)
(-371.71224 262.37822 -9.1530762)
(-370.09544 261.98715 -21.755193)
(-362.01082 260.29977 -32.307766)
(-436.22799 288.46558 34.596736)
(-443.40066 288.6886 26.611403)
(-448.62159 290.78938 16.542777)
(-450.65993 291.06452 7.8507976)
(-451.10651 292.4584 -3.2094696)
(-448.60523 292.80829 -11.956819)
(-444.3428 290.75755 -21.713968)
(-515.23881 312.08389 34.900899)
(-521.41122 312.13812 28.957229)
(-526.21175 312.26788 20.443991)
(-528.58393 313.92575 13.014747)
(-529.43899 314.6742 4.3956889)
(-528.10514 314.00003 -4.2836022)
(-525.11034 311.82921 -11.937811)
(-595.64955 333.49989 38.225115)
(-601.79787 333.78052 32.02732)
(-606.13134 335.99014 25.000449)
(-609.03007 337.31952 18.589107)
(-610.19769 339.32574 11.153019)
(-610.19654 339.45315 4.0780233)
(-608.22257 338.0666 -3.1917109)
(-675.41635 353.95869 41.616301)
(-681.30803 354.77322 36.730233)
(-686.31835 356.02118 30.015369)
(-689.19176 358.56095 23.211589)
(-690.62615 359.43781 16.665953)
(-691.14226 359.78274 9.9861273)
(-690.29312 358.61247 3.8297224)
(-755.53497 374.93861 46.023278)
(-761.70896 375.90907 40.634969)
(-766.59576 378.31736 33.879894)
(-769.74344 380.09968 28.235028)
(-771.82182 382.48653 21.21138)
(-772.82303 383.54476 15.276982)
(-772.4537 383.15532 8.5979166)
(-835.59902 396.23604 50.512747)
(-841.98903 397.93277 44.394224)
(-846.79709 400.04275 38.240397)
(-850.56746 403.10013 31.385321)
(-852.70902 405.17377 24.567484)
(-853.52046 405.59293 18.371965)
(-853.96874 406.01749 12.156582)
(-916.00371 419.90718 54.30802)
(-922.46872 421.41062 47.927601)
(-928.03006 424.64147 41.082594)
(-931.79545 427.22341 34.146265)
(-934.01822 429.29595 26.65045)
(-935.2231 431.25471 20.099802)
(-935.14913 431.054 13.184927)
(-997.37674 445.14955 58.403597)
(-1004.3997 447.58929 51.087168)
(-1010.1695 450.67372 43.915787)
(-1013.7845 453.67045 35.977601)
(-1016.2476 456.63321 28.194517)
(-1016.9939 457.57533 20.728719)
(-1016.8157 457.98113 13.093632)
(-1080.504 473.96654 62.494908)
(-1088.1669 476.49457 54.333478)
(-1093.9905 479.75173 46.441044)
(-1098.1032 483.42874 37.621101)
(-1100.2359 485.67486 29.258889)
(-1100.8805 487.3392 20.632587)
(-1099.9978 486.96127 12.259195)
(-1166.4959 505.35536 66.849104)
(-1174.5336 508.13464 57.855871)
(-1180.8905 512.00247 49.161559)
(-1184.7634 515.53944 39.833973)
(-1187.0331 518.41676 30.339695)
(-1187.0258 519.96001 21.249978)
(-1185.8137 519.15931 11.612709)
(-1256.0595 540.19754 71.673331)
(-1264.9457 543.46618 61.83783)
(-1271.5352 547.27801 52.645456)
(-1275.6921 551.25754 42.311876)
(-1277.8882 554.21203 32.422729)
(-1277.5921 555.77999 22.467082)
(-1275.8622 554.28413 11.778954)
(-1350.7584 578.12648 76.785006)
(-1360.1043 581.40661 66.495892)
(-1367.302 585.65611 56.554312)
(-1371.3799 589.9227 45.89269)
(-1373.7712 592.98706 35.387565)
(-1372.9611 594.63866 25.00063)
(-1371.1147 592.65171 13.464703)
(-1451.2614 618.72589 82.134713)
(-1461.386 622.36936 71.331654)
(-1468.8574 626.73938 61.202109)
(-1473.2379 631.26815 50.230334)
(-1475.7328 634.57678 39.444894)
(-1474.8748 636.36008 28.892746)
(-1472.8942 634.1611 16.806603)
(-1558.7129 661.60517 87.149051)
(-1569.2736 665.38776 76.303442)
(-1577.1979 670.02873 66.152041)
(-1581.7281 674.96673 55.165274)
(-1584.5212 678.42637 44.453838)
(-1583.6107 680.37435 34.030878)
(-1581.8268 678.14174 21.845688)
(-1673.6689 706.12655 91.611075)
(-1684.6609 710.24381 80.960218)
(-1692.7597 715.07587 71.034465)
(-1697.7151 720.1739 60.421906)
(-1700.6185 723.90975 50.026655)
(-1700.1094 725.96073 40.010188)
(-1698.4781 724.10048 28.13836)
(-1796.5202 751.66369 95.058278)
(-1807.5837 756.01459 84.89401)
(-1815.9797 760.95805 75.475582)
(-1821.0639 766.30168 65.530825)
(-1824.2463 770.19088 55.712858)
(-1824.086 772.46863 46.358987)
(-1822.8248 771.22447 35.250981)
(-1927.2252 797.74682 97.232666)
(-1938.3639 802.18279 87.871058)
(-1946.6425 807.23467 79.299868)
(-1952.0496 812.68098 70.162915)
(-1955.2703 817.0027 61.200575)
(-1955.7901 819.48676 52.712587)
(-1954.8452 818.85509 42.6136)
(-2065.7454 843.43514 98.266155)
(-2076.4745 848.19223 89.980474)
(-2084.6879 853.24853 82.242676)
(-2090.1191 858.90073 74.172324)
(-2093.6045 863.23696 66.255665)
(-2094.5739 865.79998 58.573648)
(-2094.0249 865.94427 49.756047)
(-2211.2052 888.84454 98.599867)
(-2221.6796 893.54402 91.130215)
(-2229.4888 898.45418 84.712178)
(-2235.2367 904.18865 77.55418)
(-2238.4371 908.85028 70.672248)
(-2240.0162 912.01004 63.995932)
(-2239.8261 912.85148 56.576795)
(-2363.2903 933.32858 98.182195)
(-2373.2245 937.64836 92.005969)
(-2380.7285 942.84929 86.557918)
(-2386.2266 948.61783 80.268695)
(-2389.4519 953.48727 74.893477)
(-2391.6073 956.86595 69.143618)
(-2391.9423 957.88176 62.846678)
(-2521.1805 976.63317 97.80752)
(-2530.3375 980.6884 93.088471)
(-2537.6665 986.15519 88.179874)
(-2543.1418 991.91503 83.669125)
(-2546.531 997.39861 78.555834)
(-2548.9113 1001.1065 73.49079)
(-2549.3492 1002.5201 68.027952)
(-2684.3072 1018.5116 97.939021)
(-2692.6599 1022.6671 94.248971)
(-2700.0203 1028.046 90.24674)
(-2704.9724 1034.3289 86.825111)
(-2708.8109 1040.0821 82.166304)
(-2711.1109 1044.2769 78.333432)
(-2712.1128 1046.2616 73.285945)
(-2851.631 1058.841 98.764231)
(-2859.789 1062.9662 95.688464)
(-2866.5097 1068.7109 93.110683)
(-2871.6523 1075.1784 89.901295)
(-2875.3422 1081.6153 86.503677)
(-2877.9967 1086.6805 83.146757)
(-2879.6113 1089.0484 78.669495)
(-3022.944 1097.5132 99.648688)
(-3030.5221 1101.7364 97.859288)
(-3037.2218 1107.7905 95.663947)
(-3042.2468 1114.947 93.538678)
(-3046.1881 1122.1308 90.755445)
(-3049.2528 1127.9194 88.153678)
(-3051.4608 1131.0363 84.250846)
(-3197.3704 1134.3051 100.90242)
(-3204.6856 1138.9003 99.75408)
(-3211.1665 1145.4523 98.517601)
(-3216.231 1153.2463 96.945926)
(-3220.4638 1161.0789 94.97615)
(-3223.9055 1167.8664 93.10394)
(-3226.9054 1171.9201 89.86434)
(-3374.5199 1169.1514 101.30819)
(-3381.4284 1174.182 101.10746)
(-3387.7482 1181.3327 100.44142)
(-3392.9018 1189.7603 99.667495)
(-3397.3961 1198.4486 98.421851)
(-3401.4056 1206.1894 97.405865)