/*--------------------------------*- C++ -*----------------------------------*\
  =========                 |
  \\      /  F ield         | OpenFOAM: The Open Source CFD Toolbox
   \\    /   O peration     | Website:  https://openfoam.org
    \\  /    A nd           | Version:  6
     \\/     M anipulation  |
\*---------------------------------------------------------------------------*/
FoamFile
{
    version     2.0;
    format      ascii;
    class       pointVectorField;
    location    "1.56";
    object      lm;
}
// * * * * * * * * * * * * * * * * * * * * * * * * * * * * * * * * * * * * * //

dimensions      [1 -2 -1 0 0 0 0];

internalField   nonuniform List<vector> 
3969
(
(0 0 0)
(0 0 0)
(-4273.9045 -253.38462 -39.329987)
(-4241.6976 1163.9151 -112.96344)
(0 0 0)
(0 0 0)
(-4160.8762 1138.6353 -110.93766)
(-4195.5597 -276.83646 -39.140003)
(0 0 0)
(0 0 0)
(0 0 0)
(0 0 0)
(0 0 0)
(0 0 0)
(0 0 0)
(-4031.2743 -76.076788 -44.897524)
(-3833.4304 83.074311 -50.155115)
(-3865.9304 241.6098 -59.057137)
(-4093.2218 424.55793 -71.720854)
(-4366.9177 634.79783 -86.764741)
(-4513.6342 847.01706 -100.17403)
(-4440.5072 1024.3656 -108.53149)
(-14.374009 -24.360564 -21.878573)
(-28.66474 -35.943723 -21.92616)
(-47.759833 -48.27865 -20.30127)
(-69.853565 -57.475734 -16.978395)
(-93.266297 -66.018133 -13.630177)
(-118.70566 -72.067401 -9.235146)
(-143.72744 -77.259244 -6.3773042)
(-170.06609 -81.059986 -2.3998662)
(-195.18697 -84.245114 -0.37220952)
(-220.78123 -87.23209 2.588256)
(-245.80048 -90.750751 3.9198345)
(-270.69221 -94.679582 5.2671282)
(-296.0099 -100.205 5.6854959)
(-321.85025 -107.22568 5.4087149)
(-349.25815 -116.23612 4.5078747)
(-378.43764 -127.56583 2.7681153)
(-410.54533 -141.21127 0.14627152)
(-446.05805 -157.31341 -3.240275)
(-486.07077 -175.84973 -7.5228553)
(-531.26167 -196.58939 -12.539396)
(-582.51417 -219.35576 -18.389394)
(-640.53746 -243.76432 -24.83866)
(-705.98259 -269.43586 -31.934328)
(-779.44479 -295.77449 -39.407736)
(-861.24398 -322.44507 -47.224894)
(-951.77078 -348.64893 -55.127869)
(-1051.0736 -373.91099 -62.92248)
(-1159.1114 -397.67178 -70.393762)
(-1275.7217 -419.31569 -77.393504)
(-1400.4538 -438.40462 -83.614897)
(-1532.8284 -454.48015 -88.912432)
(-1672.1587 -467.18373 -93.098671)
(-1817.6645 -476.22738 -96.089597)
(-1968.462 -481.56176 -97.714169)
(-2123.5234 -482.93158 -97.946823)
(-2281.978 -480.37805 -97.105348)
(-2442.9095 -474.24331 -94.515943)
(-2604.8919 -464.36633 -90.957982)
(-2767.3672 -451.40521 -86.557585)
(-2929.4634 -435.19914 -81.199436)
(-3090.3555 -416.70042 -75.337213)
(-3249.5249 -395.65645 -68.990383)
(-3406.27 -372.949 -62.792717)
(-3560.5237 -349.03574 -56.539723)
(-3711.9182 -323.59623 -50.950071)
(-3860.2601 -298.34438 -46.016647)
(-4003.3261 -272.1547 -41.884869)
(-7.2317705 22.971424 29.034191)
(-30.724433 36.194645 18.932041)
(-50.711243 49.031469 19.026142)
(-73.843588 59.352728 10.035409)
(-99.756239 68.254146 5.6322493)
(-124.69978 76.186543 -0.7879322)
(-150.90512 81.695928 -4.9486849)
(-175.49636 87.001912 -8.7616624)
(-199.70749 90.45824 -11.011951)
(-222.76307 94.580532 -12.45212)
(-244.65126 97.440274 -12.438253)
(-265.86929 101.55966 -11.853877)
(-286.55969 105.82401 -10.162329)
(-307.63824 111.24303 -8.164545)
(-329.27418 118.17322 -5.7454569)
(-352.51873 126.46509 -3.2685867)
(-378.06771 136.99568 -1.0164418)
(-406.62868 149.37156 0.89270675)
(-439.31984 164.35765 2.1049674)
(-476.69038 181.63202 2.6333692)
(-519.72119 201.74124 2.1479369)
(-569.28235 224.34669 0.74925351)
(-625.82267 249.95425 -1.901965)
(-690.3595 278.23215 -5.5538376)
(-762.94516 309.16787 -10.227726)
(-844.33651 342.71055 -15.76122)
(-934.44594 378.66052 -22.434673)
(-1034.393 417.11389 -29.817635)
(-1143.699 457.55086 -37.646896)
(-1262.2899 499.73459 -46.050588)
(-1390.0627 543.47974 -54.630208)
(-1526.4747 588.33215 -63.264923)
(-1671.2135 633.956 -71.76389)
(-1823.4337 679.8465 -79.872906)
(-1982.5318 725.67031 -87.505221)
(-2147.4739 770.88557 -94.505447)
(-2317.1331 814.96519 -100.39008)
(-2490.8513 857.57991 -105.91399)
(-2667.2898 898.66014 -110.08063)
(-2844.9971 937.07766 -113.40972)
(-3023.3123 973.30121 -115.78513)
(-3200.7952 1006.8321 -117.25692)
(-3376.5741 1037.4657 -117.92759)
(-3549.4972 1065.3243 -117.76079)
(-3719.0133 1090.4053 -117.03178)
(-3884.0366 1112.9664 -115.63703)
(-4059.7624 1137.3749 -114.27866)
(0 0 0)
(0 0 0)
(0 0 0)
(0 0 0)
(0 0 0)
(0 0 0)
(0 0 0)
(-14.404243 16.464829 -25.038834)
(-27.937194 46.749361 -30.158656)
(-42.872133 45.887487 -29.097356)
(-63.058279 63.955694 -29.202047)
(-85.565441 69.641119 -28.604581)
(-106.1735 76.931685 -26.538451)
(-130.54081 82.778308 -26.337201)
(-150.73055 85.30584 -24.982973)
(-173.9338 90.529046 -25.467809)
(-193.62722 91.659969 -25.0349)
(-214.08366 96.864571 -26.599444)
(-233.73845 99.785641 -27.405966)
(-252.66545 105.88738 -30.100632)
(-272.1572 112.85215 -32.886108)
(-292.46878 121.6481 -36.464402)
(-313.9722 133.26409 -41.024068)
(-338.05735 146.62236 -46.019248)
(-364.73969 163.14766 -52.069174)
(-395.52644 181.98386 -58.6576)
(-430.68098 203.67098 -66.021843)
(-471.39423 227.97795 -73.988121)
(-518.16269 254.86423 -82.501663)
(-571.96028 284.20853 -91.409834)
(-633.20094 315.78227 -100.64)
(-702.88355 349.7785 -109.79853)
(-782.35937 385.57849 -118.31759)
(-869.81519 423.0386 -127.11518)
(-966.49931 462.00296 -135.63653)
(-1072.5992 501.91705 -143.58526)
(-1188.0651 542.50428 -150.68689)
(-1312.7579 583.53821 -156.78846)
(-1446.292 624.68542 -161.83988)
(-1588.0848 665.60747 -165.62652)
(-1737.7414 706.05925 -168.04678)
(-1894.1099 745.72566 -169.14518)
(-2057.6532 784.96297 -168.8238)
(-2224.5588 821.25244 -167.24404)
(-2395.9792 858.34367 -164.15235)
(-2570.1054 892.12899 -160.2316)
(-2746.1512 924.89503 -155.07789)
(-2922.7353 955.55148 -149.26154)
(-3098.6102 984.50732 -143.04175)
(-3272.8352 1011.2397 -136.47814)
(-3444.3745 1036.1645 -130.02269)
(-3612.37 1059.0944 -123.89733)
(-3776.1238 1080.2714 -118.30114)
(-3919.1935 1095.4126 -113.20766)
(-4367.4687 1000.1223 -106.02279)
(-4418.8797 817.78948 -97.005697)
(-4245.7453 602.68545 -84.133397)
(-3946.5556 392.86683 -70.240854)
(-3765.2823 217.01136 -59.309602)
(-3772.4146 60.555329 -51.674965)
(-3997.3368 -100.13896 -46.126391)
(-3955.259 -296.76637 -40.020216)
(-3821.532 -324.03244 -42.181122)
(-3670.7885 -348.92797 -43.716371)
(-3516.8562 -372.53381 -44.94132)
(-3359.6707 -394.42775 -45.454231)
(-3199.7096 -413.99898 -45.328391)
(-3037.2689 -430.94939 -44.430661)
(-2872.8821 -444.91348 -42.629509)
(-2707.2608 -455.61618 -39.867297)
(-2541.2819 -463.13907 -36.164047)
(-2372.1453 -466.36269 -31.293712)
(-2213.3476 -465.69514 -26.505688)
(-2049.9021 -462.98173 -19.226227)
(-1892.4901 -455.50222 -12.257166)
(-1739.0034 -445.05055 -4.176162)
(-1591.2626 -431.51426 4.0722037)
(-1450.0784 -415.19312 12.57742)
(-1316.2819 -396.46717 20.996994)
(-1190.5477 -375.87191 29.17691)
(-1073.5054 -353.65121 36.742943)
(-965.49168 -330.55745 43.6414)
(-866.78227 -306.8006 49.520257)
(-777.53465 -283.02887 54.20948)
(-697.37554 -259.59708 57.708558)
(-626.15984 -237.00212 59.93832)
(-563.46463 -215.50186 60.727909)
(-508.65629 -195.51164 60.23773)
(-461.0195 -177.17095 58.455882)
(-419.82901 -160.73172 55.570247)
(-384.1449 -146.21349 51.668028)
(-353.09107 -133.69586 47.028069)
(-325.853 -123.05878 41.900448)
(-302.15512 -114.66037 36.474448)
(-278.6749 -107.23528 30.992458)
(-257.4943 -101.08956 25.676634)
(-236.82134 -96.567204 21.045564)
(-216.21751 -92.448142 17.28955)
(-195.04462 -88.552619 13.972571)
(-172.9153 -85.026395 12.613756)
(-151.17619 -80.769692 11.064057)
(-128.71649 -76.976468 11.859364)
(-104.82023 -69.164072 12.832197)
(-83.309875 -63.903585 15.254662)
(-60.608426 -54.094821 17.987042)
(-41.769053 -44.562089 19.989297)
(-23.566928 -31.754494 21.771576)
(-18.763309 -22.405719 16.105262)
(0 0 0)
(0 0 0)
(0 0 0)
(0 0 0)
(0 0 0)
(0 0 0)
(0 0 0)
(0 0 0)
(0 0 0)
(0 0 0)
(0 0 0)
(0 0 0)
(0 0 0)
(0 0 0)
(-4231.0758 1161.6444 -112.66477)
(-4221.0924 1159.4771 -112.40749)
(-4211.2526 1157.0822 -112.61744)
(-4201.3124 1154.5914 -112.51749)
(-4191.2451 1151.5993 -112.41788)
(-4181.0989 1147.9041 -112.23402)
(-4170.5587 1143.8558 -111.27114)
(-4265.4086 -257.25242 -39.570779)
(-4256.146 -260.72119 -39.773936)
(-4246.6669 -263.8462 -39.871596)
(-4236.8401 -266.55237 -39.768554)
(-4226.7375 -269.13575 -39.526406)
(-4216.438 -271.62459 -39.363556)
(-4206.2166 -274.00497 -39.195195)
(-6.539543 -11.273878 -18.046954)
(-21.436477 -17.841076 -13.911946)
(-37.61291 -26.456667 -15.65061)
(-57.949767 -33.690384 -13.60894)
(-79.402775 -39.808565 -11.616068)
(-104.10082 -45.957915 -9.5103577)
(-128.30889 -50.327317 -7.050664)
(-154.69829 -55.17626 -5.0308016)
(-180.72868 -58.839609 -2.5114929)
(-207.22852 -62.792206 -0.87279692)
(-233.73917 -66.684505 0.88000628)
(-260.39603 -70.99621 2.3279854)
(-287.33387 -76.594852 3.0514301)
(-314.90722 -82.885061 3.5274851)
(-343.71686 -90.941245 3.0778167)
(-374.26014 -100.5738 2.0367225)
(-407.62269 -112.16068 0.11878205)
(-444.40137 -125.69725 -2.7203877)
(-485.92968 -141.16949 -6.4645468)
(-532.95954 -158.36446 -11.221465)
(-586.67011 -177.01937 -16.836119)
(-647.82329 -196.7176 -23.31915)
(-717.31398 -216.90623 -30.469718)
(-795.55006 -237.03172 -38.175265)
(-883.00397 -256.46235 -46.170699)
(-979.69976 -274.56809 -54.16701)
(-1085.3954 -290.87742 -62.056123)
(-1199.6855 -304.74998 -69.470395)
(-1321.7811 -315.85805 -76.198788)
(-1450.8299 -323.7788 -82.034021)
(-1585.7243 -328.41827 -86.817241)
(-1725.2969 -329.57023 -90.450327)
(-1868.3281 -327.4259 -92.789676)
(-2013.5191 -321.98779 -93.823438)
(-2159.8854 -313.51107 -93.771943)
(-2306.1421 -302.43508 -92.368263)
(-2451.6326 -288.81389 -89.983024)
(-2595.5274 -273.25933 -86.81783)
(-2737.4506 -256.03068 -82.840151)
(-2876.9587 -237.50375 -78.433574)
(-3014.1411 -218.08838 -73.581998)
(-3149.0154 -197.87484 -68.735902)
(-3282.0425 -177.45713 -63.799184)
(-3413.5187 -156.76191 -59.11508)
(-3544.3301 -135.99645 -54.797592)
(-3674.8336 -115.74981 -50.799492)
(-3821.8205 -95.385993 -47.40865)
(-3.0972681 -7.4047554 -11.535766)
(-16.364551 -9.2564853 -9.886904)
(-33.022069 -16.802928 -11.749057)
(-52.175407 -20.303456 -10.184151)
(-74.939827 -25.417066 -9.7699664)
(-98.273052 -29.376739 -7.9185004)
(-124.06754 -33.125158 -7.2071231)
(-150.72669 -36.605746 -4.8787988)
(-177.83561 -39.261132 -4.2655138)
(-205.46971 -42.415203 -2.4032473)
(-233.42115 -45.072417 -1.1499428)
(-261.17835 -48.672162 0.016740745)
(-289.2441 -52.48823 0.91780075)
(-317.61892 -57.161538 1.393093)
(-346.91379 -63.05103 1.3639384)
(-377.77044 -70.165562 0.86257473)
(-410.86223 -78.702321 -0.51997041)
(-447.38369 -88.572594 -2.6437279)
(-488.20233 -99.706505 -5.7223663)
(-534.64226 -111.82881 -9.7356346)
(-587.58 -124.69027 -14.676612)
(-648.21981 -137.83859 -20.470571)
(-716.96001 -150.70683 -27.102293)
(-794.72933 -162.97726 -34.246625)
(-881.49761 -173.94367 -41.797027)
(-977.23723 -183.25708 -49.519768)
(-1081.4966 -190.37651 -57.212056)
(-1193.7425 -194.94974 -64.505384)
(-1312.9348 -196.80347 -71.19303)
(-1438.0794 -195.82219 -77.115913)
(-1567.8651 -191.96321 -82.05297)
(-1701.1651 -185.34901 -85.900391)
(-1836.5961 -176.2356 -88.504286)
(-1973.2746 -164.72792 -90.093946)
(-2109.942 -151.37703 -90.35006)
(-2246.0723 -136.25341 -89.714353)
(-2381.0776 -119.84694 -88.017586)
(-2514.5206 -102.55587 -85.630754)
(-2646.4778 -84.419965 -82.538661)
(-2776.9741 -65.967823 -79.048629)
(-2906.6545 -47.184381 -75.159853)
(-3035.6566 -28.348486 -71.261334)
(-3165.1475 -9.6040431 -67.203093)
(-3295.2823 9.0493818 -63.385357)
(-3427.6661 27.692273 -59.821954)
(-3562.1935 45.959187 -56.373187)
(-3707.1034 65.120183 -53.604889)
(-1.1540695 -3.6514259 -7.3098851)
(-16.504017 -5.9652691 -6.0974434)
(-32.72952 -8.9668501 -7.4893189)
(-55.3658 -11.674215 -6.9983017)
(-78.721981 -13.737533 -6.9762768)
(-105.87108 -16.27697 -6.5387158)
(-133.06626 -17.360277 -5.5242141)
(-161.45852 -19.086616 -5.3735741)
(-189.68232 -19.935544 -4.5386189)
(-218.25232 -21.181877 -3.3823417)
(-245.55036 -22.60121 -2.8786415)
(-272.87365 -24.124248 -1.8203044)
(-299.51006 -26.351999 -1.1517607)
(-326.16423 -29.034689 -0.57878626)
(-353.26077 -32.596396 -0.42034715)
(-381.33662 -36.812982 -0.68267555)
(-411.60251 -41.771353 -1.6635993)
(-444.6276 -47.384346 -3.196682)
(-481.74154 -53.419129 -5.6767634)
(-523.60829 -59.761476 -8.9293329)
(-571.44823 -66.130997 -13.050608)
(-625.8131 -72.049179 -18.070446)
(-687.77693 -77.479826 -23.765536)
(-757.52396 -81.768227 -30.025757)
(-835.25466 -84.749722 -36.865888)
(-921.36526 -86.123912 -43.834458)
(-1015.4174 -85.56807 -50.810007)
(-1117.1353 -83.101121 -57.561999)
(-1225.8727 -78.582139 -63.958572)
(-1340.9882 -71.906377 -69.823923)
(-1461.8326 -63.182853 -74.935378)
(-1587.6296 -52.476041 -79.206929)
(-1717.6504 -39.964311 -82.611254)
(-1851.2371 -25.80024 -85.008981)
(-1987.777 -10.219909 -86.503091)
(-2126.9408 6.6021903 -87.06012)
(-2268.1659 24.396351 -86.804304)
(-2411.4736 43.063132 -85.791142)
(-2556.6485 62.335605 -84.100925)
(-2703.6485 81.960215 -82.005257)
(-2852.7291 102.13109 -79.484462)
(-3003.7803 122.40135 -76.843638)
(-3157.5988 142.95361 -73.858882)
(-3313.6672 163.72597 -71.220611)
(-3473.2887 184.69409 -68.275616)
(-3635.6333 205.73421 -65.763414)
(-3795.2777 226.96375 -63.132656)
(-1.4389902 -0.74704545 -1.8630576)
(-19.286983 -0.76329568 -0.86593378)
(-39.63623 -1.8393725 -2.438593)
(-64.671611 -1.5413098 -3.1576374)
(-93.321036 -1.033679 -4.4591498)
(-121.96264 -0.75200339 -4.5740851)
(-151.92368 0.86197282 -5.9763034)
(-180.71658 1.1439375 -5.6390895)
(-209.39671 2.5360404 -5.6747344)
(-236.09569 2.7234536 -5.5667459)
(-261.87116 3.5560376 -4.94084)
(-286.38911 3.3880384 -4.0338497)
(-309.68475 3.0553285 -3.4486344)
(-333.0201 2.6209292 -2.771366)
(-356.02996 1.4061643 -2.268184)
(-380.43205 0.29648625 -2.2530315)
(-406.1757 -1.242652 -2.5849698)
(-434.73895 -2.6898781 -3.6122108)
(-466.48025 -4.0413744 -5.2478333)
(-502.60065 -5.214667 -7.5132865)
(-543.60285 -5.8444718 -10.512807)
(-590.56718 -5.9597807 -14.213654)
(-643.38544 -5.0017679 -18.490357)
(-702.95401 -3.2868981 -23.422749)
(-769.76631 -0.46335656 -28.702955)
(-843.88907 3.5985439 -34.400211)
(-925.53685 9.0554502 -40.483176)
(-1014.976 16.028809 -46.68006)
(-1112.3208 24.591761 -52.882917)
(-1217.5759 34.822068 -58.937592)
(-1330.7999 46.676561 -64.675129)
(-1451.9192 60.348822 -70.090588)
(-1580.793 75.528593 -74.86765)
(-1717.4283 92.542861 -79.130719)
(-1861.4801 110.97209 -82.607148)
(-2012.8215 130.97756 -85.434534)
(-2171.1789 152.40081 -87.411692)
(-2336.1553 175.03265 -88.659317)
(-2507.1978 198.76283 -89.147853)
(-2684.3288 223.61416 -88.995146)
(-2866.5821 249.26187 -88.17009)
(-3053.5893 275.53548 -86.859837)
(-3244.6784 302.43452 -85.07675)
(-3438.7134 329.64324 -83.143938)
(-3635.8577 357.06813 -80.751631)
(-3833.7269 384.4939 -78.708296)
(-4017.806 410.72125 -76.122729)
(-1.0484498 2.4055831 4.1027358)
(-23.914926 3.4862376 4.3557019)
(-45.687874 6.58278 1.7757914)
(-76.526299 10.042243 -0.15399863)
(-106.11709 14.120498 -2.4339202)
(-138.05526 17.310843 -4.4576717)
(-168.09055 21.294094 -5.9443006)
(-197.6604 23.639145 -6.261483)
(-224.43998 26.930728 -7.1089464)
(-249.59494 28.904748 -6.6380725)
(-272.48559 31.202213 -5.8857016)
(-293.81102 32.461013 -5.1994932)
(-313.96165 34.387132 -4.2749597)
(-333.48366 35.455002 -3.3320098)
(-353.18165 36.864083 -2.7159483)
(-373.77324 38.20813 -2.3240374)
(-396.04146 39.706522 -2.3618138)
(-420.5943 41.519305 -2.9231404)
(-448.32294 43.658954 -4.006705)
(-479.6786 46.378119 -5.7665462)
(-515.54336 49.481789 -8.0840105)
(-557.98062 53.979024 -11.31198)
(-606.86021 59.025074 -15.021893)
(-659.29459 64.972971 -19.254205)
(-718.21248 72.029276 -24.094861)
(-784.32424 80.369281 -29.374619)
(-858.09491 90.044119 -34.9857)
(-940.11888 101.15201 -40.809866)
(-1030.8271 113.8312 -46.824473)
(-1130.78 128.15757 -52.936538)
(-1240.4615 144.28791 -59.052587)
(-1360.2122 162.36038 -65.074337)
(-1490.3904 182.22075 -70.776324)
(-1631.2593 204.32179 -76.279992)
(-1782.6803 228.09228 -81.162765)
(-1944.9448 254.06527 -85.58411)
(-2117.4803 281.71493 -89.313826)
(-2299.9373 311.28634 -92.313952)
(-2504.15 344.01856 -94.894556)
(-2712.5792 377.38149 -96.66388)
(-2922.1935 411.04283 -97.36922)
(-3137.8713 445.49617 -97.381897)
(-3357.6309 480.32078 -96.725411)
(-3579.8771 515.21843 -95.584206)
(-3803.0132 549.75701 -93.944055)
(-4024.5662 583.85334 -92.356811)
(-4229.0884 614.70668 -89.913284)
(-2.7141666 7.3703764 12.716573)
(-27.15656 12.631101 9.3328207)
(-51.658179 19.055879 7.4751586)
(-82.154223 26.489804 3.169365)
(-112.69657 32.450519 -0.51425285)
(-143.46507 38.257078 -3.8941467)
(-173.11552 43.295917 -6.1883484)
(-200.74722 47.243959 -7.9757087)
(-226.23448 51.420519 -8.8203837)
(-249.38033 54.155763 -8.6394374)
(-270.67678 57.501546 -8.1828434)
(-290.13973 60.072007 -7.1930487)
(-308.69801 63.127223 -5.8396922)
(-326.8611 65.989554 -4.6056816)
(-345.32183 69.367442 -3.2883182)
(-365.01269 72.992253 -2.3841822)
(-386.34882 77.263325 -1.7404415)
(-410.30069 82.064676 -1.6954352)
(-437.31281 87.753532 -2.1457242)
(-468.20283 94.165775 -3.2504289)
(-503.35443 101.66416 -4.8804705)
(-544.9553 109.9822 -7.573375)
(-590.48486 119.6081 -10.167551)
(-642.87243 130.97325 -14.019198)
(-701.27902 143.29432 -18.190794)
(-767.14343 157.03035 -22.939897)
(-841.07595 172.21497 -28.315378)
(-923.64868 189.2547 -34.095553)
(-1015.5655 207.98264 -40.288552)
(-1117.5019 228.79698 -46.849466)
(-1229.9591 251.7115 -53.630922)
(-1353.3871 276.7493 -60.552084)
(-1488.2335 304.02699 -67.419875)
(-1634.6055 333.56805 -74.222575)
(-1792.5794 365.01373 -80.49222)
(-1962.1943 398.7966 -86.584338)
(-2142.5542 434.17556 -91.823788)
(-2333.5932 471.212 -96.52659)
(-2534.3108 509.83186 -100.24335)
(-2761.458 552.79444 -103.88129)
(-2976.663 591.97112 -105.64951)
(-3197.0326 631.59257 -106.74342)
(-3420.1699 670.67842 -106.89069)
(-3644.0626 709.01142 -106.35788)
(-3866.5536 745.81939 -105.11229)
(-4085.4435 781.25313 -103.46312)
(-4293.3572 813.31398 -101.31831)
(-3.7241051 11.496286 17.787731)
(-28.377528 18.635535 14.581777)
(-51.094386 29.86885 12.148757)
(-80.177872 39.250043 6.3655394)
(-107.5 47.566373 1.6879586)
(-137.12721 54.988992 -2.9198488)
(-164.3321 61.230908 -6.1616494)
(-191.11364 66.399391 -8.7540976)
(-215.53245 71.306449 -9.9434701)
(-238.384 75.009296 -10.418732)
(-259.54372 79.688234 -10.164489)
(-279.19083 83.146557 -8.7281764)
(-298.52668 87.899311 -7.5228417)
(-317.29188 92.492742 -5.6249403)
(-337.05658 98.17736 -4.0021021)
(-357.81575 104.46255 -2.3746434)
(-380.86234 111.8708 -1.2318071)
(-406.57044 120.36813 -0.4747501)
(-435.86584 130.11827 -0.37999244)
(-469.3388 141.25529 -0.9210732)
(-507.79282 153.78597 -2.2592235)
(-551.61662 168.02292 -4.4043554)
(-602.10036 183.85514 -7.2898449)
(-659.08379 201.70109 -11.060215)
(-723.60724 221.32075 -15.489286)
(-796.00504 242.936 -20.727964)
(-876.86766 266.67322 -26.675589)
(-967.08651 292.30244 -33.079056)
(-1066.8361 320.12219 -40.034962)
(-1176.5262 350.21913 -47.367392)
(-1296.3682 382.40311 -54.961311)
(-1426.5324 416.68086 -62.633783)
(-1567.0225 452.90361 -70.242097)
(-1717.6195 490.87188 -77.617001)
(-1878.0659 530.18993 -84.504286)
(-2047.7902 571.03286 -91.08588)
(-2225.8272 612.27494 -96.645236)
(-2411.8105 654.30915 -101.7014)
(-2603.9279 696.12404 -105.64195)
(-2801.482 737.66578 -108.84566)
(-3002.2599 778.07273 -111.06535)
(-3205.2231 817.29756 -112.41444)
(-3408.6738 854.88618 -112.87705)
(-3610.8687 890.42148 -112.59396)
(-3810.0592 923.62989 -111.59221)
(-4004.937 954.70641 -110.21036)
(-4188.5864 981.78295 -108.21661)
(0 0 0)
(0 0 0)
(0 0 0)
(0 0 0)
(0 0 0)
(0 0 0)
(0 0 0)
(0 0 0)
(0 0 0)
(0 0 0)
(0 0 0)
(0 0 0)
(0 0 0)
(0 0 0)
(0 0 0)
(0 0 0)
(0 0 0)
(0 0 0)
(0 0 0)
(0 0 0)
(0 0 0)
(0 0 0)
(0 0 0)
(0 0 0)
(0 0 0)
(0 0 0)
(0 0 0)
(0 0 0)
(0 0 0)
(0 0 0)
(0 0 0)
(0 0 0)
(0 0 0)
(0 0 0)
(0 0 0)
(0 0 0)
(0 0 0)
(0 0 0)
(0 0 0)
(0 0 0)
(0 0 0)
(0 0 0)
(0 0 0)
(0 0 0)
(0 0 0)
(0 0 0)
(0 0 0)
(0 0 0)
(0 0 0)
(-16.705219 8.6546719 13.576451)
(-18.719147 11.160187 8.1253192)
(-21.479548 11.174338 2.8700775)
(-22.261913 11.571037 -1.0962309)
(-21.534489 10.583803 -4.9321734)
(-20.778832 11.179793 -8.5921225)
(-18.023053 7.9382496 -13.571439)
(-37.586742 41.069394 14.997562)
(-40.554786 44.718395 5.6297658)
(-41.083957 40.790212 0.26681277)
(-40.866129 38.911783 -4.6218557)
(-40.799993 40.91317 -8.7903572)
(-37.849014 40.176461 -14.43431)
(-35.393648 40.513058 -22.391026)
(-53.669815 48.33805 11.107403)
(-57.363971 45.443083 6.5539729)
(-59.509957 47.574452 -1.4618203)
(-58.503343 46.663801 -6.3112645)
(-57.380929 45.129112 -12.722919)
(-54.318298 45.156888 -16.855795)
(-50.785745 48.548359 -25.24542)
(-77.928403 64.19432 5.177691)
(-78.766288 65.16078 0.88963778)
(-79.076225 64.202273 -5.0605118)
(-78.187841 63.007607 -9.2634278)
(-76.64957 62.740221 -14.232702)
(-73.453141 63.844005 -19.866369)
(-69.061607 62.750058 -24.314526)
(-100.57904 71.700919 1.2502755)
(-101.53543 71.11874 -2.2780424)
(-102.14285 71.096082 -7.1326629)
(-100.48943 70.168872 -11.684267)
(-98.563201 70.197393 -15.919406)
(-95.172913 69.512359 -20.0928)
(-91.195613 70.638576 -25.014048)
(-125.11964 79.841288 -4.4188937)
(-124.48144 79.796393 -6.7490039)
(-123.85659 79.249835 -10.974062)
(-121.79534 78.864344 -13.486549)
(-119.5684 77.897984 -17.623851)
(-116.37212 78.013945 -21.049975)
(-111.85232 77.795643 -24.024653)
(-150.09735 84.543122 -7.5112185)
(-148.86356 84.071268 -10.318504)
(-147.44586 84.53671 -12.923598)
(-145.23275 83.49717 -15.692504)
(-142.37603 83.525164 -18.707165)
(-138.84745 83.45226 -21.234107)
(-134.93216 83.36476 -23.936159)
(-173.5502 88.922399 -11.175832)
(-171.90607 89.264831 -12.178901)
(-170.33712 88.776309 -15.082165)
(-167.17601 88.113264 -16.899327)
(-164.34482 87.408244 -19.254297)
(-160.45242 86.529651 -21.622801)
(-156.18899 85.970322 -23.614179)
(-197.79809 92.400656 -12.616074)
(-195.32524 91.482328 -14.639108)
(-192.56094 91.232747 -16.64712)
(-189.57184 91.057835 -17.955738)
(-186.37693 91.045449 -20.189392)
(-182.47614 90.872791 -21.925132)
(-178.05222 90.634683 -23.635278)
(-219.79993 94.617159 -14.139566)
(-217.32529 94.896264 -15.148956)
(-214.64214 94.479887 -16.770171)
(-211.48245 94.387126 -18.895571)
(-207.67098 93.068113 -20.468665)
(-203.46112 92.614813 -22.443026)
(-198.91704 91.623319 -23.964028)
(-242.11595 97.922803 -14.1236)
(-239.16977 97.153449 -15.47048)
(-236.45128 96.926467 -17.847234)
(-232.52112 96.162399 -19.063267)
(-228.55844 95.893619 -21.251055)
(-223.98103 96.024796 -22.958207)
(-219.03247 95.85082 -24.411923)
(-263.00606 100.52907 -13.479743)
(-260.59239 100.37537 -15.417488)
(-257.15839 100.17941 -17.102485)
(-253.47275 100.6205 -19.346326)
(-249.28192 99.898973 -21.584016)
(-244.15481 99.663819 -23.483701)
(-239.2199 98.989427 -25.527716)
(-284.55066 105.23449 -12.350087)
(-281.64131 104.56456 -14.47692)
(-278.58033 104.71053 -17.115736)
(-274.63647 104.15205 -19.54199)
(-270.07275 103.61675 -22.212516)
(-264.64569 104.23336 -24.7255)
(-258.9254 103.55124 -27.18216)
(-305.8931 109.94013 -10.730039)
(-303.27814 109.7868 -13.625949)
(-300.32117 110.06504 -16.535981)
(-295.98076 110.30053 -19.67736)
(-291.10603 110.41412 -23.020303)
(-285.30691 110.66346 -26.0215)
(-278.97466 110.51946 -29.434584)
(-328.28716 117.1591 -8.9956427)
(-326.02736 117.10647 -12.660765)
(-322.90118 117.52907 -16.23026)
(-318.56362 117.80086 -20.25937)
(-313.54536 117.59992 -24.153043)
(-307.09035 118.38652 -28.117667)
(-300.09639 118.35391 -32.194753)
(-352.39268 125.56722 -7.3040009)
(-350.25995 125.88778 -11.76944)
(-347.30672 126.82777 -16.17533)
(-342.90287 127.43322 -20.924615)
(-337.28645 127.93543 -25.893781)
(-330.35459 128.99167 -30.502524)
(-322.56585 129.37064 -35.742568)
(-378.64264 136.52207 -5.8814689)
(-376.94378 137.35651 -11.323156)
(-374.1034 138.51926 -16.486339)
(-369.46602 139.34961 -22.37596)
(-363.65981 140.06742 -28.07416)
(-356.11823 141.31562 -33.702118)
(-347.48645 142.10111 -39.931851)
(-408.24219 149.5948 -4.9625528)
(-406.77193 150.90951 -11.230937)
(-404.01686 152.51464 -17.522438)
(-399.26684 153.85685 -24.205)
(-392.99289 154.97762 -30.921206)
(-384.79083 156.69244 -37.54221)
(-375.28262 157.8609 -44.875108)
(-441.65951 165.34429 -4.6387532)
(-440.47153 167.1994 -11.973445)
(-437.90173 169.30988 -19.1317)
(-432.86252 170.90785 -26.853757)
(-426.29545 172.42001 -34.574083)
(-417.39681 174.40255 -42.111752)
(-407.0265 176.10412 -50.529535)
(-479.88476 183.62343 -5.1804792)
(-478.97712 186.11711 -13.401279)
(-476.39801 188.63835 -21.54994)
(-471.21966 190.77802 -30.295067)
(-464.17246 192.65752 -38.897148)
(-454.54575 195.12119 -47.439387)
(-443.28018 197.11713 -56.932079)
(-523.70518 204.76574 -6.5783055)
(-522.90075 207.84799 -15.769308)
(-520.41011 210.91698 -24.88798)
(-514.9315 213.32248 -34.509731)
(-507.43245 215.65547 -44.084678)
(-497.13836 218.35831 -53.464647)
(-484.96511 220.82486 -64.005607)
(-573.78679 228.63606 -9.0272537)
(-573.1325 232.35998 -19.111846)
(-570.57254 235.76413 -29.046921)
(-564.8064 238.68494 -39.56592)
(-556.89845 241.35864 -49.988278)
(-545.81634 244.4509 -60.218383)
(-532.74458 247.23264 -71.739391)
(-630.90661 255.35533 -12.564047)
(-630.31462 259.59307 -23.402862)
(-627.59075 263.48071 -34.140519)
(-621.55373 266.75381 -45.409018)
(-613.08014 269.86299 -56.65932)
(-601.30207 273.19439 -67.533482)
(-587.41297 276.22275 -79.946175)
(-695.72046 284.73552 -17.116914)
(-695.06094 289.64872 -28.619922)
(-692.05543 293.74075 -40.023766)
(-685.70982 297.52476 -51.967284)
(-676.81074 300.69484 -63.836434)
(-664.36297 304.25286 -75.378474)
(-649.60377 307.50311 -88.595005)
(-768.54851 316.82003 -22.479381)
(-767.94703 322.09977 -34.733744)
(-764.5173 326.39787 -46.632165)
(-758.09412 330.53553 -59.230687)
(-748.32521 334.03824 -71.543373)
(-735.3425 338.11168 -83.63397)
(-719.72613 341.56549 -97.29258)
(-850.03855 351.40368 -28.770254)
(-849.25852 356.91492 -41.545757)
(-845.411 361.67017 -53.804291)
(-838.35992 365.9639 -67.403471)
(-828.07341 369.59464 -79.181356)
(-815.0587 373.74656 -92.001656)
(-798.96139 377.22457 -105.47077)
(-940.20525 388.21523 -35.801855)
(-939.31285 394.02576 -48.690157)
(-935.0409 399.08051 -61.683804)
(-928.28199 403.55618 -74.656234)
(-917.44456 407.36529 -87.644905)
(-903.68602 411.36557 -100.79981)
(-886.57899 414.97295 -114.01805)
(-1040.0652 427.24265 -43.379953)
(-1038.3745 433.27682 -56.83757)
(-1034.2235 438.38537 -69.866172)
(-1026.2666 442.72209 -83.003196)
(-1015.4509 446.46049 -96.329424)
(-1001.0372 450.5252 -109.02724)
(-983.68789 454.09596 -122.69247)
(-1148.8232 468.04219 -51.508947)
(-1146.934 474.23573 -65.282242)
(-1141.9318 479.2644 -77.952358)
(-1133.9923 483.64075 -91.489072)
(-1122.5604 487.48268 -104.39928)
(-1107.8531 491.23869 -117.25649)
(-1090.0434 494.68262 -130.80059)
(-1266.9339 510.51179 -60.012717)
(-1264.3416 516.52486 -73.671253)
(-1259.0674 521.54528 -86.274188)
(-1250.5637 525.75804 -99.655491)
(-1238.7719 529.38137 -112.37725)
(-1223.7863 532.90305 -125.03576)
(-1205.6839 536.07839 -138.31656)
(-1393.8124 554.14764 -68.472637)
(-1390.791 560.0473 -82.03361)
(-1384.8805 564.79058 -94.337034)
(-1376.0224 568.77732 -107.51248)
(-1363.9072 572.14369 -119.78044)
(-1348.7282 575.31201 -132.17529)
(-1330.4644 578.12842 -144.93089)
(-1529.3442 598.75469 -76.866542)
(-1525.6735 604.22922 -90.117275)
(-1519.2668 608.69251 -102.00033)
(-1510.0809 612.34392 -114.72026)
(-1497.6814 615.39024 -126.51705)
(-1482.4155 618.11894 -138.43659)
(-1464.115 620.4519 -150.63581)
(-1672.8811 643.76579 -84.894677)
(-1668.6102 648.80342 -97.694059)
(-1661.6882 652.84612 -109.01459)
(-1652.1472 656.07481 -121.23138)
(-1639.5342 658.70455 -132.38765)
(-1624.2706 660.9242 -143.75871)
(-1606.032 662.74082 -155.21924)
(-1823.8093 688.88408 -92.406608)
(-1818.918 693.34422 -104.60569)
(-1811.491 696.91522 -115.28903)
(-1801.6778 699.63588 -126.79714)
(-1788.9339 701.81075 -137.22239)
(-1773.7785 703.40182 -147.897)
(-1755.7617 704.64989 -158.52199)
(-1981.3952 733.64019 -99.236196)
(-1975.867 737.49012 -110.68369)
(-1967.9945 740.43305 -120.57758)
(-1957.9205 742.6335 -131.35108)
(-1945.1522 744.29058 -140.99231)
(-1930.0837 745.38448 -150.96264)
(-1912.3477 745.90711 -160.52023)
(-2144.7092 777.68215 -105.29676)
(-2138.5675 780.78288 -115.86146)
(-2130.2543 783.18497 -124.99515)
(-2120.0045 784.75444 -134.82767)
(-2107.0802 785.93223 -143.50088)
(-2091.9491 785.74148 -152.55675)
(-2075.2798 785.9007 -161.01389)
(-2312.8778 820.25793 -110.26872)
(-2305.8971 822.81007 -119.7758)
(-2297.4602 824.40485 -128.01826)
(-2286.8002 825.57596 -136.82195)
(-2274.2503 825.81205 -144.7221)
(-2259.7747 826.24941 -152.67266)
(-2243.1832 825.02443 -160.73036)
(-2484.2498 862.00602 -114.38661)
(-2477.3943 863.33163 -122.93996)
(-2468.2537 864.43626 -130.16765)
(-2458.0117 864.9196 -138.05461)
(-2445.0953 864.80563 -144.88549)
(-2431.9233 863.65527 -152.28907)
(-2414.8619 862.55859 -158.71378)
(-2659.0686 901.02015 -117.54984)
(-2651.194 902.07105 -124.97023)
(-2642.0582 902.53527 -131.30464)
(-2631.262 902.31372 -138.13622)
(-2618.8932 901.72241 -144.03295)
(-2605.4394 900.49365 -150.03577)
(-2590.1347 898.79154 -155.75284)
(-2835.1101 938.53375 -119.58656)
(-2826.9013 938.69863 -125.99667)
(-2817.2688 938.45186 -131.20618)
(-2806.642 937.742 -137.08683)
(-2794.4648 936.73358 -141.79544)
(-2781.5091 934.76606 -147.13545)
(-2766.7199 932.47939 -151.59592)
(-3011.5536 973.26246 -120.85313)
(-3002.7799 972.86692 -125.91547)
(-2993.0436 972.03443 -130.32652)
(-2982.4005 970.83731 -135.05931)
(-2970.5172 969.32891 -139.01106)
(-2957.9955 966.90196 -143.22824)
(-2944.0272 964.26607 -146.71879)
(-3187.3034 1005.5975 -121.20477)
(-3178.1636 1004.562 -125.12596)
(-3168.282 1003.1835 -128.66412)
(-3157.6936 1001.6373 -132.35701)
(-3146.0696 999.6664 -135.38301)
(-3134.0859 996.94371 -138.70538)
(-3120.923 993.98857 -141.29555)
(-3361.388 1035.0817 -120.69665)
(-3351.9654 1033.6156 -123.59191)
(-3341.9407 1031.9152 -126.30333)