/*--------------------------------*- C++ -*----------------------------------*\
  =========                 |
  \\      /  F ield         | OpenFOAM: The Open Source CFD Toolbox
   \\    /   O peration     | Website:  https://openfoam.org
    \\  /    A nd           | Version:  6
     \\/     M anipulation  |
\*---------------------------------------------------------------------------*/
FoamFile
{
    version     2.0;
    format      ascii;
    class       pointVectorField;
    location    "0.91";
    object      u;
}
// * * * * * * * * * * * * * * * * * * * * * * * * * * * * * * * * * * * * * //

dimensions      [0 1 0 0 0 0 0];

internalField   nonuniform List<vector> 
625
(
(0 1.7981499e-19 0)
(0 1.5727284e-19 0)
(0.24410864 0.039038133 0.076574894)
(0.24174704 -0.028996134 0.090909206)
(0 2.3436777e-19 0)
(0 1.2298784e-18 0)
(0.22611761 -0.047210353 0.090558673)
(0.22849253 0.020702463 0.076332864)
(0 -2.7532408e-20 0)
(1.1918715e-19 -2.7685064e-19 0)
(0 5.6035287e-19 0)
(0.24347061 0.021980099 0.0801431)
(0.24278615 0.0051486582 0.083730496)
(0.24236761 -0.011887137 0.087356368)
(0.0004892135 0.0015679657 0.0015119807)
(0.0011420957 0.0035411452 0.001174776)
(0.0019162039 0.0058089921 0.002703295)
(0.0038031126 0.0083061792 0.0040465133)
(0.0058323692 0.010817985 0.0059261425)
(0.0096932139 0.013591062 0.0081642905)
(0.013860705 0.016477097 0.010642318)
(0.019667917 0.019232921 0.013389261)
(0.02661729 0.022312442 0.016385349)
(0.03480418 0.024976309 0.019474162)
(0.04431436 0.02783006 0.022793233)
(0.055117369 0.030381447 0.026231267)
(0.067115341 0.032748381 0.029804447)
(0.080245121 0.034878826 0.03349596)
(0.094404932 0.03668952 0.037315345)
(0.10944302 0.038202756 0.041241123)
(0.12522317 0.039339758 0.045299045)
(0.14160716 0.040168844 0.049452717)
(0.15839421 0.040646275 0.053734557)
(0.17549348 0.040751405 0.058104541)
(0.19273049 0.040672416 0.06258817)
(0.20995712 0.04028239 0.067161955)
(0.22713457 0.039653129 0.071829159)
(-0.0013312938 0.00075377654 -0.00035804973)
(-0.00033237086 0.00079899466 0.0015600277)
(0.00015275473 0.00062821497 0.0021066166)
(0.0021595886 -0.0001525614 0.0044920213)
(0.0042559659 -0.00024340178 0.0064804343)
(0.0081941869 -0.0022083881 0.0093998926)
(0.012365654 -0.002869476 0.012170951)
(0.018186983 -0.0048095277 0.015676367)
(0.025109565 -0.0066297566 0.019129738)
(0.033174219 -0.008415548 0.02305164)
(0.042754794 -0.010643763 0.027133248)
(0.053349971 -0.012659302 0.031420042)
(0.065303403 -0.01477735 0.035930308)
(0.078287693 -0.016825959 0.040588772)
(0.092348726 -0.018765145 0.045429621)
(0.10725528 -0.020577825 0.050359396)
(0.12295956 -0.02223186 0.055433122)
(0.13924189 -0.023708869 0.060532974)
(0.15601644 -0.024983646 0.065717231)
(0.17303364 -0.026073554 0.070850335)
(0.19030747 -0.027025037 0.076027828)
(0.20751733 -0.027767643 0.081045566)
(0.22477293 -0.028425066 0.08610694)
(0 1.654514e-19 0)
(-2.1330759e-18 -4.5896611e-19 0)
(0 1.1488313e-18 0)
(-0.0001391733 -0.00058914302 0.00072992742)
(-0.00042599616 -0.0039473642 0.002685729)
(-0.00023886564 -0.0042988854 0.0043656414)
(-0.0002328426 -0.0068912263 0.0066966911)
(0.001859065 -0.009708483 0.0098749747)
(0.0040527244 -0.011538311 0.012306198)
(0.0075035581 -0.014334357 0.016049571)
(0.012526612 -0.016982574 0.019281314)
(0.018260983 -0.019610459 0.023085695)
(0.025708249 -0.022565039 0.02697126)
(0.034049308 -0.025037079 0.030900623)
(0.043997903 -0.028031732 0.035139295)
(0.054919799 -0.030438295 0.03931071)
(0.067140894 -0.033066175 0.043685287)
(0.080390343 -0.035412672 0.048113781)
(0.094564856 -0.037568382 0.052618221)
(0.10960565 -0.039570459 0.057206836)
(0.12529539 -0.041291324 0.061857916)
(0.1415377 -0.042811559 0.066572991)
(0.15817943 -0.044057506 0.071312757)
(0.1750579 -0.045110237 0.076133233)
(0.19207935 -0.045924375 0.080925863)
(0.20912936 -0.046632039 0.08577794)
(0.2267384 -0.030176094 0.086997619)
(0.22719529 -0.013130228 0.083429824)
(0.22787756 0.0036806082 0.079912822)
(0.21155761 0.021328867 0.071440065)
(0.19448744 0.021934804 0.066519726)
(0.17741946 0.022335759 0.061631533)
(0.16044753 0.022594866 0.056733666)
(0.14370146 0.0225857 0.051909019)
(0.12731099 0.022360264 0.047159353)
(0.11144393 0.021835845 0.042527733)
(0.096216726 0.021028109 0.038027002)
(0.081819141 0.019956703 0.033684507)
(0.068328132 0.018603528 0.029519166)
(0.055913578 0.017034703 0.025525598)
(0.044646124 0.01524454 0.021768208)
(0.034602949 0.013398773 0.018141725)
(0.025793571 0.011352349 0.014867434)
(0.018367378 0.0093456325 0.011741314)
(0.012165462 0.0073511999 0.0089641178)
(0.0071920263 0.0057192516 0.0062777022)
(0.0035207698 0.003824739 0.0042813303)
(0.00064789254 0.0025944782 0.0021338842)
(-0.00082425159 0.0012087082 0.00094065423)
(-0.0017823208 0.00078770845 -0.00025329176)
(-0.002264424 -0.00039386693 -0.0011661704)
(-0.001052761 -1.4892163e-05 -0.00071564402)
(0 -2.9382856e-19 0)
(0 -3.0553296e-19 -6.3019227e-19)
(0 -9.0054663e-19 0)
(0 5.1196872e-19 0)
(0 -5.6648355e-20 1.806252e-19)
(0 3.8994503e-19 0)
(0.23784192 -0.033575573 0.090810466)
(0.23394268 -0.03813494 0.090705382)
(0.23000719 -0.042648606 0.09065697)
(0.24022295 0.034518409 0.076541528)
(0.23632346 0.02992021 0.076454216)
(0.23239304 0.025337127 0.07639453)
(-0.0054386112 -0.00078114062 0.0013648861)
(-0.0093401496 -0.00096885252 0.0013081461)
(-0.01272926 -0.00078445339 0.0029885763)
(-0.014213171 -0.00041444942 0.0041831309)
(-0.014101043 0.00081862328 0.006296036)
(-0.011137997 0.0023857443 0.0085802438)
(-0.0064416176 0.0044532753 0.011192526)
(0.0014074657 0.007076723 0.014058405)
(0.011218235 0.010009558 0.017180579)
(0.023572391 0.013076865 0.020502084)
(0.037857647 0.016419423 0.024015696)
(0.053791887 0.019511018 0.027689573)
(0.070967744 0.022514128 0.031533909)
(0.088975766 0.025124913 0.035488266)
(0.10732217 0.027300877 0.039609147)
(0.1256371 0.028920707 0.043818663)
(0.14350968 0.029939507 0.04815166)
(0.16066003 0.030351168 0.052560903)
(0.17688764 0.030095758 0.057058019)
(0.19206669 0.029310574 0.061600217)
(0.2061736 0.027961195 0.066182505)
(0.21931644 0.026222452 0.070844858)
(0.23172971 0.024187791 0.075480862)
(-0.00094123927 0.0011851934 0.00079672315)
(0.00021250325 0.0021306089 0.0014875383)
(0.00045807363 0.0034290677 0.0027484017)
(0.0021415099 0.0044773179 0.004401673)
(0.0045498335 0.0054194745 0.0065178539)
(0.0078383219 0.0061146348 0.0089532656)
(0.012268332 0.0070508795 0.011554405)
(0.018013413 0.0074182072 0.014709202)
(0.024803332 0.0080801437 0.017864032)
(0.033118592 0.0083297075 0.02138942)
(0.042549647 0.0087085774 0.02501669)
(0.053342855 0.0088482163 0.028900951)
(0.065350179 0.0089572043 0.032906225)
(0.078473999 0.0089691835 0.0370731)
(0.092649058 0.0088788804 0.041397693)
(0.10770408 0.0087278895 0.045810931)
(0.12352184 0.0084785041 0.050370464)
(0.13994668 0.0081951965 0.054986137)
(0.15680674 0.0077823227 0.059719826)
(0.17396065 0.0073967159 0.064450266)
(0.1912623 0.0068530913 0.06930933)
(0.20859627 0.0063759195 0.074087591)
(0.22586245 0.0057891395 0.078943456)
(0.0037738569 0.002888654 0.00044594306)
(0.0097717111 0.0050457019 0.0015926777)
(0.013687578 0.007529951 0.0026784984)
(0.019140223 0.0087724903 0.0047300916)
(0.023139761 0.0093366615 0.006841047)
(0.027277859 0.0098404965 0.0093176323)
(0.031211664 0.0088168979 0.012383515)
(0.034835966 0.0077741021 0.015433831)
(0.038570829 0.0059803382 0.018868858)
(0.042740135 0.0036696391 0.022521283)
(0.047330723 0.0012942092 0.026310428)
(0.053008904 -0.0014776184 0.030354767)
(0.059739315 -0.0040881394 0.034480232)
(0.06804915 -0.0066592668 0.038810166)
(0.077998481 -0.0089655587 0.04325364)
(0.089848413 -0.010928174 0.047835623)
(0.10363091 -0.012496693 0.052543038)
(0.1193403 -0.013584164 0.057350994)
(0.13687961 -0.014250021 0.062265877)
(0.15604286 -0.014409994 0.067238794)
(0.17651794 -0.014217227 0.072261486)
(0.19802434 -0.013643304 0.077301286)
(0.22009263 -0.0128929 0.082332692)
(0 -1.848457e-19 0)
(0 3.0823847e-19 6.4654307e-19)
(0 6.6983687e-19 0)
(-3.1682567e-19 6.3260922e-21 0)
(1.3233084e-19 -1.9607387e-19 -9.7658375e-21)
(-8.3394605e-19 -7.4999833e-19 0)
(0 2.8196506e-19 0)
(0 7.5778815e-19 -2.0153829e-20)
(0 8.3274994e-19 0)
(-0.00081178878 0.00024079018 -0.0004220362)
(-0.0005016998 -4.9922234e-05 -4.2300184e-05)
(-0.00021186088 0.00010368845 2.5853098e-05)
(0.00013357693 -0.0012476354 0.0016576269)
(-0.00016959083 -0.001998211 0.0016033935)
(-6.4687853e-05 -0.0020606261 0.0019385144)
(0.00036446375 -0.00059170572 0.0023917681)
(0.00052828013 -0.0012570668 0.0026525899)
(0.00039428686 -0.0030566116 0.003687383)
(0.0022874487 -0.0019799026 0.0049665052)
(0.0016553393 -0.0039180433 0.0052972945)
(0.0010380229 -0.0044384539 0.0059464703)
(0.0044831916 -0.0031722983 0.0071590155)
(0.0038803102 -0.0045632398 0.0075767057)
(0.0032120564 -0.0068439301 0.0087886938)
(0.0077835742 -0.0044723466 0.0099598685)
(0.0069171509 -0.0067786595 0.010616824)
(0.0058386122 -0.0088437272 0.011532929)
(0.012085589 -0.0062021196 0.013106298)
(0.011062306 -0.0088458118 0.013741263)
(0.0096890261 -0.011116769 0.015070794)
(0.01769351 -0.0082361193 0.016504353)
(0.016217601 -0.010669816 0.017128769)
(0.014850372 -0.013546626 0.018276503)
(0.024221487 -0.010026133 0.020121629)
(0.022799896 -0.013217515 0.02088079)
(0.020906972 -0.016023296 0.022096688)
(0.032371777 -0.012489642 0.02399211)
(0.030520586 -0.015559514 0.024751456)
(0.028543112 -0.018710064 0.025957247)
(0.041387408 -0.014493933 0.028074283)
(0.0394255 -0.017844272 0.028851364)
(0.037131899 -0.021194049 0.029977847)
(0.051928496 -0.016905662 0.032370794)
(0.04969056 -0.020461275 0.033092789)
(0.04722106 -0.023902971 0.034184774)
(0.063471397 -0.019034983 0.036778702)
(0.061061717 -0.022672668 0.037461697)
(0.058368286 -0.026367719 0.038499635)
(0.076238526 -0.021262782 0.041393844)
(0.073587661 -0.025076487 0.042038729)
(0.070667881 -0.028798097 0.04292362)
(0.08995471 -0.023256937 0.046119638)
(0.087120242 -0.027151679 0.046635109)
(0.084057512 -0.031120482 0.047450357)
(0.10460222 -0.025160177 0.050937253)
(0.10158526 -0.029215905 0.051410409)
(0.098318549 -0.033209473 0.052077264)
(0.12001575 -0.026875295 0.055895344)
(0.1168178 -0.030980666 0.056233516)
(0.11340688 -0.035131736 0.056768929)
(0.13605846 -0.028361817 0.060863381)
(0.13269644 -0.032598545 0.06111962)
(0.12915697 -0.036825562 0.061536831)
(0.1525744 -0.029675913 0.065930006)
(0.149077 -0.033967882 0.066083679)
(0.14542219 -0.038287885 0.066361421)
(0.16944534 -0.030749891 0.070963614)
(0.1658296 -0.035145569 0.071025422)
(0.16207896 -0.039525665 0.071201221)
(0.18651689 -0.031688705 0.076023638)
(0.18278395 -0.0360958 0.076023325)
(0.17896867 -0.040536499 0.076106833)
(0.20366877 -0.032384729 0.08101022)
(0.19986389 -0.036877308 0.08096543)
(0.19599537 -0.04137015 0.080966083)
(0.22080354 -0.033038729 0.08599371)
(0.21694246 -0.037571082 0.085901784)
(0.21304033 -0.042071471 0.085855506)
(0.23959909 0.017450327 0.080107511)
(0.23570758 0.01287759 0.080039189)
(0.23177356 0.0083095711 0.079973659)
(0.23889388 0.00060943577 0.083667225)
(0.23501117 -0.0039710062 0.083572933)
(0.23109877 -0.008517654 0.083522235)
(0.23848733 -0.016543732 0.087270285)
(0.23459328 -0.021089417 0.087125259)
(0.2306673 -0.025644203 0.087089124)
(0.00085711835 0.0012232155 0.00050472736)
(-8.7469492e-05 0.00079660253 -0.00016212463)
(0.00018036647 -0.00019751554 -0.00061434789)
(0.0008792161 0.0025556998 0.00022642995)
(0.00031991632 0.0013418991 -0.00049192334)
(-0.00083611097 0.00037758339 -0.00096723524)
(0.0020351309 0.0048761107 0.0015397587)
(0.00041966548 0.0033377732 0.00098451089)
(-0.0001918874 0.001996288 0.00013027619)
(0.0031411053 0.0063097798 0.0028028136)
(0.0022679587 0.0044501604 0.0022298204)
(0.0010355912 0.0026326723 0.0012463764)
(0.0056072318 0.0090901869 0.0048443057)
(0.0041608638 0.0067109687 0.003679026)
(0.0027240758 0.0046307744 0.0027943038)
(0.00889504 0.011138636 0.0068436697)
(0.0073398638 0.008358958 0.0060973274)
(0.0057899528 0.0060367276 0.0049014472)
(0.013069419 0.013875205 0.00938521)
(0.011468982 0.011133154 0.0083282883)
(0.0097966912 0.0082537134 0.0070965062)
(0.018792328 0.016483851 0.012134761)
(0.016999263 0.013182865 0.011044994)
(0.014996383 0.010194401 0.0097574806)
(0.025385608 0.019229142 0.015129138)
(0.023463891 0.015723315 0.013798201)
(0.021275703 0.012492894 0.012675124)
(0.033524271 0.021779122 0.01819565)
(0.031358164 0.018154201 0.01724595)
(0.029051433 0.014560805 0.015737686)
(0.04285405 0.024402863 0.021557784)
(0.040517727 0.020590065 0.020361417)
(0.037968499 0.016875217 0.019080341)
(0.053433745 0.026801232 0.025022963)
(0.050871196 0.022818647 0.023959296)
(0.048224096 0.018923188 0.022678192)
(0.065194171 0.029024596 0.028673269)
(0.062508979 0.024936518 0.02760073)
(0.059610721 0.020853846 0.026400506)
(0.078123101 0.031027482 0.032406566)
(0.075179488 0.026790877 0.031450585)
(0.072152381 0.022580577 0.030335987)
(0.092004849 0.032707586 0.03634282)
(0.088938396 0.028382862 0.035450595)
(0.085726721 0.024067357 0.03443701)
(0.10682241 0.034105095 0.040344222)
(0.10355728 0.02969326 0.039570229)
(0.1001957 0.025266699 0.038678713)
(0.12235737 0.035147614 0.044534074)
(0.11894824 0.030668399 0.043857167)
(0.11544988 0.026186573 0.04310209)
(0.13849668 0.035892149 0.048791824)
(0.13495712 0.031351933 0.048248927)
(0.13134712 0.026792353 0.047621405)
(0.15509757 0.036263153 0.053221315)
(0.15145122 0.031683797 0.052769531)
(0.1477122 0.02711559 0.052282541)
(0.17199651 0.036331442 0.05771217)
(0.16823849 0.031773568 0.057373208)
(0.16445317 0.02715536 0.057010059)
(0.18904571 0.036191102 0.062305684)
(0.18524854 0.031575599 0.062072232)
(0.18138999 0.026950962 0.061832688)
(0.20619649 0.035741407 0.066994699)
(0.20232769 0.031151786 0.066828128)
(0.1984241 0.026543767 0.066654942)
(0.22326692 0.035134033 0.071733693)
(0.21936496 0.030541585 0.071625237)
(0.2154716 0.025951972 0.071532268)
(-0.0061009546 -0.0018683653 -9.5458241e-05)
(-0.011953377 -0.0031430037 -6.9424414e-05)
(-0.016048758 -0.005961292 0.0012861414)
(-0.018029524 -0.0064099598 0.0023262042)
(-0.018887693 -0.0069749844 0.0040259995)
(-0.01670783 -0.0068229227 0.0061788031)
(-0.012542275 -0.0057728298 0.0085601127)
(-0.00572145 -0.0044747315 0.011387718)
(0.0035249202 -0.0023484982 0.014411239)
(0.015008796 -0.00019246481 0.017799656)
(0.028471364 0.0023888766 0.021333022)
(0.043633093 0.0047748045 0.025213261)
(0.06003916 0.0071916067 0.029208253)
(0.07726789 0.0092494849 0.033404224)
(0.09492947 0.01092348 0.037749683)
(0.11255156 0.012125492 0.042197435)
(0.12983216 0.012758286 0.046776379)
(0.14645813 0.012840593 0.05141093)
(0.1622225 0.012341412 0.056115386)
(0.17703752 0.011341484 0.060861209)
(0.19088609 0.0098604217 0.065616886)
(0.20384498 0.0080136632 0.070393786)
(0.21615129 0.0059355858 0.075165087)
(-0.0014294393 7.1107925e-05 0.00031621325)
(-0.0021153201 -0.0014342446 0.0011374942)
(-0.0015720322 -0.0022656006 0.0026126756)
(-0.0010499577 -0.0026913042 0.0040547496)
(0.00016363889 -0.0030744758 0.0060143751)
(0.0030685475 -0.0041434541 0.0087927098)
(0.0062851727 -0.0040116516 0.011195666)
(0.011361145 -0.0048782013 0.014431169)
(0.01727021 -0.0049602603 0.017531143)
(0.024730093 -0.0055861451 0.021137209)
(0.033321661 -0.0057743809 0.024726895)
(0.043407412 -0.0063037837 0.028605811)
(0.054578075 -0.0066466246 0.032570742)
(0.067016137 -0.0071626445 0.036752388)
(0.080463018 -0.0076042557 0.040998491)
(0.094868906 -0.0081676505 0.045431861)
(0.11008996 -0.0087140968 0.049955102)
(0.12597506 -0.0093074191 0.05456202)
(0.14235633 -0.0099351973 0.059301214)
(0.15913953 -0.010545458 0.064051922)
(0.17611286 -0.011212705 0.068900996)
(0.19321003 -0.011812812 0.07371674)
(0.21031903 -0.012476432 0.078580491)
(0.0037003753 0.00069153445 0.0010002081)
(0.0088091619 0.0015598258 0.0019838699)
(0.012591077 0.00048236153 0.0039343456)
(0.016052717 0.0017957079 0.0054244017)
(0.019586223 0.00012217631 0.0084643778)
(0.023091712 -0.00089121963 0.010829305)
(0.025604171 -0.0024581985 0.013951114)
(0.028756631 -0.0050326769 0.01719515)
(0.031366033 -0.007436879 0.020591203)
(0.034783344 -0.010618214 0.024232029)
(0.038464959 -0.013681423 0.027939556)
(0.04327774 -0.016975798 0.031829386)
(0.049210987 -0.02022691 0.03588439)
(0.056680531 -0.023160636 0.039993871)
(0.065913567 -0.025936783 0.044290059)
(0.077041317 -0.028255848 0.048680482)
(0.090198587 -0.030125929 0.053193515)
(0.10533298 -0.031499496 0.057810803)
(0.12239687 -0.032348654 0.062551511)
(0.1411482 -0.032677926 0.067332118)
(0.16132654 -0.032571104 0.072229486)
(0.18258718 -0.032017042 0.077115863)
(0.20451629 -0.031227456 0.082106877)
(-0.0050462362 -0.0015728956 0.00051415392)
(-0.0055892332 -0.0017078532 -7.7440642e-06)
(-0.0053228397 -0.0021013416 -0.00036037122)
(-0.0094431541 -0.0013224566 0.00058718616)
(-0.0096514803 -0.0024304288 0.00014263133)
(-0.010817515 -0.0028316953 -5.6259583e-05)
(-0.012716873 -0.002263504 0.0022030106)
(-0.014386244 -0.0035362727 0.0017773617)
(-0.014639758 -0.0045583446 0.0013189567)
(-0.014703042 -0.0017115235 0.0034794994)
(-0.015346388 -0.0035522001 0.0027462924)
(-0.016327895 -0.0052043646 0.0024682968)
(-0.014306122 -0.0011226994 0.0053362896)
(-0.015663061 -0.0034713568 0.0048275263)
(-0.016865785 -0.0051802088 0.0042990511)
(-0.011736503 8.9789966e-05 0.0077448402)
(-0.01312517 -0.0023608576 0.0070520153)
(-0.014529268 -0.0045546251 0.0064568439)
(-0.0070138254 0.001932364 0.010291147)
(-0.0085642793 -0.00079514043 0.0094569612)
(-0.010028267 -0.0034398002 0.0088974823)
(0.00056002067 0.0043700635 0.013092288)
(-0.0010461685 0.0010432659 0.012332162)
(-0.0029945965 -0.0016639306 0.011791886)
(0.010323364 0.0068035751 0.016253408)
(0.0083638423 0.0036611633 0.015533338)
(0.0064028306 0.00055244852 0.014837577)
(0.022428318 0.00991239 0.019587985)
(0.020373284 0.0063746789 0.018749689)
(0.018197372 0.0030039638 0.018192668)
(0.03649777 0.012934365 0.023118005)
(0.034215511 0.0092025184 0.022366989)
(0.031782112 0.0056959912 0.021801603)
(0.052176084 0.015905525 0.026843624)
(0.049712248 0.012059996 0.026144082)
(0.04713273 0.0083809773 0.025582884)
(0.069123217 0.018766967 0.030724318)
(0.066483448 0.014755514 0.030055634)
(0.063662853 0.010881378 0.029588231)
(0.086872792 0.021236174 0.034762035)
(0.083999743 0.017105796 0.034205393)
(0.081018281 0.013121851 0.033747235)
(0.10494926 0.023294136 0.038945186)
(0.10192403 0.019035524 0.038432976)
(0.098761252 0.014936304 0.038041868)
(0.12301666 0.024799601 0.043239387)
(0.11979523 0.020481695 0.04281927)
(0.11646424 0.01626782 0.042467959)
(0.14062503 0.025752275 0.047654495)
(0.13725421 0.021307722 0.047302655)
(0.13378036 0.017029868 0.047006036)
(0.1575493 0.026047336 0.052143104)
(0.15403764 0.021577649 0.051868496)
(0.15043875 0.017205757 0.051606115)
(0.17356273 0.025768758 0.056724391)
(0.16993068 0.02120069 0.056498377)
(0.16620533 0.016815082 0.056291466)
(0.18853241 0.024900442 0.061331722)
(0.18480508 0.020346758 0.061186483)
(0.18101201 0.015854124 0.061000914)
(0.20247384 0.023515786 0.065999838)
(0.19872196 0.018946021 0.065902101)
(0.19484699 0.014444092 0.065734144)
(0.21554872 0.021732907 0.070688373)
(0.21169972 0.017123545 0.070604063)
(0.20777289 0.012610166 0.070494034)
(0.22785814 0.019699127 0.075393197)
(0.22397062 0.015108385 0.075320517)
(0.22005738 0.010558351 0.075228904)
(-0.00059432175 0.0005193561 0.00017508666)
(-0.00075396903 0.00033406775 -0.00012406204)
(-0.00060703653 0.00030145353 -0.00024194257)
(-0.00010515875 0.0014237314 0.00073424324)
(-0.00048765753 0.00056241274 0.00049324605)
(-0.0013286397 0.00013667301 0.00072448918)
(0.00058422034 0.0020978637 0.0023071769)
(-0.00022976219 0.00086645628 0.0024741856)
(-0.00055474181 -0.0001625164 0.0023061504)
(0.0016535497 0.0027058903 0.0036990816)
(0.001309262 0.00059516486 0.0036909454)
(0.00040311209 -0.00095974259 0.0036705206)
(0.0042973181 0.0032694958 0.0060476133)
(0.0032413319 0.0011118826 0.0062689569)
(0.001928757 -0.00032353799 0.0058174941)
(0.007202362 0.0036659711 0.008483998)
(0.0061683871 0.00099116533 0.0083370507)
(0.0049130369 -0.0010909346 0.0084213451)
(0.01158667 0.0043052511 0.011004542)
(0.01036538 0.0013708595 0.011239129)
(0.008711699 -0.0011256393 0.011016552)
(0.01716499 0.0043497303 0.014322333)
(0.015697487 0.0010916224 0.014394339)
(0.013770367 -0.0012996486 0.014209712)
(0.023731655 0.0048030728 0.017432803)
(0.02205985 0.0014988409 0.017447234)
(0.020065005 -0.0015374121 0.017360146)
(0.031858589 0.0049777289 0.021008552)
(0.030040889 0.0012480311 0.021139219)
(0.027683377 -0.0017437806 0.021013994)
(0.041106667 0.0050469378 0.024678027)
(0.038997856 0.0013013515 0.02477883)
(0.036517984 -0.0020597649 0.024621214)
(0.051658252 0.0051119052 0.028570723)
(0.049406259 0.0011500035 0.028663697)
(0.04669994 -0.0022700369 0.028527668)
(0.063465927 0.0050707061 0.032626031)
(0.060965712 0.0010524517 0.03272589)
(0.058064182 -0.0026491623 0.032554981)
(0.076320139 0.0049745012 0.036803952)
(0.073629223 0.00076245377 0.036876735)
(0.070555394 -0.003005889 0.036723646)
(0.090271369 0.0047727502 0.041155789)
(0.087365782 0.00054141252 0.041217741)
(0.084142833 -0.0034028269 0.041034487)
(0.10507386 0.0045382922 0.045585827)
(0.10198484 0.00019360696 0.045623468)
(0.098596292 -0.0038660749 0.045455318)
(0.12066374 0.0042213197 0.050166492)
(0.11737212 -0.00019292971 0.050185911)
(0.11388438 -0.0043657634 0.05001207)
(0.13685508 0.0038271895 0.054794915)
(0.13342254 -0.00061666498 0.054787045)
(0.129805 -0.0048887146 0.054617006)
(0.15351631 0.0034254583 0.059552737)
(0.14992234 -0.0011187356 0.059519657)
(0.14621964 -0.0054616896 0.059375302)
(0.17049104 0.0029115137 0.06429043)
(0.16674546 -0.001621883 0.064260162)
(0.16301427 -0.0060406938 0.064114306)
(0.1876267 0.0024337263 0.069189991)
(0.18383825 -0.0022677361 0.069060927)
(0.1800141 -0.0066572141 0.068986953)
(0.20483593 0.001821301 0.073958816)
(0.20095827 -0.002706754 0.07392649)
(0.19708616 -0.0072675109 0.073766458)
(0.22200545 0.0012428976 0.078831483)
(0.21810296 -0.0033477057 0.07876374)
(0.21421965 -0.0078486978 0.078669917)
(0.0041718243 0.0018820883 9.0694429e-05)
(0.0040204422 0.0019869944 2.367337e-05)
(0.0040765915 0.001547318 0.00027651046)
(0.0098777599 0.0042464654 0.0013111505)
(0.0098020202 0.0041661789 0.0012762762)
(0.0092796293 0.002770734 0.0016606242)
(0.013917393 0.0058220978 0.0026898005)
(0.013456976 0.0038959683 0.0031498089)
(0.013543352 0.0025163975 0.0034669105)
(0.019176552 0.0065341673 0.0045993974)
(0.01835437 0.0057698206 0.0047102665)
(0.017749256 0.0035310529 0.0049120634)
(0.022938651 0.0072366884 0.0070288255)
(0.022141666 0.0048675434 0.0073850946)
(0.021338071 0.0028928385 0.0078789787)
(0.027121127 0.0068532132 0.0093916157)
(0.026005653 0.0048342936 0.0097720825)
(0.024938304 0.001998809 0.010141991)
(0.03075048 0.0058050628 0.012601733)
(0.02937185 0.0033118114 0.013105995)
(0.028135414 0.00047740622 0.013474035)
(0.034189937 0.0044865624 0.015706522)
(0.032774607 0.0015793616 0.016014404)
(0.031124603 -0.0015563254 0.016531756)
(0.037814715 0.0023619306 0.019113548)
(0.035968987 -0.00055209552 0.019635179)
(0.03425602 -0.0039953562 0.020088591)
(0.041676822 -5.6221789e-05 0.022839961)
(0.039809426 -0.0033434883 0.023248928)
(0.03769711 -0.0069301615 0.023649809)
(0.046075887 -0.0026860955 0.026580159)
(0.043867012 -0.0061402205 0.02696915)
(0.041667336 -0.009912072 0.027433402)
(0.051477962 -0.0055720112 0.030617356)
(0.049124193 -0.0091536573 0.031011603)
(0.046612271 -0.01302592 0.031357711)
(0.057958144 -0.0083158793 0.034707742)
(0.055347424 -0.012121609 0.035028726)
(0.052726668 -0.016193865 0.035379768)
(0.065984195 -0.011024133 0.038994519)
(0.063199798 -0.014931601 0.039290719)
(0.060317505 -0.019050445 0.039591706)
(0.075677324 -0.013419565 0.043392279)
(0.072669005 -0.017468851 0.043647413)
(0.069670319 -0.021707508 0.043884)
(0.087245224 -0.015476949 0.047932966)
(0.084081699 -0.019631514 0.048132718)
(0.080867367 -0.02395452 0.048329202)
(0.10077294 -0.017104243 0.052588843)
(0.097414584 -0.0213732 0.052752974)
(0.094098828 -0.025757777 0.052903702)
(0.11623277 -0.018263056 0.057363076)
(0.11276952 -0.022624832 0.057487321)
(0.10927143 -0.02704519 0.057562811)
(0.13356112 -0.018951155 0.062237081)
(0.12991798 -0.023356107 0.062303835)
(0.12633913 -0.027840688 0.062376368)
(0.15249507 -0.019124588 0.067187569)
(0.14882601 -0.023633953 0.067237921)
(0.14512272 -0.028122805 0.067213877)
(0.17285661 -0.018931147 0.072196369)
(0.16904485 -0.023447637 0.072192275)
(0.16526992 -0.027962964 0.0721721)
(0.1942304 -0.018355131 0.077211663)
(0.19039183 -0.022894826 0.077189423)
(0.18653814 -0.02740676 0.07713409)
(0.21620162 -0.017517526 0.082251316)
(0.21230369 -0.022093081 0.082206646)
(0.2084317 -0.026614511 0.082130931)
)
;

boundaryField
{
    free
    {
        type            calculated;
    }
    fixed
    {
        type            calculated;
    }
    freeTop
    {
        type            calculated;
    }
}


// ************************************************************************* //
