/*--------------------------------*- C++ -*----------------------------------*\
  =========                 |
  \\      /  F ield         | OpenFOAM: The Open Source CFD Toolbox
   \\    /   O peration     | Website:  https://openfoam.org
    \\  /    A nd           | Version:  6
     \\/     M anipulation  |
\*---------------------------------------------------------------------------*/
FoamFile
{
    version     2.0;
    format      ascii;
    class       pointVectorField;
    location    "0.9";
    object      u;
}
// * * * * * * * * * * * * * * * * * * * * * * * * * * * * * * * * * * * * * //

dimensions      [0 1 0 0 0 0 0];

internalField   nonuniform List<vector> 
28033
(
(0 0 0)
(0 0 0)
(2.8056922 -0.44365044 0.010920028)
(2.5888282 -1.0647216 0.0081956666)
(0 0 0)
(0 0 0)
(2.589221 -1.0683257 0.0078234667)
(2.8060837 -0.44731555 0.01028404)
(0 0 0)
(0 0 0)
(0 0 0)
(0 0 0)
(0 0 0)
(0 0 0)
(0 0 0)
(0 0 0)
(0 0 0)
(0 0 0)
(0 0 0)
(0 0 0)
(0 0 0)
(0 0 0)
(0 0 0)
(2.7917843 -0.48283352 0.01052383)
(2.7779961 -0.52168458 0.01032902)
(2.7642806 -0.56044028 0.010114444)
(2.7506556 -0.59915766 0.0099655876)
(2.7370928 -0.63781785 0.0098343202)
(2.7235772 -0.67645391 0.0097223048)
(2.7101178 -0.71507494 0.0096317781)
(2.6966907 -0.75370791 0.0095463889)
(2.6832909 -0.79235554 0.0094588516)
(2.6698956 -0.83104604 0.0093706141)
(2.656509 -0.86977742 0.0092581676)
(2.6430896 -0.90857703 0.0091170166)
(2.6296673 -0.94744572 0.0089612864)
(2.6161544 -0.98639729 0.00877566)
(2.60262 -1.0254728 0.0085192109)
(0.0067021803 0.010068558 0.011258008)
(0.0081358984 0.016046117 0.015473288)
(0.010409917 0.022317761 0.01869467)
(0.013813211 0.028785691 0.02074432)
(0.017900395 0.035420384 0.022052866)
(0.023233996 0.042148573 0.022977596)
(0.0295314 0.048955306 0.023534761)
(0.036931122 0.055577318 0.023839287)
(0.045329146 0.062291474 0.02400763)
(0.054794096 0.068716893 0.024057354)
(0.065188983 0.075099031 0.024011465)
(0.076598542 0.081205658 0.023881542)
(0.088922568 0.08717827 0.023797022)
(0.1022574 0.09285699 0.023579524)
(0.11640832 0.098323399 0.023435612)
(0.13152288 0.10348458 0.023180922)
(0.14748538 0.10841624 0.023018776)
(0.16434402 0.11298474 0.02277178)
(0.18200153 0.11731174 0.022558081)
(0.20052561 0.12127423 0.022299009)
(0.21981936 0.12494397 0.022094993)
(0.23993764 0.12825351 0.021808267)
(0.26079955 0.13122902 0.021596488)
(0.28244764 0.13386912 0.021324525)
(0.30479086 0.13612871 0.021069821)
(0.32787674 0.13805572 0.02080694)
(0.35163285 0.1395874 0.020558957)
(0.37609314 0.14079777 0.020284289)
(0.4011871 0.14158812 0.020014731)
(0.42692226 0.14203701 0.019760108)
(0.45329497 0.14211885 0.019482701)
(0.48023463 0.14181021 0.019209835)
(0.50777245 0.14114914 0.018954)
(0.53587453 0.14008365 0.018682584)
(0.56452262 0.13868623 0.018409848)
(0.59370526 0.13688908 0.018138749)
(0.6233787 0.13473959 0.017882772)
(0.65357801 0.13222211 0.017617584)
(0.68422358 0.12933617 0.01733756)
(0.71535271 0.12609947 0.017080208)
(0.74691067 0.12249232 0.016808463)
(0.77890763 0.11855271 0.016549791)
(0.81131618 0.11424465 0.016277654)
(0.84412925 0.10960301 0.016019556)
(0.87731389 0.10461047 0.015754796)
(0.91087626 0.099288923 0.015496207)
(0.94477818 0.093632946 0.015240114)
(0.97902682 0.087651414 0.01498603)
(1.0135846 0.081351527 0.014737838)
(1.0484574 0.074735758 0.01449352)
(1.0836117 0.067815519 0.014255165)
(1.1190479 0.060591931 0.01402296)
(1.1547408 0.053078805 0.013797762)
(1.1906832 0.045276439 0.013580048)
(1.2268583 0.037199842 0.013370039)
(1.2632538 0.028850407 0.01316914)
(1.2998575 0.020241779 0.012976472)
(1.3366569 0.011378224 0.012793573)
(1.3736403 0.0022716139 0.012619941)
(1.4107972 -0.0070729208 0.012456417)
(1.4481165 -0.016643258 0.012302799)
(1.4855903 -0.026434142 0.012158898)
(1.5232048 -0.03643248 0.012027127)
(1.56096 -0.046641173 0.011901049)
(1.5988356 -0.057029729 0.011793882)
(1.6368379 -0.067618227 0.011685577)
(1.6749431 -0.078382497 0.011598837)
(1.7131597 -0.089314268 0.011516717)
(1.7514714 -0.10041318 0.011437737)
(1.7898837 -0.11166778 0.011376983)
(1.8283777 -0.12307602 0.011321616)
(1.8669558 -0.13463178 0.011276032)
(1.9056175 -0.14631894 0.011233604)
(1.9443432 -0.15815846 0.011203832)
(1.9831538 -0.17010352 0.01116954)
(2.0220094 -0.18221075 0.011152195)
(2.0609474 -0.19439433 0.011123443)
(2.0999189 -0.20675107 0.011113322)
(2.1389636 -0.21915823 0.011086575)
(2.1780329 -0.23174206 0.011081888)
(2.2171662 -0.24436957 0.011050845)
(2.2563135 -0.25714791 0.011049187)
(2.295514 -0.26998898 0.011017511)
(2.3347145 -0.28294353 0.011013698)
(2.3739607 -0.29597204 0.010985291)
(2.4132042 -0.30908609 0.010973248)
(2.4524629 -0.32229652 0.01095156)
(2.4917202 -0.33554249 0.010941194)
(2.5309741 -0.34889733 0.010921325)
(2.5702206 -0.36225424 0.010918033)
(2.6094372 -0.37574028 0.01092593)
(2.6486783 -0.38915102 0.010908337)
(2.6878428 -0.40272733 0.010971989)
(2.7270741 -0.41623547 0.010969988)
(2.7662574 -0.42977119 0.011048681)
(0.0025368401 -0.011921532 -0.013405399)
(0.0042576123 -0.015992708 -0.016362121)
(0.0053674539 -0.022072288 -0.021169587)
(0.0066235192 -0.027065311 -0.023076638)
(0.0099130084 -0.033411336 -0.024885561)
(0.013711788 -0.039957476 -0.025845908)
(0.018580986 -0.046127945 -0.026516719)
(0.024456712 -0.053050452 -0.026733536)
(0.031361957 -0.059841226 -0.026859886)
(0.038981632 -0.066753088 -0.026760109)
(0.047625664 -0.07388599 -0.026591847)
(0.056954221 -0.080995336 -0.026339221)
(0.067219199 -0.088324628 -0.026007862)
(0.078168136 -0.095696078 -0.025722961)
(0.089953392 -0.10314814 -0.025323068)
(0.10245309 -0.11078575 -0.025005116)
(0.11570912 -0.11838751 -0.024597946)
(0.12971585 -0.12625288 -0.024216697)
(0.14442108 -0.13412119 -0.023839468)
(0.15987357 -0.14215387 -0.023445276)
(0.17600609 -0.15027624 -0.023017894)
(0.19285567 -0.15857953 -0.022653709)
(0.21034467 -0.16688656 -0.022210694)
(0.22857224 -0.17548205 -0.021805838)
(0.24738728 -0.18405911 -0.021390991)
(0.26693703 -0.19288356 -0.020931101)
(0.28704365 -0.20177547 -0.020543329)
(0.30786039 -0.21084176 -0.020060135)
(0.32921783 -0.22003291 -0.019666594)
(0.35124443 -0.22935838 -0.019176695)
(0.37380617 -0.23885851 -0.018760541)
(0.39699169 -0.24846861 -0.01829506)
(0.42070827 -0.25824705 -0.017859025)
(0.4450119 -0.26815975 -0.017399079)
(0.46983321 -0.27822699 -0.016956477)
(0.49520208 -0.28842228 -0.016515902)
(0.52108142 -0.29876318 -0.016045827)
(0.5474723 -0.30927465 -0.015607852)
(0.57435631 -0.31989645 -0.015153233)
(0.60173468 -0.33068409 -0.014704107)
(0.62958188 -0.34160223 -0.014251262)
(0.65789811 -0.35266149 -0.013799475)
(0.68666533 -0.36385907 -0.013342991)
(0.71587785 -0.37519034 -0.012886747)
(0.7455193 -0.38665453 -0.0124265)
(0.77558537 -0.39824831 -0.011962968)
(0.80605702 -0.40996803 -0.011497406)
(0.83693066 -0.4218108 -0.011026718)
(0.86818822 -0.43377343 -0.010554072)
(0.89982272 -0.44585017 -0.01007719)
(0.93181939 -0.45803998 -0.0095978353)
(0.96416794 -0.47033577 -0.0091159847)
(0.99685537 -0.48273498 -0.0086322484)
(1.0298705 -0.4952331 -0.0081475629)
(1.0632002 -0.50782502 -0.0076626458)
(1.0968337 -0.52050666 -0.0071786308)
(1.130758 -0.53327463 -0.0066960975)
(1.1649623 -0.54612271 -0.0062165007)
(1.1994341 -0.55904856 -0.0057405865)
(1.2341635 -0.57204756 -0.0052689209)
(1.2691378 -0.58511527 -0.0048030581)
(1.304348 -0.59824916 -0.0043428717)
(1.3397825 -0.61144495 -0.0038897043)
(1.3754328 -0.62470032 -0.0034429922)
(1.411288 -0.63801057 -0.0030048024)
(1.4473408 -0.65137673 -0.0025722693)
(1.483581 -0.66479095 -0.0021500333)
(1.5200016 -0.6782583 -0.0017316169)
(1.556597 -0.69176605 -0.0013254779)
(1.5933554 -0.70531671 -0.0009176317)
(1.6302698 -0.71891816 -0.000523826)
(1.667341 -0.73254961 -0.00013155021)
(1.7045557 -0.74623037 0.00025431256)
(1.7419115 -0.75993601 0.00063426986)
(1.7794032 -0.77368575 0.0010133222)
(1.8170229 -0.78745888 0.0013837442)
(1.8547688 -0.80126755 0.0017562661)
(1.892635 -0.81509773 0.0021213738)
(1.9306147 -0.82895588 0.0024881469)
(1.9687068 -0.84282917 0.0028486722)
(2.0069024 -0.85672535 0.0032110754)
(2.0452003 -0.87062765 0.00356729)
(2.0835914 -0.88454534 0.0039254267)
(2.1220748 -0.89846245 0.0042770527)
(2.1606399 -0.91238292 0.0046288909)
(2.1992854 -0.92629721 0.0049747476)
(2.2380012 -0.94020288 0.0053185607)
(2.2767837 -0.95409327 0.0056540884)
(2.3156221 -0.96796837 0.005988155)
(2.354515 -0.98181814 0.0063104846)
(2.3934471 -0.99564298 0.0066278062)
(2.4324208 -1.0094484 0.0069344149)
(2.471417 -1.0232285 0.0072411718)
(2.5104686 -1.036995 0.0075220317)
(2.5495298 -1.0508106 0.0078388293)
(0 0 0)
(0 0 0)
(0 0 0)
(0 0 0)
(0 0 0)
(0 0 0)
(0 0 0)
(0 0 0)
(0 0 0)
(0 0 0)
(0 0 0)
(0 0 0)
(0 0 0)
(0 0 0)
(0 0 0)
(0.0063054201 -0.0048928983 0.0097266698)
(0.0060377406 -0.018668009 0.015934658)
(0.0053135463 -0.019488168 0.019409132)
(0.0076604278 -0.028693378 0.022831412)
(0.010053535 -0.033173015 0.024347765)
(0.014352068 -0.04022625 0.025208688)
(0.019074696 -0.046337756 0.025779478)
(0.025306222 -0.053571349 0.026071128)
(0.032063079 -0.059991593 0.026053311)
(0.039871489 -0.067367542 0.025923078)
(0.048642871 -0.074402111 0.025832734)
(0.057871827 -0.081438927 0.025446782)
(0.068343121 -0.089132401 0.025272395)
(0.079137937 -0.096119467 0.024813026)
(0.091175726 -0.10423724 0.024583122)
(0.10353645 -0.11130223 0.02417898)
(0.11691073 -0.11947599 0.023883523)
(0.13089231 -0.12694098 0.023413738)
(0.14563876 -0.13521158 0.023127829)
(0.16114383 -0.14309749 0.022678031)
(0.17723703 -0.15136555 0.022390614)
(0.19415177 -0.15964646 0.021944504)
(0.21163958 -0.16813622 0.021624777)
(0.2298929 -0.17670226 0.021227587)
(0.24872818 -0.18535858 0.020856719)
(0.2682828 -0.19426837 0.020492583)
(0.28841295 -0.20311367 0.020092081)
(0.30921287 -0.21236772 0.019739344)
(0.33060574 -0.22147526 0.019343771)
(0.35259155 -0.23098002 0.018984969)
(0.37519191 -0.24045857 0.018615158)
(0.39834646 -0.25015206 0.018251474)
(0.42207969 -0.25996212 0.017885588)
(0.4463611 -0.26993436 0.017522942)
(0.47118917 -0.28005748 0.017176703)
(0.49654681 -0.29025238 0.016804997)
(0.52240467 -0.30072133 0.016460988)
(0.54880015 -0.31124482 0.016114323)
(0.57567033 -0.32193649 0.015770273)
(0.60304077 -0.33277267 0.015422321)
(0.63087882 -0.34375087 0.015082443)
(0.65918345 -0.35487026 0.014741341)
(0.68794114 -0.36612877 0.014403146)
(0.71714042 -0.37752421 0.014067641)
(0.74676984 -0.38905306 0.013734979)
(0.77681899 -0.40071384 0.013405958)
(0.80727524 -0.4125005 0.013080797)
(0.83812781 -0.42441218 0.012760976)
(0.86936408 -0.43644171 0.012447214)
(0.90097286 -0.44858729 0.012140374)
(0.93294145 -0.46084228 0.011842193)
(0.96525921 -0.47320356 0.01155177)
(0.99791319 -0.48566569 0.011272427)
(1.0308926 -0.49822348 0.011002034)
(1.0641847 -0.51087413 0.010744237)
(1.0977794 -0.52361013 0.010496479)
(1.1316634 -0.53643012 0.010262472)
(1.1658272 -0.5493273 0.010039612)
(1.2002582 -0.56229891 0.009830523)
(1.2349467 -0.57534064 0.0096340083)
(1.2698811 -0.58844852 0.0094509732)
(1.3050521 -0.60161921 0.0092808716)
(1.3404483 -0.61484992 0.0091245671)
(1.3760617 -0.62813612 0.0089808805)
(1.4118814 -0.64147656 0.0088504847)
(1.4478994 -0.6548685 0.0087327038)
(1.484109 -0.66830621 0.0086261052)
(1.5204957 -0.68179885 0.008535203)
(1.5570677 -0.69531751 0.0084497369)
(1.5937863 -0.70889795 0.0083784546)
(1.6306846 -0.72250794 0.0083157559)
(1.6677263 -0.73615645 0.0082643897)
(1.7049215 -0.74984189 0.0082161552)
(1.742257 -0.76356241 0.0081779315)
(1.7797307 -0.77731372 0.0081431096)
(1.8173367 -0.79109592 0.0081135502)
(1.8550702 -0.8049049 0.0080860651)
(1.8929269 -0.81873993 0.0080618953)
(1.9309009 -0.83259628 0.008037887)
(1.9689888 -0.84647221 0.0080155368)
(2.0071836 -0.86036374 0.0079917299)
(2.045483 -0.87426822 0.0079689583)
(2.0838784 -0.88818017 0.0079438575)
(2.1223675 -0.90209817 0.007919884)
(2.1609412 -0.91601446 0.0078940292)
(2.1995961 -0.9299289 0.0078708349)
(2.2383227 -0.94383096 0.007846702)
(2.2771164 -0.95772449 0.0078284122)
(2.3159672 -0.97159395 0.0078112745)
(2.3548699 -0.98544948 0.0078041257)
(2.3938134 -0.99927101 0.0077996987)
(2.4327949 -1.0130811 0.0078116171)
(2.4717995 -1.0268533 0.0078230748)
(2.5108549 -1.0406379 0.0078535952)
(2.5498867 -1.0544359 0.0078645926)
(2.6030471 -1.0290926 0.0078353574)
(2.6165647 -0.99004437 0.0078972281)
(2.6300719 -0.95105452 0.008030622)
(2.6434988 -0.91220089 0.0081737252)
(2.6569193 -0.87340233 0.0083761929)
(2.6702964 -0.834664 0.0085733676)
(2.6836928 -0.79599138 0.0088133482)
(2.6970885 -0.75732545 0.0090448375)
(2.7105238 -0.71872508 0.0092773126)
(2.7239683 -0.68007587 0.0095137281)
(2.7374885 -0.64146934 0.0097207002)
(2.7510424 -0.60279317 0.0099142178)
(2.7646758 -0.56411125 0.010083402)
(2.7783472 -0.52529971 0.010210703)
(2.7921705 -0.48652186 0.010302384)
(2.7666928 -0.43345558 0.0098479897)
(2.7274239 -0.4199198 0.0095689642)
(2.6882513 -0.40637107 0.0092617896)
(2.6490432 -0.39285399 0.0089648033)
(2.609829 -0.37937757 0.0086382443)
(2.5705917 -0.36594003 0.0083111338)
(2.5313403 -0.35255574 0.0079709769)
(2.492077 -0.33922462 0.0076226014)
(2.4528068 -0.32596175 0.0072700114)
(2.4135398 -0.31276536 0.006908592)
(2.374277 -0.29964685 0.0065457025)
(2.3350295 -0.28660915 0.0061785923)
(2.2958007 -0.273657 0.0058085007)
(2.256594 -0.26079115 0.0054318308)
(2.2174216 -0.24802596 0.0050561556)
(2.1782877 -0.23535779 0.0046785855)
(2.1391974 -0.2227949 0.004301648)
(2.100154 -0.2103403 0.0039227389)
(2.0611656 -0.19799596 0.0035422626)
(2.0222335 -0.18577043 0.0031610678)
(1.9833656 -0.17366222 0.002777358)
(1.9445635 -0.16168139 0.0023914789)
(1.9058344 -0.14982643 0.0020025493)
(1.8671787 -0.13810761 0.001609513)
(1.8286071 -0.1265254 0.0012137743)
(1.790117 -0.1150832 0.00081167332)
(1.7517112 -0.10379691 0.00040165392)
(1.7134249 -0.092688247 4.6262796e-08)
(1.6752134 -0.081704068 -0.00042071822)
(1.6371199 -0.070907313 -0.00084439392)
(1.5991382 -0.060284178 -0.0012753697)
(1.5612786 -0.049845077 -0.0017107916)
(1.5235454 -0.039596935 -0.0021524634)
(1.4859484 -0.029548923 -0.002600345)
(1.4484959 -0.019708768 -0.0030532039)
(1.4111971 -0.010084473 -0.0035108992)
(1.3740618 -0.00068585814 -0.003972956)
(1.3371006 0.0084796773 -0.0044380395)
(1.3003246 0.017401805 -0.0049056389)
(1.2637451 0.02607328 -0.0053747663)
(1.2273745 0.034483736 -0.0058444184)
(1.1912253 0.042626031 -0.0063134858)
(1.1553104 0.050490455 -0.0067816394)
(1.1196434 0.058069771 -0.0072472556)
(1.084238 0.065355365 -0.0077104099)
(1.0491084 0.072340108 -0.0081699541)
(1.014269 0.079016512 -0.0086257356)
(0.97973429 0.085377984 -0.0090772221)
(0.94551927 0.091417759 -0.0095247017)
(0.91163886 0.097131012 -0.0099673059)
(0.87810834 0.10250925 -0.010405899)
(0.84494239 0.10755412 -0.010841221)
(0.81215767 0.11224839 -0.011270141)
(0.77976865 0.11660536 -0.011701029)
(0.74779187 0.12060225 -0.012121672)
(0.71624559 0.12424984 -0.012544461)
(0.68513248 0.12755367 -0.012967549)
(0.65447482 0.13048442 -0.0133863)
(0.62434185 0.13299615 -0.013778052)
(0.59463612 0.13525523 -0.014218691)
(0.5654511 0.13708742 -0.014631576)
(0.53686341 0.13848701 -0.015015908)
(0.50873435 0.13962753 -0.015435398)
(0.48120116 0.1403508 -0.015852533)
(0.45421891 0.14071038 -0.016259442)
(0.42790759 0.1406373 -0.016661134)
(0.40211561 0.14030159 -0.017046189)
(0.37707011 0.13946166 -0.017436951)
(0.35258027 0.13837491 -0.017844015)
(0.32881851 0.13687604 -0.018232983)
(0.30572132 0.13500814 -0.018614777)
(0.28333079 0.13281718 -0.019003582)
(0.26174793 0.13014465 -0.019335797)
(0.240806 0.12730692 -0.019739422)
(0.22068759 0.12402947 -0.020094222)
(0.20138082 0.12036176 -0.020414233)
(0.18281409 0.11652089 -0.020810127)
(0.1651506 0.11216661 -0.021081116)
(0.14824559 0.10772915 -0.021472716)
(0.13228102 0.1027717 -0.021731903)
(0.11719614 0.097662548 -0.022053309)
(0.10290508 0.092248064 -0.022308382)
(0.089589815 0.086686844 -0.022633545)
(0.077257574 0.080621428 -0.022770156)
(0.065792981 0.074704981 -0.023045503)
(0.055323557 0.06831602 -0.023120204)
(0.045907349 0.061864829 -0.023152054)
(0.037442249 0.055284378 -0.023060896)
(0.030000716 0.048649639 -0.022813737)
(0.02363339 0.041936566 -0.022325918)
(0.018356148 0.035138884 -0.021394704)
(0.014194143 0.028350894 -0.020045315)
(0.011152163 0.022231561 -0.01808584)
(0.0084561232 0.015511091 -0.014556615)
(0.0095698564 0.0094334976 -0.0086078469)
(0 0 0)
(0 0 0)
(0 0 0)
(0 0 0)
(0 0 0)
(0 0 0)
(0 0 0)
(0 0 0)
(0 0 0)
(0 0 0)
(0 0 0)
(0 0 0)
(0 0 0)
(0 0 0)
(0 0 0)
(0 0 0)
(0 0 0)
(0 0 0)
(0 0 0)
(0 0 0)
(0 0 0)
(0 0 0)
(0 0 0)
(0 0 0)
(0 0 0)
(0 0 0)
(0 0 0)
(0 0 0)
(0 0 0)
(0 0 0)
(2.5888389 -1.0651201 0.0081591851)
(2.5888436 -1.0654499 0.0081194916)
(2.5888571 -1.0657443 0.0080798923)
(2.588879 -1.0660333 0.0080532811)
(2.5889045 -1.0663092 0.0080310143)
(2.5889335 -1.0665716 0.0080222228)
(2.58896 -1.0668197 0.0080140089)
(2.5889863 -1.0670547 0.0080136125)
(2.5890102 -1.0672781 0.0080090565)
(2.5890306 -1.0674852 0.0080021791)
(2.5890548 -1.0676901 0.0079924301)
(2.5890766 -1.0678612 0.0079694424)
(2.5891046 -1.0680356 0.0079415769)
(2.5891391 -1.0681808 0.0079038439)
(2.5891824 -1.0683296 0.0078587153)
(2.8059375 -0.44380106 0.01088353)
(2.8060358 -0.4439984 0.010876669)
(2.8061286 -0.4441925 0.010839689)
(2.8062172 -0.44440198 0.010803409)
(2.8062797 -0.44461874 0.010762951)
(2.8063368 -0.44484258 0.010706527)
(2.8063817 -0.44506528 0.010652647)
(2.8064115 -0.44529365 0.010590636)
(2.8064302 -0.44552133 0.010531625)
(2.8064342 -0.44575096 0.010476048)
(2.8064265 -0.44598688 0.010424229)
(2.8064042 -0.44622501 0.010380849)
(2.8063792 -0.44646935 0.010356983)
(2.8063204 -0.44674452 0.010311031)
(2.8062996 -0.44698825 0.01030353)
(0.0038503016 0.0079315224 0.011422544)
(0.0056314612 0.013749275 0.013406441)
(0.0077241304 0.019728201 0.016568547)
(0.011115108 0.025563298 0.017910189)
(0.014957864 0.0313914 0.019323613)
(0.020268786 0.037288661 0.020028252)
(0.026352587 0.0430939 0.020550083)
(0.033752721 0.04900314 0.020824551)
(0.041936769 0.054686593 0.02098971)
(0.05130719 0.060390486 0.021053494)
(0.061575792 0.065806997 0.020967439)
(0.0728849 0.071209755 0.020964468)
(0.085078212 0.076232601 0.020781479)
(0.09824198 0.081216381 0.020689878)
(0.11226885 0.085781245 0.020489804)
(0.12726048 0.090259229 0.020362022)
(0.14307775 0.094312516 0.020132481)
(0.15972999 0.098217921 0.019989725)
(0.17726524 0.10171311 0.019763057)
(0.19561449 0.10499356 0.019580259)
(0.21474094 0.10789809 0.019370233)
(0.23468321 0.1104985 0.019174405)
(0.25537901 0.11279023 0.018945406)
(0.27679933 0.11471354 0.018747991)
(0.29898803 0.11631649 0.018514042)
(0.32186341 0.1175591 0.018310311)
(0.34543928 0.11847726 0.018072677)
(0.36967378 0.11901072 0.017859822)
(0.39458472 0.11920037 0.017630196)
(0.4201193 0.11905555 0.017405674)
(0.44626372 0.11851096 0.017172738)
(0.47302549 0.11763487 0.016949509)
(0.50035998 0.11639075 0.016725989)
(0.52824802 0.11479554 0.016496274)
(0.55669224 0.1128394 0.016270608)
(0.58566225 0.1105106 0.016045172)
(0.61514486 0.10785938 0.01581972)
(0.64511182 0.10482793 0.015590006)
(0.67557957 0.10146287 0.01536316)
(0.7064949 0.097744983 0.015143329)
(0.73786765 0.093684376 0.01492156)
(0.76965991 0.089272147 0.014694044)
(0.80188077 0.084541771 0.014477064)
(0.83449888 0.079456456 0.014253478)
(0.86749768 0.074059926 0.014034856)
(0.90087145 0.068332462 0.013820051)
(0.93459574 0.062287084 0.013604134)
(0.96866279 0.055929357 0.013396164)
(1.0030513 0.049263861 0.013189428)
(1.0377522 0.042296355 0.012988992)
(1.0727457 0.035035612 0.012792938)
(1.108021 0.027485088 0.01260436)
(1.1435618 0.019655673 0.012420625)
(1.1793553 0.011550871 0.01224563)
(1.2153875 0.0031822672 0.012076929)
(1.2516454 -0.0054463869 0.011917219)
(1.288117 -0.014322925 0.01176492)
(1.3247891 -0.023443092 0.011621868)
(1.3616509 -0.032795391 0.011487241)
(1.3986912 -0.042374176 0.011361963)
(1.435899 -0.052169139 0.011245226)
(1.4732655 -0.062172911 0.011138193)
(1.5107783 -0.072378077 0.011040436)
(1.5484346 -0.082777594 0.010952236)
(1.5862156 -0.093353386 0.010871316)
(1.6241291 -0.10412474 0.01080345)
(1.6621655 -0.11505027 0.010741119)
(1.7002897 -0.12614572 0.010692338)
(1.7385315 -0.137397 0.010650575)
(1.776858 -0.14880256 0.010617761)
(1.8152849 -0.1603504 0.0105885)
(1.8537941 -0.17203938 0.01056922)
(1.892391 -0.18386187 0.010551414)
(1.9310585 -0.19581686 0.0105436)
(1.9698057 -0.20789153 0.010536433)
(2.0086127 -0.22009978 0.010538418)
(2.0474929 -0.23240513 0.010536396)
(2.0864205 -0.24485037 0.010545978)
(2.1254157 -0.25737044 0.010545426)
(2.1644479 -0.27003361 0.0105595)
(2.2035353 -0.28275989 0.010559086)
(2.2426581 -0.29561029 0.01057251)
(2.2818161 -0.30853773 0.010573146)
(2.3209998 -0.32155513 0.01058343)
(2.3602138 -0.33465097 0.010580589)
(2.3994423 -0.34783283 0.010592418)
(2.438691 -0.36108256 0.010594507)
(2.4779345 -0.37438998 0.010600767)
(2.5171948 -0.38776187 0.010608064)
(2.5564201 -0.40118962 0.010629919)
(2.5956747 -0.41464134 0.010625166)
(2.6348736 -0.4281474 0.010663627)
(2.6740659 -0.44172411 0.010674376)
(2.7132767 -0.45525659 0.010674077)
(2.7524181 -0.46899785 0.010665203)
(0.0010324899 0.0070483897 0.010313882)
(0.0025879112 0.01066808 0.012105498)
(0.0054207897 0.016755063 0.014257674)
(0.008253257 0.021403166 0.015741051)
(0.012347816 0.026856692 0.016655407)
(0.017372312 0.031831131 0.017240271)
(0.023563681 0.037130461 0.017641114)
(0.030638799 0.042088195 0.017882526)
(0.038877241 0.047133198 0.01804913)
(0.048101525 0.051906018 0.017998232)
(0.058268917 0.056651711 0.018084351)
(0.069444607 0.06111504 0.01791141)
(0.081521686 0.065479776 0.017904663)
(0.094566383 0.069541655 0.017716636)
(0.10846566 0.073434487 0.017668291)
(0.1233308 0.077036615 0.017423013)
(0.13892654 0.080419478 0.017371265)
(0.15552517 0.083484042 0.01715292)
(0.17284069 0.086300773 0.017029651)
(0.1910404 0.088795369 0.016840301)
(0.20998205 0.091005387 0.016698803)
(0.22975918 0.092903765 0.016492011)
(0.25023804 0.094481581 0.016348461)
(0.27152066 0.095735397 0.016158109)
(0.2934886 0.096649535 0.015990484)
(0.31618845 0.097260083 0.015794551)
(0.33955424 0.097502457 0.015623483)
(0.36361177 0.097418083 0.015444317)
(0.38831097 0.09699722 0.015250995)
(0.41364344 0.096221072 0.015067888)
(0.43959498 0.095104394 0.014890631)
(0.46614853 0.093644334 0.014700926)
(0.49326444 0.09184455 0.01451458)
(0.52095638 0.08968582 0.014332658)
(0.54919412 0.087189069 0.014145335)
(0.57796015 0.084354483 0.013963563)
(0.60724515 0.081166213 0.013776825)
(0.63702575 0.077644311 0.013598997)
(0.66727048 0.073782446 0.013417625)
(0.69799438 0.069597885 0.013238143)
(0.7291537 0.065064139 0.013051124)
(0.76075627 0.060223453 0.01288051)
(0.79277959 0.055032499 0.012688455)
(0.82519684 0.049541485 0.012521385)
(0.85801095 0.043728549 0.012339606)
(0.89119692 0.037602097 0.012169295)
(0.92473889 0.031170998 0.01199768)
(0.95862667 0.024439181 0.011833921)
(0.99284164 0.017410687 0.011668798)
(1.0273713 0.010094398 0.011513956)
(1.0621994 0.0024952882 0.011360136)
(1.0973133 -0.005380993 0.011214916)
(1.1326978 -0.01352414 0.011073884)
(1.1683394 -0.021931578 0.010941421)
(1.2042251 -0.030590892 0.010814292)
(1.2403412 -0.039499149 0.010696136)
(1.2766759 -0.048643984 0.010584059)
(1.313216 -0.058022273 0.010481489)
(1.3499509 -0.067620833 0.010385517)
(1.3868688 -0.077436955 0.010298663)
(1.4239591 -0.087457723 0.010219723)
(1.4612125 -0.097678703 0.010148859)
(1.4986174 -0.10809246 0.010088065)
(1.5361685 -0.11868556 0.010031803)
(1.5738529 -0.12945637 0.0099879057)
(1.611677 -0.14040054 0.0099511802)
(1.6495879 -0.15148772 0.0099240096)
(1.6876323 -0.16275719 0.0099072029)
(1.7257872 -0.17416808 0.0098824015)
(1.7640415 -0.18572879 0.0098769587)
(1.8023975 -0.19741833 0.0098697837)
(1.8408344 -0.20924987 0.0098783258)
(1.8793641 -0.22119946 0.0098837793)
(1.9179642 -0.23328668 0.0099055918)
(1.9566546 -0.24547779 0.0099172204)
(1.9953975 -0.25780604 0.0099499713)
(2.0342291 -0.27021752 0.009963159)
(2.0730983 -0.28277227 0.010004675)
(2.112054 -0.29538694 0.010016051)
(2.15103 -0.30815112 0.010064737)
(2.1900919 -0.32095703 0.010072038)
(2.2291616 -0.33390089 0.010119547)
(2.2682986 -0.34690078 0.010136395)
(2.3074457 -0.36000341 0.010162243)
(2.3466565 -0.37316149 0.010181443)
(2.3858507 -0.38640907 0.010217263)
(2.4250866 -0.39971078 0.010236829)
(2.4643102 -0.41306562 0.010267824)
(2.5035519 -0.42650912 0.010299475)
(2.5427812 -0.43994102 0.010312939)
(2.5820107 -0.45348222 0.010353147)
(2.6211989 -0.46702036 0.01037239)
(2.6604099 -0.48061636 0.010387913)
(2.6995686 -0.49425447 0.010395329)
(2.73876 -0.50797645 0.010384783)
(-0.00081216524 0.0056024373 0.008964125)
(0.00064989092 0.0089131739 0.010298604)
(0.0024123497 0.013574161 0.012530212)
(0.0055626421 0.017895328 0.013459124)
(0.0095256605 0.022357735 0.014089335)
(0.014726118 0.026882137 0.01453374)
(0.020630384 0.031173657 0.014845329)
(0.027895087 0.035530045 0.015044667)
(0.035960094 0.039595146 0.01501699)
(0.045099512 0.043760627 0.015168272)
(0.055170871 0.047515016 0.015017978)
(0.066268146 0.051350721 0.015064181)
(0.078215576 0.054746069 0.014893865)
(0.091128892 0.05816186 0.014892796)
(0.10493419 0.061157721 0.014673305)
(0.11957263 0.064072286 0.014675472)
(0.13513921 0.066601357 0.01446976)
(0.15149743 0.068980042 0.014393621)
(0.16869564 0.07099977 0.014235988)
(0.18671046 0.072792966 0.014135315)
(0.20551731 0.074270379 0.013969898)
(0.22508844 0.075443178 0.013868613)
(0.24543284 0.076330567 0.01371073)
(0.26649509 0.076879064 0.013586085)
(0.28829473 0.077151332 0.013428119)
(0.3107856 0.077063685 0.013302771)
(0.33397435 0.076675615 0.013155746)
(0.35781814 0.075958828 0.013007287)
(0.38232102 0.074907534 0.012864362)
(0.40744956 0.073526709 0.012728887)
(0.4331996 0.071816757 0.012574837)
(0.45953434 0.069776475 0.012432299)
(0.48646063 0.067395761 0.012292105)
(0.51394436 0.064688246 0.012146396)
(0.54197107 0.061652874 0.012005297)
(0.57052852 0.058281953 0.011861461)
(0.59958449 0.054593883 0.011728047)
(0.62912792 0.050575224 0.011590384)
(0.65919224 0.04622785 0.011449054)
(0.6897009 0.041546384 0.011300153)
(0.72066952 0.036567794 0.01117162)
(0.75207358 0.031258548 0.011016852)
(0.78389391 0.025644012 0.01089609)
(0.8161261 0.019720848 0.01075624)
(0.84874832 0.01348927 0.010622104)
(0.88174386 0.0069635982 0.010494302)
(0.91510249 0.00014241953 0.010365737)
(0.94880878 -0.0069667065 0.010241609)
(0.98284633 -0.014359472 0.010122035)
(1.017202 -0.022028128 0.010007914)
(1.0518619 -0.029968635 0.0098963571)
(1.0868102 -0.03817251 0.0097937353)
(1.1220349 -0.046633684 0.0096940357)
(1.1575205 -0.055345928 0.0096031244)
(1.1932555 -0.064299646 0.0095170283)
(1.2292251 -0.07349052 0.0094391585)
(1.2654183 -0.082907652 0.0093673245)
(1.3018216 -0.092546579 0.0093038317)
(1.3384245 -0.10239623 0.0092460953)
(1.3752149 -0.11245246 0.0091975878)
(1.4121827 -0.12270394 0.0091545292)
(1.4493178 -0.13314686 0.0091202569)
(1.4866095 -0.14377042 0.0090927749)
(1.5240512 -0.15456741 0.0090702793)
(1.5616336 -0.16553703 0.0090597599)
(1.5993377 -0.1766629 0.0090503111)
(1.6371973 -0.18792835 0.0090575471)
(1.6751404 -0.19937163 0.009054638)
(1.7132043 -0.21096149 0.0090809281)
(1.7513727 -0.2226614 0.0091016986)
(1.7896377 -0.23450886 0.0091293716)
(1.8279957 -0.24647321 0.0091644932)
(1.8664492 -0.25856511 0.0091983887)
(1.9049837 -0.27077004 0.0092403148)
(1.9435993 -0.28309371 0.0092818821)
(1.9822876 -0.29552374 0.0093315286)
(2.021052 -0.30805913 0.0093765622)
(2.0598742 -0.32070015 0.0094318347)
(2.0987682 -0.33343134 0.0094786552)
(2.1377084 -0.34626569 0.0095365703)
(2.1767152 -0.35917423 0.0095805481)
(2.2157518 -0.37219467 0.0096465741)
(2.2548489 -0.3852571 0.0096807727)
(2.2939734 -0.39843981 0.0097466608)
(2.3331339 -0.41165505 0.0097883228)
(2.3723094 -0.42496082 0.0098504332)
(2.41152 -0.43830143 0.0098834391)
(2.4507254 -0.45173751 0.0099492296)
(2.4899652 -0.4651782 0.0099741003)
(2.5291683 -0.47870038 0.010039477)
(2.5683965 -0.49225728 0.010071621)
(2.6075907 -0.505826 0.010112445)
(2.6467853 -0.51948483 0.010141254)
(2.6859607 -0.53311944 0.010155499)
(2.7251359 -0.54683214 0.01015608)
(-0.001917283 0.004963618 0.0074619591)
(-0.0012969386 0.0069868506 0.0087585886)
(0.0005169731 0.010904449 0.010097281)
(0.0034594851 0.014217934 0.010760942)
(0.0074460785 0.018072747 0.011284249)
(0.012275962 0.021595405 0.011655285)
(0.018422247 0.02530626 0.011870885)
(0.025420081 0.028696384 0.01188271)
(0.033431566 0.032184821 0.012101573)
(0.042498442 0.035346262 0.011964646)
(0.052499822 0.038481502 0.012068726)
(0.063429818 0.041363218 0.011915755)
(0.075274899 0.044098776 0.011976348)
(0.088108885 0.046627192 0.011771033)
(0.10168646 0.048898311 0.011836129)
(0.11630027 0.050995668 0.011640223)
(0.13162261 0.052801324 0.011622515)
(0.14788593 0.054390134 0.011498356)
(0.16488857 0.055681631 0.011438334)
(0.18277084 0.056734992 0.011311691)
(0.20135383 0.057475251 0.011248419)
(0.2207858 0.057961564 0.011129982)
(0.24090029 0.058131133 0.011043406)
(0.26180725 0.058024141 0.010936821)
(0.28339065 0.057591509 0.010846413)
(0.30570542 0.056862652 0.010745331)
(0.32867742 0.055832366 0.010636942)
(0.35233432 0.054467998 0.010545583)
(0.37662262 0.052802683 0.01044361)
(0.40155457 0.050815437 0.010337858)
(0.4270824 0.048514095 0.010239141)
(0.45322195 0.045884954 0.010143211)
(0.47992866 0.04294562 0.010037328)
(0.50719865 0.039688243 0.0099412355)
(0.5350185 0.036099285 0.0098385884)
(0.56336065 0.032214807 0.0097398734)
(0.59223316 0.02798258 0.0096371302)
(0.62163609 0.023460238 0.0095264932)
(0.6514603 0.018612482 0.0094305901)
(0.68177139 0.01348328 0.0093470262)
(0.71252795 0.008029193 0.0092418147)
(0.74372637 0.0022707141 0.0091587914)
(0.7753461 -0.0037775464 0.0090588291)
(0.8073728 -0.01012703 0.0089656227)
(0.83979489 -0.01676227 0.0088796792)
(0.87259549 -0.023686642 0.0087947618)
(0.90576346 -0.030892595 0.0087101778)
(0.93928054 -0.03837422 0.0086339453)
(0.97313394 -0.046127608 0.0085588001)
(1.0073098 -0.054145158 0.0084889349)
(1.041793 -0.062421874 0.0084240108)