/*--------------------------------*- C++ -*----------------------------------*\
  =========                 |
  \\      /  F ield         | OpenFOAM: The Open Source CFD Toolbox
   \\    /   O peration     | Website:  https://openfoam.org
    \\  /    A nd           | Version:  6
     \\/     M anipulation  |
\*---------------------------------------------------------------------------*/
FoamFile
{
    version     2.0;
    format      ascii;
    class       pointVectorField;
    location    "1.64";
    object      lm;
}
// * * * * * * * * * * * * * * * * * * * * * * * * * * * * * * * * * * * * * //

dimensions      [1 -2 -1 0 0 0 0];

internalField   nonuniform List<vector> 
625
(
(-3.6361799e-15 2.112754e-16 -3.2990721e-16)
(2.8178306e-17 1.9013092e-16 6.1994168e-17)
(4721.1784 1947.1756 -123.45531)
(5072.9534 794.33623 -135.99811)
(6.5239771e-16 2.739523e-16 -5.5565719e-16)
(-3.7042918e-15 1.4868296e-15 -1.3023874e-15)
(5147.6874 714.09723 -134.27401)
(4796.4138 1865.9001 -120.03894)
(-1.9658614e-16 -3.2115893e-17 -1.1045223e-16)
(1.4766345e-16 -3.4299605e-16 -2.8648028e-16)
(-1.0135278e-15 7.0169807e-16 1.7538027e-16)
(4809.3123 1658.4248 -127.08862)
(4895.9488 1370.728 -129.9286)
(4984.6759 1083.1276 -132.96091)
(-4.2339996 28.244268 37.047399)
(33.584076 64.637989 16.484286)
(107.48271 105.02436 -19.724195)
(203.44622 156.91158 -64.125229)
(320.38737 211.99836 -109.24985)
(453.90398 277.07374 -156.47286)
(603.91826 346.94699 -198.2782)
(767.21487 424.42693 -237.3483)
(944.50025 506.85461 -269.02044)
(1132.3841 593.97727 -295.2763)
(1332.2803 686.09256 -312.98868)
(1542.3325 781.41435 -323.83687)
(1763.7665 879.89639 -327.26668)
(1994.6092 979.82414 -324.27912)
(2236.1262 1081.451 -315.45716)
(2486.7352 1183.0994 -301.83851)
(2746.3758 1285.0091 -284.85412)
(3014.6843 1385.0859 -264.29359)
(3289.403 1484.7419 -243.01268)
(3569.9897 1581.5375 -219.4776)
(3855.6939 1676.2573 -195.58268)
(4142.9136 1768.9641 -171.9406)
(4432.5336 1858.5282 -147.26404)
(23.973095 -68.918231 -72.766006)
(84.977333 -141.45246 -86.019094)
(167.20484 -200.90788 -114.63638)
(273.31919 -249.49012 -151.36375)
(406.02752 -280.05473 -187.19253)
(558.68476 -296.14109 -225.23873)
(728.03271 -297.5638 -260.75788)
(913.14122 -284.51519 -292.44347)
(1112.2003 -260.92479 -319.37259)
(1321.8412 -225.13769 -339.96772)
(1542.9863 -181.85122 -354.07746)
(1774.8156 -130.74466 -361.48005)
(2015.4098 -73.216081 -362.56616)
(2265.4028 -10.45372 -357.28743)
(2523.8909 56.724507 -346.72539)
(2790.1406 127.83468 -331.43671)
(3063.4233 202.47571 -312.238)
(3342.6693 280.2301 -290.25262)
(3626.929 360.84676 -265.71877)
(3914.416 444.23792 -240.29459)
(4204.5874 529.67939 -213.53625)
(4494.689 616.77951 -187.31304)
(4785.0612 705.58339 -161.11519)
(-4.8813632e-16 1.9183015e-16 -1.0607077e-16)
(-2.6214496e-15 -5.6404768e-16 7.244144e-16)
(-2.4010456e-15 1.4295629e-15 -1.6975308e-16)
(2.9906863 -15.396147 34.444308)
(52.40646 -72.394947 13.256884)
(138.53603 -99.780139 -27.772874)
(252.80937 -127.40979 -72.373366)
(390.40765 -150.51172 -117.10714)
(549.75945 -165.64362 -162.13984)
(725.45471 -171.382 -203.34803)
(918.46852 -170.90669 -241.65865)
(1124.0052 -164.16293 -271.88045)
(1342.2526 -147.76949 -296.7045)
(1570.8755 -127.02806 -313.19211)
(1809.6483 -97.093011 -323.21575)
(2057.3192 -62.086104 -325.90665)
(2313.6181 -19.057206 -323.14666)
(2577.863 29.834577 -314.71667)
(2848.9326 85.786642 -302.22654)
(3126.6178 147.66411 -286.27644)
(3409.3084 215.85006 -267.83597)
(3696.3559 289.30107 -247.58764)
(3986.0417 367.98521 -226.12577)
(4277.3367 450.51533 -203.8114)
(4568.7335 536.62051 -180.88948)
(4859.0423 624.99674 -157.50225)
(5058.9751 1002.9567 -130.82257)
(4970.1036 1289.3211 -126.89596)
(4884.6448 1576.5572 -122.96848)
(4507.7407 1777.0321 -145.60916)
(4216.566 1686.8379 -172.60989)
(3926.1622 1594.7902 -200.14392)
(3636.5626 1501.8162 -228.62627)
(3350.1344 1407.9749 -256.41682)
(3068.1636 1314.4095 -283.22018)
(2792.0254 1221.7424 -307.87783)
(2523.1446 1131.0803 -329.54629)
(2262.5719 1042.9902 -347.11536)
(2010.9683 958.58829 -360.02475)
(1770.1248 877.52134 -366.41709)
(1539.2468 801.16068 -367.2791)
(1320.4907 729.09033 -361.08426)
(1114.4011 659.54441 -346.02483)
(923.50467 593.00505 -325.91894)
(742.79692 532.72797 -300.32119)
(581.39303 470.68643 -267.01838)
(435.07771 408.95207 -231.58676)
(310.74172 347.16043 -192.89878)
(202.28105 285.19276 -156.67228)
(115.99198 216.48541 -121.66358)
(61.511797 146.38256 -87.753467)
(48.662279 74.517241 -46.128841)
(-1.3028228e-15 -3.4252847e-16 3.3068324e-16)
(-2.0449562e-15 -3.5718549e-16 -7.3673077e-16)
(-1.4121951e-15 -1.0527101e-15 6.223458e-16)
(-1.2019486e-15 6.189313e-16 -3.4292956e-16)
(-1.2511779e-16 -6.848356e-17 2.1836215e-16)
(-3.8898857e-17 4.7141393e-16 -3.1043199e-16)
(5092.0547 773.53196 -135.88429)
(5110.7723 753.57285 -135.10234)
(5128.866 733.39002 -134.54852)
(4739.883 1927.3234 -122.64243)
(4758.9488 1907.4749 -122.40765)
(4777.5263 1887.2393 -120.92489)
(-13.337628 3.4898618 10.941392)
(26.959192 5.795705 -16.294209)
(103.66589 18.607269 -48.180865)
(204.65562 44.81484 -88.135944)
(325.96996 78.25791 -130.62512)
(467.12487 124.79233 -172.5038)
(623.56783 177.35793 -212.41154)
(793.43194 239.83052 -248.71844)
(975.87399 308.6721 -279.33051)
(1171.0484 384.74383 -303.16357)
(1376.6119 465.44163 -319.91666)
(1593.1186 550.5207 -330.17602)
(1819.6436 639.10388 -333.22963)
(2056.0797 730.22508 -330.1663)
(2302.4348 823.28476 -321.36889)
(2557.5252 917.407 -308.12399)
(2821.8785 1012.2878 -290.81721)
(3093.2058 1106.8731 -270.66276)
(3371.4636 1201.7857 -248.78303)
(3654.8317 1295.0628 -224.69546)
(3942.1717 1387.7196 -200.92827)
(4230.6971 1479.1935 -175.80133)
(4521.2102 1569.3282 -151.12058)
(-11.930317 -21.589582 -19.898626)
(38.492603 -42.504384 -44.785379)
(115.89004 -53.040408 -74.758241)
(219.09851 -53.000341 -110.86115)
(345.87965 -41.597513 -150.49903)
(490.13207 -16.909212 -190.14845)
(651.08404 17.278057 -228.17576)
(826.66446 63.393478 -261.97505)
(1015.8374 116.60138 -290.14634)
(1215.901 178.79708 -313.13459)
(1427.0441 246.72826 -329.00548)
(1648.7218 320.82544 -338.19366)
(1880.3542 399.08467 -340.47195)
(2121.8003 481.11187 -336.83309)
(2372.3271 565.78516 -327.59862)
(2631.749 652.82209 -313.76696)
(2899.1843 741.31302 -296.0706)
(3173.4986 830.99473 -275.59206)
(3454.3831 921.43096 -252.8846)
(3738.9758 1011.8037 -228.97691)
(4027.8872 1102.4478 -204.01596)
(4317.2726 1192.6712 -179.30005)
(4608.3902 1282.4594 -154.33402)
(-0.89879144 -45.047296 -41.682305)
(53.54766 -86.615901 -66.360738)
(133.47534 -123.97397 -94.170956)
(238.88066 -147.48437 -129.90382)
(368.63921 -158.18081 -168.12585)
(516.21908 -153.75408 -206.41776)
(683.01306 -137.45208 -242.61197)
(863.66535 -108.93562 -275.21336)
(1056.92 -70.151947 -303.4695)
(1262.5525 -21.637438 -325.12851)
(1479.2338 34.19766 -340.11774)
(1705.9238 96.928489 -348.52225)
(1942.6444 164.71367 -350.39439)
(2188.4192 237.25163 -346.27366)
(2443.322 313.36949 -336.54597)
(2706.4559 392.71464 -322.32866)
(2977.1356 474.37479 -304.14878)
(3254.6704 558.39417 -283.03946)
(3537.323 643.8951 -259.88714)
(3824.6961 730.73371 -234.82813)
(4114.2395 818.47865 -209.82776)
(4405.1775 906.67174 -183.80595)
(4696.2432 994.79078 -158.27241)
(-2.5953868e-15 -2.1703571e-16 4.2716933e-18)
(-3.8783653e-15 3.5858996e-16 7.5215743e-16)
(-9.8459492e-16 7.8127033e-16 2.7525688e-16)
(-3.9146975e-16 7.8165185e-18 1.2560621e-16)
(1.6350797e-16 -2.4226884e-16 -1.2066667e-17)
(-1.0304172e-15 -9.2669207e-16 -7.5672327e-16)
(-6.4481012e-16 3.525084e-16 2.7116342e-16)
(-3.5205005e-15 9.4737515e-16 -2.5196009e-17)
(-3.8147498e-15 1.043275e-15 1.2924308e-16)
(39.731934 -27.999783 -26.333552)
(36.719968 -28.162444 -4.1965692)
(23.91317 -17.886452 14.883776)
(103.8381 -119.96491 -56.902086)
(93.375595 -101.30593 -32.910979)
(81.346934 -85.349226 -5.6649233)
(174.21144 -167.27673 -87.464619)
(170.84201 -143.95786 -61.798257)
(162.92112 -129.17219 -44.80652)
(286.41331 -211.72493 -127.07958)
(285.64191 -185.13717 -106.82116)
(275.26196 -160.8315 -87.559361)
(417.26452 -240.27307 -167.39428)
(414.56067 -209.93831 -148.17498)
(408.5551 -183.47464 -132.62824)
(569.1022 -256.61543 -208.44954)
(570.32695 -224.88868 -191.81641)
(565.80563 -198.11517 -177.03735)
(739.63154 -259.18991 -246.32555)
(741.83474 -230.8618 -233.78873)
(739.29962 -203.68482 -217.19737)
(926.01564 -251.9823 -280.89968)
(928.35593 -221.43552 -269.14207)
(928.19838 -198.04252 -255.38006)
(1124.3331 -230.87593 -308.88992)
(1129.7494 -207.73872 -299.80031)
(1131.4675 -187.00067 -285.2421)
(1336.0014 -202.57115 -331.72059)
(1342.9115 -182.56002 -322.77669)
(1346.6868 -165.35347 -309.64871)
(1558.6619 -165.07825 -346.18438)
(1567.1992 -150.35768 -338.96833)
(1572.7082 -138.04987 -325.86072)
(1791.3056 -119.81314 -354.49427)
(1801.2298 -110.41422 -347.93473)
(1808.9463 -102.80394 -335.21172)
(2033.2767 -68.653828 -355.74458)
(2045.1861 -64.51699 -349.6121)
(2054.4361 -61.577251 -337.38537)
(2284.5719 -11.451844 -350.88905)
(2297.5388 -11.94174 -345.2385)
(2308.4862 -14.001748 -333.76349)
(2543.8366 50.642125 -340.505)
(2558.2366 45.477786 -335.24476)
(2570.7067 39.565039 -324.49982)
(2810.7602 117.50279 -325.59751)
(2826.2326 108.79703 -320.71408)
(2839.9948 98.867038 -310.89146)
(3084.4438 188.59259 -306.89766)
(3100.838 176.39446 -302.39077)
(3115.8161 163.56597 -293.8378)
(3363.7656 263.56207 -285.35234)
(3380.997 249.09236 -281.48086)
(3396.9429 233.59478 -274.05725)
(3647.8376 342.22861 -261.80637)
(3665.5787 325.56465 -258.40697)
(3682.3364 308.31614 -252.51004)
(3935.0086 424.16774 -236.91536)
(3953.2249 406.32996 -234.20072)
(3970.6705 387.63744 -229.74542)
(4224.2498 508.81572 -211.24748)
(4242.6849 489.93297 -209.36469)
(4260.6195 470.50133 -206.23502)
(4514.1178 595.80681 -185.84239)
(4532.892 576.34862 -184.41397)
(4551.234 556.37221 -182.32117)
(4803.9154 684.55072 -160.33635)
(4822.5519 664.60036 -159.38635)
(4841.0003 644.89489 -158.2393)
(4828.1615 1638.4681 -126.03196)
(4847.1691 1618.2964 -125.35114)
(4865.71 1597.8461 -123.98445)
(4914.783 1350.4002 -129.06067)
(4933.6508 1330.3458 -128.7267)
(4951.5474 1310.0884 -127.6302)
(5003.85 1062.5301 -132.55792)
(5022.6436 1042.5751 -131.98477)
(5040.9208 1022.3062 -131.31618)
(27.407009 37.132448 20.569072)
(40.802396 48.987042 3.7341674)
(50.02326 52.872324 -12.982479)
(67.191913 89.430209 -4.9248211)
(73.794959 111.71215 -27.148415)
(78.225128 117.2656 -58.884115)
(130.38764 147.29853 -39.02449)
(137.04324 170.48749 -61.332211)
(139.89585 187.88317 -95.200908)
(223.64181 200.52624 -85.354931)
(224.55147 230.53001 -103.70718)
(224.4727 250.9309 -134.00245)
(331.33629 260.66847 -128.90055)
(333.09543 290.39719 -150.87728)
(329.13848 315.68206 -173.28788)
(464.42 323.70759 -177.24432)
(460.72287 353.37186 -190.099)
(457.47588 378.42723 -216.53999)
(610.47237 389.61154 -218.71709)
(606.63409 417.50138 -233.92836)
(600.91155 442.69382 -254.3805)
(773.17957 461.83254 -257.30954)
(767.63412 487.19128 -269.69969)
(762.46997 509.8675 -290.156)
(946.69054 537.99374 -287.11391)
(945.54731 557.57963 -303.80186)
(937.74159 577.19993 -316.83899)
(1137.8607 618.98176 -314.40165)
(1134.1975 632.56569 -322.31509)
(1129.7287 648.37269 -340.49166)
(1337.7993 703.24726 -330.13673)
(1336.5112 713.37283 -341.84535)
(1331.6978 724.61662 -355.33536)
(1550.081 792.49195 -340.482)
(1550.3394 796.17216 -349.94958)
(1547.8425 803.61058 -362.7004)
(1772.8854 883.54636 -342.29484)
(1775.8338 883.24363 -351.89101)
(1774.8347 885.34284 -362.50977)
(2006.2227 978.27118 -338.13238)
(2011.2876 973.11389 -346.42133)
(2012.7639 971.12786 -356.44008)
(2249.4275 1074.5323 -327.57109)
(2257.12 1065.6534 -335.67738)
(2260.7738 1059.8334 -343.89791)
(2501.95 1172.2932 -312.73111)
(2512.0485 1160.2767 -319.45618)
(2518.1338 1150.885 -326.72882)
(2763.3659 1270.7028 -293.47228)
(2775.5569 1255.9712 -299.66069)
(2783.9566 1243.7881 -305.42961)
(3032.5014 1368.7419 -271.90487)
(3046.4892 1352.334 -276.77075)
(3057.1242 1337.7264 -281.27479)
(3308.0098 1466.4578 -248.10964)
(3323.9439 1448.2488 -251.7719)
(3336.7117 1431.8598 -255.00185)
(3589.5088 1561.976 -222.83342)
(3606.5581 1543.4536 -226.09594)
(3620.8727 1525.5279 -227.79485)
(3874.9014 1656.3718 -197.76833)
(3892.9471 1636.7664 -199.39243)
(3908.6653 1618.0019 -199.95151)
(4162.5093 1748.5004 -172.8433)
(4180.4923 1728.8725 -173.05334)
(4197.9056 1709.1767 -172.87929)
(4451.8956 1838.5374 -146.89705)
(4470.4096 1818.4263 -146.48722)
(4488.8152 1798.5121 -146.20405)
(5.5311207 26.960997 -42.230739)
(38.048061 104.45508 -69.876348)
(101.73443 133.36086 -98.973355)
(196.29824 176.59111 -133.55928)
(312.63354 220.26527 -174.97507)
(449.98314 260.50957 -210.41562)
(603.94459 306.05551 -248.62936)
(775.85765 350.91428 -280.41373)
(962.27951 400.84509 -307.59625)
(1162.5001 453.15956 -328.25642)
(1374.3824 511.39081 -344.15691)
(1599.6191 571.00847 -349.8139)
(1835.1076 638.37976 -351.33691)
(2080.5946 709.09525 -345.70925)
(2336.2542 784.64209 -334.52331)
(2600.2061 864.4711 -318.83224)
(2872.149 947.95103 -299.23635)
(3150.8188 1034.4713 -276.75786)
(3434.8653 1123.2641 -252.25243)
(3722.9716 1213.664 -226.56408)
(4013.6995 1304.9031 -200.26164)
(4304.7315 1395.896 -174.21935)
(4596.3971 1487.2612 -148.1517)
(-13.049242 15.375748 -15.260218)
(28.690886 52.432919 -48.584916)
(107.82212 52.054627 -76.062081)
(207.76416 78.705062 -117.48153)
(332.49914 95.159771 -155.57727)
(477.42262 116.97513 -195.27518)
(639.84163 144.57185 -233.13203)
(819.452 175.21513 -266.74992)
(1013.0239 209.19539 -294.61381)
(1219.4498 250.77137 -316.89383)
(1437.4413 295.54533 -331.81235)
(1667.879 346.6489 -339.98476)
(1907.0588 403.43076 -342.10024)
(2156.7177 465.56432 -337.30279)
(2414.9701 532.86174 -327.53887)
(2681.4062 605.50512 -313.17598)
(2955.2313 682.46343 -294.94197)
(3235.2499 763.35621 -274.11937)
(3520.3515 847.59031 -250.98391)
(3808.9638 934.21126 -226.89481)
(4100.1002 1022.4546 -201.86599)
(4391.0597 1111.5012 -176.73633)
(4683.4928 1201.6598 -151.63696)
(-17.11458 -5.227578 -0.83752351)
(35.653616 -2.3743453 -21.445672)
(117.7076 -16.153209 -50.990365)
(222.51856 -18.587471 -91.58786)
(353.78527 -21.298098 -132.14842)
(504.92452 -16.802135 -174.67387)
(675.2195 -8.3844014 -213.68439)
(860.76865 6.6821973 -248.88306)
(1060.7299 27.767465 -278.43911)
(1273.0967 54.772448 -301.71075)
(1497.1367 88.141903 -317.86661)
(1731.3286 127.78244 -327.45267)
(1975.4053 173.88121 -329.87642)
(2228.6308 226.19162 -326.63865)
(2490.3668 284.62049 -318.04375)
(2759.696 348.86809 -304.93431)
(3036.065 418.5338 -288.33444)
(3318.1301 493.03351 -269.01204)
(3605.0185 571.90845 -247.68643)
(3895.0823 654.14615 -225.26913)
(4187.0016 739.26624 -201.67767)
(4479.3075 826.03659 -178.29303)
(4770.7337 914.26376 -153.92515)
(4.5805813 9.7104256 6.2355701)
(9.1727833 13.633669 -3.5670418)
(16.177985 19.54421 -14.291656)
(49.986186 34.903058 -22.583432)
(55.244946 53.834987 -33.360739)
(55.366216 62.627509 -55.761911)
(124.40477 59.847531 -55.251148)
(125.93092 80.177331 -71.114042)
(124.7275 106.51228 -84.665926)
(219.076 90.501264 -98.335725)
(221.61599 119.38087 -111.07088)
(217.92907 141.98812 -123.34023)
(339.29624 127.44898 -141.18046)
(337.69938 156.66132 -151.38585)
(334.19744 186.0069 -165.38983)
(475.86543 170.68135 -184.21037)
(474.2694 201.72011 -194.71888)
(470.19411 229.68334 -204.5902)
(630.1977 221.26177 -224.13345)
(627.75342 249.46307 -234.53998)
(623.06398 276.79661 -242.97381)
(798.34341 278.53582 -261.23117)
(797.01222 302.82278 -269.28903)
(792.95668 327.97147 -277.38237)
(982.51921 340.55613 -291.71094)
(980.91161 361.99774 -298.68122)
(976.8847 383.06136 -306.20963)
(1177.5394 409.10368 -315.03854)
(1176.397 425.92153 -321.93925)
(1174.6349 441.02062 -327.25257)
(1384.0028 482.96633 -331.19348)
(1385.2347 493.71246 -338.07484)
(1383.9375 505.49984 -342.93875)
(1601.9888 560.69915 -341.03985)
(1604.9565 566.7627 -346.33791)
(1605.7202 572.64757 -350.67156)
(1830.4225 642.79383 -342.96897)
(1835.4608 643.67935 -348.16448)
(1838.0384 644.55468 -351.18925)
(2068.789 728.00126 -339.08733)
(2075.8993 724.38103 -343.02774)
(2080.7407 720.57673 -346.14226)
(2316.883 815.94673 -329.03198)
(2326.1908 808.296 -332.68815)
(2332.9147 800.3558 -334.85147)
(2573.8524 905.98909 -314.63045)
(2585.0638 894.94278 -317.26857)
(2594.0772 883.27619 -319.16817)
(2839.235 997.49085 -296.02481)
(2852.2903 983.68648 -298.20727)
(2863.2029 969.23335 -299.4704)
(3111.7681 1089.9225 -274.8198)
(3126.4438 1073.9929 -276.14854)
(3139.1557 1057.1311 -277.07482)
(3390.4911 1183.0753 -251.45912)
(3406.574 1165.1267 -252.21984)
(3421.1813 1146.8426 -252.52833)
(3674.2086 1274.8916 -226.70328)
(3691.6744 1256.6262 -226.77751)
(3706.9954 1237.0251 -227.03457)
(3961.2972 1367.2456 -201.73024)
(3979.5514 1348.8281 -201.05934)
(3996.1744 1328.1358 -200.78347)
(4250.3934 1458.4722 -175.87509)
(4268.3384 1438.7691 -175.30101)
(4286.2442 1417.9737 -174.83647)
(4540.1026 1549.1847 -150.45899)
(4558.7887 1529.1633 -149.91546)
(4577.4111 1508.6948 -149.07841)
(0.10543658 -3.456117 -8.3467172)
(3.6692273 2.1844103 -6.8748185)
(5.8464765 6.5683213 -6.0213054)
(55.528995 -14.906953 -39.872542)
(56.269333 2.9445317 -39.102981)
(52.180124 15.862038 -44.405573)
(130.72787 -15.529707 -72.141312)
(134.57153 4.2915036 -71.397594)
(127.20462 29.760492 -73.622433)
(233.35297 -12.660573 -111.58909)
(234.23937 17.566775 -110.80373)
(227.80133 41.754398 -113.65499)
(355.17694 3.4108965 -152.77755)
(358.42362 31.666404 -151.30051)
(350.66826 61.883613 -155.25661)
(499.11591 26.134095 -194.31318)
(500.55655 56.132457 -193.89613)
(493.04066 85.778473 -196.34339)
(658.39982 58.648651 -233.64512)
(661.18187 86.0764 -231.25868)
(654.64125 114.06991 -234.97514)
(834.32646 98.731953 -268.41658)
(837.02221 124.52116 -266.68489)
(830.65488 150.34653 -270.50598)
(1022.4497 147.53837 -296.87968)
(1026.9334 168.16605 -296.09155)
(1022.0977 189.37372 -298.71112)
(1223.6117 203.27739 -320.35465)
(1229.0659 218.86722 -318.74165)
(1225.3074 236.66097 -321.28461)
(1436.352 264.42232 -336.12723)
(1443.0208 275.56831 -333.78335)
(1441.4219 287.18234 -337.29007)
(1659.5843 331.81851 -344.78356)
(1667.8395 337.70461 -342.97649)
(1667.9891 344.47236 -345.29794)
(1892.9129 403.80185 -346.55378)
(1902.8611 404.6953 -344.49898)
(1905.2472 406.25988 -346.81738)
(2135.9908 479.93643 -342.14601)
(2147.5216 476.45124 -340.0582)
(2151.803 473.38938 -342.25723)
(2388.1656 559.78991 -332.01306)
(2401.156 552.05924 -330.2241)
(2407.7963 544.79985 -331.74204)
(2648.903 642.49218 -317.41074)
(2663.2535 631.46193 -315.44822)
(2671.9675 620.58758 -316.89225)
(2917.3927 727.72627 -298.78093)
(2932.9444 713.76389 -297.15634)
(2943.7224 699.9646 -298.12624)
(3192.6242 814.83745 -277.52602)
(3209.231 798.57932 -275.90814)
(3221.8426 782.69004 -276.67978)
(3473.7191 903.38886 -254.08554)
(3491.0971 885.61171 -252.74195)
(3505.4523 867.71909 -252.99208)
(3758.9505 992.7035 -229.5625)
(3777.0928 973.10979 -228.18361)
(3792.5746 954.96729 -228.49846)
(4047.7965 1083.1863 -203.69734)
(4065.2664 1061.9819 -203.77356)
(4082.7905 1043.6231 -202.89281)
(4336.6506 1172.0179 -179.17869)
(4355.1175 1152.5805 -177.97542)
(4373.0247 1132.1268 -177.8135)
(4627.4858 1262.2353 -153.68505)
(4646.276 1242.0296 -152.86749)
(4664.5663 1222.2057 -152.2663)
(10.812968 -18.576617 -17.385826)
(7.2287597 -15.259797 -8.1438111)
(2.5374666 -9.0770017 0.44480471)
(71.651489 -58.450466 -48.586892)
(70.404887 -42.78093 -36.32983)
(57.917453 -27.62967 -27.17367)
(148.42787 -87.873118 -77.946477)
(148.26832 -67.121236 -69.194278)
(136.7364 -41.513312 -58.542967)
(253.69332 -106.61042 -117.14928)
(251.06376 -79.861511 -107.77278)
(244.29125 -52.764123 -99.582258)
(380.45936 -114.12436 -157.70425)
(380.6591 -86.633736 -150.28463)
(373.18078 -55.38579 -141.91456)
(528.53116 -111.10871 -198.87303)
(527.7837 -81.836418 -190.83126)
(522.70326 -50.273213 -183.98637)
(694.13684 -96.987689 -237.06831)
(694.02195 -69.226773 -230.12884)
(691.36632 -38.48271 -224.126)
(874.54232 -72.075866 -271.47677)
(875.34474 -47.156844 -265.94259)
(874.74787 -20.22712 -259.44051)
(1068.9836 -38.827121 -301.18051)
(1071.2099 -17.767326 -294.8161)
(1072.1167 6.8733311 -289.18782)
(1275.8533 2.8775125 -323.63987)
(1278.5183 20.765649 -317.9452)
(1281.8932 39.18171 -312.6952)
(1493.2017 52.463825 -339.15962)
(1498.125 64.620541 -333.93255)
(1503.5464 78.764222 -328.64718)
(1721.5412 108.46217 -347.96759)
(1727.6652 115.7992 -342.93308)
(1735.0465 124.51959 -337.86876)
(1959.5711 169.90876 -349.87661)
(1967.4363 172.51978 -344.84219)
(1976.7257 176.03309 -340.12916)
(2206.7918 236.6382 -345.59418)
(2216.1341 234.75444 -340.95979)
(2227.2172 233.2257 -336.21124)
(2462.8489 307.63529 -335.72112)
(2473.8637 301.69593 -331.22346)
(2486.552 295.78902 -326.76421)
(2726.889 382.48499 -321.27788)
(2739.3045 373.07935 -317.02495)
(2753.4895 363.24432 -312.91653)
(2998.2816 460.66434 -302.84723)
(3012.1091 448.32512 -299.11016)
(3027.492 435.38483 -295.24681)
(3275.9449 541.84811 -281.76365)
(3291.0405 527.17186 -278.27613)
(3307.5297 511.605 -274.96337)
(3558.8878 625.2296 -258.36271)
(3574.958 608.72609 -255.51553)
(3592.1785 591.42435 -252.61365)
(3845.6228 710.73314 -233.63062)
(3862.7562 693.07815 -231.38657)
(3880.5849 674.28394 -229.05412)
(4134.7993 797.68463 -208.57558)
(4152.3181 779.03952 -206.49785)
(4170.6306 759.71767 -204.69159)
(4425.1938 885.5154 -182.80126)
(4443.5247 866.3493 -181.34592)
(4462.0827 846.49667 -179.95097)
(4715.4682 973.90383 -157.31782)
(4733.8567 954.24355 -156.40556)
(4752.6155 933.82302 -155.4958)
)
;

boundaryField
{
    free
    {
        type            zeroGradient;
    }
    fixed
    {
        type            fixedValue;
        value           nonuniform List<vector> 
25
(
(-2.5953868e-15 -2.1703571e-16 4.2716933e-18)
(-1.3028228e-15 -3.4252847e-16 3.3068324e-16)
(-1.9658614e-16 -3.2115893e-17 -1.1045223e-16)
(-3.6361799e-15 2.112754e-16 -3.2990721e-16)
(-3.8783653e-15 3.5858996e-16 7.5215743e-16)
(-2.0449562e-15 -3.5718549e-16 -7.3673077e-16)
(-9.8459492e-16 7.8127033e-16 2.7525688e-16)
(-1.4121951e-15 -1.0527101e-15 6.223458e-16)
(-4.8813632e-16 1.9183015e-16 -1.0607077e-16)
(6.5239771e-16 2.739523e-16 -5.5565719e-16)
(-3.9146975e-16 7.8165185e-18 1.2560621e-16)
(1.4766345e-16 -3.4299605e-16 -2.8648028e-16)
(1.6350797e-16 -2.4226884e-16 -1.2066667e-17)
(-1.0304172e-15 -9.2669207e-16 -7.5672327e-16)
(-2.6214496e-15 -5.6404768e-16 7.244144e-16)
(-6.4481012e-16 3.525084e-16 2.7116342e-16)
(-1.0135278e-15 7.0169807e-16 1.7538027e-16)
(-3.5205005e-15 9.4737515e-16 -2.5196009e-17)
(-3.8147498e-15 1.043275e-15 1.2924308e-16)
(-2.4010456e-15 1.4295629e-15 -1.6975308e-16)
(-1.2019486e-15 6.189313e-16 -3.4292956e-16)
(2.8178306e-17 1.9013092e-16 6.1994168e-17)
(-1.2511779e-16 -6.848356e-17 2.1836215e-16)
(-3.8898857e-17 4.7141393e-16 -3.1043199e-16)
(-3.7042918e-15 1.4868296e-15 -1.3023874e-15)
)
;
    }
    freeTop
    {
        type            zeroGradient;
    }
}


// ************************************************************************* //
