/*--------------------------------*- C++ -*----------------------------------*\
  =========                 |
  \\      /  F ield         | OpenFOAM: The Open Source CFD Toolbox
   \\    /   O peration     | Website:  https://openfoam.org
    \\  /    A nd           | Version:  6
     \\/     M anipulation  |
\*---------------------------------------------------------------------------*/
FoamFile
{
    version     2.0;
    format      ascii;
    class       pointVectorField;
    location    "1.42";
    object      lm;
}
// * * * * * * * * * * * * * * * * * * * * * * * * * * * * * * * * * * * * * //

dimensions      [1 -2 -1 0 0 0 0];

internalField   nonuniform List<vector> 
28033
(
(-1.780536e-14 4.8656612e-16 1.3104288e-15)
(-5.4375576e-15 3.3318594e-15 9.9433006e-16)
(1590.187 974.523 -127.25424)
(1828.9433 608.89908 -128.22062)
(-1.338461e-14 3.0090723e-15 -2.870051e-16)
(-1.2587315e-14 4.9008913e-15 -4.4266115e-15)
(1791.6156 648.71626 -121.34199)
(1562.9553 1018.2893 -132.232)
(-5.6329745e-15 1.0535579e-15 6.7193838e-16)
(-2.4534443e-15 3.0423504e-16 5.8836893e-16)
(-5.4923298e-15 2.4302826e-15 8.9528572e-16)
(-2.6209443e-15 -1.1537891e-15 -6.7979696e-16)
(-7.2548563e-15 1.5542294e-15 1.0013199e-15)
(-4.7613589e-15 -9.2108094e-16 -7.3952737e-16)
(-1.132389e-15 -2.2256662e-17 -6.4484848e-16)
(-7.4239857e-16 -2.4218299e-16 -3.6669977e-16)
(-1.1196198e-15 4.5550132e-16 8.383863e-16)
(-2.3465882e-16 2.2667819e-16 1.4996246e-15)
(-4.0583243e-15 -8.7236639e-16 -1.3429605e-15)
(-5.8237189e-15 8.4462789e-16 7.5519031e-16)
(-5.1611762e-15 1.0100276e-15 9.7613867e-16)
(-1.7679952e-15 -8.1010255e-16 4.5192313e-16)
(-4.4158752e-15 1.0299569e-15 -9.452958e-16)
(1560.9921 923.81183 -126.87448)
(1519.5172 867.63653 -125.45483)
(1491.5776 821.63092 -125.17311)
(1483.9824 788.63116 -125.69515)
(1500.2496 769.16877 -128.16775)
(1540.0469 761.83273 -131.70571)
(1599.9942 763.47737 -136.35763)
(1672.4718 769.77685 -141.53369)
(1749.0983 776.1525 -145.91969)
(1819.5538 778.05233 -149.17077)
(1874.8822 771.87008 -150.50733)
(1908.7058 755.49295 -149.0873)
(1916.4241 728.55379 -146.48024)
(1899.3563 692.3954 -141.08489)
(1864.0137 650.56266 -134.7113)
(4.2498614 11.293431 11.851677)
(9.0020798 15.902713 15.778146)
(16.1294 16.980673 17.942949)
(23.97507 17.095858 19.578132)
(33.22465 15.480416 19.244085)
(43.551069 13.478917 17.078117)
(55.522474 10.428431 13.25618)
(68.658357 7.5084989 7.0443691)
(83.082838 4.1655629 -0.80133632)
(98.307707 1.3752614 -10.424541)
(114.14878 -1.4876027 -21.482737)
(130.16627 -3.4297245 -33.364037)
(145.74999 -5.1685185 -45.56711)
(160.3055 -6.0576846 -57.378807)
(173.52046 -6.6050522 -68.354478)
(184.53489 -6.3176483 -77.646785)
(192.80369 -6.0882721 -84.603534)
(198.13057 -5.4495535 -88.736329)
(200.31326 -4.8238232 -89.943203)
(198.65403 -4.1234984 -87.490084)
(193.57387 -3.9550291 -81.739631)
(185.12803 -3.8094083 -72.433681)
(173.32923 -4.3104224 -60.162936)
(159.08084 -4.9502195 -45.315569)
(142.40326 -6.0758638 -27.999866)
(124.35776 -7.3332217 -9.6514062)
(105.58658 -8.6047341 9.479883)
(86.796586 -9.5076189 28.263587)
(68.796289 -10.098377 46.454271)
(52.591491 -9.7063751 62.376653)
(38.521783 -8.1462183 76.152196)
(27.722817 -5.1462471 86.770305)
(20.167572 -0.54561322 93.937409)
(16.483244 6.1702244 97.712739)
(16.530482 15.1086 97.457508)
(20.562094 26.160065 93.715905)
(28.256455 39.347369 87.080707)
(39.243086 55.017596 77.759078)
(53.187911 72.14151 66.175986)
(69.375633 91.367386 53.618849)
(87.058824 111.7832 40.610082)
(105.86077 133.15368 28.015559)
(124.88554 155.24043 16.687323)
(143.68952 177.43814 7.3650034)
(161.64704 199.52272 0.61541061)
(178.47847 221.10735 -3.1347608)
(193.95967 241.98594 -3.6330305)
(208.04661 261.9599 -0.84165881)
(220.93667 280.97506 5.0305005)
(232.90331 299.02022 13.62005)
(244.45786 316.22056 24.349542)
(256.16679 332.74766 36.517053)
(268.73288 348.85912 49.309667)
(282.86086 364.85865 61.864688)
(299.2814 381.06881 73.323271)
(318.64475 397.83385 82.873179)
(341.52167 415.46103 89.813024)
(368.33453 434.22562 93.58981)
(399.34025 454.33132 93.819649)
(434.60469 475.91515 90.344812)
(474.01517 498.98933 83.187846)
(517.22458 523.50209 72.632499)
(563.80793 549.27554 59.107126)
(612.99516 576.03849 43.176362)
(664.27491 603.4329 25.678127)
(716.52296 631.05326 7.4599509)
(769.095 658.51416 -10.870341)
(821.29759 685.20035 -28.270769)
(871.88588 710.83088 -44.117594)
(920.65689 734.89019 -57.583406)
(966.81876 757.11673 -68.349216)
(1010.0282 777.12595 -76.066564)
(1050.0226 794.766 -80.65763)
(1086.7039 810.02691 -82.17788)
(1120.1234 822.8382 -80.843965)
(1150.4541 833.39874 -77.101018)
(1178.0325 841.79759 -71.4313)
(1203.1915 848.47853 -64.554792)
(1226.3962 853.60585 -57.045445)
(1248.1252 857.65227 -49.711079)
(1268.8422 861.03991 -43.057928)
(1288.8344 864.08909 -37.776993)
(1308.6374 867.10024 -34.242827)
(1328.4977 870.54622 -32.930954)
(1348.5297 874.45165 -33.810107)
(1368.8927 879.31162 -37.122932)
(1389.4237 884.87645 -42.56858)
(1410.3306 891.45035 -49.898216)
(1431.1787 898.80874 -58.878221)
(1452.0018 906.82206 -68.541953)
(1472.2605 915.43429 -79.257793)
(1492.5164 924.23111 -89.27296)
(1510.9944 933.42583 -99.560511)
(1530.1063 942.15209 -108.63768)
(1547.6769 950.63027 -117.28631)
(6.4247669 -10.105548 -11.491597)
(22.991462 -14.224794 -1.7206678)
(37.539075 -19.859165 5.031254)
(48.259008 -22.35253 10.716838)
(61.210546 -24.988123 16.134607)
(72.28218 -27.274956 19.480599)
(82.908951 -28.358456 21.640919)
(92.368236 -28.577553 21.558625)
(100.75738 -27.341833 19.813448)
(107.86635 -24.737176 16.460483)
(113.6793 -20.556551 11.67298)
(118.18505 -14.590453 5.8482102)
(121.32666 -7.0970551 -0.27424757)
(123.11792 2.1387386 -6.7489925)
(123.45883 12.809909 -12.67254)
(122.52566 24.70654 -17.952101)
(120.26005 37.559401 -21.993476)
(116.72815 51.014411 -24.655001)
(111.9667 64.553447 -25.650791)
(106.0969 77.855186 -25.013015)
(99.177775 90.38727 -22.775188)
(91.464809 101.61165 -18.888375)
(82.839648 111.34788 -13.960156)
(73.845974 118.93274 -7.9490299)
(64.460027 124.29651 -1.3509589)
(55.065893 127.10268 5.3138992)
(45.890846 127.30737 11.7476)
(37.317821 124.87948 17.558274)
(29.521094 120.06103 22.264915)
(23.011659 112.91106 25.747636)
(17.908921 104.01966 27.577894)
(14.588897 93.515477 27.808936)
(13.170863 82.128391 26.208452)
(14.01221 70.24167 22.977398)
(16.989727 58.458064 18.208864)
(22.349341 47.224105 11.901421)
(30.175145 37.129623 4.9224119)
(40.36881 28.567907 -2.8396365)
(52.711668 21.75238 -10.890638)
(67.22452 17.027706 -18.815175)
(83.659381 14.434088 -26.226101)
(101.94317 13.980421 -32.733847)
(121.80014 15.524372 -38.08789)
(143.14098 18.844961 -42.01171)
(165.75917 23.613363 -44.384443)
(189.59499 29.455751 -45.113856)
(214.53685 35.94384 -44.241629)
(240.59096 42.657901 -41.858722)
(267.75348 49.181783 -38.164442)
(296.10719 55.16137 -33.399372)
(325.73121 60.304283 -27.877661)
(356.76627 64.417721 -21.927951)
(389.33254 67.407547 -15.911922)
(423.57604 69.300832 -10.169738)
(459.60603 70.229484 -5.0323524)
(497.51861 70.437657 -0.77500984)
(537.34927 70.260434 2.3712543)
(579.10232 70.104375 4.2582121)
(622.69968 70.428182 4.8022718)
(668.02064 71.709583 4.0120384)
(714.86738 74.423208 1.9655818)
(762.9967 79.00077 -1.1747342)
(812.10111 85.823191 -5.198405)
(861.85171 95.166474 -9.8273044)
(911.8722 107.23145 -14.775875)
(961.79158 122.06472 -19.735755)
(1011.223 139.61152 -24.389043)
(1059.7817 159.69089 -28.505318)
(1107.2079 182.1207 -31.883851)
(1153.1645 206.34876 -34.195406)
(1197.3065 231.86411 -35.560665)
(1239.4752 258.35468 -35.982186)
(1279.5486 285.16907 -35.450804)
(1317.4914 311.75837 -34.111696)
(1353.2015 337.62793 -32.234191)
(1386.7665 362.32933 -30.047782)
(1418.2645 385.48838 -27.848487)
(1447.8091 406.82552 -25.963791)
(1475.6016 426.18333 -24.679841)
(1501.8134 443.49455 -24.249219)
(1526.6643 458.81385 -24.905191)
(1550.3601 472.2726 -26.788942)
(1573.0817 484.1064 -30.014071)
(1595.0103 494.58734 -34.569733)
(1616.2616 504.05079 -40.42938)
(1636.952 512.81504 -47.440009)
(1657.1246 521.22487 -55.434352)
(1676.8228 529.55209 -64.156506)
(1696.0452 538.05596 -73.325026)
(1714.7825 546.88473 -82.648391)
(1733.0366 556.15042 -91.788926)
(1750.8058 565.80243 -100.45705)
(1768.13 575.77618 -108.43649)
(1785.0415 585.91632 -115.54163)
(1805.595 596.90265 -121.9465)
(3.2927448e-15 -1.3239155e-15 2.3845803e-16)
(2.4470133e-15 -9.6672015e-16 3.215493e-17)
(-9.0574249e-15 9.0550918e-16 6.4029168e-16)
(-1.2642219e-16 -5.721845e-16 4.4370095e-16)
(-7.6811722e-15 -4.9270561e-16 4.1193361e-16)
(-7.3893964e-15 2.7533729e-15 -1.0951501e-15)
(-3.2915852e-15 -8.1743692e-16 3.8364228e-16)
(-1.9032499e-15 5.3200654e-16 -8.2319016e-17)
(-4.7409759e-15 -4.8623412e-16 4.3918642e-16)
(-1.2869644e-14 1.1845665e-15 6.4228907e-16)
(-9.6157521e-15 1.4157374e-15 5.9836601e-16)
(-9.4077204e-15 4.9518432e-16 1.1192419e-15)
(-5.982767e-15 2.6210694e-16 3.0473736e-16)
(-1.1478475e-14 -5.3386198e-16 1.6580808e-15)
(-5.257323e-15 3.6289085e-16 2.8600704e-16)
(14.835265 -8.6327088 18.718281)
(27.08587 -28.181709 23.967065)
(36.012068 -28.04552 25.061239)
(47.366662 -31.909998 29.077724)
(56.105522 -33.610754 28.785639)
(67.763472 -33.407545 27.167755)
(78.505217 -32.130696 22.746561)
(91.153499 -31.037224 16.729647)
(103.58876 -27.628291 7.9446521)
(117.20179 -25.438799 -2.0390198)
(129.92304 -22.652216 -13.247262)
(143.6357 -18.103556 -25.627154)
(155.51983 -16.237503 -37.924574)
(167.36343 -11.512207 -50.003301)
(176.61083 -10.160207 -60.856775)
(184.19805 -6.9118277 -69.889577)
(190.10658 -4.5258504 -76.91865)
(191.66803 -3.6967534 -81.460298)
(191.91936 -2.3363047 -82.347759)
(187.38536 -2.2879667 -80.598611)
(180.5907 -2.9196503 -75.2446)
(170.98152 -4.0879809 -66.692393)
(158.19121 -5.8236948 -55.645234)
(143.39486 -8.2117659 -42.064137)
(126.82362 -11.698386 -26.565833)
(109.02675 -14.988952 -10.234304)
(91.20552 -20.58319 6.9983149)
(73.796301 -24.385055 23.742928)
(57.570518 -30.701526 39.278427)
(43.912775 -35.688523 53.400429)
(32.563809 -41.68884 64.964337)
(24.811311 -47.396687 73.825524)
(20.895302 -53.184465 79.57916)
(21.129067 -58.665705 82.001013)
(26.098468 -64.39725 81.797116)
(34.417313 -67.898061 77.399567)
(48.486165 -73.062266 71.068619)
(65.480079 -76.833861 62.460152)
(86.211258 -80.154526 52.2499)
(109.78838 -83.008449 41.131764)
(135.65841 -85.449551 29.867628)
(163.1442 -87.528316 19.142804)
(191.60606 -89.369132 9.6932337)
(220.41803 -91.018908 2.0808858)
(249.0719 -92.592243 -3.1647457)
(277.13139 -94.117487 -5.7273134)
(304.3254 -95.647544 -5.4011427)
(330.51038 -97.15741 -2.1981798)
(355.70399 -98.607109 3.7232015)
(380.07446 -99.895979 12.015542)
(403.9149 -100.88279 22.193665)
(427.64246 -101.39038 33.6505)
(451.74212 -101.19628 45.682904)
(476.76336 -100.07169 57.559899)
(503.24457 -97.752909 68.523604)
(531.7209 -94.007842 77.882824)
(562.63936 -88.587416 84.998539)
(596.37192 -81.307372 89.377111)
(633.15457 -71.997131 90.644439)
(673.09135 -60.564792 88.61323)
(716.13198 -46.960761 83.256933)
(762.0736 -31.220063 74.737249)
(810.56647 -13.424026 63.370293)
(861.13544 6.2648167 49.623954)
(913.1797 27.641908 34.080947)
(966.03353 50.429284 17.392946)
(1018.9824 74.491066 0.40773899)
(1072.0912 98.545115 -16.483085)
(1121.3491 125.35475 -31.581289)
(1170.9157 149.84007 -46.639954)
(1217.122 175.79195 -58.464154)
(1260.095 200.9156 -68.29539)
(1299.6899 225.8705 -75.353774)
(1335.5104 250.15093 -79.706786)
(1367.601 273.79112 -81.531228)
(1396.0786 296.73332 -81.019269)
(1421.1535 318.95273 -78.584807)
(1443.2231 340.50955 -74.728538)
(1462.7675 361.45446 -69.9961)
(1480.3259 381.85941 -64.981582)
(1496.4825 401.81636 -60.26448)
(1511.8214 421.38418 -56.371011)
(1526.8819 440.63193 -53.745954)
(1542.1407 459.5757 -52.718808)
(1557.9751 478.22813 -53.482072)
(1574.6541 496.53522 -56.081784)
(1592.3138 514.44817 -60.421691)
(1610.9869 531.8436 -66.258427)
(1630.5657 548.63197 -73.254863)
(1650.894 564.65491 -80.959312)
(1671.6938 579.83541 -88.925665)
(1692.7359 594.04538 -96.657562)
(1713.724 607.31112 -103.78417)
(1734.4819 619.58726 -109.99158)
(1750.7925 629.73937 -114.92724)
(1828.2612 697.54415 -127.24444)
(1863.728 746.61717 -132.91141)
(1870.7246 784.92663 -136.73545)
(1858.2016 814.56702 -139.12555)
(1823.7299 833.63459 -139.28739)
(1765.1254 839.04345 -137.40471)
(1699.3243 838.85602 -134.0083)
(1631.3424 834.10798 -130.31745)
(1553.7171 822.03291 -124.96378)
(1496.0226 817.37906 -121.07066)
(1465.7722 826.32301 -118.97722)
(1453.8636 844.86633 -118.79919)
(1463.4708 876.05178 -119.99595)
(1496.7628 921.89504 -123.91992)
(1546.0182 980.09771 -129.40658)
(1530.0101 999.79537 -126.90958)
(1519.9406 996.31133 -123.31297)
(1506.3455 990.00828 -118.12442)
(1493.1378 982.91165 -112.14061)
(1480.5061 974.93437 -104.56808)
(1468.0853 965.83551 -96.535378)
(1455.8786 955.66813 -88.007501)
(1443.6839 944.48085 -79.450663)
(1431.1731 932.3605 -71.293874)
(1418.0261 919.46464 -63.822252)
(1403.9276 905.99681 -57.367868)
(1388.4247 892.08691 -52.145134)
(1371.2368 878.00264 -48.2508)
(1352.0295 863.85114 -45.651325)
(1330.5396 849.77247 -44.422025)
(1306.4414 835.86062 -44.38363)
(1279.5744 822.10132 -45.393408)
(1249.8592 808.47731 -47.134548)
(1217.3401 794.85051 -49.286595)
(1182.0779 781.09206 -51.531328)
(1144.3073 766.95352 -53.521281)
(1104.2786 752.21599 -54.940083)
(1062.3862 736.57697 -55.535082)
(1018.9574 719.78499 -55.161799)
(974.48273 701.57048 -53.569709)
(929.62718 681.76717 -50.895477)
(885.04793 659.82672 -46.790737)
(839.62931 636.29077 -42.398076)
(795.35157 610.75475 -37.106596)
(752.83467 583.2065 -31.016426)
(711.50793 553.92312 -24.863463)
(671.9085 523.12439 -18.898901)
(634.21769 491.07401 -13.502636)
(598.46228 458.1866 -8.9548922)
(564.65292 424.8795 -5.5587194)
(532.71968 391.60661 -3.5240437)
(502.50971 358.83129 -2.9995293)
(473.83749 326.99216 -4.054562)
(446.46704 296.49697 -6.6639552)
(420.15776 267.68336 -10.722894)
(394.65413 240.81831 -16.043523)
(369.73322 216.07328 -22.372508)
(345.19094 193.52643 -29.395136)
(320.88744 173.15215 -36.766648)
(296.72782 154.83314 -44.113257)
(272.70346 138.36672 -51.073454)
(248.85719 123.47254 -57.286256)
(225.33881 109.8328 -62.445417)
(202.32203 97.074068 -66.283198)
(180.06546 84.849784 -68.603817)
(158.92989 72.785103 -69.265125)
(139.08705 60.551219 -68.24155)
(121.12803 47.981184 -65.572879)
(105.04585 34.739388 -61.257506)
(91.365472 20.733756 -55.71625)
(80.264255 5.9936133 -48.983346)
(72.161825 -9.3545844 -41.530101)
(66.364606 -25.998688 -33.731835)
(63.136186 -41.216092 -25.704454)
(63.079469 -57.802728 -18.320007)
(64.921556 -74.277033 -11.105208)
(69.21098 -88.576898 -4.9247135)
(74.997135 -103.46721 -0.65094657)
(82.427139 -116.37903 2.8772944)
(90.372661 -126.69475 4.5856473)
(99.143175 -135.92305 5.2913046)
(107.47871 -141.8388 3.6870417)
(116.09387 -146.22328 1.7427829)
(123.74136 -147.32051 -1.6014583)
(130.49507 -145.6451 -5.6480969)
(135.90368 -141.53396 -9.9146504)
(140.58221 -134.32434 -13.947842)
(143.78429 -126.68961 -17.561872)
(145.50166 -115.12489 -20.368159)
(146.28217 -102.91951 -21.802261)
(145.58549 -90.480894 -22.36113)
(144.14713 -76.211635 -20.764913)
(141.37192 -62.676773 -18.439898)
(137.90234 -49.158932 -14.08907)
(133.66803 -36.598167 -8.6101104)
(128.84103 -24.638281 -2.2947266)
(123.41196 -14.099834 4.5006337)
(116.92655 -6.4039755 12.116597)
(110.41061 1.5881167 19.300521)
(103.01893 5.8516653 25.493187)
(94.471618 9.1120655 30.667151)
(85.969941 11.774839 34.739101)
(76.287643 11.521504 36.418368)
(65.89646 10.550537 36.431913)
(54.454666 9.7228703 33.425679)
(43.114821 8.2265784 29.378744)
(30.913045 5.8116785 22.295148)
(19.25263 3.3077535 14.63034)
(7.8947033 2.8911672 5.8630006)
(-1.6808956 2.863014 -3.2231812)
(-6.8708141e-15 1.5083581e-15 1.9262289e-16)
(-1.2504183e-14 5.7375616e-16 8.4327435e-16)
(-8.3449101e-15 1.4891922e-15 5.3018253e-16)
(-4.9731758e-15 1.4991158e-15 6.2376313e-16)
(-3.4146159e-15 1.5624416e-15 3.1576894e-17)
(2.0582335e-15 9.3962624e-16 -5.746342e-16)
(2.2101935e-15 3.7457559e-17 -1.1841335e-16)
(2.4553765e-15 -8.5141669e-16 -9.3419562e-16)
(1.2987427e-15 1.0081898e-16 1.7950851e-15)
(-4.5074861e-15 9.063971e-16 1.0710522e-15)
(-5.2682467e-15 2.1856155e-15 1.0652666e-15)
(-7.4917339e-15 1.915055e-15 2.2418828e-16)
(-9.400838e-15 1.3708275e-15 6.2833768e-16)
(-6.2048683e-15 1.3247981e-15 5.4317906e-16)
(-6.971104e-15 1.5128103e-15 7.5678131e-16)
(-1.2693866e-14 6.2923345e-15 -2.1364834e-15)
(-5.2452578e-15 2.6791924e-15 -5.3037742e-16)
(-1.0752404e-15 9.8318743e-16 -1.0111087e-16)
(-2.7353382e-15 1.7746034e-15 7.3085398e-17)
(1.0178949e-15 -1.5450237e-16 -4.119182e-16)
(-1.4303492e-15 4.136346e-16 -3.3264033e-16)
(-1.0059749e-14 4.7133437e-15 -1.6449855e-15)
(2.9801421e-15 -1.9180379e-15 -8.3172098e-16)
(-4.79756e-15 2.8035442e-15 1.1420498e-15)
(-5.4778068e-15 3.5047253e-15 -3.934403e-16)
(-1.8117877e-15 1.1581936e-15 -9.1309836e-16)
(-3.9812639e-16 4.7407236e-16 -2.2932148e-16)
(-1.5272242e-15 1.100363e-15 -2.2557932e-16)
(-4.1024849e-15 1.9838802e-15 2.8069696e-17)
(-5.3424143e-16 2.551799e-16 -1.9455919e-16)
(1823.2436 613.42095 -128.36248)
(1818.5588 617.9401 -127.54455)
(1814.8603 621.75878 -126.18042)
(1812.6311 624.80303 -124.58533)
(1811.2116 627.09235 -122.81389)
(1810.7068 628.75119 -121.2167)
(1810.7157 629.89529 -119.79774)
(1810.91 630.74305 -118.7441)
(1811.0092 631.52301 -118.08964)
(1810.7027 632.40082 -117.90763)
(1809.6679 633.62861 -118.18846)
(1807.9046 635.43712 -118.78666)
(1805.0356 637.7521 -119.63132)
(1801.1993 641.0495 -120.40482)
(1796.3641 644.57802 -121.21582)
(1589.3059 984.03152 -126.90506)
(1588.5435 993.16123 -126.03781)
(1587.8044 1000.6438 -125.02667)
(1586.9113 1006.256 -123.97774)
(1585.9185 1010.0523 -123.16379)
(1584.6626 1012.1251 -122.68477)
(1583.1519 1012.742 -122.65732)
(1581.3863 1012.2786 -123.05349)
(1579.3532 1011.1509 -123.88381)
(1577.1286 1009.8366 -125.09341)
(1574.7056 1008.7688 -126.54817)
(1572.2254 1008.4949 -128.15234)
(1569.7623 1009.2192 -129.80252)
(1567.2519 1011.3283 -131.0345)
(1565.1338 1014.6134 -132.19232)
(1.6640727 6.5143224 10.55783)
(7.9504518 7.0444103 11.671546)
(15.282035 7.7562487 15.255686)
(22.9529 6.8478451 17.097618)
(32.165682 5.188648 17.157922)
(42.124252 2.7730282 16.095417)
(53.63886 -0.34053907 13.164471)
(65.976664 -3.5179467 8.4892123)
(79.771454 -6.905413 2.2343757)
(94.037924 -9.8702079 -5.7159274)
(109.29941 -12.51107 -14.915695)
(124.4241 -14.474158 -25.050844)
(139.76672 -15.589583 -35.816397)
(154.03414 -15.874774 -46.533669)
(167.44939 -15.362435 -56.761041)
(178.85483 -13.953377 -65.770629)
(188.31761 -11.829224 -73.112952)
(194.77481 -9.1035607 -78.330997)
(198.36215 -6.3315253 -80.888028)
(198.52406 -3.0017241 -80.510293)
(195.18717 -0.19625147 -76.990055)
(188.41496 2.5687481 -70.389449)
(178.21631 4.6403924 -60.728225)
(165.14463 6.1191693 -48.339854)
(149.45602 6.8980244 -33.689264)
(131.82078 6.8957075 -17.279951)
(112.96393 6.1624198 0.18295028)
(93.791769 5.0325148 17.985992)
(74.909807 3.6163898 35.245856)
(57.371583 2.1158663 51.310679)
(41.957198 1.1916956 65.428773)
(29.327552 0.93617802 76.847152)
(20.204655 2.0420228 85.194831)
(14.869294 4.8808449 90.162525)
(13.746611 9.5753005 91.532445)
(16.98358 16.634526 89.259288)
(24.127882 26.338035 83.94456)
(35.110395 38.514041 75.818447)
(49.412394 53.198894 65.386183)
(66.375512 70.511579 53.594693)
(85.14598 89.808466 41.225742)
(105.13639 110.8947 28.948844)
(125.45058 133.42034 18.01902)
(145.63038 156.75762 8.7748206)
(164.88965 180.36758 2.0725617)
(182.91354 203.7966 -1.7595818)
(199.47876 226.6163 -2.3842175)
(214.61008 248.4229 0.14658408)
(228.5188 268.98505 5.6763493)
(241.6117 288.14761 13.764295)
(254.47748 305.90994 23.828884)
(267.80851 322.38757 35.125601)
(282.38855 337.81211 46.838479)
(298.99999 352.51742 58.101849)
(318.39371 366.89887 68.08812)
(341.20754 381.40203 76.034567)
(367.94522 396.45873 81.324153)
(398.90839 412.48593 83.488705)
(434.20485 429.8263 82.264235)
(473.71362 448.72763 77.596071)
(517.1116 469.33546 69.629824)
(563.87562 491.64713 58.71334)
(613.33125 515.57412 45.346654)
(664.67837 540.82547 30.153227)
(717.11227 567.13183 13.990375)
(769.52638 594.03427 -2.6034844)
(821.36447 620.92563 -18.76456)
(871.73915 647.64021 -33.767207)
(919.88719 673.1463 -47.197911)
(965.32378 697.35172 -58.191255)
(1007.6479 719.74425 -66.597535)
(1046.6494 739.97468 -72.388457)
(1082.1838 757.84969 -75.453816)
(1114.3217 773.29497 -75.981358)
(1143.2595 786.20759 -74.227717)
(1169.2995 796.76785 -70.637639)
(1192.8262 805.09101 -65.692605)
(1214.2278 811.51563 -59.979625)
(1234.0427 816.29907 -54.014543)
(1252.608 819.90898 -48.40986)
(1270.4223 822.64479 -43.623251)
(1287.7674 824.95603 -40.138997)
(1305.0305 827.1181 -38.199514)
(1322.4125 829.49963 -38.157605)
(1340.1263 832.53913 -39.99229)
(1358.0591 836.19437 -43.756868)
(1376.2108 840.66917 -49.216135)
(1394.6129 846.06449 -56.195676)
(1413.1382 852.31441 -64.322475)
(1431.4393 859.25937 -73.220601)
(1449.6465 867.00052 -82.558713)
(1467.4983 874.95382 -91.756191)
(1484.4245 883.3476 -100.89073)
(1501.8934 891.68836 -109.12229)
(1521.6071 901.97715 -117.40092)
(1.4904381 3.7868009 7.3428698)
(8.0978766 4.0711032 9.8395022)
(14.844321 3.809156 13.263256)
(22.990736 2.7328041 14.762407)
(31.51683 0.057475209 15.484035)
(41.567508 -2.688221 14.769198)
(52.438406 -6.4527861 12.884898)
(64.465161 -10.024533 9.1508034)
(77.359055 -13.943968 4.3573032)
(91.229889 -17.236818 -2.3314455)
(105.57977 -20.246641 -9.8485263)
(120.34839 -22.293856 -18.725242)
(135.01929 -23.591164 -28.031203)
(149.34156 -23.656016 -37.725204)
(162.5571 -22.788237 -47.117702)
(174.47533 -20.634754 -55.858468)
(184.36096 -17.664989 -63.383975)
(191.9439 -13.718198 -69.146003)
(196.61166 -9.2558231 -72.790899)
(198.2337 -4.2638384 -73.904721)
(196.3729 0.59769057 -72.237414)
(191.13481 5.4529591 -67.660234)
(182.44399 9.5859146 -60.164024)
(170.64588 13.135144 -49.970581)
(155.95635 15.507326 -37.30764)
(139.043 17.008173 -22.712072)
(120.47124 17.176367 -6.6621809)
(101.13121 16.41564 9.987551)
(81.763477 14.640109 26.701109)
(63.375754 12.417505 42.501498)
(46.732595 9.8216 56.824814)
(32.818527 7.5701954 68.845986)
(22.238954 6.0496679 78.057319)
(15.567209 5.773453 84.087903)
(13.245042 7.3673382 86.573572)
(15.379977 11.240996 85.547519)
(21.90161 17.78562 81.277876)
(32.484654 27.218617 74.1267)
(46.737675 39.628373 64.580558)
(63.999686 55.08998 53.490016)
(83.426125 73.319338 41.527914)
(104.2096 93.814822 29.634787)
(125.55145 116.38545 18.763768)
(146.73189 140.17037 9.7258024)
(167.13706 164.63985 3.0168036)
(186.26072 189.16213 -0.84728917)
(203.99155 213.12353 -1.5890302)
(220.30525 235.98048 0.79556229)
(235.49084 257.35796 6.0925134)
(250.00976 276.99349 13.843722)
(264.51451 294.80729 23.437825)
(279.75645 310.87972 34.100958)
(296.56401 325.43837 45.001037)
(315.72646 338.85784 55.271116)
(337.97717 351.59265 64.101532)
(363.89292 364.16883 70.777452)
(393.88016 377.1122 74.736978)
(428.11194 390.93518 75.59214)
(466.55479 406.05031 73.180052)
(508.91219 422.79445 67.529554)
(554.72332 441.34921 58.878665)
(603.29971 461.74981 47.647717)
(653.87328 483.94196 34.394467)
(705.58122 507.58983 19.765538)
(757.47216 532.44975 4.5915921)
(808.70169 557.97708 -10.75454)
(858.76758 583.52279 -24.889757)
(908.10273 609.78583 -38.160928)
(953.53775 635.00038 -49.359735)
(995.51753 658.70297 -58.417913)
(1034.0419 680.5878 -64.991333)
(1069.1055 700.38763 -69.197995)
(1100.599 717.9032 -71.033751)
(1128.7652 732.97638 -70.765691)
(1153.9108 745.55688 -68.662759)
(1176.3521 755.81225 -65.224586)
(1196.5461 763.80553 -60.832237)
(1214.9232 769.94288 -56.074355)
(1231.9467 774.38731 -51.333479)
(1247.9834 777.65525 -47.188345)
(1263.5289 779.97552 -43.861345)
(1278.7843 781.85884 -41.84325)
(1294.1386 783.60763 -41.239046)
(1305.0996 782.93957 -41.938073)
(1317.6531 783.39391 -44.254961)
(1333.5168 786.37826 -48.432)
(1349.8001 790.25189 -53.907708)
(1366.4166 795.01656 -60.562932)
(1383.2143 800.69766 -68.144708)
(1399.9909 807.20038 -76.180487)
(1416.7694 814.42721 -84.711378)
(1433.6582 822.2396 -92.894908)
(1449.5747 830.453 -101.34524)
(1466.781 838.91328 -108.81362)
(1485.5439 848.94329 -116.79504)
(2.2895709 2.7469982 5.7726289)
(8.3417709 2.6660325 8.0798046)
(15.484642 1.9239067 11.047063)
(23.087164 -0.23627214 13.476915)
(32.028438 -2.9056249 14.290254)
(41.960715 -6.0193465 14.474479)
(52.743061 -9.8873149 13.005576)
(64.447997 -13.744061 10.377)
(77.332604 -17.543968 6.1483277)
(90.61489 -21.12262 0.71523078)
(104.83236 -24.037989 -6.0919239)
(119.0803 -26.288344 -13.838899)
(133.70134 -27.393277 -22.431755)
(147.52889 -27.516305 -31.347973)
(160.95047 -26.35491 -40.310053)
(172.80136 -23.94155 -48.777097)
(183.17295 -20.460404 -56.263835)
(191.04786 -15.806754 -62.325344)
(196.56612 -10.507113 -66.524989)
(198.82904 -4.4512581 -68.474743)
(197.96696 1.6279165 -67.829342)
(193.60603 7.816336 -64.489608)
(185.85192 13.361582 -58.342823)
(174.77188 18.293525 -49.49417)
(160.78845 22.044062 -38.205654)
(144.29529 24.654057 -24.849768)
(125.95333 25.733658 -9.9561271)
(106.51654 25.536922 5.842359)
(86.862078 24.006652 21.792773)
(67.894636 21.45823 37.216641)
(50.529434 18.227391 51.268147)
(35.646346 14.838172 63.285627)
(24.070378 11.752613 72.701326)
(16.402244 9.7294987 79.003315)
(13.059129 9.2115296 81.922159)
(14.380902 10.842373 81.49554)
(20.226331 15.166364 77.681214)
(30.386989 22.462035 70.983697)
(44.416456 32.89354 61.931087)
(61.650398 46.573643 51.210987)
(81.297977 63.295397 39.634055)
(102.54362 82.75857 28.118481)
(124.52582 104.39143 17.404333)
(146.42032 127.69701 8.5244656)
(167.66546 151.75645 1.9391148)
(187.81677 176.05064 -1.9290085)
(206.62394 199.7994 -2.729878)
(224.15767 222.39719 -0.52071839)
(240.67118 243.3838 4.4815703)
(256.66829 262.44399 11.81062)
(272.78778 279.45554 20.850063)
(289.80406 294.48558 30.822692)
(308.50794 307.77238 40.922612)
(329.67186 319.71563 50.29995)
(353.96394 330.80883 58.20122)
(381.89741 341.63072 63.954071)
(413.78338 352.75831 67.061162)
(449.71364 364.74503 67.207354)
(489.54101 378.05173 64.285838)
(532.89661 393.04509 58.374987)
(579.22615 409.91121 49.774012)
(627.79421 428.74017 38.901403)
(677.8116 449.3988 26.342659)
(728.35707 471.65206 12.719033)
(778.54464 495.15348 -1.24903)
(827.85773 519.6064 -15.06344)
(873.34296 542.83901 -27.690295)
(922.6688 571.00719 -39.796889)
(964.79358 594.82471 -49.481148)
(1003.6007 617.24642 -57.105406)
(1038.8057 637.94091 -62.465443)
(1070.6441 656.62417 -65.713076)
(1099.0124 673.09966 -66.893356)
(1124.2613 687.29006 -66.26895)
(1146.655 699.14559 -64.15917)
(1166.6312 708.81358 -60.980626)
(1184.5981 716.44344 -57.17233)
(1200.9958 722.34953 -53.173988)
(1216.2649 726.7721 -49.384368)
(1230.8008 730.14839 -46.198202)
(1244.9378 732.6972 -43.916784)
(1258.9774 734.94522 -42.807915)
(1273.1903 737.03633 -43.002293)
(1287.6401 739.52474 -44.496443)
(1295.5055 737.83223 -47.560551)
(1310.3007 741.05756 -51.853397)
(1326.1972 745.24306 -57.338596)
(1342.5384 750.48293 -63.788251)
(1359.2589 756.5433 -70.983218)
(1376.1149 763.41059 -78.56265)
(1393.3213 771.18858 -86.564303)
(1410.6862 779.37971 -94.311049)
(1427.5535 788.2067 -102.21236)
(1445.8758 797.29059 -109.54028)
(1464.8021 807.30505 -117.02478)
(3.329307 1.7080839 4.2840823)
(9.9427734 1.4903742 6.6945674)
(16.850171 0.233124 10.026435)
(24.859428 -2.4132061 12.38878)
(34.001255 -5.1407501 13.584498)
(44.020874 -8.6609123 13.980956)
(54.935412 -12.796225 13.202568)
(66.964823 -16.530324 10.716902)
(79.590464 -20.621669 7.4755682)
(93.082095 -24.095413 2.3348209)
(107.029 -27.068284 -3.5802295)
(121.37347 -29.084944 -10.87234)
(135.49835 -30.13606 -18.677615)
(149.46167 -29.907229 -27.134473)
(162.42518 -28.370227 -35.507592)
(174.28873 -25.480074 -43.604774)
(184.23178 -21.377339 -50.77748)
(192.18922 -15.973689 -56.774317)
(197.35046 -9.8076374 -60.952157)
(199.66434 -2.7832695 -63.091645)
(198.66866 4.3618148 -62.793951)
(194.32188 11.670874 -59.971889)
(186.52841 18.312842 -54.409669)
(175.53239 24.371944 -46.3577)
(161.54062 29.06015 -35.874046)
(145.08484 32.53206 -23.449428)
(126.73462 34.257046 -9.4779799)
(107.30964 34.505571 5.3297925)
(87.586177 33.05865 20.407802)
(68.525728 30.411798 34.903616)
(51.012701 26.720191 48.170955)
(35.977616 22.588642 59.542531)
(24.15269 18.529043 68.381458)
(16.209819 15.193083 74.303448)
(12.585321 13.253591 77.023595)
(13.568145 13.294927 76.501941)
(19.010591 15.918902 72.835458)
(28.825064 21.507379 66.508531)
(42.698251 30.432074 57.874835)
(59.673804 42.459675 47.609971)
(79.143192 57.726123 36.632699)
(100.26218 75.741802 25.661418)
(122.23721 96.137397 15.638221)
(144.28876 118.18467 7.2457181)
(165.82698 141.13896 1.0507635)
(186.45044 164.32626 -2.5132591)
(205.92007 187.00595 -3.2262681)
(224.29822 208.5116 -1.1162475)
(241.83197 228.37377 3.5636507)
(258.98843 246.24476 10.382962)
(276.38068 261.99233 18.715084)
(294.71946 275.67109 27.852748)
(314.73966 287.52257 37.014683)
(337.14257 297.93989 45.434068)
(362.52326 307.43518 52.409057)
(391.32252 316.59043 57.340578)
(423.79397 325.99722 59.797627)
(459.96852 336.22414 59.515822)
(499.6675 347.75266 56.421534)
(542.50186 360.95026 50.638172)
(587.90959 376.05359 42.440307)
(635.19773 393.12024 32.267938)
(683.56577 412.0871 20.633988)
(732.19252 432.73025 8.1663979)
(780.25505 454.69413 -4.5892117)
(827.03964 477.55657 -16.924822)
(871.80614 500.92389 -28.467932)
(913.74954 523.78344 -38.666249)
(953.31553 546.47456 -47.070758)
(989.42881 567.86417 -53.522839)
(1022.043 587.81807 -58.208815)
(1051.5827 605.91532 -60.900216)
(1078.0306 622.11825 -61.838191)
(1101.6592 636.26763 -61.242045)
(1122.6732 648.21462 -59.493188)
(1141.5885 658.18757 -56.920553)
(1158.777 666.26917 -53.858017)
(1174.7007 672.76414 -50.744577)
(1189.7319 677.89979 -47.865577)
(1204.2711 682.04449 -45.622704)
(1218.6277 685.48103 -44.182611)
(1233.0954 688.61896 -43.841314)