/*--------------------------------*- C++ -*----------------------------------*\
  =========                 |
  \\      /  F ield         | OpenFOAM: The Open Source CFD Toolbox
   \\    /   O peration     | Website:  https://openfoam.org
    \\  /    A nd           | Version:  6
     \\/     M anipulation  |
\*---------------------------------------------------------------------------*/
FoamFile
{
    version     2.0;
    format      ascii;
    class       pointScalarField;
    location    "1.75";
    object      E;
}
// * * * * * * * * * * * * * * * * * * * * * * * * * * * * * * * * * * * * * //

dimensions      [1 -1 -2 0 0 0 0];

internalField   nonuniform List<scalar> 
28033
(
3710.8259
-546.58098
31973.632
2645.2036
2987.0424
4411.387
7165.2962
30522.031
2789.5042
3544.8167
2357.0885
2083.9738
533.17358
368.06314
174.12226
311.38027
64.113579
-356.7488
-1821.659
-2744.1423
-3724.4179
-3648.8895
-2959.4222
24292.367
16089.505
15357.911
15830.942
17656.177
20376.359
21877.519
24925.582
26987.84
28543.954
30213.749
30122.802
29560.798
27976.568
22460.238
2118.9604
1479.6664
1059.5072
840.62886
1355.9077
1433.0207
1581.6731
1584.7482
2074.1878
1558.1205
2198.3878
2094.9121
2387.2244
2259.7302
2486.2114
2558.8379
2563.5158
2816.956
2828.8662
2903.4611
3100.818
2944.197
3352.9791
3408.8733
3457.0452
3730.6419
3692.8048
4065.436
3824.3646
4076.4502
4123.7017
3667.0883
3662.0299
3450.3192
3458.1615
3504.4128
3140.0026
3505.8899
3053.1115
2985.7147
2663.7813
2508.5259
2130.0855
1914.4143
1619.0923
1547.5028
1306.7464
1445.9218
1280.974
1457.8231
1322.3401
1365.5787
1166.7484
1013.3029
730.75591
467.08163
149.86212
-139.44781
-449.27736
-739.597
-1111.2389
-1444.9247
-2008.6014
-2366.6409
-2842.0629
-3424.3624
-3803.9859
-4219.6139
-4346.9435
-4416.2155
-4404.1686
-4301.3579
-4174.807
-3913.5971
-3752.6509
-3504.4322
-3398.1271
-3063.469
-2950.5968
-2680.3545
-2199.72
-1931.8887
-1158.6438
-911.19108
85.993297
360.84882
1661.9756
2026.0326
3656.399
4109.6093
6135.0432
6676.0453
9059.8726
10186.37
20557.293
6764.0253
-4841.6011
3833.4786
-1761.9347
1554.0303
479.0854
442.08656
264.63664
1018.6997
318.81395
1325.6267
925.34075
1514.1323
1471.6772
1653.5631
1760.2303
1917.7685
1689.0185
2035.8284
2204.0026
2008.8009
2560.0041
2283.673
2985.7784
2790.5209
3360.2477
3000.7992
3392.385
3010.9866
3208.7907
2798.8844
2924.8245
2768.4117
2749.7542
2839.303
2838.385
3085.5946
3057.8493
3227.533
3601.5596
3804.2684
4237.3958
4578.2692
5119.6877
5535.4144
6204.5421
6747.9024
7508.2545
8198.4389
9018.4798
9791.6075
10631.556
11364.525
12165.515
12813.977
13512.374
14148.239
14832.409
15543.891
16397.965
17312.295
18405.808
19576.997
20861.164
22184.863
23454.445
24832.67
26079.834
27267.865
28304.681
29463.17
30067.861
31332.929
31720.502
32607.507
33029.376
33339.346
33666.897
33608.087
33533.387
33299.252
32839.967
32480.3
31848.014
31369.307
30654.51
30061.564
29256.436
28489.616
27577.22
26575.67
25468.05
24269.083
23139.825
17134.411
1542.8795
2341.4974
1462.273
1654.6495
442.16874
450.68893
362.32015
227.50917
268.65239
-155.09051
-489.81272
-1381.9379
-1942.2131
-3224.9351
-1319.6119
3776.1753
9604.6825
-10959.326
4575.4496
-923.62441
-97.723218
1171.8975
567.93677
1504.8805
1927.1673
1792.7515
1012.3057
2779.6866
820.88427
2881.9133
685.5941
3598.3907
543.16037
3290.283
1241.966
2263.0795
3472.2807
2543.3987
4017.9233
2355.6333
3884.1967
3519.0237
3460.9112
4209.4602
2705.7964
3120.1527
3258.0522
3296.1377
3571.7136
3909.3831
5414.9071
4013.1467
5762.1242
6031.7677
6357.348
6758.524
6968.4715
7333.4684
7630.8149
8154.1844
8669.3584
9401.8716
10135.856
10971.024
11733.197
12453.789
13040.111
13533.773
13885.892
14265.745
14629.216
15119.439
15806.314
16629.302
17707.725
18853.691
20115.046
21327.693
22445.229
23426.777
24251.511
24819.537
24743.544
26876.039
26025.491
26834.195
27058.944
27407.642
27743.369
27890.672
27880.468
27703.335
27391.113
26864.275
26367.524
25741.575
25213.157
24567.567
24074.757
23379.165
22797.633
21952.1
21137.713
20064.372
18983.828
17758.254
16510.525
15370.582
13925.23
20235.321
26828.969
25324.878
28443.103
29920.154
30971.902
28105.986
29078.323
20947.803
23362.504
21193.051
18808.605
15417.904
16789.648
15241.5
20800.97
20239.026
20792.189
21745.123
20017.608
18997.162
17670.549
16510.49
15342.471
14200.455
13171.319
12164.417
11341.841
10535.097
9704.7213
9057.8687
8425.7104
7837.7228
7294.3561
6683.3342
6118.4363
5499.5199
4932.3553
4292.7535
3799.3232
3310.9983
2699.2654
3572.2873
1034.9734
1872.6453
1056.2257
926.47221
580.78506
303.81894
106.35398
-60.350838
-134.0886
-151.95912
-100.8577
-9.297254
110.86737
215.36583
317.65927
357.98229
375.7091
333.54781
281.89312
203.46267
145.3503
108.54799
117.186
129.20486
249.34469
298.68659
461.99767
495.93282
745.49802
828.3489
1172.6541
676.64769
1162.5173
1239.0609
1129.682
1208.3464
1462.7526
1879.3138
2271.5853
2017.5014
2332.079
1991.5001
2530.5183
2702.0885
2381.8238
1997.8191
2696.2738
1907.8103
2185.3071
2007.3975
2078.9683
2098.7523
2451.2474
2037.4757
975.32071
2834.0338
1120.0597
2826.0132
1548.3282
1376.5079
582.68208
2067.5446
1181.757
-145.11218
2372.3407
2310.7225
-2269.2213
5819.4924
1665.2919
2527.7045
1799.6637
2550.5704
1674.9725
2644.7936
1365.0351
2585.6959
1898.1562
2153.055
1840.5129
1748.5854
1774.7339
1977.9511
116.48474
-1970.4089
-1266.5186
-2692.8528
-1380.626
-1535.4714
-2731.5193
-1818.3663
-1462.5375
-2388.4791
-1328.4263
-1507.142
-1778.4883
-1884.5136
-2465.9599
-2827.9841
4529.276
4494.8641
4580.8302
4600.1608
4371.2238
4352.9758
4302.7145
4289.6695
4349.6278
4298.0993
4295.1403
4520.3227
4687.652
4420.1102
5973.8835
32612.586
31704.881
31936.519
31335.077
31961.977
31887.999
31914.068
31921.628
31969.995
31981.411
32093.596
32018.615
32083.813
31893.86
31940.237
4650.3849
1499.1821
1684.2741
1511.8416
1338.7716
1661.0764
1410.2854
1813.3098
1290.9435
1960.4254
890.78542
1570.6465
558.19449
1286.6323
211.63039
922.79607
545.77823
592.03495
607.99258
518.84595
641.94574
229.90963
429.40177
-265.67121
-98.567501
-586.5971
-591.16624
-914.31573
-700.18098
-742.3606
-576.79347
-319.29517
129.08139
330.34754
780.03088
640.79766
890.50792
763.30215
931.17318
797.63678
955.36635
771.94274
907.23278
996.21845
840.86616
866.74578
668.39167
523.86441
224.2887
-3.0188361
-302.27015
-440.51367
-514.58072
-357.76961
-44.577197
476.85479
1116.6371
1856.8889
2593.2817
3284.1969
3866.2101
4350.1421
4720.403
5004.0105
5120.2543
5271.7558
5895.266
6894.8699
7207.215
7214.4093
7628.8502
7755.9293
7999.4739
8201.0873
8466.1464
8727.339
9185.8576
9633.7398
10306.916
10985.586
11898.555
12653.025
13707.281
14302.685
15192.445
16183.082
16812.084
17600.686
18354.134
18956.538
19984.098
20461.149
21833.155
22220.295
26467.341
3732.2849
1381.7531
2138.1144
1120.064
2013.7801
1508.1286
1876.2135
1687.0766
1741.1241
1566.999
1520.4827
1424.1729
1205.8177
1046.3825
847.78199
958.53194
390.88377
620.56652
394.83035
367.46335
188.24764
128.90293
-7.6255162
-113.79062
-267.75397
-410.20601
-479.62467
-632.82481
-665.5725
-752.92217
-585.17125
-583.5181
-504.21156
-524.03188
-315.49741
-260.49319
-19.583036
140.80031
49.093516
-11.834944
-39.140479
-25.639204
71.338491
-19.635163
20.613918
201.61426
237.11343
363.08845
448.80389
525.80763
597.7216
718.68395
862.2189
1106.2085
1405.7482
1815.2486
2259.9273
2771.5094
3263.0807
3757.5024
4175.4213
4609.3674
4929.6947
5186.7812
5677.649
5903.176
8982.3474
14287.401
14962.245
15721.341
16501.223
17070.83
17610.444
18149.533
18653.691
19208.61
19748.046
20263.601
20855.638
21256.008
21877.134
22058.195
22769.58
19959.919
16697.61
16883.637
17789.287
17868.032
18983.49
19008.672
20188.882
20199.044
21613.337
20853.613
24408.709
3042.7167
750.38057
2004.061
990.95569
1472.9919
1050.6423
1189.8805
1304.6842
1143.0896
1251.2072
914.56003
1095.8509
566.15313
731.95655
288.34215
234.83632
46.564864
16.198434
-212.04831
-278.8751
-233.99918
-412.65863
-311.38737
-566.70983
-481.8876
-761.32443
-724.34204
-966.24595
-851.79074
-985.44385
-883.27787
-939.95552
-647.64976
-605.58564
-335.99883
-300.92181
-322.91512
-492.40398
-250.81769
-240.31526
-66.790315
-50.67731
-23.278829
310.89663
607.51787
824.2015
1059.2064
1286.8868
1485.1206
1633.2697
1863.4446
2072.0258
2411.1186
2809.0373
3339.1811
3937.3322
4610.5779
5305.4785
5988.638
6630.2456
7229.7352
7781.7352
8203.8317
8758.3481
9157.6599
9628.2927
7049.5338
13938.779
14854.485
15422.98
15945.296
16024.97
16448.901
16817.191
17327.73
17646.057
18082.876
18420.417
18800.198
19046.536
19433.962
19632.117
19751.123
20552.495
17467.899
17594.618
17762.437
18304.056
18700.787
19030.035
19811.612
19897.841
21095.266
20806.036
23527.147
1630.1511
987.1173
938.28576
962.42139
837.10985
786.27602
852.21058
781.43977
597.02298
668.60518
587.63553
508.67903
293.98389
424.48423
-29.842543
179.24447
-268.97084
-145.10414
-405.51224
-233.423
-538.88158
-360.74658
-577.4244
-465.45289
-608.28032
-593.49271
-690.05194
-710.71291
-837.03562
-840.46918
-821.14373
-731.75024
-628.14116
-560.24765
-292.42949
-290.12251
33.965066
422.55835
22.874884
120.22193
122.0863
395.34071
534.3294
754.67805
893.56395
1190.9087
1517.6233
1871.0802
2235.1119
2631.9791
3057.2491
3496.1532
4006.9705
4543.4422
5148.9502
5792.1901
6477.5919
7178.3143
7889.9732
8600.1035
9290.621
9943.4045
10586.657
11263.441
11721.739
12375.6
13455.496
11332.287
11398.649
11484.71
12414.365
13399.671
13468.791
13343.034
13770.503
14119.935
14553.906
14863.716
15334.197
15612.325
16130.11
16283.354
17019.318
16914.712
19651.197
20166.207
21093.938
20902.112
21670.085
21432.343
22318.131
21783.714
23345.887
21773.367
23806.56
1559.1935
-46.127958
867.74212
-78.814076
600.18856
15.38514
499.65824
87.893486
394.11869
261.18294
227.0634
145.07792
115.94917
-26.568284
-149.54835
-194.79734
-376.90059
-324.78635
-535.49753
-465.2743
-548.17501
-392.20497
-489.05551
-349.38312
-476.34227
-464.25402
-547.32346
-662.18182
-658.29464
-682.80058
-637.38311
-605.369
-457.78216
-343.70956
-174.38682
-140.60107
58.248599
-919.49072
-1066.8018
-915.29613
-393.99163
-285.93168
78.502989
557.97014
1058.5075
1597.106
2143.8053
2670.2159
3253.5682
3843.1638
4496.4492
5172.2418
5963.8439
6765.3293
7678.5062
8601.7065
9586.299
10570.692
11562.928
12557.362
13499.296
14456.936
15403.528
16249.374
17132.014
17992.56
18785.365
19519.185
20161.93
20791.394
21631.974
21766.443
21738.906
19874.363
20069.697
20439.679
20783.64
21136.362
21437.727
21712.287
21942.219
22193.499
22295.024
22583.187
22632.418
22891.286
22755.271
22845.376
22854.449
22848.557
23077.277
23011.078
23919.018
22546.727
23914.405
868.845
66.726305
470.34911
218.21269
227.62646
243.31532
110.3532
197.81283
127.36301
137.19442
98.745151
149.41604
-58.696449
4.8899854
-244.53028
-271.89099
-476.99754
-439.23196
-651.1635
-362.06276
-655.62164
-319.12946
-599.68845
-321.49281
-646.18013
-374.02305
-747.17705
-544.66351
-773.94242
-693.95863
-765.06519
-651.63989
-573.0727
-445.98189
-327.764
-176.20288
6.9142115
624.05967
622.32441
1472.6534
1361.1856
1734.0067
1800.2919
2193.4163
2415.7143
2731.6471
2982.329
3327.5912
3643.8799
4022.8606
4416.937
4878.8783
5370.7822
5922.8483
6503.0358
7120.1544
7744.6348
8374.6414
9007.0443
9613.0333
10208.238
10843.077
11350.098
11946.486
12555.758
13010.401
13600.19
14050.201
14646.526
15085.771
15541.722
15526.583
15889.4
17714.504
18399.681
18787.753
19287.179
19675.346
20184.168
20433.378
20992.393
21055.387
21720.653
21602.542
22328.774
22186.469
23002.512
22845.033
23704.02
23415.763
24420.688
23822.618
25247.004
23527.479
24122.108
601.43771
-340.1656
589.61891
-422.6786
274.5924
-291.35495
178.59716
-225.31362
194.91549
-181.00509
115.09562
-301.05393
-134.85889
-496.69219
-511.6315
-717.60354
-783.21278
-867.616
-975.01901
-839.88437
-1079.9928
-745.47888
-1103.4759
-793.28185
-1125.36
-997.7427
-1312.0236
-1200.1624
-1460.1663
-1301.1078
-1358.7925
-1179.8139
-1086.0403
-994.81759
-838.24607
-717.88723
-754.28964
-819.16677
-442.08866
73.658947
-74.148056
193.44227
316.90972
568.23966
837.75083
1112.1102
1489.9273
1772.7636
2141.9558
2445.4103
2838.0144
3189.5295
3643.6877
4092.1026
4638.01
5185.7277
5815.04
6440.1459
7102.3545
7748.2667
8439.5969
9057.1494
9723.7594
10427.796
11012.869
11773.164
12394.851
13163.233
13851.166
14554.179
15291.218
15951.654
16505.043
19059.412
20509.436
21132.282
21712.958
22240.281
22723.837
23187.757
23597.512
24002.105
24334.797
24649.988
24953.963
25080.106
25308.41
25323.055
25523.441
25320.17
25594.611
25131.729
26262.704
23992.932
24591.326
397.83993
-67.15194
458.19606
157.58319
333.77279
244.39726
277.50657
240.98834
402.80012
265.88425
328.57244
290.13417
212.14432
48.568688
32.849254
-208.95869
-242.21106
-320.46443
-432.66773
-264.6382
-602.55472
-317.13682
-726.3821
-298.36417
-959.5737
-529.19438
-1067.8672
-799.10811
-1113.5353
-895.97802
-1063.121
-852.50087
-937.5559
-739.43964
-634.2832
-712.08137
-411.28389
-477.46889
-269.19988
-200.79389
-136.01567
131.31044
336.30152
611.41075
820.78848
1168.8725
1411.997
1758.4116
2063.1938
2435.1848
2785.5453
3201.9191
3624.4192
4093.2836
4585.3812
5109.21
5658.084
6215.5707
6793.8023
7395.0221
7981.5263
8605.3794
9248.238
9870.5383
10548.645
11210.377
11911.581
12608.162
13292.226
14019.052
14687.216
15424.563
16184.748
16702.166
17246.241
17931.998
18573.907
19203.031
19876.544
20355.01
21040.345
21375.811
22077.699
22268.077
22999.629
23120.604
23897.049
23920.541
24697.686
24632.002
25531.65
25208.253
26384.588
24307.822
24776.703
127.80653
-704.85134
350.96012
-620.18092
16.185296
-554.80274
13.798673
-448.11619
132.15591
-465.19388
-15.486324
-554.54934
-465.12967
-919.16761
-879.0714
-1260.4927
-1143.4649
-1357.9789
-1271.9377
-1184.9983
-1296.8114
-925.2474
-1201.1049
-1024.001
-1448.8968
-1120.8046
-1682.8698
-1329.5806
-1695.7435
-1395.5783
-1500.0413
-1272.5283
-1195.5401
-987.94722
-1109.4681
-750.36421
-945.67927
-736.13803
-810.27961
-724.76997
-613.60708
-524.62942
-303.13254
-180.95173
157.30114
376.56313
707.87272
961.15873
1296.0462
1554.7513
1892.6045
2182.4158
2539.8011
2882.6325
3289.1129
3699.393
4165.3123
4629.8442
5161.0983
5666.987
6222.3753
6797.1498
7362.7449
7992.9019
8607.731
9319.8198
9977.1475
10742.183
11507.042
12336.507
13137.608
14047.935
14846.954
15833.399
16411.637
16102.326
17006.265
17747.791
18450.489
19209.277
19846.628
20581.13
21165.014
21856.246
22424.642
22975.129
23483.453
23899.859
24306.193
24559.905
24880.182
24755.244
25673.054
23545.244
25361.446
472.49115
-621.99467
612.75045
-306.38041
399.58344
80.485769
515.39115
328.89345
649.75908
654.49498
745.78511
762.04097
800.10856
720.43082
839.37943
672.65872
837.06176
726.41865
847.55486
916.56707
742.81032
729.26328
182.60478
501.64187
113.63002
381.4652
9.3827403
364.2247
51.445964
409.74045
165.64824
488.11448
374.35652
408.51616
633.03664
467.73889
641.28188
595.49881
658.29768
775.57213
803.55219
960.89136
1027.5067
1221.077
1278.2761
1462.9961
1549.5735
1726.68
1841.1972
2018.2827
2161.3703
2344.1566
2524.7249
2732.7866
2945.7091
3193.9627
3444.9002
3736.6242
4052.6255
4382.0667
4777.5408
5186.1599
5618.7263
6128.3151
6633.3283
7177.6565
7762.9178
8378.9717
8993.6948
9642.2922
10309.684
11015.478
11672.891
12460.939
8761.0818
4540.2136
5404.7735
5846.2187
6606.3337
7195.2376
8039.3531
8681.7576
9662.1249
10357.272
11456.934
12190.285
13448.995
14189.357
15606.208
16382.891
17907.653
18845.968
20553.302
20204.283
25825.97
376.19029
-1299.1666
-340.57155
-1396.9468
-625.15144
-1034.8183
-619.1125
-762.69156
-344.8391
-510.2738
-337.20224
-388.24851
-249.00652
-321.94765
17.565743
-139.33341
476.99968
275.84134
889.71953
798.36336
1304.051
227.80075
67.253272
238.46169
40.500408
252.29192
6.7737514
222.41162
30.366669
241.42191
192.63464
431.63489
322.47871
734.77771
491.77768
765.97126
693.16847
792.28087
826.36644
803.08709
892.61959
846.30982
969.7262
956.27239
1088.4514
1127.8009
1256.8171
1281.6277
1391.8522
1406.2852
1470.6113
1473.5772
1522.2902
1527.9458
1590.2929
1653.7229
1769.1538
1926.8912
2135.1376
2391.3308
2709.423
3056.0711
3436.8242
3911.8076
4314.4594
4892.4592
5381.2499
5992.5955
6599.6472
7309.2683
8003.6263
8788.6825
9539.4811
10666.376
15015.004
7500.4457
8873.7942
9569.1697
10347.397
11173.112
12015.3
12943.225
13873.431
14891.09
15884.59
16982.669
17982.336
19100.307
20072.993
21153.013
22161.057
22999.192
24316.758
24289.283
29732.303
176.38763
-2039.9688
-951.9068
-1403.5574
-670.92927
-812.24434
-175.43525
-293.99574
191.57071
326.90053
546.52179
673.0613
1107.0676
1062.918
1468.8651
1644.554
1978.1624
2090.7851
2539.7244
2558.068
2813.399
3207.1216
2525.2873
2764.955
2826.0125
3015.2836
3042.487
3362.7321
3382.4723
3756.4499
3782.1271
4004.3353
4143.6809
4178.7679
4307.3734
4384.6993
4336.4747
4370.523
4217.7347
4233.2606
4045.6212
4038.9822
3856.9086
3844.9669
3690.7804
3672.4627
3581.4572
3568.6844
3531.9923
3531.42
3509.4153
3512.9871
3498.8812
3492.4416
3485.9784
3497.1826
3515.027
3568.9554
3648.8617
3770.5656
3922.8795
4127.3076
4327.276
4609.2186
4822.0024
5163.6249
5406.1411
5765.4773
6105.9514
6501.0884
6918.0007
7332.2749
7950.6218
8275.218
8377.5876
12068.257
13652.907
14205.5
14908.025
15551.107
16280.99
16904.752
17617.392
18243.712
18938.63
19493.787
20151.885
20609.149
21182.691
21661.715
22158.018
22788.06
23798.471
24048.115
30319.119
155.44472
-2756.1869
-1419.2049
-2091.9281
-1902.5226
-2090.4299
-1699.3928
-1929.5857
-1464.1341
-1625.6399
-1294.0454
-1198.0836
-1095.7237
-879.93154
-619.67028
-475.49483
-102.95212
81.184025
558.21351
666.23866
1154.8106
1215.9453
2060.3765
2400.525
2727.9515
2809.6511
3046.5639
3060.346
3195.5904
3298.5736
3316.1557
3557.6214
3466.0802
3728.2964
3644.9886
3758.0515
3728.2077
3734.244
3751.0794
3661.2066
3672.7698
3563.5605
3553.0434
3461.0415
3426.4971
3318.098
3257.2679
3073.7456
2932.3435
2668.5985
2410.8353
2070.5601
1743.5875
1374.8781
1068.2468
792.01005
604.87807
517.67094
534.58815
659.70795
868.61581
1170.0514
1459.8871
1888.8065
2125.1539
2611.5865
2791.954
3265.4814
3546.2574
3960.1581
4225.993
4842.0188
4957.6509
5667.7105
5966.8698
6539.9068
6736.5434
7217.1418
7695.3525
8369.163
9030.08
9892.1323
10786.301
11867.113
12904.454
14133.765
15246.371
16507.192
17663.682
18868.822
20045.699
21203.01
22315.247
23455.89
29782.391
540.76035
-3228.4452
-1317.9683
-2308.9548
-1160.1556
-1347.2197
-837.38413
-677.18904
-293.56254
-24.482872
344.57542
520.1998
990.01847
1266.008
1642.9055
2042.2163
2472.333
2788.6723
3434.0212
3658.0248
4315.8535
4573.8865
4923.4244
5266.2288
5522.8489
5852.1091
6046.2303
6265.7479
6372.4149
6422.2945
6561.1021
6597.2998
6703.9387
6837.7397
6832.7543
6951.6571
6889.2144
6982.3876
6806.1681
6828.1975
6592.0306
6523.7423
6260.9089
6139.7155
5902.0325
5768.2665
5580.9198
5432.5706
5254.993
5069.3905
4828.7973
4568.2388
4260.9254
3936.8349
3615.1036
3324.1581
3075.5071
2902.1363
2799.0976
2764.4107
2770.773
2825.3635
2866.0843
2926.8136
2911.0055
3021.5516
2911.4266
3068.9798
3026.806
3102.7345
3390.0385
3420.708
3880.1321
4059.7165
4476.0801
4783.6392
5281.1473
5672.0395
6204.5139
6743.0107
7402.9318
8094.1737
8975.278
9806.8199
10857.945
11799.136
12942.675
13939.753
15111.436
16183.876
17368.07
18623.866
19957.503
21990.317
29232.068
2346.3363
-3971.9046
-833.05832
-2113.2406
-988.02944
-1426.5377
-881.09177
-869.37169
-738.74238
-529.35086
-733.012
-254.34894
-242.00417
200.43908
613.35953
1073.6269
1722.7003
2031.3885
2690.1537
2730.3929
3358.2177
3019.5368
3488.9507
3040.7137
3400.0252
3261.7572
3580.629
3773.6796
4176.9024
4666.4431
4985.5917
5498.7949
5746.3807
6066.479
5989.1139
6217.6643
6125.3584
6055.2656
5895.5915
5655.4759
5442.9039
5151.1305
4897.1435
4563.7408
4236.5578
3807.5166
3388.6375
2871.5922
2411.5975
1936.9376
1572.9952
1312.7863
1237.6889
1293.4541
1556.1373
1924.9445
2374.3269
2861.795
3301.5676
3657.5336
3910.0123
4068.2027
4093.2842
4112.5057
4057.3329
4117.5697
3955.2519
4286.6974
4062.4301
4651.981
4457.1206
5134.0402
5060.9625
5743.2345
5986.4201
6775.6376
7422.6619
8359.1559
9453.4987
10692.827
11957.025
13404.72
14692.024
16157.829
17382.744
18786.344
19967.431
21333.018
22607.216
23983.081
25466.875
26995.499
28483.7
30621.349
32476.922
346.47597
781.70369
-76.953841
-242.30272
-369.1614
-236.05491
-258.50926
-144.93392
-373.81916
320.13692
-129.0357
-8.9768066
647.23636
686.64496
13.149998
2347.0797
1817.726
1414.4426
1601.9785
1189.4886
1302.2077
1138.518
1124.0164
1376.2058
1178.2059
1219.8953
1571.7407
1492.3745
2023.0475
1403.1475
1509.6683
877.98182
153.98423
285.68712
-2.2626167
-76.25195
10.651633
-162.75706
-90.315585
-53.272402
89.396458
-58.892148
179.49052
777.28227
415.9583
949.99153
937.5951
699.94784
458.4075
527.38234
416.96278
436.7105
386.75851
537.96877
449.11952
619.45759
595.2913
853.1353
1363.3834
85.893568
271.28704
192.90406
-185.01452
-188.69467
-363.25636
-311.66362
-387.0661
-355.03199
-422.35319
-384.50915
-343.78574
-286.22334
-124.26338
-41.272825
187.71744
415.13165
239.97324
89.455265
139.28393
67.517499
85.47546
18.397555
54.931595
61.929568
73.580991
115.70075
93.143979
152.18651
213.0055
163.90164
42.04616
-37.561326
-141.89417
-208.89011
-230.16453
-270.10307
-271.92074
-308.23882
-308.26364
-276.76086
-284.50093
-191.28505
-165.01207
3.6237261
-8.1311795
213.91712
150.50398
66.562724
73.829723
19.307523
23.993572
-3.885009
3.5722859
18.814066
2.3312702
29.220433
41.486835
47.313116
67.543087
13.107447
-90.875438
-56.478369
-231.0348
-196.96149
-254.66291
-265.13217
-275.78818
-240.0542
-276.68882
-145.71619
-217.99118
-121.77422
-169.89713
-17.063585
-149.80249
100.1701
-11.615856
-67.707137
-55.212783
-117.62848
-121.56154
-110.56715
-137.02441
-126.10494
-180.10113
-106.24145
-176.39003
-210.24865
-187.89014
-316.04405
-1103.9137
-1011.5752
-1055.7967
-1088.8414
-1082.7899
-945.0211
-1049.3184
-923.99572
-1011.9352
-743.24023
-899.48237
-961.27193
-893.65802
-908.51372
-1027.4507
-1874.5623
-1630.3815
-1531.0162
-1717.1786
-1571.9457
-1784.7382
-1694.3745
-1785.1234
-1716.7785
-1711.6443
-1699.6772
-1485.0979
-1777.9511
-1815.2857
-1848.0624
-3063.1645
-2118.7759
-2752.8597
-2504.0079
-2607.6882
-2519.6895
-2714.6965
-2464.681
-2439.0327
-2317.1753
-2319.2376
-2538.0854
-2565.5403
-2570.7275
-2288.2891
-2756.9333
-3036.4687
-2919.9393
-3190.1194
-3309.5688
-3440.6939
-3150.9522
-3086.7075
-3100.1167
-3402.8354
-3243.5419
-3391.6939
-3494.9113
-3495.0676
-3573.4593
-2886.0817
-2942.393
-3374.4093
-3468.2004
-3725.0699
-3506.441
-3421.4666
-3085.8737
-3386.1885
-3365.3489
-3604.301
-3509.5224
-3226.7239
-2617.435
-2982.2858
1977.9134
6725.7088
3074.9271
4869.0727
5824.3888
4597.0814
5566.6476
6585.1125
4306.0239
5359.0987
5397.9437
5482.0998
5270.1642
5947.9623
2373.5271
5697.8709
836.36659
2995.1198
3424.4781
1847.2635
4626.9681
4024.3313
3898.8402
4867.2182
2296.6557
3001.9324
1307.5547
2194.9482
3781.9225
3787.4194
-1490.5228
-1234.0908
-2311.1529
-1727.5687
1108.0779
-2274.4184
-2295.7033
-2015.1435
-4355.2035
-806.48479
-2225.4673
1043.3874
-1115.3731
-3062.7144
-956.9486
-1297.9368
761.99127
489.91856
-2160.5239
-1944.7905
-1204.9799
-1894.3294
-1136.5213
-982.64676
-2709.9787
-1226.5347
-1952.5281
-631.65886
206.69186
-609.72056
1980.1929
501.55472
-1320.1137
1217.8091
-140.10053
136.49502
881.1282
269.68514
656.09504
2585.139
275.36446
1466.7929
-241.72716
366.75327
1918.7654
-1561.1873
-418.50904
-740.27393
-590.82821
-773.25179
-768.90088
-1302.899
-1322.7608
-995.13913
-2239.3015
-677.62596
-1581.866
-842.29522
53.247356
-729.57221
125.23082
610.98719
226.95528
-238.37614
-307.69601
-8.3374758
315.58188
99.763226
372.34162
589.58047
-186.59741
432.70071
77.473853
-143.50421
1259.6255
211.15527
-313.83882
62.01089
340.41487
531.07216
83.300411
135.03531
306.36143
-125.56561
348.809
400.09396
312.34724
417.22474
-10.754806
997.74935
331.28563
1109.2123
798.34832
1105.4939
344.9571
855.75988
644.88641
932.73063
817.29245
858.83133
793.10387
477.06258
805.1597
682.39903
1107.718
1246.3122
408.10344
927.3271
704.12787
986.43946
673.99785
871.01638
612.77857
361.7627
1177.8354
365.97006
1487.7114
698.18767
993.56008
1902.4435
1222.8773
1632.6487
1616.8495
1869.8001
1468.1827
1866.0359
1522.7145
1845.8905
2094.527
1524.7971
2333.0811
1745.0238
1923.8161
2112.1694
2326.3542
2411.2569
1401.0283
1565.968
1556.063
1730.492
1563.7411
1670.9444
1459.6632
1208.5912
1496.2209
1077.7737
1371.2891
1223.0032
994.76681
2349.7011
2062.8829
2047.0371
1932.1309
2304.2724
1876.5881
2089.1418
1955.754
1951.0186
2346.9838
2226.2344
2434.9132
2400.6588
2355.3322
2653.0586
2898.2776
2436.5241
1908.4589
2415.6553
1842.4159
2093.999
2277.3737
2315.4334
1813.5108
1665.6526
1610.4345
1273.2851
1528.3687
1251.3778
944.91955
2486.6171
2445.6626
1839.181
1984.2697
2496.118
2487.0752
2124.0401
2054.4983
2122.8386
2320.7307
2327.3712
2765.1401
2599.4663
2543.2058
2936.724
3262.8879
2301.0733
2037.8714
2572.6862
2209.2603
1872.5078
2423.9442
2350.6549
2171.0124
1855.955
1815.9502
1225.5967
1482.1006
1502.6944
1154.9765
2276.6249
2307.941
1705.3338
1818.2498
1855.6397
2369.9251
2116.5907
2158.6522
1779.3231
2288.3127
2006.2444
2550.7529
2485.2692
2206.9243
1828.1131
3599.7341
2199.6025
2067.1756
2262.9197
2479.1739
1998.1171
2166.9347
1845.8988
2330.4095
2036.3297
2091.6877
1687.8285
1419.6093
1152.9583
1542.6117
1616.0553
2458.7173
2013.766
2609.2757
2116.7647
2528.5603
2091.8453
2791.0037
1881.8564
2236.1543
1971.4111
1817.4577
2035.9078
2492.0354
1900.2123
3655.7655
2513.464
2124.6442
2050.2919
2273.7165
2146.1399
2358.3362
2414.9153
2332.3085
2398.0175
2291.7441
2707.7026
2433.9585
1943.2762
1888.7306
2440.943
3047.0818
2571.2894
3022.5685
2623.3555
2792.3368
2344.7654
2816.3336
2423.5873
2638.6572
2015.1703
2254.1084
2052.64
3055.5139
2179.4445
3589.6704
3111.4275
2974.3012
2772.2665
3064.9969
2648.3759
3163.5786
2720.7443
2962.9034
2431.5759
3495.6564
3068.3681
3196.8255
2517.7871
1997.2816
4361.0919
4048.6342
3033.6591
3589.5437
3028.1113
3387.4036
3285.2684
3244.334
2766.1603
3287.3109
2754.6573
2449.3667
2402.0429
2623.3691
2440.9892
4345.8515
4000.1745
3865.0113
3476.6377
3630.9302
3397.7287
3002.585
3225.1797
3007.4893
3204.3426
2950.8356
3240.3796
3529.8758
3812.5999
2987.9971
6046.0706
5099.0805
3586.2787
3735.0509
3244.4417
3710.2482
3295.7656
3824.5479
3290.96
3543.6847
3184.2366
3636.3967
3406.255
3027.0368
2855.0793
5429.882
4723.1343
3708.1864
3902.0238
3752.1516
3730.0319
3769.6125
3415.6476
3365.9954
3405.9801
3278.1398
3401.4603
3587.2221
4326.5444
3993.0327
5840.2341
5042.6516
3748.2354
4193.5361
3516.2854
4065.5139
3458.7567
3704.0893
3498.6833
3579.1276
3432.9366
3717.5636
2790.2834
3427.7322
2445.8289
5958.563
4652.9674
3595.8388
3525.4168
3752.5653
3384.6468
3171.11
3459.6814
2999.3264
3520.0591
3054.0582
3610.0674
3682.8341
3584.3189
3775.4152
5229.5663
4619.5407
3610.9943
3388.9168
3077.5009
3327.2379
3239.8971
3274.5209
3068.3162
3093.9081
3051.3379
3074.6619
3196.3158
3230.1448
2435.0303
5659.1922
3886.938
2943.6648
3310.5967
3069.9223
3114.6461
3118.1529
2929.4401
2758.6221
2712.7797
2559.5567
2705.5321
2550.7612
3224.1118
2786.3934
4281.5932
4095.5328
3354.2255
3511.1006
3029.1678
3325.4369
2442.4431
2984.5275
2482.1115
3248.8527
2716.1872
2816.2295
2615.179
2601.9457
2349.5933
3885.7526
3698.7182
2962.1054
2953.8881
2828.9273
2803.3143
2880.4828
2796.4352
2708.4365
2485.786
2392.2609
2544.2545
2512.4448
2648.4773
2540.6305
3755.4978
3464.1257
2823.7993
3060.0516
2745.7005
3049.5724
2591.3674
2972.917
2426.6994
2824.7151
2455.2602
2815.096
2540.7915
2761.3656
2659.717
3315.7193
3328.6293
2919.5456
3050.3752
3084.1383
2974.3625
2856.3734
2887.3149
2775.7032
2838.5824
2706.9825
2769.8754
2733.6422
2852.2569
2704.6633
3292.3625
3581.1262
3031.1616
3268.3184
3375.1
3177.1074
3004.966
3203.6865
3009.2718
3116.4376
2963.2661
3160.352
3158.5569
3237.5896
3381.861
3736.0619
3626.5758
3353.2673
3500.0649
3067.8049
3423.4314
3239.2622
3358.7691
3158.105
3455.4868
2787.8935
3430.5327
3168.5256
3531.9481
3267.7803
4173.4513
3547.635
3447.4509
3824.5459
3748.7319
3800.7675
3447.2916
3760.6562
3389.5087
3671.3647
3746.1639
3760.7181
3780.4846
3631.5092
3927.5047
4207.9265
4280.0451
4421.8634
4213.2838
4294.155
4078.8429
4158.0161
3995.6089
4009.0357
4051.2514
3590.9197
4026.9725
3831.2981
4275.912
4116.033
4465.0154
4742.6748
4414.9985
4611.7526
4324.1711
4642.5967
4185.5941
4534.3383
4168.6758
4362.831
4250.3687
4319.5964
4442.1529
4475.2493
4445.3711
5055.3673
4884.3924
4940.5664
4780.9043
4936.3879
4693.2068
4713.3372
4633.5605
4503.0203
4654.2856
4381.755
4683.9339
4509.7345
4663.4812
4744.9179
5240.4339
5390.1816
5212.9403
5291.7085
5024.6177
5205.8885
4875.3315
5031.2494
4828.2412
4901.5615
4791.228
4907.2229
4846.025
5019.511
4979.6943
5590.2595
5611.7233
5669.6027
5350.0146
5489.8316
5325.8756
5220.1573
5237.0184
5026.4796
5150.968
4957.0105
5072.9866
5089.3058
5109.7618
5161.1911
5921.5975
6102.6022
5921.7004
5869.23
5726.3871
5750.4519
5523.0416
5583.2957
5396.5459
5490.3063
5286.995
5464.6371
5381.7257
5449.7589
5501.9609
6349.2906
6380.0724
6439.4682
6088.7121
6165.043
6020.0332
5881.1097
5887.6807
5737.876
5755.2416
5652.5858
5685.9408
5719.4368
5735.7453
5758.4354
6884.8805
7024.6104
6857.2252
6672.7304
6633.2289
6556.7887
6352.4727
6425.8091
6213.6527
6312.0846
6113.8486
6236.3558
6227.3217
6256.0905
6262.9163
7650.2927
7562.7705
7509.6524
7166.1259
7236.8866
7027.2363
6927.6926
6891.1388
6791.7782
6753.8272
6694.3063
6711.5843
6762.7157
6818.9909
6742.1028
8571.0073
8424.4119
8181.8586
7913.3451
7911.7394
7799.185
7595.5807
7654.0991
7454.7918
7517.3274
7384.9925
7435.4759
7494.6158
7581.8803
7436.0579
9677.0755
9267.9622
8996.955
8632.7716
8751.0463
8439.2041
8319.0542
8248.0712
8185.1524
8130.9377
8092.2507
8102.5937
8210.005
8350.4547
8111.6196
10879.108
10276.682
9806.4419
9510.7701
9498.6954
9292.243
9098.4681
9144.5346
8991.6209
8985.274
8911.8285
8940.9674
9034.2217
9219.0416
8903.993
12077.97
11223.505
10674.624
10246.978
10389.969
10026.205
9876.9146
9763.5969
9693.243
9604.7955
9609.9117
9612.8585
9733.5232
9993.5772
9593.5072