/*--------------------------------*- C++ -*----------------------------------*\
  =========                 |
  \\      /  F ield         | OpenFOAM: The Open Source CFD Toolbox
   \\    /   O peration     | Website:  https://openfoam.org
    \\  /    A nd           | Version:  6
     \\/     M anipulation  |
\*---------------------------------------------------------------------------*/
FoamFile
{
    version     2.0;
    format      ascii;
    class       pointScalarField;
    location    "1.59";
    object      E;
}
// * * * * * * * * * * * * * * * * * * * * * * * * * * * * * * * * * * * * * //

dimensions      [1 -1 -2 0 0 0 0];

internalField   nonuniform List<scalar> 
3969
(
-573.77885
886.06476
-154308.46
-127748.49
124.37869
1530.7848
-174349.04
-260017.22
-1679.5921
-615.00857
59.613309
34.617964
669.52926
2257.7224
2494.3896
-86920.352
-94993.934
-101426.08
-103867.35
-100302.47
-96492.406
-69150.043
931.54695
809.51716
1347.0324
2590.8767
3141.6795
4676.7873
5270.9961
6964.6225
7216.7289
8725.525
9585.7101
10409.271
11342.784
11682.074
12199.579
12082.667
12116.653
11399.746
10554.398
9138.4643
7143.1453
4849.8849
1720.9061
-1523.0943
-5812.8303
-9913.436
-14883.466
-20076.079
-25271.245
-30796.68
-36287.25
-41382.292
-46354.519
-50797.004
-54086.967
-57440.874
-58226.006
-60132.494
-58257.921
-58383.931
-53750.736
-50504.181
-45744.274
-37618.125
-32665.527
-23245.674
2814.9486
4921.6811
-373.75701
6267.1556
2602.3045
4942.9095
3242.8802
3310.9853
1711.595
415.32483
-415.40678
-3029.1872
-4265.8496
-6344.8399
-7638.8593
-8818.9358
-9957.2625
-10009.591
-11093.27
-10027.27
-9751.0963
-8308.7403
-6134.4057
-3836.207
-100.74431
3833.9838
8939.6587
13087.083
19025.196
25402.939
31661.044
39115.647
45629.85
52474.061
58368.406
63760.011
68237.692
70694.127
72386.65
71938.773
70480.247
66697.038
60941.672
53961.341
45049.331
35604.562
25476.435
5240.6794
-405.93309
-406.14623
-100.43119
39.504544
-372.14897
789.28586
992.12244
5354.5267
6064.551
-2513.2894
5327.4726
3581.6273
2339.0191
4420.2435
76.820268
3851.907
-4116.5788
1544.5035
-2861.3732
-3627.9074
-4544.5796
-6365.4242
-5744.6462
-7008.3977
-6399.8019
-6089.1123
-5489.9758
-4122.0347
-2852.7598
-662.40501
1401.4417
4590.2695
8839.2507
14998.702
20035.268
25179.079
30281.862
35150.588
39863.36
44009.442
47866.078
50483.211
53457.45
58552.872
52600.122
52436.905
49470.963
45212.933
40212.169
33314.699
25705.927
16991.239
7680.1351
7003.9827
-232810.08
-195295.63
-225417.59
-195470.61
-182976.73
-164066.09
-201625.76
3216.0904
-2864.8353
-5252.5241
-10354.911
-15048.959
-19295.774
-23155.749
-26442.405
-28977.575
-30522.732
-31262.882
-34692.089
-32718.701
-32393.976
-30918.771
-29089.996
-26874.285
-24263.7
-21420.476
-18446.551
-15287.581
-12110.294
-9282.4605
-6537.3489
-3851.3598
-1415.4489
802.39859
2631.8203
4407.5742
5539.0496
6939.1593
7129.8435
8561.3285
9051.8595
8769.4007
8360.749
8321.4749
7545.5827
7120.9666
6318.0737
6542.3261
4119.1904
4727.9902
1945.816
3052.3378
222.76391
2922.8838
-398.23483
-699.75381
-736.69154
-599.01545
-551.30066
-546.37283
-1141.696
-445.44121
-530.9709
-1336.6408
-1486.7893
-1106.7849
-239.23834
-1177.5828
-139281.08
-139355.9
-139327.19
-139779.43
-140237.12
-139996.88
-140641.13
-178551.07
-179432.67
-179777.25
-180122.5
-180462.62
-181680.1
-182437.98
615.08836
-1200.1612
40.926658
360.66449
282.64803
1414.7574
1195.9668
2360.8463
2469.8732
3330.5708
3522.9642
3826.5944
4197.9249
4238.5688
3934.6181
3622.8082
3136.5791
2024.5963
1028.4514
-376.39373
-1786.957
-3394.6633
-4783.3118
-6520.0094
-7668.0411
-8884.6059
-9713.5651
-10538.653
-10701.185
-10922.843
-10540.07
-9928.7349
-9249.688
-7997.7424
-6894.5454
-5359.5268
-3746.9908
-2303.84
-608.08526
1241.4484
3390.5151
4364.763
7883.1753
8906.6163
11056.985
15412.656
15530.496
52.858731
-1178.198
-565.33412
-1082.3579
-758.32241
-518.42216
-669.93507
-171.76574
-405.85632
-143.12075
-319.62358
-30.381538
-153.99343
-495.56487
-497.86659
-900.47885
-1339.6528
-1908.6966
-2412.2932
-2810.1032
-3345.5402
-3385.669
-3832.1644
-3476.9051
-3332.2561
-2792.3307
-1900.4794
-908.03335
269.26666
1957.6525
3797.2779
5672.5247
7777.4529
9763.9923
11861.861
13526.187
15504.371
15895.743
18411.967
17915.974
19891.397
19301.775
20625.769
19298.748
20201.128
16818.702
8400.3428
535.25536
-656.20535
-160.22254
-699.44438
-1110.8148
-950.80425
-1528.4603
-1239.2063
-1926.6087
-1503.2291
-2064.6827
-2001.0921
-2546.3933
-2836.6715
-3150.1282
-3322.6101
-3366.3582
-3443.2248
-3015.332
-2871.3202
-2178.3429
-1742.9439
-280.93918
964.70514
2646.7091
4467.6214
6918.3828
9174.9427
12077.549
14810.294
17518.651
20356.631
22858.622
25322.965
27346.143
29233.783
30253.573
31833.534
31977.974
31647.812
31531.84
29009.702
28210.259
24462.388
22015.558
16611.074
1817.1928
569.95846
-383.62606
-51.644966
-741.15921
-1153.3898
-1228.4291
-1990.6176
-2317.128
-2829.4607
-3672.7712
-4137.9802
-4033.6437
-5053.0597
-4483.685
-5478.655
-4234.1583
-4826.2005
-3620.2478
-3640.4097
-2586.488
-1821.1754
31.625599
1463.6107
2722.7768
4046.7313
5942.5742
7442.5232
9175.7491
11091.097
12868.003
14851.151
16811.319
18409.717
20242.422
21536.306
22414.789
23547.049
23419.441
24478.972
24573.226
23428.396
21120.495
19833.13
15463.834
14232.35
7671.3731
-2661.1309
978.22132
-349.61952
341.06897
-945.73959
-988.33931
-1456.6422
-2243.3744
-2135.9439
-2722.0412
-2856.8112
-2119.4113
-2583.5729
-1913.5987
-2187.3343
-1527.8246
-1463.4921
-955.48673
-568.52568
-16.550811
630.65809
1279.2968
2675.7604
4254.386
3627.4131
3552.073
2927.991
2176.5442
1383.8087
329.98007
-830.22509
-2163.668
-3646.4333
-5383.3418
-6805.0897
-8959.736
-10258.864
-12209.97
-13921.151
-5260.8881
9071.9558
7804.3853
7040.9404
5215.5904
3181.5494
1395.8408
-2695.966
-965.89853
1758.6752
554.78268
1345.4798
1090.5305
1124.9831
873.92499
576.20796
303.98458
284.76646
-148.83102
193.76973
217.34452
835.75547
1024.6318
1311.4331
1897.8789
2040.1148
2472.4748
2659.4952
2696.8973
2815.7397
1950.938
1100.3429
563.77163
-516.11179
-1932.7391
-3015.8369
-4800.1442
-6570.2085
-8517.4112
-10599.355
-12806.279
-14921.137
-16891.833
-19150.315
-20387.503
-22121.896
-23170.864
-24261.22
-22035.401
-21923.443
-21465.903
-20859.619
-18544.436
-16198.15
-14306.89
1168.0365
2295.3559
-468.91406
1739.9464
377.43855
1405.188
616.62934
1008.8529
-84.054314
1177.64
-580.91995
1090.2866
-800.70694
566.92183
-243.00275
206.69744
-102.26033
-144.94669
-351.67452
-770.59654
-1193.1952
-1736.9324
-2413.2241
-3839.471
-4528.6247
-5298.4225
-5745.4831
-6421.9008
-7056.0768
-7794.9137
-8468.2848
-9216.4528
-9615.3898
-10232.893
-10200.676
-10677.095
-9818.4221
-9964.9257
-8145.1704
-7456.7431
-15430.563
-15424.274
-12097.936
-8247.9834
-2920.5074
1155.8502
8698.1104
17983.163
-1091.3452
-1309.6967
-1369.1962
-1510.2187
-1318.4844
-1395.1751
-1296.722
-449.52705
-797.32872
-879.04287
-964.53196
-935.86914
-829.65377
-861.7567
-54.614057
-258.58794
-315.04652
-383.27504
-333.25411
-309.42753
-419.59516
-16.271104
-148.19417
-85.99169
-119.75138
-97.305421
68.94716
-31.118018
-95.589663
-203.00446
-266.9521
-319.2169
-319.00677
-223.88274
-231.73079
1047.9761
574.32619
589.17415
383.35794
442.68608
454.3535
416.55352
637.04638
1044.6181
159.50589
-15.61219
-22.743898
-82.926523
389.26722
5579.5155
6887.5911
6670.4438
7399.3141
7302.4266
6703.3958
5660.6534
3315.4367
3680.8113
1880.8084
1385.0402
3326.433
1997.1117
4354.4028
3939.9678
4163.0282
6166.1914
4652.4971
4053.2919
3324.2146
5112.678
4826.7471
4874.7817
2835.7794
3605.8325
3425.7132
4422.2362
2480.0504
4847.5548
5257.4042
6711.1414
5376.3243
5355.169
5203.8989
6329.6948
4836.3957
3567.032
2168.6287
2952.887
2040.0452
2613.595
2423.5001
3270.2117
3227.1153
4553.343
3832.5305
4762.0941
4417.8967
5174.8404
2467.2831
2338.3347
1278.6161
1289.6137
12.522208
144.38307
329.28636
1415.0046
640.10637
1391.8976
1160.9428
2449.7814
2711.6944
3953.3419
-1093.8654
-741.98831
-1620.9165
47.412873
-2146.6089
-2279.5905
-2478.7958
-1121.8415
-2086.2739
-1426.7978
-3108.0324
-1622.1602
-1553.8413
-236.0842
-4700.5776
-3261.2269
-4415.0587
-2670.6018
-3372.9567
-5514.6014
-2742.1582
-4856.0718
-5643.2533
-4762.2432
-5684.5773
-5487.8482
-4357.9858
-4862.5313
-7503.4193
-6652.7912
-6016.8041
-6958.6779
-5399.5188
-7259.9362
-5019.0859
-7795.0368
-7038.1913
-7734.0854
-7478.9885
-7973.2888
-8099.8081
-7143.6971
-8721.6626
-8775.9487
-7793.1959
-8858.7504
-7800.7097
-8649.6844
-6866.6739
-9655.8426
-8403.2904
-8831.2956
-9159.1684
-8660.4535
-9500.1974
-7827.0293
-9078.0121
-9215.7551
-8611.698
-9206.4584
-8656.8051
-9394.1167
-7866.1221
-9097.3682
-8734.6888
-8282.4816
-9214.622
-8247.2861
-9294.5331
-7302.0721
-8021.6093
-7942.0074
-7562.3488
-8029.6568
-7341.9075
-8362.3171
-6783.6212
-6405.0884
-6709.5271
-5918.0633
-6797.9434
-5962.7318
-7160.6678
-5336.9153
-4431.4555
-4648.649
-4032.6958
-4821.0083
-3963.0108
-5193.7757
-3566.1663
-1531.3695
-2086.7925
-1408.6123
-2093.6638
-1298.6878
-2485.0801
-1075.0376
1766.5543
1220.3124
1791.5217
1059.6335
1858.5776
569.19156
1651.4762
5752.7728
5493.2073
5134.8846
5296.5155
5591.985
4752.9227
5424.0827
10316.1
9996.1622
9421.5634
9467.3453
9121.2601
9369.0028
10322.516
15366.974
15040.297
14808.521
14312.515
14687.873
14730.167
15878.864
20968.274
20224.294
20827.578
19816.263
20575.82
19388.799
21387.175
26124.114
26763.239
25709.112
26424.801
25995.717
26106.3
26875.219
33190.95
32102.1
32800.777
32073.328
32361.174
31902.139
32892.141
38738.088
38888.205
38404.657
38405.105
38262.633
38120.501
38841.712
45298.541
44621.444
44751.624
44440.517
44346.876
44067.643
44734.573
50766.706
50458.633
50364.038
50061.794
49893.912
49765.227
50366.896
55967.394
55445.748
55555.305
55199.827
54957.971
54715.339
55383.372
60118.512
59849.78
59828.157
59553.289
59388.563
59529.117
59480.669
63807.851
63269.558
63294.542
62958.825
62327.42
62840.789
62709.489
64733.694
64620.046
64715.867
64570.578
64910.493
58573.483
59828.049
59558.853
60285.093
60407.819
60264.228
59647.221
67680.146
65047.043
65042.879
64655.333
64874.123
64433.187
64463.612
64283.447
64179.186
62583.661
62417.95
62392.429
62560.898
62023.352
62167.463
61893.581
58342.105
58020.296
58248.975
58051.801
57802.093
58168.265
57482.919
52686.26
52407.568
52532.771
52483.274
52306.461
52505.883
51592.751
45541.862
45422.925
45480.778
45449.491
45266.86
45471.288
44591.317
36804.285
36805.252
36849.825
36975.107
36586.334
37209.849
35609.953
27098.797
27284.186
27215.146
27225.889
27321.987
27399.993
26005.31
17367.671
17741.65
17606.604
17974.082
17536.933
17884.136
16241.662
4654.9212
5281.9952
5182.2579
5336.3429
5347.4619
5191.3509
5093.2208
-112899.9
-121768.72
-121636.99
-121842.53
-122340.74
-122118.43
-122495.71
-125792.09
-125121.79
-125297.16
-125631.22
-125761.25
-134552.76
-125521.07
-134857.28
-126754.99
-126684.5
-127139.6
-127123.93
-118498.87
-128341.9
-133960.74
-134438.12
-135393.39
-135153.69
-136406.72
-135753.07
-136536.57
-132981.05
-114210.96
-131460.53
-132353.58
-131510.27
-132470.18
-133427.75
-119481.02
-148051.29
-137770.72
-137861.85
-153390.68
-138589
-140685.57
-151639.2
-137532.91
-138359.07
-138375.71
-121854.25
-138664.29
-138420.8
763.65128
1320.0202
1513.078
1666.5469
1744.8207
2043.3722
935.22737
-28.285725
-185.3054
-67.53769
419.19979
2.4607887
-390.07545
410.82502
1763.1617
2299.0623
2011.6188
1760.3683
2834.2719
2256.6927
3139.9837
2430.5582
2300.8081
2004.7408
2679.3309
2171.609
1831.8042
2597.9612
4523.1664
4076.5477
4704.1987
4289.9209
4846.8095
4450.214
4762.7988
4483.2985
4351.2183
4139.7449
3939.8439
4339.2722
3760.9318
4769.3561
6791.3606
6114.3849
6598.9248
6195.3338
6745.0191
6690.6255
6884.0725
6547.1961
6286.2358
6328.6183
6041.5611
6176.1174
5993.1029
6863.591
8396.7323
7821.1548
8221.6093
7538.0959
8471.3565
7580.5023
8437.8199
9197.0305
8254.2841
8598.3417
8078.0466
8636.1706
8229.4461
8935.5289
9795.9493
9174.7991
9849.0506
9030.4803
9804.5867
9043.3417
9625.9938
10352.954
9932.7439
9957.9916
9819.8713
10246.368
10037.403
10497.635
10955.796
10178.147
10443.675
9933.627
10692.987
9845.018
10288.973
11386.013
10838.895
10974.116
10609.984
10966.05
10951.866
10759.051
11046.945
10777.29
11025.666
11012.274
11502.748
10428.668
10746.648
11273.938
10476.911
10704.865
10082.187
11137.475
11038.278
10590.184
11290.712
10588.552
10576.197
10426.097
10910.55
9986.9348
10275.558
10578.927
9554.7211
10025.679
9402.783
9965.3869
9413.7407
9280.7745
9313.7616
8613.032
8829.9039
8244.3237
9034.9096
8250.4872
8350.7599
7937.1008
7108.8687
7272.8444
6925.3571
7310.3353
6706.3643
6734.9902
5864.3691
5087.527
5401.8702
4812.6688
5395.5263
4804.9981
4970.2963
3600.1486
3026.7477
2971.4386
2627.7351
2994.5716
2403.7186
2717.5645
583.11716
23.158185
13.545791
-320.22983
34.463444
-407.38406
154.27682
-2543.4552
-2899.8243
-3215.0395
-3358.6878
-3132.358
-3422.8935
-2784.873
-6503.7629
-6519.6095
-6997.3465
-7027.7775
-6771.5717
-7005.8403
-6114.3561
-10184.15
-10331.182
-10906.614
-10880.037
-10614.034
-10895.153
-9754.1484
-14720.453
-14574.003
-15328.367
-15050.364
-14948.34
-15096.291
-13506.999
-19309.84
-18974.314
-19615.931
-19507.558
-19224.273
-19404.473
-17506.143
-23729.649
-23466.724
-24337.203
-24057.932
-23808.193
-23920.926
-21621.313
-28628.442
-28014.039
-29031.047
-28522.961
-28322.467
-28378.311
-25624.49
-32883.979
-32615.134
-33456.889
-32995.608
-32813.11
-32869.921
-29556.524
-37255.377
-36858.132
-37678.363
-37254.709
-37099.29
-36903.796
-33228.117
-41059.915
-40786.9
-41604.244
-41130.365
-40838.91
-40810.058
-36522.775
-44325.609
-44235.892
-44887.659
-44386.417
-44364.805
-43971.688
-39628.635
-46856.537
-46927.626
-47455.021
-47167.801
-47061.719
-47132.662
-41855.804
-49084.242
-48982.072
-49366.667
-49295.595
-48835.024
-54003.234
-48036.919
-55130.968
-55577.257
-56329.157
-56118.559
-55389.814
-49999.363
-41595.139
-48784.899
-50287.373
-50141.669
-50358.396
-49895.17
-51010.286
-44091.599
-48366.453
-48521.14
-49083.066
-48940.091
-49198.783
-48916.613
-42821.621
-46707.027
-47876.938
-47622.588
-47585.947
-47396.04
-47020.416
-40986.937
-42929.805
-43429.872
-43670.42
-43967.771
-44021.826
-44163.298
-38275.26
-39320.565
-40181.943
-40393.976
-40079.864
-40160.073
-39992.173
-34474.688
-34668.403
-35713.316
-35317.681
-35787.469
-35893.926
-35732.201
-30099.193
-28292.395
-28286.625
-28885.135
-28805.207
-28863.81
-28509.387
-24698.272
-22534.953
-23993.911
-23746.567
-24057.912
-23820.85
-24004.365
-19471.829
-17023.925
-16164.207
-16502.089
-16286.626
-16410.622
-16165.082
-14013.718
4784.6638
3590.4936
3439.7393
3254.0493
3229.9916
3529.7957
4017.1114
-1796.6705
-667.9069
-512.66107
186.5057
8.0163195
797.87723
502.02606
970.02172
366.51981
562.41494
342.21343
-975.24508
-803.67939
-2587.7602
-3238.0521
-4246.8217
-5608.3415
-6051.0654
-7244.2481
-7402.2577
-7849.1243
-7483.4544
-6790.926
-5617.5501
-4010.9471
-2030.7279
1194.298
4251.1625
7554.9469
11252.676
15053.544
18820.565
22236.489
25632.212
28202.607
31075.346
36978.408
32935.187
33825.311
33213.937
32418.743
30926.019
28727.017
26415.161
23147.066
20318.369
22556.738
-1624.5247
-306.06419
-1445.7073
-1084.7162
264.04315
-533.97852
739.03288
820.19515
1325.9469
2240.2741
1770.2652
2875.804
2462.1451
2672.1277
2935.4649
2800.2406
3248.725
3009.7481
3345.3513
3428.2657
3526.9746
3806.2832
3878.8692
4231.7797
4563.6054
4217.7932
3679.1404
6364.2061
6847.5807
7615.6235
8385.2142
9084.4516
9862.3326
10357.709
11069.916
11744.282
11295.456
10932.418
11358.103
10302.602
9929.1836
8628.0837
7739.6131
5822.7206
4991.0578
591.62766
6121.3516
-306.62492
-438.9369
-1528.2896
-68.703197
-1802.7973
-226.31662
-1080.1946
-958.92375
-615.72745
-1141.4278
-926.78394
-507.21715
1374.9557
3561.728
3805.4647
4451.0435
5091.39
5559.7179
5827.6181
5939.7326
5799.9016
5390.8118
4813.8672
3808.0192
3025.4306
1625.186
548.40099
-1312.4068
-2300.8826
-3890.9343
-5123.9034
-6388.996
-7413.0565
-8385.7424
-9129.6025
-9744.9125
-10178.82
-10415.13
-10527.44
-10401.052
-10084.792
-9623.992
-9051.1406
-7704.4953
-7198.3019
-5375.4878
-4125.6729
216.17586
479.41754
-1104.1132
935.12244
-1346.4479
891.0693
-2235.4596
849.91037
-1149.2659
302.85368
1029.9363
498.78028
2149.1532
6361.9725
6112.6945
7112.0964
7475.2573
7492.3882
7677.7261
7390.3342
6801.0677
5938.4771
4602.425
3375.6452
1500.0647
-164.69749
-2941.9478
-5074.096
-7849.1383
-10478.787
-13070.799
-15591.372
-17967.516
-20218.211
-22017.331
-23644.755
-24678.621
-25542.176
-25380.804
-25196.674
-23967.9
-22727.819
-19808.537
-17762.67
-13171.813
-10282.071
-9204.416
804.69831
-76.414318
105.84666
343.58662
-327.54205
208.97141
-120.23817
1927.4876
-538.81437
2974.2812
-369.71676
3047.5886
1864.2907
2723.7423
2884.2384
3369.7027
3508.9077
3832.0087
3704.2042
3515.1804
2952.7179
2214.6698
1487.5155
66.638721
-1726.5376
-4126.8749
-5827.8996
-8085.1465
-10273.962
-12537.966
-14706.07
-16954.508
-18989.42
-20813.507
-22293.117
-23632.926
-24307.728
-24526.105
-24333.853
-23243.294
-21803.96
-19024.364
-16268.965
-11983.258
-7585.0608
-2389.0617
-3515.3312
2035.3929
1980.7875
-986.16931
2156.9147
-996.10416
826.9579
1173.8668
-1732.406
1657.5026
-144.02616
284.40069
865.41367
-993.57938
1039.7028
-31.787679
496.80792
609.60967
578.41866
736.70494
597.45214
522.60935
285.37847
111.02545
-442.4661
-1437.3076
-1396.6176
-1689.3365
-2054.6519
-2473.2024
-2881.2796
-3252.924
-3735.1694
-4087.0374
-4163.661
-4475.1069
-4322.7629
-3767.8005
-3816.5482
-2354.3782
-1717.1873
-48.991047
1206.558
3485.0214
5158.736
8148.7655
8699.2416
8288.3136
4350.2109
41.061883
2747.2235
208.64327
2983.0402
1026.2645
2033.1511
-10.718494
2129.5031
-162.44304
2442.5286
3023.954
987.57986
2520.4155
417.73596
1403.8918
-25.403599
-217.58448
-897.72144
-1716.9406
-2518.8373
-3510.5558
-4598.996
-6111.64
-7437.5177
-7523.4446
-8550.0008
-9206.0579
-10068.861
-10537.308
-11043.12
-11460.554
-11500.143
-11334.511
-11212.698
-7308.8292
-9414.1505
-7175.9763
-5692.8595
-2867.2489
9.3170101
3655.5344
7253.6108
11849.237
15384.864
20258.501
24120.332
-1046.8179
-429.18416
-563.33802
-473.28876
-578.75521
-791.68608
-792.88074
-880.8502
-998.22011
-1263.5686
-1310.3595
-1492.1814
-1389.6897
-859.90904
-297.8556
-518.51025
-203.98258
-397.84688
-361.07486
-308.41032
90.885024
474.22158
127.67283
161.73984
298.11678
127.82653
344.58871
253.88804
803.16746
597.83049
931.62773
243.49607
831.76428
166.20481
423.70935
1212.3869
1263.1591
783.44723
1722.3863
1099.1755
1440.4278
1628.758
1670.7679
1093.1212
1786.275
976.18118
1163.9953
1188.252
1038.0334
1851.4436
2182.732
1631.2671
2322.5293
2174.8348
1925.9403
1983.2115
2286.3376
1904.5049
1862.7511
2355.5626
1871.8605
2136.5458
1642.892
2126.7823
2136.6126
1927.717
2167.8344
1965.2853
2024.591
1540.7498
2139.6123
2105.177
1881.5518
2473.1001
2121.6194
2279.4265
1852.2483
2113.8766
1684.6453
1662.8413
1611.9121
1420.6858
1575.5377
775.46339
1665.1787
1538.0518
1130.2486
1862.9971
1550.9033
1769.0503
1105.695
1273.4705
692.82841
1043.5002
737.95423
897.88066
167.42331
150.4255
326.35449
260.82981
-172.35072
215.05849
-281.69561
236.11735
-717.51167
-244.5778
-680.49454
-755.74219
-417.15808
-665.67206
-776.64441
-1577.7206
-1473.0309
-1923.4298
-2013.8795
-1666.3645
-2062.9239
-2047.539
-2796.0599
-2444.6853
-2795.2133
-2931.9293
-2620.4719
-2875.8986
-2629.1445
-3526.2914
-3451.6326
-3930.4416
-4082.589
-3713.2753
-3890.9689
-3936.1281
-4791.2327
-4519.5391
-4811.845
-5008.1674
-4544.8856
-4882.8014
-4657.5736
-5415.0843
-5192.9104
-5616.9469
-5708.0532
-5439.1673
-5607.1082
-5503.8495
-6237.9226
-5906.0556
-6328.6956
-6353.9524
-5985.056
-6192.347
-5981.3674
-6614.5313
-6001.5112
-6531.1087
-6351.2215
-6242.3995
-6375.272
-6397.0972
-6729.996
-6108.3637
-6643.1735
-6335.0598
-6146.2324
-6296.3953
-6206.2911
-6325.3227
-5254.4738
-6128.8637
-5627.2134
-5588.4172
-5808.9933
-5968.9998
-5736.5372
-4628.892
-5352.5473
-4633.6162
-4908.2967
-5031.3331
-5271.2543
-4677.5104
-3187.5217
-4200.2185
-3289.5458
-3473.894
-3758.8138
-3713.4409
-2757.3587
-1329.0614
-2128.1647
-1824.4097
-1695.0267
-2039.8775
-2335.3123
-812.25893
581.78436
-562.95987
724.77128
391.67858
-112.22449
-224.1096
1593.2672
2948.9702
2372.1835
2903.4095
2566.1441
2249.1017
2001.5373
4176.8574
5708.4113
4659.9786
5397.7492
5376.2404
4779.9941
4554.4888
7027.9209
8209.6585
7454.3591
8234.9489
7932.6748
7348.7018
7153.6777
9956.3393
11001.167
10310.898
10763.864
10713.933
10083.93
9938.7013
12854.983
13767.965
12861.847
13516.751
13371.661
12725.565
12455.807
15750.121
15980.184
15511.538
15796.785
15836.589
15242.201
15232.757
18364.654
18834.567
17595.243
18048.386
18037.477
17383.563
16452.444
19266.558
19265.721
19276.847
19530.414
19712.11
19219.688
19062.502
27496.983
21497.959
24296.273
24873.922
25183.626
23803.932
25109.768
24060.789
22461.101
22435.002
22079.151
22548.472
22139.288
21998.445
25792.58
24277.42
23270.579
23300.252
23692.935
22874.577
23217.573
26182.202
24007.965
23702.385
23457.387
24064.361
23536.431
23662.107
26501.156
24095.766
23068.485
23067.705
23666.194
22862.717
23636.366
26384.553
24630.356
23854.908
24078.128
24184.598
23993.963
24186.712
25799.37
22922.435
22327.322
21827.754
22708.165
22109.487
22641.252
24660.704
22616.529
21412.209
22346.209
22228.331
22114.875
22331.09
23329.811
22590.964
23028.069
22264.069
22903.015
22458.482
22786.483
23038.026
21726.835
20829.338
21145.469
20987.229
21004.167
20930.347
21059.306
-812.99041
157.90543
-8.965644
106.23407
-250.04171
-139.57914
-798.40669
-1483.2415
-1314.2194
-1409.1257
-1140.8659
-1146.87
-879.92052
-923.22887
-1077.2683
-1410.9766
-1474.3411
-1560.3825
-1263.1656
-1523.8085
-732.8125
-1098.1744
-872.53446
-984.59675
-594.90923
-1008.625
-519.73595
-1262.234
-175.69104
-629.89754
-120.57998
-767.26448
-0.08180357
-776.41334
91.846916
-392.18246
-418.5996
-896.67084
-400.71699
-1000.934
-419.83358
-493.95206
203.0055
-117.80042
578.2423
-33.398902
435.2752
247.24821
24.962716
234.23225
368.07463
-122.35886
320.49075
106.78595
110.24389
262.86463
486.13191
173.92934
628.20032
434.69228
51.161757
464.91276
71.677994
515.53298
766.15089
797.68816
746.6209
957.17683
721.87589
1005.8503
691.6505
662.43855
798.34874
839.12631
332.55962
564.39516
224.31394
456.50091
869.41882
850.34317
777.42945
990.53384
835.50446
948.10705
453.72935
712.15821
1076.9944
1216.1112
713.85873
882.71115
252.61197
350.35137
367.67638
952.11321
512.34474
416.76061
721.22741
143.6145
433.0815
448.66642
691.80063
609.7705
767.30475
669.7865
278.23657
256.4411
-322.22031
629.99612
227.18188
334.72641
185.31914
-366.09517
-191.23338
-22.56061
389.97016
-40.801395
268.33301
89.770466
21.36594
-171.26546
-314.04354
203.93216
-82.872193
16.268789
-96.983901
-498.24036
-498.08743
-576.75111
80.569531
-405.541
-57.536748
-361.64394
-436.76869
-394.04034
-494.80966
-19.730199
-239.66348
-229.62388
-426.3323
-377.2518
-491.41869
-737.05957
-55.704817
-430.45603
-252.20989
-350.44196
-327.86
-160.71147
-166.99123
145.76288
-57.747859
84.447912
-309.58336
55.572843
124.41992
-125.96351
224.33927
198.5739
24.525843
79.772216
566.81263
1021.6929
669.83999
919.38549
692.73168
669.63715
914.69994
1434.2625
1653.0777
1308.205
1384.0655
1285.7685
1268.6299
1409.6273
2101.1841
2966.8997
2636.3113
2904.8068
2501.3775
1882.1722
2694.9607
3489.7093
4940.8243
3587.8112
3655.8466
3379.9262
4040.2617
4038.2958
5409.0868
6748.9782
4840.733
4765.4839
5030.6573
4861.1495
5665.6179
6765.8311
8046.5227
7022.6218
7092.7188
6414.0761
6545.2381
7456.1501
8479.1059
10676.33
8732.2184
8349.4974
8379.2372
8474.9149
9324.9475
10583.657
12813.551
10415.044
10428.415
10330.206
10218.732
11220.147
12740.125
15085.306
12621.221
12369.315
12278.064
12180.221
13415.083
14842.573
17582.806
14444.704
14236.467
14104.798
14157.459
15197.563
16953.119
19487.354
16244.192
15995.077
16038.981
15898.696
17184.904
18791.137
21691.523
17886.756
17682.436
17595.459
17454.514
18504.023
20528.97
22921.158
19028.999
19041.928
18913.211
18867.44
20381.302
21959.403
24768.781
20705.572
20243.231
20170.805
19805.574
21082.831
22919.243
25086.55
20130.218
21047.655
20353.217
20901.554
21941.345
23716.429
26183.347
21836.138
21784.573
21272.845
21130.273
22324.972
23692.788
25472.535
20126.634
21173.146
20431.001
21066.607
21872.815
23562.069
25247.947
21225.222
21407.197
20825.385
20808.03
21509.389
22888.016
24226.343
19350.159
20296.633
19364.878
19936.574
20526.109
21822.726
22605.86
19031.587
19385.627
18835.198
19211.886
19463.144
20271.337
20080.478
16600.948
17052.939
16462.849
16600.401
16698.224
17716.334
18882.749
15928.16
16176.467
15665.177
15978.512
16276.853
16640.957
13191.149
10581.435
10445.075
10109.935
10250.821
10009.236
10356.132
9131.8659
6781.9936
7204.8569
6730.9737
6942.6496
6828.1169
7657.9968
92.176724
537.37298
407.63347
391.73126
309.6853
270.89759
28.430519
-722.79748
-745.18026
-726.80101
-802.07956
-548.83685
-744.69869
-405.7326
-548.3984
-1135.1162
-1088.8133
-1227.25
-1200.5703
-1274.7225
-663.53653
-851.12678
-696.01681
-288.9251
-118.07351
-75.543968
224.36647
-305.64955
-386.33098
-903.72447
-860.29693
-1694.9153
-1281.5504
-2241.5043
-1041.073
-582.44064
-1512.7693
-1258.921
-1150.7127
-1098.9596
-568.6756
-866.04272
-653.36074
-1185.7929
-345.54269
-998.16471
-454.31582
-1382.228
-847.45083
-510.34875
-1414.351
-1463.1944
-1807.7687
-1931.4767
-1675.0855
-1520.2984
-964.01131
-1565.154
-821.21827
-1089.1044
-449.49261
-976.18921
-905.95599
-113.18362
-1366.2957
-1263.9926
-1593.9458
-1687.2484
-1712.8609
-1696.5113
-483.36323
-1747.1338
-1206.7424
-1520.87
-1175.5806
-1459.6992
-1245.4172
225.38216
-1319.6399
-967.54445
-1295.5269
-1148.512
-1272.1955
-1352.1273
381.39006
-1545.8853
-1585.6614
-954.67409
-979.18281
-1327.482
-679.95174
-439.02633
-421.89792
-318.54126
-782.8198
-256.27233
-631.36344
-301.04353
-68.741849
-411.06751
-61.791953
-284.54717
-583.50812
-498.40903
-486.4234
200.58313
245.30962
272.75926
76.490108
89.276529
-179.24352
125.12288
810.94592
424.59829
562.67641
557.09537
97.946903
150.47186
240.29249
979.31102
627.56844
1018.1816
753.60284
639.69527
621.55913
774.87457
1581.7781
1247.8289
1389.1685
1246.4817
996.43442
884.13839
1108.0087
1838.5021
1410.6352
1781.0036
1636.3676
1365.2899
1467.0961
1643.6137
2614.3403
2198.105
2471.92
2205.8934
2016.9178
1844.5115
2087.6295
3226.6703
2378.0496
2808.5628
2795.3266
2245.565
2390.2884
2649.6946
4159.4528
3108.0428
3811.8287
3215.1592
3091.0901
3067.217
3288.2371
4891.847
3698.4595
4251.3837
3942.0896
3894.2742
3487.5144
3548.1208
6138.716
4362.6986
5129.7366
4804.3993
4637.7673
4187.9352
4655.2904
7243.2383
5073.9202
6097.594
5226.6219
5490.6992
5018.0172
4879.1365
8689.9821
6137.266
6956.2414
6449.9222
6774.6119
5791.1687
6300.6397
9922.4731
7281.7494
7728.5826
7309.1602
7399.9675
6524.5026
6877.3244
11541.815
8445.4852
9123.5512
8090.6032
8684.0149
7627.8854
7944.6406
13056.239
9308.5146
9677.0416
9275.2942
9675.9818
8455.0483
8954.9621
14429.739
10491.464
11136.823
10511.851
10750.828
9808.7117
9982.4246
16049.727
11747.817
12117.138
11304.831
11812.238
10723.591
10916.01
17230.514
12719.903
12974.395
12517.44
12890.276
11958.41
11871.075
18465.454
13695.831
14038.948
13433.375
13806.287
12798.564
12694.925
19201.971
14514.365
14776.071
14241.215
14639.79
13962.629
13380.95
20027.045
15346.163
15482.639
14863.427
15427.273
14437.142
13799.819
19999.125
15491.917
15559.897
15392.092
15793.542
14985.438
14077.472
20111.925
15925.881
16118.919
15671.15
16085.89
15312.575
14123.901
19141.786
15926.86
15451.894
15643.728
15836.887
15313.084
13819.601
18581.14
15098.909
15057.351
15111.362
15403.356
14888.498
13136.281
17575.113
15447.574
14691.356
15264.558
14896.305
14522.553
12322.252
15759.6
12788.18
12705.019
13096.682
13053.793
13213.34
11233.48
14290.623
12828.887
12450.67
12937.383
12530.25
12423.045
9531.9827
12036.803
10071.277
9674.0564
10131.273
9748.7327
9942.355
8150.2254
9851.7235
8366.3556
8207.1514
8736.7895
8114.1719
8917.6133
6108.0208
6178.6132
4927.1368
4946.9956
5276.6287
4754.2172
5165.6037
3216.0962
-1826.8152
-2705.1312
-2557.9428
-2434.116
-2479.9134
-2157.9411
-2419.6249
265.65347
408.77366
257.26073
338.51024
226.35848
268.42517
-1.2633465
-285.92007
5.0198457
62.872259
315.68193
271.12686
439.54021
547.08427
-360.73784
-927.03728
-1163.3085
-1157.5346
-1123.3607
-1039.6021
-919.04756
-427.89131
285.99247
598.83371
862.84458
812.75832
867.28542
376.11311
-692.36448
-1159.7678
-1610.647
-2085.7941
-2108.9672
-2109.1948
-1233.6416
-641.19554
-215.6907
-88.2089
607.43672
634.80437
629.57328
373.05027
-610.75094
-1143.6962
-1796.461
-1536.9937
-1819.6288
-2073.3481
-1241.2425
-224.51383
-427.68016
-490.75959
53.04285
-378.56135
504.78189
92.082176
138.05664
-521.88801
-365.47995
-1264.356
-175.60009
-1237.8129
-332.23435
92.989548
-1.9876594
-928.81486
-101.87398
-639.32754
47.353304
337.90345
1000.2232
-532.0988
1075.3271
-161.66178
878.30232
440.45015
409.62251
944.85843
918.15673
540.92866
-435.09799
747.8326
180.40055
1431.2486
1844.634
110.48428
815.47636
942.98893
1794.179
1139.6886
1302.4166
1789.4283
1239.1912
-332.22868
451.86156
992.96538
952.82636
1768.4866
458.07227
735.89756
1923.849
859.22158
2082.4334
1213.3314
2005.7899
1119.3392
1452.9637
2134.8601
1724.2615
1882.6294
1804.0492
2476.6431
1478.2071
1404.7782
2721.0258
1932.3006
2588.6201
2325.2004
3099.1013
2233.2075
2454.3988
3291.0818
2608.7813
2958.0102
2806.0305
3475.9419
2512.9331
2373.5564
3610.3849
2772.4731
3431.3896
3276.7063
3814.2206
3274.518
3102.2078
4089.7369
3362.4091
3905.7067
3517.6042
4210.9147
3523.5865
2969.385
4249.9347
3507.2238
3887.9133
3885.6635
4338.7641
3870.5474
3444.885
4637.0537
3549.0114
4296.613
4137.6085
4492.4929
3982.9504
3481.3254
4323.3108
3829.5601
4257.6895
4174.2234
4185.2231
4568.9265
3552.5128
4392.7814
3955.9418
4058.8494
4199.492
4407.3015
4724.7026
3389.2933
4418.8791
3604.1012
3600.9986
4238.5831
3756.8973
4974.176
3553.2446
4111.5491
3649.0223
3747.3519
4073.5323
3947.9559
4935.8126
3188.6127
3856.8505
3405.5942
3224.8285
3807.012
3192.8136
5225.0837
2764.7184