/*--------------------------------*- C++ -*----------------------------------*\
  =========                 |
  \\      /  F ield         | OpenFOAM: The Open Source CFD Toolbox
   \\    /   O peration     | Website:  https://openfoam.org
    \\  /    A nd           | Version:  6
     \\/     M anipulation  |
\*---------------------------------------------------------------------------*/
FoamFile
{
    version     2.0;
    format      ascii;
    class       pointVectorField;
    location    "0.44";
    object      lm;
}
// * * * * * * * * * * * * * * * * * * * * * * * * * * * * * * * * * * * * * //

dimensions      [1 -2 -1 0 0 0 0];

internalField   nonuniform List<vector> 
3969
(
(0 0 0)
(0 0 0)
(6596.45 -1105.9496 66.776102)
(5832.6132 -3025.085 44.453475)
(0 0 0)
(0 0 0)
(5842.0775 -3077.2873 38.403169)
(6603.065 -1157.638 67.800256)
(0 0 0)
(0 0 0)
(0 0 0)
(0 0 0)
(0 0 0)
(0 0 0)
(0 0 0)
(6498.232 -1347.8949 62.701952)
(6401.0311 -1587.3877 58.800554)
(6305.6491 -1825.8732 56.888666)
(6211.4365 -2063.7607 55.206652)
(6118.0146 -2301.9057 53.934979)
(6024.8275 -2541.8621 51.825476)
(5930.1847 -2783.9133 48.53016)
(-1.4970817 14.179542 21.234287)
(-5.732275 33.350245 30.676657)
(-0.013897781 57.575488 36.347457)
(17.770502 82.766823 37.952365)
(46.185902 109.23387 37.274185)
(86.855007 134.05981 34.38855)
(137.68918 156.94404 30.028533)
(198.92283 176.17032 24.226066)
(267.82268 191.11724 18.034639)
(343.25305 201.01684 11.441496)
(422.67788 206.26284 5.9477303)
(504.17222 206.49425 1.4828151)
(585.73095 202.82714 -1.1714153)
(666.13219 196.23886 -1.6518504)
(744.74546 187.35888 0.064607225)
(820.83816 177.81793 3.9541027)
(895.40053 168.53402 9.6491673)
(969.04304 160.34384 16.840073)
(1043.3968 154.0307 25.02509)
(1119.9977 149.86017 33.621454)
(1200.9626 148.01679 42.150018)
(1288.0386 148.23645 50.108914)
(1383.1313 149.95999 57.208605)
(1487.8828 152.4429 63.082891)
(1603.3562 154.73 67.686236)
(1730.8027 155.86286 70.948562)
(1870.6606 154.55663 72.751815)
(2023.1928 149.87381 73.314057)
(2188.2276 140.79868 72.880986)
(2365.2264 126.47168 71.525447)
(2553.5699 106.3421 69.621025)
(2752.3151 79.869565 67.398612)
(2960.4193 46.870521 65.193878)
(3176.9361 7.2951296 63.075518)
(3400.7178 -38.942167 61.461526)
(3631.1935 -91.695445 60.090725)
(3867.1303 -150.54359 59.0514)
(4107.941 -215.75192 58.323951)
(4353.1515 -286.52468 57.633083)
(4601.4237 -363.16719 56.925945)
(4852.7866 -444.6068 56.189)
(5105.1617 -531.09643 55.442542)
(5358.4504 -621.59996 55.199912)
(5610.651 -714.73167 55.271177)
(5861.5711 -811.9718 56.643461)
(6109.1695 -908.29603 59.022503)
(6354.6776 -1007.22 63.085114)
(-0.070230379 -27.58574 -36.390462)
(-4.799148 -48.496649 -50.176959)
(-4.8510211 -74.266004 -65.197136)
(4.6518837 -103.0881 -73.10551)
(26.162432 -134.12872 -78.499528)
(57.881432 -165.84158 -79.559919)
(100.15325 -197.6328 -79.003878)
(151.80125 -228.12482 -74.765233)
(211.69414 -257.54005 -69.210614)
(278.13384 -284.73561 -61.546873)
(348.69311 -310.0443 -52.985044)
(422.00403 -333.33862 -44.303661)
(495.73696 -354.53023 -35.793777)
(568.7165 -374.92665 -28.479549)
(639.71801 -395.05071 -22.735033)
(708.19334 -415.59949 -19.007819)
(774.0343 -437.94005 -17.593963)
(837.44743 -462.61659 -18.621041)
(899.70381 -491.16028 -21.947472)
(961.83151 -523.83406 -27.411088)
(1025.4467 -561.98762 -34.522077)
(1092.6804 -605.51264 -42.986185)
(1164.8611 -655.51872 -51.821161)
(1244.1979 -711.67505 -60.874235)
(1331.7145 -773.96848 -69.440147)
(1429.3467 -842.46268 -77.106764)
(1537.0402 -916.34696 -82.961219)
(1656.9009 -996.38737 -87.238605)
(1788.6512 -1081.1816 -89.952178)
(1932.2649 -1170.4268 -90.559897)
(2087.4846 -1263.6978 -89.423436)
(2253.6604 -1360.3652 -86.573041)
(2430.3146 -1460.0652 -82.310165)
(2616.5135 -1562.2223 -76.826183)
(2811.6485 -1666.5612 -70.433439)
(3014.9748 -1772.653 -63.216185)
(3225.8227 -1880.0612 -55.507249)
(3443.6264 -1988.3564 -47.210803)
(3667.7101 -2097.4692 -38.553185)
(3897.737 -2206.3229 -29.485109)
(4132.656 -2314.8682 -20.024602)
(4371.8254 -2422.3261 -10.29469)
(4614.2555 -2528.1632 -0.2487448)
(4858.6018 -2631.976 9.6013865)
(5104.008 -2733.4824 19.293819)
(5348.7901 -2832.7904 28.495652)
(5592.409 -2929.2347 36.756289)
(0 0 0)
(0 0 0)
(0 0 0)
(0 0 0)
(0 0 0)
(0 0 0)
(0 0 0)
(6.5318685 -14.654524 23.685722)
(-2.5720811 -47.375365 40.555795)
(-3.633848 -63.456127 45.1336)
(12.00502 -98.593214 48.706192)
(33.478298 -125.70824 46.271626)
(70.132914 -161.05619 40.944722)
(113.32814 -192.73878 35.343608)
(167.57974 -227.03561 25.974856)
(227.92265 -258.24218 19.070899)
(293.42996 -288.41809 9.9090471)
(362.85197 -317.64072 4.9419363)
(435.10596 -341.749 -1.6037398)
(506.02496 -366.35994 -3.7089663)
(575.88838 -388.31656 -3.6326134)
(642.76993 -408.70055 -0.62856883)
(707.44199 -429.75987 4.8862744)
(769.5604 -450.63808 12.389739)
(830.28942 -474.02055 21.280527)
(890.64021 -500.09991 30.90676)
(952.19366 -530.50605 40.521104)
(1016.5429 -565.96927 49.584538)
(1085.3766 -607.44681 57.526427)
(1160.4206 -655.44449 63.966123)
(1243.0549 -710.32732 68.690053)
(1334.7851 -772.6522 71.422162)
(1437.7533 -842.15081 71.679547)
(1550.5159 -918.35398 70.845995)
(1673.569 -1000.5068 69.323863)
(1807.9542 -1088.4333 66.724104)
(1953.5196 -1181.1556 63.433784)
(2109.7438 -1278.0819 59.820137)
(2276.2678 -1378.6183 56.281034)
(2452.3718 -1482.0052 53.040377)
(2637.5934 -1587.7893 50.203303)
(2831.2449 -1695.3224 47.896559)
(3033.0734 -1804.7758 45.866748)
(3242.5093 -1914.1783 44.042952)
(3458.514 -2025.9272 42.508869)
(3681.7991 -2136.8001 40.659389)
(3910.9705 -2248.1112 38.62813)
(4145.4718 -2358.5909 36.424472)
(4384.3276 -2468.1167 34.366408)
(4626.4064 -2575.6838 32.581243)
(4870.3895 -2681.0994 31.594377)
(5115.0141 -2783.7764 31.692872)
(5359.0376 -2883.5465 33.03704)
(5601.4354 -2980.4824 35.740296)
(5939.0845 -2836.1263 41.416307)
(6033.2619 -2594.1825 44.703081)
(6126.5117 -2354.3394 48.908743)
(6218.5953 -2115.1654 53.894985)
(6313.0162 -1878.279 58.532285)
(6407.8937 -1638.61 62.638208)
(6505.0908 -1399.6813 65.578687)
(6361.547 -1059.5924 61.07547)
(6115.6897 -959.22076 54.4679)
(5867.6563 -860.76112 46.246234)
(5616.948 -763.02831 37.558009)
(5364.4092 -667.49623 28.148632)
(5111.2489 -575.22012 18.574647)
(4858.5085 -486.8293 9.080298)
(4607.1991 -402.99356 -0.26321566)
(4358.4536 -324.0317 -9.366497)
(4113.3223 -250.21938 -17.895133)
(3871.8913 -182.0753 -26.115483)
(3637.0195 -120.96789 -33.23947)
(3406.4475 -63.587453 -40.743114)
(3183.1806 -13.740637 -47.00452)
(2967.3377 29.968727 -52.80659)
(2759.8073 67.039641 -57.50195)
(2561.5541 97.505402 -61.253655)
(2373.4635 121.26666 -63.706783)
(2196.42 138.93835 -64.940602)
(2031.1115 150.44446 -64.520687)
(1878.0194 157.13941 -62.84652)
(1737.3954 159.16115 -59.532515)
(1609.177 158.08664 -54.934826)
(1492.6375 154.71427 -49.262875)
(1386.9807 150.42811 -42.963951)
(1290.9463 146.19363 -36.269245)
(1202.9662 143.1766 -29.793223)
(1121.2226 142.08489 -23.873938)
(1043.9139 143.52921 -19.04353)
(969.0615 147.71291 -15.604732)
(895.03754 154.41209 -13.883127)
(820.44803 163.27626 -13.844819)
(744.62974 173.50795 -15.635428)
(666.5462 182.96577 -18.750143)
(586.98248 191.76726 -23.435138)
(506.15823 197.91023 -28.986803)
(425.83216 200.89488 -35.134306)
(347.34532 199.05064 -40.948079)
(272.87002 192.00039 -46.213596)
(204.96819 179.02152 -50.534048)
(144.6361 162.99364 -53.588888)
(92.813762 141.52025 -54.272917)
(53.626867 117.3934 -53.687814)
(24.154228 91.236369 -49.843476)
(6.8936799 65.683382 -44.620124)
(0.71615089 39.031565 -35.115511)
(10.250001 17.220873 -18.607376)
(0 0 0)
(0 0 0)
(0 0 0)
(0 0 0)
(0 0 0)
(0 0 0)
(0 0 0)
(0 0 0)
(0 0 0)
(0 0 0)
(0 0 0)
(0 0 0)
(0 0 0)
(0 0 0)
(5832.5345 -3034.0686 43.45426)
(5833.3211 -3042.7074 42.438709)
(5834.4216 -3050.5975 41.943904)
(5835.5553 -3057.7287 41.311299)
(5836.738 -3064.0049 40.83799)
(5838.1005 -3068.9137 40.409509)
(5839.1858 -3073.5462 38.909876)
(6599.1591 -1111.8991 67.091816)
(6601.0146 -1117.9561 67.200363)
(6602.7207 -1123.9931 67.257449)
(6603.9619 -1130.3393 67.230081)
(6604.5521 -1136.9087 67.12269)
(6604.6786 -1143.5587 67.278216)
(6604.293 -1150.8546 67.833042)
(-7.9247274 16.644417 18.009774)
(-14.259235 31.489369 21.858504)
(-9.8026803 47.886064 24.351489)
(6.0772338 64.376981 25.22612)
(33.723124 80.997822 23.530178)
(73.333762 96.946189 21.177003)
(123.36456 110.55089 17.103605)
(183.8202 122.26438 12.90526)
(252.42634 130.06857 7.8100957)
(327.66203 135.05868 3.5091556)
(406.8741 136.35655 -0.42718345)
(488.21552 134.56301 -3.3757179)
(569.89916 130.39897 -4.6368762)
(650.21297 123.84709 -4.3209831)
(728.39698 116.0157 -2.2862013)
(804.01769 107.61223 1.4167292)
(877.57196 99.21951 6.4779604)
(949.78869 91.282655 12.569933)
(1022.0942 84.316114 19.28059)
(1096.1845 78.25625 26.152195)
(1173.9598 73.146975 32.824234)
(1257.3753 68.548894 38.88593)
(1348.3943 64.044411 44.106467)
(1448.4979 58.870648 48.287153)
(1559.4026 52.367877 51.416132)
(1681.8594 43.379297 53.279369)
(1816.7874 31.521375 54.198231)
(1964.3 15.763113 54.243954)
(2124.4923 -4.6087854 53.458043)
(2296.8072 -30.048581 52.213005)
(2480.7411 -60.989208 50.637143)
(2675.3459 -97.755692 49.017019)
(2879.6521 -140.33929 47.47093)
(3092.6789 -188.92673 46.24544)
(3313.371 -243.41777 45.407007)
(3540.8767 -303.52784 44.8514)
(3774.2742 -369.47128 44.727547)
(4013.0389 -440.80425 44.916372)
(4256.3176 -517.27105 45.129241)
(4503.2773 -598.59375 45.626678)
(4753.3256 -684.08802 46.016395)
(5005.0694 -773.47282 46.863549)
(5258.1786 -865.79111 47.833294)
(5510.2832 -960.28949 49.640812)
(5761.9798 -1056.8899 52.026277)
(6010.3201 -1152.7959 55.228369)
(6256.3099 -1250.7599 59.113367)
(-15.420408 9.3148006 10.153105)
(-20.992079 18.383375 9.9051073)
(-16.41705 29.78454 11.316301)
(-0.64891594 39.731371 10.327552)
(26.052022 49.961172 9.2565276)
(64.141337 58.929227 6.6882726)
(113.41829 66.439664 4.3102397)
(173.0343 71.983756 0.52166666)
(240.63361 74.888461 -2.0153644)
(314.83522 75.631861 -5.1892824)
(393.37015 73.222772 -7.2469583)
(474.08637 68.968048 -8.5224919)
(554.89197 62.301671 -8.5029815)
(634.52338 53.961724 -7.3072734)
(711.82113 44.634719 -4.8059565)
(786.2475 34.768938 -1.3374339)
(858.35748 24.615926 3.0160319)
(928.78747 14.54424 7.9689208)
(999.04058 4.6672222 13.07168)
(1070.7102 -5.106393 18.150548)
(1145.7159 -14.886047 22.798975)
(1226.0868 -25.033647 26.807298)
(1313.5071 -35.989185 30.058768)
(1410.0762 -48.310004 32.515134)
(1516.9726 -62.845375 33.963083)
(1635.3296 -79.931646 34.85884)
(1766.0183 -100.66157 35.004345)
(1909.3892 -125.42776 34.435872)
(2065.3074 -154.7479 33.731478)
(2233.5922 -189.15695 32.690644)
(2413.5346 -228.85504 31.66442)
(2604.3526 -274.02403 30.774666)
(2805.0634 -324.68649 30.142073)
(3014.7621 -380.95148 29.949235)
(3232.3502 -442.48698 30.07742)
(3457.0921 -509.4894 30.755262)
(3688.09 -581.52984 31.666326)
(3924.4769 -658.37308 32.961445)
(4165.8303 -739.91941 34.409453)
(4411.0374 -825.49086 36.004282)
(4659.8934 -914.78319 37.67148)
(4910.457 -1007.1701 39.659954)
(5163.0067 -1101.988 41.855985)
(5414.4891 -1198.0764 44.368515)
(5666.2571 -1296.0222 47.731959)
(5913.9722 -1392.5863 51.03586)
(6160.5351 -1491.609 55.631204)
(-22.464695 3.0876596 3.3729343)
(-27.656459 6.8465604 2.3556608)
(-23.239045 11.714906 0.6320661)
(-7.9493853 16.04592 -0.66327727)
(17.821903 19.927589 -3.0857567)
(56.251929 23.226865 -5.2472185)
(104.93582 24.599211 -8.4137634)
(163.89388 25.027035 -10.274201)
(230.93282 22.863663 -12.521177)
(304.95204 18.939997 -14.091927)
(382.54563 13.185824 -14.629042)
(462.32003 5.3234508 -14.489116)
(542.24786 -3.8701187 -13.357279)
(620.70969 -14.543634 -11.263128)
(696.61391 -26.000954 -8.4066503)
(769.89225 -38.186913 -5.1335953)
(840.48291 -50.763591 -1.1783175)
(909.29725 -63.707993 2.7007798)
(977.59489 -76.976513 6.6404353)
(1046.8585 -90.646733 10.188286)
(1119.1479 -104.93149 13.192695)
(1196.3143 -120.29632 15.52623)
(1280.6708 -137.14145 17.221888)
(1373.5102 -156.35209 17.999167)
(1476.5343 -178.03081 18.40421)
(1591.0516 -203.20321 18.030747)
(1717.8908 -232.30456 17.172835)
(1857.3038 -265.67687 16.147901)
(2009.3546 -303.74556 15.009643)
(2173.7293 -346.94146 13.937877)
(2349.9086 -395.21925 13.124359)
(2537.078 -448.83947 12.628657)
(2734.3389 -507.63406 12.596815)
(2940.734 -571.57778 13.025932)
(3155.2938 -640.51894 14.009835)
(3377.2585 -714.23411 15.41291)
(3605.6021 -792.51201 17.271063)
(3840.054 -875.11265 19.468306)
(4079.401 -961.59038 21.852037)
(4323.0605 -1051.4706 24.573101)
(4570.1769 -1144.4728 27.463845)
(4819.5177 -1239.7776 30.757845)
(5070.747 -1336.8119 34.049014)
(5321.2847 -1434.9499 38.264894)
(5572.0362 -1533.8836 42.414712)
(5819.3158 -1631.9732 47.308533)
(6066.0034 -1731.1695 52.241174)
(-23.422663 -3.4483751 -6.7511452)
(-27.6708 -5.5236109 -11.391902)
(-24.470211 -6.3411628 -13.703433)
(-9.7712283 -8.1002095 -16.459084)
(15.88169 -10.051036 -18.498329)
(52.668084 -12.297871 -20.91064)
(100.312 -16.438938 -21.840016)
(157.87339 -20.976641 -23.204843)
(223.91412 -28.100488 -23.202887)
(295.96651 -36.071684 -22.593529)
(372.28665 -46.41267 -21.429699)
(451.19026 -57.772989 -19.750648)
(529.81063 -70.448546 -17.389011)
(607.13563 -84.366627 -14.292387)
(682.0263 -98.795779 -11.324313)
(754.07752 -114.0508 -7.8275495)
(823.15434 -129.68577 -4.611528)
(890.38839 -146.08527 -1.5892708)
(956.66289 -163.07578 0.96158603)
(1023.9303 -181.02988 2.6957691)
(1094.0003 -200.31911 3.7031564)
(1169.019 -221.37 4.0460995)
(1250.3888 -244.74954 3.403487)
(1340.4437 -270.47544 2.3764504)
(1440.6285 -299.47845 0.60660074)
(1552.0486 -332.13233 -1.3566334)
(1675.3586 -368.92741 -3.1546661)
(1811.128 -410.32445 -4.8838239)
(1959.4662 -456.58961 -6.3085421)
(2120.0737 -507.91747 -7.2105778)
(2292.4827 -564.31793 -7.6470687)
(2475.8785 -625.92782 -7.3582143)
(2669.4235 -692.34185 -6.5298811)
(2872.2408 -763.71308 -4.9302729)
(3083.3659 -839.48879 -2.8227241)
(3301.9578 -919.66979 -0.066826469)
(3527.4251 -1003.7561 3.0687309)
(3758.6692 -1091.5853 6.6888225)
(3995.0365 -1182.6313 10.523857)
(4236.2981 -1276.627 14.661595)
(4481.3997 -1372.962 18.868232)
(4729.1141 -1471.0072 23.400317)
(4978.9318 -1570.4688 28.144543)
(5228.4837 -1670.3326 33.153168)
(5478.8635 -1770.6815 38.312298)
(5725.8953 -1869.724 43.71828)
(5972.6676 -1969.1315 49.48073)
(-23.441804 -11.455971 -15.693727)
(-28.436845 -18.56474 -19.481888)
(-26.211326 -26.090564 -24.2909)
(-12.250897 -33.830891 -27.50518)
(11.576164 -41.194902 -30.600149)
(48.016064 -49.180057 -32.202385)
(94.373655 -58.396902 -33.56414)
(151.8287 -67.895006 -33.830798)
(216.51303 -79.644039 -32.898894)
(288.52679 -91.945375 -31.519026)
(364.45223 -105.79595 -29.445286)
(442.28093 -120.12022 -26.417201)
(520.01526 -136.2645 -22.737493)
(596.4451 -152.64296 -19.181847)
(670.09439 -170.24607 -15.421177)
(740.67485 -188.36974 -11.976876)
(808.41449 -207.40573 -9.1831497)
(873.85498 -227.30796 -7.0400037)
(938.35737 -248.30881 -5.8164875)
(1003.5254 -270.7592 -5.6788734)
(1071.1936 -295.01709 -6.1121962)
(1143.0197 -321.3207 -7.8131165)
(1221.508 -350.08993 -9.7587091)
(1308.2428 -382.63149 -12.43172)
(1404.8179 -418.78361 -15.20029)
(1512.4182 -459.10359 -17.935628)
(1632.0909 -504.00102 -20.516512)
(1764.154 -553.62306 -22.800399)
(1908.7787 -608.15276 -24.412441)
(2065.6922 -667.71328 -25.394467)
(2234.4627 -732.30895 -25.512002)
(2414.2584 -801.8467 -24.830505)
(2604.3551 -875.99717 -23.38304)
(2803.7711 -954.69482 -21.105375)
(3011.6147 -1037.4299 -18.200221)
(3227.2295 -1124.0465 -14.675346)
(3449.7817 -1214.0416 -10.657293)
(3678.3354 -1307.4309 -6.170679)
(3912.8602 -1403.1466 -1.6091718)
(4152.5609 -1501.2834 3.5105682)
(4395.5795 -1601.0357 8.843229)
(4641.8758 -1702.2525 14.554129)
(4889.9216 -1804.0059 20.340617)
(5138.696 -1905.9596 26.584741)
(5387.4377 -2007.4555 32.851401)
(5633.6177 -2107.71 39.718128)
(5879.4271 -2206.9476 46.475949)
(-19.654991 -17.146643 -24.027857)
(-22.247617 -30.793341 -31.635716)
(-21.21287 -44.450357 -38.951371)
(-8.8058574 -58.250693 -43.606068)
(14.348552 -71.490073 -47.118577)
(48.97849 -85.985956 -48.727253)
(94.593038 -100.97122 -49.206624)
(150.23511 -116.46658 -47.96444)
(213.99932 -133.38513 -45.497728)
(284.50153 -150.1981 -41.962416)
(358.92545 -168.3165 -37.599868)
(435.48261 -186.52192 -32.548458)
(512.10609 -205.59156 -27.634908)
(587.1718 -224.92779 -22.676618)
(659.6338 -244.83041 -18.362052)
(729.13451 -265.3501 -14.82159)
(795.57934 -286.84562 -12.481454)
(859.83443 -309.45883 -11.262189)
(922.88222 -333.84272 -11.515445)
(986.56314 -360.16016 -12.962419)
(1052.0859 -389.20783 -15.734237)
(1122.8104 -420.71129 -19.280862)
(1198.8397 -456.34038 -23.803235)
(1282.9703 -496.56287 -28.521425)
(1376.5711 -540.46748 -33.406144)
(1481.1564 -589.15285 -38.03892)
(1597.4852 -642.49078 -41.896488)
(1725.7824 -700.95062 -44.932686)
(1866.4928 -764.36903 -47.043133)
(2019.4279 -832.94579 -47.88068)
(2184.0419 -906.35751 -47.62743)
(2359.7036 -984.37823 -46.193833)
(2545.6467 -1066.6748 -43.770323)
(2740.9318 -1152.999 -40.325303)
(2944.8961 -1242.7123 -36.222285)
(3156.6376 -1335.7729 -31.31698)
(3375.5001 -1431.5212 -25.942933)
(3600.8466 -1529.7134 -19.984834)
(3832.0636 -1630.042 -13.888765)
(4067.9925 -1731.7691 -7.1639219)
(4308.9053 -1834.18 -0.48491601)
(4552.9352 -1937.5928 6.7154218)
(4799.2489 -2040.8893 13.976245)
(5046.6534 -2144.0355 21.4829)
(5294.0233 -2245.9638 28.964235)
(5539.9919 -2346.7117 36.289702)
(5785.1879 -2445.9417 43.611247)
(-10.742209 -29.305772 -30.764604)
(-15.879645 -45.523668 -40.408371)
(-16.750666 -65.266452 -50.103003)
(-5.5793418 -83.888769 -56.396001)
(15.682765 -103.3243 -60.650515)
(49.832742 -124.47456 -62.059126)
(93.772132 -145.20056 -62.278963)
(148.55732 -166.95966 -59.702633)
(211.0517 -188.6245 -56.174212)
(280.37052 -209.99435 -50.934311)
(353.92305 -232.06637 -44.897751)
(429.15654 -252.80362 -38.588763)
(504.86907 -274.63475 -31.967808)
(578.78561 -295.63536 -26.26579)
(650.55712 -317.45513 -21.33481)
(718.97336 -339.81713 -17.872327)
(784.55001 -363.52513 -15.886766)
(847.55534 -388.9356 -15.72111)
(909.34599 -416.71899 -17.225491)
(971.21231 -447.31045 -20.487102)
(1035.2642 -481.29372 -25.024571)
(1102.8284 -519.24974 -30.662106)
(1176.914 -561.50381 -37.092025)
(1258.0604 -608.77354 -43.601242)
(1348.6695 -660.74366 -50.117849)
(1449.7219 -717.91088 -55.966023)
(1561.9897 -780.13995 -60.596254)
(1686.6093 -847.60651 -64.381626)
(1823.5227 -920.06547 -66.698237)
(1972.5218 -997.6013 -67.547582)
(2133.1613 -1079.6797 -66.963533)
(2304.8525 -1166.0822 -65.011053)
(2486.7833 -1256.3449 -61.833669)
(2678.1853 -1350.095 -57.61008)
(2878.2602 -1446.8222 -52.514145)
(3086.2535 -1546.2778 -46.662939)
(3301.5258 -1647.8423 -40.214541)
(3523.5621 -1751.3326 -33.27768)
(3751.5714 -1856.0303 -26.064171)
(3985.0291 -1961.5657 -18.318328)
(4223.2491 -2067.5885 -10.276634)
(4465.0913 -2173.5435 -1.8762734)
(4709.5754 -2278.9303 6.5747995)
(4955.5222 -2383.3926 15.263065)
(5201.5968 -2486.0885 23.528345)
(5446.906 -2587.6025 31.933144)
(5690.2128 -2686.7528 39.892404)
(0 0 0)
(0 0 0)
(0 0 0)
(0 0 0)
(0 0 0)
(0 0 0)
(0 0 0)
(0 0 0)
(0 0 0)
(0 0 0)
(0 0 0)
(0 0 0)
(0 0 0)
(0 0 0)
(0 0 0)
(0 0 0)
(0 0 0)
(0 0 0)
(0 0 0)
(0 0 0)
(0 0 0)
(0 0 0)
(0 0 0)
(0 0 0)
(0 0 0)
(0 0 0)
(0 0 0)
(0 0 0)
(0 0 0)
(0 0 0)
(0 0 0)
(0 0 0)
(0 0 0)
(0 0 0)
(0 0 0)
(0 0 0)
(0 0 0)
(0 0 0)
(0 0 0)
(0 0 0)
(0 0 0)
(0 0 0)
(0 0 0)
(0 0 0)
(0 0 0)
(0 0 0)
(0 0 0)
(0 0 0)
(0 0 0)
(8.1075862 -7.182808 -20.447543)
(10.698676 -8.427802 -14.811904)
(12.526913 -9.2591785 -8.686124)
(13.389035 -9.7039443 -3.4170696)
(12.718204 -8.917204 2.2045482)
(11.249504 -8.8582047 8.5269515)
(7.784921 -5.0722042 13.189292)
(6.0168119 -38.341175 -41.620271)
(13.111767 -40.337551 -26.565444)
(16.535623 -39.09264 -14.616043)
(17.06739 -38.399051 -5.1886782)
(16.600405 -39.204209 4.4917976)
(12.849905 -38.146808 15.270293)
(7.8910146 -36.36457 27.293563)
(7.2924813 -64.301045 -50.416982)
(15.842678 -62.365196 -36.734025)
(21.354076 -63.083655 -21.88154)
(22.821695 -63.038167 -9.3132216)
(22.152185 -61.953234 5.1304744)
(16.953716 -62.222651 17.053447)
(10.365972 -61.364517 33.920077)
(20.486531 -99.254639 -58.237737)
(30.183429 -100.47239 -43.42405)
(36.174134 -99.481756 -27.28585)
(38.738681 -99.51272 -12.807721)
(37.443834 -99.140661 2.2037657)
(33.140165 -98.990624 17.544492)
(24.558599 -96.376645 33.115215)
(41.694084 -132.82053 -63.119564)
(51.686927 -132.4843 -47.561211)
(58.765618 -132.46678 -31.413131)
(61.317878 -132.13954 -15.942345)
(60.946238 -132.16778 0.32587819)
(56.083363 -131.46886 14.844787)
(48.557465 -129.71403 32.826887)
(73.785162 -168.30958 -65.035763)
(83.675759 -168.88204 -50.530501)
(90.570546 -168.74386 -34.238046)
(93.373182 -168.99514 -20.057096)
(93.23164 -168.18716 -3.5840509)
(88.523154 -166.40817 11.359827)
(81.267487 -164.57592 26.616438)
(114.58559 -200.71224 -65.232638)
(124.34464 -202.7973 -50.989525)
(131.20476 -203.57851 -36.607926)
(134.51613 -203.73558 -22.307262)
(134.40843 -203.71977 -7.4424987)
(131.2189 -203.99257 6.0627451)
(124.72359 -200.57382 22.502771)
(165.00807 -235.07188 -62.639085)
(173.78733 -236.85185 -50.610196)
(180.39292 -237.31403 -37.110994)
(183.44078 -237.81633 -24.559725)
(183.5891 -236.7614 -11.555326)
(181.23468 -235.74181 1.7677446)
(175.22892 -233.15287 14.070315)
(222.85095 -264.7644 -58.854019)
(230.68979 -267.3436 -47.730223)
(236.29526 -269.39612 -36.794503)
(239.58962 -269.51346 -25.939651)
(240.15905 -270.35003 -14.421232)
(238.56974 -268.80751 -3.6994325)
(234.35425 -267.44455 8.6098502)
(286.57163 -293.81531 -52.896513)
(293.13385 -296.4075 -44.696232)
(298.57829 -297.15534 -35.289835)
(301.55101 -298.91401 -25.614188)
(301.78654 -298.31919 -16.49277)
(301.36123 -297.30452 -7.2761433)
(297.53889 -295.34144 1.6997466)
(355.37842 -319.15123 -46.166972)
(360.54795 -321.98703 -39.517665)
(364.75779 -324.20432 -31.715632)
(367.02347 -324.20511 -25.100188)
(368.09462 -325.18047 -17.325598)
(367.73453 -324.29147 -10.81268)
(365.23715 -324.01333 -2.2488178)
(426.2169 -342.0055 -39.367279)
(430.28344 -345.08821 -33.909246)
(433.35222 -346.82085 -28.991673)
(435.97311 -348.43957 -23.174418)
(436.37334 -348.66902 -17.366818)
(436.43172 -347.64417 -12.298946)
(435.57667 -347.96776 -6.8974648)
(498.33617 -363.28261 -31.868835)
(500.84927 -365.50048 -28.209439)
(503.5824 -367.99858 -24.253264)
(505.22098 -368.25718 -20.060681)
(505.83974 -369.01136 -15.832997)
(506.26676 -368.86958 -11.934129)
(505.48987 -369.01706 -8.2187787)
(569.69481 -382.12341 -25.656807)
(571.69271 -384.66021 -22.746195)
(573.82107 -386.9326 -19.83009)
(574.9379 -387.84556 -16.432171)
(575.48926 -389.01734 -12.946683)
(575.71073 -388.4937 -10.221628)
(575.32875 -389.27177 -7.1793897)
(640.05475 -401.19486 -20.108957)
(641.53751 -403.2092 -17.46236)
(642.81293 -405.2967 -15.045975)
(643.64811 -406.09778 -11.725009)
(643.7228 -406.63652 -9.1766097)
(643.68872 -406.46224 -6.1464762)
(642.88627 -407.39326 -3.8832972)
(708.4866 -419.92331 -16.073499)
(709.57769 -421.73945 -13.377766)
(710.74588 -424.08331 -10.580707)
(711.11012 -424.82185 -7.4547444)
(710.84082 -425.58704 -4.1525618)
(710.19725 -425.75327 -1.3094607)
(708.73241 -426.50639 1.4647065)
(774.72131 -440.56452 -13.897628)
(776.15035 -442.40987 -10.245934)
(777.1042 -444.44528 -6.9068468)
(777.11328 -445.05398 -2.6157195)
(776.50522 -445.67656 1.0309439)
(774.98379 -445.59291 4.8602745)
(772.69062 -446.35964 8.4508422)
(839.57711 -463.84311 -13.531331)
(841.40787 -465.51432 -8.8382858)
(842.54698 -467.54621 -3.9740923)
(842.398 -468.32923 1.2672421)
(841.32704 -468.61843 6.2750718)
(838.90572 -468.78904 11.329906)
(835.48946 -468.93018 16.296567)
(903.48711 -490.95979 -15.294509)
(906.14484 -492.64435 -8.7135096)
(907.69494 -494.61634 -2.3342567)
(907.37107 -495.18375 4.5827021)
(906.07482 -495.40737 11.241367)
(902.61646 -495.31247 17.794975)
(898.12577 -495.08537 24.563314)
(967.78731 -522.78943 -18.755607)
(971.58764 -524.63307 -10.287865)
(973.65941 -526.54566 -2.0291902)
(973.51373 -527.36252 6.793261)
(971.93033 -527.24722 15.284003)
(967.55669 -527.16928 23.678493)
(961.93481 -526.02501 32.568255)
(1033.9542 -560.3178 -23.920167)
(1038.9255 -562.3625 -13.309838)
(1041.8362 -564.35415 -2.9499133)
(1041.911 -565.01211 7.8317282)
(1040.1748 -564.84007 18.421356)
(1035.0275 -564.34564 28.670699)
(1028.3653 -562.54854 39.876025)
(1103.496 -603.96175 -30.251516)
(1109.8509 -606.39445 -17.481559)
(1113.6955 -608.34312 -5.128484)
(1114.0955 -609.24851 7.6504892)
(1112.3997 -608.79238 20.300434)
(1106.5605 -608.11195 32.491402)
(1099.0099 -605.51679 46.027625)
(1178.1208 -654.31303 -37.262604)
(1185.8685 -657.04165 -22.547875)
(1190.6518 -659.16026 -8.3359439)
(1191.6005 -660.08557 6.34074)
(1189.8755 -659.72218 21.040918)
(1183.6405 -658.70681 34.912149)
(1175.4058 -655.36479 50.74533)
(1259.4898 -711.11858 -44.569458)
(1268.481 -714.6226 -28.18432)
(1274.2864 -716.7 -12.307437)
(1275.682 -718.02101 4.1359326)
(1274.3091 -717.41103 20.404548)
(1267.8626 -715.99011 36.039306)
(1259.1293 -712.09009 53.880273)
(1348.7443 -774.77251 -51.947643)
(1359.2063 -778.78576 -33.814043)
(1365.7593 -780.77583 -16.800575)
(1368.0958 -782.51932 1.1994707)
(1366.5782 -781.94305 18.854064)
(1360.1558 -780.79145 35.87407)
(1350.9886 -776.49947 55.237519)
(1447.4645 -844.8872 -58.426639)
(1459.0821 -849.10504 -39.364792)
(1466.1886 -851.71678 -21.320937)
(1468.9007 -853.50105 -1.5248572)
(1467.6301 -853.07217 15.966763)
(1462.056 -851.86021 34.389282)
(1453.1762 -847.19582 54.391499)
(1556.4024 -920.79756 -63.85508)
(1568.639 -925.4681 -44.662106)
(1576.5567 -928.79214 -25.184884)
(1580.4125 -930.66061 -5.9422553)
(1579.1927 -930.69181 13.404955)
(1574.0553 -928.91408 32.660483)
(1564.9296 -924.65678 52.669294)
(1676.6613 -1002.3196 -68.127076)
(1688.9749 -1007.5166 -48.432755)
(1698.1366 -1011.2194 -28.706764)
(1701.6344 -1013.391 -9.427216)
(1701.7264 -1013.4435 10.907227)
(1696.4534 -1011.818 29.760159)
(1687.7484 -1007.6332 50.81063)
(1808.1978 -1088.6702 -70.949639)
(1820.9653 -1094.6162 -50.929468)
(1829.9577 -1098.6377 -31.923749)
(1834.2074 -1101.0117 -11.837152)
(1834.1403 -1101.5354 7.8736237)
(1829.4953 -1099.9502 27.044752)
(1821.1873 -1096.096 48.036551)
(1951.2953 -1179.5395 -71.830895)
(1963.7689 -1185.769 -52.466716)
(1973.0448 -1190.3648 -33.548704)
(1977.3668 -1193.0455 -14.041378)
(1977.6739 -1193.9411 5.439308)
(1973.634 -1192.4435 24.323972)
(1965.719 -1189.15 44.994087)
(2105.4692 -1273.9918 -71.387364)
(2117.7754 -1280.846 -52.538981)
(2126.8448 -1285.7382 -34.422)
(2131.2963 -1288.7831 -15.299986)
(2131.7936 -1289.99 3.4412302)
(2128.2366 -1288.8196 21.928432)
(2120.8105 -1286.0143 41.828677)
(2270.5243 -1371.8502 -69.305862)
(2282.3181 -1378.896 -51.43946)
(2291.093 -1384.2663 -34.020156)
(2295.5455 -1387.6018 -15.79853)
(2296.1915 -1389.2323 2.1720474)
(2293.1382 -1388.3744 19.940215)
(2286.231 -1386.1236 38.963692)
(2445.7775 -1472.2386 -66.021528)
(2456.9669 -1479.639 -49.124932)
(2465.2965 -1485.3782 -32.720694)
(2469.647 -1489.0384 -15.400069)
(2470.3812 -1491.0698 1.608442)
(2467.731 -1490.5891 18.571055)
(2461.3506 -1488.9297 36.556491)
(2630.5866 -1575.0043 -61.567203)
(2641.0572 -1582.6099 -45.825991)
(2648.8699 -1588.6996 -30.418552)
(2653.0293 -1592.6897 -14.160051)
(2653.8068 -1595.0864 1.7922569)
(2651.5319 -1595.0528 17.793162)
(2645.651 -1593.9559 34.700842)
(2824.2999 -1679.6035 -56.299787)
(2833.9957 -1687.4128 -41.70848)
(2841.1993 -1693.8015 -27.426923)
(2845.1184 -1698.1237 -12.240161)
(2845.9179 -1700.8619 2.5245503)
(2843.8567 -1701.4267 17.752423)
(2838.4709 -1700.7926 33.386315)
(3026.2508 -1785.8184 -50.254474)
(3035.1203 -1793.7562 -36.74496)
(3041.7311 -1800.4337 -23.622429)
(3045.3785 -1805.0353 -9.5668037)
(3046.0183 -1808.279 4.0712792)
(3044.3905 -1809.2701 18.367538)
(3039.5517 -1809.0101 32.327667)
(3235.7026 -1893.0734 -43.664976)
(3243.7027 -1901.2843 -31.576515)
(3249.8048 -1908.1546 -19.645642)
(3252.932 -1913.2057 -6.793682)
(3253.9537 -1916.6128 5.7706914)
(3252.1109 -1918.5126 18.249655)
(3247.9506 -1918.8131 31.86807)
(3452.0953 -2001.8191 -36.793104)
(3459.4149 -2009.5396 -26.082381)
(3464.6738 -2016.7864 -15.123538)
(3467.9017 -2022.0085 -3.7877634)
(3468.3959 -2026.0849 7.7070855)
(3467.6483 -2027.5935 19.690789)
(3463.4492 -2028.7787 31.720921)
(3675.2485 -2109.997 -29.324735)
(3681.5924 -2118.3165 -19.614233)
(3686.3345 -2125.6945 -10.063016)
(3689.0335 -2131.1577 0.16644052)
(3689.7881 -2135.5814 10.263011)
(3688.6159 -2138.2524 20.405016)
(3685.3274 -2139.9961 31.153936)
(3903.7683 -2218.9377 -21.690701)
(3909.4138 -2227.0943 -13.363806)
(3913.5841 -2234.5486 -5.2198201)
(3916.0746 -2240.308 3.7280345)
(3916.7218 -2245.1806 12.192204)
(3916.1277 -2248.2742 21.378347)
(3913.5888 -2250.4676 30.553385)
(4137.462 -2326.8966 -13.548102)
(4142.324 -2335.1777 -6.8899659)
(4145.9084 -2342.7018 0.12111783)
(4148.1171 -2348.7104 7.4692378)
(4148.967 -2353.9563 14.752101)
(4148.6874 -2357.5372 22.273412)
(4146.7412 -2360.3879 29.837501)
(4375.4523 -2434.0312 -5.1672147)
(4379.4334 -2442.1674 -0.12360597)
(4382.5249 -2449.6188 5.6573358)
(4384.5742 -2455.9991 11.412087)
(4385.4344 -2461.4576 17.272178)
(4385.5371 -2465.5912 23.29473)
(4384.4227 -2469.0688 29.251179)
(4616.6425 -2539.2889 3.2886091)
(4619.8571 -2547.4083 6.9264133)
(4622.3984 -2554.9844 11.362514)
(4624.2214 -2561.4719 15.587202)
(4625.1803 -2567.157 20.195855)
(4625.7856 -2571.7452 24.640347)
(4625.3202 -2575.7733 28.959823)
(4860.0426 -2642.5378 11.812971)
(4862.5095 -2650.5959 14.18413)
(4864.538 -2658.1188 17.270394)
(4866.2162 -2664.7306 20.221698)
(4867.2426 -2670.668 23.49009)
(4868.1952 -2675.601 26.564241)
(4868.4023 -2680.0163 29.334099)
(5104.4363 -2743.3711 20.247538)
(5106.2278 -2751.4318 21.462591)
(5107.8286 -2758.9945 23.343737)
(5109.309 -2765.7608 25.159151)
(5110.3991 -2771.8292 27.293476)
(5111.6629 -2776.905 29.164624)
(5112.3777 -2781.6211 30.667568)
(5348.7033 -2841.9818 28.412726)
(5349.9917 -2850.0842 28.703286)