/*--------------------------------*- C++ -*----------------------------------*\
  =========                 |
  \\      /  F ield         | OpenFOAM: The Open Source CFD Toolbox
   \\    /   O peration     | Website:  https://openfoam.org
    \\  /    A nd           | Version:  6
     \\/     M anipulation  |
\*---------------------------------------------------------------------------*/
FoamFile
{
    version     2.0;
    format      ascii;
    class       pointVectorField;
    location    "0.05";
    object      lm;
}
// * * * * * * * * * * * * * * * * * * * * * * * * * * * * * * * * * * * * * //

dimensions      [1 -2 -1 0 0 0 0];

internalField   nonuniform List<vector> 
3969
(
(-4.0340813e-15 -4.7705825e-17 1.3312818e-16)
(9.2297575e-16 -2.6090405e-16 -6.0252577e-16)
(6653.585 443.448 2.9835028)
(6631.1388 -787.54644 -5.356042)
(-7.1783695e-15 2.6020842e-15 -1.0366567e-15)
(-4.622429e-15 2.1493156e-15 -1.5432914e-15)
(6615.7017 -773.66618 -7.2955405)
(6661.5799 435.02184 -17.730862)
(-6.09887e-15 1.0869625e-16 -2.0095736e-16)
(-3.193382e-15 6.5333688e-16 6.3735029e-17)
(-2.9260211e-15 2.9260844e-16 -4.8432863e-17)
(-1.7497804e-15 -1.5755452e-16 -2.074758e-16)
(-4.3254872e-15 8.6218995e-16 7.3228779e-16)
(-2.4697388e-15 -4.9707839e-16 4.8086129e-16)
(5.2680668e-16 -4.7467027e-16 -5.3018058e-16)
(6642.9342 272.06532 -12.442805)
(6635.6279 113.93201 -17.195942)
(6627.8012 -29.882467 -14.829546)
(6625.2183 -163.44638 -5.7917184)
(6627.5878 -300.29459 3.6350169)
(6631.126 -446.03849 8.0312759)
(6634.6666 -606.01708 5.6326962)
(11.626109 32.152754 37.691081)
(5.0415358 56.869277 50.954778)
(13.578445 94.598208 62.276242)
(38.993834 135.65865 67.284194)
(81.217431 178.13513 67.136821)
(146.41751 220.46612 61.13657)
(230.17072 258.52032 49.348986)
(333.49461 292.37464 34.700171)
(448.92472 320.00613 18.391403)
(572.73677 343.26278 5.5935812)
(697.84635 362.97517 -0.95341654)
(822.02217 383.02848 1.7613113)
(944.63412 404.95988 14.719021)
(1069.0442 431.34571 37.064732)
(1202.4646 462.99947 62.248201)
(1354.163 498.17466 86.464091)
(1531.7984 532.73305 103.85189)
(1741.8328 561.72706 107.52268)
(1986.1092 579.43997 94.294528)
(2258.9861 580.51235 64.547361)
(2547.7482 561.97017 23.402056)
(2834.4958 524.1809 -20.509277)
(3100.1691 471.17223 -56.968738)
(3329.095 410.26786 -77.565106)
(3513.378 350.26735 -77.675677)
(3654.8626 300.01126 -58.319377)
(3764.5607 266.40317 -25.669092)
(3859.5234 251.85787 10.850548)
(3957.9173 255.55705 41.871705)
(4074.1085 272.35303 59.694639)
(4215.2372 295.22841 61.245111)
(4380.0995 316.71571 48.00709)
(4560.1663 330.8918 25.610163)
(4742.2628 334.66749 1.5788447)
(4913.4424 328.33315 -16.065787)
(5062.8801 315.51185 -22.315291)
(5185.6246 301.32641 -14.467026)
(5284.6479 292.11914 8.3368775)
(5366.6655 291.299 37.872632)
(5444.5808 302.53647 70.226528)
(5530.5335 325.11868 98.225324)
(5636.7136 355.96269 116.07898)
(5767.4869 389.51416 119.5521)
(5926.7124 420.93399 112.28965)
(6103.0999 445.94865 87.984893)
(6295.7372 452.01974 65.086681)
(6482.9479 451.60228 31.999621)
(-18.099925 -10.890496 -19.687335)
(-16.799515 -19.20946 -19.744195)
(-22.155505 -41.832875 -39.203846)
(-2.0878337 -65.450662 -39.142964)
(39.627108 -98.439895 -39.456712)
(100.50374 -129.55045 -31.354466)
(183.45324 -161.97815 -20.929026)
(280.4295 -191.1345 -6.4624649)
(391.34886 -217.62681 5.7469778)
(507.54281 -240.84045 15.985242)
(625.69606 -262.63926 17.144921)
(743.98332 -283.5728 10.012227)
(861.36022 -307.60008 -5.8745528)
(984.26897 -335.93933 -27.521505)
(1118.744 -370.94377 -50.74274)
(1273.3834 -411.70748 -69.974916)
(1455.8469 -456.40323 -80.229117)
(1671.0744 -500.60349 -77.00794)
(1919.4163 -539.02621 -58.441039)
(2194.5899 -565.49559 -26.2583)
(2483.7348 -575.56873 15.362659)
(2770.1321 -566.15548 57.67684)
(3034.3401 -539.52986 92.187652)
(3262.515 -500.2129 110.59211)
(3446.8287 -455.25079 110.81755)
(3589.6176 -414.06489 91.819131)
(3701.2181 -384.06439 58.285453)
(3796.429 -370.02677 19.317977)
(3895.6266 -373.98636 -16.641124)
(4013.3661 -392.40527 -42.153632)
(4157.1865 -419.27193 -52.529276)
(4326.0836 -447.63692 -48.006747)
(4510.6961 -471.07727 -32.509391)
(4697.2771 -485.64389 -12.789188)
(4871.5197 -490.39472 3.7902494)
(5022.1836 -487.96331 11.496515)
(5145.3463 -482.55686 7.215764)
(5242.0571 -480.90436 -11.747877)
(5320.7073 -486.85964 -37.063807)
(5395.9566 -506.0494 -67.216344)
(5478.8892 -538.36347 -94.811457)
(5582.2338 -581.39884 -114.33446)
(5713.0217 -630.25949 -121.87522)
(5871.7914 -679.62556 -115.78371)
(6053.3943 -723.12101 -98.050995)
(6249.3343 -756.48844 -70.962752)
(6445.645 -777.89504 -37.607206)
(-3.9179893e-16 -2.8384427e-17 -1.6191597e-16)
(6.8869455e-16 3.3255846e-16 -2.9305012e-16)
(-3.0379221e-16 -4.0639439e-16 3.7376104e-16)
(8.6048107e-16 -8.7588792e-17 1.0515471e-16)
(5.0258192e-16 -7.4376592e-16 6.4035694e-16)
(-2.9679417e-15 -3.4669267e-16 7.3060073e-16)
(8.9003905e-16 -2.834795e-16 1.0120244e-16)
(-8.4822728 -3.8651287 7.8971226)
(-10.961269 -40.946929 22.034611)
(-10.235465 -35.245384 23.684916)
(16.955741 -84.131176 25.343791)
(57.521562 -108.18706 25.649935)
(119.47099 -144.9856 18.608598)
(196.8332 -177.46134 15.951908)
(290.23422 -209.78178 5.8645607)
(393.02141 -237.32315 2.6500134)
(505.70811 -264.58849 -2.9917345)
(622.16297 -292.57918 -0.13736526)
(740.5884 -316.90102 5.6719543)
(863.711 -348.82978 18.63409)
(991.27686 -383.52266 35.228498)
(1131.571 -425.41529 53.415393)
(1290.9831 -472.76586 68.593273)
(1477.1639 -523.25934 75.819968)
(1695.3513 -572.54813 71.138872)
(1946.1116 -614.39977 51.871443)
(2223.6182 -642.83566 18.936257)
(2514.934 -652.9911 -22.955441)
(2801.8071 -642.9865 -65.499774)
(3064.4851 -614.78793 -98.698987)
(3286.8449 -573.84171 -113.70256)
(3460.5312 -527.34265 -104.86512)
(3587.9007 -485.45776 -75.735889)
(3692.5134 -456.20939 -36.894784)
(3784.6891 -443.08592 2.9458763)
(3885.6152 -447.48447 35.142338)
(4008.7745 -464.67841 52.228764)
(4159.4783 -488.45093 52.662716)
(4334.5841 -511.53641 39.252174)
(4522.742 -527.89535 18.669408)
(4708.768 -534.43797 -1.1731747)
(4878.6867 -530.43678 -13.106692)
(5020.8745 -521.40342 -13.452797)
(5140.705 -516.12979 -0.79450161)
(5229.8755 -507.29278 23.616794)
(5308.4033 -514.02754 52.604252)
(5383.5731 -533.1759 81.78841)
(5468.6109 -565.19611 105.57125)
(5575.8306 -607.31992 118.08934)
(5710.3712 -654.00957 117.65807)
(5872.0408 -698.50269 104.22982)
(6054.1327 -734.88668 80.918316)
(6246.3113 -759.41604 51.622528)
(6436.9745 -770.92049 22.928061)
(6618.1818 -595.09218 -25.966812)
(6618.8808 -436.67392 -32.444903)
(6612.157 -295.87365 -29.446021)
(6618.0557 -165.24941 -19.479969)
(6622.4506 -36.308634 -3.4174484)
(6643.7524 100.51199 2.2652666)
(6651.6277 261.33761 -1.6209458)
(6490.5285 444.29447 -42.362174)
(6308.8461 448.06938 -67.531062)
(6121.6116 443.10469 -88.632489)
(5942.4572 419.25948 -107.88684)
(5785.0807 383.94474 -114.85085)
(5653.9358 343.71934 -109.42941)
(5548.2579 305.12422 -92.971542)
(5461.379 274.5837 -68.664671)
(5382.8836 257.25903 -42.298536)
(5299.2245 254.72866 -18.472225)
(5201.0978 265.06659 -3.5117056)
(5073.9755 282.26987 2.0333357)
(4925.1414 299.67346 -8.6512127)
(4751.3257 314.59485 -26.8184)
(4565.4263 318.31357 -50.833884)
(4381.0609 309.6824 -71.066304)
(4211.7429 290.63021 -80.890508)
(4067.1334 266.66113 -74.970703)
(3949.2365 245.90913 -52.430803)
(3851.2173 236.67152 -16.535873)
(3758.8237 245.47765 24.847897)
(3654.164 274.37204 62.787129)
(3519.0707 321.60723 88.288518)
(3342.8643 379.99659 96.072014)
(3122.6861 440.74839 84.964697)
(2864.9172 494.50462 58.259353)
(2583.8393 533.57951 22.807968)
(2297.2779 553.86699 -13.248146)
(2022.3238 555.15573 -42.686766)
(1771.7288 540.28484 -60.8973)
(1552.1712 514.95757 -66.566823)
(1363.1299 484.08654 -61.777157)
(1199.2238 451.8306 -49.796327)
(1056.7337 420.67822 -32.616556)
(925.77697 399.08319 -19.595346)
(799.38399 375.23288 -9.0521271)
(674.86615 352.23134 -6.3910001)
(552.43259 329.90487 -8.1218347)
(432.69619 303.05895 -16.783781)
(322.04343 275.52804 -27.697487)
(224.70545 241.75865 -38.828374)
(139.6204 202.14982 -48.77821)
(79.67474 162.55331 -55.335967)
(35.377648 122.68935 -56.582042)
(11.438106 87.779962 -54.384434)
(2.4239893 47.559417 -46.186107)
(25.502959 27.55356 -19.260441)
(-6.7652979e-16 3.5118239e-16 1.2802193e-16)
(-2.3129286e-15 2.7505878e-16 1.3239036e-16)
(-3.6393531e-15 -1.4253491e-16 -1.5464221e-16)
(-4.9195801e-15 -9.3657526e-16 4.6870719e-16)
(-4.0844143e-15 -8.2232132e-16 1.723462e-16)
(-2.0271537e-15 -1.8079967e-16 2.6438577e-16)
(-2.0670014e-15 8.6459225e-16 1.4474963e-15)
(-4.5036838e-15 1.2268482e-15 -2.065022e-16)
(-1.9919023e-15 1.1694967e-15 -1.6367101e-16)
(-2.9438013e-15 1.1112212e-15 -1.969436e-16)
(-2.4504202e-15 9.597151e-16 -1.1789697e-16)
(-5.2893259e-15 2.5926013e-15 -8.0820905e-16)
(-1.8775489e-15 1.1365606e-15 -5.8525306e-16)
(-7.4714327e-17 -2.094137e-16 9.7564992e-17)
(6640.4076 -814.9116 -14.755551)
(6657.6445 -832.76719 -17.204604)
(6668.9055 -844.95817 -12.157054)
(6672.9044 -848.61677 -6.1585721)
(6666.5395 -843.31023 -0.79321979)
(6651.8513 -828.38557 0.0075394241)
(6631.6855 -806.51421 -3.513113)
(6670.063 471.04436 9.3912567)
(6690.0756 488.90648 11.963358)
(6705.6794 498.20469 7.4529723)
(6712.8422 499.11018 -1.867903)
(6708.5442 492.18088 -12.785659)
(6694.3623 477.24109 -18.471057)
(6677.1176 459.37077 -19.953652)
(0.93193331 34.86701 39.201708)
(-5.1156388 52.327579 39.437775)
(0.15192737 81.355301 49.662935)
(23.028932 105.96896 53.142172)
(63.45379 131.53869 53.924019)
(127.45486 156.38617 50.737132)
(210.77848 179.37826 43.562482)
(312.77737 201.09865 34.751903)
(428.37797 220.47792 24.467253)
(551.64425 239.86685 16.056619)
(676.62298 258.86913 10.503743)
(800.56256 277.58386 11.336636)
(923.05663 297.27296 17.409292)
(1046.8819 316.17186 28.27875)
(1180.2593 333.32842 42.69481)
(1331.5257 347.57086 55.351198)
(1509.1497 356.08259 63.812428)
(1720.4405 357.11236 64.617063)
(1967.1571 349.42254 55.467877)
(2243.7024 333.3025 36.750053)
(2537.1751 310.35578 11.342457)
(2829.3069 283.25036 -15.40643)
(3100.1213 255.02552 -37.327128)
(3333.0653 228.64125 -49.016805)
(3519.2876 206.31958 -47.645093)
(3660.2841 189.77432 -33.848024)
(3766.8355 179.23222 -11.816682)
(3857.1478 174.13178 12.618646)
(3950.4539 173.6079 32.531538)
(4062.2843 176.03672 43.085782)
(4200.8085 179.79765 42.294819)
(4365.1255 183.38699 31.533417)
(4546.537 186.00161 14.781129)
(4731.4852 187.3571 -2.1766557)
(4905.5251 188.07212 -14.350286)
(5057.5714 189.17228 -17.337098)
(5181.9935 192.08346 -10.509895)
(5279.5073 198.21607 6.3608143)
(5359.3306 207.09642 28.040677)
(5433.7945 219.76814 51.056331)
(5516.2259 234.3902 70.66454)
(5618.7324 249.7377 81.959821)
(5749.5619 264.06005 83.951275)
(5906.2811 274.76486 75.595125)
(6088.1952 282.48572 59.93088)
(6284.5812 282.3806 40.917734)
(6472.8911 277.84666 16.797837)
(-14.680195 25.026015 31.706536)
(-17.280959 34.331272 31.680879)
(-9.6105843 61.003962 40.121664)
(11.909243 74.939197 42.344182)
(54.151791 93.620364 42.619603)
(115.72 109.48478 39.760288)
(197.63231 123.96869 35.68519)
(297.94658 136.67092 28.723623)
(410.92576 148.49746 22.310911)
(531.81849 160.29572 16.23477)
(655.66656 172.00142 12.872572)
(779.39257 185.1152 12.269659)
(902.75243 197.69515 15.867895)
(1029.6811 209.17204 23.012445)
(1166.5898 218.23902 30.894925)
(1322.3068 223.58269 38.201043)
(1505.011 223.23074 42.764409)
(1720.5503 215.89232 42.443245)
(1969.6608 201.4963 36.148298)
(2246.405 181.46792 24.130404)
(2538.0696 158.48444 8.3495828)
(2826.9854 135.53457 -7.9089568)
(3094.2646 115.48184 -21.044318)
(3324.2055 99.999594 -27.867399)
(3508.6063 89.700473 -26.476078)
(3649.156 83.653029 -17.855244)
(3756.5011 80.499963 -4.2351156)
(3848.2379 79.024895 10.188554)
(3942.7429 77.695096 21.713713)
(4055.3873 76.334978 27.27617)
(4194.0143 74.954133 25.817072)
(4357.7755 74.049007 18.211389)
(4538.067 74.222624 7.2045299)
(4721.6799 75.907149 -3.6483237)
(4894.566 79.352047 -10.917257)
(5045.5229 84.349266 -12.349832)
(5169.2843 90.829086 -7.4510249)
(5267.2004 98.361748 3.5669964)
(5347.5457 106.08024 17.76972)
(5422.6845 113.95256 32.480926)
(5506.4611 121.14384 44.889429)
(5609.8354 126.8552 51.791271)
(5741.4801 130.8894 53.037493)
(5900.3395 133.02736 48.059479)
(6081.7741 132.69848 37.081411)
(6280.8076 128.25979 24.594419)
(6468.2643 121.50381 5.50584)
(-24.642829 18.006334 25.304538)
(-23.96464 26.410556 25.255282)
(-19.233587 41.690137 29.009418)
(5.0122533 53.332886 30.128936)
(44.89931 64.489272 29.836472)
(107.46261 75.618672 29.350668)
(189.69158 83.141255 25.543058)
(288.59771 90.431968 23.284783)
(400.6055 95.80563 19.13668)
(520.30336 101.37431 15.414756)
(643.07779 106.90182 12.303305)
(766.59746 112.57639 10.898323)
(890.43563 118.02945 11.096472)
(1018.54 121.68644 12.843737)
(1158.1217 124.57173 15.668385)
(1316.8481 124.10191 18.272196)
(1503.0641 119.4972 20.229825)
(1721.5105 109.61395 20.568385)
(1972.2542 94.827927 18.502014)
(2248.8697 76.402568 14.11882)
(2538.6867 56.51488 7.9568736)
(2824.5608 37.716871 1.1972948)
(3088.0249 22.402515 -4.3253974)
(3314.6325 12.418662 -6.4780757)
(3497.2454 7.1833823 -5.6081322)
(3637.5752 5.7373606 -0.8063808)
(3746.0823 6.0446764 6.105969)
(3839.4033 6.4128163 13.041605)
(3935.6785 5.6610227 17.929736)
(4049.4677 3.3702406 19.314489)
(4188.309 -0.317598 16.621853)
(4351.2271 -4.4031578 10.467281)
(4530.0178 -7.82762 2.6947076)
(4711.8248 -9.6363749 -4.6507213)
(4883.0729 -9.4369288 -9.41734)
(5032.9857 -7.1998508 -10.487216)
(5156.7478 -3.495409 -7.2019031)
(5255.3285 1.0095914 -0.34270255)
(5336.8822 5.2172208 8.2183364)
(5413.4686 8.3507441 16.879212)
(5498.6707 9.8242136 24.073721)
(5603.5106 9.3887209 27.661036)
(5735.9046 7.045263 28.559892)
(5895.3317 3.1936762 23.792598)
(6077.2009 -2.9676912 19.006148)
(6276.3745 -8.7967108 8.9722023)
(6464.1299 -19.26202 0.57501333)
(-28.568053 9.3847075 15.470264)
(-28.334348 11.093741 12.606052)
(-22.80477 22.100725 15.933151)
(-1.8657299 27.927049 16.930559)
(39.828049 34.767533 18.106414)
(101.46165 41.462585 17.070291)
(182.49572 44.529378 18.070235)
(280.8683 47.620194 16.768498)
(391.31195 48.257194 15.613408)
(509.86811 48.678192 14.065141)
(631.71979 47.820276 12.268653)
(754.56712 47.25995 10.352724)
(878.49935 46.387852 8.2518833)
(1007.8868 45.458146 6.7800198)
(1148.5451 43.787836 5.2408076)
(1309.4851 40.462582 4.4070671)
(1497.8335 34.694004 4.770434)
(1718.2671 25.389143 5.7124458)
(1970.4305 12.852079 7.3353587)
(2247.5217 -2.3553102 9.2254122)
(2536.9224 -18.480919 10.363534)
(2820.8297 -33.417066 11.282479)
(3082.0063 -45.362886 12.735594)
(3306.1933 -54.841379 12.905615)
(3486.6382 -59.63133 13.942194)
(3626.3574 -61.466588 14.535725)
(3735.4438 -61.059336 14.586312)
(3830.3933 -60.021113 13.542124)
(3928.8603 -59.680173 11.225171)
(4044.8067 -60.897343 7.4748458)
(4185.2 -63.944906 2.7189988)
(4348.8022 -68.452997 -2.331413)
(4527.2392 -73.799652 -6.718163)
(4707.8378 -79.262417 -9.5679912)
(4877.2502 -84.228122 -10.214319)
(5025.3626 -88.40685 -8.7397917)
(5147.5681 -91.896931 -5.3938849)
(5245.4153 -94.736509 -2.0392527)
(5327.739 -97.61202 0.8668738)
(5405.4131 -100.5281 3.5580489)
(5491.967 -104.45375 4.4429528)
(5597.947 -109.48766 3.626836)
(5731.087 -115.51213 2.7093769)
(5891.3478 -122.41966 -0.69167468)
(6072.9629 -131.16382 -0.30656252)
(6271.6611 -137.98614 -4.0561841)
(6461.8732 -150.7862 -1.318814)
(-31.328693 0.82563084 5.571953)
(-29.367447 4.1257682 4.0347385)
(-28.86386 6.3372444 5.1252096)
(-6.5953834 9.7934663 4.4658323)
(33.785944 12.827821 3.3846766)
(95.093653 14.843063 5.5831667)
(176.76399 14.668633 6.2474157)
(275.19539 12.574962 8.0048837)
(386.16322 7.8021443 9.3562244)
(505.13047 1.3520171 9.6427028)
(626.69468 -5.9023182 8.6090601)
(748.41822 -13.018328 6.3895927)
(871.35715 -20.038927 2.6563426)
(999.64375 -26.282896 -2.1896102)
(1139.9058 -32.406479 -6.8320754)
(1300.9225 -38.593727 -10.160292)
(1489.8231 -45.549814 -11.117888)
(1711.2236 -54.060045 -8.9131749)
(1964.537 -64.335406 -3.2349291)
(2242.5866 -76.133893 4.6682301)
(2532.4988 -89.06213 13.867438)
(2817.5288 -101.98626 24.098082)
(3079.3606 -113.19638 29.904943)
(3303.0432 -120.27746 33.104686)
(3483.0446 -124.19238 32.0779)
(3621.7385 -125.60857 28.123928)
(3729.4255 -125.01359 21.543976)
(3823.1204 -124.0187 13.554485)
(3920.7313 -123.60514 5.6220481)
(4036.4409 -124.89574 -1.2174606)
(4177.2987 -128.39263 -6.0702101)
(4342.0007 -134.06247 -8.8563924)
(4521.8872 -141.70272 -9.6456993)
(4703.96 -150.5446 -9.0754582)
(4874.6381 -159.97146 -7.7863402)
(5023.5522 -169.47043 -6.8635322)
(5145.8997 -178.89338 -6.5644982)
(5243.0212 -187.88494 -8.3426968)
(5323.7583 -195.94957 -9.2241468)
(5400.3321 -205.05892 -12.964037)
(5485.6766 -214.93307 -16.022243)
(5590.9952 -225.66897 -19.1258)
(5723.4088 -237.28365 -20.16794)
(5883.6544 -249.14649 -21.061249)
(6065.8736 -261.94753 -16.302692)
(6264.7207 -271.72552 -15.168704)
(6459.7858 -286.39414 -3.3531267)
(-27.93228 -4.3996703 -6.9243539)
(-25.198163 -7.7402698 -7.1677209)
(-27.594414 -10.081114 -10.608896)
(-6.8153997 -10.422598 -12.779201)
(32.295174 -12.750588 -11.073622)
(93.67478 -15.478086 -8.7345534)
(175.90512 -22.339777 -4.3226844)
(275.14978 -30.801714 1.305321)
(386.96288 -42.774371 5.8407651)
(505.62949 -56.021934 9.6546589)
(626.02385 -70.435193 10.548114)
(746.18254 -84.698352 7.5559559)
(867.02844 -98.244197 0.61747533)
(992.90722 -110.43463 -8.3756655)
(1130.8342 -121.40097 -17.950719)
(1289.4337 -131.37476 -25.592252)
(1476.5326 -140.78817 -28.881717)
(1697.0175 -150.15069 -25.986706)
(1950.3396 -159.84156 -16.471748)
(2229.2011 -169.95616 -1.4955524)
(2521.272 -180.20401 18.16593)
(2807.9863 -189.82302 34.520678)
(3069.4466 -198.54659 50.102045)
(3294.2833 -201.66003 56.648272)
(3473.9865 -201.82534 56.435267)
(3613.0508 -198.85963 48.498458)
(3720.9885 -194.85142 33.903323)
(3815.0665 -190.65402 16.807028)
(3913.5735 -188.23852 0.40647869)
(4030.716 -188.66144 -12.469113)
(4173.4808 -192.89311 -20.039276)
(4340.1699 -201.02948 -21.857795)
(4521.5338 -212.70414 -18.817143)
(4704.3265 -226.66297 -13.034527)
(4874.7444 -241.68734 -6.9568017)
(5022.5943 -256.78557 -2.9212229)
(5143.065 -271.40065 -2.546272)
(5238.4006 -285.14713 -6.563959)
(5317.2505 -298.7816 -15.06876)
(5392.3972 -311.55483 -25.429365)
(5477.9817 -326.02204 -35.691967)
(5583.9537 -342.28655 -44.129823)
(5717.426 -360.04212 -48.044452)
(5878.9137 -378.39765 -47.69754)
(6061.9224 -397.78972 -39.735642)
(6259.419 -414.08527 -30.361665)
(6456.6729 -431.18679 -9.0502744)
(-23.637938 -14.52555 -12.288565)
(-24.980938 -18.428675 -13.499375)
(-30.9683 -28.611331 -21.456863)
(-9.7801133 -36.189213 -23.471734)
(28.948683 -47.59157 -23.482617)
(92.318512 -62.021699 -18.788306)
(175.20482 -78.802268 -11.664562)
(275.46846 -97.534635 -2.7573156)
(387.82391 -117.37913 5.3543837)
(505.71462 -138.23927 11.268604)
(625.21561 -158.89607 12.055477)
(742.82313 -179.34875 6.1148279)
(860.67636 -198.94436 -4.069204)
(983.02803 -218.2382 -18.169744)
(1117.6923 -237.66571 -32.898796)
(1273.3994 -257.23893 -44.764981)
(1458.4297 -276.63897 -50.0926)
(1677.9136 -295.26908 -46.286478)
(1931.5098 -312.03224 -32.505279)
(2212.8309 -325.81807 -9.6437153)
(2506.8281 -335.21448 17.604716)
(2797.7382 -340.79427 45.231959)
(3063.1744 -339.39793 66.621141)
(3290.6332 -333.47695 77.627464)
(3471.1585 -325.01043 76.849399)
(3609.1428 -315.48057 63.628036)
(3714.3021 -306.29555 42.331667)
(3804.885 -299.88423 17.24763)
(3900.4298 -296.34458 -5.7715073)
(4016.3002 -296.81183 -22.442925)
(4160.0424 -301.25041 -30.252336)
(4329.9774 -309.16446 -29.189648)
(4516.1247 -319.9839 -21.758446)
(4704.0887 -332.71945 -11.678595)
(4878.7293 -346.52253 -3.209054)
(5029.2046 -360.90717 0.24423694)
(5149.9316 -376.62622 -2.716471)
(5243.2482 -392.20257 -13.272242)
(5319.446 -410.19505 -28.713636)
(5390.6917 -430.79248 -45.641745)
(5472.0559 -453.83571 -62.256707)
(5575.2464 -478.66348 -73.699711)
(5707.1304 -504.38868 -78.06629)
(5868.3975 -529.69065 -74.58768)
(6053.1305 -553.6848 -62.682592)
(6252.2324 -574.27582 -45.909874)
(6452.5174 -591.07026 -22.283596)
(-1.8726199e-15 -1.0357256e-16 4.2324109e-16)
(-4.3693994e-15 5.8098526e-16 1.0825799e-16)
(-1.86708e-15 5.0203615e-16 5.7484399e-16)
(-1.1298519e-15 4.4303811e-16 -1.5186772e-16)
(-1.5283164e-15 1.7502349e-16 4.7144117e-17)
(-3.9278597e-15 -6.147074e-18 -1.0233878e-17)
(-3.270765e-15 8.5080195e-17 2.8271762e-17)
(-1.444637e-15 3.1767481e-17 -1.0328492e-16)
(-1.9600489e-15 -2.0641393e-16 2.5996682e-17)
(-1.0758982e-15 -5.0887233e-16 -1.6282415e-16)
(-1.1902312e-15 -6.3217422e-16 -1.0496995e-16)
(-2.2455722e-15 -1.0363924e-16 3.7607835e-16)
(-1.7254929e-15 1.2766475e-16 7.9907906e-17)
(-6.542485e-16 2.4659353e-16 4.7610311e-16)
(-1.0183069e-15 2.0413811e-16 3.0876606e-16)
(-1.2825224e-16 3.2154578e-16 2.6910031e-16)
(-2.4669526e-15 5.8726168e-16 -3.2350189e-17)
(-1.9694108e-15 5.8752001e-16 2.9593509e-16)
(-1.9972486e-15 5.0741204e-16 1.6376266e-16)
(-5.0142844e-16 5.9082617e-16 -1.5096731e-17)
(2.8672985e-17 2.0007103e-16 -2.079567e-16)
(-3.5598279e-15 1.6770216e-16 6.1584209e-17)
(1.5219227e-15 -3.8112137e-16 -3.4960392e-16)
(-8.8364966e-17 -1.5289127e-16 1.7491834e-16)
(2.7397895e-16 -2.6900304e-16 -2.0413732e-16)
(-5.1236454e-16 -3.7600259e-16 -4.411389e-17)
(-1.3114086e-15 -5.3747975e-16 1.2489795e-16)
(2.0041989e-16 -4.4379834e-16 -1.4360784e-16)
(-1.3448657e-15 3.3966264e-16 -2.7012678e-16)
(-2.2010094e-15 1.2158219e-16 1.1470551e-16)
(-1.2722141e-15 -2.3577892e-16 -7.7366055e-17)
(-2.6936153e-15 2.298542e-17 6.0151854e-16)
(-1.8084585e-15 2.5926424e-16 8.2177642e-17)
(-1.0121806e-15 3.7760621e-16 1.5728837e-17)
(-3.5076342e-15 -1.049112e-16 -1.8966684e-16)
(-1.2388067e-16 -2.746004e-16 -1.3203227e-16)
(-1.1077126e-15 -2.2449831e-16 5.9960705e-17)
(-7.9462407e-16 5.2806017e-17 1.8160622e-16)
(-1.481116e-15 2.6347307e-16 -6.003674e-17)
(5.3541372e-16 1.9494005e-16 5.7756958e-17)
(-2.5861876e-15 -7.0653702e-17 -1.8824779e-16)
(-1.6152529e-15 1.8241927e-16 3.8488004e-16)
(-1.0389662e-15 3.299921e-17 2.9700946e-16)
(-3.8817577e-15 -1.9427146e-16 -1.2145786e-15)
(-1.6161979e-15 2.8442108e-16 -1.856842e-16)
(8.1577518e-16 1.8112067e-17 2.0819295e-16)
(-2.485062e-15 2.8178417e-16 -5.4749215e-16)
(-1.8307085e-15 4.4562511e-16 -1.4619564e-16)
(-1.4586292e-15 4.0358521e-16 -4.0281137e-16)
(-10.758932 2.5431196 -10.806815)
(-8.7592657 -0.77394352 -10.337733)
(-6.7967784 -0.61211828 -6.2372003)
(-6.3230307 -1.0080557 -4.130599)
(-6.3527723 -0.90032599 -2.7642877)
(-5.5231749 -3.0733346 0.026598562)
(-6.6880235 3.2933636 1.6801165)
(-7.9890593 -24.252999 -18.174945)
(-5.0545277 -36.872289 -9.5900984)
(-3.8366015 -32.114855 -5.4861309)
(-3.822957 -29.829025 -2.4806759)
(-1.2904806 -35.627496 0.41581917)
(-2.790382 -34.527245 5.1529732)
(-3.1939426 -31.052415 13.702456)
(-11.738037 -32.036272 -24.277096)
(-4.4715106 -31.848439 -19.381241)
(-0.77927802 -39.658675 -9.2398745)
(-1.2407093 -41.208634 -6.7652103)
(1.2073251 -38.230056 -1.3887373)
(1.4110378 -39.653459 -0.71042931)
(0.91554703 -42.957036 15.465339)
(14.20819 -71.694176 -25.273345)
(18.22292 -78.251322 -16.822693)
(18.905689 -78.140876 -7.1185058)
(20.935731 -78.82973 -6.9057868)
(23.187049 -79.999668 -3.4981766)
(25.50206 -83.301867 4.2568083)
(23.354672 -77.421889 11.308033)
(51.583946 -103.51639 -24.665772)
(56.43021 -105.60765 -16.202095)
(59.675427 -109.53117 -8.741341)
(60.147076 -109.69764 -6.250333)
(64.470737 -110.53158 -3.7776165)
(67.038809 -110.68666 -0.57158612)
(67.703553 -112.18265 12.443897)
(112.80229 -140.13861 -17.486912)
(113.85051 -141.71696 -9.6029157)
(113.49972 -141.76625 -4.8242083)
(114.44372 -144.04737 -6.2678003)
(117.44489 -143.85958 -4.696841)
(121.10633 -144.51428 -0.037502625)
(122.94012 -144.2279 6.4436632)
(188.90136 -171.5143 -8.9948327)
(189.02821 -175.01969 -2.3966635)
(187.85013 -177.05007 -0.034197781)
(188.09021 -177.9546 -4.0265291)
(193.19683 -179.11632 -5.1534388)
(199.14638 -181.95148 -5.671276)
(200.83591 -181.92391 3.5671843)
(283.30889 -202.65214 2.7045293)
(280.52346 -204.88947 4.8176508)
(276.29954 -204.94258 4.2198076)
(276.17512 -206.63895 -0.73322055)
(278.62657 -206.3889 -5.7515531)
(285.73098 -208.23777 -6.1280784)
(289.6489 -208.94672 -2.9983335)
(389.08362 -225.7799 11.969595)
(383.65272 -229.08997 14.06961)
(378.84191 -231.97689 8.9610733)
(377.5934 -231.6041 -0.82178796)
(381.32263 -234.57632 -7.1361831)
(388.16545 -236.58358 -10.255359)
(391.90167 -238.93248 -6.5098395)
(502.29135 -247.65238 19.405351)
(495.4153 -249.58565 16.868954)
(489.34082 -249.80945 10.512139)
(487.8018 -252.62847 1.5318738)
(490.72115 -255.65038 -5.8322238)
(497.33744 -258.14511 -10.135031)
(502.58659 -260.76827 -9.9543683)
(620.22203 -263.14628 19.209562)
(613.25218 -265.50435 16.33768)
(607.97445 -269.02221 10.531483)
(605.26848 -271.85321 0.91748503)
(609.07003 -277.22876 -5.4833944)
(615.39573 -280.44067 -10.841962)
(620.32964 -284.6929 -7.6345549)
(739.92316 -280.59436 12.201803)
(733.91769 -283.36066 10.950728)
(730.57005 -287.93943 6.0799448)
(730.09515 -292.70058 0.51551411)
(733.67585 -298.16522 -3.3746646)
(738.18488 -301.25907 -6.1306296)
(741.50284 -306.59884 -1.301343)
(862.55148 -301.79289 -1.6235115)
(859.6888 -305.03261 -0.12515722)
(860.82326 -311.26158 -1.4474572)
(860.6143 -316.53258 -2.2539778)
(864.46028 -322.96509 -1.2510977)
(867.29188 -327.45977 0.030425404)
(867.77633 -334.62594 9.2120946)
(992.21351 -330.35962 -20.349085)
(993.94807 -334.63275 -14.170259)
(998.96579 -341.49764 -9.9064407)
(999.82569 -348.64671 -4.3849258)
(1004.7725 -355.62975 2.4351604)
(1003.7848 -359.92247 9.5596361)
(1001.9738 -368.77464 23.914572)
(1134.0331 -367.91262 -39.589095)
(1141.113 -373.27049 -28.594436)
(1149.5231 -381.20412 -18.246863)
(1152.6234 -389.83575 -5.9010674)
(1156.6212 -397.14458 6.8551418)
(1153.5923 -402.67509 20.062599)
(1147.455 -412.05638 39.154933)
(1295.0075 -414.36523 -55.837766)
(1306.7446 -421.14612 -40.727834)
(1318.5402 -430.28705 -24.890589)
(1322.761 -440.11584 -7.321251)
(1326.6623 -447.96883 11.066558)
(1320.6564 -453.99639 29.388145)
(1311.5846 -463.40723 52.480954)
(1481.087 -466.81996 -64.583329)
(1496.6238 -475.4442 -47.272581)
(1509.8811 -485.55562 -28.361628)
(1515.4367 -496.39578 -7.3147229)
(1518.3593 -504.74091 14.006986)
(1510.9891 -511.67966 35.39785)
(1499.495 -520.30688 59.544281)
(1696.509 -520.09449 -62.556886)
(1713.1557 -530.30518 -46.150033)
(1726.7357 -541.1266 -27.293551)
(1732.679 -552.86437 -6.5106179)
(1734.9599 -561.9595 14.435716)
(1727.3277 -569.91129 35.481541)
(1715.6912 -577.53194 57.177492)
(1940.5179 -566.81323 -48.509626)
(1955.8489 -578.19021 -36.369207)
(1967.7592 -589.42536 -21.671073)
(1973.5699 -601.81548 -5.0080051)
(1975.3188 -611.80694 11.526789)
(1969.3424 -621.0571 28.11781)
(1959.9433 -627.67729 43.172006)
(2207.1646 -599.30115 -23.412306)
(2218.488 -610.86848 -19.077627)
(2227.264 -621.96006 -12.090331)
(2232.2469 -634.78907 -3.2950679)
(2233.9837 -645.91793 5.0879951)
(2231.2551 -656.48718 13.348555)
(2226.5571 -662.75995 18.073667)
(2485.0955 -610.85517 8.5415406)
(2490.3028 -621.54629 2.9557258)
(2494.8494 -632.12727 -0.16767018)
(2498.6232 -645.17051 -1.7104286)
(2500.6173 -657.35618 -3.9066881)
(2502.4186 -669.0816 -6.495179)
(2504.1462 -676.16278 -14.610161)
(2758.8649 -598.40494 41.321497)
(2757.1585 -607.1746 25.495609)
(2757.3027 -616.88833 11.947972)
(2759.483 -629.81144 -0.25975467)
(2761.9148 -642.85106 -13.396164)
(2768.5617 -655.36914 -27.203984)
(2777.0196 -664.42897 -48.371546)
(3012.6965 -563.26251 68.014157)
(3004.9104 -569.67378 44.050651)
(3000.9948 -578.43734 22.250732)
(3001.4403 -590.91656 1.3708417)
(3004.1988 -604.47183 -20.698334)
(3014.8823 -617.02208 -43.531178)
(3028.8633 -628.78922 -75.242311)
(3234.7316 -512.25017 83.215353)
(3222.5159 -516.28329 54.955771)
(3215.542 -524.16138 29.174479)
(3214.3041 -535.87182 3.4420068)
(3217.0701 -549.58159 -23.191854)
(3229.7165 -561.58665 -50.784446)
(3246.5211 -575.88725 -87.621736)
(3418.5333 -455.28105 84.125631)
(3404.5474 -457.92092 56.687852)
(3396.2633 -465.32679 31.678664)
(3393.5993 -476.3477 6.1384441)
(3396.222 -489.56653 -19.613154)
(3408.0687 -500.05293 -46.530409)
(3424.5668 -515.13541 -81.039904)
(3566.3072 -403.85518 70.567913)
(3553.5251 -406.29191 49.261463)
(3545.5377 -413.15468 29.883676)
(3543.025 -424.04938 8.357799)
(3544.2663 -436.65245 -10.905372)
(3552.3348 -446.6434 -32.450841)
(3563.9467 -461.46893 -57.746675)
(3687.2584 -368.20858 46.11751)
(3677.4302 -371.8105 35.021725)
(3671.5216 -379.3308 23.252671)
(3667.2148 -389.06813 12.289684)
(3666.8793 -401.68685 -1.3203375)
(3673.0386 -411.12843 -14.133994)
(3680.749 -424.3471 -28.085469)
(3793.3769 -354.48592 17.032973)
(3790.0378 -360.04031 16.264854)
(3785.5621 -367.98584 14.512556)
(3783.9661 -378.19475 12.077574)
(3784.1371 -388.97678 7.6563216)
(3785.4299 -399.82869 5.6117973)
(3786.6332 -409.98781 3.0564103)
(3904.3508 -363.26457 -9.9052461)
(3905.0537 -371.50992 -1.444995)
(3904.629 -379.52207 5.3967899)
(3903.0228 -389.34115 10.117237)
(3903.2932 -398.83635 14.415428)
(3900.6699 -410.44849 20.516313)
(3898.204 -417.81697 28.596945)
(4029.6659 -390.12533 -28.9451)
(4034.1327 -400.44291 -14.13619)
(4035.8519 -408.13393 -2.5610282)
(4035.9686 -417.45319 7.0187538)
(4036.5564 -426.1998 16.505589)
(4032.088 -437.90304 27.406253)
(4027.187 -443.43443 42.38201)
(4176.6006 -426.73363 -36.997409)
(4182.0209 -437.93395 -20.528792)
(4185.7426 -444.6705 -7.9538975)
(4186.9446 -453.56752 2.9287611)
(4188.0768 -461.42762 14.427928)
(4183.1745 -472.61489 26.169349)
(4178.0757 -477.51864 43.202605)
(4343.0267 -463.34938 -34.140466)
(4347.6525 -473.83148 -20.301425)
(4352.1409 -479.47917 -10.297307)
(4354.2921 -487.77616 -0.9459437)
(4355.8703 -494.80942 9.4275991)
(4352.0448 -504.5857 18.882079)
(4348.2974 -510.022 33.333287)
(4521.1595 -491.45292 -23.382835)
(4523.6645 -499.84548 -15.289381)
(4528.0948 -504.57313 -9.8514257)
(4530.8103 -512.18133 -3.7624627)
(4532.5557 -518.42467 3.6463375)