/*--------------------------------*- C++ -*----------------------------------*\
  =========                 |
  \\      /  F ield         | OpenFOAM: The Open Source CFD Toolbox
   \\    /   O peration     | Website:  https://openfoam.org
    \\  /    A nd           | Version:  6
     \\/     M anipulation  |
\*---------------------------------------------------------------------------*/
FoamFile
{
    version     2.0;
    format      ascii;
    class       pointVectorField;
    location    "0.61";
    object      u;
}
// * * * * * * * * * * * * * * * * * * * * * * * * * * * * * * * * * * * * * //

dimensions      [0 1 0 0 0 0 0];

internalField   nonuniform List<vector> 
3969
(
(0 0 0)
(0 0 0)
(2.2527088 -0.21772875 0.012025331)
(2.1151122 -0.72320931 0.0071688613)
(0 0 0)
(0 0 0)
(2.1176081 -0.72839788 0.0066875184)
(2.2551206 -0.22312452 0.011574337)
(0 0 0)
(0 0 0)
(0 0 0)
(0 0 0)
(0 0 0)
(0 0 0)
(0 0 0)
(2.2350022 -0.28154571 0.011007743)
(2.2175004 -0.34452128 0.010499247)
(2.2002446 -0.40731037 0.0099315458)
(2.1832146 -0.47003911 0.0095586202)
(2.1662909 -0.53284636 0.0090926751)
(2.1493934 -0.59582841 0.0086839925)
(2.1325212 -0.65921647 0.0080115466)
(0.0068012792 0.01431137 0.015116323)
(0.011358156 0.02491653 0.018479824)
(0.019751274 0.036628454 0.020422023)
(0.032204109 0.047919672 0.020761323)
(0.047550746 0.059062051 0.020799482)
(0.066573314 0.069440642 0.02023985)
(0.088285001 0.079142121 0.019908372)
(0.11324353 0.08792346 0.019154162)
(0.14066393 0.095730077 0.018712854)
(0.17083935 0.10254703 0.017953686)
(0.20337711 0.10840078 0.017439568)
(0.23819022 0.11315354 0.016821195)
(0.27515661 0.11689791 0.016216186)
(0.31412485 0.11966983 0.015683895)
(0.35498284 0.12132763 0.015122254)
(0.39752348 0.12207872 0.014602853)
(0.4417488 0.12185318 0.014148218)
(0.48745707 0.12069189 0.013710376)
(0.53462737 0.11862806 0.013331241)
(0.58309776 0.11569456 0.012982033)
(0.63284746 0.11190943 0.012683595)
(0.6837577 0.10733959 0.012419636)
(0.73579195 0.10196965 0.012192408)
(0.78887716 0.09587707 0.011998658)
(0.84294853 0.089016015 0.011826496)
(0.89797766 0.081549543 0.011696225)
(0.95388809 0.073352128 0.011584905)
(1.0106683 0.064533817 0.01148039)
(1.0682655 0.055081604 0.011409561)
(1.1266011 0.045014442 0.011343595)
(1.1856753 0.034362299 0.011294902)
(1.2454144 0.023128409 0.011259865)
(1.3057839 0.011331286 0.011229722)
(1.3667218 -0.00099481771 0.011214065)
(1.4282155 -0.013866117 0.011200386)
(1.4901442 -0.027263979 0.011214762)
(1.5525716 -0.041048166 0.011189417)
(1.6152725 -0.055485436 0.011243958)
(1.6784 -0.070106219 0.011214769)
(1.7416949 -0.085415953 0.011312284)
(1.8053085 -0.10084861 0.011284578)
(1.8689933 -0.11679444 0.011398126)
(1.9328639 -0.13306339 0.011449578)
(1.9967554 -0.14937858 0.011523554)
(2.0606723 -0.16633734 0.011714909)
(2.1245915 -0.18306742 0.011828414)
(2.1883724 -0.20011175 0.012153108)
(0.0006000967 -0.014380077 -0.018659759)
(0.0062111031 -0.023504966 -0.019484503)
(0.012573143 -0.034540864 -0.023448532)
(0.022584482 -0.045380837 -0.022626644)
(0.036335762 -0.057352673 -0.022839516)
(0.052417782 -0.069176412 -0.021819472)
(0.071493072 -0.081148363 -0.021191232)
(0.092894523 -0.093270794 -0.020231266)
(0.11682068 -0.10542567 -0.019413766)
(0.14311387 -0.11779168 -0.018511193)
(0.17147239 -0.13016559 -0.017709893)
(0.20214018 -0.14280232 -0.016871309)
(0.23464368 -0.15552109 -0.01611347)
(0.26922408 -0.16843085 -0.015298926)
(0.30554707 -0.18156802 -0.014543858)
(0.34369158 -0.19483483 -0.013776935)
(0.3834821 -0.20837687 -0.013039729)
(0.42483264 -0.22205093 -0.012316827)
(0.46769426 -0.23601796 -0.011612381)
(0.51195664 -0.25014041 -0.010941604)
(0.55752229 -0.26457719 -0.010278236)
(0.60441422 -0.2791601 -0.0096714851)
(0.65244709 -0.29408278 -0.0090359601)
(0.70167651 -0.3092171 -0.0084695998)
(0.75194278 -0.32457388 -0.0079206378)
(0.80329477 -0.34019952 -0.0073788243)
(0.85556408 -0.35602018 -0.0068455472)
(0.90889426 -0.37218153 -0.0063076856)
(0.96313758 -0.38852827 -0.0058061661)
(1.018246 -0.40510706 -0.0052637894)
(1.0742249 -0.42192273 -0.0047322185)
(1.1310011 -0.43895509 -0.0041624125)
(1.1885604 -0.4561756 -0.003585061)
(1.2468526 -0.47358702 -0.0029742916)
(1.3058413 -0.49114685 -0.0023434551)
(1.3654849 -0.50886808 -0.0016770436)
(1.4257343 -0.52666535 -0.0010091011)
(1.4865506 -0.5445736 -0.00027409678)
(1.5478906 -0.56257399 0.00044349032)
(1.6096929 -0.58054306 0.0011910223)
(1.6719033 -0.59856588 0.0019489081)
(1.7344896 -0.61658046 0.0027161666)
(1.7973745 -0.6344945 0.0034660876)
(1.8605372 -0.6524031 0.0042334145)
(1.9238679 -0.67017246 0.0049640588)
(1.9874258 -0.68785492 0.0056662383)
(2.051017 -0.70549938 0.0063829538)
(0 0 0)
(0 0 0)
(0 0 0)
(0 0 0)
(0 0 0)
(0 0 0)
(0 0 0)
(0.0054341504 -0.0093401369 0.014336398)
(0.0078024832 -0.028254507 0.020105026)
(0.013259707 -0.031641813 0.020691844)
(0.024046549 -0.047268072 0.021494082)
(0.037672077 -0.057532291 0.021130071)
(0.053934385 -0.069472421 0.019949333)
(0.073157724 -0.082153858 0.019440933)
(0.094746625 -0.09361425 0.018133679)
(0.11870943 -0.10658579 0.017537474)
(0.14502478 -0.1185195 0.0163447)
(0.17341342 -0.13156803 0.015988631)
(0.2040253 -0.14374047 0.014943887)
(0.23676724 -0.15686214 0.014204536)
(0.27141413 -0.1698573 0.013423384)
(0.30785738 -0.18302102 0.012702025)
(0.34601379 -0.19655456 0.012071781)
(0.38587277 -0.21010547 0.011430622)
(0.42722817 -0.22401325 0.010888308)
(0.47011068 -0.23805914 0.010365985)
(0.51437048 -0.25236985 0.0099029138)
(0.55997619 -0.26689196 0.0094909383)
(0.60683786 -0.2816613 0.0091216736)
(0.65492362 -0.29666526 0.0087894427)
(0.70413725 -0.31188678 0.0084935465)
(0.75449034 -0.32745926 0.0081945984)
(0.80599726 -0.34322392 0.0078590478)
(0.85826293 -0.35931769 0.0077246143)
(0.91161663 -0.3755439 0.0074901022)
(0.96585047 -0.39208171 0.0073397505)
(1.0210072 -0.40882912 0.0071633123)
(1.0769928 -0.42579384 0.0070004118)
(1.1337936 -0.44298989 0.0068590332)
(1.191358 -0.46037195 0.0067261784)
(1.2496566 -0.4779217 0.0066031807)
(1.3086432 -0.49563318 0.0064870686)
(1.368273 -0.51350385 0.0064109617)
(1.4285146 -0.53135395 0.0063092439)
(1.4892875 -0.54946462 0.0062627002)
(1.5505915 -0.56749218 0.0062145681)
(1.6123638 -0.58559759 0.0061914755)
(1.6745392 -0.60367155 0.0061818764)
(1.7370962 -0.62173012 0.0062031265)
(1.7999452 -0.63971291 0.0062463336)
(1.8630838 -0.65762545 0.0063124445)
(1.9264031 -0.67541812 0.0064068883)
(1.9899262 -0.69310804 0.0065470211)
(2.0534479 -0.71073993 0.0066785895)
(2.1350825 -0.66444694 0.0070939619)
(2.1518686 -0.60116202 0.0076654887)
(2.1687708 -0.53810484 0.0084220338)
(2.1856594 -0.47543528 0.0091538959)
(2.2026558 -0.41264395 0.010005452)
(2.2198704 -0.34988248 0.010644184)
(2.2374554 -0.28698528 0.011311613)
(2.190937 -0.20555019 0.010654821)
(2.1269053 -0.18849866 0.010018107)
(2.0630273 -0.17154708 0.0092863199)
(1.9990881 -0.15474751 0.0085679001)
(1.9351655 -0.13819748 0.0077868485)
(1.8713096 -0.12188956 0.0069917886)
(1.8075718 -0.10590345 0.0062025662)
(1.7439905 -0.090240328 0.005402492)
(1.6806273 -0.07495383 0.0046035705)
(1.6175552 -0.060038999 0.0038159514)
(1.5547166 -0.045549214 0.003052928)
(1.4924852 -0.031747622 0.002352442)
(1.4304095 -0.018044252 0.001562587)
(1.3689634 -0.0050976126 0.00087761753)
(1.3079993 0.0074166812 0.00016699231)
(1.2476283 0.019352101 -0.00049714043)
(1.1878698 0.030744188 -0.0011516509)
(1.1287928 0.041534317 -0.0017919291)
(1.0704264 0.051746707 -0.0024159093)
(1.012825 0.061319531 -0.0030298597)
(0.9560283 0.070286102 -0.003650271)
(0.90008414 0.078580475 -0.0042617864)
(0.84503626 0.086220979 -0.0048817659)
(0.79091885 0.093163329 -0.005517567)
(0.7378114 0.099389412 -0.0061679129)
(0.68574615 0.10487786 -0.0068280806)
(0.63479452 0.1095927 -0.007516992)
(0.58501772 0.11350613 -0.0082119381)
(0.53650468 0.11657981 -0.0089320978)
(0.48930804 0.11878602 -0.0096622208)
(0.44355929 0.12009102 -0.010419558)
(0.39929684 0.12048136 -0.011176162)
(0.3566978 0.11986511 -0.011966213)
(0.31585136 0.11820012 -0.012663473)
(0.27694162 0.11560122 -0.0135236)
(0.23987462 0.11198119 -0.01417783)
(0.20507905 0.10728239 -0.015037185)
(0.1724048 0.10155166 -0.015728549)
(0.14219271 0.094852224 -0.016691398)
(0.11466062 0.086966683 -0.017265109)
(0.089843658 0.078480168 -0.018096327)
(0.067598371 0.068645987 -0.018719077)
(0.048884914 0.058487189 -0.019353442)
(0.032920265 0.047239445 -0.019473164)
(0.021060743 0.036306394 -0.019016456)
(0.01175264 0.023688155 -0.017430798)
(0.011616624 0.013797562 -0.011367154)
(0 0 0)
(0 0 0)
(0 0 0)
(0 0 0)
(0 0 0)
(0 0 0)
(0 0 0)
(0 0 0)
(0 0 0)
(0 0 0)
(0 0 0)
(0 0 0)
(0 0 0)
(0 0 0)
(2.1153701 -0.7241335 0.0070398433)
(2.1156994 -0.72492808 0.0069868299)
(2.1160169 -0.72564553 0.0069404127)
(2.1163311 -0.72633747 0.0069450882)
(2.1166426 -0.72699086 0.0069204566)
(2.116956 -0.72754624 0.0069233398)
(2.1172487 -0.72814041 0.0067758413)
(2.2533353 -0.21819763 0.011997508)
(2.2536967 -0.21886182 0.011970373)
(2.2540526 -0.21949559 0.011866678)
(2.2543919 -0.22015321 0.011772359)
(2.2546849 -0.22082111 0.011688065)
(2.2549226 -0.22153691 0.011608812)
(2.2552147 -0.22221561 0.011605602)
(0.00067730586 0.0015778814 0.013312544)
(0.0038906284 0.0012350953 0.013145812)
(0.0095109942 0.0021728033 0.015305375)
(0.019060356 0.0030494674 0.015706494)
(0.03132029 0.0041095972 0.015798046)
(0.047375173 0.0057821872 0.015753381)
(0.065965223 0.0073658142 0.015324395)
(0.087890337 0.0095210104 0.015134613)
(0.11260375 0.01158762 0.014549743)
(0.14025845 0.014066364 0.014231051)
(0.17065411 0.016591604 0.013733909)
(0.20376506 0.019348836 0.013251818)
(0.23957101 0.022252702 0.012815385)
(0.27787332 0.025211644 0.012337106)
(0.318658 0.028235411 0.011930679)
(0.36178277 0.031231188 0.011523342)
(0.40716982 0.034154381 0.011144626)
(0.45459569 0.036904845 0.010817733)
(0.50404952 0.039442914 0.010507021)
(0.55531439 0.041648459 0.010238068)
(0.60829655 0.043457556 0.010013461)
(0.6628203 0.04476776 0.0098130921)
(0.71877861 0.045488164 0.009659934)
(0.7759746 0.045524475 0.0095300524)
(0.8343466 0.044788761 0.0094446302)
(0.89368773 0.043159802 0.0093433126)
(0.95387423 0.040577675 0.009293201)
(1.0147845 0.036973005 0.0092613339)
(1.0762767 0.032203381 0.0092362276)
(1.138206 0.026279721 0.0092303929)
(1.2004746 0.019098825 0.0092425433)
(1.2629432 0.010620743 0.0092627438)
(1.3255068 0.00083620364 0.0092994164)
(1.3880667 -0.010302574 0.0093509437)
(1.4505376 -0.022776677 0.0094150434)
(1.5127975 -0.036557373 0.0094915328)
(1.5748602 -0.051647325 0.0095692687)
(1.6365569 -0.068009731 0.0097014726)
(1.6979841 -0.085493698 0.0097936)
(1.7589751 -0.10419287 0.0099584925)
(1.8196245 -0.12378294 0.010072868)
(1.8798559 -0.14449231 0.010282333)
(1.9397589 -0.16581922 0.010397543)
(1.9992452 -0.18800038 0.010637962)
(2.0584928 -0.21079968 0.01080838)
(2.1173696 -0.23382709 0.010987941)
(2.1760929 -0.25762955 0.011129548)
(-0.0037077393 -0.0049728482 0.0090226888)
(-0.0018584339 -0.01237099 0.0088769938)
(0.003405048 -0.016197893 0.010479821)
(0.011464161 -0.021486534 0.010493933)
(0.022967132 -0.025270783 0.010746808)
(0.037191396 -0.028774281 0.01043404)
(0.05456765 -0.031581261 0.010526348)
(0.075098566 -0.033718389 0.010018628)
(0.098432923 -0.035282145 0.010009085)
(0.12483937 -0.036014474 0.0096459547)
(0.1541273 -0.036202918 0.0093987282)
(0.18631006 -0.035583387 0.0091213116)
(0.22131324 -0.034428979 0.0088638043)
(0.25911843 -0.032657863 0.0085949844)
(0.29960946 -0.030395408 0.0083537834)
(0.34267847 -0.027667297 0.0080618362)
(0.38817371 -0.024615841 0.007837515)
(0.43603123 -0.021338923 0.0076200435)
(0.48609408 -0.017986184 0.0074277782)
(0.53821998 -0.014672211 0.007277366)
(0.59223525 -0.011552029 0.007146633)
(0.64798335 -0.0087394703 0.0070437033)
(0.70524055 -0.0064011397 0.0069762831)
(0.7639199 -0.0046474075 0.0069347122)
(0.82376105 -0.0036893836 0.0068960179)
(0.88461371 -0.0035698284 0.0069313925)
(0.94630884 -0.0045333182 0.0069700861)
(1.0086862 -0.0066421936 0.006999072)
(1.0715331 -0.010011929 0.0070917611)
(1.1347323 -0.014772773 0.0071748337)
(1.1981051 -0.021000784 0.007280527)
(1.2614982 -0.028764564 0.0074101315)
(1.324785 -0.038120413 0.0075470456)
(1.3878431 -0.04910183 0.0077065329)
(1.4505435 -0.061694232 0.0078707679)
(1.5128131 -0.07595131 0.0080635196)
(1.5746003 -0.091744328 0.0082413122)
(1.6357331 -0.10916678 0.0084836071)
(1.6964103 -0.12791918 0.0086373607)
(1.7562714 -0.14824343 0.0089238472)
(1.8157493 -0.16965811 0.0090786187)
(1.8744123 -0.19239454 0.0093615298)
(1.9327008 -0.21602051 0.009546498)
(1.9903233 -0.24063085 0.0098184223)
(2.0475984 -0.26592582 0.010028353)
(2.104435 -0.29178117 0.010226128)
(2.161138 -0.31818405 0.01039452)
(-0.006191947 -0.0046320094 0.0054294616)
(-0.0034576788 -0.0098606032 0.0050550167)
(0.0017313888 -0.013955439 0.0055844233)
(0.011164372 -0.017921867 0.0055651784)
(0.02312196 -0.021814001 0.0054720653)
(0.038735482 -0.025071763 0.0054953509)
(0.057081687 -0.028575934 0.0050898322)
(0.07834247 -0.031386008 0.0051915291)
(0.10247768 -0.034173055 0.0050104576)
(0.12945797 -0.036494049 0.0048596803)
(0.15905467 -0.038490662 0.0048023667)
(0.19135691 -0.040237361 0.0046752182)
(0.22625394 -0.041613411 0.0045619206)
(0.26361743 -0.042787197 0.0044922228)
(0.30347499 -0.04366851 0.0044471507)
(0.34564439 -0.044445404 0.0043579399)
(0.39005438 -0.045114518 0.0043192356)
(0.436556 -0.045785818 0.0042554901)
(0.48504883 -0.04653139 0.0042555946)
(0.5353525 -0.047421678 0.0042595978)
(0.58736056 -0.048561523 0.0043037233)
(0.6409071 -0.050043633 0.004361315)
(0.69595555 -0.051952035 0.0044435809)
(0.75223465 -0.054446837 0.0045188935)
(0.80967962 -0.057538082 0.0046572654)
(0.86814179 -0.061399339 0.0047563692)
(0.92751851 -0.066093684 0.0048529242)
(0.98760971 -0.0716962 0.0050018125)
(1.0483333 -0.078304155 0.0051367243)
(1.1095398 -0.085989846 0.0052773078)
(1.1711052 -0.094784989 0.0054502349)
(1.232923 -0.10477375 0.0056237483)
(1.2948862 -0.11596023 0.0058152209)
(1.3568785 -0.12836544 0.006020203)
(1.4188274 -0.1420275 0.0062482872)
(1.4806525 -0.15686569 0.0064731473)
(1.5422457 -0.17295025 0.0067398919)
(1.6036461 -0.19010865 0.0069840166)
(1.664712 -0.20843189 0.0072603742)
(1.7254427 -0.22775478 0.0075814284)
(1.7859058 -0.24793489 0.0078219076)
(1.8458677 -0.26915103 0.008238806)
(1.9057188 -0.29089063 0.008444414)
(1.965025 -0.31348424 0.0088832051)
(2.0243013 -0.33652201 0.0091037142)
(2.083172 -0.35992826 0.0094429652)
(2.1419313 -0.38371745 0.0097348407)
(-0.0060597846 0.00069931746 0.00077516242)
(-0.0017889911 0.0010272981 -0.00048266387)
(0.0055713922 0.0024273517 -0.00030891963)
(0.016817945 0.0027573576 -0.0004309553)
(0.031755264 0.0028563388 -0.00028947301)
(0.049518817 0.0027491876 -0.00049253825)
(0.070257597 0.0015509183 -9.0937194e-05)
(0.093699046 0.00034034184 -0.00017333822)
(0.11982084 -0.0019117597 5.1206761e-06)
(0.14831126 -0.0044431734 0.00016136268)
(0.1791818 -0.007842769 0.00024792025)
(0.21233319 -0.01173113 0.00030021014)
(0.24746003 -0.016241259 0.00036176163)
(0.28462693 -0.021458172 0.00048319899)
(0.3236113 -0.027165535 0.00052230738)
(0.36438445 -0.033563566 0.00063461673)
(0.40671423 -0.040496849 0.00072466002)
(0.45062062 -0.048063094 0.00086387061)
(0.4959129 -0.056189629 0.0010102512)
(0.54258862 -0.064878458 0.0011594301)
(0.59053879 -0.074123558 0.0013117047)
(0.63977232 -0.083866636 0.0014651269)
(0.69002292 -0.094146385 0.0016293406)
(0.74139611 -0.1048875 0.0018325541)
(0.79380294 -0.11611179 0.0019866322)
(0.84721187 -0.12779101 0.0021673232)
(0.90152527 -0.13991944 0.0023997283)
(0.95674087 -0.15248839 0.0026223051)
(1.0128226 -0.16547999 0.002841741)
(1.0697141 -0.17889342 0.0031062021)
(1.1273944 -0.19269702 0.0033550969)
(1.1858157 -0.20691166 0.0036360959)
(1.2449273 -0.22147066 0.0039164992)
(1.3047091 -0.23642387 0.0042311181)
(1.3650958 -0.25167484 0.0045337076)
(1.4260334 -0.26729576 0.0048910823)
(1.4875278 -0.28315748 0.0052155968)
(1.5494355 -0.29934766 0.0055944577)
(1.6117754 -0.31576872 0.0059818856)
(1.6744833 -0.33237536 0.0063429529)
(1.7375399 -0.34925973 0.0067564096)
(1.8008069 -0.36626592 0.0071525557)
(1.8644137 -0.38337584 0.0075111202)
(1.9280207 -0.40072003 0.0079917631)
(1.9919463 -0.41799387 0.0083071421)
(2.0557134 -0.43540508 0.0088130384)
(2.119715 -0.45288224 0.0091530219)
(-0.0057556886 0.0053559589 -0.003892573)
(0.0010199153 0.012127775 -0.0052514124)
(0.0098426344 0.017465967 -0.0055048299)
(0.02399835 0.022152442 -0.0056963625)
(0.041087968 0.025626697 -0.0057950495)
(0.061502553 0.028164121 -0.0054655746)
(0.084656984 0.029146462 -0.0053699852)
(0.11047364 0.02913689 -0.0052085545)
(0.13848402 0.02736834 -0.0048712943)
(0.16874579 0.024403871 -0.0047132758)
(0.20087339 0.019786736 -0.0045212867)
(0.23466217 0.013901618 -0.0042517873)
(0.26998902 0.0063149806 -0.0039378678)
(0.30675369 -0.0025689857 -0.0036703172)
(0.34475551 -0.012948032 -0.0033616423)
(0.3839088 -0.024644299 -0.0030415012)
(0.42411645 -0.037598082 -0.0027567343)
(0.46527893 -0.051732107 -0.0024418657)
(0.50737266 -0.066920747 -0.0021476321)
(0.55033074 -0.083080017 -0.0018399512)
(0.59418386 -0.1000475 -0.0015395545)
(0.63878568 -0.11777604 -0.0011984954)
(0.68431837 -0.13604779 -0.00088279834)
(0.73071471 -0.15485621 -0.00058271487)
(0.77809445 -0.17398533 -0.00027861462)
(0.82638744 -0.19333846 4.8254552e-05)
(0.8757202 -0.21281312 0.00035571305)
(0.92610992 -0.23227074 0.00063651252)
(0.97760227 -0.25161149 0.00094391641)
(1.0302359 -0.2707346 0.0012376777)
(1.0840705 -0.28955548 0.0015419529)
(1.1391168 -0.30800863 0.0018609145)
(1.1954228 -0.32601296 0.0021869871)
(1.2529888 -0.34351937 0.002522677)
(1.3118038 -0.3605002 0.002890303)
(1.3719022 -0.37689022 0.0032510942)
(1.4331917 -0.39270474 0.0036478107)
(1.4956813 -0.40795707 0.0040762451)
(1.5592773 -0.42255254 0.0044567852)
(1.6240067 -0.43660572 0.0049306814)
(1.6896161 -0.45009867 0.0053854218)
(1.7561437 -0.46306425 0.0058722084)
(1.8234022 -0.47558206 0.0063687409)
(1.8912688 -0.48768729 0.0069076018)
(1.959733 -0.49936575 0.007378963)
(2.0284913 -0.51083579 0.0079629387)
(2.0976046 -0.52201714 0.0084638097)
(-0.0042531809 0.0053240671 -0.0093152473)
(0.0040517095 0.011928876 -0.010600532)
(0.013623334 0.017274282 -0.011672789)
(0.028514318 0.021634011 -0.011902281)
(0.046459665 0.024628866 -0.011549343)
(0.067584865 0.026515029 -0.011266413)
(0.091498814 0.026606894 -0.010836339)
(0.11784609 0.025464744 -0.010318101)
(0.14635352 0.022388212 -0.0098747201)
(0.17685255 0.017894379 -0.009369254)
(0.208994 0.011448326 -0.0088993932)
(0.24264627 0.0033826321 -0.0083958315)
(0.27764993 -0.0065330367 -0.0079770367)
(0.31380031 -0.018054427 -0.0074993883)
(0.35096386 -0.031272188 -0.0070468076)
(0.38906602 -0.046022852 -0.0065950212)
(0.42796955 -0.062271933 -0.006171267)
(0.46765861 -0.079837646 -0.0057235911)
(0.50804114 -0.098683474 -0.0053035639)
(0.54914149 -0.1185623 -0.0048801806)
(0.59089789 -0.13944916 -0.0044725916)
(0.63352239 -0.16097483 -0.0040449157)
(0.67674052 -0.18320786 -0.0037023233)
(0.72084365 -0.20597964 -0.0032841179)
(0.76582872 -0.2289047 -0.0029199878)
(0.81175537 -0.25196805 -0.0025598961)
(0.85878116 -0.27493207 -0.0022007856)
(0.90690585 -0.29768917 -0.0018216862)
(0.95624224 -0.32005717 -0.0014642018)
(1.0068818 -0.34197117 -0.0010841986)
(1.0588701 -0.36326097 -0.00070530071)
(1.1122937 -0.38385055 -0.0003007548)
(1.167194 -0.40362527 9.9733588e-05)
(1.2236032 -0.42257634 0.00054630634)
(1.2815592 -0.44053503 0.00097277273)
(1.3410457 -0.45761336 0.001463774)
(1.4020608 -0.47366466 0.0019452508)
(1.4645523 -0.48873889 0.0024608248)
(1.5284951 -0.50291064 0.0030041437)
(1.5937572 -0.51610796 0.0035540772)
(1.6603006 -0.52836715 0.0041217166)
(1.7279935 -0.53983632 0.0047141333)
(1.7966348 -0.55057595 0.0053299286)
(1.8661952 -0.56059553 0.0059287477)
(1.9364086 -0.57003609 0.0065484545)
(2.0071676 -0.57903444 0.0072169653)
(2.0783389 -0.58754587 0.0078724448)
(-0.0022820258 -0.002973502 -0.013294465)
(0.005005871 -0.00098922341 -0.015118138)
(0.013226866 -0.0020952799 -0.01710104)
(0.026974077 -0.0033019003 -0.017092089)
(0.043140619 -0.0058038876 -0.016837916)
(0.06288559 -0.0093418777 -0.016343722)
(0.085026541 -0.013947147 -0.015699393)
(0.10975405 -0.019495895 -0.015065651)
(0.13668217 -0.026328502 -0.014424272)
(0.16564078 -0.034086657 -0.013730561)
(0.19653073 -0.043309949 -0.013100943)
(0.22899581 -0.053453827 -0.012500565)
(0.26309593 -0.06506345 -0.011820945)
(0.29849978 -0.077704466 -0.011210142)
(0.3352596 -0.091582121 -0.01059836)
(0.37312639 -0.10653198 -0.010006658)
(0.41212014 -0.12255663 -0.0094151143)
(0.45208228 -0.13955165 -0.0088524047)
(0.49300542 -0.15745187 -0.0082924956)
(0.53482762 -0.1761479 -0.0077603955)
(0.5775666 -0.19552837 -0.0072393343)
(0.62111752 -0.21552289 -0.0067251427)
(0.66568361 -0.23597304 -0.0062438506)
(0.71107227 -0.25683615 -0.0057514477)
(0.75743246 -0.27787475 -0.0053244649)
(0.80476605 -0.29906964 -0.0048617298)
(0.8531495 -0.32026757 -0.0044015549)
(0.90262629 -0.34137423 -0.003966135)
(0.95323738 -0.3622882 -0.0035336716)
(1.0050213 -0.38294476 -0.0030776779)
(1.0580112 -0.40320488 -0.0026329916)
(1.1122673 -0.42303569 -0.0021614884)
(1.167789 -0.44235856 -0.001680035)
(1.2246116 -0.46110698 -0.0011796241)
(1.2827298 -0.47924437 -0.00066305463)
(1.3421398 -0.49675947 -0.00010828774)
(1.402797 -0.5135615 0.00043906473)
(1.4647186 -0.52974968 0.0010597066)
(1.5277721 -0.54521541 0.0016469076)
(1.591936 -0.56004168 0.0022964329)
(1.6571207 -0.57418662 0.0029459567)
(1.7232246 -0.58776028 0.0036331207)
(1.7901143 -0.60075157 0.0043182469)
(1.8577296 -0.61318616 0.0049913478)
(1.9258287 -0.62521284 0.0057190209)
(1.9944383 -0.63679489 0.0063906632)
(2.0632738 -0.6479908 0.0071311608)
(0 0 0)
(0 0 0)
(0 0 0)
(0 0 0)
(0 0 0)
(0 0 0)
(0 0 0)
(0 0 0)
(0 0 0)
(0 0 0)
(0 0 0)
(0 0 0)
(0 0 0)
(0 0 0)
(0 0 0)
(0 0 0)
(0 0 0)
(0 0 0)
(0 0 0)
(0 0 0)
(0 0 0)
(0 0 0)
(0 0 0)
(0 0 0)
(0 0 0)
(0 0 0)
(0 0 0)
(0 0 0)
(0 0 0)
(0 0 0)
(0 0 0)
(0 0 0)
(0 0 0)
(0 0 0)
(0 0 0)
(0 0 0)
(0 0 0)
(0 0 0)
(0 0 0)
(0 0 0)
(0 0 0)
(0 0 0)
(0 0 0)
(0 0 0)
(0 0 0)
(0 0 0)
(0 0 0)
(0 0 0)
(0 0 0)
(0.0062151496 -0.0042938206 -0.0097805821)
(0.0076547743 -0.0056140286 -0.0067279344)
(0.0091975355 -0.0059296666 -0.0035317796)
(0.0098479304 -0.0062561924 -0.00091374119)
(0.009515693 -0.0057995062 0.001780293)
(0.0089724866 -0.0060568242 0.004628872)
(0.0073359838 -0.0039074314 0.007712504)
(0.01175395 -0.022686085 -0.016127491)
(0.014989494 -0.025172096 -0.0091879561)
(0.01643075 -0.023684317 -0.0043292814)
(0.01672196 -0.022995401 -0.00040300776)
(0.01687336 -0.02420794 0.0034838016)
(0.01510772 -0.023843718 0.0081091061)
(0.013177249 -0.023617141 0.014026595)
(0.017558911 -0.032015852 -0.017159202)
(0.021642179 -0.030765327 -0.012172552)
(0.024167023 -0.032048158 -0.0058341025)
(0.02458283 -0.03201385 -0.00091468909)
(0.02433242 -0.031273377 0.0047713246)
(0.022251145 -0.031395818 0.0091039892)
(0.019473803 -0.032612593 0.01651617)
(0.028358353 -0.046272218 -0.017207903)
(0.031778034 -0.047103381 -0.012173341)
(0.033945929 -0.046663996 -0.0058570237)
(0.034789696 -0.046617034 -0.00099172764)
(0.034326564 -0.046643399 0.004579474)
(0.032452783 -0.047319638 0.010552215)
(0.028862465 -0.046444664 0.015818521)
(0.041330608 -0.058319853 -0.01750137)
(0.045157133 -0.058247609 -0.012344654)
(0.04785057 -0.05876652 -0.0064802456)
(0.048518841 -0.05861546 -0.00086968058)
(0.048184771 -0.058817664 0.0048132827)
(0.046202032 -0.058528711 0.0099919118)
(0.043099007 -0.058815593 0.016261603)
(0.057439586 -0.070505823 -0.016662163)
(0.060790914 -0.070861848 -0.01184594)
(0.063096949 -0.070807175 -0.0060345294)
(0.063919042 -0.07116971 -0.0011090403)
(0.063444442 -0.070916737 0.0046257108)
(0.061641372 -0.070986744 0.010089104)
(0.058303787 -0.07045589 0.01518066)
(0.076149297 -0.082608904 -0.016300198)
(0.079527141 -0.083134138 -0.011325214)
(0.081876549 -0.08380972 -0.0060602532)
(0.082613318 -0.083912082 -0.0011176621)
(0.08234993 -0.084084934 0.0044400085)
(0.080474748 -0.084189346 0.0092302194)
(0.077644277 -0.083725435 0.014785068)
(0.097355881 -0.094795664 -0.015471087)
(0.10056361 -0.095617704 -0.011045868)
(0.10272283 -0.095899746 -0.0057412059)
(0.10355927 -0.096106621 -0.001014307)
(0.10309229 -0.095950853 0.0039724129)
(0.10160516 -0.095613309 0.0090494021)
(0.098615727 -0.094946644 0.013732594)
(0.12113464 -0.10714096 -0.014943031)
(0.12416858 -0.10781514 -0.01033169)
(0.12626367 -0.10843486 -0.0056259581)
(0.12695914 -0.10870429 -0.0010791562)
(0.12670146 -0.10897247 0.0037789831)
(0.12514335 -0.1086084 0.008357725)
(0.1225 -0.10825893 0.013272985)
(0.14707933 -0.11934087 -0.014196292)
(0.1500086 -0.12029746 -0.010058964)
(0.15197622 -0.12077965 -0.0054563793)
(0.15282957 -0.12125259 -0.00089974295)
(0.1524104 -0.12100737 0.0035770984)
(0.15107353 -0.12065696 0.0080429352)
(0.14850435 -0.11999283 0.01239314)
(0.17540155 -0.13189159 -0.013557694)
(0.17812378 -0.13277622 -0.0095467158)
(0.18009333 -0.13347531 -0.0050300102)
(0.18075027 -0.13355899 -0.0010709296)
(0.18056388 -0.13379429 0.0034098472)
(0.17918286 -0.1334497 0.007417486)
(0.17677562 -0.13301289 0.012009257)
(0.20575145 -0.14441221 -0.013006611)
(0.20847356 -0.14538113 -0.0089871295)
(0.21017467 -0.14598603 -0.005072355)
(0.21094963 -0.14648983 -0.00095334544)
(0.21069284 -0.14644484 0.003148476)
(0.20940919 -0.14597164 0.0070721636)
(0.20731857 -0.1455151 0.011354035)
(0.2382673 -0.15728215 -0.01235308)
(0.24065969 -0.15812327 -0.0085782814)
(0.24239932 -0.15891395 -0.0047814184)
(0.24315737 -0.15906537 -0.00092826514)
(0.24293361 -0.15915328 0.0029925264)
(0.24169088 -0.15893851 0.0066749722)
(0.23969094 -0.15831287 0.010625022)
(0.27258709 -0.17010119 -0.011785873)
(0.27487654 -0.1710504 -0.0081418603)
(0.27667363 -0.17179092 -0.0046221656)
(0.27722497 -0.17209862 -0.00090977518)
(0.27712023 -0.17232181 0.0027846703)
(0.27596184 -0.17190645 0.0062179713)
(0.27420319 -0.17139898 0.01010019)
(0.3087496 -0.18328346 -0.011205034)
(0.31101885 -0.18420173 -0.0077028691)
(0.3126121 -0.18488582 -0.0044312617)
(0.31325572 -0.18523459 -0.00081191378)
(0.31317768 -0.18529745 0.00254646)
(0.31213361 -0.18498278 0.0059542608)
(0.31045385 -0.18445118 0.0095194698)
(0.34675503 -0.19653304 -0.010607142)
(0.34884552 -0.19742809 -0.0073130818)
(0.35042301 -0.1981967 -0.004192419)
(0.35103772 -0.19853243 -0.0008448142)
(0.35096981 -0.19870296 0.0024473668)
(0.34999352 -0.19841264 0.0055842134)
(0.34845019 -0.19790912 0.0090328339)
(0.38633291 -0.21001803 -0.010050426)
(0.38838562 -0.21096656 -0.0068895341)
(0.38987163 -0.21169474 -0.003990393)
(0.39047543 -0.21201235 -0.00073132485)
(0.39045379 -0.21218913 0.0023037921)
(0.38956588 -0.21187789 0.0053244121)
(0.38812959 -0.21141882 0.0085760973)
(0.42756994 -0.22371579 -0.0094596305)
(0.42949881 -0.22463441 -0.0065278025)
(0.43094046 -0.22538302 -0.0037204855)
(0.43151992 -0.22574888 -0.00068120305)
(0.43151401 -0.22593109 0.0022035912)
(0.43068593 -0.22567576 0.0050835026)
(0.42935363 -0.22522513 0.0081564264)
(0.47026387 -0.23763262 -0.0089260327)
(0.47211218 -0.23854538 -0.006117606)
(0.47350494 -0.23929993 -0.0034734616)
(0.47404769 -0.2396428 -0.00058428162)
(0.47408515 -0.23984731 0.0021485139)
(0.47331824 -0.23960164 0.0048777705)
(0.47208373 -0.23922158 0.0077771402)
(0.51439001 -0.25176147 -0.0083680206)
(0.51616377 -0.25266238 -0.0057282954)
(0.51748761 -0.2534263 -0.0032263653)
(0.51801805 -0.25381883 -0.00047856672)
(0.51808032 -0.25402274 0.0020950606)
(0.51735494 -0.25384512 0.0046974282)
(0.51623002 -0.25344714 0.0074428185)
(0.55986386 -0.26613648 -0.0078535516)
(0.56154716 -0.26703564 -0.0053507915)
(0.56282083 -0.26781103 -0.0029624747)
(0.56334721 -0.26817686 -0.0003652635)
(0.56341952 -0.26841746 0.0020804977)
(0.56276699 -0.26823348 0.004549847)
(0.56171465 -0.2678946 0.0071525646)
(0.60661131 -0.28074181 -0.0073401089)
(0.60822081 -0.28163461 -0.004967067)
(0.60945464 -0.28239814 -0.0027006837)
(0.60995184 -0.28281182 -0.00024840266)
(0.61005943 -0.28304057 0.0020850864)
(0.60942901 -0.28291862 0.0044247567)
(0.60847312 -0.28259488 0.0068983097)
(0.65455916 -0.29561104 -0.0068383266)
(0.65611252 -0.2964783 -0.0045916783)
(0.65728615 -0.29726186 -0.0024518576)
(0.65779291 -0.29766229 -0.00011745799)
(0.65788891 -0.29794831 0.0021035584)
(0.65733419 -0.29784659 0.0043081168)
(0.65645368 -0.29754414 0.0066764395)
(0.70368876 -0.3106899 -0.0063435353)
(0.70516575 -0.31160319 -0.0042336892)
(0.70630113 -0.31234267 -0.0021961344)
(0.70677428 -0.31281061 1.94708e-05)
(0.70692462 -0.31305845 0.0021136704)
(0.70640531 -0.31296802 0.0042302454)
(0.70558279 -0.3126988 0.0064843408)
(0.75386684 -0.32604507 -0.0059178301)
(0.75534514 -0.32694823 -0.003870439)
(0.7563868 -0.32765931 -0.0019686061)
(0.75692373 -0.32817691 0.00017381459)
(0.75702006 -0.32840573 0.002150643)
(0.75654454 -0.32844546 0.0041699975)
(0.75579138 -0.32821837 0.0062695797)
(0.80511376 -0.34164857 -0.0054572679)
(0.80656337 -0.34253241 -0.003544162)
(0.80753592 -0.34328536 -0.0017155181)
(0.808063 -0.34377303 0.00037903813)
(0.80813235 -0.34400544 0.0021274026)
(0.80780494 -0.34410066 0.0040637731)
(0.80713047 -0.34386515 0.0060118549)
(0.85737079 -0.3574954 -0.0050252498)
(0.85876228 -0.35838952 -0.003271778)
(0.85970494 -0.35913207 -0.0013896338)
(0.86028154 -0.35969009 0.00035760188)
(0.86041328 -0.35997018 0.0022512623)
(0.86007764 -0.36007006 0.0040810866)
(0.85937405 -0.35984581 0.0059723131)
(0.91066135 -0.37360068 -0.0045938744)
(0.91190783 -0.37448796 -0.0028840069)
(0.91291681 -0.37528402 -0.0011428901)
(0.9133761 -0.37577444 0.00051365548)
(0.91357079 -0.37608735 0.002382288)
(0.91324247 -0.37615044 0.0039991273)
(0.91263061 -0.37607671 0.005856061)
(0.96480226 -0.38991584 -0.0041821984)
(0.96606361 -0.39086302 -0.0025063525)
(0.96695175 -0.39160922 -0.00094039422)
(0.96748681 -0.39214606 0.0007520851)
(0.96761969 -0.39249518 0.0024112078)
(0.96737244 -0.3926378 0.0040027762)
(0.96679284 -0.39255061 0.0057785003)