/*--------------------------------*- C++ -*----------------------------------*\
  =========                 |
  \\      /  F ield         | OpenFOAM: The Open Source CFD Toolbox
   \\    /   O peration     | Website:  https://openfoam.org
    \\  /    A nd           | Version:  6
     \\/     M anipulation  |
\*---------------------------------------------------------------------------*/
FoamFile
{
    version     2.0;
    format      ascii;
    class       pointVectorField;
    location    "1.87";
    object      u;
}
// * * * * * * * * * * * * * * * * * * * * * * * * * * * * * * * * * * * * * //

dimensions      [0 1 0 0 0 0 0];

internalField   nonuniform List<vector> 
3969
(
(0 0 0)
(0 0 0)
(0.2290157 0.040122069 -0.0095711499)
(0.22411662 -0.058244517 -0.010173784)
(0 0 0)
(0 0 0)
(0.22454704 -0.05846087 -0.010215907)
(0.22948146 0.039718337 -0.0097412812)
(0 0 0)
(0 0 0)
(0 0 0)
(0 0 0)
(0 0 0)
(0 0 0)
(0 0 0)
(0.22819554 0.026985056 -0.010093596)
(0.22723474 0.014783628 -0.010031665)
(0.22640835 0.0028373443 -0.010069467)
(0.22576261 -0.008968636 -0.0099030347)
(0.22525216 -0.020809323 -0.0098482706)
(0.22480509 -0.032795153 -0.0097398902)
(0.22457649 -0.045103627 -0.0098705449)
(-0.0012839194 -0.0019548394 -0.0016148867)
(-0.0023883678 -0.0029507864 -0.0017373671)
(-0.0038779121 -0.0038638594 -0.0017206189)
(-0.00552124 -0.0047057745 -0.0016190768)
(-0.007341716 -0.0052612201 -0.0015463689)
(-0.00923766 -0.0057515872 -0.0014441046)
(-0.01118319 -0.0059133444 -0.0014334554)
(-0.013102013 -0.0059952265 -0.0014057892)
(-0.014953356 -0.0057331712 -0.0014864502)
(-0.016666203 -0.0054010457 -0.0015455454)
(-0.018222616 -0.0047496722 -0.0016930202)
(-0.019520544 -0.0040028382 -0.0018408091)
(-0.020571826 -0.002994591 -0.0020670673)
(-0.021281725 -0.0018676959 -0.0022867906)
(-0.021634478 -0.00052890648 -0.0025646131)
(-0.021594613 0.00090327985 -0.0028525482)
(-0.021128124 0.0025159986 -0.0031558548)
(-0.020203051 0.0042103593 -0.0034760876)
(-0.018792705 0.0060341021 -0.0038043788)
(-0.016883934 0.0079232003 -0.0041356191)
(-0.014445449 0.0098915884 -0.0044665966)
(-0.011480443 0.011903237 -0.0047929625)
(-0.0079616346 0.013952753 -0.005110599)
(-0.003902013 0.016005542 -0.0054116763)
(0.00071504833 0.018053685 -0.0057039895)
(0.0058709684 0.020096725 -0.0059700036)
(0.011572189 0.022099001 -0.0062152345)
(0.017814765 0.02404606 -0.0064479233)
(0.024586882 0.025941831 -0.0066516599)
(0.031861643 0.027750659 -0.0068368307)
(0.039643345 0.029483844 -0.0070039516)
(0.047907211 0.031117353 -0.007151374)
(0.056637018 0.032650166 -0.0072868195)
(0.065813165 0.034069837 -0.0074101626)
(0.075427119 0.035385535 -0.0075265476)
(0.085440981 0.036541817 -0.0076301957)
(0.095845946 0.037660151 -0.0077554311)
(0.10661772 0.038493501 -0.0078428766)
(0.11771473 0.039409549 -0.0080025229)
(0.12915803 0.039932554 -0.0080739264)
(0.14085751 0.040583846 -0.0082706779)
(0.15283407 0.040888344 -0.0083643159)
(0.16506159 0.041098858 -0.0085322058)
(0.17742242 0.041330431 -0.0087293223)
(0.19003727 0.041068766 -0.0088148537)
(0.2027039 0.04105558 -0.0090357787)
(0.21539081 0.040766182 -0.0090520423)
(-0.00040696797 0.0013464722 0.0018337953)
(-0.0019289178 0.0020564949 0.0012700699)
(-0.0032771678 0.0027483578 0.0012525892)
(-0.0049638199 0.0031045995 0.00062187207)
(-0.0068608921 0.0034631991 0.00011158039)
(-0.0087730994 0.0035410442 -0.00054489489)
(-0.010794177 0.0035022519 -0.0012247581)
(-0.012738354 0.0032345838 -0.0019241832)
(-0.014654815 0.0028260773 -0.0026743513)
(-0.016417922 0.0022226778 -0.0034159929)
(-0.018010864 0.0014693184 -0.004182114)
(-0.01937482 0.00054546121 -0.0049622282)
(-0.020478761 -0.00050135664 -0.0057367374)
(-0.021260867 -0.0017032322 -0.0064948842)
(-0.021699984 -0.0030116715 -0.0072481767)
(-0.021743451 -0.0044501352 -0.0079766751)
(-0.02137446 -0.005963755 -0.0086792624)
(-0.02053993 -0.0075945826 -0.0093501824)
(-0.019257448 -0.009268267 -0.0099858129)
(-0.017444727 -0.011039692 -0.010574939)
(-0.015161576 -0.012844198 -0.011120422)
(-0.012307485 -0.01470652 -0.011616147)
(-0.0089528316 -0.016606538 -0.012044055)
(-0.0050237691 -0.018545511 -0.012427845)
(-0.00059284232 -0.020485871 -0.012760069)
(0.0044192379 -0.022461515 -0.013028)
(0.009903981 -0.024412277 -0.01323865)
(0.015984679 -0.02641361 -0.013392165)
(0.022568433 -0.028377204 -0.013506256)
(0.029659997 -0.030346408 -0.013565051)
(0.037255115 -0.032297458 -0.013580827)
(0.045324348 -0.034243063 -0.013554424)
(0.053864453 -0.036155922 -0.013491162)
(0.062848767 -0.038057802 -0.013397121)
(0.072264978 -0.039911893 -0.01327066)
(0.082086593 -0.041746801 -0.013127947)
(0.092305015 -0.043522391 -0.01295961)
(0.10288006 -0.045250234 -0.012768133)
(0.11381773 -0.046937688 -0.012569748)
(0.1250704 -0.048533198 -0.012354541)
(0.13662167 -0.050075701 -0.012127159)
(0.14845818 -0.051538343 -0.011887926)
(0.16051682 -0.052879321 -0.011652305)
(0.17283012 -0.054166134 -0.011383296)
(0.18527473 -0.055309098 -0.011130926)
(0.19795317 -0.056339836 -0.010881765)
(0.21072019 -0.05736975 -0.010581149)
(0 0 0)
(0 0 0)
(0 0 0)
(0 0 0)
(0 0 0)
(0 0 0)
(0 0 0)
(-0.0012633465 0.0012064832 -0.0016298448)
(-0.0026203151 0.0034298769 -0.0017843933)
(-0.0038843388 0.0033735382 -0.0015617818)
(-0.0057393596 0.0047412722 -0.0015044445)
(-0.0075653934 0.005100144 -0.0014098049)
(-0.0094716488 0.0055823935 -0.0012781276)
(-0.011489842 0.0057802872 -0.0012610646)
(-0.013364617 0.0057722869 -0.0012420988)
(-0.015289636 0.0055998613 -0.0012805439)
(-0.016941974 0.005155728 -0.0013707155)
(-0.01852635 0.0045864216 -0.0014829197)
(-0.019883642 0.0037669985 -0.001592072)
(-0.020921992 0.0028562738 -0.0018228501)
(-0.021624761 0.0016834738 -0.0020267133)
(-0.02201981 0.00046989596 -0.002303861)
(-0.021967548 -0.0010151967 -0.0025668804)
(-0.021548713 -0.002504342 -0.002888169)
(-0.020628842 -0.0042431339 -0.0031884542)
(-0.019279663 -0.0059686553 -0.0035367394)
(-0.017400142 -0.0079001329 -0.0038606992)
(-0.015041404 -0.0098201759 -0.0042139355)
(-0.012139415 -0.011890351 -0.0045427443)
(-0.0087235404 -0.01394994 -0.0048864341)
(-0.0047687705 -0.016105746 -0.005202213)
(-0.00026832835 -0.018267638 -0.0055331601)
(0.0048076902 -0.020468613 -0.0058580487)
(0.010355478 -0.022700195 -0.0061348186)
(0.016430152 -0.024919303 -0.0063941891)
(0.023019475 -0.027129494 -0.0066296279)
(0.030117241 -0.029322715 -0.0068509659)
(0.037705134 -0.031485527 -0.0070576903)
(0.045770761 -0.033618298 -0.0072449026)
(0.054300407 -0.035713496 -0.0074191703)
(0.063275736 -0.037755397 -0.0075837712)
(0.07267903 -0.039751989 -0.0077401633)
(0.082504774 -0.041699131 -0.0078871866)
(0.092699561 -0.043535488 -0.0080484982)
(0.10328426 -0.045383825 -0.0081856624)
(0.1142056 -0.047098037 -0.0083456202)
(0.12546806 -0.048756907 -0.0085029464)
(0.13701759 -0.050325335 -0.0086747037)
(0.1488652 -0.051803079 -0.0088495395)
(0.16093282 -0.053174597 -0.0090365717)
(0.17325 -0.054452599 -0.0092290089)
(0.18571831 -0.055599178 -0.0094345651)
(0.1983958 -0.056641912 -0.0096215878)
(0.2111176 -0.057687515 -0.0098597819)
(0.2251129 -0.045333352 -0.010380228)
(0.22528888 -0.03311833 -0.010354337)
(0.22571263 -0.02107801 -0.010165912)
(0.22626371 -0.0093581418 -0.0099927355)
(0.22682583 0.0024952864 -0.0096785802)
(0.22763922 0.014383946 -0.0095760915)
(0.22871888 0.026563326 -0.0094358343)
(0.21603807 0.040384723 -0.010282396)
(0.20310189 0.040557627 -0.010481355)
(0.19042095 0.040772222 -0.010766982)
(0.17783491 0.040848041 -0.010994903)
(0.16539996 0.04077578 -0.01126893)
(0.15316147 0.040569365 -0.011532395)
(0.14115231 0.040220451 -0.011780274)
(0.12939161 0.039740602 -0.012029853)
(0.11791756 0.039132804 -0.012270391)
(0.1067543 0.038411517 -0.012499571)
(0.09590977 0.037562952 -0.012711761)
(0.085510309 0.036564792 -0.012893051)
(0.07538462 0.035536564 -0.013083928)
(0.065725515 0.034349972 -0.013234993)
(0.056479913 0.033093023 -0.01336659)
(0.047693153 0.031731084 -0.01346067)
(0.03936629 0.030295246 -0.013519466)
(0.031536987 0.028769992 -0.013538513)
(0.024205049 0.027181974 -0.013509726)
(0.017399235 0.025519914 -0.013431969)
(0.011123325 0.023812065 -0.01330363)
(0.0053905444 0.022047774 -0.013116573)
(0.00021662048 0.020253327 -0.012872309)
(-0.0044096228 0.018424932 -0.012570224)
(-0.0084720748 0.016593455 -0.012214753)
(-0.01197699 0.014745019 -0.011791313)
(-0.0149341 0.012928355 -0.011326813)
(-0.017342914 0.011114471 -0.010791121)
(-0.01922883 0.0093659679 -0.010224955)
(-0.020596021 0.0076472167 -0.0095953904)
(-0.021482165 0.006024056 -0.0089411505)
(-0.021894254 0.0044627331 -0.0082415597)
(-0.021896964 0.0030286825 -0.0075208325)
(-0.021464049 0.0016609382 -0.0067584939)
(-0.020676233 0.00046696033 -0.0060081596)
(-0.019573073 -0.00059789665 -0.0052178978)
(-0.018208786 -0.0015213879 -0.0044538975)
(-0.016591993 -0.0022904323 -0.0036858921)
(-0.014829223 -0.002869613 -0.0029214172)
(-0.01292392 -0.0032898619 -0.0021832913)
(-0.010931998 -0.0035333268 -0.0014454584)
(-0.0089044544 -0.0035631359 -0.00076507895)
(-0.0069696433 -0.0034427323 -0.00010083017)
(-0.0050766589 -0.0031627551 0.0004924067)
(-0.0033932476 -0.0027080362 0.00092999237)
(-0.0019688739 -0.0019699537 0.0012735218)
(-0.0012074108 -0.0014953728 0.0011068383)
(0 0 0)
(0 0 0)
(0 0 0)
(0 0 0)
(0 0 0)
(0 0 0)
(0 0 0)
(0 0 0)
(0 0 0)
(0 0 0)
(0 0 0)
(0 0 0)
(0 0 0)
(0 0 0)
(0.22424402 -0.058520478 -0.010248572)
(0.22436542 -0.058646561 -0.010246141)
(0.22444376 -0.058708829 -0.010234061)
(0.22451746 -0.058776161 -0.010186826)
(0.22457816 -0.058810714 -0.010149237)
(0.22460155 -0.058781949 -0.010108947)
(0.22463884 -0.058794791 -0.010182078)
(0.22928937 0.040388293 -0.0095709845)
(0.22938259 0.040341945 -0.00954689)
(0.22945724 0.040326302 -0.0096213148)
(0.22953414 0.040294606 -0.0096699372)
(0.22958682 0.040248554 -0.0097246913)
(0.22961257 0.040145066 -0.0097684877)
(0.22969258 0.040131069 -0.0097506156)
(-0.00079955768 -0.0025008262 -0.0014741577)
(-0.0021939898 -0.0045221858 -0.0012598044)
(-0.0037017512 -0.0066829026 -0.001405953)
(-0.0054859116 -0.0086081786 -0.0013520184)
(-0.0073754487 -0.010275531 -0.0013689258)
(-0.0094126264 -0.011773923 -0.0013611918)
(-0.011466224 -0.012916473 -0.0014203232)
(-0.013489739 -0.013824799 -0.0015081686)
(-0.01546998 -0.014361388 -0.0016290996)
(-0.017277018 -0.014622533 -0.0017932742)
(-0.018944427 -0.01448931 -0.0019983346)
(-0.020336949 -0.014073691 -0.0022301657)
(-0.021481821 -0.013282262 -0.0024981467)
(-0.022271847 -0.012198287 -0.0027832159)
(-0.022707504 -0.010785123 -0.00310695)
(-0.022715178 -0.0090853335 -0.0034364317)
(-0.022296074 -0.0070989013 -0.0037899844)
(-0.021391063 -0.0048826214 -0.0041485843)
(-0.019992945 -0.0024328771 -0.0045114251)
(-0.018061901 0.00018994937 -0.0048764993)
(-0.015595759 0.0029714741 -0.0052326331)
(-0.01257177 0.0058628326 -0.0055820842)
(-0.0089851797 0.0088297101 -0.0059121492)
(-0.0048397138 0.01182351 -0.0062271495)
(-0.000111557 0.014830901 -0.0065200745)
(0.0051763374 0.017772772 -0.0067982247)
(0.011011337 0.020640517 -0.007046913)
(0.017392724 0.0234017 -0.0072664771)
(0.024310905 0.025993341 -0.0074681093)
(0.03172666 0.028414714 -0.0076424981)
(0.039647521 0.030623502 -0.0077947119)
(0.048040026 0.032594695 -0.0079282664)
(0.056881825 0.034312217 -0.0080444393)
(0.066161277 0.03576235 -0.0081463637)
(0.075850797 0.036916531 -0.0082377006)
(0.085906485 0.037789184 -0.0083241933)
(0.096358338 0.038371233 -0.0084145101)
(0.10711006 0.038618647 -0.0084770669)
(0.11821087 0.03863817 -0.0085805378)
(0.12958663 0.038282549 -0.0086422529)
(0.14120288 0.037769381 -0.0087675115)
(0.15310331 0.036815233 -0.0088152488)
(0.16517564 0.035831605 -0.0089947073)
(0.17742694 0.034442488 -0.0090505733)
(0.18988744 0.032857944 -0.0092001724)
(0.20231947 0.031261254 -0.0093618907)
(0.21503413 0.02908045 -0.0095609936)
(-0.0005207638 -0.0027844199 -0.0010292266)
(-0.0018721783 -0.0050537527 -0.0009869934)
(-0.0034956027 -0.0077131851 -0.0011366906)
(-0.0052723923 -0.0099275155 -0.0011755382)
(-0.007314313 -0.012055526 -0.0012467482)
(-0.0093762624 -0.01393377 -0.0013090041)
(-0.011504503 -0.015473715 -0.0014807962)
(-0.013627062 -0.01675484 -0.0015979794)
(-0.015657706 -0.017628179 -0.0018391224)
(-0.017561961 -0.018212773 -0.0020515651)
(-0.019274117 -0.018356079 -0.0023465505)
(-0.020752493 -0.018216458 -0.0026250259)
(-0.021944879 -0.01761709 -0.0029736363)
(-0.02278239 -0.016719974 -0.0033179185)
(-0.023261041 -0.015418756 -0.0036953131)
(-0.023318965 -0.013823611 -0.0040790101)
(-0.022932006 -0.011880656 -0.0044820693)
(-0.022066039 -0.0096822235 -0.0048745096)
(-0.020679665 -0.0072121272 -0.0052786599)
(-0.018767841 -0.0045429313 -0.0056691689)
(-0.016290351 -0.0016907674 -0.0060538221)
(-0.013257348 0.001287865 -0.0064243271)
(-0.0096518312 0.0043466539 -0.0067715559)
(-0.0054642127 0.0074636861 -0.0071022476)
(-0.0007002571 0.010552511 -0.0074098721)
(0.0046108679 0.013603699 -0.007670643)
(0.010495616 0.016543019 -0.0079105437)
(0.016930607 0.019344118 -0.008137045)
(0.023879835 0.021964156 -0.0083091303)
(0.031351165 0.024361653 -0.0084714596)
(0.039316993 0.026507339 -0.0086032452)
(0.047748012 0.028363445 -0.0087083858)
(0.056630205 0.029919782 -0.0088002353)
(0.065943364 0.031141702 -0.0088708497)
(0.075640609 0.032026783 -0.0089306358)
(0.085737595 0.032558248 -0.0089802172)
(0.096177035 0.032752468 -0.0090255778)
(0.10692245 0.032526087 -0.0090476218)
(0.11802467 0.032098902 -0.009132316)
(0.12932636 0.031129916 -0.0091222105)
(0.1409843 0.030068807 -0.0092240412)
(0.15278133 0.028506687 -0.0092368666)
(0.16485814 0.026842312 -0.0093375351)
(0.17703426 0.024769856 -0.0093615096)
(0.18942331 0.022558205 -0.0094769324)
(0.20189112 0.020092878 -0.0095980792)
(0.21462839 0.01740476 -0.0097810332)
(-0.00036708365 -0.0019031655 -0.00065782594)
(-0.0017274965 -0.0035814928 -0.00062374844)
(-0.0032092115 -0.0053329015 -0.00078492502)
(-0.0051041074 -0.0069491323 -0.00086493641)
(-0.007085058 -0.0084386331 -0.0010018631)
(-0.0092003783 -0.0097789981 -0.0011986533)
(-0.011378632 -0.010892117 -0.0013853869)
(-0.013483079 -0.011827108 -0.0016693113)
(-0.015555072 -0.012521589 -0.0019563386)
(-0.01744233 -0.012975152 -0.0022871232)
(-0.019196526 -0.013195744 -0.0026400011)
(-0.020679652 -0.013168142 -0.0030123024)
(-0.021895963 -0.012861049 -0.003434004)
(-0.022774929 -0.012350237 -0.0038285945)
(-0.023294958 -0.0115636 -0.0042630199)
(-0.023379727 -0.010564409 -0.0046993174)
(-0.023038098 -0.0093362722 -0.0051382135)
(-0.022197534 -0.0079284282 -0.0055822115)
(-0.020866167 -0.0063361146 -0.0060136088)
(-0.018998245 -0.0046069845 -0.0064364213)
(-0.016600824 -0.0027523347 -0.006836191)
(-0.013645385 -0.00082161083 -0.0072157505)
(-0.010106486 0.0011853336 -0.0075691326)
(-0.006009245 0.0031854739 -0.0079036729)
(-0.0013466898 0.0051909135 -0.0081841628)
(0.0038898091 0.007146411 -0.0084604227)
(0.0097025746 0.0090295183 -0.0087100507)
(0.016047362 0.010806725 -0.0089066461)
(0.02293004 0.012446881 -0.0090835822)
(0.03033215 0.013925938 -0.0092384582)
(0.038223885 0.015218643 -0.009350141)
(0.046597003 0.016306698 -0.0094490711)
(0.055429153 0.017168847 -0.0095206201)
(0.064686238 0.017799406 -0.0095751549)
(0.074367397 0.018170961 -0.0096107775)
(0.084430439 0.018317616 -0.0096470217)
(0.094849269 0.018153038 -0.009650252)
(0.1056391 0.017831512 -0.0096887217)
(0.11672847 0.017170596 -0.009686029)
(0.12811286 0.016299772 -0.0096758291)
(0.13977456 0.015295934 -0.0097406071)
(0.15164939 0.013871205 -0.0096605917)
(0.16379169 0.012510029 -0.0097715997)
(0.17607173 0.010728339 -0.0097029814)
(0.18863905 0.0089322576 -0.0098201841)
(0.20122053 0.0069763119 -0.009844335)
(0.2139761 0.0048550866 -0.0099120208)
(-0.00022666023 -0.00017654232 -0.00028597196)
(-0.0014644733 -0.00028813291 -0.00027334116)
(-0.0029750021 -0.00052855166 -0.00044545072)
(-0.0047274712 -0.00070912268 -0.00062198608)
(-0.0067388102 -0.00086004744 -0.00088740444)
(-0.0088207521 -0.0010668725 -0.0011113793)
(-0.010944958 -0.0011677097 -0.0014901345)
(-0.013065679 -0.0013428051 -0.001787394)
(-0.015098019 -0.0014211689 -0.0021938243)
(-0.017025532 -0.0015589697 -0.002567606)
(-0.018751177 -0.0016249367 -0.003003019)
(-0.020240698 -0.0017087489 -0.0034543814)
(-0.021448525 -0.0017333445 -0.0039248511)
(-0.022331402 -0.001791522 -0.004388836)
(-0.022841762 -0.0017636503 -0.0048958272)
(-0.022952628 -0.0017676622 -0.0053742082)
(-0.022628584 -0.0017082037 -0.0058759826)
(-0.021839076 -0.0016702863 -0.0063486606)
(-0.0205567 -0.0015933612 -0.0068200125)
(-0.018766926 -0.0015264372 -0.0072677445)
(-0.016432281 -0.0014465945 -0.0076966613)
(-0.01354476 -0.0013596611 -0.008105909)
(-0.010130945 -0.0013011654 -0.0084821001)
(-0.0061594679 -0.001226835 -0.0088193738)
(-0.0016174784 -0.0011670635 -0.0091425888)
(0.0034753987 -0.001120545 -0.0094261898)
(0.0091073192 -0.0011016184 -0.0096470902)
(0.015276557 -0.0011122015 -0.0098451959)
(0.02198098 -0.0011468315 -0.010014089)
(0.029201867 -0.0012245003 -0.010132769)
(0.036926169 -0.0013315328 -0.010232921)
(0.045145942 -0.0014857934 -0.010297822)
(0.05382713 -0.0016791761 -0.010341745)
(0.062974426 -0.0019169675 -0.010358064)
(0.072544662 -0.0021874952 -0.010368122)
(0.082534591 -0.0025337976 -0.010340839)
(0.092921198 -0.0028643493 -0.01033212)
(0.10366769 -0.0032972607 -0.01028719)
(0.11476396 -0.0037575166 -0.010232859)
(0.12617079 -0.0042058508 -0.010223709)
(0.13792773 -0.0047576377 -0.010152173)
(0.14990399 -0.005319148 -0.010112811)
(0.16220369 -0.0058249269 -0.010111878)
(0.17466462 -0.006525614 -0.010005431)
(0.18736711 -0.0070464553 -0.010034906)
(0.20013769 -0.0077403416 -0.0099187113)
(0.21314891 -0.0083851139 -0.0099418934)
(-7.2886539e-05 0.0014521517 9.4953783e-05)
(-0.0013838193 0.0027527029 0.00013910626)
(-0.0026903011 0.0041041469 -0.00010148049)
(-0.0045152332 0.005346737 -0.0003320877)
(-0.0064573642 0.0065025419 -0.00062459588)
(-0.0085080742 0.0075022948 -0.0010150862)
(-0.010619553 0.0083384073 -0.0013944226)
(-0.012697559 0.0090035655 -0.0018401371)
(-0.014719471 0.009449193 -0.0022996127)
(-0.016580323 0.0097080625 -0.0028022507)
(-0.018279465 0.0097684379 -0.0033369875)
(-0.019738181 0.009611171 -0.0038664876)
(-0.020932536 0.009239611 -0.0044017558)
(-0.021791809 0.0086676029 -0.0049594788)
(-0.022314527 0.0079024648 -0.0055011072)
(-0.02242585 0.0069363865 -0.0060442258)
(-0.022130453 0.005818867 -0.0065790657)
(-0.021366831 0.0045137011 -0.0070945791)
(-0.0201458 0.0030952535 -0.0075974693)
(-0.018415685 0.0015268931 -0.0080671863)
(-0.016180913 -0.00011362705 -0.0085198836)
(-0.013444562 -0.0018678107 -0.0089223128)
(-0.010151216 -0.0036627324 -0.0092913743)
(-0.006326698 -0.0055116524 -0.0096445119)
(-0.0019451205 -0.0073755144 -0.0099365279)
(0.0029610763 -0.0092293979 -0.010191733)
(0.0084272529 -0.011065239 -0.010408069)
(0.014424165 -0.01283487 -0.010608693)
(0.020957216 -0.014542381 -0.010749058)
(0.028005127 -0.016151364 -0.010872085)
(0.035572157 -0.01765815 -0.010952085)
(0.043632736 -0.019037374 -0.01100812)
(0.052190043 -0.020292085 -0.01102775)
(0.061209026 -0.021373379 -0.011040902)
(0.070692807 -0.022340556 -0.011006569)
(0.080616751 -0.023094568 -0.010986709)
(0.090946025 -0.023718268 -0.010930878)
(0.10170927 -0.024181054 -0.010859127)
(0.11280025 -0.024436566 -0.010825742)
(0.12432806 -0.02454393 -0.010727876)
(0.13611406 -0.024518506 -0.010650975)
(0.14824467 -0.024293851 -0.010573077)
(0.1606409 -0.023991012 -0.010477862)
(0.1732677 -0.023559998 -0.010359324)
(0.18615073 -0.022952724 -0.010299567)
(0.19921111 -0.022342985 -0.010154638)
(0.21239893 -0.021579926 -0.010050734)
(-6.5632502e-05 0.0023675818 0.00062173428)
(-0.001342024 0.0044772757 0.0004808572)
(-0.0026857362 0.0065940564 0.0002842627)
(-0.0044715247 0.0085175282 -1.115734e-05)
(-0.0063545876 0.010316167 -0.00046902903)
(-0.0083673503 0.011793001 -0.0008923313)
(-0.010426887 0.013081955 -0.0014197827)
(-0.012462407 0.014007882 -0.0019410206)
(-0.014424523 0.014677235 -0.0025099535)
(-0.016255066 0.0149878 -0.0030904699)
(-0.017919904 0.014998256 -0.0036877376)
(-0.019344621 0.014633479 -0.0042854388)
(-0.020500984 0.013986017 -0.0049122739)
(-0.021338579 0.012982797 -0.0055174817)
(-0.021834065 0.011705398 -0.0061315542)
(-0.02193798 0.010109417 -0.0067286082)
(-0.021630948 0.0082704871 -0.0073185734)
(-0.020879014 0.0061653221 -0.0078802339)
(-0.019664107 0.0038577255 -0.0084198928)
(-0.017961713 0.0013492914 -0.0089284866)
(-0.015769299 -0.001321219 -0.0094063757)
(-0.013029831 -0.0040643615 -0.0098257085)
(-0.0098123949 -0.0069547322 -0.010246105)
(-0.0060246878 -0.0099273083 -0.010585066)
(-0.00173239 -0.012869432 -0.010896592)
(0.0031112991 -0.015819695 -0.011170578)
(0.0084932286 -0.018687053 -0.011395027)
(0.014398874 -0.021482341 -0.011572667)
(0.020828781 -0.024143545 -0.011714426)
(0.027790443 -0.026671448 -0.011813212)
(0.035258237 -0.029020752 -0.011873994)
(0.043235208 -0.031175378 -0.011899244)
(0.051699597 -0.033103386 -0.011897254)
(0.060648115 -0.034814142 -0.011861115)
(0.070058212 -0.036245735 -0.011812146)
(0.079913859 -0.037448145 -0.011732323)
(0.090212704 -0.038366855 -0.011638133)
(0.10089913 -0.039011878 -0.0115409)
(0.11201136 -0.039423323 -0.011410325)
(0.12346261 -0.039558102 -0.011290936)
(0.1352536 -0.039413208 -0.011159008)
(0.14739687 -0.039037692 -0.011025323)
(0.15977777 -0.038495495 -0.010855314)
(0.17246824 -0.037654337 -0.010724612)
(0.18533756 -0.036676964 -0.010544963)
(0.19843479 -0.035530316 -0.010322063)
(0.21166285 -0.034142514 -0.01008766)
(-0.00010728839 0.0020373955 0.0010050512)
(-0.001485787 0.0036884276 0.0008789561)
(-0.0028244365 0.0054692188 0.00072163207)
(-0.0046333304 0.0070425999 0.00027812657)
(-0.0064614578 0.0084009933 -0.00018674169)
(-0.0084844914 0.0095517498 -0.00073627108)
(-0.010501774 0.010417389 -0.0013243286)
(-0.012518272 0.01102349 -0.0019435061)
(-0.014462632 0.011329773 -0.0025860527)
(-0.016271855 0.011342954 -0.003251295)
(-0.017918763 0.011062998 -0.0039264816)
(-0.019316044 0.010475855 -0.0046200085)
(-0.02045827 0.0096073342 -0.0053063922)
(-0.021274279 0.008453053 -0.0059873527)
(-0.021762308 0.0070407451 -0.0066683953)
(-0.021841396 0.0053728115 -0.0073228171)
(-0.021526012 0.0034820469 -0.0079679646)
(-0.020746401 0.0013775835 -0.0085722068)
(-0.0195178 -0.0009109208 -0.0091595338)
(-0.017790614 -0.0033586355 -0.0096990251)
(-0.015560595 -0.0059366268 -0.010207105)
(-0.012836581 -0.0086250994 -0.0106643)
(-0.009539999 -0.011382642 -0.011081427)
(-0.0057427855 -0.014213275 -0.011439015)
(-0.0014059799 -0.017045918 -0.011771137)
(0.0034674139 -0.019874844 -0.012040133)
(0.0088742559 -0.022674384 -0.012246631)
(0.014814368 -0.025395257 -0.012428729)
(0.021289937 -0.028039906 -0.012554101)
(0.028280424 -0.030580231 -0.01263505)
(0.035775989 -0.032989604 -0.012677431)
(0.043771774 -0.035249116 -0.012681657)
(0.052248144 -0.03735369 -0.012649768)
(0.061195895 -0.039262787 -0.012594844)
(0.070595121 -0.040998568 -0.012505219)
(0.080435645 -0.042522584 -0.012399496)
(0.090683768 -0.043835306 -0.01228121)
(0.10135646 -0.044951534 -0.01212521)
(0.11237964 -0.045838363 -0.011986722)
(0.12377202 -0.046527503 -0.011815866)
(0.13548712 -0.046983271 -0.011644584)
(0.14752418 -0.047263295 -0.011449823)
(0.15980487 -0.047340433 -0.011253366)
(0.17236675 -0.047185756 -0.011073103)
(0.18507988 -0.046941051 -0.010810011)
(0.19803907 -0.046430833 -0.010613592)
(0.21107411 -0.045748042 -0.010302407)
(0 0 0)
(0 0 0)
(0 0 0)
(0 0 0)
(0 0 0)
(0 0 0)
(0 0 0)
(0 0 0)
(0 0 0)
(0 0 0)
(0 0 0)
(0 0 0)
(0 0 0)
(0 0 0)
(0 0 0)
(0 0 0)
(0 0 0)
(0 0 0)
(0 0 0)
(0 0 0)
(0 0 0)
(0 0 0)
(0 0 0)
(0 0 0)
(0 0 0)
(0 0 0)
(0 0 0)
(0 0 0)
(0 0 0)
(0 0 0)
(0 0 0)
(0 0 0)
(0 0 0)
(0 0 0)
(0 0 0)
(0 0 0)
(0 0 0)
(0 0 0)
(0 0 0)
(0 0 0)
(0 0 0)
(0 0 0)
(0 0 0)
(0 0 0)
(0 0 0)
(0 0 0)
(0 0 0)
(0 0 0)
(0 0 0)
(-0.00101996 0.00051890374 0.00093241115)
(-0.0012111182 0.00069952649 0.00065850549)
(-0.0014466213 0.00074166975 0.00038251299)
(-0.0015627474 0.00080578653 0.00014161492)
(-0.0015803591 0.00077493964 -9.3849202e-05)
(-0.0016039252 0.00083932543 -0.00036654786)
(-0.0014643369 0.00067751393 -0.00075832878)
(-0.0024516369 0.0023858829 0.0010670054)
(-0.0027566342 0.0027281424 0.0005793184)
(-0.0029055784 0.0025989458 0.00028569078)
(-0.0029838131 0.0025679831 1.4807391e-06)
(-0.0031156652 0.0028182519 -0.00027198807)
(-0.0030266867 0.0028932584 -0.00065518949)
(-0.0029771346 0.0030342461 -0.0012198035)
(-0.0035979057 0.0027891257 0.00087215873)
(-0.0039469812 0.0027591612 0.00063754217)
(-0.0042118364 0.003022442 0.00021090631)
(-0.0042944039 0.0031178707 -7.4772728e-05)
(-0.0043426357 0.0031402528 -0.0004335277)
(-0.0043251881 0.0032763086 -0.0006905419)
(-0.0042572585 0.0036345135 -0.0012677981)
(-0.0053822851 0.0036009649 0.0004138659)
(-0.0056033781 0.00382924 0.00022772201)
(-0.0057708209 0.0039383932 -8.085442e-05)
(-0.0058744389 0.0040608158 -0.00026887652)
(-0.0059671153 0.0042384915 -0.00053632055)
(-0.0059674511 0.0045096943 -0.00091171501)
(-0.0058479929 0.0045535735 -0.0011544252)
(-0.0070601711 0.0039081702 -1.3675412e-05)
(-0.0072846017 0.0041029229 -0.00010542522)
(-0.0074868785 0.0043473531 -0.00031826208)
(-0.0075703793 0.0045160881 -0.0005090023)
(-0.0076608512 0.0047046825 -0.00069150882)
(-0.0076800238 0.0048949545 -0.00090457719)
(-0.0076855145 0.0051641137 -0.0011822323)
(-0.0089758372 0.0041037428 -0.00059665064)
(-0.0090884516 0.0043478077 -0.00062599348)
(-0.0092200469 0.0045834324 -0.00071101074)
(-0.0093202713 0.0048266998 -0.00079596649)
(-0.0093872236 0.0050509336 -0.0009011639)
(-0.0094720259 0.0053142213 -0.0010497813)
(-0.0094702798 0.0055032235 -0.0011601974)
(-0.010860243 0.0040553141 -0.001172955)
(-0.01094618 0.0043668366 -0.0011239379)
(-0.011048092 0.0046838851 -0.0011406833)
(-0.01111944 0.0049323776 -0.001113162)
(-0.01122001 0.0052063464 -0.0011600741)
(-0.011298788 0.0054559422 -0.0011774351)
(-0.011401289 0.0057577048 -0.0011992169)
(-0.012747007 0.0038455897 -0.0018003918)
(-0.012767957 0.004189556 -0.0016660452)
(-0.012820553 0.0045098841 -0.0015533305)
(-0.012891231 0.0048205688 -0.0014669133)
(-0.012991676 0.0050905261 -0.0013962529)
(-0.01309255 0.0053881069 -0.0013505116)
(-0.013237113 0.0056489138 -0.00129264)
(-0.014567699 0.0034484617 -0.00245493)
(-0.014534143 0.0038352435 -0.0022479285)
(-0.014539229 0.0041792127 -0.0020757624)
(-0.014594908 0.0045047717 -0.0018803649)
(-0.014700042 0.0048595321 -0.0017102572)
(-0.014843658 0.005139768 -0.0015696563)
(-0.015025153 0.0054830511 -0.0014046417)
(-0.016243868 0.0028629705 -0.0031269959)
(-0.01615288 0.0032696819 -0.0028267737)
(-0.016137723 0.0036484526 -0.0025740511)
(-0.016164661 0.0039982368 -0.0023119176)
(-0.01627411 0.0043266636 -0.0020766471)
(-0.016445104 0.0046606005 -0.001827146)
(-0.016679678 0.0049951426 -0.0016070184)
(-0.017778414 0.0021330861 -0.0038121764)
(-0.017631435 0.0025477767 -0.0034748714)
(-0.017563491 0.0029587144 -0.0031175719)
(-0.017583268 0.0033145496 -0.0027705652)
(-0.017697856 0.003692497 -0.0024343275)
(-0.017892329 0.004051066 -0.0021257411)
(-0.01813187 0.0043860304 -0.0017908241)
(-0.019059153 0.001218225 -0.0045272036)
(-0.018844925 0.0016386378 -0.0040912724)
(-0.018744264 0.0020536067 -0.0036531244)
(-0.018751618 0.0024308928 -0.0032428519)
(-0.018857678 0.0028230331 -0.0028284754)
(-0.019063257 0.0031719784 -0.0024467756)
(-0.019392864 0.0035712208 -0.0019685459)
(-0.020077148 0.00017649119 -0.0052233877)
(-0.019830747 0.00060747205 -0.0047153576)
(-0.019702596 0.0010434133 -0.004236358)
(-0.019696433 0.0014494878 -0.0037341228)
(-0.019803435 0.0018374522 -0.0032496748)
(-0.020066274 0.0022407232 -0.0027826183)
(-0.02039723 0.0025921668 -0.0022726179)
(-0.020783993 -0.0010373126 -0.0059228338)
(-0.020495818 -0.00060049495 -0.005356534)
(-0.020317571 -0.00016646174 -0.004801013)
(-0.020287347 0.0002180294 -0.0042419137)
(-0.020406359 0.00063203342 -0.0036793913)
(-0.020656848 0.0010054356 -0.003162937)
(-0.021036029 0.0014156425 -0.0025488049)
(-0.021159319 -0.0023516223 -0.0066206409)
(-0.020830228 -0.001907699 -0.005986492)
(-0.020614199 -0.0014719748 -0.0053874471)
(-0.020597058 -0.0010426907 -0.0047513762)
(-0.020692857 -0.00064253342 -0.0041416555)
(-0.020984239 -0.00022782265 -0.0035496462)
(-0.021382355 0.00015405691 -0.0028833125)
(-0.021136224 -0.0038088361 -0.0072945121)
(-0.020755165 -0.003383787 -0.0066162401)
(-0.020522385 -0.0029334083 -0.0059540175)
(-0.020460335 -0.0025489782 -0.005274641)
(-0.020572928 -0.0021346039 -0.004594404)
(-0.020857775 -0.0017469187 -0.0039539344)
(-0.021293566 -0.0013211066 -0.0032105375)
(-0.020707572 -0.0053521885 -0.0079597508)
(-0.020309525 -0.0049090558 -0.0072252236)
(-0.020022627 -0.0044858622 -0.0065265208)
(-0.019979763 -0.004067147 -0.0057837487)
(-0.020070908 -0.0036642001 -0.0050653284)
(-0.020385307 -0.0032427919 -0.0043673417)
(-0.020830919 -0.0028581063 -0.0035768795)
(-0.019834551 -0.0070020341 -0.0085856469)
(-0.019375975 -0.0065995986 -0.0078224714)
(-0.019084948 -0.0061658866 -0.0070729838)
(-0.019001125 -0.0057871573 -0.0062931616)
(-0.019104369 -0.0053796847 -0.0055231348)
(-0.019412097 -0.0050013498 -0.004782839)
(-0.019884061 -0.0045785024 -0.0039329078)
(-0.018485731 -0.0087280002 -0.0091961055)
(-0.018025074 -0.0083109986 -0.0083861125)
(-0.017684853 -0.007908185 -0.0076084841)
(-0.017616712 -0.0075119017 -0.0067850736)
(-0.017698025 -0.0071326705 -0.0059816002)
(-0.018027545 -0.006720436 -0.005199487)
(-0.018503271 -0.0063419322 -0.0043136317)
(-0.016660768 -0.010528352 -0.0097525064)
(-0.016144302 -0.010154923 -0.0089215058)
(-0.015805898 -0.0097566944 -0.0081134259)
(-0.01570331 -0.0094031347 -0.0072591803)
(-0.015793137 -0.0090142549 -0.006420903)
(-0.016114522 -0.0086534977 -0.0056076283)
(-0.01660858 -0.0082491048 -0.0046798301)
(-0.014314563 -0.012387406 -0.010283322)
(-0.013802998 -0.012013449 -0.0094239019)
(-0.013423376 -0.011653542 -0.0085918944)
(-0.013332301 -0.011285529 -0.0077111214)
(-0.013400648 -0.010942067 -0.0068504801)
(-0.013737946 -0.010555868 -0.0060074403)