/*--------------------------------*- C++ -*----------------------------------*\
  =========                 |
  \\      /  F ield         | OpenFOAM: The Open Source CFD Toolbox
   \\    /   O peration     | Website:  https://openfoam.org
    \\  /    A nd           | Version:  6
     \\/     M anipulation  |
\*---------------------------------------------------------------------------*/
FoamFile
{
    version     2.0;
    format      ascii;
    class       pointVectorField;
    location    "0.86";
    object      u;
}
// * * * * * * * * * * * * * * * * * * * * * * * * * * * * * * * * * * * * * //

dimensions      [0 1 0 0 0 0 0];

internalField   nonuniform List<vector> 
3969
(
(0 -3.7292944e-20 0)
(0 -2.0395581e-19 0)
(0.37891806 0.039404394 0.02251496)
(0.37381119 -0.06156396 0.023989542)
(0 2.0341202e-18 0)
(0 1.6801787e-18 0)
(0.37189635 -0.065759015 0.023957812)
(0.37699173 0.035147114 0.022517182)
(0 8.4970824e-20 0)
(0 5.1073126e-19 0)
(0 2.2873999e-19 0)
(-1.3678511e-18 -1.2316466e-19 0)
(0 6.7399739e-19 0)
(0 -3.8857973e-19 0)
(0 -3.710627e-19 0)
(0.37826405 0.026713245 0.022660441)
(0.37757207 0.014084722 0.022817374)
(0.37690466 0.0015002078 0.023022577)
(0.37625758 -0.01105982 0.023233099)
(0.37563624 -0.023616198 0.0234559)
(0.3750388 -0.036215541 0.023658927)
(0.3744469 -0.048866666 0.023836409)
(0.00066049911 0.0017080813 0.0019450961)
(0.00076620193 0.0029737908 0.0024032397)
(0.0013221484 0.0046325605 0.0029830869)
(0.002343446 0.0060637046 0.003378638)
(0.0035568788 0.0078467793 0.0038300724)
(0.0054044365 0.0093987709 0.0042262743)
(0.0073716251 0.011150974 0.0047080351)
(0.010025718 0.012766554 0.0051405454)
(0.012863044 0.014494612 0.0056586624)
(0.016299599 0.016047386 0.0060845466)
(0.020033548 0.017746128 0.006615828)
(0.024257247 0.019253577 0.0070739358)
(0.028865129 0.020845101 0.0075427468)
(0.033891659 0.022307065 0.0080230996)
(0.039343903 0.023780258 0.0084480913)
(0.045140654 0.025152396 0.0088993276)
(0.051355393 0.02652255 0.0093226546)
(0.057909876 0.027791774 0.0097414194)
(0.064840809 0.029050512 0.010157705)
(0.072096708 0.030223051 0.010561871)
(0.079694036 0.031362759 0.010982991)
(0.087599285 0.032438208 0.011393739)
(0.095815831 0.033468799 0.011825804)
(0.10432602 0.034449088 0.012257253)
(0.11312512 0.035370908 0.012706903)
(0.12220424 0.036260622 0.013162934)
(0.13156339 0.037093573 0.0136285)
(0.14119528 0.037881845 0.014097743)
(0.15110793 0.038631336 0.014570332)
(0.16128637 0.03932395 0.015040205)
(0.17174355 0.03997895 0.015504275)
(0.1824692 0.040575921 0.015958594)
(0.19346286 0.041121464 0.016404002)
(0.20471721 0.041603675 0.016834017)
(0.21622359 0.042019967 0.0172542)
(0.22796834 0.042357626 0.017663052)
(0.23993403 0.042617049 0.01805753)
(0.25210226 0.04278271 0.018444855)
(0.26444556 0.042858234 0.0188274)
(0.276946 0.042830924 0.019205055)
(0.28956922 0.042708468 0.01957947)
(0.30229039 0.042479295 0.019955988)
(0.31507537 0.042158295 0.02033923)
(0.32788775 0.041745552 0.020732031)
(0.34071748 0.041237167 0.0211434)
(0.35348684 0.040687975 0.02158213)
(0.36623217 0.040051508 0.022046769)
(-0.00038309953 -0.0010656133 -0.0017363805)
(0.00026992712 -0.0018834971 -0.0013123182)
(0.00032783973 -0.0027966703 -0.002069054)
(0.0014313174 -0.0040298241 -0.0014676972)
(0.0027633437 -0.0051724857 -0.001468645)
(0.0044361841 -0.0065235471 -0.00098774617)
(0.0066471703 -0.0077970296 -0.00066243579)
(0.0091130987 -0.00925001 -0.00018817738)
(0.012042319 -0.010585851 0.00027164206)
(0.015446212 -0.012176629 0.0008027153)
(0.019087331 -0.013518292 0.0013130405)
(0.023320232 -0.015161327 0.0018708832)
(0.027817909 -0.016609592 0.0024508817)
(0.03277433 -0.018169467 0.0030158683)
(0.038084059 -0.019698682 0.0036115581)
(0.043788663 -0.021227916 0.0041903651)
(0.049866724 -0.022757708 0.0047852522)
(0.056280512 -0.024253085 0.0053652086)
(0.063065878 -0.025754044 0.0059609303)
(0.070188539 -0.027234024 0.0065401458)
(0.077605545 -0.028683302 0.0071333981)
(0.085395638 -0.030144142 0.00771725)
(0.09343085 -0.031562528 0.0083119449)
(0.10182511 -0.033008965 0.0089062322)
(0.1104478 -0.03440667 0.0094943977)
(0.11940286 -0.035838983 0.010088217)
(0.12857721 -0.037235462 0.010681405)
(0.1380755 -0.03867133 0.011275138)
(0.1478229 -0.040086571 0.011856439)
(0.15784393 -0.041510047 0.012444245)
(0.16813816 -0.042940113 0.013028928)
(0.17869129 -0.044361063 0.013615283)
(0.18952013 -0.045780301 0.014210085)
(0.20060514 -0.047179797 0.014811231)
(0.21194887 -0.048561514 0.015425868)
(0.22354146 -0.049911687 0.016055729)
(0.2353628 -0.051223762 0.016697395)
(0.24739978 -0.052483879 0.017359362)
(0.25963655 -0.053702698 0.018032593)
(0.27203734 -0.054848395 0.018713454)
(0.2845845 -0.05593627 0.019403701)
(0.29724281 -0.056947126 0.020094105)
(0.30998541 -0.057888617 0.020784707)
(0.32277369 -0.058751057 0.021461561)
(0.33558407 -0.0595443 0.022127884)
(0.34837458 -0.060271012 0.022771634)
(0.36112749 -0.060932032 0.023390399)
(0 -2.218888e-20 0)
(0 2.5997002e-19 0)
(0 -3.1768958e-19 0)
(6.7266152e-19 -6.8470547e-20 0)
(0 -5.814221e-19 0)
(0 -2.7101912e-19 0)
(0 -2.2160366e-19 0)
(0.00065802018 -0.0010576297 0.0015659489)
(0.00094098215 -0.0036595734 0.0024124393)
(0.0009959675 -0.0036692388 0.0028735849)
(0.0020518934 -0.0062255786 0.0033311797)
(0.0031647992 -0.007298222 0.0039299326)
(0.0048250405 -0.009084771 0.0042022692)
(0.0068726479 -0.010765695 0.0048612)
(0.0092018587 -0.012193305 0.0051413475)
(0.012117818 -0.014168026 0.0058610053)
(0.015232588 -0.015406854 0.0061115289)
(0.018913774 -0.017465943 0.0069029776)
(0.022970062 -0.018778783 0.0072114098)
(0.027332583 -0.020495215 0.0078396114)
(0.032306846 -0.022148262 0.0082953521)
(0.037418077 -0.023547823 0.0087725622)
(0.043158202 -0.025322257 0.0092923907)
(0.049075956 -0.026661576 0.0097249203)
(0.055497234 -0.028337934 0.010217923)
(0.062180692 -0.029742869 0.010661958)
(0.069260371 -0.031302253 0.011129841)
(0.076630524 -0.032734314 0.011585774)
(0.084339497 -0.034232937 0.012060944)
(0.092337371 -0.035661051 0.012531895)
(0.10063381 -0.037113238 0.013025354)
(0.10921785 -0.038546907 0.013516779)
(0.11810829 -0.039970634 0.014004844)
(0.12723555 -0.041416608 0.014534874)
(0.13664329 -0.04283273 0.015050586)
(0.14632899 -0.044259936 0.015573878)
(0.15629225 -0.045681377 0.016087864)
(0.16653042 -0.04710109 0.01658816)
(0.17704702 -0.048518503 0.017077901)
(0.18783687 -0.049931955 0.017552539)
(0.19889736 -0.051328966 0.018008115)
(0.21021595 -0.052710187 0.0184524)
(0.22179457 -0.054069992 0.018877141)
(0.23358534 -0.055362235 0.019296041)
(0.2456103 -0.056664334 0.019703844)
(0.25782435 -0.05787124 0.020103597)
(0.27020791 -0.059032828 0.020500568)
(0.28273661 -0.060119525 0.020892948)
(0.29538061 -0.061140439 0.021290823)
(0.30810809 -0.062079506 0.021691447)
(0.32088769 -0.062945456 0.022104611)
(0.3336853 -0.063737713 0.022534105)
(0.34646674 -0.064457251 0.022987167)
(0.35920388 -0.065126967 0.023469199)
(0.37252409 -0.053070733 0.023749143)
(0.37311762 -0.040422021 0.023556099)
(0.37371867 -0.027839504 0.023388797)
(0.37432766 -0.015278224 0.023245188)
(0.37498767 -0.002747535 0.023094168)
(0.37564619 0.0098482997 0.022933131)
(0.37634493 0.022463932 0.022736823)
(0.36432662 0.035795349 0.021889179)
(0.351586 0.036427036 0.021264659)
(0.33880639 0.036999053 0.020609929)
(0.32599505 0.037504346 0.019937795)
(0.31318236 0.037927497 0.019251123)
(0.30040303 0.038260971 0.018556479)
(0.2876916 0.038496582 0.01786356)
(0.27507594 0.038634637 0.017173483)
(0.26259211 0.038672122 0.016494445)
(0.25026525 0.038616319 0.015829699)
(0.23810724 0.038456691 0.015180662)
(0.2262076 0.03819009 0.014561575)
(0.21447205 0.037874545 0.013943155)
(0.2030099 0.037454087 0.013354793)
(0.19179428 0.03697263 0.012774053)
(0.18084321 0.036421427 0.012213101)
(0.17016014 0.035818409 0.011656879)
(0.15974803 0.035159484 0.011108767)
(0.14960847 0.034462276 0.010561125)
(0.13974587 0.033713049 0.010019269)
(0.13015461 0.032938678 0.0094691182)
(0.12084557 0.032105909 0.0089294005)
(0.11181589 0.031252631 0.0083798166)
(0.10307075 0.030331349 0.0078419023)
(0.094618494 0.02938999 0.0072916244)
(0.086466162 0.028367968 0.0067604776)
(0.07861879 0.027326662 0.0062095946)
(0.07109346 0.026192408 0.0056854326)
(0.063891037 0.025042634 0.0051326828)
(0.057030079 0.023799985 0.0046058847)
(0.050513844 0.022536919 0.0040563406)
(0.044360783 0.021208271 0.0035129144)
(0.038566909 0.019857024 0.002977774)
(0.033196567 0.018413206 0.0024515185)
(0.028200468 0.01699356 0.001892735)
(0.023575013 0.015527054 0.0014141726)
(0.019378665 0.014104437 0.00085260297)
(0.015594995 0.012568576 0.00042170572)
(0.012179017 0.011197748 -0.00011146694)
(0.0092881315 0.0096022025 -0.00049971042)
(0.006691034 0.0083812096 -0.00093659491)
(0.0045542365 0.0068075498 -0.0012388877)
(0.0028071092 0.005635803 -0.0016285986)
(0.0014556487 0.004201916 -0.0017450963)
(0.00060747136 0.0031742216 -0.0019022107)
(-6.5669674e-07 0.0018020746 -0.0018331848)
(0.00060695827 0.0010996889 -0.0010430346)
(0 2.7452885e-19 0)
(0 2.1502095e-19 0)
(0 -1.1142343e-19 0)
(0 -7.3214643e-19 3.6640119e-19)
(0 -6.42831e-19 0)
(0 -1.4133603e-19 0)
(0 6.7587534e-19 0)
(0 9.5906074e-19 0)
(0 9.1422743e-19 0)
(0 8.6867188e-19 0)
(0 7.5023547e-19 -9.2163275e-20)
(0 2.0267071e-18 0)
(0 8.8848038e-19 0)
(0 -1.637044e-19 0)
(0.37358534 -0.062137767 0.023974218)
(0.37336992 -0.062703291 0.023963128)
(0.37314501 -0.063249321 0.023970342)
(0.3729121 -0.063784778 0.023974879)
(0.37266724 -0.064305206 0.023984027)
(0.37241269 -0.06480481 0.023988925)
(0.37214862 -0.065298367 0.02396767)
(0.37871674 0.038946886 0.022525073)
(0.37850313 0.038453941 0.022529355)
(0.37828153 0.037948169 0.022525477)
(0.37804779 0.037423721 0.022515781)
(0.37779911 0.036884127 0.022506299)
(0.37753993 0.036325682 0.022504097)
(0.37726888 0.035750218 0.022514903)
(7.2594633e-05 0.0015100958 0.0018985998)
(0.00023991146 0.0025390917 0.0018856089)
(0.00068948506 0.0038362894 0.0024867013)
(0.0016382806 0.0050728706 0.0028177596)
(0.002851975 0.0062787979 0.0032108288)
(0.0046802412 0.00762577 0.0036182157)
(0.0066568692 0.008806106 0.0040575353)
(0.0092775276 0.010177106 0.0045260305)
(0.01216626 0.011346207 0.0049476462)
(0.015579487 0.012617718 0.0054702905)
(0.019311429 0.013820862 0.0059497919)
(0.023550182 0.014956531 0.006407408)
(0.028139733 0.016153422 0.0069119367)
(0.033184927 0.017224851 0.0073608126)
(0.038598239 0.018305802 0.0078413419)
(0.044411828 0.019318562 0.0082916517)
(0.050605333 0.020314857 0.0087438512)
(0.057162808 0.021235804 0.0091899469)
(0.064076527 0.022144285 0.0096226802)
(0.071335071 0.022989653 0.010062364)
(0.078920042 0.023799525 0.010498673)
(0.086819635 0.024566234 0.010939126)
(0.095033219 0.025293162 0.011386262)
(0.10352728 0.025968415 0.011843628)
(0.1123242 0.026614457 0.01231058)
(0.12139534 0.027205382 0.012778347)
(0.13074343 0.027762789 0.013258726)
(0.14036854 0.028275841 0.013742992)
(0.15026663 0.02874341 0.014226016)
(0.16043546 0.029166658 0.014708797)
(0.17088164 0.029549488 0.015183947)
(0.18159648 0.029876398 0.015654599)
(0.19258122 0.030160024 0.016114649)
(0.20383066 0.030385261 0.016564903)
(0.21533328 0.030554634 0.017009524)
(0.22707677 0.030662024 0.017441127)
(0.23904736 0.030704066 0.017869892)
(0.2512241 0.03067185 0.018291261)
(0.26358443 0.030575763 0.018709688)
(0.27610072 0.030398842 0.019128391)
(0.28874503 0.030153081 0.019543392)
(0.3014907 0.029832218 0.01996437)
(0.31430009 0.029446456 0.02038786)
(0.32714374 0.02899569 0.020823893)
(0.33999805 0.028487327 0.021268076)
(0.35279765 0.027946144 0.021730203)
(0.36557898 0.027333637 0.022199083)
(-0.00051284948 0.0010816966 0.0013990106)
(-0.00024266502 0.0016510028 0.0013943904)
(0.00024479893 0.0029366577 0.0019496774)
(0.0011419272 0.0035842419 0.0022128204)
(0.0025019892 0.0046577675 0.0026447369)
(0.0040961911 0.0055129264 0.0029921993)
(0.0061948413 0.0064942892 0.0034911173)
(0.0087581626 0.007363365 0.0038153691)
(0.011631494 0.0082336041 0.0044097148)
(0.014985302 0.0090896242 0.0048292139)
(0.018776783 0.0099026753 0.0053086806)
(0.022946044 0.010689515 0.0058174988)
(0.027566541 0.01147456 0.0063009609)
(0.032578369 0.012147917 0.0067988986)
(0.03800613 0.012865627 0.0072895686)
(0.04380899 0.013499908 0.0077514889)
(0.050002447 0.014145902 0.008222769)
(0.056544683 0.014713614 0.0086806612)
(0.06346024 0.01529274 0.0091345036)
(0.070707368 0.01579561 0.009593161)
(0.078286213 0.016290864 0.010047723)
(0.086190725 0.016746881 0.010501583)
(0.094378479 0.01715478 0.010974493)
(0.10288162 0.017553814 0.011441003)
(0.11166426 0.017893935 0.011919574)
(0.12072005 0.018212483 0.012409873)
(0.1300605 0.018492413 0.012904049)
(0.13967208 0.018724684 0.013399079)
(0.14955269 0.01893059 0.013899559)
(0.15971569 0.019089549 0.01439416)
(0.17014639 0.019212834 0.014886307)
(0.18085142 0.019290423 0.015375692)
(0.19182847 0.019331255 0.015852769)
(0.20306865 0.019322461 0.016330464)
(0.2145656 0.019270388 0.016796704)
(0.22630623 0.019168314 0.017261448)
(0.2382772 0.01901532 0.017719545)
(0.25045253 0.018808181 0.018177467)
(0.26281786 0.01855084 0.018631458)
(0.27534044 0.018231705 0.019086932)
(0.28799695 0.017867461 0.019538919)
(0.3007525 0.017443371 0.019998288)
(0.31357975 0.016980302 0.020456051)
(0.32643502 0.016466164 0.020921492)
(0.33930891 0.015916058 0.021395285)
(0.35212214 0.015342845 0.021869699)
(0.36492961 0.014709768 0.022358979)
(-0.0010687901 0.00073067659 0.0010809337)
(-0.00061488898 0.0012740857 0.0010938142)
(-0.00032425272 0.0019022868 0.0014330548)
(0.00080729917 0.0024844988 0.0016934337)
(0.0019016563 0.0030439552 0.0020304476)
(0.0037956037 0.0036963988 0.0024058738)
(0.0058455947 0.004102217 0.0027236236)
(0.0084296987 0.0047251878 0.0032561391)
(0.011302026 0.005113717 0.0036915085)
(0.014780255 0.0056237602 0.0041046117)
(0.018444349 0.0060475742 0.004667322)
(0.022696008 0.0064416996 0.0051307852)
(0.027247966 0.0068351225 0.005637613)
(0.032269176 0.0071678711 0.0061407807)
(0.037653765 0.0075256337 0.0066434213)
(0.04345317 0.0078055982 0.0071178935)
(0.049614906 0.0080873458 0.0076254591)
(0.056153593 0.0083249142 0.008089055)
(0.06305123 0.0085401835 0.0085863548)
(0.070269787 0.0087231106 0.0090598534)
(0.077836737 0.008895169 0.0095436847)
(0.08569089 0.0090146881 0.010034127)
(0.093879872 0.0091404323 0.010524766)
(0.10235275 0.0092091833 0.011014997)
(0.11110792 0.0092635782 0.011528678)
(0.12015448 0.0092855353 0.012029682)
(0.12948351 0.009273058 0.012537555)
(0.1390766 0.009230044 0.013052658)
(0.14895503 0.0091599217 0.013560432)
(0.15909974 0.0090505603 0.014070439)
(0.16951869 0.0089130101 0.014579654)
(0.18021444 0.008740342 0.015079489)
(0.19117771 0.0085361444 0.015579788)
(0.20240824 0.0082960555 0.016074375)
(0.213896 0.0080235297 0.016566527)
(0.22563019 0.0077150278 0.017055649)
(0.23759505 0.0073693944 0.017545837)
(0.24977197 0.0069881902 0.018033927)
(0.26213844 0.0065720124 0.018521657)
(0.27466076 0.0061172174 0.01901478)
(0.28731776 0.0056313705 0.01950633)
(0.30007634 0.0051075378 0.020004921)
(0.31290453 0.0045619516 0.02049777)
(0.32576547 0.0039815109 0.021007432)
(0.3386428 0.0033869057 0.021505531)
(0.35146769 0.0027710429 0.022019862)
(0.36428588 0.0021254655 0.022525817)
(-0.0011115659 0.00031913476 0.00044051625)
(-0.0005936992 0.00045479148 0.00035723027)
(-0.00030971973 0.0008441264 0.00070067595)
(0.00059831611 0.0010397446 0.0010083795)
(0.001955765 0.0012694784 0.001348435)
(0.0036107951 0.0015314216 0.0016804953)
(0.0057092766 0.0016173251 0.0022150076)
(0.0081637231 0.0018657917 0.0025826354)
(0.011133795 0.0019052556 0.0030504772)
(0.014413233 0.0020807997 0.0036091522)
(0.018185344 0.002061887 0.0040798914)
(0.022384561 0.0021462421 0.0045642989)
(0.026945333 0.0021535486 0.0050873103)
(0.031986117 0.0020960646 0.0055972748)
(0.03735148 0.002111172 0.0060835938)
(0.043173746 0.0019913513 0.0066128853)
(0.049310835 0.0019619369 0.0070937856)
(0.055859437 0.0018218785 0.007606043)
(0.062719527 0.0017142366 0.0081046999)
(0.069948722 0.0015714435 0.008592817)
(0.077496136 0.0013955888 0.0091003613)
(0.08537904 0.001231963 0.0095892988)
(0.093550256 0.0010167019 0.010092723)
(0.10200904 0.00079708132 0.01060434)
(0.11076377 0.00055541708 0.011114359)
(0.11979813 0.00028926273 0.011625034)
(0.12909973 3.4850569e-06 0.012157969)
(0.13868061 -0.00031574632 0.01268225)
(0.14853389 -0.00065110954 0.013207101)
(0.15865723 -0.0010215076 0.013739093)
(0.16905872 -0.0014072062 0.014258655)
(0.17973121 -0.0018245786 0.014783567)
(0.19067432 -0.0022606765 0.015302196)
(0.20188521 -0.0027216719 0.015822039)
(0.2133536 -0.003205543 0.016339772)
(0.22506807 -0.0037102316 0.016860291)
(0.2370161 -0.0042387246 0.017382771)
(0.2491709 -0.0047880016 0.017907678)
(0.26151355 -0.005360351 0.018436856)
(0.27402379 -0.0059523424 0.018968021)
(0.28667543 -0.0065586594 0.019498105)
(0.29942611 -0.0071837549 0.020033072)
(0.31225347 -0.0078150585 0.020567125)
(0.32511486 -0.008463888 0.021104061)
(0.3379965 -0.0091109086 0.02163514)
(0.35082878 -0.0097639933 0.02217257)
(0.36365161 -0.010422348 0.022705529)
(-0.0012317166 1.1775108e-05 -5.5617518e-05)
(-0.00065594957 -1.3169579e-05 1.3115213e-05)
(-0.00064824874 -1.158107e-05 0.00028524646)
(0.00059590025 -0.00012874233 0.00043701898)
(0.001666164 -0.00026440528 0.00074694869)
(0.0035460629 -0.0003473789 0.0011192376)
(0.0055038328 -0.00065952532 0.0015181516)
(0.0082080239 -0.00074606555 0.0018579031)
(0.011005045 -0.0011385835 0.0024145522)
(0.014453046 -0.0013379835 0.0028391816)
(0.01816267 -0.0017534644 0.0033088564)
(0.022361646 -0.0019820791 0.0038569534)
(0.026929248 -0.0024684359 0.0043795917)
(0.031919283 -0.0027713012 0.0048982295)
(0.037294661 -0.0032296796 0.0054475829)
(0.043059091 -0.003644722 0.0059768062)
(0.049205338 -0.0040858815 0.006504694)
(0.05570847 -0.0045559609 0.0070288337)
(0.062571095 -0.0050021382 0.0075515338)
(0.069769419 -0.0055000786 0.0080690162)
(0.077297794 -0.0059676526 0.0086002373)
(0.085124103 -0.0064796349 0.0091210961)
(0.093256621 -0.0069818033 0.0096634696)
(0.1016964 -0.007512858 0.010192515)
(0.1104273 -0.0080541607 0.010730692)
(0.11943125 -0.0086095903 0.011275998)
(0.12872118 -0.0091896745 0.011821218)
(0.13828298 -0.0097836273 0.012357513)
(0.14811696 -0.010396217 0.01290303)
(0.158223 -0.011027478 0.013439703)
(0.16860459 -0.011672325 0.013978075)
(0.17925763 -0.012338928 0.014516638)
(0.19018195 -0.013012105 0.015052346)
(0.20137443 -0.013704265 0.01559203)
(0.21282363 -0.014402896 0.016132554)
(0.22452326 -0.015111965 0.016678046)
(0.23645609 -0.015828298 0.017228228)
(0.24859948 -0.01655645 0.017783598)
(0.26094314 -0.017278329 0.018337948)
(0.27345906 -0.018006613 0.018903662)
(0.28609636 -0.018735502 0.019470986)
(0.29884125 -0.019465918 0.020043251)
(0.31166006 -0.02018645 0.02060937)
(0.32451683 -0.02090702 0.021183006)
(0.33738455 -0.021605753 0.021745421)
(0.35021379 -0.022298803 0.02231948)
(0.36302244 -0.022968421 0.022881082)
(-0.001036417 -0.00033465637 -0.00070589923)
(-0.00042367326 -0.00080611464 -0.00048064989)
(-0.00030066158 -0.0010592124 -0.00060620946)
(0.00077437957 -0.0016342643 -0.00025241271)
(0.001988706 -0.0019799279 -3.0644488e-05)
(0.0037101917 -0.0025763343 0.00039873344)
(0.0058454747 -0.0031289376 0.00073200445)
(0.008336088 -0.0036777973 0.0012272384)
(0.011277564 -0.0043913038 0.001698823)
(0.014608208 -0.004956104 0.002162716)
(0.018373752 -0.0057198031 0.0027165718)
(0.022519193 -0.0063928384 0.0032327276)
(0.027093242 -0.007153972 0.0037543453)
(0.03207585 -0.0079140492 0.0043183595)
(0.037418979 -0.0086868439 0.0048413926)
(0.043187341 -0.0094794757 0.0054090357)
(0.049292595 -0.010271762 0.0059319122)
(0.055791783 -0.011071894 0.0064913106)
(0.062619565 -0.011883328 0.007026763)
(0.069798171 -0.012687975 0.0075706817)
(0.077293893 -0.013509535 0.0081152863)
(0.085124728 -0.014299461 0.0086590614)
(0.093236826 -0.015123741 0.0092074562)
(0.10166502 -0.015981831 0.0097506102)
(0.11036454 -0.016809755 0.010313723)
(0.11935019 -0.017673578 0.010859257)
(0.1286161 -0.018518895 0.01141712)
(0.13815068 -0.019393593 0.011976567)
(0.14795611 -0.020266848 0.012531043)
(0.15803724 -0.021160147 0.013087609)
(0.16839017 -0.022062069 0.013643052)
(0.17901121 -0.022968853 0.014199739)
(0.18990867 -0.023883442 0.014756722)
(0.20106641 -0.024800839 0.015319794)
(0.21248575 -0.025712955 0.015885886)
(0.2241534 -0.026625326 0.016461643)
(0.23605273 -0.027529837 0.017044551)
(0.24816672 -0.028422165 0.017637916)
(0.26047744 -0.029310298 0.01823541)
(0.27294208 -0.03017403 0.018847874)
(0.28555856 -0.031013853 0.019454682)
(0.29827996 -0.031834693 0.020065614)
(0.31107937 -0.032634432 0.020675903)
(0.3239183 -0.033408893 0.021283154)
(0.3367695 -0.034152308 0.021882193)
(0.34959516 -0.034873302 0.022475378)
(0.36238975 -0.035556366 0.023060797)
(-0.00071358994 -0.00080646319 -0.0010731115)
(-0.00020684409 -0.0013493633 -0.00099592358)
(-0.00014100741 -0.0020207119 -0.0011098096)
(0.0010761724 -0.0027747125 -0.00087582899)
(0.0020918575 -0.0035486382 -0.00066824248)
(0.0040360524 -0.0044725492 -0.00025997817)
(0.0059908361 -0.0054012303 6.2258864e-05)
(0.0086083414 -0.0063395517 0.00057029128)
(0.011489587 -0.007452579 0.00098190071)
(0.014822503 -0.0083505965 0.001506423)
(0.018625454 -0.0096333785 0.0020655514)
(0.022699987 -0.010546316 0.0025070365)
(0.02734519 -0.011820274 0.003151736)
(0.032238204 -0.01288753 0.0036561682)
(0.037629017 -0.014084416 0.0042540642)
(0.043334161 -0.015223221 0.0048077281)
(0.049447225 -0.016389774 0.0053814015)
(0.055910253 -0.017549804 0.0059527834)
(0.062711889 -0.018696939 0.0065086511)
(0.069871636 -0.019844829 0.0070828968)
(0.077340055 -0.020978287 0.0076378644)
(0.085127167 -0.022115176 0.0082156063)
(0.093234095 -0.023239499 0.0087754022)
(0.10162605 -0.02437556 0.0093512216)
(0.11030183 -0.025503636 0.0099194864)
(0.11926102 -0.026637822 0.01048968)
(0.1284966 -0.027777694 0.011074017)
(0.13800396 -0.028919418 0.01164184)
(0.14778903 -0.030068107 0.012213483)
(0.15784112 -0.031227273 0.012784484)
(0.16816385 -0.032384864 0.013354241)
(0.17875875 -0.033546388 0.013926274)
(0.18962213 -0.034702767 0.014501899)
(0.20075027 -0.035852426 0.015084048)
(0.21213867 -0.036986673 0.015673852)
(0.22377411 -0.038109104 0.016275695)
(0.23564387 -0.039205235 0.016888065)
(0.24773297 -0.040279911 0.017512517)
(0.26001278 -0.0413214 0.018143743)
(0.27245902 -0.042328516 0.018785531)
(0.2850506 -0.043297064 0.019431178)
(0.29775196 -0.044224584 0.020081023)
(0.31053107 -0.045109161 0.02072601)
(0.32335446 -0.045949247 0.021367301)
(0.33618945 -0.04674219 0.021993804)
(0.34900549 -0.047497938 0.022614438)
(0.36176409 -0.048203657 0.023218876)
(0 -8.0965491e-20 0)
(0 4.5417202e-19 0)
(0 3.9245535e-19 0)
(0 3.4633497e-19 -1.1871914e-19)
(0 1.3682063e-19 0)
(0 -4.8053354e-21 0)
(0 6.6509508e-20 0)
(0 2.4833506e-20 0)
(0 -1.613594e-19 0)
(0 -3.9779938e-19 0)
(0 -4.9418783e-19 -8.2057869e-20)
(0 -8.101762e-20 0)
(0 9.9799014e-20 0)
(0 1.9276889e-19 0)
(0 1.5958033e-19 0)
(0 2.513611e-19 0)
(0 4.5907847e-19 0)
(0 4.5928042e-19 2.3134053e-19)
(0 3.9665783e-19 0)
(0 4.6186493e-19 0)
(0 1.5640098e-19 0)
(-2.7828146e-18 1.3109735e-19 0)
(1.1897285e-18 -2.9793297e-19 0)
(-6.9077304e-20 -1.1951927e-19 0)
(2.1417682e-19 -2.1028702e-19 -1.5957971e-19)
(-4.0052934e-19 -2.9393148e-19 0)
(-1.0251639e-18 -4.2016258e-19 0)
(1.5667369e-19 -3.4692926e-19 0)
(0 2.6552355e-19 0)
(0 9.504411e-20 0)
(0 -1.8431482e-19 0)
(0 1.796833e-20 4.7022345e-19)
(0 2.0267393e-19 0)
(0 2.9518507e-19 0)
(0 -8.2011948e-20 0)
(0 -2.1466262e-19 0)
(0 -1.7549645e-19 0)
(0 4.1279904e-20 0)
(0 2.0596408e-19 -4.6932357e-20)
(0 1.5238995e-19 0)
(0 -5.5231926e-20 0)
(0 1.4260212e-19 0)
(0 2.5796382e-20 0)
(0 -1.518673e-19 0)
(0 2.2233972e-19 0)
(0 1.4158697e-20 1.6275011e-19)
(0 2.2027837e-19 0)
(0 3.483573e-19 0)
(0 3.1549356e-19 0)
(0.00020612802 -0.00024349581 -0.00093318895)
(0.00043116583 -0.0004297686 -0.00074533047)
(0.000699907 -0.00046344091 -0.00038387921)
(0.00080279187 -0.00050856635 -0.00012367908)
(0.0008449235 -0.00049692766 0.00014007308)
(0.00085649636 -0.00060148571 0.00044528295)
(0.00073254974 -0.00034527925 0.00076478108)
(0.00081640075 -0.0021362416 -0.0011586185)
(0.0011372924 -0.0026435213 -0.00056215042)
(0.0013225407 -0.0024782398 -0.0002100579)
(0.0014742232 -0.0024451783 0.00021496108)
(0.0015354848 -0.0027708192 0.00059122319)
(0.0014311919 -0.002816416 0.0010981247)
(0.0013124254 -0.0028820315 0.0017367826)
(0.00088126564 -0.0025385093 -0.0013606178)
(0.0014599095 -0.002389904 -0.0010109521)
(0.0018524329 -0.0028855139 -8.4912269e-05)
(0.0018978677 -0.0029686238 0.00022322267)
(0.001988196 -0.0029455243 0.00099038601)
(0.0018383703 -0.0031188266 0.0013701563)
(0.0015906743 -0.0036564913 0.0023449013)
(0.002275512 -0.004446131 -0.00091955422)
(0.0025463497 -0.0048076791 -0.00044463131)
(0.0028620072 -0.0049079959 0.00019194638)
(0.0029799229 -0.0050332688 0.00065786049)
(0.0030349038 -0.0052105115 0.0013140873)
(0.0027956116 -0.0056404117 0.0020134089)
(0.0025134942 -0.0055359012 0.0026247461)
(0.0032410274 -0.0053608695 -0.0008632084)
(0.0038152085 -0.0055743894 -0.00036544085)
(0.0042232994 -0.0058732964 0.00042672962)
(0.0042919818 -0.0060389255 0.0010832065)
(0.0043320931 -0.0063547192 0.0017246255)
(0.0041537837 -0.0065562841 0.0023808602)
(0.0038078516 -0.0069698202 0.0032324657)
(0.0052425504 -0.0070786782 -0.00035172366)
(0.005584812 -0.0072766193 0.00012279737)
(0.0059342737 -0.0075147666 0.0008748188)
(0.006006618 -0.007868465 0.0013463347)
(0.0060226945 -0.007979566 0.0021994369)
(0.0056968685 -0.0083913052 0.0028235062)
(0.0053793913 -0.0085995542 0.0035340689)
(0.0072005726 -0.0081683482 -4.8579298e-05)
(0.0076424711 -0.0084272145 0.00061301248)
(0.0079674826 -0.008906029 0.0012530663)
(0.0081023454 -0.0091054771 0.0019444516)
(0.0080694103 -0.0095527179 0.0026637855)
(0.0078874466 -0.0099489214 0.0033302375)
(0.0074930247 -0.010311034 0.0041531059)
(0.0097886719 -0.0097850115 0.00048406342)
(0.01024908 -0.010210693 0.00096203406)
(0.010562562 -0.010506514 0.001777453)
(0.01059749 -0.010852572 0.0023883468)
(0.010520438 -0.01106965 0.003066101)
(0.010267742 -0.011426949 0.0037982167)
(0.0097984915 -0.011732947 0.0044792575)
(0.012741038 -0.011196199 0.00089078215)
(0.013100249 -0.011451274 0.0016288476)
(0.01335935 -0.011874028 0.0022795747)
(0.01345258 -0.012313562 0.0028857782)
(0.01341036 -0.012814271 0.0036470802)
(0.013166953 -0.013203014 0.0043418919)
(0.012761562 -0.013693651 0.005144183)
(0.01598801 -0.012618966 0.0014688451)
(0.016446536 -0.013170212 0.0020383105)
(0.016705549 -0.013527382 0.0027075454)
(0.016824658 -0.014025925 0.0034744095)
(0.016687905 -0.014264988 0.0041354906)
(0.016386621 -0.014664331 0.0048157842)
(0.015940981 -0.015002813 0.0055205705)
(0.01980666 -0.014226601 0.0019887633)
(0.020144734 -0.014590858 0.0026458943)
(0.020393858 -0.015047679 0.0034260521)
(0.020383998 -0.01536888 0.0039782005)
(0.020301519 -0.015881452 0.0046947755)
(0.020020775 -0.016340556 0.0053806714)
(0.019545046 -0.016842449 0.0061538051)
(0.023840246 -0.015610096 0.0024982804)
(0.024269424 -0.016142402 0.0032232929)
(0.024476681 -0.016618216 0.003772326)
(0.024592905 -0.017197603 0.0045094385)
(0.024470893 -0.017588342 0.005246331)
(0.024104277 -0.017959554 0.005861909)
(0.023708495 -0.018429227 0.0066042185)
(0.028468594 -0.017304826 0.0031510972)
(0.028746966 -0.017716239 0.00379002)
(0.028972796 -0.018205896 0.0044685381)
(0.028968668 -0.018561307 0.005131268)
(0.028818078 -0.018969875 0.005784817)
(0.028500482 -0.019536873 0.0064332391)
(0.028020158 -0.019916432 0.007160272)
(0.033305766 -0.018706212 0.003654745)
(0.033654345 -0.01923541 0.0043224069)
(0.033894043 -0.019761845 0.0049314305)
(0.033914583 -0.020266503 0.0055955744)
(0.033793922 -0.020814134 0.006312035)
(0.033451283 -0.02122117 0.0069089149)
(0.033006897 -0.021685238 0.0076647575)
(0.038644844 -0.020359998 0.0042638652)
(0.038957351 -0.020834401 0.0049385415)
(0.039118835 -0.021292093 0.0055377522)
(0.039109434 -0.021751579 0.0062395157)
(0.038955659 -0.022156389 0.0068388439)
(0.038600211 -0.022633629 0.007484453)
(0.038137161 -0.023093784 0.0081618177)
(0.044322345 -0.021827743 0.0048268278)
(0.04460946 -0.022313901 0.0054622687)
(0.044800736 -0.022868757 0.0060732721)
(0.044813418 -0.023367279 0.0066832756)
(0.044645566 -0.023877628 0.0073697264)
(0.044315077 -0.024387667 0.0079481366)
(0.043837559 -0.024801271 0.0086667989)
(0.050353358 -0.023371457 0.0053990544)
(0.050638477 -0.023879147 0.0060649512)
(0.050803075 -0.024384779 0.0066117407)
(0.050753084 -0.024824047 0.0072988278)
(0.050610462 -0.025325541 0.0078917607)
(0.050239186 -0.025746582 0.0084866827)
(0.049787431 -0.026247377 0.009155684)
(0.056775619 -0.024871933 0.0059888987)
(0.057049561 -0.025389217 0.0065775498)
(0.05718598 -0.025893113 0.0071793892)
(0.057177344 -0.026428583 0.0077743564)
(0.056993975 -0.026901833 0.0083854808)
(0.056655204 -0.027429504 0.0089708027)
(0.056168702 -0.027839156 0.0096324664)
(0.063527894 -0.02637476 0.0065364855)
(0.063754405 -0.02685611 0.0071636859)
(0.063918552 -0.027407368 0.0077136559)
(0.063837038 -0.02785319 0.0083239195)
(0.063693916 -0.028376854 0.0089198326)
(0.063312301 -0.028811298 0.0094809899)
(0.062868176 -0.029313606 0.010109193)
(0.070609536 -0.027835102 0.0071298659)
(0.070866485 -0.028374208 0.0077043218)
(0.070968721 -0.028872518 0.0082519272)
(0.070933558 -0.029409234 0.0088438584)
(0.070745857 -0.029878491 0.0094065804)
(0.070397639 -0.030406832 0.0099660527)
(0.069925703 -0.030832569 0.010582166)
(0.07804677 -0.029314569 0.0076874048)
(0.078234049 -0.029800483 0.0082573724)
(0.078371606 -0.0303574 0.0088020404)
(0.078281026 -0.030820943 0.0093672329)
(0.078119642 -0.031346437 0.0099290557)
(0.077744052 -0.031803339 0.010468832)
(0.077294803 -0.032285902 0.011058685)
(0.085764782 -0.030744303 0.0082667163)
(0.085980326 -0.031285941 0.0088221095)
(0.086067674 -0.031790498 0.0093398648)
(0.086000768 -0.032322386 0.0098993862)