/*--------------------------------*- C++ -*----------------------------------*\
  =========                 |
  \\      /  F ield         | OpenFOAM: The Open Source CFD Toolbox
   \\    /   O peration     | Website:  https://openfoam.org
    \\  /    A nd           | Version:  6
     \\/     M anipulation  |
\*---------------------------------------------------------------------------*/
FoamFile
{
    version     2.0;
    format      ascii;
    class       pointVectorField;
    location    "1.69";
    object      lm;
}
// * * * * * * * * * * * * * * * * * * * * * * * * * * * * * * * * * * * * * //

dimensions      [1 -2 -1 0 0 0 0];

internalField   nonuniform List<vector> 
625
(
(0 0 0)
(0 0 0)
(-2091.2911 -302.64025 -599.65225)
(-2113.8131 333.29217 -622.31995)
(0 0 0)
(0 0 0)
(-2088.5232 568.84901 -619.3824)
(-2067.4988 -74.246203 -598.28961)
(0 0 0)
(0 0 0)
(0 0 0)
(-1969.8304 -140.1192 -568.79447)
(-2023.0593 6.9270452 -588.46931)
(-2151.6287 171.78697 -629.37312)
(10.141439 5.6354716 -2.1876745)
(16.313731 3.7748461 1.9469885)
(19.798049 -2.8222543 2.3384121)
(18.36483 -14.929818 5.4986557)
(9.972144 -31.600593 8.1147923)
(-7.4821873 -53.510685 9.2559566)
(-35.277801 -79.835736 8.3131596)
(-75.35283 -108.88329 4.4532159)
(-129.14465 -141.47502 -3.4339371)
(-195.68859 -174.8234 -15.106767)
(-277.50335 -209.21881 -32.581959)
(-372.37621 -242.2962 -54.829218)
(-480.68131 -273.2449 -82.483915)
(-600.40143 -300.77952 -115.16329)
(-730.0838 -323.53826 -152.35088)
(-867.56551 -340.7878 -193.54068)
(-1010.8508 -352.1475 -237.54142)
(-1156.7984 -356.90554 -284.56271)
(-1305.3596 -356.19517 -332.39562)
(-1452.4979 -350.04507 -381.7434)
(-1599.3252 -339.46254 -431.82072)
(-1744.8373 -325.96206 -481.33102)
(-1887.2296 -309.49038 -531.38043)
(4.1859346 2.4148328 4.3814406)
(14.009222 7.9233384 14.604841)
(22.330282 13.482585 27.787345)
(23.095886 24.408118 37.693023)
(18.620939 32.46416 47.852598)
(4.8214755 46.650533 53.837594)
(-18.297564 57.405857 57.918514)
(-52.936551 72.005647 56.461125)
(-99.683073 85.936758 51.266475)
(-158.80413 100.10579 40.044159)
(-232.08396 115.71037 23.19236)
(-318.6324 131.04034 0.25077667)
(-419.61267 147.18209 -29.114767)
(-534.1996 163.80558 -64.737058)
(-662.13652 180.79646 -106.59948)
(-802.10131 198.24892 -154.01958)
(-952.61054 215.82916 -206.62717)
(-1111.3429 233.45091 -263.01805)
(-1275.9645 250.99965 -322.51235)
(-1443.3428 267.81934 -383.2307)
(-1611.0657 284.52289 -444.21195)
(-1776.4848 300.55284 -503.86866)
(-1945.3169 316.72963 -564.27887)
(0 0 0)
(0 0 0)
(0 0 0)
(7.1996693 -5.0375898 4.927386)
(14.261227 -7.9135983 8.5729709)
(12.888237 1.7151929 12.782417)
(12.005673 9.7633137 18.307453)
(1.0311416 28.394631 21.503967)
(-16.30424 47.914856 24.085286)
(-42.552519 72.891034 22.607408)
(-80.488038 100.69724 19.810767)
(-128.38724 131.7717 11.765612)
(-188.65577 165.16489 -0.30965597)
(-260.49072 199.18529 -16.85824)
(-345.57427 236.13929 -39.127289)
(-442.57682 271.73035 -66.175956)
(-552.65598 308.95039 -98.826792)
(-674.56469 344.6692 -136.58787)
(-807.63947 379.31584 -179.07476)
(-950.73202 412.17738 -226.00324)
(-1101.5161 442.19442 -276.54703)
(-1258.5164 469.45173 -329.93226)
(-1418.71 493.19755 -385.40169)
(-1580.2223 513.85688 -442.00935)
(-1740.7723 531.20429 -498.57206)
(-1891.6934 543.69484 -552.64078)
(-2132.6322 411.6119 -628.39845)
(-1979.3234 229.06389 -580.34834)
(-1982.3194 78.66021 -577.39735)
(-1877.3136 -87.921824 -532.70111)
(-1735.8989 -103.50686 -479.7959)
(-1587.13 -117.41533 -425.00417)
(-1436.583 -130.1202 -369.19661)
(-1285.2677 -140.95916 -313.6673)
(-1135.0258 -149.15541 -259.41251)
(-986.89024 -154.80723 -207.22654)
(-843.52236 -157.03083 -158.21707)
(-706.85011 -156.28075 -113.45087)
(-578.95396 -152.243 -73.645108)
(-461.94248 -145.35471 -39.447136)
(-356.94224 -135.86426 -11.254654)
(-265.18457 -124.22837 11.251642)
(-187.3685 -111.748 27.767228)
(-124.12215 -96.782048 37.321379)
(-72.649484 -81.212034 44.872225)
(-35.273249 -68.583202 45.836976)
(-9.7781858 -52.399079 42.126469)
(5.9396584 -40.406735 37.692932)
(12.835728 -27.410468 29.260903)
(11.847602 -18.27076 20.816626)
(9.0092173 -9.2466714 11.604744)
(-1.3496253 -2.047606 1.1283496)
(0 0 0)
(0 0 0)
(0 0 0)
(0 0 0)
(0 0 0)
(0 0 0)
(-2107.0632 392.22072 -621.60395)
(-2100.7647 451.45429 -620.80616)
(-2093.9263 509.80618 -619.88537)
(-2085.6458 -245.31863 -599.70777)
(-2079.7233 -188.4748 -598.49732)
(-2073.9153 -131.80139 -598.77576)
(7.2740625 2.7559152 3.5535752)
(15.273485 3.3876307 6.1025403)
(20.684396 0.67853666 8.9364852)
(22.720909 -4.7409483 13.975126)
(19.189951 -14.294947 17.069073)
(5.6750685 -27.551239 19.001475)
(-16.326191 -43.372576 18.371775)
(-54.046517 -63.081926 15.2328)
(-104.73965 -84.6861 6.9055231)
(-173.83063 -107.15984 -5.7575802)
(-258.72132 -130.20909 -24.471249)
(-359.7254 -151.32682 -48.43302)
(-475.02877 -170.33122 -78.371834)
(-601.74327 -185.51568 -113.15525)
(-736.89486 -196.28713 -152.3012)
(-876.98571 -202.51357 -194.56556)
(-1019.0452 -203.92925 -239.1239)
(-1160.3245 -201.42285 -285.07154)
(-1300.1956 -195.25957 -331.5902)
(-1436.9797 -186.73479 -378.56619)
(-1572.5155 -176.2326 -425.66618)
(-1707.2934 -164.80133 -473.74118)
(-1849.9806 -153.36097 -524.27077)
(10.163041 2.5384141 2.8891064)
(17.790195 3.9668251 8.8425976)
(26.640053 2.9611159 14.771942)
(28.58743 0.1716352 21.49694)
(22.858622 -4.0973663 25.964597)
(9.4554701 -9.0649778 29.391561)
(-16.129151 -16.437932 30.758544)
(-53.519941 -22.561275 27.006209)
(-103.48112 -30.276955 20.608672)
(-166.81596 -36.944 8.8199536)
(-242.73083 -43.956445 -7.6287528)
(-331.8287 -49.828991 -29.440737)
(-433.21125 -54.965943 -56.545304)
(-546.36405 -58.828677 -88.760086)
(-670.64201 -61.191064 -126.12865)
(-805.09374 -61.904825 -168.14628)
(-948.72785 -60.618616 -214.55422)
(-1100.0663 -57.268452 -264.74842)
(-1258.2381 -51.428899 -318.13918)
(-1420.712 -43.979041 -373.7629)
(-1587.0333 -33.377708 -431.97161)
(-1754.5839 -21.741193 -490.04162)
(-1916.4021 -7.7772609 -547.39958)
(8.3699027 7.5816992 7.4749395)
(18.355585 14.575081 14.675055)
(27.767227 16.867226 25.001023)
(26.645348 20.808268 32.483253)
(20.586464 24.542996 39.287571)
(3.9252418 25.448636 43.718805)
(-23.345108 28.854425 42.612009)
(-60.062741 30.026715 39.349628)
(-107.02526 31.660833 31.310274)
(-164.75513 33.374135 19.200354)
(-232.53259 34.696752 3.0117464)
(-311.9356 37.060099 -17.723399)
(-402.87145 39.569392 -42.878559)
(-507.05278 43.233699 -73.111024)
(-624.88001 48.098176 -108.65279)
(-757.26316 54.404949 -149.83229)
(-903.97666 62.683659 -196.875)
(-1064.3773 72.93246 -249.57362)
(-1236.4153 85.182364 -307.3837)
(-1417.6468 100.03684 -369.77556)
(-1603.9097 116.37077 -434.5017)
(-1792.0745 134.029 -500.89565)
(-1966.1931 153.02517 -563.97729)
(0 0 0)
(0 0 0)
(0 0 0)
(0 0 0)
(0 0 0)
(0 0 0)
(0 0 0)
(0 0 0)
(0 0 0)
(4.4849551 -0.90999122 3.1178737)
(5.2544214 -1.8739113 3.1938013)
(5.7907515 -1.7972284 2.8834923)
(12.815976 -0.021507705 13.21545)
(12.104912 -1.2702893 11.410882)
(12.71852 -2.7185745 9.678563)
(16.934592 6.1739757 24.853196)
(13.691403 5.3583236 20.539355)
(12.714848 5.4922717 16.870927)
(15.854786 17.183638 33.394632)
(12.219299 17.308277 28.7754)
(10.118794 14.819482 23.154186)
(8.5967542 28.904238 42.40974)
(2.843308 28.309549 36.296301)
(0.24471944 30.12312 29.250466)
(-6.523185 42.881034 48.198102)
(-13.567374 46.545136 41.515343)
(-17.291382 48.832474 32.248489)
(-32.29189 60.198986 51.049411)
(-39.944535 65.796484 43.5214)
(-44.11507 70.679532 32.698855)
(-68.323399 78.134297 49.561449)
(-76.277239 85.355053 41.874195)
(-81.449322 94.206724 31.090316)
(-115.51885 96.045044 43.60546)
(-124.01985 108.86407 35.762733)
(-129.23502 120.61478 23.77538)
(-175.77113 117.08922 32.547894)
(-184.01786 133.0109 24.482001)
(-189.67485 149.06516 12.340275)
(-248.19867 137.19473 15.458209)
(-256.23353 157.79446 7.905828)
(-261.27049 177.96319 -4.2424492)
(-334.36009 159.30991 -7.3714235)
(-341.45128 184.35267 -14.289762)
(-346.32922 208.94195 -26.40572)
(-433.4967 181.09735 -36.354895)
(-439.74247 210.3658 -42.520731)
(-443.59548 239.72555 -54.210561)
(-546.05686 203.713 -71.554716)
(-550.90076 237.43758 -76.724814)
(-553.70551 271.23342 -87.52893)
(-671.11662 226.04987 -112.58302)
(-674.65522 263.92163 -116.55846)
(-676.25935 302.56083 -126.50567)
(-807.95107 248.30599 -158.99185)
(-809.99579 290.27225 -161.94526)
(-810.01822 332.95559 -170.52098)
(-954.96977 269.89889 -210.29564)
(-955.46893 315.56162 -212.08897)
(-954.20448 362.20665 -219.16407)
(-1110.1917 290.57633 -265.29027)
(-1109.4178 339.55028 -266.13533)
(-1106.5616 389.6102 -271.68512)
(-1271.4815 309.97559 -323.1922)
(-1269.1343 361.98576 -323.29397)
(-1265.18 414.71996 -327.05579)
(-1435.8565 327.99189 -382.66638)
(-1432.6517 382.37222 -381.96882)
(-1427.626 437.29907 -384.45978)
(-1601.3387 344.79834 -442.18633)
(-1596.9655 400.82206 -441.6453)
(-1591.254 457.22195 -442.84138)
(-1765.1655 360.01624 -501.42226)
(-1760.0747 417.27619 -500.73251)
(-1753.9197 474.92532 -500.75026)
(-1925.8006 374.16619 -559.36979)
(-1920.0628 432.35601 -558.21406)
(-1913.8028 490.10189 -557.89392)
(-1976.3554 -85.945456 -571.80887)
(-1970.6781 -31.618161 -570.98163)
(-1964.9446 22.713726 -571.10529)
(-2000.7453 62.836653 -582.99666)
(-1999.5877 118.45558 -583.15048)
(-1993.4749 173.7233 -583.59829)
(-2131.976 230.92787 -624.41523)
(-2132.7906 290.84069 -625.29127)
(-2126.0101 350.11884 -625.18804)
(7.4208018 4.7937323 -0.96560826)
(4.5040261 1.7167225 0.28716504)
(1.8401073 2.054283 -0.4001282)
(11.641965 0.55793936 5.7305566)
(9.4809551 -1.4184247 6.4118337)
(9.1405766 -1.3752194 8.9571926)
(13.526867 -6.3789003 8.8068696)
(12.890658 -10.265618 11.383401)
(9.9193191 -10.849904 16.618647)
(12.127194 -17.31596 13.892351)
(9.8323846 -19.71668 18.223747)
(8.8222403 -20.207853 25.039058)
(2.3267052 -34.953717 18.111388)
(0.63361988 -35.07764 24.706762)
(0.97951403 -35.154323 32.26272)
(-15.258059 -53.180165 21.024035)
(-15.623853 -51.405637 26.875197)
(-16.457805 -49.417579 37.192869)
(-43.018846 -77.664576 20.513092)
(-43.988091 -73.563549 28.8031)
(-43.561769 -68.402211 39.879011)
(-83.394421 -103.12158 17.454561)
(-83.450295 -95.133439 26.321791)
(-82.144655 -87.232688 38.191267)
(-135.46238 -132.38532 9.1807836)
(-135.36488 -118.08242 20.36572)
(-134.20174 -106.51304 32.180428)
(-202.65432 -159.77995 -1.3459339)
(-202.10623 -142.58265 7.5947685)
(-199.87281 -126.14376 21.345664)
(-283.47588 -189.39462 -19.407051)
(-281.60147 -166.73999 -7.7529099)
(-279.10575 -145.98595 5.234793)
(-377.8852 -217.12798 -41.343644)
(-375.26123 -188.95826 -30.030961)
(-372.24806 -163.24712 -17.497355)
(-485.40667 -242.54836 -69.164935)
(-481.94217 -209.17572 -57.759199)
(-478.23224 -178.62854 -45.624285)
(-604.43142 -264.65706 -101.94559)
(-600.0969 -226.38808 -90.989778)
(-595.85196 -191.12291 -79.662949)
(-733.51005 -282.44122 -139.67588)
(-728.48168 -239.76699 -129.31286)
(-723.58133 -200.12433 -119.16479)
(-870.46922 -295.3305 -181.40994)
(-864.65694 -248.86462 -172.14794)
(-859.22247 -205.15243 -163.2544)
(-1012.9769 -303.05196 -226.87638)
(-1006.7068 -253.20633 -218.7295)
(-1000.9039 -206.19328 -211.5167)
(-1159.0156 -304.81968 -274.93448)
(-1152.5152 -252.9035 -268.25268)
(-1146.0934 -203.18194 -262.52222)
(-1306.6637 -302.51525 -324.92709)
(-1299.7465 -248.48949 -319.82745)
(-1293.3805 -196.44348 -315.5622)
(-1453.7585 -294.60913 -376.55523)
(-1447.393 -239.77769 -372.18167)
(-1440.6307 -186.55788 -369.8116)
(-1600.5373 -283.94364 -428.48935)
(-1594.4502 -228.10092 -425.73769)
(-1587.5573 -173.9874 -424.30598)
(-1745.7499 -270.18005 -479.96218)
(-1739.5703 -214.54136 -478.80916)
(-1732.7546 -159.79174 -477.91626)
(-1890.0608 -254.53452 -532.79724)
(-1883.8875 -198.86944 -532.32489)
(-1877.9449 -143.76536 -531.6877)
(0.32863268 -3.1823983 3.4601248)
(9.8546023 -15.326535 11.063971)
(14.893275 -17.352858 16.759327)
(16.312237 -23.332854 23.526484)
(13.277309 -28.696197 30.99892)
(-0.094000502 -32.608979 35.481789)
(-21.954505 -37.963219 39.148441)
(-57.759449 -41.198724 37.423743)
(-108.47383 -44.154609 32.166018)
(-174.95489 -46.455564 20.635646)
(-257.97121 -46.269532 2.4745111)
(-357.17135 -44.313217 -22.690325)
(-470.98765 -40.65327 -54.433981)
(-596.56841 -34.643377 -92.411284)
(-731.3567 -26.650135 -135.4796)
(-871.46336 -17.084466 -182.21244)
(-1013.923 -6.1830042 -231.34156)
(-1155.8545 5.5888146 -281.31879)
(-1295.1272 17.651848 -331.31904)
(-1431.5531 29.914121 -380.64284)
(-1564.7484 41.943452 -428.78026)
(-1695.5403 53.862418 -476.19059)
(-1821.9103 65.451332 -521.78147)
(5.2559194 -3.2909354 5.2661757)
(16.18583 -11.445675 12.216352)
(17.019986 -10.673313 16.803126)
(20.261732 -13.836921 24.876827)
(12.105275 -12.333947 29.691709)
(-3.1702245 -7.8548132 32.150452)
(-28.315547 -4.0413866 33.204881)
(-67.032857 4.9027318 28.954279)
(-117.14148 13.787361 21.736839)
(-180.90454 26.125562 8.3762658)
(-256.92278 38.780692 -8.6589516)
(-346.08067 53.991488 -31.781176)
(-446.30148 68.813071 -59.417826)
(-557.3011 84.941395 -92.232394)
(-677.81836 100.48067 -129.30822)
(-806.4813 116.14238 -170.63389)
(-942.45561 131.21017 -215.57517)
(-1084.1018 146.12551 -263.52544)
(-1231.0316 160.3146 -314.45815)
(-1381.9284 174.76082 -366.92966)
(-1536.2507 188.93077 -421.56641)
(-1693.0062 203.28361 -476.89826)
(-1867.9821 219.99613 -537.69296)
(7.3964417 -0.67071814 5.0339144)
(16.560347 -3.4991578 10.084899)
(17.469274 1.4750843 15.625642)
(16.310124 6.3316792 20.755644)
(4.6026105 18.185354 23.523277)
(-14.543185 30.350401 25.870518)
(-43.039335 45.064713 24.372203)
(-81.868714 63.03414 20.082314)
(-128.90569 80.006922 12.213855)
(-186.40316 99.554603 0.58432043)
(-252.53094 118.55752 -14.952906)
(-329.58728 138.88431 -34.853689)
(-416.8492 159.64793 -59.248211)
(-516.42905 180.97398 -88.3491)
(-628.69368 203.46409 -122.68496)
(-754.51061 226.6345 -162.25984)
(-894.26141 250.68544 -207.22779)
(-1047.142 275.17627 -257.43349)
(-1212.2363 299.89042 -312.39222)
(-1386.5335 324.2392 -371.21272)
(-1567.9261 347.67092 -433.38695)
(-1751.7656 369.71868 -496.88822)
(-1941.1837 390.89865 -562.45293)
(4.6527312 -0.959486 1.0768618)
(3.8110288 -0.07155738 0.79913133)
(2.0137576 -1.0850353 0.51746574)
(12.476514 -2.0899118 6.3361106)
(10.062752 -3.2754095 6.1506102)
(10.046242 -5.0424458 8.6693137)
(15.662191 -4.961658 9.5716632)
(15.952287 -5.7459402 10.943769)
(12.921509 -9.7298674 14.717496)
(17.513724 -11.28832 16.170979)
(13.778736 -12.022491 19.266427)
(13.178882 -15.14349 22.097298)
(11.607006 -18.861415 21.137316)
(9.7923054 -18.731953 23.823799)
(8.8234315 -21.340628 28.509905)
(-1.9526456 -30.167699 24.036405)
(-4.711046 -27.894392 28.731025)
(-5.5414026 -29.14102 34.279158)
(-25.080734 -43.14261 25.130816)
(-27.926068 -38.839769 31.782042)
(-29.067079 -36.769416 36.759614)
(-62.861365 -59.16753 23.73364)
(-66.095155 -49.670381 30.019428)
(-66.424104 -44.467568 36.670024)
(-114.67971 -74.820353 16.459654)
(-117.19865 -63.08599 24.568947)
(-117.34396 -53.453038 30.096269)
(-183.09493 -92.931199 5.0663334)
(-185.37132 -75.085003 13.639182)
(-185.43942 -59.800459 19.162504)
(-268.129 -109.71895 -12.983095)
(-269.44385 -87.040136 -4.3516466)
(-268.80597 -66.823505 1.3825462)
(-368.94768 -125.15138 -36.473027)
(-369.36354 -97.217331 -28.128974)
(-368.38069 -70.586294 -23.543853)
(-484.28737 -138.41975 -66.578778)
(-483.53596 -105.0881 -58.896984)
(-481.76144 -72.931892 -54.859278)
(-611.04001 -148.22634 -102.12393)
(-608.93731 -110.11321 -95.489757)
(-606.58607 -72.563245 -92.274273)
(-746.28825 -154.41725 -142.46383)
(-743.00861 -111.88771 -137.0167)
(-739.82079 -69.62394 -134.67315)
(-886.45934 -156.66318 -186.41372)
(-881.96412 -110.45704 -182.47825)
(-878.0185 -64.267479 -180.7591)
(-1028.3185 -155.05054 -232.97421)
(-1022.9075 -105.85858 -230.28128)
(-1018.3523 -56.778075 -229.36532)
(-1169.3246 -150.12026 -280.80417)
(-1163.5326 -98.869754 -279.55782)
(-1157.977 -47.591722 -278.8063)
(-1308.2536 -142.7727 -329.39934)
(-1301.3976 -89.819533 -328.82421)
(-1295.961 -37.00994 -328.7592)
(-1444.7904 -132.93838 -378.18928)
(-1436.1387 -78.959063 -377.99066)
(-1430.7224 -25.687557 -378.02613)
(-1576.6186 -121.84002 -426.03306)
(-1571.0379 -68.065299 -427.0803)
(-1564.0739 -14.06486 -426.46664)
(-1708.707 -110.13495 -474.37179)
(-1702.5871 -55.891425 -474.98865)
(-1695.8742 -1.8031716 -474.59094)
(-1841.3397 -98.261134 -523.02265)
(-1835.518 -44.135824 -523.07372)
(-1829.5668 10.062238 -522.61238)
(7.5931491 -0.029355603 1.4645132)
(6.860823 -0.39270398 2.2528856)
(4.9610763 -2.2954764 3.0211487)
(16.040417 -0.88327195 9.5192784)
(14.823114 -3.0056392 10.473557)
(13.934127 -5.5347294 12.130561)
(21.044869 -2.1376168 15.798386)
(18.568972 -4.4347799 16.631143)
(16.748253 -9.3022085 17.737652)
(22.616903 -4.2164842 24.098709)
(18.887111 -6.193313 25.141072)
(17.18914 -8.9499784 26.014837)
(14.563277 -7.5791929 29.411472)
(10.788838 -8.3903982 29.768583)
(10.178885 -11.401304 32.137856)
(0.46663969 -10.551095 33.545813)
(-3.9576 -8.9382059 35.360555)
(-6.1967509 -9.2446949 35.375546)
(-26.57205 -14.993691 36.123971)
(-31.738388 -10.370244 35.745244)
(-33.027324 -6.8772465 36.902037)
(-64.883063 -17.529998 32.370001)
(-70.207944 -8.8761878 32.966049)
(-70.602962 -3.5746372 33.22245)
(-115.36119 -21.457599 26.537803)
(-120.35875 -8.5966483 26.505743)
(-121.51511 2.0807301 26.304719)
(-179.63843 -23.678362 14.701305)
(-184.86449 -5.4692455 13.659038)
(-184.78166 8.9377138 13.570832)
(-256.35731 -25.268556 -2.148773)
(-260.73629 -2.2548864 -3.3919526)
(-260.0606 16.910944 -3.6826112)
(-345.59882 -26.07234 -24.327099)
(-349.66461 2.3992176 -26.211662)
(-348.21726 26.18659 -26.38576)
(-446.97775 -25.75312 -52.282095)
(-450.2494 7.8921467 -54.565453)
(-447.52085 36.146757 -54.479715)
(-559.18332 -24.216901 -85.074476)
(-561.3749 14.292037 -87.729998)
(-557.86104 46.855034 -87.260977)
(-681.75426 -21.530106 -123.16871)
(-682.89069 21.329183 -125.95025)
(-678.35757 57.963548 -125.06596)
(-813.34303 -17.521006 -165.55577)
(-813.0736 29.151351 -168.34912)
(-807.89854 69.467771 -167.04592)
(-952.92719 -12.193325 -212.17261)
(-951.36611 37.578322 -214.67662)
(-945.74389 81.309431 -213.09746)
(-1099.3435 -5.4170142 -262.11839)
(-1096.4268 46.860715 -264.18868)
(-1090.5739 93.504398 -262.38464)
(-1251.5677 2.7656213 -314.97167)
(-1247.4543 56.84619 -316.46236)
(-1241.3883 106.38343 -314.99756)
(-1408.0079 12.317382 -369.71619)
(-1402.4651 68.554778 -371.00699)
(-1396.8875 119.159 -368.98592)
(-1562.2908 23.724456 -425.5476)
(-1571.3628 80.583223 -427.63581)
(-1556.6986 133.25925 -425.99876)
(-1729.7585 36.398537 -483.60389)
(-1723.9472 92.133976 -483.73672)
(-1717.8332 147.90707 -482.62069)
(-1893.9058 49.748941 -541.86383)
(-1887.5251 106.85828 -541.53522)
(-1881.9319 162.76403 -540.49985)
(7.5806449 2.3895082 4.5403029)
(6.3674878 1.6960137 4.5152357)
(6.6433707 1.4061634 3.9820424)
(15.88464 5.8282027 12.978644)
(14.039798 3.6885354 12.54976)
(15.180455 2.2832908 10.852188)
(21.232822 8.860771 22.316507)
(18.054775 8.2363 19.289316)
(16.818267 5.0684321 17.091133)
(18.295422 13.954165 30.688005)
(14.659299 11.321445 28.100683)
(13.274814 11.292284 25.697539)
(10.121315 18.522692 36.805662)
(4.9361845 20.518321 33.146881)
(2.7709838 19.135331 28.253152)
(-8.9501974 23.986846 41.715496)
(-14.432005 26.526415 36.676963)
(-17.423432 30.213023 32.587181)
(-37.014948 30.481533 40.589911)
(-43.020272 36.733863 35.708885)
(-46.080203 41.562064 30.848521)
(-74.812667 36.095683 37.552552)
(-80.974772 46.156447 32.97276)
(-84.312569 55.000633 27.463885)
(-122.48197 42.821552 29.887768)
(-128.22206 55.882769 24.68629)
(-132.05947 68.582068 19.265233)
(-179.99916 49.32006 17.804671)
(-185.95657 66.88222 13.26601)
(-189.17002 83.275805 7.9298164)
(-247.49009 55.949791 2.0723883)
(-252.28403 77.399697 -2.3835991)
(-255.95118 98.028795 -7.6662238)
(-325.90289 63.406276 -18.425027)
(-330.0526 88.726841 -22.679427)
(-333.4238 113.58938 -27.386426)
(-415.48637 71.11677 -43.224042)
(-418.3594 100.49489 -47.04372)
(-421.6112 130.04077 -51.638878)
(-517.63501 79.985331 -73.040517)
(-519.17617 113.00861 -76.671311)
(-522.00402 146.97913 -80.739516)
(-632.89433 89.719286 -108.18875)
(-633.04477 126.50986 -111.43164)
(-635.47429 165.23638 -115.09809)
(-762.06203 100.79866 -148.83819)
(-760.81567 141.19408 -151.8498)
(-762.37837 184.34482 -154.91082)
(-905.14567 113.3043 -195.4215)
(-902.61135 157.15894 -197.96)
(-903.24895 204.61504 -200.52846)
(-1061.4249 127.12881 -247.46193)
(-1057.8845 174.55345 -249.77436)
(-1057.1981 225.6675 -251.57537)
(-1229.5037 142.62711 -304.82454)
(-1224.9329 193.0574 -306.61261)
(-1222.9107 247.12703 -307.85411)
(-1406.4834 159.15384 -366.5443)
(-1401.5435 212.28561 -367.76218)
(-1398.208 269.07715 -368.19272)
(-1589.6944 176.50869 -431.00218)
(-1584.4054 232.40276 -431.88694)
(-1579.6161 290.25479 -431.94599)
(-1775.3058 195.0212 -496.89604)
(-1769.7654 252.12926 -497.24676)
(-1763.7554 311.52051 -497.35764)
(-1959.4955 213.50974 -563.19727)
(-1953.2711 272.03906 -562.79565)
(-1947.1758 331.90464 -562.26268)
)
;

boundaryField
{
    free
    {
        type            zeroGradient;
    }
    fixed
    {
        type            fixedValue;
        value           uniform (0 0 0);
    }
    traction
    {
        type            zeroGradient;
    }
}


// ************************************************************************* //
