/*--------------------------------*- C++ -*----------------------------------*\
  =========                 |
  \\      /  F ield         | OpenFOAM: The Open Source CFD Toolbox
   \\    /   O peration     | Website:  https://openfoam.org
    \\  /    A nd           | Version:  6
     \\/     M anipulation  |
\*---------------------------------------------------------------------------*/
FoamFile
{
    version     2.0;
    format      ascii;
    class       pointScalarField;
    location    "0.39";
    object      p;
}
// * * * * * * * * * * * * * * * * * * * * * * * * * * * * * * * * * * * * * //

dimensions      [1 -1 -2 0 0 0 0];

internalField   nonuniform List<scalar> 
625
(
551169.17
-756826.3
10043.628
12371.892
888892.54
-1432718.4
7650.6254
3216.3149
337040.32
24725.809
-83919.004
-16328.041
-876.6907
6168.6356
215647.4
227792.15
213187.18
205650.78
178619
169260.62
155976.63
144223.05
139689.38
124704.69
116432.01
104064.41
91171.316
79256.587
68853.324
60437.329
52556.404
48286.426
44379.091
36038.962
31025.336
21852.556
17672.665
-246163.83
-150482.4
-204535.69
-158394.02
-145437.39
-143064.22
-123304.43
-115394.18
-108580.86
-100231.22
-94688.679
-89225.679
-85714.439
-80968.568
-77873.272
-74696.057
-70465.971
-67037.308
-59229.239
-55039.564
-43563.865
-29037.091
-14808.368
553816.94
-8508.8795
-192898.4
-247755.74
-321408.35
-229840.59
-209312.53
-236579.44
-190234.86
-174564.98
-170321.01
-159558.66
-147813.35
-133234.75
-120461.05
-106972.92
-94594.729
-82385.295
-71502.954
-61851.201
-51427.874
-42663.332
-33658.442
-22263.123
-12706.456
-3143.6485
7335.2219
1100.1062
-7636.8547
23953.904
31473.051
40196.974
49669.433
58271.517
66045.968
71761.843
80230.956
87241.617
96785.318
106615.82
119456.69
130406.74
144692.57
149272.54
177169.36
183926.15
187575.41
222099.57
211871.64
262375.43
211476.16
243503.09
542009.49
553558.33
522714.45
-833500.35
-818263.97
-811365.42
26170.693
21563.797
27603.918
-2573.6519
4154.8355
921.22244
105040.48
119892.97
127001.4
115511.24
113801.51
112931.32
103822.78
99293.277
90116.097
81889.522
73876.596
64310.366
55268.599
47953.04
41504.269
35322.434
31327.247
28521.865
23182.651
23540.918
17442.022
11818.702
9005.5685
-6562.3842
4182.5296
-4361.6486
6941.7874
-629.35333
181.65779
-2960.2051
-3027.3584
-5945.1031
-6622.2164
-7858.3591
-8531.0379
-8335.6148
-7353.0523
-7101.3496
-5877.8266
-4705.0777
-3365.746
-3383.9155
-481.39271
-4163.4829
4156.656
356.81926
-155301.9
-137698.02
-124966.7
-114159.37
-123407.25
-102774.45
-101771.36
-91204.994
-83340.214
-74725.604
-67838.071
-60388.804
-53798.1
-48286.171
-42756.025
-37606.424
-33165.804
-27644.417
-24655.178
-16700.271
-9913.6348
-10003.653
-3233.7073
316303.72
283848.37
297464.88
2069.6189
22361.522
-3065.5639
-78374.766
-115312.16
-163460.87
-345784.73
-342124.81
-358396.05
-281789.76
-261185.96
-238771.19
-231703.32
-210342.63
-222953.84
-190957.8
-184523.29
-182500.82
-190044.13
-182379.93
-192417.82
-173429.81
-161311.01
-160885.12
-159788.74
-154043.04
-164238.66
-153340.78
-136375.78
-145885.03
-139513.21
-128392.85
-135348.92
-127620.53
-118553.51
-126054.24
-116742.87
-110720.45
-116045.9
-106879.2
-101848.24
-106693.1
-96777.857
-93696.218
-97876.454
-87794.314
-85794.984
-89602.045
-79832.278
-78560.106
-82313.089
-72023.292
-71572.93
-74720.126
-64960.888
-64102.275
-68393.199
-56783.281
-57736.161
-61326.535
-50347.954
-49930.09
-53091.217
-40345.225
-40342.771
-44533.699
-30495.975
-32032.126
-35635.88
-18436.775
-25400.82
-23828.569
-17430.562
-13003.715
-18931.297
-20089.283
-20890.049
-22016.554
880.01406
19.262331
426.05188
1643.4057
6703.5614
3382.0823
267062.55
267842.97
258160.36
249648.56
251136.2
250548.42
252512.4
225106.45
228473.75
209970.12
198135.4
212236.67
200296.07
198700.21
192103.3
192450.37
165414.67
184605.7
173373.8
161412.66
173528.03
166223.95
149597.13
158194.94
150694.06
138162.58
153656.8
141214.54
126460.61
140989.11
128838.99
114768.07
128255.12
115522.19
102111.57
115573.24
102292.92
90178.972
101877.04
90725.582
78419.559
88548.032
80212.747
67896.762
76763.17
71188.48
59518.307
66924.184
63600.618
52631.603
58799.622
58497.61
47415.571
51940.229
49761.372
41098.608
45377.355
45365.222
34495.948
40610.146
37289.558
31358.396
32971.963
27609.141
24744.211
23518.498
28811.998
28467.276
28295.995
142965.83
176746.05
143932.66
148311
146344.65
133149.11
126460.23
111938.38
105059.27
92309.899
84382.632
73235.887
65104.84
58058.591
51417.757
45920.588
40300.901
35954.008
30250.867
24996.614
18656.335
12379.847
6298.5449
-13213.801
14467.618
-6951.8952
10268.73
3158.5621
-1594.7582
-1018.8731
-213.67539
-686.23741
5036.2691
9237.9267
13582.524
18474.996
22322.04
24398.219
26335.779
26051.027
26350.953
23459.796
22275.851
19502.863
15938.309
8532.4432
-121246.64
-112973.68
-136983.91
-109258.13
-100582.03
-92269.488
-72717.477
-65856.4
-52621.103
-46664.008
-41428.006
-37953.808
-36485.804
-36040.813
-36900.505
-37171.037
-37092.697
-37499.836
-35609.051
-32311.703
-28510.032
-22008.88
-15984.659
190396.12
188065.13
172161.73
174262.35
162994.91
153743.54
138098.79
130570.16
156624.56
135088.31
145573.67
137009.44
143071.96
120846.16
135004.07
117454.13
122157.83
133962.17
113778.04
117782.14
119828.81
102656.5
103862.46
112806.13
89636.936
96418.282
101902.4
78153.587
89236.616
88443.606
67491.345
77804.928
79164.488
57273.799
70336.329
70514.579
51222.986
62103.559
62335.306
45138.343
55251.315
56233.172
40402.939
49462.956
51609.22
36458.097
44967.355
46981.156
34073.401
40147.183
43157.834
29210.751
35638.503
37853.047
25916.197
29632.091
34563.402
20136.611
30085.875
28791.099
18179.782
18122.026
22774.948
15265.938
14932.604
18966.907
5058.2953
1805.1525
4790.1103
-9474.4795
-21374.246
1361.5234
-9339.5188
17419.374
21174.899
6124.184
6576.3823
15696.305
-4535.8647
1521.8156
2743.7008
-9993.5304
-1523.2444
18052.801
-12605.507
3339.9487
5469.4385
-10726.921
-4480.1274
3086.2851
-15982.881
-2657.0404
2416.1966
-11350.197
-2122.278
-573.93964
-9147.539
-1975.5584
-894.396
-6080.6314
1588.761
-432.09183
-643.36548
6178.3439
1297.4042
5046.4251
9991.6623
3187.0613
9871.1718
14127.321
6721.0007
14334.85
18172.679
9599.0958
18849.659
21666.527
11217.635
21831.343
22191.257
13097.931
21680.12
23464.217
13266.576
24124.893
22744.11
14689.476
20781.576
21182.945
11306.63
23471.213
7322.5479
9346.5684
15620.888
14984.821
11615.559
10642.976
9251.247
10398.071
-188364.23
-201471.58
-223512.81
-129995.8
-104919.46
-160450.26
-122491.68
-157293.32
-160368.67
-149688.15
-109243.02
-135235.12
-113850.23
-103715.48
-125092.94
-111367.57
-93707.52
-117127.62
-100786.17
-82458.571
-102153.42
-88104.606
-70939.549
-93970.498
-77975.759
-64102.038
-81828.636
-69164.404
-55484.748
-69701.679
-58093.305
-48859.156
-59498.878
-48342.246
-44647.776
-50259.777
-39866.352
-41970.748
-42013.301
-32596.428
-39844.324
-35372.21
-25926.924
-38750.448
-30250.273
-21277.294
-38397.684
-27149.111
-17796.374
-38470.257
-24081.458
-15123.937
-36836.914
-21251.083
-13410.169
-34808.921
-21629.825
-9696.9486
-35570.564
-17763.227
-15865.867
-25473.322
-13563.369
-7028.3127
-18931.318
-3894.6429
-3467.4241
-12458.936
-8031.537
)
;

boundaryField
{
    free
    {
        type            calculated;
    }
    fixed
    {
        type            calculated;
    }
    traction
    {
        type            calculated;
    }
}


// ************************************************************************* //
