/*--------------------------------*- C++ -*----------------------------------*\
  =========                 |
  \\      /  F ield         | OpenFOAM: The Open Source CFD Toolbox
   \\    /   O peration     | Website:  https://openfoam.org
    \\  /    A nd           | Version:  6
     \\/     M anipulation  |
\*---------------------------------------------------------------------------*/
FoamFile
{
    version     2.0;
    format      ascii;
    class       pointVectorField;
    location    "1.09";
    object      u;
}
// * * * * * * * * * * * * * * * * * * * * * * * * * * * * * * * * * * * * * //

dimensions      [0 1 0 0 0 0 0];

internalField   nonuniform List<vector> 
625
(
(0 0 0)
(0 0 0)
(2.6761475 -0.37012961 0.12332299)
(2.4866097 -0.95504813 0.10491432)
(0 0 0)
(0 0 0)
(2.4887929 -0.98375491 0.10352929)
(2.6781731 -0.39918183 0.12255468)
(0 0 0)
(0 0 0)
(0 0 0)
(2.6280873 -0.51688288 0.11794369)
(2.5807255 -0.66203223 0.11401166)
(2.5341531 -0.80784336 0.10944218)
(0.010175753 0.029641668 0.02658733)
(0.032878465 0.060469787 0.028198898)
(0.073080445 0.087915892 0.031914027)
(0.13021761 0.11216771 0.033935835)
(0.19775675 0.13013469 0.037262676)
(0.28094491 0.14302531 0.040412248)
(0.37252074 0.14986202 0.044366993)
(0.47438189 0.15047305 0.048277886)
(0.5846305 0.14610467 0.052901582)
(0.70153697 0.13551256 0.05692635)
(0.82480078 0.12030531 0.061630041)
(0.95327017 0.10003582 0.066156487)
(1.0859637 0.075434818 0.070722553)
(1.2223983 0.046880003 0.075335361)
(1.3617496 0.014831136 0.079943665)
(1.503495 -0.020425455 0.084621182)
(1.6472061 -0.058139196 0.089209889)
(1.7922765 -0.098483008 0.09404999)
(1.9386194 -0.14044333 0.098627171)
(2.0854885 -0.18411963 0.10355558)
(2.2330745 -0.22923468 0.10848242)
(2.3807979 -0.27508087 0.11340055)
(2.5281767 -0.32203611 0.11875913)
(-0.0063444844 -0.021295469 -0.033782445)
(0.017042521 -0.04423133 -0.024843018)
(0.052075868 -0.075000281 -0.026380294)
(0.098849005 -0.10286839 -0.0202015)
(0.15607105 -0.1297697 -0.015600144)
(0.22789493 -0.16470386 -0.0093187889)
(0.30547422 -0.19495354 -0.0043364559)
(0.39481536 -0.23034609 0.0026126082)
(0.49126309 -0.2673288 0.0084986349)
(0.59567668 -0.30515585 0.015338173)
(0.70661823 -0.34597472 0.02186443)
(0.82359577 -0.38762327 0.028652708)
(0.9459424 -0.43122287 0.035315644)
(1.0728155 -0.47592336 0.041974147)
(1.2038533 -0.52176698 0.048604775)
(1.3382893 -0.56856037 0.055098913)
(1.4757262 -0.61605527 0.061578738)
(1.6156475 -0.66404668 0.067880766)
(1.7576258 -0.71251109 0.074232525)
(1.9012792 -0.76104578 0.080333052)
(2.0463294 -0.80985073 0.086582656)
(2.1922934 -0.85836903 0.092585838)
(2.3390431 -0.90677047 0.098631979)
(0 0 0)
(0 0 0)
(0 0 0)
(0.0050872465 -0.016094348 0.023769088)
(0.022993803 -0.066179154 0.030445279)
(0.060286288 -0.082918842 0.026359622)
(0.10377218 -0.11564208 0.025591625)
(0.16513885 -0.15534882 0.029612855)
(0.23341645 -0.18107666 0.028197897)
(0.31185292 -0.21944589 0.032182556)
(0.40041594 -0.25491 0.033846673)
(0.49650165 -0.29310392 0.037311227)
(0.60042409 -0.33281997 0.040832965)
(0.7109728 -0.37316124 0.044177228)
(0.82758095 -0.41627262 0.048285419)
(0.94952052 -0.45958556 0.05221555)
(1.0761847 -0.50474839 0.056404357)
(1.206904 -0.55068765 0.060767825)
(1.3411493 -0.59744274 0.065171923)
(1.4783742 -0.6450016 0.06974159)
(1.6181398 -0.69298481 0.074391691)
(1.7599523 -0.741351 0.079120119)
(1.9035491 -0.78997556 0.083945628)
(2.0483888 -0.83855633 0.088829114)
(2.1944323 -0.88726404 0.093801245)
(2.3410748 -0.93553508 0.098815103)
(2.5365591 -0.83645997 0.1082627)
(2.5825192 -0.6907978 0.11313207)
(2.6300474 -0.54614524 0.118315)
(2.5304382 -0.35116118 0.11617306)
(2.3826008 -0.30413949 0.1101437)
(2.2349652 -0.258068 0.10405415)
(2.0875727 -0.21292464 0.097839742)
(1.94064 -0.16917075 0.091597727)
(1.7945191 -0.1270344 0.085236343)
(1.6495018 -0.086746341 0.078787843)
(1.5059444 -0.048818766 0.072213795)
(1.3643164 -0.013420238 0.065508717)
(1.2250759 0.018925867 0.058657657)
(1.088745 0.047831107 0.051702584)
(0.95620129 0.073044873 0.044570726)
(0.82768735 0.093814037 0.037406705)
(0.70471476 0.11057355 0.029963864)
(0.58731163 0.12185066 0.023116152)
(0.47778732 0.12739239 0.015669908)
(0.37559215 0.12938796 0.0081956699)
(0.28269126 0.12426642 0.0018845999)
(0.20168592 0.11358849 -0.0052336709)
(0.13081346 0.097453844 -0.010274723)
(0.074447567 0.079558112 -0.018021288)
(0.031670485 0.052028417 -0.019575436)
(0.014594597 0.024817886 -0.018078859)
(0 0 0)
(0 0 0)
(0 0 0)
(0 0 0)
(0 0 0)
(0 0 0)
(2.4869024 -0.96251712 0.10435698)
(2.4876033 -0.96980063 0.10430324)
(2.4879229 -0.97698338 0.10391477)
(2.6771708 -0.37701105 0.12319268)
(2.677664 -0.38446141 0.12289186)
(2.6781724 -0.39155004 0.12271436)
(-0.0033572458 0.017217935 0.019348134)
(0.019780034 0.034936596 0.015857814)
(0.059479425 0.049411228 0.0194368)
(0.11318221 0.060230942 0.021243639)
(0.17980146 0.067114679 0.024939257)
(0.26031481 0.06869705 0.028640066)
(0.34906654 0.065398873 0.032702001)
(0.44869376 0.057588701 0.037418777)
(0.55562957 0.044661255 0.042015794)
(0.6701881 0.02698463 0.046819702)
(0.79094745 0.0053769451 0.051889674)
(0.91686662 -0.020615404 0.056853107)
(1.0474716 -0.050060613 0.061918786)
(1.1819362 -0.082855212 0.066992963)
(1.3195563 -0.11859768 0.072082818)
(1.4598891 -0.15679878 0.077139722)
(1.6023112 -0.19728133 0.082262501)
(1.7464312 -0.23954994 0.087384298)
(1.8919611 -0.28328324 0.092452384)
(2.0382566 -0.32843916 0.097773208)
(2.1854572 -0.37456106 0.10274894)
(2.3328862 -0.42124526 0.10810144)
(2.4804492 -0.46913333 0.11325766)
(-0.0098049175 0.0046891993 0.0016345118)
(0.015341672 0.0068980005 0.00027434587)
(0.051220286 0.0088036033 0.0040054163)
(0.10325906 0.0081050457 0.0075188463)
(0.16847765 0.0018686428 0.011327548)
(0.24451627 -0.006849744 0.015804762)
(0.33118889 -0.019426608 0.020495104)
(0.42736661 -0.036872842 0.025805329)
(0.53121057 -0.057300586 0.030783191)
(0.64296133 -0.081991802 0.036461401)
(0.76052434 -0.10991663 0.041882308)
(0.88396104 -0.14124784 0.047500954)
(1.0120454 -0.17551759 0.05312137)
(1.1442659 -0.21239125 0.058743427)
(1.2799165 -0.25164725 0.064323727)
(1.418488 -0.2928586 0.06991017)
(1.559421 -0.33579575 0.07547278)
(1.7023242 -0.38007493 0.080970353)
(1.8467735 -0.4256007 0.08653669)
(1.9923158 -0.47190156 0.091991347)
(2.1389453 -0.5189701 0.097506431)
(2.2859648 -0.56649222 0.10308117)
(2.4337225 -0.6144212 0.10853445)
(-0.01370363 -0.0087282208 -0.010804066)
(0.01210341 -0.017194341 -0.010413988)
(0.045291003 -0.026784004 -0.0084502729)
(0.097454087 -0.042152803 -0.0049226053)
(0.15897637 -0.060523791 -0.00092669675)
(0.23266195 -0.078625926 0.0037411719)
(0.31664281 -0.10348771 0.0093381743)
(0.40896668 -0.12870943 0.014501207)
(0.51009002 -0.15766803 0.0203753)
(0.61823819 -0.18975887 0.026351976)
(0.73291483 -0.22391503 0.032244755)
(0.85341852 -0.26109361 0.03843556)
(0.97875616 -0.30014891 0.044478667)
(1.1085489 -0.34131043 0.05055746)
(1.2419522 -0.38419149 0.056619947)
(1.3786152 -0.42842806 0.062609489)
(1.5178251 -0.47392632 0.068572454)
(1.6593397 -0.52036825 0.074495205)
(1.8025297 -0.56747759 0.080330767)
(1.9472703 -0.61524391 0.086239779)
(2.0930147 -0.66328096 0.091933174)
(2.2396525 -0.71151223 0.097787021)
(2.3868341 -0.75977647 0.1035346)
(0 0 0)
(0 0 0)
(0 0 0)
(0 0 0)
(0 0 0)
(0 0 0)
(0 0 0)
(0 0 0)
(0 0 0)
(0.0081718185 -0.0092695187 -0.015547702)
(0.012619679 -0.01309111 -0.0036555048)
(0.012070062 -0.0093890642 0.0071882437)
(0.034079987 -0.056300234 -0.01300207)
(0.03441401 -0.05882162 -0.00065626826)
(0.033838697 -0.05770128 0.01584516)
(0.063962655 -0.078153196 -0.013417334)
(0.068712221 -0.078742095 -0.0011372446)
(0.069707664 -0.087324273 0.014922059)
(0.10916909 -0.10843399 -0.0079543861)
(0.11394493 -0.1145897 0.003011092)
(0.1119036 -0.1140365 0.015397185)
(0.16837295 -0.14144019 -0.0047489489)
(0.17143804 -0.14502576 0.0046985343)
(0.17167148 -0.15168046 0.01807636)
(0.23540901 -0.17160619 -0.00011757446)
(0.23957568 -0.1767143 0.0098561609)
(0.23928718 -0.18089271 0.020143906)
(0.31426142 -0.20527429 0.0052777842)
(0.31768494 -0.21249367 0.012535806)
(0.31752119 -0.21766467 0.023934859)
(0.40203673 -0.24064782 0.010390809)
(0.40515803 -0.24548907 0.017773878)
(0.40516447 -0.2520884 0.026711784)
(0.49776484 -0.2768591 0.016088543)
(0.50049792 -0.2843585 0.022494174)
(0.50041185 -0.28969326 0.030849822)
(0.60142447 -0.3160097 0.021803961)
(0.60390549 -0.32240882 0.027576452)
(0.60407088 -0.32909649 0.034980221)
(0.71154096 -0.35566251 0.027736181)
(0.71384551 -0.36300177 0.032852526)
(0.71385345 -0.36929852 0.039235837)
(0.82797757 -0.39794558 0.033795269)
(0.829924 -0.40504839 0.038168952)
(0.83014018 -0.41162489 0.043832489)
(0.94962619 -0.44089621 0.039748227)
(0.95147513 -0.44811604 0.043578707)
(0.95161043 -0.45500108 0.048492471)
(1.0760551 -0.48552907 0.045827198)
(1.0776352 -0.49286915 0.049110115)
(1.077852 -0.49962505 0.053199237)
(1.2065817 -0.53109415 0.051845541)
(1.2080091 -0.53835411 0.054548161)
(1.2082536 -0.54536275 0.058074241)
(1.3406187 -0.57759481 0.057795315)
(1.3419004 -0.58492297 0.06009205)
(1.3421632 -0.5918767 0.062981018)
(1.4776926 -0.62482531 0.063779449)
(1.4788168 -0.63209049 0.065615956)
(1.4791141 -0.63913901 0.067948859)
(1.6172998 -0.67259065 0.069653742)
(1.6183151 -0.67988464 0.071103167)
(1.6186326 -0.68695588 0.072994774)
(1.7589796 -0.72076276 0.075545396)
(1.7598773 -0.72799448 0.076664233)
(1.7602194 -0.73509198 0.07806842)
(1.9024354 -0.76915671 0.081351687)
(1.9032435 -0.77642889 0.082156532)
(1.9036026 -0.78354692 0.083197908)
(2.047159 -0.81765581 0.087200644)
(2.0478715 -0.82481233 0.087699815)
(2.0482816 -0.83196431 0.088368862)
(2.1930267 -0.86608261 0.092943954)
(2.1936998 -0.87335846 0.093224579)
(2.1941175 -0.88056081 0.093564096)
(2.3395784 -0.91444101 0.098698888)
(2.3401319 -0.92155206 0.098671777)
(2.3407131 -0.9286993 0.098780161)
(2.6291415 -0.52394241 0.11835765)
(2.6297301 -0.53123015 0.11824376)
(2.630073 -0.53845038 0.11825766)
(2.5813546 -0.66916307 0.1139659)
(2.5819388 -0.67660304 0.11362341)
(2.5822324 -0.68359206 0.11337964)
(2.5346814 -0.81534454 0.10905298)
(2.5353565 -0.82258576 0.10887565)
(2.5357695 -0.82963103 0.10860883)
(0.022403929 0.023697923 0.01305335)
(0.021565463 0.025817288 0.0043073634)
(0.022893896 0.024700158 -0.0057126798)
(0.041789375 0.055326111 0.015821448)
(0.044427959 0.054520345 0.0015911259)
(0.043055344 0.051935758 -0.0094873691)
(0.085658154 0.084223511 0.018320385)
(0.085060617 0.081513313 0.0084785756)
(0.08535992 0.080311286 -0.0063182719)
(0.13794006 0.10555282 0.021526223)
(0.14059557 0.10256514 0.010453028)
(0.13977647 0.10101178 -0.0013493661)
(0.20788563 0.12482158 0.026084138)
(0.21067815 0.12042339 0.014933479)
(0.20944909 0.11715793 0.0046433906)
(0.28929464 0.13572079 0.029457615)
(0.29023599 0.13053575 0.021163752)
(0.29052673 0.12735567 0.010122687)
(0.38027455 0.142077 0.034537963)
(0.38254454 0.13700419 0.025886341)
(0.38238772 0.13256867 0.016168617)
(0.48194274 0.1426107 0.039372455)
(0.4837611 0.1367795 0.031490361)
(0.48327743 0.1326031 0.022813446)
(0.59100092 0.13816896 0.044616013)
(0.59263308 0.13108385 0.037356647)
(0.59288508 0.12603951 0.02951931)
(0.70770641 0.12699224 0.049649155)
(0.70922481 0.12061215 0.0436238)
(0.70931532 0.11484531 0.035911771)
(0.83030672 0.1116381 0.054986204)
(0.8316404 0.10494591 0.049069284)
(0.83173673 0.09906989 0.042601308)
(0.95808742 0.091470975 0.060255277)
(0.95941278 0.084462998 0.05516671)
(0.95966129 0.078288981 0.049339304)
(1.0903195 0.066937628 0.065541754)
(1.0915567 0.059767223 0.060991692)
(1.09174 0.053431378 0.05581444)
(1.2262423 0.038511446 0.070770043)
(1.2273247 0.031260222 0.066835866)
(1.227553 0.024740079 0.062300183)
(1.3651154 0.0065759837 0.076044845)
(1.3661231 -0.00075573396 0.072591667)
(1.3663941 -0.0074079955 0.06865657)
(1.5064512 -0.028478048 0.081185155)
(1.5073711 -0.035821885 0.078277569)
(1.5076166 -0.042553004 0.074895501)
(1.6497379 -0.0661161 0.08643827)
(1.6505362 -0.07348555 0.083934912)
(1.6508423 -0.080366654 0.081076665)
(1.7944867 -0.10621559 0.091579925)
(1.795259 -0.11355445 0.089490055)
(1.7955377 -0.12041269 0.087124552)
(1.940406 -0.14805909 0.096751268)
(1.9410639 -0.15542469 0.095133341)
(1.941395 -0.16242604 0.093145351)
(2.0870589 -0.19166284 0.10214356)
(2.0877715 -0.19896443 0.10056186)
(2.0880803 -0.20601718 0.099081456)
(2.2343765 -0.23661886 0.1072266)
(2.2349702 -0.24399844 0.10614028)
(2.2352787 -0.25101122 0.10501258)
(2.381795 -0.28259881 0.11240122)
(2.3823707 -0.28963769 0.11173681)
(2.3827505 -0.29686715 0.11087411)
(2.5295868 -0.3292298 0.11806544)
(2.5300207 -0.33649907 0.11737886)
(2.5304689 -0.34384842 0.11692041)
(-0.0010801539 0.0083958381 -0.010842116)
(0.023195341 0.031660311 -0.01001521)
(0.059843222 0.036842426 -0.003940476)
(0.11644883 0.046471559 -0.0019886977)
(0.18344851 0.049525726 0.0039875204)
(0.26272879 0.048988657 0.0089136024)
(0.35298881 0.043822058 0.014599344)
(0.45148569 0.033873832 0.020770632)
(0.55908437 0.019770548 0.026745299)
(0.67329103 0.001132027 0.03322105)
(0.79376626 -0.021412537 0.039338307)
(0.91971944 -0.048057409 0.045822184)
(1.0501628 -0.077935441 0.052091399)
(1.1844647 -0.11106177 0.058326596)
(1.3220023 -0.14703533 0.064551183)
(1.4621703 -0.18540605 0.070628205)
(1.6044818 -0.22594164 0.076708322)
(1.7485209 -0.26830489 0.082664918)
(1.8938409 -0.31215158 0.088615524)
(2.0402043 -0.3572896 0.094478715)
(2.1872428 -0.40346771 0.10037945)
(2.3346014 -0.4503236 0.10620409)
(2.4823848 -0.49822113 0.11225088)
(-0.0088089545 0.0038010351 0.002581524)
(0.015376926 0.0036263019 0.0028318732)
(0.055160205 -0.0031093222 0.0063506232)
(0.10822492 -0.0051199782 0.0078181776)
(0.17241696 -0.015106948 0.011470395)
(0.24980118 -0.026202083 0.015888697)
(0.33589966 -0.041318727 0.019977434)
(0.43202174 -0.059902337 0.025093447)
(0.5359719 -0.082340394 0.03021742)
(0.64715146 -0.10768428 0.03542062)
(0.76468058 -0.13666515 0.040908178)
(0.88789602 -0.16870551 0.046416127)
(1.0156767 -0.2032723 0.051937499)
(1.1477307 -0.24062606 0.057554304)
(1.2831823 -0.27996377 0.063099596)
(1.4215161 -0.32138629 0.068684119)
(1.5623155 -0.36434334 0.074262759)
(1.7050177 -0.40875414 0.07977287)
(1.8493096 -0.45422902 0.085380117)
(1.9948164 -0.50063041 0.090876124)
(2.1412718 -0.54772924 0.096434829)
(2.2881724 -0.59527794 0.10196394)
(2.4362248 -0.6434312 0.1075041)
(-0.012602065 -0.011159356 0.011438757)
(0.017964271 -0.017358518 0.012806444)
(0.053556342 -0.04381114 0.018681804)
(0.1023459 -0.051778225 0.01654091)
(0.16637695 -0.077194106 0.021419465)
(0.23911673 -0.099192867 0.023682862)
(0.32244349 -0.12317263 0.02662434)
(0.41503125 -0.1530626 0.030953604)
(0.51531647 -0.18187756 0.034520361)
(0.62333546 -0.21582571 0.039090235)
(0.73748459 -0.25078269 0.043488678)
(0.85765684 -0.28847163 0.048057311)
(0.98263103 -0.32816778 0.052884911)
(1.112159 -0.3695651 0.057606469)
(1.2452781 -0.41269562 0.062544898)
(1.3816561 -0.45708631 0.067462118)
(1.520702 -0.5026524 0.072456851)
(1.6619503 -0.54913209 0.077488559)
(1.8050336 -0.59631448 0.082601708)
(1.9496006 -0.64404968 0.087667429)
(2.0952067 -0.6920539 0.092910059)
(2.2418638 -0.74035414 0.097970485)
(2.388891 -0.78846775 0.10338312)
(0.0052350154 0.0082885578 0.0088349781)
(0.0047038821 0.0088366766 0.0036389062)
(0.0078318526 0.0071034282 -0.0046512397)
(0.031086543 0.032810669 0.0078026682)
(0.034655967 0.031487793 0.0011612799)
(0.031263937 0.030853946 -0.0054093535)
(0.070706875 0.043749597 0.011167933)
(0.070546717 0.041310756 0.0060419222)
(0.070693678 0.03860132 0.00014834022)
(0.12291252 0.055232357 0.014376298)
(0.12604211 0.052338804 0.0084606569)
(0.12478395 0.048599092 0.0026358888)
(0.19026329 0.060478125 0.017397772)
(0.19261559 0.055984829 0.012927235)
(0.19206914 0.052120717 0.0079624613)
(0.2687798 0.061140534 0.022376474)
(0.27099291 0.056860053 0.017871656)
(0.26967554 0.052047648 0.012788318)
(0.35728446 0.057727491 0.026912217)
(0.35969191 0.052733817 0.022516355)
(0.35961076 0.047451729 0.018397951)
(0.45590592 0.049592697 0.031797369)
(0.45826 0.043199158 0.028106304)
(0.45740931 0.037549838 0.02382135)
(0.56229081 0.035716508 0.03723515)
(0.56433307 0.030039115 0.033632678)
(0.564085 0.024258803 0.030205309)
(0.67612157 0.018596487 0.042364837)
(0.67820178 0.011925645 0.039109191)
(0.67780071 0.0055320254 0.035789824)
(0.79624968 -0.0033814793 0.04792423)
(0.79790844 -0.010220211 0.045118765)
(0.79769929 -0.01640055 0.042052001)
(0.92153051 -0.029261529 0.053344336)
(0.92322828 -0.036152425 0.050723707)
(0.92313374 -0.042845307 0.048063361)
(1.0516771 -0.058593608 0.058799565)
(1.0531792 -0.065739185 0.056517418)
(1.053084 -0.072443625 0.054188263)
(1.1855958 -0.091344143 0.064297231)
(1.186932 -0.098482013 0.062286157)
(1.1869226 -0.10534686 0.060187553)
(1.3227658 -0.12687134 0.069704226)
(1.323998 -0.13413268 0.067942771)
(1.3240554 -0.14105653 0.066149749)
(1.4626885 -0.16498781 0.075132847)
(1.4637737 -0.17222996 0.073641575)
(1.4638463 -0.1792165 0.07206009)
(1.604689 -0.20523568 0.0805359)
(1.6056747 -0.21250586 0.07923667)
(1.6058329 -0.21957853 0.077915343)
(1.7485148 -0.24738801 0.085904745)
(1.7494024 -0.25468563 0.084849094)
(1.7495398 -0.26170642 0.083701117)
(1.8936711 -0.29095908 0.091287374)
(1.8943994 -0.29822587 0.090388326)
(1.8946562 -0.3054266 0.089488533)
(2.0396541 -0.33596973 0.096742685)
(2.0404858 -0.34331582 0.09601141)
(2.0406742 -0.35038928 0.095165395)
(2.1865366 -0.38192781 0.10193286)
(2.187451 -0.38918689 0.10156206)
(2.1875669 -0.39632042 0.10092535)
(2.3338557 -0.42866607 0.10753293)
(2.3344266 -0.43579476 0.1071712)
(2.3346636 -0.44310845 0.10658378)
(2.4813916 -0.47614375 0.11294356)
(2.4818197 -0.4834613 0.11263682)
(2.4822525 -0.49072078 0.11237615)
(-0.0026689093 0.0028163905 -0.00020811315)
(-0.00068047157 0.0029133894 -0.0016401605)
(0.0016520071 0.003380746 0.00034616445)
(0.024048589 0.0054624928 -0.002323662)
(0.026841722 0.0051869159 -0.00097516823)
(0.023342391 0.0028012122 0.00037695535)
(0.062309787 0.004826057 0.0026699617)
(0.063817621 0.0016467346 0.004913371)
(0.063825501 -0.00022459941 0.0046388482)
(0.11207395 0.0022395451 0.0047556214)
(0.11730542 -0.0022101664 0.0060884488)
(0.1149946 -0.0061767202 0.0064694953)
(0.17797555 -0.0042171183 0.0095180789)
(0.18097644 -0.0095885232 0.01194901)
(0.17888673 -0.01208557 0.010108071)
(0.25284057 -0.014067589 0.014210188)
(0.25607638 -0.0198369 0.01509873)
(0.25512565 -0.024132466 0.015059219)
(0.33888913 -0.026985286 0.018450252)
(0.34216447 -0.034019648 0.020282772)
(0.34075839 -0.038720018 0.01875886)
(0.43449078 -0.045276237 0.024452042)
(0.43722812 -0.052014898 0.025510602)
(0.43599918 -0.05622262 0.024620372)
(0.53757429 -0.065569372 0.029246843)
(0.54007384 -0.072944471 0.030222141)
(0.539422 -0.078607779 0.029284729)
(0.64869501 -0.090598406 0.035132114)
(0.65105473 -0.098188072 0.03618229)
(0.65025986 -0.10354256 0.035160899)
(0.76567829 -0.11871151 0.040736505)
(0.76762223 -0.12626015 0.041444856)
(0.76712655 -0.13218747 0.040429229)
(0.88849601 -0.14995061 0.046372094)
(0.89039809 -0.15767905 0.047038481)
(0.89000427 -0.16376151 0.046145158)
(1.0161095 -0.1841561 0.052181371)
(1.017759 -0.19192124 0.052745919)
(1.0173722 -0.19819454 0.05178151)
(1.1477714 -0.22095219 0.057840464)
(1.1492348 -0.22875134 0.058232144)
(1.149038 -0.23513217 0.057407188)
(1.2830341 -0.26003287 0.063551669)
(1.2843543 -0.26774456 0.063903394)
(1.2842092 -0.27432353 0.063086125)
(1.4211644 -0.30110937 0.069201506)
(1.4223185 -0.30882085 0.069434195)
(1.4222721 -0.31546246 0.068684117)
(1.5617518 -0.34384569 0.07484291)
(1.562782 -0.35147962 0.07500432)
(1.5627849 -0.35826693 0.074320348)
(1.7043312 -0.38801887 0.080419816)
(1.7052035 -0.39564482 0.080521979)
(1.7053272 -0.40243571 0.079875502)
(1.8484332 -0.43332298 0.086038622)
(1.8492661 -0.44083203 0.086044888)
(1.8493828 -0.44779566 0.085517994)
(1.9938492 -0.47952216 0.091524752)
(1.9944357 -0.48716659 0.091573532)
(1.9947116 -0.49402104 0.091017648)
(2.1402888 -0.52646834 0.097267682)
(2.1405831 -0.53389504 0.096934406)
(2.1410976 -0.54094164 0.096662049)
(2.2868807 -0.57395591 0.10268792)
(2.2875169 -0.58116998 0.10263716)
(2.2877184 -0.58835828 0.10212154)
(2.4345186 -0.62166565 0.10824465)
(2.435161 -0.62913716 0.10803679)
(2.4356619 -0.63616126 0.10780067)
(-0.0032818442 -0.0068301069 -0.0050614577)
(-0.0039219819 -0.0062497818 -0.000120482)
(-0.0038694912 -0.0061464646 0.0051517099)
(0.025404826 -0.018124691 -0.0056634169)
(0.028473348 -0.01458373 0.0015300778)
(0.02619106 -0.018399084 0.0076277069)
(0.057918024 -0.031870168 -0.0031487943)
(0.061325115 -0.039405472 0.0040819536)
(0.062096244 -0.040916885 0.01114551)
(0.10949611 -0.050279969 -0.00065056287)
(0.11146547 -0.050032053 0.0058134059)
(0.11143045 -0.054269996 0.011185325)
(0.16967687 -0.066762616 0.0041134509)
(0.17296143 -0.072924675 0.0099550266)
(0.17339347 -0.075836121 0.015254579)
(0.24263092 -0.088263131 0.0074362675)
(0.24509431 -0.093086192 0.012926409)
(0.24536446 -0.097987224 0.017309641)
(0.32544113 -0.11270325 0.013107026)
(0.32783637 -0.11788213 0.018158749)
(0.32842271 -0.1221339 0.02200037)
(0.41701494 -0.13813579 0.017904224)
(0.41905033 -0.14450304 0.021804924)
(0.41975584 -0.1502778 0.025705992)
(0.51714717 -0.16779605 0.023272619)
(0.51913764 -0.17391168 0.027361364)
(0.51981475 -0.17967732 0.030703993)
(0.6245192 -0.19969946 0.029110065)
(0.62630813 -0.20644821 0.032372652)
(0.62694673 -0.21245228 0.035174565)
(0.7384239 -0.23395333 0.034592669)
(0.73999557 -0.24081818 0.037521993)
(0.74073635 -0.24723702 0.040173504)
(0.85824088 -0.27099732 0.040511605)
(0.85970595 -0.27798513 0.043104616)
(0.86036328 -0.28450079 0.045211234)
(0.98295163 -0.30985208 0.046278373)
(0.98419268 -0.3170787 0.048397447)
(0.98489666 -0.32377967 0.050298665)
(1.1121715 -0.3508921 0.052073035)
(1.1133342 -0.3580436 0.053920681)
(1.1139785 -0.36482061 0.055507502)
(1.2450919 -0.39345049 0.057896196)
(1.246092 -0.400697 0.059412056)
(1.246772 -0.40762474 0.060712543)
(1.3812647 -0.43748269 0.063646558)
(1.3821937 -0.44477768 0.064888388)
(1.3827957 -0.45171205 0.065943101)
(1.5201144 -0.48273591 0.069403692)
(1.5208951 -0.48996904 0.070377784)
(1.521548 -0.49698857 0.071235118)
(1.6612194 -0.52888982 0.075111643)
(1.6619806 -0.53621078 0.075885712)
(1.6625824 -0.54323243 0.076500373)
(1.8041356 -0.57584731 0.080796177)
(1.8047636 -0.58306883 0.08134668)
(1.8053598 -0.59012765 0.081826367)
(1.9485492 -0.62332423 0.086526531)
(1.9491925 -0.63063573 0.086866296)
(1.9498011 -0.63770557 0.087146606)
(2.0940332 -0.67116397 0.092051505)
(2.0945649 -0.67835237 0.092321434)
(2.095152 -0.68542175 0.092496876)
(2.2404753 -0.71926637 0.097800155)
(2.2410265 -0.72652597 0.097940096)
(2.2416948 -0.73363935 0.097916434)
(2.3873691 -0.76737444 0.10340056)
(2.3879132 -0.77443805 0.10334834)
(2.3884376 -0.78170563 0.10316815)
)
;

boundaryField
{
    free
    {
        type            calculated;
    }
    fixed
    {
        type            calculated;
    }
    traction
    {
        type            calculated;
    }
}


// ************************************************************************* //
