/*--------------------------------*- C++ -*----------------------------------*\
  =========                 |
  \\      /  F ield         | OpenFOAM: The Open Source CFD Toolbox
   \\    /   O peration     | Website:  https://openfoam.org
    \\  /    A nd           | Version:  6
     \\/     M anipulation  |
\*---------------------------------------------------------------------------*/
FoamFile
{
    version     2.0;
    format      ascii;
    class       pointScalarField;
    location    "0.82";
    object      E;
}
// * * * * * * * * * * * * * * * * * * * * * * * * * * * * * * * * * * * * * //

dimensions      [1 -1 -2 0 0 0 0];

internalField   nonuniform List<scalar> 
28033
(
132768.14
136448.43
-3621497.3
-1661197.2
158515.91
161110.91
-2489778.9
-5421548.6
93076.998
65203.195
45332.213
32136.811
20156.186
13516.52
9995.6115
9325.8301
13595.451
19283.884
30870.576
46051
65186.82
87017.104
130611.11
-2020002.2
-2005831.3
-1993611.3
-1983553.6
-1973043.7
-1962359.4
-1952769.6
-1942541.4
-1932552.3
-1922594.2
-1912873.4
-1902892.7
-1892778.2
-1883526
-1427073.6
113281.28
78760.631
78049.717
78978.272
82026.042
83673.304
85264.383
86079.967
86396.491
86305.317
85794.36
84942.783
83832.505
82522.556
80985.782
79314.988
77631.036
75680.23
73881.1
71761.905
69916.951
67873.574
65876.281
63882.199
61881.42
60099.061
58001.007
56235.198
54411.82
52554.937
50867.126
49175.704
47554.857
45665.607
44077.27
42517.734
40967.842
39469.284
37868.9
36434.133
34899.337
33386.761
31965.564
30524.443
29128.342
27747.765
26386.404
25050.4
23739.652
22461.268
21201.964
19983.121
18788.389
17626.178
16502.736
15403.707
14346.214
13316.956
12329.512
11378.028
10451.102
9593.723
8749.7114
8034.6439
7180.4684
6563.237
5995.8466
5173.7825
4712.9345
4117.592
3617.8538
3010.6208
2664.308
2068.2035
1867.1372
1290.6406
1198.0747
681.8863
657.93206
204.55865
281.13077
-258.16597
-67.730907
-563.90326
-436.48522
-676.53834
-381.28919
-717.08059
-304.00949
72.647143
-653.40754
635.32676
-572.87747
-2479.9028
-1197.2771
105995.1
64222.326
73339.992
72503.577
75282.201
77617.333
78717.082
79998.803
80532.119
80251.056
80227.684
79127.769
78224.002
77068.365
75564.958
74218.472
72282.193
70623.878
68841.585
67024.944
64978.756
63314.17
61136.261
59448.468
57414.496
55696.861
53776.599
51888.134
50121.273
48120.141
46443.551
44659.989
43125.557
41551.982
40092.11
38554.34
36851.171
35367.914
33844.946
32517.685
31065.231
29717.832
28379.667
27055.659
25768.022
24502.488
23258.875
22042.545
20856.344
19683.349
18553.249
17434.904
16352.344
15292.518
14267.258
13259.572
12292.984
11355.279
10435.07
9575.2491
8716.924
7925.1744
7127.5212
6421.8487
5682.8441
5090.771
4464.4133
4011.381
3455.5007
2800.7865
2341.2248
1799.7993
1512.6628
1033.4059
801.96642
351.22467
207.56485
-165.31267
-327.43926
-552.85139
-708.49333
-845.36401
-974.11268
-1003.1029
-1153.4927
-1085.4778
-1129.8393
-1129.4697
-1112.6867
-821.84923
-1228.9877
-856.20287
-691.54095
-665.68928
-1191.4464
106590.46
72057.535
52545.538
40817.342
24071.524
16117.25
12682.938
12229.917
16258.857
26371.099
35840.012
53970.287
74572.625
104578.88
130352.59
206979.99
86673.707
61166.576
82728.483
76396.195
84303.662
82686.758
86208.971
84370.736
85802.626
85228.975
83251.258
83293.365
80930.781
81168.89
78787.351
77463.235
73373.878
73394.489
69417.824
67929.093
66443.777
64243.054
62470.747
60322.437
57762.79
57017.923
53539.966
53099.816
50539.332
48812.842
47138.651
45325.312
43700.677
41048.263
41243.913
38500.599
37115.839
35525.251
33941.602
32427.736
30912.889
29413.22
27955.336
26503.565
25084.019
23672.036
22293.41
20924.308
19594.287
18286.797
17016.105
15778.837
14573.25
13410.668
12270.298
11181.686
10116.438
9096.4984
8109.3247
7167.0834
6253.1364
5397.2468
4564.3584
3773.4868
3078.0455
2306.4048
865.94546
2883.6882
396.0867
-1.655475
-537.09184
-1026.1586
-1441.5557
-1836.0646
-2212.9769
-2524.55
-2825.7492
-3078.5958
-3291.2871
-3518.5085
-3647.397
-3845.7185
-3900.0446
-4056.6685
-4028.6046
-4126.941
-4048.7772
-4004.9104
-3854.3839
-3736.5424
-3301.6016
-3035.2317
-2096.4693
-5678.8248
-3997715.7
-3767968.2
-3365318.6
-4059264.9
-3400473
-4101677.9
-3436474
-3884775
-4166389.2
-3929658.9
-3509795
-4234784.3
-3548081.6
-4285729.5
-4049995.5
-8382.286
-2961.9489
-231.59883
-217.87876
-666.15102
-858.99255
-1120.6417
-1186.6789
-1325.4395
-1304.9298
-1225.6518
-1198.1313
-1057.2513
-1058.6819
-896.35717
-796.5097
-544.90936
-336.70108
-32.416259
281.37887
624.27975
1013.3148
1435.8463
1894.2236
2353.4191
3313.6208
4529.7736
2943.7938
4831.9139
5415.4898
6190.693
6983.6283
7794.5371
8655.0747
9554.9371
10487.106
11459.597
12462.455
13508.783
14574.634
15688.188
16816.885
17991.75
19181.536
20412.996
21663.642
22950.911
24254.077
25600.64
26957.786
28348.42
29746.614
31221.127
32645.482
34132.335
35680.635
37520.558
39289.533
40062.594
42323.447
44166.317
44830.73
47304.325
49322.188
50909.483
53051.724
54487.672
56442.12
58489.585
60757.729
62832.835
64716.737
66881.812
69198.143
70726.341
73258.174
74847.426
77343.21
78768.267
80784.916
83378.656
84247.43
85308.245
87289.167
88443.866
87389.919
89354.625
88017.679
87200.458
83596.017
83782.828
83078.374
80276.167
70965.747
123247.48
98310.77
91240.333
88238.182
88236.808
90112.974
91287.067
91153.673
91959.769
92047.57
91592.592
89050.546
87524.262
89527.819
92017.287
102578.48
90652.951
92697.195
89884.732
94481.708
94545.174
94075.848
100292.68
106653.11
103659.05
102628.99
97515.003
93587.077
92485.36
90038.352
103034.67
-1867919.9
-1868740
-1868297.1
-1868470.9
-1868496
-1868497
-1868531.3
-1868502
-1868489.5
-1868553.4
-1868543.4
-1868617.2
-1868539.8
-1868806.3
-1869195.2
-4072300.3
-4072863.2
-4073206.3
-4073292.4
-4072874.8
-4072980.4
-4073015.8
-4073014.8
-4073072.2
-4073020.1
-4073097.8
-4073304.1
-4073141.9
-4074209.2
-4072897.3
86811.576
70358.679
66393.868
66463.72
67631.921
68893.125
70178.678
70993.169
71406.932
71623.925
71295.116
70812.917
69949.937
69057.036
67758.973
66568.826
65093.867
63639.142
62063.095
60551.837
58950.386
57294.161
55767.148
54057.095
52561.605
50949.678
49350.627
47891.536
46385.743
44891.619
43367.035
42050.709
40582.658
39303.853
38057.579
36677.223
35504.955
34098.102
32965.541
31716.875
30469.145
29184.126
28121.636
26831.232
25761.815
24542.64
23452.116
22323.382
21244.21
20169.212
19139.546
18110.521
17129.065
16158.765
15227.518
14313.686
13440.173
12587.748
11771.463
10983.763
10222.049
9496.5888
8784.8707
8139.9055
7315.1374
6865.3044
6315.6145
5960.7783
5449.0773
4805.2216
4478.7935
3956.2545
3693.8493
3260.084
2941.7928
2648.2419
2295.4345
2126.0994
1716.7228
1710.4084
1271.0245
1282.5523
1292.0399
849.47863
881.64668
535.4792
764.49267
340.77095
947.13218
-59.542187
890.85151
440.66419
236.98591
2840.4074
2209.4519
59186.206
52302.466
52670.372
51970.182
52600.653
52952.938
53446.849
53941.75
54164.83
54275.082
53919.221
53740.128
53075.572
52427.329
51441.968
50682.547
49560.959
48494.322
47321.934
46154.148
44937.019
43725.333
42571.135
41292.62
40141.583
38948.856
37822.108
36608.087
35504.358
34399.489
33310.229
32254.578
31216.503
30131.934
29106.113
28000.096
27143.772
26065.267
25171.881
24178.643
23338.016
22296.027
21463.866
20506.938
19664.28
18780.988
17922.973
17095.777
16260.464
15471.668
14674.934
13916.826
13171.071
12445.541
11746.68
11064.076
10409.925
9776.1149
9161.7542
8584.6209
8009.3857
7486.2342
6973.523
6479.2397
5923.81
5856.3049
5020.22
4954.1056
4487.2686
4195.3477
3868.1581
3428.8428
3180.831
2800.6206
2655.4924
2315.1678
2188.9042
1908.8913
1844.3301
1539.561
1622.7198
1166.7554
1464.1429
1117.8105
1414.2544
1116.0097
1444.9332
1123.8621
1185.3532
1250.7095
1427.4252
760.88661
2146.3592
1134.9745
1327.875
38156.151
34807.817
38239.261
38197.964
39021.462
38623.979
38987.927
39027.496
39074.287
38963.31
38839.815
38571.23
38076.756
37590.011
37007.215
36314.367
35525.914
34760.675
33949.078
33113.655
32300.046
31344.331
30560.953
29565.079
28810.042
27879.623
27043.719
26190.289
25435.292
24580.124
23798.389
23050.334
22281.953
21541.7
20882.344
20080.082
19395.6
18560.025
17992.492
17354.567
16535.135
16007.01
15360.571
14670.415
14077.62
13415.4
12804.534
12218.648
11610.897
11052.852
10481.837
9945.7175
9411.9721
8901.8786
8405.554
7926.1294
7463.4877
7019.5588
6587.1745
6179.1651
5782.9878
5404.9813
5049.8916
4678.6942
4437.0063
4045.2217
4171.9919
3710.6252
3212.3676
2845.8045
2602.8877
2300.6026
2107.5701
1858.99
1722.5222
1457.8292
1370.6499
1182.0222
1051.4643
954.33572
804.25747
794.28068
597.49494
568.48935
666.57592
842.63995
927.12906
503.80693
1209.3663
397.95706
1001.953
926.5925
1196.4135
1158.681
1131.0312
24949.209
21923.273
24605.354
25775.325
26379.676
26502.286
26628.989
26755.901
26538.274
26680.127
26346.785
26319.905
25871.757
25734.919
25130.481
24861.364
24275.826
23811.597
23207.022
22647.75
22049.656
21470.864
20919.877
20310.714
19781.309
19159.608
18671.079
18057.51
17515.859
16969.534
16457.982
15909.68
15415.42
14888.028
14469.499
13769.861
13592.401
13112.425
12910.231
12330.505
11975.275
11436.751
10979.129
10541.18
10172.469
9718.9335
9336.701
8921.5324
8518.181
8140.3941
7747.9305
7388.4052
7020.4266
6676.507
6334.6067
6011.2504
5688.8658
5393.6833
5084.2884
4822.6398
4529.2745
4280.5194
4027.1447
3804.6388
3518.602
3401.4798
3046.1351
3072.0484
2786.9652
2669.1135
2604.8022
2453.1251
2183.0339
1998.2132
1921.272
1730.3076
1855.7841
1469.5046
1749.7763
1311.5682
1652.801
1152.5836
1655.2494
1005.1202
1243.876
892.79102
1069.6352
970.71076
1229.3462
647.25864
1842.0647
449.60618
2180.4355
722.34803
1656.3731
16037.738
12399.799
14824.943
15262.313
16315.315
16249.44
16524.406
16283.241
16337.666
16226.877
16136.779
16024.452
15833.519
15649.565
15369.042
15162.633
14757.016
14531.947
14158.804
13839.699
13516.136
13120.566
12808.043
12382.892
12069.668
11669.556
11353.228
10958.034
10708.502
10324.241
10034.149
9712.0257
9404.6002
9127.4745
8803.8349
8412.23
8583.108
7736.5152
8133.6209
7972.4147
7598.0841
7289.4694
7065.0966
6735.9343
6444.5719
6115.0482
5855.5698
5557.4971
5298.0952
5033.8389
4777.6025
4536.5392
4293.3814
4068.7819
3845.9195
3634.4966
3427.9101
3236.8102
3039.1908
2864.4224
2693.5394
2511.8104
2355.3881
2230.7104
2045.2177
1912.8311
1968.8527
1614.6516
1600.6199
1317.3875
1350.7715
1188.134
1217.8963
1359.6493
1273.7671
1301.7069
1187.9709
1180.8485
1137.6847
1093.4551
988.25776
1175.5025
781.54385
1102.3016
822.78095
944.01482
1101.5391
808.59146
1148.3887
996.41192
1308.3696
851.57937
1792.2476
650.13246
1869.5131
9987.0699
6419.3139
7286.9912
7474.4828
8140.3325
8434.9752
8433.8561
8680.5535
8573.1001
8728.3984
8539.0766
8688.3085
8446.5946
8551.3192
8300.2734
8327.6226
8095.2967
8065.0992
7806.2947
7735.272
7516.4925
7372.9415
7193.6683
7010.217
6876.6572
6675.8148
6533.4649
6341.0355
6173.7654
5970.285
5848.8222
5647.5506
5525.9886
5358.4059
5192.0369
5147.7424
4904.3822
5316.9541
5329.392
4881.3169
4824.9383
4581.5283
4471.2973
4309.0354
4145.8621
3989.764
3839.5753
3693.9441
3546.5759
3407.8637
3264.9722
3135.473
3002.7297
2879.4718
2757.1254
2641.7136
2526.9214
2422.5718
2310.434
2221.7685
2098.545
2035.0266
1919.2838
1831.5524
1745.6673
1692.0457
1560.8679
1509.4197
1497.586
1428.2049
1272.9916
1251.7866
952.94529
852.01687
1076.3997
927.6132
1046.5134
819.19549
1047.9728
661.57591
1118.4621
528.16052
1097.7323
653.16215
945.16565
926.6927
919.26805
866.21247
1224.2174
632.03261
1552.7757
531.18342
2143.658
466.5021
2080.1833
7352.5934
2770.1443
3067.4334
2438.2959
2979.0575
2909.9069
3191.398
3174.7518
3288.9706
3326.3328
3365.9636
3442.3249
3418.0249
3479.3975
3392.2961
3467.6695
3309.2901
3368.9745
3222.202
3223.8433
3109.2869
3060.6607
2968.7791
2893.6995
2836.372
2720.6282
2692.0572
2585.1183
2566.0574
2481.3701
2438.0413
2354.0726
2323.4547
2224.4092
2237.483
2098.3229
2173.9566
1982.7621
2118.5717
1845.5581
2063.8685
1952.9552
1970.7453
1918.4631
1868.0488
1808.3451
1776.1264
1716.2888
1678.5949
1633.3499
1597.2673
1556.837
1524.2648
1489.0949
1459.7267
1427.8998
1399.5532
1377.1463
1342.1346
1323.4244
1296.1562
1273.4716
1233.7242
1228.5579
1195.2738
1155.2025
1155.8131
1129.1629
1137.953
1038.8229
1180.3397
1024.1519
1050.0031
1022.1847
952.31909
1034.0596
839.63384
1037.9344
840.9788
1063.2505
846.15999
1052.96
955.78662
934.20251
1034.9341
852.84139
959.77744
911.00162
1067.9291
886.22582
1539.5623
846.96042
1966.8065
411.77253
2500.1586
6425.5171
1809.3457
1085.6661
425.37431
365.80303
525.81253
566.10247
741.92149
824.37821
1021.323
1018.0859
1256.1385
1208.7082
1416.9643
1397.1423
1559.4347
1515.118
1691.2826
1603.2151
1751.4055
1671.9963
1740.6673
1725.851
1777.0762
1769.5606
1773.4207
1784.871
1754.3944
1759.3061
1712.4539
1721.7306
1706.9039
1683.7691
1699.7081
1670.4898
1691.7623
1648.6896
1752.1998
1646.5911
1621.6135
1606.2434
1521.1026
1490.9957
1484.4382
1460.324
1471.1115
1453.1589
1443.6751
1426.6972
1414.9069
1393.9572
1384.0245
1361.1583
1350.201
1331.6962
1312.99
1299.2408
1282.1027
1253.0317
1254.634
1215.1155
1201.747
1179.0785
1167.1242
1111.5096
1118.4816
1082.3004
1044.002
975.88711
1024.2471
871.2796
898.83443
869.20205
813.23442
892.47638
811.13849
876.19726
804.06946
856.85725
697.8434
914.19649
566.86489
941.70205
534.27312
909.81404
703.82591
897.38843
975.87464
954.03149
913.04225
1297.7743
333.01873
1894.9985
401.20141
2597.2884
8423.8335
2958.1579
2041.9322
970.67607
738.61128
689.46971
679.47809
706.2111
790.74121
883.75777
974.50431
1080.5609
1157.8465
1271.8729
1279.6413
1409.345
1357.923
1484.002
1429.1028
1552.8768
1624.1563
1765.4908
1659.2853
1652.5285
1594.414
1577.5117
1555.9943
1507.2516
1523.7411
1455.5175
1477.3232
1393.9454
1395.6332
1358.7045
1322.7476
1304.364
1283.8901
1278.0679
1245.6769
1224.6528
1212.4789
1218.8482
1219.1806
1204.6296
1188.6005
1147.1464
1135.3567
1105.2998
1093.5518
1069.1505
1061.222
1039.073
1027.9417
1014.4403
998.90005
985.11281
974.80663
953.73875
944.80837
931.82536
902.53295
904.04614
876.70131
858.4076
838.89942
841.22386
799.84616
782.48979
835.36362
745.30479
789.30885
801.60128
628.52961
749.15476
571.99393
743.56076
540.15384
748.59438
439.90344
833.58695
455.2083
752.8831
719.73526
516.54761
1005.7894
407.1797
927.5086
549.77288
584.44045
887.55992
765.3044
841.98539
1699.0619
372.8189
2547.0933
12718.438
6941.7989
5793.1126
4828.1876
4639.1598
4504.7291
4492.3639
4445.5271
4595.317
4778.4925
4797.8988
5058.7449
5116.6742
5253.0012
5329.993
5419.2472
5391.2559
5517.7649
5345.0426
5404.9803
5389.495
5215.4624
5010.9867
4949.0616
4911.5616
4845.9992
4732.7084
4677.8692
4563.4705
4465.4542
4367.9402
4261.7941
4180.8141
4059.459
4000.5843
3899.2653
3805.9412
3744.1833
3626.8627
3583.9668
3483.813
3428.3452
3300.6579
3246.5807
3152.7087
3089.5815
3013.6195
2942.3408
2859.8246
2789.9305
2708.9804
2633.4522
2557.7003
2482.8494
2404.8533
2333.9312
2254.8865
2184.7755
2109.6509
2033.3634
1964.9436
1900.1419
1810.1852
1767.1268
1667.8287
1613.8119
1517.7132
1507.8146
1371.6678
1347.0971
1304.2127
1181.2899
1191.1396
1241.2288
1058.9111
943.99073
980.56805
851.72233
1068.3497
734.95484
999.90534
764.69123
874.26276
764.85815
865.00142
710.79919
863.18685
878.76131
840.38187
916.06675
1011.0401
688.80868
1186.2959
243.67979
2673.55
14404.708
11124.393
9722.7747
9437.009
9018.2387
8984.5927
8623.4187
8616.0388
8675.5007
8764.7844
8732.6983
8968.9617
8902.377
9007.3969
8938.5833
8954.1651
8827.332
8814.6945
8614.6812
8596.772
8520.5362
9593.6149
9217.3177
9160.0334
8986.5456
8693.6706
8524.0497
8204.2992
8011.8141
7719.6417
7514.3293
7284.227
6997.332
6811.5207
6538.2002
6314.2929
6103.1214
5876.5189
5687.5708
5465.0646
5284.4938
5066.0021
4907.2843
4705.3652
4538.6751
4340.4568
4172.0762
3988.3282
3822.8011
3650.9675
3490.5098
3326.4084
3172.7539
3015.9416
2867.985
2719.1649
2576.1486
2438.3698
2294.6326
2165.4959
2038.7288
1897.3135
1788.5237
1679.8714
1548.4996
1468.7074
1371.9694
1244.9956
1167.1048
1105.0871
973.76763
957.38792
861.17329
776.72483
1186.3379
981.20065
890.11169
925.73885
709.2117
933.88175
706.20801
897.49061
771.6271
873.00287
883.59345
846.53491
1065.065
853.23971
1067.8826
1103.4627
905.26859
1195.0435
1428.9563
1190.329
2362.5021
31151.404
19806.358
20144.942
19370.291
19190.235
18549.87
18552.618
18463.591
18495.363
18589.571
18716.523
18749.659
18779.816
18668.535
18683.958
18371.273
18274.362
17953.764
17677.765
17394.667
16957.72
16641.051
17599.333
17534.406
17068.188
16752.843
16256.98
15854.305
15389.481
14918.224
14520.154
14022.898
13602.068
13178.533
12751.425
12367.976
11937.214
11574.947
11145.121
10812.436
10392.746
10068.345
9680.1542
9344.1855
8990.4323
8659.3402
8321.217
8001.347
7669.9845
7356.7975
7040.2589
6731.3479
6428.3753
6129.3241
5838.0071
5550.2445
5273.0994
4997.7309
4729.4354
4479.995
4212.7031
3982.9904
3739.2606
3525.7268
3274.3546
3094.6131
2851.8536
2693.7431
2515.0008
2323.4601
2194.1819
2013.6685
1912.0428
1794.9613
1628.2457
1430.2262
1380.3651
1205.3279
1223.076
1104.0872
1022.4746
1027.4797
839.40686
973.87812
667.49334
938.42093
538.42221
805.14296
661.80847
699.32027
748.93123
901.21159
809.56293
637.33476
2541.5634
45713.043
36516.569
35353.875
34189.658
33198.448
32828.424
32891.218
32573.795
33085.848
33026.152
33144.56
33150.2
32928.296
32690.766
32373.091
31722.352
31394.032
30578.3
30082.571
29316.773
28674.256
27994.334
27102.114
26351.732
25613.374
24698.809
24058.123
23191.134
22394.293
21689.93
20887.034
20231.283
19474.974
18836.896
18097.305
17381.093
16752.351
16062.367
15477.984
14810.349
14254.764
13634.199
13079.897
12495.607
11948.936
11391.823
10858.296
10327.84
9811.0316
9304.4093
8809.3739
8322.3346
7850.8019
7385.8697
6936.9651
6497.2202
6071.841
5656.9147
5261.2359
4868.9628
4498.9892
4139.9963
3787.9776
3467.6104
3150.2304
2889.1051
2612.5791
2350.8533
2057.762
1865.8817
1593.1774
1457.9063
1226.314
1042.1759
955.75375
722.09515
630.91953
529.93726
402.15696
344.78323
299.00468
241.43199
241.64218
228.19894
244.57178
302.7585
241.08646
594.48883
182.92949
766.9026
299.86478
805.81135
-17.899818
1315.6277
2299.7272
65091.768
53056.613
50384.231
48493.001
49081.133
49024.809
49428.656
50113.577
50834.3
50931.447
51248.05
51047.989
50816.725
50304.434
49635.503
48846.732
47983.915
46982.042
45923.529
44892.025
43678.154
42593.985
41365.944
40430.096
39182.916
38117.306
37030.923
35865.534
34780.657
33664.046
32590.358
31475.98
30385.937
29422.069
28332.618
27415.871
26429.988
25528.539
24536.05
23672.289
22747.212
21881.381
21012.362
20172.641
19338.648
18531.797
17724.622
16945.596
16169.261
15412.702
14670.775
13939.235
13228.979
12528.288
11851.93
11183.367
10540.023
9915.8204
9300.116
8722.2871
8146.2874
7613.0906
7069.639
6591.9487
6061.6637
5629.0878
5167.2376
4768.6606
4408.5875
4006.365
3729.7378
3344.7647
3103.1997
2786.3466
2621.9713
2289.6721
2180.6523
1922.6032
1782.2533
1666.9395
1481.7565
1439.1369
1257.7576
1280.2956
1073.5371
1137.077
978.60099
1011.9015
733.76988
1171.5218
463.66754
1118.1338
589.82385
661.89728
1841.7875
79159.013
62653.748
59939.797
59783.861
62367.337
62580.412
64347.693
65596.425
66254.219
66891.757
66686.358
66722.679
66113.681
65141.188
64392.967
62908.219
62030.087
60443.986
59054.16
57483.257
56176.408
54263.845
53218.447
51282.561
49895.696
48353.464
46684.18
45517.864
43798.038
42791.94
41120.4
39827.41
38346.739
36946.539
35647.068
34320.875
33380.532
31919.418
30868.94
29576.577
28483.805
27312.178
26209.656
25098.6
24021.334
22958.031
21913.411
20897.223
19889.085
18914.252
17950.231
17010.814
16093.06
15197.104
14321.119
13470.631
12649.093
11838.902
11072.586
10318.228
9603.5456
8906.5661
8255.5816
7618.6106
6995.0637
6400.0279
5781.4391
5298.318
4752.9795
4567.1948
3934.4502
3677.4986
3222.9021
2923.2898
2568.7611
2310.0049
2018.8472
1807.7824
1601.1089
1376.7179
1226.7422
1089.7635
950.69916
854.24166
808.90298
736.12106
663.23303
813.76922
708.9076
864.08715
1091.3849
1551.954
1032.3636
2142.5095
1753.9204
56992.05
52694.993
44183.71
42823.286
41746.375
41895.612
40953.127
41677.803
41925.147
42024.818
42001.508
42020.558
45668.703
49321.357
61777.827
39314.271
31264.407
26936.399
26274.374
24497.571
24284.313
23519.052
23915.186
24313.402
24155.399
24647.654
25571.295
27896.703
32438.573
41623.036
26926.419
20275.969
14767.303
13649.218
12182.808
11788.364
11594.383
11311.817
11445.239
11679.916
12375.363
13140.031
15339.677
20338.254
27705.951
17821.861
13247.83
10058.624
8411.2608
7829.4579
7328.7114
7167.1702
6937.0698
7259.0164
7514.3565
8064.4008
8803.0409
11274.983
14597.251
19285.737
11654.202
8443.8949
5697.4464
4758.488
4019.9223
3690.3325
3511.617
3448.6069
3528.1126
3773.4702
4124.942
5025.4979
6518.5751
8762.0379
13238.159
9290.0585
5831.2492
3944.9872
3186.6551
2641.5127
2414.4366
2259.5883
2264.3667
2318.7282
2463.1303
2924.9729
3364.7406
4448.9519
6570.2834
9905.7257
6217.4193
4074.6624
2837.979
2148.9451
1752.2511
1441.6739
1328.7256
1271.8349
1337.8427
1494.9101
1765.5149
2321.9509
3081.408
4804.2623
7738.9858
6427.9113
4026.6093
2654.7017
2041.0044
1573.9569
1348.3712
1200.4876
1197.1056
1270.1367
1415.5525
1790.18
2312.3576
3153.0552
4915.7159
8020.8476
7450.0211
4861.695
3342.0138
2563.1197
2048.2835
1770.9452
1607.432
1616.5417
1663.3136
2028.8013
2203.5203
2805.0433
3707.3832
5762.781
8429.048
10938.489
7746.2726
4913.1338
3972.2739
3089.1153
2777.1654
2501.181
2470.5482
2530.1056
2708.4912
3407.5137
3866.6187
5662.5672
8671.1196
13149.268
14267.555
10584.196
6749.1238
5690.3316
4441.4478
4146.0278
3754.6266
3836.0221
3897.8087
4246.3253
4981.0356
6069.0219
8196.5143
11779.705
16371.794
22374.893
15066.659
11091.244
9286.3303
7880.4287
7134.1069
6814.9191
6657.0928
6861.4507
7177.513
8233.0233
8527.508
12017.153
16672.106
23608.879
28961.723
23031.747
16700.299
14770.463
12634.357
12369.364
11526.131
11892.828
11927.864
11884.059
13350.603
14340.081
17696.123
24251.083
28583.922
43742.598
35675.321
27551.803
25639.132
23081.267
22274.208
22344.014
22588.828
22182.27
22628.015
23019.906
24605.054
28131.924
33082.798
47311.239
57624.291
59846.181
46184.47
44541.43
41564.909
38958.649
40986.886
42887.232
40012.867
42480.786
41632.556
43392.215
46919.468
53611.838
66826.013
132884.22
107364.22
106323.47
109047.16
110343.25
109904.05
115806.51
121989.69
124287.08
122292.98
118532.05
112362.79
111370.85
115471.57
111751.3
99179.858
89045.144
82859.919
79604.293
76190.6
77733.602
76722.928
76996.081
81866.893
78058.458
79503.944
78684.886
84172.893
90370.994
104521.48
86317.085
88021.343
83687.038
80709.565
80224.586
74215.279
73825.089
74718.209
71530.302
76914.627
77103.482
83768.583
87493.598
88537.662
90941.416
84274.128
92194.745
91076.705
88249.056
86614.447
85010.322
84374.306
84490.628
84696.301
85798.565
88131.071
91138.512
92133.197
93756.161
86839.698
85614.151
91426.755
93399.579
94725.848
92268.96
91415.126
91208.113
90608.673
91496.596
93222.605
93985.434
96125.709
95658.193
92538.49
86293.496
85899.653
93921.372
94961.599
95818.435
96332.468
95715.924
95187.725
95084.534
95483.19
95780.919
97103.263
97561.645
96408.222
93916.379
86846.139
86459.859
92457.237
95246.905
97538.734
97625.593
97929.329
98108.956
98113.618
98585.358
99024.346
98597.121
98462.022
96469.539
91834.667
87768.626
87508.555
92233.459
95448.559
97410.223
98871.078
98858.764
99131.347
99482.362
99274.285
99542.056
99052.796
97777.68
95932.838
90917.804
85346.097
86102.704
90550.706
93792.308
95960.423
96670.833
97836.875
98113.3
98145.018
98671.716
97753.867
97189.435
95742.972
93473.669
89830.699
86760.609
86554.81
89593.4
92848.532
94650.222
96337.343
96930.733
97503.586
97677.44
96938.79
97385.507
96198.709
95127.766
92715.191
89521.691
86237.544
84685.293
87804.322
90692.203
92588.79
93818.98
94884.326
95410.498
95592.41
95978.186
94945.637
94720.2
92826.631
91142.896
88136.08
85310.578
84611.009
86124.746
88925.787
90574.864
92004.262
92713.921
93276.065
93410.219
93169.634
92818.517
91656.371
90571.959
88444.452
86125.35
84355.176
82889.661
84690.116
86556.503
88209.371
89515.283
90369.034
90944.608
91258.742
91553.496
90894.622
90263.001
89111.4
87246.72
85427.062
83046.156
81261.936
82433.561
85287.249
86060.527
87496.275
88040.85
88494.943
88589.323
88457.506
87902.388
87045.124
86042.422
84251.608
82671.993
81618.086
79818.398
80710.149
82506.12
83793.301
85027.48
85401.585
86504.669
85722.249
86484.465
86045.507
85576.034
84702.038
82929.208
81932.295
80050.482
77729.246
78633.831
80804.968
81470.164
82446.178
83198.261
84066.366
83555.2
83431.674
82770.319
82111.679
81310.179
79784.539
78751.353
77727.82
76511.751
76618.349
78428.7
78582.173
80369.657
80535.956
81141.737
80993.558
81499.923
81041.001
80905.388
79948.187
79378.323
77119.699
77261.369
74213.823
74792.337
76586.318
77033.165
77662.966
78335.669
78547.703
78637.439
78533.361
77992.311
77275.979
76507.004
75688.334
74551.687
73685.12
72444.964
72498.791
74158.926
74869.768
75638.248
75813.39
76229.309
76086.346
76478.752
76007.821
75443.797
75246.824
74390.169
73920.445
73084.284
70408.514
70582.638
71835.128
72137.691
72971.722
73409.517
74172.898
73832.673
73935.91
73426.004
73053.97
72518.538
71725.035
70647.849
69849.054
68367.613
68565.24
70042.288
70263.265
70905.722
70819.142
71541.037
71389.9
71661.932
70984.048
71107.22
70435.333
70235.76
69172.91
68727.916
66200.004
66363.04
67499.019
67972.831
68517.813
68991.751
69257.556
69216.04
69176.357
69337.439
68739.943
68262.326
67293.129
66201.719
66649.048
64552.942
64262.65
65727.221
65786.869
66554.694
66644.214
67056.596
66811.961
67009.45
66667.181
66198.223
65767.031
65244.443
64594.143
64392.763
62155.278
62449.765
63337.683
63826.721
64089.758
64363.282
64742.77
64570.603
64768.107
64412.466
64070.848
63829.362
63670.029
62383.839
62564.483
60808.531
60494.82
61258.281
61356.156
62153.621
61982.994
62812.749
62372.561
62717.222
62352.584
62305.504
61718.284
60859.796
60279.819
60496.823
58188.167
58054.606
59402.64
59255.178
59914.471
60196.453
60557.248
60191.153
60624.999
60047.507
60204.92
59978.42
59378.351
58735.188
58334.987
56781.035
56288.344
57199.054
57205.63
58456.653
58024.33
58522.499
58327.721
58545.294
58231.571
58023.571
57366.907
57062.301
56343.641
56705.535
54497.074
54152.935
55486.674
55244.243
55892.552
55919.276
56375.67
56174.012
56483.042
56086.412
56116.494
55720.309
55313.253
54913.302
54419.36
53038.93
52474.392
53467.668
53373.576
54089.981
54080.983
54462.796
54330.214
54498.586
54202.538
54047.793
53799.092
53054.508
52420.502
53000.078
51035.034
50263.854
51555.152
51508.849
52324.562
52267.641
52546.417
52313.956
52352.784
52135.466
52143.686
51650.364
51584.282
50837.421
51053.165
49348.699
48697.095
50067.134
49716.019
50435.135
50401.466
50724.477
50423.095
50768.779
50284.727
50470.188
49893.304
49833.771
48836.83
49300.908
47891.355
46763.189
48119.022
47835.128
48739.763
48427.458
49011.902
48635.233
49051.825
48546.7
48618.389
48153.737
48010.925
47241.983
47581.75
46012.554
45090.518
46482.229
46179.806
46927.256
46748.138
47324.868
46829.885
47250.57
46726.551
46978.688
46343.915
46367.528
45481.397
45905.735
44376.144
43460.077
44740.679
44375.477
45261.806
44994.831
45565.268
45158.696
45553.101
45099.328
45184.749
44699.131
44683.872
43857.543
44284.01
42622.279
41850.801
43226.593
43130.606
43527.867
43371.278
43858.892
43537.684
43892.579
43530.653
43604.159
43167.698
43101.038
42482.315
42385.675
41288.41
40492.488
41284.688
41273.936
41773.003
41754.944
42120.141
41921.162
42113.152
41512.57
41843.464
41394.838
41337.568
40531.992
41171.81
39356.313
38756.827
39837.463
39641.396
40326.661
40071.462
40586.134
40189.999
40511.933
40186.282
40269.971
39816.957
39749.485
39100.989
39422.542
38077.115
37259.119
38412.874
38241.764
38750.368
38611.722
39048.342
38684.291
39071.798
38560.297
38856.004
38160.026
38411.832
37435.006
37931.478
36828.407
35628.133
36962.79
36497.288
37367.688
36949.883
37598.409
37068.102
37521.463
36999.821
37173.677
36718.95
36788.336
35949.112
36447.002
35213.98
34162.218
35453.996
35099.043
35774.132
35468.306
36054.542
35537.234
36042.965
35434.412
35781.07
35098.264
35332.234
34428.383
34952.969
33860.733
32714.138
34032.389
33541.79
34363.552
33938.022
34572.075
34049.263
34491.536
33998.435
34240.3
33659.084
33866.063
32937.763
33499.379
32400.533
31297.205
32559.742
32150.424
32879.058
32478.29
33136.597
32530.667
33085.701
32478.477
32786.619
32172.682
32391.095
31483.296
32063.081
31049.981
29884.458
31175.25
30685.903
31436.266
31039.86
31632.138
31112.597
31583.201
31033.828
31334.333
30719.927
30952.315
30043.33
30622.809
29661.395
28522.564
29762.62
29275.94
30033.414
29594.749
30247.983
29661.279
30159.966
29614.552
29894.302
29306.017
29537.38
28633.376
29220.037
28334.517
27154.976
28393.788
27889.122
28601.895
28215.299
28814.185
28251.09
28743.331
28197.375
28476.964
27902.104
28122.42
27235.476
27823.188
27004.404
25824.878
27057.171
26492.952
27233.17
26819.471
27427.939
26862.451
27338.936
26813.516
27079.901
26524.194
26739.364
25868.403
26449.642
25704.378
24522.146
25711.476
25157.501
25867.849
25473.016
26078.22
25493.171
25975.163
25451.094
25705.124
25163.901
25370.074
24516.877
25092.076
24436.423
23225.131
24426.057
23830.632
24532.834
24150.974
24731.276
24147.984
24630.586
24108.354
24359.033
23829.452
24038.625
23194.43
23762.377
23172.724
21978.706
23141.373
22529.198
23237.438
22855.482
23431.901
22845.512
23323.758
22801.033
23043.131
22521.538
22725.642
21885.382
22454.889
21958.652
20744.247
21891.452
21280.033
21962.051
21578.843
22139.294
21544.05
22024.979
21504.164
21744.635
21231.594
21443.364
20609.089
21180.624
20751.554
19537.071
20677.411
20040.084
20710.991
20339.419
20891.745
20302.506
20785.967
20261.018
20492.26
19989.77
20193.818
19360.091
19932.313
19577.618
18370.295
19479
18838.039
19503.49
19121.324
19654.56
19060.832
19537.508
19010.424
19248.735
18752.161
18960.997
18137.755
18710.824
18435.602
17219.36
18315.168
17674.899
18315.374
17932.641
18464.006
17875.301
18353.289
17833.205
18060.533
17570.328
17776.638