/*--------------------------------*- C++ -*----------------------------------*\
  =========                 |
  \\      /  F ield         | OpenFOAM: The Open Source CFD Toolbox
   \\    /   O peration     | Website:  https://openfoam.org
    \\  /    A nd           | Version:  6
     \\/     M anipulation  |
\*---------------------------------------------------------------------------*/
FoamFile
{
    version     2.0;
    format      ascii;
    class       pointScalarField;
    location    "0.19";
    object      E;
}
// * * * * * * * * * * * * * * * * * * * * * * * * * * * * * * * * * * * * * //

dimensions      [1 -1 -2 0 0 0 0];

internalField   nonuniform List<scalar> 
28033
(
95.007261
9.5186481
-522539.53
-251821.25
163.76479
187.05599
-379559.72
-784560.26
13.602789
58.650116
66.005562
82.748103
90.130601
95.604029
101.54597
105.68233
100.63576
99.8971
84.176349
77.357417
56.262153
27.396894
-12.434325
-287644.22
-284932.17
-283483.89
-282891.41
-282855.18
-283198.42
-284096.8
-284949.4
-285794.76
-286498.24
-286994.6
-287067.16
-286661.85
-286005.56
-215385.79
164.82919
17.33812
51.753826
65.265104
81.251182
99.580854
124.59761
135.96527
169.13637
204.09815
236.04937
280.3663
319.21201
373.40862
424.12376
474.96445
533.18824
605.69926
676.30194
747.09439
835.62383
911.59389
999.93057
1094.7981
1185.9937
1298.2927
1389.3833
1512.0409
1626.6152
1741.1166
1868.4797
1997.0867
2135.5425
2243.7502
2382.5716
2512.0761
2641.4463
2769.0113
2899.4365
3034.9064
3152.8058
3286.159
3416.3611
3543.048
3671.0717
3800.681
3922.5088
4047.4625
4160.4228
4272.6368
4370.6542
4462.5673
4539.5939
4605.5542
4657.1957
4695.7379
4721.1542
4734.0389
4736.2948
4730.1111
4713.6654
4696.3201
4666.6881
4656.7768
4612.3054
4586.6782
4580.2671
4539.0875
4521.7283
4491.2054
4484.2627
4443.4174
4440.594
4394.2264
4387.9501
4341.2261
4307.7307
4273.6236
4192.2423
4153.6843
4058.8319
3954.0206
3901.1018
3748.4858
3734.1943
3604.8738
3700.4866
3579.124
3784.8225
3849.294
3908.5535
4210.1686
4075.35
3958.859
4337.8288
270.25484
-117.43686
232.9735
6.6018109
128.13621
147.03043
124.04771
175.90566
207.45819
228.84461
269.76329
306.40035
337.40344
382.16404
431.25967
477.72834
542.51089
591.87509
657.00857
734.7763
796.46651
874.18659
969.4812
1035.8341
1140.2177
1239.6192
1328.6668
1445.3804
1538.7973
1665.4698
1761.0664
1890.6499
2007.781
2132.5695
2251.1602
2381.0916
2506.0582
2620.5496
2753.0686
2876.7988
3002.4605
3130.1271
3257.4681
3385.6417
3512.0772
3638.6603
3761.0196
3880.6246
3994.9654
4102.7572
4204.1955
4296.9027
4381.4587
4456.5271
4522.417
4578.1374
4624.6713
4661.8721
4688.9663
4710.0426
4720.0083
4727.4673
4723.7558
4721.6467
4708.6982
4707.2894
4695.0338
4704.7352
4694.5007
4639.1452
4691.6402
4631.0589
4684.2492
4657.5647
4686.3656
4661.2023
4672.8953
4642.4254
4613.4214
4565.3464
4506.7727
4432.7211
4348.2349
4286.2945
4169.2096
4158.6298
4067.4617
4074.0545
4063.4193
4167.4962
4094.4644
4301.8864
4404.6716
4377.5751
4447.6714
17.144559
97.738203
51.684301
92.901308
95.157013
94.647642
106.5533
101.95077
108.70307
100.30077
95.107367
80.609711
56.010064
-0.21199777
-53.934999
193.90949
372.70121
-378.92308
283.55815
64.883384
112.95264
170.11706
195.5532
220.07777
223.94175
296.57898
313.93278
368.01432
405.12006
454.68312
558.94119
575.99967
635.81198
716.79798
763.19323
922.39165
934.47964
976.1806
1088.5627
1193.1024
1349.97
1443.7458
1555.0439
1674.9663
1735.8401
1905.3751
2026.3878
2161.1854
2309.8281
2488.0345
2561.6974
2693.8362
2856.3176
2988.2083
3126.8903
3269.0992
3410.9055
3551.9516
3694.0648
3834.642
3972.8607
4108.0476
4238.6627
4363.6319
4482.0587
4592.2543
4693.439
4784.2122
4864.0065
4931.6811
4987.5071
5030.684
5062.1152
5081.5972
5090.464
5089.0929
5078.7978
5061.7596
5037.7007
5009.6413
4988.1381
4958.038
4877.7863
4873.1269
4896.7732
4850.2955
4825.6115
4813.7926
4789.7331
4760.6323
4722.8453
4672.6706
4606.61
4521.6843
4417.569
4296.7917
4161.0175
4012.9246
3869.4738
3719.571
3602.4409
3484.2962
3431.6773
3376.2175
3420.769
3424.5999
3624.4297
3689.0245
4100.4938
3282.6898
-612470.87
-576438.54
-513487.41
-617534.79
-513694.32
-615847.15
-511083.29
-574050.44
-609879.03
-570472.91
-506351.79
-609226.71
-508546.61
-616129.59
-584092.27
2954.231
3828.806
4447.4771
4282.0884
4141.1664
3989.3859
3900.7978
3836.1061
3808.8201
3821.0959
3865.2284
3917.2351
3985.2194
4039.7727
4107.8453
4164.9087
4232.4094
4280.8764
4325.9357
4362.9431
4387.6186
4411.9435
4428.529
4447.7753
4457.7969
4517.8799
4535.3961
4501.4257
4529.4925
4585.016
4606.4597
4637.3917
4662.0567
4685.7268
4702.4546
4712.7127
4715.0313
4707.7083
4690.2961
4661.3082
4621.3972
4569.1188
4506.0571
4431.3453
4346.9299
4252.6743
4150.641
4041.2011
3926.0375
3806.8616
3682.2819
3557.5275
3430.448
3298.8411
3170.8791
3041.4946
2913.9337
2768.5011
2666.34
2535.261
2381.1372
2253.2518
2153.7199
2003.0096
1870.0217
1780.5629
1647.2317
1535.7355
1429.0571
1305.1375
1212.2669
1098.5782
1025.1901
944.93456
831.61178
776.22171
694.18814
622.73294
563.91516
480.65127
438.07134
391.85826
318.78683
297.02331
249.53163
206.61243
176.90047
143.71458
123.23252
101.26134
66.088202
57.680123
87.027227
-43.372023
266.69357
95.796109
99.04403
73.75119
79.579069
67.232831
78.6031
61.519195
73.675904
74.432231
79.421502
68.252368
71.029273
73.367443
95.080207
50.721107
5.4753528
8.2048963
-54.62094
-2.95465
-39.390336
-80.632374
-17.960996
1.7440548
-48.355711
-9.7634516
-17.093899
-22.433246
-19.311105
-18.901614
-8.4579519
-283766.67
-283952.13
-283938.98
-284002.21
-284022.68
-284029.92
-284077.15
-284082.12
-284070.99
-284100.19
-284005
-284090.96
-283991.37
-284030.49
-283814.69
-588227.26
-588286.18
-588410.91
-588411.79
-588435.12
-588483.52
-588535.03
-588551.61
-588570.14
-588553.79
-588543.2
-588549.27
-588489.47
-588690.88
-588465.25
158.69998
-12.27966
45.032595
37.854833
32.08212
54.391233
54.589738
75.651264
95.082826
118.58521
145.07152
182.34174
219.69805
262.63542
301.38393
347.82587
397.9527
455.45623
504.93506
572.48969
643.1763
708.09895
794.61898
874.13546
959.12811
1045.8083
1143.7744
1245.4604
1339.8097
1455.1834
1559.7991
1668.6842
1775.71
1894.9666
2019.9359
2122.8794
2249.1219
2362.4535
2480.0641
2601.3168
2724.1946
2842.6439
2961.8344
3082.9993
3202.2171
3320.0038
3434.648
3546.2155
3650.5024
3749.1075
3837.7769
3917.1433
3985.0774
4041.877
4087.3512
4121.9081
4146.7404
4162.6246
4171.3564
4173.9772
4170.2846
4163.1041
4152.8675
4143.2914
4103.8955
4114.3997
4115.1738
4113.0816
4097.4582
4067.8631
4080.1839
4056.016
4082.188
4053.4063
4076.2118
4054.2227
4060.5117
4047.1859
4011.9837
4023.4384
3942.4841
3962.2544
3935.65
3852.2876
3809.3378
3792.117
3855.2949
3831.2071
4016.367
3928.7105
4227.3095
4214.8953
4474.4444
5055.5577
5572.0244
109.0429
2.4122939
75.807731
35.539606
67.55687
62.722398
77.094453
86.596935
96.644794
112.57409
135.07197
158.80639
185.55501
215.80717
252.00037
286.82712
326.54813
364.78665
414.52683
463.8435
513.49987
574.60352
634.10229
699.01964
766.28315
844.06607
918.26035
995.87499
1084.8768
1171.3563
1259.9122
1357.9253
1454.8473
1553.9975
1644.7541
1745.3286
1847.0216
1945.1971
2048.7193
2154.7295
2260.282
2360.4826
2474.4781
2575.3306
2681.4294
2786.737
2886.7403
2984.8538
3075.7596
3161.0263
3236.7557
3304.1661
3360.8145
3407.7233
3444.2781
3471.4831
3490.0977
3501.491
3506.0301
3506.5188
3500.2505
3495.6107
3485.1675
3470.6079
3453.6489
3494.1788
3484.3197
3578.5857
3566.1658
3573.4601
3569.6926
3555.255
3564.8207
3574.9756
3592.4474
3615.9024
3622.2981
3670.0356
3650.8758
3708.3716
3685.2529
3704.3314
3736.697
3616.8921
3699.0649
3683.8125
3835.5615
3778.427
4009.9924
3983.7467
4295.6193
4197.5842
4716.3509
4705.7546
5459.884
117.64846
30.413696
69.525016
57.971702
63.857098
65.756343
72.959249
78.262648
87.515774
101.43063
114.79003
131.6798
152.99745
176.97634
199.48927
227.49687
254.91845
289.34222
321.37568
359.4745
403.07763
447.13354
496.48311
547.18065
603.5909
658.8515
719.53732
786.47909
852.44931
922.51889
997.74296
1072.3822
1150.0671
1226.7513
1308.1516
1391.2225
1475.0179
1558.2511
1647.9891
1733.3928
1819.9214
1910.6445
2002.2811
2087.6488
2181.0324
2267.6743
2353.4094
2435.9689
2513.0367
2583.9764
2648.1781
2703.7578
2751.5645
2790.3618
2821.6258
2845.0139
2862.663
2874.2392
2881.9097
2885.9044
2887.7711
2888.1774
2886.2538
2878.8734
2900.4884
2858.338
2935.2052
3078.9455
3057.5667
3058.9852
3080.3344
3093.1398
3146.549
3151.0706
3213.4718
3214.609
3293.064
3296.8054
3365.2578
3381.6803
3413.289
3487.4604
3425.0001
3549.0936
3466.5868
3631.9641
3639.9366
3784.0944
3898.0604
3920.9776
4176.2614
4211.1158
4573.4633
4703.5315
5218.2004
102.87237
47.362219
71.858845
72.09774
72.71076
77.779102
78.895509
80.375975
86.173663
92.020036
99.928051
112.82296
126.96964
141.14674
160.65238
178.72173
201.35859
224.26216
251.79534
281.41978
313.77089
349.20249
387.58426
429.92281
473.9733
521.89936
574.10788
626.4076
682.84437
744.89409
804.89528
871.58159
936.18485
1006.2373
1076.6926
1147.5922
1216.5349
1274.5181
1349.9527
1428.6397
1507.9017
1590.2331
1670.3485
1753.8339
1838.4449
1919.3383
2000.701
2077.8914
2150.7284
2218.5934
2279.788
2334.0193
2380.9399
2420.1849
2452.5898
2478.3951
2498.3815
2513.8289
2524.8618
2534.3592
2539.1732
2547.16
2544.3957
2563.4579
2546.7391
2583.4473
2560.7462
2552.7626
2542.3451
2566.2996
2622.2469
2658.7043
2649.9789
2665.6285
2746.6246
2796.331
2912.5699
2935.8898
3083.497
3091.9204
3253.9274
3243.3883
3433.4407
3399.2819
3567.425
3564.3508
3847.8964
3792.1624
4096.0123
4037.4711
4513.1004
4316.4187
4928.5882
4601.9011
5134.1891
102.47632
53.60886
80.401715
63.461105
74.607787
70.761495
75.361053
76.377743
80.991558
83.674515
92.210053
100.07432
109.22394
122.37973
134.57951
149.57405
165.87426
184.98562
204.30175
228.24416
253.06303
281.60507
312.16006
345.07083
380.14788
417.49023
457.58116
499.99655
547.29839
592.88424
644.83415
695.84164
749.02268
805.77459
857.63861
917.00138
977.68147
1048.4458
1153.8049
1217.198
1289.7682
1348.0742
1421.8372
1489.2
1557.9876
1624.6299
1691.4089
1753.8191
1813.5336
1868.1493
1917.5588
1960.7479
1998.186
2029.0246
2055.0668
2075.0328
2091.9336
2104.5751
2115.2459
2123.53
2133.9208
2134.816
2152.0915
2153.6945
2166.697
2177.2356
2214.1982
2219.4448
2266.356
2288.7194
2353.1418
2365.4359
2439.1974
2559.3215
2642.1048
2731.0224
2831.2281
2918.2889
3035.766
3120.7309
3221.7735
3350.5239
3385.1356
3586.3771
3565.028
3850.5186
3820.3427
4054.1642
4206.9187
4383.9009
4630.3916
4554.3886
4964.709
4661.66
4999.4102
95.352725
61.458845
75.572494
75.61633
80.764912
79.706143
83.102428
81.981068
83.595904
86.502783
90.808702
94.584752
103.2343
110.16734
120.34112
131.08619
144.20641
158.05806
175.69964
194.44493
216.125
239.58422
265.56229
293.13868
323.49163
356.99651
391.798
430.79672
469.07382
513.31347
557.14643
603.01855
652.25433
700.64444
750.93175
808.29699
851.83383
941.79734
970.4502
1036.1542
1096.2042
1161.2779
1225.2521
1290.8399
1356.5116
1421.5323
1485.5701
1547.5824
1606.6134
1661.8254
1712.4262
1758.0365
1798.5699
1833.8406
1864.2638
1890.4953
1912.9077
1931.9822
1949.4464
1964.921
1976.3763
1996.1835
2004.4126
2019.5993
2042.5423
2057.5476
2081.4139
2109.4883
2146.4447
2191.0967
2226.9946
2286.7289
2327.7266
2365.6522
2483.6583
2571.13
2702.5766
2776.0053
2953.7447
2984.8498
3216.2291
3203.1369
3480.9806
3446.3733
3759.2947
3762.1404
4037.4796
4130.4884
4373.8117
4361.1845
4677.1728
4617.9286
5175.1179
4661.415
4996.1493
93.893316
64.719445
82.1949
70.490996
77.405101
77.160949
79.869939
79.451889
84.409624
85.218409
90.278861
95.906377
102.64604
109.56824
119.20348
128.27596
139.76354
153.15855
167.13213
183.94227
201.22924
221.77323
243.04417
266.83509
293.99564
320.11999
351.33424
381.40811
416.91071
451.47334
488.32535
527.80731
566.79588
606.67437
650.85076
687.98689
736.89043
783.73169
828.6682
877.73341
929.5233
980.7717
1031.7523
1084.6354
1137.3981
1189.3828
1241.9725
1291.2484
1339.6021
1383.7693
1425.4009
1462.4033
1496.1531
1525.336
1551.8805
1574.5078
1595.3595
1614.289
1632.3711
1648.3528
1669.0573
1684.9219
1705.0243
1732.0958
1753.6586
1786.458
1821.4759
1864.0372
1919.0889
1964.8087
2060.5636
2107.9409
2212.8627
2343.5663
2479.2703
2607.4511
2709.3968
2865.9954
2980.7503
3126.814
3262.058
3408.0606
3510.1275
3712.4605
3751.0007
3969.3767
4029.0028
4222.7014
4373.625
4548.4426
5009.6128
4910.2499
5323.522
4812.6403
5247.4491
97.131294
73.544529
84.77225
79.369914
88.791969
85.2292
88.047909
88.56306
91.130065
90.579008
96.579835
98.89987
104.00348
110.83426
118.04611
127.16835
137.98434
150.52717
165.01265
181.62149
201.78353
223.09628
245.38172
270.60811
296.19827
324.74046
355.07474
388.17777
422.32849
457.9135
496.98759
535.73172
574.95674
619.09318
658.54982
706.47682
749.64003
798.71681
843.92349
898.46116
946.30066
999.68607
1053.3814
1109.0264
1163.8878
1220.5624
1275.0294
1329.3128
1380.7339
1430.3151
1476.2029
1519.4513
1558.5142
1594.9513
1627.7003
1657.7095
1685.7787
1711.8309
1735.365
1761.3594
1783.3104
1807.1176
1834.1388
1858.8137
1887.2174
1920.3029
1956.9897
2000.7777
2042.5207
2112.852
2155.4773
2250.3646
2322.4546
2412.308
2495.7406
2608.5019
2734.0992
2852.9706
2990.0748
3091.9407
3291.8388
3288.9701
3613.1075
3533.133
3858.5009
3922.7932
4104.4672
4363.795
4437.051
4709.0959
4734.2714
4634.4731
5226.5839
4928.9623
5447.6558
91.250045
66.377291
75.014795
73.022201
76.312411
76.792918
80.773425
82.674471
86.591826
90.998071
99.009844
105.09832
116.71818
126.46858
138.78879
152.05372
166.72184
183.51647
201.42952
221.87537
241.43662
261.20886
283.30389
308.9491
334.51407
363.00057
393.73345
423.68318
457.26898
490.99787
526.41556
560.52032
598.94078
634.88835
673.27182
712.77467
749.30708
794.81191
833.05057
876.06391
919.78462
966.7215
1014.2425
1062.1307
1111.6959
1159.3466
1208.0542
1254.2696
1300.1324
1342.9394
1384.2894
1422.1801
1457.8942
1490.8335
1520.9116
1549.491
1576.1205
1600.5544
1626.3218
1649.6751
1673.5719
1700.0564
1725.3571
1754.1653
1785.2789
1822.6449
1860.7135
1903.5435
1965.047
2014.3213
2097.4522
2174.6451
2245.0374
2372.0209
2516.9159
2649.9785
2747.7551
2911.8472
3000.9101
3211.0277
3256.7891
3491.732
3566.9337
3697.5573
3902.4871
3927.1505
4112.7112
4239.1529
4279.1471
4558.7486
4703.6245
4999.333
5426.6258
5032.1693
5617.6392
104.96875
73.924776
90.114301
84.315711
90.125006
91.773148
94.929032
94.8888
100.56976
103.45283
108.94473
116.95813
124.68863
134.7586
146.18093
159.96569
173.52935
191.14381
209.08618
228.15142
256.10392
280.16034
308.0505
332.51229
368.05839
399.27202
435.01158
471.18408
511.10633
550.28697
591.51942
635.23046
678.60467
722.29327
769.74915
814.06118
865.39544
913.78899
964.56699
1020.5554
1074.1423
1131.2825
1186.862
1245.6404
1302.1527
1361.1517
1417.7847
1474.5807
1528.7574
1581.648
1631.4675
1679.0732
1723.7601
1765.8801
1805.1182
1842.9878
1877.013
1911.7368
1943.0306
1973.883
2005.2259
2035.002
2064.8084
2097.2224
2127.8103
2163.4606
2199.3005
2248.5679
2288.8869
2349.9672
2408.3425
2480.8044
2547.1992
2676.2586
2574.8276
2587.6681
2738.0022
2817.875
2993.431
3037.0371
3253.5303
3276.5122
3482.9091
3531.3489
3720.0855
3796.0096
3946.5502
4195.6989
4150.4111
4607.3014
4536.2005
4743.9268
4909.9562
4904.6757
5859.7795
99.63185
64.81733
73.108113
69.165958
80.333393
76.590537
86.291462
87.831263
100.63126
106.39831
121.52359
136.78108
153.33474
173.32944
194.90543
216.26812
241.74845
268.1128
296.65845
326.07236
368.36682
382.33814
404.2281
450.01261
486.69117
524.8804
568.07792
608.11614
653.43418
695.17723
741.70143
787.18963
829.90957
878.98233
921.78688
971.55171
1015.8427
1064.9138
1113.668
1162.1197
1213.2301
1263.081
1316.3873
1367.2178
1420.5309
1471.4908
1522.8424
1571.8768
1620.2538
1665.7976
1709.6806
1750.5972
1789.2224
1824.9605
1858.5516
1889.4862
1918.7752
1946.6156
1972.0415
1998.1365
2022.4535
2046.0216
2071.3825
2097.4892
2123.4443
2154.2477
2186.6554
2217.7607
2263.9978
2309.7812
2369.5553
2429.5868
2509.2404
2590.9293
2735.9532
2723.1645
2839.1566
2955.7924
3043.162
3207.4523
3268.7734
3452.451
3512.0682
3675.591
3781.1307
3877.6891
4087.6917
4101.4417
4317.5952
4476.7774
4447.9901
4869.6975
5119.5028
5318.4982
5857.7366
90.520125
32.040508
62.368971
57.969249
64.720211
66.206707
74.687754
78.883646
84.427706
99.114874
108.63081
125.09096
142.90925
160.30196
181.782
204.21345
228.47118
256.66907
283.73835
318.6198
348.77001
395.21316
432.79632
484.62317
529.07365
577.7509
627.93269
679.29105
733.54108
787.9875
846.76157
902.65692
963.28293
1022.4267
1085.008
1145.4652
1210.615
1276.7939
1342.6869
1413.8587
1482.8086
1556.8608
1628.409
1703.6602
1776.5848
1850.955
1923.0644
1994.7037
2063.4838
2130.2591
2193.7409
2254.1438
2311.0935
2364.6101
2414.5347
2461.5647
2505.034
2546.2085
2584.1345
2621.0565
2653.8325
2687.4526
2717.3263
2748.3408
2775.3019
2806.3711
2835.3939
2876.9731
2910.0871
2955.5994
2997.1577
3054.4054
3118.1159
3182.5514
3235.1023
3360.6042
3443.1552
3517.7971
3615.4675
3671.3065
3762.2594
3820.5887
3870.2435
3965.2774
3966.23
4102.3487
4097.2708
4244.2042
4322.205
4493.1783
4574.1451
4910.8905
4840.5213
4855.2507
5663.5677
78.207948
44.995573
50.996969
65.835967
52.528674
76.006324
73.033984
85.906608
99.342454
115.35525
134.38561
161.64717
186.13151
220.47521
251.81784
288.48179
327.77466
366.937
412.83474
462.16458
510.09093
565.98428
618.56102
677.60833
739.41358
796.57986
865.04898
927.2775
996.53536
1065.2211
1132.779
1205.4159
1271.9378
1345.5051
1410.5166
1482.8324
1552.5762
1622.1664
1694.9667
1764.5671
1838.6536
1909.3505
1982.9728
2053.7998
2125.1155
2194.0628
2261.7552
2326.3148
2388.452
2446.7075
2501.3483
2551.627
2597.716
2639.0203
2676.4472
2709.2101
2738.4715
2764.142
2786.4037
2806.3472
2822.7442
2838.3888
2850.1713
2863.1839
2874.8044
2887.9442
2903.5192
2913.1879
2926.1829
2948.4484
2970.5846
3017.3038
3033.7821
3093.967
3145.2916
3192.5682
3244.4218
3312.9288
3357.0119
3430.4608
3475.6164
3534.8978
3586.3441
3646.536
3697.8736
3788.85
3848.6488
3994.8934
4063.9498
4251.043
4312.1758
4619.3288
4436.0184
5014.5526
5494.5623
74.096253
-18.509586
27.804244
21.214305
52.425918
56.05262
68.667094
90.825815
103.60781
123.70509
151.1558
173.63985
208.61648
242.63317
278.22426
321.11017
359.95396
406.65299
459.31917
507.77267
567.38309
625.26966
688.16182
757.86288
829.47795
899.69161
981.46612
1056.3936
1142.4665
1224.065
1312.9703
1400.5174
1489.146
1583.7507
1673.6098
1769.4675
1863.0456
1961.1011
2057.42
2158.563
2259.2744
2362.8658
2466.1187
2570.716
2674.1722
2777.3785
2877.8797
2976.3307
3070.7393
3160.9594
3245.9427
3325.0695
3397.8708
3464.0711
3523.4951
3576.3213
3622.7948
3663.421
3698.0495
3728.6762
3752.5915
3775.7197
3789.3824
3807.0518
3810.9188
3824.9398
3831.9073
3849.5757
3851.5382
3873.0572
3902.2423
3903.7527
3951.6358
3967.984
4013.1905
4031.0912
4082.8291
4090.0581
4125.9537
4128.6931
4132.6695
4132.0988
4110.1533
4114.3649
4086.1479
4117.8127
4101.5535
4193.12
4191.1475
4369.1758
4415.8036
4645.3526
4664.6851
4922.8498
5191.1427
48.634853
-33.880686
18.297813
12.775933
28.220534
27.021817
53.233234
69.870104
88.23502
124.56182
154.91739
197.59105
241.24888
284.96326
332.82927
384.31557
438.32422
501.45207
563.75834
632.6826
709.70899
782.93099
868.0831
955.44854
1038.6953
1133.4447
1229.4683
1329.1007
1431.7837
1537.1642
1643.7534
1749.293
1854.5038
1964.3671
2072.2324
2178.9959
2294.3556
2401.9903
2516.0761
2625.9942
2740.2372
2851.4638
2964.0251
3074.3839
3183.9709
3290.5518
3394.0948
3493.1226
3586.4246
3673.3727
3752.4465
3823.5071
3886.1129
3940.0745
3985.9039
4024.0878
4054.8927
4079.0699
4097.2921
4109.2303
4117.2499
4118.7603
4118.1206
4113.2476
4100.7345
4087.8673
4065.0906
4065.138
4039.7618
4084.5451
4024.1056
4066.6149
4035.6036
4051.6295
4042.1074
4055.3385
4036.6926
4041.6675
4025.036
4004.0969
3980.4506
3958.4376
3925.6912
3913.1355
3921.7232
3910.0621
3980.9775
4051.9952
4132.403
4305.5327
4509.2776
4708.4312
4829.1951
5245.8894
4804.2659
-54.3641
-34.041336
-56.292297
-66.309492
-65.690999
-66.488423
-60.976678
-67.891323
-65.714973
-54.918478
-68.609179
-60.90423
-58.198791
-46.987173
-69.073371
43.497433
42.372415
24.144023
33.346897
22.448282
22.127745
19.267259
17.44425
23.527707
19.413926
19.614513
27.55554
23.594675
45.823035
23.16338
29.275423
23.132178
10.277116
5.5475458
1.9800075
-0.58145776
0.63617094
-2.3622913
0.20836893
1.5594605
4.2572589
6.4047842
12.671217
21.058756
21.985058
58.156318
58.589038
51.454187
47.394806
44.715103
41.622559
40.750784
40.59196
40.820658
39.666616
42.684875
43.081351
47.679123
54.152311
46.385534
65.658163
59.023053
49.535606
46.853035
42.976335
41.301399
40.530926
40.722587
40.456222
41.247806
44.238618
46.707103
50.022006
58.677966
66.659961
77.688243
72.316878
67.890627
65.491263
61.450723
60.616152
58.569503
57.841981
58.591334
59.087989
61.345087
62.071429
67.992077
68.477728
78.305248
82.721337
74.679561
69.818012
65.106075
64.116537
61.108592
61.003911
59.893431
60.557453
61.470527
63.562299
66.59157
72.788722
73.870574
84.078491
88.885786
82.651551
78.728562
74.460672
72.596424
70.830895
69.537203
69.328684
69.510869
70.159802
71.709689
73.047827
76.125749
76.873962
86.976333
82.766947
75.818713
70.733738
67.391402
64.928752
62.379589
61.65064
61.116675
61.087521
61.090332
64.208486
67.28502
72.299181
76.919259
86.344151
80.90812
78.57416
72.70138
68.771923
66.445686
65.064014
63.172992
63.089919
63.902218
64.27298
66.608124
68.024928
70.899067
72.935321
79.01768
62.469312
65.089977
54.041365
50.990363
48.49372
45.492962
43.728605
44.72501
43.174187
46.303462
45.609418
47.701868
50.317087
59.230294
64.407123
48.930588
48.669015
41.481426
36.569672
33.857061
31.40593
30.50662
29.220729
30.720636
31.887863
34.209517
37.769257
36.86357
46.051142
41.217874
12.251966
25.915854
-0.25765379
-4.5362834
-8.5040207
-11.935456
-18.403184
-12.562338
-12.307966
-6.8676541
-10.214307
-7.3989869
-7.956526
10.082665
5.6511503
2.0381159
-10.66994
-27.860689
-32.731269
-37.151102
-45.465888
-35.839379
-33.555607
-32.580405
-41.820228
-32.979488
-36.445385
-29.836706
-17.754224
-30.007962
-66.008232
-66.49254
-108.23361
-105.65315
-119.30262
-121.41309
-113.84553
-106.81493
-122.9931
-117.25844
-119.10316
-114.52452
-102.00424
-78.700244
-77.922086
161.88696
321.41261
147.65227
221.28441
230.21813
180.97373
217.50745
285.85895
196.49917
228.2722
226.10686
211.12151
222.23475
229.00709
182.30159
281.79601
82.03188
165.67565
204.9079
155.63495
256.47344
238.53798
231.149
254.33149
176.20979
209.63634
148.00153
190.48424
215.69205
204.76009
-56.927455
-10.020374
-72.405329
-78.743227
57.309681
-104.76846
-101.891
-98.628449
-186.38649
-34.491676
-99.508461
61.045959
-67.234135
-92.452073
-30.591432
55.103953
108.19551
96.648586
7.1056844
2.94463
74.263547
18.876775
71.044036
75.912292
5.1161557
57.385202
-4.4367433
64.99271
97.536507
52.960053
178.41423
110.01652
53.255929
129.48815
73.504581
60.296904
102.0523
73.112243
102.25265
162.50207
91.348515
134.17053
95.022587
105.04783
182.26929
75.696365
90.196328
101.85397
48.478072
67.840621
82.784348
51.743081
53.965483
52.68713
13.145188
57.693599
55.897821
60.315453
121.72701
81.25025
158.14218
167.63456
150.18942
143.32604
115.80036
116.74498
130.82985
123.85662
138.48971
144.83174
128.0796
140.41561
147.9595
132.35045
243.16175
186.79767
143.87186
134.8767
134.33188
150.97054
139.67205
133.07211
140.52157
127.93672
143.37332
150.26055
154.66879
159.7134
150.4559
206.16527
199.10291
199.3442
199.61595
196.76072
172.25005
171.03403
169.31166
168.00356
179.06314
169.241
164.50156
168.34564
175.97569
183.5152
235.76879
241.99205
207.23035
198.19958
198.32021
197.12845
192.89546
192.59835
192.77047
199.9598
199.83184
191.80038
213.9358
200.91243
209.58639
258.48179
256.61776
251.58
246.20944
246.38006
236.94046
235.56462
231.55109
233.56791
233.50125
229.00657
241.34614
234.16249
247.42312
249.97265
296.87731
269.74706
261.73083
285.42372
269.52174
261.96067
258.11419
255.07509
255.32666
252.86285
257.41531
255.458
263.29253
264.33511
265.17235
325.5263
340.81653
325.56687
294.14335
312.64034
311.25418
307.2249
310.26132
305.05298
308.88313
305.09821
309.54146
309.47643
315.28364
314.61982
358.18116
355.62646
363.52707
373.58915
356.77844
347.47707
346.30803
325.73297
348.17284
339.38721
338.94497
339.54644
344.61845
348.23157
345.10784
407.94944
428.58421
408.33409
412.39757
414.0039
408.22529
411.3781
379.32682
405.08525
398.49911
398.58458
399.37903
403.11667
403.17368
410.3834
446.94114
460.77661
467.15714
464.67341
477.7588
456.33399
457.86777
438.66335
449.17109
444.17144
444.96679
444.46039
447.14627
441.87931
448.5549
524.70853
499.16994
512.01183
498.30511
526.76186
509.26914
505.78246
506.13254
504.91555
506.60377
509.01504
505.35343
521.81456
511.78127
518.30599
562.32727
599.07548
592.81648
586.30781
546.81285
567.57545
564.99746
584.54681
569.66671
565.39858
568.53706
562.20797
570.0549
578.19768
538.97553
609.72664
634.882
643.50547
641.09986
659.91039
650.30135
640.05703
627.45743
629.66326
634.67088
635.43607
651.82364
638.37974
635.84443
628.12101
710.0398
685.62108
707.76261
700.11836
716.11785
700.93721
728.94541
695.88363
709.90011
701.71133
699.94158
694.57121
697.66075
699.73461
706.52958
744.79278
798.03517
802.18427
788.66569
789.78926
780.26172
790.84944
781.33118
780.59491
770.92007
789.95776
766.89605
789.02649
773.77931
779.04651
856.36576
844.08758
860.58039
855.09785
861.64686
855.3486
854.6947
848.0991
849.16571
868.81635
826.64707
845.76096
861.04986
851.10532
859.6945
901.03035
947.58088
959.24649
943.82528
947.03393
943.16162
916.68228
937.72571
935.7396
953.63966
930.01185
961.94073
949.78094
961.31182
934.30581
984.18263
1051.9653
1009.4492
1023.6615
1027.0453
1027.4466
1037.4306
1038.7977
1023.6035
1025.7771
1028.8888
1032.0171
1024.1845
1006.3061
1023.9824
1061.1295
1103.818
1112.1417
1112.8617
1144.0844
1123.7257
1136.6104
1117.6463
1116.3215
1118.5692
1113.5866
1083.5455
1117.8571
1143.9474
1125.8946
1162.8461
1227.4706
1243.3015
1226.7398
1223.5328
1224.0397
1208.717
1212.7746
1211.3276
1211.3059
1215.7038
1210.3025
1199.7457
1232.6732
1211.2678
1255.2665
1297.6134
1315.4331
1310.1615
1343.3144
1284.8547
1308.5612
1311.5184
1309.3555
1316.5935
1307.176
1329.6678
1329.0122
1336.0695
1341.0518
1379.6702
1430.7042
1446.324
1388.9707
1430.9289
1414.3168
1426.9119
1425.4903
1424.1795
1429.4564
1428.0626
1430.7822
1442.9448
1434.4407
1413.6328
1468.7394
1510.4648
1545.9329
1529.0731
1539.6626
1539.6131
1533.7952
1537.5583
1538.7964
1541.8155
1539.9765
1543.4533
1540.5341
1579.5513
1568.314
1599.2678
1659.5386
1669.7655
1664.3077
1662.0727
1661.5691
1632.1747
1652.1903
1653.2016
1679.4557
1659.4157
1666.7656
1666.0218
1669.1536
1652.7113
1708.1069
1785.5493
1785.293
1769.1285
1774.2318
1777.4773
1771.7063
1786.6003
1772.6456
1781.5959
1768.7356
1777.2904
1785.0125
1774.593
1801.7154
1813.441
1908.7313
1900.0092
1891.1918
1896.5954
1888.6603
1893.0541
1891.9299
1892.534
1893.6747
1891.0758
1905.0546
1901.2975
1916.516
1915.2961
1952.5488
2030.2489
2029.0775
2019.3559
2019.8437
2021.0567
2011.6065
2020.1056
2008.8525
2022.6526
2020.1906
2028.6714
2034.0662
2036.0253
2047.2754
2076.6285
2163.8972
2159.1226
2143.0621
2144.7173
2144.9084
2141.7285
2143.8245
2141.6192
2149.7993
2146.0979
2160.2498
2158.5457
2173.3769
2177.1622
2212.6295
2284.8876
2283.7916
2274.3019
2251.1194
2266.9301
2265.9733
2269.4396
2267.1773
2274.0639
2280.4985
2285.6999
2285.4942
2303.9664
2296.4654
2334.9799
2386.2363
2413.3092
2400.6081
2417.5303
2412.5116
2407.7564
2408.4017
2405.6385
2415.4484
2426.4137
2430.7512
2427.7839
2436.1651
2450.6407
2486.4025
2565.7238
2553.1945
2552.7952
2548.7035
2550.2135
2538.6392
2549.5522
2535.8583
2550.5672
2534.7615
2547.4721
2553.2073
2563.6864
2561.6032
2612.3104
2685.902
2676.5433
2673.3914
2671.3692
2670.3849
2666.2677
2669.5935
2664.611
2678.0482
2669.0939
2682.879
2687.6791
2693.1463
2707.3965
2730.1513
2822.0216
2800.3816
2803.8257
2799.3313
2807.5891
2792.788
2807.376
2795.6291
2808.729
2804.7498
2819.6225
2820.9586
2832.2398
2831.2417
2874.9855
2949.5742
2932.1885
2938.2302
2935.8619
2939.3346
2930.6724
2942.8926
2930.3067
2948.0921
2940.3499
2954.9266
2955.4743
2964.1478
2969.4925
3008.5095
3088.4416
3064.0996
3077.1161
3066.8871
3080.04
3064.59
3081.0122
3067.3976
3084.3267
3077.8669
3090.3983
3092.389
3102.3131
3103.69
3145.2096
3222.2106
3197.4408
3211.0692
3204.2897
3216.6712
3202.1111
3220.7313
3204.2157
3225.1998
3214.4698
3230.5836
3230.6829
3240.9129
3239.6971
3286.381
3361.7244
3329.8359
3352.1932
3339.7592
3356.7113
3340.4771
3360.138
3344.9341
3363.3001
3356.2798
3369.0701
3369.7027
3379.5949
3376.9174
3426.9696
3498.689
3465.7442
3489.821
3476.1483
3495.8861
3478.2036
3502.0627
3482.5697
3505.799
3495.2544
3508.9619
3509.8689
3519.7698
3514.656
3568.5259
3638.7428
3598.5775
3629.4702
3613.1155
3635.1292
3618.127
3641.6583
3623.9208
3645.2994
3635.9176
3649.2792
3649.3884
3659.8544
3651.5238
3710.0009
3775.5254
3731.8708
3768.1302
3747.7891
3773.9601
3754.4379
3782.5507
3761.1983
3785.0816
3775.6371
3787.2401
3788.2825
3798.2819
3786.9096
3849.9823
3911.8317
3863.2053
3904.2209
3882.3977
3910.8893
3892.3207
3920.5567
3898.5582
3923.4542
3912.4022
3924.072
3924.8686
3934.5647
3920.5196
3987.3612
4045.0735
3990.565
4038.8008
4013.0761
4045.3385
4023.9458
4055.0739
4031.5348
4057.0918
4046.3915
4057.2336
4057.824
4067.8356
4050.1702
4120.9847
4173.5635
4115.0824
4168.2766
4140.1183
4174.9828
4153.9891
4187.0577
4161.1068
4188.2435
4176.0379
4185.8386
4186.4951
4195.9368
4174.9715
4249.4618
4298.1114
4233.3715
4293.2248
4262.0098
4300.5873
4276.9934
4310.7933
4283.4642
4311.5782
4298.5077
4308.4769
4308.5929
4318.1748
4293.8103
4371.9314
4415.2983
4345.5641
4411.2437
4377.24
4417.7401
4392.9555
4429.7644
4400.7042
4429.6797
4415.5931
4424.3432
4423.8616
4433.1069
4405.2928
4486.8369
4525.693
4449.8422
4521.4786
4484.027
4527.9208
4501.8248
4539.2128
4507.3604
4537.4306
4521.9397
4530.608
4529.8944
4539.0719
4508.0855
4593.2219
4626.9997
4545.0497
4622.0911
4582.0657
4628.1782
4599.6408
4638.7871
4605.957
4637.0724
4620.4212