/*--------------------------------*- C++ -*----------------------------------*\
  =========                 |
  \\      /  F ield         | OpenFOAM: The Open Source CFD Toolbox
   \\    /   O peration     | Website:  https://openfoam.org
    \\  /    A nd           | Version:  6
     \\/     M anipulation  |
\*---------------------------------------------------------------------------*/
FoamFile
{
    version     2.0;
    format      ascii;
    class       pointScalarField;
    location    "0.41";
    object      p;
}
// * * * * * * * * * * * * * * * * * * * * * * * * * * * * * * * * * * * * * //

dimensions      [1 -1 -2 0 0 0 0];

internalField   nonuniform List<scalar> 
3969
(
684566.42
-932399.24
8045.3076
4699.5688
1280724.6
-1914723.2
5087.9548
3125.9092
536612.14
391280.76
202016.47
11961.122
-141902.06
-350576.13
-402105.88
-12129.487
-3679.972
-3545.3169
689.01497
5804.7692
10493.484
11065.46
209793.36
246060.26
240814.09
254546.26
251880.44
253076.68
249391.48
245684.01
241590.34
235814.13
231699.46
226981.55
221434.69
216964.64
211834.61
206007.86
201068.62
194679.12
188841.84
181697.31
174940.48
167257.54
159448.01
151564.84
142683.2
133834.15
124853.2
116253.6
108132.6
99552.742
91868.19
84539.368
77526.664
71172.956
65345.422
60384.37
54704.218
50522.565
45220.496
42042.863
36609.11
32876.151
29093.695
23830.454
21801.88
17331.068
13477.832
-216111.83
-190756.99
-229953.77
-208702.71
-231495.63
-217384.59
-223242.65
-215038.9
-214101.44
-209356.66
-205433.64
-202763.34
-196793.75
-194438.5
-189501.83
-184723.81
-180075.04
-174046.51
-168906.83
-162705.52
-155784.39
-150006.27
-141897.1
-135228.64
-127103.02
-119141.82
-111108.53
-102776.72
-95496.742
-87855.605
-81751.518
-74866.064
-69219.202
-63410.057
-58521.191
-53559.698
-49581.809
-44325.222
-41458.806
-36469.216
-32632.608
-28191.869
-24232.36
-18893.926
-14036.31
-10663.74
-5000.8147
964533.11
730097.93
335378.16
-16008.502
-307644.28
-677996.19
-573663.95
-254118.19
-300573.44
-189649.05
-272365.56
-237824.66
-246618.22
-239554.97
-237420.34
-230418.75
-222316.68
-230002.61
-214680.47
-217898.63
-209587.15
-205110.91
-200060.46
-193257.18
-187535.28
-180559.36
-173302.08
-166672.07
-159278.75
-151888.98
-143957.72
-136813.33
-129754.92
-120884.82
-111810.61
-103629.83
-95186.749
-86756.685
-79086.89
-71616.75
-64997.044
-58951.445
-53389.148
-46122.964
-43893.574
-39185.443
-35010.373
-30724.157
-26978.652
-22220.233
-17820.873
-13875.019
-9283.6235
-6327.672
15697.651
8783.6694
5001.9525
5108.6844
-5763.1419
-3798.3674
-11963.796
23749.644
20563.538
22662.763
27749.583
32549.542
36980.558
42031.163
46391.081
51188.737
55040.256
59268.063
68678.621
71113.91
77997.619
84398.043
91947.777
99068.482
107544.22
115659.93
124476.6
133502.23
142069.33
151229.89
160142.18
168708.4
177128.71
185020.95
192227.93
199431.9
205673.37
212261.95
216897.77
219967.7
226096.18
236779.18
235794.07
241997.62
244059.88
246265.93
255307.17
263827.51
254963.06
265896.15
256520.19
245747.61
253857.02
256506.79
554517.59
613459.39
649805.04
640600.99
630539.44
636187.53
501088.63
-724399.02
-927170.89
-1068288.5
-1143725.9
-1082857.4
-1077447.5
-816747.32
6541.5726
7436.9339
7732.9489
9018.7418
8432.4097
6890.3056
7200.4404
-4.2617988
1952.137
883.45899
378.19522
740.02365
4666.2241
926.2101
188847.6
190076.77
190186.48
196231.91
196980.45
199030.81
195681.91
196510.16
190608.72
190365.74
185099.56
181033.33
178674.62
174433.9
170719.58
166607.59
162399.76
157666.37
152493.64
147251.59
141632.12
135313.69
128958.83
122276.32
115613.78
107962.87
100561.66
93598.509
86095.65
79137.799
72563.543
66227.946
60430.258
55116.772
50266.852
45672.164
41134.114
37903.836
34202.524
31517.928
27691.865
25626.377
21206.259
18556.734
15886.509
9767.0023
5768.9102
123073.25
121023.41
119133.57
126443.14
128379.27
133332.67
131115.52
130675.56
128756.26
127895.59
125071.26
123257.17
119599.16
116397.5
113969
110779.59
108062.98
104600.97
101245.49
97367.159
92944.061
88257.135
83481.571
78630.162
73309.55
68677.315
64040.403
58299.112
54012.352
49155.403
44895.682
40917.319
37074.515
33791.318
30747.66
27957.135
25734.022
23861.398
21182.733
20199.002
17408.622
16496.652
13410.899
13293.357
10395.766
6700.2156
1940.2189
54698.054
64202.778
57548.323
64336.53
63823.489
68003.778
66869.54
68453.732
66848.781
66247.476
65581.386
64357.009
62841.021
59813.995
57451.359
56275.702
54877.27
53349.486
51887.043
50160.628
48894.17
47411.369
45389.699
43254.403
41353.217
38867.605
36165.486
34138.779
31726.686
29222.015
26899.963
24623.198
22397.999
20547.01
18820.983
17022.392
15875.535
14131.236
13233.132
12311.967
10900.911
11192.114
8920.1974
9427.7492
6847.6693
4113.3642
2793.434
-134.09749
1188.6153
-3463.5088
2036.6845
-2575.9727
435.88917
-2630.8474
-483.08978
-1264.1412
1304.8647
207.39668
1142.6742
361.45259
887.04315
589.12022
727.04
436.46191
635.80687
458.73609
215.15828
160.15823
-823.95652
-2016.2993
-1570.9349
-1173.766
-791.31386
-97.617578
313.26424
663.17372
1077.602
1328.5072
1643.3613
1711.0136
1934.2969
1905.6366
2377.9611
2059.9755
2465.0812
2784.8892
2506.6177
3209.4653
3353.6826
2811.2058
4439.8474
3649.3941
5128.4441
5171.8968
-65887.051
-56965.669
-61018.782
-63279.317
-66348.684
-65667.216
-66114.957
-64432.64
-64260.312
-60652.709
-61424.236
-58030.583
-58502.271
-55390.75
-54595.123
-52096.832
-50747.087
-48505.204
-46762.872
-44652.06
-41348.054
-37050.842
-35053.838
-31124.803
-29354.886
-27979.281
-25160.361
-22686.917
-20638.837
-18628.2
-16733.413
-15125.648
-13489.548
-12300.061
-10652.054
-9863.6998
-8764.2958
-7402.4292
-7101.507
-5873.125
-4942.0037
-4272.2912
-2510.6622
-1143.1601
-185.34469
1966.6431
3202.7054
-124660.44
-117642.06
-124275.45
-130654.81
-133259.69
-132667.07
-132180.02
-129128.83
-129106.04
-124333.46
-124234.11
-119342.94
-118680.86
-115710.85
-113226.15
-109549.89
-106515.08
-102581.82
-98974.6
-95026.025
-89720.608
-86002.939
-78651.576
-73159.184
-68028.769
-63288.81
-59240.605
-54786.368
-50478.668
-46463.304
-42947.127
-39287.109
-36190.407
-32899.471
-30562.085
-27540.81
-25272.967
-23107.236
-20645.29
-17977.734
-16408.379
-14176.523
-11211.923
-9098.7212
-5835.8727
-1828.216
5009.6388
-210635.22
-156066.44
-185486.71
-186163.49
-192082.7
-189514.97
-189427.82
-186063.32
-185524.23
-179188.66
-179061.7
-174325.92
-171057.48
-166563.63
-162024.07
-157071.31
-151661.98
-147011.51
-141299.1
-135856.29
-130248.91
-123999.07
-118116.45
-112014.69
-105549.32
-99318.394
-94289.022
-87088.996
-80831.243
-74809.33
-69185.882
-63699.862
-58488.415
-53773.953
-49405.648
-44989.833
-41769.608
-37846.848
-34795.705
-30635.746
-27152.522
-23329.802
-19343.154
-16318.452
-11658.617
-6964.1187
778.85357
435578.2
403343.84
420527.1
419898.76
421680.35
413520.52
379372.07
279214.58
320068.2
298890.9
307905.28
306842.32
300471.02
286747.18
145469.37
172977.9
147194.86
160336.34
150966.32
149674.12
157063.27
33175.256
17540.434
9162.1243
24234.76
14764.121
-3222.5176
47802.184
-79582.371
-79881.402
-87378.351
-78073.627
-83000.329
-82887.461
-48487.925
-265368.93
-277848.01
-276627.05
-282867.24
-290264.23
-283679.37
-269541.9
-346292.53
-307658.09
-271229.15
-275909.95
-262636.27
-242904.92
-275696.03
-336731.02
-349964.94
-394996.43
-411123.1
-417787.39
-412977.31
-319576.29
-274896.14
-316089.33
-316090.32
-323142.99
-336709
-323160.71
-294899.43
-233391.15
-261175.72
-273952.88
-276426.21
-274306.51
-257133.77
-270677.59
-240308.78
-259586.85
-254741.09
-269310.47
-259196.56
-257856.16
-241864.69
-240173.02
-251901.63
-259504.47
-260388.08
-260502.29
-250255.34
-252495.28
-237183.04
-232696.11
-236473.1
-241351.04
-240732.04
-235379.26
-233908.44
-229556.93
-234981.4
-238129.62
-242336.69
-240421.68
-239960.89
-240861.61
-228697.45
-225652.11
-225388.31
-229262.89
-226869.22
-229095.25
-227460.71
-222734.86
-223882.18
-224233.02
-226265.89
-226827.03
-227879.76
-229099.63
-220498.39
-217892.38
-217062.59
-220269.23
-218447.25
-217942.04
-219573.83
-216309.2
-215379.58
-212724.1
-216054.71
-214462.44
-214321.94
-219156.85
-210668.33
-210247.76
-208649.86
-212073.48
-210545.76
-205738.71
-211791.13
-207569.15
-203515.43
-206829.76
-204372.56
-207012.97
-202964.8
-208280.76
-201602.63
-200112.8
-202788.85
-200251.08
-203187.89
-197400.43
-202552.83
-198251.63
-195147.38
-198473.48
-194833.44
-197918.57
-192456.32
-197981.44
-192615.2
-189806.31
-193416.41
-190009.14
-193925.14
-188137.66
-193563.88
-186905.52
-185373.52
-188338.37
-184901.88
-188855.35
-182635.07
-187435.17
-181183.05
-179914.24
-183167.37
-179486.24
-183749.73
-177088.89
-182232.47
-175055.07
-174316.73
-177582.91
-173575.38
-177883.1
-171210.12
-176379.6
-168466.29
-168159.34
-171404.79
-167520.47
-171921.81
-165239.45
-170186.24
-162081.72
-161434.44
-164829.12
-160789.39
-165099.91
-158631.73
-163366.6
-154774.66
-154474.65
-157738.07
-154015.9
-158200.88
-151786.08
-156512.21
-147673.65
-146994.02
-150445.83
-146584.69
-150116.21
-144616.23
-148926.62
-139725.24
-139662.76
-142207.05
-138477.57
-142716.04
-137469.11
-141772.71
-131624.5
-132235.34
-132694.47
-131541.53
-133738.68
-129945.37
-133294.77
-122950.46
-123991.44
-122971.79
-124210.33
-125225.75
-123440
-125918.9
-116048.81
-115616.43
-115345.38
-115385.42
-115926.25
-114304.79
-116944.61
-108230.94
-107179.89
-107162.99
-106939.31
-107153.47
-106276.12
-107244.24
-99835.375
-98840.034
-98857.806
-98327.675
-98109.771
-98337.649
-98253.317
-92207.793
-90898.962
-91356.744
-90188.927
-90345.348
-90338.184
-89778.298
-84589.332
-83842.839
-83534.24
-82598.945
-82254.265
-82339.052
-81678.982
-77794.031
-76581.63
-76534.098
-75401.738
-75040.842
-75213.331
-74593.615
-71155.547
-70401.895
-70038.617
-68912.246
-68448.33
-68569.889
-67809.686
-65320.592
-64391.043
-64064.782
-62940.827
-62342.303
-62333.817
-61655.474
-59627.734
-58921.546
-58669.608
-57373.558
-56845.156
-56800.587
-56414.685
-54625.126
-54434.982
-53792.282
-52927.759
-52226.919
-52283.751
-51180.909
-50847.17
-49001.489
-49710.092
-47645.977
-47484.053
-47036.708
-46188.631
-45728.301
-45403.471
-44462.603
-44016.666
-42816.908
-42516.245
-41976.448
-41306.516
-40987.485
-40647.234
-39769.543
-39047.464
-38792.996
-38520.453
-37679.251
-36946.56
-37153.937
-35815.668
-35492.827
-34773.158
-34480.87
-33256.533
-33259.351
-32839.455
-31875.701
-31498.74
-30557.793
-30339.615
-28933.468
-28783.351
-28388.56
-27747.192
-27249.128
-26301.777
-26199.725
-24156.031
-24806.506
-24285.597
-23997.814
-23096.576
-22181.056
-22000.815
-19394.188
-19450.485
-19262.278
-18597.087
-18045.565
-17329.379
-17018.015
-15660.696
-16795.923
-16224.593
-16122.931
-15489.247
-14143.206
-13647.658
-12495.496
-12480.325
-12495.953
-12104.164
-11348.581
-10972.981
-10225.881
-9573.9289
-10310.311
-10106.594
-9106.6152
-10237.596
-9008.1134
-7783.3354
-19069.058
-21645.214
-24519.054
-24745.59
-23746.936
-22591.971
-19925.558
-9093.4429
-9936.5769
-10999.82
-11568.79
-11159.837
-9564.7436
-7671.6187
-7597.7509
-8975.0454
-10377.991
-10278.611
-9970.3914
-7965.8438
-6860.5929
2027.4921
2449.2674
2124.7014
2081.0166
2668.0137
2054.147
3262.1793
7834.3947
8113.2235
7363.8517
8722.3308
7334.7091
7333.3152
7016.3618
13653.495
16972.691
17595.083
17685.213
18671.326
15726.282
15006.799
18816.592
18935.425
21071.946
20735.1
19914.933
18942.655
16438.985
263803.6
264714.37
295058.87
288329.09
296881.94
283566.56
275161.76
277335.56
285271.99
298933.94
297307.13
301023.35
283002.57
277091.63
270911.86
276332.49
283128.52
284772.42
284954.58
270457.62
268642.17
260550.95
268935.58
275326.93
277561.72
275293.63
268325.86
268615.18
262319.62
264981.97
267672.97
269441.06
269179.77
264936.23
259758.9
253714.57
255069.37
260265.95
257214.6
259594.32
252876.99
255169.42
253461.62
253450.82
255498.67
254223.11
259006.36
253487.8
257851.87
245585.89
244440
249060.46
242672.88
247532.96
243766.69
246651.94
243356.3
243374.83
244521.49
242965.71
247310.92
242076.68
248397
238649.82
235792.4
238731.29
234701.5
239910.56
235098.08
241438.01
234184.96
231615.81
236652.88
231164.87
237370.02
232280.02
238175.17
228303.19
228106.08
230472.36
226243.29
230987.8
227419.95
233245.85
225534.88
222192.2
225371.07
221820.09
226457.05
222960.58
224256.87
219509.09
218518.07
220301.6
218001.71
221616.83
219129.06
224430.74
214860.37
213526.47
213817.67
213993.69
215998.98
213960.1
218406.57
210956.86
207833.75
210179.08
207630.85
212257.57
208191.04
212425.43
204421.33
202666.67
204105.44
203425.01
205784.4
203014.34
207067.8
198949.97
196309.34
199170.04
196948.31
200112.53
197320.16
201104.66
192252.06
190559.24
192688.62
190836.49
194011.32
191041.15
194800.29
186137.58
183512.83
186023.37
184221.31
187287.35
184213.35
188017.82
179171.09
176228.5
179128.54
177167.38
180157.91
177077.88
180764.47
171826.78
168669.59
171732.61
169653.61
172456.08
169169.01
173136.2
164207.68
160744.75
164116.88
161859.82
164425.94
161316.07
165093.96
156011.78
152601.42
155721.98
153393.63
155734.06
152567.74
156513.06
147868.35
143373.34
147193.11
144574.69
146730.05
143816.93
147789.02
139167.14
134426.09
138377.22
135668.42
137520.93
135014.4
138549.04
130211.99
125703.42
129219.69
126766.14
128137.96
126017.97
129728.86
121799.2
116831.08
120161.26
117937.04
119170.98
117543.01
120748.87
112515.62
107662.27
111509.23
109006.55
109948.3
108593.78
111714.67
104101.71
99873.343
102827.39
100728.98
101434.44
100698.05
103349
96054.792
91654.279
94734.335
92773.909
93261.486
92687.177
95238.692
88157.941
84389.603
86988.868
85310.294
85488.954
85481.989
87593.061
81114.707
77483.866
79973.446
78318.821
78562.966
78701.352
80811.165
74446.82
71322.704
73289.226
72145.144
72137.105
72504.768
74142.408
68359.192
65350.845
67384.879
66247.333
66160.171
67112.164
68255.809
62508.169
60528.175
61773.998
60841.556
60829.089
60854.018
62015.522
56434.706
55249.363
55695.113
55982.083
55117.707
57005.048
57915.375
53004.914
51679.204
51681.645
51815.328
51597.919
51184.569
53644.07
47905.484
46505.385
47179.741
46743.766
47112.348
46977.239
48476.601
44131.259
43091.49
43312.006
43067.392
43021.189
42408.193
44365.394
38966.003
37766.566
38050.86
37846.409
37957.755
38195.73
39439.378
35305.574
34453.568
34748.034
34382.27
34684.851
33834.554
35133.657
30838.234
30253.34
30159.313
30113.925
29714.718
29151.109
29922.209
25578.95
25219.321
25261.702
25083.348
25080.411
24247.796
25616.719
23250.33
24700.958
24928.589
25117.024
24601.552
23088.901
22370.036
19835.193
20142.41
19834.07
19648.172
19799.29
19744.135
18207.613
23790.386
26388.59
27404.302
27954.69
28058.209
27970.881
26190.395
274542.58
208218.72
205846.21
202167.23
212672.78
215543.27
209112.02
210178.93
208168.11
205757.26
201499.82
197771.08
193401.37
189316.05
185042.08
181708.07
175614.71
170916.05
165414.34
159436.22
152888.54
145838.85
138495.6
130843.83
122876.22
115077.19
106684.53
98962.309
91425.726
84264.972
77605.252
71424.142
65699.075
60385.6
56229.312
50526.384
47246.347
43863.15
39747.501
36294.699
32912.495
29275.112
25989.052
21877.218
17833.46
12337.108
4666.9044
168871.13
161449.33
118600.72
138567.17
157697.07
147019.33
156785.56
148649.9
151477.63
146580.18
145682.94
142478.53
137879.04
135750.98
132864.73
130064.69
126009.31
121838.18
118421.12
113656.5
109197.56
104609.95
99761.857
94595.457
89560.593
83005.857
80311.26
74388.181
69781.255
65210.453
60699.923
56704.862
52655.595
49390.108
45565.615
42773.806
39500.061
36727.212
34427.867
31302.239
28650.885
25386.226
22403.95
18725.59
15208.215
10742.286
4472.6208
83547.676
94533.228
53140.312
82904.542
71424.504
67796.988
71635.305
69676.215
69964.775
67803.448
70834.589
69179.003
71497.415
69609.72
69108.419
68847.052
67034.649
65592.608
64214.059
61512.486
59540.034
57127.035
54428.485
51813.449
48955.357
46052.728
43711.069
40137.038
37589.88
34870.668
32571.152
30468.781
28617.942
26917.112
25165.514
23956.508
22243.149
20913.773
19325.688
17854.608
16324.007
14368.109
12554.77
10347.966
8270.7617
5988.0942
551.97503
-1863.9763
21586.668
-1171.0987
14751.987
4725.5006
11968.567
9519.6911
2826.2099
8211.5982
7485.7073
6852.1873
9525.3493
7387.6759
12417.342
12815.311
13837.052
13605.56
14114.046
14153.408
14031.321
14283.75
14310.296
14295.365
14389.567
13960.281
13842.571
13515.327
13476.996
13109.626
13112.772
12955.306
12990.549
12774.761
12597.545
12117.405
12016.053
11030.027
10679.234
10061.566
9443.1161
8630.8513
7913.1875
7016.2418
6048.3581
5633.1594
3909.7853
1493.1709
-101812.38
-48308.46
-61295.666
-41158.675
-56114.307
-43948.472
-54377.609
-50793.258
-46566.409
-49071.193
-42941.14
-45523.832
-42346.583
-43728.206
-40784.282
-39703.647
-37928.844
-36383.746
-34609.49
-33057.958
-31400.242
-29736.603
-28157.441
-26586.238
-24852.555
-23966.109
-21571.756
-19686.734
-17894.276
-16193.116
-14519.1
-12898.159
-11232.117
-9705.1207
-8479.7398
-7130.3295
-6383.9145
-4998.9311
-4695.3582
-3861.6988
-3443.3029
-2667.5485
-2342.0498
-1539.0599
-592.27528
514.21627
2142.1377
-158364.84
-122989.26
-108368.41
-109914.71
-118815.46
-114818.53
-120721.25
-110212.57
-118465.79
-115773.52
-117866.52
-115092.17
-112251.33
-110505.41
-106576.78
-103574.69
-99668.681
-95523.451
-91643.917
-87940.818
-84145.701
-79783.587
-75540.898
-69118.477
-63403.698
-57528.354
-53994.848
-49272.608
-45202.005
-40937.935
-37230.936
-33358.368
-29870.307
-26632.642
-23763.722
-21154.298
-18634.642
-16798.555
-14994.675
-12974.137
-11791.831
-9710.182
-8482.2719
-6202.6971
-4325.1008
-663.55523
2126.661
-209938.58
-170733.89
-177697.18
-175100.96
-192350.86
-185360.8
-188181.44
-184563.36
-184894.26
-179428.73
-177547.91
-174919.32
-170066.92
-166315.24
-161435.87
-157328.34
-153101.98
-148271.67
-143853.97
-138403.39
-132814.26
-126706.08
-120388.76
-113535.08
-107659.47
-97220.905
-90745.836
-84318.876
-78289.59
-72499.361
-66659.461
-60779.602
-55606.139
-50042.943
-45473.039
-40952.232
-37792.113
-33358.738
-29917.074
-27057.396
-24291.412
-21220.035
-18796.149
-15520.956
-11380.338
-7802.5003
-2168.1135
331035.56
358163.58
350793.71
362036.29
360315.44
340196.7
317306.59
230755.91
266924.43
262815.16
271407.03
264041.69
253201.76
230945.51
222852.5
240843.65
252008.48
253059.73
247896.1
245136.77
233561.97
213592.71
220369.49
223379.42
230820.99
221534.68
223910.29
204626.79
209450.04
215615.57
223047.62
219943.35
219169.69
215835.2
200969.47
206586.3
215724.35
209062.77
218486.83
211316.32
210409.57
209534.88
205705.24
206862.41
206996.63
209029.95
201952.34
207242.08
201445.6
200453.34
209333.6
201865.93
207794.52
205321.58
203476.94
201759.97
200599.06
201566.75
194980.42
203462.66
194993.71
200563.48
197081.41
195011.17
198561.99
195632.56
200408.5
194037.2
198423.67
194875.02
191782.22
196391.26
189288.6
195081.09
189595.13
193769.29
191446.47
190559.61
190176.04
187624.92
190270.83
188491.98
188743.2
187919.74
185115.03
187677.15
183582.57
187979.9
184097.23
186308.59
186622.28
182183.44
181693.11
180654.9
183498.8
179789.63
182017.51
181114.4
178345.53
177940.67
178330.6
177679.22
176696.45
178421.45
176891.18
172869.62
174090.01
173335.12
174684.44
172461.25
173121.19
173372.09
168319.44
169302.47
168583.53
170055.57
167616.75
169506.43
169528.61
163217.72
165029.41
164251.79
164746.87
163265.66
164487.48
163934.27
157915.34
159836.71
158384.53
159778.35
158116.04
158811.68
158790.71
151935.04
153958.69
152959.1
154085.01
152205.04
153200.7
153155.66
144864.07
148262.78
146642.99
147776.53
145962.25
146882.48
146824.11
137912.57
141748.77
139671.57
140835.22
139062.81
140144.32
140153.07
130279.77
134709.93
132069.13
133423.8
131742.79
133096.11
132802.34
122234.21
126942.18
124134.22
125466.78
124046.06
125212.15
125139.34
113428.31
119742.47
115989.33
117930.87
116197.3
118050.27
117622.51
105875.34
111483.67
108389.73
109066.03
108712.04
109545.32
109809.23
98227.546
103146.81
100256.98
101195.03
100928.69
102010.85
101935.55
89570.401
94733.625
92876.953
92911.219
92956.877
93816.883
94030.721
81983.114
88300.713
84629.476
85350.963
85780.815
86641.912
87061.079
75157.094
80103.717
77753.581
78160.416
78782.077
79437.612
79914.731
68170.223
73493.1
70899.3
71180.571
72122.331
72683.397
73506.929
62131.07
67024.941
64850.809
65052.215
66160.167
66797.181
67532.805
56559.6
61184.428
59198.739
59277.214
60769.907
61033.49
61985.241
51548.317
55857.708
54102.685
54226.074
55552.124
55880.351
56837.536
47043.261
50841.402
49642.953
49518.823
51164.188
51110.364
52445.711
43007.754
46786.07
45699.854
45522.37
47013.739
47494.818
48162.62
40255.801
42870.414
41875.334
41727.518
43730.253
43267.009
45619.198
37032.643
39115.123
39709.299
38734.244
39726.444
40287.947
40383.872
33932.051
35633.376
35333.039
35668.894
36374.849
37002.269
37762.205
30789.611
33021.539
32757.167
33130.125
33153.47
33999.595
34332.465
28673.3
29884.508
30337.924
29982.259
30486.248
30863.172
31163.831
25474.525
27473.871
27432.205
27639.526
27886.91
27881.938
28099.872
22866.417
23485.458
24074.223
23894.66
23993.622
24365.677
24687.415
20218.255
21345.986
22247.637
21942.659
22574.041
22451.576
21932.807
16239.005
16953.062
17123.248
17280.156
17274.227
17598.015
17406.628
11288.936
11183.916
12546.781
11572.224
12261.629
12347.183
11450.279
5025.3898
2969.5332
2804.1477
2869.8587
3187.574
2605.0534
4851.2398
219051.37
226462.41
246382.19
242189.13
249916.66
228709.67
228218.3
167132.92
203471.52
208080.24
214680.01
212854.74
198120.22
186704.6
164627.9
153380.53
172460.24
165840.06
173139
155155.55
159256
141752.76
147996.76
156728.03
154471.35
156731.4
152150.21
136896.33
148319.32
147595.49
156000.77
150697.67
157562.07
146204.21
147454.84
141867.28
139916.32
143139.23
140097.37
138855.81
142533.11
140063.37
141599.13
141191.49
148723.57
141459.25
147362.64
145789.08
141242.71
139554.62
136244.28
138334.58
134563.39
138945.04
135199.31
139148.08
138159.65
133880.23
141317.57
135659.05
137233.75
138204.27
138144.66
134288.91
132689.1
136532.59
129006.95
134853.71
133300.04
135918.36
133220.94
130178.59
132779.38
128766.97
132044.03
131915.09
132687.51
130759.31
126177.54
132436.11
125797.55
131328.12
128476.07
133149.55
127492.71
124516.34
129574.27
122342.88
127995.25
124715.47
128664.83
124440.13
122630.51
126141.84
120385.28
125220.93
123193.08
124841.12
121591.49
121084.23
121563.58
117535.04
122458.94
119678.74
122189.81
118808.82
117476.93
118373.48
115599.51
118748.61
117139.56
118787.27
115267.34
114483.43
115268.14
112067.03
115372.66
114523.02
116818.8
111668.07
111126.54
111252.49
109225.77
112029.21
110967.48
112414.13
108169.37
107040.61
107665.29
105643.39
108196.1
107152.77
109315.97
103847.15
103100.87
103839.9
101875.35
104163.52
103293.67
105351.46
99992.785
98918.393
99572.386
97593.733
99933.811
99209.241
101059.21
95877.333
94437.017
94978.812
93354.053
95636.91
94869.394
96360.987
91501.545
89500.438
90463.188
89005.043
91203.112
90078.966
91613.199
86658.332
84900.347
86071.111
84705.869
86536.296
85546.614
86795.91
81842.029
80275.569
81130.177
79845.69
81897.669
80519.237
81502.504
76793.226
75537.492
75408.866
76492.196
76185.136
75411.787
77245.283
70776.163
71252.534
70714.812
70056.671
72140.456
70328.656
71026.939
66766.042
65511.291
66334.564
65888.035
67007.678
65873.802
66374.523
61387.452
61029.464
61581.6
61235.406
62495.198
61163.037
61440.487
56743.362
56694.809
56596.43
56948.568
57622.644
56725.122
56875.819
52065.843
52399.735
52358.106
52941.991
53381.123
52687.566
52780.379
47679.862
48458.919
48147.134
49085.339
49294.937
48958.47
48758.988
43713.442
44720.981
44336.435
45472.078
45625.435
45129.673
45132.078
39974.247
41181.121
40802.642
42267.616
41957.981
41948.481
42059.811
36465.566
38165.906
37838.053
39051.413
39183.889
39219.3
39290.962
33596.711
35379.499
34743.553
36537.592
36246.234
36079.971
36175.389
30488.575
32500.165
32420.506
33633.903
33649.411
33585.022
34089.538
27984.225
30626.197
29970.688
31548.524
31149.822
31470.658
31198.003
25783.17
27500.18
27871.98
28740.944
29040.804
29200.215
29014.791
23681.583
26236.81
26355.125
26987.864
26927.118
27026.22
26425.38
21836.654
23279.795
23896.477
24124.885
24804.611
24569.419
24067.464
19562.222
21787.526
21797.603
22362.293
22409.572
22117.165
21913.544
17855.512
18670.083
19478.605
19384.441
19723.016
19526.72
19025.507
15824.491
17189.653
17362.644
17388.867
17725.421
17166.628
16694.831
11719.526
13110.052
13338.837
13330.353
13289.68
12858.744
11924.494
8473.118
9138.737
8585.4673
8665.389
8864.2379
8831.7493
7865.7777
3447.5643
1346.3004
408.05543
639.94541
768.19944
1204.4193
2215.2895
130106.38
131754.68
126007.51
136231.35
129428.87
121599.06
116315.88
90323.462
129941.56
122038.78
131753.93
116153.36
120091.96
98692.543
88483.415
82806.736
88129.009
89219.226
85458.168
78922.679
77103.038
71120.72
85541.452
89074.88
95353.581
84267.34
90269.715
72721.839
79292.362
75400.658
79143.944
74226.294
74829.1
70109.657
70223.901
70456.537
78841.556
72728.921
75585.838
74996.053
73536.112
72243.993
74126.536
77160.64
69064.653
72842.573
72977.151
69610.531
70912.048
70785.844
78091.505
67027.173
72507.781
69630.512
67653.289
71487.608
72243.023
78276.715
66476.135
71132.36
69517.799
69617.146
71129.998
71089.896
76278.374
63772.924
68576.195
68768.68
67158.071
69889.038
69706.293
75778.029
63159.127
70126.79
67742.921
68111.825
68775.137
67351.14
73619.93
61585.135
67172.646
66015.423
65734.928
68403.394
64387.138
73894.158
60326.716
66567.389
65225.622
65160.331
67299.879
64173.636
70326.957
60657.523
65141.201
65828.118
61723.278
69241.003
63738.654
66917.522
59773.866
64127.601
63506.8
61487.177
66796.154
61443.71
64565.745
59265.909
61510.296
62551.244
59956.86
66012.16
58980.252
63004.769
57714.365
60626.193
60601.626
58838.235
63784.048
57264.767
60761.678
56319.947
58855.974
58903.94
57541.282
61538.938
54766.407
59111.324
54674.665
57194.307
56971.493
55684.93
59537.314
52759.758
57219.546
52795.778
55307.33
54852.666
54103.173
57423.401
50316.038
55084.835
50773.903
53143.031
52836.49
52152.343
54724.756
47815.016
52665.865
48564.953
51195.126
50739.239
49687.992
52407.216
45449.498
50164.694
46525.372
49146.327
47883.304
47546.003
49903.616
42871.304
47452.355
44166.107
45977.853
45155.851
44857.427
46938.022
40647.562
44774.678
41581.196
43493.192
42482.044
42406.331
44621.967
38202.23
41214.752
39284.663
40183.449
39636.602
39816.275
41543.276
36032.192
39041.235
36620.147
38397.206
36662.783
37442.087
38881.376
33393.051
36918.656
33646.005
35560.782
34513.132
34419.081
37072.769
30893.266
33872.508
31425.514
32620.803
32193.003
31875.091
35029.714
28824.556
31298.469
28989.192
30583.752
29891.136
29735.916
32865.922
26751.99
28770.918
27012.315
28406.671
27731.491
27803.232
30959.775
24742.998
26667.414
25031.083
26463.066
25855.12
26038.676
28922.274
23144.785
24515.651
23427.328
24719.971
24225.996
24405.086
27493.013
21462.175
22841.473
22029.662
23219.947
22819.467
23311.662
25882.41
20221.333
21224.618
20764.874
21814.905
21675.037
21754.901
24405.966
18806.515
19708.3
19631.313
20646.17
20369.545
20795.963
22965.139
18046.062
18627.405
18854.541
19374.844
19681.036
19403.777
22219.182
16719.15
17497.264
17649.961
18674.911
18449.322
18784.639
20484.84
16170.142
16395.435
16985.427
17043.727
17675.645
17156.234
19286.006
14906.794
15988.378
15458.916
16792.711
16405.048
16319.792
17602.966
14130.136
13626.007
14366.771
14427.712
14952.04
14458.934
16260.055
12898.831
14124.676
13766.234
14686.181
14441.222
13828.686
14689.923
12191.88
10940.721
11530.18
11519.825
11894.596
11255.573
13083.901
10443.406
10766.194
11261.938
11560.757
11583.207
10995.864
11387.847
8099.2461
7095.7138
7506.8916
6900.4436
7565.9638
6751.3186
7938.9191
6408.5653
5267.7301
5026.3254
4927.6552
5492.1722
5006.9803
6944.7932
3230.8065
-63.972738
222.59429
-246.44245
-307.73853
-576.43386
930.23666
11850.432
4549.6967
8410.0317
9692.4055
8153.6981
5394.5101
15269.436
3920.6381
7886.7579
7007.03
11470.036
7202.7739
8199.2795
4762.7726
15613.255
-3752.5771
1272.1403
-4529.5987
531.80327
-5605.8117
7360.9985
3400.5594
-561.78991
7502.5723
3470.2599
2881.2128
8628.2479
-849.06316
7615.0468
4305.3894
5674.7946
-5860.0391
6792.2518
-8332.9155
7659.0875
5483.7758
770.54099
124.49062
1967.8632
1347.4356
3336.4021
3473.0655
5700.8678
3672.7936
8998.2915
-156.451
6106.0744
389.20201
6244.4668
6477.1999
3622.0152
1663.2745
2673.883
2369.7619
3741.6927
5868.4921
5522.1051
1551.2265
6011.6882
1171.4998
5409.4353
3819.521
2698.6654
3752.5056
3993.4468
4179.7709
1168.4161
3646.7409
2543.0691
5025.7133
4382.6049
3120.4229
3582.0844
1035.7518
3005.2124
3329.7801
4777.1595
3241.2966
3158.169
2445.31
1714.4546
2698.485
4562.311
4589.3545
4194.1496
2050.7368
2947.1227
1336.5382
4191.0602
2897.7003
5842.6541
3408.3017
1731.8733
5963.9376
2341.6871
1523.2543
4813.5045
3498.2717
4306.4821
4437.6961
657.29436
2729.4958
1758.6555
4356.9524
5206.2167
2997.7342
3736.1572
845.91104
3613.077
974.73414
4654.1973
5091.7145
3721.486
3263.3332
1414.7042
4233.7295
1156.1
4727.2241
5884.5661
3232.7613
3585.9478
1625.3682
4218.8142
1187.5049
4959.3462
5600.7481
3768.5188
4146.7551
1936.7374
4408.5356
1672.945
4916.8061
6022.326
4094.5743
4396.5422
1952.1855
4577.1758
1824.0913
5315.642
5845.4831
4555.1697
4774.5373
2393.379
4908.4638
2593.6639
5307.2832
6005.3198
4992.4493
5623.8713
2816.8383
5574.859
2712.4147
5724.1714
6323.6852
5270.5992
6081.7509
3668.5648
5273.313
3233.4033
6044.7451
6495.7905
5991.8548
6701.0303
4387.9211
5877.3709
4481.4746
6941.7292
6960.0227
6033.5485
6973.1484
5186.4208
6269.9152
5814.7641
7181.2097
7222.9476
6148.87
8332.2416
5892.7254
7448.7095
6813.0313
7633.651
7757.2259
6953.3287
8426.694
6551.4377
7709.1339
7352.2518
8342.9052
7735.2146
7077.7524
8489.7419
7170.7887
8310.4584
7591.1537
9099.6607
7834.0199
7299.0278
8802.0238
7783.4026
9251.6133
8454.7906
9909.9367
8318.9106
7227.8108
9103.9556
8248.0424
9505.1245
8717.9962
10383.894
8386.41
7210.0794
9168.793
8582.0754
10084.577
9188.9911
10876.899
8643.4054
7094.7069
9136.4376
8888.4002
10326.84
9275.7043
11354.159
8725.8993
6894.0395
9138.95
9092.8956
10439.836
9685.7505