/*--------------------------------*- C++ -*----------------------------------*\
  =========                 |
  \\      /  F ield         | OpenFOAM: The Open Source CFD Toolbox
   \\    /   O peration     | Website:  https://openfoam.org
    \\  /    A nd           | Version:  6
     \\/     M anipulation  |
\*---------------------------------------------------------------------------*/
FoamFile
{
    version     2.0;
    format      ascii;
    class       pointScalarField;
    location    "0.67";
    object      p;
}
// * * * * * * * * * * * * * * * * * * * * * * * * * * * * * * * * * * * * * //

dimensions      [1 -1 -2 0 0 0 0];

internalField   nonuniform List<scalar> 
625
(
1194626.2
-1705711
9069.8026
11474.904
1972560.6
-3355280
10577.951
4015.3908
824421.66
-61924.361
-148579.23
-9550.9435
6222.1406
9060.9165
463608.85
520336.68
490849.67
484807.91
422224.19
403291.86
361573.2
324898.77
303614.62
262477.4
238221.37
212077
185481.68
163171.8
141469.2
122364.03
101965.27
88572.719
70907.63
57308.42
44505.537
29764.31
20617.903
-583020.23
-371103.29
-504490.51
-388319.17
-353102.9
-351882.17
-294594.51
-270979.54
-248049.67
-216375.08
-192816.51
-167290.9
-147132
-123634.77
-105365.24
-87560.833
-71056.37
-57532.533
-43995.911
-34062.522
-23051.611
-14185.389
-3703.9819
1228101.8
-81479.273
-333254.46
-614254.33
-776732.58
-549353.93
-464072.08
-547827.57
-390919.8
-363951.35
-339333.72
-303993.5
-277150.83
-237679.59
-213189.15
-183397.64
-158617.79
-135343.43
-113197.38
-94545.254
-76243.637
-59942.003
-45481.811
-31090.173
-18907.221
-4323.5115
9231.2475
5010.2585
-2567.0881
25436.059
33021.532
42324.699
56235.589
72135.378
88289.996
106603.6
127268.91
149304.06
174207.19
198519.33
230736.89
255277.06
288195.48
307128
370317.35
388517.43
413944.61
499563.26
472434.14
591063.12
497057.04
565511.42
1207030.2
1225561.8
1207343.4
-1913506.6
-1922909.4
-1921418.8
17570.518
18103.619
20415.759
-2075.6071
4117.4719
634.42075
292228.9
308838.13
309710.46
273305.99
250746.09
244939.35
211988.9
201959.85
177146.81
160145.76
146977.6
129711
114288.47
101428.24
88406.507
75497.196
65205.189
55016.031
43891.556
37895.208
27720.465
17979.828
12796.24
-51587.935
-41303.186
-54812.885
-20594.903
-39957.722
-25426.124
-24282.684
-17309.775
-17189.766
-10922.738
-9274.5466
-6741.7337
-3540.6213
-319.01378
945.9037
3073.8685
4621.6802
5154.233
5561.3778
6203.2833
4226.391
7960.0352
7249.8007
-364518.86
-301622.1
-268788.14
-233926.93
-259496.59
-199474.55
-195937.02
-173211.27
-152510.8
-134314.92
-118907.7
-101508.36
-86638.813
-73335.982
-60788.519
-49297.477
-39555.067
-30000.183
-22916.2
-14668.539
-9028.1211
-4818.7874
2424.7947
788287.45
708748.82
706990.12
-89158.635
-46866.541
-121497.88
-85080.172
-163913.39
-290655.38
-888960.51
-877999.55
-928343.83
-698418.2
-654678.09
-639556.96
-546256.45
-510938.54
-550952.94
-426198.02
-427576.7
-432204.52
-415546.82
-413587.2
-437225.27
-366601.14
-347771.63
-359062.22
-335974.26
-332827.96
-348853.93
-305282.14
-283376.47
-302528.78
-272812.24
-258639.81
-271570.87
-240577.59
-226437.86
-243379.11
-211856.29
-201708.85
-213060.73
-186342.11
-175282.67
-186205.77
-159533.65
-151380.92
-161755.83
-136521.1
-129203.36
-138444.33
-115403.82
-109402.06
-118009.35
-95726.032
-91080.928
-98051.766
-78355.238
-74099.047
-80849.686
-62488.147
-60103.333
-65473.944
-48842.769
-46132.583
-50288.737
-36325.551
-34674.657
-38403.021
-23641.852
-22893.144
-25651.355
-15386.032
-16841.063
-17465.406
-8216.4354
-4911.8747
-7019.7757
-13827.542
-14523.06
-15422.653
4720.5088
4402.8343
6744.7671
12138.472
13736.008
12972.626
629946.72
564692.59
583930.17
571523.88
541865.97
596582.46
585667.06
514470.65
533813.01
494811.28
448689.44
496489.44
471720.04
449153.22
454263.17
435643.34
381164.38
413540.61
389811.66
361566.99
385218.16
362761.76
325881.18
338167.91
322053.5
293152.69
313789.5
289562.69
263548.51
282210.67
262082.26
233711.79
247177.84
231243.34
206237.34
221265.93
202193.74
182225.14
193010.48
177494.97
159083.32
167386.44
152929.8
137060.44
144121.89
130057.1
117450.49
122498.93
110132.49
99256.101
103149.71
91477.32
82766.07
85460.445
72776.423
67166.209
69116.771
59034.084
52536.648
56309.42
45021.852
40193.276
42531.619
32221.757
31889.079
31418.223
27990.973
28398.237
30048.425
298034.87
369911.23
281575.53
309883.91
272611.25
257050.78
244817.89
209300.76
198800.16
173735.19
159594.24
137732.39
121192.4
106839.53
91507.558
79284.066
66747.583
56377.506
46372.498
36482.525
27956.068
18414.219
6624.1521
-47530.82
33940.519
7179.243
49762.327
44658.023
45202.555
45093.696
45914.438
36603.87
41118.382
36317.633
33155.148
30606.555
27094.558
24227.976
22042.703
19127.019
18087.404
15018.357
14222.895
13503.56
10741.2
8853.2324
-196571.39
-178662.71
-284752.24
-241400.32
-232661.27
-235312.21
-196802.33
-186673.49
-157762.93
-145611.01
-129431.35
-112911.12
-99789.007
-85870.475
-74473.959
-62692.898
-52210.003
-42449.054
-34004.634
-24350.215
-17696.134
-8590.796
-6357.9165
393566.91
469902.41
399775.59
362499.98
388764.2
334710.14
257641.91
275837.63
309779.4
235357.98
309679.52
260005.75
260793.37
232590.65
248243.94
193614.33
236782.87
236817.7
194817.79
219780.95
204439.11
179510.21
188767.07
195835.36
156772.08
174409.58
180365.42
145526.91
162431.83
153277.24
129200.59
140835.46
142561.68
112204.69
127783.84
126816.52
103618.19
111757.94
111866.08
90086.683
97571.637
97934.724
78653.101
84454.148
85351.739
68458.9
73645.959
72625.472
59587.735
61851.05
62050.833
49369.817
52369.875
51180.359
41445.498
42263.642
42602.322
33431.879
37044.222
34379.097
24257.543
25751.506
23892.912
19226.684
17439.668
19934.495
7262.7668
4359.8963
4413.4758
-87920.023
-106437.78
-86535.902
-34920.232
1.2302649
-30947.998
5037.9442
-7055.7501
-17713.597
3037.7818
-3853.9926
-40020.522
1700.2467
8166.7209
10585.362
6771.0513
25137.226
-12062.097
18602.707
15587.858
-468.14597
4680.2829
26677.144
4788.0217
17877.158
26343.418
330.81872
16706.949
23316.45
7895.8228
14260.404
24607.063
6741.307
18029.906
26287.729
8169.3553
18211.077
23900.382
7945.7278
17332.035
22682.881
9360.7309
16991.645
22555.612
9409.4164
17423.132
20877.385
8792.6644
16137.826
18582.759
9148.8778
14685.282
17777.19
7962.5858
15036.661
14830.09
9438.6296
13821.789
13594.629
5914.9805
11414.529
7116.9357
6871.3617
11000.241
12020.685
7976.9888
10643.619
11023.584
11556.621
-352587.64
-397407.87
-445661.99
-250186.57
-195831.15
-309904.69
-232323.64
-356706.02
-326964.01
-304728.95
-247201.05
-281164.72
-217696.61
-256376.93
-260812.45
-206779.77
-237845.07
-241203.68
-198709.31
-211214.69
-214212.94
-164949.31
-190910.02
-205264.87
-147622.66
-176260.36
-176462.62
-135921.84
-153372.22
-157151.65
-114856.84
-134370.28
-139428.84
-99820.837
-118144.81
-121946.03
-85539.051
-103926.11
-105593.27
-72846.091
-88115.241
-90486.214
-59736.164
-75098.913
-76681.493
-49680.055
-62889.291
-65014.156
-39739.666
-52099.533
-52818.89
-31548.586
-41088.667
-42412.921
-23272.912
-32832.113
-33615.021
-17579.44
-24204.884
-23813.626
-11440.545
-17420.175
-16182.277
-3872.3854
-6184.3843
-2853.6335
527.72126
-4831.2031
-5059.7142
)
;

boundaryField
{
    free
    {
        type            calculated;
    }
    fixed
    {
        type            calculated;
    }
    traction
    {
        type            calculated;
    }
}


// ************************************************************************* //
