/*--------------------------------*- C++ -*----------------------------------*\
  =========                 |
  \\      /  F ield         | OpenFOAM: The Open Source CFD Toolbox
   \\    /   O peration     | Website:  https://openfoam.org
    \\  /    A nd           | Version:  6
     \\/     M anipulation  |
\*---------------------------------------------------------------------------*/
FoamFile
{
    version     2.0;
    format      ascii;
    class       pointVectorField;
    location    "5.00005990787636989";
    object      u;
}
// * * * * * * * * * * * * * * * * * * * * * * * * * * * * * * * * * * * * * //

dimensions      [0 1 0 0 0 0 0];

internalField   nonuniform List<vector> 
625
(
(0 0 0)
(0 0 0)
(1.5037988 -0.014222178 0.15561404)
(1.4346112 -0.37832409 0.1300241)
(0 0 0)
(0 0 0)
(1.44562 -0.42091375 0.12812141)
(1.5146102 -0.057283306 0.15433074)
(0 0 0)
(0 0 0)
(0 0 0)
(1.485963 -0.10596607 0.14824621)
(1.4684349 -0.19585655 0.14277725)
(1.4517185 -0.28606679 0.13621748)
(0.0035403672 0.013699872 0.013628944)
(0.012630929 0.029604126 0.014422617)
(0.030643723 0.043976498 0.017374077)
(0.055678897 0.058358877 0.019287889)
(0.087415816 0.070358584 0.022094965)
(0.12634848 0.082085974 0.025471173)
(0.1706554 0.090983714 0.029419475)
(0.22103945 0.09899029 0.033886193)
(0.27671894 0.10468936 0.039238815)
(0.33727783 0.10867076 0.044598659)
(0.4024134 0.1109234 0.05093264)
(0.47180361 0.11104882 0.057361654)
(0.54505551 0.10951255 0.064442216)
(0.62175046 0.10601002 0.071801965)
(0.70158414 0.10076217 0.079573205)
(0.78425714 0.093725278 0.0874918)
(0.86917934 0.085183631 0.095834182)
(0.95636389 0.074834935 0.10423972)
(1.045297 0.06294307 0.11270184)
(1.1353884 0.049894329 0.12139124)
(1.2267422 0.035400228 0.13002556)
(1.318639 0.020205561 0.13867441)
(1.410686 0.0034702887 0.14759193)
(-0.0033762445 -0.010598753 -0.015635073)
(0.0085237932 -0.021351783 -0.012401032)
(0.022551422 -0.034695385 -0.014617007)
(0.046975265 -0.047677909 -0.01090675)
(0.074715712 -0.059114349 -0.0093392575)
(0.11118121 -0.073595776 -0.0058255438)
(0.15088903 -0.085432084 -0.002496505)
(0.19802439 -0.099875989 0.0023149537)
(0.2490467 -0.11397813 0.0066359171)
(0.30544598 -0.12829215 0.012398829)
(0.36636861 -0.14401224 0.01824402)
(0.4314488 -0.15954945 0.024897335)
(0.5005852 -0.17617738 0.031880008)
(0.57330075 -0.19313824 0.039407974)
(0.64945031 -0.2106895 0.047313837)
(0.72857374 -0.22867898 0.055623274)
(0.81058625 -0.24714349 0.064304319)
(0.89473346 -0.26595525 0.073073815)
(0.98142485 -0.28480561 0.08240228)
(1.0694684 -0.30384339 0.091606465)
(1.1593321 -0.32291038 0.10120873)
(1.2501842 -0.34165974 0.11063953)
(1.3419328 -0.36010335 0.12009327)
(0 0 0)
(0 0 0)
(0 0 0)
(0.0031501291 -0.0075170212 0.010649397)
(0.0135252 -0.032360303 0.012897268)
(0.030685074 -0.039586865 0.011341523)
(0.053536356 -0.057099796 0.011344139)
(0.085290757 -0.074924098 0.013821081)
(0.12017306 -0.087200615 0.013939568)
(0.16193012 -0.10592185 0.017849524)
(0.20873012 -0.12088995 0.020033211)
(0.26044319 -0.1381547 0.023912649)
(0.31703187 -0.15525586 0.028142038)
(0.37808879 -0.1731322 0.032804299)
(0.44321299 -0.19106967 0.038328798)
(0.51230315 -0.20976188 0.043999463)
(0.58505597 -0.22866993 0.050284974)
(0.66096727 -0.24781485 0.057020553)
(0.74002255 -0.26744333 0.064091995)
(0.82177785 -0.2869941 0.071482869)
(0.90597169 -0.306759 0.079163726)
(0.9922869 -0.32651109 0.087115332)
(1.0804848 -0.34603848 0.095157226)
(1.1701153 -0.36550618 0.10339658)
(1.2611479 -0.38433785 0.11169984)
(1.3527027 -0.40309591 0.12010229)
(1.4628615 -0.32891378 0.13469543)
(1.4791033 -0.23885182 0.1415575)
(1.4966175 -0.14949188 0.14852866)
(1.4216904 -0.039382352 0.14431564)
(1.328951 -0.022678527 0.13470081)
(1.2370364 -0.0070997018 0.12501379)
(1.1453293 0.0081610466 0.11507043)
(1.0548823 0.022024935 0.10531064)
(0.96579543 0.034798494 0.09552476)
(0.87847132 0.046290214 0.086016929)
(0.79318567 0.056401392 0.076575496)
(0.71037114 0.064970431 0.067513621)
(0.63030553 0.072153392 0.05865744)
(0.55334738 0.077407016 0.050226053)
(0.47976968 0.081432871 0.041839009)
(0.41021664 0.083222613 0.03464323)
(0.34468585 0.083520421 0.027343252)
(0.28360498 0.082025382 0.020622495)
(0.22747493 0.078691677 0.014510977)
(0.17653029 0.073953104 0.0086447411)
(0.13108766 0.066839055 0.0041396491)
(0.092365829 0.058717672 -0.00089032211)
(0.058755154 0.048140805 -0.0038965313)
(0.033064174 0.037909191 -0.0081876661)
(0.013340357 0.024521386 -0.009823117)
(0.0067876577 0.012272047 -0.0083620477)
(0 0 0)
(0 0 0)
(0 0 0)
(0 0 0)
(0 0 0)
(0 0 0)
(1.4372383 -0.38931603 0.12915366)
(1.4401302 -0.40016619 0.12920255)
(1.4426377 -0.4108444 0.12860077)
(1.5070465 -0.02458 0.15529871)
(1.5097013 -0.03545662 0.15486373)
(1.5125308 -0.045966009 0.15453531)
(-0.0030229598 0.0085865026 0.0097316765)
(0.0072433424 0.017371943 0.0081237281)
(0.024250925 0.025285572 0.010649561)
(0.048895972 0.032801133 0.012136261)
(0.080256727 0.039012755 0.014967501)
(0.11832513 0.044284504 0.018087291)
(0.16205688 0.047802647 0.022068347)
(0.21175837 0.050243501 0.026511212)
(0.26649212 0.050973929 0.031434315)
(0.32612052 0.050310305 0.037025587)
(0.39042557 0.048125773 0.043109938)
(0.45904603 0.044121722 0.049635006)
(0.53144146 0.038841694 0.056630485)
(0.60736251 0.031806146 0.06396661)
(0.68647449 0.023417498 0.071750628)
(0.76845198 0.013561346 0.079673129)
(0.8528515 0.0022778721 0.088126346)
(0.93951641 -0.010130752 0.096468676)
(1.0281053 -0.023917455 0.10511362)
(1.1178773 -0.03863954 0.11393948)
(1.2091085 -0.054342 0.1226154)
(1.3008605 -0.070652284 0.1314134)
(1.3932688 -0.088396531 0.14025504)
(-0.0064070959 0.0025155841 0.00055604505)
(0.0052882902 0.0032399504 0.00017845047)
(0.021095664 0.0053293979 0.0025279833)
(0.045106451 0.0064667076 0.0041320897)
(0.076286165 0.0057766755 0.0070838528)
(0.11326163 0.0054313328 0.010262555)
(0.15621224 0.00337968 0.014095113)
(0.20492331 0.00043534957 0.01847928)
(0.2585303 -0.0035054397 0.023440999)
(0.31753235 -0.0090808451 0.029185928)
(0.38058819 -0.015428559 0.034894971)
(0.44827466 -0.023390516 0.041676859)
(0.5196113 -0.032445201 0.048585091)
(0.59468804 -0.042665983 0.056011511)
(0.67291111 -0.05420115 0.063840934)
(0.75412443 -0.066664654 0.071827082)
(0.83787964 -0.080453535 0.080461728)
(0.92388319 -0.094821195 0.088778781)
(1.0117271 -0.11034906 0.097816698)
(1.1011034 -0.12649383 0.1067211)
(1.1920315 -0.14334039 0.11561152)
(1.2836964 -0.16070521 0.12477453)
(1.37642 -0.17833098 0.1336699)
(-0.0071409429 -0.0043733614 -0.0061076199)
(0.0047986141 -0.008865751 -0.0047333194)
(0.019257236 -0.013165946 -0.0049680735)
(0.044042145 -0.018846789 -0.0026820388)
(0.073739588 -0.025858528 -0.00038654047)
(0.10976166 -0.031518466 0.002530015)
(0.15231556 -0.040112145 0.0064491914)
(0.19947253 -0.047712299 0.01058646)
(0.25255236 -0.057198336 0.015710219)
(0.30997952 -0.067263122 0.02096802)
(0.37227902 -0.077924712 0.027011124)
(0.43885486 -0.090134009 0.033610551)
(0.50914636 -0.10268124 0.040475857)
(0.58326428 -0.11647804 0.047987818)
(0.66048105 -0.13098254 0.055778527)
(0.74088697 -0.14632448 0.063961542)
(0.82368303 -0.16240766 0.072492287)
(0.90908246 -0.17902986 0.081123481)
(0.99635531 -0.19632892 0.090185893)
(1.0855136 -0.21396447 0.099108618)
(1.1759434 -0.23209016 0.10833172)
(1.2673095 -0.25007108 0.11756176)
(1.359471 -0.26825502 0.12686336)
(0 0 0)
(0 0 0)
(0 0 0)
(0 0 0)
(0 0 0)
(0 0 0)
(0 0 0)
(0 0 0)
(0 0 0)
(0.003473535 -0.0038611619 -0.0071131342)
(0.0055615289 -0.0059532239 -0.0030494143)
(0.005841853 -0.0051601506 0.002769795)
(0.01573572 -0.026164634 -0.0073020748)
(0.017032097 -0.028068861 -0.0020332358)
(0.018407349 -0.028945434 0.0056960406)
(0.029995043 -0.035976518 -0.0081769774)
(0.033510684 -0.036555919 -0.0020335542)
(0.034745957 -0.040571406 0.0056239121)
(0.053316655 -0.05042921 -0.0050737314)
(0.056212922 -0.053917982 -0.00012694138)
(0.056317223 -0.054931276 0.0059412588)
(0.082637413 -0.064452214 -0.0037932275)
(0.085471393 -0.067061044 0.00063964305)
(0.087706828 -0.072872687 0.0078316525)
(0.11695113 -0.07716576 -0.0011190722)
(0.12093942 -0.081882534 0.0042135884)
(0.12207098 -0.084962287 0.0091934114)
(0.15836644 -0.092051315 0.0027154535)
(0.16176825 -0.097459616 0.006579932)
(0.16298878 -0.10125926 0.012843515)
(0.20419175 -0.10613595 0.006281792)
(0.20764479 -0.11056882 0.01040869)
(0.20985872 -0.11747902 0.01558879)
(0.25548419 -0.12078936 0.010995297)
(0.25934266 -0.12792972 0.014753928)
(0.26109932 -0.13330682 0.019668248)
(0.31172983 -0.13640869 0.016140619)
(0.31523113 -0.14269165 0.01953529)
(0.31740787 -0.14974712 0.024232853)
(0.37212637 -0.1520392 0.021670118)
(0.37601789 -0.15997052 0.025116178)
(0.37813561 -0.16711874 0.02912847)
(0.43726047 -0.16891522 0.02807442)
(0.44077255 -0.17648915 0.030810581)
(0.44311043 -0.18433556 0.035013536)
(0.50600111 -0.18542457 0.034732073)
(0.50959517 -0.19397378 0.037571856)
(0.51182249 -0.20251535 0.040944352)
(0.57855141 -0.20318436 0.042067026)
(0.58198184 -0.21210601 0.044381284)
(0.58440957 -0.2208821 0.04753469)
(0.65433669 -0.22098285 0.04961145)
(0.65778502 -0.23029557 0.051763049)
(0.66013854 -0.23948999 0.054615561)
(0.73326791 -0.23938756 0.0576775)
(0.73653233 -0.24904427 0.05954632)
(0.73897422 -0.25864069 0.061968054)
(0.81482072 -0.25804557 0.066037216)
(0.81810586 -0.26799814 0.067576797)
(0.82052989 -0.27788198 0.069716219)
(0.89888787 -0.27678651 0.074607641)
(0.90206867 -0.28716975 0.075918798)
(0.9045106 -0.29724331 0.077701379)
(0.98507144 -0.29602246 0.083543179)
(0.98817941 -0.30638456 0.084573312)
(0.99063352 -0.31670726 0.085968202)
(1.0730943 -0.3149174 0.092497782)
(1.0761028 -0.3256048 0.093296659)
(1.0785759 -0.33606492 0.094325053)
(1.1625934 -0.33405662 0.1016696)
(1.1655038 -0.34470956 0.10227004)
(1.1680454 -0.35519516 0.10286351)
(1.2532737 -0.35268946 0.11085787)
(1.2561821 -0.36346986 0.11112865)
(1.2587544 -0.37420381 0.11139025)
(1.344781 -0.37131761 0.12007084)
(1.3475479 -0.38198988 0.12003803)
(1.3502937 -0.39260091 0.12009373)
(1.4892683 -0.11654394 0.14867482)
(1.4919314 -0.12723915 0.14845896)
(1.4946238 -0.13804344 0.14838022)
(1.4710076 -0.20668386 0.14252032)
(1.4741009 -0.21744795 0.14203383)
(1.4763972 -0.22820198 0.14171335)
(1.4545937 -0.29721206 0.13578613)
(1.4575705 -0.30797954 0.13544382)
(1.4600188 -0.31848596 0.13522629)
(0.0094233824 0.011590373 0.0070374807)
(0.0097722948 0.011632823 0.0018803098)
(0.010639141 0.011532838 -0.0025253783)
(0.018892227 0.026564261 0.0073188087)
(0.018907475 0.026344293 0.0023806)
(0.018812207 0.025288466 -0.0051870059)
(0.036963226 0.041868732 0.010738379)
(0.037483451 0.040839187 0.0041760121)
(0.038274748 0.039867697 -0.0021587232)
(0.061131931 0.054818027 0.012472302)
(0.063314759 0.052626427 0.0067189636)
(0.063069395 0.050662494 0.00034880632)
(0.093961139 0.067109508 0.015566275)
(0.095263535 0.064477452 0.010171088)
(0.095515244 0.062542216 0.0042914461)
(0.13163481 0.077614759 0.019264494)
(0.13386999 0.073540674 0.014213335)
(0.13482983 0.070391962 0.0084059452)
(0.1767275 0.085947728 0.023443056)
(0.17874557 0.081747545 0.018664093)
(0.17940494 0.078067982 0.012895173)
(0.22677152 0.092979284 0.028215362)
(0.22870154 0.088180341 0.023718767)
(0.23000355 0.083876661 0.018408685)
(0.28219457 0.098138916 0.033748974)
(0.28461472 0.092688469 0.029239961)
(0.28578739 0.087595605 0.024342868)
(0.34263754 0.10159691 0.039586552)
(0.34503946 0.095525951 0.035449611)
(0.34635316 0.089852366 0.030824356)
(0.40745371 0.10326976 0.046268776)
(0.41018962 0.096326348 0.04186908)
(0.41168221 0.089803394 0.037939183)
(0.47700382 0.1028353 0.052869805)
(0.47938641 0.095234559 0.049617229)
(0.48091651 0.088634511 0.044855229)
(0.54987261 0.10064522 0.060270926)
(0.55242953 0.092727139 0.056673157)
(0.55411808 0.085611978 0.053019593)
(0.62647654 0.096826063 0.067905499)
(0.62900104 0.088446182 0.064832932)
(0.63087164 0.080489997 0.061313131)
(0.70608028 0.091158969 0.076043235)
(0.70870467 0.08224762 0.073097539)
(0.71059046 0.073877384 0.069900512)
(0.78856729 0.08383527 0.084269257)
(0.79114064 0.074461242 0.081676401)
(0.79312755 0.065721633 0.078778057)
(0.87338646 0.074720823 0.093002816)
(0.87596596 0.065292408 0.090613548)
(0.8781105 0.055983981 0.088009589)
(0.96020523 0.064380354 0.10169113)
(0.96300756 0.054361436 0.099549895)
(0.9651225 0.044825699 0.097270955)
(1.0490031 0.052452437 0.110557)
(1.05164 0.042217158 0.10879276)
(1.0538794 0.032388266 0.10684627)
(1.1389275 0.039186351 0.11956354)
(1.1417018 0.028924327 0.11801727)
(1.1440105 0.018706234 0.11635441)
(1.2301814 0.024895839 0.12852467)
(1.2329124 0.014110998 0.12723403)
(1.2352271 0.0038720142 0.1260986)
(1.3218026 0.0091361976 0.13748587)
(1.3246092 -0.0013963617 0.13659865)
(1.3271165 -0.01184931 0.1356253)
(1.4143448 -0.0068941044 0.14674812)
(1.4168876 -0.017776382 0.14589727)
(1.4196436 -0.02843085 0.14531625)
(-0.00037322685 0.0036634736 -0.004861552)
(0.0092702033 0.015547878 -0.0052158755)
(0.026999407 0.016716993 -0.0014570912)
(0.053183535 0.023194621 -2.5916051e-05)
(0.085378114 0.02624182 0.003242055)
(0.12429797 0.028442799 0.007489512)
(0.1686912 0.029907008 0.011533875)
(0.21873113 0.029263106 0.016572688)
(0.27414968 0.027593532 0.022115987)
(0.33416768 0.02433192 0.028153265)
(0.39897224 0.019782345 0.034607041)
(0.46756742 0.013748214 0.041835976)
(0.54017809 0.0061028847 0.049077748)
(0.61631264 -0.0028729359 0.057186964)
(0.69563835 -0.012994216 0.06531827)
(0.77767912 -0.024433813 0.073902214)
(0.86230748 -0.037098846 0.082778593)
(0.94909453 -0.050724194 0.091782176)
(1.037672 -0.065339966 0.10104768)
(1.1278133 -0.080894446 0.11030752)
(1.2191268 -0.097130941 0.11972362)
(1.3111079 -0.11393448 0.1291617)
(1.4038982 -0.13159908 0.13866237)
(-0.004834375 0.0017118169 0.00055186388)
(0.0076080992 0.0013587872 0.0012334721)
(0.025542761 -0.0026689693 0.0026681495)
(0.051723416 -0.0031153727 0.0041538171)
(0.082685602 -0.0062484591 0.0064119682)
(0.12123137 -0.010230246 0.0099784713)
(0.16433266 -0.014571025 0.013356239)
(0.2138048 -0.02021596 0.017875257)
(0.26795484 -0.027146791 0.022675125)
(0.32713072 -0.034642622 0.028080277)
(0.39057689 -0.044022661 0.034194238)
(0.45837655 -0.05375477 0.040453897)
(0.52982842 -0.06521814 0.047509431)
(0.60503842 -0.077351213 0.054888204)
(0.68334004 -0.09045362 0.06246888)
(0.76452735 -0.1047379 0.070646203)
(0.84832817 -0.11959609 0.078972286)
(0.93437288 -0.13529163 0.087521057)
(1.0223369 -0.15166434 0.096354304)
(1.1119032 -0.168559 0.10516597)
(1.2029353 -0.18572286 0.11433951)
(1.2944852 -0.20339176 0.1232375)
(1.3876841 -0.22144827 0.13230046)
(-0.0054551757 -0.0052840872 0.0058201112)
(0.0098042325 -0.008940653 0.0049829853)
(0.026426332 -0.022976975 0.0088283389)
(0.050305987 -0.024879613 0.0078252769)
(0.082046918 -0.037792886 0.01105253)
(0.11910406 -0.0468845 0.013015879)
(0.16137159 -0.056349273 0.016221632)
(0.20999158 -0.068313015 0.01989772)
(0.2630203 -0.079826695 0.024066797)
(0.32090191 -0.092626199 0.029032185)
(0.38347931 -0.10597767 0.034194355)
(0.44992242 -0.12036622 0.040164512)
(0.52043156 -0.13517167 0.046483917)
(0.59452608 -0.15102377 0.053189255)
(0.67166098 -0.16726689 0.060401909)
(0.75194279 -0.18423169 0.067931207)
(0.83482591 -0.20165122 0.075753213)
(0.92001673 -0.21945034 0.083815515)
(1.0072815 -0.23764383 0.092117231)
(1.0962824 -0.25593272 0.10059688)
(1.1865992 -0.27435667 0.10914464)
(1.2781541 -0.29282601 0.11761081)
(1.3702942 -0.31091431 0.12649115)
(0.0018431602 0.0040114776 0.0045466906)
(0.0014437511 0.0041877182 0.0016334971)
(0.0026813009 0.0039820182 -0.0011497319)
(0.012690434 0.016341396 0.0041841711)
(0.014427018 0.015563377 0.00077637655)
(0.013715165 0.014247605 -0.0032252415)
(0.030288746 0.022871247 0.0065296685)
(0.030972387 0.020370783 0.0032601783)
(0.031854361 0.019544244 0.00031888099)
(0.054646747 0.029761927 0.0080780068)
(0.057411105 0.028326361 0.005132413)
(0.056952502 0.02506163 0.0022932734)
(0.086564298 0.035595208 0.011036232)
(0.088216645 0.032112405 0.0081934183)
(0.089047203 0.029016169 0.0059329324)
(0.12414792 0.03950283 0.014325074)
(0.12649328 0.036246378 0.012010315)
(0.12737092 0.032267526 0.0087540815)
(0.16799714 0.042513743 0.018630622)
(0.17072203 0.038360733 0.015645529)
(0.1713614 0.033870757 0.013696921)
(0.21742603 0.044471683 0.022936703)
(0.21985752 0.039536574 0.020706872)
(0.22098009 0.034253798 0.018129138)
(0.27208711 0.044326008 0.028349611)
(0.27482279 0.038903 0.026027875)
(0.27607254 0.033051882 0.023831935)
(0.33158414 0.043344013 0.033860939)
(0.33437836 0.036940382 0.031681962)
(0.33566044 0.030333553 0.029637717)
(0.39583783 0.040194622 0.040121551)
(0.39863933 0.033168919 0.038289428)
(0.40008977 0.026457918 0.036320715)
(0.46406019 0.035766155 0.046879303)
(0.46699534 0.028295934 0.044854468)
(0.46848915 0.020725474 0.043020476)
(0.53636323 0.029934011 0.054023916)
(0.53916506 0.022052085 0.052205003)
(0.54087282 0.014104879 0.050510826)
(0.61202227 0.02249361 0.061614532)
(0.61490014 0.014153616 0.059978233)
(0.61665551 0.0054279835 0.05829687)
(0.69096019 0.013748087 0.06947834)
(0.69380098 0.0047010469 0.067943254)
(0.69564264 -0.0041723612 0.066475194)
(0.77270086 0.0034372941 0.077782571)
(0.77556305 -0.0057612665 0.07633617)
(0.77750065 -0.015155132 0.074971996)
(0.85701515 -0.0079807749 0.086136808)
(0.85975751 -0.017668619 0.084987775)
(0.86179582 -0.027403343 0.083706927)
(0.94329569 -0.020696514 0.095000892)
(0.94622573 -0.030770468 0.093744824)
(0.9482988 -0.040705933 0.092690183)
(1.031658 -0.034569637 0.10378625)
(1.0344508 -0.044718523 0.1027968)
(1.0366188 -0.054967441 0.10183243)
(1.121287 -0.049305981 0.11272004)
(1.1241243 -0.059817122 0.11191)
(1.1263988 -0.07028112 0.11101304)
(1.2123201 -0.06504513 0.12166871)
(1.2151429 -0.07576416 0.12104519)
(1.2175197 -0.0863052 0.12035603)
(1.3039919 -0.081618919 0.13067673)
(1.3067605 -0.092224412 0.13040888)
(1.3091806 -0.10287515 0.12964244)
(1.3962997 -0.098931297 0.13982698)
(1.3989945 -0.10969342 0.1394705)
(1.4017071 -0.120491 0.13917303)
(-0.0021174221 0.00087954994 -0.00053556896)
(-0.0014520974 0.0018948419 -0.00086351897)
(-0.00051401514 0.0010113209 0.00010622992)
(0.0097693471 0.0030936084 -0.0012399589)
(0.011466797 0.0022939763 -0.00071711434)
(0.011363066 0.00091097583 -0.00030976263)
(0.02726107 0.0027867631 0.0011942167)
(0.029456889 0.0011382143 0.0025815335)
(0.029528918 -6.2821071e-06 0.0019357902)
(0.051018841 0.0032597522 0.002738107)
(0.054222759 0.00081090087 0.0032003247)
(0.053788657 -0.0025531515 0.0029575672)
(0.08248634 0.002519496 0.0057462927)
(0.085055983 -0.0011425713 0.0067381567)
(0.085162286 -0.0032090035 0.0055276986)
(0.11887005 0.00096694792 0.0090221388)
(0.12247051 -0.0030683543 0.00947483)
(0.12276069 -0.0070759746 0.0090788916)
(0.16223202 -0.0014479908 0.012587178)
(0.16538906 -0.0067976135 0.013178958)
(0.16585129 -0.010870448 0.01262789)
(0.21065908 -0.0053933093 0.017285636)
(0.21398387 -0.010767999 0.018081065)
(0.21462388 -0.015606489 0.017188932)
(0.26417807 -0.0099407377 0.022207851)
(0.26753135 -0.01648477 0.022419695)
(0.26869486 -0.022171597 0.021946455)
(0.32290048 -0.016146247 0.027788696)
(0.32648817 -0.023006726 0.028432852)
(0.32735726 -0.028889717 0.027561372)
(0.38608828 -0.023370911 0.033954632)
(0.38917263 -0.030650787 0.034124257)
(0.39072602 -0.037578797 0.033511855)
(0.45336787 -0.03163214 0.04052459)
(0.45688515 -0.039733793 0.040675819)
(0.45818756 -0.046893152 0.040129558)
(0.52469738 -0.041271927 0.047524343)
(0.52793655 -0.049652055 0.047827184)
(0.52942126 -0.057544097 0.047106175)
(0.59943088 -0.051961325 0.05498732)
(0.60271212 -0.06103422 0.055068219)
(0.60434652 -0.069412019 0.054578322)
(0.67755259 -0.063860936 0.062844741)
(0.68071196 -0.073222536 0.063039414)
(0.68251018 -0.081996722 0.062303616)
(0.75845504 -0.07679605 0.071010273)
(0.76164547 -0.086534721 0.070989965)
(0.76343301 -0.095707131 0.070470357)
(0.84200112 -0.090708869 0.079504444)
(0.84505794 -0.10072168 0.079573612)
(0.84702834 -0.11035057 0.078937429)
(0.92777481 -0.10555635 0.088201494)
(0.93083282 -0.11578618 0.088112786)
(0.93288662 -0.12563183 0.087537994)
(1.0155262 -0.12122827 0.097163941)
(1.0185145 -0.13156028 0.096932499)
(1.0205994 -0.14169251 0.096461581)
(1.1048591 -0.13749046 0.10621641)
(1.1076641 -0.14793427 0.10586588)
(1.1100625 -0.15842253 0.1053721)
(1.1954716 -0.15434769 0.11517733)
(1.1985245 -0.16494214 0.11489113)
(1.2007246 -0.17544183 0.11455924)
(1.2868908 -0.17162571 0.12433116)
(1.2896621 -0.18218901 0.12401514)
(1.2920641 -0.19297344 0.12348012)
(1.3794035 -0.18920255 0.13329652)
(1.3823688 -0.19994617 0.13303123)
(1.3849164 -0.21055961 0.1326269)
(-0.0026601426 -0.0027917925 -0.003455718)
(-0.0025662112 -0.0032999184 0.00058537761)
(-0.0011614187 -0.0034571686 0.002548992)
(0.011574297 -0.0092970387 -0.0024792259)
(0.013814894 -0.0075551963 2.8086807e-05)
(0.013472564 -0.0097650938 0.0029175431)
(0.026255468 -0.014742186 -0.0022112438)
(0.02868607 -0.018902162 0.0013218242)
(0.02956963 -0.020371392 0.004427287)
(0.051214501 -0.022397701 -0.00081897759)
(0.052891839 -0.022778682 0.0019549002)
(0.054260426 -0.025971429 0.0049894256)
(0.080671127 -0.02865812 0.0020172006)
(0.083533569 -0.032963197 0.0050029061)
(0.084975817 -0.035285647 0.0076954097)
(0.11702843 -0.036628318 0.004268807)
(0.11933816 -0.039967714 0.0067319854)
(0.12139529 -0.044315076 0.0095110546)
(0.15914676 -0.045277916 0.0082870604)
(0.16210771 -0.049735989 0.011155347)
(0.16370606 -0.05394048 0.013265236)
(0.20626958 -0.053814637 0.01227347)
(0.20895722 -0.059221291 0.014447046)
(0.21122533 -0.064289402 0.016723146)
(0.25916837 -0.064197069 0.017116361)
(0.26221389 -0.069782092 0.019298722)
(0.26436159 -0.075470619 0.021304882)
(0.31647149 -0.074620934 0.022356775)
(0.31937148 -0.081088873 0.024356297)
(0.32168174 -0.087582851 0.026344114)
(0.37843004 -0.086180061 0.028207342)
(0.38160946 -0.093431244 0.030082845)
(0.38398411 -0.10020095 0.031759944)
(0.44478688 -0.09881107 0.034707289)
(0.44783543 -0.10635101 0.03632326)
(0.45017851 -0.11397322 0.037851294)
(0.51480735 -0.11195194 0.04141473)
(0.51781145 -0.12026413 0.042885737)
(0.52031185 -0.12826899 0.044412882)
(0.58862358 -0.12624866 0.048803688)
(0.5916387 -0.13482369 0.050174399)
(0.59416354 -0.14342525 0.051348016)
(0.6656192 -0.14114706 0.05647443)
(0.66857254 -0.15026816 0.057632565)
(0.67116914 -0.15927417 0.058708111)
(0.74563815 -0.15682242 0.064568293)
(0.74858473 -0.16632648 0.065536993)
(0.75111201 -0.17564775 0.066465575)
(0.82828398 -0.17324407 0.072905692)
(0.83115078 -0.18291995 0.073798127)
(0.83381073 -0.19272391 0.074508812)
(0.91323668 -0.19000223 0.081501464)
(0.91620176 -0.20024172 0.08216707)
(0.91876973 -0.21012845 0.082762343)
(1.0003218 -0.20755768 0.090380742)
(1.0031222 -0.21771684 0.090873251)
(1.005739 -0.2279497 0.091303499)
(1.0888791 -0.22515489 0.099301656)
(1.0919442 -0.23566774 0.099600936)
(1.0945083 -0.2460817 0.099970584)
(1.1790241 -0.24307171 0.10832058)
(1.1819733 -0.25378996 0.10856958)
(1.1844549 -0.26425102 0.10874948)
(1.2702929 -0.26126035 0.11756458)
(1.2731685 -0.27200144 0.11754678)
(1.275863 -0.2824632 0.11757633)
(1.3622185 -0.27928682 0.12668968)
(1.3650739 -0.28988656 0.12655519)
(1.3676933 -0.30069179 0.12626936)
)
;

boundaryField
{
    free
    {
        type            calculated;
    }
    bottom
    {
        type            calculated;
    }
    traction
    {
        type            calculated;
    }
}


// ************************************************************************* //
