/*--------------------------------*- C++ -*----------------------------------*\
  =========                 |
  \\      /  F ield         | OpenFOAM: The Open Source CFD Toolbox
   \\    /   O peration     | Website:  https://openfoam.org
    \\  /    A nd           | Version:  6
     \\/     M anipulation  |
\*---------------------------------------------------------------------------*/
FoamFile
{
    version     2.0;
    format      ascii;
    class       pointScalarField;
    location    "1.96";
    object      p;
}
// * * * * * * * * * * * * * * * * * * * * * * * * * * * * * * * * * * * * * //

dimensions      [1 -1 -2 0 0 0 0];

internalField   nonuniform List<scalar> 
625
(
92380.404
-425970.59
413.31962
1473.2537
502375.59
-214327.36
1196.0896
-291.10426
62665.654
-112420.68
-107880.64
-850.73118
-167.52563
355.08112
40815.817
47652.107
56347.351
55449.143
60418.687
56604.835
60747.917
58359.841
60655.042
55965.236
55739.2
52217.135
49053.313
44938.168
40242.544
35272.9
29744.017
24244.751
18542.129
13465.25
8490.243
3994.6846
1391.3078
-124877.23
-109649.37
-122555.35
-106180.36
-102150.07
-99049.146
-90596.215
-84033.661
-80457.886
-72936.577
-66433.836
-60925.539
-54089.763
-47517.726
-40961.567
-34011.079
-27731.177
-21246.202
-15187.517
-10307.81
-5400.7899
-2216.4852
-138.15312
363392.97
166438.8
40296.238
-48005.539
-71962.61
-63047.06
-51129.845
-61651.162
-56776.877
-49079.742
-55583.255
-58033.224
-50774.002
-54230.59
-46526.645
-46582.508
-39499.075
-36381.439
-29723.704
-25325.364
-19098.634
-14121.399
-9164.8118
-4941.3069
-1976.7953
191.20407
925.85825
-206.41233
-901.4535
1615.0087
4722.9443
9739.9053
16126.818
23047.293
31068.155
38278.99
47850.632
54775.811
64359.776
71009.781
80644.066
85266.363
91319.652
104529.22
106644.93
112552.57
118155.01
128530.97
127611.12
138599.59
138953.69
129861.34
132796.47
207321.35
201291.69
-352481.13
-256708.12
-241974.24
1275.2107
1530.5015
1952.4309
-621.0185
-751.22775
-554.70214
14625.201
19069.934
24582.337
28070.039
25795.993
31982.234
31905.423
33605.95
30468.284
33331.652
31739.74
31201.1
28670.167
27145.111
23775.307
21318.092
17740.282
14695.886
11466.538
8850.7649
5803.3544
3335.4335
1637.6166
-47984.659
-49426.6
-42299.172
-35190.214
-33914.979
-28316.278
-26024.633
-22590.447
-19029.687
-15613.818
-14129.064
-11092.608
-9048.5593
-6577.4993
-4945.0565
-2980.6399
-1724.3367
-212.90968
401.44784
1320.6982
1523.0066
1466.6532
1402.1073
-96858.036
-89915.582
-83405.667
-78265.816
-75564.906
-67999.86
-64644.591
-58823.436
-54449.767
-48489.157
-44700.252
-38224.543
-34019.94
-28633.592
-24293.074
-19517.032
-15177.677
-11184.901
-7731.1167
-4326.5265
-2286.5631
-649.6858
410.33434
85522.256
127180.42
146869.39
-54652.543
-4053.1688
15880.713
-69505.26
-47515.4
-3493.9827
-155228.76
-123662.59
-108210.73
-138409.5
-101394.5
-82701.142
-104189.74
-78782.078
-74767.96
-103140.64
-79601.149
-67677.513
-96935.35
-74329.096
-68122.672
-90909.935
-72785.89
-64931.934
-87754.966
-71798.745
-64755.695
-83338.549
-64874.848
-61501.948
-77200.682
-63575.721
-59978.696
-71880.587
-58887.674
-57340.342
-66275.665
-56335.837
-53932.79
-60617.822
-50505.398
-49708.137
-53640.408
-46406.421
-45315.765
-47483.977
-40430.432
-40321.298
-40380.291
-35459.821
-34908.643
-33964.263
-29131.243
-29188.872
-27021.068
-23699.388
-23670.367
-20639.991
-17739.091
-17871.779
-14588.289
-12512.926
-12657.329
-9297.2644
-7792.5746
-7764.3072
-4565.0272
-3598.177
-3571.572
-1237.6363
-1074.0552
-836.32993
508.91744
818.28871
509.23486
-1028.5792
-1193.7131
-1499.1265
-621.50695
-812.60906
-1002.3417
1287.2221
1127.4089
1182.5099
89181.666
97129.333
119585.92
84595.843
90646.124
118517.29
83044.665
93338.853
121659.28
82144.758
86552.831
115719.68
77294.212
86604.513
107687.48
80745.238
81614.987
106499.38
78564.438
80520.378
101513.2
77782.494
76149.661
96223.298
70040.332
74293.444
89629.939
72416.515
70665.054
86348.677
67708.822
64789.101
78804.068
63674.905
60682.08
73856.684
58708.04
55130.303
66601.194
53025.271
50148.848
59914.593
47110.205
43641.835
51808.394
40526.865
37998.397
44671.068
33867.762
31298.693
36628.65
27033.663
25324.507
29113.224
20312.205
18858.669
21686.703
14079.216
12763.646
15187.583
8430.363
7246.9963
8992.4973
3593.8492
3154.4427
4265.0628
1190.2802
1003.1716
1090.3584
115254.45
104282.8
85696.607
84616.512
83488.75
75883.792
73194.989
69320.252
61449.508
57664.097
55416.411
47760.83
43624.144
37906.629
33581.512
28107.461
23543.91
18973.879
14624.628
10480.918
7007.8318
4001.6292
1324.4855
53653.652
57647.439
35587.765
46261.058
39844.875
36651.361
34577.711
32095.122
27168.283
27700.638
22730.154
22512.972
18497.21
18251.221
14628.183
13730.393
11036.397
9744.5481
7351.7691
5894.6602
4120.4601
2462.1645
1041.7824
18903.972
19000.333
-4683.7437
-2812.0908
-8912.0771
-11614.123
-15741.272
-14684.649
-15515.804
-17298.24
-16836.4
-17266.79
-16178.547
-15814.525
-14362.265
-12809.71
-10881.617
-8970.1149
-6877.5286
-4984.1046
-3039.9011
-1238.0143
-1002.6797
42484.845
85336.181
98211.287
38304.547
73740.904
90292.211
34494.287
58488.556
84821.03
30524.904
63130.918
72677.071
37747.491
54765.065
73597.935
33183.371
57024.137
72221.166
33462.805
52762.378
64012.909
30817.879
51202.606
62050.47
36108.554
49250.627
61145.011
30955.38
45634.321
53568.862
29511.938
43195.269
50451.575
27869.494
40259.157
46091.798
25966.065
36747.437
41633.192
23609.816
32403.194
36586.196
21042.991
28813.684
32467.143
18438.682
24280.361
27362.351
15374.441
20364.442
22793.563
12941.521
16049.903
18031.883
9735.2605
11968.093
13901.506
7317.6294
8986.349
9966.8191
4416.3635
6108.688
6346.2132
3307.8378
3792.5244
3954.8318
1130.0639
1041.8141
1343.9021
-41214.994
-6145.5295
26998.169
-28717.663
8549.1046
17339.609
-15308.502
1830.8016
21158.727
-18681.116
5641.5359
12808.934
-11832.79
4981.8265
20970.481
-11288.043
6955.4264
13279.745
-9900.6527
4690.7524
14037.833
-7308.2335
9634.607
14300.104
-5114.9097
6542.6984
9979.8136
-4829.4079
7878.1436
11317.55
-2158.2634
7497.4234
9896.5284
-1486.4564
8706.6515
9101.7935
716.31526
7678.1783
8045.0544
701.52975
8436.9962
7964.0877
2376.3789
7686.5751
7203.1795
2258.5237
7886.973
6684.3552
3334.8203
7067.7812
6212.962
3115.8133
6769.0192
5562.5096
3394.3045
5491.386
5081.4781
3054.0241
5391.8209
4040.2666
2602.8671
3061.4156
2833.1975
2061.9763
2459.6476
2100.0293
1431.4806
1645.4543
1632.2959
-71496.16
-44372.844
-28782.919
-61296.798
-37654.54
-26760.534
-58216.079
-56362.543
-27405.403
-64190.223
-41270.826
-24949.075
-55229.157
-45781.392
-28506.901
-54169.922
-44357.213
-28159.712
-51135.43
-41176.173
-25392.966
-46671.274
-39906.413
-31893.5
-43202.178
-39970.685
-26609.171
-41210.146
-35352.154
-27580.548
-36348.773
-33279.31
-26008.174
-33154.574
-30925.225
-25270.011
-29505.1
-27875.056
-22860.459
-25571.437
-24903.146
-20982.914
-21949.007
-21485.595
-18561.512
-17852.36
-18278.155
-15980.059
-14458.529
-14841.366
-13253.498
-10985.317
-11677.669
-10596.796
-7812.94
-8289.6174
-7819.8678
-4890.3296
-5602.5016
-5460.1587
-3245.3182
-2864.2402
-3421.3417
-851.21068
-678.7229
-556.01496
-341.2733
-494.56415
-646.36355
)
;

boundaryField
{
    free
    {
        type            calculated;
    }
    fixed
    {
        type            calculated;
    }
    freeTop
    {
        type            calculated;
    }
}


// ************************************************************************* //
