/*--------------------------------*- C++ -*----------------------------------*\
  =========                 |
  \\      /  F ield         | OpenFOAM: The Open Source CFD Toolbox
   \\    /   O peration     | Website:  https://openfoam.org
    \\  /    A nd           | Version:  6
     \\/     M anipulation  |
\*---------------------------------------------------------------------------*/
FoamFile
{
    version     2.0;
    format      ascii;
    class       pointScalarField;
    location    "0.18";
    object      p;
}
// * * * * * * * * * * * * * * * * * * * * * * * * * * * * * * * * * * * * * //

dimensions      [1 -1 -2 0 0 0 0];

internalField   nonuniform List<scalar> 
625
(
500350.42
-830692.65
-441.74957
2372.7521
954609.04
-1516141.6
1995.4637
-471.80787
367176.62
-40949.353
-89833.301
-1491.8039
-666.70766
733.0235
196766.88
215486.39
204438.08
196502.1
173110.14
165662.81
150054
137886.73
133483.59
120017.82
113696.34
104562.22
95725.153
85452.235
74920.469
63815.173
52232.702
41603.696
30662.33
21357.293
13453.399
5160.2527
1755.867
-268830.97
-180635.74
-233249.53
-180164.96
-166337.34
-164792.95
-142626.3
-134899.36
-129252.62
-119191.55
-112389.8
-103512.74
-94868.601
-84108.923
-72982.367
-61069.082
-49531.785
-37863.39
-27060.815
-17599.999
-9113.937
-2865.2631
468.22451
523156.92
-23411.788
-165794.66
-270144.46
-341940.57
-235252.51
-206350.76
-229545.45
-171492.96
-159686.26
-155551.77
-143113.08
-135710.21
-124339.49
-115443.46
-104239.46
-92603.613
-80494.037
-67204.099
-54519.079
-41976.332
-30317.521
-20020.293
-11338.713
-4727.9484
33.177399
1391.4475
-879.71772
-1377.2437
1790.8416
5427.8337
11966.588
21485.539
32852.359
44724.269
57653.742
71211.841
84640.695
97778.877
109701.59
121722.47
128548.5
133132.2
156783.35
155719.02
169097.19
175481.13
208545.65
195242.16
229534.18
255400.28
222593.24
548426.4
546565.05
514476.32
-903674.25
-904853
-887535.31
2469.6256
2413.2372
3637.6659
-1238.2827
-1040.6345
-956.35037
118960.96
128735.29
126897.57
110653.27
99972.783
97877.072
83622.482
81184.156
71822.548
68566.886
64624.435
59712.467
54353.019
48838.534
42898.539
36385.705
29782.902
23274.488
17192.843
12404.545
7497.5184
4180.7696
1775.8799
-35526.431
-25908.078
-32357.071
-16481.464
-24907.221
-18695.648
-19764.185
-16663.548
-16698.269
-15808.952
-15304.555
-14172.249
-12429.149
-10229.818
-8118.558
-6046.1963
-4111.4108
-2283.6645
-903.05012
678.5506
1518.9916
2318.9338
1789.0559
-166950.88
-138231.24
-124150.83
-109724.61
-118682.39
-95747.226
-95826.973
-87657.28
-82810.549
-76731.755
-71560.535
-64817.65
-58292.292
-50799.259
-43219.475
-35438.818
-27900.883
-20917.999
-14748.28
-8303.9439
-4514.1162
-1020.8965
606.80372
307287.96
301874.66
312622.57
-40176.342
-23728.243
-54883.584
-69348.619
-101784.98
-148921.76
-394463.22
-383066.86
-400992.66
-312192.95
-291376.66
-281416.84
-236702.75
-222447.19
-238859.28
-190891.84
-189783.08
-190303.55
-185807.56
-182732.11
-194510.59
-165654.14
-157627.64
-159888.37
-156393.71
-152995.53
-159133.76
-147970.81
-134942.41
-144979.8
-137993.97
-129740.44
-136454.62
-129568.23
-120605.9
-128626.1
-121165.44
-113409.95
-119468.96
-112303.89
-104241.59
-110114.92
-101330.03
-94353.542
-99359.061
-89571.948
-83125.267
-87412.995
-76695.951
-71307.142
-74817.117
-63484.125
-59027.491
-61650.18
-50446.114
-46868.223
-48725.889
-37780.822
-35067.9
-36483.52
-26398.518
-24258.983
-25106.203
-16373.549
-14830.299
-15160.34
-7511.1797
-6686.7712
-6503.3697
-1565.3773
-1948.5927
-1293.182
413.22099
1317.4361
1011.8395
-1532.0636
-1634.0902
-2079.873
-1347.6954
-1797.2048
-1425.0579
1884.4732
2071.8644
2672.2
275054.46
240793.81
268051.32
255775.17
228059.67
247594.51
247398.18
216739.24
237294.85
205560.19
189615.18
206833.39
195186.56
183884.63
187598.52
178527.34
155999.48
173490.3
160599.75
151692.77
164026.2
153528.27
139225.28
150808.25
137609.33
132924.76
138968.01
132869.94
121729.84
136037.4
124687.79
114514.16
124634.53
116325.75
104700.89
117104.67
105484.68
95706.718
106744.7
95094.59
85514.58
95416.678
82987.753
74363.975
82863.182
70324.032
62969.507
69974.924
57428.862
51517.738
56968.238
44764.448
40428.103
44074.378
32296.214
29683.568
32095.69
21674.832
19510.706
21459.958
12208.429
10658.405
12057.498
4212.452
3886.8552
4495.4656
1191.025
1014.9643
1337.5343
137290.13
147533.03
114584.27
127386.62
116559.81
107177.7
100240.05
93987.464
83257.952
79141.193
75158.095
67223.537
60118.253
53702.916
46713.015
39766.722
32863.749
26427.773
20063.651
14002.772
9104.4155
4842.4558
886.14518
-24119.67
14843.986
-548.79603
21644.908
21681.673
15939.41
20536.43
18477.207
16411.19
17236.953
17438.551
16743.08
15778.079
14950.359
13555.754
11932.33
10335.413
8810.7749
6891.4568
5132.0753
3799.2958
1478.1295
1089.851
-94382.997
-90233.465
-133143.07
-107510.77
-108569.58
-103444.02
-87841.617
-81891.123
-72338.374
-66992.341
-61621.111
-56159.585
-51759.394
-46587.363
-41684.289
-36248.168
-30343.743
-24360.179
-18761.83
-13573.579
-9214.8582
-4876.875
-2734.2518
174167.47
198594.24
168705.29
145051.09
164904.11
151770.37
108520.03
116538.34
138112.61
94233.766
131088.06
106663.43
106466.96
94003.295
104245.48
76499.136
100004.86
103036.54
80595.699
91962.097
88533.242
73370.227
81720.912
84443.751
69915.629
75280.269
84951.898
62002.245
73447.233
74432.029
57622.735
66788.843
70463.909
50983.746
62135.36
65185.706
46728.678
56441.149
59275.14
41089.548
49985.733
52320.723
35613.021
43219.934
45522.921
29949.188
36489.285
38306.752
24663.293
29694.599
31098.073
19488.809
22883.729
24048.358
14459.815
16379.606
17825.698
10530.906
11361.841
12094.124
5668.9379
7025.7188
6429.5641
4353.0242
3792.3484
4545.7957
981.38692
647.23878
643.33774
-42977.502
-53249.787
-32840.267
-17209.558
5044.9197
-10083.277
3999.3209
-190.58354
-6531.8688
-1382.9945
-279.61558
-16037.271
-1983.715
4606.2343
6687.3173
-1955.0976
10536.964
-6111.2861
1366.302
4746.9108
-3848.8584
-4266.5315
6455.6052
265.39168
-3393.1959
7192.5883
-3438.0889
-2605.7801
5128.0395
-570.12513
-3698.0632
5225.8953
-979.28127
-2468.188
6253.0941
153.83255
-1590.5376
6483.5795
235.91569
-622.54312
6713.3441
1366.3889
422.29121
7310.3819
2155.2493
1529.6247
7437.6418
2971.4933
2397.5479
7404.2561
3394.476
3120.2699
7167.3822
3729.4771
3515.3492
5992.7004
3994.528
3777.656
5972.7717
3399.4147
3625.5978
3094.4066
3112.6324
2205.5024
2831.9784
2081.7093
1766.2232
1960.9007
1996.1709
-164482.14
-181358.38
-203107.93
-114384.21
-97372.804
-140812.3
-107682.48
-164648.16
-144839.05
-134944.69
-111612.51
-119499.08
-98011.608
-116836.82
-114632.25
-95853.692
-106829.12
-106247.11
-91130.187
-98891.137
-92980.167
-81300.236
-88550.112
-91945.962
-74505.896
-84873.204
-80324.342
-71908.663
-76374.282
-75092.223
-64899.895
-70401.184
-68604.765
-60066.933
-64228.966
-63356.324
-53804.71
-58639.213
-57383.968
-47858.563
-52060.646
-51464.252
-41199.706
-45449.108
-45144.381
-34612.426
-38587.629
-38769.835
-27883.944
-31602.758
-32158.392
-21892.425
-25075.32
-25868.696
-15704.27
-18435.495
-19395.086
-10748.068
-12600.736
-13937.421
-6957.4155
-7786.1057
-9216.4788
-2597.1876
-3099.3062
-2802.4599
-1483.0557
-1820.6338
-2959.4296
)
;

boundaryField
{
    free
    {
        type            calculated;
    }
    fixed
    {
        type            calculated;
    }
    freeTop
    {
        type            calculated;
    }
}


// ************************************************************************* //
