/*--------------------------------*- C++ -*----------------------------------*\
  =========                 |
  \\      /  F ield         | OpenFOAM: The Open Source CFD Toolbox
   \\    /   O peration     | Website:  https://openfoam.org
    \\  /    A nd           | Version:  6
     \\/     M anipulation  |
\*---------------------------------------------------------------------------*/
FoamFile
{
    version     2.0;
    format      ascii;
    class       pointVectorField;
    location    "1.32";
    object      u;
}
// * * * * * * * * * * * * * * * * * * * * * * * * * * * * * * * * * * * * * //

dimensions      [0 1 0 0 0 0 0];

internalField   nonuniform List<vector> 
28033
(
(0 5.8383511e-19 0)
(0 3.9979284e-18 0)
(-1.8308376 -0.55633167 -0.0012524171)
(-1.9218807 -0.13938525 -0.0018269271)
(0 3.6106132e-18 0)
(0 5.8806241e-18 0)
(-1.9216068 -0.13915274 -0.0016324668)
(-1.8305235 -0.55610029 -0.0014551975)
(0 1.2641737e-18 0)
(0 3.6505439e-19 0)
(0 2.9161182e-18 0)
(0 -1.384442e-18 0)
(0 1.864934e-18 0)
(0 -1.1052134e-18 0)
(0 -2.6705972e-20 0)
(-8.9081079e-19 -2.9059757e-19 0)
(0 5.4656018e-19 0)
(0 2.7199322e-19 0)
(0 -1.0467604e-18 0)
(0 1.0134767e-18 0)
(0 1.2119413e-18 0)
(0 -9.7204942e-19 0)
(0 1.2358547e-18 0)
(-1.8365306 -0.53027424 -0.001292397)
(-1.8422135 -0.50421494 -0.0013297755)
(-1.8478962 -0.47815574 -0.0013724916)
(-1.8535698 -0.45209889 -0.0014100599)
(-1.8592414 -0.4260491 -0.0014566101)
(-1.8649137 -0.39999986 -0.0014973519)
(-1.8705833 -0.37395775 -0.0015431648)
(-1.8762626 -0.34791571 -0.001586669)
(-1.8819437 -0.3218719 -0.0016267833)
(-1.887635 -0.29582493 -0.001664772)
(-1.8933341 -0.26977058 -0.0016984338)
(-1.8990378 -0.24370914 -0.0017249374)
(-1.9047519 -0.21763954 -0.0017564307)
(-1.9104667 -0.19156032 -0.0017795976)
(-1.9161786 -0.16547268 -0.001804104)
(-0.0042420067 -0.0087446232 -0.0087672045)
(-0.0044923533 -0.012617658 -0.012794991)
(-0.0055285222 -0.016943691 -0.015213126)
(-0.0075622659 -0.021511771 -0.016969009)
(-0.010045706 -0.026037914 -0.017932255)
(-0.013444532 -0.030905244 -0.018582207)
(-0.017501233 -0.035791352 -0.018908955)
(-0.02229262 -0.040733125 -0.019033762)
(-0.027706909 -0.045810665 -0.019042113)
(-0.033808464 -0.050866495 -0.018972476)
(-0.040483781 -0.055976796 -0.018808244)
(-0.047765506 -0.061118158 -0.018614484)
(-0.055604632 -0.066277709 -0.018445064)
(-0.064044721 -0.071461389 -0.018201868)
(-0.072993802 -0.076646522 -0.017995831)
(-0.082507684 -0.081847901 -0.017738192)
(-0.09253417 -0.087095521 -0.017537066)
(-0.10310963 -0.092304932 -0.017292786)
(-0.11418385 -0.097590479 -0.017045032)
(-0.12576882 -0.10284762 -0.016793823)
(-0.13784695 -0.1081681 -0.016560182)
(-0.15042061 -0.11346812 -0.016276199)
(-0.1634638 -0.11882482 -0.016037695)
(-0.17697951 -0.12419907 -0.015756574)
(-0.19095027 -0.12958976 -0.015483922)
(-0.20535874 -0.13502862 -0.015207846)
(-0.220205 -0.14046809 -0.014947661)
(-0.23546417 -0.14597934 -0.014662916)
(-0.25114654 -0.15147986 -0.014395903)
(-0.2672115 -0.15703849 -0.014137632)
(-0.28367435 -0.16263547 -0.013876257)
(-0.30050375 -0.16824738 -0.013622845)
(-0.31770163 -0.1739165 -0.013389434)
(-0.33527483 -0.179598 -0.013157558)
(-0.35318918 -0.18535223 -0.012921544)
(-0.37146173 -0.19112196 -0.012704876)
(-0.39006025 -0.19694313 -0.012496555)
(-0.40901115 -0.20280931 -0.012286)
(-0.42828638 -0.20870782 -0.012068617)
(-0.44788662 -0.21466645 -0.011861528)
(-0.46781681 -0.22065166 -0.011644768)
(-0.48805918 -0.22669786 -0.01142555)
(-0.50862381 -0.2327787 -0.011193304)
(-0.52949746 -0.23890903 -0.010955556)
(-0.55067761 -0.24507476 -0.010703708)
(-0.57215845 -0.25128597 -0.010440893)
(-0.59393109 -0.25752825 -0.010165033)
(-0.61599269 -0.26380969 -0.0098763359)
(-0.63832912 -0.27011628 -0.0095760553)
(-0.66093754 -0.27645303 -0.0092647719)
(-0.6838019 -0.28280812 -0.0089445334)
(-0.70691679 -0.28918257 -0.008617177)
(-0.73026644 -0.29556763 -0.0082851162)
(-0.75384218 -0.30196116 -0.007950859)
(-0.77762955 -0.30835691 -0.0076168303)
(-0.80161734 -0.31475145 -0.0072858405)
(-0.82579239 -0.32114006 -0.0069598928)
(-0.85014269 -0.32751978 -0.0066413411)
(-0.87465598 -0.33388682 -0.0063317872)
(-0.899321 -0.34023934 -0.0060326308)
(-0.92412644 -0.34657491 -0.0057446977)
(-0.94906278 -0.35289273 -0.0054682671)
(-0.97411857 -0.35919159 -0.0052039358)
(-0.99929024 -0.36547177 -0.0049493172)
(-1.0245604 -0.37173337 -0.0047079838)
(-1.049934 -0.37797783 -0.0044720002)
(-1.0753947 -0.38420072 -0.0042490749)
(-1.1009418 -0.39041082 -0.0040304024)
(-1.1265687 -0.39660379 -0.0038124721)
(-1.1522718 -0.40278518 -0.0036032071)
(-1.1780448 -0.4089489 -0.0033970958)
(-1.2038842 -0.41510153 -0.0031923617)
(-1.229785 -0.42124027 -0.0029901953)
(-1.255744 -0.42736404 -0.0027907867)
(-1.2817546 -0.43347455 -0.0025938673)
(-1.3078137 -0.43956606 -0.0024019887)
(-1.3339134 -0.44564184 -0.0022150593)
(-1.3600507 -0.45169547 -0.0020362643)
(-1.3862156 -0.45772872 -0.0018661901)
(-1.4124069 -0.46373511 -0.0017095274)
(-1.4386137 -0.46971791 -0.0015632572)
(-1.4648309 -0.47566959 -0.0014368448)
(-1.4910556 -0.48159259 -0.0013249743)
(-1.5172742 -0.48748321 -0.0012342068)
(-1.5434909 -0.49334603 -0.001161464)
(-1.5696952 -0.49917475 -0.0011080745)
(-1.5958892 -0.50497369 -0.0010746666)
(-1.622059 -0.51074674 -0.0010576624)
(-1.6482202 -0.51648877 -0.0010584804)
(-1.6743474 -0.52221612 -0.0010694087)
(-1.7004746 -0.52791399 -0.0010962653)
(-1.7265592 -0.53361056 -0.0011225019)
(-1.7526551 -0.53928286 -0.0011623657)
(-1.7787161 -0.5449637 -0.0011905636)
(-1.8047764 -0.55064298 -0.0012279619)
(-0.0030172655 0.0076830914 0.010371656)
(-0.006205938 0.011735708 0.010830875)
(-0.0079597029 0.016591549 0.014252899)
(-0.010349744 0.020868965 0.015106473)
(-0.013878686 0.025672314 0.016175045)
(-0.017870891 0.030597387 0.016637474)
(-0.022701267 0.035207253 0.016922473)
(-0.028211844 0.040050883 0.016970361)
(-0.034553342 0.044702257 0.016903028)
(-0.041452915 0.049266802 0.016748871)
(-0.049170297 0.053765076 0.016501422)
(-0.057427661 0.05807713 0.016241845)
(-0.066439039 0.062306995 0.015897221)
(-0.076007751 0.066357552 0.015593782)
(-0.086238897 0.07025508 0.015211403)
(-0.09704525 0.074000382 0.01487528)
(-0.10844971 0.077549099 0.014487134)
(-0.12042994 0.080940961 0.014118258)
(-0.13297468 0.084149935 0.013744555)
(-0.14604498 0.087146109 0.013376236)
(-0.15967527 0.089980131 0.012986305)
(-0.17381112 0.092608963 0.012638549)
(-0.18843748 0.095026039 0.01225946)
(-0.20358542 0.097271799 0.011903006)
(-0.21917435 0.099297143 0.011557037)
(-0.23524756 0.10112276 0.011196876)
(-0.25175843 0.102762 0.010878143)
(-0.2687026 0.10417709 0.010530119)
(-0.28607375 0.10542084 0.010224593)
(-0.30384072 0.1064384 0.009895267)
(-0.32202191 0.10729318 0.0095971265)
(-0.34057277 0.1079309 0.0092963439)
(-0.35950921 0.10839311 0.0090094456)
(-0.37880783 0.10866123 0.0087264475)
(-0.39846488 0.10874778 0.0084518649)
(-0.41846419 0.10864785 0.0081909726)
(-0.43880016 0.10836286 0.0079188129)
(-0.45948191 0.10791289 0.007667533)
(-0.48047054 0.10727031 0.0074132674)
(-0.50179151 0.10645971 0.007165135)
(-0.52341296 0.10546811 0.0069182025)
(-0.54534232 0.1043015 0.0066738306)
(-0.56756294 0.10295757 0.0064287914)
(-0.5900736 0.10143713 0.0061842402)
(-0.61285915 0.099739224 0.0059378479)
(-0.63591694 0.097863589 0.0056890236)
(-0.659231 0.095810812 0.0054378709)
(-0.68279622 0.09357987 0.0051824761)
(-0.70659725 0.091172796 0.0049239637)
(-0.73062541 0.088589467 0.0046610368)
(-0.75486638 0.085832685 0.0043946602)
(-0.77930897 0.082904188 0.0041247924)
(-0.80393877 0.079807632 0.0038523871)
(-0.82874404 0.076546644 0.0035782594)
(-0.85371 0.073126067 0.0033037437)
(-0.87882482 0.069550925 0.0030302454)
(-0.90407472 0.065827472 0.0027593228)
(-0.92944779 0.06196154 0.0024928537)
(-0.95493178 0.057960426 0.0022325214)
(-0.98051591 0.053830454 0.0019801743)
(-1.0061893 0.049579201 0.0017374189)
(-1.0319429 0.045213056 0.0015060301)
(-1.0577679 0.040739411 0.0012868726)
(-1.0836566 0.036163905 0.0010814258)
(-1.1096023 0.031493592 0.00088994932)
(-1.1355992 0.026732876 0.00071287085)
(-1.1616425 0.021887912 0.00055032046)
(-1.1877282 0.016962691 0.00040024561)
(-1.2138502 0.011959301 0.00026537622)
(-1.2400056 0.0068831363 0.00013823854)
(-1.2661956 0.0017406443 2.3564115e-05)
(-1.2924106 -0.0034735104 -8.3803495e-05)
(-1.3186553 -0.0087485368 -0.00018524053)
(-1.3449189 -0.014088533 -0.00028154572)
(-1.3712051 -0.019486334 -0.00037641941)
(-1.3975053 -0.024941922 -0.00046917444)
(-1.4238195 -0.030450935 -0.00056342986)
(-1.4501422 -0.036011077 -0.00065849687)
(-1.4764696 -0.041617364 -0.00075644796)
(-1.5027976 -0.047267008 -0.00085586693)
(-1.5291227 -0.052953664 -0.00095846369)
(-1.5554384 -0.058674178 -0.0010610486)
(-1.5817444 -0.064420926 -0.0011654618)
(-1.6080324 -0.070190511 -0.0012666554)
(-1.6343039 -0.075974899 -0.0013666103)
(-1.6605517 -0.08177064 -0.001459528)
(-1.686778 -0.087569909 -0.001547059)
(-1.7129778 -0.093369946 -0.0016238105)
(-1.7391544 -0.099163959 -0.0016911151)
(-1.7653053 -0.10495002 -0.0017449626)
(-1.7914348 -0.11072354 -0.0017867264)
(-1.8175436 -0.11648401 -0.0018140761)
(-1.8436368 -0.12222882 -0.0018298942)
(-1.8697186 -0.12795951 -0.0018342858)
(-1.8957985 -0.1336785 -0.0018308459)
(0 -1.5885782e-18 0)
(0 -1.1599763e-18 0)
(0 1.0865287e-18 0)
(0 -6.8656938e-19 0)
(0 -5.9120194e-19 0)
(0 3.3037971e-18 0)
(0 -9.8084999e-19 0)
(-2.2837269e-18 6.3835948e-19 0)
(0 -5.8343674e-19 0)
(0 1.4213721e-18 0)
(0 1.6987562e-18 0)
(0 5.9417617e-19 0)
(0 3.145045e-19 0)
(0 -6.4058584e-19 0)
(0 4.3543602e-19 0)
(-0.0052942062 0.0034935611 -0.0076250267)
(-0.0069368086 0.013626326 -0.011435951)
(-0.007771634 0.01498118 -0.013085112)
(-0.011124067 0.022035887 -0.015278764)
(-0.013816115 0.025543872 -0.016015311)
(-0.018297037 0.031089709 -0.01660364)
(-0.022761358 0.035432016 -0.016894788)
(-0.028603945 0.040633281 -0.017107837)
(-0.034636101 0.045021988 -0.017090952)
(-0.041784808 0.049957309 -0.017103179)
(-0.049329088 0.054276557 -0.017027817)
(-0.057603217 0.058719661 -0.016919737)
(-0.066589743 0.06299036 -0.016790152)
(-0.076075284 0.06701358 -0.016648137)
(-0.086338687 0.071033889 -0.016497141)
(-0.097050556 0.074684419 -0.016326969)
(-0.10842463 0.078324914 -0.01619745)
(-0.12037864 0.081669195 -0.015986506)
(-0.13284401 0.084866237 -0.015834265)
(-0.14595585 0.087887122 -0.015632587)
(-0.15947588 0.090656647 -0.015462556)
(-0.17361414 0.093268365 -0.015262905)
(-0.18819907 0.095659669 -0.015055863)
(-0.20334327 0.097880928 -0.014859834)
(-0.21889172 0.099836179 -0.014633984)
(-0.2349732 0.1016672 -0.014433166)
(-0.25143285 0.10320436 -0.014204451)
(-0.26840033 0.10464749 -0.013997954)
(-0.28572206 0.10578961 -0.013777654)
(-0.30350382 0.10682237 -0.013569192)
(-0.3216641 0.1076094 -0.013360541)
(-0.34020508 0.10821958 -0.013158725)
(-0.35912729 0.10864321 -0.012960453)
(-0.37840945 0.1088727 -0.012766719)
(-0.39805848 0.10893382 -0.012579978)
(-0.41801642 0.10877512 -0.012398259)
(-0.4383585 0.10848988 -0.012218382)
(-0.45900922 0.10798134 -0.012040204)
(-0.47998512 0.10731292 -0.011863513)
(-0.50128051 0.10645842 -0.011680109)
(-0.5228864 0.1054312 -0.011496813)
(-0.54479383 0.10422243 -0.011304171)
(-0.56699971 0.10283887 -0.011105504)
(-0.58949219 0.10127461 -0.010894953)
(-0.61226639 0.099535403 -0.010675651)
(-0.63531062 0.097615913 -0.010442085)
(-0.65861734 0.09552136 -0.010198034)
(-0.68217444 0.093248377 -0.0099397371)
(-0.70597137 0.090801594 -0.0096714135)
(-0.72999572 0.088179777 -0.0093905827)
(-0.7542349 0.085387619 -0.0091019875)
(-0.77867565 0.0824257 -0.0088040611)
(-0.80330463 0.079299334 -0.008501769)
(-0.82810775 0.0760109 -0.0081947482)
(-0.85307165 0.072566514 -0.0078872896)
(-0.87818255 0.068969916 -0.0075799284)
(-0.90342726 0.065227955 -0.0072761785)
(-0.92879356 0.061345811 -0.0069768967)
(-0.95426893 0.057330101 -0.0066842195)
(-0.97984337 0.053187522 -0.0063994062)
(-1.0055057 0.048924187 -0.0061229337)
(-1.0312483 0.044547149 -0.0058556986)
(-1.0570622 0.040062643 -0.0055973888)
(-1.0829411 0.03547678 -0.0053478419)
(-1.1088792 0.030795912 -0.0051061883)
(-1.1348717 0.026025626 -0.0048715673)
(-1.1609128 0.021169031 -0.0046425346)
(-1.1870065 0.016240147 -0.0044193898)
(-1.2131352 0.011222373 -0.0041993436)
(-1.2393071 0.0061510824 -0.0039813363)
(-1.2655201 0.0010016345 -0.003765228)
(-1.2917639 -0.0042066705 -0.0035526588)
(-1.3180414 -0.0094766021 -0.0033392497)
(-1.3443467 -0.014802079 -0.0031294368)
(-1.3706761 -0.02018112 -0.0029220532)
(-1.397025 -0.025610394 -0.0027191259)
(-1.423389 -0.031086247 -0.0025222341)
(-1.4497624 -0.036605788 -0.0023337031)
(-1.4761394 -0.042165015 -0.0021555125)
(-1.5025147 -0.0477607 -0.0019902672)
(-1.5288819 -0.053388398 -0.0018400865)
(-1.5552364 -0.059044776 -0.0017073391)
(-1.5815719 -0.064725104 -0.0015935172)
(-1.6078852 -0.070425909 -0.0015003976)
(-1.6341713 -0.076142409 -0.0014283774)
(-1.6604288 -0.081871393 -0.0013780171)
(-1.6866547 -0.087608213 -0.0013483825)
(-1.7128499 -0.093350271 -0.0013386448)
(-1.7390139 -0.099093283 -0.0013464038)
(-1.7651498 -0.10483572 -0.0013693561)
(-1.7912599 -0.11057362 -0.001404257)
(-1.8173486 -0.11630662 -0.0014473976)
(-1.8434217 -0.12203138 -0.0014952377)
(-1.8694836 -0.12774826 -0.0015442295)
(-1.8955448 -0.13345575 -0.0015894078)
(-1.9159174 -0.1652148 -0.0016301738)
(-1.9102169 -0.19128866 -0.0016226495)
(-1.9045099 -0.21734966 -0.0016170444)
(-1.8988073 -0.24340729 -0.0016134933)
(-1.8931037 -0.26945332 -0.001608844)
(-1.8874054 -0.29549928 -0.0016074656)
(-1.8817112 -0.32153363 -0.0016028203)
(-1.87602 -0.34757733 -0.0016005104)
(-1.8703437 -0.37361799 -0.0015908178)
(-1.864649 -0.39966612 -0.0015827999)
(-1.858976 -0.42571862 -0.0015649069)
(-1.8532871 -0.45178755 -0.0015490466)
(-1.8476129 -0.47785681 -0.0015226791)
(-1.8419128 -0.50394267 -0.0014998941)
(-1.8362239 -0.53002122 -0.0014756793)
(-1.8044441 -0.55039945 -0.0014379749)
(-1.7783602 -0.54470902 -0.0014269639)
(-1.7522739 -0.53902245 -0.0014078862)
(-1.7261615 -0.53333366 -0.001382271)
(-1.7000309 -0.52764213 -0.0013399353)
(-1.673876 -0.52194331 -0.0012906513)
(-1.6476976 -0.5162337 -0.001226857)
(-1.6214967 -0.51051118 -0.0011541791)
(-1.5952758 -0.50477088 -0.0010728609)
(-1.5690385 -0.49901286 -0.00098358227)
(-1.5427882 -0.4932317 -0.00089015617)
(-1.5165321 -0.48742801 -0.00079362774)
(-1.4902738 -0.4815986 -0.00069544891)
(-1.4640187 -0.47574216 -0.00059612348)
(-1.4377766 -0.46985847 -0.00049869518)
(-1.411552 -0.46394783 -0.00040410805)
(-1.3853525 -0.45800975 -0.00031324953)
(-1.3591835 -0.45204432 -0.00022561185)
(-1.333051 -0.44605324 -0.00014115908)
(-1.3069607 -0.44003592 -5.9261045e-05)
(-1.280917 -0.43399466 2.1570174e-05)
(-1.2549247 -0.42792914 0.00010278426)
(-1.2289874 -0.42184159 0.00018636022)
(-1.2031086 -0.41573101 0.00027425401)
(-1.1772932 -0.40960067 0.00036838899)
(-1.1515404 -0.40344957 0.00047040282)
(-1.1258607 -0.39727148 0.00058726485)
(-1.100262 -0.39108562 0.00070896557)
(-1.0747282 -0.38486717 0.00084937935)
(-1.0492843 -0.37863551 0.0010028567)
(-1.0239279 -0.37238214 0.0011738963)
(-0.99866807 -0.3661097 0.001359682)
(-0.97351083 -0.35981685 0.0015618649)
(-0.94846509 -0.35350483 0.001779827)
(-0.92354033 -0.34717367 0.0020125501)
(-0.89874592 -0.34082506 0.0022591857)
(-0.87409356 -0.33445947 0.0025181618)
(-0.84959381 -0.32807967 0.0027880063)
(-0.82525967 -0.32168682 0.0030666714)
(-0.80110231 -0.31528471 0.0033527299)
(-0.77713541 -0.30887524 0.0036437643)
(-0.7533703 -0.30246324 0.0039385042)
(-0.72982033 -0.29605119 0.0042347566)
(-0.70649641 -0.28964466 0.0045314775)
(-0.68341105 -0.28324657 0.0048267811)
(-0.66057397 -0.27686294 0.0051204297)
(-0.6379964 -0.27049659 0.0054106145)
(-0.61568651 -0.26415371 0.0056979372)
(-0.59365417 -0.25783673 0.0059813786)
(-0.57190522 -0.25155164 0.0062614687)
(-0.55044966 -0.24529936 0.0065380753)
(-0.52928863 -0.23908721 0.00681284)
(-0.50843621 -0.23291114 0.0070840451)
(-0.48788555 -0.22678328 0.0073579157)
(-0.4676575 -0.22069319 0.0076249071)
(-0.44773875 -0.21465482 0.0079014165)
(-0.42814011 -0.20866366 0.008174823)
(-0.40886498 -0.20270445 0.0084527715)
(-0.38998451 -0.19679217 0.0087196826)
(-0.37134111 -0.19095086 0.0090226899)
(-0.35308276 -0.18511917 0.0093143448)
(-0.33523889 -0.17933723 0.0095997277)
(-0.31765018 -0.1736174 0.0099116504)
(-0.30047026 -0.16791675 0.010226433)
(-0.28364106 -0.16224483 0.010554201)
(-0.26725602 -0.15661558 0.010887015)
(-0.25115715 -0.15103223 0.011217055)
(-0.2355823 -0.14544929 0.011560205)
(-0.22029789 -0.13994133 0.011936331)
(-0.20549119 -0.13443336 0.012293988)
(-0.19109689 -0.12897097 0.012672995)
(-0.17712094 -0.12351665 0.013056668)
(-0.16369784 -0.11808097 0.013431663)
(-0.15058994 -0.11272635 0.013843483)
(-0.138017 -0.10735644 0.014244927)
(-0.125986 -0.10199305 0.014632232)
(-0.1143076 -0.096730973 0.015077162)
(-0.10329378 -0.091397034 0.015448872)
(-0.092620935 -0.086207755 0.015895092)
(-0.082617141 -0.080912484 0.016289606)
(-0.073084997 -0.075734762 0.016708117)
(-0.064043743 -0.070561515 0.017085549)
(-0.055550008 -0.065445951 0.017510456)
(-0.047765671 -0.060212458 0.017821972)
(-0.040365729 -0.05525981 0.018203332)
(-0.033659143 -0.050136958 0.018445177)
(-0.027590938 -0.045091069 0.018665371)
(-0.022149806 -0.040175143 0.018723154)
(-0.017306086 -0.035262141 0.018680805)
(-0.013256683 -0.030464574 0.018401342)
(-0.0099171436 -0.025564007 0.017705716)
(-0.0076710695 -0.020867044 0.016611878)
(-0.0057019314 -0.016920435 0.015153649)
(-0.0051390948 -0.011983205 0.01148213)
(-0.0068940695 -0.0082748591 0.0062571964)
(0 1.8098926e-18 0)
(0 6.8845523e-19 0)
(0 1.7868953e-18 0)
(0 1.7988027e-18 0)
(0 1.8747879e-18 0)
(0 1.1274661e-18 0)
(0 4.4945665e-20 0)
(0 -1.0216226e-18 -1.1209498e-18)
(0 1.2097361e-19 0)
(0 1.0875941e-18 0)
(0 2.6225399e-18 0)
(0 2.297892e-18 0)
(0 1.6448683e-18 0)
(0 1.5896373e-18 0)
(0 1.8152348e-18 0)
(0 7.5502293e-18 0)
(0 3.2147873e-18 0)
(0 1.1797355e-18 0)
(0 2.1293627e-18 0)
(0 -1.853888e-19 0)
(0 4.9632392e-19 0)
(0 5.655584e-18 0)
(0 -2.3014711e-18 -9.9798956e-19)
(0 3.3639981e-18 0)
(0 4.2053518e-18 0)
(0 1.389727e-18 0)
(0 5.6884373e-19 0)
(0 1.3203355e-18 0)
(0 2.3804759e-18 0)
(0 3.0619268e-19 0)
(-1.9218599 -0.13937547 -0.0018327365)
(-1.9218331 -0.13935451 -0.0018258756)
(-1.9218053 -0.13933646 -0.0018089509)
(-1.921773 -0.13932104 -0.0017892998)
(-1.9217394 -0.13930801 -0.0017655559)
(-1.9217046 -0.13929934 -0.0017415147)
(-1.9216701 -0.1392928 -0.0017175556)
(-1.9216384 -0.13928801 -0.0016951188)
(-1.9216107 -0.13928359 -0.0016754429)
(-1.9215884 -0.13927824 -0.0016580401)
(-1.921573 -0.13927052 -0.0016457185)
(-1.9215645 -0.13925925 -0.0016350775)
(-1.9215648 -0.1392442 -0.0016304079)
(-1.9215718 -0.13922028 -0.0016270907)
(-1.9215894 -0.13919367 -0.0016312965)
(-1.8308094 -0.55629013 -0.0012489435)
(-1.8307751 -0.55625306 -0.0012469267)
(-1.8307413 -0.55622657 -0.0012504603)
(-1.8307091 -0.55620792 -0.0012564721)
(-1.8306794 -0.556198 -0.0012672447)
(-1.8306528 -0.55619341 -0.0012806831)
(-1.8306294 -0.55619369 -0.0012986964)
(-1.8306096 -0.55619589 -0.0013187843)
(-1.8305931 -0.55619875 -0.0013416229)
(-1.8305796 -0.55619941 -0.0013657067)
(-1.8305693 -0.55619621 -0.0013894923)
(-1.8305602 -0.55618741 -0.0014127046)
(-1.8305531 -0.55617182 -0.001432377)
(-1.8305454 -0.55614973 -0.0014469583)
(-1.8305363 -0.55612421 -0.0014546798)
(-0.0019687237 -0.0075864812 -0.0089231864)
(-0.002755082 -0.010647761 -0.010904512)
(-0.0036098534 -0.015026187 -0.013373826)
(-0.0057912872 -0.018824209 -0.01450051)
(-0.0080565461 -0.022744815 -0.015604371)
(-0.011595024 -0.026800392 -0.016089741)
(-0.015574225 -0.030873425 -0.016451957)
(-0.020518084 -0.035186711 -0.016563332)
(-0.025924034 -0.039437577 -0.016626602)
(-0.032118197 -0.043876699 -0.016563543)
(-0.038882234 -0.048266974 -0.016439095)
(-0.046270704 -0.052831344 -0.016327238)
(-0.054225752 -0.057295798 -0.016143627)
(-0.062748281 -0.061924667 -0.015980668)
(-0.071841167 -0.066460498 -0.015787119)
(-0.081480323 -0.071153507 -0.015610705)
(-0.091660861 -0.075761496 -0.015407085)
(-0.10232739 -0.080481344 -0.015223508)
(-0.11357647 -0.085167186 -0.015015168)
(-0.12529095 -0.08995146 -0.01481262)
(-0.13751786 -0.094708887 -0.014604633)
(-0.15024363 -0.09953264 -0.014390845)
(-0.16343163 -0.10440538 -0.014163083)
(-0.17708617 -0.10928098 -0.013948296)
(-0.19121769 -0.11422985 -0.01370975)
(-0.20577169 -0.11920361 -0.013487957)
(-0.22075996 -0.12423578 -0.013247833)
(-0.23616702 -0.12928982 -0.013025182)
(-0.2519996 -0.13440214 -0.01279513)
(-0.26819874 -0.1395722 -0.012569018)
(-0.28480975 -0.14475466 -0.012349727)
(-0.3017891 -0.15001436 -0.012137025)
(-0.31914013 -0.15530467 -0.011934444)
(-0.33684056 -0.16064728 -0.011731568)
(-0.35490315 -0.16603523 -0.011539145)
(-0.37331512 -0.1714682 -0.011349733)
(-0.39205359 -0.17696153 -0.011163778)
(-0.41114026 -0.18248349 -0.010983126)
(-0.43055904 -0.18808097 -0.010794934)
(-0.45029849 -0.1937128 -0.010616358)
(-0.47036954 -0.19940089 -0.010430723)
(-0.4907551 -0.20513258 -0.010235241)
(-0.51145597 -0.2109257 -0.010037122)
(-0.53247307 -0.21676031 -0.0098280089)
(-0.55378866 -0.22264859 -0.0096090777)
(-0.57540692 -0.22858328 -0.0093800427)
(-0.59731582 -0.23456326 -0.0091385566)
(-0.61950988 -0.24058806 -0.0088873414)
(-0.64197888 -0.24665187 -0.0086246872)
(-0.66471499 -0.25275432 -0.0083532514)
(-0.68770565 -0.25888933 -0.0080733612)
(-0.71094175 -0.26505398 -0.0077878099)
(-0.73440962 -0.27124365 -0.0074974738)
(-0.75809856 -0.27745352 -0.0072056235)
(-0.78199461 -0.28367931 -0.0069136107)
(-0.80608608 -0.2899162 -0.0066241599)
(-0.83035957 -0.29616015 -0.0063388878)
(-0.85480311 -0.30240668 -0.0060598748)
(-0.87940434 -0.30865242 -0.0057884173)
(-0.90415196 -0.31489399 -0.0055256683)
(-0.9290351 -0.32112854 -0.0052723302)
(-0.95404353 -0.32735453 -0.0050287592)
(-0.97916804 -0.33356893 -0.0047949091)
(-1.0044015 -0.33977284 -0.0045705719)
(-1.0297312 -0.34596268 -0.0043541905)
(-1.0551621 -0.35214195 -0.0041463275)
(-1.0806765 -0.35831328 -0.0039440457)
(-1.1062697 -0.36446244 -0.003749841)
(-1.1319428 -0.3706071 -0.003557538)
(-1.157687 -0.37673489 -0.0033711607)
(-1.1834999 -0.38285599 -0.0031851686)
(-1.2093767 -0.38896663 -0.0030018149)
(-1.235313 -0.39506798 -0.0028195117)
(-1.2613036 -0.40115884 -0.0026408276)
(-1.2873447 -0.40723888 -0.0024644108)
(-1.3134308 -0.41330656 -0.0022929742)
(-1.3395553 -0.41936212 -0.0021261028)
(-1.3657139 -0.42540071 -0.0019674873)
(-1.3918989 -0.43142492 -0.0018166763)
(-1.4181056 -0.43742678 -0.00167821)
(-1.4443256 -0.44341097 -0.0015505001)
(-1.470554 -0.449369 -0.0014401379)
(-1.4967858 -0.45530226 -0.0013425003)
(-1.5230095 -0.4612101 -0.00126417)
(-1.5492283 -0.46708849 -0.0012010558)
(-1.5754345 -0.4729413 -0.0011576039)
(-1.6016247 -0.47876489 -0.0011291715)
(-1.6277948 -0.48456019 -0.0011171641)
(-1.6539468 -0.4903327 -0.0011176518)
(-1.6800743 -0.49607797 -0.0011314958)
(-1.7061885 -0.50180623 -0.0011517484)
(-1.7322735 -0.50751527 -0.0011794098)
(-1.7583589 -0.51321073 -0.0012097332)
(-1.7844131 -0.51890112 -0.0012368379)
(-1.8104726 -0.52458573 -0.0012670011)
(0.00023534435 -0.0067008625 -0.0075615207)
(-0.00039877398 -0.0077985055 -0.010015202)
(-0.002182958 -0.012663735 -0.011296029)
(-0.0038714606 -0.015282217 -0.012811831)
(-0.0065999733 -0.019058955 -0.013387464)
(-0.0099468653 -0.022346476 -0.013881756)
(-0.014168895 -0.026067951 -0.014097762)
(-0.018942277 -0.02963514 -0.014255803)
(-0.024543813 -0.03337966 -0.014303013)
(-0.030756841 -0.037132448 -0.014225341)
(-0.037615673 -0.040977738 -0.014205614)
(-0.045075241 -0.044845722 -0.014037916)
(-0.053130934 -0.048794079 -0.013964634)
(-0.06177623 -0.052743154 -0.013785099)
(-0.070967374 -0.056777765 -0.013689681)
(-0.080743665 -0.060817685 -0.01348127)
(-0.090991715 -0.064928132 -0.013384816)
(-0.10185738 -0.069045406 -0.013191314)
(-0.11317851 -0.073242303 -0.013057681)
(-0.1250511 -0.077448738 -0.012870668)
(-0.13740151 -0.081723308 -0.012724422)
(-0.15025837 -0.086043365 -0.012521677)
(-0.16357696 -0.090406465 -0.012368327)
(-0.17738471 -0.094826652 -0.012169037)
(-0.19163809 -0.099291695 -0.011995538)
(-0.20633023 -0.10383286 -0.011789957)
(-0.22146239 -0.10840099 -0.011615068)
(-0.23701369 -0.1130426 -0.011420051)
(-0.25296701 -0.11773863 -0.011231149)
(-0.26932271 -0.12248809 -0.011042336)
(-0.28606411 -0.12729269 -0.01087108)
(-0.30318203 -0.13215998 -0.010686788)
(-0.32065879 -0.1370796 -0.010516706)
(-0.3385046 -0.14205177 -0.01034971)
(-0.35670367 -0.14708853 -0.010185853)
(-0.37524301 -0.15218142 -0.010028372)
(-0.39413443 -0.15732763 -0.0098755039)
(-0.41335759 -0.162535 -0.0097220093)
(-0.43290698 -0.16779234 -0.0095696328)
(-0.45278346 -0.17311605 -0.0094176257)
(-0.47298697 -0.17848742 -0.0092546022)
(-0.49350255 -0.18392935 -0.0090952552)
(-0.51434321 -0.18941992 -0.008920282)
(-0.53548353 -0.19497236 -0.008746893)
(-0.55693239 -0.20058325 -0.0085564593)
(-0.5786783 -0.20624995 -0.0083617624)
(-0.60071403 -0.21197072 -0.0081540921)
(-0.62303189 -0.2177457 -0.0079391928)
(-0.64562353 -0.22356979 -0.0077125368)
(-0.66847775 -0.22944269 -0.007480109)
(-0.69158483 -0.23535839 -0.0072385587)
(-0.71493302 -0.24131534 -0.0069930519)
(-0.73851003 -0.24730774 -0.0067425947)
(-0.76230376 -0.25333182 -0.0064912622)
(-0.78630113 -0.25938289 -0.0062390018)
(-0.81048947 -0.26545626 -0.0059893305)
(-0.83485587 -0.27154716 -0.0057426083)
(-0.85938804 -0.27765148 -0.0055014781)
(-0.8840736 -0.2837649 -0.0052661883)
(-0.90890151 -0.28988372 -0.005038436)
(-0.9338606 -0.29600469 -0.0048184489)
(-0.95894091 -0.30212527 -0.0046063336)
(-0.98413413 -0.30824204 -0.0044029179)
(-1.0094302 -0.31435611 -0.0042059322)
(-1.0348225 -0.32046227 -0.004017144)
(-1.0603081 -0.32656968 -0.0038338968)
(-1.0858625 -0.33265427 -0.0036604828)
(-1.1115111 -0.33873927 -0.0034873306)
(-1.1372332 -0.34482012 -0.00331335)
(-1.1630242 -0.35089357 -0.0031464842)
(-1.1888793 -0.35696373 -0.0029793623)
(-1.2147945 -0.36302581 -0.0028166106)
(-1.2407659 -0.36908385 -0.0026550164)
(-1.2667898 -0.3751351 -0.0024967587)
(-1.2928614 -0.38118122 -0.0023404791)
(-1.3189741 -0.38721884 -0.0021892056)
(-1.3451239 -0.39324921 -0.0020419283)
(-1.371304 -0.3992678 -0.0019027523)
(-1.3975085 -0.4052766 -0.0017701577)
(-1.4237312 -0.41126749 -0.0016499071)
(-1.4499661 -0.41724672 -0.0015380313)
(-1.4762053 -0.42320142 -0.0014427567)
(-1.5024482 -0.4291386 -0.0013595187)
(-1.528681 -0.43504761 -0.001288441)
(-1.5549075 -0.44094126 -0.001235476)
(-1.5811176 -0.4468003 -0.0011997181)
(-1.6073122 -0.45263554 -0.0011778205)
(-1.6334821 -0.45844495 -0.0011684674)
(-1.6596383 -0.46422764 -0.0011732702)
(-1.6857635 -0.46998767 -0.0011837436)
(-1.7118815 -0.47572452 -0.0012069468)
(-1.7379636 -0.48144458 -0.0012276134)
(-1.7640511 -0.48714667 -0.0012594712)
(-1.7901015 -0.49284021 -0.001280423)
(-1.816163 -0.49852771 -0.0013099371)
(0.0013923435 -0.0050289549 -0.006789119)
(0.00065609773 -0.0064028526 -0.0083496169)
(-0.00020211648 -0.0098994656 -0.0097687639)
(-0.0023956537 -0.012463793 -0.010812023)
(-0.0050271419 -0.01538571 -0.011224162)
(-0.008684114 -0.018397968 -0.011573919)
(-0.012762151 -0.021319469 -0.011812835)
(-0.017832671 -0.024415031 -0.011926216)
(-0.023425562 -0.02742074 -0.01190723)
(-0.029737246 -0.03068107 -0.011938974)
(-0.03666278 -0.033792559 -0.011840431)
(-0.044231914 -0.037161351 -0.011802378)
(-0.052378579 -0.040396567 -0.011677955)
(-0.061105738 -0.043851348 -0.011617463)
(-0.070425787 -0.047227583 -0.011462281)
(-0.080257375 -0.050748098 -0.011407577)
(-0.090695446 -0.054252687 -0.011256529)
(-0.10161243 -0.057860189 -0.011163734)
(-0.11308932 -0.06148676 -0.011028359)
(-0.12506482 -0.065190058 -0.010919966)
(-0.13755089 -0.068949751 -0.010777594)
(-0.15052727 -0.072753958 -0.010660279)
(-0.16398794 -0.07664286 -0.010513131)
(-0.17791081 -0.080568643 -0.010378937)
(-0.19229486 -0.084590192 -0.010224463)
(-0.20712128 -0.088649718 -0.010084775)
(-0.22238579 -0.092792115 -0.0099349848)
(-0.23805528 -0.096999429 -0.0097800353)
(-0.25415248 -0.10127144 -0.0096339337)
(-0.27063121 -0.10561183 -0.0094904739)
(-0.28750694 -0.11001875 -0.0093420066)
(-0.3047498 -0.1144969 -0.0091988054)
(-0.32237084 -0.11903472 -0.009066236)
(-0.34034682 -0.12364488 -0.0089306438)
(-0.35867543 -0.12831878 -0.0088018121)
(-0.37734937 -0.13305569 -0.008676695)
(-0.39635591 -0.13785863 -0.0085527799)
(-0.41569469 -0.14272103 -0.0084318773)
(-0.4353829 -0.14766478 -0.0083080294)
(-0.45539415 -0.15265975 -0.0081775466)
(-0.47572284 -0.15773532 -0.0080531586)
(-0.49637435 -0.16286881 -0.0079138628)
(-0.51733542 -0.16807058 -0.0077804411)
(-0.53860625 -0.17334016 -0.0076315188)
(-0.5601807 -0.17867454 -0.0074769334)
(-0.58204814 -0.18407412 -0.0073149497)
(-0.60420465 -0.18953729 -0.0071428144)
(-0.62664067 -0.19506371 -0.0069625675)
(-0.64934731 -0.20064887 -0.0067745364)
(-0.67231395 -0.20629215 -0.0065792359)
(-0.69553077 -0.21198893 -0.0063772503)
(-0.71898486 -0.21773651 -0.0061712873)
(-0.74266503 -0.22352992 -0.0059612546)
(-0.76655807 -0.22936557 -0.0057499659)
(-0.79065138 -0.2352384 -0.0055382523)
(-0.81493187 -0.24114366 -0.0053281524)
(-0.83938686 -0.24707684 -0.0051208185)
(-0.86400366 -0.25303317 -0.0049176341)
(-0.88877033 -0.25900816 -0.0047194578)
(-0.91367542 -0.26499806 -0.0045273064)
(-0.93870803 -0.27099864 -0.004341249)
(-0.96385851 -0.27700731 -0.0041616958)
(-0.98911761 -0.28302068 -0.0039887181)
(-1.0144764 -0.28903792 -0.0038205707)
(-1.0399298 -0.29505554 -0.003659427)
(-1.0654677 -0.30107209 -0.0035016154)
(-1.0910846 -0.30709957 -0.0033507162)
(-1.1167813 -0.31310863 -0.0031937743)
(-1.1425553 -0.31911919 -0.0030544836)
(-1.1683824 -0.32513487 -0.0029086482)
(-1.1942768 -0.33114601 -0.0027660151)
(-1.220226 -0.33715771 -0.002624814)
(-1.2462312 -0.34317073 -0.0024827245)
(-1.2722845 -0.34918155 -0.0023442107)
(-1.2983825 -0.3551899 -0.0022073473)
(-1.32452 -0.36119569 -0.0020750613)
(-1.3506909 -0.36719755 -0.0019468245)
(-1.3768907 -0.37319224 -0.0018257325)
(-1.403112 -0.37918039 -0.0017117396)