/*--------------------------------*- C++ -*----------------------------------*\
  =========                 |
  \\      /  F ield         | OpenFOAM: The Open Source CFD Toolbox
   \\    /   O peration     | Website:  https://openfoam.org
    \\  /    A nd           | Version:  6
     \\/     M anipulation  |
\*---------------------------------------------------------------------------*/
FoamFile
{
    version     2.0;
    format      ascii;
    class       pointVectorField;
    location    "0.15";
    object      lm;
}
// * * * * * * * * * * * * * * * * * * * * * * * * * * * * * * * * * * * * * //

dimensions      [1 -2 -1 0 0 0 0];

internalField   nonuniform List<vector> 
3969
(
(0 0 0)
(0 0 0)
(3113.0946 160.2529 16.22768)
(3045.8357 -646.27074 -0.94108745)
(0 0 0)
(0 0 0)
(3050.8112 -644.47819 2.3984058)
(3116.5774 147.60161 11.307646)
(0 0 0)
(0 0 0)
(0 0 0)
(0 0 0)
(0 0 0)
(0 0 0)
(0 0 0)
(3066.7107 60.80035 14.194209)
(3028.635 -37.224477 11.979069)
(3027.0535 -136.21706 9.4638974)
(3055.5342 -238.77088 6.6988643)
(3090.889 -344.90163 3.9540171)
(3105.8275 -450.64812 1.6899396)
(3085.8945 -551.46205 0.020427697)
(20.439175 34.296017 32.434348)
(39.735899 54.281191 35.800459)
(66.168945 70.321774 33.226493)
(95.328037 85.274205 30.048182)
(125.19751 97.114066 26.050805)
(154.17315 108.26645 24.111297)
(183.8594 118.4128 22.66197)
(214.30558 127.98672 21.352352)
(248.15886 136.78869 18.566894)
(286.20976 144.57477 13.615361)
(329.16106 150.2765 5.9040815)
(376.0538 152.86094 -3.685636)
(424.31139 152.04063 -14.832307)
(471.27352 147.9034 -24.579951)
(513.95897 140.58917 -31.834712)
(549.65775 131.80274 -35.442273)
(577.6463 123.00659 -34.713733)
(598.19222 115.90881 -30.10972)
(613.09102 112.23115 -22.453472)
(624.76568 113.22023 -12.898802)
(636.11397 119.6925 -2.3152376)
(649.76101 131.98277 8.6998515)
(668.23825 149.91432 19.775681)
(693.69689 172.9795 30.838)
(728.27383 200.20982 41.413976)
(774.00042 230.57078 51.002173)
(832.83749 262.13276 58.756665)
(906.38211 293.10318 63.554496)
(995.32323 321.47842 64.678786)
(1099.2804 345.34777 61.761866)
(1216.855 363.07744 54.755855)
(1345.2187 373.62239 44.520914)
(1480.6756 376.54514 32.148633)
(1619.063 372.20602 19.226097)
(1756.4485 361.55811 7.1688856)
(1889.0648 345.77131 -2.6368718)
(2014.6121 327.23336 -9.3240806)
(2131.893 306.4493 -12.276246)
(2240.9875 286.22979 -12.386341)
(2342.67 266.26726 -9.5472624)
(2439.1696 248.51717 -5.3401487)
(2531.9395 232.35522 -0.24472713)
(2623.7569 218.00877 4.3232272)
(2715.3744 205.46525 8.1658416)
(2808.4144 193.35491 10.967804)
(2902.8657 182.40553 12.808156)
(2997.7174 171.28866 14.206565)
(16.403426 -35.654266 -43.739774)
(43.331211 -57.715028 -43.276647)
(73.939039 -78.116226 -40.181777)
(102.25243 -92.748539 -38.263602)
(133.22312 -106.71358 -34.366969)
(163.47687 -118.88044 -31.856117)
(193.5024 -130.214 -29.581237)
(225.92578 -140.97499 -26.997618)
(260.54871 -151.44175 -23.607031)
(299.06227 -160.30077 -18.63812)
(341.35135 -167.53667 -11.922893)
(385.65076 -171.55332 -4.818103)
(430.85321 -172.03352 2.4167712)
(473.44982 -168.95752 8.2274315)
(511.72902 -162.69515 11.695877)
(543.4161 -154.38941 12.091879)
(567.94286 -145.65271 9.253137)
(585.47951 -138.2356 3.3410141)
(597.52609 -133.76936 -5.0404891)
(606.10781 -133.52285 -15.094569)
(613.92473 -138.67278 -26.162198)
(623.5639 -149.36897 -37.434638)
(637.79135 -166.33261 -48.196929)
(659.10445 -189.03008 -57.799635)
(689.40598 -217.18571 -65.984179)
(731.0615 -250.11418 -71.792416)
(785.14415 -287.1816 -74.534262)
(854.57402 -327.13978 -74.038276)
(938.82004 -368.11116 -70.058441)
(1037.6317 -408.51714 -62.40196)
(1149.7257 -446.7216 -51.856125)
(1272.3679 -480.95187 -39.233165)
(1402.5524 -509.97349 -25.804883)
(1536.5302 -533.09865 -12.836764)
(1670.8228 -550.13462 -1.4558253)
(1802.1177 -561.70489 7.4211439)
(1928.4776 -568.62532 13.486282)
(2048.0849 -572.69743 16.467326)
(2160.5651 -574.97589 16.965154)
(2266.8969 -577.06709 15.411907)
(2367.9042 -580.07454 12.628265)
(2465.2519 -584.77777 9.1921407)
(2560.4959 -591.36413 5.8989293)
(2655.1134 -600.01297 3.1198365)
(2749.9833 -610.14274 1.1436667)
(2845.7928 -621.40003 -0.029705164)
(2944.732 -633.63067 -0.58802939)
(0 0 0)
(0 0 0)
(0 0 0)
(0 0 0)
(0 0 0)
(0 0 0)
(0 0 0)
(23.433691 -22.927754 34.400762)
(43.707546 -60.755466 38.337119)
(68.722439 -69.607718 31.794484)
(100.16613 -88.341782 30.140987)
(130.05941 -101.0062 25.07521)
(160.06009 -112.23285 22.178413)
(191.29434 -123.32683 19.661811)
(223.42713 -132.77683 17.52471)
(258.78336 -141.50081 14.22926)
(296.87412 -148.92861 10.112745)
(339.22476 -153.59427 3.1940312)
(384.40034 -156.14416 -5.0284795)
(430.22868 -155.54935 -14.427541)
(474.72587 -152.13198 -23.237638)
(514.43104 -146.72613 -29.911084)
(547.65056 -139.96973 -33.5719)
(573.46121 -133.54702 -33.328121)
(591.9215 -128.64684 -29.396596)
(604.5054 -126.81753 -22.141779)
(613.36703 -129.19269 -12.436952)
(621.16003 -136.62839 -1.1291745)
(630.67548 -149.70367 10.940551)
(644.67848 -168.53141 23.004834)
(665.67469 -193.00182 34.462787)
(696.86508 -223.16103 43.951588)
(741.439 -257.73604 50.393219)
(797.88824 -296.15314 55.540731)
(868.32815 -336.49287 57.674432)
(953.45851 -377.16491 56.557545)
(1052.5655 -416.61816 52.075869)
(1164.054 -453.16708 44.627921)
(1285.5134 -485.57658 34.989075)
(1413.876 -512.76509 24.052923)
(1545.7783 -534.40468 12.982685)
(1678.0981 -550.36169 2.9362772)
(1807.1669 -562.33873 -5.3518409)
(1933.2275 -568.62525 -10.839946)
(2050.5634 -573.13289 -14.077329)
(2162.9743 -576.30072 -14.548641)
(2268.9081 -578.92246 -12.820454)
(2369.7177 -582.22992 -9.6576657)
(2467.1528 -586.75138 -5.9890812)
(2562.4711 -592.87524 -2.4834267)
(2657.1755 -600.60931 0.19873138)
(2752.048 -609.70431 1.7995429)
(2847.5863 -619.87502 2.4771515)
(2940.9677 -629.99473 2.4622022)
(3092.6474 -551.2124 4.1753445)
(3109.3809 -452.14847 5.9541796)
(3089.485 -348.08435 7.6026989)
(3049.0831 -244.47444 8.7495775)
(3027.0939 -144.53118 9.6203724)
(3034.4539 -47.517635 10.176772)
(3076.9086 49.177609 10.905477)
(3006.6375 159.02623 10.590469)
(2913.5792 170.90498 10.075149)
(2819.6188 183.15018 10.404679)
(2726.1892 196.39854 11.09619)
(2633.2656 210.78624 12.473583)
(2539.7552 227.09666 14.201966)
(2444.5279 245.194 16.172698)
(2345.9645 265.17381 17.885101)
(2242.5099 286.28295 18.941707)
(2132.7449 307.53791 18.726909)
(2015.6208 327.11427 16.481521)
(1891.4311 346.29616 11.903969)
(1761.213 358.65672 5.312091)
(1626.795 366.5653 -3.2887245)
(1491.001 367.81283 -13.700546)
(1357.3158 362.05329 -25.014818)
(1229.4151 349.45026 -36.192365)
(1110.8436 330.74265 -46.322953)
(1004.3699 307.00372 -54.355753)
(911.98362 279.89911 -59.797303)
(834.62736 251.07338 -62.213169)
(772.07359 222.19771 -61.517843)
(723.58487 194.94508 -58.042116)
(687.13372 170.77222 -52.099217)
(660.95811 150.68382 -44.242908)
(642.54831 135.58071 -34.903033)
(629.31417 125.93221 -24.76049)
(618.42338 121.81537 -14.418545)
(606.96308 122.79497 -4.7519393)
(592.29262 128.05577 3.4147149)
(572.15643 136.07278 9.3392709)
(545.32369 145.40705 12.63907)
(511.75989 153.91871 12.309536)
(471.3658 161.52456 9.4018689)
(427.56101 164.71992 5.2715886)
(382.02838 163.87948 -1.398882)
(337.47567 160.79745 -7.1164409)
(295.91424 154.53961 -12.713478)
(257.40235 146.27373 -16.787456)
(223.37225 136.51966 -20.244693)
(190.98172 125.99061 -22.68666)
(160.00012 115.82448 -25.340395)
(130.15943 102.94489 -27.656973)
(99.56541 90.360519 -31.687319)
(71.111365 73.215221 -33.226714)
(44.986612 54.967645 -33.977427)
(31.064857 36.58373 -27.544308)
(0 0 0)
(0 0 0)
(0 0 0)
(0 0 0)
(0 0 0)
(0 0 0)
(0 0 0)
(0 0 0)
(0 0 0)
(0 0 0)
(0 0 0)
(0 0 0)
(0 0 0)
(0 0 0)
(3046.5665 -646.19009 -0.52979703)
(3046.9661 -645.81397 0.15856222)
(3047.0732 -645.18062 0.85045375)
(3047.0472 -644.53515 1.5888548)
(3047.2205 -644.15312 2.1035305)
(3047.8387 -644.12926 2.3931959)
(3048.9674 -644.40256 2.4813198)
(3115.1388 158.06203 15.808144)
(3116.6156 156.21048 15.043043)
(3117.5586 154.41438 14.175535)
(3117.8395 152.58319 13.300198)
(3117.6064 150.80504 12.553172)
(3117.0904 149.31092 11.868791)
(3116.8005 148.13663 11.445576)
(10.189651 18.166775 26.580993)
(31.209018 30.455085 24.468935)
(57.744575 43.850205 24.671363)
(86.794314 56.391973 21.699241)
(117.23888 68.42686 19.029585)
(146.53684 78.711934 17.229709)
(176.6749 87.842616 15.542095)
(207.50502 95.087895 14.111471)
(241.56132 100.9906 12.105476)
(279.92271 104.99293 8.6555621)
(323.30295 107.64021 3.6842163)
(370.78436 108.89618 -3.1445661)
(420.55673 108.81917 -10.513032)
(469.40766 107.67039 -17.57314)
(514.10501 105.48433 -23.313109)
(551.95282 102.74457 -26.335352)
(581.60728 100.05256 -26.607671)
(603.03876 98.09195 -23.941503)
(617.75745 97.813189 -18.846186)
(628.39464 100.08222 -12.094373)
(637.93787 105.63467 -4.2952223)
(649.44005 114.78192 3.8604561)
(665.69966 127.51445 12.171233)
(689.14712 143.26585 20.248709)
(722.24356 161.19452 27.95637)
(767.19217 180.02203 34.696013)
(825.94111 198.52834 40.176869)
(900.07497 215.5213 43.630443)
(990.13684 229.71209 44.690948)
(1095.6643 240.38309 42.934143)
(1214.8616 246.88188 38.604836)
(1344.6408 248.99961 32.041682)
(1480.9862 246.86776 24.028004)
(1619.6007 240.88859 15.508427)
(1756.214 231.59886 7.3897484)
(1887.363 219.8713 0.63587036)
(2010.6819 206.41325 -4.3024918)
(2124.8778 191.73285 -6.7838309)
(2230.5286 176.85888 -7.3672436)
(2328.5487 161.75178 -5.9306002)
(2420.9705 147.31124 -3.3916965)
(2509.8104 133.05471 -0.10839879)
(2597.478 119.75425 3.1533228)
(2685.2002 106.87495 6.1533032)
(2774.6192 94.599512 8.5131369)
(2865.6215 83.177097 10.491946)
(2960.8204 72.037805 12.089391)
(4.9084395 11.070565 16.456472)
(24.547547 16.974307 15.650418)
(51.645476 26.005627 14.879485)
(81.302874 35.811248 12.912053)
(111.3144 43.603642 11.168808)
(142.34784 51.619869 9.6886343)
(173.13891 57.942008 8.3972362)
(205.23468 63.203832 7.7067737)
(240.30833 66.720561 6.0267733)
(279.34762 68.917604 3.7850183)
(323.15098 69.645037 0.25717614)
(371.04737 69.382769 -4.2622722)
(420.86213 68.520578 -9.5405323)
(470.02298 67.448572 -14.727219)
(515.06885 66.267639 -18.870333)
(553.24846 65.245442 -21.379305)
(583.15069 64.480504 -21.900845)
(604.46759 64.423952 -20.322457)
(618.70586 65.338405 -17.054491)
(628.29845 67.847332 -12.41108)
(636.39744 72.176243 -6.9806278)
(646.19781 78.671497 -1.1304155)
(660.57227 87.181597 4.8542887)
(682.61515 97.549017 10.827955)
(714.6705 108.68839 16.422589)
(758.9959 120.00042 21.598091)
(817.72251 130.3583 25.710367)
(891.96027 138.67286 28.495559)
(982.14742 144.5062 29.607724)
(1087.7026 147.20062 28.83902)
(1206.5594 146.64012 26.271567)
(1335.564 142.90827 22.214979)
(1470.8116 136.37868 17.120185)
(1607.9987 127.56637 11.615211)
(1743.0193 117.03281 6.3812543)
(1872.6124 105.3858 1.8815709)
(1994.415 93.195299 -1.3087498)
(2107.3712 80.483087 -3.074423)
(2212.0156 68.294388 -3.5843493)
(2308.9518 55.519643 -2.5925519)
(2400.723 43.595021 -1.1350391)
(2488.7285 31.312046 1.1297778)
(2575.7684 19.468215 3.2222284)
(2662.7477 7.6843945 5.2482882)
(2751.4977 -3.8583811 7.0414469)
(2841.9931 -15.0594 8.5281123)
(2935.9508 -26.112337 10.037179)
(3.0190418 4.3225744 7.8232457)
(21.910889 6.2130932 6.1291401)
(49.397515 11.111791 5.7512585)
(78.168545 15.395242 4.3690505)
(110.54585 19.929517 3.0447384)
(141.74759 23.969233 1.9422196)
(173.84875 27.523752 1.562575)
(207.2871 29.873576 0.7223383)
(243.48211 31.47224 0.084863562)
(283.55791 31.805291 -1.0294183)
(327.91294 31.51545 -2.9679609)
(375.45604 30.538139 -5.4909618)
(424.75913 29.655207 -8.5610578)
(472.55397 28.741779 -11.496719)
(515.98336 27.80861 -14.088161)
(552.69864 27.327268 -15.848503)
(580.99621 27.176448 -16.428426)
(600.99017 27.56312 -15.979988)
(613.97326 28.554823 -14.405682)
(622.26467 30.33907 -12.135752)
(628.88363 32.948787 -9.4007755)
(636.99532 36.489995 -6.3932129)
(650.13179 41.075436 -3.1468746)
(670.66731 45.877422 -0.071453663)
(701.34143 50.99558 3.314986)
(744.38747 55.492317 6.3393294)
(801.74317 58.836067 9.1157825)
(874.38559 60.405298 11.506493)
(962.89281 59.780794 13.143304)
(1066.5465 56.624467 13.930365)
(1183.4595 51.065266 13.81246)
(1310.8341 43.202647 12.747077)
(1444.888 33.506289 10.908251)
(1581.5571 22.475659 8.5670749)
(1716.9727 10.555522 6.0186201)
(1847.7869 -1.537308 3.5919741)
(1971.5876 -13.828542 1.6638963)
(2087.4231 -25.484489 0.32150678)
(2195.0351 -37.131365 -0.15265026)
(2295.5971 -48.364581 0.042980224)
(2390.8192 -59.056537 0.64470078)
(2482.3987 -70.295461 1.977807)
(2572.8145 -80.933574 3.0184927)
(2662.9567 -92.138134 4.5444197)
(2754.8873 -103.29732 5.5901463)
(2848.3075 -114.44147 6.8057542)
(2943.2404 -125.59997 7.9910896)
(2.7192583 -0.70714026 -1.2993642)
(22.089037 -1.7046722 -3.4417004)
(49.840748 -1.8476812 -4.414779)
(81.263495 -1.8838492 -5.4843848)
(113.57172 -2.3306521 -5.8040723)
(146.14658 -2.5001549 -5.7573717)
(179.09608 -2.836752 -5.8888981)
(213.45184 -3.6108794 -5.4030773)
(250.45348 -4.5490521 -5.0890709)
(291.05316 -6.0046095 -5.1089931)
(335.40861 -7.5501281 -5.397237)
(382.76817 -9.2698877 -6.1781655)
(430.68667 -10.767793 -7.3175231)
(476.47085 -12.224784 -8.51258)
(517.69347 -13.130822 -10.064597)
(551.67398 -13.601381 -11.138331)
(577.43427 -13.725851 -12.09883)
(595.12456 -13.392999 -12.550576)
(606.16729 -12.809488 -12.67837)
(612.91752 -11.995622 -12.656292)
(618.39602 -10.950919 -12.319465)
(625.99371 -9.8254148 -11.671473)
(637.82791 -9.1776106 -11.200413)
(657.13841 -8.2886807 -10.141808)
(686.36946 -8.2130728 -9.1059464)
(727.6046 -9.1762396 -7.6250565)
(782.57644 -11.561816 -5.8054857)
(852.65508 -15.688991 -3.832568)
(938.33693 -21.734098 -1.8464183)
(1039.1534 -29.848289 0.1639546)
(1153.6368 -39.870218 1.8723928)
(1279.2311 -51.631392 3.2592246)
(1412.4995 -64.605422 4.174734)
(1549.7052 -78.32093 4.6337772)
(1686.9406 -92.202415 4.6586311)
(1820.8464 -105.88253 4.390331)
(1949.013 -118.76986 3.9226831)
(2069.8171 -131.03542 3.4779274)
(2183.0709 -142.44379 3.1064525)
(2289.4348 -152.98157 2.8487249)
(2390.4399 -163.3921 3.0248979)
(2487.7794 -173.64182 3.2590266)
(2583.6216 -183.8827 3.6542513)
(2679.0629 -194.73651 4.2119162)
(2775.8963 -205.62714 4.5929809)
(2873.7069 -217.03419 5.2695484)
(2971.6272 -228.53977 5.7852502)
(3.7302875 -6.5745497 -10.464006)
(24.454133 -11.633154 -13.647394)
(54.652484 -16.761962 -14.618825)
(85.684687 -22.757149 -14.039044)
(119.46784 -28.095516 -13.514591)
(152.2859 -32.761637 -12.962901)
(185.80315 -36.934582 -12.008765)
(220.19095 -40.366734 -10.920799)
(257.37581 -43.418604 -9.8442042)
(297.9533 -46.068412 -8.5471675)
(342.32929 -48.19497 -7.3974723)
(388.73326 -50.182943 -6.511008)
(435.30643 -51.732524 -5.7566234)
(479.22076 -52.75251 -5.685951)
(517.8284 -53.228578 -5.9687079)
(549.13457 -53.224396 -6.7694328)
(572.40674 -52.84539 -8.0357616)
(587.92785 -52.280886 -9.5806847)
(597.36869 -51.759085 -11.481376)
(602.914 -51.663752 -13.489143)
(607.64633 -51.817416 -15.413986)
(614.39715 -53.267569 -17.766754)
(626.41102 -55.501058 -19.379696)
(644.77512 -59.246895 -20.834888)
(672.9651 -64.393315 -21.657215)
(712.8048 -70.85489 -21.851746)
(766.2717 -78.950567 -21.272519)
(834.47585 -88.595642 -19.82685)
(918.11857 -100.01774 -17.482188)
(1016.9471 -113.11091 -14.39089)
(1129.7195 -127.8024 -10.768543)
(1254.1386 -143.75247 -6.9068932)
(1387.0811 -160.46705 -3.1602158)
(1524.8839 -177.30837 0.15122493)
(1663.7642 -193.89471 2.8749201)
(1800.3455 -209.36418 4.7065309)
(1931.8278 -223.73554 5.8708258)
(2056.7463 -236.62491 6.247341)
(2175.9396 -248.52016 6.1242798)
(2287.9562 -259.30387 5.8473527)
(2393.779 -269.27119 5.147216)
(2495.9345 -279.03627 4.640919)
(2595.9957 -288.95402 4.1004007)
(2695.612 -299.45035 3.8105327)
(2795.9346 -310.40107 3.5961133)
(2897.2092 -322.16644 3.5769327)
(2997.8069 -334.08712 3.6497271)
(5.3629599 -13.739835 -20.217176)
(28.62556 -22.731363 -23.372354)
(59.812457 -34.0471 -23.393778)
(91.846895 -44.902312 -22.579935)
(125.24937 -54.516592 -21.248612)
(157.64608 -62.987525 -19.683211)
(190.14078 -69.712404 -18.042493)
(224.17639 -75.358277 -16.417921)
(260.73744 -79.703846 -14.16394)
(301.24506 -83.275883 -11.709419)
(345.07259 -86.004642 -8.9455634)
(391.01425 -88.215951 -5.8942462)
(436.82759 -89.516701 -3.4450316)
(479.81312 -90.150802 -1.6966231)
(517.45612 -90.085522 -1.0813102)
(547.87791 -89.431531 -1.7277128)
(570.40788 -88.58777 -3.6167026)
(585.45522 -87.842298 -6.584939)
(594.72272 -87.843799 -10.436323)
(600.4819 -88.826873 -14.82061)
(605.16126 -91.551112 -19.736882)
(612.68868 -95.339677 -24.181647)
(623.72765 -101.61307 -28.56)
(642.72033 -110.7069 -32.346556)
(670.72762 -121.15656 -35.610958)
(709.94427 -133.75277 -37.596918)
(762.43698 -147.79793 -37.91198)
(829.53925 -163.79465 -36.720452)
(911.98895 -181.34083 -33.923294)
(1009.7749 -200.53675 -29.548803)
(1121.6263 -220.87207 -23.913189)
(1245.4175 -241.8652 -17.46554)
(1378.044 -262.82309 -10.823078)
(1515.9123 -283.14208 -4.4838112)
(1655.2306 -301.94359 0.9218344)
(1792.521 -318.9883 5.1419542)
(1925.1855 -333.82912 7.9113567)
(2051.2181 -346.4837 9.2462948)
(2170.2352 -357.50187 9.6197523)
(2285.358 -367.66996 8.6681181)
(2392.0981 -376.53832 7.5755052)
(2494.9702 -385.3157 6.1544308)
(2595.713 -394.33571 4.757841)
(2695.898 -404.15616 3.6644482)
(2796.5764 -414.64324 2.7844448)
(2898.1431 -426.22748 2.2075877)
(2999.9208 -438.19085 1.9165443)
(8.8157309 -21.697767 -28.61997)
(34.311976 -33.303244 -33.036156)
(66.253603 -50.957839 -32.585446)
(96.873214 -65.219504 -30.558746)
(129.65458 -78.368075 -27.979317)
(160.2459 -89.595622 -25.796491)
(191.96155 -99.134242 -23.773462)
(224.65271 -107.47167 -21.379974)
(260.5401 -114.18534 -18.447286)
(300.44662 -119.97859 -14.749236)
(343.90967 -124.25843 -10.064965)
(389.85523 -127.4196 -5.2520759)
(435.65044 -128.83334 -0.90334202)
(478.93194 -128.91877 2.5112668)
(516.84368 -127.48937 4.1806686)
(547.63113 -125.13778 3.903147)
(570.52171 -122.45973 1.5579192)
(585.98725 -120.20111 -2.6889271)
(595.71231 -119.25587 -8.4092251)
(601.76131 -120.29589 -15.316814)
(607.30186 -123.97777 -22.579451)
(614.24863 -130.66751 -30.183447)
(626.42208 -140.63611 -37.259637)
(645.46265 -154.41364 -43.727834)
(674.03331 -170.92779 -49.189057)
(713.81092 -190.58069 -52.913414)
(767.0456 -212.95286 -54.549339)
(835.24283 -237.57151 -54.083425)
(919.01546 -264.12669 -50.997133)
(1018.0209 -291.98826 -45.446808)
(1130.9019 -320.18363 -37.803131)
(1255.3069 -347.8069 -28.735541)
(1387.921 -373.84658 -19.040605)
(1525.109 -397.32182 -9.6371685)
(1662.9884 -417.71945 -1.3311284)
(1798.3468 -434.57815 5.2894093)
(1928.4194 -448.07791 9.8442696)
(2051.8033 -458.73804 12.313255)
(2167.9309 -467.11557 12.833188)
(2277.5949 -474.21103 11.913403)
(2381.6261 -480.77574 10.019986)
(2481.9334 -487.79602 7.7042709)
(2580.2008 -495.62743 5.4323576)
(2677.9655 -504.56167 3.5188653)
(2776.1755 -514.66811 2.0848799)
(2875.4525 -525.80104 1.1240095)
(2974.5941 -537.41794 0.63051862)
(0 0 0)
(0 0 0)
(0 0 0)
(0 0 0)
(0 0 0)
(0 0 0)
(0 0 0)
(0 0 0)
(0 0 0)
(0 0 0)
(0 0 0)
(0 0 0)
(0 0 0)
(0 0 0)
(0 0 0)
(0 0 0)
(0 0 0)
(0 0 0)
(0 0 0)
(0 0 0)
(0 0 0)
(0 0 0)
(0 0 0)
(0 0 0)
(0 0 0)
(0 0 0)
(0 0 0)
(0 0 0)
(0 0 0)
(0 0 0)
(0 0 0)
(0 0 0)
(0 0 0)
(0 0 0)
(0 0 0)
(0 0 0)
(0 0 0)
(0 0 0)
(0 0 0)
(0 0 0)
(0 0 0)
(0 0 0)
(0 0 0)
(0 0 0)
(0 0 0)
(0 0 0)
(0 0 0)
(0 0 0)
(0 0 0)
(28.755283 -14.742144 -21.845234)
(31.77447 -16.894293 -13.562768)
(34.62657 -17.545382 -7.0882544)
(35.868594 -18.450456 -1.4501849)
(34.818839 -16.878675 4.597069)
(33.229711 -16.7623 10.629834)
(28.472574 -14.044861 18.17969)
(54.353932 -55.671095 -34.060046)
(60.886526 -56.337189 -20.033377)
(63.198369 -53.87098 -9.4270682)
(62.975669 -52.124425 -2.1217644)
(62.875235 -53.216997 5.9007711)
(58.669351 -52.884726 14.517202)
(54.305301 -54.09143 26.410287)
(79.837332 -77.226592 -30.520678)
(84.931233 -74.848208 -21.574415)
(88.709217 -73.461816 -12.454175)
(89.615901 -72.608182 -2.0829464)
(87.602241 -71.956994 7.2253991)
(83.534403 -72.180083 15.680983)
(78.939566 -72.869824 25.349956)
(109.03916 -93.520582 -31.048999)
(115.36475 -92.267337 -22.698319)
(117.95026 -91.023976 -12.830355)
(119.00091 -90.287751 -3.3597878)
(116.81621 -89.624515 5.4204381)
(114.08697 -88.722666 14.528852)
(106.88098 -89.385131 22.531152)
(139.03102 -109.0403 -27.497862)
(143.11478 -108.11005 -20.448674)
(146.15799 -107.03756 -12.674408)
(146.95675 -105.87283 -3.9902523)
(145.25959 -105.08574 4.8314231)
(141.51555 -104.34345 12.429702)
(136.76176 -103.49865 19.482179)
(168.12545 -119.9164 -25.987211)
(172.69434 -119.78723 -19.415876)
(175.01872 -119.06722 -11.575902)
(175.86315 -117.53159 -3.8840891)
(174.05329 -116.84087 3.5333318)
(171.75155 -114.85774 10.821682)
(166.02444 -114.47331 17.125163)
(198.75674 -131.79557 -23.717091)
(202.4952 -132.09212 -17.790928)
(204.98532 -131.3163 -11.107724)
(205.42761 -130.13824 -4.0080804)
(204.12097 -128.70529 2.9193595)
(200.97015 -127.07959 9.3523574)
(197.10498 -125.32229 14.999567)
(230.44136 -142.8463 -21.410375)
(233.60636 -142.96489 -15.568122)
(235.32757 -142.04175 -9.6110609)
(235.85943 -140.5333 -4.0279213)
(235.14107 -139.25414 2.1741009)
(232.65066 -136.77474 7.7177125)
(228.81233 -135.31957 12.969589)
(264.3534 -153.66816 -18.374586)
(267.20322 -154.03967 -13.485912)
(268.75186 -152.99721 -8.3760827)
(269.03445 -151.32648 -3.3448612)
(268.15167 -149.37219 1.1266335)
(266.43231 -147.02201 5.9039711)
(263.73909 -144.96978 10.5392)
(302.07666 -163.40896 -14.033154)
(303.55773 -163.38559 -10.194582)
(304.2635 -161.9195 -6.4818021)
(304.45165 -160.09152 -3.1807129)
(303.91424 -157.74533 -0.23600041)
(303.05144 -155.54235 3.4382498)
(300.73143 -153.35429 7.0185576)
(342.33218 -170.9639 -8.9719807)
(342.98532 -170.87071 -6.6448034)
(342.65686 -169.11361 -4.9479591)
(342.7317 -167.00447 -3.5357406)
(342.381 -164.443 -2.1885779)
(342.39198 -162.38147 -0.39148197)
(341.22117 -159.92851 1.3324116)
(384.77032 -174.86703 -3.5913355)
(384.04554 -174.43069 -3.2308828)
(382.87751 -172.32015 -3.6258623)
(382.70085 -170.34452 -4.5196832)
(382.73153 -167.82801 -5.4712647)
(383.78411 -165.85912 -5.5876176)
(384.20082 -163.06085 -5.7590762)
(427.35506 -174.82602 1.4525759)
(425.4467 -174.04091 -0.45331702)
(423.51892 -172.15355 -3.0621859)
(423.28838 -169.91502 -6.0439234)
(423.525 -167.38849 -8.7558511)
(425.5991 -165.32945 -10.957012)
(427.39582 -162.52253 -13.556766)
(468.20637 -170.48425 5.3543679)
(465.20101 -169.58448 1.4122376)
(462.70288 -167.40172 -3.0349611)
(462.38513 -165.17947 -7.7063549)
(462.84094 -162.77169 -12.442018)
(466.07923 -161.01516 -16.615701)
(469.07548 -158.17616 -21.138977)
(505.10051 -162.51357 7.1556397)
(501.4029 -161.42754 1.8800139)
(498.67643 -159.46356 -3.9911369)
(498.37815 -157.26601 -9.9236879)
(499.19141 -155.02496 -15.771082)
(502.99316 -153.16549 -21.160968)
(507.14368 -150.69585 -26.864573)
(536.50381 -152.27196 6.8533226)
(532.57439 -151.23001 0.92857405)
(529.91751 -149.27938 -5.4869541)
(529.76373 -147.18675 -11.809058)
(530.70658 -145.1435 -18.042746)
(534.94295 -143.5137 -24.103568)
(539.46103 -141.52976 -30.108395)
(561.67913 -141.66915 4.0773881)
(558.02323 -140.55818 -1.5282525)
(555.945 -138.88671 -7.5806614)
(555.86818 -136.94588 -13.445224)
(556.99597 -135.22648 -19.275183)
(561.09183 -133.71852 -24.908978)
(565.53222 -132.34038 -30.224792)
(580.86616 -132.61259 -0.77730098)
(578.06198 -131.5405 -5.203949)
(576.79378 -130.13112 -10.011198)
(576.88205 -128.36317 -14.596998)
(578.10275 -126.92742 -19.078577)
(581.57495 -125.68979 -23.605895)
(585.41017 -124.84164 -27.295776)
(595.29849 -126.94813 -7.3330807)
(593.72684 -125.90568 -9.7828952)
(593.48681 -124.71592 -12.65972)
(593.78582 -123.16284 -15.244453)
(594.97522 -122.10768 -17.742643)
(597.50025 -121.12402 -20.398617)
(600.21872 -120.77857 -21.708304)
(606.83821 -126.10126 -15.023741)
(606.75439 -125.09406 -14.948396)
(607.77137 -124.23926 -15.385387)
(608.26035 -122.97421 -15.453512)
(609.40265 -122.23376 -15.407902)
(610.66008 -121.5482 -15.749437)
(611.98493 -121.52896 -14.099288)
(617.8097 -131.08987 -23.318482)
(619.44236 -130.23385 -20.382777)
(621.70489 -129.61812 -18.048617)
(622.41518 -128.58949 -15.28951)
(623.43373 -128.21653 -12.42893)
(623.28992 -127.70789 -10.130362)
(623.00124 -128.02977 -5.1787316)
(630.73946 -142.4073 -31.664671)
(634.07738 -141.73209 -25.748093)
(637.63909 -141.33867 -20.520002)
(638.54741 -140.76014 -14.852868)
(639.45048 -140.59707 -9.0139816)
(637.79663 -140.34941 -3.9445683)
(635.88623 -140.87671 4.4153642)
(648.04891 -160.3642 -39.509485)
(653.13986 -159.84878 -30.739677)
(657.76947 -159.72662 -22.714462)
(659.00987 -159.56285 -14.177854)
(659.66301 -159.72265 -5.4811855)
(656.70851 -159.6304 2.3573309)
(653.1383 -160.30247 14.058962)
(672.0399 -184.4945 -46.434255)
(678.80721 -184.41815 -35.169658)
(684.38147 -184.45311 -24.524419)
(686.02229 -185.03732 -13.273966)
(686.49324 -185.11253 -2.0674157)
(682.38139 -185.1038 8.6638873)
(677.15626 -185.96409 23.247499)
(704.64545 -214.63419 -52.447519)
(713.25773 -214.74936 -38.645591)
(719.27328 -215.15691 -25.7624)
(721.78706 -216.16749 -12.059561)
(721.51607 -216.34162 1.0943567)
(716.83489 -217.11041 14.425074)
(710.15887 -218.25938 30.761758)
(747.93644 -249.91609 -56.429673)
(757.94626 -250.34168 -41.066795)
(764.50741 -251.56335 -26.205376)
(767.19457 -252.53054 -10.162793)
(766.46258 -253.15128 3.6481553)
(762.22667 -253.6734 19.089297)
(754.86596 -254.86329 35.665766)
(803.3269 -289.35429 -58.270784)
(814.49258 -290.23868 -42.079306)
(821.54183 -291.96043 -25.270457)
(825.26171 -293.02463 -9.5963863)
(824.61023 -293.75332 6.6191861)
(819.83388 -294.02825 23.118564)
(811.42967 -295.36678 39.910627)
(873.05549 -331.63143 -57.58341)
(883.97531 -333.02321 -40.578269)
(891.93717 -335.00343 -23.813191)
(894.92835 -335.77773 -7.822653)
(894.71317 -336.47068 8.9751729)
(889.84295 -336.45322 25.015575)
(881.71846 -337.76166 42.160745)
(956.28566 -374.77193 -53.976356)
(967.45688 -376.73498 -37.246721)
(974.68118 -378.66004 -21.493359)
(978.24459 -379.42817 -5.5503211)
(977.75521 -380.17728 10.092128)
(973.65355 -379.91277 25.677624)
(965.54566 -380.69144 41.713778)
(1053.5441 -417.16664 -47.617552)
(1063.6561 -419.33063 -32.493541)
(1070.6244 -421.17372 -17.993337)
(1073.7718 -421.78442 -3.7445897)
(1073.5525 -422.25232 10.552674)
(1069.993 -421.67943 24.547907)
(1062.6989 -421.93267 38.749582)
(1162.8738 -456.5214 -39.230094)
(1171.9166 -458.82987 -26.234004)
(1177.7787 -460.42429 -14.119648)
(1180.7145 -460.80743 -1.9629097)
(1180.6024 -460.96605 10.008065)
(1177.8571 -460.2573 21.8166)
(1171.7456 -459.84765 33.422765)
(1282.484 -491.1853 -29.332815)
(1289.7495 -493.42726 -19.314526)
(1294.4797 -494.70041 -9.8734309)
(1296.9706 -494.83146 -0.60672196)
(1297.051 -494.75635 8.6855661)
(1295.1899 -493.94581 17.716823)
(1290.5382 -492.92927 26.377595)
(1409.2581 -519.79389 -19.061261)
(1414.6121 -521.86388 -12.179652)
(1418.0491 -522.84245 -5.8865641)
(1420.0229 -522.75183 0.37422415)
(1420.2931 -522.47459 6.6861441)
(1419.2711 -521.60457 12.736666)
(1416.2323 -520.15243 18.290095)
(1540.0209 -541.76767 -9.2475976)
(1543.3741 -543.60521 -5.6247462)
(1545.5522 -544.21932 -2.3152233)
(1546.9936 -543.96921 0.93919497)
(1547.4294 -543.57735 4.3600323)
(1547.1602 -542.79451 7.4524989)
(1545.7058 -541.15375 10.076105)
(1671.4402 -557.1606 -0.82608997)
(1672.9529 -558.63104 -0.052537086)
(1674.0154 -559.01452 0.50441931)
(1674.9525 -558.7302 1.1357576)
(1675.4692 -558.34154 1.9316144)
(1675.8511 -557.69152 2.3601921)
(1676.1071 -556.04518 2.4425167)
(1800.5685 -566.78659 5.6392768)
(1800.6035 -567.89234 4.0700487)
(1800.8248 -568.07515 2.4899185)
(1801.3355 -567.81321 1.0336599)
(1802.0495 -567.41169 -0.1842447)
(1803.2288 -566.86778 -1.7537711)
(1804.4721 -565.84356 -3.3255345)
(1925.5969 -571.74077 9.9565554)
(1924.2569 -572.55606 7.0062334)
(1923.8506 -572.67131 3.8821393)
(1924.0889 -572.50594 1.023112)
(1924.9514 -572.38377 -1.6010265)
(1925.6074 -572.25153 -4.6233196)
(1928.2868 -571.68463 -8.1928865)
(2043.6931 -573.92483 12.241126)
(2042.4506 -574.38655 7.9161544)
(2041.7421 -574.47609 4.27821)
(2041.8142 -574.42362 0.63573913)
(2042.6482 -574.50458 -2.6395883)
(2044.7043 -574.50468 -6.3778781)
(2046.8899 -574.35016 -10.029928)
(2156.6508 -574.85336 12.398099)
(2154.8457 -575.00451 8.1722732)
(2154.0681 -575.11213 4.3558377)
(2154.1375 -575.20639 0.73671401)
(2154.9461 -575.4111 -2.6844172)
(2156.4639 -575.5964 -6.4522472)
(2159.0969 -575.99843 -10.37661)
(2263.1824 -575.90225 11.307351)
(2261.5143 -575.91224 7.4403447)
(2260.9792 -576.05132 4.0754457)
(2261.0957 -576.21413 0.91198919)
(2261.9066 -576.56499 -2.1464624)
(2263.4229 -576.96035 -5.5295346)
(2266.0785 -577.73617 -8.9372984)
(2364.8226 -578.35441 9.2671476)
(2363.5948 -578.22075 6.2345298)
(2363.3294 -578.39576 3.6406149)
(2363.5195 -578.6394 1.2030947)
(2364.3312 -579.1051 -1.1823485)
(2365.7067 -579.57402 -3.7603769)
(2368.0106 -580.55472 -6.4773575)
(2462.9166 -582.8702 6.9111529)
(2462.227 -582.66156 4.841521)
(2462.215 -582.81485 3.1767483)
(2462.5737 -583.08774 1.5718839)
(2463.3486 -583.5383 0.030670997)
(2464.5782 -584.06366 -1.7520871)
(2466.486 -585.08333 -3.6051088)
(2558.8695 -589.65849 4.6131865)
(2558.6738 -589.36426 3.4813807)
(2558.9852 -589.52129 2.6985551)
(2559.4347 -589.73658 1.9013551)
(2560.2314 -590.17285 1.0914536)
(2561.2473 -590.66176 0.12054012)
(2562.8462 -591.52883 -0.90443742)
(2653.9754 -598.5699 2.6979398)
(2654.2734 -598.25856 2.3616038)
(2654.7334 -598.31432 2.2649813)
(2655.3239 -598.42619 2.1107279)
(2656.0278 -598.7378 1.9081911)
(2656.9729 -599.1396 1.5534349)
(2658.2556 -599.85147 1.1209061)
(2749.1802 -609.06765 1.2907779)
(2749.7242 -608.73977 1.5038704)
(2750.3232 -608.66871 1.9104437)
(2750.8922 -608.63393 2.1721329)
(2751.602 -608.78281 2.3662546)
(2752.3908 -609.09559 2.3262971)
(2753.556 -609.58655 2.2664027)
(2845.0419 -620.653 0.36294327)
(2845.7124 -620.2535 0.9674813)
(2846.2897 -620.04754 1.6091018)
(2846.8617 -619.79879 2.152793)