/*--------------------------------*- C++ -*----------------------------------*\
  =========                 |
  \\      /  F ield         | OpenFOAM: The Open Source CFD Toolbox
   \\    /   O peration     | Website:  https://openfoam.org
    \\  /    A nd           | Version:  6
     \\/     M anipulation  |
\*---------------------------------------------------------------------------*/
FoamFile
{
    version     2.0;
    format      ascii;
    class       pointScalarField;
    location    "0.39";
    object      p;
}
// * * * * * * * * * * * * * * * * * * * * * * * * * * * * * * * * * * * * * //

dimensions      [1 -1 -2 0 0 0 0];

internalField   nonuniform List<scalar> 
3969
(
1249564.2
-1915226.1
145.46905
394.61622
2415228.8
-3882943.5
48.941222
8.1618624
1021056.1
695983.44
347874.51
-13494.414
-291382.72
-704527.08
-798360.06
-338.90289
-362.78144
-763.76803
-386.73594
198.99299
569.37131
601.52319
418801.41
461040.05
444164.27
460349.86
447008.38
440689.7
424260.83
408105.28
390455.16
369700.91
351821.93
333163.76
312666.67
294362.55
274345.24
253417.07
234738.91
214489.23
196608.59
177840.75
161562.03
145517.5
130996.97
117661.33
104915.01
93440.405
82808.7
73393.328
65181.749
57153.204
50468.627
44428.235
38859.582
34031.809
29686.261
25577.815
21678.63
18131.293
14539.666
11335.79
8333.3754
5654.5774
3315.2439
1168.9813
346.50625
-362.42702
-740.13992
-421344.19
-352125.3
-428539.27
-375849.13
-413117.25
-378751.38
-381120.34
-356509.66
-346388.8
-327426.92
-310823.66
-295480.1
-274024.11
-260363.48
-240923.62
-223583.65
-206587.71
-188275.24
-173111.12
-157043.08
-141741.95
-129090.29
-115167.83
-103609.21
-91657.349
-81092.31
-70497.751
-61468.923
-53536.377
-45970.362
-40532.297
-34451.691
-30203.236
-25797.037
-22354.49
-18759.227
-15672.888
-11953.553
-8884.8571
-5268.9048
-2111.7921
492.40914
2472.5303
3342.7266
3763.3141
2932.5591
1653.361
1803153.1
1361333.9
627525
-38684.199
-582579.54
-1319939.1
-1106454.3
-506673.01
-571687.16
-344470.73
-497999.61
-423782.42
-429378.02
-409498.28
-395131.48
-373630.11
-345954.85
-351798.07
-315606.06
-309733.18
-285444.4
-266961.11
-248926.12
-227147.85
-208989.53
-189249.08
-170376.52
-154223.61
-138542.06
-123955.25
-111095.5
-99353.535
-89626.707
-78906.321
-68172.309
-59373.71
-51243.789
-43352.584
-37137.625
-31435.095
-26576.176
-22627.439
-19133.519
-15315.463
-12975.078
-9826.5114
-7011.4097
-4222.812
-1869.0195
114.40667
1325.3859
1895.0878
1887.6455
1404.7995
1486.0077
1039.9463
859.47735
-195.00929
394.92038
-414.60434
-573.03503
-313.03566
-302.62372
-395.40398
264.33783
1708.082
3946.3918
7032.5721
10309.424
14500.607
18048.826
21952.634
27647.429
30548.893
35223.371
40091.509
45503.965
51895.53
59309.714
67343.43
76918.937
87539.271
98467.801
110994.72
124304.25
138773.48
154158.41
170466.96
187048.17
205788.47
224174.16
244797.76
263336.13
281276.67
302599.61
331380.28
343507.27
366380.76
380435.03
397833.73
423021.94
448785.42
442988.15
472525.36
464493.83
456683.88
481835.35
495953.61
1123102.5
1204361.1
1263943.6
1248875.6
1237077.3
1251504.5
1017708.1
-1505303
-1923524.4
-2204280.1
-2349964
-2229783.9
-2198134.8
-1667133.2
-1112.2528
-1407.1307
-1615.5682
-1302.2265
-916.54847
-592.72211
-778.73943
219.33703
633.23321
1070.0868
1333.3681
1354.3348
1397.4014
571.60609
352569.33
353931.3
351418.19
354959.12
350116.02
347002.99
333602.82
327388.46
309020.03
300936.86
283773.49
267682.68
255236.82
238751.09
223581.92
207981.01
192895.28
176858.21
161324.47
146467.65
132507.25
118734.06
106383.84
94844.639
84810.983
74667.211
65964.056
58539.488
51136.487
44734.797
38971.952
33449.327
28751.263
24456.689
20708.918
17404.437
14602.033
12130.148
10055.23
8380.7994
6473.2009
5136.1176
3459.2812
2306.5234
1226.3574
195.29691
-768.31672
218441.33
221354.04
216711.75
226019.43
226728.27
230939.98
222031.85
216527.25
207877.86
201597.61
190787.04
182552.94
171040.59
160351.15
151208.54
140386.01
130639.44
119705.25
109777.45
99607.146
89564.598
80041.06
71223.355
63415.589
56096.27
50037.292
44725.971
39336.998
35170.683
30895.414
26975.256
23310.337
19950.805
16870.847
14198.904
12032.47
10186.401
9003.0562
7967.8127
7159.1856
6072.7492
5285.2644
3866.885
2787.4443
1564.8082
368.98939
-321.76406
99032.64
113090.85
102854.15
111904.23
109816.15
113553.39
109586.88
109806.29
104297.36
100758.62
96953.307
92129.722
87334.605
80565.381
74671.306
70053.069
65403.324
60287.334
55798.172
50677.912
46458.482
42044.021
37808.938
33676.113
30261.943
27130.165
24429.293
22208.048
20057.192
17732.975
15560.632
13375.667
11376.898
9577.2511
8266.1408
7186.7636
6530.6018
5984.339
5443.838
5167.5513
4650.3286
4173.2334
3067.7083
2537.4803
1230.9652
698.40111
50.560277
-10260.537
-7029.2648
-12261.177
-2665.9554
-10415.118
-4553.2016
-9600.6595
-5261.4987
-6381.0711
-612.77474
-2834.8052
137.11931
-606.59055
704.5496
1506.4917
2162.5572
2501.8599
3113.7423
3167.9308
2611.792
2786.6683
2083.4057
490.87317
341.93986
1105.9336
1658.905
2399.6923
3000.3479
3394.5553
3570.2982
3552.3036
3226.4162
2812.0942
2450.6972
2173.3143
2120.0361
2143.7828
2498.7374
3141.9115
3669.9098
3895.851
3936.0988
3330.9432
3030.3434
1540.4503
1414.8925
517.11616
-129525.06
-112894.06
-114990.65
-118456.78
-121543.43
-116946
-115877.36
-108630.45
-105962.73
-96038.53
-94560.229
-84172.577
-82107.293
-72525.41
-68351.716
-61002.039
-56224.443
-50658.938
-46113.904
-42174.936
-36413.009
-30517.132
-27148.755
-22485.654
-20032.852
-18019.401
-14562.372
-11845.131
-9733.7034
-7850.8629
-6361.2918
-5383.9922
-4481.3814
-3820.0941
-3105.0539
-2299.2013
-1502.1212
-340.98606
4.8213051
1133.7467
1850.1403
2277.9244
2252.9712
2213.0013
1363.6526
1603.9777
831.14194
-243472.24
-225983.35
-230923.93
-240919.91
-239309.92
-233048.37
-225892.6
-213581.59
-207794.77
-191867.41
-185876.54
-170710.54
-162626.02
-151292.33
-140847.14
-128831.59
-118871.86
-108085.81
-98742.776
-89875.62
-80618.612
-73440.111
-63072.858
-55453.597
-48482.045
-42661.18
-37530.131
-32556.928
-28037.935
-24090.015
-20996.463
-17958.827
-15546.082
-13371.932
-11403.453
-9569.9887
-7639.5473
-5891.1022
-3873.995
-1595.8619
40.149963
1371.8854
2191.3655
2760.4571
2248.2814
2207.2938
1276.6515
-409675.79
-286948.26
-340255.17
-334065.25
-341261.85
-326464.99
-320552.39
-305176.49
-297175.02
-275930.12
-267933.19
-249441.81
-234794.82
-217908.4
-201740.35
-185603.68
-169571.6
-155802.71
-141777.37
-128985.37
-117572.42
-105847.78
-95004.824
-85011.635
-75725.022
-67531.381
-60150.812
-52095.475
-45206.755
-39164.972
-33863.202
-29096.125
-25029.829
-21492.634
-18397.877
-15462.363
-12928.832
-10154.463
-7637.5777
-4761.7813
-2255.5556
-80.342866
1524.9163
2438.3175
2480.5556
2189.0873
1730.5436
800838.99
768072.44
805816.3
807718.39
810746.28
794351.02
736288.98
520659.65
590699.85
559850.63
576136.62
576424.36
566570.35
545314.17
264386.72
318700.12
272761.33
300727.51
283182.52
283718.08
296539.43
46787.393
15768.266
3140.2588
33650.963
13829.661
-14031.064
87664.391
-153155.02
-155994.36
-167970.73
-145823
-157359.93
-147986.01
-85943.47
-525680.47
-556713.01
-549546.95
-564614.63
-575315.04
-557348.15
-533520.49
-654181.14
-589806.4
-516435.79
-525157.48
-493675.99
-457191.44
-511923.39
-703264.96
-731308.48
-823329.88
-856241.16
-870081.85
-850534.96
-653723.28
-535666.94
-624046.6
-625780.59
-639678.41
-667734.33
-633729.99
-576589.24
-438688.62
-497732.95
-523587.43
-529007.14
-524853.17
-485763.6
-515686.85
-434882.34
-478067.16
-467053.24
-497559.57
-477615.45
-472680.13
-441185.05
-431492.06
-456039.77
-470619.85
-472073.19
-471362.69
-449366.51
-454047.9
-412891.53
-405881.68
-413144.31
-423311.22
-421396.38
-411878.43
-406307.6
-391156.18
-402489.67
-408737.6
-415721.44
-411188.13
-411643.65
-410415.83
-380114.01
-375129.61
-375043
-381857.6
-378199.03
-380965.06
-377328.35
-359791.32
-361966.03
-363745.66
-367397.26
-367967.75
-370605.18
-370728.48
-346164.1
-341827.13
-340917.87
-345335.74
-343128.63
-341285.17
-343383.13
-327420.32
-326640.03
-323616.22
-328312.49
-326070.31
-325856.83
-331751.86
-307483.11
-307064.05
-305020.55
-310378
-307624.34
-301280.22
-310309.61
-292360.09
-284861.98
-290298.19
-287113.45
-290646.7
-286046.33
-294290.52
-269446.84
-267802.64
-271644.88
-268713.58
-272937.26
-265451.46
-272912.96
-253232.11
-248369.29
-252962.91
-248907.94
-252647.01
-247315.61
-254744.85
-232635.21
-228339.23
-233286.82
-229715.9
-234942.93
-229907.29
-236729.46
-213104.77
-210702.44
-214183.24
-211286.18
-216050.26
-211491.45
-216654.2
-194827.31
-192297.86
-196221.5
-192737.75
-198153.15
-193407.67
-199089.91
-177067.8
-175346.71
-178840.2
-175139.81
-180285.16
-176162.06
-181739.81
-160298.56
-158768.63
-162189.33
-158599.01
-163963.32
-160072.08
-165413.53
-145385.33
-143204.89
-146590.71
-142720.5
-147809.82
-144235.25
-149361.05
-130738.53
-128799.36
-131703.81
-128431.03
-133237.52
-129812.64
-135128.19
-117660.49
-114908.92
-118293.49
-114904.16
-118975.5
-116335.37
-121044.4
-104594.59
-102924.96
-105430.25
-101853.43
-106200.48
-103853.19
-108261.73
-92700.552
-91687.198
-92479.631
-90793.251
-94281.215
-92295.059
-96372.061
-81328.919
-81239.256
-80596.853
-80299.526
-82275.062
-82572.674
-85704.251
-72782.427
-71055.181
-71032.593
-70917.201
-71463.33
-71692.541
-73990.374
-63654.428
-61902.273
-61951.982
-61619.254
-62239.582
-62738.864
-63152.369
-55096.043
-53646.785
-53710.015
-52950.37
-53184.96
-54401.437
-54096.446
-47918.609
-46230.869
-46618.177
-45567.795
-46123.726
-47159.006
-46484.279
-40902.508
-40141.077
-40007.269
-39174.773
-39331.078
-40476.195
-39616.109
-35677.731
-34512.589
-34688.532
-33728.071
-33980.734
-35077.072
-34252.771
-30541.539
-29973.814
-29970.579
-29229.305
-29399.12
-30448.786
-29712.248
-26697.247
-26014.732
-26144.739
-25385.024
-25611.506
-26428.369
-25754.894
-22885.904
-22437.112
-22545.472
-21949.66
-22148.214
-22826.121
-22510.834
-19560.149
-19252.806
-19245.037
-18903.843
-19037.889
-19540.8
-19445.477
-16512.029
-15411.002
-16060.994
-15369.066
-15683.916
-16117.788
-15827.631
-12607.577
-12360.18
-12310.012
-12333.884
-12270.28
-12267.355
-12319.802
-8773.1075
-8528.5537
-8553.2358
-8501.6283
-8497.076
-8699.455
-9268.5696
-5398.4186
-4888.2081
-5220.7084
-4855.7515
-5072.0401
-5327.5893
-5429.7082
-1909.0776
-1706.3515
-1733.5747
-1535.1791
-1745.3559
-1957.9806
-2053.0686
981.22102
1081.1204
978.00611
1057.5488
951.54809
419.63834
521.95213
3030.9169
3000.8704
2965.5633
2957.5104
2895.5479
2125.2257
2432.9292
3894.4056
3715.5257
3644.4975
3547.4918
3492.506
2659.0051
3033.494
4003.4929
3742.4984
3699.0578
3493.505
3563.3562
2768.4304
3030.426
2696.0909
2264.7952
2158.5652
2026.2478
2083.6849
1592.7075
1610.9847
1439.0277
1041.8105
838.32372
652.90229
768.79952
759.20457
1086.162
-487.84885
-697.68063
-194.07083
120.97865
654.24007
714.57738
471.41369
-1034.574
-1297.9995
-731.30896
-482.51528
-111.84105
186.0332
-535.78557
-750.5219
-1093.3571
-551.5805
-83.323363
285.03309
375.77212
47.489729
-683.09307
-1006.0171
-751.07663
-503.65028
-97.234082
50.285639
15.90379
-52.287408
-384.476
-217.12284
45.494919
424.3379
629.18628
755.31202
73.092679
-378.34496
-375.74468
-45.368277
331.04737
810.03934
416.56876
66.770974
-189.96512
-418.52842
-226.80207
-27.244433
403.53798
775.66379
507462.17
507590.9
568755.67
559451.47
574509.86
546810.06
530224.55
520641.92
540541.5
561669
560293.43
568024.37
534037.5
524442.61
498402.34
508562.51
522753.8
524404.22
526159.43
499913.93
496101.47
470554.54
485066.84
498378.07
502184.89
499873.65
486495.81
486006.76
465623.66
470147.07
475558.43
479326.13
479262.49
472688.96
463272.01
440859.48
442958.73
453135.26
446994.09
452744.13
440100.42
443751.59
431367.34
431195.76
435462.21
433914.28
442471.46
432501.25
439434.74
406587.73
404660.54
413307.79
401560.17
410749.96
404451.76
407655.76
393199.14
394296.87
396100.95
392984.14
400930.16
392566.71
401217.66
373997.05
369623.17
373510.06
367115.93
375942.25
367754.09
376376.35
355412.86
351933.54
359851.51
350866.29
360829.82
352389.59
360245.14
334214.42
334467.14
336546.02
329703.12
337517.03
331249.05
339346.3
318377.08
313303.56
316674.96
311377.29
317576.39
311997.57
313096.51
296399.42
295020.9
295441.97
292820.31
297481.49
293540.75
300745.78
277144.66
275199.03
273641.51
273261.5
275893.18
272383.75
277905.09
258947.85
254358.44
255399.64
252226.15
256912.2
252085.37
255863.14
237267.71
234908.73
234565.59
233830.49
235509.42
232573.66
235979.54
218174.28
214880.59
215738.84
213548.08
215569.56
213393.71
216023.42
198429.99
196722.5
196620.66
194860.7
196858.7
195028.41
197600.08
180897.91
178270.36
178349.29
177049.79
178611
177220.42
179445.43
163876.08
161236.83
161747.75
160340.51
161714.11
160746.65
162894
147961.58
145518.5
146028.27
144661.28
145603.04
144771.61
147244.37
133333.84
131050.82
131856.19
130218.74
131052.89
130419.24
133014.24
119605.74
117764.61
117934.66
116617.21
117106.84
116387.38
119447.71
107050.92
104647.98
105321.69
103867.71
104150.73
103777.76
106941.64
95275.388
93084.651
93587.793
92270.787
92354.099
92042.391
94962.551
84065.196
82614.12
82749.788
81478.453
81419.08
81045.04
84079.747
74649.909
72734.97
72615.791
71511.265
71535.715
71360.652
74262.05
65019.684
63480.452
63739.506
62852.264
62359.827
62467.011
64882.482
57024.838
56259.745
55648.256
55144.655
54457.187
54971.581
56859.417
49997.014
49148.479
48747.583
48553.496
47637.459
48270.288
49836.806
43523.128
43366.55
42677.593
42708.055
41681.931
42597.874
43893.772
38226.209
38328.775
37675.675
37876.113
36929.097
37823.628
38706.194
33505.307
33867.705
33090.034
33527.362
32566.483
33204.813
34323.868
29257.341
29810.961
29168.284
29561.714
28622.311
29752.918
30202.866
25399.606
26103.464
25295.215
25689.101
25204.515
25220.779
25871.528
21583.745
22090.525
21487.457
21886.016
21120.446
21700.355
22466.974
18143.284
18251.489
18087.046
17824.129
17889.744
17070.35
18446.845
14562.744
14810.945
13877.508
14134.971
13756.889
13260.437
14220.501
11163.95
11081.093
10365.227
10441.884
9818.3443
9463.7442
10108.982
7676.2737
7388.3916
6653.1335
6581.7638
6092.3319
6035.0033
6185.9991
4770.1608
4481.9623
3701.6151
3761.186
3165.6342
3192.4499
3009.7262
2312.3562
1941.4106
1358.0583
1335.9648
670.68062
961.52392
454.65661
385.76487
14.996073
-460.29485
-408.56648
-961.76883
-441.59695
-1051.4559
-157.81086
-137.3194
-362.28807
-436.75189
-964.46443
-619.91042
-1425.7828
-727.12698
-666.97133
-782.63248
-781.31054
-832.9126
-546.26785
-936.28184
-137.69826
631.89329
701.21956
698.39341
369.76368
0.91257248
-601.19357
510866.86
391764.21
382723.67
370196.55
380120.31
378432.65
357835.9
353264.64
339573.91
327248.48
310624.72
294112.06
276609.89
259641.28
242119.11
226697.68
208510.39
192275.12
175962.16
160411.03
145357.23
130936.48
117507.49
105001.73
93064.6
82381.569
72080.599
63106.399
55249.321
48234.918
42096.432
36762.497
32049.066
27639.925
23906.892
19918.181
16396.393
13919.787
10502.108
8138.7125
5996.2165
4345.3499
2985.8288
2141.2921
1325.5515
670.37549
-358.08654
315529.46
306607.37
219332.17
251649.64
278108.46
255249.04
266043.12
245615
245116.83
230167.28
221618.1
210150.41
195077.25
186008.53
174169.68
162518.44
149988.89
136975.53
126701.91
114585.66
104077.87
93997.364
84549.173
75484.035
66913.618
58389.278
53114.203
46270.67
40906.427
36024.757
31795.244
28240.746
25119.08
22508.51
19861.077
17644.848
15212.448
12834.284
10511.192
8056.312
5955.6731
4137.0939
2572.2836
1444.5561
606.42749
-230.43397
-529.79831
154104.33
175303.17
94372.652
149321.56
123081.01
114971.98
117135.78
112090.86
109398.86
102234.98
105463.49
98412.669
99003.921
92572.086
88717.306
85208.367
79082.63
74111.229
69547.381
63035.306
58335.275
53227.086
48288.693
43533.736
39293.293
34764.876
30869.424
26496.336
23290.469
20444.076
18341.204
16744.921
15450.566
14233.214
12883.66
11420.276
9612.9209
7705.2415
5737.2506
3949.0292
2673.9706
1716.3762
1250.4462
1251.6684
1065.3877
1072.5567
306.47356
-3413.9962
42074.864
-4145.8439
24022.903
1466.1684
16767.696
11522.706
-510.85468
8133.8362
8474.7568
5829.5179
11421.569
7804.8357
14379.195
14456.377
14973.14
14447.693
14739.884
14425.309
13752.21
13981.836
13574.043
13074.485
12687.479
11481.119
10421.137
9478.773
8907.8545
8130.2581
7651.364
7582.7068
7715.6522
7638.96
7561.5703
7162.9514
6670.8182
5776.5114
5015.1207
4000.6517
3186.1192
2453.5445
1819.3111
1550.9465
1290.6837
1282.0045
864.79822
881.95843
-195450.22
-88173.766
-116275.93
-76757.116
-106322.05
-80443.802
-97934.802
-89245.176
-78474.567
-81743.6
-68303.377
-70377.092
-62093.055
-61586.61
-54662.776
-51004.832
-46292.713
-42135.442
-37659.178
-33610.497
-29368.541
-25834.344
-22476.189
-19583.514
-16706.842
-14692.626
-12675.465
-10905.646
-9577.6416
-8027.6053
-6505.1323
-5005.3705
-3461.5603
-2145.5089
-1250.6499
-531.70042
-255.64887
-94.303439
-283.37783
-304.40132
-335.05923
-203.11559
48.029584
542.0167
926.1229
1279.3933
929.84364
-306877.86
-227198.55
-199381.75
-200302.74
-213368.98
-201811.18
-208586.99
-183043.7
-194794
-182919.73
-179948.04
-168216.45
-156390.05
-148739.15
-136617.66
-126656.27
-114761.94
-103407.49
-92802.269
-83160.091
-74625.759
-66251.809
-59035.616
-50960.935
-44631.015
-39119.066
-35291.178
-30779.815
-26718.056
-22839.568
-19580.762
-16148.487
-13152.474
-10536.25
-8372.0679
-6505.723
-5144.2505
-4055.9363
-3354.2224
-2678.8221
-2029.7985
-1486.8507
-667.1432
8.6422232
835.96948
1257.5644
1309.0888
-396441.41
-305172.02
-324300.13
-312098.93
-342659.43
-326062.3
-320803.1
-308674.76
-299425.27
-281561.21
-266714.05
-254826.82
-237568.86
-222883.95
-206844.05
-192109.02
-178035.9
-163016.31
-149961.27
-135872.91
-122981.91
-110401.62
-99564.501
-88605.49
-80054.852
-67246.418
-60965.907
-54331.336
-48144.822
-42334.256
-36698.065
-31124.018
-26286.627
-21699.86
-17737.034
-14463.097
-12500.213
-10146.268
-8578.2752
-7468.4777
-6183.5732
-4719.6065
-3299.1318
-1569.1271
-201.49827
1043.6662
861.20239
613134.27
672085.68
661924.28
686294.31
679271.19
645239.06
600094.08
434256.21
495797.98
492178.29
505714.13
491742.48
474265.51
436523.02
404526.38
440403.6
458991.5
465556.26
454198.34
451755.64
426519.02
385049.47
399277.23
403422.85
417194.77
400379.74
404028.93
372073.33
371172.26
381751.18
392994.68
388600.24
385833.88
381241.76
355472.16
359025.31
375800.91
362364.21
380270.74
366242.47
365729.86
363876.85
350434.33
351156.24
349700.16
352907.68
340159.02
349943.25
341590.37
333656.3
350029.87
335112.94
345676.56
340939.62
337584.36
335011
327164.52
326282.75
312845.58
327904.07
313641.86
321394.04
317533.47
308578.57
312950.37
308167.07
315933.47
304481.51
311322.04
307057.85
294395.34
300581.07
287576.41
296383.32
287592.23
293756.1
291045.17
283459.58
281362.73
276036.91
280923.79
277040.77
276808.32
276884.96
265204.21
267245.96
260021.37
267502.75
260000.79
264234.82
264994.12
250022.41
247869.61
246243.83
249655.6
243151.69
246854.68
245547.03
234570.05
232832.57
231044.54
231721.12
228725.71
231760.55
230370.74
216791.57
215995.21
215013.58
216174.32
212660.36
213070.64
214469.01
200068.31
199313.36
197682.28
199475.73
195641.03
198094.23
198822.34
183974.38
183248.49
182834.56
182331.86
180457.56
181751.49
182274.54
167783.1
167659.51
165739.25
166825.55
164835.49
165531.54
166313.04
152605.91
151767.12
151196.99
151483.37
149818.97
150520.88
151778.84
136568.08
137768.07
136372.24
136768.48
135382.37
136096.67
137083.84
122830.42
124091.73
122436.23
122713.87
121995.88
122562.45
123890.7
109309.37
111038.2
108856.01
109714.54
109101.07
110316.13
110623.93
97156.854
98717.747
96670.827
97349.411
97338.475
98013.784
98510.94
85402.741
87856.733
85536.211
86791.047
86219.575
87811.829
87542.776
76011.849
77412.704
75933.934
75751.025
76673.307
77245.516
77153.197
67299.252
67671.777
66095.848
66657.645
67235.178
67948.857
67929.257
58341.785
58715.843
58439.144
58364.657
58669.825
59632.615
59010.362
51001.415
52231.017
50472.982
50560.627
51489.405
52187.42
51643.272
44867.228
44295.625
44228.569
44007.908
44862.103
45351.715
44908.328
38459.569
38488.888
38199.015
37794.959
38768.551
39487.371
39023.892
33395.057
33046.668
33260.58
32752.633
33912.139
34422.218
33955.55
28655.436
28310.61
28487.165
28094.655
29084.457
29635.7
29301.591
24517.144
24063.196
24593.124
24055.341
25046.47
25591.396
25535.758
20829.789
20489.532
20957.301
20520.881
21353.478
21946.373
21803.027
17740.438
17251.19
17803.059
17282.519
18024.508
18679.568
18425.306
14998.215
14574.624
14925.348
14472.649
15132.384
15160.479
15896.594
12736.616
12278.283
12198.191
11944.993
12199.436
12631.675
12588.666
10650.841
9331.2247
10156.604
9290.1711
9707.7843
9943.9057
10332.853
8556.7395
7654.226
7916.4777
7177.6571
7387.2112
7574.8895
7675.7215
6807.5071
5600.4186
5892.5723
5083.9842
5334.6776
5500.3609
5448.7571
5056.064
4193.2607
4213.0261
3626.8901
3700.0152
3666.6203
3516.3254
3515.1784
2538.8661
2656.325
1964.6789
2034.0111
2105.9478
2058.1461
2211.4361
1753.6119
1757.8103
1161.53
1327.1565
1278.9236
888.66813
1087.7526
874.55703
761.61504
369.29546
591.01654
235.70831
289.42555
137.01521
220.7517
171.36068
31.56486
82.774975
-91.632931
-446.30796
-150.6131
46.263142
220.47716
280.92967
505.43112
-116.05323
153.70401
403058.95
420280.37
458621.51
452392.34
466383.42
431026.33
425729.7
307718.03
372009.48
386552.32
395348.74
395855.52
369453.1
348580.04
295209.95
276522
310893.31
299382.32
315564.92
282436.64
290703.16
253022.95
262259.57
278159.98
273226.67
277808.25
269712.3
244585.42
259059.05
256107.53
270280.77
260863.93
274819.97
255506.21
260935.88
242596.9
237758.19
242941.5
237599.63
235975.95
243480.01
240741.36
237866.67
236096.97
248712.65
235823.04
247014.23
244930.23
239051.98
229782.64
221791.97
224281.76
218874.31
226555.6
220927.02
229297.5
221961.37
212850.11
225835.04
216433.16
218328.02
221320.09
223186.09
209495.03
206472.01
212121.11
199517.32
209195.18
207756.54
213135.54
202733.13
197132.22
200163.31
194096.92
199016.34
199470.45
202150.88
192767.04
184721.04
193951.69
184045.12
192015.39
188494.65
196520.55
181325.82
176561.33
183691.21
172202.33
179708.74
175906.01
181733.51
171482.24
167750.18
171706.11
163003.06
169705.05
167860.78
168400.89
160657.69
158998.27
159173.74
152785.93
158897.82
155552.03
157606.24
150062.94
147339.03
147471.88
143804.81
146197.45
145759.78
145538.94
138520.86
137312.1
137392.87
132684.19
135498.55
135819.68
136845.92
127166.91
126716.68
125220.55
122864.68
124516.59
124826.45
123857.15
116827.53
115579.04
114865.63
112570.87
113799.65
114100.13
114302.29
105360.63
105176.4
104385.74
102653.54
103174.81
103907.44
103930.7
95674.259
95437.515
94232.95
92798.671
93261.927
94270.506
94347.781
86255.056
85772.129
84275.514
83774.198
83936.038
85009.197
84773.733
77645.963
76583.843
75573.288
75411.435
75414.273
75830.584
76257.256
69360.445
68512.528
67808.43
67774.263
67357.555
67718.83
68383.45
61902.748
61110.252
60309.201
60348.684
60313.405
59993.036
61113.397
55012.41
54601.832
53330.006
54388.498
52654.476
52983.358
54200.468
48600.897
48764.635
46974.093
47909.076
47339.086
46783.557
47325.05
43272.4
42802.88
42394.792
41889.354
41950.213
41034.148
41847.546
38058.082
37844.703
37155.378
37272.12
36980.126
36027.85
36520.517
33105.175
33498.583
32290.793
32704.056
32007.538
31604.188
31897.703
28722.48
29542.163
28321.476
28757.251
28158.54
27930.435
27970.583
24695.432
25808.543
24268.41
25123.991
24362.821
24360.793
24318.977
21145.033
22411.623
21057.208
21866.324
21153.086
21332.134
21456.958
17942.593
19529.491
18119.561
19152.968
18373.483
18916.737
18741.594
15498.026
17017.969
15825.195
16601.363
16188.183
16455.517
16559.054
13306.436
14864.506
13630.223
14710.03
13953.853
14401.204
14193.799
11780.637
12874.596
12194.239
12661.031
12399.93
12466.628
12435.416
10201.808
11277.694
10398.962
11087.537
10448.45
10746.74
10148.969
8832.2673
9685.1966
9176.3044
9400.8724
9056.2648
8882.2521
8374.4365
7415.4893
8367.7819
7652.0699
7700.3165
7394.4028
7107.5629
6305.4091
6127.9775
6529.8337
5964.0915
5912.244
5664.9347
5226.6841
4506.5437
4771.3497
5246.457
4569.5752
4523.7429
4120.8833
3763.6606
2963.0387
3206.6794
3446.0694
2813.1994
2685.6278
2303.3215
2203.7125
1576.6179
2095.5651
2307.7865
1623.1362
1524.9316
1262.684
1206.0403
644.68686
932.18663
1348.8013
573.91993
726.00818
389.73687
416.99814
221.29477
53.844706
49.284402
-416.29956
-251.88812
-449.95845
-312.6342
-278.85665
-289.55405
35.085121
-260.34035
-26.553009
59.858118
-262.74049
-22.877779
227738.34
238127.11
228049.82
253078.93
238727.04
226895.07
214236.01
160641.37
232284.2
218081.53
238454.67
210121.48
219279.75
181722.17
151509.07
143002.5
150417.28
154408.62
147812.96
136766.45
135751.08
121036.52
147811.24
150790.33
164203.89
143873.51
156221.12
127060.74
132819.17
125204.67
129405.86
120809.11
122721.33
115828.72
118466.7
115260.66
131877.51
117986.01
124171.71
121959.77
121041.74
118205.44
120464.53
124715.13
108090.49
115022.34
114589.18
109502.14
112962.48
112057.42
125128.74
104505.41
113879.45
107348.94
105457.62
111293.65
113167.92
122673.72
101485.11
107968.68
105001.51
105921.9
107651.35
109286.8
116815.58
94589.291
101589.14
101780.72
99262.58
103260.55
104841.61
112871.73
91404.097
101991.39
97467.45
98664.481
98156.422
98190.861
106391.36
86914.241
94031.259
92354.391
90834.195
94867.345
91755.833
104107.71
82016.21
91362.081
87685.668
88723.405
90151.995
87739.082
94358.508
80221.786
85860.957
86293.231
80208.699
90379.543
83513.836
86763.631
74317.891
81753.472
79418.996
76674.817
83249.345
77405.415
79580.825
72166.901
74574.678
75363.774
71811.927
79101.684
70665.123
74858.62
66682
70430.263
69778.959
67554.87
72179.437
66409.478
68214.933
62426.906
65080.689
64866.724
62847.512
66258.101
59926.436
63225.351
57588.359
60326.797
59476.073
58034.413
60836.658
55262.694
57968.332
53020.152
55228.987
54575.305
53782.191
56032.054
49757.698
52753.368
48091.03
50362.805
49699.838
49515.417
50294.229
45037.721
47516.412
43725.821
45966.925
45476.413
44811.028
46019.005
40409.578
42863.566
39513.714
42062.927
40377.355
41080.01
41530.022
36412.171
38156.832
35563.306
37355.02
35988.187
37279.592
37276.463
32948.051
34101.863
31900.738
33531.7
31968.636
33851.598
33117.461
29964.417
29568.049
28610.102
29637.719
28413.507
30078.659
29517.599
26763.178
26865.86
25672.888
26816.68
24663.742
27028.586
25879.146
24301.815
24061.646
22493.426
23285.443
22152.253
23426.008
23356.578
21420.099
20822.917
19613.904
20186.185
19485.81
20450.623
20914.802
19162.403
18261.513
17546.607
17796.735
17160.086
18101.429
18512.178
16870.88
16021.074
15112.067
15642.462
14924.902
16077.397
16390.51
14920.435
13993.881
13431.873
13878.518
13270.984
14457.531
14662.588
13097.873
12364.661
11934.279
12459.719
11932.491
13214.101
13301.762
11703.039
11048.337
10811.04
11288.488
10914.896
12070.739
12052.494
10425.676
9801.9035
9726.0257
10192.584
9883.337
10844.704
10902.058
9372.3235
8741.3197
8842.1647
9202.6765
8995.9738
9772.191
9854.8653
8400.976
7585.574
7888.2359
7973.3585
7934.2349
8275.8682
8588.1291
7543.6791
6712.6291
6885.1687
6865.098
6806.4868
6854.0279
7362.4644
6748.3908
5426.1983
5718.0257
5461.394
5440.488
5351.1276
6067.0832
5838.1693
4521.035
4584.9445
4226.7754
4178.4349
3841.4356
4640.2547
4866.8351
3406.3425
3453.6103
2931.3278
2974.4405
2496.9668
3520.5616
3883.2436
2768.5197
2595.5222
2181.5908
2061.2573
1709.9231
2520.9058
2964.9787
1869.5543
1677.3678
1232.6837
1098.1928
907.91869
1561.0631
2275.98
1787.2668
1521.8684
1250.1348
1160.2617
1152.2646
1172.3589
1350.7367
1023.2505
698.15761
613.81985
519.4282
485.02469
409.29009
925.53763
929.78336
621.09787
771.10444
680.20879
809.15031
341.52081
157.91828
-70.021632
147.26529
402.85687
361.68478
503.89654
538.16207
6126.4031
-5688.3569
3419.3033
8473.6315
4246.4937
4808.9389
22046.181
-3272.1414
823.49184
2178.8996
8232.9121
1131.4678
6628.0224
1662.0943
17777.412
-19186.108
-11135.085
-21681.07
-10526.17
-19974.035
7138.5673
-2556.4012
-12800.518
1141.8306
-5755.9485
-6892.286
5902.7905
-8559.2542
5358.6173
-2628.4632
-1125.8353
-22213.55
1338.2811
-25117.425
8105.5006
2469.1935
-8919.8573
-11480.168
-7929.5181
-9195.3174
-3264.1387
-1085.1018
3038.047
-4165.9719
6072.8353
-11657.084
1019.6197
-7543.9493
3768.7719
5121.8497
-1818.0163
-6099.1443
-4281.1139
-3999.4912
-1125.1294
3697.5877
4694.8969
-6077.508
1703.5369
-6891.1065
343.72575
-784.41926
-1717.9428
1335.2913
-117.9126
350.85531
-5091.9179
-773.76159
-1669.2891
2858.308
3505.5765
-671.59067
-236.60908
-4697.8342
-1835.2162
-500.3786
2605.1302
2870.7886
-89.972182
-376.67794
-2209.4304
-1203.1298
3060.242
2205.7941
4738.212
-200.42487
1431.3756
-2482.1037
1898.4339
786.82761
3970.8363
4898.8559
-111.12414
7023.3143
-106.91582
-745.99185
3277.8373
-101.6746
7005.4978
5547.4735
1214.8972
2055.977
244.54811
3325.8255
4317.8545
5711.5356
5449.6888
1675.2831
4263.8807
-1.1849825
4794.1051
4283.2986
7493.9838
5620.8535
3294.2979
6123.9541
1320.0845
5132.1355
5974.1136
6745.6564
6257.6562
4058.1921
6685.1243
1767.6679
5801.3573
5881.8483
7263.075
7549.9248
4849.7957
7253.1069
2903.0926
6138.7263
6837.9496
7425.0464
7537.1379
4717.8318
7359.9545
3147.2016
6766.724
6336.6958
7296.3202
7839.7518
5000.1823
7608.6313
4148.2457
6551.1882
6482.0067
7437.8819
8218.0778
4987.8556
8059.9404
3905.091
6818.4229
6742.1414
7422.7196
7966.8743
5379.2662
7327.6147
4087.4865
6932.2602
6516.9702
7677.179
7782.3926
5785.0215
7331.808
4940.5259
7172.6402
6379.2865
7608.8826
7279.1169
6178.1083
7120.2661
5778.8251
6817.7056
6275.32
7187.7991
7795.3564
6656.8163
7147.2317
6204.2279
6655.2182
6358.7652
7752.6102
7406.6976
6630.835
7034.5504
6162.7622
6838.247
5512.6887
7326.6036
7004.3704
6774.4073
6801.0096
6009.6946
6753.7522
5007.6055
7263.3704
6931.0574
6994.6947
6991.5225
6434.581
6897.4923
5091.682
6657.3111
6809.3706
6756.7983
6743.9332
6104.6131
6569.9071
4787.3723
6227.8923
6553.4325
6556.5881
6549.2776
6048.8963
6691.2599
4757.6925
5604.0321
6184.287
6191.6635
6403.9791
5821.4799
6682.6036
4520.2359
5113.6239