/*--------------------------------*- C++ -*----------------------------------*\
  =========                 |
  \\      /  F ield         | OpenFOAM: The Open Source CFD Toolbox
   \\    /   O peration     | Website:  https://openfoam.org
    \\  /    A nd           | Version:  6
     \\/     M anipulation  |
\*---------------------------------------------------------------------------*/
FoamFile
{
    version     2.0;
    format      ascii;
    class       pointVectorField;
    location    "0.39";
    object      u;
}
// * * * * * * * * * * * * * * * * * * * * * * * * * * * * * * * * * * * * * //

dimensions      [0 1 0 0 0 0 0];

internalField   nonuniform List<vector> 
3969
(
(0 -1.7115691e-20 0)
(0 -9.2478627e-20 0)
(1.8606911 -0.11754998 0.0068209653)
(1.7839421 -0.50167559 0.0053300994)
(0 9.360324e-19 0)
(0 7.618347e-19 0)
(1.7849354 -0.50399439 0.0051760405)
(1.8617442 -0.11964468 0.0069726758)
(0 3.9799522e-20 0)
(0 2.3994342e-19 0)
(0 1.0546682e-19 0)
(-6.1358013e-19 -5.5248259e-20 0)
(0 2.963493e-19 0)
(0 -1.7048836e-19 0)
(0 -1.6518075e-19 0)
(1.8510984 -0.16557829 0.0066204497)
(1.8414874 -0.21357645 0.0064267401)
(1.8318891 -0.26155973 0.0062560318)
(1.822294 -0.3095308 0.0060912689)
(1.8127124 -0.3575186 0.0059279355)
(1.8031329 -0.40553705 0.0057480097)
(1.7935473 -0.45359835 0.0055441039)
(0.0065508456 0.013122938 0.014018108)
(0.010764075 0.023201923 0.01706843)
(0.018723657 0.03401259 0.018752872)
(0.030357564 0.044526325 0.01896167)
(0.044637381 0.054864786 0.018904248)
(0.062311619 0.064514841 0.018282244)
(0.082396987 0.073544478 0.017903627)
(0.10549312 0.081730202 0.01712517)
(0.13077611 0.089004468 0.016652103)
(0.1586095 0.09536214 0.015862362)
(0.18854358 0.10082079 0.015296068)
(0.22054589 0.10524323 0.014600592)
(0.25445049 0.10871353 0.013907274)
(0.2901168 0.1112552 0.013243178)
(0.32739805 0.11275266 0.012528398)
(0.36607681 0.11337618 0.011838568)
(0.4061161 0.1130897 0.011177965)
(0.44728256 0.11191416 0.010533188)
(0.4895141 0.10991852 0.0099329986)
(0.53261809 0.1071269 0.0093664248)
(0.57653724 0.10360164 0.0088508927)
(0.62112952 0.099402801 0.0083753638)
(0.66633468 0.094569822 0.0079400747)
(0.71206417 0.089179771 0.0075423865)
(0.75824081 0.083240255 0.0071788937)
(0.80481822 0.076887081 0.0068567913)
(0.85171979 0.070075844 0.006572154)
(0.89890958 0.062901429 0.0063220451)
(0.94634048 0.055386267 0.0061173843)
(0.99394487 0.047564527 0.0059552308)
(1.041714 0.039483773 0.0058362696)
(1.0895988 0.031164764 0.0057598269)
(1.137584 0.022642179 0.0057165486)
(1.1856483 0.013945953 0.0057022084)
(1.2337906 0.0050873931 0.0057080786)
(1.2819862 -0.003903519 0.0057204876)
(1.3302517 -0.013001747 0.0057316314)
(1.3785433 -0.022230793 0.0057580204)
(1.4268988 -0.031531046 0.0057569338)
(1.4752408 -0.040928518 0.0057865864)
(1.5236137 -0.050399987 0.0058010732)
(1.5719289 -0.059912499 0.0058624277)
(1.6202235 -0.069502471 0.0059337052)
(1.6684318 -0.079088173 0.0060589754)
(1.7165828 -0.088719657 0.0062204807)
(1.7646489 -0.098323977 0.0064091431)
(1.8126722 -0.10794815 0.0066318845)
(0.00079429472 -0.013274214 -0.01723851)
(0.0062281275 -0.021789671 -0.017919898)
(0.012266973 -0.031944274 -0.02158313)
(0.02183928 -0.041985795 -0.02074713)
(0.034809861 -0.052935144 -0.020921599)
(0.049957602 -0.063715893 -0.019889963)
(0.067897042 -0.0745703 -0.019254316)
(0.087983675 -0.08550551 -0.018247972)
(0.11042131 -0.09639606 -0.017383718)
(0.13505162 -0.10742202 -0.016398802)
(0.16157949 -0.11835106 -0.015515474)
(0.19025757 -0.12945865 -0.014548498)
(0.22061774 -0.14049727 -0.013660129)
(0.25287075 -0.1515958 -0.012687357)
(0.28669501 -0.16274291 -0.011752378)
(0.32214017 -0.17383361 -0.010782149)
(0.35901519 -0.18497931 -0.009825395)
(0.39719429 -0.19602186 -0.0088653129)
(0.43660536 -0.2070968 -0.0079211136)
(0.47708608 -0.21806463 -0.0070094799)
(0.51852802 -0.22903526 -0.0061242659)
(0.56088177 -0.23988783 -0.0053037433)
(0.60397423 -0.25072499 -0.004507424)
(0.64780881 -0.26149114 -0.0037849204)
(0.69222664 -0.27214744 -0.0031145641)
(0.7372342 -0.28276287 -0.0024716428)
(0.78269572 -0.29327292 -0.0018752052)
(0.82865872 -0.3037596 -0.0012988836)
(0.87499034 -0.31413951 -0.00076693324)
(0.92164042 -0.32444736 -0.00023718442)
(0.96858393 -0.33470467 0.00025394029)
(1.0157493 -0.34488726 0.00072542101)
(1.0631163 -0.3550198 0.0011584235)
(1.1106401 -0.36509159 0.0015552668)
(1.1583063 -0.37511951 0.0019109262)
(1.206094 -0.38510684 0.0022338671)
(1.2539964 -0.39504422 0.0025241116)
(1.301998 -0.40494271 0.0027965436)
(1.3501028 -0.41480475 0.003061417)
(1.3982816 -0.42460976 0.0033211996)
(1.4465311 -0.43438241 0.0035982649)
(1.4948089 -0.44409119 0.0038710688)
(1.5431048 -0.45376445 0.0041594777)
(1.5913725 -0.4633808 0.004429926)
(1.6395995 -0.47297361 0.0046936977)
(1.687765 -0.48253277 0.0049245869)
(1.7358774 -0.49209433 0.0051349415)
(0 -1.0381896e-20 0)
(0 1.2233433e-19 0)
(0 -1.4642149e-19 0)
(3.0209457e-19 -3.0750355e-20 0)
(0 -2.5600519e-19 0)
(0 -1.1874331e-19 0)
(0 -9.899674e-20 0)
(0.0051114282 -0.0085653165 0.013193616)
(0.0074661166 -0.025987401 0.018408656)
(0.012684692 -0.029179986 0.018881632)
(0.022892966 -0.043615674 0.01954101)
(0.035730714 -0.052941474 0.019144067)
(0.051016594 -0.063893871 0.017981112)
(0.069047212 -0.075391361 0.017496619)
(0.08925207 -0.085711791 0.016229739)
(0.11168694 -0.097380502 0.015685753)
(0.13624549 -0.10792387 0.014525934)
(0.16276123 -0.11951399 0.014213724)
(0.19133247 -0.13005586 0.013145573)
(0.22186584 -0.14146769 0.01240633)
(0.25414785 -0.15255763 0.011554905)
(0.28806386 -0.16368119 0.010736958)
(0.32351144 -0.17497353 0.0099764071)
(0.36043223 -0.18606089 0.0091859784)
(0.39859929 -0.19727519 0.0084896839)
(0.4379944 -0.20835129 0.0078161237)
(0.47843346 -0.21941995 0.0072170814)
(0.51985501 -0.23039661 0.0066794447)
(0.56214028 -0.24131944 0.0062002514)
(0.60522804 -0.25216379 0.0057659728)
(0.64901391 -0.26292215 0.005375434)
(0.69346876 -0.27367935 0.0050011606)
(0.73852089 -0.2843031 0.0046414641)
(0.78392247 -0.29494076 0.0044395749)
(0.82987458 -0.30540322 0.0041652014)
(0.87617346 -0.31584943 0.0039884956)
(0.92281726 -0.32620129 0.0038312165)
(0.96972281 -0.33646981 0.0037215184)
(1.0168622 -0.3466815 0.0036660506)
(1.0641942 -0.35681516 0.0036464458)
(1.1116955 -0.36688896 0.0036609466)
(1.15935 -0.3769107 0.0036873244)
(1.2071329 -0.38690263 0.0037406987)
(1.2550571 -0.39684592 0.0037657304)
(1.3030753 -0.40676915 0.0038126986)
(1.3512091 -0.416669 0.0038226463)
(1.3994168 -0.42654175 0.0038544097)
(1.4476769 -0.43637519 0.003884124)
(1.4959647 -0.44616574 0.0039443169)
(1.5442369 -0.45590902 0.0040477304)
(1.5924804 -0.46558911 0.0041975236)
(1.6406667 -0.47522949 0.0044025456)
(1.6887976 -0.48481511 0.0046462479)
(1.736873 -0.49439926 0.0049143226)
(1.7945496 -0.45594438 0.0054031912)
(1.8041194 -0.40785052 0.005633207)
(1.8137168 -0.35983114 0.0058689511)
(1.823286 -0.31176898 0.0060954091)
(1.8328849 -0.2637743 0.0063195439)
(1.8424938 -0.21573136 0.0065429158)
(1.8521325 -0.16770942 0.0067534212)
(1.8136889 -0.1100376 0.0067446097)
(1.7656176 -0.10039036 0.0065173869)
(1.7175074 -0.090743299 0.0062598892)
(1.6693375 -0.081070126 0.005980725)
(1.621117 -0.071419038 0.005692268)
(1.5728388 -0.061789 0.0053907332)
(1.5245279 -0.052222722 0.005092887)
(1.476193 -0.042728369 0.004799436)
(1.4278591 -0.033332224 0.004506762)
(1.3795373 -0.024025238 0.0042111051)
(1.3312371 -0.014839666 0.0039074936)
(1.2830126 -0.0057698998 0.003591166)
(1.2347853 0.0031988203 0.0032394102)
(1.1866475 0.012028536 0.0028636537)
(1.138571 0.020723429 0.0024494381)
(1.0905808 0.029249291 0.0020061589)
(1.0426912 0.037586241 0.0015297157)
(0.99493017 0.0456962 0.0010217828)
(0.94732612 0.053543773 0.00049291468)
(0.89991998 0.061081608 -6.3028452e-05)
(0.85274684 0.068286477 -0.00064994813)
(0.80585953 0.075091966 -0.0012587352)
(0.75929627 0.081491755 -0.0019135018)
(0.71311648 0.08740839 -0.0026045475)
(0.66739416 0.092823171 -0.0033465991)
(0.6221811 0.097678785 -0.0041309552)
(0.57756778 0.10192958 -0.0049715598)
(0.53363811 0.10551479 -0.0058417694)
(0.4905112 0.1083833 -0.0067516185)
(0.44827419 0.11047464 -0.0076749692)
(0.40709148 0.11174424 -0.0086206736)
(0.36704802 0.11215874 -0.0095533691)
(0.32834823 0.11161778 -0.010486445)
(0.29110741 0.1100732 -0.011333815)
(0.2555306 0.1076652 -0.012302238)
(0.22155848 0.10427555 -0.013050021)
(0.1896152 0.099891971 -0.013981163)
(0.15956977 0.094532448 -0.014728491)
(0.13174629 0.088290354 -0.015724203)
(0.106364 0.080932171 -0.016338578)
(0.083462605 0.07309211 -0.017190234)
(0.062873362 0.063921521 -0.017788208)
(0.045584364 0.054532913 -0.01841649)
(0.030760203 0.044091488 -0.018496216)
(0.019775497 0.03393918 -0.018035874)
(0.011077336 0.022214386 -0.016484061)
(0.011041024 0.012999077 -0.010699072)
(0 1.2651494e-19 0)
(0 9.8945229e-20 0)
(0 -5.1273222e-20 0)
(0 -3.3690856e-19 1.6860521e-19)
(0 -2.9580868e-19 0)
(0 -6.5037972e-20 0)
(0 3.1101461e-19 0)
(0 4.3486194e-19 0)
(0 4.145334e-19 0)
(0 3.9387739e-19 0)
(0 3.4017538e-19 -4.1789116e-20)
(0 9.189593e-19 0)
(0 4.0285906e-19 0)
(0 -7.4227638e-20 0)
(1.7840534 -0.50194611 0.0053178963)
(1.7841677 -0.50222188 0.0052929233)
(1.7842836 -0.50249879 0.0052576909)
(1.784413 -0.50278169 0.0052302116)
(1.7845405 -0.50306908 0.005203729)
(1.7846813 -0.50336219 0.0051872683)
(1.7848109 -0.50366931 0.0051741418)
(1.8607967 -0.11780107 0.0068234081)
(1.8609128 -0.1180476 0.0068342769)
(1.8610501 -0.11828755 0.0068581445)
(1.8612013 -0.11853342 0.006881477)
(1.8613544 -0.11878604 0.006916167)
(1.8615044 -0.11905813 0.0069409699)
(1.861633 -0.11934486 0.0069714994)
(0.0013588301 0.00090835759 0.01237209)
(0.004807731 -8.1473856e-05 0.012087305)
(0.010730862 0.00018929262 0.014005642)
(0.020135552 0.00036749103 0.014254891)
(0.03202432 0.0007513428 0.014215366)
(0.047362082 0.0017708281 0.01408613)
(0.064943395 0.0027411461 0.013612015)
(0.085548199 0.0043224782 0.013373578)
(0.10863035 0.0058857544 0.01277521)
(0.13434696 0.0079300692 0.012430754)
(0.16247756 0.010095426 0.011915269)
(0.19302454 0.012567111 0.011402666)
(0.22592981 0.015288838 0.010908092)
(0.26101166 0.018145221 0.010358213)
(0.29821481 0.021167977 0.0098553199)
(0.33738913 0.024265987 0.0093269286)
(0.37841142 0.027410717 0.0088207936)
(0.42105531 0.03050319 0.0083440755)
(0.46523859 0.033531779 0.0078800696)
(0.5107341 0.036386457 0.0074537582)
(0.55739885 0.039026875 0.0070678316)
(0.60504164 0.041369587 0.0067094577)
(0.65352931 0.043351904 0.0063946473)
(0.70266978 0.044894935 0.0061067294)
(0.7523657 0.045931446 0.0058643907)
(0.80244816 0.046370172 0.0056241454)
(0.85278145 0.046152674 0.005439439)
(0.90326384 0.045211116 0.0052847306)
(0.95376156 0.043450418 0.005170398)
(1.0041707 0.040842644 0.0050949323)
(1.0544064 0.037313256 0.0050621677)
(1.1043808 0.032809935 0.0050620069)
(1.1540352 0.027305978 0.0050930665)
(1.2033243 0.020752846 0.00514506)
(1.2522133 0.01314731 0.005204657)
(1.3006773 0.0044738468 0.0052689803)
(1.3487154 -0.0052615659 0.0053316589)
(1.3963038 -0.016038396 0.0053892768)
(1.4434657 -0.027800795 0.0054395087)
(1.4901786 -0.040522683 0.005504011)
(1.5364817 -0.054104409 0.0055663495)
(1.5823521 -0.068490673 0.0056588063)
(1.6278547 -0.083566475 0.005767595)
(1.6729818 -0.099232442 0.0059121576)
(1.7178116 -0.11539239 0.0060738534)
(1.7623814 -0.13189665 0.0062560049)
(1.8067863 -0.1486798 0.0064468953)
(-0.0026497263 -0.0055105263 0.0082687256)
(2.0238156e-05 -0.013240639 0.0081485147)
(0.0057209055 -0.017700941 0.0095060105)
(0.013980291 -0.023501612 0.0094117887)
(0.025373771 -0.027795988 0.0095742598)
(0.039188091 -0.031801411 0.009198542)
(0.055837677 -0.035072271 0.0092296628)
(0.075320546 -0.037627581 0.0087018885)
(0.097268803 -0.039549697 0.0086707334)
(0.12195043 -0.040567941 0.0082997028)
(0.14918047 -0.040972007 0.0080459904)
(0.17895339 -0.040452833 0.0077507711)
(0.21120188 -0.039308014 0.0074704569)
(0.24586969 -0.037431792 0.0071749577)
(0.28285726 -0.034920553 0.006882393)
(0.322015 -0.031815731 0.0065433041)
(0.36319289 -0.028222901 0.0062441701)
(0.40626349 -0.02425082 0.0059513029)
(0.45105167 -0.019993608 0.0056737571)
(0.49736598 -0.015580562 0.0054369818)
(0.54500142 -0.011114227 0.0052164253)
(0.59377782 -0.006711165 0.0050248105)
(0.64345788 -0.0025009642 0.0048618167)
(0.69392601 0.0014040931 0.0047261378)
(0.74494507 0.004836768 0.0045984282)
(0.79636912 0.0077205413 0.0045225325)
(0.84804084 0.0098786123 0.0044587067)
(0.89979858 0.011204506 0.004415886)
(0.95149124 0.011603143 0.0044140106)
(1.0030024 0.010933053 0.0044329322)
(1.0542042 0.009110236 0.0044803911)
(1.104995 0.0060426028 0.0045552635)
(1.1553049 0.0016525041 0.0046446367)
(1.2050639 -0.0041118232 0.0047411737)
(1.2542396 -0.011293519 0.0048415984)
(1.30279 -0.019919704 0.0049398139)
(1.3507272 -0.029965801 0.0050240977)
(1.3980039 -0.041436019 0.0051137073)
(1.4446856 -0.054249291 0.0051871243)
(1.4907081 -0.068370992 0.0052777923)
(1.5361694 -0.083675441 0.0053618108)
(1.5810217 -0.10008358 0.0054804593)
(1.6253761 -0.11744566 0.0055993858)
(1.6692277 -0.13564466 0.0057507007)
(1.7126939 -0.15451698 0.0059125106)
(1.7558127 -0.17390167 0.0060834724)
(1.7987282 -0.19366548 0.0062671028)
(-0.0050756629 -0.0048777071 0.0051029045)
(-0.0018538599 -0.010399877 0.0046458922)
(0.0035917533 -0.014807801 0.0050022492)
(0.012998358 -0.019108101 0.004957242)
(0.024630259 -0.023254137 0.0047636769)
(0.039641598 -0.026809765 0.0047415292)
(0.05708421 -0.030483827 0.0043138445)
(0.077167966 -0.033461244 0.0044046983)
(0.099812871 -0.036313818 0.0042177432)
(0.12503451 -0.038644214 0.0040742472)
(0.15255288 -0.040552911 0.0040253008)
(0.18251051 -0.04211124 0.0038991393)
(0.21473106 -0.043210405 0.0037975533)
(0.24914702 -0.043972433 0.003710512)
(0.28570501 -0.044325516 0.0036384764)
(0.32424362 -0.044430001 0.0035200717)
(0.36464102 -0.044270859 0.0034455742)
(0.4067311 -0.043938745 0.0033482674)
(0.45036866 -0.043484667 0.003305254)
(0.49533959 -0.042967321 0.003266179)
(0.5415101 -0.042460314 0.003257574)
(0.5886802 -0.042047108 0.0032597985)
(0.63676922 -0.041785041 0.0032786389)
(0.68553921 -0.041808077 0.0032909403)
(0.73488761 -0.042138499 0.0033401717)
(0.78466936 -0.042909405 0.0033660644)
(0.83476535 -0.044190911 0.0034028962)
(0.88501025 -0.046060793 0.0034719441)
(0.9353258 -0.048607139 0.0035428558)
(0.98557468 -0.051911567 0.0036345404)
(1.0356667 -0.05602188 0.0037520587)
(1.0855247 -0.061027042 0.0038821154)
(1.1350777 -0.066960085 0.0040219978)
(1.1842808 -0.073870026 0.0041689983)
(1.2330942 -0.081792378 0.004315171)
(1.2815039 -0.090721258 0.0044507922)
(1.329488 -0.10067796 0.0045813886)
(1.377052 -0.11162359 0.0047028686)
(1.4241881 -0.12353215 0.0048143358)
(1.470889 -0.13635536 0.0049411878)
(1.5171891 -0.1500081 0.0050571306)
(1.5630605 -0.16444808 0.0052071898)
(1.6085787 -0.1795402 0.0053452534)
(1.6537184 -0.19523545 0.0055311183)
(1.6985761 -0.21138695 0.0056977087)
(1.7431642 -0.22790588 0.0058961023)
(1.7876054 -0.2446893 0.0060800355)
(-0.0054238419 0.00064573727 0.00069851105)
(-0.0012184093 0.00090473132 -0.00054501128)
(0.0057785476 0.0021968601 -0.00036750867)
(0.016362647 0.0025130279 -0.00050429483)
(0.03038386 0.0026528322 -0.00041397849)
(0.046998819 0.002639509 -0.00059272137)
(0.066349565 0.0016392324 -0.00021790793)
(0.088197979 0.00067068992 -0.00027433164)
(0.11251727 -0.0012421182 -9.6435409e-05)
(0.13900882 -0.0033632636 9.1460238e-05)
(0.16770025 -0.0062744186 0.000189815)
(0.19846652 -0.0095803676 0.00026684529)
(0.23102964 -0.013428112 0.00034947994)
(0.26542878 -0.017866409 0.00047404256)
(0.30142523 -0.02269873 0.0005326852)
(0.33897143 -0.028102988 0.00065725648)
(0.37781248 -0.033904662 0.00075892309)
(0.41792588 -0.040196087 0.00090726115)
(0.45908933 -0.046876266 0.0010601455)
(0.50125772 -0.053934736 0.0012155121)
(0.54428593 -0.061344791 0.0013737775)
(0.58813495 -0.06903277 0.0015286951)
(0.63257022 -0.077009359 0.0016856284)
(0.6776135 -0.085217523 0.0018671222)
(0.72317261 -0.093634184 0.0020128129)
(0.76920095 -0.10224234 0.0021705814)
(0.81560822 -0.1110025 0.0023469414)
(0.86236211 -0.11991023 0.0025178402)
(0.90940801 -0.12893343 0.0026873584)
(0.95668942 -0.13806289 0.0028818119)
(1.0041771 -0.14727721 0.0030679465)
(1.0518238 -0.15657434 0.0032668809)
(1.099605 -0.16593375 0.0034640457)
(1.1474985 -0.17535471 0.0036604277)
(1.1954898 -0.18482625 0.0038460092)
(1.2435633 -0.19434128 0.0040228888)
(1.2917262 -0.20389598 0.0041863586)
(1.3399448 -0.2134757 0.0043387236)
(1.3882324 -0.22308632 0.0044897563)
(1.4365526 -0.232699 0.0046277653)
(1.4849231 -0.24232922 0.0047780974)
(1.5332605 -0.25195378 0.0049359215)
(1.5815996 -0.26157036 0.0051071821)
(1.629858 -0.27118704 0.0052973797)
(1.6780829 -0.28078201 0.0054847095)
(1.726213 -0.29037387 0.0056944791)
(1.774316 -0.29996928 0.0058938977)
(-0.0056716063 0.0055979403 -0.0035641694)
(0.00034049473 0.01246219 -0.0047696694)
(0.0081596629 0.018089406 -0.0050073604)
(0.021052687 0.023097214 -0.0051903957)
(0.036642818 0.027058106 -0.0052818786)
(0.055372865 0.03010404 -0.0049261543)
(0.07666938 0.031742172 -0.004822318)
(0.10051691 0.032409818 -0.0046166473)
(0.12640901 0.031445139 -0.004256603)
(0.15447955 0.02931489 -0.0040467932)
(0.18428853 0.025615245 -0.003815538)
(0.21570592 0.020715062 -0.0034973183)
(0.24855541 0.014181073 -0.0031536521)
(0.28276945 0.0064290568 -0.0028459818)
(0.31809437 -0.0027453975 -0.0024986607)
(0.35444842 -0.013144233 -0.0021451778)
(0.39168408 -0.024709144 -0.0018198717)
(0.42968007 -0.037340979 -0.0014712996)
(0.46836711 -0.050907448 -0.0011388567)
(0.50764286 -0.065303136 -0.00080569221)
(0.54749259 -0.080366927 -0.00047338074)
(0.58777709 -0.096005902 -0.00013337538)
(0.62857459 -0.11201541 0.00018243374)
(0.66984531 -0.1283294 0.00047522816)
(0.71163165 -0.14474412 0.00075112005)
(0.75387498 -0.161129 0.0010295404)
(0.79663503 -0.17736046 0.0012893212)
(0.839906 -0.19329744 0.0015333089)
(0.88370009 -0.20880887 0.001783449)
(0.92802785 -0.2237884 0.0020262511)
(0.97290789 -0.23812886 0.0022701398)
(1.0183428 -0.25175501 0.0025201021)
(1.0643437 -0.26457626 0.0027628505)
(1.1109194 -0.27654351 0.0030020073)
(1.1580659 -0.2876123 0.0032346333)
(1.2058008 -0.29774549 0.0034528857)
(1.2541036 -0.30694108 0.0036594087)
(1.3029815 -0.31519986 0.0038571347)
(1.3523953 -0.32253692 0.0040303214)
(1.4023449 -0.32898438 0.0042171738)
(1.4527378 -0.33459644 0.0043972474)
(1.5035331 -0.33944029 0.0045979319)
(1.5546652 -0.34358335 0.0047939197)
(1.6060391 -0.34713992 0.0050204938)
(1.6576084 -0.35018094 0.0052321843)
(1.7092689 -0.35285294 0.0054777392)
(1.7610213 -0.35526055 0.0056921363)
(-0.0044365523 0.0058747905 -0.0085779404)
(0.0027491498 0.012848276 -0.0097368759)
(0.011098555 0.018743006 -0.010709915)
(0.024469569 0.023738181 -0.01086818)
(0.040693369 0.027509981 -0.010493083)
(0.059936324 0.030238283 -0.010158147)
(0.081846687 0.031300882 -0.0097068943)
(0.10607038 0.031192025 -0.009120533)
(0.13239882 0.029236427 -0.0086383468)
(0.16063804 0.02592366 -0.0080565391)
(0.19050108 0.02072692 -0.0075277611)
(0.22181872 0.01398858 -0.0069579916)
(0.25446957 0.0054535252 -0.0064694522)
(0.28821363 -0.0046242396 -0.0059085238)
(0.32291395 -0.016326087 -0.0053824324)
(0.35846599 -0.029483829 -0.0048404386)
(0.39470075 -0.044047925 -0.0043310434)
(0.43156849 -0.059835901 -0.0037924629)
(0.46893916 -0.076780659 -0.0032878462)
(0.50679254 -0.094640772 -0.0027808731)
(0.5450574 -0.11334715 -0.0022970293)
(0.58381459 -0.13257124 -0.0018289206)
(0.62290673 -0.15228081 -0.0014127313)
(0.66248219 -0.17229646 -0.00097817968)
(0.70253043 -0.19227897 -0.00058947179)
(0.74305764 -0.21215406 -0.00022388896)
(0.78417816 -0.23167268 0.00012797579)
(0.82587655 -0.2507008 0.00048417579)
(0.86820642 -0.26905189 0.00081620784)
(0.91121163 -0.28660695 0.0011528014)
(0.95491291 -0.30320524 0.0014778377)
(0.9993459 -0.31873652 0.0018039704)
(1.0445342 -0.3330981 0.0021120578)
(1.09049 -0.34622007 0.0024171708)
(1.1372326 -0.35802184 0.002697203)
(1.184762 -0.36848671 0.0029632876)
(1.2330848 -0.37759144 0.0032085622)
(1.2821773 -0.385336 0.00343479)
(1.3320339 -0.39178234 0.0036591549)
(1.3825887 -0.39693715 0.0038640001)
(1.433806 -0.40091636 0.0040878177)
(1.4855939 -0.40378219 0.0043055983)
(1.5378729 -0.40568439 0.0045454609)
(1.5905314 -0.40672315 0.0047860561)
(1.6434837 -0.4070636 0.0050305544)
(1.6966176 -0.40686584 0.0052766026)
(1.7498791 -0.40629482 0.0055017978)
(-0.0024057899 -0.0020431741 -0.012264318)
(0.0040382018 0.0003267841 -0.013872841)
(0.011344371 4.3136892e-05 -0.015662711)
(0.023865647 -0.00038493036 -0.015592961)
(0.038618206 -0.0019076376 -0.01531638)
(0.056783937 -0.0044280364 -0.014775035)
(0.077189426 -0.0078735946 -0.014106305)
(0.10008792 -0.01222755 -0.013409913)
(0.12506148 -0.017775093 -0.012717572)
(0.15199531 -0.024173825 -0.011945933)
(0.18077437 -0.031982692 -0.011226752)
(0.21107059 -0.040609337 -0.010548227)
(0.24292554 -0.050646033 -0.0097588083)
(0.27601245 -0.061598471 -0.0090427126)
(0.31036693 -0.073701066 -0.008301495)
(0.34571174 -0.086752301 -0.0075780908)
(0.38203872 -0.10075611 -0.0068442506)
(0.41915489 -0.1155928 -0.0061349772)
(0.45701096 -0.13117447 -0.0054325676)
(0.4955175 -0.1473911 -0.004758438)
(0.53462752 -0.16410175 -0.0041152826)
(0.57425886 -0.18123151 -0.0034874942)
(0.61448362 -0.19859089 -0.0029126073)
(0.65518643 -0.21611356 -0.0023562159)
(0.69641325 -0.23358035 -0.0018603565)
(0.73816776 -0.25092983 -0.0013651543)
(0.78048446 -0.26800266 -0.00089347414)
(0.82334903 -0.28469512 -0.00044733903)
(0.86678264 -0.30088476 -2.2533596e-05)
(0.91078831 -0.31648155 0.00039966668)
(0.95537181 -0.33136225 0.00079780119)
(1.0005522 -0.34547214 0.0011900901)
(1.0463196 -0.35872301 0.0015593838)
(1.0926869 -0.3710681 0.0019125799)
(1.1396503 -0.38245553 0.0022351394)
(1.1872154 -0.39286906 0.0025384965)
(1.2353721 -0.40229282 0.0028143117)
(1.2841218 -0.41073859 0.0030775668)
(1.3334299 -0.41822401 0.0033190697)
(1.3832728 -0.42478763 0.003562886)
(1.4336045 -0.43048506 0.0038065336)
(1.4843585 -0.43539062 0.0040587855)
(1.5354616 -0.43958272 0.0043154045)
(1.5868315 -0.44315895 0.0045783212)
(1.638392 -0.4462281 0.0048311903)
(1.6900639 -0.44890747 0.0050819108)
(1.7417986 -0.4513186 0.0053069664)
(0 -3.7974791e-20 0)
(0 2.1261068e-19 0)
(0 1.8382235e-19 0)
(0 1.6222e-19 -5.5606915e-20)
(0 6.4085482e-20 0)
(0 -2.2507733e-21 0)
(0 3.1152423e-20 0)
(0 1.1673212e-20 0)
(0 -7.584843e-20 0)
(0 -1.8698916e-19 0)
(0 -2.3229742e-19 -3.8572037e-20)
(0 -3.8083058e-20 0)
(0 4.6911421e-20 0)
(0 9.0612783e-20 0)
(0 7.3671455e-20 0)
(0 1.1604274e-19 0)
(0 2.1193702e-19 0)
(0 2.1238501e-19 1.0697879e-19)
(0 1.8312006e-19 0)
(0 2.1322341e-19 0)
(0 7.220372e-20 0)
(-1.251738e-18 5.8968904e-20 0)
(5.3360277e-19 -1.3362533e-19 0)
(-3.1022844e-20 -5.3676498e-20 0)
(9.6257703e-20 -9.4509504e-20 -7.1720068e-20)
(-1.7987904e-19 -1.3200559e-19 0)
(-4.6040447e-19 -1.8869639e-19 0)
(7.0362679e-20 -1.5580709e-19 0)
(0 1.168363e-19 0)
(0 4.1795202e-20 0)
(0 -8.1079222e-20 0)
(0 7.904184e-21 2.0684909e-19)
(0 8.9155309e-20 0)
(0 1.2985053e-19 0)
(0 -3.6076673e-20 0)
(0 -9.4138882e-20 0)
(0 -7.6962815e-20 0)
(0 1.8103031e-20 0)
(0 9.0324197e-20 -2.0581877e-20)
(0 6.6829614e-20 0)
(0 -2.4221598e-20 0)
(0 6.2537242e-20 0)
(0 1.1485285e-20 0)
(0 -6.7678625e-20 0)
(0 9.9084178e-20 0)
(0 6.3097266e-21 7.2528474e-20)
(0 9.8165554e-20 0)
(0 1.5524306e-19 0)
(0 1.4059756e-19 0)
(0.0059470083 -0.0040138263 -0.0090146993)
(0.0072716242 -0.0052184187 -0.0061989925)
(0.0086906209 -0.0055046654 -0.0032504652)
(0.0092686516 -0.0057990854 -0.0008464367)
(0.0089535806 -0.0053660391 0.0016262278)
(0.0084334709 -0.0056008782 0.0042408048)
(0.0068847245 -0.0036339523 0.007088466)
(0.011283896 -0.021055492 -0.014803163)
(0.01423455 -0.023320881 -0.0084337558)
(0.015517614 -0.021925606 -0.0039911151)
(0.015771349 -0.021262446 -0.00039054647)
(0.015871888 -0.022379572 0.0031586305)
(0.014233391 -0.022030295 0.0074106554)
(0.012419819 -0.021793502 0.01282392)
(0.016826561 -0.029632775 -0.015801104)
(0.020547588 -0.028418983 -0.011245295)
(0.022847437 -0.029610875 -0.0053722111)
(0.023175907 -0.029543454 -0.00092874799)
(0.022937005 -0.028836134 0.0042978245)
(0.020994931 -0.028959117 0.0082390938)
(0.018413419 -0.03006241 0.015042676)
(0.027130436 -0.042831573 -0.015775935)
(0.03018298 -0.043597439 -0.011164321)
(0.032133829 -0.043166549 -0.0054102878)
(0.032862359 -0.043076319 -0.00098657296)
(0.032411484 -0.043099868 0.0040906993)
(0.030642704 -0.043723361 0.0095406158)
(0.027352845 -0.042856601 0.01434553)
(0.039314377 -0.053807188 -0.016042122)
(0.042791321 -0.053690338 -0.011362293)
(0.045224035 -0.054141855 -0.0059909106)
(0.045781013 -0.05397622 -0.00088651132)
(0.045459111 -0.054145507 0.0042672253)
(0.04360194 -0.053877461 0.008967767)
(0.040737893 -0.054154521 0.014703468)
(0.054515213 -0.064986565 -0.015189441)
(0.057496821 -0.065246038 -0.010831012)
(0.059565922 -0.065163584 -0.0055589112)
(0.060262171 -0.065477613 -0.001124369)
(0.05980732 -0.065198184 0.0041043622)
(0.058107391 -0.065264643 0.0090275104)
(0.055047392 -0.064773845 0.0136467)
(0.072076448 -0.0759043 -0.014806297)
(0.075101316 -0.076342467 -0.010310631)
(0.077191453 -0.076944475 -0.00554688)
(0.07782212 -0.076990392 -0.0010859873)
(0.077539065 -0.077130831 0.0039324632)
(0.075794522 -0.077249515 0.0082366318)
(0.073189516 -0.076820093 0.01328437)
(0.091971651 -0.08694969 -0.013939551)
(0.094818849 -0.087626754 -0.0099724629)
(0.096722713 -0.087829385 -0.0051965021)
(0.09743255 -0.087987528 -0.00095794595)
(0.096958496 -0.08780287 0.0035061352)
(0.095573867 -0.087484257 0.0080848365)
(0.092811202 -0.086901194 0.012271966)
(0.11425782 -0.097993802 -0.013356229)
(0.11692721 -0.098531567 -0.0092242037)
(0.11875593 -0.099078184 -0.0050204785)
(0.11933334 -0.099265101 -0.00096991274)
(0.11905528 -0.099508261 0.0033743663)
(0.11759635 -0.099160331 0.0074557332)
(0.11517265 -0.098873963 0.01186811)
(0.13852639 -0.1088716 -0.012538786)
(0.14108727 -0.10967325 -0.0088794273)
(0.14279055 -0.11003702 -0.0047792107)
(0.14351218 -0.11043407 -0.00072737185)
(0.14305107 -0.11017567 0.0032414726)
(0.14181208 -0.10983661 0.0071828669)
(0.13944884 -0.10924771 0.011047447)
(0.16501834 -0.11997568 -0.011824276)
(0.16735854 -0.12067638 -0.0082750441)
(0.16904617 -0.12127286 -0.0042971065)
(0.16955247 -0.1212774 -0.00084046696)
(0.1693515 -0.12147091 0.0031074271)
(0.16805653 -0.12114389 0.0066158272)
(0.165844 -0.12078397 0.010704666)
(0.19335165 -0.13093607 -0.011160654)
(0.19567871 -0.13173913 -0.0076326028)
(0.1970849 -0.13221857 -0.0042675804)
(0.1977353 -0.13261523 -0.00065107907)
(0.19741891 -0.13253926 0.0029115262)
(0.19621795 -0.13208133 0.0063148434)
(0.19431827 -0.13169054 0.010050658)
(0.22368755 -0.14214617 -0.01039281)
(0.22567422 -0.14278298 -0.0071473534)
(0.22712857 -0.14342737 -0.0038817258)
(0.22770697 -0.14348338 -0.00058413043)
(0.22744729 -0.14352972 0.0027795378)
(0.22629315 -0.14334136 0.0059180847)
(0.22449083 -0.1427661 0.0093344052)
(0.2556435 -0.15312875 -0.0097004507)
(0.25752957 -0.15386977 -0.0066059815)
(0.25899554 -0.15445438 -0.0036503502)
(0.25939095 -0.15465572 -0.00051796631)
(0.25924469 -0.15483 0.0026023571)
(0.25816814 -0.15442843 0.0054670689)
(0.25661279 -0.1539908 0.0087746727)
(0.28927659 -0.16432699 -0.0089701625)
(0.2911072 -0.16500497 -0.0060603167)
(0.29236495 -0.16551615 -0.0033749251)
(0.29284266 -0.16575011 -0.00037657441)
(0.29270809 -0.16575484 0.0023686031)
(0.29176255 -0.16547186 0.005173119)
(0.29029663 -0.16500469 0.0081247189)
(0.3245384 -0.17537428 -0.0082130895)
(0.32616776 -0.17601209 -0.005554137)
(0.32739798 -0.17660368 -0.0030495451)
(0.32782807 -0.17680723 -0.00037606213)
(0.32771655 -0.17692182 0.0022745895)
(0.32684981 -0.17665252 0.0047627347)
(0.32553839 -0.17623049 0.0075501065)
(0.36115175 -0.18644917 -0.0074802802)
(0.36271741 -0.187115 -0.0049975586)
(0.36383274 -0.18763774 -0.0027651838)
(0.3642499 -0.18781722 -0.00021674669)
(0.36418299 -0.18792546 0.002121954)
(0.36341741 -0.18764162 0.0044546421)
(0.36223233 -0.18727108 0.0069852837)
(0.3991719 -0.19748443 -0.0067005342)
(0.40058005 -0.19809662 -0.0045012114)
(0.40163102 -0.19862274 -0.0023976718)
(0.40201867 -0.1988393 -0.0001300882)
(0.40196539 -0.19894607 0.0020196349)
(0.40128115 -0.19871803 0.0041629576)
(0.40021699 -0.19836543 0.0064564564)
(0.43835903 -0.20847626 -0.0059781855)
(0.43965924 -0.20905671 -0.003944143)
(0.44063856 -0.20956944 -0.0020598769)
(0.44098099 -0.20974395 1.5799601e-05)
(0.44097428 -0.20986658 0.0019620429)
(0.44036293 -0.20964491 0.0039109743)
(0.43941908 -0.20936928 0.0059712798)
(0.47866146 -0.2193976 -0.0052282022)
(0.47985692 -0.21994841 -0.0034169742)
(0.48074153 -0.22043905 -0.001714013)
(0.48107112 -0.22065446 0.00016790335)
(0.48107998 -0.22076587 0.0019111949)
(0.48053105 -0.2206104 0.0036902231)
(0.47970791 -0.22032365 0.005542448)
(0.51995823 -0.2302731 -0.0045357076)
(0.52103248 -0.23078902 -0.0029033392)
(0.52185082 -0.23127511 -0.0013602753)
(0.52215948 -0.23144758 0.00032803865)
(0.52218333 -0.23158473 0.0019014198)
(0.52171114 -0.231424 0.0035077923)
(0.52098008 -0.23120052 0.0051667764)
(0.56213973 -0.24107096 -0.0038618577)
(0.56312055 -0.24156543 -0.0023986893)
(0.56387047 -0.2420122 -0.0010196003)
(0.56414931 -0.24222202 0.00049206981)
(0.56419737 -0.24234143 0.0019080484)
(0.56376441 -0.2422399 0.0033508104)
(0.5631388 -0.24203049 0.0048385101)
(0.60511678 -0.25182056 -0.003228298)
(0.6060088 -0.25227093 -0.0019223201)
(0.60668465 -0.2527209 -0.00069941407)
(0.60696124 -0.25290333 0.00065762636)
(0.607007 -0.25305545 0.0019234662)
(0.606648 -0.25297097 0.0032104837)
(0.60610794 -0.25279416 0.0045457051)
(0.64882237 -0.26247864 -0.0026273383)
(0.64962599 -0.26294127 -0.0014779479)
(0.65025219 -0.26333626 -0.0003952194)
(0.65049695 -0.26355991 0.0008264002)
(0.65056864 -0.26368301 0.0019409135)
(0.65025524 -0.26362134 0.0030983197)
(0.64977994 -0.2634765 0.0042885598)
(0.69313326 -0.27308369 -0.0020980172)