/*--------------------------------*- C++ -*----------------------------------*\
  =========                 |
  \\      /  F ield         | OpenFOAM: The Open Source CFD Toolbox
   \\    /   O peration     | Website:  https://openfoam.org
    \\  /    A nd           | Version:  6
     \\/     M anipulation  |
\*---------------------------------------------------------------------------*/
FoamFile
{
    version     2.0;
    format      ascii;
    class       pointVectorField;
    location    "1.9";
    object      u;
}
// * * * * * * * * * * * * * * * * * * * * * * * * * * * * * * * * * * * * * //

dimensions      [0 1 0 0 0 0 0];

internalField   nonuniform List<vector> 
3969
(
(0 -8.2396634e-20 0)
(0 -4.5062874e-19 0)
(0.56123843 0.042313974 -0.050209457)
(0.54908518 -0.11319125 -0.049219831)
(0 4.4942725e-18 0)
(0 3.7122589e-18 0)
(0.54996363 -0.10143376 -0.049345725)
(0.56210069 0.054004096 -0.050245881)
(0 1.8773819e-19 0)
(0 1.1284316e-18 0)
(0 5.0538797e-19 0)
(-3.0221889e-18 -2.7212529e-19 0)
(0 1.4891588e-18 0)
(0 -8.5854476e-19 0)
(0 -8.1984186e-19 0)
(0.55969119 0.022775486 -0.050136564)
(0.55809837 0.0033243976 -0.050054864)
(0.55654174 -0.016065616 -0.049906213)
(0.55501586 -0.035421654 -0.049750523)
(0.55352469 -0.054771152 -0.049577339)
(0.55206409 -0.074179995 -0.049426722)
(0.55060385 -0.093654559 -0.04930857)
(0.0003200785 0.001489543 0.0020191126)
(0.00018153804 0.0028822924 0.0025928858)
(0.00092863598 0.0041054492 0.0028933174)
(0.0020029182 0.0059339264 0.0027316657)
(0.0037957509 0.0073542867 0.002576153)
(0.0059187622 0.0092810982 0.0021223434)
(0.0087331869 0.010881063 0.0017352333)
(0.011879286 0.012843966 0.0011334635)
(0.015702818 0.014554768 0.0005635119)
(0.01992506 0.016554905 -0.00015124322)
(0.024765177 0.018335216 -0.00085571882)
(0.030079567 0.020371923 -0.001674121)
(0.035990219 0.022206149 -0.0025069473)
(0.042413966 0.024250595 -0.003412031)
(0.049421952 0.026143402 -0.0043420042)
(0.056978385 0.028157737 -0.0053250168)
(0.065096112 0.030079338 -0.0063185454)
(0.073797129 0.032068451 -0.007354472)
(0.083064805 0.033983446 -0.0084096688)
(0.092925551 0.035916597 -0.0094881136)
(0.10335933 0.037788217 -0.010586949)
(0.11439161 0.039641354 -0.01170376)
(0.12600505 0.041425198 -0.012839707)
(0.13822058 0.043151395 -0.013995754)
(0.15100914 0.044803633 -0.01517088)
(0.16439802 0.04636493 -0.016370707)
(0.17835029 0.047822599 -0.017591574)
(0.19288463 0.049174593 -0.018843945)
(0.20797135 0.050384374 -0.020126271)
(0.22360388 0.051466654 -0.021441696)
(0.23975804 0.052385863 -0.022797314)
(0.25641512 0.053150887 -0.024192988)
(0.27354833 0.053733429 -0.025630165)
(0.29112825 0.054143515 -0.027115605)
(0.30911531 0.054365236 -0.028641875)
(0.32748924 0.054391 -0.03021044)
(0.34618377 0.054230934 -0.031824664)
(0.36518032 0.053877189 -0.033480554)
(0.38441065 0.053344161 -0.035154544)
(0.40385512 0.052628616 -0.036861105)
(0.42344066 0.051756344 -0.038579824)
(0.44314383 0.050714415 -0.040309687)
(0.46290104 0.049550836 -0.042028419)
(0.48267033 0.048255159 -0.043737269)
(0.50243365 0.046853933 -0.045413188)
(0.52209779 0.045401334 -0.047044263)
(0.54170895 0.043858009 -0.048631832)
(0.00021018614 -0.0019350262 -0.0024144335)
(0.00076984297 -0.0034274361 -0.0028016996)
(0.0013992396 -0.0053399723 -0.0034489315)
(0.0024306352 -0.0071115423 -0.0040070825)
(0.0041265995 -0.0092594857 -0.0044426824)
(0.0061746296 -0.011208466 -0.005040967)
(0.0087917325 -0.013421497 -0.0055852581)
(0.011848702 -0.015464515 -0.0062678132)
(0.015434616 -0.017721516 -0.0069501528)
(0.019490465 -0.019833554 -0.0077239701)
(0.02409989 -0.022158465 -0.0085290189)
(0.029186305 -0.024341036 -0.0093977058)
(0.034821948 -0.026699497 -0.010310117)
(0.040965599 -0.028990712 -0.011230292)
(0.047671158 -0.03139163 -0.012212802)
(0.054883486 -0.033757263 -0.013202563)
(0.062708499 -0.036242059 -0.014225193)
(0.071001627 -0.038663345 -0.01526104)
(0.079976368 -0.041248862 -0.016302822)
(0.089375693 -0.043735283 -0.017370169)
(0.099495601 -0.046420906 -0.0184172)
(0.11005601 -0.048995728 -0.019493893)
(0.1213167 -0.051757391 -0.020534001)
(0.13306184 -0.054459709 -0.021598142)
(0.14545913 -0.057271926 -0.022642721)
(0.15836471 -0.06006085 -0.023698906)
(0.17188034 -0.062930267 -0.024729852)
(0.18595045 -0.065797762 -0.025759518)
(0.20060253 -0.068699776 -0.026799257)
(0.215788 -0.071602008 -0.027824295)
(0.23150323 -0.074505508 -0.02886013)
(0.24773079 -0.077402815 -0.029890575)
(0.26444354 -0.08027418 -0.030934178)
(0.28161704 -0.083106989 -0.031983255)
(0.29921998 -0.085892677 -0.033051351)
(0.31722461 -0.088611105 -0.034126924)
(0.33557711 -0.091247876 -0.035239727)
(0.35425851 -0.093791377 -0.036355629)
(0.37321479 -0.09624104 -0.03751221)
(0.39240614 -0.09857396 -0.038688691)
(0.41178446 -0.10078779 -0.039897804)
(0.43131184 -0.10288924 -0.041131911)
(0.45093133 -0.10485888 -0.042401196)
(0.4706096 -0.10671829 -0.043700591)
(0.49029839 -0.10846224 -0.045035809)
(0.50995968 -0.11011137 -0.046400581)
(0.52956542 -0.11167003 -0.047803057)
(0 -4.9025066e-20 0)
(0 5.7438893e-19 0)
(0 -7.01917e-19 0)
(1.4862073e-18 -1.5128177e-19 0)
(0 -1.284619e-18 0)
(0 -5.9880128e-19 0)
(0 -4.8962064e-19 0)
(0.00011867283 -0.00074121885 0.0015210697)
(2.0319889e-05 -0.0025668218 0.0022414805)
(0.00043282655 -0.0032633969 0.0022710716)
(0.0017106197 -0.0048943955 0.0022428555)
(0.0032961021 -0.0062565547 0.0019593346)
(0.0055117395 -0.0077292659 0.0015519866)
(0.0081597594 -0.009367501 0.0011013596)
(0.011341068 -0.01093447 0.0005273288)
(0.014968703 -0.012656774 -5.6157188e-05)
(0.019109746 -0.014380064 -0.00075421585)
(0.023833156 -0.016307938 -0.001393251)
(0.028835179 -0.017984181 -0.0022092985)
(0.034719415 -0.020156506 -0.0029893329)
(0.040787143 -0.021884718 -0.0039066336)
(0.047685675 -0.024234838 -0.004741689)
(0.054867662 -0.026091447 -0.0057386448)
(0.062800754 -0.028536411 -0.0066390241)
(0.071114901 -0.030599254 -0.0076669294)
(0.080114306 -0.03309171 -0.0086379004)
(0.089572937 -0.035363778 -0.009684984)
(0.099670156 -0.037910368 -0.010710519)
(0.11028158 -0.040356114 -0.0117814)
(0.12150366 -0.042967827 -0.012851362)
(0.13327209 -0.045542865 -0.013955586)
(0.14564661 -0.048232409 -0.015082667)
(0.1586324 -0.050911865 -0.016266356)
(0.17213789 -0.053669598 -0.017438328)
(0.18620131 -0.056416613 -0.018635666)
(0.2008364 -0.059183446 -0.019866768)
(0.21601555 -0.061936982 -0.021141806)
(0.23173425 -0.064689865 -0.022456947)
(0.24796826 -0.067418124 -0.023815171)
(0.26469445 -0.070111112 -0.025220464)
(0.28189221 -0.072767599 -0.026671756)
(0.29952494 -0.075362588 -0.028168278)
(0.31757608 -0.077912467 -0.029714575)
(0.33596835 -0.08032766 -0.031295932)
(0.35469702 -0.082756872 -0.032916043)
(0.37371646 -0.085026518 -0.034568293)
(0.3929618 -0.087225791 -0.036244401)
(0.41240475 -0.089320447 -0.037936844)
(0.43198491 -0.091318601 -0.039630337)
(0.45166183 -0.093213329 -0.04132171)
(0.47138527 -0.095011636 -0.042994599)
(0.49111191 -0.096720272 -0.044638812)
(0.51079838 -0.098341738 -0.046245442)
(0.53041025 -0.099904927 -0.047800124)
(0.5514705 -0.081888922 -0.049499021)
(0.55293514 -0.062407761 -0.049631529)
(0.55439768 -0.043006721 -0.049731843)
(0.55587576 -0.023647817 -0.049793725)
(0.55742161 -0.0043294295 -0.049868964)
(0.55896887 0.015070432 -0.049953961)
(0.56056679 0.034496855 -0.05008703)
(0.54261458 0.055543617 -0.048872418)
(0.52302799 0.057064666 -0.047488756)
(0.50337395 0.058503546 -0.046143482)
(0.48365764 0.059840493 -0.044826045)
(0.4639064 0.061057536 -0.043543626)
(0.44417002 0.062126413 -0.042291388)
(0.42448586 0.063036877 -0.041065654)
(0.40489761 0.063772936 -0.039869626)
(0.38545796 0.06432616 -0.038698519)
(0.36620629 0.064698653 -0.037547688)
(0.34717222 0.06486104 -0.036425872)
(0.32849827 0.064821354 -0.035298786)
(0.310053 0.0646158 -0.03422301)
(0.29203333 0.064206064 -0.033136106)
(0.27440408 0.063621335 -0.032071439)
(0.25722768 0.062862618 -0.031007316)
(0.24052253 0.061939284 -0.029946701)
(0.2243264 0.060864352 -0.028887419)
(0.20865489 0.059647857 -0.027823388)
(0.19353611 0.05829996 -0.026756745)
(0.17897758 0.056833558 -0.025679423)
(0.16500658 0.055261973 -0.024598909)
(0.15161855 0.053583672 -0.023497416)
(0.13882258 0.051837563 -0.022406673)
(0.12662127 0.049983256 -0.021289269)
(0.11502601 0.048098393 -0.02018838)
(0.10402151 0.046102246 -0.019056145)
(0.093613857 0.044109424 -0.017962151)
(0.08380033 0.042000189 -0.016828646)
(0.074563328 0.039918367 -0.01575406)
(0.065923039 0.037725931 -0.014643556)
(0.057832895 0.035567715 -0.013601402)
(0.050318492 0.033336313 -0.012553363)
(0.043391971 0.031087442 -0.011516382)
(0.037047319 0.028761762 -0.010555024)
(0.031152911 0.02655772 -0.0096177577)
(0.025903588 0.024167924 -0.0087124357)
(0.02107825 0.02191884 -0.0079125137)
(0.016861507 0.019561065 -0.0071300945)
(0.013105631 0.017305621 -0.0063968429)
(0.0099787346 0.014842262 -0.0057320043)
(0.0071596306 0.012713465 -0.0051850682)
(0.0050666221 0.010283015 -0.0046034817)
(0.0033028338 0.0081677849 -0.0041033247)
(0.002120731 0.0060168591 -0.0035828247)
(0.0013968874 0.0038682872 -0.0028863477)
(0.0018052542 0.0021920798 -0.0016804553)
(0 6.0655584e-19 0)
(0 4.7507653e-19 0)
(0 -2.461837e-19 0)
(0 -1.6176358e-18 8.0954254e-19)
(0 -1.4202984e-18 0)
(0 -3.122739e-19 0)
(0 1.493308e-18 0)
(0 2.11899e-18 0)
(0 2.0199334e-18 0)
(0 1.919281e-18 0)
(0 1.6576025e-18 -2.036295e-19)
(0 4.4778938e-18 0)
(0 1.9630467e-18 0)
(0 -3.6169554e-19 0)
(0.54920297 -0.111771 -0.049241107)
(0.5493342 -0.11035028 -0.049261641)
(0.54946666 -0.10891662 -0.049259792)
(0.54958578 -0.10746959 -0.049267569)
(0.54969564 -0.10600286 -0.049269623)
(0.54978876 -0.10450385 -0.049281571)
(0.54986935 -0.10298918 -0.049323937)
(0.56140455 0.043875842 -0.050202325)
(0.56154874 0.045389951 -0.050197633)
(0.56167996 0.046882451 -0.050202939)
(0.56179104 0.048346329 -0.050215909)
(0.56188472 0.049791492 -0.050233733)
(0.56196401 0.051214086 -0.050243288)
(0.56203539 0.0526232 -0.050243029)
(-0.00023659198 0.0013852894 0.0017055679)
(-0.00030089796 0.0022258676 0.0018142906)
(0.00034407114 0.0032923498 0.0019501404)
(0.0013762273 0.0044222891 0.0018304724)
(0.0031000081 0.0055323568 0.0015692839)
(0.005197045 0.0068124271 0.0011997782)
(0.0079801582 0.0080616106 0.00070067663)
(0.011069943 0.0093814648 0.00017979158)
(0.014877435 0.01072093 -0.00046156119)
(0.019044676 0.012087434 -0.0011368472)
(0.02386702 0.013465386 -0.0018893402)
(0.029116596 0.014870743 -0.002678011)
(0.035013902 0.016262969 -0.00353759)
(0.041368372 0.017701259 -0.0044279777)
(0.048342601 0.019090159 -0.0053559474)
(0.055852058 0.020533273 -0.0063358162)
(0.063927511 0.021923292 -0.0073291583)
(0.072571294 0.02333831 -0.0083595637)
(0.081798547 0.024699557 -0.0094092485)
(0.091601095 0.026058795 -0.010482745)
(0.10199156 0.027369319 -0.011575897)
(0.11296855 0.028639178 -0.012684473)
(0.12453641 0.029852582 -0.013812224)
(0.13669534 0.031005492 -0.014956887)
(0.14944161 0.03207868 -0.016118613)
(0.16278326 0.033066243 -0.017303304)
(0.17669845 0.033960609 -0.018507461)
(0.19118694 0.034747136 -0.019737513)
(0.20624049 0.035419294 -0.020992285)
(0.22183897 0.035962549 -0.022280922)
(0.23796337 0.03637245 -0.023599316)
(0.25459816 0.036639839 -0.024954676)
(0.27171264 0.036757733 -0.026347408)
(0.28927815 0.036729338 -0.027781994)
(0.3072622 0.036535333 -0.029249143)
(0.32562776 0.03619998 -0.030764386)
(0.34432839 0.035702162 -0.032309206)
(0.36333769 0.035059307 -0.033893378)
(0.38259218 0.034277945 -0.035499401)
(0.40205613 0.033361534 -0.037131549)
(0.42167077 0.032325152 -0.038780407)
(0.44140482 0.031176502 -0.040433441)
(0.46119331 0.029938342 -0.04209073)
(0.4810031 0.028612418 -0.043732373)
(0.50079744 0.027221862 -0.045360719)
(0.52050519 0.025794464 -0.046963136)
(0.54016075 0.024286569 -0.048548824)
(-0.00077582812 0.00079988229 0.0011080574)
(-0.00077188728 0.0013265137 0.0010383664)
(-0.00010444673 0.001989034 0.0011504434)
(0.00092651152 0.0027714357 0.00084799403)
(0.0026050112 0.0033857427 0.00064469592)
(0.0047403073 0.0042765575 0.00012860754)
(0.0073829544 0.0049496325 -0.00024977907)
(0.010541488 0.0058780712 -0.00088242682)
(0.014246605 0.0066292054 -0.0014708416)
(0.018434059 0.0075702089 -0.0021817091)
(0.023171082 0.0083453982 -0.002896411)
(0.028441273 0.0093040191 -0.0037270732)
(0.034246785 0.010109717 -0.0045535573)
(0.040599313 0.011055378 -0.0054426365)
(0.047525771 0.011884201 -0.0063788343)
(0.054986494 0.012804283 -0.0073440103)
(0.063011804 0.013635615 -0.0083416848)
(0.071617872 0.014513771 -0.0093677483)
(0.080783944 0.015314254 -0.010413157)
(0.090549425 0.016126558 -0.011480938)
(0.10088524 0.01687181 -0.012568977)
(0.11182705 0.017588272 -0.013666087)
(0.12334008 0.018248301 -0.01478979)
(0.13545972 0.01884464 -0.015913203)
(0.14815806 0.019372843 -0.017065845)
(0.16145472 0.019827292 -0.018224992)
(0.175319 0.020184352 -0.019404438)
(0.18976994 0.020455928 -0.020606443)
(0.20478383 0.020613344 -0.021833026)
(0.22034122 0.020668865 -0.023079739)
(0.23643604 0.02060093 -0.024359168)
(0.25304133 0.020416312 -0.025669117)
(0.27012819 0.02010682 -0.027013439)
(0.28767509 0.019667654 -0.028388538)
(0.30564022 0.019106551 -0.029804159)
(0.32399478 0.018423003 -0.031251973)
(0.34269048 0.017611508 -0.032733656)
(0.36169224 0.016695598 -0.034248839)
(0.38094153 0.015665985 -0.035789426)
(0.40040904 0.014542028 -0.037355628)
(0.42003187 0.013332809 -0.038939759)
(0.43977378 0.012041088 -0.040532311)
(0.45957939 0.010696726 -0.04213545)
(0.47940022 0.0092862864 -0.043729071)
(0.49921796 0.0078415439 -0.045320114)
(0.51893775 0.006373889 -0.046900074)
(0.53862603 0.0048377398 -0.048458795)
(-0.0011258154 0.00035381498 0.00054517477)
(-0.0010859544 0.00049390209 0.00046684418)
(-0.00044138221 0.00076645897 0.00031165051)
(0.00061465564 0.0010726459 8.1526173e-05)
(0.0023394932 0.0013237689 -0.00030376274)
(0.0043707809 0.0016444553 -0.00066921148)
(0.0071142666 0.0019595569 -0.0012309345)
(0.010168515 0.0022692747 -0.001792526)
(0.013925634 0.0026431119 -0.002439131)
(0.018014643 0.002940862 -0.0031172003)
(0.022798273 0.0033262804 -0.0038993482)
(0.027964903 0.0036712307 -0.0046959138)
(0.033770174 0.0040113453 -0.0055385616)
(0.04005663 0.0043803896 -0.0064508064)
(0.046941621 0.0047052986 -0.007366544)
(0.05434758 0.005066361 -0.0083390109)
(0.062345463 0.0053673098 -0.0093402751)
(0.070891386 0.0056900344 -0.010359416)
(0.080026652 0.0059473429 -0.011407483)
(0.089727424 0.0062062879 -0.012465683)
(0.10001659 0.0064022626 -0.013543902)
(0.11088226 0.0065734588 -0.014631168)
(0.12235193 0.0066754166 -0.015732221)
(0.13440651 0.006729975 -0.016847872)
(0.14705358 0.0067125096 -0.017975882)
(0.16029688 0.0066236086 -0.019119063)
(0.17412274 0.0064534443 -0.020279581)
(0.18853893 0.0062011787 -0.021462384)
(0.20350368 0.0058591848 -0.022654242)
(0.21902924 0.0054202161 -0.023872859)
(0.23508729 0.0048861875 -0.025117609)
(0.25165868 0.0042515131 -0.026385671)
(0.2687166 0.0035150355 -0.027682072)
(0.28623591 0.0026793707 -0.029011229)
(0.30417697 0.0017481752 -0.030369974)
(0.32250954 0.00071983357 -0.031760672)
(0.34118911 -0.0003947525 -0.033181362)
(0.3601764 -0.0015894691 -0.034634528)
(0.3794246 -0.0028577919 -0.036112071)
(0.39887948 -0.0041859003 -0.037612887)
(0.41849712 -0.0055747509 -0.03912999)
(0.43823117 -0.0070053638 -0.040661335)
(0.45803255 -0.0084686021 -0.042203708)
(0.47785406 -0.0099671351 -0.04374105)
(0.49767007 -0.011473506 -0.045289913)
(0.51740258 -0.012998908 -0.046820023)
(0.53710295 -0.014553633 -0.048358726)
(-0.0011671783 -0.00013634055 -8.2795663e-05)
(-0.0011263415 -0.00029991232 -0.00040906362)
(-0.00046814063 -0.00051310057 -0.00049809634)
(0.0005984033 -0.000579599 -0.00091541303)
(0.0022513923 -0.00089740262 -0.0011387666)
(0.0043583714 -0.00091767572 -0.0017223569)
(0.0069764731 -0.0011991061 -0.0021285929)
(0.01011772 -0.0012682395 -0.0027877007)
(0.013719759 -0.0014951741 -0.0033564301)
(0.017883297 -0.0016114228 -0.0041049227)
(0.022533376 -0.0017996878 -0.0048360982)
(0.02773486 -0.0019530763 -0.0056410332)
(0.033480778 -0.0021561722 -0.0065210451)
(0.039755293 -0.0023026469 -0.007414568)
(0.046586444 -0.0025372585 -0.0083475042)
(0.053969839 -0.0026959517 -0.0093266027)
(0.061913718 -0.0029558136 -0.010323459)
(0.070429813 -0.0031750004 -0.011349245)
(0.079504265 -0.0034714511 -0.012392958)
(0.089176578 -0.0037774183 -0.013448291)
(0.099420233 -0.0041226884 -0.014538811)
(0.11028867 -0.0045242171 -0.015609742)
(0.12169599 -0.0049751465 -0.016724487)
(0.13372154 -0.0054665788 -0.017825279)
(0.14633093 -0.0060276052 -0.018958534)
(0.15952716 -0.0066393098 -0.020079284)
(0.17330378 -0.0073317412 -0.0212216)
(0.18765384 -0.0080864745 -0.022362986)
(0.20257035 -0.0089264009 -0.023527081)
(0.21804071 -0.0098384229 -0.024706379)
(0.23404576 -0.010827833 -0.025906483)
(0.2505659 -0.01190398 -0.02712137)
(0.26757393 -0.013046453 -0.028370817)
(0.28504538 -0.014272198 -0.029637332)
(0.30294045 -0.015562515 -0.030936908)
(0.32122996 -0.016918852 -0.032261216)
(0.33986665 -0.018334104 -0.033615701)
(0.35881061 -0.019796924 -0.034995704)
(0.37800684 -0.021306012 -0.036402478)
(0.39743331 -0.022849412 -0.037832157)
(0.41702735 -0.024411945 -0.039290398)
(0.43674026 -0.025994958 -0.040755506)
(0.45653037 -0.027576759 -0.04224743)
(0.47634117 -0.029173057 -0.043733744)
(0.49615809 -0.030749292 -0.045243549)
(0.51589264 -0.032326467 -0.046738354)
(0.53559797 -0.033895984 -0.048243423)
(-0.0011797834 -0.00061724879 -0.0007266338)
(-0.0010024535 -0.0010872493 -0.00098520952)
(-0.0003926361 -0.0017389298 -0.0012843119)
(0.00065302891 -0.0023296928 -0.0015827141)
(0.002374886 -0.0029863238 -0.002035034)
(0.0043778303 -0.0036179482 -0.0024669215)
(0.0070955441 -0.0042404184 -0.003036604)
(0.010083531 -0.0049355994 -0.003599557)
(0.013794632 -0.0055394999 -0.0042948054)
(0.017855137 -0.006255747 -0.0050025475)
(0.022565069 -0.0069001805 -0.0057857602)
(0.027687996 -0.007605972 -0.006622018)
(0.033421961 -0.0082802676 -0.0074838615)
(0.039644618 -0.0089984768 -0.0083804683)
(0.046447438 -0.0097377796 -0.0093278148)
(0.053779347 -0.010462011 -0.010294371)
(0.061695834 -0.011260546 -0.011305616)
(0.070149052 -0.012021422 -0.01231875)
(0.079203693 -0.012878758 -0.01336839)
(0.088802909 -0.013711037 -0.014419984)
(0.099019477 -0.014612448 -0.015496925)
(0.10975387 -0.015561456 -0.016549624)
(0.12111939 -0.01652695 -0.017647145)
(0.13307464 -0.017579936 -0.018731067)
(0.1456167 -0.018666653 -0.019823109)
(0.15875395 -0.019825804 -0.02092029)
(0.17247649 -0.021035536 -0.022035133)
(0.18677841 -0.022307211 -0.023154554)
(0.20164437 -0.023642617 -0.024292471)
(0.21706255 -0.025032322 -0.02543784)
(0.23302059 -0.026488505 -0.026599736)
(0.24948986 -0.028001902 -0.027777986)
(0.26645428 -0.02956302 -0.028981176)
(0.2838793 -0.031184899 -0.030197605)
(0.30173246 -0.032836856 -0.031447137)
(0.31998092 -0.034533002 -0.032716396)
(0.33858412 -0.036252045 -0.034013791)
(0.35749149 -0.037995282 -0.035339212)
(0.37667798 -0.039743972 -0.036695122)
(0.39609001 -0.041489555 -0.038069729)
(0.41565293 -0.043239085 -0.039458938)
(0.43534192 -0.044967736 -0.040877854)
(0.45510793 -0.046680532 -0.042308915)
(0.47490179 -0.048370686 -0.04375116)
(0.49469206 -0.050021002 -0.045213168)
(0.51441682 -0.051647784 -0.046662357)
(0.53409993 -0.053231569 -0.048129877)
(-0.0008927196 -0.0010415847 -0.0013259264)
(-0.00056293711 -0.001885488 -0.001746499)
(2.4940802e-05 -0.0030583089 -0.0020174532)
(0.0011405557 -0.0039724362 -0.002551775)
(0.0027668349 -0.0052112673 -0.0028476359)
(0.0048477052 -0.0061679326 -0.0034535469)
(0.0074516604 -0.0074131663 -0.0039115141)
(0.010543371 -0.0084655777 -0.0045856796)
(0.014145303 -0.0096653817 -0.0052312331)
(0.01824742 -0.010813714 -0.0059451257)
(0.022863344 -0.012009274 -0.0067346797)
(0.028003406 -0.01320409 -0.0075624242)
(0.03369043 -0.014458516 -0.0084373659)
(0.039886361 -0.015682098 -0.0093529332)
(0.04665516 -0.016981803 -0.010301026)
(0.053947954 -0.018248779 -0.011283027)
(0.061821243 -0.019599725 -0.012287859)
(0.070242368 -0.020923118 -0.013311229)
(0.07924014 -0.022335118 -0.014364652)
(0.088808047 -0.023727297 -0.015407795)
(0.098952198 -0.025225802 -0.016491896)
(0.10970037 -0.026662507 -0.017532631)
(0.12101623 -0.028227792 -0.018658026)
(0.13291646 -0.029855354 -0.019694592)
(0.14541425 -0.031521941 -0.020807929)
(0.15848664 -0.033208234 -0.021888453)
(0.17215163 -0.034957109 -0.022980761)
(0.18638141 -0.03674265 -0.024069414)
(0.20117541 -0.038574907 -0.025175082)
(0.21652486 -0.040454548 -0.026277576)
(0.23240772 -0.042373875 -0.027398487)
(0.2488058 -0.044331742 -0.028523906)
(0.2656954 -0.046313743 -0.029672508)
(0.28304539 -0.048325547 -0.030829099)
(0.30082483 -0.050338751 -0.03201938)
(0.31900376 -0.052366745 -0.033218599)
(0.3375292 -0.054382407 -0.034451635)
(0.35637557 -0.056389779 -0.03569983)
(0.37548779 -0.058370754 -0.036984102)
(0.39481375 -0.060323245 -0.038273996)
(0.41432943 -0.062216604 -0.039615188)
(0.43397241 -0.064081824 -0.040962482)
(0.45369908 -0.065893197 -0.042340739)
(0.47345904 -0.067661264 -0.043731585)
(0.49322072 -0.069364617 -0.045149441)
(0.51293309 -0.071027873 -0.046571727)
(0.53259373 -0.072625171 -0.048010746)
(-0.00045597364 -0.0015987608 -0.0018214132)
(-3.8876348e-05 -0.0027605719 -0.0022172184)
(0.00052474876 -0.004241085 -0.0027655203)
(0.0016356732 -0.0056955817 -0.0031758845)
(0.0032673012 -0.0072168089 -0.0036554192)
(0.0053056048 -0.0087950846 -0.0041806886)
(0.0079563988 -0.010395585 -0.0047308354)
(0.010973474 -0.012041273 -0.0053904859)
(0.014607173 -0.013676636 -0.0060528758)
(0.018645388 -0.015395366 -0.006802033)
(0.02327903 -0.017048204 -0.0076126297)
(0.028387318 -0.018835712 -0.008442796)
(0.034045327 -0.02056552 -0.0093389995)
(0.040212197 -0.022364785 -0.01026401)
(0.04695264 -0.024177589 -0.011208793)
(0.054199686 -0.026015999 -0.012212034)
(0.062048887 -0.027892031 -0.013204014)
(0.070407702 -0.029793767 -0.014254678)
(0.079381568 -0.031733601 -0.015278817)
(0.088883793 -0.033720803 -0.016348658)
(0.098996015 -0.035722953 -0.017402436)
(0.10965044 -0.037801482 -0.018471164)
(0.12094101 -0.039891056 -0.019539849)
(0.13277474 -0.042058569 -0.020606135)
(0.14520983 -0.044246189 -0.021686503)
(0.15821217 -0.046487984 -0.02274229)
(0.17179427 -0.048762842 -0.023808898)
(0.18596608 -0.05106676 -0.024877505)
(0.20069103 -0.053406033 -0.025949029)
(0.21597498 -0.055777688 -0.027020571)
(0.23178682 -0.058172372 -0.028096236)
(0.2481135 -0.060579521 -0.02918192)
(0.26493187 -0.062992816 -0.030278061)
(0.28220764 -0.065403956 -0.031387259)
(0.29992075 -0.067790452 -0.032518805)
(0.31802358 -0.07016375 -0.033661548)
(0.33648611 -0.072488101 -0.034833588)
(0.35526765 -0.074770398 -0.036027289)
(0.37431854 -0.07699247 -0.037247536)
(0.3935917 -0.079145993 -0.038494122)
(0.41305636 -0.081230575 -0.039764507)
(0.43265209 -0.083233032 -0.04106108)
(0.45233722 -0.085162457 -0.04238494)
(0.47206282 -0.087007215 -0.043733619)
(0.49179167 -0.088773696 -0.045111382)
(0.51148014 -0.09047352 -0.046501929)
(0.53109156 -0.09209352 -0.047915945)
(0 -1.7888863e-19 0)
(0 1.0034672e-18 0)
(0 8.6710772e-19 0)
(0 7.6520736e-19 -2.6230317e-19)
(0 3.0229739e-19 0)
(0 -1.0617114e-20 0)
(0 1.4694897e-19 0)
(0 5.4868216e-20 0)
(0 -3.5651438e-19 0)
(0 -8.7891504e-19 0)
(0 -1.0918798e-18 -1.8130218e-19)
(0 -1.7900381e-19 0)
(0 2.2050023e-19 0)
(0 4.2591186e-19 0)
(0 3.5258364e-19 0)
(0 5.5536802e-19 0)
(0 1.0143077e-18 0)
(0 1.0147539e-18 5.111337e-19)
(0 8.7639285e-19 0)
(0 1.0204642e-18 0)
(0 3.4555905e-19 0)
(-6.1484701e-18 2.8965211e-19 0)
(2.6286372e-18 -6.582659e-19 0)
(-1.5262236e-19 -2.6407102e-19 0)
(4.7321147e-19 -4.6461717e-19 -3.5258226e-19)
(-8.8494673e-19 -6.4942484e-19 0)
(-2.2650412e-18 -9.2832526e-19 0)
(3.4616159e-19 -7.6652042e-19 0)
(0 5.8665914e-19 0)
(0 2.0999454e-19 0)
(0 -4.0723307e-19 0)
(0 3.97e-20 1.0389319e-18)
(0 4.4779648e-19 0)
(0 6.5219458e-19 0)
(0 -1.8120072e-19 0)
(0 -4.7428481e-19 0)
(0 -3.8774939e-19 0)
(0 9.1205593e-20 0)
(0 4.550659e-19 -1.0369437e-19)
(0 3.3669691e-19 0)
(0 -1.2203179e-19 0)
(0 3.1507124e-19 0)
(0 5.6995635e-20 0)
(0 -3.3554213e-19 0)
(0 4.9124692e-19 0)
(0 3.1282833e-20 3.5958707e-19)
(0 4.866925e-19 0)
(0 7.6967559e-19 0)
(0 6.9706503e-19 0)
(0.0008161795 -0.00060017946 -0.0011906778)
(0.00090000722 -0.00069099286 -0.00070545151)
(0.0010042552 -0.00067729817 -0.00029728626)
(0.00097531313 -0.00068311455 3.9547812e-05)
(0.00086108022 -0.00057531941 0.0003457421)
(0.00069939954 -0.00054020937 0.00065239102)
(0.00040647427 -0.00028462201 0.00093503852)
(0.0013519238 -0.0031009447 -0.0021664423)
(0.0016903966 -0.0031035688 -0.0012466973)
(0.0017563926 -0.0027707186 -0.00054686358)
(0.0016647912 -0.0025538282 -6.4189786e-05)
(0.0015636081 -0.0025324954 0.00044080014)
(0.0011902116 -0.0023451937 0.0009642541)
(0.00081205555 -0.0021544434 0.0016004415)
(0.0018628715 -0.0046464691 -0.0025147228)
(0.0022252439 -0.0043076544 -0.0017600991)
(0.0024432343 -0.0041776739 -0.00095412142)
(0.0023838626 -0.0039663008 -0.00025302698)
(0.0022134046 -0.0037055669 0.00042265384)
(0.0018149065 -0.003565204 0.00096478828)
(0.0013339912 -0.0033952407 0.0017542581)
(0.0031448495 -0.006738626 -0.0030815884)
(0.0035928775 -0.0064794299 -0.0022449998)
(0.0037467114 -0.0061144488 -0.001345012)
(0.0037590302 -0.0058226247 -0.00061897944)
(0.0035319773 -0.0055766248 0.00011377701)
(0.0031737925 -0.0053046131 0.00086555107)
(0.0025135698 -0.0050102187 0.0015513868)
(0.0047975225 -0.0087581369 -0.0034960298)
(0.0052024967 -0.0082972448 -0.0026334942)
(0.0054609434 -0.0079780768 -0.0017779572)
(0.0054430818 -0.0076093314 -0.00097082702)
(0.0052732657 -0.0072578749 -0.00016178756)
(0.0048318857 -0.0069429729 0.00051921254)
(0.0042609399 -0.0065860283 0.0013373538)
(0.0069012175 -0.010701719 -0.0040832491)
(0.0073344558 -0.010234598 -0.0031895977)
(0.0075609807 -0.0097648786 -0.0022895967)
(0.0075931719 -0.0093539652 -0.0014661155)
(0.0073713783 -0.0089558984 -0.00064659941)
(0.006983813 -0.0084999597 0.00015820457)
(0.0063244415 -0.0081138749 0.0008733507)
(0.0095391379 -0.012836371 -0.0046181889)
(0.010009385 -0.012360368 -0.0037282961)
(0.010304929 -0.01185032 -0.002826491)
(0.010307064 -0.011417249 -0.0020134727)
(0.010152613 -0.010912352 -0.0011592499)
(0.0097241023 -0.010478604 -0.00040496848)
(0.0090976398 -0.0098912043 0.00043042666)
(0.01261363 -0.014835395 -0.0053038981)
(0.013069172 -0.014221802 -0.0043671983)
(0.013312401 -0.013633291 -0.0034719649)
(0.013400582 -0.013098434 -0.0025944209)
(0.013170423 -0.012572449 -0.0017503189)
(0.012797411 -0.011999247 -0.00094480989)
(0.012153374 -0.011474227 -0.00018808337)
(0.016214005 -0.017014079 -0.0059605752)
(0.016733264 -0.016440956 -0.0050577098)
(0.017079579 -0.015910982 -0.0041570793)
(0.017093367 -0.015246801 -0.0032704414)
(0.016961153 -0.014658176 -0.0024278884)
(0.016523679 -0.014013613 -0.0016059453)
(0.015907573 -0.013334412 -0.0007544577)
(0.020318015 -0.019135976 -0.0067478802)
(0.020802699 -0.018377346 -0.0058053128)
(0.021082591 -0.017687731 -0.0048594294)
(0.021172633 -0.017068668 -0.0040094306)
(0.020963018 -0.016399442 -0.0031126545)
(0.020591733 -0.015722301 -0.0022974956)
(0.019944375 -0.015082626 -0.0014966636)
(0.024902399 -0.021330805 -0.0075395397)
(0.02545531 -0.020662245 -0.0066054468)
(0.025824187 -0.020003637 -0.0057047695)
(0.025883453 -0.019298715 -0.0047873604)
(0.025777487 -0.01858278 -0.0038908689)
(0.025351395 -0.017850573 -0.0030932256)
(0.024756164 -0.017068789 -0.0021547693)
(0.030063331 -0.023569851 -0.0084024247)
(0.030594691 -0.022772848 -0.0074336725)
(0.030883628 -0.021959674 -0.0065031554)
(0.030979184 -0.021161168 -0.00556982)
(0.030798104 -0.020399314 -0.0047144596)
(0.030384847 -0.019589933 -0.0038521699)
(0.02980155 -0.018837243 -0.002963709)
(0.035700857 -0.025815978 -0.0093061361)
(0.036257671 -0.025020776 -0.0083481976)
(0.036648094 -0.024282707 -0.0074134409)
(0.036750007 -0.023517757 -0.0065009095)
(0.036609091 -0.022710578 -0.0055475139)
(0.03623386 -0.021914834 -0.0047333741)
(0.035609114 -0.020997651 -0.0037892974)
(0.041871573 -0.028122554 -0.010232673)
(0.042415043 -0.027254831 -0.0092440094)
(0.04279429 -0.026397113 -0.0083220846)
(0.0428384 -0.025467678 -0.0073516929)
(0.042746621 -0.024640406 -0.0064792743)
(0.042297313 -0.023698589 -0.0056129586)
(0.041740288 -0.022860935 -0.004686022)
(0.048585467 -0.030464062 -0.01119841)
(0.049175774 -0.029598865 -0.010241848)
(0.049556233 -0.028724619 -0.0092814288)
(0.049706201 -0.027913772 -0.0083564691)
(0.049553131 -0.027003587 -0.0074075265)
(0.049208388 -0.026145038 -0.0065407613)
(0.048588716 -0.025137975 -0.0055744401)
(0.055839383 -0.03284311 -0.012204947)
(0.056386569 -0.031893267 -0.011199441)
(0.056838274 -0.031021824 -0.010271588)
(0.056870927 -0.030007096 -0.0092862239)
(0.056815552 -0.029111794 -0.0083724383)
(0.056370261 -0.028072447 -0.0074939025)
(0.055809878 -0.027156396 -0.006544848)
(0.06362879 -0.035258763 -0.013201949)
(0.064266581 -0.034360477 -0.012239832)
(0.064638226 -0.03337923 -0.011273612)
(0.064807554 -0.032495976 -0.010316502)
(0.064663671 -0.031503403 -0.0093778881)
(0.064319761 -0.030587852 -0.0084838254)
(0.063707903 -0.029507387 -0.0074932492)
(0.072011781 -0.037740874 -0.014257881)
(0.072554703 -0.036718386 -0.013255183)
(0.073047587 -0.035810724 -0.012298815)
(0.073090956 -0.034755744 -0.011318748)
(0.073047309 -0.033804452 -0.010375519)
(0.072616245 -0.032704154 -0.0094764997)
(0.072054944 -0.031712365 -0.0085017315)
(0.080894136 -0.040228421 -0.015284765)
(0.081556172 -0.039292231 -0.014301465)
(0.081940365 -0.038260473 -0.013347849)
(0.082108135 -0.037307468 -0.012359627)
(0.081984988 -0.036247741 -0.011420996)
(0.081629318 -0.035263639 -0.010508327)
(0.081030646 -0.034139847 -0.0095065747)
(0.090413311 -0.042810344 -0.016354399)
(0.090971647 -0.041756033 -0.015363879)
(0.091469374 -0.040794747 -0.014388682)
(0.091537306 -0.039708758 -0.013408412)
(0.091490476 -0.038703039 -0.012452128)
(0.091074046 -0.037575817 -0.011536837)