/*--------------------------------*- C++ -*----------------------------------*\
  =========                 |
  \\      /  F ield         | OpenFOAM: The Open Source CFD Toolbox
   \\    /   O peration     | Website:  https://openfoam.org
    \\  /    A nd           | Version:  6
     \\/     M anipulation  |
\*---------------------------------------------------------------------------*/
FoamFile
{
    version     2.0;
    format      ascii;
    class       pointScalarField;
    location    "0.76";
    object      E;
}
// * * * * * * * * * * * * * * * * * * * * * * * * * * * * * * * * * * * * * //

dimensions      [1 -1 -2 0 0 0 0];

internalField   nonuniform List<scalar> 
625
(
59809.319
70072.082
-859076.66
-427959.4
59284.195
64736.828
-648768.71
-1310414.1
15294.666
9333.7615
41435.289
-473957.89
-489001.93
-341892.88
79341.356
68454.345
63998.368
60389.752
55892.169
54905.124
52415.262
50098.106
45689.996
38279.154
27123.706
11483.693
-6713.9753
-26749.068
-46043.362
-63671.691
-75308.835
-83186.473
-80473.407
-74783.712
-62742.499
-45196.306
-15065.002
72648.514
48612.145
46325.133
36606.186
26400.754
17274.348
8599.9275
2343.5997
-1953.0453
-3741.6323
-1209.8536
4203.9538
14210.524
27369.936
43678.923
59977.364
76603.386
88285.607
96376.694
96288.947
85098.324
70592.261
37648.049
16461.11
6752.0473
36571.467
108672.41
101162.74
60098.671
59484.27
48401.036
24329.492
25729.425
15261.602
13883.899
14398.926
16995.388
23559.682
28989.558
35651.999
40867.45
45632.249
50023.345
53163.456
54160.571
53271.225
46688.822
36383.813
17442.749
-942100.51
-1003940.8
-955732.04
-10559.506
-29138.712
-39667.808
-50418.213
-57466.994
-58476.497
-57124.765
-49127.039
-38778.88
-24694.964
-10056.167
5121.5174
18187.422
29662.165
37979.024
43451.131
48620.919
50156.699
57218.95
60241.809
68798.411
70317.712
82909.973
52689.91
51615.069
52227.706
53634.176
49590.845
50731.52
-485072.05
-483622.04
-485929.86
-969848.71
-968778.63
-971014.26
32520.683
27218.457
27779.92
22528.778
17293.217
10240.362
3887.0944
-2709.7085
-6377.0866
-8772.1211
-7379.7451
-3310.651
4248.7054
14139.641
25477.279
37318.195
48536.119
57222.523
64363.653
62681.352
61637.747
51548.108
25040.337
11538.505
6735.2234
7158.5957
2771.2557
3012.582
3194.3686
2650.3919
5055.3465
5409.9975
7296.3174
9145.4436
11089.68
13965.405
17487.49
21767.999
26170.295
30657.528
32263.038
33865.534
27884.319
26022.444
13291.07
1981.1534
29435.14
30215.628
32854.414
31488.59
31726.701
32009.525
30532.837
29618.372
26329.417
22337.433
14636.461
4955.188
-7549.38
-21674.807
-36976.408
-50986.991
-63711.042
-70879.614
-75617.933
-70009.289
-60620.841
-43510.921
-12476.728
10545.257
10967.703
10927.377
5577.5894
4816.0483
7776.1955
20586.04
21995.794
22543.511
90989.005
88766.867
92166.992
92772.739
86825.504
81666.064
59857.147
54543.078
56135.162
51252.279
53892.459
50307.554
39127.185
35886.068
37429.087
27607.916
28673.272
26331.41
20354.596
19607.212
22876.552
14463.842
11578.876
10843.082
9410.1651
10063.723
8003.6479
9566.5083
8306.3872
6968.9829
11502.282
11129.305
9682.3445
17779.102
16160.282
15938.6
26225.748
22913.377
24283.669
37511.594
31373.521
34386.451
50084.872
40342.57
45624.461
63234.241
49790.454
56923.278
75056.057
58861.281
67500.89
84668.25
66827.975
76033.151
89090.551
71418.972
80356.646
86891.923
70991.321
79010.402
77627.216
64882.346
71667.368
60286.055
55764.06
59392.07
31803.984
27768.375
33452.409
-635971.84
-633689
-631884.36
-581978.07
-639644.35
-639958.17
-665518.29
-612784.18
-611505.69
78154.553
71966.851
70236.308
73874.348
71240.869
73176.824
68921.64
63915.53
62915.362
62211.317
57886.478
59899.186
57746.121
56946.561
55867.407
56821.689
51243.252
52004.662
54012.227
51515.166
51567.392
52637.892
48530.784
48123.242
46407.333
44981.052
42279.706
38000.853
37852.178
35692.762
28474.875
27040.232
24688.191
12790.1
12519.674
10169.486
-4662.8015
-3862.9827
-5688.2062
-22991.617
-21915.082
-22901.105
-40761.032
-39331.462
-38737.109
-55530.92
-54373.755
-52713.63
-66162.157
-65717.346
-62059.765
-71337.479
-71059.428
-67688.228
-71242.571
-72862.321
-66807.955
-62588.315
-67703.455
-61057.79
-50620.866
-55829.726
-50310.422
-39346.624
-39204.098
-37551.626
-11783.064
-12632.85
-11701.864
50772.426
46569.864
39695.658
31451.812
26446.577
16295.022
11674.605
7029.5246
3260.0226
5234.0815
8840.8326
13755.836
21694.923
30152.813
38881.15
47229.401
53738.798
58675.308
59066.648
56652.016
48618.094
36768.193
27529.153
7561.8445
23228.987
9276.4075
21247.764
21610.701
24998.464
29136.226
29103.987
29084.315
24863.975
20338.802
13848.774
7331.8313
186.4922
-7320.8873
-14991.482
-22223.42
-29013.508
-33909.241
-35998.884
-35327.023
-30106.02
-19216.603
42266.719
25537.573
31019.791
28893.965
25943.454
23519.797
21472.45
19342.106
14442.984
9088.6846
1428.7162
-8876.4818
-20053.685
-32189.159
-43773.49
-53697.569
-60838.466
-64575.208
-62946.553
-56398.875
-44983.021
-25318.591
-4136.2311
43013.83
38150.338
38589.085
39388.643
39005.227
37494.884
34946.08
35060.059
32869.533
27472.794
25575.953
25271.345
20620.49
21331.925
20439.823
13248.263
12836.89
11492.577
7073.1429
6892.1631
5092.1737
815.15409
1158.1629
-168.05686
-1743.01
-1842.2591
-3459.7227
-2258.2943
-3256.3473
-3852.446
652.58204
-363.9286
-565.57919
5868.1097
4936.1382
4862.7798
13969.183
12842.95
13550.496
23953.742
22720.957
23810.268
35046.775
34043.506
35374.835
46619.443
45620.359
46695.578
56692.597
56175.783
57270.432
65585.185
65209.586
64758.222
69706.482
68099.911
69425.521
66465.834
70455.655
68002.655
62838.131
63200.358
61806.206
50430.901
51500.122
50915.008
28087.558
27544.116
29060.8
9952.7324
8757.6226
6740.6792
14842.017
20645.13
19991.395
8699.5218
6044.9739
5093.3533
9314.4705
13145.343
13367.029
11563.01
11514.982
11925.842
12634.724
13642.773
14030.208
13805.702
15942.033
17020.994
15908.567
16764.666
17411.931
15687.879
16821.875
18480.692
15807.154
16620.689
17341.425
14969.701
15000.239
15688.355
14183.387
13430.21
13425.933
13450.294
11792.241
10869.544
12534.237
10040.531
8770.7626
11745.619
8496.5111
6374.3527
10464.984
6123.9701
4242.6758
8712.2664
3794.7245
1484.4694
6167.7358
-272.96771
-1153.5332
2906.7569
-3358.3314
-4437.8476
-2163.4675
-5971.075
-7520.7461
-13030.379
3878.162
-7563.0629
-8131.5128
-13525.527
-12150.241
-11273.236
-16478.278
-15675.237
32897.185
34783.659
38164.531
29526.344
32787.855
39173.895
30293.697
35346.79
37320.278
30013.531
29511.343
32774.678
28010.223
27725.449
31124.407
26133.522
25457.706
28195.863
26280.461
22873.666
24936.367
22984.31
20763.868
23837.768
20551.258
18105.049
19862.155
15401.883
13148.444
14539.359
8125.2929
6071.62
7278.9738
-1417.9522
-2992.9754
-2232.3405
-13652.078
-13858.498
-13527.939
-26864.851
-25603.697
-26202.787
-40779.262
-37582.983
-38780.762
-53801.825
-47961.161
-50548.462
-63999.204
-56869.591
-59777.731
-71266.281
-61434.929
-64854.493
-72256.18
-61591.567
-65742.811
-66304.264
-57270.768
-60077.66
-56621.325
-47916.395
-51527.993
-36430.936
-29879.974
-33580.028
-11628.909
-5912.5881
-7941.222
)
;

boundaryField
{
    free
    {
        type            zeroGradient;
    }
    fixed
    {
        type            zeroGradient;
    }
    traction
    {
        type            zeroGradient;
    }
}


// ************************************************************************* //
