/*--------------------------------*- C++ -*----------------------------------*\
  =========                 |
  \\      /  F ield         | OpenFOAM: The Open Source CFD Toolbox
   \\    /   O peration     | Website:  https://openfoam.org
    \\  /    A nd           | Version:  6
     \\/     M anipulation  |
\*---------------------------------------------------------------------------*/
FoamFile
{
    version     2.0;
    format      ascii;
    class       pointScalarField;
    location    "0.51";
    object      p;
}
// * * * * * * * * * * * * * * * * * * * * * * * * * * * * * * * * * * * * * //

dimensions      [1 -1 -2 0 0 0 0];

internalField   nonuniform List<scalar> 
3969
(
1046147.3
-1619448.3
31.070931
285.01465
2052958
-3447796.4
138.53321
-252.51765
891277.2
592550.76
308077.48
-23160.333
-261266.45
-626404.12
-683229.49
-157.35152
-506.54573
-304.64147
-55.383233
312.65574
486.59269
374.08681
363103.92
400941.42
393541.58
410701.68
402279.3
403737.34
391728.93
383228.73
372227.6
358406.55
347566.36
335641.93
323426.3
312153.95
300527.43
288107
277002.14
264725.44
253026.17
239694.07
227056.81
213027.66
198747.48
184140.98
168419.68
152844.7
137391.23
122562.99
108274.93
94313.863
81464.537
69508.031
58363.991
48350.055
39230.168
31257.16
23983.782
18265.372
12955.715
9087.249
5999.8528
3801.2377
2098.5463
1345.826
338.7912
-30.156725
31.559402
-370006.31
-315321.71
-383724.46
-343422.47
-384841.03
-352707.09
-366791.68
-343663.55
-345262.18
-330605.07
-323845.31
-315653.14
-301207.91
-296347.87
-283095.27
-273693.44
-263584.8
-250217.27
-241154.07
-227740.42
-214995.45
-203789.55
-189106.15
-176775.37
-162076.48
-148486.24
-134149.51
-120565.6
-107524.81
-94694.134
-83752.286
-71968.038
-61996.444
-52096.639
-43475.169
-35556.063
-28907.968
-22712.596
-17599.603
-13247.601
-9666.6182
-6971.0303
-4801.1468
-3065.5864
-1623.1366
-732.37019
-142.0606
1540461.3
1132859.2
494219.7
-107868.69
-573949.2
-1226004.9
-994702.19
-450082.6
-502111.82
-326309.76
-461692.81
-399663.03
-414517.44
-395647.31
-392142.7
-373538.78
-348121.83
-371803.02
-336958.32
-342509.96
-325511.38
-313842.4
-304274.51
-287239.78
-276792.55
-261740.97
-247087.14
-233599.66
-219091.44
-204089.16
-188998.15
-174008.19
-160413.81
-144415.19
-127436.07
-113400.29
-99183.745
-85366.339
-72994.493
-61303.624
-50659.437
-41216.889
-32336.519
-25202.765
-18711.346
-13582.136
-9398.3007
-6052.7844
-3800.3148
-2032.5022
-965.36228
-326.94319
73.328963
297.27438
598.48153
170.22218
347.80247
-646.96788
-596.06181
-536.26908
-252.78045
88.494648
180.21924
1278.6387
2643.4532
4379.8559
6540.2317
9255.4023
12584.029
16942.627
21873.64
28063.885
36114.397
44395.006
53872.235
64602.299
76042.477
88445.667
101881.02
115280.09
130172.99
145425.55
160368.85
176660.02
192687.96
208778.27
224600.66
239841.22
253757.9
268336.76
280760.83
293799.24
303784.63
309999.69
329667.76
349090.08
344927.7
366900.81
366126.19
379402.21
399603.42
415416.66
401140.45
429820.44
403777.74
407077.2
421251.97
410807.37
950076.52
1003632.4
1052206.4
1035013.3
1033629
1026975.2
838126.38
-1264491.3
-1617260.3
-1878263.8
-2002032.8
-1913660.6
-1905832.6
-1426269.5
346.35647
270.82992
230.29189
17.56383
-131.71688
-574.15927
-30.519457
214.4678
112.81073
-218.64075
-399.70858
-512.8207
-576.65913
-444.40464
303155.81
314542.44
315900.53
316531.13
314523.5
309660.04
301298.58
298297.01
284152.31
282612.18
270703.4
260146.32
254445.34
244046.73
235015.46
225562.23
216910.02
206880.28
196888.64
186871.5
176647.22
165335.26
154190.75
142440.73
131164.85
118604.52
106547.36
95139.148
83613.506
72812.527
62817.326
53361.447
44897.809
37103.79
30216.407
24023.918
18684.869
13903.668
10120.936
7093.4297
4578.4446
2869.8483
1666.9015
1015.317
458.88833
278.94961
157.68306
185949.11
191386.75
190183.14
198845.96
199602.9
205218.42
196866.8
194427.88
188353.98
184837.04
176744.47
172391.14
164641.8
158117.29
153346.68
146555.19
141166.01
134157.07
128318.1
121575.29
114346.95
106950.77
99390.397
92065.533
84113.578
76705.377
69446.01
61236.706
54356.163
47326.266
40913.51
35002.541
29571.223
24684.454
20285.852
16335.537
12682.887
9725.6048
7143.7517
5014.6555
3266.817
2105.3825
1217.0026
841.79233
465.07302
293.26847
193.35952
88063.846
100353.29
90765.317
96325.913
95045.161
96584.945
93009.83
94801.264
89312.629
87262.307
85317.899
81858.03
78858.369
74208.472
70408.212
67595.458
64902.33
61886.522
59621.77
56515.119
54515.848
51862.544
48667.496
44866.262
41352.179
37174.264
33112.478
29364.405
25740.255
22080.478
18798.842
15761.339
13058.99
10653.527
8561.6371
6587.1451
4946.952
3474.2147
2094.3194
1225.3763
543.08891
140.27499
17.940021
6.250349
132.7362
3.1059916
114.19057
-9658.5344
-10038.322
-16629.725
-8091.7022
-16682.727
-11641.826
-18290.684
-15186.688
-17051.215
-8795.4274
-14804.241
-9983.0266
-12923.866
-10318.914
-10229.488
-9062.9537
-9229.8833
-8331.292
-7962.6564
-7861.5534
-7297.5478
-8240.3975
-9561.0193
-9021.6976
-8294.432
-7910.4282
-7366.1833
-6869.7501
-6572.0091
-6193.7635
-5699.3515
-5168.352
-4644.6365
-4035.5694
-3492.1556
-3030.0538
-2638.7389
-2382.2795
-1951.5191
-1545.4609
-1420.9796
-1243.6829
-970.62091
-643.43794
-328.14534
-160.84548
80.314003
-115321.17
-99557.404
-104889.62
-108690.48
-115328.76
-112689.47
-114844.9
-110183.3
-110645.08
-102162.7
-104645.73
-95160.584
-97540.075
-88911.291
-88865.404
-82802.544
-80808.1
-76212.825
-72844.066
-69168.271
-63491.374
-56682.076
-52194.919
-45968.166
-42801.672
-40297.117
-36086.901
-32513.39
-29443.364
-26283.541
-23210.289
-20408.803
-17607.502
-14967.242
-12565.92
-10456.05
-8758.1007
-7061.2229
-6833.6234
-5483.8481
-4337.6893
-3362.765
-2316.501
-1546.0421
-653.48825
-463.07076
3.7614338
-219083.16
-201969.1
-206180.74
-219172.64
-222151.61
-219846.62
-218991.52
-211162.24
-211270.92
-199213.81
-198854.5
-189396.79
-185675.73
-179482.3
-174081.19
-166005.26
-160120.12
-152250.89
-145440.94
-137791.57
-128517.49
-121442.62
-108832.34
-99368.134
-90291.941
-82563.787
-75473.188
-67825.764
-60593.625
-53785.922
-47468.817
-41164.983
-35419.761
-29977.245
-25086.996
-20703.704
-16844.473
-13467.524
-10379.214
-8091.438
-6415.807
-4834.6369
-3411.2865
-2243.3618
-1284.701
-688.29292
-117.34482
-361560.31
-255057.72
-305019.37
-300329.7
-317119.47
-306518.67
-310389.9
-298699.31
-301118.43
-282965.14
-285458.31
-271822.5
-264705.73
-255466.74
-245360.04
-235815.15
-224931.67
-216185.83
-205044.63
-194352.23
-183945.98
-171309.27
-160041.69
-148330.59
-136292.27
-125019.49
-114624.99
-102189.95
-91091.119
-80632.013
-70502.347
-61003.158
-52012.42
-43772.361
-36251.673
-29460.87
-23691.614
-18770.251
-14808.262
-11213.773
-8594.7518
-6348.7346
-4494.9028
-3036.1392
-1760.0688
-852.08922
-425.62753
680516.88
651762.24
682296.44
681578.16
683176.57
661117.35
626347.02
448279.15
484423.73
463760.34
469764.72
475277.42
462660.86
461833
229463.95
274251.12
230950.67
250657.51
235862.57
231155.33
249324.25
31577.829
-58.685133
-15706.299
7343.522
-8743.0801
-45510.652
59553.622
-139856.7
-147277.18
-160889.87
-141740.2
-156172.89
-154154.52
-82952.558
-460913.96
-493115.79
-490415.04
-505220.35
-518340.47
-509660.03
-468540.58
-532471.63
-496945.35
-416535.57
-430593.37
-405516.78
-372915.71
-430803.19
-611567.47
-638022.78
-724795.58
-745132.82
-765747.62
-750282.51
-579063.11
-458357.53
-526395.18
-533813.17
-547885.28
-569508.21
-546526.68
-497687.61
-398179.78
-454878.13
-478929.86
-482337.34
-484355.19
-451810.33
-471026.08
-392879.04
-432423.02
-424117.7
-452519.25
-435205.53
-432183.67
-408393.86
-397145.22
-421717.75
-437218.24
-439815.74
-441681.23
-421281.27
-427642.79
-389587.05
-383443.9
-394054.96
-402725.72
-403749.07
-395036.57
-390791.09
-372285.38
-385257.81
-391101.88
-397951.63
-394303.01
-395458.9
-393914.49
-371331.79
-366740.23
-368976.37
-374297.78
-371767.04
-373016.9
-370630.01
-356801.01
-360839.13
-361985.59
-367229.05
-369203.25
-369896.49
-370325.16
-352913.15
-348108.32
-346650
-349642.19
-349294.92
-343883.36
-346269.29
-339632.6
-341566.53
-336769.69
-341424.47
-340250.94
-337649.42
-345439.78
-327759.24
-327215.78
-325313.57
-330265.6
-328063.75
-321078.58
-331025.73
-322550.56
-313628.12
-317912.55
-315903.7
-317866.58
-314646.08
-323727.38
-305984.91
-303312.09
-307826.22
-305242.69
-308623.64
-300894.6
-308867.6
-299546.57
-292572.92
-297937.41
-293387.18
-296228.11
-290649.63
-299244.56
-286187.68
-280093.91
-287288.51
-281985.18
-287367.49
-280604.82
-288726.93
-274694.8
-271173.68
-276167.98
-271108.73
-276090.77
-268485.99
-275024.25
-263599.28
-259381.13
-265401.6
-259254.36
-265781.81
-256607.54
-264557.28
-251075.09
-248440.3
-253624.02
-247148.97
-253493.42
-244313.74
-252439.7
-238335.85
-236033.36
-241304.62
-234762.33
-241819.09
-232403.3
-240414.12
-225992.58
-222999.94
-228241.87
-221446.74
-228311.76
-219089.39
-226676.87
-211875.04
-209593.9
-214379.1
-208162.01
-214756.68
-205917.23
-213481.95
-198278.34
-195186.16
-200194.96
-193838.07
-199588.67
-192133.99
-198774.65
-183398.72
-181535.07
-185005.23
-179037.4
-185065.97
-178466.43
-184746.46
-168530.82
-167443.57
-167804.72
-165376.95
-169037.14
-164466.08
-169653.77
-152901.87
-152925.3
-150951.02
-152354.43
-152948.43
-152045.91
-155624.55
-140452.05
-138281.64
-137200.85
-137626.38
-137535.76
-135848.21
-139819.79
-126476.9
-123851.37
-123206.36
-122606.41
-122162.72
-122006.31
-123333.01
-112215.51
-109529.36
-108991.94
-107880.23
-107217.94
-108111.12
-108416.14
-99340.583
-95950.996
-96003.123
-94282.952
-94015.485
-94631.76
-94661.931
-86260.566
-83640.968
-82927.486
-81325.407
-80745.695
-81364.405
-81434.793
-74755.668
-71504.699
-71013.881
-69278.923
-68766.407
-69348.669
-69496.873
-63325.252
-60481.313
-59782.273
-58133.583
-57595.505
-58127.576
-58240.397
-53211.895
-50313.688
-49621.303
-47925.142
-47400.087
-47872.669
-47795.607
-43719.875
-41054.062
-40281.462
-38622.358
-38128.801
-38710.366
-38730.65
-35329.189
-32879.707
-32048.113
-30582.758
-30283.735
-30595.572
-30505.174
-28250.206
-25783.632
-25085.247
-23517.378
-23156.474
-23637.821
-23350.701
-21643.044
-19547.983
-18556.492
-17465.009
-16954.037
-17537.369
-17332.141
-16315.6
-14482.591
-13802.42
-12597.901
-12393.991
-12792.902
-12723.213
-12215.189
-10487.877
-9879.1868
-8771.9359
-8556.5678
-8897.0812
-8900.1066
-8679.0397
-7314.0486
-6591.8143
-5693.8717
-5548.2102
-5785.0795
-5931.4671
-6134.6247
-4917.1695
-4303.8682
-3557.5013
-3470.7652
-3560.5452
-3811.702
-4091.6626
-2899.7031
-2362.8123
-1749.6063
-1696.2116
-1698.2441
-2040.5797
-2534.1388
-1533.0814
-1206.5496
-691.19924
-714.74729
-612.23129
-931.11411
-1230.8781
-294.32874
-14.233843
384.71717
383.83036
387.09058
138.25101
-432.86587
171.96433
262.43553
552.37553
383.51025
402.30467
240.24745
132.84318
742.5098
907.67616
893.42622
838.10563
645.03022
765.9104
108.3358
268.08289
109.52644
-241.01208
-548.84831
-788.66202
-710.9063
-581.05281
-187.29356
-440.03059
-832.15398
-1009.754
-1269.3546
-1029.4324
-310.75
-105.13207
-348.55613
-766.20189
-946.23014
-1184.964
-775.857
142.71825
331.43602
149.3719
-124.60331
-236.91057
-570.58989
-171.33588
622.22217
773.12559
817.12027
437.94041
370.82955
191.91999
278.04476
896.76477
1076.3086
777.55395
546.55693
361.97307
21.947862
653.88154
1013.9352
1273.1469
1255.9561
1021.3247
715.803
694.03887
834.33852
439118.07
429135.64
489195.5
474772.01
489372.23
462578.42
452832.92
458250.41
468935.12
487742.34
484294.69
491882.52
462467.32
452732.11
444869.69
446954.62
461185.8
460780.18
460082.69
440645.62
433811.36
419612.53
430845.5
440739.7
443143.62
441966.16
428602.21
431734.73
421805.66
422892.3
427140.26
430141.78
427818.65
423295.04
414470.42
402109.73
404666.67
410884.49
406508.02
410118.32
397084.33
400774.68
398991.45
398269.64
399729.1
399914.06
405196.92
395983.82
404514.57
380904.99
379543.35
385904.76
374155.87
382483.88
376688.84
379693.98
373686.59
376680.22
375376.65
373163.07
378867.64
371964.33
380816.76
363205.77
358490.9
359451.36
355476.55
361773.17
354471.97
364307.65
351353.85
347755.35
354117.74
347281.86
354117.94
348590.34
355178.79
337461.43
338988.78
338128.38
333934.92
339257.18
334055.3
343349.75
329031.95
324725.16
326709.26
323261.56
328328.27
322855.13
323608.5
315909.86
314438.18
314706.78
312306.46
315947.29
313582.03
319765
303684.71
303418.61
301374.22
302015.22
303356.84
300709.2
307354.98
294487.26
290334.62
290881.06
289268.15
293656.25
289509.18
294252.52
281176.27
279573.33
278764.18
278861.75
280144.58
276941.34
282250
269124.74
267106.16
267613.81
266405.79
268128.1
265692.82
269541.86
256087.33
255163.06
255180.58
253876.9
255851.94
253111.13
257459.87
243419.8
241797.06
242183.41
241104.42
242751.83
239987.34
244044.87
230225.08
228105.96
229260.25
227514.44
229360.65
226528.79
230594.24
215890.06
214001.24
215246.06
213407.37
214887.95
211791.02
216147.36
201429.36
199426.21
201293.58
198910.44
200327.76
197461.4
201763.78
186038.49
184666.07
185853.15
183654.85
184796.96
181894.46
186367.45
170690.49
168545.69
170457.93
168161.65
169236.97
166727.56
171152.05
155044.93
152988.09
154923.47
152641.36
153552.58
151345.22
155504.38
139150.02
137827.31
139387.62
137042.96
138173.91
136193.99
140527.79
124375.19
122591.8
124069.12
122118.31
123464.62
121942.28
126053.56
109047.4
107736.21
109400.36
107721.21
108678.12
107496.2
111462.43
95177.93
94419.08
95343.702
94124.617
94958.617
94445.997
98094.457
82018.073
81253.199
82141.933
81224.464
82055.627
81675.62
85270.766
69555.807
69145.806
69663.586
69101.728
69780.659
69817.648
73294.054
58267.679
57975.088
58445.098
58044.63
58800.876
59021.538
62193.837
47855.919
47741.537
47879.459
47759.239
48365.074
48663.593
51708.293
38521.038
38348.909
38483.535
38443.993
39109.373
40213.282
42739.535
30155.52
30352.915
30313.334
30491.532
31336.463
32020.39
33972.65
23420.113
23160.314
22894.425
23242.325
23620.88
24621.259
27109.776
17008.506
16965.889
16963.036
17176.034
18045.024
18812.209
20933.48
12104.143
12226.981
11816.485
12410.978
13044.916
13933.278
15682.955
8263.4462
8332.7022
8039.3656
8660.2307
9070.8763
10029.318
11652.05
5296.1775
5365.0344
5146.4043
5623.2984
6126.0611
7058.6071
8358.5302
3199.4143
3369.7306
3066.3267
3545.811
3997.0713
4688.0976
5893.4279
1721.6495
1585.0006
1437.4243
1775.1015
2237.8118
2796.3783
3908.9683
901.52216
949.38468
722.9312
965.61333
1360.4125
1695.8218
2447.726
-58.058908
-290.97469
-456.94058
-280.98104
110.17684
274.79249
1024.4201
-185.65183
-217.06079
-359.48553
-187.95032
-155.1972
-107.5465
229.84167
-394.47387
-657.2646
-760.29464
-739.95605
-620.92364
-288.64174
11.061987
416843.39
339177.31
326683.8
325725.49
332540.29
336020.05
317720.56
318587.75
309332.17
304635.88
291904.13
284434.18
274805.88
262104.97
255661.65
245068.05
233738.72
223912.62
213075.76
202228.19
190863.59
179041.42
167212.89
155388.76
143192.89
131497.45
118875.99
106892.51
95491.18
84184.89
73521.097
63522.048
54138.453
45507.321
37821.533
30539.665
24579.521
19833.432
15505.687
11823.945
8857.7349
6361.7409
4296.2947
2685.3231
1392.6576
658.05738
125.63505
240196.25
249030.23
188657.3
217653.94
244240
225298.04
236396.11
220145.54
224407.35
212027.68
209019.37
202810.88
191090.43
188364.49
181195.37
176180.26
168496.12
160757.39
154096.58
145880.16
137920.46
129635.17
121118.12
112152.62
103018.09
92887.029
86138.306
76787.24
68865.838
60742.807
53183.71
45943.835
39272.954
33143.812
27374.993
22724.573
18460.338
14257.454
11426.538
8378.6319
6314.4336
4468.9294
2983.1968
1868.9755
895.89057
261.19632
23.242739
110740.25
142813.88
77894.666
126427.18
104314.62
96835.643
99913.851
95178.497
95230.438
87822.168
94282.984
87605.942
93208.028
88406.973
88267.347
87031.167
82757.149
79876.949
76577.059
71574.987
67615.539
63320.499
58910.892
54768.673
50800.268
46918.797
43281.608
38581.65
35054.899
31187.104
27576.671
24087.583
20811.024
17688.204
14941.902
12571.855
10453.465
8700.6184
7195.7794
5863.0052
4825.8204
3676.2283
2659.892
1725.4328
847.44255
245.80686
-307.0788
-25027.948
22610.617
-13357.436
14099.872
-7323.7447
7242.9756
1630.8696
-7161.5254
-2884.4649
2363.8787
-2912.8378
5754.8865
2062.8638
10213.272
11536.438
12229.646
12209.632
12538.368
12140.03
11196.305
11346.843
10738.489
10366.476
10035.054
9281.2838
8614.0797
8060.9498
7799.6521
7142.5957
6576.9262
6041.2718
5548.2746
4906.5563
4372.5325
3812.703
3371.7876
2891.4022
2668.2073
2283.0282
2077.4677
1720.4364
1266.0437
845.80091
437.7397
-14.879686
-261.48755
-296.4315
-198965.81
-91770.077
-109369.45
-76200.888
-103247.07
-82234.867
-99458.237
-92040.087
-84469.465
-86918.559
-76057.723
-81300.281
-71420.187
-74627.511
-70246.082
-67777.148
-64646.174
-61833.081
-59292.981
-56478.045
-53627.252
-50762.182
-47657.32
-44227.165
-39896.958
-36873.487
-32473.166
-28687.968
-25193.99
-21765.685
-18646.643
-15790.123
-13025.878
-10591.203
-8481.207
-6487.9234
-4680.0644
-3173.4563
-1862.5174
-822.91132
-128.49898
282.57478
358.52052
322.10014
17.385211
-19.542474
-342.23057
-304936.96
-218169.79
-187957.1
-190644.4
-203807.59
-194874.75
-206308.39
-183468.88
-204658.97
-192538.15
-194505.07
-184512.1
-177693.82
-174068.8
-164316.8
-157909.89
-149063.47
-141757.93
-133983.01
-126934.95
-119640.96
-111725.22
-103557.55
-93252.517
-83653.805
-74691.67
-67952.256
-60066.997
-52926.481
-45953.737
-39866.871
-33868.322
-28456.778
-23622.026
-19250.172
-15311.387
-11822.217
-8695.1878
-6314.1424
-4177.5215
-2607.7048
-1603.32
-900.4428
-652.81334
-467.44676
-609.12706
-75.637036
-377016.54
-286497.34
-290961.26
-287972.74
-314300.18
-309142.16
-311619.81
-302415.61
-306072.18
-291775.2
-281173.58
-274535.12
-264012.82
-254786.52
-245298.46
-236360.81
-228634.87
-218021.26
-210007.46
-199507.21
-189346.54
-178055.53
-166890.95
-154158.07
-143116.42
-124706.37
-113104.49
-101277.02
-89705.819
-78927.783
-68459.834
-58570.342
-49769.21
-41290.413
-34061.835
-27250.569
-21159.696
-16329.073
-11584.474
-7985.6299
-5191.7063
-3005.7552
-1752.1488
-802.03598
-535.25764
-125.41269
-361.78587
512218.3
571396.65
549264.28
575599.01
561548.46
533132.65
496895.99
375347.8
427651.77
422682.29
432919.3
419738.85
405615.65
364564.12
345686.93
379353.52
387001.36
395850.72
385037.11
379803.51
363061.48
339052.96
349163.76
352043.87
363537.51
344947.56
352686.32
319212.09
326964.47
335922
343736.67
339442.5
336469.22
332873.61
309407.92
320132.09
332249.48
319929.05
334219.99
321386.72
322147.61
322093
314891.06
312172.02
314021.72
315031.34
302554.91
313378.91
305831.24
302101.35
317160.21
303404.74
311244.98
307450.18
305914.51
302308.82
302321.69
297269.59
286647.59
300335.88
287948.08
294232.68
291160.02
286843.41
288970.35
288567.66
293368.85
283163.79
290503.27
285770.61
278218.03
284086.61
273953.67
279282.29
272862.5
278007.61
275881.2
274814.41
270024.32
267477.87
270481.1
267682.33
268420.14
265908.47
261907.55
261808.62
258619.63
264281.99
256588.63
261898.8
262930.94
253222.66
251163.74
250469.86
252981
247555.38
251663.72
251567.09
245192.34
242640.18
242733.97
242363.49
240273.88
243734.11
241335.07
233740.39
232368.9
233634.18
233813.12
230720.31
231903.69
233747.77
224012.59
223012.88
223616.2
224307.75
221361.65
224393.29
224191.62
214298.62
213273.81
214562.73
213472.1
212216.43
213763.96
214676.17
203542.54
203845.42
203381.65
204142.52
202256.83
203670.44
203903.07
193418.11
192976.16
193569.48
193473.19
192079.03
193361.32
194072.15
180741.22
182884.32
182251.19
182687.94
181151.24
182465.3
182645.36
169660.58
171845.9
170764.88
171072.25
170128.62
171351.47
172011.88
157259.28
160119.64
158190.58
159258.65
158272.75
160295.42
159803.43
145093.58
147895.64
145952.92
146679.49
146602.94
147996.76
147821.07
132062.82
136095.43
133207.45
135200.53
134245.84
136767.22
136135.55
120385.75
123507.97
121751.2
121875.93
122752.41
124288.12
124163.77
108807.39
110933.08
109008.08
110316.66
110890.1
112629.78
112636.13
96150.279
98651.168
97451.66
98461.969
98728.161
100423.59
100574.47
84885.664
87949.934
85919.106
86736.665
87807.343
89374.874
89975.818
74394.588
76061.297
75171.623
75802.675
77153.898
78298.363
79288.379
63900.583
65612.775
64716.38
65311.531
66603.657
67942.619
69043.276
54541.153
55764.496
55379.758
55737.719
57338.824
58444.992
59680.574
45744.914
46680.867
46239.06
46713.439
48092.715
49261.204
50509.507
37774.926
38246.069
38228.24
38448.725
40046.389
41138.582
42626.902
30592.592
30996.523
30870.022
31334.482
32606.063
33885.532
35000.323
24315.932
24211.289
24479.308
24565.137
25972.195
26876.177
28325.269
18589.956
18816.175
18665.796
19095.357
20209.791
21219.187
23067.868
14181.88
14134.701
14181.284
14488.07
15544.925
16637.246
17430.55
10315.452
9611.7747
10292.839
10225.755
11480.794
12103.215
13786.594
7158.66
6921.2021
7317.3426
7322.4648
8250.877
9035.8742
10291.504
4740.9371
4391.7244
4807.8071
4655.8124
5705.2599
6259.787
7511.0209
2921.8744
2727.5353
2890.9213
3013.14
3722.8107
4172.8597
5360.3364
1708.9166
1356.4074
1655.6353
1576.4075
2177.6227
2625.0118
3660.0272
637.28226
537.52789
503.39711
590.51861
1014.204
1329.3142
2176.9718
218.9781
-122.01804
-59.271942
38.823299
261.65744
494.96875
1241.3803
-30.535503
-285.66895
-344.1253
-280.58886
-340.37431
39.290815
343.28594
36.114976
-152.01476
-289.12622
-400.95055
-352.2359
-224.99317
-108.95703
337898.39
350722.63
382631.28
374085.1
383994.98
349007.16
348422.16
259237.49
297808.43
314455.91
317430.44
317640.12
294941.99
281452.37
252150.76
230967.26
260958.79
248086.62
259621.85
233813.41
238322.24
217719.42
221847.57
235122.81
227266.17
232437.28
223973.52
205859.5
225553.14
221328.82
230868.4
220726.09
232806.22
217363.46
221445.28
211884.75
206666.54
210450.74
204591.32
202875.63
210589.67
205873.39
210088.43
210575.74
218927.88
205925.51
216554.58
215174.76
206979.19
204547.66
198157.26
197506.36
193795.34
200054.79
195024.97
199054.17
199470.3
192239.3
203766.69
195606.85
195618.03
199231.19
197522.2
188601.48
190496.77
193259.51
181181.78
189593.82
188673.89
191923.44
187156.1
184776.38
184093.61
179984.14
184386.35
185118.5
183326.87
179967.42
174977.78
182544.66
174073.76
181398.2
177438.14
184668.52
171669.82
171639.53
177101.46
165774.41
173609.9
170413.94
173665.34
166309.03
166295.82
169688.23
160872.08
168405.09
166932.62
165267.32
158908.48
161977.52
161390.33
155347.13
162076.99
159050.04
159474.82
153373.33
155293.6
154585.61
151709.4
154311.47
154701.17
152327.41
146820.04
149987.11
149083.74
145024.34
148417.52
149352.8
148506.93
140298.72
144073.23
141701.46
140077.66
141969.86
142878.9
140232.61
134977.04
137366.81
136117.52
134165.13
136023.5
136589.55
135122.91
127498.6
130823.96
129319.2
128016.79
129084.29
129702.83
128011.4
121886.44
124202.22
122775.13
121320.56
122589.74
123006.78
121753.68
115280.13
116928.58
115308.31
114520.09
115539.46
115798.06
114132.31
108661.79
109093.65
108278.26
107555.39
108750.82
107834.56
107137.31
101097.01
101476.57
101201.59
100574.62
101137.73
100160.94
99764.481
93225.074
93676.45
93155.055
92479.82
93937.288
91878.43
92536.499
85094.639
85731.291
84363.76
86455.679
84471.214
84243.741
84964.234
76149.773
78156.223
76356.155
76291.468
78013.694
75599.43
76872.329
68620.689
68607.615
69339.085
68714.274
69716.069
68057.321
69473.004
60408.612
61380.094
60983.666
61083.261
62102.979
60516.984
61983.448
52569.309
53855.037
52840.51
53716.992
54091.344
53181.989
54761.988
45327.905
46769.905
45993.825
46899.163
47278.519
46537.384
48164.454
38492.151
40108.061
38970.556
40211.523
40335.339
39886.001
41587.207
32338.882
33792.16
32877.442
34066.738
34257.967
33971.513
35700.751
26603.677
28177.866
27183.507
28508.683
28604.152
28482.769
30108.942
21620.688
22947.636
22133.29
23208.21
23422.429
23355.179
25159.23
16828.148
18255.162
17391.02
18645.747
18721.397
19036.82
20478.144
12997.113
14354.59
13686.303
14556.367
14884.836
15030.443
16425.263
9587.4588
10871.099
9757.7454
11023.784
11077.776
11594.692
13025.134
6644.3725
7738.7245
6950.8022
7998.1899
8130.01
8709.8464
10088.723
4293.0047
5524.4876
4679.3869
5567.9524
5854.8567
6395.0707
7772.4559
2662.317
3505.91
2740.1504
3684.4511
3910.1518
4407.6334
5699.3365
1426.8786
2190.6672
1542.6492
2398.4935
2496.593
3024.6664
4273.2003
655.7247
1015.3483
610.31993
1196.3085
1397.9765
1848.694
2896.6418
272.47242
660.39335
269.4531
851.77982
968.3842
1228.5569
1990.8657
11.479263
-42.684499
-109.62183
137.96563
212.6113
407.38887
1095.7287
72.452675
212.82352
130.86194
244.87104
259.36043
366.17788
584.58665
-63.772012
-183.46977
-218.65854
-246.75026
-265.25702
-293.65029
-123.66084
190220.31
203308.23
187160.79
210138.76
191016.04
179061.63
166627.51
137130.3
196551.35
184002.97
197689.02
170786.66
182079.18
142683.92
125287.52
120914.42
124530.18
125341.6
120403.51
109415.03
103652.53
104000.51
127280.66
124758.75
135814.67
116800.76
128552.76
104049.12
114191.94
105822.65
108892.66
99291.584
99622.492
97218.984
93569.586
97142.992
114669.65
99289.687
104622.92
103779.37
100310.23
99820.254
104758.49
105375.69
89460.049
98072.207
95753.361
90997.405
94495.387
96541.435
105965.03
89566.964
96208.507
90960.695
87097.992
94946.708
97776.631
105980.84
85734.118
91934.124
89489.837
89729.911
92441.945
97816.015
99972.624
81290.384
86281.13
88426.812
83601.787
89606.007
93784.155
97953.518
78761.03
89081.19
85640.844
85778.79
87466.292
88775.177
93222.311
76529.683
83210.031
82123.527
79582.757
85009.472
84821.055
94487.395
73078.057
82363.513
79391.259
79628.402
81032.112
82585.639
87107.475
72845.639
79025.033
81055.397
71919.644
84722.768
79819.569
83603.542
68937.125
77719.644
75933.55
71723.453
80911.93
75802.38
78139.984
69976.45
72540.87
74401.328
68995.62
79792.439
70876.732
76243.772
66258.165
70888.27
71044.188
67129.352
75461.795
69154.128
71612.166
64156.705
67679.291
68437.775
64567.194
72165.51
64254.772
68769.867
61101.119
64904.878
64845.261
61369.027
68686.883
61688.099
65218.599
58165.057
61366.563
61344.708
58612.369
65790.901
57536.66
61478.715
54732.951
57968.309
57833.744
55725.753
61293.502
53788.796
57306.816
51339.885
54541.115
54480.182
51810.767
57894.071
49881.476
53128.824
47882.437
51405.824
49715.151
48939.875
53887.369
45842.247
48615.896
44389.496
46446.485
45562.537
45353.858
49772.297
42109.374
44520.12
40381.065
42775.611
41300.819
42394.922
45780.389
38237.247
39244.274
36985.589
38157.86
37590.344
38532.998
41432.745
34169.088
36228.004
33211.493
35459.26
33241.537
35451.642
37395.512
30540.905
32717.623
29328.133
31430.089
30318.561
31799.653
34517.044
26671.274
28307.149
25768.228
27663.253
26862.364
28341.699
31051.64
23245.887
24712.533
22709.294
24545.333
23850.464
25368.4
27746.66
19959.363
21267.63
19431.58
21449.943
20480.816
22324.562
24434.485
16967.14
17922.127
16655.575
18341.775
17692.249
19565.275
21348.884
14106.478
14958.994
13937.89
15602.605
15014.975
16845.157
18451.605
11652.295
12216.471
11588.786
12926.905
12523.694
14269.383
15772.963
9214.326
9750.1675
9298.5654
10522.323
10253.591
11969.519
13225.071
7270.4171
7749.1565
7503.6876
8452.0234
8437.9259
9871.6518
11085.943
5539.9974
5880.8915
5703.1957
6576.5835
6669.461
7897.1561
9052.0929
3965.8332
4453.5922
4296.7268
5217.4331
5190.283
6548.2419
7351.3046
2837.5093
3076.4898
3231.688
3931.5379
4087.6259
5331.0676
5924.7132
1907.6255
2295.2428
2419.2389
3128.5508
3217.5073
4276.6264
4653.0328
1151.159
1423.591
1701.5814
2169.7911
2439.2555
3274.0507
3663.6819
569.24619
1048.0787
1194.177
1741.2712
1862.6192
2603.6313
2888.1418
299.45105
622.87724
834.20024
1183.8394
1385.0647
1896.4476
2100.035
-38.146561
388.04103
468.43139
862.57298
876.88724
1225.258
1428.1604
-35.786674
212.08968
261.96263
440.2402
440.07903
649.71821
865.85879
-79.14551
58.291092
76.821198
250.05643
120.66638
310.64468
348.10045
45.543529
80.266682
-88.62734
-162.85856
-265.01142
-311.27256
-216.76444
5179.1216
-11176.416
-6836.6821
-4504.8352
-10499.751
-14257.777
4302.1967
-3879.4883
-7985.992
-7870.8307
-6212.6846
-11801.62
-9377.1944
-11134.745
16002.917
-22730.423
-17502.951
-29310.885
-18688.339
-31798.272
-6513.302
-3511.9731
-16154.875
-4326.8462
-13207.577
-14404.023
-4085.2955
-16519.392
2305.3717
-6748.7762
-4973.1532
-26430.48
-2758.6896
-32122.191
-1415.8777
1443.0426
-13944.78
-17014.925
-10465.13
-16346.387
-9016.5623
-8898.2157
1332.209
-9042.893
2601.3349
-17929.856
-4337.0501
-13281.049
-4366.7275
3034.8572
-6239.9758
-11027.803
-9316.1759
-8824.7888
-6332.5965
-5543.7361
4096.8073
-12178.444
-1185.6241
-12532.048
-4462.8228
-7739.4226
-8220.705
-2447.1124
-5606.1952
-4642.9481
-11343.153
-7027.7937
-6214.4382
-5169.1033
-24.943276
-6506.6053
-4773.7977
-10812.743
-6169.2871
-7622.8895
-4148.209
-2191.9801
-5404.3009
-7040.5406
-7751.5177
-8214.0165
-2282.9301
-4684.2791
-776.73316
-6783.6403
-5867.6128
-9233.6562
-4223.4393
-4936.1641
-3499.9321
-2979.2916
-5988.3247
-2296.6966
-4782.5717
-8744.5903
-2539.8451
-6674.5634
-909.40135
-2698.0996
-8905.4747
-4203.6095
-9331.1342
-1949.3049
-3825.7085
-4514.7779
-3157.6651
-8871.2906
-2278.2407
-9929.0617
-811.10865
-4289.5194
-2233.7079
-3324.4975
-7532.12
-1025.2767
-9004.6482
-411.69596
-2716.7758
-3834.832
-3078.6205
-6905.8563
-623.29421
-8780.7714
-145.27851
-3461.7746
-2791.2779
-1637.0199
-5905.4133
-126.77092
-7706.3021
205.59552
-1954.409
-2650.0157
-1360.9888
-5765.6704
232.4634
-7282.9538
1130.3937
-2756.3817
-2084.6984
-556.29217
-4811.3278
797.2213
-5489.5173
1044.7206
-2132.8628
-1431.5321
443.03068
-4073.5147
1720.6306
-5410.8216
1464.8835
-1769.2713
-1327.6834
910.44639
-2614.5353
906.37729
-4244.8008
1895.5731
-1223.4903
-274.82168
1474.6747
-1553.7601
1359.0272
-2344.2517
2658.7395
-1045.3719
-350.62936
1262.9022
-590.96883
1338.0781
-283.32629
2398.2663
-476.64679
-620.03079
2483.7127
265.31518
2090.5401
787.97539
2463.5866
430.883
123.87179
2300.0765
426.50171
1975.2275
1166.752
2959.1033
556.6459
-242.63316
1671.0714
629.96145
1950.2423
1178.5737
3024.039
543.52619
-361.06032
1654.8344
934.96313
2328.4267
1895.5603
3282.7361
1320.692
-700.01922
1523.4443
725.77836
2136.0859
1545.3145
3005.6172