/*--------------------------------*- C++ -*----------------------------------*\
  =========                 |
  \\      /  F ield         | OpenFOAM: The Open Source CFD Toolbox
   \\    /   O peration     | Website:  https://openfoam.org
    \\  /    A nd           | Version:  6
     \\/     M anipulation  |
\*---------------------------------------------------------------------------*/
FoamFile
{
    version     2.0;
    format      ascii;
    class       pointScalarField;
    location    "0.33";
    object      E;
}
// * * * * * * * * * * * * * * * * * * * * * * * * * * * * * * * * * * * * * //

dimensions      [1 -1 -2 0 0 0 0];

internalField   nonuniform List<scalar> 
625
(
7850.5247
8717.1571
-275747.9
-130185.76
8910.4785
7411.1929
-203643.32
-422156.21
1717.8888
1044.5884
4646.216
-146620.17
-148815.27
-108440.96
9618.5033
7898.9434
7318.1363
7188.069
6763.0177
7051.4136
7097.5579
6869.5245
6527.4357
5638.0492
4387.9483
2771.6565
1024.7043
-575.55068
-1929.2688
-2882.3249
-3038.5612
-3100.7958
-1783.8515
-546.5746
1176.3463
3876.3767
7492.4969
10201.52
5627.7089
5980.3759
3676.5574
1867.26
800.2823
-922.70804
-1311.5114
-1639.9921
-1033.6691
63.48973
1708.5069
3743.8825
5953.6753
8278.7947
10232.141
12230.391
13461.939
14760.545
15112.149
15134.723
15133.444
12649.44
2022.7643
890.85935
3785.1932
12826.875
13114.117
5747.928
6263.4034
4519.7428
887.87347
1105.965
-422.3714
-86.48239
370.36496
1363.2108
2897.3132
4596.7068
6365.4111
8024.1206
9555.855
10859.421
11892.149
12522.113
12986.103
12688.345
12316.022
9190.2953
-308160.21
-327062.29
-308768.77
6925.9292
4309.8127
2946.1098
1193.5934
-215.715
-1036.5188
-1791.9277
-1679.6225
-1414.897
-551.75709
439.23482
1722.4355
2919.8184
4148.6953
5012.488
5601.6144
6147.6298
6144.6802
7154.0599
7217.396
9102.2436
8539.977
11312.12
7198.4925
7207.9184
7470.5564
6837.8771
6370.4453
6281.7465
-148767.5
-148773.09
-149375.56
-311740.78
-312368.02
-313243.41
3743.4869
2674.2062
2626.5658
1921.0677
921.00694
286.0291
-728.61138
-1149.2903
-1251.2644
-920.80647
102.77647
1594.2283
3529.0586
5586.4951
7598.8209
9352.2512
10812.138
11879.972
12870.951
12899.352
13502.809
13437.332
12162.038
1492.1103
848.69157
731.55635
86.929338
-107.50801
-275.27251
-358.35377
55.842377
354.70117
1207.2212
1995.0585
3000.2913
3969.1064
5005.3087
5950.889
6931.2559
7886.3077
8624.278
9684.9119
9852.3705
10966.314
10940.688
11746.304
3752.523
3499.2156
3609.5208
3925.9215
4353.1453
4771.8303
5214.9781
5334.8797
5140.5063
4669.4122
3722.7386
2651.84
1429.4908
185.2748
-909.29318
-1637.8622
-2207.2672
-1863.7666
-1571.11
97.285808
2263.192
5176.0563
9473.459
1065.3647
1207.8684
1303.3341
682.3589
595.42063
892.62371
2276.0886
2497.6323
2383.7209
12128.729
11777.346
11655.812
11975.701
10657.593
10024.119
6471.0929
5278.2423
6328.5153
5093.458
5486.985
4461.5203
3333.7301
2281.1036
3325.192
1219.8488
1408.9536
910.3687
347.09962
-154.55965
639.53204
-466.43964
-831.59637
-843.63628
-560.84742
-923.27132
-1066.1119
-54.266843
-660.37631
-420.52658
959.65981
619.19084
618.1083
2723.1157
2018.7373
2240.5674
4609.4747
3868.9297
4203.2833
6854.4299
5802.3131
6309.2332
8985.4888
7744.7739
8390.2006
11048.953
9530.8859
10349.792
12779.371
11095.014
12068.242
14254.003
12493.457
13474.048
15292.796
13356.081
14421.895
15621.989
13914.086
14920.804
15758.39
13970.304
14920.47
15019.768
13965.029
14642.682
12612.86
11227.438
12225.195
-200931.05
-200722.21
-200776.76
-182126.87
-201621.94
-202107.82
-216846.26
-199631.25
-199830.34
10050.639
9350.9184
9219.7986
9084.124
8801.3229
9246.4118
8949.0163
8091.2804
8127.3534
7566.4684
7030.6544
7471.2455
7441.6927
7331.5374
7171.6058
7394.8067
6669.2203
6646.5686
7180.2879
6905.9539
6592.2968
7139.4033
6703.3329
6468.3002
6381.9274
6327.3279
5517.8835
5288.5797
5711.774
4745.6673
4276.0427
4501.9739
3564.6287
2634.9437
3095.9305
2110.3126
963.17966
1620.3646
623.19542
-578.73064
161.69942
-749.60678
-1947.5706
-1042.6066
-1804.1993
-2635.5382
-1837.1422
-2499.3823
-3018.1332
-2268.0681
-2536.7345
-2514.2692
-1816.1468
-2196.7689
-1452.1303
-1324.5998
-1105.7623
-44.126369
8.4365128
312.88055
2326.0382
1914.878
2338.0749
3539.8685
3760.4514
3979.0604
7510.7606
7103.8921
7290.3558
6763.7302
5571.4435
4506.0559
3552.0074
2493.0083
1377.2025
877.88956
374.63474
295.51903
1340.0152
2440.1858
4061.5457
5984.6142
7875.7571
9632.6486
11045.388
12023.816
12698.928
12785.743
12797.011
12448.35
12027.415
12417.465
1046.0825
2637.8275
1056.1714
2131.5438
1835.0718
2347.077
2755.5096
2995.569
3409.4216
3302.7573
3180.1875
2877.6862
2461.0507
2100.4029
1760.0437
1647.2043
1781.0806
2135.3228
2845.928
3929.5107
5093.9214
6933.391
9875.0792
4717.9794
2081.6098
3649.0209
3047.732
4053.334
4353.1836
4534.9425
4930.2096
4265.4814
3727.9231
2676.9305
1446.503
146.79044
-1058.1601
-2058.9496
-2751.3988
-2932.0857
-2752.6512
-1796.8095
-282.5047
1815.666
5552.174
8659.7537
5146.5761
4659.9667
4851.8782
4433.0452
4611.0258
4578.8553
3660.8225
3687.9786
3664.9959
2613.1642
2688.5967
2789.5116
1610.8227
1757.4636
1720.8243
714.56528
763.91196
570.13024
-229.66244
-95.609795
-152.36216
-678.59841
-477.18365
-770.87918
-772.23148
-604.38682
-854.60816
-193.9017
-154.6662
-279.88537
994.84422
1070.0345
840.73231
2525.7118
2691.5776
2432.097
4529.1669
4654.6767
4411.8519
6579.7031
6716.7919
6509.9474
8576.6337
8738.92
8523.9874
10324.979
10447.764
10235.341
11652.837
11803.912
11700.693
12796.17
12920.61
12581.922
13300.585
13078.518
13302.354
13286.538
13658.976
13486.378
13730.09
13421.622
13362.414
13134.547
13371.356
13466.072
12567.351
12180.201
12671.661
1305.0701
1170.791
944.67174
1593.1766
2269.4327
2226.9428
927.50496
470.23031
614.28145
701.56195
1038.0499
1140.6005
925.34161
501.27919
638.33193
867.41175
663.09729
892.99865
1128.3241
918.36841
1172.9969
1538.0708
1274.7941
1464.3105
1905.959
1617.684
1917.3004
2354.626
2104.946
2323.369
2722.2732
2463.4012
2632.1692
3167.4043
2799.7842
2883.569
3478.8223
3132.5224
3076.8411
3843.5273
3460.7933
3306.2485
4156.7702
3788.1413
3524.7108
4550.8633
4188.2378
3876.33
4971.5017
4676.2425
4249.5426
5496.5605
5116.4548
4860.7452
6089.9707
5874.5612
5464.6054
6406.5582
7030.1685
6337.0429
7359.5203
8323.0128
7690.1484
8496.572
8360.0167
8215.8653
10100.742
9842.8078
9553.4915
4125.5067
4246.6402
4471.7051
3045.5122
2860.1104
3547.6069
3466.4593
4034.9661
4213.7854
3819.2657
3524.332
3795.0835
3916.6717
4063.3044
4153.3251
4269.5044
4489.9035
4649.7978
4700.1188
4669.7644
4549.241
4536.9037
4834.8205
4844.4775
4291.0728
4636.6082
4449.0731
3589.9192
4029.4275
3740.6844
2648.8601
3110.7054
2789.4004
1428.6736
1993.67
1606.3843
120.11272
788.71581
403.41429
-1108.7506
-347.6015
-817.95373
-2133.1142
-1372.8701
-1748.6873
-2861.1398
-1906.4405
-2410.8603
-3076.1054
-2344.5044
-2673.5606
-2849.0984
-1906.6941
-2181.9072
-1997.036
-1145.1787
-1522.564
-27.102199
309.27435
427.11727
1446.964
2367.8676
2056.5773
5099.1474
5674.952
5965.9419
9208.5747
9114.9726
9233.937
)
;

boundaryField
{
    free
    {
        type            zeroGradient;
    }
    fixed
    {
        type            zeroGradient;
    }
    traction
    {
        type            zeroGradient;
    }
}


// ************************************************************************* //
