/*--------------------------------*- C++ -*----------------------------------*\
  =========                 |
  \\      /  F ield         | OpenFOAM: The Open Source CFD Toolbox
   \\    /   O peration     | Website:  https://openfoam.org
    \\  /    A nd           | Version:  6
     \\/     M anipulation  |
\*---------------------------------------------------------------------------*/
FoamFile
{
    version     2.0;
    format      ascii;
    class       pointVectorField;
    location    "0.33";
    object      lm;
}
// * * * * * * * * * * * * * * * * * * * * * * * * * * * * * * * * * * * * * //

dimensions      [1 -2 -1 0 0 0 0];

internalField   nonuniform List<vector> 
625
(
(0 0 0)
(0 0 0)
(5181.8359 -279.28297 -5.3730233)
(5129.8632 -1487.2066 -4.0387058)
(0 0 0)
(0 0 0)
(5133.4897 -1474.1338 -10.511037)
(5183.3753 -266.47263 -6.4946845)
(0 0 0)
(0 0 0)
(0 0 0)
(4833.0472 -536.09672 -5.7271755)
(4947.1991 -838.10516 -7.0478825)
(5252.8689 -1199.9983 -6.8166449)
(40.158409 95.051683 78.908611)
(126.44344 167.75805 72.672533)
(250.8216 227.27312 69.759953)
(409.03798 268.19257 64.425425)
(581.00562 287.04861 61.210839)
(773.3126 294.59505 57.60194)
(969.62439 288.54232 54.728913)
(1172.8816 276.09665 52.496535)
(1380.4489 261.39781 50.965169)
(1590.8135 244.89006 50.701004)
(1806.2925 229.51215 51.364291)
(2027.74 214.38187 52.564766)
(2256.3421 198.60555 53.405621)
(2493.1224 180.36476 52.948143)
(2737.1731 158.23959 50.764994)
(2987.725 130.85387 46.683865)
(3241.9829 97.417549 41.132357)
(3498.2147 58.367911 34.184569)
(3754.4346 13.015885 26.928381)
(4009.2106 -37.41006 18.818186)
(4263.1315 -91.637376 11.539906)
(4515.1311 -148.54999 4.3936846)
(4763.1778 -207.9666 -0.14249279)
(-1.9414426 -69.66885 -102.26863)
(104.40208 -145.20348 -42.777016)
(237.70193 -225.03207 -27.840464)
(380.38159 -280.32036 6.9363937)
(538.47814 -325.44788 28.079949)
(710.93683 -372.78502 46.965436)
(879.15839 -406.10134 58.287123)
(1052.6905 -443.14523 65.559752)
(1225.2435 -478.99618 65.799333)
(1401.6474 -517.85346 63.061354)
(1584.0325 -561.99771 56.351342)
(1776.2354 -611.84874 48.545323)
(1982.5827 -668.73848 39.882334)
(2205.082 -732.26282 31.428683)
(2446.0251 -801.8505 23.729982)
(2705.2068 -876.31453 16.934861)
(2981.6717 -954.40628 11.150834)
(3272.6691 -1034.3081 6.5300308)
(3574.373 -1114.5332 2.9522995)
(3882.9542 -1193.5628 0.57831068)
(4191.7274 -1269.2389 -1.5855228)
(4497.0767 -1342.1417 -1.8662851)
(4810.6237 -1412.7992 -5.096607)
(0 0 0)
(0 0 0)
(0 0 0)
(26.133005 -55.697147 81.32723)
(103.50372 -208.45843 94.050787)
(227.54441 -231.17292 80.487811)
(355.11146 -298.89903 81.107049)
(514.51727 -351.66616 88.564122)
(674.18424 -378.59222 82.903829)
(839.77651 -413.92714 88.790201)
(1012.8783 -443.45351 87.577712)
(1188.8578 -475.25352 87.244915)
(1369.6049 -511.96572 87.317465)
(1558.6339 -553.89747 85.755966)
(1758.7909 -603.66108 83.619152)
(1972.408 -660.75869 80.279787)
(2201.7803 -724.72905 75.54523)
(2447.8815 -794.75463 69.333565)
(2710.3699 -869.06409 61.578092)
(2987.684 -946.35062 52.763088)
(3276.864 -1024.7743 42.976027)
(3574.2845 -1102.6445 32.959234)
(3875.514 -1179.0457 22.990015)
(4176.4472 -1251.8524 13.593417)
(4472.4787 -1321.337 4.9103714)
(4741.1144 -1378.9108 -1.6084645)
(5275.0253 -1188.5646 -8.1515015)
(4894.6817 -816.05582 -5.9877531)
(4928.9016 -534.34826 -5.7743067)
(4801.6438 -197.69105 -1.7054806)
(4560.1347 -137.02903 2.8662152)
(4297.8044 -77.710152 5.5187689)
(4033.2022 -22.938602 7.7731277)
(3765.6134 27.618214 9.5542346)
(3496.6724 72.226337 10.316694)
(3228.1871 111.17139 11.014499)
(2962.47 143.75636 11.315856)
(2702.2688 170.79453 11.898356)
(2449.9977 192.83151 13.149547)
(2207.3614 210.99296 15.225932)
(1975.4072 226.55665 18.493037)
(1753.3468 240.17614 22.462745)
(1540.5096 252.78839 26.263815)
(1341.7189 265.58956 29.082295)
(1132.2005 272.01309 30.647125)
(939.23548 277.17157 27.64102)
(749.9 273.19796 22.085969)
(566.52863 263.9542 10.178688)
(393.24122 232.70953 -4.0330181)
(242.30615 204.16763 -29.171133)
(111.22271 137.47161 -41.825052)
(47.617729 77.94274 -52.790449)
(0 0 0)
(0 0 0)
(0 0 0)
(0 0 0)
(0 0 0)
(0 0 0)
(5129.1771 -1486.9274 -7.0369718)
(5130.3894 -1482.7081 -7.0493634)
(5130.0622 -1480.0487 -8.9439066)
(5183.3857 -275.55642 -5.690627)
(5183.7687 -272.54297 -5.6752874)
(5184.0483 -269.82809 -6.1365413)
(3.3841004 39.921668 51.04903)
(84.631741 74.652244 35.467873)
(195.23508 104.95431 48.127142)
(343.93755 120.96365 49.717095)
(513.9121 129.90113 55.4338)
(709.66914 127.75502 56.230456)
(914.24204 117.75886 57.627132)
(1130.2288 102.21495 57.450067)
(1349.67 81.816501 56.946427)
(1571.1886 57.890164 56.248601)
(1795.61 31.922529 55.139367)
(2022.4137 3.2056516 54.041751)
(2253.2832 -28.233565 52.008675)
(2487.9312 -62.813261 49.208103)
(2725.3298 -100.58677 45.451335)
(2963.7514 -141.51841 40.659848)
(3200.4428 -185.114 35.24352)
(3435.0704 -230.91412 29.117739)
(3666.3424 -278.5644 23.012888)
(3896.7385 -327.36248 17.031048)
(4127.4486 -377.9367 11.111929)
(4362.9091 -429.62115 5.4446511)
(4626.0076 -486.18287 0.12008139)
(-16.65582 14.116073 11.580787)
(85.661771 21.476655 14.751045)
(216.70848 24.054032 26.459547)
(380.58677 15.037985 37.08026)
(562.73608 -4.5695947 44.1583)
(750.95148 -27.196639 50.583186)
(940.45725 -53.210862 54.708647)
(1128.3209 -82.188369 56.698897)
(1311.6105 -111.16525 56.775135)
(1494.223 -141.55038 55.341454)
(1677.5043 -172.54891 52.911908)
(1866.1527 -205.31856 49.717544)
(2063.7543 -240.47093 46.056095)
(2273.7393 -278.75042 42.408603)
(2498.7195 -320.81094 38.400857)
(2740.0095 -367.25293 34.461652)
(2998.0564 -417.74725 30.077048)
(3272.3949 -473.05246 25.767565)
(3561.4509 -531.58945 20.836907)
(3862.1845 -595.00938 15.855093)
(4172.808 -660.00804 9.8493288)
(4489.496 -729.13489 5.0987129)
(4790.5843 -796.30868 -1.2653333)
(-24.820798 -16.348812 -32.810235)
(109.07349 -41.136873 -18.599601)
(250.93428 -78.694595 3.0199474)
(428.77828 -124.15659 22.297995)
(604.48654 -167.14241 38.601558)
(781.63157 -202.12134 50.484885)
(951.80414 -239.60078 56.98827)
(1113.6764 -270.55291 59.958803)
(1270.88 -301.60146 59.388356)
(1426.3707 -332.0287 56.838253)
(1585.7536 -363.46948 52.899956)
(1754.5523 -398.17049 48.322799)
(1937.9865 -437.02129 43.770232)
(2140.9199 -481.46873 39.127148)
(2367.1376 -532.39083 34.698003)
(2619.0149 -590.03038 30.296935)
(2897.8286 -654.37892 25.883981)
(3202.0607 -725.09986 21.423751)
(3529.3034 -800.8334 16.682079)
(3873.8252 -881.35459 12.321349)
(4230.0024 -963.26101 7.3950091)
(4586.7893 -1047.2681 2.7477116)
(4906.5167 -1119.703 -2.353487)
(0 0 0)
(0 0 0)
(0 0 0)
(0 0 0)
(0 0 0)
(0 0 0)
(0 0 0)
(0 0 0)
(0 0 0)
(39.839127 -33.989768 -42.027457)
(51.985315 -46.166725 -3.9243091)
(49.076662 -30.675739 30.460473)
(143.33901 -192.59596 -13.295858)
(139.12678 -192.21142 18.421078)
(134.35086 -186.86723 59.46936)
(250.92891 -234.11493 1.8578853)
(256.03688 -226.09183 28.763182)
(252.26598 -247.4943 60.444214)
(385.53064 -294.02258 27.906913)
(388.16386 -302.26364 46.427229)
(374.90574 -296.92742 66.454167)
(545.388 -342.94702 43.138075)
(539.76005 -342.6314 54.829517)
(532.79052 -350.23962 73.444023)
(705.54154 -378.51561 56.693133)
(701.10497 -381.54034 67.000457)
(689.83615 -380.68309 77.7465)
(874.77603 -412.68076 66.487134)
(867.05623 -414.60301 71.830161)
(856.67628 -414.78932 82.102346)
(1047.5714 -445.01115 71.434798)
(1036.0842 -446.38874 75.35505)
(1026.301 -444.42107 83.335561)
(1220.583 -478.79782 71.526681)
(1210.6987 -479.33896 76.353304)
(1199.2817 -476.21032 82.575088)
(1399.3635 -516.11361 69.04614)
(1389.3085 -516.02827 73.9815)
(1378.9254 -513.23669 81.553076)
(1584.4009 -559.34214 63.579912)
(1576.265 -559.27884 70.789914)
(1565.7751 -556.05195 78.687945)
(1780.6528 -609.54656 57.413666)
(1773.6297 -609.1222 65.951345)
(1763.9481 -605.7503 75.042834)
(1989.9381 -666.95042 50.137135)
(1984.7867 -666.5003 60.544104)
(1975.9201 -663.1543 70.53431)
(2215.3616 -731.49192 43.032083)
(2211.8438 -730.82581 54.816265)
(2203.853 -727.29659 65.192681)
(2458.0502 -801.99118 36.139968)
(2456.0033 -801.18243 48.663941)
(2449.0163 -797.71014 58.978448)
(2718.0072 -877.44785 29.56215)
(2717.1205 -876.25624 42.328208)
(2711.3136 -872.71484 51.872209)
(2993.8955 -955.91456 23.550355)
(2993.9772 -954.20507 35.754609)
(2989.2866 -950.90245 44.151647)
(3282.9746 -1036.0857 18.018824)
(3283.6508 -1033.9299 29.06543)
(3280.2241 -1030.6015 35.863758)
(3581.8186 -1115.7668 13.068823)
(3582.8813 -1112.7939 22.501891)
(3580.3874 -1109.8013 27.534513)
(3885.6876 -1194.0116 8.8713964)
(3886.5385 -1190.655 16.038902)
(3885.2817 -1187.579 19.286196)
(4189.9408 -1268.4278 4.9806048)
(4191.3795 -1264.8269 9.8523013)
(4190.6919 -1261.9281 11.546173)
(4490.1453 -1339.5058 1.4330669)
(4491.1125 -1335.2536 3.7884052)
(4490.9941 -1332.4842 4.4825552)
(4782.3842 -1404.0019 -3.1447819)
(4782.4981 -1399.4475 -1.8020072)
(4783.4904 -1396.6119 -2.1780582)
(4865.6992 -536.37957 -5.6488454)
(4866.3704 -533.86679 -5.3627758)
(4866.3978 -530.70441 -5.7924481)
(4904.6833 -827.65844 -6.0385396)
(4917.4462 -826.75981 -5.8544558)
(4917.8297 -823.07839 -6.6836257)
(5217.9862 -1187.4064 -7.2816838)
(5238.6007 -1189.7755 -6.6961492)
(5239.0095 -1185.1362 -7.7095896)
(76.722563 80.801913 37.198778)
(73.978344 83.065287 11.036416)
(77.044754 78.229555 -16.367697)
(147.58005 158.51614 37.151442)
(149.83471 151.08475 8.9114442)
(141.10538 143.7191 -20.566818)
(273.94393 224.99328 43.474526)
(269.92767 215.06201 24.778488)
(264.71021 208.83469 -5.4498974)
(417.17884 259.11111 46.053497)
(418.19185 247.91435 27.830527)
(410.09046 244.8017 9.6789227)
(590.01578 283.61815 50.051586)
(588.13902 275.83063 37.339097)
(579.40646 269.28509 23.000406)
(773.18951 289.49189 49.813058)
(769.30884 281.30591 41.581683)
(761.59841 277.51698 31.928661)
(966.4378 285.02473 50.206434)
(962.18638 281.31218 43.03789)
(953.1862 277.75505 34.947512)
(1166.7646 274.81828 49.023851)
(1160.9466 271.86496 43.350524)
(1152.6444 271.5431 36.862605)
(1373.6003 260.04996 47.363694)
(1362.7005 259.70236 42.019616)
(1352.2523 260.52992 35.242423)
(1577.6553 242.92413 46.437986)
(1577.8617 247.02269 40.402866)
(1564.4815 248.61934 32.923612)
(1796.4555 227.60775 45.5055)
(1790.3136 231.77451 38.195988)
(1780.4927 235.46756 30.028901)
(2018.8267 211.86657 45.064202)
(2013.4309 217.28114 36.758441)
(2004.6629 221.71387 27.10723)
(2249.1658 195.92179 44.507931)
(2245.1472 201.63036 35.006223)
(2237.1222 206.75429 24.692834)
(2487.6855 177.98038 43.421654)
(2485.0041 183.74837 33.600606)
(2478.1476 189.00858 23.036435)
(2733.7078 156.69963 41.4934)
(2732.4962 161.98433 31.957093)
(2726.8027 167.25761 21.613277)
(2986.1061 130.22532 38.490035)
(2985.9546 135.19574 29.778225)
(2981.4693 140.40848 20.35954)
(3242.3781 98.484114 34.277309)
(3243.1789 102.9121 27.134948)
(3240.0435 107.5757 18.856826)
(3501.1855 60.071937 29.299488)
(3502.6368 63.819469 23.533857)
(3500.2894 68.760519 16.699729)
(3759.9614 16.218553 23.491488)
(3761.366 20.142711 19.453767)
(3760.1754 24.009241 14.304359)
(4017.8548 -33.448098 17.647703)
(4019.8101 -30.748997 14.701887)
(4019.0043 -26.448476 11.019533)
(4274.0483 -87.779927 11.300479)
(4275.4407 -84.403917 9.8598037)
(4275.3949 -80.94033 7.339189)
(4528.7559 -145.1608 5.4068921)
(4530.5486 -142.28978 4.3865428)
(4530.6456 -139.43664 3.4202641)
(4785.5014 -206.09761 -0.21902128)
(4786.2507 -202.9731 -0.87175942)
(4786.1668 -200.24189 -1.5230054)
(-1.8384236 14.780912 -25.207329)
(78.166522 61.654872 -17.085574)
(178.46923 68.200479 -3.3924865)
(325.32485 89.58091 7.8442703)
(487.76952 100.05 19.745882)
(673.03289 106.02144 30.340687)
(871.698 106.28742 37.797285)
(1079.7639 98.061817 41.645002)
(1296.8617 86.72403 42.515109)
(1520.5731 67.918998 41.771514)
(1751.0498 45.85332 39.29784)
(1988.8031 19.138524 36.400122)
(2233.609 -11.685559 33.69653)
(2484.3456 -46.533552 31.126938)
(2738.4952 -85.087064 28.524796)
(2992.5213 -127.20586 25.869865)
(3243.1164 -172.21715 22.707265)
(3487.2018 -219.74907 19.19785)
(3723.9391 -268.75135 15.350397)
(3953.7854 -319.17507 11.087866)
(4178.6151 -369.94449 6.8828023)
(4403.0951 -421.7342 2.0991392)
(4615.093 -472.57422 -2.2767075)
(-10.20656 11.409442 7.5260384)
(78.811615 7.058538 14.513692)
(203.98007 -4.296705 32.298325)
(359.35506 -7.9158577 40.726509)
(532.38937 -20.596829 50.208885)
(719.80317 -38.696227 58.660818)
(909.18846 -57.346171 61.649793)
(1101.4128 -79.376853 63.829751)
(1294.1876 -104.20845 63.69839)
(1487.1451 -131.12718 61.529853)
(1683.0787 -160.64654 57.99308)
(1884.1232 -193.04789 53.777089)
(2091.8786 -228.90278 48.629602)
(2308.7993 -268.27006 43.069374)
(2535.2989 -311.30251 37.387764)
(2772.114 -357.91981 31.517222)
(3018.9909 -407.94608 25.715583)
(3275.6443 -461.11497 20.083975)
(3541.5304 -517.21939 14.816732)
(3816.4575 -576.27675 9.7886252)
(4098.5972 -637.08722 5.6171019)
(4389.4649 -701.34233 1.0364531)
(4726.7556 -773.26946 -1.6987086)
(-26.854924 -34.888067 49.19991)
(114.11067 -54.962749 54.573855)
(247.71333 -132.9224 70.410756)
(410.24944 -148.96454 61.063996)
(582.86008 -197.44644 69.195106)
(755.05228 -226.71685 69.673518)
(920.48749 -250.83682 69.682395)
(1084.7708 -277.59081 70.926054)
(1243.9718 -300.48792 69.257725)
(1404.3206 -326.09382 67.456912)
(1569.0397 -354.44234 65.449343)
(1742.7287 -387.07911 62.896323)
(1930.3025 -424.80701 60.183787)
(2135.7129 -468.47317 57.224415)
(2362.6556 -518.37408 53.788107)
(2613.5457 -574.7313 49.55457)
(2889.2388 -637.53664 44.528504)
(3188.9724 -706.3524 38.657639)
(3509.928 -780.55548 31.728331)
(3847.6088 -858.7531 24.51648)
(4195.907 -939.49305 16.290997)
(4546.8417 -1021.8737 8.2519071)
(4908.8513 -1104.4926 0.30440973)
(18.83953 14.352683 22.563637)
(18.547194 17.80457 11.093213)
(26.222221 12.440722 -9.6211412)
(108.91096 71.19545 19.192414)
(114.02678 66.365857 6.8055627)
(101.57082 65.842605 -9.1574307)
(214.43705 92.788131 32.164575)
(210.04585 83.142202 20.91134)
(206.59358 80.663634 7.9538705)
(353.49008 113.88444 38.75421)
(356.26726 105.59798 28.243353)
(347.17639 102.59401 17.245932)
(519.49759 122.411 44.658061)
(518.4108 113.22192 38.673294)
(510.12114 109.67032 29.693011)
(706.43906 122.09791 50.40443)
(703.44009 114.64875 45.078494)
(692.88966 113.91596 37.732861)
(906.46737 113.77159 52.929759)
(902.20546 109.59794 48.977643)
(892.87893 108.61106 43.817886)
(1118.6664 100.26242 53.973251)
(1113.1322 97.200746 51.075797)
(1101.4769 98.209365 47.12366)
(1336.7552 80.098372 54.136238)
(1329.934 80.223353 51.139321)
(1318.5827 82.564681 47.26236)
(1559.8806 57.68929 52.831813)
(1553.3711 59.579986 49.594822)
(1541.8876 62.364568 45.586957)
(1787.8813 31.839655 51.123444)
(1781.7711 34.885684 47.439925)
(1770.2807 38.510822 43.574202)
(2020.0054 3.4165413 49.222569)
(2015.0219 7.471752 45.234933)
(2004.3972 11.372202 40.419388)
(2257.2609 -27.594367 46.779603)
(2253.6673 -23.313331 42.489637)
(2244.0562 -19.107289 37.598175)
(2498.543 -61.731018 43.954255)
(2496.4078 -57.470478 39.70117)
(2488.1972 -53.241563 34.801912)
(2742.4722 -99.149679 40.550901)
(2741.6592 -95.070808 36.398315)
(2735.0118 -90.841096 31.828103)
(2986.3751 -139.74171 36.519477)
(2986.6414 -135.92513 32.658011)
(2981.5702 -131.84297 28.6887)
(3227.8126 -183.2908 31.951685)
(3228.8565 -179.69941 28.308053)
(3225.2715 -175.90285 24.982733)
(3465.0851 -229.11291 26.730541)
(3466.5199 -226.05189 23.5636)
(3464.2897 -222.1795 21.019845)
(3697.4331 -277.25871 21.388789)
(3699.0229 -273.70033 18.565515)
(3697.6531 -270.60372 16.725229)
(3931.4397 -326.18592 15.72616)
(3923.4079 -323.37065 13.174309)
(3927.2904 -320.10339 12.164774)
(4153.8828 -376.69237 10.085989)
(4153.3323 -373.70273 8.1778936)
(4154.5818 -370.81458 7.5223991)
(4382.1615 -428.34163 4.6946537)
(4383.7208 -425.46518 2.9123385)
(4384.2004 -422.66338 2.7650581)
(4618.7375 -481.95324 -0.41368998)
(4619.4314 -478.99432 -1.6004147)
(4619.6726 -476.40433 -1.4446337)
(9.3633781 8.4596159 5.7509095)
(12.660381 10.638712 -0.36535651)
(18.38249 9.8144558 2.8929795)
(107.79889 15.633098 7.2650397)
(109.7697 14.368612 7.5506942)
(97.790729 8.1069601 9.9848239)
(236.81538 16.203671 23.552619)
(230.76935 9.9432879 29.44286)
(230.54726 4.645259 28.833045)
(389.58119 3.864151 33.144667)
(390.8234 -2.8464399 35.957333)
(380.55402 -12.242561 37.943665)
(569.24225 -10.992861 44.171028)
(561.0959 -16.306509 49.524732)
(552.98343 -19.536922 47.639883)
(751.18304 -32.707189 51.765586)
(745.20733 -36.630497 53.691552)
(736.20326 -41.121025 55.650038)
(941.19956 -56.886928 55.53635)
(932.98452 -58.630191 59.4825)
(922.8339 -61.122058 59.442817)
(1130.1568 -84.218904 58.914922)
(1121.3013 -83.961932 61.018457)
(1110.4016 -83.726989 61.621036)
(1317.8047 -112.4248 58.337903)
(1308.9194 -110.13831 60.069609)
(1298.1283 -109.19986 61.331718)
(1505.8123 -142.23003 56.962428)
(1497.5736 -138.58176 58.534715)
(1486.6827 -136.40347 59.607397)
(1695.222 -173.32305 54.313085)
(1688.118 -169.01646 55.08468)
(1677.2595 -166.04455 56.339184)
(1889.5432 -206.51234 50.83902)
(1884.0335 -201.43228 51.560563)
(1873.7075 -198.15425 52.616718)
(2091.3375 -241.93631 47.086175)
(2087.7628 -237.05926 47.446114)
(2078.0387 -233.75984 48.124432)
(2303.2958 -280.65624 43.15623)
(2301.7136 -276.01759 43.288083)
(2292.8818 -272.48477 43.434599)
(2527.2765 -322.72741 38.977119)
(2527.5258 -318.4945 38.920013)
(2519.674 -315.18358 38.469916)
(2764.3831 -368.646 34.698968)
(2766.0403 -365.15144 34.308641)
(2759.4314 -361.64695 33.309436)
(3014.8606 -418.33373 30.044923)
(3017.5538 -415.28171 29.49391)
(3012.1831 -411.88783 27.936218)
(3278.6622 -471.78005 25.288762)
(3281.7734 -469.40593 24.431194)
(3277.7335 -465.959 22.561987)
(3554.514 -528.81445 20.156145)
(3557.6204 -526.74625 19.289772)
(3554.6196 -523.0937 17.186979)
(3841.7579 -588.8304 15.170171)
(3843.3776 -587.43363 14.185962)
(3842.248 -583.86741 11.97235)
(4122.9059 -650.77949 9.7823623)
(4162.5729 -653.28995 8.9796006)
(4138.2427 -646.84594 7.243243)
(4439.7188 -718.50607 4.4957165)
(4441.8747 -716.37782 3.4642703)
(4441.7401 -712.16157 2.6081845)
(4747.9179 -785.98901 -1.0896593)
(4748.5814 -783.71693 -1.327897)
(4748.428 -780.31245 -1.7794586)
(7.4877977 -20.729799 -16.650807)
(2.3508159 -16.45892 5.3184728)
(4.5254373 -18.719831 22.996809)
(143.75281 -56.448477 -4.8840023)
(147.53357 -45.624482 18.598667)
(136.89254 -57.58824 35.664824)
(272.80824 -102.99139 15.847647)
(272.75515 -120.79674 33.674294)
(270.00448 -124.14032 50.460605)
(442.25993 -148.32246 32.648456)
(438.53911 -147.89848 46.130656)
(430.43335 -152.98671 55.190992)
(610.09063 -181.37171 48.680747)
(605.85059 -191.57801 57.361232)
(597.3523 -191.80384 62.898091)
(783.31081 -216.64813 56.993904)
(777.29948 -222.19251 62.529353)
(767.06013 -223.11874 67.290411)
(951.19998 -247.55191 63.421873)
(943.47685 -251.50664 67.960389)
(932.74076 -249.3237 70.713317)
(1113.5688 -275.42738 65.377154)
(1105.9088 -277.81725 67.746009)
(1094.2271 -275.11135 70.44717)
(1272.9931 -303.71626 64.307604)
(1264.9259 -303.92865 67.076253)
(1253.217 -301.05957 70.076896)
(1431.405 -332.06272 61.691192)
(1424.0507 -331.42959 64.693386)
(1412.2309 -327.52532 67.331062)
(1594.2978 -362.85157 57.737482)
(1587.636 -361.13139 61.07912)
(1576.3981 -357.11129 64.455173)
(1765.9636 -397.15483 53.326244)
(1760.1634 -395.0512 57.394447)
(1749.7299 -390.83809 61.003412)
(1951.3526 -436.04721 48.9149)
(1946.5687 -433.91123 53.168113)
(1937.3084 -429.58923 57.07189)
(2154.9476 -480.73599 44.366139)
(2151.0804 -478.58983 48.7882)
(2143.0354 -474.09075 52.961815)
(2380.1679 -531.59701 39.945055)
(2377.2393 -529.47134 44.143523)
(2370.6236 -525.05149 48.444935)
(2629.5758 -588.99094 35.407639)
(2627.4842 -586.96936 39.165232)
(2622.2246 -582.45236 43.510746)
(2904.1139 -652.75632 30.680394)
(2902.8409 -650.57152 33.85564)
(2898.9606 -646.1707 38.019616)
(3202.9749 -722.59053 25.694579)
(3202.205 -720.28219 28.113562)
(3199.6431 -715.97543 32.158324)
(3523.4274 -797.29492 20.487699)
(3523.5186 -794.7878 22.260168)
(3521.9044 -790.55426 25.643917)
(3861.3723 -876.49769 14.959074)
(3860.8615 -872.93858 15.914556)
(3860.4246 -869.20284 19.206418)
(4209.3449 -956.77755 9.4271934)
(4210.2414 -953.77899 10.299695)
(4210.464 -949.92797 12.066344)
(4560.7074 -1038.4668 3.8318253)
(4560.8779 -1035.2084 4.3293904)
(4561.9856 -1032.1665 5.4737787)
(4907.2447 -1118.1562 -1.7592903)
(4907.9036 -1113.9621 -2.0902926)
(4907.9739 -1111.0204 -0.86300152)
)
;

boundaryField
{
    free
    {
        type            zeroGradient;
    }
    fixed
    {
        type            fixedValue;
        value           uniform (0 0 0);
    }
    traction
    {
        type            zeroGradient;
    }
}


// ************************************************************************* //
