/*--------------------------------*- C++ -*----------------------------------*\
  =========                 |
  \\      /  F ield         | OpenFOAM: The Open Source CFD Toolbox
   \\    /   O peration     | Website:  https://openfoam.org
    \\  /    A nd           | Version:  6
     \\/     M anipulation  |
\*---------------------------------------------------------------------------*/
FoamFile
{
    version     2.0;
    format      ascii;
    class       pointScalarField;
    location    "0.43";
    object      p;
}
// * * * * * * * * * * * * * * * * * * * * * * * * * * * * * * * * * * * * * //

dimensions      [1 -1 -2 0 0 0 0];

internalField   nonuniform List<scalar> 
28033
(
924060.43
-1250401.3
7678.4248
4121.4322
1714299.9
-1768315.9
5285.3362
2315.0965
788523.23
712648.17
619771.97
508381.97
378286.16
260263.86
139259.28
9315.318
-121547.78
-235334.61
-375225.11
-446450.5
-597347.1
-727628.17
-723705.66
-12104.014
-6903.6418
-7797.4046
-4667.3237
-4121.5601
-2001.8612
102.46956
2584.7748
4783.8549
7499.0824
9918.0342
11446.419
13282.827
14316.318
12940.287
235966.21
261777.89
241421.89
261014.57
258147.42
267241.05
270059.49
273255.88
274872.54
277545.12
277206.62
277540.12
277746.8
277419.72
276285.8
274912.18
274004.26
272488.43
270077.23
268223.27
266425.91
263120.87
261104.18
257860.49
254502.57
251542.01
247961.53
244294.96
240492.23
236777.7
232800.54
228977.32
225345.69
221527.38
217312.75
214102.34
210594.78
207592.83
203688.38
200746.13
197046.88
193829.98
190512.26
187557.41
184264.5
181317.08
178123.18
175167.75
171985.34
169034.46
165880.48
162884.7
159787.94
156752.61
153693.12
150644.34
147610.89
144556.46
141496.68
138463.57
135382.4
132275.54
129065.75
126109.28
122898.04
119719.83
116926.56
113445.9
109697.28
105920.24
102335.67
98726.843
94803.62
91133.403
87004.079
83406.791
79003.535
75481.56
70993.183
67440.584
63066.48
59484.617
55065.658
50964.146
46847.978
42530.986
38683.095
34794.84
29950.102
26686.011
23276.643
17971.904
17857.438
15890.797
13205.237
-223480.31
-195398.73
-232737.39
-213437.93
-243523.06
-242284.6
-250020.85
-249716
-255897.77
-253994.53
-256967.72
-256112.17
-256000.45
-256139.39
-254738.13
-253831.01
-252198.09
-250474.22
-248529.59
-246604.29
-243663.18
-241938.25
-238434.35
-236135.53
-233202.39
-229528.88
-227150.52
-222845.83
-220360.42
-215876.61
-212699.11
-208883.56
-205432.66
-202080.53
-198722.91
-195925.23
-191841.6
-189197.83
-185603.14
-182923.43
-179707.55
-176913.38
-173911.52
-171132.15
-168214.93
-165441.39
-162581.92
-159776.69
-156947.62
-154111.54
-151277
-148424.92
-145575.8
-142721.15
-139860.58
-137008.43
-134151
-131289.22
-128434.49
-125558.38
-122672.63
-119761.93
-116820.87
-113796.34
-110769.91
-107626.7
-104506.09
-101367.32
-98247.463
-93995.31
-91322.061
-87118.883
-83860.678
-80073.722
-76468.861
-72701.304
-69003.968
-65286.821
-61527.866
-57781.214
-54066.711
-50260.93
-46412.642
-42655.906
-38717.462
-34798.552
-30908.254
-27044.056
-22937.596
-19335.369
-15747.928
-11962.409
-9016.9642
-7547.3893
-4614.908
1418697.1
1354651.5
979489.88
999155.59
698836.42
424712.55
269535.27
-4757.6703
-219446.45
-475719.99
-671295.61
-914036.12
-1159878.6
-1322379.6
-1407651.6
-364448.64
-289492.42
-136447.55
-286803.79
-236041.44
-259061.16
-251155.83
-266875.9
-255702.89
-265645.77
-271033.26
-261586.13
-271729.91
-261878.59
-269606.39
-264923.8
-260770.95
-261104.43
-256324.48
-257737.3
-253887.5
-247959.43
-248965.5
-246061.24
-242933.9
-241951.92
-232825.43
-234690.87
-225712.81
-225257.36
-221896.94
-218219.04
-214421.75
-210887.39
-208454.32
-200666.43
-199821.84
-196795.25
-193367.18
-190102.17
-186900.5
-183763.01
-180646.86
-177586.75
-174577.08
-171587.38
-168588.08
-165608.92
-162614.45
-159649.35
-156668.4
-153697.61
-150714.64
-147738.51
-144739.92
-141737.58
-138731.94
-135713.29
-132672.84
-129647.31
-126569.3
-123506.46
-120369.5
-117231.59
-114006.09
-110803.25
-107904.79
-104080.92
-98000.536
-97594.606
-93392.329
-89546.66
-85876.238
-82024.413
-78148.048
-74253.923
-70339.82
-66475.258
-62531.992
-58608.026
-54668.372
-50738.721
-46717.817
-42785.612
-38755.555
-34742.528
-30701.963
-26760.298
-22757.501
-18959.258
-15357.099
-11869.081
-9699.2346
-7129.6419
-6653.8491
15494.449
16517.99
12887.975
14106.796
9070.7317
9341.4341
4543.3157
2921.7929
-71.528214
-2857.2405
-2742.4995
-6739.011
-6072.4988
-10801.827
-8314.454
21672.57
17635.282
18125.795
21320.05
24073.904
28133.728
32041.016
36299.196
40385.543
44752.535
48972.787
53077.281
57375.922
61602.203
65897.76
69989.469
74294.947
78370.995
82533.319
86681.472
90729.451
94859.336
98873.302
102785.83
106390.53
109626.93
112066.26
120421.8
120195.34
125136.12
128352.93
131710.64
134842.67
138070.35
141133.85
144202.64
147253.23
150262.58
153280.98
156289.14
159291.6
162285.65
165305.83
168280.18
171292.74
174277.24
177270.11
180241.68
183273.12
186212.6
189253.99
192262.25
195361.25
198508.2
201518.37
204775.43
207798.35
209314.02
215923.89
218492.66
219967.27
227072.03
229094.84
233264.49
233706.81
242368.66
241637.07
249616.45
251760.58
255611.66
258993.28
259306.87
266846.54
268428.96
267850.51
274990.57
272759.46
278781.9
276707.03
280612.62
284254.52
281572.99
280804.62
284557.83
283976.82
279996.8
282478.71
278206.26
274728.42
266400.35
260347.52
268937.52
257802.7
233485.24
290970.4
636210.67
695292.75
735317.73
767616.53
782310.5
807759.31
806517.59
818307.79
808739.19
787817.75
803272.9
750898.9
720099.18
764437.74
589985.91
-1007369.3
-1261424.9
-1251122.5
-1353178.8
-1317930.7
-1261765.2
-1451895.1
-1546721.8
-1447520
-1451931.1
-1390176.2
-1339784.2
-1257418.8
-1241576.5
-1182308.7
3592.1742
3570.5172
4330.2616
4926.6808
6028.7106
6902.0813
7038.2839
7159.8969
7111.7081
6651.549
6148.6978
5245.6262
4668.5806
4142.5556
4437.3964
830.57697
3523.6848
2788.0543
2078.8827
1196.245
950.39359
321.95277
342.37242
488.00224
727.04634
1663.4529
2402.9299
2767.1194
6165.0197
1342.0124
239983.19
243099.15
216785.83
222957.88
228817.82
233820.03
238145.61
241963.25
244808.28
246706.73
247629.02
249755.2
249011.46
249303.96
248457.08
248713.1
246817.02
246122.25
244508.14
242842.5
241316.82
239138.02
236778.42
234540.7
231527.26
229200.07
225724.8
222863.17
219393.1
216352.32
212429.31
208816.28
205908.59
201909.39
199003.5
195103.92
191866.28
188107.68
185014.17
182066.55
179092.08
175939.72
173003.94
169932.27
166942.92
164095.28
161091.84
158278.63
155323.61
152493.12
149576.27
146728.56
143836.18
140972.36
138091.93
135219.2
132335.87
129434.58
126549.51
123633.82
120699.64
117700.2
114799.37
111841.64
108447.77
105455.94
101858.68
98644.561
95312.853
92132.242
88995.825
85698.592
82243.634
79094.18
75513.07
72261.215
68628.994
65432.287
61613.282
58518.399
54749.996
51416.468
48009.159
44886.647
41251.093
37843.446
34491.068
30742.371
27623.65
24809.66
20678.177
18184.162
15656.235
9341.9298
4172.6791
229083.6
205947.92
181773.55
190285.29
191556.26
195738.17
199138.92
203608.4
206014.06
208872.88
210210.3
211780.79
212100
213090.89
212585.26
212362.39
211530.56
211120.65
209695.38
208703.21
206978.35
205139
203511.51
201472.11
199347.5
196840.48
194536.91
191883.66
189129.8
186155.51
183412.81
180475.06
177252.77
174199.97
171198.04
168035.78
164994.85
162090.74
159208.82
156273.3
153325.42
150902.66
147566.78
145085.54
142243.6
139678.17
136936.03
134383.64
131685.58
129144.37
126488.46
123938.6
121331.22
118766.52
116195.34
113624.44
111054.29
108491.87
105918.72
103345.25
100748.67
98180.408
95671.532
93044.79
90498.081
88796.97
86942.459
84267.926
81860.915
79338.377
76671.151
74074.925
71173.393
68600.35
65254.588
62859.526
59358.833
56978.499
53358.024
51095.332
47487.124
44813.5
41696.308
37807.649
34997.461
32063.281
28673.181
26148.451
23342.163
19977.766
17232.046
14461.443
10210.411
5908.9136
-878.35669
181771.29
178179.62
150240.16
159027.95
156616.3
161661.76
165622.71
169262.29
170686.46
173835.16
175081.73
176898.57
177194.61
178097.21
177856.05
178323.49
177413.18
177157.14
176194.15
175345.34
174228.65
173122.85
171597.12
170124.83
168161.81
166443.5
164287.76
162108.07
159824.24
157456.23
154919.35
152249.5
149765.33
147076.13
144603.82
141876.56
139616.25
137307.83
134818.67
132250.62
129724.47
127186.52
125088.41
122744.03
120498.24
118175.77
115902.02
113640.63
111394
109167.98
106929.44
104738.87
102511.7
100327.34
98122.01
95918.418
93726.515
91519.147
89306.763
87091.423
84877.538
82655.285
80441.548
78082.96
76078.375
74071.579
72575.03
69551.766
68056.795
65950.609
63914.98
61498.308
59024.3
56698.533
54397.149
51885.288
49592.061
47002.16
44779.978
42127.315
39778.208
37474.713
34564.14
32529.065
30341.32
27704.249
24965.893
22892.399
20198.362
17720.45
15449.284
11626.72
9168.8145
3304.8676
411.61522
147329.78
145140.2
116888.7
127144.96
121869.62
128174.26
130080.6
132727.07
134732.01
137682.38
138599.93
140334.79
140579.44
141921.15
141544.27
142061.85
141406.13
141636.36
140645.41
140257.72
139216.09
138304.19
137112.47
135891.67
134599.28
133126.52
131600.49
129906.6
128148.84
126222.76
124333.99
122311.99
120248.58
118098.34
116223.45
113679.37
111755.11
108909.71
106598.89
104601.66
102830.52
100879.68
98778.621
96740.778
94845.366
92929.724
91063.581
89231.394
87394.538
85591.433
83790.733
82013.137
80234.741
78471.119
76699.818
74942.952
73181.437
71412.599
69655.304
67900.454
66157.082
64415.209
62668.969
61018.164
59340.315
57701.225
56112.893
54422.775
52546.905
50889.022
49414.082
47537.088
46418.513
44814.399
42890.929
41055.725
39106.565
37345.152
35283.708
33520.309
31566.655
29754.343
27700.249
25737.396
23656.954
22332.785
20340.389
18452.027
16452.509
14535.183
11921.872
9677.1978
6628.413
3013.9749
-1125.3302
120230.55
107755.68
86310.173
94518.906
92417.005
95901.28
97831.09
100397.43
101297.05
103577.8
104315.49
105464.93
106030.17
106796.52
106552.2
107114.25
106581.76
106656.59
105982.78
105797.57
105072.8
104530.94
103638.69
102923.08
101854.29
100803.85
99564.395
98313.73
96953.38
95574.333
94072.547
92542.449
90970.254
89503.28
87924.2
86305.377
86103.231
85996.471
84725.653
84567.141
82695.703
81138.786
79749.31
78239.58
76766.825
75219.691
73732.213
72224.601
70764.941
69305.766
67862.883
66447.555
65026.033
63616.064
62218.013
60815.308
59414.159
58013.463
56627.62
55222.662
53869.609
52417.24
51167.231
49740.89
48352.829
47126.778
45878.828
44312.257
42778.682
41490.939
40154.344
38674.431
36739.438
35211.644
33521.5
32067.91
30733.674
29211.087
27859.713
26464.977
24935.503
23718.956
22136.05
21070.494
19443.83
18444.446
16507.561
15394.557
13539.921
11790.897
9992.8574
8080.0187
6103.0577
2596.5652
-238.96447
74859.894
74791.068
56689.97
65276.905
60855.705
62780.464
65280.381
66437.497
66709.076
69146.302
68743.924
70235.498
69949.703
70855.405
70336.691
71011.327
70329.073
70731.108
70028.272
70048.483
69371.341
69096.336
68490.997
68034.978
67332.109
66681.467
66016.344
65212.513
64384.852
63449.12
62532.501
61517.679
60555.484
59514.844
58347.849
57592.625
57129.171
56768.08
57082.658
56832.3
56686.748
55591.254
54526.532
53513.708
52506.42
51482.557
50484.993
49518.288
48557.591
47611.417
46681.812
45759.521
44837.716
43927.169
43017.478
42096.877
41192.214
40275.062
39360.046
38452.564
37536.714
36669.384
35746.253
34865.748
34100.605
33080.314
32422.729
31460.364
30679.259
29931.784
28988.766
27997.722
27213.131
24899.122
23709.401
22820.834
21874.476
20976.514
19977.344
19271.663
17956.443
17561.254
16000.772
15701.026
14032.838
13895.322
12069.782
11987.335
10149.461
9917.5942
8443.3018
7196.9538
5512.5601
2934.2682
1318.3891
39382.786
35777.993
27699.086
34107.178
29537.535
31894.758
32955.932
33163.199
33440.089
34229.073
34441.436
34616.168
34807.115
35226.839
34893.181
35430.403
34974.761
35434.998
34967.387
35338.092
34916.946
35110.829
34799.465
34728.105
34365.696
34255.518
33812.493
33504.688
33048.556
32694.284
32204.399
31775.171
31292.826
30744.202
30385.228
29923.439
29486.297
29228.581
28167.355
27613.304
27275.513
26909.212
26384.686
26090.931
25716.391
25343.749
24964.498
24615.297
24235.768
23885.287
23526.015
23171.652
22819.183
22464.586
22109.223
21741.995
21389.994
21004.633
20644.193
20258.301
19889.586
19509.158
19139.961
18780.97
18385.425
18071.993
17634.597
17303.192
16893.589
16509.376
16108.039
15700.611
15009.684
14956.738
14755.961
14304.008
13797.228
13229.903
12838.074
12200.32
11746.026
11304.848
10556.87
10449.367
9472.7592
9496.747
8483.1979
8568.2026
7495.738
7358.8761
5956.6972
5366.4862
4626.0474
3496.8299
2701.6991
-1970.5864
2089.0844
-3039.1348
979.60954
-581.86729
-265.36341
-173.42425
108.56387
-1586.209
23.946765
-1411.202
-891.17897
-1272.4559
-915.81305
-1499.3628
-795.52436
-1339.2875
-682.91358
-1034.54
-447.35769
-581.66873
-6.8652549
-253.50366
85.436583
208.71773
369.73287
505.28254
643.25821
773.74219
835.37213
908.01937
970.22266
956.81581
1091.5056
1096.7975
1052.7281
1297.5518
1274.9908
1263.9938
1147.9262
1228.5894
1371.0622
1285.3664
1343.0445
1380.4202
1396.4295
1464.5535
1534.241
1610.5955
1693.976
1785.1913
1884.1365
1976.6565
2067.1995
2171.7558
2245.5547
2338.1021
2415.9574
2488.9402
2564.9035
2641.8818
2722.6733
2806.199
2912.0499
3037.5491
3137.5572
3316.9808
3442.9344
3579.893
3747.2117
3842.825
3990.4849
4043.6555
4189.7124
4275.899
4406.3592
4382.9614
4464.3057
4456.5916
4457.4114
4519.1887
4398.9338
4542.5536
4433.3188
4397.9486
4621.0277
4140.2742
4798.9354
3900.0039
4818.828
4215.3047
5127.5768
4828.2633
4235.6528
4445.2157
-33685.285
-33145.676
-30137.713
-28492.508
-30117.753
-32065.006
-31409.497
-33968.878
-34008.894
-34940.182
-35310.209
-35843.165
-35822.649
-35860.521
-36051.392
-35428.281
-35746.8
-34836.396
-35105.235
-34162.342
-34305.664
-33638.467
-33370.258
-32346.648
-32075.129
-31260.713
-30883.062
-30149.34
-29713.097
-29081.759
-28558.082
-28016.935
-27446.049
-26873.861
-26427.015
-25723.052
-25316.538
-24660.969
-24161.448
-23494.092
-22946.655
-22354.165
-21845.46
-21228.244
-20656.539
-20110.956
-19555.178
-18991.154
-18450.584
-17904.683
-17352.568
-16811.189
-16283.62
-15745.005
-15218.834
-14720.358
-14191.142
-13704.372
-13209.435
-12714.653
-12230.454
-11751.96
-11265.111
-10767.058
-10316.087
-9795.4695
-9323.5835
-8809.5983
-8320.2386
-7779.2255
-7328.2546
-6724.786
-6225.7626
-5704.9175
-5549.4263
-5264.9146
-4651.4414
-4292.6571
-3800.1063
-3460.835
-2899.2421
-2644.1647
-1996.3995
-1696.3497
-1170.4783
-484.48101
-341.50581
977.79072
689.4005
2296.8042
1853.7754
2784.349
2638.8247
4157.1223
5546.6843
-71379.892
-69354.668
-59599.403
-61610.769
-63766.214
-65249.138
-67619.666
-68419.853
-71327.732
-71358.268
-72735.296
-73206.887
-73533.406
-73409.749
-73722.307
-72921.83
-72984.921
-72011.736
-71676.261
-70587.91
-70127.023
-67933.478
-66740.445
-65527.964
-64724.524
-63655.902
-62653.292
-61551.437
-60524.777
-59422.52
-58442.63
-57341.932
-56363.28
-55344.59
-54266.745
-53351.708
-52289.375
-51357.107
-50361.542
-49474.711
-48538.777
-47613.402
-46697.006
-45811.839
-44888.297
-44006.552
-43084.401
-42168.73
-41262.9
-40346.648
-39423.322
-38516.794
-37601.301
-36688.154
-35788.987
-34892.607
-33992.594
-33119.229
-32233.186
-31349.949
-30483.005
-29590.393
-28702.225
-27790.444
-26894.956
-25936.539
-25001.42
-24045.066
-23054.666
-22096.828
-21072.281
-20027.217
-19048.268
-17428.723
-15545.256
-14427.475
-13284.694
-12420.29
-11444.308
-10763.802
-9556.9601
-9160.8223
-7725.9167
-7327.0871
-6078.3494
-5159.1013
-4510.7848
-2701.9302
-2758.8439
-321.77721
-339.06962
1294.2339
2577.9611
4480.5121
6130.1978
-107932.28
-87267.125
-82451.188
-85330.902
-88473.803
-91491.971
-93619.295
-96479.141
-98918.518
-99696.724
-100994.61
-101893.09
-101926.24
-101851.45
-101982.96
-100862.05
-101006.2
-99392.419
-99152.899
-97941.514
-97873.131
-98466.012
-97948.438
-96859.716
-96011.128
-94280.119
-93123.325
-91405.207
-90002.346
-88448.512
-86982.261
-85467.462
-84115.117
-82518.944
-81149.74
-79599.786
-78244.209
-76748.091
-75371.634
-73936.642
-72553.267
-71143.119
-69783.519
-68385.227
-67016.947
-65648.132
-64299.843
-62943.477
-61607.377
-60269.247
-58939.956
-57620.193
-56306.199
-55004.933
-53706.965
-52424.191
-51146.159
-49878.389
-48608.714
-47356.296
-46091.057
-44826.292
-43579.825
-42286.534
-41071.516
-39731.176
-38462.944
-37100.303
-35806.761
-34420.823
-33049.217
-31771.73
-30305.535
-28653.446
-26931.307
-26368.991
-24124.451
-22609.592
-21124.494
-19763.327
-18433.832
-16943.21
-15633.571
-14149.93
-12642.161
-11345.19
-9534.7403
-8346.6582
-6428.2249
-4840.1231
-3252.1504
-821.20007
1086.3701
3813.8953
8408.9234
-127229.5
-124147.08
-115536.32
-116087.48
-120739.14
-122941.07
-127853.33
-130316.63
-132476.27
-134621.61
-135647.23
-136171.22
-136598.6
-136230.16
-136031.28
-135259.05
-134433.58
-133101.11
-132402.52
-130555.16
-130038.55
-128062.68
-129423.53
-128685.91
-127084.69
-125519.93
-123707.21
-121638.97
-119787.93
-117678.86
-115804.92
-113716.77
-111886.65
-109881.74
-108007.39
-106190.06
-104297.27
-102512.58
-100710.28
-98986.498
-97223.635
-95562.855
-93871.533
-92243.682
-90606.869
-88988.323
-87382.699
-85764.875
-84158.311
-82557.443
-80941.532
-79336.365
-77730.377
-76121.16
-74513.872
-72918.427
-71318.135
-69719.01
-68135.51
-66538.768
-64932.724
-63332.528
-61702.143
-60014.24
-58402.64
-56617.348
-54984.106
-53198.052
-51410.034
-49550.67
-47757.996
-45767.368
-43838.259
-41998.251
-39767.692
-38550.22
-36504.277
-34398.008
-32327.084
-30319.873
-28214.738
-26170.511
-24044.095
-21940.664
-19704.735
-17746.161
-15169.298
-13430.693
-10838.429
-8658.5172
-6705.5134
-3154.7295
-567.44484
4596.0441
9699.2368
-181825.56
-166101.41
-145336.36
-156578.75
-155827.66
-164409.27
-166016.55
-170958.43
-172538.81
-175115.97
-175984.08
-176819.45
-176764.71
-176716.43
-175909.24
-174958.42
-173974.3
-172137.62
-171036.66
-168849.63
-167334.23
-165356.65
-162492.6
-159990.38
-157748.72
-155690.53
-153541
-151065.46
-148731.38
-146235.11
-143871.29
-141300.92
-139156.49
-136720.92
-134535.09
-132153.39
-129868.51
-127609.6
-125435.96
-123202.35
-121083.49
-118917.5
-116808.58
-114687.86
-112597.34
-110510.76
-108446.28
-106374.81
-104325.21
-102278.3
-100226.96
-98196.169
-96161.221
-94135.318
-92113.938
-90107.843
-88092.938
-86097.419
-84101.443
-82099.571
-80103.195
-78102.126
-76077.556
-74025.736
-72036.497
-69847.615
-67888.418
-65624.223
-63537.154
-61314.94
-59047.492
-56797.759
-54507.34
-52121.418
-49739.299
-47503.047
-45113.194
-42712.896
-40213.949
-37742.798
-35274.153
-32741.638
-30223.281
-27640.006
-25115.012
-22439.791
-19828.372
-17304.635
-14256.323
-12051.844
-8586.3176
-5753.6619
-2455.3254
2243.4568
7748.8836
-198880.97
-192154.12
-169065.08
-183367.46
-188211.1
-194474.34
-198309.82
-203651
-205830.22
-207566.33
-209871.69
-209541.82
-210105.81
-209996.2
-208500.17
-208153.55
-206696.26
-204522.08
-203448.64
-200824.48
-198822.68
-196854.3
-194069.32
-192342.66
-188964.2
-186689.58
-183691.54
-180802.24
-178427.11
-175242.36
-172635.66
-169436.82
-166776.5
-163668.48
-161106.67
-158514.08
-155750.63
-153302.05
-150636.29
-148212.25
-145716.82
-143319.98
-140946.86
-138592.88
-136276.32
-133955.68
-131647.54
-129340.83
-127029.34
-124716.85
-122393.27
-120069.72
-117736.86
-115401.81
-113064.16
-110727.32
-108388.94
-106052.91
-103716.02
-101373.15
-99031.429
-96664.583
-94277.544
-91849.553
-89389.715
-86742.891
-84334.302
-81585.351
-79044.742
-76263.436
-73591.404
-70667.63
-67744.973
-64915.963
-61809.424
-58857.797
-55785.456
-52730.22
-49655.425
-46625.305
-43553.123
-40438.138
-37349.22
-34226.207
-30983.232
-27879.214
-24598.078
-21352.704
-18031.271
-15129.601
-11006.965
-8746.4935
-4366.3342
276.6555
7396.4516
-277771.48
-191309.29
-207042.78
-211835.86
-220910.48
-222293.53
-230443.49
-234125.5
-235933.86
-238799.79
-239602.58
-240729.18
-240145.05
-239970.09
-238665.36
-237751.6
-236478.05
-234390.26
-232530.68
-230180.06
-227607.32
-225263.43
-222897.93
-220018.43
-217385.12
-213928.66
-210880.31
-207361.17
-204781.87
-201575.48
-198474.28
-195075.28
-191865.2
-188273.42
-184846.35
-182169.98
-179233.09
-176206.07
-173261.4
-170374.68
-167512.7
-164728.85
-161951.83
-159220.92
-156515.28
-153819.63
-151143.4
-148472.58
-145790.54
-143120.17
-140427.09
-137742.01
-135043.05
-132345.01
-129645.94
-126950.78
-124253.11
-121565.33
-118872.73
-116182.74
-113481.96
-110771.92
-108025.36
-105256.74
-102345.2
-99372.165
-96313.809
-93194.406
-90529.217
-87403.475
-84163.318
-80699.613
-77574.509
-74040.173
-70639.976
-67189.105
-63824.516
-60288.705
-56879.134
-53357.419
-49844.277
-46287.396
-42799.717
-39111.914
-35556.094
-31967.205
-28179.47
-24661.927
-21083.147
-17576.787
-13957.275
-11755.919
-7520.0069
-4022.569
2964.9255
509568.91
508460.92
488785.75
502789.81
505150.62
509193.46
527199.45
515342.6
511372.81
510882.44
506923.96
490797.49
483855.63
518049.18
425385.23
475699.01
495504.14
463549.34
482132.23
481194.38
492970.52
478255.59
496030.99
491236.74
494550.05
484815.96
482497.26
483563.8
492280
413468.79
357164.27
416934.64
363048.63
380750.55
380508.71
375389.29
381614.06
377043.35
380941.79
375701.22
375034.86
379214.4
354869.24
395141.83
354588.33
316612.56
325896.39
322911.09
318121.05
328736.63
324534.3
330423.3
330275.14
326887.94
328576.89
329383.02
318258.26
318324.46
346853.45
236163.32
226144.53
259725.48
223891.42
244893.27
234813.65
244665.07
240260.9
241254.89
241456.95
242450.61
238274.52
239027
236926.3
244383.24
214929.56
167575
178136.35
163788.32
170708.05
169984.89
171508.43
170541.97
171133.35
172129.17
171875.43
166586.77
174239.49
162506.56
175464.21
163946.07
89779.681
91269.179
92832.305
87716.865
92920.265
92274.037
92803.229
91943.171
91331.32
91439.552
91460.265
85275.626
93399.462
86821.762
88220.842
14543.585
15006.031
8496.0921
14449.807
11694.165
12893.055
12679.625
12725.748
11665.949
16076.581
6419.2901
15713.183
19009.525
2320.4236
39957.768
-57574.997
-65052.387
-56576.911
-62320.515
-60175.742
-61018.054
-60699.167
-60853.253
-61817.667
-56833.04
-64295.587
-55935.525
-55380.481
-71722.528
-11550.241
-120148.8
-145462.66
-130997.08
-134659.72
-135071.99
-136733.73
-137852.15
-137332.56
-140787.54
-133243.92
-149480.57
-129697.13
-129788.69
-155914.57
-90770.994
-201076.91
-234059.3
-201088.63
-221640.79
-211418.61
-216616.47
-214460.18
-215432.08
-216694.36
-207956.95
-212376.18
-211247.21
-196814.24
-220106.81
-146253.04
-288630.53
-275437.53
-276022.67
-269448.18
-281262.46
-281028.4
-283563.14
-285817.9
-286993.63
-282982.64
-296492.73
-258326.51
-275251.73
-299246.2
-223351.28
-336659.88
-361912.37
-324524.03
-336593.17
-323138.62
-333065.79
-329961.49
-330175.22
-327432.26
-323813.36
-327675.41
-333791.59
-302661.32
-364613.09
-200254.37
-405523.74
-474673.49
-414088.4
-445308.73
-458544.27
-453549.94
-457382.28
-477884.6
-467269.21
-481468.88
-452206.63
-441184.28
-454361.93
-440464.54
-416361.33
-454308.98
-388296.9
-357643.03
-358491.24
-373321.7
-402305.29
-383202.64
-367705.67
-355738.88
-351672.16
-361187.64
-363958.87
-362480.93
-405476.44
-368434.22
-371110.02
-350258
-411488.2
-431592.31
-449209.94
-487144.88
-470780.48
-441363.05
-500673.49
-490355.55
-473442.13
-446906.19
-428163.1
-409256.82
-343284.8
-279580.19
-281421.44
-312352.51
-321307.76
-334213.45
-345535.15
-355550.09
-364931.74
-375681.22
-358394.47
-351100.82
-329564.95
-331864.21
-330210.83
-333505.93
-233965
-265017.27
-260401.05
-283972.99
-300737.46
-291133.47
-305180.4
-302726.88
-292892.87
-306150.75
-294133.86
-298910.46
-290070.25
-257439.68
-268993.64
-245369.95
-277415.61
-279681.88
-285965.34
-292497.31
-299331.53
-300690.53
-303099.39
-302595.66
-295991.53
-296059.62
-288750.38
-278026.71
-274162.22
-258773.88
-261373.09
-282614.33
-276081.04
-295407.82
-297575.41
-303308.97
-309522.78
-308574.32
-310339.96
-310657.43
-302144.54
-296810.21
-283925.59
-273639.21
-269497.83
-257764.18
-268939.13
-274946.93
-285384.14
-288950.77
-296330.21
-295488.93
-296939.87
-296817.03
-292003.59
-290981.89
-284578.16
-277647.69
-270899.73
-257119.09
-259567.05
-276527.27
-277196.08
-286881.53
-287989.61
-293716.53
-295632.16
-296424.99
-296074.61
-293584.19
-287722.22
-284718.56
-277530.65
-267015.47
-268728.86
-263836.14
-268786.58
-275335.49
-279716.15
-287093.97
-288509.75
-290944.74
-292010.93
-290420.44
-289239.58
-285692.83
-281486.6
-275737.6
-268141.89
-261783.24
-261972.69
-272140.96
-274278.38
-281298.78
-281285.79
-287073.63
-285577.81
-287649.48
-286377.25
-283843.51
-281477.57
-277014.01
-273741.75
-268022.36
-265200.42
-264627.97
-267381.72
-272103.1
-274028.43
-278279.78
-279335.02
-281529.37
-281296.04
-280826.41
-280539.96
-276722.98
-275210.22
-271156.97
-266455.61
-264317.3
-262654.17
-269036.27
-270455.86
-275336.3
-276508.19
-280249.36
-279607.35
-281769.25
-280827.45
-279404.61
-278618.15
-276097.23
-272620.53
-269957.58
-267250.54
-263984.9
-265308.4
-269336.93
-270100.2
-272570.33
-273016.36
-274708.98
-274991.09
-275081.2
-274253.95
-273004.24
-270799.63
-269334.89
-266013.73
-265527.84
-263883.27
-265367.41
-266152.52
-270055.74
-270685.47
-273515.18
-273462.58
-274792.88
-274493.09
-274096.65
-272421.67
-271716.59
-268916.79
-267799.85
-265411.01
-261526.99
-263581.04
-266256.82
-266305.72
-268709.63
-268904.3
-269205.04
-270806.93
-270274.68
-269393.05
-268986.17
-267977.49
-266390.63
-264321.21
-264736.7
-261572.73
-261966.29
-263922.18
-265655.19
-266751.75
-267533.67
-268360.15
-268247.02
-269215.7
-268965.24
-268189.43
-267253.68
-265490.26
-265125.52
-263950.17
-259077.28
-260768.77
-262743.79
-263261.85
-264112.37
-264722.27
-266617.83
-265072.3
-265225
-264873.81
-263928.46
-263550.42
-260984.84
-260897.02
-260251.52
-258221.46
-258542.45
-260591.6
-260666.85
-262786.16
-263631.31
-263576.99
-264099.04
-264360.39
-264163.39
-263600.45
-263611.74
-262919.54
-260328.43
-262238.71
-257126.88
-257084.78
-259006.57
-258511.31
-260132.45
-260463.87
-261825.27
-260861.85
-261139.14
-260850.03
-259895.07
-259451.07
-258404.94
-257440.23
-257032.37
-253996.96
-254891.87
-256827.89
-257667.91
-258070.48
-258518.73
-258018.23
-259716.74
-259067.94
-259261.28
-258442.65
-258538.66
-257252.1
-257336.19
-257204.24
-252162.24
-252701.96
-254233.05
-254418.75
-255540.45
-256423.37
-256709.9
-256060.91
-257096.42
-256118.6
-255027.49
-256157.9
-254140.13
-254651.67
-253278.27
-250472.03
-250297.38
-252095.56
-252043.95
-253204.84
-252850.77
-254190.26
-254369.03
-253903.78
-254091.64
-253243.13
-253605.52
-251967.32
-252340.01
-252009.12
-246246.28
-248093.08
-248839.78
-249539
-250057.02
-250514.98
-251163
-250866.68
-251652.34
-250607.28
-250591.59
-251142.31
-249905.47
-248141.53
-249815.49
-244898.88
-244652.3
-246090.71
-246589.25
-247453.23
-247252.7
-248205.34
-248292.28
-247720.6
-248829.61
-247486.01
-247518.58
-246183.17
-246851.79
-246503.62
-241358.67
-241287.05
-243031.72
-243494.24
-243990.94
-244741.51
-244770.43
-244535.9
-245093.85
-244798.01
-244260.27
-244917.01
-243546.44
-243113.16
-243102.69
-237909.19
-238697.16
-239019.61
-240223.07
-240507.49
-240660.22
-241647.43
-241424.47
-241438.21
-241710.91
-240055.53
-241393.63
-240459.46
-239826.83
-240164.61
-235777.51
-234418.1
-236217.45
-235791.65
-237291.39
-237094.76
-237943.71
-237566.88
-238014.21
-237947.32
-238076.3
-237294.32
-236277.29
-237326.55
-235914.92
-230904.4
-231597.29
-231749.9
-233156.93
-232334.85
-234123.58
-233677.06
-234332.83
-234007.12
-234130.34
-233699.97
-234651.82
-232577.31
-232888.29
-233869.86
-228596.39
-227130.77
-227913.88
-228818.99
-229684.58
-229790.51
-229940.67
-230013.97
-230428.34
-230215.4
-230047.12
-230195.39
-229164.59
-230310.45
-228688.83
-223383.14
-224705.46
-224726.88
-224948.69
-225286.49
-225964
-225984.21
-226446.25
-226229.48
-226593.4
-225886.96
-226418.04
-225647.08
-225136.45
-226660.63
-221360.54
-219551.11
-220955.75
-221124.28
-221902.42
-221580.96
-222095.58
-222313.56
-222519.96
-222125.1
-222037.36
-222392.66
-221392.9
-222232.98
-222111.12
-217186.96
-216403.43
-216968.72
-217429.77
-217507.28
-218430.99
-218032.5
-218202.18
-217863.64
-218709.03
-218091.32
-218645.47
-217687.53
-217984.74
-218232.86
-213881.04
-212258.58
-213285.62
-213523.14
-213701.27
-214323.83
-214141.01
-214472.56
-214191.53
-214603.26
-214135.42
-214756.48
-213909.57
-214431.9
-214542.32
-210048.25
-208748.94
-209510.1
-209765.59
-210012.65
-210353.28
-210289.74
-210512.6
-210457.63
-210747.65
-210377.2
-210912.4
-210176.99
-210658.48
-210755.47
-206448.34
-205121.65
-205841.35
-206090.97
-206177.29
-206544.91
-206584.8
-206771.9
-206689.09
-206950.57
-206641.63
-207155.83
-206576.33
-207158.02
-207235.98
-202675.38
-201666.16
-202384.98
-202310.07
-202560.52
-203130.75
-202762.46
-203306.06
-202936.09
-203576.75
-202843.41
-203705.11
-202680.2
-203714.32
-202913.92
-198642.8
-198851.25
-198519.24
-199814.86
-198844.72
-199532.61
-199359.82
-199542
-199504.94
-199765.44
-199465.97
-199849.88
-199706.7
-199670.65
-200957.83
-196606.35
-194689.12
-195678.43
-195501.7
-196103.83
-195784.55
-196239.86
-196024.18
-196319.63
-195962.46
-196146.71
-196743.19
-196041.65
-196781.57
-196809.67
-192814.52
-191852.86
-192206.4
-192612.63
-192259.23
-192890.22
-192537.35
-192992.4
-192778.32
-193004.73
-192772.67
-193276.81
-192931.75
-193216
-193539.66
-190051.17
-188408.77
-189243.39
-189200.12
-189403.6
-189526.21
-189583.65
-189709.03
-189615.53
-189905.48
-189563.86
-190238.36
-189583.72
-190101.51
-190273.34
-186658.34
-185505.65
-186088.34
-186248.1
-186193.31
-186543.34
-186450.08
-186598.58
-186580.33
-186764.84
-186491.82
-186951.94
-186539.55
-186927.13
-187175.42
-183797.23
-182408.07
-183173.07
-183147.15
-183277.4
-183442.68
-183452.56
-183585.51
-183522.96
-183783.9
-183410.05
-183967.76
-183465.78
-183817.78
-184024.16
-180724.88
-179537
-180169.49
-180264.39
-180305.82
-180544.39
-180555.87
-180615.97
-180623.32
-180782.67
-180486.53
-180964.73
-180479.88
-180756.19
-181003.95
-177861.22
-176578.23
-177317.21
-177327.84
-177427.21
-177654.01
-177642.7
-177731.51
-177690.87
-177892.04
-177534.87