/*--------------------------------*- C++ -*----------------------------------*\
  =========                 |
  \\      /  F ield         | OpenFOAM: The Open Source CFD Toolbox
   \\    /   O peration     | Website:  https://openfoam.org
    \\  /    A nd           | Version:  6
     \\/     M anipulation  |
\*---------------------------------------------------------------------------*/
FoamFile
{
    version     2.0;
    format      ascii;
    class       pointVectorField;
    location    "1.31";
    object      lm;
}
// * * * * * * * * * * * * * * * * * * * * * * * * * * * * * * * * * * * * * //

dimensions      [1 -2 -1 0 0 0 0];

internalField   nonuniform List<vector> 
3969
(
(0 0 0)
(0 0 0)
(-6115.7967 1024.8136 -115.49363)
(-5574.4936 2559.6491 -70.940252)
(0 0 0)
(0 0 0)
(-5585.8631 2622.5221 -68.505432)
(-6127.1867 1087.1778 -114.74916)
(0 0 0)
(0 0 0)
(0 0 0)
(0 0 0)
(0 0 0)
(0 0 0)
(0 0 0)
(-6047.2984 1215.6027 -110.30971)
(-5980.1334 1406.9182 -104.81549)
(-5913.1969 1599.3173 -99.139504)
(-5846.185 1791.7679 -93.255161)
(-5778.8995 1984.2994 -87.559961)
(-5711.6316 2176.7296 -81.933669)
(-5643.3972 2369.0426 -76.308019)
(-11.376844 -23.716511 -26.974618)
(-22.700879 -43.397519 -30.570837)
(-43.238004 -62.378177 -31.245954)
(-70.450947 -79.870487 -28.644627)
(-103.84203 -95.827103 -25.192)
(-142.63566 -109.5043 -20.70454)
(-185.664 -121.32386 -16.71186)
(-233.00523 -131.06486 -12.227065)
(-283.54398 -138.9853 -8.7125915)
(-337.35164 -145.36709 -5.0352939)
(-394.05085 -150.51236 -2.5870982)
(-453.71372 -154.6997 -0.30740992)
(-516.39347 -158.18502 1.1335593)
(-582.40883 -161.49778 1.9079904)
(-652.45306 -164.37439 2.1678023)
(-726.52716 -167.38207 1.8334433)
(-805.76962 -170.29479 1.0014457)
(-890.58619 -173.30326 -0.18021417)
(-981.90599 -176.06009 -1.6907917)
(-1080.3199 -178.47371 -3.3543473)
(-1186.6576 -180.10054 -5.1787427)
(-1301.4577 -180.65068 -6.9952534)
(-1425.2144 -179.45258 -8.850044)
(-1558.3417 -176.02636 -10.600203)
(-1700.7655 -169.73037 -12.305517)
(-1852.7435 -160.28366 -14.004883)
(-2013.7615 -146.72885 -15.649038)
(-2183.5779 -128.79658 -17.323639)
(-2361.4304 -105.9396 -19.161736)
(-2546.3519 -77.968532 -21.180547)
(-2737.5403 -44.625507 -23.505519)
(-2933.8248 -5.8304529 -26.220552)
(-3134.041 38.280531 -29.377914)
(-3337.1362 87.484451 -32.984816)
(-3541.853 141.51165 -37.20675)
(-3747.4233 199.87198 -41.816909)
(-3952.7312 261.81841 -46.847153)
(-4157.052 327.08466 -52.511875)
(-4360.2297 394.59259 -58.209194)
(-4561.2128 464.09413 -64.33575)
(-4760.8846 534.50938 -70.4751)
(-4957.9757 605.37504 -76.827805)
(-5153.8487 677.10195 -83.218149)
(-5347.7539 746.6774 -89.584256)
(-5540.8025 818.09283 -96.077712)
(-5732.9016 886.85673 -102.46908)
(-5924.7982 955.64863 -109.01844)
(-5.3745783 38.372887 47.180282)
(-22.440894 58.110263 47.583032)
(-39.987091 84.724894 56.500587)
(-61.773995 106.51497 55.663011)
(-91.201376 132.58234 57.447328)
(-123.4691 157.1345 56.996431)
(-159.5947 181.29152 58.125206)
(-198.88625 205.81167 59.036903)
(-240.8907 229.85876 60.871925)
(-285.53363 254.86535 63.251572)
(-332.1319 279.74561 66.202811)
(-381.23266 306.39175 70.114222)
(-432.2985 333.85858 74.265699)
(-485.91691 363.41182 79.269084)
(-542.22265 395.20772 84.568688)
(-601.72182 429.4223 90.318595)
(-664.99182 466.89294 96.27722)
(-732.38313 507.16993 102.32286)
(-805.10442 551.57557 108.16156)
(-883.36795 599.13263 113.74474)
(-968.27051 651.14218 118.56455)
(-1060.6063 706.51016 122.73828)
(-1160.8619 766.37527 125.41594)
(-1269.786 829.59387 127.01887)
(-1387.6615 896.36483 127.04812)
(-1515.0091 966.25963 125.43959)
(-1651.4344 1038.5183 121.75353)
(-1797.7472 1113.8649 116.27689)
(-1953.3239 1190.5972 109.17388)
(-2117.4241 1268.5801 100.13881)
(-2289.5598 1347.3719 89.629431)
(-2468.7124 1426.312 77.721793)
(-2654.023 1505.042 64.818162)
(-2844.2784 1583.0233 51.204882)
(-3038.4623 1659.9652 37.347654)
(-3235.3087 1735.6656 23.543092)
(-3434.0083 1809.7462 10.175399)
(-3633.2508 1882.3917 -2.2621343)
(-3832.2604 1953.4238 -13.747967)
(-4030.837 2023.0533 -23.974988)
(-4227.9546 2091.5639 -33.039426)
(-4423.689 2158.9848 -40.552987)
(-4617.9497 2225.7596 -47.150782)
(-4810.7445 2292.0351 -52.524926)
(-5002.5635 2358.3306 -57.42621)
(-5193.5965 2424.8888 -61.971554)
(-5384.3558 2491.6143 -66.3444)
(0 0 0)
(0 0 0)
(0 0 0)
(0 0 0)
(0 0 0)
(0 0 0)
(0 0 0)
(-14.194192 22.032935 -33.389474)
(-22.765766 62.25244 -42.563506)
(-38.264794 67.625337 -40.110935)
(-65.15094 99.508531 -37.342486)
(-94.795608 118.81891 -32.819435)
(-128.84956 142.52824 -25.786757)
(-167.50261 167.07211 -21.041477)
(-207.56164 189.01132 -14.731379)
(-251.69532 215.32967 -10.820961)
(-296.72326 237.59309 -5.562105)
(-344.82664 266.43359 -3.7491735)
(-394.81348 290.66667 0.19791157)
(-446.65481 321.16516 1.2255186)
(-501.22561 351.26645 2.8156161)
(-558.05821 384.50296 3.1875143)
(-618.08601 420.94252 3.2177618)
(-681.89962 460.07514 2.799997)
(-749.72823 503.17142 2.1594273)
(-822.81102 550.16654 1.3008457)
(-901.42909 601.14611 0.53555691)
(-986.65889 656.65186 -0.26817434)
(-1078.9526 716.33105 -0.831084)
(-1179.2724 780.42314 -1.1670191)
(-1287.8435 848.41805 -1.2384213)
(-1405.5315 920.78853 -0.8007678)
(-1533.3099 996.40204 0.40783435)
(-1668.8926 1075.2479 0.93943682)
(-1813.8554 1155.9552 1.5768547)
(-1967.7398 1238.5034 2.1268103)
(-2130.1902 1321.8649 2.6036415)
(-2300.4502 1405.468 2.8167914)
(-2477.7676 1488.6613 2.5567065)
(-2661.1355 1570.8105 1.7598511)
(-2849.6967 1651.411 0.37426571)
(-3042.2719 1729.9369 -1.6429959)
(-3237.7811 1806.6374 -4.4768505)
(-3436.0368 1881.0977 -7.5211065)
(-3634.117 1952.9648 -11.754891)
(-3833.5475 2022.9655 -15.979433)
(-4032.3992 2091.3024 -20.932012)
(-4230.3349 2158.1407 -26.108703)
(-4427.3569 2224.1853 -31.622285)
(-4622.9469 2289.6313 -37.354312)
(-4817.368 2355.0405 -43.287156)
(-5010.5935 2420.7831 -49.394553)
(-5202.9371 2487.071 -55.650352)
(-5394.7754 2554.0757 -61.973154)
(-5654.7151 2431.5643 -74.593128)
(-5722.7309 2238.5286 -80.209654)
(-5790.8483 2046.3924 -85.714491)
(-5857.2524 1852.7958 -91.201911)
(-5925.1423 1661.394 -96.721541)
(-5991.7374 1468.4198 -102.24704)
(-6058.779 1277.6937 -108.41454)
(-5936.4903 1018.5373 -109.63056)
(-5744.4743 949.65406 -104.5243)
(-5552.7563 881.56686 -99.602822)
(-5359.7421 812.53522 -94.378337)
(-5165.1121 743.35661 -88.202946)
(-4968.7277 673.95436 -81.21805)
(-4770.0858 604.47812 -72.965689)
(-4569.0975 535.28713 -63.438792)
(-4365.899 466.6768 -52.417638)
(-4160.7037 399.05044 -40.385446)
(-3954.1069 333.56689 -27.153761)
(-3746.7522 269.98001 -13.247053)
(-3539.0067 209.13261 1.3181748)
(-3332.5925 151.72311 15.692736)
(-3128.2756 98.352547 29.949917)
(-2927.1911 49.37414 43.367417)
(-2730.5461 5.201726 55.739921)
(-2539.5164 -33.876669 66.729545)
(-2355.0812 -67.857546 76.084193)
(-2178.2563 -96.585794 83.643944)
(-2009.7655 -120.47355 89.356762)
(-1850.1749 -139.57613 93.164044)
(-1699.9929 -154.42819 95.093412)
(-1559.1482 -165.48138 95.435541)
(-1427.8352 -173.27965 94.238477)
(-1305.7206 -178.3508 91.730996)
(-1192.4609 -181.30204 88.210283)
(-1087.4905 -182.59129 83.836783)
(-990.19694 -182.70266 78.96273)
(-899.90591 -182.06324 73.76455)
(-815.73914 -180.83517 68.439924)
(-737.13787 -179.3944 63.362162)
(-663.23171 -177.88777 58.429835)
(-593.65408 -175.57101 53.627782)
(-527.99571 -172.96361 49.525453)
(-465.09069 -170.1542 45.851085)
(-405.44836 -166.1808 43.080031)
(-348.36196 -161.1046 40.530698)
(-294.45542 -154.74047 38.979224)
(-243.72688 -145.89366 37.260451)
(-196.55227 -135.75269 36.634081)
(-152.44086 -122.55654 36.237763)
(-114.22653 -107.46209 35.991083)
(-79.576313 -89.814672 35.860874)
(-52.750455 -70.452903 34.579028)
(-30.257876 -48.030858 32.122566)
(-25.560944 -27.649853 21.057798)
(0 0 0)
(0 0 0)
(0 0 0)
(0 0 0)
(0 0 0)
(0 0 0)
(0 0 0)
(0 0 0)
(0 0 0)
(0 0 0)
(0 0 0)
(0 0 0)
(0 0 0)
(0 0 0)
(-5575.7469 2566.5469 -71.077876)
(-5576.7505 2573.997 -71.010037)
(-5578.0451 2581.7481 -70.709307)
(-5579.3183 2589.7316 -70.134181)
(-5580.7481 2597.8107 -69.608707)
(-5582.2729 2605.8753 -69.132245)
(-5583.8352 2614.0319 -68.688984)
(-6117.0824 1033.3146 -115.33127)
(-6118.2803 1041.2669 -115.09291)
(-6119.4939 1049.103 -115.21728)
(-6120.7872 1057.0036 -115.32911)
(-6122.1575 1064.9745 -115.29037)
(-6123.652 1072.5997 -115.27495)
(-6125.4755 1080.4141 -115.01252)
(-3.3282709 -16.013529 -22.280875)
(-15.207153 -29.05836 -19.815367)
(-34.869346 -42.404211 -20.535359)
(-61.283735 -54.720994 -18.262481)
(-94.380821 -65.37367 -14.781968)
(-132.6986 -74.986582 -11.43575)
(-175.23492 -82.553614 -7.3324696)
(-221.79154 -89.040179 -3.9773442)
(-271.75012 -93.598647 -0.1213272)
(-324.65901 -97.153476 2.7069207)
(-380.34292 -99.466199 5.4833959)
(-438.66662 -100.83478 7.7979147)
(-499.98835 -101.76338 9.4109815)
(-564.31011 -101.75536 10.665569)
(-632.29178 -101.30825 11.401395)
(-704.30626 -100.45191 11.754135)
(-781.0546 -99.067491 11.673742)
(-863.20794 -97.062382 11.317624)
(-951.59318 -94.256256 10.667476)
(-1046.9238 -90.397933 9.8476443)
(-1149.9532 -85.196906 8.8311292)
(-1261.2713 -78.179267 7.7192064)
(-1381.5748 -69.024946 6.4873623)
(-1510.9873 -57.202947 5.1704527)
(-1650.1556 -42.3765 3.6664839)
(-1798.7211 -23.834605 2.2254057)
(-1956.661 -1.5437718 0.39790462)
(-2123.6062 24.947671 -1.6307377)
(-2298.9084 55.980501 -3.9421131)
(-2481.6653 91.535438 -6.6687892)
(-2671.1031 131.77604 -9.8518279)
(-2866.0106 176.62213 -13.517702)
(-3065.3009 225.80782 -17.683464)
(-3267.7937 279.24271 -22.414385)
(-3472.3388 336.4114 -27.580332)
(-3677.843 396.85662 -33.197135)
(-3883.4294 460.25198 -39.138947)
(-4088.1963 525.9106 -45.522331)
(-4291.7364 593.42707 -51.861464)
(-4493.3715 662.15974 -58.551483)
(-4693.273 731.53348 -64.943313)
(-4890.6306 801.42216 -71.745279)
(-5086.8731 871.23116 -78.030986)
(-5280.2466 940.57626 -84.720276)
(-5473.6519 1010.3481 -91.025735)
(-5665.1575 1078.5899 -97.353358)
(-5856.4085 1146.9114 -103.66348)
(2.9461184 -8.6394864 -13.01875)
(-8.9257772 -15.523539 -9.3879356)
(-28.746568 -24.866602 -10.461425)
(-55.088293 -31.875342 -6.9367572)
(-87.855965 -37.815134 -4.9200561)
(-125.08875 -42.89957 -1.1559723)
(-166.8288 -46.133163 1.5249977)
(-212.77242 -48.422856 5.5233489)
(-261.38162 -48.907985 8.1082266)
(-313.10798 -48.822752 11.347251)
(-367.47726 -46.990422 14.006672)
(-424.45269 -44.814631 16.406489)
(-484.11293 -41.36071 18.447173)
(-546.81694 -37.196246 20.142386)
(-612.93622 -32.297003 21.489434)
(-682.74914 -26.768412 22.545019)
(-757.21508 -20.286693 23.318929)
(-836.84421 -12.887173 23.770661)
(-922.55924 -4.237408 24.02287)
(-1015.1097 5.8648024 24.006809)
(-1115.2011 17.787493 23.795563)
(-1223.6673 31.771637 23.370261)
(-1340.7571 48.167202 22.69178)
(-1467.4011 67.355759 21.672007)
(-1603.4307 89.82586 20.52403)
(-1749.0852 115.47532 18.705806)
(-1904.2051 145.15475 16.576376)
(-2068.5184 178.68882 14.114547)
(-2241.3487 216.24469 10.934421)
(-2422.0007 258.016 7.3056699)
(-2609.5628 303.85363 3.0754464)
(-2802.8983 353.61201 -1.7351609)
(-3000.9088 407.16186 -7.1177766)
(-3202.4239 464.1428 -13.005192)
(-3406.2035 524.1271 -19.303027)
(-3611.231 586.92039 -26.041323)
(-3816.5425 651.87635 -32.889317)
(-4021.0273 718.53318 -40.005218)
(-4224.5587 786.65988 -47.012674)
(-4425.9928 855.44746 -53.991728)
(-4626.0949 924.92339 -60.776777)
(-4823.3323 994.40125 -67.453798)
(-5019.719 1064.1871 -73.859105)
(-5213.1195 1132.9644 -80.04265)
(-5406.6577 1202.528 -86.213582)
(-5597.6684 1270.2898 -92.125287)
(-5788.8808 1338.7417 -98.437624)
(8.3574554 -2.4686775 -4.7432318)
(-3.7798107 -5.6103609 -1.8560579)
(-22.71742 -8.7064596 -0.43402893)
(-49.173752 -11.031811 2.2511309)
(-81.214953 -11.938497 4.7871493)
(-118.61291 -12.253481 7.6922593)
(-160.25087 -10.654357 11.281537)
(-205.11542 -8.4007272 13.858187)
(-253.096 -4.6664876 16.98643)
(-304.07062 0.051237855 20.02026)
(-357.07074 5.5788197 22.575667)
(-412.58961 12.229071 25.196911)
(-470.69249 19.679289 27.521795)
(-531.45964 28.108109 29.633281)
(-595.42734 37.354256 31.380582)
(-663.28028 47.682044 33.241587)
(-735.46231 59.232636 34.632003)
(-812.7887 72.023761 36.020488)
(-896.03879 86.468 37.021889)
(-985.84783 102.594 37.825735)
(-1083.1157 120.74935 38.260702)
(-1188.4036 141.20349 38.405899)
(-1302.819 164.34476 38.08669)
(-1426.1966 190.63094 37.515658)
(-1559.1957 219.87867 36.161912)
(-1701.9944 252.81769 34.524709)
(-1854.5486 289.40448 32.378888)
(-2016.3883 329.61157 29.422553)
(-2186.9668 373.63235 25.824595)
(-2365.5452 421.43734 21.547642)
(-2551.2557 472.72108 16.508679)
(-2742.9942 527.54756 10.804309)
(-2939.6654 585.46212 4.4755158)
(-3140.039 646.20001 -2.3653019)
(-3342.9208 709.49553 -9.6764866)
(-3547.2873 774.8023 -17.224769)
(-3751.9064 841.74605 -24.927742)
(-3956.292 910.01631 -32.733869)
(-4159.3867 979.11085 -40.258531)
(-4360.8454 1048.6366 -47.84324)
(-4560.4426 1118.3927 -54.847457)
(-4757.6591 1188.0979 -62.002132)
(-4953.6316 1257.4131 -68.220632)
(-5146.7108 1326.4369 -74.992522)
(-5339.6754 1395.2687 -80.826743)
(-5530.2914 1463.3423 -87.16206)
(-5721.6119 1531.6562 -92.873734)
(9.3946385 3.9265563 5.0093988)
(-3.1011182 5.060229 10.107888)
(-21.379275 7.1991521 11.41154)
(-47.243576 9.7684579 14.057301)
(-79.168247 14.69083 15.575984)
(-115.66859 18.78643 18.712336)
(-155.87295 25.86746 20.125468)
(-199.69786 32.242128 23.14776)
(-246.51359 40.761333 25.576545)
(-295.74429 49.367116 28.037221)
(-347.30685 59.618401 30.782049)
(-401.61879 70.404249 33.574049)
(-458.05432 82.276629 36.356563)
(-517.29884 95.416328 38.859535)
(-579.65804 109.32468 41.71539)
(-645.70339 124.79349 44.112275)
(-715.80742 141.4129 46.575259)
(-791.0392 159.86303 48.716509)
(-871.76719 180.0159 50.678176)
(-959.25279 202.36733 52.335384)
(-1054.0283 226.96413 53.787032)
(-1157.3075 254.34697 54.714013)
(-1268.6959 284.65667 55.250573)
(-1389.6095 317.66643 55.03716)
(-1520.1627 354.04108 54.416059)
(-1660.429 393.68179 52.911788)
(-1810.2027 436.76152 50.309613)
(-1969.2905 483.36982 46.873345)
(-2137.2766 533.45021 42.552434)
(-2313.3954 586.81845 37.227762)
(-2496.824 643.36016 31.084081)
(-2686.4772 702.86672 24.076392)
(-2881.2389 764.88335 16.440433)
(-3079.9509 829.27039 8.1731049)
(-3281.3993 895.46894 -0.43467739)
(-3484.4103 963.23703 -9.3118393)
(-3688.1342 1032.0828 -18.173209)
(-3891.3812 1101.7053 -26.974961)
(-4093.564 1171.7336 -35.475391)
(-4294.314 1241.8263 -43.490021)
(-4493.5203 1311.8479 -51.001995)
(-4690.424 1381.3645 -58.033186)
(-4886.1111 1450.7814 -64.552985)
(-5079.1234 1519.374 -70.750898)
(-5272.358 1588.1267 -76.409242)
(-5463.2522 1656.0312 -82.025561)
(-5654.7554 1724.2283 -87.473393)
(10.304714 10.265891 14.268872)
(-3.0783825 14.77815 18.835899)
(-20.091994 22.126192 20.928091)
(-46.449459 30.710658 23.408495)
(-77.258997 39.929201 25.332821)
(-113.46098 49.99772 27.199137)
(-152.78027 61.376151 29.307548)
(-196.2293 72.680254 32.02989)
(-241.68638 85.777474 34.237484)
(-290.12133 99.036675 37.175667)
(-340.58412 113.6959 40.209609)
(-393.2778 128.54683 43.183105)
(-448.16896 145.3506 46.097193)
(-505.78634 162.58765 49.34082)
(-566.24005 181.7062 52.406602)
(-630.16298 201.96874 55.491038)
(-698.27762 224.13381 58.653213)
(-771.10972 248.02282 61.584936)
(-849.67676 274.07044 64.42077)
(-934.5959 302.45023 66.882004)
(-1026.9145 333.15836 69.053573)
(-1126.6276 366.92225 70.329706)
(-1235.4745 403.31761 71.155635)
(-1353.3297 443.18665 71.283845)
(-1480.9009 486.23134 70.397162)
(-1618.0608 532.56636 68.461341)
(-1765.1057 582.33015 65.60638)
(-1921.6333 635.28421 61.807382)
(-2087.1632 691.30318 56.829067)
(-2261.0108 750.24913 50.8444)
(-2442.3563 811.91543 43.80515)
(-2630.1256 876.01225 35.894404)
(-2823.2284 942.1626 27.236664)
(-3020.4898 1010.0586 18.007852)
(-3220.6144 1079.3023 8.4076403)
(-3422.6569 1149.5379 -1.3149296)
(-3625.3764 1220.3536 -10.955744)
(-3827.9664 1291.5751 -20.41254)
(-4029.5985 1362.7515 -29.153324)
(-4230.1844 1433.6062 -37.632568)
(-4428.6918 1504.0479 -45.291183)
(-4625.4925 1574.1344 -52.680907)
(-4820.4229 1643.4388 -59.027331)
(-5013.598 1712.3927 -65.418254)
(-5206.0912 1780.8719 -70.860642)
(-5396.5586 1848.9663 -76.805862)
(-5587.7476 1916.9133 -81.986189)
(8.3208635 17.608884 25.333606)
(-6.7774624 26.741754 28.892953)
(-24.029175 40.39485 33.244309)
(-49.701744 53.990704 35.143099)
(-79.99916 68.543125 36.434583)
(-114.77668 83.468042 37.849094)
(-153.43245 99.462558 39.435197)
(-195.37183 115.34367 41.298793)
(-239.83163 132.6903 43.37866)
(-287.02296 149.90694 45.958835)
(-336.16577 168.64896 48.796619)
(-387.55769 187.9561 51.934857)
(-441.15677 208.78884 55.525697)
(-497.21667 230.73488 59.127984)
(-556.091 254.29265 63.071094)
(-618.41385 279.57205 67.019755)
(-684.63329 306.8978 71.170045)
(-755.65312 336.32737 75.067783)
(-832.00698 368.39658 78.949142)
(-914.77537 402.90868 82.334299)
(-1004.277 440.62167 85.489968)
(-1102.4614 480.52602 87.453718)
(-1208.1898 524.43236 89.434903)
(-1323.3671 572.04526 89.83485)
(-1447.8181 622.33115 89.419173)
(-1582.0299 676.04235 87.827382)
(-1726.1179 732.7157 84.85676)
(-1879.4595 792.33832 80.488233)
(-2041.9379 854.63884 74.860996)
(-2212.8826 919.57598 67.824756)
(-2391.3949 986.65116 59.636072)
(-2576.5633 1055.5583 50.337377)
(-2767.2638 1125.8993 40.243529)
(-2962.321 1197.3425 29.488287)
(-3160.6277 1269.3848 18.451465)
(-3360.9612 1341.822 7.2988976)
(-3562.3148 1414.2351 -3.6522712)
(-3763.7317 1486.3768 -14.12893)
(-3964.6131 1558.0753 -24.166053)
(-4164.0865 1629.1273 -33.070611)
(-4362.2217 1699.3017 -41.352398)
(-4558.4422 1768.9239 -48.728819)
(-4753.0677 1837.7469 -55.328584)
(-4946.1523 1906.0879 -61.323367)
(-5138.1761 1973.866 -66.760063)
(-5329.2075 2041.4264 -71.987882)
(-5520.4842 2109.2036 -76.751973)
(3.5804905 27.086719 32.572668)
(-11.995635 38.374836 38.364744)
(-29.101255 58.932539 43.588525)
(-54.466054 77.21524 44.987828)
(-83.265887 96.474668 46.291477)
(-117.84231 116.88133 47.099282)
(-155.05932 137.2323 48.543123)
(-195.98812 157.91728 49.98181)
(-239.25175 179.46008 52.162046)
(-285.01797 200.67717 54.601941)
(-333.05095 224.06027 57.51161)
(-382.85692 246.84908 61.2239)
(-435.26858 272.38696 64.707348)
(-489.60141 298.22804 69.164029)
(-547.15894 326.61024 73.539246)
(-607.59363 356.61204 78.399118)
(-672.16855 389.19681 83.182737)
(-741.03677 424.25245 88.094558)
(-815.37184 462.22084 92.732114)
(-895.61247 503.15119 97.156637)
(-983.0141 547.31032 100.90936)
(-1077.5517 594.7363 103.98093)
(-1181.2599 645.61523 106.13395)
(-1293.2295 700.18535 107.01983)
(-1414.7941 757.62163 106.91725)
(-1545.9227 818.43104 105.13482)
(-1686.5836 882.08663 101.80072)
(-1837.044 948.30951 97.050339)
(-1996.6454 1016.9959 90.703034)
(-2164.7886 1087.7644 82.791354)
(-2340.6673 1160.0968 73.552194)
(-2523.398 1233.6981 63.125502)
(-2711.8461 1308.056 51.80478)
(-2904.9464 1382.869 39.836518)
(-3101.4425 1457.6642 27.582305)
(-3300.2849 1532.197 15.315544)
(-3500.2943 1606.1964 3.3607308)
(-3700.7313 1679.4315 -7.9819404)
(-3900.4716 1751.6328 -18.393503)
(-4099.3709 1822.9485 -28.001261)
(-4296.7671 1893.1684 -36.535363)
(-4492.4876 1962.5843 -44.121424)
(-4686.6485 2031.0205 -50.629473)
(-4879.3436 2098.9706 -56.580152)
(-5071.0087 2166.1759 -61.673291)
(-5262.0001 2233.5871 -66.790783)
(-5452.918 2301.0716 -71.528822)
(0 0 0)
(0 0 0)
(0 0 0)
(0 0 0)
(0 0 0)
(0 0 0)
(0 0 0)
(0 0 0)
(0 0 0)
(0 0 0)
(0 0 0)
(0 0 0)
(0 0 0)
(0 0 0)
(0 0 0)
(0 0 0)
(0 0 0)
(0 0 0)
(0 0 0)
(0 0 0)
(0 0 0)
(0 0 0)
(0 0 0)
(0 0 0)
(0 0 0)
(0 0 0)
(0 0 0)
(0 0 0)
(0 0 0)
(0 0 0)
(0 0 0)
(0 0 0)
(0 0 0)
(0 0 0)
(0 0 0)
(0 0 0)
(0 0 0)
(0 0 0)
(0 0 0)
(0 0 0)
(0 0 0)
(0 0 0)
(0 0 0)
(0 0 0)
(0 0 0)
(0 0 0)
(0 0 0)
(0 0 0)
(0 0 0)
(-18.986984 11.658582 24.11532)
(-21.736466 14.585924 16.268505)
(-25.04661 15.152427 8.6773454)
(-26.083335 15.728702 2.3033266)
(-25.102467 14.470794 -3.8820496)
(-23.354684 14.930073 -10.470626)
(-19.544988 9.9116914 -18.053379)
(-34.785545 55.342695 40.33604)
(-41.178562 60.768842 23.212359)
(-43.874917 55.699586 12.3063)
(-44.037656 53.547154 3.0500749)
(-44.164292 56.113711 -5.6079704)
(-39.581133 54.527627 -15.91165)
(-35.536147 53.812199 -29.795996)
(-48.678642 77.176751 42.131918)
(-56.824523 72.731719 31.312561)
(-61.893429 74.63673 17.161091)
(-62.406323 73.547657 5.9715626)
(-61.689216 71.54358 -6.4410581)
(-57.293175 71.095594 -15.697391)
(-51.233649 73.395762 -31.514103)
(-72.949304 106.94717 44.11144)
(-80.02113 108.03919 33.564856)
(-83.95462 105.53056 19.556053)
(-85.848359 104.67807 9.0599057)
(-84.672566 103.80836 -2.6323308)
(-81.146171 103.90795 -15.51148)
(-73.820398 100.7167 -26.054352)
(-100.28619 133.20318 46.231058)
(-107.3663 130.94067 35.675345)
(-112.77166 130.73611 23.259452)
(-114.02442 128.64706 11.621864)
(-113.66358 128.29348 -0.25950752)
(-110.0512 126.29612 -10.74533)
(-104.42424 125.76558 -23.269162)
(-132.19322 157.84644 46.417232)
(-138.47529 156.6674 37.056564)
(-142.76379 154.77309 25.184465)
(-144.73068 154.24692 15.576867)
(-143.97041 152.16178 3.7599342)
(-141.29809 150.42701 -6.8944451)
(-135.53634 147.86 -16.82156)
(-167.87244 181.67514 48.505722)
(-174.298 181.00032 38.709432)
(-178.94856 181.07346 28.298674)
(-180.83362 179.2892 18.232442)
(-180.76717 178.5833 7.46388)
(-178.39564 176.92069 -1.8784433)
(-173.83273 174.12435 -12.136183)
(-206.68625 206.21646 49.679178)
(-212.68783 205.57804 41.346753)
(-217.12363 203.77589 31.000051)
(-219.00645 202.66027 21.892817)
(-219.08523 200.58992 12.059947)
(-217.0244 197.66685 2.3836348)
(-212.70443 194.62167 -6.4793875)
(-248.70673 230.15583 52.294925)
(-254.7583 229.16397 43.240836)
(-259.04355 229.08115 33.952449)
(-261.14323 227.82012 25.179095)
(-261.50234 227.03146 15.722761)
(-260.09386 224.3181 6.6255299)
(-256.36843 221.7511 -2.4549076)
(-292.89833 254.1523 54.624389)
(-298.87717 253.97085 46.64888)
(-303.39516 252.56491 37.630126)
(-305.84643 251.94559 28.222683)
(-306.00328 249.13939 19.469231)
(-304.70557 246.37187 10.531132)
(-301.25642 243.21099 2.1879107)
(-340.01373 279.61209 57.869693)
(-346.08582 278.98273 49.603004)
(-350.60831 278.52144 40.136507)
(-352.76968 276.705 31.854637)
(-353.38623 275.57344 22.662446)
(-352.24574 273.37481 14.06018)
(-349.0395 270.53318 4.90942)
(-389.0495 305.01567 61.763788)
(-395.56197 304.97807 52.891908)
(-399.82373 304.11111 44.373561)
(-402.6684 303.71611 35.062702)
(-403.26187 301.89998 25.981312)
(-401.89228 298.43465 17.255936)
(-399.32991 296.06817 8.3793312)
(-440.96481 333.33853 65.436337)
(-447.19748 332.70906 56.713118)
(-452.12448 332.66281 47.448368)
(-454.83323 331.24224 38.242605)
(-455.46479 329.19068 28.746273)
(-454.27631 327.75727 19.793738)
(-451.33699 324.08526 10.309675)
(-494.94417 362.0691 70.301875)
(-501.77411 362.36221 60.741155)
(-506.99229 362.2517 51.466696)
(-509.63184 361.29348 41.478503)
(-510.55889 360.47971 31.61291)
(-509.18573 357.55346 22.284311)
(-506.40412 354.86828 12.097542)
(-552.05305 394.55542 74.966526)
(-559.36552 394.79164 64.882195)
(-564.63991 394.54422 55.088354)
(-567.71602 394.23916 44.334883)
(-568.51354 392.25879 34.252714)
(-567.13427 390.40863 23.85283)
(-563.87208 387.18375 13.212275)
(-612.45863 428.69613 80.122121)
(-620.04091 429.22291 69.372654)
(-625.88683 429.97171 58.814826)
(-628.84016 429.41127 47.70616)
(-629.78426 428.40825 36.37037)
(-628.03161 426.46982 25.733428)
(-624.60523 423.3925 13.961062)
(-676.38739 466.44799 85.372826)
(-684.71732 467.83245 73.742384)
(-690.74923 468.36434 62.723827)
(-694.01851 468.32399 50.352857)
(-694.90866 467.31823 38.696167)
(-693.05892 465.48211 26.978872)
(-689.18685 462.49874 14.283933)
(-744.98315 507.60338 90.584498)
(-753.58197 509.16931 78.419323)
(-760.2208 510.47675 66.220674)
(-763.38521 510.80219 53.372169)
(-764.35437 510.01966 40.678657)
(-762.06737 508.48408 28.162515)
(-757.86611 505.43284 14.499679)
(-818.32631 552.40292 95.806529)
(-827.61385 554.71999 82.59175)
(-834.48292 556.41557 69.843674)
(-837.84287 557.00146 56.026621)
(-838.79973 556.65858 42.514055)
(-836.287 555.27153 29.201118)
(-831.68448 552.50603 14.513668)
(-897.54415 601.14337 100.52027)
(-907.20025 604.08128 86.701833)
(-914.47506 606.35159 73.124685)
(-917.84948 607.57245 58.520834)
(-918.85094 607.48865 44.272472)
(-915.94915 606.46114 30.119994)
(-911.06662 603.66176 14.514016)
(-983.14019 654.01324 104.85509)
(-993.23812 657.65727 90.298381)
(-1000.7382 660.60203 76.035156)
(-1004.3084 662.13541 60.799166)
(-1005.1967 662.60672 45.772222)
(-1002.1644 661.74525 30.970619)
(-996.887 659.21771 14.466692)
(-1075.9156 710.87634 108.35012)
(-1086.2426 715.35143 93.251992)
(-1094.0917 718.85117 78.459863)
(-1097.5658 721.01654 62.71609)
(-1098.5659 721.86022 47.075169)
(-1095.1777 721.38522 31.709128)
(-1089.6887 719.15275 14.471539)
(-1176.427 771.91014 110.79114)
(-1187.0815 777.04166 95.394804)
(-1194.9243 781.21204 80.300689)
(-1198.5641 783.93743 64.186188)
(-1199.3537 785.54116 48.070185)
(-1195.9315 785.44787 32.432474)
(-1190.2386 783.47523 14.580682)
(-1285.4483 836.42685 112.08785)
(-1296.032 842.70293 96.681805)
(-1303.9526 847.40102 81.357541)
(-1307.4625 850.98448 65.108939)
(-1308.4767 852.82265 48.884138)
(-1304.8939 853.01322 32.913802)
(-1299.0799 851.54247 14.744228)
(-1403.0079 904.78988 112.38049)
(-1413.844 911.80412 96.682321)
(-1421.3972 916.87193 81.689562)
(-1425.3485 921.29657 65.318732)
(-1425.756 923.68568 49.176915)
(-1422.2604 924.96571 33.239976)
(-1416.2619 924.14511 15.249279)
(-1529.7704 976.19457 110.8546)
(-1540.4609 983.7517 95.635569)
(-1547.6682 989.88216 80.947218)
(-1551.3646 994.71051 64.197119)
(-1551.6138 997.68154 49.503444)
(-1548.8009 999.56715 33.46927)
(-1543.0892 999.20067 16.293228)
(-1665.6882 1050.1874 107.82758)
(-1675.9732 1058.4567 93.638034)
(-1682.8627 1065.5094 78.64302)
(-1687.0065 1070.9379 63.764793)
(-1687.0851 1074.8795 48.350873)
(-1684.3673 1077.0697 32.691374)
(-1678.2095 1077.5597 16.382745)
(-1811.2249 1126.5297 103.21745)
(-1820.3564 1135.5921 89.599066)
(-1827.5907 1143.2792 75.403403)
(-1830.6966 1149.1397 61.532361)
(-1831.4033 1153.6958 46.314813)
(-1828.4522 1156.3628 32.205597)
(-1822.6795 1158.0154 16.116084)
(-1965.3629 1204.3326 97.083084)
(-1974.0737 1214.2096 83.98105)
(-1980.2438 1222.3527 71.462403)
(-1983.6178 1228.7925 57.759025)
(-1983.7606 1234.1409 44.218194)
(-1981.2244 1237.5204 30.748339)
(-1975.7774 1240.045 15.739945)
(-2128.17 1283.3704 88.984622)
(-2135.7368 1293.6337 77.369579)
(-2141.6116 1302.4159 65.645292)
(-2144.431 1309.3956 53.415903)
(-2144.6382 1315.4339 40.970447)
(-2142.4329 1319.3602 28.698887)
(-2137.3152 1322.8642 14.965561)
(-2298.619 1362.7701 79.762699)
(-2305.3564 1373.6066 69.239301)
(-2310.4267 1382.709 59.017943)
(-2312.9628 1390.202 47.944083)
(-2313.1279 1396.7399 36.999199)
(-2311.1481 1401.3459 25.970916)
(-2306.5407 1405.7502 13.821317)
(-2476.172 1442.2664 69.086021)
(-2481.8546 1453.2224 60.088499)
(-2486.2386 1462.709 51.146296)
(-2488.4223 1470.5632 41.631756)
(-2488.5184 1477.6379 32.137534)
(-2486.8701 1482.8827 22.586928)
(-2482.8202 1488.102 12.062346)
(-2659.7807 1521.0449 57.557008)
(-2664.4595 1532.1751 49.960252)
(-2668.0699 1541.8816 42.53324)
(-2669.87 1550.0698 34.507985)
(-2669.9322 1557.5948 26.575277)
(-2668.6159 1563.3846 18.514163)
(-2665.1522 1569.3919 9.7022994)
(-2848.4583 1598.9493 45.2832)
(-2852.1108 1610.0276 39.186619)
(-2855.0043 1619.8396 33.187433)
(-2856.4614 1628.2655 26.695733)
(-2856.5333 1636.0941 20.324199)
(-2855.5213 1642.4608 13.807433)
(-2852.6509 1649.1132 6.6975444)
(-3041.1327 1675.4524 32.746637)
(-3043.8596 1686.3634 28.037331)
(-3046.0341 1696.2094 23.494226)
(-3047.1439 1704.8202 18.463807)
(-3047.1887 1712.8845 13.672775)
(-3046.4366 1719.7701 8.5163882)
(-3044.2498 1726.8679 3.167511)
(-3236.7094 1750.4776 20.174642)
(-3238.5863 1761.0689 16.732237)
(-3240.1438 1770.8528 13.528262)
(-3240.9538 1779.5067 9.887835)
(-3241.0384 1787.7602 6.4202399)
(-3240.6543 1795.1719 2.7291058)
(-3239.2108 1802.5173 -0.9453196)
(-3434.2265 1823.7201 7.9907724)
(-3435.3322 1833.9854 5.89298)
(-3436.406 1843.6426 3.7882434)
(-3436.8436 1852.3848 1.5391716)
(-3437.2226 1860.7602 -0.85001799)
(-3436.7416 1868.1468 -2.9057155)
(-3435.87 1876.3845 -5.237654)
(-3632.5295 1895.2231 -3.5936471)
(-3633.1908 1905.0754 -4.3761927)
(-3633.6961 1914.5978 -5.6310572)
(-3634.2568 1923.2326 -6.7179579)
(-3634.1843 1931.7791 -7.8696994)
(-3634.8421 1939.378 -9.4338419)
(-3634.1082 1947.3928 -10.960031)
(-3831.3315 1965.1679 -14.204472)
(-3831.4898 1974.6372 -14.621362)
(-3831.742 1983.9395 -14.912082)
(-3831.9533 1992.4729 -15.197587)
(-3832.285 2000.9287 -15.595974)
(-3832.5265 2008.809 -15.807425)
(-3832.336 2017.0731 -15.990994)
(-4029.3951 2033.8126 -23.8388)
(-4029.3587 2042.7709 -23.513609)
(-4029.3806 2051.8069 -23.058412)
(-4029.6693 2060.2448 -22.808128)
(-4029.9461 2068.6901 -22.235387)
(-4030.5259 2076.6531 -21.975406)
(-4031.0779 2084.8259 -21.631919)
(-4226.5466 2101.075 -32.403716)
(-4226.4025 2109.7144 -31.503757)
(-4226.4035 2118.5472 -30.787257)
(-4226.6209 2126.8518 -29.875473)
(-4227.1124 2135.2484 -29.022691)
(-4227.9352 2143.2462 -28.235409)
(-4228.6428 2151.3777 -27.260898)
(-4422.5494 2167.6319 -39.770378)
(-4422.4237 2175.8475 -38.570048)
(-4422.4987 2184.3977 -37.665572)
(-4422.7972 2192.6843 -36.468014)
(-4423.47 2200.9514 -35.346014)
(-4424.3319 2209.0084 -34.192663)
(-4425.452 2217.0535 -32.999569)
(-4617.1359 2233.5756 -46.094695)
(-4617.171 2241.5699 -44.859975)
(-4617.3347 2250.0034 -43.914167)
(-4617.7515 2258.1411 -42.488949)
(-4618.575 2266.3045 -41.334342)
(-4619.6261 2274.3658 -40.037811)
(-4620.9819 2282.3243 -38.770943)
(-4810.4858 2299.3624 -51.590455)
(-4810.7777 2307.1333 -50.518739)
(-4811.1346 2315.3105 -49.533765)
(-4811.757 2323.3894 -48.184264)
(-4812.719 2331.5257 -47.097481)
(-4813.8831 2339.6022 -45.774206)
(-4815.3986 2347.4912 -44.55681)
(-5002.7368 2365.2533 -56.549742)
(-5003.2825 2372.9291 -55.635914)
(-5003.8443 2381.0078 -54.755547)
(-5004.6296 2389.0477 -53.587454)
(-5005.7722 2397.1155 -52.599317)
(-5007.0422 2405.1239 -51.401399)