/*--------------------------------*- C++ -*----------------------------------*\
  =========                 |
  \\      /  F ield         | OpenFOAM: The Open Source CFD Toolbox
   \\    /   O peration     | Website:  https://openfoam.org
    \\  /    A nd           | Version:  6
     \\/     M anipulation  |
\*---------------------------------------------------------------------------*/
FoamFile
{
    version     2.0;
    format      ascii;
    class       pointVectorField;
    location    "1.4";
    object      lm;
}
// * * * * * * * * * * * * * * * * * * * * * * * * * * * * * * * * * * * * * //

dimensions      [1 -2 -1 0 0 0 0];

internalField   nonuniform List<vector> 
3969
(
(0 0 0)
(0 0 0)
(-4714.5324 380.19387 -43.672842)
(-4520.6664 1134.3275 30.384344)
(0 0 0)
(0 0 0)
(-4601.2144 1105.6546 30.547513)
(-4795.2381 350.90994 -43.271268)
(0 0 0)
(0 0 0)
(0 0 0)
(0 0 0)
(0 0 0)
(0 0 0)
(0 0 0)
(-4689.7662 473.79946 -34.753406)
(-4666.0795 568.1296 -25.468736)
(-4642.3176 662.69139 -15.96249)
(-4618.4791 757.53193 -6.3952041)
(-4594.4735 852.43286 3.1754869)
(-4570.0867 946.8645 12.57002)
(-4545.4871 1040.8535 21.592815)
(-52.007549 -80.483509 -78.129023)
(-92.950422 -132.68682 -90.52608)
(-152.23098 -181.23079 -93.65244)
(-225.86462 -224.8944 -90.244148)
(-310.35373 -261.67638 -83.212318)
(-405.05094 -292.21872 -74.332894)
(-506.54078 -315.66411 -64.93344)
(-614.34918 -332.89669 -54.318389)
(-725.37129 -343.86155 -44.323129)
(-839.17081 -349.87083 -33.620875)
(-953.92501 -351.40568 -24.06335)
(-1068.8919 -349.42659 -14.833084)
(-1183.0724 -344.46592 -6.7937097)
(-1296.0336 -337.70811 -0.038458652)
(-1407.5472 -329.12518 5.0801399)
(-1517.0188 -319.72749 8.4818198)
(-1624.9952 -309.54428 10.070376)
(-1731.1568 -298.96218 9.7259803)
(-1835.9582 -287.92968 7.4934501)
(-1939.5256 -276.63366 3.5586862)
(-2042.2244 -264.81459 -2.0280955)
(-2144.3318 -252.52104 -8.9088983)
(-2246.1349 -239.35919 -16.884231)
(-2347.9038 -225.41699 -25.58214)
(-2449.7464 -210.11416 -34.740597)
(-2551.8525 -193.72396 -44.032693)
(-2654.2201 -175.74093 -53.167186)
(-2756.8366 -156.23051 -61.885577)
(-2859.6494 -135.13653 -69.920013)
(-2962.4805 -112.4426 -77.133041)
(-3065.2634 -88.2155 -83.311638)
(-3167.7709 -62.556641 -88.373297)
(-3269.8317 -35.680371 -92.193323)
(-3371.3118 -7.6786906 -94.859818)
(-3472.0851 21.076271 -96.136255)
(-3571.8299 50.487635 -96.421793)
(-3670.9269 80.152828 -95.398551)
(-3768.7553 109.96376 -93.424309)
(-3865.9206 139.61522 -90.524051)
(-3961.8565 168.77829 -86.902289)
(-4057.2377 197.69228 -82.58842)
(-4151.793 225.64432 -77.783614)
(-4245.7234 253.02749 -72.562347)
(-4339.7969 279.877 -67.039006)
(-4432.9161 305.25897 -61.33107)
(-4527.0406 331.03043 -55.439083)
(-4620.8968 355.37549 -49.410748)
(-12.693215 71.666853 92.043136)
(-64.233494 113.28085 82.948272)
(-120.59939 162.83025 85.987618)
(-189.05725 202.91849 71.730142)
(-270.52508 245.21344 61.969494)
(-358.60316 283.08122 48.877044)
(-453.46732 317.23542 39.128381)
(-552.46664 347.93723 29.828121)
(-654.84305 374.7273 23.025187)
(-759.39996 398.64216 17.881473)
(-864.34117 418.72486 14.394466)
(-970.01145 436.75098 12.745522)
(-1075.1481 451.69086 11.802771)
(-1179.7815 465.04988 11.913567)
(-1283.4915 476.91894 12.35725)
(-1386.2801 487.63932 12.895469)
(-1488.241 498.13888 13.185259)
(-1589.0698 508.12557 12.950772)
(-1689.6293 519.02087 11.944387)
(-1789.3434 530.13322 10.10834)
(-1889.0889 542.60827 7.2662908)
(-1988.5879 556.04357 3.5573416)
(-2088.3188 570.93343 -1.038959)
(-2188.2812 587.24427 -6.398354)
(-2288.6112 604.81897 -12.200835)
(-2389.3357 623.82226 -18.504722)
(-2490.3917 643.95823 -24.737333)
(-2591.8072 665.23489 -30.900335)
(-2693.4114 687.34505 -36.611409)
(-2795.0626 710.13762 -41.758046)
(-2896.6287 733.57718 -46.040141)
(-2997.8654 757.2641 -49.32564)
(-3098.6238 781.21243 -51.452882)
(-3198.6917 805.19728 -52.298222)
(-3298.0059 829.13279 -51.854675)
(-3396.2958 852.94423 -50.067662)
(-3493.6186 876.55162 -46.928748)
(-3589.916 899.98541 -42.655854)
(-3685.1738 923.18412 -37.240165)
(-3779.4278 946.25484 -30.869944)
(-3872.9286 969.2815 -23.770001)
(-3965.6831 992.19151 -16.050306)
(-4058.0618 1015.2746 -8.0117646)
(-4150.1199 1038.393 0.20148042)
(-4242.2307 1061.7927 8.2728868)
(-4334.5886 1085.4068 16.149106)
(-4427.3079 1109.5362 23.441377)
(0 0 0)
(0 0 0)
(0 0 0)
(0 0 0)
(0 0 0)
(0 0 0)
(0 0 0)
(-38.045706 51.196426 -76.447061)
(-70.693747 142.76257 -94.267199)
(-119.59653 153.42181 -88.280745)
(-191.30016 213.32351 -84.626728)
(-269.82896 245.31564 -76.134518)
(-356.58494 281.29646 -63.668447)
(-452.33245 313.20666 -54.295887)
(-549.77401 339.08937 -41.940519)
(-653.91789 365.2696 -32.358188)
(-757.36536 384.33412 -20.945066)
(-864.72334 406.92548 -12.662609)
(-972.33667 421.86433 -2.2009243)
(-1078.7651 440.49165 4.5147502)
(-1184.9172 455.89584 11.366261)
(-1289.7048 471.8307 16.034599)
(-1393.2307 488.01459 19.380939)
(-1495.7012 503.85942 21.008)
(-1596.7232 520.60863 21.074712)
(-1697.0744 537.69975 19.499083)
(-1796.5342 555.33469 16.629801)
(-1895.8002 573.64333 12.419852)
(-1994.8804 592.32761 7.2861766)
(-2094.332 611.54024 1.3899162)
(-2194.1595 630.8633 -4.9387793)
(-2294.8281 650.69615 -11.430816)
(-2396.3204 670.27301 -17.686325)
(-2498.4371 690.24526 -24.020305)
(-2601.6074 709.50768 -29.350681)
(-2705.4383 728.85668 -34.222403)
(-2809.8795 747.78969 -38.14212)
(-2914.6881 766.37098 -41.081728)
(-3019.6655 784.66228 -42.971161)
(-3124.5766 802.65785 -43.72555)
(-3229.1821 820.40544 -43.382939)
(-3333.1967 837.99779 -41.859044)
(-3436.5785 855.75906 -39.510221)
(-3539.0301 873.28584 -35.902782)
(-3640.2221 891.30213 -31.63066)
(-3740.4519 909.65966 -26.556281)
(-3839.4267 928.45487 -20.92635)
(-3937.2907 947.90329 -14.817727)
(-4034.0564 968.02188 -8.3470511)
(-4129.8934 988.95832 -1.7173014)
(-4224.9161 1010.6949 5.0373922)
(-4319.3981 1033.2636 11.729994)
(-4413.4845 1056.6672 18.31629)
(-4507.2891 1080.7137 24.584953)
(-4626.1659 1011.571 21.305903)
(-4650.5992 916.76912 12.064176)
(-4674.9048 822.18468 2.9649763)
(-4699.1382 727.40587 -6.0469566)
(-4722.9735 632.43592 -15.113053)
(-4746.9364 538.32983 -24.373939)
(-4770.5656 444.23617 -33.643597)
(-4701.6045 326.25391 -50.231321)
(-4608.0049 301.83234 -57.285102)
(-4514.2681 277.40573 -64.571862)
(-4420.4113 252.97834 -71.777142)
(-4326.2204 228.56624 -78.94031)
(-4231.2514 204.02072 -85.568764)
(-4135.3812 179.55612 -91.591682)
(-4038.3638 155.06141 -96.734671)
(-3940.0567 130.79823 -100.86674)
(-3840.1781 106.6369 -103.71067)
(-3739.024 82.844307 -105.04234)
(-3636.0973 58.969979 -105.13736)
(-3531.8083 36.404054 -103.52596)
(-3426.1637 13.773069 -100.40982)
(-3319.3271 -8.1897227 -95.733681)
(-3211.5171 -29.546673 -89.621657)
(-3102.997 -50.311342 -82.214767)
(-2994.0058 -70.535459 -73.671555)
(-2884.8524 -90.154717 -64.309337)
(-2775.8064 -109.37231 -54.268718)
(-2667.0958 -128.1546 -43.934526)
(-2558.9955 -146.63689 -33.627004)
(-2451.539 -165.00159 -23.573422)
(-2344.8695 -183.15912 -14.141257)
(-2239.0373 -201.32984 -5.5521662)
(-2133.8508 -219.50356 1.9613437)
(-2029.2667 -237.64315 8.2272196)
(-1924.9636 -255.71108 13.123786)
(-1820.7411 -273.50996 16.644896)
(-1716.1991 -290.91011 18.882333)
(-1611.004 -307.46589 19.901087)
(-1504.9906 -323.03964 20.079418)
(-1397.7148 -336.69834 19.445913)
(-1289.004 -348.35894 18.823821)
(-1179.1811 -357.56188 18.237134)
(-1067.8571 -363.04282 18.088397)
(-956.0264 -364.89725 19.177586)
(-843.6772 -361.87727 21.03717)
(-732.14732 -353.89717 25.237924)
(-622.71181 -339.70295 30.242459)
(-516.39567 -320.01382 37.520883)
(-413.26449 -292.68033 46.600351)
(-319.91974 -259.61389 55.93491)
(-232.13535 -220.39168 66.406847)
(-159.20533 -175.79471 72.522689)
(-96.457217 -122.4646 75.273506)
(-71.878087 -77.031603 57.052244)
(0 0 0)
(0 0 0)
(0 0 0)
(0 0 0)
(0 0 0)
(0 0 0)
(0 0 0)
(0 0 0)
(0 0 0)
(0 0 0)
(0 0 0)
(0 0 0)
(0 0 0)
(0 0 0)
(-4530.3734 1129.924 30.205393)
(-4540.2257 1125.9588 29.955949)
(-4550.2412 1122.4558 29.925288)
(-4560.3754 1119.2068 29.87963)
(-4570.4934 1115.9986 30.140659)
(-4580.8118 1112.7687 30.469522)
(-4590.9131 1109.1957 30.545262)
(-4724.6565 377.06318 -43.546833)
(-4734.6422 373.5104 -43.60452)
(-4744.5524 370.11387 -43.711714)
(-4754.4397 366.67055 -43.748555)
(-4764.4284 363.10996 -43.741801)
(-4774.5017 359.37635 -43.595226)
(-4784.8783 355.43004 -43.316336)
(-27.250403 -49.821388 -70.30183)
(-72.818984 -86.406503 -66.325467)
(-131.13079 -124.3103 -72.751952)
(-204.84994 -156.73055 -69.658257)
(-289.85655 -183.88998 -64.887069)
(-385.42289 -206.64293 -58.947451)
(-487.70632 -223.29985 -51.307213)
(-595.88809 -235.85812 -44.006079)
(-707.75415 -242.97127 -35.430805)
(-821.90417 -246.75663 -27.587491)
(-936.97451 -246.81413 -19.556663)
(-1051.9107 -244.26846 -11.950916)
(-1166.1899 -239.74682 -5.2927582)
(-1279.0841 -233.44325 0.4612549)
(-1390.3164 -225.90002 4.8396924)
(-1499.6443 -217.45598 7.7958166)
(-1607.3018 -208.37151 9.1159559)
(-1713.1626 -198.61548 8.8059561)
(-1817.6146 -188.39638 6.8434396)
(-1920.8582 -177.56397 3.2995295)
(-2023.2306 -166.05468 -1.7135581)
(-2125.0354 -153.72214 -7.9252211)
(-2226.6066 -140.43709 -15.18262)
(-2328.0497 -126.04509 -23.136359)
(-2429.7419 -110.37942 -31.639524)
(-2531.6177 -93.348998 -40.191877)
(-2633.8476 -74.855003 -48.772318)
(-2736.3581 -54.859533 -56.901938)
(-2839.019 -33.352592 -64.509352)
(-2941.7924 -10.437468 -71.30008)
(-3044.514 13.877555 -77.175827)
(-3146.9481 39.400548 -81.937151)
(-3248.9742 65.993838 -85.602087)
(-3350.3761 93.497482 -88.01541)
(-3451.0441 121.58372 -89.229399)
(-3550.7889 150.2199 -89.321086)
(-3649.6749 179.01541 -88.229835)
(-3747.3751 207.88937 -86.123235)
(-3844.2274 236.53195 -83.084953)
(-3939.954 264.91495 -79.266167)
(-4035.0485 292.85533 -74.803623)
(-4129.1727 320.21345 -69.692171)
(-4222.967 347.14581 -64.298733)
(-4316.4425 373.32783 -58.414991)
(-4409.3454 398.91672 -52.514588)
(-4503.1191 424.35285 -46.463548)
(-4596.0582 448.83164 -40.488813)
(-10.348146 -33.943188 -49.167355)
(-53.633812 -52.918841 -46.980425)
(-114.99943 -82.883863 -52.409508)
(-188.80787 -103.66898 -49.864043)
(-275.40888 -122.07347 -47.668016)
(-370.59293 -136.57626 -42.922839)
(-473.17045 -146.41131 -38.754797)
(-581.75827 -152.65731 -32.461206)
(-693.21564 -154.99723 -27.168271)
(-807.108 -155.00907 -20.691811)
(-921.81627 -151.82577 -14.551852)
(-1036.4476 -147.43559 -8.5783658)
(-1150.1906 -141.06385 -3.1930979)
(-1262.5542 -133.67726 1.4216359)
(-1373.2766 -125.5012 4.9675146)
(-1482.0785 -116.90384 7.3732638)
(-1589.1684 -107.69859 8.4256926)
(-1694.533 -98.113348 7.9862723)
(-1798.5463 -87.998705 6.1382222)
(-1901.4367 -77.291766 2.7943232)
(-2003.4651 -65.81246 -1.8144705)
(-2105.0774 -53.470938 -7.5886758)
(-2206.2538 -40.091145 -14.294467)
(-2307.6426 -25.569603 -21.73756)
(-2409.0692 -9.6371522 -29.564542)
(-2510.8361 7.6174418 -37.629153)
(-2612.9989 26.336802 -45.59153)
(-2715.4004 46.615293 -53.254625)
(-2818.0193 68.218026 -60.315157)
(-2920.7896 91.280971 -66.662524)
(-3023.4706 115.56762 -72.072957)
(-3125.8608 140.98905 -76.491319)
(-3227.8662 167.3965 -79.758786)
(-3329.1786 194.5046 -81.842058)
(-3429.7839 222.23474 -82.775237)
(-3529.371 250.30922 -82.524384)
(-3628.0806 278.50515 -81.14899)
(-3725.6224 306.69805 -78.77698)
(-3822.353 334.74543 -75.441042)
(-3917.8344 362.35531 -71.38215)
(-4012.6202 389.75477 -66.605796)
(-4106.5768 416.44998 -61.30626)
(-4199.9373 442.81375 -55.630601)
(-4293.1251 468.59036 -49.663258)
(-4385.7277 493.79532 -43.559291)
(-4479.0751 519.0472 -37.483905)
(-4571.7692 543.49237 -31.291172)
(1.0339754 -19.476764 -30.213222)
(-42.221361 -31.092682 -28.360918)
(-100.93214 -46.905602 -31.918126)
(-175.9469 -58.598818 -30.996949)
(-262.3189 -67.117205 -29.94244)
(-358.61775 -73.382068 -28.089486)
(-462.03059 -75.06449 -24.598854)
(-570.05786 -75.008053 -22.007527)
(-681.66813 -71.909359 -17.888279)
(-795.38251 -67.07092 -13.571339)
(-909.39846 -60.900422 -9.2284808)
(-1023.2456 -53.461247 -4.6965699)
(-1136.232 -45.369832 -0.52394029)
(-1247.7788 -36.663133 3.1775266)
(-1357.6428 -27.669249 6.0449576)
(-1465.7984 -18.292765 8.1654159)
(-1572.225 -8.6462885 8.8969533)
(-1677.0869 1.2740947 8.5594026)
(-1780.6536 11.75109 6.7701539)
(-1883.0463 22.663148 3.7654881)
(-1984.7477 34.413641 -0.50012295)
(-2085.8703 47.01156 -5.8171935)
(-2187.0582 60.654891 -12.060655)
(-2288.1442 75.640153 -18.90629)
(-2389.5517 91.793571 -26.307064)
(-2491.2265 109.39681 -33.82301)
(-2593.2827 128.41277 -41.344994)
(-2695.5218 148.84259 -48.627495)
(-2798.1307 170.64686 -55.312736)
(-2900.7626 193.71993 -61.350827)
(-3003.2722 217.93245 -66.55025)
(-3105.5534 243.19418 -70.73035)
(-3207.3286 269.24848 -73.803154)
(-3308.4832 295.99391 -75.75358)
(-3408.8036 323.19221 -76.493936)
(-3508.2097 350.65375 -76.086434)
(-3606.5844 378.20597 -74.537452)
(-3703.8783 405.76334 -71.995892)
(-3800.1342 433.0148 -68.46944)
(-3895.3284 460.07268 -64.167325)
(-3989.8613 486.70438 -59.141974)
(-4083.4181 512.8423 -53.527701)
(-4176.6403 538.73921 -47.628539)
(-4269.5236 564.00734 -41.222974)
(-4362.0211 589.09407 -34.933661)
(-4455.2068 613.89072 -28.411755)
(-4547.7971 638.17577 -22.127543)
(5.0912883 -6.4093305 -8.9571165)
(-36.214737 -8.6816883 -5.6163317)
(-94.445372 -14.15464 -8.5991222)
(-168.80261 -15.61716 -9.7309289)
(-255.93305 -13.706082 -11.647839)
(-351.85349 -11.625545 -11.38157)
(-454.05716 -4.9279733 -12.565543)
(-561.49389 1.3969491 -11.071988)
(-672.02389 10.510249 -9.786405)
(-784.29274 19.480775 -7.6906359)
(-897.12704 29.896539 -4.8458176)
(-1010.2633 40.082646 -1.6992585)
(-1122.058 50.590411 1.4849184)
(-1232.7433 61.150903 4.177482)
(-1341.7921 71.380042 6.7512146)
(-1449.2435 81.804563 8.209065)
(-1554.8705 91.962934 8.9369058)
(-1659.1381 102.47279 8.4010252)
(-1761.9459 113.16381 6.7758831)
(-1863.9618 124.37471 3.9652162)
(-1965.1333 136.32962 0.025701821)
(-2066.2533 149.12139 -4.9248021)
(-2166.9157 163.0373 -10.667324)
(-2267.8201 178.02769 -17.271567)
(-2368.8546 194.368 -24.196897)
(-2470.3379 212.12374 -31.406605)
(-2572.1396 231.16991 -38.555831)
(-2674.3255 251.65347 -45.434108)
(-2776.7545 273.38738 -51.805233)
(-2879.236 296.33152 -57.564967)
(-2981.6794 320.39663 -62.422257)
(-3083.8171 345.3149 -66.275733)
(-3185.5188 371.07419 -69.07632)
(-3286.5281 397.34011 -70.670132)
(-3386.7611 424.038 -71.102901)
(-3485.9986 450.91085 -70.329747)
(-3584.2672 477.92135 -68.46577)
(-3681.4225 504.69638 -65.486628)
(-3777.6246 531.39179 -61.585037)
(-3872.7715 557.7393 -56.854945)
(-3966.9893 583.78282 -51.449728)
(-4060.502 609.41262 -45.495122)
(-4153.4676 634.77201 -39.195792)
(-4246.1619 659.66117 -32.558137)
(-4338.4941 684.33577 -26.006763)
(-4431.4054 708.81772 -19.315993)
(-4523.8841 733.11436 -12.850465)
(8.8435148 6.5329481 11.123124)
(-34.562781 9.8267423 15.75314)
(-90.657264 15.845326 12.371172)
(-165.92809 25.400427 9.4743948)
(-252.1094 36.697306 6.3870317)
(-347.50803 48.80064 2.8224349)
(-449.12003 62.8356 0.81591724)
(-555.93263 76.351142 -0.29991444)
(-665.1236 90.986509 -0.88686682)
(-776.52183 105.02794 -0.18821445)
(-888.32871 119.16113 1.2140129)
(-999.81822 132.07117 2.9757779)
(-1110.2875 145.24878 4.8488946)
(-1219.7375 157.04244 6.9698723)
(-1327.5329 168.87776 8.571179)
(-1433.7339 179.96206 9.6627032)
(-1538.5295 191.02488 10.108639)
(-1641.8226 201.85828 9.5458329)
(-1744.162 212.97521 8.0462811)
(-1845.4881 224.4919 5.416562)
(-1946.4378 236.60644 1.753617)
(-2046.8977 249.7725 -2.8427929)
(-2147.4334 263.78792 -8.3741474)
(-2247.9893 279.16164 -14.483931)
(-2349.0064 295.83737 -21.006757)
(-2450.3343 313.7567 -27.796559)
(-2552.0749 333.1093 -34.556656)
(-2654.1761 353.7953 -41.135074)
(-2756.4829 375.69004 -47.238758)
(-2858.9073 398.74164 -52.717728)
(-2961.1822 422.75635 -57.339823)
(-3063.2236 447.6029 -61.025519)
(-3164.7055 473.11619 -63.620596)
(-3265.5635 499.05536 -65.041463)
(-3365.5218 525.32138 -65.283105)
(-3464.5819 551.72527 -64.339389)
(-3562.5038 578.09885 -62.228184)
(-3659.4406 604.27809 -59.033934)
(-3755.2587 630.36691 -54.912339)
(-3849.9369 656.09352 -49.946576)
(-3943.9066 681.44586 -44.22167)
(-4037.0904 706.46959 -37.987827)
(-4129.8224 731.13795 -31.340649)
(-4222.2296 755.50196 -24.428541)
(-4314.558 779.74944 -17.522963)
(-4407.3363 803.93088 -10.468609)
(-4499.9927 828.15142 -3.6908565)
(7.503461 22.996191 36.66025)
(-37.953545 35.987867 37.680884)
(-94.61813 54.280281 36.356227)
(-169.40288 74.51783 31.428665)
(-254.61528 95.635349 24.920397)
(-348.3202 116.55389 19.150957)
(-448.55617 138.07363 14.05975)
(-553.29582 157.89415 10.093024)
(-660.90528 177.90283 7.4651651)
(-770.36856 195.85662 5.9635236)
(-880.32495 213.26713 5.6020927)
(-990.06183 228.86107 5.9887044)
(-1099.0898 243.63496 7.2059439)
(-1206.9697 257.08659 8.4043303)
(-1313.4262 269.69506 9.7180779)
(-1418.5817 281.48139 10.555743)
(-1522.2592 292.89858 10.966647)
(-1624.8321 303.98593 10.412742)
(-1726.3104 315.4131 9.0708565)
(-1827.1053 326.98369 6.6147376)
(-1927.3684 339.45993 3.297979)
(-2027.5955 352.63222 -1.1541844)
(-2127.6137 366.98824 -6.2062309)
(-2228.053 382.64879 -12.076097)
(-2328.8144 399.45146 -18.391574)
(-2429.7993 417.70616 -24.904447)
(-2531.3442 437.10587 -31.468533)
(-2633.2278 457.78519 -37.879339)
(-2735.3562 479.60092 -43.814996)
(-2837.5531 502.45402 -49.141582)
(-2939.6419 526.15919 -53.621451)
(-3041.4467 550.55085 -57.136945)
(-3142.7401 575.51774 -59.521115)
(-3243.3441 600.81785 -60.729652)
(-3343.1496 626.39551 -60.712306)
(-3441.931 651.99604 -59.446265)
(-3539.6957 677.58209 -56.996438)
(-3636.4116 702.95026 -53.383948)
(-3731.9644 728.19896 -48.909076)
(-3826.7158 753.10088 -43.33096)
(-3920.4852 777.9748 -37.232091)
(-4013.5621 802.35263 -30.43192)
(-4106.1149 826.59463 -23.355643)
(-4198.467 850.60513 -15.998111)
(-4290.7869 874.57146 -8.6803187)
(-4383.3552 898.51193 -1.4335632)
(-4476.1016 922.5772 5.5020591)
(3.1349607 42.077588 55.280486)
(-44.945774 59.819207 59.604366)
(-102.02101 93.74826 59.25338)
(-176.38137 124.74693 51.076465)
(-259.43073 155.90852 42.697349)
(-351.99955 186.72537 33.818901)
(-449.88974 215.3699 26.492348)
(-552.66244 242.13051 20.134722)
(-658.09829 267.10579 15.613458)
(-765.2888 288.82081 12.379737)
(-873.3534 309.90051 10.466428)
(-980.85132 327.07101 10.176814)
(-1088.2207 343.77115 9.9242943)
(-1194.2215 357.72274 10.726449)
(-1299.5024 370.92875 11.34248)
(-1403.1924 382.75562 12.044223)
(-1505.9904 394.12557 12.15013)
(-1607.5251 405.1976 11.724337)
(-1708.3679 416.33082 10.426553)
(-1808.5356 427.95282 8.2855155)
(-1908.4633 440.27292 5.1188775)
(-2008.1661 453.58747 1.1038159)
(-2108.0788 468.06558 -3.7917713)
(-2208.2384 483.90795 -9.3287951)
(-2308.7232 500.96317 -15.295382)
(-2409.6731 519.4755 -21.566744)
(-2511.0767 539.19488 -27.976366)
(-2612.7956 560.22927 -34.198796)
(-2714.7418 582.27863 -39.981899)
(-2816.7414 605.2823 -45.158755)
(-2918.6233 628.98387 -49.486884)
(-3020.2121 653.33871 -52.851716)
(-3121.2501 678.05221 -55.072422)
(-3221.6384 703.03829 -56.115327)
(-3321.1455 728.09873 -55.849035)
(-3419.6852 753.15719 -54.374441)
(-3517.1976 778.01664 -51.579846)
(-3613.6031 802.72922 -47.697524)
(-3708.9797 827.13769 -42.773557)
(-3803.3511 851.32686 -36.936077)
(-3896.9049 875.20483 -30.331416)
(-3989.7575 898.90537 -23.146563)
(-4082.1544 922.40871 -15.632354)
(-4174.3489 945.84255 -7.9116839)
(-4266.511 969.24757 -0.28519919)
(-4358.9414 992.69657 7.2199275)
(-4451.9897 1016.3963 14.415552)
(0 0 0)
(0 0 0)
(0 0 0)
(0 0 0)
(0 0 0)
(0 0 0)
(0 0 0)
(0 0 0)
(0 0 0)
(0 0 0)
(0 0 0)
(0 0 0)
(0 0 0)
(0 0 0)
(0 0 0)
(0 0 0)
(0 0 0)
(0 0 0)
(0 0 0)
(0 0 0)
(0 0 0)
(0 0 0)
(0 0 0)
(0 0 0)
(0 0 0)
(0 0 0)
(0 0 0)
(0 0 0)
(0 0 0)
(0 0 0)
(0 0 0)
(0 0 0)
(0 0 0)
(0 0 0)
(0 0 0)
(0 0 0)
(0 0 0)
(0 0 0)
(0 0 0)
(0 0 0)
(0 0 0)
(0 0 0)
(0 0 0)
(0 0 0)
(0 0 0)
(0 0 0)
(0 0 0)
(0 0 0)
(0 0 0)
(-43.00304 25.832436 46.317107)
(-50.444731 32.752842 29.58811)
(-58.746046 34.293943 14.240787)
(-62.347179 36.13837 1.7200031)
(-60.67724 33.552486 -11.142125)
(-58.115502 34.779537 -24.153583)
(-50.192718 25.156161 -40.671098)
(-91.120776 117.75017 66.501355)
(-105.9118 129.70652 35.037267)
(-111.40096 121.66289 13.888128)
(-112.09159 117.68465 -2.6658537)
(-113.58917 123.65733 -19.14646)
(-105.03473 122.05548 -38.648622)
(-97.381905 122.88782 -67.096858)
(-139.35966 161.07946 59.484007)
(-154.93958 156.15457 40.414824)
(-165.52131 160.72114 15.907645)
(-167.04659 159.90498 -4.405285)
(-165.38527 156.72868 -26.208305)
(-157.08165 157.26439 -42.925987)
(-146.02859 163.26286 -72.008129)
(-208.77914 213.74738 52.45632)
(-222.18676 217.02175 34.825235)
(-228.70186 214.93674 11.66375)
(-231.77995 214.3753 -5.6378577)
(-229.26369 214.13279 -24.922996)
(-223.17783 215.92724 -46.596303)
(-208.4124 212.6197 -64.903608)
(-285.23907 256.12773 44.419023)
(-296.8308 256.47535 28.878523)
(-305.43008 258.17767 10.350803)
(-307.04121 256.31039 -7.5161756)
(-305.62209 256.58936 -25.467227)
(-298.37403 255.25167 -41.887798)
(-288.08334 255.92559 -61.408753)
(-371.11034 293.89688 34.291214)
(-379.85301 294.53265 21.466395)
(-385.33644 293.59528 5.3220153)
(-387.41354 293.84718 -7.7651693)
(-384.86908 292.18127 -23.46891)
(-380.11033 290.73613 -38.398089)
(-369.09232 288.72709 -51.830662)
(-463.17461 325.88105 27.394644)
(-470.7675 327.70419 15.935903)
(-476.03855 329.73691 3.7700813)
(-477.19091 328.58386 -7.8487628)
(-475.94512 328.56156 -21.035263)
(-470.86108 327.45983 -32.05507)
(-463.05501 324.57074 -44.131394)
(-559.71558 355.91946 20.323117)
(-565.52838 357.2714 12.451411)
(-569.2614 356.13181 2.272877)
(-570.1926 356.04346 -6.5963076)
(-568.96838 354.26636 -16.292478)
(-564.77998 351.34065 -26.235676)
(-558.05367 347.83761 -34.610238)
(-660.68652 381.08515 16.309602)
(-665.12278 381.74566 8.9988772)
(-667.99421 383.04024 1.8834495)
(-668.77873 382.09246 -4.607166)
(-667.72129 381.95583 -12.090032)
(-664.96768 379.23198 -19.261574)
(-659.54224 376.33192 -26.444054)
(-762.85339 402.74021 12.691065)
(-766.24153 403.81443 8.7702947)
(-768.78972 403.13757 3.3738722)
(-769.50946 403.2728 -2.4334822)
(-768.2746 400.79538 -7.5435983)
(-766.23012 398.07351 -12.823682)
(-762.08436 394.27186 -17.474196)
(-867.39248 422.53738 11.342119)
(-869.81721 422.56454 8.2126412)
(-871.68489 422.91003 4.2419608)
(-871.88865 421.45941 1.5818041)
(-871.52007 420.86757 -2.4481148)
(-870.04697 418.90319 -5.6587514)
(-866.87122 415.34999 -9.5440796)
(-971.76906 438.19195 11.306975)
(-973.81494 438.59801 9.1183662)
(-974.81806 438.34638 7.888756)
(-975.74801 438.54549 5.2673388)
(-975.26954 437.27114 2.9315558)
(-974.05339 434.11032 0.97978288)
(-973.01869 431.58831 -0.5876129)
(-1076.4947 453.60464 11.434301)
(-1077.6338 453.02942 11.017424)
(-1079.0362 453.66686 10.06883)
(-1079.6594 452.77319 9.2176953)
(-1079.5335 451.58716 7.8123901)
(-1079.3673 450.73239 7.0680383)
(-1078.5836 447.00993 5.889657)
(-1180.514 465.64546 12.816687)
(-1181.5808 465.96943 12.932344)
(-1182.8058 466.47072 13.307575)
(-1183.2433 466.19866 12.937585)
(-1183.6815 466.48252 12.477531)
(-1183.71 464.30078 12.442076)
(-1183.9171 462.29424 11.950599)
(-1284.0555 478.00544 13.954777)
(-1285.0508 478.29723 14.74357)
(-1285.886 478.78202 15.726055)
(-1286.8536 479.34637 15.786995)
(-1287.1703 478.75403 16.229196)
(-1287.8452 478.12916 16.280093)
(-1288.2526 476.25465 16.466679)
(-1386.8792 488.64299 15.023854)
(-1387.4681 489.29554 16.297803)
(-1388.6063 490.90208 17.553271)
(-1389.261 491.39884 18.395044)
(-1389.9602 492.21435 18.639297)
(-1390.6593 491.90735 19.495542)
(-1391.569 491.04959 19.63689)
(-1488.5574 499.47948 15.606063)
(-1489.4236 501.1473 16.980601)
(-1490.2942 502.68431 18.743364)
(-1491.2512 503.95239 19.295388)
(-1491.9574 505.15279 20.215552)
(-1493.0091 505.45816 20.892977)
(-1493.9255 505.50998 21.158393)
(-1589.821 510.48154 15.369969)
(-1590.3688 512.47617 17.126081)
(-1591.5477 514.93095 18.483765)
(-1592.2413 516.837 19.531224)
(-1593.1739 518.65349 20.272831)
(-1594.0514 519.78635 21.005802)
(-1595.1433 520.67448 21.276976)
(-1690.136 521.87868 14.404846)
(-1690.9483 524.7312 15.848154)
(-1691.9447 527.75286 17.385672)
(-1692.7755 530.11643 18.241592)
(-1693.7104 532.69992 18.980991)
(-1694.6624 534.48306 19.621594)
(-1695.6828 536.45547 19.79953)
(-1790.1921 534.09766 12.232093)
(-1790.8736 537.6574 13.699506)
(-1792.0063 541.27203 14.981534)
(-1792.7233 544.47261 15.759188)
(-1793.7432 547.57721 16.424689)
(-1794.4949 550.19618 16.901399)
(-1795.5135 552.86148 16.968962)
(-1889.8771 547.38067 9.1681105)
(-1890.7042 551.55857 10.369804)
(-1891.7366 555.88536 11.447093)
(-1892.5501 559.48245 12.110528)
(-1893.4869 563.30068 12.594292)
(-1894.2351 566.47145 12.917829)
(-1895.0684 570.03412 12.849415)
(-1989.5538 561.65915 5.056924)
(-1990.336 566.57542 6.0017762)
(-1991.4684 571.32297 6.8777887)
(-1992.1534 575.61472 7.3542146)
(-1993.1532 579.86212 7.6926727)
(-1993.6917 583.70487 7.8984629)
(-1994.4824 587.92462 7.704329)
(-2089.2592 577.3218 0.075862149)
(-2090.2034 582.67826 0.75241909)
(-2091.1978 587.96247 1.4450895)
(-2092.0408 592.60061 1.7504037)
(-2092.9342 597.37155 1.9963398)
(-2093.5025 601.70711 2.0461257)
(-2094.1639 606.47218 1.7827949)
(-2189.3116 594.05567 -5.6649721)
(-2190.2128 599.93729 -5.1682822)
(-2191.3512 605.44249 -4.650381)
(-2192.1206 610.56322 -4.5615094)
(-2193.0342 615.62128 -4.3770667)
(-2193.5479 620.26777 -4.4039383)
(-2194.1159 625.48666 -4.6762625)
(-2289.5681 612.06155 -11.814934)
(-2290.7294 618.21128 -11.579414)
(-2291.7129 623.91857 -11.249108)
(-2292.6089 629.2888 -11.311203)
(-2293.5722 634.47643 -10.983865)
(-2294.0948 639.58303 -11.199976)
(-2294.7743 645.08094 -11.277917)
(-2390.2969 631.16307 -18.329684)
(-2391.554 637.38919 -18.191279)
(-2392.538 643.24981 -18.095422)
(-2393.6741 648.73804 -17.992545)
(-2394.541 654.03902 -17.900008)
(-2395.3155 659.1704 -17.876092)
(-2396.0625 664.84536 -17.74906)
(-2491.4084 651.28535 -24.817469)
(-2492.7682 657.45378 -24.782829)
(-2493.9381 663.3252 -24.913718)
(-2495.0669 668.66826 -24.54342)
(-2496.4425 674.00814 -24.67045)
(-2497.1446 679.27816 -24.346448)
(-2498.1249 684.83777 -24.37051)
(-2592.9714 672.25592 -31.146539)
(-2594.3804 678.09668 -31.236669)
(-2595.7164 683.92741 -31.254962)
(-2597.092 688.97424 -30.927347)
(-2598.4403 694.35676 -30.869974)
(-2599.5705 699.11418 -30.422527)
(-2600.8221 704.80621 -30.101732)
(-2694.6685 693.76542 -36.999007)
(-2696.2822 699.45592 -37.141888)
(-2697.7829 704.7948 -37.080661)
(-2699.3965 709.71537 -36.745793)
(-2701.0712 714.7055 -36.462233)
(-2702.5587 719.43034 -35.862142)
(-2704.1289 724.57382 -35.255609)
(-2796.5435 716.01809 -42.224682)
(-2798.3057 721.05684 -42.28254)
(-2800.1061 726.07056 -42.228876)
(-2801.9913 730.51976 -41.662572)
(-2803.9948 735.26037 -41.269882)
(-2805.8936 739.40906 -40.414674)
(-2807.9529 744.2112 -39.521958)
(-2898.29 738.48228 -46.465311)
(-2900.3605 743.01842 -46.548319)
(-2902.4539 747.41387 -46.298346)
(-2904.6716 751.46341 -45.665843)
(-2907.113 755.62655 -45.057074)
(-2909.4741 759.38629 -43.995404)
(-2912.0567 763.55614 -42.782912)
(-2999.8463 761.25978 -49.743302)
(-3002.2342 765.04062 -49.697629)
(-3004.6622 768.81968 -49.379432)
(-3007.308 772.29171 -48.550277)
(-3010.1848 775.94191 -47.756043)
(-3013.0792 779.13536 -46.448841)
(-3016.2774 782.64491 -44.952576)
(-3100.9578 784.08688 -51.764413)
(-3103.7203 787.11709 -51.650982)
(-3106.5771 790.22633 -51.143914)
(-3109.6698 793.12346 -50.193615)
(-3113.0568 796.14998 -49.198637)
(-3116.5453 798.72495 -47.710671)
(-3120.3882 801.50223 -45.947471)
(-3201.4862 806.95351 -52.53516)
(-3204.6902 809.2009 -52.279888)
(-3208.0083 811.55368 -51.689237)
(-3211.6165 813.78703 -50.579859)
(-3215.5648 816.13201 -49.435532)
(-3219.6831 818.10747 -47.777072)
(-3224.1768 820.09933 -45.802767)
(-3301.2909 829.74917 -51.956789)
(-3304.989 831.14335 -51.618596)
(-3308.8223 832.76567 -50.892282)
(-3312.9694 834.34373 -49.669847)
(-3317.4634 836.07904 -48.440234)
(-3322.1655 837.35732 -46.576072)
(-3327.3515 838.52332 -44.393661)
(-3400.1494 852.43025 -50.075236)
(-3404.3703 853.06324 -49.597398)
(-3408.76 853.94117 -48.797753)
(-3413.4698 854.88295 -47.472247)
(-3418.6031 855.87313 -46.123029)
(-3424.0271 856.41344 -44.123428)
(-3430.0436 856.83754 -42.01201)
(-3498.1616 874.9376 -46.773531)
(-3503.0704 874.81002 -46.328082)
(-3507.9951 874.95176 -45.379405)
(-3513.3721 875.22928 -44.124782)
(-3519.0604 875.64118 -42.699386)
(-3525.0992 875.49704 -40.834367)
(-3531.6651 875.39445 -38.59721)
(-3595.1521 897.35866 -42.472568)
(-3600.598 896.54042 -41.899631)
(-3606.2233 896.05553 -41.086797)
(-3612.094 895.72917 -39.708891)
(-3618.4618 895.48145 -38.331095)
(-3625.022 895.02131 -36.334334)
(-3632.1949 893.99297 -34.066877)
(-3691.048 919.95021 -36.95464)
(-3697.1286 918.43545 -36.398578)
(-3703.3034 917.30029 -35.493735)
(-3709.844 916.43667 -34.231593)
(-3716.7326 915.59886 -32.835208)
(-3724.008 914.30213 -31.045252)
(-3731.8116 912.72302 -28.908066)
(-3786.1051 942.28386 -30.582488)
(-3792.7777 940.23049 -30.010868)
(-3799.5783 938.6092 -29.210567)
(-3806.6989 937.22757 -27.9754)
(-3814.1652 935.8123 -26.788435)
(-3821.9506 934.12574 -24.981616)
(-3830.251 932.0436 -23.023781)
(-3880.2817 964.78513 -23.399405)
(-3887.5588 962.2572 -22.964818)
(-3894.9692 960.15131 -22.151763)
(-3902.6539 958.31024 -21.144725)
(-3910.6015 956.45721 -19.954641)
(-3918.9171 954.32951 -18.40804)
(-3927.7209 951.76014 -16.663026)
(-3973.7146 987.38347 -15.680515)
(-3981.5757 984.49865 -15.363048)
(-3989.5608 982.05574 -14.647065)
(-3997.7277 979.7908 -13.778307)
(-4006.187 977.56229 -12.779468)
(-4014.9681 975.03304 -11.421779)
(-4024.122 972.10408 -9.8913006)
(-4066.6692 1010.2822 -7.6914667)
(-4075.0735 1007.0889 -7.475488)
(-4083.5552 1004.2792 -6.8272799)
(-4092.2165 1001.7112 -6.1990806)
(-4101.0986 999.14809 -5.3033503)
(-4110.2242 996.31356 -4.1905882)
(-4119.7402 993.11589 -2.9340016)
(-4159.247 1033.4258 0.43735888)
(-4168.1 1030.0224 0.59467191)
(-4177.054 1026.9979 1.0585928)
(-4186.119 1024.163 1.5579507)