/*--------------------------------*- C++ -*----------------------------------*\
  =========                 |
  \\      /  F ield         | OpenFOAM: The Open Source CFD Toolbox
   \\    /   O peration     | Website:  https://openfoam.org
    \\  /    A nd           | Version:  6
     \\/     M anipulation  |
\*---------------------------------------------------------------------------*/
FoamFile
{
    version     2.0;
    format      ascii;
    class       pointVectorField;
    location    "0.7";
    object      lm;
}
// * * * * * * * * * * * * * * * * * * * * * * * * * * * * * * * * * * * * * //

dimensions      [1 -2 -1 0 0 0 0];

internalField   nonuniform List<vector> 
625
(
(0 0 0)
(0 0 0)
(3596.024 -1589.7724 -42.223065)
(3198.7404 -2455.4383 270.24931)
(0 0 0)
(0 0 0)
(2949.5491 -2247.7916 272.61166)
(3356.6229 -1389.6212 -42.118839)
(0 0 0)
(0 0 0)
(0 0 0)
(3307.4839 -1701.9777 31.295939)
(3255.4748 -1926.5077 105.18129)
(3333.4895 -2252.5652 192.32199)
(12.745255 27.735212 15.451271)
(48.495908 60.598965 4.7118694)
(103.83125 84.451308 0.81506717)
(181.38552 102.42441 -5.3967462)
(271.69125 110.31529 -9.4777455)
(385.4906 107.81163 -10.147946)
(509.14098 93.471312 -9.2062281)
(651.14912 66.802661 -5.3545862)
(807.71711 28.010189 0.75085015)
(977.08447 -24.4033 8.2018736)
(1158.9283 -89.044844 17.203836)
(1352.3576 -166.79109 25.776817)
(1553.4845 -256.82891 32.848227)
(1760.0551 -358.2356 37.672443)
(1968.0389 -469.34058 38.878657)
(2173.607 -588.12884 36.406946)
(2373.0118 -712.36233 30.829286)
(2563.9897 -838.02199 21.361396)
(2741.3187 -963.59479 11.447548)
(2911.077 -1088.0316 -0.72149938)
(3067.4544 -1206.8333 -12.679799)
(3213.0791 -1322.8435 -22.9411)
(3354.9712 -1434.8847 -33.33825)
(-7.0941723 -28.480514 -45.669055)
(27.880391 -53.656811 -22.530711)
(71.157989 -99.733321 -16.107215)
(127.21817 -141.07265 2.0483895)
(192.9351 -182.04002 20.287506)
(276.66406 -245.39876 42.484908)
(363.80417 -300.20966 62.582902)
(465.26867 -369.87537 88.790932)
(575.95807 -449.52378 113.43008)
(697.27531 -536.52389 140.68693)
(830.18532 -637.7488 167.57122)
(974.14338 -749.24027 194.07621)
(1130.0797 -873.23441 219.0633)
(1298.0585 -1008.5426 242.05629)
(1477.3418 -1154.0226 262.04294)
(1666.725 -1307.4335 278.31225)
(1863.9035 -1465.9887 290.34531)
(2065.7507 -1626.2127 297.96047)
(2268.71 -1783.7342 300.80972)
(2467.7601 -1935.6141 299.77893)
(2660.2234 -2077.8215 295.4079)
(2840.9089 -2206.473 287.54225)
(3020.1141 -2331.3402 279.88091)
(0 0 0)
(0 0 0)
(0 0 0)
(-3.6770125 -21.2707 38.691787)
(-4.9262607 -85.103531 62.853535)
(21.388346 -105.04978 68.509217)
(49.063897 -145.26322 75.645367)
(102.07642 -210.66496 93.86782)
(158.4213 -245.44754 103.45683)
(228.34129 -307.303 122.87447)
(310.32175 -368.77464 142.14899)
(401.30995 -436.65931 164.90154)
(505.79007 -513.12547 188.61067)
(622.69223 -596.71939 212.90003)
(752.69797 -692.35002 237.66719)
(897.38288 -796.31703 260.35055)
(1055.7211 -911.69112 280.91788)
(1227.5123 -1036.4505 298.28457)
(1411.1741 -1168.9783 311.22776)
(1604.178 -1307.8863 319.56984)
(1803.3462 -1450.0559 322.88006)
(2004.6017 -1592.5871 321.19857)
(2203.6212 -1732.2203 314.93378)
(2395.9156 -1865.6431 305.23826)
(2577.7376 -1990.7031 293.06319)
(2734.2826 -2096.6987 278.65111)
(3100.9918 -2057.2977 193.48577)
(3001.2579 -1718.0088 105.44445)
(3128.5346 -1533.1398 32.610839)
(3134.3959 -1244.4474 -33.830056)
(3008.4111 -1138.5303 -25.323827)
(2855.1153 -1023.2405 -16.551558)
(2690.4666 -906.9031 -8.2431628)
(2513.9895 -790.90207 -0.88751706)
(2325.9871 -675.45869 5.2597461)
(2129.1387 -564.44335 9.1123507)
(1925.7186 -457.84448 10.745631)
(1720.2353 -358.68103 9.8805757)
(1516.1622 -267.75983 6.638123)
(1317.5188 -186.28567 1.2720899)
(1128.2827 -114.73027 -5.6730265)
(949.51444 -53.352595 -13.850733)
(784.93068 -1.7818046 -22.837941)
(636.99723 40.627015 -31.21285)
(496.57066 69.014223 -38.556134)
(376.00794 92.060909 -46.210279)
(268.93761 103.44272 -49.635663)
(178.86852 101.69777 -52.233149)
(105.35029 93.633521 -50.331424)
(48.368447 78.477869 -49.28107)
(10.929883 53.631553 -40.763342)
(2.7234591 20.879814 -24.345912)
(0 0 0)
(0 0 0)
(0 0 0)
(0 0 0)
(0 0 0)
(0 0 0)
(3136.5807 -2403.291 270.93336)
(3073.8509 -2352.517 270.71694)
(3012.0742 -2300.3981 272.40515)
(3537.7807 -1539.2918 -41.487776)
(3477.1364 -1490.2148 -40.603754)
(3416.4559 -1440.6808 -42.099567)
(-6.4775462 11.076207 14.859684)
(25.480481 30.802151 2.5735289)
(75.630442 43.441195 1.4045297)
(145.35108 51.175368 -3.0279469)
(235.01707 51.45361 -1.6469881)
(347.08002 38.684641 1.5447084)
(472.10251 13.168845 7.7518698)
(615.90946 -25.779084 17.602217)
(769.41441 -80.791321 29.003407)
(932.60399 -149.80281 41.70913)
(1101.7353 -231.67945 55.431818)
(1273.5793 -325.70617 67.414484)
(1446.456 -428.44591 77.939698)
(1618.9304 -538.42394 85.402285)
(1789.3718 -652.676 89.651003)
(1957.6317 -769.62106 90.866403)
(2123.1449 -886.54409 88.733337)
(2286.861 -1003.0389 84.108512)
(2449.173 -1118.9342 77.83935)
(2614.6422 -1233.7937 68.733151)
(2782.1466 -1350.1955 60.323144)
(2955.5288 -1467.216 50.356175)
(3146.5184 -1592.3323 40.723549)
(-2.362987 -0.35684945 -10.500008)
(35.908503 -3.3824111 -14.191576)
(87.958027 -8.2867458 -8.8675559)
(163.39826 -19.450704 -2.7157456)
(256.92225 -42.872645 5.3220128)
(362.97421 -74.517806 17.127294)
(480.53524 -115.07801 30.45)
(605.79206 -167.97137 46.207323)
(734.59255 -227.4367 61.491687)
(867.08609 -296.1594 78.583393)
(1000.1799 -371.49269 93.26161)
(1134.9292 -453.42066 107.35768)
(1271.8938 -541.55172 118.94074)
(1412.3299 -635.93906 128.13043)
(1558.3253 -736.99926 134.79207)
(1711.8748 -845.03223 138.6833)
(1875.3081 -961.01791 140.16014)
(2051.3423 -1085.4664 139.351)
(2239.9595 -1219.1168 136.72052)
(2445.2558 -1361.4527 132.16034)
(2662.7 -1513.1889 127.72591)
(2894.396 -1671.6408 120.85639)
(3117.7781 -1825.2501 115.13769)
(-9.6051388 -13.029448 -12.934334)
(33.311792 -27.896778 -9.6562204)
(82.978993 -46.230613 -1.5438077)
(160.34017 -79.918163 9.9826459)
(244.4025 -121.63066 23.680529)
(340.39825 -163.67754 40.200429)
(443.65301 -221.00247 58.781096)
(550.70236 -279.02991 75.935077)
(663.23448 -344.05823 95.174844)
(779.5404 -416.2538 112.89434)
(901.17053 -493.62577 130.03285)
(1029.9116 -579.38929 146.3914)
(1166.8835 -673.15275 161.17678)
(1314.629 -776.79337 174.75182)
(1474.0328 -890.81078 186.58085)
(1646.6103 -1016.0761 196.49352)
(1832.4972 -1152.3174 204.17845)
(2030.9972 -1298.7546 209.29604)
(2240.9561 -1454.3233 211.95056)
(2459.8674 -1615.5127 211.48247)
(2683.3031 -1780.7151 209.33067)
(2909.1023 -1945.9723 204.89106)
(3114.4645 -2095.8506 198.00611)
(0 0 0)
(0 0 0)
(0 0 0)
(0 0 0)
(0 0 0)
(0 0 0)
(0 0 0)
(0 0 0)
(0 0 0)
(12.680578 -15.320876 -18.425569)
(13.44319 -17.790944 3.7507094)
(8.4552832 -8.6814791 16.382782)
(44.026971 -78.462546 -0.72884724)
(30.875594 -76.474986 16.796901)
(22.473996 -64.068478 41.843426)
(72.08383 -109.95308 4.4849223)
(64.227565 -104.1184 23.80134)
(51.673224 -109.01084 50.354828)
(121.70444 -153.59016 23.369797)
(106.82999 -155.71634 42.187253)
(84.642446 -141.36552 60.407512)
(184.044 -207.91898 39.56626)
(162.33667 -203.68631 55.505892)
(138.28782 -201.69718 76.212702)
(254.69467 -258.2379 58.976752)
(229.31332 -252.75114 75.894413)
(200.48354 -248.316 91.41701)
(337.28667 -316.13733 80.968076)
(307.58275 -317.36789 94.800104)
(272.92206 -306.38954 111.75562)
(432.46893 -385.72224 104.92518)
(396.61175 -375.64894 117.93637)
(358.92191 -369.49106 132.11681)
(536.7631 -459.31436 129.87753)
(496.82741 -452.96962 142.45525)
(454.17319 -439.92876 156.0068)
(653.38708 -545.80126 156.20139)
(609.02489 -533.43468 168.14543)
(561.80092 -519.02705 180.58824)
(781.24082 -640.23452 182.83042)
(732.27109 -625.05233 194.03324)
(681.4731 -606.65841 205.74001)
(921.04704 -747.4151 208.81191)
(868.76039 -728.35173 219.47405)
(814.47511 -706.25803 230.59546)
(1073.9552 -865.29203 233.17947)
(1018.3727 -842.02134 243.34588)
(960.88687 -815.74257 253.82418)
(1239.0635 -994.62116 255.47422)
(1180.7841 -967.07539 265.12074)
(1121.0085 -935.93648 274.5477)
(1416.3265 -1133.4965 274.41769)
(1356.0274 -1101.635 283.33615)
(1294.1313 -1066.3023 292.13834)
(1604.1396 -1280.4714 289.48086)
(1542.058 -1244.4985 297.97547)
(1478.8671 -1204.4567 305.63448)
(1800.1142 -1432.7091 300.32949)
(1737.0588 -1392.5259 307.77749)
(1672.6668 -1348.6805 314.5191)
(2001.3454 -1586.8553 306.26337)
(1937.041 -1543.2483 312.94481)
(1872.4208 -1495.9549 318.65876)
(2203.1225 -1739.6241 307.82542)
(2138.939 -1692.7223 313.2424)
(2074.1445 -1642.9847 317.91141)
(2402.2746 -1887.0519 304.98691)
(2337.8696 -1837.9848 309.15602)
(2273.2218 -1786.3133 312.69538)
(2593.7517 -2025.86 298.97622)
(2529.6958 -1974.6481 301.42389)
(2465.5248 -1922.3285 304.16563)
(2774.5167 -2153.0042 289.44444)
(2710.8103 -2101.5283 291.1959)
(2647.3065 -2048.5399 292.94613)
(2940.9003 -2267.5845 279.12888)
(2878.9643 -2216.1519 279.98597)
(2816.108 -2164.4209 280.4752)
(3268.8997 -1662.4256 32.414052)
(3211.6126 -1615.1502 33.218142)
(3153.9742 -1566.7165 32.231158)
(3174.1183 -1862.8081 104.94418)
(3123.8811 -1820.1682 106.26507)
(3066.9017 -1771.7941 105.62699)
(3256.1955 -2191.5864 191.95009)
(3203.5409 -2147.1847 192.22365)
(3141.9937 -2095.501 192.31301)
(23.894416 26.233142 4.4529233)
(15.775599 25.976641 -5.7384167)
(15.886723 19.424733 -13.45874)
(49.678577 57.900041 -4.9194698)
(42.530612 53.408446 -22.218984)
(32.867225 44.723482 -28.772489)
(105.59833 81.985725 -12.398386)
(86.948408 77.914917 -20.835241)
(75.532766 71.906705 -36.162204)
(171.61042 97.78599 -17.448796)
(154.86427 92.39599 -29.637298)
(134.53797 87.361198 -40.50423)
(261.12005 108.7192 -19.910062)
(237.2872 100.78605 -31.084841)
(212.23738 97.463173 -40.702254)
(364.97448 102.52505 -20.487296)
(335.35915 98.261239 -28.865387)
(305.84206 93.923146 -39.912194)
(484.43155 90.421687 -17.52413)
(451.72105 85.909465 -26.013634)
(418.19394 83.053818 -36.614006)
(620.71807 64.312632 -12.236359)
(583.21315 61.349098 -20.845315)
(543.84996 61.873059 -30.128606)
(771.50264 28.767979 -5.752443)
(727.06795 26.215141 -13.028542)
(683.57118 26.677127 -21.837283)
(932.51483 -22.78997 3.0178174)
(891.34328 -19.918176 -3.9661128)
(841.40953 -17.751783 -13.801598)
(1113.0865 -84.522649 11.658481)
(1062.7037 -78.888634 4.1523903)
(1010.9193 -72.865353 -4.5779807)
(1301.9762 -158.48733 20.190057)
(1248.6212 -148.93114 13.212237)
(1193.5526 -139.06565 4.1682298)
(1500.3586 -244.0295 27.24243)
(1444.5243 -229.95633 20.276593)
(1386.0928 -215.63626 11.162118)
(1704.8972 -340.15599 32.119245)
(1646.9325 -321.3058 25.45267)
(1586.0053 -302.09045 16.63121)
(1911.6832 -445.69092 33.982979)
(1852.3469 -421.88646 28.018678)
(1789.7956 -397.65899 19.461675)
(2116.9587 -558.60637 32.818909)
(2056.8254 -530.13727 27.478636)
(1993.3614 -500.83819 19.518195)
(2317.29 -677.4822 28.15778)
(2256.5016 -643.99062 23.818195)
(2192.797 -609.97714 16.856041)
(2508.7189 -797.91423 20.849095)
(2447.8885 -760.99285 17.826024)
(2385.2554 -723.56547 11.599486)
(2690.1081 -921.35461 11.603229)
(2630.3179 -880.74738 8.8073689)
(2567.2917 -838.64659 4.0613922)
(2860.4588 -1042.4398 -0.21221504)
(2799.2828 -998.17401 -0.69353301)
(2738.5757 -954.94176 -4.8799795)
(3017.8965 -1160.352 -11.236567)
(2957.3275 -1114.0398 -11.716336)
(2897.9519 -1069.3734 -14.392352)
(3166.3583 -1277.025 -21.377582)
(3106.8941 -1229.9121 -22.528507)
(3047.5283 -1183.515 -24.358587)
(3305.6673 -1388.6576 -32.866176)
(3247.0199 -1340.7704 -33.518646)
(3187.1446 -1292.7521 -33.769398)
(-11.300793 9.1023981 -14.0307)
(-0.068608248 36.773677 -19.772091)
(24.204354 41.429377 -17.606669)
(74.870794 50.283136 -22.665508)
(138.92148 46.779388 -18.461445)
(223.87053 37.033547 -15.213426)
(325.52369 15.190342 -8.4968465)
(443.82401 -17.648328 1.9005012)
(579.33955 -61.204319 13.854027)
(727.35555 -117.25889 27.426374)
(888.28292 -183.97711 41.61394)
(1059.7511 -261.8714 55.291777)
(1238.7284 -349.0504 67.262276)
(1423.5018 -444.83312 76.734887)
(1610.5179 -547.40062 83.007218)
(1796.9554 -654.75342 85.616879)
(1979.9348 -764.99787 84.96348)
(2157.2039 -876.00526 81.190718)
(2327.3725 -986.66907 74.811902)
(2489.9687 -1095.4411 67.31766)
(2645.8072 -1202.6506 58.25132)
(2797.9611 -1308.3903 49.325369)
(2932.0111 -1405.4213 40.541815)
(-25.266701 4.5818173 7.6443035)
(-10.232947 0.72382128 4.7457313)
(27.416974 -15.075905 5.5533279)
(81.315437 -26.410804 6.5822623)
(149.62417 -52.054385 12.664521)
(239.1252 -82.849071 22.513935)
(336.57588 -122.7258 34.713876)
(448.74564 -168.83325 50.460235)
(565.80904 -222.12851 66.686443)
(689.37675 -280.04741 84.246547)
(816.9591 -342.88388 101.26608)
(947.57768 -410.06146 116.1413)
(1081.3872 -481.66921 128.97164)
(1218.9302 -558.53218 138.59488)
(1360.9174 -641.03991 144.64405)
(1508.6217 -730.30837 147.85279)
(1663.8254 -827.0089 147.84597)
(1828.0227 -932.00256 145.41954)
(2002.7428 -1045.9905 141.15778)
(2189.4201 -1169.2825 135.30101)
(2388.4159 -1302.0051 128.46931)
(2599.6208 -1443.5334 121.52045)
(2846.5472 -1607.8035 115.2078)
(-30.972726 -22.964345 16.498725)
(-8.4188051 -34.244017 27.356037)
(19.089208 -79.595104 43.277321)
(64.241046 -92.488657 47.932593)
(131.23906 -139.11333 66.598802)
(205.44815 -184.1177 78.122329)
(289.43258 -229.03068 94.708731)
(381.26933 -284.31163 111.01225)
(479.30447 -338.281 127.39093)
(584.35236 -399.63189 144.17239)
(696.01251 -463.16925 159.12121)
(816.92991 -533.57799 173.08424)
(947.08025 -611.25873 185.74845)
(1088.7425 -696.92193 196.10603)
(1242.4081 -792.55888 205.0455)
(1409.2703 -898.35935 211.81002)
(1589.31 -1014.7109 216.31207)
(1782.1398 -1141.6398 218.56688)
(1986.4048 -1278.1894 218.40757)
(2199.8554 -1423.1992 215.79986)
(2418.7858 -1574.4119 211.16781)
(2640.1051 -1729.274 205.12484)
(2866.2809 -1889.9146 198.69197)
(4.0093608 6.7593709 3.967169)
(-2.9760662 6.1127326 -2.478065)
(1.6227407 3.1833243 -11.114623)
(33.625457 31.521164 -6.5492968)
(28.135799 28.291881 -11.845846)
(15.405372 29.913323 -15.859479)
(78.388218 38.074635 -7.577857)
(59.848032 36.619944 -10.422185)
(49.555716 34.370743 -15.629186)
(139.36151 47.703437 -9.2302457)
(123.1183 44.97628 -14.265073)
(103.19414 42.499852 -18.783289)
(222.78326 44.527074 -9.1579269)
(198.32092 39.769265 -12.473443)
(174.57439 39.948341 -15.336632)
(323.43433 31.136055 -4.1406493)
(293.95855 29.432172 -7.4457919)
(264.44539 28.41549 -11.714963)
(440.84139 8.0346183 2.8706984)
(407.18702 5.5947658 -1.4303824)
(373.87397 6.2411434 -4.2393731)
(576.32727 -29.379929 12.150252)
(536.9837 -31.970207 8.7739125)
(497.15569 -29.279049 6.1082934)
(723.82655 -82.327036 25.090006)
(679.66673 -80.806589 21.714633)
(637.22589 -75.757638 18.8989)
(883.99261 -146.73425 38.122681)
(836.06159 -144.12691 34.762814)
(788.32452 -135.74334 32.276914)
(1052.5525 -225.5621 52.444477)
(1000.6461 -218.88815 49.83748)
(949.32018 -206.19788 47.032205)
(1227.0223 -315.44211 65.467141)
(1172.33 -304.90286 63.216381)
(1118.3581 -287.55748 60.403109)
(1405.6924 -415.39226 76.854585)
(1348.9783 -400.22383 75.028008)
(1292.4014 -377.68697 72.031194)
(1585.9055 -523.02119 85.458061)
(1527.6046 -503.09358 83.915452)
(1469.465 -475.26963 80.940901)
(1765.368 -635.97051 90.693423)
(1706.4886 -611.35029 89.332827)
(1647.5659 -578.52278 86.29383)
(1942.7872 -752.18119 92.625128)
(1883.7205 -722.76543 90.994777)
(1824.4483 -685.59843 88.201942)
(2116.3761 -868.66895 90.980179)
(2057.4961 -835.58015 89.381566)
(1998.5072 -794.74982 86.739369)
(2285.594 -985.25284 86.687017)
(2227.2074 -948.22856 84.661757)
(2169.1172 -904.94795 82.308224)
(2450.4726 -1099.7755 79.729791)
(2394.3263 -1060.9677 77.498035)
(2335.4271 -1014.4364 75.518553)
(2625.0454 -1217.9032 71.197084)
(2546.1185 -1165.5017 68.948714)
(2499.2812 -1124.2732 67.613953)
(2783.6738 -1329.0653 61.963078)
(2707.2262 -1276.7884 59.669356)
(2660.2649 -1233.3867 58.410722)
(2936.6713 -1436.5608 50.953494)
(2878.6233 -1391.0172 49.655916)
(2822.5255 -1342.7082 49.444414)
(3099.7824 -1547.6824 40.871664)
(3042.7242 -1501.4994 40.584396)
(2985.2192 -1452.8813 40.64369)
(-0.077976011 1.7953339 -6.8818557)
(-2.5833554 -0.74365592 -6.7557258)
(-3.2138121 4.4857904 0.82039135)
(35.689643 -2.0042043 -14.326738)
(28.93699 -2.5998597 -8.06309)
(12.942889 -2.0883997 -0.79841032)
(86.373221 -12.284887 -6.3533109)
(71.438469 -17.005352 0.67339822)
(57.289378 -13.020441 2.9931462)
(151.99411 -24.791254 -3.9929263)
(138.81225 -34.16894 0.81803549)
(113.83442 -31.784339 4.1619849)
(242.18927 -50.370814 5.946183)
(217.6043 -58.035195 13.609965)
(186.58723 -50.941809 11.536734)
(341.35775 -82.244834 18.083255)
(312.66994 -89.634747 21.671118)
(279.21807 -84.178378 22.379534)
(455.07979 -122.9795 30.446903)
(421.17838 -130.79256 35.772182)
(380.71819 -123.98844 34.102344)
(577.67844 -176.29725 48.10282)
(537.71117 -180.39505 52.384623)
(493.34483 -170.11824 50.937086)
(704.43596 -233.92925 63.71026)
(659.69 -235.78416 67.661998)
(612.95596 -224.86978 66.817135)
(835.89657 -301.06612 81.847724)
(787.76553 -299.24418 85.846008)
(737.20043 -284.55253 84.82922)
(968.79846 -374.1468 97.710586)
(916.35779 -367.54511 101.40202)
(864.86013 -350.52827 101.14645)
(1103.132 -452.80986 112.37498)
(1049.0348 -441.4341 116.04485)
(996.03248 -420.99059 116.14094)
(1239.798 -537.11415 124.63892)
(1183.5975 -520.61917 128.08829)
(1130.0437 -496.99219 128.73362)
(1378.8106 -626.79324 134.00756)
(1321.6659 -605.3616 137.10689)
(1268.1302 -578.55433 138.41319)
(1522.5266 -722.48209 140.43694)
(1464.977 -696.13179 143.19237)
(1411.5017 -666.18633 144.87088)
(1672.3116 -824.29238 143.91233)
(1614.8148 -793.68495 146.23541)
(1561.3385 -760.89251 148.34018)
(1830.7139 -933.38735 144.58118)
(1773.2154 -899.16446 146.45266)
(1719.8901 -863.25397 148.82443)
(1999.3821 -1050.5866 142.76991)
(1942.5049 -1012.6837 144.32386)
(1888.7837 -974.25666 146.67053)
(2180.5986 -1175.6391 139.18193)
(2123.4391 -1135.546 140.19728)
(2069.3829 -1094.2713 142.6216)
(2374.4172 -1310.203 133.22524)
(2318.4805 -1267.0803 134.75002)
(2263.5151 -1224.5263 136.96468)
(2572.2126 -1447.3296 127.61295)
(2543.3454 -1417.7358 130.32929)
(2469.2309 -1363.1285 129.55355)
(2804.4934 -1604.3184 120.49943)
(2745.8492 -1557.9328 121.74743)
(2688.7196 -1510.175 122.36772)
(3034.8027 -1761.6621 114.45915)
(2976.0103 -1713.4152 114.94331)
(2917.3786 -1664.323 115.39241)
(-0.12029248 -12.238721 -4.0970176)
(-7.7009608 -8.6086369 1.7260285)
(-12.672397 -11.73622 9.4927122)
(38.072639 -32.966003 -2.4332551)
(31.347345 -23.496305 9.8904416)
(16.509063 -31.534764 22.039913)
(80.070719 -58.731688 8.9758396)
(66.366344 -70.398875 21.5245)
(51.806977 -72.819586 33.181406)
(151.05593 -99.025488 17.561694)
(129.00967 -90.217327 28.530437)
(105.12133 -96.706125 37.768442)
(226.83122 -134.41093 34.400868)
(200.54005 -138.67546 45.258191)
(173.94936 -139.99201 54.933998)
(317.21472 -182.82739 47.963995)
(285.23883 -181.03165 57.377978)
(252.88395 -184.32134 65.023915)
(414.84021 -237.28135 67.295112)
(377.75936 -233.20789 77.083253)
(341.10457 -233.75979 84.261725)
(517.3862 -292.71876 84.743641)
(475.58606 -288.96095 92.305241)
(434.85967 -288.49 100.3051)
(625.55508 -356.7625 103.4192)
(580.45412 -348.43578 112.15091)
(535.75812 -345.26231 118.35545)
(738.80054 -425.13773 121.88491)
(690.47969 -414.61841 129.2162)
(642.23875 -409.07058 135.49586)
(857.57318 -498.90187 138.81203)
(806.79845 -485.12118 146.08335)
(755.32069 -475.9634 152.33636)
(983.80179 -580.26202 155.26186)
(931.19107 -562.90876 162.19178)
(876.79422 -549.86001 167.77094)
(1118.4857 -668.90004 169.94388)
(1064.1975 -648.37639 176.25073)
(1007.2763 -631.35077 181.73792)
(1263.609 -766.97932 183.13827)
(1208.2363 -743.0379 188.9878)
(1149.1206 -721.10666 193.99286)
(1420.418 -874.82791 194.49964)
(1363.952 -847.55337 199.74721)
(1303.1764 -820.91987 204.09072)
(1590.0381 -993.38327 203.7391)
(1532.5981 -962.81378 208.18012)
(1470.4288 -931.1945 212.054)
(1772.589 -1122.6258 210.45141)
(1714.1207 -1088.6339 214.33651)
(1651.3837 -1052.2613 217.48928)
(1967.7641 -1262.0915 214.73819)
(1908.4656 -1224.5789 217.71893)
(1845.1231 -1183.7867 220.21769)
(2174.0443 -1410.3775 215.99043)
(2113.5858 -1369.2951 218.2844)
(2050.5915 -1325.1116 220.49354)
(2389.1386 -1565.2993 214.66766)
(2328.4023 -1521.9218 216.48185)
(2265.3992 -1474.1791 217.65727)
(2610.3051 -1725.7184 211.15547)
(2547.7844 -1678.19 212.08667)
(2485.6754 -1629.163 212.89565)
(2832.6785 -1886.3216 205.47316)
(2770.7042 -1837.3635 205.57979)
(2708.1367 -1785.9246 206.09263)
(3052.2858 -2044.1843 198.66493)
(2989.9922 -1994.3395 199.15708)
(2928.1899 -1941.6202 199.40317)
)
;

boundaryField
{
    free
    {
        type            zeroGradient;
    }
    fixed
    {
        type            fixedValue;
        value           uniform (0 0 0);
    }
    traction
    {
        type            zeroGradient;
    }
}


// ************************************************************************* //
