/*--------------------------------*- C++ -*----------------------------------*\
  =========                 |
  \\      /  F ield         | OpenFOAM: The Open Source CFD Toolbox
   \\    /   O peration     | Website:  https://openfoam.org
    \\  /    A nd           | Version:  6
     \\/     M anipulation  |
\*---------------------------------------------------------------------------*/
FoamFile
{
    version     2.0;
    format      ascii;
    class       pointVectorField;
    location    "0.34";
    object      lm;
}
// * * * * * * * * * * * * * * * * * * * * * * * * * * * * * * * * * * * * * //

dimensions      [1 -2 -1 0 0 0 0];

internalField   nonuniform List<vector> 
3969
(
(-4.0340813e-15 -4.7705825e-17 1.3312818e-16)
(9.2297575e-16 -2.6090405e-16 -6.0252577e-16)
(1468.0466 -309.83039 19.247871)
(1658.3672 3.7893169 -13.720429)
(-7.1783695e-15 2.6020842e-15 -1.0366567e-15)
(-4.622429e-15 2.1493156e-15 -1.5432914e-15)
(1635.4904 115.02641 38.591215)
(1441.5406 -262.30829 -23.173139)
(-6.09887e-15 1.0869625e-16 -2.0095736e-16)
(-3.193382e-15 6.5333688e-16 6.3735029e-17)
(-2.9260211e-15 2.9260844e-16 -4.8432863e-17)
(-1.7497804e-15 -1.5755452e-16 -2.074758e-16)
(-4.3254872e-15 8.6218995e-16 7.3228779e-16)
(-2.4697388e-15 -4.9707839e-16 4.8086129e-16)
(5.2680668e-16 -4.7467027e-16 -5.3018058e-16)
(1430.197 -244.7825 21.843969)
(1407.3582 -199.25032 22.22748)
(1443.467 -174.92455 14.299663)
(1532.0073 -160.04631 2.6035236)
(1631.4404 -141.32139 -10.111413)
(1693.2083 -106.19504 -18.376767)
(1691.3687 -54.170945 -17.954074)
(48.188117 59.195658 54.533861)
(86.221338 92.963817 57.447233)
(128.31754 120.22273 58.163998)
(172.86189 142.45169 56.446906)
(214.1573 162.83238 57.648765)
(255.87514 180.71386 58.971214)
(296.74485 199.64859 63.997642)
(342.17257 218.53426 67.250811)
(392.59469 238.36334 71.304543)
(452.33378 257.53252 71.921331)
(521.70056 275.73672 71.151848)
(601.0106 290.62061 67.891755)
(689.44887 301.72981 63.223857)
(785.14379 308.12451 58.53782)
(886.36328 309.48112 54.107829)
(991.93027 306.19149 50.651001)
(1101.9127 297.93902 47.352478)
(1216.5412 284.71264 43.020294)
(1336.6374 265.93972 36.311479)
(1462.2978 240.83961 25.853377)
(1592.6538 208.35498 11.190418)
(1724.9753 168.04893 -7.0930238)
(1854.9559 119.92349 -27.22682)
(1976.8604 65.40265 -46.355532)
(2085.1213 6.3131947 -61.389411)
(2174.3788 -53.534148 -69.60977)
(2241.5679 -111.45273 -69.166702)
(2286.2606 -164.51685 -60.335121)
(2310.6241 -210.82194 -45.147811)
(2318.9479 -249.97298 -26.764345)
(2317.0742 -282.90648 -9.6801003)
(2310.3593 -311.41827 2.232196)
(2302.9708 -337.75004 5.958984)
(2296.4887 -363.91033 0.76923092)
(2290.1808 -390.56998 -12.384899)
(2279.7111 -417.96096 -30.496173)
(2260.9672 -444.79942 -48.54662)
(2228.1513 -468.11156 -62.622048)
(2177.8815 -486.04815 -69.304383)
(2108.441 -494.72008 -66.351477)
(2022.1517 -493.88024 -54.456293)
(1923.2668 -481.2681 -35.981281)
(1819.101 -458.89305 -14.624402)
(1718.7382 -429.11763 4.3150878)
(1626.9977 -394.5599 16.670091)
(1553.2633 -362.26126 22.073356)
(1489.1659 -327.05566 17.175312)
(2.2369492 -46.108638 -57.662128)
(43.016751 -63.520838 -42.62733)
(84.129458 -83.616008 -42.311289)
(127.09509 -97.181662 -25.082307)
(167.35457 -112.45711 -20.25975)
(201.61852 -128.02788 -15.910005)
(234.03369 -145.12821 -17.553972)
(266.03889 -167.45502 -21.299911)
(301.82039 -192.35466 -26.22471)
(344.19822 -222.38224 -30.331855)
(394.40435 -253.64016 -33.095388)
(454.13995 -287.87563 -32.660667)
(521.41048 -322.02293 -30.408048)
(595.59034 -356.4814 -25.839087)
(673.98465 -390.81974 -20.646358)
(756.28449 -425.25382 -15.317706)
(841.67448 -460.29013 -10.561052)
(931.19215 -495.74033 -6.214367)
(1026.0468 -531.65392 -1.70215)
(1127.8336 -566.84901 3.8846353)
(1237.1555 -599.73731 11.757479)
(1353.6976 -628.37331 22.417284)
(1474.8156 -650.40556 36.186332)
(1597.3916 -664.45876 52.862958)
(1716.2347 -669.08329 71.225294)
(1825.8513 -664.69973 89.114372)
(1922.2724 -652.2422 104.17552)
(2001.2605 -633.16683 115.65716)
(2062.9531 -610.27046 122.03813)
(2108.6165 -585.98125 123.18153)
(2141.8806 -562.42926 119.80358)
(2167.0668 -540.5066 113.6601)
(2188.6556 -520.14805 106.83309)
(2210.0672 -500.14808 101.69616)
(2232.5164 -478.30981 99.87673)
(2254.8981 -452.29198 102.21028)
(2273.986 -419.89172 108.48795)
(2283.4414 -380.40215 116.73726)
(2277.7145 -332.87098 123.96382)
(2252.5579 -280.24475 127.251)
(2205.2276 -224.24415 123.97161)
(2137.0795 -169.36529 112.75964)
(2052.6865 -119.50158 94.285966)
(1959.2996 -77.925548 70.804402)
(1865.6828 -46.387202 45.795737)
(1779.8926 -24.253463 22.706079)
(1710.1816 -9.8276897 3.6948402)
(-3.9179893e-16 -2.8384427e-17 -1.6191597e-16)
(6.8869455e-16 3.3255846e-16 -2.9305012e-16)
(-3.0379221e-16 -4.0639439e-16 3.7376104e-16)
(8.6048107e-16 -8.7588792e-17 1.0515471e-16)
(5.0258192e-16 -7.4376592e-16 6.4035694e-16)
(-2.9679417e-15 -3.4669267e-16 7.3060073e-16)
(8.9003905e-16 -2.834795e-16 1.0120244e-16)
(25.813207 -34.239159 47.029263)
(59.277412 -92.829262 46.534948)
(102.42894 -88.470841 36.673101)
(138.15141 -119.16508 33.245459)
(176.76125 -135.57627 39.065488)
(198.51207 -145.14904 45.071075)
(226.12574 -170.11223 57.58652)
(251.79523 -182.69163 67.325519)
(286.43894 -212.56769 73.872164)
(331.32862 -239.05498 74.610934)
(385.78195 -273.85119 71.43205)
(450.51119 -308.20773 63.42836)
(523.77542 -345.09308 52.603554)
(601.97232 -382.2974 42.824509)
(681.13695 -417.99584 35.75339)
(760.52845 -453.23548 32.4385)
(841.63877 -487.1473 31.077905)
(926.03265 -521.52143 29.971642)
(1017.8687 -556.13392 25.706975)
(1119.1807 -591.46371 16.329305)
(1231.1405 -626.34465 0.81849876)
(1351.9133 -659.04865 -19.71357)
(1477.329 -686.97322 -42.473883)
(1601.2264 -707.1293 -63.325463)
(1716.8222 -717.33022 -78.216031)
(1817.4789 -715.36608 -83.732924)
(1901.7105 -703.37648 -79.110014)
(1969.6908 -681.5392 -67.106713)
(2020.5247 -652.85196 -48.116707)
(2058.1821 -620.35822 -26.561556)
(2087.5481 -586.87553 -6.6365285)
(2113.383 -554.67625 7.630696)
(2139.8242 -524.76517 13.516338)
(2168.3764 -496.78974 10.267093)
(2198.7685 -469.16674 -0.63203053)
(2226.6662 -439.63847 -16.166574)
(2249.6788 -403.09306 -29.669196)
(2254.5795 -360.56629 -42.120758)
(2244.3742 -308.39811 -43.99007)
(2209.9725 -248.19661 -36.011209)
(2154.2777 -182.3603 -18.998543)
(2079.2698 -115.17288 3.7952002)
(1992.1556 -52.290867 27.240705)
(1901.0811 1.8422001 45.907009)
(1814.2197 43.800615 55.501281)
(1737.4988 73.197248 55.086881)
(1667.6765 92.337264 45.582504)
(1670.4643 59.197723 33.290107)
(1667.1957 2.1545294 26.199547)
(1597.1874 -45.738007 13.922868)
(1489.2994 -80.46891 2.3818361)
(1416.3625 -111.03817 -8.2938758)
(1390.0657 -146.46756 -16.27099)
(1417.2804 -197.07162 -19.788343)
(1476.3583 -282.35182 -13.158238)
(1546.7402 -325.3614 -6.3011702)
(1625.3828 -366.81441 8.9415343)
(1714.4109 -408.24509 24.867471)
(1810.9047 -444.49823 41.160181)
(1909.3693 -470.22133 55.445302)
(2003.13 -482.96231 65.679409)
(2086.6326 -482.2934 71.415798)
(2155.7028 -470.38939 72.99071)
(2207.9133 -451.21742 71.685082)
(2243.5447 -428.92645 68.817563)
(2266.6308 -403.56542 62.691292)
(2280.3814 -385.27501 63.335574)
(2287.434 -368.63982 63.061291)
(2290.9639 -354.6467 65.609406)
(2292.2134 -340.13822 68.474028)
(2290.1743 -321.41861 71.104598)
(2282.3059 -294.70171 71.588145)
(2264.5594 -258.11002 69.453646)
(2233.212 -209.86447 63.107707)
(2184.613 -152.55679 53.824801)
(2117.1993 -87.703732 41.41662)
(2031.2096 -20.672378 27.772894)
(1929.1812 44.600469 14.313541)
(1815.102 103.83612 2.6660916)
(1693.5256 154.36183 -6.3281095)
(1569.0983 194.91605 -12.297014)
(1445.4444 225.85933 -15.544978)
(1324.8459 248.69105 -17.091261)
(1208.2478 265.16938 -17.98403)
(1095.8832 277.01221 -19.348735)
(986.66152 285.5309 -21.895767)
(883.42014 290.6767 -26.035857)
(780.4098 290.93493 -30.205003)
(683.87095 287.10654 -35.507065)
(595.29971 278.61771 -38.757828)
(516.15336 264.69801 -40.669463)
(447.09057 246.46617 -39.521952)
(387.5898 226.25527 -37.58303)
(338.56541 204.87546 -32.791821)
(296.455 184.1046 -29.035375)
(255.49821 163.52213 -26.488835)
(217.34003 145.98734 -26.622314)
(174.7771 125.9681 -30.728786)
(133.48079 106.19168 -35.529652)
(83.775192 79.932977 -42.640702)
(63.569045 56.376761 -34.947557)
(-6.7652979e-16 3.5118239e-16 1.2802193e-16)
(-2.3129286e-15 2.7505878e-16 1.3239036e-16)
(-3.6393531e-15 -1.4253491e-16 -1.5464221e-16)
(-4.9195801e-15 -9.3657526e-16 4.6870719e-16)
(-4.0844143e-15 -8.2232132e-16 1.723462e-16)
(-2.0271537e-15 -1.8079967e-16 2.6438577e-16)
(-2.0670014e-15 8.6459225e-16 1.4474963e-15)
(-4.5036838e-15 1.2268482e-15 -2.065022e-16)
(-1.9919023e-15 1.1694967e-15 -1.6367101e-16)
(-2.9438013e-15 1.1112212e-15 -1.969436e-16)
(-2.4504202e-15 9.597151e-16 -1.1789697e-16)
(-5.2893259e-15 2.5926013e-15 -8.0820905e-16)
(-1.8775489e-15 1.1365606e-15 -5.8525306e-16)
(-7.4714327e-17 -2.094137e-16 9.7564992e-17)
(1663.4873 21.57228 -7.4797876)
(1663.9287 37.9674 0.73243726)
(1662.5341 54.82327 8.3931309)
(1658.3275 71.470175 16.30655)
(1653.151 86.443478 23.767996)
(1646.064 97.021868 29.459599)
(1641.8642 107.0101 37.859928)
(1464.7779 -309.51861 16.215921)
(1461.8026 -307.65487 9.7524415)
(1456.6239 -304.76316 2.6652649)
(1450.9546 -299.84255 -4.3431372)
(1445.7822 -293.52168 -11.109277)
(1441.2495 -284.65531 -16.696229)
(1439.8607 -273.92316 -22.48946)
(27.673905 29.661347 49.349952)
(66.385937 53.561122 40.620916)
(104.42453 78.016948 47.460652)
(146.37912 100.30767 46.861465)
(185.07733 119.65181 48.000263)
(226.16388 138.91676 50.280168)
(264.77739 156.02698 52.428845)
(307.27547 173.19156 55.954529)
(353.93566 188.71518 57.617545)
(408.6057 203.37226 59.15336)
(473.00729 215.8445 58.743022)
(548.56562 225.8976 56.978485)
(635.18277 232.77884 54.245924)
(731.72137 236.10534 50.859266)
(836.41203 235.49268 47.845302)
(947.68868 230.18846 45.145332)
(1064.7112 219.83063 42.441372)
(1186.9763 203.60291 38.885438)
(1315.4975 180.64029 33.271355)
(1450.2738 150.05421 24.528869)
(1590.984 111.59299 12.191636)
(1734.8875 65.849218 -3.2248747)
(1877.3828 14.35937 -19.880997)
(2011.7303 -40.19677 -35.241128)
(2130.6738 -94.750303 -46.312232)
(2227.6396 -145.8604 -51.068979)
(2298.2086 -191.7946 -48.049952)
(2342.0203 -230.88664 -38.582162)
(2361.2304 -263.51536 -24.353464)
(2361.7072 -290.99789 -9.1906228)
(2350.2087 -315.28024 3.6206688)
(2333.2709 -338.21409 10.91597)
(2315.5974 -360.99223 11.431528)
(2299.0292 -383.60883 5.1637297)
(2282.1 -405.07729 -6.0975449)
(2261.7843 -423.94089 -19.148157)
(2232.575 -437.37019 -31.008625)
(2190.1743 -443.86215 -38.748847)
(2132.0211 -442.02914 -40.116543)
(2057.3816 -431.60472 -35.364368)
(1968.4977 -413.63499 -25.227227)
(1870.3662 -389.34012 -12.28975)
(1768.7711 -362.06702 1.197703)
(1671.7946 -333.77879 11.85025)
(1584.9369 -306.80634 18.317272)
(1511.827 -283.5394 20.60826)
(1456.7751 -259.22323 19.219642)
(17.082531 22.74835 35.449552)
(50.032822 34.006198 32.67071)
(88.7993 56.708012 38.627221)
(127.52513 71.795928 37.767218)
(168.58439 89.541794 39.767295)
(207.48345 104.80653 40.286653)
(247.24024 119.24109 43.122707)
(289.27305 132.52335 44.072)
(335.07785 143.96047 46.539924)
(388.56397 154.06315 47.108253)
(451.44282 161.63239 47.003771)
(525.38684 166.45479 45.811738)
(610.70479 167.82121 43.812612)
(706.59968 165.52963 41.395198)
(811.62444 159.26926 39.078357)
(924.06497 148.51344 36.899926)
(1042.434 132.88182 34.811728)
(1166.765 111.55286 32.082024)
(1297.3064 83.900512 27.911511)
(1434.4595 49.496598 21.499508)
(1577.6033 8.5349083 12.523316)
(1724.1156 -37.845502 1.5545275)
(1868.9071 -87.54115 -9.9605612)
(2005.1386 -137.55896 -20.058758)
(2124.8071 -185.02682 -26.318254)
(2221.2205 -227.29443 -27.426436)
(2289.933 -262.70211 -22.708492)
(2330.4152 -291.09092 -12.923737)
(2345.8255 -313.61489 -0.82446014)
(2342.0653 -332.14685 11.235692)
(2326.5368 -348.6366 20.261261)
(2305.7958 -364.6707 24.392355)
(2284.7002 -380.73165 22.883493)
(2264.4454 -396.02017 16.246132)
(2244.2639 -409.42354 6.669049)
(2220.053 -418.41147 -3.9520557)
(2187.6558 -421.48275 -12.552979)
(2143.1226 -417.41372 -17.538053)
(2084.1806 -405.70651 -17.901633)
(2010.4809 -387.09921 -14.04254)
(1924.7191 -363.27636 -6.8511199)
(1831.5916 -335.90763 1.6055502)
(1736.4718 -307.86293 10.031976)
(1646.1662 -280.7639 15.996623)
(1565.3763 -255.76119 19.105725)
(1498.2959 -234.25833 20.42986)
(1445.2132 -211.28038 18.063409)
(9.226335 15.371401 27.373241)
(44.308383 26.847618 24.980371)
(80.688076 41.393856 28.929244)
(123.78559 54.966028 29.349228)
(164.38749 66.425566 30.783809)
(206.39851 77.438739 32.764634)
(246.88089 85.46844 33.621344)
(289.05848 92.870122 35.958617)
(335.44164 97.694568 36.556643)
(389.15908 100.75282 36.247379)
(451.83024 100.90759 35.53165)
(525.50692 97.957397 33.635751)
(609.3432 91.740705 31.716633)
(702.66757 82.07682 29.813417)
(803.7342 68.740333 28.331309)
(910.49837 51.283421 27.153584)
(1022.2896 29.777075 26.119813)
(1138.8301 3.8066664 24.56722)
(1260.8552 -26.906545 22.087677)
(1388.6268 -62.325382 17.955602)
(1521.7264 -102.09383 12.248765)
(1657.5276 -144.87426 5.3546072)
(1791.8755 -188.71728 -1.6330101)
(1918.2983 -231.12427 -7.1277629)
(2030.4039 -269.69727 -9.9184591)
(2122.0574 -302.38972 -8.9427255)
(2189.5207 -328.09305 -3.988108)
(2231.9086 -347.13303 4.2976638)
(2252.201 -360.74559 14.036607)
(2255.1027 -370.63486 23.482136)
(2246.9765 -378.82335 30.722877)
(2234.0198 -386.7787 34.333492)
(2220.5596 -395.09641 33.760354)
(2208.7356 -403.31145 29.502955)
(2197.5904 -410.05123 22.653949)
(2184.1209 -413.67489 15.203506)
(2164.1088 -412.16654 8.6842827)
(2132.9076 -404.359 4.660408)
(2087.5088 -389.72948 3.9046917)
(2027.0974 -369.05462 6.1262049)
(1953.303 -343.29818 10.475642)
(1869.8629 -314.60083 15.577038)
(1782.0317 -285.39512 20.111548)
(1696.6615 -257.1807 22.30355)
(1618.5449 -231.45263 22.254943)
(1552.9268 -209.1461 19.477388)
(1496.4225 -186.69953 14.964588)
(6.0538032 9.9844042 15.756966)
(42.515915 16.944542 13.582141)
(83.594034 27.9253 17.304169)
(127.88904 34.541495 19.137005)
(173.15998 39.098454 21.723346)
(214.97856 43.204226 22.995508)
(256.18393 43.207553 25.619682)
(298.67652 43.591524 25.548888)
(346.3104 40.489236 25.128402)
(401.19371 36.2124 24.121178)
(465.44597 28.236204 22.230212)
(538.93066 17.59957 20.182727)
(620.50988 3.7728371 18.644269)
(708.81392 -13.428456 17.511954)
(801.63091 -33.148505 17.024325)
(898.22227 -55.978302 16.993872)
(997.63664 -81.049929 16.970465)
(1100.6871 -108.93739 16.736217)
(1207.9797 -139.24652 15.7827)
(1320.1425 -171.93235 14.021093)
(1436.517 -206.47962 11.634376)
(1555.3543 -241.66662 8.9317738)
(1673.1293 -276.13012 6.9551732)
(1784.9567 -308.58944 6.0071962)
(1885.8253 -337.1069 7.5130627)
(1971.4067 -360.87418 11.495526)
(2038.9055 -379.03262 17.756826)
(2087.3901 -391.87776 25.649416)
(2118.4165 -400.07368 34.026352)
(2135.4323 -405.08302 41.654425)
(2143.2707 -408.27064 47.220824)
(2146.8567 -410.79377 49.78593)
(2150.3724 -413.70234 49.287792)
(2155.9389 -416.3541 45.720832)
(2163.6863 -418.75432 40.385682)
(2171.0298 -418.90358 34.192949)
(2173.4782 -415.60055 28.769264)
(2166.2954 -407.16718 25.133405)
(2144.6051 -392.95954 24.1255)
(2105.3694 -372.40053 25.013717)
(2048.0682 -346.36869 27.211967)
(1975.8419 -316.3537 29.374817)
(1893.7612 -284.3963 30.258559)
(1808.9286 -252.62894 28.876949)
(1727.8319 -222.81228 25.025625)
(1657.5338 -197.42547 18.075069)
(1592.036 -173.36398 9.9588472)
(-0.88149637 2.9981147 3.2591211)
(43.349937 10.112557 0.608322)
(86.390987 12.544923 4.9128561)
(137.13022 11.797246 7.5033271)
(182.8183 7.1681377 10.49194)
(225.09197 1.4378659 13.254384)
(265.78312 -6.8409347 13.872824)
(308.31794 -15.399056 12.906464)
(355.93002 -26.444484 11.991889)
(411.60926 -38.774909 9.7646424)
(475.42753 -54.235657 7.822104)
(547.28206 -71.26215 6.6949575)
(624.86288 -91.263602 6.2199573)
(706.73261 -112.90743 6.6339465)
(790.90708 -136.41185 7.6026036)
(876.7861 -161.21403 8.903423)
(964.43591 -186.95631 10.177156)
(1054.8578 -213.71394 11.306204)
(1149.1531 -241.22356 12.077488)
(1247.7843 -269.53373 12.677789)
(1350.764 -298.12093 13.01282)
(1460.2041 -327.94875 14.10134)
(1571.791 -357.37909 15.100051)
(1674.3918 -381.9424 17.760936)
(1770.0283 -403.45196 21.31869)
(1854.7133 -420.75757 26.440397)
(1926.0168 -433.69936 32.61547)
(1982.9408 -442.28994 39.448059)
(2026.0659 -447.02693 46.158496)
(2057.5212 -448.71343 52.074607)
(2080.6647 -448.31888 56.362051)
(2099.4957 -446.9042 58.744985)
(2117.5637 -445.32605 59.100844)
(2137.5648 -443.45674 57.494979)
(2160.1862 -441.64742 54.849558)
(2183.6103 -438.18112 51.705874)
(2203.9559 -432.1443 48.928539)
(2216.3529 -421.34974 47.454933)
(2221.5154 -405.77195 47.161499)
(2203.5715 -383.81542 48.036873)
(2160.7251 -355.46462 48.795019)
(2096.6143 -321.76819 48.65528)
(2016.6061 -285.05729 46.161677)
(1927.7613 -247.84248 41.005833)
(1839.8499 -212.86706 32.276678)
(1760.9138 -183.30517 20.309045)
(1686.4946 -157.48594 6.8647198)
(-3.2297826 -6.9570838 -16.868019)
(44.154318 -8.2177094 -14.078954)
(89.530433 -14.776884 -10.243041)
(140.82097 -25.337115 -5.0727341)
(185.41769 -39.178973 0.23215951)
(225.73681 -52.249947 1.8914209)
(263.99268 -67.515157 1.722071)
(304.11894 -81.754583 0.30559412)
(349.89878 -98.175068 -2.2175282)
(403.44161 -115.4586 -4.3567012)
(465.00901 -135.55601 -5.7382903)
(533.52327 -157.21896 -5.9627546)
(607.27355 -181.31107 -5.1440726)
(684.066 -206.40107 -3.2730968)
(762.49282 -232.47948 -0.99279233)
(842.37958 -258.83802 1.5989067)
(924.10556 -285.26632 4.0291567)
(1009.1023 -311.62 6.3909878)
(1098.3257 -337.96382 8.6631988)
(1192.6917 -364.0924 11.063122)
(1292.2146 -389.95993 14.040895)
(1396.9471 -415.50465 17.441588)
(1500.2567 -438.67551 22.901746)
(1603.9878 -459.32749 28.547114)
(1700.9587 -476.13623 36.051734)
(1789.3254 -489.22231 44.452757)
(1866.8043 -498.03306 53.022296)
(1932.1882 -502.29685 61.325277)
(1985.3011 -502.44271 68.641542)
(2027.6651 -499.29752 74.082396)
(2061.9674 -493.81011 77.374441)
(2091.5292 -487.16392 78.387036)
(2119.7721 -480.15326 77.412827)
(2149.2178 -473.05941 74.998741)
(2180.8209 -466.11042 72.406015)
(2213.1994 -457.52823 69.899873)
(2243.1036 -446.67698 68.824965)
(2264.6181 -431.32309 68.890566)
(2271.6272 -409.87377 70.638226)
(2269.2739 -383.87337 73.150658)
(2230.2081 -350.42274 73.389565)
(2168.0245 -310.94751 70.401982)
(2086.5332 -268.39317 63.579257)
(1993.6252 -225.46001 52.586195)
(1899.7568 -185.93824 38.171025)
(1813.84 -152.12144 21.715825)
(1736.0583 -124.89728 4.4239491)
(-4.2284471 -19.425339 -31.666192)
(43.311149 -23.491044 -28.653491)
(87.91934 -39.791125 -25.265232)
(138.01514 -57.224592 -16.40687)
(178.79346 -77.018684 -10.327272)
(215.63637 -96.3463 -8.4505989)
(249.06536 -116.73129 -8.3013076)
(284.23305 -136.04275 -11.139349)
(324.73837 -157.76303 -14.147565)
(373.22037 -179.55806 -16.630254)
(430.52894 -204.51348 -18.000713)
(496.06892 -229.93288 -17.841813)
(567.83617 -258.15951 -15.729501)
(643.29007 -287.03524 -12.741029)
(721.3906 -317.07698 -9.1545876)
(801.18317 -347.19352 -5.5732309)
(883.51002 -377.41656 -2.1201106)
(969.4726 -407.23674 1.2078994)
(1060.735 -436.32899 4.7498955)
(1158.5751 -464.3733 9.0775904)
(1262.9828 -490.72637 14.381217)
(1373.1519 -514.84891 21.536045)
(1485.8737 -535.42203 30.238646)
(1598.8659 -552.61135 40.269067)
(1706.5726 -565.26339 51.582576)
(1805.6076 -573.47424 63.035215)
(1892.3901 -576.64802 73.51727)
(1964.5159 -574.91381 82.770967)
(2022.1153 -568.9883 89.681742)
(2066.8521 -559.70907 93.937968)
(2101.8205 -548.15637 95.467448)
(2130.9222 -535.40557 94.737397)
(2158.0582 -521.86899 92.452589)
(2186.1845 -507.66003 89.775581)
(2216.2316 -492.36187 87.765396)
(2246.9493 -474.34618 87.198253)
(2274.7257 -453.03785 88.642215)
(2293.0644 -426.57508 91.440628)
(2295.8365 -394.62764 95.275308)
(2277.0272 -356.91603 97.250939)
(2233.1552 -314.13195 96.190172)
(2166.2026 -267.96819 90.359914)
(2080.36 -220.78756 79.380868)
(1984.2794 -175.49688 63.492001)
(1888.3293 -135.21212 45.095473)
(1801.2565 -100.68043 24.702697)
(1726.3617 -73.881046 6.0457924)
(-1.8726199e-15 -1.0357256e-16 4.2324109e-16)
(-4.3693994e-15 5.8098526e-16 1.0825799e-16)
(-1.86708e-15 5.0203615e-16 5.7484399e-16)
(-1.1298519e-15 4.4303811e-16 -1.5186772e-16)
(-1.5283164e-15 1.7502349e-16 4.7144117e-17)
(-3.9278597e-15 -6.147074e-18 -1.0233878e-17)
(-3.270765e-15 8.5080195e-17 2.8271762e-17)
(-1.444637e-15 3.1767481e-17 -1.0328492e-16)
(-1.9600489e-15 -2.0641393e-16 2.5996682e-17)
(-1.0758982e-15 -5.0887233e-16 -1.6282415e-16)
(-1.1902312e-15 -6.3217422e-16 -1.0496995e-16)
(-2.2455722e-15 -1.0363924e-16 3.7607835e-16)
(-1.7254929e-15 1.2766475e-16 7.9907906e-17)
(-6.542485e-16 2.4659353e-16 4.7610311e-16)
(-1.0183069e-15 2.0413811e-16 3.0876606e-16)
(-1.2825224e-16 3.2154578e-16 2.6910031e-16)
(-2.4669526e-15 5.8726168e-16 -3.2350189e-17)
(-1.9694108e-15 5.8752001e-16 2.9593509e-16)
(-1.9972486e-15 5.0741204e-16 1.6376266e-16)
(-5.0142844e-16 5.9082617e-16 -1.5096731e-17)
(2.8672985e-17 2.0007103e-16 -2.079567e-16)
(-3.5598279e-15 1.6770216e-16 6.1584209e-17)
(1.5219227e-15 -3.8112137e-16 -3.4960392e-16)
(-8.8364966e-17 -1.5289127e-16 1.7491834e-16)
(2.7397895e-16 -2.6900304e-16 -2.0413732e-16)
(-5.1236454e-16 -3.7600259e-16 -4.411389e-17)
(-1.3114086e-15 -5.3747975e-16 1.2489795e-16)
(2.0041989e-16 -4.4379834e-16 -1.4360784e-16)
(-1.3448657e-15 3.3966264e-16 -2.7012678e-16)
(-2.2010094e-15 1.2158219e-16 1.1470551e-16)
(-1.2722141e-15 -2.3577892e-16 -7.7366055e-17)
(-2.6936153e-15 2.298542e-17 6.0151854e-16)
(-1.8084585e-15 2.5926424e-16 8.2177642e-17)
(-1.0121806e-15 3.7760621e-16 1.5728837e-17)
(-3.5076342e-15 -1.049112e-16 -1.8966684e-16)
(-1.2388067e-16 -2.746004e-16 -1.3203227e-16)
(-1.1077126e-15 -2.2449831e-16 5.9960705e-17)
(-7.9462407e-16 5.2806017e-17 1.8160622e-16)
(-1.481116e-15 2.6347307e-16 -6.003674e-17)
(5.3541372e-16 1.9494005e-16 5.7756958e-17)
(-2.5861876e-15 -7.0653702e-17 -1.8824779e-16)
(-1.6152529e-15 1.8241927e-16 3.8488004e-16)
(-1.0389662e-15 3.299921e-17 2.9700946e-16)
(-3.8817577e-15 -1.9427146e-16 -1.2145786e-15)
(-1.6161979e-15 2.8442108e-16 -1.856842e-16)
(8.1577518e-16 1.8112067e-17 2.0819295e-16)
(-2.485062e-15 2.8178417e-16 -5.4749215e-16)
(-1.8307085e-15 4.4562511e-16 -1.4619564e-16)
(-1.4586292e-15 4.0358521e-16 -4.0281137e-16)
(25.386292 -14.524703 -29.330157)
(30.886447 -21.022859 -20.632277)
(37.794196 -22.111247 -11.569854)
(41.40742 -23.811383 -4.9189689)
(41.404126 -22.600264 2.5581471)
(40.947632 -24.732336 9.8452705)
(36.937533 -18.425002 23.08287)
(61.37715 -72.526058 -38.852018)
(70.381745 -85.043719 -20.478993)
(75.586803 -79.058546 -10.887571)
(78.354908 -77.211739 -2.9072504)
(80.562215 -83.707389 4.6006709)
(77.557276 -84.143865 15.00271)
(74.788794 -86.371445 31.423876)
(96.620678 -85.594193 -30.431228)
(109.25816 -81.557238 -23.603327)
(117.54962 -88.531366 -10.557635)
(119.6669 -89.269775 -1.9614698)
(121.28651 -87.947122 9.2133358)
(118.28897 -89.719472 15.311641)
(113.87397 -98.490234 31.19251)
(136.07794 -107.6031 -18.909054)
(142.68493 -110.8057 -14.421916)
(148.61502 -110.65562 -3.3695543)
(151.70318 -111.71113 2.7534055)
(152.44533 -113.36793 12.03091)
(149.51878 -118.07448 22.183907)
(143.67775 -118.57988 27.10898)
(172.58229 -119.96737 -15.041102)
(181.90924 -120.54803 -10.707132)
(188.72197 -124.73936 -1.2942739)
(190.73066 -125.35097 7.9320927)
(190.63397 -127.90437 17.144139)
(187.50205 -127.40229 24.763177)
(181.65113 -132.59524 32.121662)
(207.19259 -131.06523 -9.4679947)
(214.00826 -133.61046 -5.1714457)
(219.04476 -135.03913 4.68297)
(220.99351 -138.34284 12.498817)
(219.23991 -138.78309 23.215553)
(216.6018 -142.71692 33.730985)
(207.30929 -141.55011 40.638619)
(241.24125 -148.99143 -10.604159)
(248.40417 -150.75206 -3.374621)
(253.48657 -155.91862 7.2190662)
(254.21188 -157.93868 16.977524)
(252.62473 -160.8095 29.487823)
(245.97313 -161.71711 39.793057)
(237.78165 -162.54107 50.176753)
(275.08857 -167.67749 -11.910127)
(282.75771 -172.53955 -3.9932041)
(287.31961 -176.4098 8.9523141)
(288.02093 -179.10456 20.408743)
(284.80658 -181.54667 33.595738)
(278.34348 -181.79967 46.641834)
(267.52654 -180.56049 58.787716)
(313.25848 -195.67117 -16.13757)
(320.83409 -198.95757 -5.2724137)
(325.7492 -203.25296 7.8977933)
(325.84751 -208.17362 20.917242)
(323.119 -211.46277 35.547548)
(314.29789 -213.26625 49.65781)
(303.6638 -212.18909 65.102418)
(356.63382 -224.30255 -19.279375)
(365.12512 -230.14547 -7.9009778)
(369.74896 -235.77632 5.9269449)
(370.26431 -240.53607 20.23459)
(366.83316 -243.05757 35.011281)
(358.32851 -245.13493 49.276357)
(347.74183 -243.9295 64.524442)
(407.48476 -259.07739 -21.911158)
(415.60566 -264.54083 -10.133942)
(421.19811 -270.29501 4.3383192)
(421.39289 -275.2243 17.216681)
(418.82337 -279.71931 32.339389)
(410.57194 -282.42432 45.859354)
(400.59588 -282.05562 60.989505)
(466.19974 -294.1305 -22.765992)
(474.82578 -300.38283 -10.918654)
(479.40927 -306.25235 1.3734144)
(480.15868 -312.46793 14.511616)
(478.07632 -316.53559 27.821815)
(471.40492 -319.69858 40.073002)
(462.96498 -319.46988 54.232206)
(532.51003 -330.2799 -21.249271)
(539.61444 -336.25771 -10.782525)
(544.21345 -342.636 0.37742239)
(545.6924 -348.3677 11.750149)
(543.85657 -352.74242 23.794666)
(538.14212 -356.70846 34.080313)
(530.93365 -356.41989 44.515749)
(604.55482 -365.17581 -18.018536)
(610.74533 -371.72044 -9.10003)
(615.24302 -378.08699 0.17776124)
(616.08136 -383.83542 10.103214)
(614.4923 -388.65602 19.946022)
(610.80581 -391.17109 28.42866)
(605.0874 -391.82965 36.113799)
(680.95942 -400.09606 -14.080399)
(686.47679 -406.71548 -6.773175)
(689.92979 -412.66184 0.97699517)
(691.11977 -418.32537 9.666741)
(689.85166 -422.34762 17.474457)
(687.29727 -424.60608 25.052903)
(682.40595 -424.45388 30.275362)
(761.83138 -434.47015 -9.8587387)
(766.1544 -440.9927 -3.9906081)
(768.82225 -447.21831 2.6234576)
(769.68842 -452.34999 9.8931995)
(768.11135 -456.4926 16.738393)
(765.88243 -457.75417 23.28553)
(761.60138 -456.78459 27.717202)
(846.18999 -469.2453 -6.06058)
(849.54788 -476.06176 -1.1656943)
(851.31387 -482.09587 4.2490796)
(851.72366 -486.84379 10.816481)
(850.03431 -490.6922 16.590477)
(847.5236 -491.36651 22.696762)
(843.60967 -489.07068 27.160356)
(935.21372 -504.88538 -2.6635279)
(937.41196 -511.79823 1.1086477)
(938.3556 -517.94514 5.6959026)
(937.97376 -522.69072 11.089703)
(936.02641 -526.55486 16.133188)
(932.73774 -527.14394 21.637225)
(929.20662 -523.60356 26.633517)
(1029.5415 -541.21973 0.3976707)
(1030.6052 -548.28427 3.1032146)
(1030.7623 -554.61787 6.2268375)
(1029.589 -559.3741 10.26602)
(1027.614 -563.4474 14.185912)
(1023.6632 -564.36914 18.461748)
(1020.7639 -560.21519 23.541032)
(1130.4326 -577.28627 4.0299401)
(1130.1353 -584.49256 4.9461916)
(1129.3867 -590.81602 6.0119305)
(1127.562 -596.04249 7.9447164)
(1125.5554 -600.53491 9.9080675)
(1121.471 -602.47947 12.032031)
(1119.7605 -598.34279 15.994593)
(1238.0964 -611.36255 8.9149908)
(1236.0903 -618.36467 7.2791854)
(1234.4627 -624.7499 5.4220887)
(1232.1 -630.33582 4.2886573)
(1230.2584 -635.5412 3.3420952)
(1226.9917 -638.67302 2.1991775)
(1226.8551 -635.76143 3.232045)
(1351.743 -640.92114 16.002497)
(1347.8038 -647.54432 10.858183)
(1345.0567 -653.67424 5.227371)
(1342.2608 -659.78797 0.22985862)
(1340.6902 -665.74344 -4.6578317)
(1338.9727 -670.32913 -10.096348)
(1340.8629 -669.48762 -13.717488)
(1469.2166 -663.51891 25.704641)
(1462.9739 -669.31111 16.306658)
(1458.8865 -675.17432 6.4227088)
(1455.7244 -681.49863 -3.0333369)
(1454.4733 -688.17491 -12.649657)
(1454.8851 -693.98985 -22.749257)
(1458.9243 -696.03072 -32.406608)
(1587.1377 -677.12575 38.122165)
(1578.3312 -681.65907 24.123191)
(1572.7568 -686.95558 9.8448136)
(1569.1605 -693.31357 -4.1403381)
(1568.0908 -700.53466 -18.424856)
(1570.6415 -707.29458 -33.216876)
(1576.4425 -712.39185 -49.150227)
(1701.186 -680.2578 52.660102)
(1689.8666 -683.29879 34.173401)
(1682.5073 -688.12986 16.178243)
(1678.1098 -694.19697 -1.9392783)
(1677.3331 -701.49816 -20.530312)
(1681.1794 -708.64476 -39.08248)
(1688.3575 -716.67667 -60.572143)
(1806.8455 -672.90511 67.707718)
(1793.2539 -674.5573 45.987323)
(1784.0503 -678.58471 25.208828)
(1779.4925 -684.26599 3.3095623)
(1778.0918 -691.37576 -17.155618)
(1782.156 -698.46139 -38.786566)
(1789.2984 -708.64439 -63.685303)
(1900.2008 -656.69489 81.698738)
(1885.0685 -656.99539 58.538291)
(1874.4023 -660.18732 36.054629)
(1867.7802 -665.12309 13.254056)
(1866.1749 -671.92348 -9.2843068)
(1869.9084 -679.333 -32.499052)
(1877.1107 -690.01455 -57.889433)
(1978.0496 -633.79833 93.469605)
(1962.7418 -632.74767 69.963116)
(1950.2548 -635.60682 47.43831)
(1943.7727 -639.53704 25.053699)
(1940.0682 -646.04667 2.0063275)
(1943.1207 -652.74683 -20.128966)
(1948.5401 -663.91949 -46.133277)
(2040.4991 -607.04472 101.39013)
(2025.3914 -605.30175 78.897564)
(2012.5811 -607.37584 58.474873)
(2004.8255 -610.85014 37.14564)
(2000.6256 -616.40955 15.790602)
(2001.6545 -622.89254 -4.4095834)
(2005.3198 -632.75833 -28.616619)
(2088.7535 -579.72561 105.00083)
(2074.664 -577.49323 85.132603)
(2061.7468 -579.17813 67.283478)
(2053.4138 -581.89171 48.297976)
(2048.2702 -586.73 29.474182)
(2047.0281 -592.45793 11.956788)
(2048.917 -600.22339 -9.2083655)
(2125.5381 -554.02071 104.54076)
(2112.8288 -551.79244 87.925357)
(2100.3042 -552.93845 73.082362)
(2091.6185 -555.13279 56.793451)
(2085.9076 -559.04356 40.829834)
(2082.7298 -564.13527 25.981203)
(2083.2581 -569.31896 8.5051655)
(2154.5267 -531.24483 101.0774)
(2143.0874 -529.26462 87.616294)
(2131.3802 -529.79599 75.447453)
(2122.646 -531.44409 61.505025)
(2116.7842 -534.64124 48.006347)
(2112.253 -539.16956 35.259715)
(2112.1523 -541.7468 21.036891)
(2179.1503 -511.24315 96.059976)
(2168.6267 -509.53749 85.003521)
(2157.8997 -509.33129 74.552249)
(2149.4645 -510.55861 62.021596)
(2143.9018 -513.00355 50.164011)
(2139.002 -516.9718 38.247829)
(2139.1208 -517.43121 26.186885)
(2201.9994 -492.4497 91.454839)
(2191.6996 -490.83543 81.469065)