/*--------------------------------*- C++ -*----------------------------------*\
  =========                 |
  \\      /  F ield         | OpenFOAM: The Open Source CFD Toolbox
   \\    /   O peration     | Website:  https://openfoam.org
    \\  /    A nd           | Version:  6
     \\/     M anipulation  |
\*---------------------------------------------------------------------------*/
FoamFile
{
    version     2.0;
    format      ascii;
    class       pointVectorField;
    location    "1.01";
    object      lm;
}
// * * * * * * * * * * * * * * * * * * * * * * * * * * * * * * * * * * * * * //

dimensions      [1 -2 -1 0 0 0 0];

internalField   nonuniform List<vector> 
625
(
(0 0 0)
(0 0 0)
(-2189.6404 1162.9902 10.460268)
(-1766.9303 1683.9697 121.03721)
(0 0 0)
(0 0 0)
(-1787.4014 1809.8594 126.22133)
(-2210.3435 1288.7259 15.884858)
(0 0 0)
(0 0 0)
(0 0 0)
(-2084.0666 1292.5759 37.475762)
(-1979.0277 1423.0769 65.255637)
(-1873.0068 1554.5445 93.09331)
(32.232648 24.979243 9.5826023)
(60.684827 33.428566 7.7846068)
(84.512739 28.046668 10.467638)
(96.353983 14.851385 17.570317)
(91.728736 -5.5324007 26.431778)
(68.532371 -27.269512 39.371401)
(22.657595 -46.372078 50.756684)
(-43.994466 -58.150229 63.793714)
(-131.53144 -58.980864 75.616783)
(-236.77364 -47.409362 87.651253)
(-358.07993 -20.739677 97.31184)
(-491.1983 20.915439 105.53823)
(-633.26728 77.208673 111.78412)
(-780.7929 146.74212 115.35309)
(-931.11543 227.98644 116.24644)
(-1081.4765 318.56118 114.0971)
(-1230.62 416.17344 109.12734)
(-1376.3515 519.47649 100.67486)
(-1519.464 625.21981 90.113748)
(-1658.4253 732.67631 76.480997)
(-1794.1617 841.68001 61.239075)
(-1927.7454 949.26005 45.112368)
(-2059.136 1056.5969 27.570703)
(5.6617123 7.6877149 2.9941449)
(44.207096 16.618496 39.027647)
(79.989741 21.199235 68.896598)
(105.72073 39.63882 103.56674)
(119.88973 63.870911 135.31313)
(123.48147 90.561014 165.90123)
(109.49634 130.35692 193.27976)
(79.74625 176.15668 217.24572)
(32.407754 233.7005 237.13365)
(-31.428473 298.59714 252.73151)
(-111.05934 373.37746 263.20495)
(-205.87565 456.53662 269.05534)
(-312.56279 545.65405 270.73557)
(-430.27999 640.76486 267.78099)
(-555.95504 739.87777 261.36485)
(-687.57881 841.76167 251.53707)
(-822.98804 945.49213 238.87349)
(-960.32335 1050.1977 224.17874)
(-1097.9253 1155.5077 207.56214)
(-1234.9763 1260.7107 190.23979)
(-1370.3411 1366.4953 172.08446)
(-1504.0837 1471.9436 154.46031)
(-1636.4735 1578.011 136.96983)
(0 0 0)
(0 0 0)
(0 0 0)
(9.2738332 -12.64194 15.823697)
(22.484136 -35.674194 24.964229)
(38.377991 -21.496367 37.350719)
(40.18291 -6.626138 53.164334)
(40.693837 12.86677 77.304641)
(25.400071 58.041701 98.535632)
(3.5201404 101.98878 122.16164)
(-34.428204 168.46362 146.75352)
(-84.514114 239.66066 167.75622)
(-147.95801 322.73355 188.56257)
(-225.41061 414.49509 206.02548)
(-313.60008 513.02182 220.48209)
(-413.28664 617.7083 231.0333)
(-521.62042 725.71321 237.81629)
(-637.21742 836.51606 240.21906)
(-758.32429 948.08792 238.32509)
(-883.1751 1059.4813 232.50913)
(-1010.4613 1170.135 222.80843)
(-1139.0943 1279.2985 210.1017)
(-1268.3412 1387.0966 194.85262)
(-1397.729 1493.6196 177.98393)
(-1527.3008 1599.3288 160.35884)
(-1657.3462 1704.3882 142.86078)
(-1893.2213 1681.3899 98.468955)
(-1999.842 1549.2638 71.061979)
(-2104.26 1418.5179 43.92254)
(-2079.1713 1182.0793 31.213148)
(-1948.2598 1073.4938 47.209332)
(-1816.49 963.75738 62.966319)
(-1683.784 852.13844 78.48468)
(-1549.0863 739.5846 93.294977)
(-1412.2568 627.31597 107.00619)
(-1273.0139 516.53409 119.33022)
(-1131.7212 409.26401 129.92081)
(-989.19714 307.64797 138.39033)
(-846.89585 214.02279 144.59298)
(-706.65559 130.67561 147.88523)
(-571.17409 59.699558 148.55381)
(-443.04466 2.6145241 145.7347)
(-325.64441 -39.806593 139.80677)
(-221.14053 -66.420146 129.00634)
(-133.69769 -77.818233 117.4028)
(-63.382628 -79.468043 101.00286)
(-12.906784 -69.481224 82.571569)
(18.389331 -51.623341 62.078828)
(31.719094 -33.787242 41.325238)
(31.346554 -13.497312 21.402713)
(19.115141 -2.6661803 5.4511447)
(5.7953897 6.358026 -8.2188034)
(0 0 0)
(0 0 0)
(0 0 0)
(0 0 0)
(0 0 0)
(0 0 0)
(-1771.9099 1715.7056 122.45791)
(-1776.7329 1746.7417 124.24493)
(-1782.3772 1777.2592 125.01774)
(-2194.0422 1195.369 11.972501)
(-2199.5018 1226.4459 13.643912)
(-2205.1463 1257.9176 14.481354)
(25.822026 9.5353013 14.30466)
(60.213662 17.440782 9.8563703)
(86.015861 17.099521 21.679006)
(102.6482 9.8780349 33.281113)
(104.52046 0.75626101 49.402658)
(87.609274 -8.8124883 64.932871)
(50.67658 -12.548984 81.894291)
(-6.3819421 -9.408581 97.93104)
(-83.078313 5.0360094 112.6723)
(-178.79028 31.967226 125.81849)
(-289.68181 72.009624 136.25389)
(-413.50121 125.46412 144.64544)
(-547.25145 191.34578 149.83882)
(-688.07549 268.46191 152.10957)
(-832.91946 355.10298 151.27852)
(-979.51692 449.00779 147.3231)
(-1126.0046 548.84951 140.3282)
(-1270.5007 652.18105 130.41194)
(-1412.9736 757.84947 118.46532)
(-1551.631 865.03841 103.84756)
(-1688.0563 972.49799 88.441866)
(-1821.7046 1079.6383 71.764397)
(-1953.0948 1186.3448 54.688809)
(23.1328 11.332082 13.570512)
(54.930273 22.659199 24.149648)
(85.475812 26.799537 42.055792)
(106.4385 28.632871 60.88427)
(114.47954 27.195055 80.135953)
(105.10641 29.350719 100.79679)
(76.916638 37.121286 120.12466)
(28.702931 52.759011 137.84537)
(-38.673056 79.900201 153.43036)
(-124.05287 117.56871 166.43075)
(-225.50258 168.1867 176.54933)
(-340.52034 230.52256 183.48241)
(-466.51513 303.89384 187.1156)
(-600.47161 387.17509 187.64692)
(-739.73594 478.17619 184.97902)
(-882.09273 575.5525 179.23963)
(-1025.2578 677.36342 170.70766)
(-1167.6928 781.96299 159.68571)
(-1308.6455 888.65087 146.50397)
(-1446.7655 995.63581 131.5715)
(-1582.7617 1103.3657 115.53977)
(-1716.2535 1210.1224 99.031345)
(-1847.6523 1317.2153 81.98137)
(13.712132 22.887912 15.512156)
(54.014868 36.571246 30.501981)
(88.133312 44.327384 54.023607)
(114.81039 47.388739 78.013431)
(126.92185 53.575117 104.07159)
(122.81855 66.353317 129.58572)
(100.73008 83.674346 153.07722)
(59.878054 112.86821 173.90634)
(0.97657962 151.11341 192.42471)
(-75.857839 201.14425 206.84188)
(-168.48425 262.94064 217.76871)
(-274.85714 334.76892 224.60082)
(-392.58977 416.73191 227.6702)
(-519.12899 506.37257 227.00416)
(-652.04477 602.48356 222.70252)
(-789.1041 703.38486 215.2228)
(-927.93109 807.29509 204.83633)
(-1067.4971 913.38922 191.96809)
(-1205.9174 1020.1271 177.26786)
(-1342.9053 1127.5374 160.95342)
(-1477.7685 1234.5578 144.1239)
(-1610.8541 1341.477 126.72173)
(-1742.1441 1448.3787 109.62421)
(0 0 0)
(0 0 0)
(0 0 0)
(0 0 0)
(0 0 0)
(0 0 0)
(0 0 0)
(0 0 0)
(0 0 0)
(9.717385 -2.9107474 2.8349787)
(10.719576 -5.5896972 6.4053529)
(11.405607 -3.0146024 7.5575538)
(36.864637 -15.149875 35.332396)
(28.777157 -17.516075 28.907081)
(26.802655 -18.557859 26.051386)
(60.290729 -0.18065082 60.716983)
(51.034389 -1.3979654 52.063286)
(42.552085 -12.074852 43.641893)
(76.588879 22.124378 92.102047)
(61.002854 15.585009 80.013879)
(47.605866 11.600767 65.12745)
(87.125053 45.546973 121.42727)
(66.226945 41.447334 106.46874)
(50.415616 33.764548 90.293712)
(84.283023 82.294494 150.89998)
(59.289081 80.680025 133.83896)
(40.120071 73.692388 115.87625)
(68.474367 126.04675 177.43619)
(41.184093 126.0498 161.68914)
(18.972158 122.23377 139.65789)
(37.93038 181.12911 202.15332)
(7.3138925 180.32951 184.68612)
(-14.942199 180.90987 165.75912)
(-8.8244241 240.72785 222.24166)
(-38.651246 246.71023 207.40475)
(-63.815201 250.82688 186.59202)
(-69.908024 312.79877 239.57025)
(-101.41466 322.21119 224.51681)
(-125.9194 328.81347 206.41084)
(-147.7304 392.55353 251.32936)
(-177.54244 404.75784 239.10959)
(-202.18267 415.38567 222.41961)
(-237.99203 478.7939 259.59345)
(-266.83665 494.60148 249.17918)
(-290.91901 508.93639 234.81864)
(-341.3093 571.80848 263.16352)
(-368.22711 590.87998 255.03919)
(-390.85884 608.24748 243.26165)
(-454.72198 669.25523 262.63811)
(-479.1429 690.84544 256.86743)
(-500.4601 711.37857 247.59749)
(-576.34436 770.24537 258.25724)
(-598.21319 794.43826 254.48722)
(-617.72495 817.38469 247.7687)
(-704.20629 873.5494 250.22519)
(-723.29362 899.7338 248.4385)
(-740.87362 924.93703 243.73299)
(-836.17736 978.15937 239.17705)
(-852.43483 1006.0147 238.78507)
(-868.10607 1032.8689 236.02468)
(-970.5202 1083.4187 225.38543)
(-984.27594 1112.5477 226.21916)
(-997.80745 1140.7741 224.78535)
(-1105.8413 1188.843 209.66134)
(-1117.0475 1218.9132 211.18144)
(-1128.7574 1248.0602 210.82067)
(-1241.0214 1294.1349 192.463)
(-1250.297 1324.7672 194.32461)
(-1260.1477 1354.6232 194.68881)
(-1375.2823 1399.3261 174.46927)
(-1382.8465 1430.2989 176.51707)
(-1391.2091 1460.6417 177.22479)
(-1508.5151 1504.4989 156.59368)
(-1514.8362 1535.8207 158.4219)
(-1521.8878 1566.548 159.28404)
(-1640.5778 1610.0139 138.77906)
(-1646.3036 1641.3857 140.31447)
(-1652.3854 1672.1767 141.43711)
(-2088.4029 1324.8492 39.448053)
(-2093.5397 1356.2346 41.236032)
(-2099.1129 1387.6934 42.323861)
(-1983.5862 1455.182 66.888089)
(-1988.8625 1486.388 68.745345)
(-1994.2308 1517.8004 69.599114)
(-1877.8316 1586.5784 94.778165)
(-1882.9554 1617.7785 96.397751)
(-1888.1675 1649.4198 97.419507)
(32.477882 22.300833 1.8874442)
(22.665441 15.409879 -4.4280415)
(17.271294 10.464077 -6.1228287)
(51.20803 25.987015 2.1055569)
(39.637034 16.024145 1.3212356)
(29.232159 7.2247645 2.8765465)
(69.823707 20.987813 10.929785)
(54.720482 8.6874466 13.605878)
(40.736347 -1.9609661 17.300543)
(75.427751 7.8105282 21.516628)
(58.082668 -6.6233466 26.690596)
(41.595475 -17.407797 34.732141)
(67.186565 -12.577336 35.0906)
(46.54683 -24.415877 45.845623)
(28.359071 -36.056726 53.705054)
(38.499006 -30.623317 51.504998)
(17.494097 -42.931978 60.115103)
(-3.4059137 -53.059458 74.224815)
(-8.9408524 -46.824209 65.652109)
(-32.012599 -55.466544 77.899286)
(-53.343897 -64.632997 91.087477)
(-77.271162 -54.341999 80.853837)
(-100.97069 -61.840012 93.175649)
(-122.39826 -67.96673 106.94728)
(-164.54769 -53.858379 92.915908)
(-188.37576 -53.60889 106.80175)
(-211.24567 -57.453465 120.47204)
(-270.23423 -36.27183 105.93464)
(-292.70952 -35.422459 117.00535)
(-314.14593 -34.240453 131.09346)
(-389.08863 -6.802406 114.39075)
(-411.01484 -1.2037348 126.18878)
(-432.02585 2.755492 138.51042)
(-520.11002 37.552837 121.60913)
(-540.44197 47.645744 132.0104)
(-560.07724 55.380648 142.50174)
(-659.06361 96.334186 125.88128)
(-677.55537 110.5481 134.66851)
(-695.69992 121.75798 143.46116)
(-803.37526 168.16251 127.38239)
(-819.78052 186.12475 134.59727)
(-836.19483 200.60853 141.53211)
(-950.11831 251.29237 126.00522)
(-964.29213 272.43167 131.68223)
(-979.04763 290.10318 136.63452)
(-1097.0279 343.4821 121.77528)
(-1109.319 367.58863 125.84696)
(-1122.2013 387.98151 129.22807)
(-1242.8746 442.92064 114.48981)
(-1253.1094 469.18445 117.53068)
(-1264.242 492.082 119.41289)
(-1385.9396 547.21733 104.75293)
(-1394.6559 575.19679 106.70497)
(-1404.3129 600.27105 107.50033)
(-1526.4573 654.21072 92.428281)
(-1533.8143 683.84978 93.703599)
(-1542.0094 710.66653 93.903213)
(-1663.7683 763.13287 78.011746)
(-1670.4063 793.43291 79.20644)
(-1677.3603 821.70292 78.902354)
(-1798.6588 872.53884 62.381463)
(-1804.356 903.59159 63.262663)
(-1810.6641 932.68479 63.025385)
(-1931.6758 980.75757 46.107936)
(-1937.2472 1011.8213 46.589424)
(-1942.9019 1041.9909 46.708966)
(-2063.1495 1089.1556 28.678253)
(-2068.3341 1120.2041 29.237913)
(-2073.9541 1150.9418 30.408596)
(2.7258514 -2.4878816 0.27866842)
(21.448943 -14.207992 14.803754)
(32.070716 -25.079198 28.762845)
(37.240051 -35.467053 46.441916)
(27.56907 -45.672743 66.580245)
(2.7542629 -48.046701 85.773019)
(-39.012601 -42.409663 104.64162)
(-100.48589 -27.476791 121.42008)
(-177.79042 2.4413293 135.77971)
(-271.50536 43.537735 147.41954)
(-378.75369 99.396292 156.50092)
(-497.22448 168.53674 161.61446)
(-624.3749 249.00569 164.21267)
(-757.60931 339.74001 163.5817)
(-894.31096 438.60781 159.9833)
(-1032.7799 543.45586 153.72865)
(-1171.2177 652.21517 144.92587)
(-1308.741 763.18932 133.91123)
(-1444.6033 874.74027 121.03764)
(-1578.733 986.04646 106.69681)
(-1711.4572 1096.1247 91.260754)
(-1842.7277 1204.6125 75.3544)
(-1973.4415 1312.1964 59.371575)
(7.2071008 -0.9749618 5.1396133)
(25.749813 -11.881769 16.302114)
(38.849597 -16.685851 30.072092)
(45.763542 -21.183973 49.4819)
(39.098883 -20.004197 68.801551)
(19.093755 -10.082473 89.341128)
(-17.739093 6.3908374 109.85915)
(-71.709414 36.986154 128.77488)
(-141.1952 78.786007 145.71723)
(-226.65743 132.72289 160.66723)
(-325.53722 199.89846 172.11301)
(-435.23208 278.47018 180.76307)
(-554.70909 366.92206 185.97614)
(-680.39722 463.81305 187.64724)
(-810.75454 567.24041 186.04064)
(-943.63321 674.94841 181.22762)
(-1077.5757 785.49608 173.28434)
(-1211.3379 897.1249 162.81663)
(-1344.5012 1008.6493 149.97265)
(-1476.4719 1119.3574 135.4811)
(-1607.5953 1228.8555 119.75992)
(-1737.975 1336.4367 103.57344)
(-1868.1339 1443.8685 87.140103)
(1.7120598 -4.3384212 9.516915)
(29.113684 -5.0793109 22.509015)
(41.656624 -19.385035 38.560968)
(49.03126 -11.095927 53.865181)
(45.216136 -3.7498467 73.503802)
(27.341508 14.804407 94.405229)
(-4.0518293 47.415307 115.03256)
(-51.128545 89.979256 135.08235)
(-113.00628 146.3911 154.25318)
(-189.18652 214.71823 170.67128)
(-277.90227 294.47014 184.97277)
(-378.37645 384.01525 196.33197)
(-488.08107 482.02976 204.20949)
(-605.25399 586.60917 208.6638)
(-728.0039 695.45389 209.61454)
(-854.42739 807.20814 206.76566)
(-983.11196 919.98669 200.59916)
(-1112.9131 1032.5808 191.21203)
(-1243.0141 1144.1989 179.01875)
(-1372.9347 1254.3207 164.83949)
(-1502.8314 1362.6205 148.75415)
(-1632.4784 1469.6931 132.17069)
(-1762.6746 1575.5876 115.01355)
(19.52278 2.0988817 4.6631201)
(14.606571 1.6991524 2.0948922)
(11.581285 -1.8959148 -1.8975478)
(50.843456 11.365312 8.3040119)
(41.112121 3.4003406 10.076422)
(30.026351 -0.96502029 11.619819)
(69.281007 7.3569369 21.868203)
(54.618259 -2.9461775 25.108226)
(41.466167 -11.389028 27.219115)
(79.995412 1.3559584 37.514466)
(62.735988 -9.4953467 41.793307)
(47.102316 -18.155664 44.441904)
(76.686542 -6.4105958 54.972733)
(56.767198 -18.116564 59.717494)
(38.866258 -27.61437 64.416924)
(56.623107 -13.202727 73.059428)
(33.704462 -22.809474 79.019578)
(13.861544 -30.775397 83.879966)
(17.098691 -14.253819 91.200235)
(-7.2316717 -21.289736 97.398359)
(-27.375969 -27.660019 102.43113)
(-40.966446 -7.0032683 108.08685)
(-65.939192 -10.478973 113.67847)
(-87.524259 -14.308418 120.18356)
(-117.83646 11.492521 123.36854)
(-144.05094 11.161 129.58328)
(-165.30588 10.084186 134.12299)
(-212.34212 41.846131 136.21755)
(-237.3387 45.962696 141.45038)
(-258.24191 48.412775 146.32859)
(-321.1929 85.149982 146.36521)
(-345.16081 93.454374 151.03263)
(-365.77125 98.904275 155.78699)
(-442.4293 141.88439 153.89174)
(-465.092 153.83219 157.82679)
(-484.54576 163.18566 161.39561)
(-573.14493 210.5808 158.10059)
(-593.84589 226.36902 161.30933)
(-611.96972 239.10614 164.15857)
(-710.50641 290.29572 159.30061)
(-729.14927 309.29931 161.75718)
(-745.7487 325.28723 163.89736)
(-851.89585 379.06888 157.26208)
(-868.22556 400.94484 159.0463)
(-883.22918 419.99456 160.49386)
(-995.08712 475.04595 152.22614)
(-1009.2761 499.45206 153.45248)
(-1022.5028 521.22539 154.40496)
(-1138.3193 576.45845 144.18316)
(-1150.3908 602.79877 145.05303)
(-1161.9226 626.9439 145.53767)
(-1280.21 681.28908 133.57783)
(-1290.4235 709.2557 134.15064)
(-1300.3218 735.42241 134.43747)
(-1420.2744 788.08394 120.64298)
(-1428.7481 817.40325 121.05503)
(-1437.2405 845.34532 121.31536)
(-1557.1877 896.35846 105.80085)
(-1564.7411 926.36843 106.38778)
(-1571.9695 955.21828 106.66759)
(-1692.7092 1004.204 89.832416)
(-1699.476 1034.8895 90.501345)
(-1705.5045 1064.834 90.763034)
(-1825.6964 1111.8239 72.923962)
(-1831.5485 1142.5205 73.768064)
(-1836.982 1173.2905 74.547576)
(-1957.3819 1218.7131 55.847263)
(-1962.8519 1249.6693 57.053993)
(-1968.2247 1280.9979 58.195055)
(21.193893 4.4732464 6.8305824)
(16.591814 2.1747786 2.0203125)
(12.962066 0.73778021 2.3532011)
(46.948919 12.876329 19.588139)
(38.031683 5.5034821 16.388544)
(27.861875 -1.2414412 15.463098)
(71.156938 14.901003 39.457433)
(54.842221 5.5759042 37.379069)
(45.756825 -3.751483 32.510563)
(84.539361 17.041174 58.920564)
(66.673038 4.9462161 55.008719)
(52.379875 -5.9141177 51.469297)
(88.760778 16.648479 80.147308)
(64.833585 7.2051894 77.23678)
(48.990876 -2.784724 72.97614)
(73.884704 22.752098 102.33484)
(48.336906 14.813945 98.217481)
(30.799357 5.3896401 94.3834)
(42.862612 34.094038 121.96505)
(16.061095 29.325427 118.15101)
(-3.7677602 22.11145 114.93969)
(-6.4152988 54.3201 141.31766)
(-35.153858 53.327357 137.53117)
(-55.313624 48.053205 134.93804)
(-74.626863 85.256809 157.03055)
(-102.64767 88.513032 153.51759)
(-123.75415 87.076255 151.69512)
(-158.99021 127.70743 170.7878)
(-186.53018 135.14234 167.63334)
(-207.53087 136.61405 166.31395)
(-258.86956 182.49581 180.96416)
(-285.03792 193.34861 178.0437)
(-305.79011 198.9415 177.77456)
(-371.33907 248.27506 187.98158)
(-395.63748 263.47423 185.77863)
(-415.64245 272.53204 185.87497)
(-494.22462 324.94834 191.60025)
(-516.41197 343.51814 189.85603)
(-535.24506 356.08619 190.51957)
(-624.73611 410.83196 191.85966)
(-644.42145 432.36856 190.6322)
(-662.01329 448.35633 191.63097)
(-760.45007 504.13347 188.91104)
(-777.66582 528.33783 188.25217)
(-793.69987 547.50481 189.4313)
(-899.1682 603.36 182.84622)
(-913.95088 629.62436 182.56685)
(-928.32174 651.59539 183.93537)
(-1039.0181 706.64442 173.87515)
(-1051.4975 734.58017 174.09165)
(-1064.1473 759.00272 175.4108)
(-1178.5034 812.46626 162.44711)
(-1188.8849 841.72851 162.94452)
(-1199.9965 868.20291 164.28279)
(-1316.8641 919.9051 148.83238)
(-1325.6511 949.95016 149.64371)
(-1334.9803 978.14496 150.85173)
(-1453.1792 1027.6908 133.52097)
(-1460.2438 1058.404 134.67068)
(-1468.7774 1087.4938 135.76367)
(-1588.0517 1135.5301 117.18661)
(-1593.8637 1166.422 118.89092)
(-1601.3535 1196.7262 119.38931)
(-1720.5052 1242.179 100.5067)
(-1726.5492 1273.349 101.74521)
(-1732.4576 1304.3403 102.785)
(-1852.2589 1349.3864 83.246861)
(-1857.3894 1380.5929 84.661746)
(-1863.0699 1412.015 85.806357)
(14.851418 5.4128197 6.2573267)
(8.5027293 6.2456758 6.5215203)
(7.8221591 1.9598532 6.0537841)
(46.70145 16.164362 24.236355)
(38.87936 14.497203 22.299515)
(33.719921 4.838746 20.851581)
(70.647025 20.057968 47.407082)
(57.648056 7.4245332 41.943256)
(49.70022 -2.9003369 38.340538)
(89.344861 24.395188 70.716227)
(71.711249 17.441955 64.094813)
(58.416941 5.6578633 58.083128)
(94.482598 36.367866 97.631848)
(73.55728 26.619565 89.64684)
(56.876887 16.034411 80.205289)
(86.021323 52.658879 122.47316)
(61.556214 46.037286 111.94426)
(42.289243 35.748946 103.06428)
(61.444314 77.251028 146.86931)
(34.771255 72.962295 136.15702)
(12.252877 65.230116 126.97416)
(18.965309 112.19205 168.12936)
(-8.3161095 110.8193 158.07665)
(-32.503226 107.36913 147.65778)
(-39.351728 156.76197 187.63515)
(-67.334924 160.12056 176.98938)
(-93.274392 158.44756 167.28078)
(-114.64948 213.19307 202.88023)
(-142.20583 219.0347 193.39045)
(-168.40918 222.71026 184.32143)
(-204.51269 279.44546 214.78756)
(-230.8698 290.23504 206.16978)
(-257.22544 297.51079 197.92888)
(-307.43028 356.19426 222.80791)
(-332.27535 370.22972 215.49302)
(-357.77029 381.7128 208.48569)
(-421.2957 441.67417 226.83998)
(-444.11441 458.96507 220.84678)
(-468.39852 474.31463 215.06009)
(-543.6396 534.19483 227.16154)
(-564.37645 554.6557 222.59999)
(-586.80928 573.68981 218.05528)
(-672.50559 632.58614 223.71179)
(-690.88555 655.53743 220.46968)
(-711.14025 677.70218 217.2196)
(-805.54883 735.01993 216.90576)
(-821.58791 760.209 214.82674)
(-839.56628 785.18258 212.76504)
(-940.9409 840.10316 206.93039)
(-954.80479 867.06963 206.00292)
(-970.2334 894.28281 204.88783)
(-1077.409 946.69568 194.41364)
(-1089.1324 975.12235 194.22733)
(-1102.1875 1004.1032 194.00188)
(-1213.3902 1053.9143 179.6482)
(-1223.3508 1083.3154 180.17019)
(-1234.1476 1113.4856 180.53516)
(-1348.6201 1161.1519 163.31314)
(-1357.101 1191.3915 164.35825)
(-1365.7683 1222.3703 165.18435)
(-1482.3782 1267.8404 146.14399)
(-1489.647 1298.4032 147.36187)
(-1496.9008 1329.8191 148.32008)
(-1614.9607 1374.3906 128.50494)
(-1621.413 1405.4081 129.99751)
(-1627.4203 1437.0759 130.97788)
(-1746.5404 1480.4903 110.95415)
(-1752.2026 1511.726 112.45958)
(-1757.3612 1543.4476 113.80409)
)
;

boundaryField
{
    free
    {
        type            zeroGradient;
    }
    fixed
    {
        type            fixedValue;
        value           uniform (0 0 0);
    }
    traction
    {
        type            zeroGradient;
    }
}


// ************************************************************************* //
