/*--------------------------------*- C++ -*----------------------------------*\
  =========                 |
  \\      /  F ield         | OpenFOAM: The Open Source CFD Toolbox
   \\    /   O peration     | Website:  https://openfoam.org
    \\  /    A nd           | Version:  6
     \\/     M anipulation  |
\*---------------------------------------------------------------------------*/
FoamFile
{
    version     2.0;
    format      ascii;
    class       pointVectorField;
    location    "0.56";
    object      u;
}
// * * * * * * * * * * * * * * * * * * * * * * * * * * * * * * * * * * * * * //

dimensions      [0 1 0 0 0 0 0];

internalField   nonuniform List<vector> 
28033
(
(0 2.5015172e-19 0)
(0 1.6959165e-18 0)
(1.8617155 -0.12285194 0.0048474346)
(1.7628984 -0.55637422 0.0042699491)
(0 1.5502369e-18 0)
(0 2.4945537e-18 0)
(1.763167 -0.55773142 0.0040870504)
(1.8621069 -0.12406008 0.0050113397)
(0 5.52423e-19 0)
(0 1.6248048e-19 0)
(0 1.3112324e-18 0)
(0 -6.230908e-19 0)
(0 8.3221051e-19 0)
(0 -4.8521734e-19 0)
(0 -1.1480571e-20 0)
(-3.7453872e-19 -1.2218088e-19 0)
(0 2.252433e-19 0)
(0 1.1040539e-19 0)
(0 -4.2132234e-19 0)
(0 4.0761461e-19 0)
(0 4.9085978e-19 0)
(0 -3.9924028e-19 0)
(0 5.1652545e-19 0)
(1.8554886 -0.15004245 0.0047673926)
(1.8492381 -0.17720184 0.004679876)
(1.8429955 -0.20433225 0.0046183122)
(1.8367616 -0.23142037 0.0045674464)
(1.8305535 -0.2584715 0.0045427169)
(1.8243649 -0.28550313 0.0045323417)
(1.8182006 -0.31250758 0.0045342586)
(1.8120607 -0.33951672 0.004543216)
(1.8059351 -0.36652813 0.0045536968)
(1.7998192 -0.39356067 0.0045608436)
(1.7937074 -0.42062326 0.0045525562)
(1.7875844 -0.44771863 0.0045263829)
(1.7814527 -0.47484943 0.0044892111)
(1.7752969 -0.50201456 0.0044282144)
(1.7691111 -0.52919606 0.00435284)
(0.0039412644 0.0063213522 0.0070107871)
(0.0047302097 0.0099753693 0.0096570892)
(0.0060868218 0.013750547 0.011635903)
(0.0081804176 0.017647749 0.012864736)
(0.010680185 0.021671403 0.013647569)
(0.013983496 0.025704747 0.014142383)
(0.017869355 0.029844725 0.014436359)
(0.022419911 0.033826061 0.014542035)
(0.027586081 0.037927219 0.014577644)
(0.033384805 0.04182177 0.014511549)
(0.039718318 0.045739943 0.014426626)
(0.04667818 0.049496658 0.014239059)
(0.054132438 0.053217907 0.014139734)
(0.062216885 0.056777764 0.013907603)
(0.07070423 0.060257293 0.01379958)
(0.079814988 0.063597129 0.013561458)
(0.0893452 0.066855037 0.013460648)
(0.099429147 0.069948409 0.013271722)
(0.10993167 0.072957604 0.013166579)
(0.12096375 0.075821406 0.013014036)
(0.1324185 0.078584593 0.012940719)
(0.14436801 0.081198681 0.012819641)
(0.15675389 0.083711692 0.012765179)
(0.16961436 0.086087746 0.012689257)
(0.18291125 0.088329919 0.012637222)
(0.19668325 0.090459096 0.012581927)
(0.21088035 0.092428836 0.012543288)
(0.22554942 0.094287515 0.01249592)
(0.24065837 0.095976413 0.01244189)
(0.25621304 0.097539802 0.012392056)
(0.27221715 0.098934703 0.012323347)
(0.28864845 0.10017825 0.012247235)
(0.30552222 0.10126357 0.012161112)
(0.32280973 0.10216992 0.012061343)
(0.34051579 0.10292707 0.011944496)
(0.35863408 0.10349424 0.011815038)
(0.37713294 0.1039014 0.011685681)
(0.39602418 0.10412684 0.011544948)
(0.41527054 0.10417986 0.011388786)
(0.43488411 0.10406906 0.01124428)
(0.45482586 0.10377591 0.011094778)
(0.4751076 0.10333546 0.010955978)
(0.49570515 0.10271597 0.010817671)
(0.51661556 0.10194726 0.010697719)
(0.53781997 0.10101556 0.010585003)
(0.5593242 0.099935942 0.010487529)
(0.5811087 0.098702802 0.010402644)
(0.60318327 0.097322492 0.010328776)
(0.62553077 0.095793583 0.01026542)
(0.64816176 0.094117301 0.010208591)
(0.67106346 0.092292552 0.010155189)
(0.69424302 0.090317357 0.010101645)
(0.71769231 0.088190838 0.010043391)
(0.74141319 0.085908508 0.0099768689)
(0.76539991 0.083469907 0.0098979917)
(0.789649 0.080870242 0.0098041859)
(0.81415418 0.078108973 0.0096926921)
(0.8389079 0.075183381 0.0095625801)
(0.86390068 0.072093664 0.0094134233)
(0.88912217 0.068838743 0.0092465423)
(0.91455973 0.06542186 0.0090635248)
(0.94020156 0.061843475 0.0088672754)
(0.96602966 0.058111206 0.0086628021)
(0.99203943 0.054220217 0.0084494682)
(1.0182005 0.05019149 0.0082444441)
(1.0445158 0.046017833 0.0080315017)
(1.0709621 0.041701689 0.0078332495)
(1.097533 0.037260356 0.0076415202)
(1.124213 0.03270009 0.0074608496)
(1.1509953 0.028014951 0.0072938827)
(1.1778721 0.023217973 0.0071449006)
(1.2048353 0.018309667 0.0070070633)
(1.2318812 0.013294897 0.0068789305)
(1.2590009 0.0081754819 0.0067628094)
(1.2861935 0.0029562392 0.006652121)
(1.3134492 -0.0023667001 0.0065474839)
(1.3407678 -0.0077823477 0.0064429695)
(1.36814 -0.013298865 0.0063394979)
(1.3955628 -0.018901939 0.006230926)
(1.4230257 -0.024601451 0.006121514)
(1.4505284 -0.030381198 0.006001516)
(1.4780524 -0.036245671 0.0058830994)
(1.5056006 -0.042186495 0.0057544414)
(1.5331518 -0.04819616 0.0056259628)
(1.5607088 -0.054267371 0.0054978647)
(1.5882512 -0.060395262 0.0053701534)
(1.6157804 -0.066576328 0.005250835)
(1.6432749 -0.072783845 0.0051384086)
(1.6707409 -0.079039448 0.0050412331)
(1.6981547 -0.085290175 0.0049571984)
(1.7255304 -0.091583581 0.0048979207)
(1.7528446 -0.097843761 0.0048508237)
(1.780116 -0.10413345 0.004837941)
(1.8073369 -0.11038355 0.0048271476)
(1.8345276 -0.11662796 0.0048445128)
(0.0019387777 -0.0076020515 -0.0088244731)
(0.0035455924 -0.01034944 -0.010270639)
(0.004610892 -0.014310584 -0.013282695)
(0.00576903 -0.017682736 -0.014290933)
(0.0081693345 -0.021744611 -0.015384246)
(0.010868375 -0.025987896 -0.015855983)
(0.014255446 -0.029931463 -0.01623759)
(0.018236485 -0.034335729 -0.016284017)
(0.022872375 -0.038575423 -0.016318844)
(0.027949074 -0.042908794 -0.016199559)
(0.033674417 -0.04729013 -0.016049649)
(0.039821298 -0.051651551 -0.015855305)
(0.04653282 -0.056065814 -0.015629516)
(0.053681248 -0.060484062 -0.015422164)
(0.061333296 -0.064899576 -0.015178564)
(0.069412254 -0.069371792 -0.014971294)
(0.077965848 -0.073802693 -0.014744617)
(0.08693951 -0.078306609 -0.014534931)
(0.09634939 -0.082808005 -0.014344278)
(0.10620595 -0.087347611 -0.014149831)
(0.11645945 -0.091914186 -0.013964425)
(0.12715883 -0.096543936 -0.01379964)
(0.1382515 -0.10117131 -0.013622679)
(0.14978222 -0.10590196 -0.013459359)
(0.16171426 -0.11063398 -0.013295851)
(0.17408943 -0.11547148 -0.013113899)
(0.18685788 -0.12033972 -0.012957817)
(0.20007178 -0.12528921 -0.012761664)
(0.21368634 -0.13030137 -0.012587034)
(0.22773845 -0.13537194 -0.012373137)
(0.24219127 -0.1405278 -0.012170917)
(0.25707565 -0.1457353 -0.011946229)
(0.27235813 -0.15102328 -0.011717318)
(0.28805985 -0.15636378 -0.011473917)
(0.30414961 -0.16178004 -0.011225675)
(0.32063978 -0.16724337 -0.01097603)
(0.33750551 -0.17276465 -0.010704707)
(0.35474572 -0.17835014 -0.010449721)
(0.37234332 -0.18397831 -0.01018692)
(0.39029693 -0.18966244 -0.0099306595)
(0.40858554 -0.19539413 -0.0096782068)
(0.42720564 -0.20117351 -0.0094341271)
(0.44614337 -0.20700301 -0.0091969774)
(0.46539263 -0.2128807 -0.008969964)
(0.48494336 -0.21881008 -0.0087509224)
(0.5047925 -0.22479211 -0.0085399111)
(0.52493164 -0.23082981 -0.008335981)
(0.54536093 -0.23692525 -0.0081359121)
(0.56607527 -0.24308212 -0.0079386832)
(0.58707523 -0.24930121 -0.0077405772)
(0.60835946 -0.25558643 -0.0075393386)
(0.629928 -0.26193729 -0.0073322027)
(0.65178049 -0.26835511 -0.0071165749)
(0.67391676 -0.27483914 -0.0068906443)
(0.69633485 -0.28138736 -0.0066528492)
(0.71903302 -0.28799681 -0.006402522)
(0.74200759 -0.29466455 -0.0061391918)
(0.76525343 -0.30138415 -0.0058639204)
(0.78876461 -0.30815161 -0.0055772558)
(0.81253341 -0.31495972 -0.0052812431)
(0.83655094 -0.32180272 -0.0049774236)
(0.86080729 -0.32867325 -0.0046686871)
(0.88529208 -0.33556649 -0.0043561779)
(0.9099941 -0.34247479 -0.0040431746)
(0.93490169 -0.34939455 -0.0037304717)
(0.96000452 -0.35631995 -0.0034205311)
(0.98529051 -0.36324837 -0.0031139162)
(1.0107506 -0.37017597 -0.002809706)
(1.0363718 -0.37709569 -0.0025166759)
(1.0621493 -0.38401036 -0.0022142692)
(1.0880745 -0.39093554 -0.0019242529)
(1.114136 -0.39782975 -0.0016336235)
(1.1403332 -0.40473745 -0.0013429212)
(1.1666571 -0.41162485 -0.0010515436)
(1.1931017 -0.4185101 -0.00075850973)
(1.2196617 -0.42538179 -0.00046286714)
(1.2463316 -0.43224282 -0.00016381204)
(1.2731062 -0.43908967 0.00013848449)
(1.2999764 -0.44591875 0.00044409884)
(1.3269376 -0.45272742 0.00075033358)
(1.3539804 -0.45951212 0.0010579742)
(1.3810965 -0.46626667 0.0013625502)
(1.408277 -0.47299003 0.0016647461)
(1.4355108 -0.47967397 0.0019583123)
(1.4627887 -0.48631859 0.0022444256)
(1.4900987 -0.49291607 0.0025164062)
(1.5174309 -0.49946754 0.0027753523)
(1.5447736 -0.50596703 0.003015595)
(1.5721167 -0.51241664 0.0032379229)
(1.5994501 -0.5188139 0.0034389362)
(1.6267649 -0.52516203 0.0036192494)
(1.6540536 -0.53146308 0.0037783422)
(1.6813103 -0.53772416 0.0039185435)
(1.708533 -0.5439525 0.004042859)
(1.735727 -0.55016485 0.0041569931)
(0 -6.9294637e-19 0)
(0 -5.1636756e-19 0)
(0 4.8845006e-19 0)
(0 -3.0920814e-19 0)
(0 -2.6377903e-19 0)
(0 1.4517618e-18 0)
(0 -4.2155094e-19 0)
(-9.6112741e-19 2.6865944e-19 0)
(0 -2.4039409e-19 0)
(0 5.7725142e-19 0)
(0 6.8412154e-19 0)
(0 2.3884677e-19 0)
(0 1.2739674e-19 0)
(0 -2.6289416e-19 0)
(0 1.8236756e-19 0)
(0.0042362338 -0.0031929403 0.0064320068)
(0.0045575619 -0.012096879 0.010207955)
(0.0044517298 -0.012643554 0.012253194)
(0.0062627113 -0.018724316 0.014339263)
(0.0081126545 -0.021492471 0.015216326)
(0.011033565 -0.026183059 0.015707308)
(0.014361361 -0.029978153 0.016049288)
(0.018440589 -0.034569469 0.016143716)
(0.023073542 -0.038622328 0.016112537)
(0.028163782 -0.043173629 0.015977178)
(0.034006151 -0.047490803 0.015843016)
(0.040094432 -0.051852157 0.015575535)
(0.046920253 -0.056434746 0.015392403)
(0.054030602 -0.060703019 0.015089339)
(0.061771685 -0.065426037 0.014894162)
(0.069844486 -0.069658216 0.014633676)
(0.078424177 -0.074411569 0.014439067)
(0.087429681 -0.078731054 0.014179309)
(0.096833319 -0.083496368 0.014038169)
(0.10672045 -0.087943937 0.013835288)
(0.11694711 -0.092654768 0.013722675)
(0.12765681 -0.097306364 0.013580767)
(0.13872949 -0.10202346 0.013503102)
(0.15025134 -0.10678155 0.013411113)
(0.16216195 -0.11156955 0.013340261)
(0.17451179 -0.11644778 0.013281563)
(0.18724981 -0.12134195 0.013218666)
(0.20042885 -0.1263441 0.013169732)
(0.21402093 -0.1313523 0.013099942)
(0.22802293 -0.13648457 0.013042648)
(0.24247357 -0.14162293 0.012955266)
(0.25732025 -0.14686192 0.01286642)
(0.27259884 -0.15214075 0.012750327)
(0.28827613 -0.1575029 0.01262672)
(0.30437931 -0.16291012 0.012482667)
(0.32085397 -0.1683675 0.012319462)
(0.33772632 -0.17392527 0.012151434)
(0.35498343 -0.17950333 0.011972445)
(0.37259534 -0.18514439 0.011787871)
(0.39056615 -0.19083931 0.011598973)
(0.408875 -0.19658609 0.011415371)
(0.42751257 -0.20238298 0.011237144)
(0.44646827 -0.20823132 0.011069262)
(0.46573134 -0.21412981 0.0109142)
(0.48529316 -0.22008019 0.010774046)
(0.50514764 -0.22608328 0.010649082)
(0.52528882 -0.2321405 0.010539245)
(0.54571409 -0.23825407 0.010442661)
(0.56642061 -0.24442528 0.010357517)
(0.58740878 -0.25065633 0.010279231)
(0.60867794 -0.25694851 0.010205374)
(0.63023034 -0.26330248 0.0101289)
(0.65206589 -0.26971971 0.010048381)
(0.67418622 -0.27619775 0.0099559663)
(0.69659036 -0.28273847 0.0098513354)
(0.71927808 -0.28933614 0.0097279839)
(0.74224515 -0.29599138 0.0095871562)
(0.765489 -0.3026978 0.0094248944)
(0.78900167 -0.30945251 0.0092435745)
(0.8127772 -0.31625014 0.0090429983)
(0.83680471 -0.32308532 0.0088261919)
(0.86107523 -0.32995247 0.0085955573)
(0.88557582 -0.33684678 0.0083555232)
(0.91029562 -0.34376135 0.0081092454)
(0.93522115 -0.35069245 0.007861404)
(0.96034137 -0.35763628 0.0076153904)
(0.98564431 -0.36458164 0.0073752403)
(1.0111172 -0.37155404 0.0071440385)
(1.0367472 -0.37846522 0.0069314094)
(1.0625311 -0.38545047 0.0067160924)
(1.0884602 -0.39238334 0.006529124)
(1.1145205 -0.39932065 0.0063476254)
(1.1407138 -0.4062483 0.0061804173)
(1.1670279 -0.41316375 0.006026344)
(1.1934611 -0.42006523 0.0058798549)
(1.2200077 -0.42695116 0.0057414619)
(1.2466622 -0.43381889 0.005608263)
(1.2734197 -0.4406662 0.0054789435)
(1.3002739 -0.44748947 0.0053510085)
(1.3272188 -0.45428655 0.0052241719)
(1.3542464 -0.46105381 0.005097266)
(1.3813495 -0.46778832 0.004970758)
(1.4085177 -0.4744864 0.0048447591)
(1.435743 -0.48114577 0.0047211641)
(1.463013 -0.48776285 0.004601109)
(1.490319 -0.49433583 0.0044871954)
(1.5176479 -0.50086275 0.0043815884)
(1.5449906 -0.50734222 0.0042870577)
(1.5723344 -0.51377466 0.0042062085)
(1.599671 -0.5201593 0.0041409137)
(1.6269896 -0.52650029 0.004094029)
(1.6542834 -0.53279751 0.004065032)
(1.6815468 -0.53906114 0.0040553452)
(1.708776 -0.54529331 0.0040610484)
(1.7359767 -0.55151151 0.004078471)
(1.7693869 -0.53054159 0.0041020662)
(1.7755837 -0.50334162 0.0041109907)
(1.7817505 -0.4761569 0.0041392859)
(1.7878915 -0.44901268 0.0041813568)
(1.7940307 -0.42189902 0.0042446567)
(1.8001468 -0.39481956 0.0043182101)
(1.8062852 -0.3677748 0.0044088749)
(1.8124189 -0.34073806 0.0045031208)
(1.8185781 -0.31372422 0.0045961421)
(1.8247458 -0.28669199 0.0046938483)
(1.8309528 -0.259672 0.0047752586)
(1.8371584 -0.23259138 0.0048509518)
(1.8434029 -0.20552572 0.004904641)
(1.8496422 -0.17837697 0.0049515698)
(1.855889 -0.15123242 0.0049764826)
(1.8349364 -0.11784447 0.0049109258)
(1.8077559 -0.1116074 0.0048265363)
(1.780548 -0.10536663 0.0047276176)
(1.7532864 -0.099117255 0.00461687)
(1.7259801 -0.092867 0.004482315)
(1.6986191 -0.086625644 0.0043315357)
(1.6712098 -0.080397797 0.0041542103)
(1.6437554 -0.07419288 0.0039581735)
(1.6162614 -0.068018648 0.0037411236)
(1.588737 -0.06188046 0.0035044116)
(1.5611875 -0.055787153 0.0032519487)
(1.5336251 -0.049744475 0.0029847883)
(1.5060546 -0.043757322 0.0027047408)
(1.4784905 -0.037835301 0.0024153324)
(1.4509408 -0.031980417 0.0021186036)
(1.423415 -0.026198274 0.0018177592)
(1.3959226 -0.020494767 0.0015158542)
(1.3684705 -0.014872734 0.0012125264)
(1.3410684 -0.0093360327 0.00091106051)
(1.3137224 -0.0038902512 0.0006120141)
(1.2864397 0.001463641 0.00031577837)
(1.2592262 0.0067188981 2.2432948e-05)
(1.2320871 0.011875684 -0.00026830477)
(1.2050301 0.016923491 -0.00055635589)
(1.178055 0.021868021 -0.00084376853)
(1.1511822 0.026695839 -0.0011300141)
(1.1243781 0.031411169 -0.0014166965)
(1.097761 0.035938715 -0.0016822965)
(1.0711644 0.040440352 -0.0019901531)
(1.0447492 0.044734187 -0.0022659638)
(1.0184505 0.048912769 -0.0025599548)
(0.9923047 0.05294032 -0.0028446757)
(0.96631619 0.056816263 -0.0031311681)
(0.94050115 0.060538049 -0.0034145396)
(0.91487134 0.064101494 -0.0036936385)
(0.88944015 0.06750549 -0.0039673041)
(0.86422074 0.070747183 -0.0042340768)
(0.83922484 0.073827864 -0.004492249)
(0.8144639 0.076746515 -0.0047413459)
(0.78994744 0.079505728 -0.00498058)
(0.76568437 0.082106195 -0.0052100878)
(0.74168138 0.084551209 -0.005430024)
(0.71794446 0.086842175 -0.0056418294)
(0.69447771 0.08898226 -0.0058463052)
(0.6712848 0.090972585 -0.0060456719)
(0.648368 0.092815346 -0.0062416205)
(0.62572976 0.094510512 -0.0064364272)
(0.60337181 0.096058842 -0.0066320487)
(0.58129699 0.097458464 -0.0068308893)
(0.55950763 0.098709497 -0.0070342156)
(0.5380087 0.099806072 -0.0072435084)
(0.51680339 0.10075216 -0.0074610993)
(0.49590135 0.10153267 -0.007683886)
(0.47530554 0.10216192 -0.007918949)
(0.4550306 0.10261453 -0.00815533)
(0.4350867 0.10290785 -0.0084008497)
(0.41547581 0.10303496 -0.0086512816)
(0.39621315 0.10297209 -0.0089068613)
(0.37734499 0.10274568 -0.0091495447)
(0.3588193 0.10236659 -0.0094105549)
(0.34068773 0.10178138 -0.0096603002)
(0.32299012 0.10104846 -0.0098953303)
(0.30567734 0.10014819 -0.010129609)
(0.28878615 0.099089085 -0.010362199)
(0.27231948 0.097852184 -0.01058217)
(0.25632379 0.096485275 -0.010791245)
(0.24073258 0.09495671 -0.010981135)
(0.22562551 0.093292941 -0.011175236)
(0.21093653 0.091484403 -0.01135578)
(0.19672127 0.089556831 -0.011538818)
(0.1829445 0.087476809 -0.011701065)
(0.16962605 0.085280005 -0.01187951)
(0.15678519 0.082938148 -0.012027806)
(0.1443845 0.080526351 -0.012205421)
(0.13243504 0.077910873 -0.012375513)
(0.12098521 0.075244658 -0.012526955)
(0.10996046 0.072400707 -0.012731501)
(0.09945328 0.069466671 -0.012867486)
(0.089385735 0.06640618 -0.013101501)
(0.079847295 0.063186107 -0.013239503)
(0.070806048 0.059911261 -0.013460971)
(0.062231822 0.056421302 -0.013596583)
(0.05421422 0.052944032 -0.013847643)
(0.046739273 0.049178379 -0.01393829)
(0.039810739 0.045561285 -0.014163373)
(0.03343342 0.041572118 -0.014219562)
(0.027682061 0.037730107 -0.014310512)
(0.022511467 0.03363717 -0.014260051)
(0.017947792 0.029686954 -0.014177217)
(0.014049401 0.025566833 -0.013884377)
(0.01080974 0.021500016 -0.013350571)
(0.0082695005 0.01734885 -0.012545652)
(0.0064575247 0.013745411 -0.011342135)
(0.004876805 0.0095889519 -0.0090738813)
(0.0057688239 0.0060277623 -0.0053557587)
(0 7.7798885e-19 0)
(0 2.9559201e-19 0)
(0 7.6721326e-19 0)
(0 7.7232576e-19 0)
(0 8.0495044e-19 0)
(0 4.8408373e-19 0)
(0 1.9297667e-20 0)
(0 -4.3863926e-19 -4.8128594e-19)
(0 5.194068e-20 0)
(0 4.6696449e-19 0)
(0 1.1260018e-18 0)
(0 9.8661249e-19 0)
(0 7.0623321e-19 0)
(0 6.8251946e-19 0)
(0 7.7938106e-19 0)
(0 3.2027982e-18 0)
(0 1.3637089e-18 0)
(0 5.004424e-19 0)
(0 9.0327311e-19 0)
(0 -7.8641708e-20 0)
(0 2.1054001e-19 0)
(0 2.399092e-18 0)
(0 -9.7628131e-19 -4.2334598e-19)
(0 1.427004e-18 0)
(0 1.7839052e-18 0)
(0 5.8952054e-19 0)
(0 2.4130283e-19 0)
(0 5.6008474e-19 0)
(0 1.009795e-18 0)
(0 1.2988657e-19 0)
(1.7629147 -0.55651124 0.0042739652)
(1.7629197 -0.55665284 0.0042634552)
(1.7629321 -0.55679365 0.0042452982)
(1.7629484 -0.5569299 0.0042278617)
(1.7629684 -0.55706114 0.0042108234)
(1.7629906 -0.5571827 0.0041968749)
(1.7630121 -0.55729303 0.004183865)
(1.7630333 -0.55739107 0.0041730426)
(1.7630526 -0.557476 0.0041618234)
(1.7630708 -0.55754643 0.0041501666)
(1.7630874 -0.5576037 0.0041378085)
(1.7631029 -0.55764655 0.0041232598)
(1.7631197 -0.55767835 0.0041091379)
(1.7631354 -0.55769967 0.004094793)
(1.7631555 -0.55771563 0.0040886977)
(1.8617826 -0.12289228 0.004847965)
(1.8618423 -0.12292527 0.0048585323)
(1.8619033 -0.12296448 0.0048782253)
(1.8619582 -0.12301107 0.0048967496)
(1.8620118 -0.12306563 0.0049147662)
(1.8620564 -0.12312831 0.0049280912)
(1.862093 -0.12319745 0.0049400661)
(1.86212 -0.12327353 0.0049487478)
(1.8621381 -0.12335515 0.0049569181)
(1.8621471 -0.12344255 0.0049647154)
(1.8621486 -0.1235356 0.0049732102)
(1.8621438 -0.1236337 0.0049836929)
(1.8621358 -0.12373727 0.0049939186)
(1.8621245 -0.12384548 0.0050057609)
(1.8621172 -0.12395445 0.005009353)
(0.0017904726 0.0024971807 0.0069765209)
(0.0025360672 0.0033880111 0.0080866302)
(0.0033940248 0.0044813567 0.010110771)
(0.0051063056 0.0055012099 0.010902453)
(0.0069660804 0.0065164354 0.011802536)
(0.0097847142 0.0076708058 0.012222797)
(0.01296233 0.0088257918 0.012542761)
(0.017018829 0.010171704 0.012678159)
(0.021416919 0.011445889 0.012758467)
(0.026620866 0.012916428 0.012755193)
(0.032260227 0.01428973 0.01265899)
(0.038584106 0.015861791 0.01261253)
(0.045361671 0.017307081 0.012443713)
(0.052770052 0.018957321 0.012349085)
(0.060628072 0.020497702 0.012179906)
(0.069107706 0.022200104 0.012073716)
(0.078050662 0.023841791 0.011898166)
(0.087504103 0.02559889 0.011808053)
(0.097497103 0.027348555 0.011665404)
(0.10798476 0.029169059 0.011569081)
(0.11897039 0.03101866 0.011471794)
(0.1304587 0.032904332 0.011397612)
(0.14246504 0.034850178 0.011313988)
(0.15494025 0.036814022 0.011269146)
(0.16795081 0.03882392 0.011209738)
(0.18144835 0.040857885 0.011170464)
(0.19546201 0.042921163 0.011128892)
(0.20997403 0.044996737 0.011094507)
(0.2250069 0.047081124 0.011054173)
(0.24054615 0.049170672 0.011009835)
(0.25659035 0.05124445 0.010959157)
(0.27314858 0.053304912 0.010895764)
(0.29020778 0.055335303 0.010827424)
(0.30775409 0.057323814 0.010742362)
(0.32580241 0.059270445 0.010646687)
(0.34431639 0.061143948 0.010540477)
(0.36330211 0.062968751 0.010421119)
(0.38272983 0.064705383 0.010293885)
(0.40260684 0.066366533 0.010161128)
(0.42289421 0.067933207 0.010028975)
(0.44359128 0.069403295 0.0098982478)
(0.464668 0.070762275 0.0097654974)
(0.4861224 0.072021795 0.0096476949)
(0.50793231 0.073150755 0.0095330848)
(0.53007983 0.074164376 0.0094317075)
(0.55256046 0.075041675 0.0093433695)
(0.57535696 0.075778122 0.0092643469)
(0.59846376 0.076365797 0.0091990073)
(0.62186903 0.076793105 0.0091404518)
(0.64556855 0.077050778 0.0090893969)
(0.66955221 0.077128188 0.0090401348)
(0.69381569 0.077013136 0.0089912433)
(0.71835026 0.076696049 0.0089364122)
(0.74314932 0.076164339 0.0088745305)
(0.76820306 0.075409458 0.0088003972)
(0.79350183 0.074420128 0.0087130402)
(0.81903346 0.073189962 0.0086096832)
(0.84478424 0.071710253 0.0084905303)
(0.87073878 0.069976772 0.0083556217)
(0.89688044 0.067984745 0.0082064764)
(0.92319084 0.065732306 0.0080451086)
(0.94965085 0.063218221 0.0078749004)
(0.97624139 0.060442416 0.0076990065)
(1.0029437 0.057403354 0.007522914)
(1.0297343 0.054113183 0.0073444335)
(1.0566088 0.050553883 0.0071727561)
(1.0835427 0.046749685 0.0070107833)
(1.1105058 0.042696422 0.006860126)
(1.1375034 0.03838873 0.0067202725)
(1.1645205 0.033834717 0.0065917144)
(1.191546 0.029042281 0.0064753568)
(1.2185737 0.024006328 0.0063675546)
(1.245596 0.018736616 0.0062689086)
(1.2726061 0.013233422 0.0061793758)
(1.2996012 0.0075006546 0.0060936083)
(1.3265745 0.0015423167 0.0060131731)
(1.3535245 -0.0046324986 0.0059321254)
(1.3804441 -0.011024471 0.0058526674)
(1.4073325 -0.017616673 0.0057692976)
(1.4341814 -0.024412874 0.0056857598)
(1.4609913 -0.031390066 0.0055960498)
(1.4877504 -0.03854988 0.0055074534)
(1.5144612 -0.045874772 0.0054128752)
(1.5411107 -0.053350724 0.0053225054)
(1.5676987 -0.060971277 0.0052277277)
(1.5942256 -0.068716706 0.0051388795)
(1.6206795 -0.076575506 0.0050539296)
(1.6470574 -0.084532079 0.0049764905)
(1.6733635 -0.092571579 0.0049084601)
(1.6995829 -0.10067826 0.0048541464)
(1.7257342 -0.10884317 0.0048106212)
(1.7517984 -0.11704034 0.0047829235)
(1.7777999 -0.12527951 0.0047684078)
(1.803733 -0.13351975 0.0047610464)
(1.8296192 -0.14178155 0.0047642109)
(-0.00021158921 -0.00013134041 0.0060675213)
(5.3713131e-05 -0.002861966 0.0072546479)
(0.001200404 -0.0037223275 0.0085797708)
(0.0021131778 -0.0056083352 0.0095115409)
(0.0038396697 -0.0067859637 0.010113199)
(0.0060004755 -0.0082095993 0.010481871)
(0.0088940083 -0.0092575044 0.010742007)
(0.012196052 -0.0103791 0.010898117)
(0.016247083 -0.011233593 0.011005434)
(0.020815975 -0.012065873 0.010941592)
(0.025939861 -0.012665163 0.011003722)
(0.031669411 -0.013200576 0.010838682)
(0.037918408 -0.013509356 0.010838125)
(0.044756148 -0.013731891 0.010660982)
(0.052088173 -0.013746789 0.010630815)
(0.060044501 -0.013620524 0.010425822)
(0.068415531 -0.013312796 0.010400376)
(0.077454743 -0.012834405 0.010232516)
(0.086919789 -0.012177965 0.010167921)
(0.096985106 -0.011346184 0.010055006)
(0.10753542 -0.010323774 0.0099910536)
(0.1186643 -0.0091256774 0.0098974279)
(0.13028892 -0.0077438614 0.0098545882)
(0.14248811 -0.0061880987 0.0097942128)
(0.15520666 -0.0044621605 0.0097558593)
(0.1684919 -0.0025626786 0.0097147529)
(0.18231464 -0.00051246414 0.0096877464)
(0.19670301 0.0016912396 0.0096578852)
(0.21164722 0.0040300119 0.0096271454)
(0.22715627 0.0064983907 0.0095942859)
(0.24322893 0.0090746065 0.0095584887)
(0.25986707 0.011751763 0.0095120395)
(0.27706141 0.014511304 0.0094556259)
(0.29481424 0.017339976 0.009390938)
(0.31311439 0.020219908 0.0093116545)
(0.33195178 0.02313907 0.0092242611)
(0.35132479 0.02607644 0.0091232682)
(0.3712015 0.029021637 0.0090203172)
(0.39156209 0.031955573 0.0089086625)
(0.41240848 0.034875343 0.008794471)
(0.43370221 0.037745196 0.0086749299)
(0.45543486 0.04057808 0.0085687244)
(0.47758853 0.04332647 0.008453396)
(0.50013009 0.046006722 0.0083617105)
(0.52305668 0.048584556 0.0082695462)
(0.54634365 0.051048064 0.0081940174)
(0.56997515 0.053381022 0.0081271176)
(0.59394002 0.055565403 0.0080725714)
(0.61822298 0.057581706 0.0080237387)
(0.64281354 0.059412736 0.0079836471)
(0.66769901 0.061038498 0.0079441364)
(0.69286974 0.062439735 0.0079055761)
(0.71831249 0.063599422 0.0078617266)
(0.74401579 0.064497667 0.0078116185)
(0.76996508 0.06512008 0.0077504044)
(0.79614539 0.065449587 0.0076776569)
(0.8225389 0.06547444 0.007590756)
(0.84912679 0.065181047 0.0074907709)
(0.87588797 0.064561883 0.0073770136)
(0.90280047 0.063606729 0.0072520492)
(0.92983988 0.062311482 0.0071179165)
(0.95698385 0.060670155 0.0069769558)
(0.98420649 0.058678361 0.0068347287)
(1.0114855 0.056339178 0.0066891748)
(1.0387989 0.053644582 0.0065499194)
(1.06613 0.050599856 0.0064175694)
(1.0934323 0.047205054 0.0062973852)
(1.1207255 0.043443043 0.0061823934)
(1.1479872 0.039333055 0.0060705335)
(1.1751946 0.034874594 0.0059762995)
(1.2023426 0.03006781 0.0058889066)
(1.2294167 0.024912128 0.0058132976)
(1.2564146 0.019416461 0.0057450699)
(1.2833273 0.013577955 0.0056837683)
(1.3101531 0.0074073315 0.0056255168)
(1.3368834 0.0009073213 0.0055712424)
(1.3635197 -0.0059101901 0.0055150161)
(1.3900531 -0.013041676 0.0054611942)
(1.4164873 -0.020468164 0.0054016489)
(1.4428116 -0.02818895 0.0053442888)
(1.4690335 -0.036176168 0.0052784996)
(1.4951379 -0.044430823 0.0052166464)
(1.5211392 -0.052926675 0.0051484507)
(1.5470141 -0.06165188 0.0050748948)
(1.5727905 -0.07057793 0.005006541)
(1.5984378 -0.079701772 0.0049451354)
(1.6239756 -0.088998697 0.0048867274)
(1.6493935 -0.098440498 0.0048325566)
(1.6747059 -0.10802603 0.0047902534)
(1.6998996 -0.11771042 0.0047495123)
(1.725 -0.12750527 0.004727081)
(1.7499909 -0.13735704 0.0047031416)
(1.7749041 -0.14728486 0.0047000273)
(1.7997305 -0.15723375 0.0046881138)
(1.824505 -0.16722384 0.004692057)
(-0.0013640234 -0.0025571921 0.0052342417)
(-0.001326887 -0.0066893735 0.005994339)
(-0.0012271986 -0.0099511296 0.0074488416)
(-0.00024952298 -0.013314123 0.0080398596)
(0.0010956096 -0.016486387 0.0084808874)
(0.0031801498 -0.019455025 0.0087660675)
(0.0055253668 -0.022413454 0.0090145401)
(0.0087472542 -0.025076529 0.0091444346)
(0.012320438 -0.027740072 0.0091426661)
(0.016555933 -0.030009141 0.0092525437)
(0.021306333 -0.032302792 0.0091444253)
(0.026680425 -0.034170355 0.0091778248)
(0.032530609 -0.036020139 0.0090439255)
(0.038987311 -0.037459649 0.0090396497)
(0.04598435 -0.038790985 0.0088713664)
(0.053493504 -0.039788823 0.0088699193)
(0.061606831 -0.040580895 0.0087168376)
(0.070221927 -0.041076517 0.0086655272)
(0.079402525 -0.041320853 0.0085684275)
(0.089128228 -0.041287177 0.0085090017)
(0.0994178 -0.040973359 0.0084253654)
(0.1102424 -0.04040105 0.0083857618)
(0.12164622 -0.039534877 0.0083255477)
(0.13359572 -0.038417445 0.0082899452)
(0.1461277 -0.037015421 0.0082523402)
(0.15922468 -0.035372984 0.0082294167)
(0.17291158 -0.033469038 0.00820582)
(0.1871792 -0.031334392 0.0081841007)
(0.20204335 -0.028969329 0.0081671916)
(0.2175013 -0.026402025 0.0081466485)
(0.2335612 -0.023632697 0.0081199886)
(0.25021611 -0.02069055 0.008088112)
(0.26747656 -0.017586983 0.0080502264)
(0.28532507 -0.014344636 0.0080004447)
(0.30376577 -0.010981043 0.0079422434)
(0.32278109 -0.0075121198 0.007874158)
(0.34235278 -0.003962828 0.0078007869)
(0.36246678 -0.0003471952 0.0077181256)
(0.38313965 0.0033079862 0.0076269169)
(0.4043111 0.0069782605 0.0075254553)
(0.4259761 0.010669756 0.0074375943)
(0.44811073 0.014333082 0.0073341083)
(0.470689 0.017966195 0.0072558135)
(0.49369455 0.02154346 0.0071717627)
(0.51710378 0.025039078 0.00709851)
(0.54089338 0.028439168 0.0070378653)
(0.56505004 0.03171499 0.0069839467)
(0.58955452 0.03484579 0.0069406521)
(0.61439123 0.037806008 0.0069044238)
(0.63954523 0.040572503 0.006874735)
(0.66500332 0.043119751 0.0068457552)
(0.69074972 0.045424756 0.0068188235)
(0.71677089 0.047463848 0.0067863877)
(0.74305017 0.04921472 0.0067494458)
(0.76957101 0.050657665 0.0067025363)
(0.79631357 0.051772754 0.0066462118)
(0.8232576 0.052544124 0.0065779298)
(0.8503797 0.052956385 0.0064986383)
(0.87765572 0.05299753 0.0064079654)
(0.90505905 0.052656034 0.0063089836)
(0.9325636 0.051924314 0.0062018189)
(0.96014146 0.050793365 0.006091296)
(0.98776587 0.049259992 0.005978118)
(1.0154105 0.047318585 0.0058651923)
(1.0430536 0.044961419 0.005759695)
(1.0706583 0.042197183 0.0056541284)
(1.0982408 0.039017014 0.005567972)
(1.1257299 0.035416088 0.0054636045)
(1.1531422 0.031379654 0.0054050671)
(1.1804602 0.026942001 0.0053379146)
(1.2076654 0.022079933 0.0052849264)
(1.2347546 0.01680722 0.0052398261)
(1.2617221 0.011121973 0.0051977706)
(1.2885551 0.0050293791 0.0051637417)
(1.3152525 -0.0014646108 0.0051311785)
(1.3418087 -0.0083520338 0.0051024011)
(1.3682219 -0.015621819 0.0050728433)
(1.3944871 -0.023266614 0.0050446291)
(1.4206061 -0.031268685 0.0050132449)
(1.4465715 -0.039619247 0.0049821512)
(1.4723904 -0.048296857 0.0049465188)
(1.4980525 -0.057292021 0.0049133374)
(1.5235654 -0.066574645 0.0048720971)
(1.5489308 -0.076140604 0.0048374441)
(1.5741462 -0.085949286 0.0048018172)
(1.5992023 -0.096001239 0.0047686459)
(1.6241208 -0.10625416 0.0047318797)
(1.6488962 -0.11670384 0.0047055872)
(1.6735398 -0.12731442 0.0046780462)
(1.6980477 -0.13806967 0.0046611664)
(1.7224447 -0.14894746 0.0046465581)
(1.7467188 -0.15991591 0.0046381498)
(1.770904 -0.17097277 0.0046360941)
(1.7949952 -0.18206754 0.0046291612)
(1.8190275 -0.19320761 0.0046286082)
(-0.0020104551 -0.0034074491 0.0042399841)
(-0.0025904303 -0.0087816396 0.0050679679)
(-0.0024574466 -0.012942129 0.0059692153)
(-0.0017599076 -0.017385724 0.0063974055)
(-0.00041991038 -0.021380386 0.0067742386)
(0.001256837 -0.025422503 0.0070491702)
(0.0037723113 -0.029097871 0.0072009372)
(0.006670097 -0.032797997 0.0072264701)
(0.010165931 -0.036146276 0.0073975653)
(0.014261725 -0.039430034 0.0072914261)
(0.018894276 -0.042405082 0.0073840626)