/*--------------------------------*- C++ -*----------------------------------*\
  =========                 |
  \\      /  F ield         | OpenFOAM: The Open Source CFD Toolbox
   \\    /   O peration     | Website:  https://openfoam.org
    \\  /    A nd           | Version:  6
     \\/     M anipulation  |
\*---------------------------------------------------------------------------*/
FoamFile
{
    version     2.0;
    format      ascii;
    class       pointScalarField;
    location    "1.44";
    object      p;
}
// * * * * * * * * * * * * * * * * * * * * * * * * * * * * * * * * * * * * * //

dimensions      [1 -1 -2 0 0 0 0];

internalField   nonuniform List<scalar> 
625
(
504353.32
-521301.46
2284.2686
7755.0899
656346.03
-1350954.9
6899.6276
1844.5997
314043.97
113247.1
10167.241
-10200.971
4459.9991
7924.2438
221566.38
220429.82
210690.37
201034.96
166214.86
158530.63
135850.78
120794.46
114902.57
100349.58
96579.973
91805.286
88005.3
85398.86
82460.818
79681.958
74752.455
70712.736
64600.817
57583.783
47763.668
32495.408
19896.671
-185250.14
-95291.539
-148845.81
-113152.52
-112486.43
-115689.6
-106755.01
-105712.32
-104206.08
-101702.74
-100105.7
-96043.478
-94915.733
-89340.443
-84340.634
-77879.599
-69153.713
-60498.28
-49466.365
-40260.652
-30163.388
-18587.246
-6048.9634
415565.36
-111786.19
-242329.65
-234195.48
-298410.76
-219446.91
-199547.15
-239400.83
-181691.73
-181298.35
-171723.97
-160603.47
-151464.3
-131946.05
-126514.18
-107621.7
-100606.32
-87900.753
-77077.607
-68289.849
-57481.053
-48625.937
-39598.382
-29492.859
-19435.779
-8287.414
5347.1379
3302.1515
-5737.3188
24502.252
31984.346
41732.146
56285.387
70406.001
81304.547
91617.379
101243.43
108608.96
114055.35
119414.29
123188.36
125927.18
130134.98
124150.11
146085.32
145824.35
141734.94
173528.58
151290.68
205770.25
150708.55
179984.8
503967.12
433884.01
397330.59
-639297.31
-666130.62
-651787.96
16004.753
15556.759
18613.934
-6192.0994
-1252.971
-4623.1344
103815.13
117379.45
122533.46
107823.2
108275.99
106160.85
97141.503
95616.877
90322.997
84698.519
83451.98
79013.112
75594.352
71463.87
67688.502
61256.556
55334.934
48458.799
39458.544
32866.905
24528.926
13054.876
8599.7616
17763.965
36986.234
18561.267
28343.422
18039.056
15260.532
9258.0389
6246.1711
-353.18665
-5611.3675
-9442.1361
-13924.508
-17188.427
-18383.456
-19498.241
-19010.73
-16871.026
-14401.946
-11206.427
-8139.0885
-5719.0189
1215.4564
4213.5552
-101423.32
-88255.074
-90773.744
-77964.843
-99566.641
-80336.539
-86489.672
-79569.966
-76186.479
-71212.227
-64825.406
-60655.583
-54205.888
-49679.719
-44459.544
-39705.227
-35019.997
-29986.028
-25813.013
-19929.348
-14862.16
-10578.034
-2509.6375
277329.58
212069.92
233571.36
37276.438
34064.74
-5087.6094
-25516.009
-78321.047
-156730.63
-272841.82
-286744.95
-305837.61
-208148.12
-210929.24
-200518.55
-191929.63
-189005.09
-205100.66
-153823
-162786.69
-170952.16
-164680.64
-173691.24
-189385.22
-155724.8
-159208.04
-163738.72
-151638.43
-150381.24
-167765.15
-143220.55
-145124.4
-155100.22
-137094.1
-135225.51
-144221.11
-129413.86
-126116.7
-136084.55
-119418
-115218.48
-124600.67
-111767.16
-107568.98
-115132.3
-101543.57
-96465.01
-103846.4
-92256.609
-87340.727
-93246.266
-82422.168
-77242.131
-83537.045
-72285.145
-67859.345
-71914.968
-62483.375
-57212.937
-61857.878
-51999.237
-48643.714
-51646.534
-43266.682
-39046.213
-41255.97
-33882.988
-30421.169
-32219.684
-24127.911
-21550.522
-23396.429
-16838.304
-16946.283
-17061.438
-14095.056
-9319.3939
-11589.779
-16035.418
-18019.291
-19843.328
2369.0514
2097.9588
4175.4294
11283.806
11626.469
9025.0236
234376.93
235119.9
213818.14
223455.96
215241.4
192160.38
224797.16
192832
180047.95
184443.3
168337.24
163979.09
175068.64
168650.4
145367.01
168668.22
133968.51
139945.48
147882.57
129617.78
132634.09
144150.99
119599.39
117360.62
132916.32
110594.87
123040.65
128151.5
100505.51
117372.12
124342.03
99389.021
114898.44
119235.53
93960.139
114307.31
114914.35
92262.296
113571.62
110814.86
89297.063
111399.63
105456.55
86581.401
108390.55
98887.882
82610.809
103305.96
91025.983
78306.51
97074.472
82399.236
72543.81
87860.603
71166.257
64795.521
77144.187
61060.857
55238.121
66543.057
48564.535
44755.993
53080.372
32788.85
34679.455
36325.894
26139.214
27789.909
30547.319
86196.855
130098.74
107715.1
111655.63
119340.01
108241.3
105430.68
96901.944
94274.743
83046.402
79386.526
70935.162
62552.015
56058.712
48143.174
41809.329
34968.068
30169.315
25093.9
19684.444
16601.635
10200.869
2735.7736
-45705.064
-16660.665
-19006.277
-6228.3952
-4080.7667
-9536.3708
-7027.4904
-3771.4626
-4763.7193
-1661.8051
3991.7203
4911.2293
10766.149
13382.195
17906.994
20190.99
22224.199
23932.225
21640.315
21588.579
18836.73
14827.508
8554.1416
-139733.9
-134449.64
-139354.8
-119220.18
-104792.13
-98888.72
-77870.352
-71323.458
-59925.717
-53701.407
-47893.463
-43969.959
-41835.586
-37950.123
-37464.507
-35118.453
-32931.993
-31101.834
-28628.962
-23827.551
-20599.978
-15296.382
-9358.7595
174356.26
148918.7
119147.9
160815.67
126772.29
110247.13
128116.86
108768.49
119644.68
125124.93
123507.02
100232.09
138566.37
103753.67
105892.55
110825.25
107572.14
110664.8
114180.94
113418.45
102443.63
107546.39
96867.199
99724.504
91532.959
97048.812
98740.263
87607.66
94221.51
89164.179
75110.695
85134.47
82879.571
65319.323
80657.589
77745.266
56689.379
73555.78
69855.22
47323.091
66896.061
62766.563
38898.809
59018.916
54621.081
30817.98
51904.863
47545.961
24787.444
44420.748
39515.972
19263.689
36524.15
31723.298
14088.683
28257.451
26001.207
9794.0715
25093.901
20113.344
4926.5303
16578.538
10261.561
7410.7416
8759.068
10611.871
1517.3678
556.52051
-672.45665
25423.499
-11783.618
-4922.5304
16720.908
20084.447
16126.034
24226.709
13527.383
7327.8576
16485.499
5765.5063
1573.6252
7681.1046
5563.5373
13378.885
3695.9832
10627.309
6978.0285
8024.3159
3118.5035
2968.7051
-3023.2866
1098.7896
3922.2981
345.44275
3676.2909
1179.1341
63.374597
-408.31171
-1940.5567
-1648.061
-538.97004
-4723.0779
-726.28336
690.36123
-6579.1746
-450.45545
1367.9587
-10293.503
689.79146
1540.2929
-12273.327
263.78884
3580.4976
-12749.933
1875.5729
5193.7771
-13771.707
2968.1676
6112.6347
-12784.052
2652.6133
6451.1167
-11521.7
4028.212
7902.7991
-6433.1268
6216.3427
8329.78
-8325.8634
6296.431
-3445.4751
-774.39558
6468.2538
9101.6752
2912.7738
8371.1513
9255.2829
7774.5889
-151464.25
-179565.05
-225030.06
-91722.674
-89806.399
-147101.22
-89765.575
-126541.94
-146233.5
-113059.05
-91684.706
-124647.82
-83509.522
-80619.461
-107097.07
-82058.505
-75800.448
-106444.34
-74979.195
-63803.804
-89010.931
-67578.473
-59958.894
-81369.595
-60068.637
-53284.958
-71306.453
-56152.803
-52029.808
-64418.631
-51430.506
-49885.869
-57800.984
-46601.973
-48950.596
-51267.073
-42513.205
-50653.085
-48015.358
-39770.393
-50429.39
-42762.192
-36527.731
-50602.26
-39627.627
-34190.365
-49527.078
-37709.907
-32038.521
-48483.907
-34754.005
-30025.42
-44029.944
-31581.77
-26519.557
-39607.389
-29863.851
-23378.977
-34732.604
-25571.871
-18214.111
-27965.575
-18826.813
-12083.755
-16393.846
-8145.1055
-4156.7541
-8989.9069
-7820.4532
)
;

boundaryField
{
    free
    {
        type            calculated;
    }
    fixed
    {
        type            calculated;
    }
    traction
    {
        type            calculated;
    }
}


// ************************************************************************* //
