/*--------------------------------*- C++ -*----------------------------------*\
  =========                 |
  \\      /  F ield         | OpenFOAM: The Open Source CFD Toolbox
   \\    /   O peration     | Website:  https://openfoam.org
    \\  /    A nd           | Version:  6
     \\/     M anipulation  |
\*---------------------------------------------------------------------------*/
FoamFile
{
    version     2.0;
    format      ascii;
    class       pointVectorField;
    location    "1.44";
    object      u;
}
// * * * * * * * * * * * * * * * * * * * * * * * * * * * * * * * * * * * * * //

dimensions      [0 1 0 0 0 0 0];

internalField   nonuniform List<vector> 
625
(
(0 0 0)
(0 0 0)
(1.0951775 0.031680186 0.097544821)
(1.0587571 -0.23603399 0.11394514)
(0 0 0)
(0 0 0)
(1.0377805 -0.25100088 0.11278157)
(1.0741702 0.016283876 0.097054311)
(0 0 0)
(0 0 0)
(0 0 0)
(1.0855232 -0.035911049 0.10083991)
(1.0761 -0.10178595 0.10565525)
(1.0677375 -0.16802194 0.10970731)
(0.0042023399 0.011936187 0.010668739)
(0.012496289 0.023266138 0.010295884)
(0.026570597 0.034577503 0.012481128)
(0.046439817 0.045226172 0.013800896)
(0.070097049 0.054236617 0.016249428)
(0.099309645 0.062459679 0.018991849)
(0.13192055 0.069565711 0.022247185)
(0.16865037 0.074951768 0.025863959)
(0.20893067 0.079880756 0.029889921)
(0.25234534 0.083108639 0.033960159)
(0.29886549 0.085707735 0.038449797)
(0.34825395 0.087027075 0.042970049)
(0.40026708 0.087496661 0.047644505)
(0.45484229 0.086908389 0.052338797)
(0.51171011 0.085413476 0.057064385)
(0.57077575 0.082894729 0.06177626)
(0.63184357 0.07954756 0.066375363)
(0.69455492 0.075145406 0.071073768)
(0.75907639 0.069966358 0.075464234)
(0.82454863 0.063879993 0.080019514)
(0.89131238 0.057041321 0.084522168)
(0.95882823 0.049498059 0.088853719)
(1.0264434 0.04102561 0.093557586)
(-0.0015826107 -0.0065636013 -0.010564457)
(0.0079551226 -0.015235868 -0.0057009243)
(0.021620223 -0.024531494 -0.0050195815)
(0.040058455 -0.033661197 -0.00024034313)
(0.062355665 -0.041067834 0.0033163152)
(0.090260259 -0.051342443 0.0085525495)
(0.12090684 -0.059022632 0.013249097)
(0.15611449 -0.068563567 0.019123929)
(0.19439058 -0.077627729 0.02466018)
(0.2360922 -0.0869256 0.030768908)
(0.28084513 -0.096800337 0.036870568)
(0.32834638 -0.10667115 0.043101935)
(0.37866709 -0.11702034 0.04937099)
(0.43135557 -0.12759066 0.055575826)
(0.48650479 -0.13840635 0.061810843)
(0.54375935 -0.14943532 0.067872763)
(0.60309159 -0.1606295 0.073962977)
(0.66419679 -0.17184278 0.079815914)
(0.72702334 -0.1831242 0.08571626)
(0.79117849 -0.19421736 0.091364516)
(0.85669946 -0.20520093 0.097044674)
(0.92315687 -0.21589949 0.10256835)
(0.99037495 -0.22617205 0.10815189)
(0 0 0)
(0 0 0)
(0 0 0)
(0.0023536863 -0.0059600952 0.0085556535)
(0.0090240052 -0.025778074 0.01210667)
(0.022610056 -0.031673713 0.01270032)
(0.037853579 -0.044011473 0.015507887)
(0.060695972 -0.056329072 0.019570806)
(0.086060093 -0.064850415 0.022216167)
(0.11519442 -0.076059957 0.027456824)
(0.14900983 -0.085762828 0.031568464)
(0.1856201 -0.095741106 0.036650236)
(0.22574358 -0.10576495 0.041954042)
(0.26858487 -0.11524334 0.047174875)
(0.31470306 -0.12571167 0.052860256)
(0.36326932 -0.13536003 0.058281218)
(0.41473933 -0.14590159 0.063857259)
(0.46859489 -0.1561876 0.069303523)
(0.52486487 -0.16675935 0.074614915)
(0.58336501 -0.17749219 0.07984817)
(0.64383699 -0.18823934 0.084925004)
(0.70616402 -0.19907093 0.089857633)
(0.77012021 -0.20987137 0.094696096)
(0.83534109 -0.22053461 0.09944772)
(0.90192517 -0.23106612 0.10403811)
(0.96908782 -0.24123001 0.10869596)
(1.0468929 -0.18266035 0.10885396)
(1.0547822 -0.11710774 0.10504038)
(1.0645336 -0.051479614 0.10154139)
(1.005809 0.025658694 0.091123827)
(0.93789238 0.033830028 0.085538396)
(0.87081159 0.041201349 0.080085829)
(0.80451782 0.047846426 0.074613616)
(0.73933862 0.053559418 0.069220614)
(0.67558446 0.058389501 0.063854059)
(0.61340765 0.06239943 0.0585555)
(0.55310413 0.065392105 0.053279821)
(0.49484316 0.0676026 0.048044182)
(0.43882211 0.068842376 0.042883712)
(0.38523085 0.069259149 0.037732364)
(0.33424062 0.068804867 0.032697842)
(0.28590742 0.067482824 0.027650528)
(0.24056621 0.065464617 0.022701105)
(0.19817077 0.062377638 0.018042431)
(0.15911212 0.058384349 0.013117232)
(0.12352239 0.054130057 0.0085443741)
(0.091771223 0.048007427 0.0047047632)
(0.063944029 0.042050749 0.00020455518)
(0.040329835 0.033734991 -0.0026462897)
(0.022174579 0.027381496 -0.006566648)
(0.0079109914 0.01675668 -0.007333586)
(0.0035512762 0.0083361237 -0.0073764528)
(0 0 0)
(0 0 0)
(0 0 0)
(0 0 0)
(0 0 0)
(0 0 0)
(1.0533026 -0.24010838 0.11348234)
(1.048265 -0.24393125 0.11353911)
(1.0428193 -0.24787615 0.11310063)
(1.0903388 0.028366767 0.09754277)
(1.0850645 0.024277406 0.097327092)
(1.0797631 0.020615404 0.097135856)
(-0.0037215731 -0.019259875 0.0065186745)
(0.00054423048 -0.036310837 0.0054731487)
(0.0096267122 -0.049914312 0.0080887851)
(0.02435225 -0.059744776 0.0095836038)
(0.044232569 -0.063813319 0.012608066)
(0.070838787 -0.062644832 0.015754653)
(0.10206135 -0.055732039 0.019586327)
(0.14009224 -0.043471334 0.023739722)
(0.18283347 -0.026514894 0.028404651)
(0.23121004 -0.0063769707 0.033283789)
(0.28401282 0.016171899 0.038484772)
(0.34081269 0.038991648 0.04380846)
(0.40087056 0.060848267 0.049183026)
(0.46336085 0.079936324 0.054553868)
(0.52745249 0.094842607 0.059850491)
(0.59238404 0.10446618 0.064966807)
(0.65734654 0.10771295 0.06998905)
(0.72178811 0.10432606 0.07479014)
(0.78531978 0.094088009 0.079444108)
(0.84747672 0.077283431 0.084051819)
(0.90853686 0.054777456 0.088325481)
(0.96827632 0.027560543 0.092808513)
(1.0271272 -0.0034908068 0.097055361)
(-0.0039649505 0.0029729438 0.0021751984)
(0.005602306 0.0050817613 0.0025238386)
(0.018682928 0.0073238402 0.0048890211)
(0.037801118 0.0087075579 0.0074090915)
(0.061954319 0.008953346 0.010721468)
(0.08999337 0.0084336002 0.014404926)
(0.12249103 0.007626678 0.018320472)
(0.15881419 0.0052594299 0.023029653)
(0.19835201 0.0028611244 0.02751042)
(0.241471 -0.0007691184 0.032565977)
(0.28728159 -0.0046913667 0.037610146)
(0.33612645 -0.0094691847 0.042822787)
(0.3875096 -0.014749933 0.048111297)
(0.44141441 -0.020593597 0.053437187)
(0.49761966 -0.026976469 0.058782396)
(0.55598437 -0.033837582 0.064116052)
(0.61629744 -0.041182049 0.069463042)
(0.67841214 -0.048861225 0.074710305)
(0.74210936 -0.057057619 0.080025566)
(0.80709674 -0.065402285 0.085147857)
(0.87335108 -0.074198731 0.090393749)
(0.94043688 -0.08325513 0.095596405)
(1.0084845 -0.092393664 0.1006604)
(-0.0015286738 0.02268665 -0.003666529)
(0.013812525 0.042623343 -0.0018514293)
(0.030941007 0.059361239 0.00064684726)
(0.055540171 0.06973334 0.0044610693)
(0.082310004 0.074123435 0.0085594249)
(0.11259062 0.073211461 0.012973017)
(0.14532318 0.063994434 0.018150387)
(0.17948415 0.049420429 0.022957169)
(0.21525296 0.028619234 0.028151294)
(0.25249368 0.0030077105 0.033327136)
(0.29106504 -0.025775877 0.038426034)
(0.33161515 -0.056816402 0.043653902)
(0.37413999 -0.087935 0.048788691)
(0.41942728 -0.1178653 0.053983657)
(0.46771406 -0.14505019 0.059217741)
(0.51962061 -0.16811813 0.064475358)
(0.57535077 -0.18622889 0.069822886)
(0.63523836 -0.19868206 0.075246844)
(0.69918192 -0.20521962 0.080715639)
(0.76714169 -0.20610424 0.086382895)
(0.83859642 -0.20185556 0.092009605)
(0.91310433 -0.19311805 0.097753849)
(0.98978468 -0.18145342 0.10369037)
(0 0 0)
(0 0 0)
(0 0 0)
(0 0 0)
(0 0 0)
(0 0 0)
(0 0 0)
(0 0 0)
(0 0 0)
(0.0028173505 -0.00303424 -0.0048305567)
(0.0045261747 -0.0044989362 -0.00097077431)
(0.0043466757 -0.0031603611 0.0026525812)
(0.012828265 -0.020179995 -0.0022817817)
(0.012990779 -0.021658434 0.0019693671)
(0.01252672 -0.021604196 0.0068248934)
(0.025272465 -0.026525907 -0.00086546975)
(0.026538214 -0.027358391 0.0032397509)
(0.026158741 -0.031175991 0.008708965)
(0.042623564 -0.036602076 0.0034879041)
(0.043226798 -0.040027734 0.0073147633)
(0.041741186 -0.040759796 0.011667327)
(0.06574129 -0.046285891 0.0070536678)
(0.065748362 -0.048776859 0.010524488)
(0.06460093 -0.052686303 0.015217521)
(0.09184946 -0.055017714 0.011717257)
(0.091720941 -0.058813971 0.015274149)
(0.089917619 -0.061605283 0.019155614)
(0.12270952 -0.06452416 0.016719738)
(0.12197674 -0.068575312 0.019693024)
(0.12002278 -0.072080216 0.023965078)
(0.15716704 -0.07378028 0.022194024)
(0.15582421 -0.077509099 0.02495083)
(0.15365147 -0.081443723 0.028602037)
(0.19487206 -0.082914411 0.027783201)
(0.19314055 -0.087470079 0.030394206)
(0.19046103 -0.091189179 0.03383478)
(0.23610097 -0.092797428 0.033628773)
(0.23384249 -0.097007582 0.036087729)
(0.23099789 -0.10111499 0.039324379)
(0.28001349 -0.10221791 0.039662923)
(0.27744694 -0.10667 0.041923305)
(0.27405215 -0.11068101 0.044863724)
(0.32713288 -0.11249363 0.045780282)
(0.32403116 -0.11685002 0.047807054)
(0.32040825 -0.12090845 0.050625072)
(0.37666954 -0.12252729 0.051862743)
(0.37328921 -0.12677854 0.053717518)
(0.36926621 -0.13093943 0.056371368)
(0.42893388 -0.13313101 0.057958488)
(0.42516949 -0.1373537 0.05966969)
(0.42081833 -0.14134774 0.062062033)
(0.48349347 -0.14375105 0.06398236)
(0.47945231 -0.14780277 0.065454673)
(0.47484998 -0.15193001 0.067727349)
(0.54033807 -0.1546397 0.069855614)
(0.53604968 -0.15867614 0.071232991)
(0.531145 -0.16261638 0.07324418)
(0.59922089 -0.16563929 0.075698862)
(0.59470865 -0.16951825 0.076856844)
(0.58964217 -0.17348378 0.078647224)
(0.6600283 -0.17667985 0.081309913)
(0.65537254 -0.18055208 0.08235086)
(0.65009714 -0.18442703 0.083933679)
(0.72250049 -0.18774148 0.08691441)
(0.71765623 -0.19150032 0.087798942)
(0.71229278 -0.19536025 0.089042113)
(0.78648826 -0.19866652 0.092328746)
(0.78159579 -0.20250371 0.092999768)
(0.77614199 -0.2062996 0.094070265)
(0.85175868 -0.20956337 0.097653947)
(0.84667763 -0.21321778 0.098291046)
(0.84122755 -0.2170195 0.099012942)
(0.91807247 -0.22004044 0.10301223)
(0.91300616 -0.22379387 0.10340783)
(0.90757161 -0.22768241 0.1037524)
(0.98523473 -0.23038496 0.10829431)
(0.97996048 -0.23408976 0.10831335)
(0.97468584 -0.2378191 0.10852398)
(1.0807709 -0.039378517 0.1013685)
(1.0755561 -0.043204229 0.10132794)
(1.0701414 -0.047068046 0.10138773)
(1.070928 -0.10548983 0.1056843)
(1.0657976 -0.10952879 0.10540173)
(1.0602578 -0.11321263 0.10526887)
(1.0625551 -0.17200152 0.10937398)
(1.057429 -0.17574763 0.10931153)
(1.0519924 -0.17938969 0.10912576)
(0.0084851716 0.0091891612 0.0043453088)
(0.0078667123 0.0096752421 0.00074432502)
(0.0076506934 0.0082761082 -0.003029933)
(0.014946961 0.021061408 0.0045519138)
(0.014945373 0.019370139 0.00022338937)
(0.012831576 0.017538091 -0.0042478722)
(0.02986232 0.032786406 0.006790973)
(0.028513297 0.030472121 0.0030781769)
(0.027314976 0.028740031 -0.0023845389)
(0.047624728 0.041844648 0.0087471773)
(0.047338689 0.038963111 0.0048728489)
(0.045171581 0.036855764 0.00034160721)
(0.071977641 0.051316914 0.011883275)
(0.071174251 0.048167723 0.0079456241)
(0.06858778 0.044985858 0.0037165554)
(0.10007842 0.058711338 0.0148801)
(0.09855021 0.054554464 0.011833106)
(0.096485374 0.051518929 0.0075832747)
(0.13233864 0.065458252 0.018758781)
(0.1309826 0.061660076 0.015422421)
(0.12838329 0.057535938 0.011518556)
(0.16880581 0.070888334 0.022710519)
(0.16692811 0.066348192 0.01968183)
(0.16399637 0.062453718 0.015942745)
(0.20842127 0.075504484 0.027093073)
(0.20612214 0.070795939 0.023942117)
(0.20323136 0.066469943 0.020579758)
(0.2515804 0.07868951 0.031385241)
(0.24909365 0.07384487 0.028834446)
(0.24586135 0.069361544 0.025298853)
(0.29779611 0.081074153 0.036063082)
(0.29482633 0.076325621 0.033265955)
(0.2913308 0.071724174 0.030098729)
(0.34681831 0.082446494 0.040740088)
(0.34354962 0.077586568 0.038141237)
(0.33992039 0.07295053 0.035120358)
(0.3985942 0.082863274 0.045505108)
(0.39503328 0.0780539 0.042968223)
(0.39110883 0.073409818 0.040080184)
(0.45290084 0.082311915 0.05026105)
(0.44898199 0.077586406 0.047871266)
(0.44487469 0.07296537 0.04513056)
(0.50952205 0.080857693 0.055075679)
(0.50538091 0.0762077 0.052779331)
(0.50105417 0.07164925 0.050210832)
(0.56837051 0.078392918 0.059780791)
(0.563929 0.073906233 0.057673761)
(0.55938409 0.069426666 0.055283545)
(0.62910022 0.075153886 0.064554428)
(0.62445439 0.070732928 0.062598944)
(0.61979201 0.066296938 0.060433865)
(0.69164383 0.070792744 0.069223897)
(0.68685944 0.066538483 0.067451616)
(0.68191837 0.06231111 0.06551538)
(0.75572296 0.065766799 0.073828966)
(0.75066448 0.061651412 0.072413825)
(0.74567478 0.057403209 0.070683133)
(0.82091423 0.059820166 0.078676837)
(0.8158789 0.05576372 0.077195535)
(0.81075188 0.05166973 0.075855769)
(0.88739566 0.05308056 0.08322831)
(0.88228542 0.049012697 0.082160512)
(0.87695144 0.045057532 0.081092205)
(0.95445385 0.045447078 0.087793619)
(0.94916178 0.041738977 0.087170563)
(0.94383571 0.037785516 0.086295205)
(1.0221526 0.037591383 0.092894365)
(1.0168048 0.033647359 0.092236438)
(1.0115641 0.02963301 0.091884574)
(-0.0049351126 -0.022585889 -0.0034647436)
(-0.0020364566 -0.038901979 -0.0036392003)
(0.0053550156 -0.057789983 -0.001294575)
(0.020146098 -0.068943743 0.00043030291)
(0.039022856 -0.075515888 0.0033922433)
(0.064433065 -0.076339336 0.0069640694)
(0.095234063 -0.070638988 0.011030914)
(0.13147601 -0.059753473 0.015764469)
(0.17339878 -0.043673586 0.020655387)
(0.22032266 -0.024047997 0.02614952)
(0.27176077 -0.0018699007 0.031721715)
(0.32726867 0.020881036 0.037549176)
(0.38605507 0.042857663 0.043460629)
(0.44732003 0.062227179 0.049333109)
(0.51035752 0.077517172 0.055181742)
(0.57427241 0.087527448 0.06087276)
(0.63842137 0.091278771 0.066438581)
(0.70215533 0.088245868 0.071764053)
(0.76500339 0.078337684 0.076973898)
(0.82683393 0.061830414 0.081963651)
(0.88746073 0.039403173 0.086848232)
(0.94694929 0.012188837 0.091661215)
(1.006036 -0.018865146 0.096558033)
(-0.0038965206 0.0013016979 0.00034576988)
(0.0032889129 4.0817184e-05 0.001624249)
(0.017100923 -0.0017116557 0.0045566112)
(0.034342729 -0.0020342333 0.0065913891)
(0.057154075 -0.0038270531 0.010177911)
(0.084401579 -0.0059708195 0.014254121)
(0.11516946 -0.0081295903 0.018193587)
(0.15016901 -0.011237669 0.022952098)
(0.18839628 -0.0144907 0.027557262)
(0.23001302 -0.018594508 0.032744334)
(0.27446386 -0.02265838 0.037639773)
(0.32209331 -0.027727697 0.042992681)
(0.37214607 -0.032748059 0.048165417)
(0.4250079 -0.038535153 0.053469836)
(0.48019657 -0.044510522 0.058702727)
(0.53767982 -0.051067644 0.063958519)
(0.59729787 -0.057930165 0.069151602)
(0.65875738 -0.065304168 0.074296325)
(0.72197636 -0.0730056 0.079498577)
(0.78669463 -0.081164821 0.084519397)
(0.85264904 -0.089693427 0.089698426)
(0.91960927 -0.098658637 0.094719413)
(0.98788254 -0.10779005 0.099897106)
(-0.0014793623 0.019401353 0.0058114008)
(0.014253564 0.038146136 0.0073458334)
(0.031088251 0.046712122 0.010820994)
(0.05271614 0.05877355 0.012296687)
(0.079305611 0.059255046 0.0167106)
(0.10795961 0.056259691 0.020039137)
(0.13874919 0.046908566 0.024256625)
(0.17177605 0.030404238 0.028789109)
(0.20577219 0.0097017464 0.033220761)
(0.24162045 -0.016497834 0.037955917)
(0.2786078 -0.045209112 0.042667868)
(0.31776485 -0.076039524 0.04749783)
(0.35891612 -0.10690363 0.05238784)
(0.40297665 -0.13630702 0.057275054)
(0.45016149 -0.16301902 0.062312382)
(0.50106401 -0.18553218 0.067340203)
(0.55602105 -0.20310448 0.072462774)
(0.61518925 -0.21502761 0.077638701)
(0.67870513 -0.22116629 0.082859067)
(0.74626441 -0.22165696 0.088075139)
(0.81753173 -0.21709243 0.093411007)
(0.89202783 -0.208283 0.098617639)
(0.96859588 -0.19631328 0.10397069)
(-0.0015664249 -0.022617391 0.0026265957)
(-0.0018138983 -0.022482404 0.0011434309)
(-0.001263818 -0.023257038 -0.001660113)
(0.0033653687 -0.037001575 0.0028074049)
(0.0041859758 -0.038215328 0.00059061596)
(0.0016517514 -0.038563693 -0.0019913084)
(0.012498576 -0.052439821 0.0051276822)
(0.011329189 -0.05448577 0.0030749597)
(0.010305546 -0.05586293 0.00026127534)
(0.026400268 -0.061883095 0.0070887375)
(0.026623499 -0.064288815 0.0045352245)
(0.024585911 -0.066225667 0.0020654831)
(0.046422194 -0.067009032 0.009711177)
(0.045872143 -0.070143396 0.007657525)
(0.043857418 -0.072685907 0.005237544)
(0.072161871 -0.066189854 0.013326195)
(0.07139386 -0.069682513 0.01110893)
(0.068951093 -0.072555145 0.008541212)
(0.10317031 -0.059793194 0.017188722)
(0.10211382 -0.06340817 0.014755714)
(0.099971091 -0.066910521 0.012775245)
(0.14057733 -0.047612006 0.021367985)
(0.1392915 -0.05204544 0.019316818)
(0.13647581 -0.05585416 0.017203442)
(0.18309607 -0.03136316 0.026256616)
(0.18111368 -0.035448743 0.024131927)
(0.17832023 -0.039421287 0.022313007)
(0.23087307 -0.011001331 0.031187463)
(0.22871543 -0.015508763 0.029111481)
(0.22561103 -0.019997757 0.027497411)
(0.28335229 0.011212914 0.036514859)
(0.28057751 0.0067157854 0.034654023)
(0.27718505 0.002306312 0.033111042)
(0.33968896 0.03409206 0.041924833)
(0.33658319 0.02963344 0.040123225)
(0.33297665 0.024970637 0.038775498)
(0.39939552 0.05597157 0.047387042)
(0.39586754 0.051522378 0.045765864)
(0.39194333 0.046853229 0.044587191)
(0.46150546 0.075115177 0.052893269)
(0.45756837 0.070785121 0.051435407)
(0.45342094 0.066111382 0.050371329)
(0.52522411 0.090201049 0.058269235)
(0.52098302 0.085924803 0.056979389)
(0.51659089 0.081308468 0.056074174)
(0.58979925 0.099915221 0.0635548)
(0.58523314 0.095754341 0.062490035)
(0.58060335 0.091223792 0.061677041)
(0.65436555 0.10339133 0.068708596)
(0.64957596 0.099306576 0.067795875)
(0.64480028 0.094892848 0.067122672)
(0.71848817 0.10012328 0.073653751)
(0.71355726 0.09611009 0.072983413)
(0.70849404 0.091860682 0.072351678)
(0.78162411 0.090076647 0.078522004)
(0.77639694 0.086178361 0.077950965)
(0.77134943 0.08192522 0.077485781)
(0.84333485 0.073447353 0.083257209)
(0.83833431 0.06945244 0.082901552)
(0.8329805 0.06541745 0.08236287)
(0.9040034 0.05095421 0.087645979)
(0.89905991 0.047155808 0.087651849)
(0.89349115 0.043214776 0.08715243)
(0.96356434 0.02384344 0.092377591)
(0.95825885 0.020038714 0.092303058)
(0.95281438 0.016035607 0.091862442)
(1.0222408 -0.0069161803 0.096859898)
(1.0168925 -0.01085094 0.096770495)
(1.0115673 -0.014714717 0.096559946)
(-0.0008623555 0.0014938654 0.00074109851)
(-0.00057418895 0.0016304536 -0.00044316805)
(-3.6548785e-05 0.0014666509 -0.00047165564)
(0.008130443 0.0037026849 0.00091863639)
(0.0082533569 0.0029889305 0.00046374241)
(0.0064912604 0.0016418819 0.00064983426)
(0.022113705 0.0049413272 0.003772485)
(0.021564768 0.0033800046 0.0039629181)
(0.02103805 0.0012558299 0.0036106011)
(0.039833282 0.005487771 0.0059453292)
(0.040306052 0.0028989683 0.0057684397)
(0.038474535 -0.00024547527 0.0059180978)
(0.06421591 0.0054671942 0.0095823761)
(0.063469851 0.0026208838 0.010037528)
(0.061328669 -0.00034545798 0.0093946311)
(0.091304098 0.0045626139 0.013475203)
(0.09055585 0.0011692378 0.013291562)
(0.088678145 -0.0026574227 0.013533696)
(0.12350362 0.0034098701 0.017253815)
(0.12247701 -0.0004536909 0.017779022)
(0.11994482 -0.0047455029 0.017478325)
(0.1592628 0.00079672146 0.022334526)
(0.15780309 -0.0033613006 0.022533311)
(0.15481766 -0.0073262547 0.022445393)
(0.19823386 -0.0017076928 0.026780686)
(0.1963256 -0.0060429024 0.027079488)
(0.19336888 -0.010653647 0.027003777)
(0.24086886 -0.0053982751 0.031985778)
(0.23874793 -0.010089309 0.032487497)
(0.23523248 -0.014490224 0.032364103)
(0.28622333 -0.0094757473 0.037151195)
(0.28361237 -0.014226368 0.037562949)
(0.2798126 -0.018712562 0.037390977)
(0.33455995 -0.014217466 0.042398798)
(0.33168794 -0.019087794 0.042920336)
(0.32760105 -0.023470857 0.042745217)
(0.3855381 -0.01946317 0.047813021)
(0.38231938 -0.02437496 0.04836035)
(0.37784216 -0.028711261 0.048134698)
(0.43897681 -0.02528001 0.053140276)
(0.43545721 -0.030231391 0.053709117)
(0.43075006 -0.034370571 0.053438088)
(0.49481132 -0.031555817 0.058562549)
(0.49101269 -0.036405516 0.059154763)
(0.48605991 -0.040481384 0.058825649)
(0.55277772 -0.03834714 0.063902911)
(0.54871397 -0.04315695 0.064466449)
(0.54357297 -0.047043417 0.064107144)
(0.61275955 -0.045541091 0.069261143)
(0.60844815 -0.050180122 0.069790057)
(0.60318814 -0.0540223 0.069380277)
(0.6745645 -0.053137875 0.074526616)
(0.67002256 -0.057702146 0.074976849)
(0.66468435 -0.061414193 0.074545685)
(0.73794536 -0.061162501 0.079817155)
(0.7332276 -0.065534502 0.080167878)
(0.72779548 -0.069269169 0.079795978)
(0.80275659 -0.069427152 0.084916349)
(0.79781269 -0.073890613 0.085287932)
(0.79242635 -0.077421789 0.084750506)
(0.86882271 -0.07811046 0.090337832)
(0.86367364 -0.082377312 0.090001936)
(0.8583579 -0.085931775 0.090038832)
(0.93565197 -0.087276852 0.095354507)
(0.93047791 -0.09106116 0.09541893)
(0.92497624 -0.094968187 0.094945193)
(1.003464 -0.096158167 0.10044351)
(0.99837632 -0.10027327 0.10033987)
(0.9931028 -0.10384459 0.10010248)
(0.0020627463 0.022103048 -0.0020041968)
(0.0019143686 0.022277593 0.00019215112)
(0.0017789809 0.021851185 0.0022908003)
(0.018273107 0.041355316 -0.00038214653)
(0.018892839 0.041991414 0.0022633009)
(0.017381797 0.039378147 0.0046716174)
(0.034990898 0.056014037 0.0024533941)
(0.035394663 0.051975466 0.0053731849)
(0.034897607 0.05003727 0.0078215685)
(0.059081124 0.065338949 0.0059309692)
(0.058741868 0.063827193 0.0082295168)
(0.057160082 0.060507927 0.010138644)
(0.085077694 0.070162774 0.010408805)
(0.084762875 0.065855189 0.01262922)
(0.083178332 0.063190435 0.014587913)
(0.11491974 0.067806399 0.014407261)
(0.11414853 0.06404425 0.016486209)
(0.11207773 0.060015409 0.018056063)
(0.14686255 0.058787021 0.019701474)
(0.14570862 0.054413058 0.021560791)
(0.14326243 0.050899513 0.022957436)
(0.18042798 0.04389276 0.024405045)
(0.1788076 0.039173017 0.025814522)
(0.17613649 0.035072467 0.027340588)
(0.21560703 0.022875409 0.029457062)
(0.21355086 0.018328289 0.030971269)
(0.21067515 0.014039155 0.032274968)
(0.25216571 -0.0026576001 0.034630531)
(0.24989279 -0.0075505204 0.035832303)
(0.24655968 -0.011797362 0.036948481)
(0.29021513 -0.031527713 0.039574255)
(0.28738336 -0.036250538 0.040689899)
(0.28395793 -0.040697071 0.041806931)
(0.33018084 -0.062430859 0.044735772)
(0.32708545 -0.06709964 0.04578091)
(0.32333413 -0.071505653 0.046699314)
(0.37221186 -0.09342847 0.049765463)
(0.36867976 -0.098045881 0.050669533)
(0.36479702 -0.10256725 0.051569858)
(0.41701982 -0.12326828 0.054874713)
(0.41318139 -0.12767485 0.055755412)
(0.40903727 -0.1321185 0.056524467)
(0.46489193 -0.15022912 0.060022233)
(0.46069799 -0.15451115 0.060799791)
(0.4564661 -0.15899356 0.061516024)
(0.51638662 -0.1731599 0.065192255)
(0.51197083 -0.1772991 0.065947309)
(0.50746073 -0.1816976 0.066554472)
(0.57179955 -0.1910806 0.07046945)
(0.56706368 -0.19505133 0.071136954)
(0.56249861 -0.19940643 0.071691258)
(0.63132722 -0.20333561 0.075790543)
(0.62651996 -0.20726621 0.076426642)
(0.62170064 -0.21150968 0.076865046)
(0.69505179 -0.20977262 0.081191736)
(0.68997484 -0.21359111 0.081751767)
(0.68504365 -0.21767138 0.082146201)
(0.762701 -0.21046922 0.086756612)
(0.75762838 -0.21424168 0.08719906)
(0.7526249 -0.21827794 0.087432603)
(0.83393202 -0.20602061 0.09224619)
(0.82879297 -0.20983602 0.092603325)
(0.82353502 -0.21365568 0.092859496)
(0.90828461 -0.19733694 0.097894221)
(0.90303802 -0.20108599 0.098252638)
(0.89784961 -0.20489465 0.098355305)
(0.98467179 -0.18559684 0.10367121)
(0.97937197 -0.18914192 0.10371515)
(0.97415046 -0.19311097 0.10364308)
)
;

boundaryField
{
    free
    {
        type            calculated;
    }
    fixed
    {
        type            calculated;
    }
    traction
    {
        type            calculated;
    }
}


// ************************************************************************* //
