/*--------------------------------*- C++ -*----------------------------------*\
  =========                 |
  \\      /  F ield         | OpenFOAM: The Open Source CFD Toolbox
   \\    /   O peration     | Website:  https://openfoam.org
    \\  /    A nd           | Version:  6
     \\/     M anipulation  |
\*---------------------------------------------------------------------------*/
FoamFile
{
    version     2.0;
    format      ascii;
    class       pointVectorField;
    location    "0.01";
    object      u;
}
// * * * * * * * * * * * * * * * * * * * * * * * * * * * * * * * * * * * * * //

dimensions      [0 1 0 0 0 0 0];

internalField   nonuniform List<vector> 
28033
(
(0 0 0)
(0 0 0)
(0.0054541669 0.0029209972 9.6195665e-05)
(0.0054379068 -0.0029425673 -7.9935515e-05)
(0 0 0)
(0 0 0)
(0.0054216277 -0.0029232845 7.1429533e-05)
(0.0055047507 0.0029024983 -5.3680874e-05)
(0 0 0)
(0 0 0)
(0 0 0)
(0 0 0)
(0 0 0)
(0 0 0)
(0 0 0)
(0 0 0)
(0 0 0)
(0 0 0)
(0 0 0)
(0 0 0)
(0 0 0)
(0 0 0)
(0 0 0)
(0.0053861603 0.0019740819 -0.00016073831)
(0.0052339526 0.0014016864 -0.00022455847)
(0.005075857 0.00098508992 -0.00028334064)
(0.0049630208 0.00064120191 -0.00028025079)
(0.0048621458 0.00038729969 -0.00027806488)
(0.0047839647 0.00021043135 -0.00021820594)
(0.0047303745 8.9549298e-05 -0.00012935414)
(0.0047095294 4.4254895e-06 -6.2181665e-06)
(0.0047191907 -7.8547849e-05 0.0001188318)
(0.0047574967 -0.00020813567 0.00022572545)
(0.0048359353 -0.00039421534 0.00028098207)
(0.0049258138 -0.00066862808 0.0002799172)
(0.0050570146 -0.0010122187 0.00026169743)
(0.0051714708 -0.0014719058 0.00021387288)
(0.0053498289 -0.0020365113 0.00010028661)
(0 0 0)
(0 0 0)
(0 0 0)
(0 0 0)
(0 0 0)
(0 0 0)
(0 0 0)
(0 0 0)
(0 0 0)
(0 0 0)
(0 0 0)
(0 0 0)
(0 0 0)
(0 0 0)
(0 0 0)
(0 0 0)
(0 0 0)
(0 0 0)
(0 0 0)
(0 0 0)
(0 0 0)
(0 0 0)
(0 0 0)
(0 0 0)
(0 0 0)
(0 0 0)
(0 0 0)
(0 0 0)
(0 0 0)
(0 0 0)
(0 0 0)
(0 0 0)
(0 0 0)
(0 0 0)
(0 0 0)
(0 0 0)
(0 0 0)
(0 0 0)
(0 0 0)
(-2.220446e-16 0 -2.220446e-16)
(-1.3322676e-15 -8.8817842e-16 -1.3322676e-15)
(-5.5511151e-15 -9.7699626e-15 -5.1070259e-15)
(-1.5099033e-14 -4.6185278e-14 -1.5321078e-14)
(-3.1974423e-14 -1.5987212e-13 -3.1974423e-14)
(-3.663736e-14 -4.4764192e-13 -3.9301895e-14)
(6.6835426e-14 -1.0658141e-12 5.2735594e-14)
(6.082912e-13 -2.160494e-12 5.5228044e-13)
(2.5079938e-12 -3.5904613e-12 2.324918e-12)
(8.0017104e-12 -4.2046366e-12 7.4673601e-12)
(2.1950108e-11 -2.6556535e-13 2.0531576e-11)
(5.3954119e-11 1.7320811e-11 5.0487836e-11)
(1.2141066e-10 6.74234e-11 1.1357359e-10)
(2.535181e-10 1.8486856e-10 2.3712715e-10)
(4.9617577e-10 4.2859671e-10 4.6463267e-10)
(9.1823105e-10 8.9285779e-10 8.6311669e-10)
(1.621233e-09 1.7256747e-09 1.5364652e-09)
(2.7587231e-09 3.1659226e-09 2.6532522e-09)
(4.5778414e-09 5.6235399e-09 4.5061611e-09)
(7.5064798e-09 9.8479234e-09 7.6328261e-09)
(1.2321582e-08 1.7260845e-08 1.3044415e-08)
(2.0451845e-08 3.0566148e-08 2.2627143e-08)
(3.4497396e-08 5.4834589e-08 3.9830431e-08)
(5.8994369e-08 9.9295893e-08 7.0671052e-08)
(1.0192176e-07 1.8029793e-07 1.2565462e-07)
(1.7588119e-07 3.2632089e-07 2.2173287e-07)
(3.0203311e-07 5.8414855e-07 3.8815251e-07)
(5.0975695e-07 1.0330106e-06 6.7094187e-07)
(8.3962738e-07 1.803647e-06 1.1402178e-06)
(1.3625262e-06 3.1166038e-06 1.9313569e-06)
(2.1980267e-06 5.2762748e-06 3.2111464e-06)
(3.4601697e-06 8.7708815e-06 5.2010206e-06)
(5.3191557e-06 1.4323373e-05 8.2904121e-06)
(7.9888483e-06 2.2937322e-05 1.2973345e-05)
(1.171045e-05 3.5957744e-05 1.9887976e-05)
(1.6733888e-05 5.5072031e-05 2.9815178e-05)
(2.3218776e-05 8.2253389e-05 4.3633395e-05)
(3.1019376e-05 0.00011960525 6.2308591e-05)
(3.9249585e-05 0.00016924038 8.699222e-05)
(4.5789492e-05 0.00023326625 0.00011922482)
(4.7294451e-05 0.0003141084 0.00016165245)
(4.0019233e-05 0.00041492368 0.00021782695)
(2.3455147e-05 0.00053958711 0.00029195243)
(3.4814116e-06 0.00069166945 0.00038675557)
(-3.9331825e-06 0.00087128717 0.00049894968)
(2.5778633e-05 0.0010749525 0.00061828992)
(0.00012157242 0.0012925357 0.00072755913)
(0.00030539581 0.0015116363 0.00080377448)
(0.00058664073 0.0017201285 0.00083626927)
(0.00095947851 0.0019148613 0.00082033865)
(0.0013996802 0.0020927695 0.00076067395)
(0.0018984793 0.0022430688 0.00069880221)
(0.002426908 0.0024120797 0.00058711027)
(0.0029867015 0.0025337914 0.00053790214)
(0.0036125992 0.0027130638 0.00045805127)
(0.0042887683 0.002873291 0.00036847063)
(0 1.3877788e-17 0)
(0 -5.5511151e-17 0)
(0 0 0)
(0 0 0)
(0 0 0)
(0 0 0)
(0 0 0)
(0 0 0)
(0 0 0)
(0 0 0)
(0 0 0)
(0 0 0)
(0 0 0)
(0 0 0)
(0 0 0)
(0 0 0)
(0 0 0)
(0 0 0)
(0 0 0)
(0 0 0)
(0 0 0)
(0 0 0)
(0 0 0)
(0 0 0)
(0 0 0)
(0 0 0)
(0 0 0)
(0 0 0)
(0 0 0)
(0 0 0)
(0 0 0)
(0 0 0)
(0 0 0)
(0 0 0)
(0 0 0)
(0 0 0)
(0 0 0)
(0 0 0)
(0 0 0)
(0 0 0)
(0 0 -1.110223e-16)
(5.5511151e-16 0 -4.4408921e-16)
(2.4424907e-15 -1.7763568e-15 -2.220446e-15)
(7.1054274e-15 -6.2172489e-15 -4.4408921e-15)
(1.2212453e-14 -1.5543122e-14 -1.110223e-15)
(-5.6621374e-15 -9.7699626e-15 4.2299497e-14)
(-1.5343282e-13 9.0594199e-14 2.5696112e-13)
(-7.8381746e-13 5.8530958e-13 1.032896e-12)
(-2.8553826e-12 2.3177016e-12 3.3688607e-12)
(-8.5880192e-12 7.3150375e-12 9.4513286e-12)
(-2.2333135e-11 1.9753976e-11 2.3337887e-11)
(-5.1073312e-11 4.6748383e-11 5.1033178e-11)
(-1.0267975e-10 9.7397201e-11 9.7999997e-11)
(-1.7794238e-10 1.7614932e-10 1.6006774e-10)
(-2.4941194e-10 2.6291902e-10 2.0085589e-10)
(-2.1749103e-10 2.6769209e-10 1.0617784e-10)
(1.6606638e-10 -5.7329252e-11 -3.9507064e-10)
(1.4124987e-09 -1.2678951e-09 -1.8518163e-09)
(4.4430699e-09 -4.4609467e-09 -5.2567637e-09)
(1.0751983e-08 -1.1613327e-08 -1.2258132e-08)
(2.2566569e-08 -2.6062852e-08 -2.542827e-08)
(4.3017157e-08 -5.3215663e-08 -4.8647121e-08)
(7.6394425e-08 -1.0168602e-07 -8.7734989e-08)
(1.2874599e-07 -1.8525724e-07 -1.5169682e-07)
(2.0913947e-07 -3.2653657e-07 -2.5488437e-07)
(3.3223735e-07 -5.6320368e-07 -4.2123622e-07)
(5.2291404e-07 -9.5881395e-07 -6.9105653e-07)
(8.195742e-07 -1.622797e-06 -1.1315758e-06)
(1.2798076e-06 -2.7489157e-06 -1.8657102e-06)
(2.025897e-06 -4.6117231e-06 -3.0515855e-06)
(3.2275586e-06 -7.7003794e-06 -4.9500734e-06)
(5.0585136e-06 -1.2708505e-05 -7.9532409e-06)
(7.8143372e-06 -2.0671789e-05 -1.2589923e-05)
(1.1798121e-05 -3.3005253e-05 -1.9545494e-05)
(1.7309099e-05 -5.153529e-05 -2.9657466e-05)
(2.454179e-05 -7.8448634e-05 -4.3863851e-05)
(3.3432739e-05 -0.00011612795 -6.3138225e-05)
(4.3410212e-05 -0.00016691659 -8.8440873e-05)
(5.302473e-05 -0.00023289225 -0.0001208118)
(5.9552035e-05 -0.00031587116 -0.00016172474)
(5.9066472e-05 -0.00041774998 -0.00021368548)
(4.7925701e-05 -0.00054097231 -0.00028058514)
(2.6620233e-05 -0.0006884105 -0.00036684534)
(5.4880067e-06 -0.00086190697 -0.00047435379)
(9.0672083e-06 -0.0010595257 -0.00059786634)
(7.3716389e-05 -0.0012734803 -0.00072136024)
(0.00023581657 -0.0014910762 -0.00082026527)
(0.00051479211 -0.0016991113 -0.000870439)
(0.00090313312 -0.0018906642 -0.0008601926)
(0.0013723714 -0.0020646604 -0.00079523595)
(0.0018879515 -0.0022246033 -0.0006998628)
(0.0024393126 -0.0023766171 -0.00059116085)
(0.0030098655 -0.0025258048 -0.00048255427)
(0.0036576516 -0.00265691 -0.00039776573)
(0.0043773006 -0.002840467 -0.00026478729)
(0 0 0)
(0 0 0)
(0 0 0)
(0 0 0)
(0 0 0)
(0 0 0)
(0 0 0)
(0 0 0)
(0 0 0)
(0 0 0)
(0 0 0)
(0 0 0)
(0 0 0)
(0 0 0)
(0 0 0)
(0 -1.3877788e-17 0)
(0 -5.5511151e-17 0)
(0 0 0)
(0 0 0)
(0 0 0)
(0 0 0)
(0 0 0)
(0 0 0)
(0 0 0)
(0 0 0)
(0 0 0)
(0 0 0)
(0 0 0)
(0 0 0)
(0 0 0)
(0 0 0)
(0 0 0)
(0 0 0)
(0 0 0)
(0 0 0)
(0 0 0)
(0 0 0)
(0 0 0)
(0 0 0)
(0 0 0)
(0 0 0)
(0 0 0)
(0 0 0)
(0 0 0)
(0 0 0)
(0 0 0)
(0 0 0)
(0 0 0)
(0 0 0)
(0 0 0)
(0 0 0)
(0 0 0)
(0 0 0)
(0 0 0)
(0 0 0)
(0 0 0)
(1.110223e-16 0 1.110223e-16)
(8.8817842e-16 -4.4408921e-16 8.8817842e-16)
(3.5527137e-15 -1.7763568e-15 3.5527137e-15)
(8.6597396e-15 -7.5495166e-15 8.437695e-15)
(5.3290705e-15 -7.5495166e-15 4.9960036e-15)
(-7.6716411e-14 4.7517545e-14 -7.860379e-14)
(-5.1314508e-13 3.8191672e-13 -5.2174931e-13)
(-2.1658231e-12 1.7190693e-12 -2.2023494e-12)
(-7.277956e-12 6.0493832e-12 -7.4107387e-12)
(-2.077305e-11 1.8007817e-11 -2.119227e-11)
(-5.153955e-11 4.6657789e-11 -5.2704285e-11)
(-1.1157386e-10 1.0613554e-10 -1.143815e-10)
(-2.0761409e-10 2.1026558e-10 -2.1324209e-10)
(-3.1531722e-10 3.5064751e-10 -3.2349395e-10)
(-3.2206338e-10 4.397096e-10 -3.2434622e-10)
(7.432277e-11 1.9306423e-10 1.1398482e-10)
(1.5115871e-09 -1.0762702e-09 1.7040169e-09)
(5.1303861e-09 -4.7702571e-09 5.7612493e-09)
(1.2715336e-08 -1.3427474e-08 1.4434881e-08)
(2.6768349e-08 -3.1254066e-08 3.0918382e-08)
(5.055042e-08 -6.4818146e-08 5.9686309e-08)
(8.830175e-08 -1.2412956e-07 1.069801e-07)
(1.4607181e-07 -2.2465106e-07 1.8200165e-07)
(2.3391865e-07 -3.9108963e-07 2.9963124e-07)
(3.6932583e-07 -6.6573436e-07 4.8464338e-07)
(5.8982845e-07 -1.1133429e-06 7.789049e-07)
(9.6024445e-07 -1.8692784e-06 1.2148445e-06)
(1.4024125e-06 -3.2167308e-06 2.0967882e-06)
(2.3800864e-06 -5.1904856e-06 3.3434608e-06)
(3.7674198e-06 -8.5519623e-06 5.3802856e-06)
(5.8902819e-06 -1.3955224e-05 8.5551523e-06)
(8.9837284e-06 -2.2408077e-05 1.3378524e-05)
(1.3333645e-05 -3.5247691e-05 2.048274e-05)
(1.9172938e-05 -5.4145978e-05 3.0626248e-05)
(2.6607894e-05 -8.1037317e-05 4.4653261e-05)
(3.5493558e-05 -0.00011798523 6.3450199e-05)
(4.5269137e-05 -0.00016700415 8.7931852e-05)
(5.4721751e-05 -0.00022993826 0.00011915639)
(6.1670076e-05 -0.00030855695 0.00015869979)
(6.2782004e-05 -0.00040501147 0.00020930036)
(5.4298781e-05 -0.0005225653 0.00027532757)
(3.5023913e-05 -0.0006659977 0.00036192717)
(1.2381672e-05 -0.00084054742 0.00047153638)
(9.3391943e-06 -0.0010484695 0.00059810123)
(6.5538661e-05 -0.0012840034 0.00072279572)
(0.00022535066 -0.0015303412 0.00081724196)
(0.00051449268 -0.0017631942 0.00085637387)
(0.00092143954 -0.0019618378 0.0008334674)
(0.0014039122 -0.0021210918 0.00076393007)
(0.0019183502 -0.0022542611 0.00067327332)
(0.0024545812 -0.0023826984 0.00057879132)
(0.0030182042 -0.0025217757 0.00048328613)
(0.0036624889 -0.0026628022 0.00038942118)
(0.0043663636 -0.00288062 0.00026107152)
(0.0053946797 -0.0020215812 -9.8833613e-05)
(0.0052028072 -0.0014869157 -0.00020114934)
(0.0050710307 -0.0010124769 -0.00025268643)
(0.004969457 -0.00068613096 -0.00028837918)
(0.0048781871 -0.00039183646 -0.00027055327)
(0.0048059851 -0.00020779106 -0.00023764755)
(0.0047630844 -6.1881349e-05 -0.00012878927)
(0.0047409542 2.6004925e-05 -1.5192362e-05)
(0.0047397712 0.00011071671 0.00010680223)
(0.004787595 0.00020713811 0.0002034314)
(0.0048731059 0.00038357786 0.00026161274)
(0.0049617364 0.00063555284 0.00027730141)
(0.0050969526 0.00094969567 0.00027643532)
(0.0051955756 0.0014094346 0.0002276603)
(0.005449484 0.0019168938 0.00014557446)
(0.0043688961 0.0028787679 -0.00032150933)
(0.0036401772 0.0026483165 -0.00041165077)
(0.0030064891 0.0025243248 -0.00052279888)
(0.0024384099 0.0023883771 -0.00059598955)
(0.0018950228 0.0022555368 -0.00069427851)
(0.0013929507 0.0021091428 -0.00076860696)
(0.00094178301 0.0019420707 -0.0008225511)
(0.00056576279 0.0017453346 -0.00083488504)
(0.00028543766 0.0015223896 -0.00079932409)
(0.00010789334 0.0012860524 -0.00071861149)
(2.1977842e-05 0.0010561507 -0.00060886292)
(-3.2133306e-07 0.00084825755 -0.00048984091)
(1.0476215e-05 0.00067171385 -0.00038019623)
(2.9664656e-05 0.00052578285 -0.00028854641)
(4.4084831e-05 0.00040710581 -0.00021682022)
(4.8905074e-05 0.00031069699 -0.00016240682)
(4.6022657e-05 0.00023246324 -0.00012106752)
(3.9092647e-05 0.00016974714 -8.9114469e-05)
(3.100894e-05 0.00012066312 -6.4294165e-05)
(2.3406653e-05 8.3427725e-05 -4.5276956e-05)
(1.6990381e-05 5.6130048e-05 -3.1075892e-05)
(1.1924252e-05 3.6797772e-05 -2.0798022e-05)
(8.1188864e-06 2.3550904e-05 -1.3593114e-05)
(5.3766393e-06 1.474645e-05 -8.691952e-06)
(3.467967e-06 9.053668e-06 -5.4535524e-06)
(2.1679725e-06 5.4762631e-06 -3.3600468e-06)
(1.3426378e-06 3.3268727e-06 -2.0565397e-06)
(8.4413529e-07 1.8763316e-06 -1.1291533e-06)
(5.0825307e-07 1.0776256e-06 -6.9230704e-07)
(2.9030931e-07 6.1866325e-07 -4.0377023e-07)
(1.6942685e-07 3.4866977e-07 -2.3092137e-07)
(9.8001814e-08 1.9530735e-07 -1.3019792e-07)
(5.7292417e-08 1.0925385e-07 -7.3442703e-08)
(3.4007287e-08 6.1398881e-08 -4.1740922e-08)
(2.0595128e-08 3.4809671e-08 -2.4074739e-08)
(1.2674287e-08 1.9890174e-08 -1.4099512e-08)
(7.8334135e-09 1.1380803e-08 -8.3269351e-09)
(4.7855379e-09 6.449266e-09 -4.8950283e-09)
(2.8442553e-09 3.5724637e-09 -2.8202278e-09)
(1.6226518e-09 1.9094943e-09 -1.5690022e-09)
(8.7921243e-10 9.7330144e-10 -8.3217033e-10)
(4.4863335e-10 4.680869e-10 -4.1621651e-10)
(2.1398838e-10 2.1020163e-10 -1.9436314e-10)
(9.468859e-11 8.7126306e-11 -8.3852925e-11)
(3.8515857e-11 3.282441e-11 -3.297973e-11)
(1.4219237e-11 1.097078e-11 -1.1590395e-11)
(4.6677107e-12 3.1041836e-12 -3.5091374e-12)
(1.3106183e-12 6.5769612e-13 -8.407719e-13)
(2.8654856e-13 4.7961635e-14 -1.1290968e-13)
(3.2474023e-14 -4.1744386e-14 2.4868996e-14)
(-9.2148511e-15 -2.8421709e-14 2.553513e-14)
(-7.5495166e-15 -1.0658141e-14 1.0880186e-14)
(-2.8865799e-15 -2.6645353e-15 3.4416914e-15)
(-7.7715612e-16 -4.4408921e-16 6.6613381e-16)
(-1.110223e-16 0 0)
(0 0 0)
(0 0 0)
(0 0 0)
(0 0 0)
(0 0 0)
(0 0 0)
(0 0 0)
(0 0 0)
(0 0 0)
(0 0 0)
(0 0 0)
(0 0 0)
(0 0 0)
(0 0 0)
(0 0 0)
(0 0 0)
(0 0 0)
(0 0 0)
(0 0 0)
(0 0 0)
(0 0 0)
(0 0 0)
(0 0 0)
(0 0 0)
(0 0 0)
(0 0 0)
(0 0 0)
(0 0 0)
(0 0 0)
(0 0 0)
(0 0 0)
(0 0 0)
(0 0 0)
(0 0 0)
(0 0 0)
(0 0 0)
(0 0 0)
(0 0 0)
(0 0 0)
(0 -5.5511151e-17 0)
(0 0 0)
(0 0 0)
(0 0 0)
(0 0 0)
(0 0 0)
(0 0 0)
(0 0 0)
(0 0 0)
(0 0 0)
(0 0 0)
(0 0 0)
(0 0 0)
(0 0 0)
(0 0 0)
(0 0 0)
(0 0 0)
(0 0 0)
(0 0 0)
(0 0 0)
(0 0 0)
(0 0 0)
(0 0 0)
(0 0 0)
(0 0 0)
(0 0 0)
(0 0 0)
(0 0 0)
(0 0 0)
(0 0 0)
(0 0 0)
(0.0055416709 -0.003067048 -8.0696231e-05)
(0.0055926702 -0.0031344448 -7.8802045e-05)
(0.0056055032 -0.0031532822 -7.6637715e-05)
(0.0056114564 -0.0031586794 -7.237166e-05)
(0.0056070163 -0.0031492657 -6.296112e-05)
(0.0055930746 -0.0031253599 -4.8183863e-05)
(0.0055804511 -0.003105769 -2.7774652e-05)
(0.0055765286 -0.0031016578 -2.7318119e-06)
(0.0055845916 -0.0031119874 2.1153072e-05)
(0.0056000198 -0.0031379144 4.1371052e-05)
(0.0056222529 -0.003164974 5.9711956e-05)
(0.0056268367 -0.0031711645 6.8250992e-05)
(0.0056230686 -0.0031696226 7.6230601e-05)
(0.0056020619 -0.0031401348 7.7841764e-05)
(0.0055712583 -0.0030964335 7.3305824e-05)
(0.005607031 0.0031000797 8.6321506e-05)
(0.0056509912 0.0031408194 9.9353327e-05)
(0.0056698314 0.003163658 9.185374e-05)
(0.0056871009 0.0031779567 8.1386258e-05)
(0.0056829355 0.0031613392 7.1828123e-05)
(0.0056690182 0.0031392595 5.0560686e-05)
(0.0056522755 0.0031169702 2.5589096e-05)
(0.0056412479 0.0031060516 -2.3103102e-06)
(0.0056423929 0.0031108628 -2.9716429e-05)
(0.0056521862 0.003127519 -5.13059e-05)
(0.0056667555 0.0031470988 -6.8017522e-05)
(0.0056758734 0.0031579199 -7.6053005e-05)
(0.0056795598 0.0031640558 -7.18997e-05)
(0.0056655035 0.0031159071 -8.5107633e-05)
(0.00564801 0.0031151137 -6.4450677e-05)
(-1.2351385e-07 -2.4696676e-06 0)
(-2.4649879e-07 -4.9287597e-06 0)
(-3.6842819e-07 -7.3667462e-06 0)
(-4.8877992e-07 -9.773187e-06 0)
(-6.0703862e-07 -1.2137778e-05 0)
(-7.2269789e-07 -1.4450392e-05 0)
(-8.3526245e-07 -1.6701128e-05 0)
(-9.442503e-07 -1.8880348e-05 0)
(-1.0491947e-06 -2.0978718e-05 0)
(-1.1496463e-06 -2.2987255e-05 0)
(-1.245175e-06 -2.4897356e-05 0)
(-1.3353716e-06 -2.6700844e-05 0)
(-1.4198499e-06 -2.8389994e-05 0)
(-1.4982483e-06 -2.9957574e-05 0)
(-1.5702309e-06 -3.139687e-05 0)
(-1.6354895e-06 -3.2701721e-05 0)
(-1.6937447e-06 -3.3866538e-05 0)
(-1.744747e-06 -3.4886333e-05 0)
(-1.7882781e-06 -3.575674e-05 0)
(-1.8241515e-06 -3.6474031e-05 0)
(-1.8522136e-06 -3.7035134e-05 0)
(-1.8723442e-06 -3.7437647e-05 0)
(-1.8844572e-06 -3.7679847e-05 0)
(-1.8885006e-06 -3.7760695e-05 0)
(-1.8844572e-06 -3.7679847e-05 0)
(-1.8723442e-06 -3.7437647e-05 0)
(-1.8522136e-06 -3.7035134e-05 0)
(-1.8241515e-06 -3.6474031e-05 0)
(-1.7882781e-06 -3.575674e-05 0)
(-1.744747e-06 -3.4886333e-05 0)
(-1.6937447e-06 -3.3866538e-05 0)
(-1.6354895e-06 -3.2701721e-05 0)
(-1.5702309e-06 -3.139687e-05 0)
(-1.4982483e-06 -2.9957574e-05 0)
(-1.4198499e-06 -2.8389994e-05 0)
(-1.3353716e-06 -2.6700844e-05 0)
(-1.245175e-06 -2.4897356e-05 0)
(-1.1496463e-06 -2.2987255e-05 0)
(-1.0491947e-06 -2.0978718e-05 -1.110223e-16)
(-9.442503e-07 -1.8880348e-05 -6.6613381e-16)
(-8.3526245e-07 -1.6701128e-05 -2.553513e-15)
(-7.2269789e-07 -1.4450392e-05 -6.2172489e-15)
(-6.0703863e-07 -1.2137778e-05 -8.3266727e-15)
(-4.8877992e-07 -9.7731871e-06 1.7652546e-14)
(-3.6842816e-07 -7.3667463e-06 1.6697754e-13)
(-2.4649857e-07 -4.92876e-06 7.3258066e-13)
(-1.2351296e-07 -2.4696678e-06 2.479017e-12)
(2.9029001e-12 8.3844043e-13 7.1657125e-12)
(1.2352213e-07 2.4696726e-06 1.843925e-11)
(2.4652008e-07 4.9287765e-06 4.3147486e-11)
(3.6847828e-07 7.3667922e-06 9.3032471e-11)
(4.8888913e-07 9.7732974e-06 1.8660784e-10)
(6.0726096e-07 1.2138017e-05 3.510493e-10)
(7.2312332e-07 1.4450875e-05 6.2455907e-10)
(8.3603206e-07 1.6702043e-05 1.0614104e-09)
(9.4557517e-07 1.8882002e-05 1.7454793e-09)
(1.0513825e-06 2.0981621e-05 2.8238122e-09)
(1.1531474e-06 2.2992273e-05 4.5796341e-09)
(1.2506759e-06 2.490603e-05 7.5735124e-09)
(1.3439861e-06 2.6715995e-05 1.2892887e-08)
(1.4334895e-06 2.841687e-05 2.2562817e-08)
(1.5202925e-06 3.0005912e-05 4.0204177e-08)
(1.6066598e-06 3.1484477e-05 7.2015116e-08)
(1.6966676e-06 3.2860639e-05 1.2847071e-07)
(1.7972452e-06 3.4153728e-05 2.264762e-07)
(1.9188408e-06 3.5399266e-05 3.9354522e-07)
(2.0761368e-06 3.6664046e-05 6.7440887e-07)
(2.2867381e-06 3.8052815e-05 1.1384084e-06)
(2.5842085e-06 3.9745892e-05 1.9020233e-06)
(3.0159864e-06 4.2016325e-05 3.1210995e-06)
(3.6299686e-06 4.5292965e-05 5.0152956e-06)
(4.481548e-06 5.0214915e-05 7.935071e-06)
(5.6375588e-06 5.7689721e-05 1.2331944e-05)
(7.1668619e-06 6.8964373e-05 1.8793175e-05)
(9.1294354e-06 8.5662666e-05 2.8041604e-05)
(1.1512898e-05 0.00010980477 4.0897519e-05)
(1.4046596e-05 0.00014375529 5.8286696e-05)
(1.580503e-05 0.00019019279 8.1236401e-05)
(1.4730118e-05 0.00025195918 0.00011101038)
(7.558474e-06 0.00033193669 0.00014958971)
(-9.172007e-06 0.00043264356 0.00019906424)
(-3.5707371e-05 0.00055503753 0.00026307674)
(-6.5405301e-05 0.00069779297 0.00034183293)
(-8.0466402e-05 0.00085476123 0.00043290287)
(-5.5485146e-05 0.0010172773 0.00052947655)
(3.9861088e-05 0.0011721859 0.00061482425)
(0.00022636442 0.0013136087 0.00067566066)
(0.00051287289 0.0014395341 0.00070082231)
(0.00088738588 0.0015559044 0.0006826952)
(0.0013386261 0.0016630083 0.00064082783)
(0.0018298294 0.0017727393 0.000565654)
(0.0023743965 0.001874638 0.00048025374)
(0.0029371311 0.0019398225 0.00040358044)
(0.0035734267 0.0020328194 0.00026287359)
(0.004312834 0.0019687543 0.00012542974)
(-2.2822383e-07 -4.5633507e-06 0)
(-4.5547038e-07 -9.1071605e-06 0)
(-6.8076652e-07 -1.3611972e-05 0)
(-9.0314753e-07 -1.8058495e-05 0)
(-1.1216611e-06 -2.2427689e-05 0)
(-1.3353716e-06 -2.6700844e-05 0)
(-1.5433638e-06 -3.0859661e-05 0)
(-1.744747e-06 -3.4886333e-05 0)
(-1.938659e-06 -3.8763617e-05 0)
(-2.1242694e-06 -4.2474908e-05 0)
(-2.3007833e-06 -4.6004316e-05 0)
(-2.4674449e-06 -4.9336726e-05 0)
(-2.6235406e-06 -5.2457868e-05 0)
(-2.7684018e-06 -5.5354378e-05 0)
(-2.9014083e-06 -5.8013852e-05 0)
(-3.0219905e-06 -6.0424902e-05 0)
(-3.1296321e-06 -6.2577203e-05 0)
(-3.2238722e-06 -6.4461539e-05 0)
(-3.3043071e-06 -6.606984e-05 0)
(-3.3705925e-06 -6.7395221e-05 0)
(-3.4224444e-06 -6.8432004e-05 0)
(-3.459641e-06 -6.9175752e-05 0)
(-3.4820228e-06 -6.9623278e-05 0)
(-3.4894941e-06 -6.9772667e-05 0)
(-3.4820228e-06 -6.9623278e-05 0)
(-3.459641e-06 -6.9175752e-05 0)
(-3.4224444e-06 -6.8432004e-05 0)
(-3.3705925e-06 -6.7395221e-05 0)
(-3.3043071e-06 -6.606984e-05 0)
(-3.2238722e-06 -6.4461539e-05 0)
(-3.1296321e-06 -6.2577203e-05 0)
(-3.0219905e-06 -6.0424902e-05 0)
(-2.9014083e-06 -5.8013852e-05 0)
(-2.7684018e-06 -5.5354378e-05 0)
(-2.6235406e-06 -5.2457868e-05 0)
(-2.4674449e-06 -4.9336726e-05 0)
(-2.3007833e-06 -4.6004316e-05 0)
(-2.1242694e-06 -4.2474908e-05 0)
(-1.938659e-06 -3.8763617e-05 -2.220446e-16)
(-1.744747e-06 -3.4886333e-05 -1.110223e-15)
(-1.5433638e-06 -3.0859661e-05 -4.2188475e-15)
(-1.3353716e-06 -2.6700844e-05 -9.1038288e-15)
(-1.1216611e-06 -2.2427689e-05 -7.9936058e-15)
(-9.0314753e-07 -1.8058495e-05 4.5852211e-14)
(-6.8076649e-07 -1.3611972e-05 3.2274183e-13)
(-4.5547018e-07 -9.1071604e-06 1.3288259e-12)
(-2.2822304e-07 -4.5633498e-06 4.3535731e-12)
(2.6171842e-12 4.1611159e-12 1.2302825e-11)
(2.2823134e-07 4.563364e-06 3.1030345e-11)
(4.5548976e-07 9.1071962e-06 7.1144979e-11)
(6.8081231e-07 1.3612057e-05 1.4994606e-10)
(9.032474e-07 1.805868e-05 2.9277947e-10)
(1.1218637e-06 2.242806e-05 5.3299026e-10)
(1.3357554e-06 2.6701539e-05 9.1052005e-10)
(1.5440458e-06 3.0860893e-05 1.4719199e-09)
(1.7458882e-06 3.4888423e-05 2.2799445e-09)
(1.9404657e-06 3.8767063e-05 3.4488349e-09)
(2.126995e-06 4.2480538e-05 5.2306418e-09)
(2.3047457e-06 4.6013602e-05 8.1859993e-09)
(2.4730903e-06 4.9352412e-05 1.3478174e-08)
(2.6316057e-06 5.2485131e-05 2.333291e-08)
(2.7802326e-06 5.5402857e-05 4.1721015e-08)
(2.9194953e-06 5.8101082e-05 7.5328567e-08)
(3.0507104e-06 6.0581983e-05 1.3512419e-07)
(3.1762062e-06 6.2858482e-05 2.3828966e-07)
(3.2990127e-06 6.4958724e-05 4.1205098e-07)
(3.425501e-06 6.6944599e-05 7.0577876e-07)
(3.5646721e-06 6.89252e-05 1.1879191e-06)
(3.7047788e-06 7.1006862e-05 1.9424476e-06)
(3.8491783e-06 7.3447565e-05 3.1273974e-06)
(3.9863522e-06 7.6612651e-05 4.9486433e-06)
(4.0737345e-06 8.1045605e-05 7.7068902e-06)
(4.0426142e-06 8.7513527e-05 1.1798121e-05)
(3.7813617e-06 9.7080419e-05 1.7727118e-05)
(3.1142604e-06 0.00011114697 2.6108974e-05)
(1.7535363e-06 0.00013150481 3.7641455e-05)
(-8.7490972e-07 0.00016032824 5.3111504e-05)
(-5.945807e-06 0.00020018546 7.3345835e-05)
(-1.5536169e-05 0.00025385232 9.935451e-05)
(-3.2693255e-05 0.00032401882 0.00013240442)
(-5.9649818e-05 0.00041263402 0.0001739227)
(-9.5662496e-05 0.0005193104 0.0002261996)
(-0.00013175348 0.00064116646 0.00028815957)
(-0.00014622621 0.00076930912 0.00036336283)
(-0.00011245323 0.00089215411 0.0004371661)
(-7.1130417e-06 0.0010053406 0.00050738319)
(0.00019079786 0.001097627 0.00055749616)
(0.00048317732 0.001170558 0.00057762702)
(0.00086198588 0.0012311804 0.00056647026)
(0.0013082269 0.0012887108 0.00052164578)
(0.0018025978 0.0013436298 0.00045356088)
(0.0023524506 0.0013868351 0.00037181099)
(0.0029318998 0.0014215321 0.00026200621)
(0.0035889659 0.0014235947 0.00013701074)
(0.004350238 0.0013904044 -9.437947e-06)
(-2.9818881e-07 -5.9623051e-06 0)
(-5.9510072e-07 -1.1899079e-05 0)
(-8.8946433e-07 -1.7784898e-05 0)
(-1.1800191e-06 -2.3594561e-05 0)
(-1.4655209e-06 -2.9303187e-05 0)
(-1.744747e-06 -3.4886333e-05 0)
(-2.0165019e-06 -4.0320091e-05 0)
(-2.2796219e-06 -4.5581191e-05 0)
(-2.5329801e-06 -5.0647106e-05 0)
(-2.7754917e-06 -5.5496142e-05 0)
(-3.0061183e-06 -6.0107535e-05 0)
(-3.2238722e-06 -6.4461539e-05 0)
(-3.4278209e-06 -6.8539508e-05 0)
(-3.6170913e-06 -7.232398e-05 0)
(-3.7908726e-06 -7.5798751e-05 0)
(-3.9484209e-06 -7.8948939e-05 0)
(-4.0890614e-06 -8.1761056e-05 0)
(-4.212192e-06 -8.4223059e-05 0)
(-4.3172853e-06 -8.6324406e-05 0)
(-4.4038913e-06 -8.8056099e-05 0)
(-4.4716392e-06 -8.9410723e-05 0)
(-4.5202388e-06 -9.0382475e-05 0)
(-4.549482e-06 -9.0967197e-05 0)
(-4.5592437e-06 -9.1162382e-05 0)
(-4.549482e-06 -9.0967197e-05 0)
(-4.5202388e-06 -9.0382475e-05 0)
(-4.4716392e-06 -8.9410723e-05 0)
(-4.4038913e-06 -8.8056099e-05 0)
(-4.3172853e-06 -8.6324406e-05 0)
(-4.212192e-06 -8.4223059e-05 0)
(-4.0890614e-06 -8.1761056e-05 0)
(-3.9484209e-06 -7.8948939e-05 0)
(-3.7908726e-06 -7.5798751e-05 0)
(-3.6170913e-06 -7.232398e-05 0)
(-3.4278209e-06 -6.8539508e-05 0)
(-3.2238722e-06 -6.4461539e-05 0)
(-3.0061183e-06 -6.0107535e-05 0)
(-2.7754917e-06 -5.5496142e-05 0)
(-2.5329801e-06 -5.0647106e-05 -2.220446e-16)
(-2.2796219e-06 -4.5581191e-05 -1.5543122e-15)
(-2.0165019e-06 -4.0320091e-05 -5.1070259e-15)
(-1.744747e-06 -3.4886333e-05 -1.1768364e-14)
(-1.4655209e-06 -2.9303187e-05 -1.0880186e-14)
(-1.1800191e-06 -2.3594561e-05 5.7787108e-14)
(-8.894643e-07 -1.7784899e-05 4.1722181e-13)
(-5.9510056e-07 -1.1899078e-05 1.7370549e-12)
(-2.9818815e-07 -5.9623032e-06 5.7332472e-12)
(2.157885e-12 6.8594019e-12 1.6282642e-11)
(2.9819502e-07 5.9623254e-06 4.1182169e-11)
(5.9511683e-07 1.1899131e-05 9.444534e-11)
(8.8950246e-07 1.7785019e-05 1.9850044e-10)
(1.1801021e-06 2.3594816e-05 3.8498871e-10)
(1.4656878e-06 2.9303685e-05 6.9251027e-10)
(1.745058e-06 3.4887239e-05 1.1606318e-09)
(2.0170379e-06 4.0321641e-05 1.8230771e-09)
(2.2804749e-06 4.558372e-05 2.7102707e-09)
(2.5342271e-06 5.0651093e-05 3.8819601e-09)
(2.7771484e-06 5.550235e-05 5.5219095e-09)
(3.0080775e-06 6.0117318e-05 8.133861e-09)
(3.2258421e-06 6.4477485e-05 1.287776e-08)
(3.4292866e-06 6.8566633e-05 2.2075708e-08)
(3.6173164e-06 7.2371778e-05 3.9914036e-08)
(3.7889244e-06 7.588453e-05 7.3396062e-08)
(3.9430621e-06 7.9103136e-05 1.3358644e-07)
(4.0783083e-06 8.20354e-05 2.3779494e-07)
(4.1916636e-06 8.4703376e-05 4.1145298e-07)
(4.2779359e-06 8.7152357e-05 7.0257097e-07)
(4.3320299e-06 8.9386601e-05 1.1095828e-06)
(4.3323968e-06 9.164597e-05 1.8208704e-06)
(4.2377023e-06 9.4053486e-05 2.8941805e-06)
(3.9926228e-06 9.6913423e-05 4.5295263e-06)
(3.4849369e-06 0.00010065923 6.9786748e-06)
(2.5533115e-06 0.00010590601 1.0575137e-05)
(9.4416194e-07 0.00011351022 1.5753313e-05)
(-1.7101927e-06 0.00012461812 2.3047444e-05)
(-5.9418383e-06 0.00014069662 3.3056281e-05)
(-1.2612933e-05 0.00016355306 4.6463883e-05)
(-2.3132019e-05 0.00019531202 6.395799e-05)
(-3.9647911e-05 0.00023823759 8.6287766e-05)
(-6.4616134e-05 0.00029444434 0.00011420565)
(-9.9466712e-05 0.0003652219 0.0001485279)
(-0.00014100946 0.00045006622 0.0001903021)
(-0.00017875483 0.0005462391 0.00023948048)
(-0.00019200968 0.00064676848 0.00029618772)
(-0.0001557263 0.00074214505 0.00035539033)
(-3.6421855e-05 0.00082541847 0.00041039548)
(0.00017426817 0.00088882979 0.00044812044)
(0.00047844197 0.00093143071 0.0004653389)
(0.00086242361 0.00096136444 0.00045049805)
(0.0013111417 0.00098071367 0.00041128059)
(0.0018119414 0.00099547976 0.00034881113)
(0.0023627629 0.0010018611 0.00026326323)
(0.0029563879 0.00099187345 0.00016559477)
(0.0036167847 0.000978459 4.4461459e-05)
(0.0043462127 0.00093951492 -9.8359749e-05)
(-3.2275724e-07 -6.4535525e-06 0)
(-6.4413238e-07 -1.287947e-05 0)
(-9.6274925e-07 -1.9250235e-05 0)
(-1.2772435e-06 -2.5538568e-05 0)
(-1.5862684e-06 -3.1717541e-05 0)
(-1.8885006e-06 -3.7760695e-05 0)
(-2.182646e-06 -4.3642152e-05 0)
(-2.4674449e-06 -4.9336726e-05 0)
(-2.7416779e-06 -5.4820032e-05 0)
(-3.0041706e-06 -6.0068591e-05 0)
(-3.253799e-06 -6.5059927e-05 0)
(-3.4894941e-06 -6.9772667e-05 0)
(-3.7102466e-06 -7.4186629e-05 0)
(-3.9151114e-06 -7.8282912e-05 0)
(-4.103211e-06 -8.2043976e-05 0)
(-4.27374e-06 -8.5453716e-05 0)
(-4.4259682e-06 -8.8497529e-05 0)
(-4.5592437e-06 -9.1162382e-05 0)
(-4.6729959e-06 -9.3436864e-05 0)
(-4.7667376e-06 -9.5311235e-05 0)
(-4.8400673e-06 -9.6777469e-05 0)
(-4.8926712e-06 -9.7829286e-05 0)
(-4.9243239e-06 -9.8462184e-05 0)
(-4.9348899e-06 -9.8673451e-05 0)
(-4.9243239e-06 -9.8462184e-05 0)
(-4.8926712e-06 -9.7829286e-05 0)
(-4.8400673e-06 -9.6777469e-05 0)
(-4.7667376e-06 -9.5311235e-05 0)
(-4.6729959e-06 -9.3436864e-05 0)
(-4.5592437e-06 -9.1162382e-05 0)
(-4.4259682e-06 -8.8497529e-05 0)
(-4.27374e-06 -8.5453716e-05 0)
(-4.103211e-06 -8.2043976e-05 0)
(-3.9151114e-06 -7.8282912e-05 0)
(-3.7102466e-06 -7.4186629e-05 0)
(-3.4894941e-06 -6.9772667e-05 0)
(-3.253799e-06 -6.5059927e-05 0)
(-3.0041706e-06 -6.0068591e-05 0)
(-2.7416779e-06 -5.4820032e-05 -2.220446e-16)
(-2.4674449e-06 -4.9336726e-05 -1.5543122e-15)
(-2.182646e-06 -4.3642152e-05 -5.9952043e-15)
(-1.8885006e-06 -3.7760695e-05 -1.4099832e-14)
(-1.5862684e-06 -3.1717542e-05 -1.5654145e-14)
(-1.2772435e-06 -2.5538569e-05 5.639933e-14)
(-9.6274924e-07 -1.9250235e-05 4.5774495e-13)
(-6.441323e-07 -1.2879469e-05 1.9694801e-12)
(-3.2275688e-07 -6.4535498e-06 6.6178729e-12)
(1.2937984e-12 9.2610364e-12 1.9012458e-11)
(3.2276118e-07 6.453579e-06 4.8442139e-11)
(6.44143e-07 1.2879537e-05 1.1151902e-10)
(9.6277499e-07 1.9250387e-05 2.3439695e-10)
(1.2773e-06 2.5538883e-05 4.5260129e-10)
(1.5863813e-06 3.1718144e-05 8.0580992e-10)
(1.8887046e-06 3.7761765e-05 1.3259605e-09)
(2.1829756e-06 4.3643928e-05 2.0214777e-09)
(2.4679075e-06 4.9339509e-05 2.8696325e-09)
(2.7421971e-06 5.4824209e-05 3.8423332e-09)
(3.0044901e-06 6.0074733e-05 5.0039657e-09)
(3.253339e-06 6.506908e-05 6.7260542e-09)
(3.4871598e-06 6.978698e-05 1.0056042e-08)
(3.7041878e-06 7.4210554e-05 1.7252974e-08)
(3.9024148e-06 7.832523e-05 3.2487401e-08)
(4.07944e-06 8.2120992e-05 6.2679028e-08)
(4.2321123e-06 8.5594055e-05 1.1852675e-07)
(4.3558583e-06 8.8749171e-05 2.1617206e-07)
(4.4429146e-06 9.1603055e-05 3.7808092e-07)
(4.4811629e-06 9.4188126e-05 6.4159519e-07)
(4.45012e-06 9.6561653e-05 1.0452164e-06)
(4.3055088e-06 9.8830577e-05 1.6812492e-06)
(3.9861239e-06 0.00010114812 2.6371133e-06)
(3.3931907e-06 0.00010374856 4.0939727e-06)
(2.3559795e-06 0.00010697412 6.2287757e-06)
(6.7356638e-07 0.0001112963 9.3258819e-06)
(-2.0524712e-06 0.00011741434 1.3757884e-05)
(-6.3368124e-06 0.00012616001 1.9897717e-05)
(-1.2906415e-05 0.00013867484 2.8267557e-05)
(-2.28328e-05 0.00015627125 3.9374654e-05)
(-3.7751439e-05 0.00018047247 5.3711511e-05)
(-5.9835896e-05 0.00021283452 7.1794046e-05)
(-9.1335989e-05 0.0002547005 9.3939482e-05)
(-0.00013253697 0.00030674702 0.00012066913)
(-0.00017917931 0.00036835677 0.00015202712)
(-0.00021832961 0.00043709247 0.00018857079)
(-0.000227782 0.00050821522 0.00022926567)
(-0.00018107143 0.00057472403 0.00027214898)
(-5.1878184e-05 0.00063056159 0.00031175971)
(0.00017079493 0.00067209391 0.00034062132)
(0.00048450928 0.00069780384 0.00035336066)
(0.00087519824 0.00071111256 0.0003420282)
(0.0013309102 0.0007136576 0.00030979618)
(0.0018348738 0.00070938021 0.00025191774)