/*--------------------------------*- C++ -*----------------------------------*\
  =========                 |
  \\      /  F ield         | OpenFOAM: The Open Source CFD Toolbox
   \\    /   O peration     | Website:  https://openfoam.org
    \\  /    A nd           | Version:  6
     \\/     M anipulation  |
\*---------------------------------------------------------------------------*/
FoamFile
{
    version     2.0;
    format      ascii;
    class       pointVectorField;
    location    "1.78";
    object      lm;
}
// * * * * * * * * * * * * * * * * * * * * * * * * * * * * * * * * * * * * * //

dimensions      [1 -2 -1 0 0 0 0];

internalField   nonuniform List<vector> 
3969
(
(0 0 0)
(0 0 0)
(1464.5112 354.9429 -51.138077)
(1434.0143 -469.09601 -34.09411)
(0 0 0)
(0 0 0)
(1418.0609 -493.64602 -35.744238)
(1448.2799 329.54146 -51.398591)
(0 0 0)
(0 0 0)
(0 0 0)
(0 0 0)
(0 0 0)
(0 0 0)
(0 0 0)
(1425.0905 245.55093 -48.743314)
(1392.5444 143.20037 -46.290152)
(1394.1048 46.12205 -43.977361)
(1424.1344 -52.694739 -42.389668)
(1461.1936 -157.2487 -40.619526)
(1480.1758 -265.58114 -38.6255)
(1466.9453 -370.65037 -36.347567)
(-11.25625 -15.727524 -12.913111)
(-21.888646 -25.670495 -12.275613)
(-36.068054 -36.410145 -10.212794)
(-53.152004 -45.433754 -7.2551477)
(-71.68253 -53.971019 -5.0186902)
(-91.92312 -61.211064 -3.0443364)
(-112.67105 -67.351265 -2.4253745)
(-134.41555 -72.25063 -2.4428651)
(-156.025 -75.90876 -4.044004)
(-177.7076 -78.020532 -6.3485979)
(-199.16266 -79.02442 -9.9658586)
(-219.83336 -78.323104 -14.42657)
(-239.96024 -76.30007 -19.88925)
(-258.93765 -72.428633 -25.876062)
(-276.8214 -67.079236 -32.44306)
(-293.19592 -59.868362 -39.25285)
(-308.06948 -50.876522 -46.00306)
(-320.87246 -39.962643 -52.66165)
(-331.47906 -27.112386 -58.912396)
(-339.36496 -12.36151 -64.579134)
(-344.19733 4.3854266 -69.565226)
(-345.44992 22.925873 -73.663797)
(-342.6629 43.286974 -76.882697)
(-335.27951 65.104257 -79.134505)
(-322.91377 88.369417 -80.418147)
(-304.95083 112.78411 -80.825217)
(-281.02022 138.00078 -80.390378)
(-250.6363 163.70831 -79.299799)
(-213.52078 189.45368 -77.580407)
(-169.50149 214.9896 -75.504227)
(-118.43466 239.79228 -73.138569)
(-60.268421 263.56595 -70.726423)
(4.7913058 285.82379 -68.273992)
(76.546586 306.39851 -66.107867)
(154.58227 324.80521 -64.092363)
(238.50629 340.85466 -62.406921)
(327.56387 354.5056 -61.159797)
(421.27307 365.2963 -60.251253)
(518.71123 373.75283 -59.623247)
(619.30217 379.10511 -59.224684)
(722.19565 382.38541 -58.99446)
(826.52079 382.85485 -58.860264)
(931.79162 381.18077 -58.511956)
(1036.7363 377.99913 -58.033326)
(1141.6662 372.23869 -57.011137)
(1244.5588 366.41801 -55.377448)
(1346.0535 358.67706 -52.956486)
(-6.6236058 15.931937 20.11888)
(-19.792282 25.070225 18.287517)
(-33.277981 33.034328 18.865315)
(-50.221186 40.326297 14.23347)
(-69.100188 45.446757 10.461388)
(-88.715148 49.646182 4.8847045)
(-110.21618 52.068535 -1.1118553)
(-131.6782 53.387113 -7.8976594)
(-153.86443 53.16962 -15.375909)
(-175.99791 52.285801 -23.605106)
(-197.70141 49.906238 -32.205979)
(-219.07953 47.201477 -41.879234)
(-239.70939 43.403716 -51.667814)
(-259.45203 39.107277 -62.068359)
(-278.05508 34.146641 -72.677393)
(-295.26766 28.577315 -83.476018)
(-310.87293 22.339875 -94.245436)
(-324.45397 15.399989 -104.82776)
(-335.78382 7.5948344 -115.05396)
(-344.44316 -0.99449472 -124.70875)
(-349.95738 -10.843475 -133.63919)
(-351.98004 -21.521928 -141.70325)
(-349.87236 -33.869615 -148.54993)
(-343.3747 -47.248214 -154.38693)
(-331.86196 -62.250342 -158.89208)
(-314.96352 -78.490973 -162.11127)
(-292.568 -96.1259 -163.80915)
(-263.59235 -115.33319 -164.05187)
(-228.02724 -135.65438 -163.0864)
(-185.83692 -157.11042 -160.71982)
(-136.64567 -179.46727 -157.13485)
(-80.574707 -202.58813 -152.39297)
(-17.531316 -226.16066 -146.60618)
(52.149403 -249.88564 -139.94594)
(128.32715 -273.53046 -132.55306)
(210.55582 -296.73214 -124.51094)
(298.20646 -319.14718 -116.2002)
(390.86535 -340.50488 -107.47069)
(487.80611 -360.76923 -98.764403)
(588.31748 -379.29429 -90.033673)
(691.58644 -396.34044 -81.41821)
(796.86401 -411.5594 -73.158206)
(903.37202 -424.89006 -65.172237)
(1010.1978 -436.42167 -57.783603)
(1116.8515 -446.13504 -50.907268)
(1222.3599 -454.38248 -44.630627)
(1328.5261 -461.70699 -39.167364)
(0 0 0)
(0 0 0)
(0 0 0)
(0 0 0)
(0 0 0)
(0 0 0)
(0 0 0)
(-12.438998 12.027865 -16.884061)
(-22.520828 34.330817 -19.698883)
(-33.60714 38.079697 -17.882984)
(-50.763703 54.027315 -18.176301)
(-67.842873 61.238621 -17.573452)
(-86.489785 71.095024 -17.296731)
(-106.74227 78.242273 -18.820175)
(-126.2798 84.179016 -20.138435)
(-147.47681 89.386263 -23.461632)
(-167.24024 92.258298 -26.965542)
(-187.4905 94.73984 -31.897603)
(-207.35104 94.85747 -36.828242)
(-226.0529 94.07514 -43.046407)
(-243.80802 91.77929 -49.393142)
(-260.67291 87.536854 -55.819591)
(-276.04445 82.275695 -62.455905)
(-290.1268 74.657659 -68.554952)
(-302.29422 65.86579 -74.415411)
(-312.62127 54.897518 -79.50961)
(-320.45585 42.379503 -83.889719)
(-325.71059 27.907994 -87.294883)
(-327.76828 11.747247 -89.744148)
(-326.28721 -6.1507064 -91.117628)
(-320.82597 -25.67126 -91.432536)
(-310.75242 -46.788929 -90.809785)
(-295.04891 -69.315924 -89.579167)
(-274.14419 -93.197534 -87.433663)
(-247.56632 -118.16077 -84.384536)
(-214.56808 -143.90085 -80.847694)
(-175.0029 -170.14535 -76.974521)
(-128.58178 -196.68996 -72.98186)
(-75.212391 -223.26931 -68.90793)
(-15.007386 -249.56574 -64.964739)
(52.092155 -275.37751 -61.26917)
(125.58935 -300.33767 -57.869966)
(205.52848 -324.44997 -54.972106)
(290.84918 -346.71442 -52.50719)
(381.33506 -368.65281 -50.234534)
(476.38021 -388.03537 -48.577313)
(575.16169 -406.10594 -47.246258)
(676.8698 -422.30656 -46.164036)
(780.80872 -436.76893 -45.182673)
(886.09058 -449.34204 -44.283284)
(991.93974 -460.19324 -43.207723)
(1097.6367 -469.43331 -41.855336)
(1202.3803 -477.09069 -40.115004)
(1303.4896 -482.90055 -37.750641)
(1452.2274 -396.18791 -39.043966)
(1462.1752 -290.54443 -41.582557)
(1439.4014 -181.63604 -42.637567)
(1397.6947 -76.138636 -42.511923)
(1374.7325 21.925988 -43.034512)
(1378.5551 119.80631 -44.532521)
(1415.4604 222.17387 -47.734274)
(1335.0024 334.39457 -55.873947)
(1234.5493 342.25647 -60.701135)
(1131.5527 348.19462 -66.215022)
(1027.3016 352.76713 -72.038462)
(922.36264 355.61409 -78.513525)
(817.63895 356.28125 -85.275477)
(713.61815 354.80063 -92.41965)
(611.15373 350.85555 -99.729651)
(510.95694 344.55502 -107.27338)
(413.8612 335.95661 -114.74478)
(320.00685 324.72488 -122.15381)
(232.42251 311.10328 -129.07608)
(148.20157 296.39222 -136.13568)
(70.631938 279.38034 -142.26688)
(-0.78876563 261.1464 -147.92263)
(-65.466291 241.84573 -152.59212)
(-123.1792 221.84093 -156.32248)
(-173.71857 201.46753 -158.90719)
(-217.09923 181.09707 -160.24419)
(-253.36338 160.97978 -160.25434)
(-282.75513 141.48386 -158.87359)
(-305.5676 122.77301 -156.07799)
(-322.04643 104.97572 -151.76927)
(-332.90003 88.35512 -146.25438)
(-338.44007 72.89384 -139.35509)
(-339.22505 58.620981 -131.31811)
(-335.86148 45.5607 -122.25727)
(-328.81272 33.645876 -112.35088)
(-318.67248 22.758486 -101.79804)
(-305.82666 12.932538 -90.81275)
(-290.85293 3.8852379 -79.574152)
(-274.00206 -4.2220753 -68.377846)
(-256.20646 -11.735928 -57.452755)
(-236.64743 -18.083676 -46.59331)
(-216.26708 -24.232117 -36.32934)
(-195.52778 -29.334634 -27.025642)
(-174.61224 -33.9618 -18.251933)
(-153.31347 -37.420228 -10.449601)
(-132.2975 -39.961627 -3.4606214)
(-111.75224 -40.981825 2.6643301)
(-91.793249 -42.050607 8.0696714)
(-72.250124 -40.015057 12.060649)
(-54.722105 -38.202135 15.996672)
(-38.507395 -33.83609 18.043667)
(-24.683207 -28.566964 18.957454)
(-13.928262 -20.957541 18.151653)
(-11.183558 -13.945995 12.244252)
(0 0 0)
(0 0 0)
(0 0 0)
(0 0 0)
(0 0 0)
(0 0 0)
(0 0 0)
(0 0 0)
(0 0 0)
(0 0 0)
(0 0 0)
(0 0 0)
(0 0 0)
(0 0 0)
(1432.0603 -473.50248 -34.448812)
(1430.3879 -477.67148 -34.84299)
(1428.6818 -481.354 -34.753585)
(1426.7444 -484.70879 -34.936002)
(1424.6745 -487.62277 -34.84561)
(1422.3805 -490.02228 -34.879089)
(1419.9663 -492.24607 -35.497338)
(1463.4833 352.83726 -50.940988)
(1461.9487 350.16669 -50.889461)
(1460.2203 347.36759 -50.924208)
(1458.2879 344.20664 -51.095561)
(1456.0914 340.87159 -51.338269)
(1453.6773 337.3058 -51.420106)
(1451.213 333.49348 -51.378267)
(-5.927503 -8.164582 -10.788443)
(-16.826616 -14.19308 -8.4646652)
(-30.077121 -21.92724 -7.4095304)
(-46.783 -28.718952 -5.6109626)
(-64.732392 -35.088676 -4.150871)
(-84.997934 -41.379302 -3.2003815)
(-105.73402 -46.389958 -3.1031813)
(-127.81203 -51.255054 -3.9797093)
(-149.9967 -54.617974 -5.7608361)
(-172.61916 -57.399934 -8.6555545)
(-195.00162 -58.87545 -12.567057)
(-217.25238 -59.253629 -17.292749)
(-238.7857 -58.316289 -23.039344)
(-259.71899 -55.985733 -29.305096)
(-279.46011 -52.186258 -36.316641)
(-297.89853 -46.679575 -43.503359)
(-314.82042 -39.635322 -50.916157)
(-329.63751 -30.745838 -58.206074)
(-342.15541 -20.225364 -65.134417)
(-351.75497 -7.9127355 -71.554247)
(-358.03628 6.0594638 -77.227408)
(-360.37315 21.560492 -82.026453)
(-358.25418 38.483132 -85.83545)
(-351.05177 56.553798 -88.608233)
(-338.23184 75.570285 -90.292063)
(-319.18869 95.203259 -91.121946)
(-293.68853 115.17735 -90.864428)
(-261.2287 135.12295 -89.835304)
(-221.5796 154.73092 -88.192519)
(-174.77718 173.61152 -86.00876)
(-120.74245 191.51067 -83.488348)
(-59.683194 208.0578 -80.726882)
(8.0387853 223.09787 -77.941219)
(82.01084 236.37686 -75.210089)
(161.69323 247.67438 -72.530357)
(246.33952 257.15836 -70.196512)
(335.39778 264.39698 -67.987724)
(428.15173 269.75851 -66.086003)
(523.72948 273.16987 -64.381744)
(621.5208 274.71251 -62.769225)
(720.72145 274.72719 -61.44377)
(820.7602 273.01255 -59.923695)
(921.20815 270.31199 -58.557554)
(1021.0527 266.3282 -56.832507)
(1120.7874 261.39831 -55.003038)
(1218.8309 256.38118 -52.86424)
(1318.3429 250.30365 -50.591156)
(-3.2552481 -4.7299671 -6.5050212)
(-13.22729 -7.0486246 -5.1351561)
(-26.900393 -13.46918 -4.4364331)
(-42.90677 -17.314302 -3.5591978)
(-61.516373 -22.828782 -2.9186513)
(-81.222537 -27.245823 -2.6961511)
(-102.62907 -31.843268 -3.5824595)
(-124.90891 -35.605756 -4.87259)
(-147.80772 -38.95868 -7.6390509)
(-170.98611 -41.557654 -11.002311)
(-194.41192 -43.479535 -15.486376)
(-217.37197 -44.394203 -20.877869)
(-240.12003 -44.406806 -27.191085)
(-261.96456 -43.115578 -34.15822)
(-282.80753 -40.697231 -41.732157)
(-302.3943 -36.944234 -49.576333)
(-320.29771 -31.818812 -57.618692)
(-336.15922 -25.226062 -65.51804)
(-349.57907 -17.235818 -73.083118)
(-359.93664 -7.8292019 -80.111939)
(-366.78049 2.8831481 -86.367764)
(-369.45687 14.747521 -91.691225)
(-367.46364 27.670765 -95.998514)
(-360.08861 41.374992 -99.114095)
(-346.88535 55.642978 -101.19122)
(-327.38015 70.299512 -102.02319)
(-301.15391 84.775274 -101.77989)
(-267.76055 99.141202 -100.75824)
(-227.20461 112.85393 -98.806881)
(-179.37774 125.78074 -96.270667)
(-124.4177 137.65045 -93.233409)
(-62.532616 148.26766 -89.883456)
(5.7345258 157.53137 -86.409455)
(80.088678 165.19581 -82.782073)
(159.67648 171.44468 -79.370584)
(244.07538 175.97864 -75.954355)
(332.45433 179.02148 -72.857686)
(424.04597 180.60609 -69.912326)
(518.28587 180.77499 -67.1647)
(614.38872 179.70315 -64.717361)
(711.97791 177.59039 -62.330322)
(810.12391 174.3505 -60.094073)
(908.93478 170.50994 -57.905339)
(1007.0642 165.89589 -55.704821)
(1105.6434 160.69661 -53.377414)
(1202.3047 155.56802 -51.113882)
(1300.2874 149.2677 -48.394149)
(-1.5198924 -2.0237752 -3.2891879)
(-12.231711 -3.900867 -2.0612955)
(-25.591604 -7.0907343 -1.393381)
(-42.898018 -10.216484 -1.0644352)
(-61.605382 -13.347225 -1.0261776)
(-82.74806 -16.911363 -1.8176694)
(-104.85896 -19.656402 -3.2304876)
(-127.87998 -22.803321 -5.9180182)
(-151.26581 -25.158594 -9.3030519)
(-175.08908 -27.482233 -13.552514)
(-198.39738 -29.098932 -18.969389)
(-221.74295 -30.174379 -25.032304)
(-244.16333 -30.556646 -31.976092)
(-265.96195 -30.049476 -39.461426)
(-286.55544 -28.770057 -47.369624)
(-305.72508 -26.341159 -55.50144)
(-323.19973 -23.013776 -63.806523)
(-338.55269 -18.576464 -71.858292)
(-351.4227 -13.167108 -79.629027)
(-361.28311 -6.8209548 -86.736813)
(-367.7959 0.40103081 -93.096003)
(-370.29726 8.3724185 -98.538879)
(-368.19327 16.915059 -102.88551)
(-361.08326 25.739989 -106.21517)
(-348.48046 34.863017 -108.32441)
(-329.58632 43.887731 -109.42101)
(-304.20991 52.739793 -109.58781)
(-271.97828 61.249976 -108.75923)
(-232.87315 69.173038 -107.08855)
(-186.68133 76.334948 -104.74122)
(-133.47779 82.662329 -101.83493)
(-73.441036 87.92227 -98.498026)
(-6.8676937 92.14199 -94.847826)
(65.865882 95.204207 -91.059926)
(144.25521 97.101951 -87.175655)
(227.7861 97.834242 -83.318637)
(315.7794 97.46329 -79.546865)
(407.77337 96.027159 -75.880633)
(502.96302 93.633027 -72.459012)
(600.70984 90.443008 -69.041194)
(700.34422 86.38339 -65.852832)
(801.38039 81.678692 -62.629735)
(903.32241 76.62829 -59.716515)
(1005.3202 70.857677 -56.445536)
(1107.7145 65.041635 -53.600861)
(1208.8393 58.915959 -50.32603)
(1309.7394 52.262934 -47.327836)
(-1.6228822 0.11681788 0.78567173)
(-13.111168 0.057333614 2.2810485)
(-27.462653 -1.747856 2.5304795)
(-45.223547 -2.5936556 1.9536614)
(-65.698803 -4.3423962 0.74942192)
(-87.307862 -6.073091 -0.98050535)
(-110.28309 -7.7968446 -4.1839458)
(-133.54058 -9.8695874 -7.6198929)
(-157.45473 -11.640011 -12.151748)
(-180.86677 -13.517133 -17.610447)
(-204.23219 -14.989784 -23.70137)
(-226.82963 -16.275761 -30.495754)
(-248.50313 -17.052448 -38.025365)
(-269.24964 -17.286096 -45.899204)
(-288.41024 -17.084397 -54.111672)
(-306.22922 -16.098893 -62.544384)
(-322.05389 -14.724422 -70.846129)
(-335.84134 -12.58108 -78.95348)
(-347.16266 -9.9936331 -86.603529)
(-355.62892 -6.974591 -93.614043)
(-360.90898 -3.3452513 -100.03413)
(-362.29476 0.38875473 -105.46147)
(-359.88284 4.1972184 -110.0341)
(-352.79427 8.3484938 -113.61164)
(-340.60036 12.433375 -116.26057)
(-323.06775 16.443809 -117.8427)
(-299.82459 20.083769 -118.25986)
(-270.4406 23.361047 -117.77029)
(-234.59985 26.02636 -116.39633)
(-192.05883 28.09063 -114.24954)
(-142.73376 29.465707 -111.45824)
(-86.506884 29.884796 -108.02168)
(-23.567902 29.674664 -104.28852)
(46.139159 28.351913 -100.09781)
(122.12248 26.314512 -95.798728)
(204.21052 23.279078 -91.288646)
(291.9085 19.484088 -86.82245)
(384.58326 14.826225 -82.309785)
(481.64331 9.4872247 -77.885706)
(582.64803 3.4834715 -73.599962)
(686.98924 -2.9628847 -69.473168)
(793.53681 -9.8456642 -65.436755)
(902.07422 -16.961631 -61.578741)
(1011.1135 -24.431768 -57.697964)
(1121.2302 -31.822072 -54.111769)
(1229.9791 -39.23619 -50.376609)
(1336.9884 -46.685 -46.591346)
(-1.5296169 3.0246711 4.8136688)
(-14.235628 3.5793194 5.9984444)
(-28.80322 4.4707107 5.7413751)
(-48.373321 4.9199724 4.4756062)
(-69.049443 5.2472682 2.4858182)
(-91.814828 4.5975732 -0.65287162)
(-115.03742 4.0463468 -4.462627)
(-139.03205 2.5387058 -8.9476402)
(-162.58428 1.3056036 -14.645252)
(-186.07574 -0.53272466 -20.810962)
(-208.68953 -2.0909162 -27.702524)
(-230.50364 -3.8332529 -35.380514)
(-251.16603 -5.1816983 -43.383739)
(-270.54762 -6.5188745 -51.704966)
(-288.44374 -7.5137655 -60.233638)
(-304.72389 -8.1808976 -68.718824)
(-319.11226 -8.6389685 -77.080348)
(-331.50754 -8.7343298 -85.058467)
(-341.5413 -8.7017045 -92.643494)
(-349.00046 -8.4571465 -99.54211)
(-353.52403 -7.8641589 -105.96113)
(-355.48194 -7.6247132 -111.34535)
(-353.67432 -7.2693307 -116.17156)
(-347.22441 -7.1761957 -119.8371)
(-336.30047 -7.3250539 -122.47241)
(-320.51103 -7.9150771 -124.10978)
(-299.35769 -8.9466494 -124.88281)
(-272.4819 -10.464832 -124.85836)
(-239.52078 -12.588737 -123.93904)
(-200.14599 -15.341642 -122.26421)
(-154.00101 -18.851881 -119.82489)
(-100.96729 -23.204 -116.73927)
(-40.824197 -28.192674 -113.1758)
(26.443766 -34.21305 -109.00347)
(100.66314 -40.808264 -104.59175)
(181.85335 -48.256123 -99.815638)
(269.50965 -56.31895 -94.880134)
(363.23416 -65.137281 -89.742863)
(463.3729 -74.314634 -85.008702)
(568.72776 -83.844239 -79.909842)
(677.28869 -93.761049 -74.841164)
(789.25899 -103.77645 -69.771104)
(903.43215 -113.7715 -64.943568)
(1018.8969 -123.77024 -59.964549)
(1134.9504 -133.23267 -55.441464)
(1249.761 -142.5562 -50.47758)
(1362.2263 -150.86729 -45.859873)
(-2.1284684 5.412974 9.8258863)
(-15.819409 8.5363287 10.128131)
(-30.963204 11.460996 10.093186)
(-50.450247 14.555524 7.7840708)
(-71.409582 16.401201 4.6684962)
(-93.75231 17.645283 0.55019574)
(-117.08511 18.142542 -4.217509)
(-140.3536 17.681286 -9.9500865)
(-163.84141 16.88552 -16.349722)
(-186.59202 15.266811 -23.308087)
(-208.90207 13.591877 -31.061454)
(-230.0897 11.422729 -39.230126)
(-250.13314 9.1937868 -47.752658)
(-268.91353 6.8524001 -56.631096)
(-286.16573 4.4294256 -65.509654)
(-301.85317 2.0266494 -74.499847)
(-315.65836 -0.44858336 -83.186741)
(-327.53051 -2.9531675 -91.654419)
(-337.11232 -5.5588083 -99.642023)
(-344.22565 -8.2734511 -107.05639)
(-348.6323 -11.28791 -113.91327)
(-349.96492 -14.097959 -119.71401)
(-347.7986 -17.905345 -125.03704)
(-341.57387 -22.174033 -129.17782)
(-331.26769 -26.774244 -132.50847)
(-316.06049 -31.981431 -134.78248)
(-295.76061 -37.765122 -136.10975)
(-270.0373 -44.273592 -136.49705)
(-238.33717 -51.473252 -135.95463)
(-200.21485 -59.533186 -134.43379)
(-155.40099 -68.454041 -132.05858)
(-103.59925 -78.176471 -128.86085)
(-44.571436 -88.672788 -124.95589)
(21.748636 -100.0516 -120.31754)
(95.317708 -111.8231 -115.31835)
(176.18266 -124.47367 -109.63299)
(263.77512 -137.35665 -103.78689)
(357.89259 -150.64877 -97.554181)
(458.05378 -164.14739 -91.258561)
(564.11789 -177.8366 -84.933505)
(673.95938 -190.71345 -78.664822)
(787.1214 -203.48508 -72.374507)
(902.65616 -215.76731 -66.23319)
(1019.5257 -227.42706 -60.335669)
(1136.615 -238.24616 -54.698811)
(1252.8426 -248.38051 -49.258574)
(1367.119 -257.23942 -44.139053)
(-3.5360507 9.573933 13.448226)
(-16.998898 14.214549 14.176778)
(-31.491666 20.22833 13.806445)
(-50.679168 24.963132 10.758068)
(-70.097818 28.767494 6.9558268)
(-92.109501 31.305707 2.1873895)
(-114.15938 32.788772 -3.332091)
(-137.12423 33.005343 -9.6369714)
(-159.87723 32.547603 -16.550129)
(-182.44858 30.928165 -24.185354)
(-204.56137 29.051389 -32.505566)
(-225.65761 26.054336 -41.18184)
(-245.99457 23.073925 -50.463678)
(-265.04089 19.442999 -59.867605)
(-282.87332 15.594841 -69.569415)
(-299.1477 11.443865 -79.220364)
(-313.69704 6.969377 -88.779539)
(-326.3568 2.2472866 -98.064389)
(-336.66193 -2.9210655 -106.8829)
(-344.63857 -8.4463602 -115.22011)
(-349.50822 -14.51017 -122.7411)
(-351.52333 -21.119942 -129.58629)
(-349.43486 -28.391197 -135.38377)
(-343.59451 -36.640819 -140.23291)
(-333.17559 -45.496937 -144.1455)
(-317.77112 -55.440711 -146.88478)
(-297.2368 -66.308475 -148.4962)
(-270.61695 -77.978309 -149.0437)
(-237.76592 -90.732379 -148.40851)
(-198.31274 -104.50039 -146.68071)
(-152.01511 -119.25045 -143.90901)
(-98.643983 -134.82938 -140.20032)
(-38.066373 -151.2274 -135.58878)
(29.666569 -168.2566 -130.23512)
(104.51041 -185.65399 -124.23372)
(186.18198 -203.51377 -117.60432)
(274.18759 -221.23649 -110.66955)
(368.3541 -238.97571 -103.30596)
(467.5901 -256.19369 -95.984217)
(571.40489 -272.84833 -88.446657)
(679.06453 -288.69592 -80.995912)
(789.49271 -303.62091 -73.622401)
(901.7903 -317.42941 -66.584104)
(1014.9718 -330.08679 -59.804444)
(1127.9972 -341.39445 -53.519683)
(1240.1694 -351.68368 -47.515852)
(1349.5736 -360.24888 -41.941155)
(0 0 0)
(0 0 0)
(0 0 0)
(0 0 0)
(0 0 0)
(0 0 0)
(0 0 0)
(0 0 0)
(0 0 0)
(0 0 0)
(0 0 0)
(0 0 0)
(0 0 0)
(0 0 0)
(0 0 0)
(0 0 0)
(0 0 0)
(0 0 0)
(0 0 0)
(0 0 0)
(0 0 0)
(0 0 0)
(0 0 0)
(0 0 0)
(0 0 0)
(0 0 0)
(0 0 0)
(0 0 0)
(0 0 0)
(0 0 0)
(0 0 0)
(0 0 0)
(0 0 0)
(0 0 0)
(0 0 0)
(0 0 0)
(0 0 0)
(0 0 0)
(0 0 0)
(0 0 0)
(0 0 0)
(0 0 0)
(0 0 0)
(0 0 0)
(0 0 0)
(0 0 0)
(0 0 0)
(0 0 0)
(0 0 0)
(-12.372154 6.1120934 10.367487)
(-14.273515 7.5505807 7.4186697)
(-15.971986 8.0065737 4.354366)
(-16.834982 8.5236103 1.8648462)
(-16.747641 8.1300971 -0.95309298)
(-16.459151 8.4574644 -4.1167663)
(-14.365848 6.998534 -8.2187472)
(-24.999558 25.126556 15.483802)
(-27.896452 27.610356 8.9693905)
(-29.199124 26.956438 4.7430468)
(-29.524451 26.734461 1.3028134)
(-29.992757 28.432497 -2.241382)
(-28.566247 29.04402 -7.0130893)
(-27.009537 30.188813 -13.002372)
(-36.777995 33.269542 14.035198)
(-39.709469 32.81142 10.283744)
(-41.815692 34.260768 5.3188045)
(-42.073108 35.201504 1.5371614)
(-41.889674 35.485685 -3.4547755)
(-40.334897 36.88746 -7.2503669)
(-38.537273 39.444879 -13.756729)
(-54.202114 43.546048 11.075188)
(-56.151387 45.276693 7.8783568)
(-57.518833 46.345041 3.6136557)
(-57.824172 47.476695 0.12317541)
(-57.661898 49.017525 -4.1508507)
(-56.342287 51.42217 -8.7167823)
(-53.986108 52.197083 -13.164415)
(-71.097796 49.102049 7.8396617)
(-73.026476 50.93021 5.3314966)
(-74.328891 52.911427 1.6845166)
(-74.459504 54.639889 -1.6907199)
(-74.081972 56.656977 -5.3580947)
(-72.789606 58.708706 -9.0276058)
(-70.983459 60.978163 -13.455139)
(-90.792971 54.746695 2.9340818)
(-91.831604 57.216681 1.0923779)
(-92.536528 59.47526 -1.7877885)
(-92.456794 62.106713 -4.1451699)
(-92.020227 64.254832 -7.5005583)
(-90.971263 67.013943 -10.707572)
(-89.034505 69.29694 -13.962873)
(-111.22069 57.502019 -2.3720085)
(-111.68926 60.631951 -3.8295452)
(-111.96855 64.141741 -5.8787182)
(-111.83804 66.904947 -7.7686001)
(-111.08721 69.848719 -10.413691)
(-110.07595 73.307336 -12.708806)
(-108.65671 76.260928 -15.657882)
(-131.91794 59.741611 -8.6283102)
(-132.03738 63.862527 -9.1508707)
(-132.05811 67.350124 -10.795176)
(-131.33776 70.959765 -12.186901)
(-130.6673 74.153932 -13.851821)
(-129.5948 77.819507 -15.983622)
(-128.2525 81.021379 -18.034149)
(-153.71868 60.405035 -15.519201)
(-153.0178 64.66512 -15.948443)
(-152.23718 69.077008 -16.752306)
(-151.61087 73.144153 -17.391236)
(-150.71469 77.318423 -18.643237)
(-149.76237 81.483332 -19.92535)
(-148.45931 85.671734 -21.538343)
(-174.68197 59.876634 -23.268475)
(-173.63634 65.15604 -22.860165)
(-172.76587 69.801646 -23.233548)
(-171.72755 74.459487 -23.694844)
(-170.54136 78.655276 -24.331367)
(-169.61636 83.335711 -25.010387)
(-168.61547 87.627809 -26.058964)
(-196.23421 58.482864 -31.626571)
(-194.47928 63.859284 -30.993579)
(-193.07335 69.261575 -31.075361)
(-191.56172 73.9875 -30.518289)
(-190.42753 79.076824 -30.720043)
(-189.46978 84.20872 -30.763776)
(-188.16956 89.299114 -31.311462)
(-216.79623 56.041208 -40.678806)
(-214.48231 62.021122 -39.768385)
(-212.51755 67.836565 -38.787927)
(-210.996 73.305957 -38.163212)
(-209.51922 78.468514 -37.869057)
(-208.25378 83.839502 -37.330097)
(-207.65039 89.28889 -36.984358)
(-236.88563 52.96937 -50.222861)
(-233.86075 59.093871 -48.863556)
(-231.68835 65.241119 -47.606877)
(-229.65029 70.554246 -46.525194)
(-228.1193 76.217772 -45.461677)
(-227.04025 82.116689 -44.418271)
(-226.25418 87.627314 -43.679583)
(-255.85015 48.869078 -60.19275)
(-252.42033 55.374517 -58.455762)
(-249.79181 61.722456 -56.714256)
(-247.38095 67.585157 -55.021336)
(-245.77615 73.49396 -53.627811)
(-244.44948 79.290189 -52.023965)
(-243.82141 85.266304 -50.709851)
(-273.78948 44.199631 -70.497035)
(-269.87561 50.757769 -68.399016)
(-266.6642 57.187297 -66.136312)
(-264.04791 62.996107 -64.114081)
(-262.23773 68.857673 -61.978121)
(-260.90108 74.88947 -59.894036)
(-260.30173 80.962023 -57.842652)
(-290.32503 38.60336 -80.951915)
(-285.80658 45.174334 -78.335191)
(-282.20043 51.664416 -75.723266)
(-279.28919 57.632505 -72.956833)
(-277.30462 63.670679 -70.421518)
(-275.91411 69.668756 -67.695349)
(-275.508 75.787595 -65.054093)
(-305.1369 32.200392 -91.326249)
(-300.17999 38.665082 -88.343791)
(-296.0912 45.096124 -85.079283)
(-292.90194 50.859672 -81.906903)
(-290.84723 56.759572 -78.704426)
(-289.46222 62.538191 -75.403134)
(-289.10885 68.625304 -71.979867)
(-318.03183 24.888425 -101.55628)
(-312.57088 31.213561 -97.942616)
(-307.96556 37.340519 -94.287791)
(-304.6284 43.038097 -90.395793)
(-302.39108 48.792505 -86.587053)
(-301.04898 54.425571 -82.66529)
(-300.90148 60.261361 -78.483908)
(-328.60678 16.590225 -111.27358)
(-322.62944 22.486834 -107.1865)
(-317.69239 28.403599 -102.92716)
(-314.09908 33.759048 -98.380924)
(-311.84337 39.248036 -93.964049)
(-310.62585 44.447788 -89.376516)
(-310.66136 50.059735 -84.371151)
(-336.48665 7.1733365 -120.46724)
(-330.14468 12.755225 -115.75287)
(-324.70586 18.163341 -110.89006)
(-321.04246 23.212896 -105.68423)
(-318.69977 28.318493 -100.5679)
(-317.63354 33.1535 -95.293817)
(-317.95244 38.322747 -89.470041)
(-341.341 -3.4303884 -128.84813)
(-334.51578 1.538956 -123.47762)
(-328.79976 6.4898954 -118.02789)
(-325.01729 11.080867 -112.09299)
(-322.68881 15.765512 -106.29134)
(-321.87933 20.062153 -100.3383)
(-322.50391 24.815478 -93.630763)
(-342.62969 -15.363623 -136.253)
(-335.51742 -10.941435 -130.26757)
(-329.43853 -6.597049 -124.13377)
(-325.6581 -2.4684703 -117.54748)
(-323.34262 1.7158792 -111.00331)
(-322.84061 5.4619124 -104.32672)
(-323.86306 9.6335742 -96.78347)
(-339.99479 -28.703615 -142.52829)
(-332.53632 -24.917354 -135.90413)
(-326.27224 -21.141622 -129.17453)
(-322.51136 -17.645802 -121.88432)
(-320.29362 -14.101551 -114.56961)
(-320.16404 -10.973008 -107.30396)
(-321.61022 -7.3111228 -98.847648)
(-332.95265 -43.326418 -147.6041)
(-325.20451 -40.414235 -140.41552)
(-318.88923 -37.269299 -132.99304)
(-315.14961 -34.499269 -125.07089)
(-312.99834 -31.308207 -117.10388)
(-313.35032 -28.794028 -109.07584)
(-315.25165 -25.749211 -99.808101)
(-321.06108 -59.663921 -151.58734)
(-313.01981 -57.348883 -143.51344)
(-306.85996 -54.748962 -135.73834)
(-302.8819 -52.718821 -127.07611)
(-301.31278 -50.2179 -118.39856)
(-301.91012 -48.5776 -109.82964)
(-304.47104 -46.178971 -99.782235)
(-303.90937 -77.299653 -154.04011)
(-295.71699 -75.613272 -145.47955)
(-289.60834 -73.996142 -137.27941)
(-285.96281 -72.446063 -127.35081)
(-284.62863 -70.56789 -119.06837)
(-285.3497 -69.577918 -109.50676)
(-288.40934 -67.67951 -99.069519)
(-281.14468 -96.310487 -155.27294)
(-272.84305 -95.344321 -146.55375)
(-266.88027 -94.563127 -137.241)
(-262.97509 -93.604009 -127.67211)
(-262.18878 -92.570067 -118.09464)
(-263.27029 -91.97336 -107.8598)
(-267.16077 -91.014441 -97.442856)
(-251.98623 -116.67473 -155.14959)
(-244.07914 -116.71323 -145.84554)
(-237.78382 -116.39316 -136.04485)
(-234.69843 -116.18945 -126.33985)
(-233.73742 -115.42892 -115.86075)
(-235.57197 -115.63298 -105.87402)
(-239.85524 -115.25869 -94.591355)
(-216.65381 -138.24999 -153.81654)
(-208.66821 -138.91261 -143.87906)
(-202.96802 -139.38371 -134.27299)
(-199.84686 -139.61269 -123.71087)
(-199.47775 -139.72786 -113.35519)
(-201.64398 -140.28761 -102.86761)
(-206.37205 -140.6146 -91.273025)
(-174.54859 -160.76427 -151.06104)
(-166.9686 -162.21124 -141.05018)
(-161.38355 -163.28311 -131.07139)
(-158.68836 -164.15224 -120.39347)
(-158.61663 -164.70193 -109.84551)
(-161.15019 -165.77785 -99.177194)
(-166.35947 -166.63001 -87.421928)
(-125.75538 -184.16818 -147.32405)
(-118.43483 -186.25591 -137.06836)
(-113.32158 -187.87311 -127.11492)
(-110.94146 -189.20376 -116.2869)
(-111.22712 -190.28809 -105.80088)
(-114.15539 -191.73584 -95.033086)
(-119.68817 -193.09389 -83.367438)
(-70.111021 -208.1592 -142.49687)
(-63.270271 -210.75828 -132.27302)
(-58.526474 -212.9042 -122.37848)
(-56.504289 -214.70192 -111.64363)
(-57.139991 -216.18828 -101.23313)
(-60.346953 -217.99172 -90.600928)
(-66.16421 -219.72909 -79.084563)
(-7.7344099 -232.42259 -136.81242)
(-1.3597413 -235.50986 -126.70919)
(2.8786483 -238.08601 -117.04644)
(4.4912791 -240.20603 -106.48178)
(3.5600716 -242.08684 -96.372892)
(0.076046833 -244.1569 -85.970766)
(-5.9070944 -246.22591 -74.800272)
(61.242333 -256.7205 -130.39199)
(67.017497 -260.16934 -120.56518)
(70.749799 -263.10717 -111.23825)
(72.008415 -265.55752 -101.05995)
(70.769397 -267.75562 -91.345149)
(67.124698 -270.00135 -81.346363)
(61.057112 -272.35175 -70.634695)
(136.49353 -280.71333 -123.38951)
(141.65119 -284.47567 -113.98795)
(144.86287 -287.68747 -105.16826)
(145.71536 -290.38411 -95.436034)
(144.26044 -292.80543 -86.281636)
(140.46882 -295.30189 -76.635975)
(134.39564 -297.75024 -66.678714)
(217.77386 -304.1598 -115.88514)
(222.2505 -308.09335 -107.0193)
(224.86649 -311.5503 -98.761024)
(225.3701 -314.36856 -89.674067)
(223.5632 -317.0796 -81.162217)
(219.78136 -319.39284 -72.167626)
(213.79714 -322.03682 -63.338736)
(304.24494 -326.4908 -108.17116)
(307.95132 -330.7052 -100.142)
(310.18581 -334.23544 -92.533451)
(310.1668 -337.34895 -84.234944)
(308.42975 -339.96697 -76.416101)
(304.62152 -342.93944 -68.465574)
(298.95834 -345.31659 -59.818371)
(395.88431 -348.21541 -100.31514)
(398.89118 -352.16967 -93.04007)
(400.35177 -355.85791 -86.219527)
(400.28237 -358.96051 -78.763199)
(398.0948 -361.82634 -71.732403)
(394.61784 -364.03974 -64.257737)
(388.85931 -367.02341 -56.756154)
(491.64669 -367.76833 -92.361242)
(493.89535 -372.06464 -85.841468)
(494.95909 -375.86465 -79.814446)
(494.28995 -378.92128 -73.24381)
(492.21428 -381.90794 -67.04905)
(488.56467 -384.66632 -60.774392)
(483.44861 -387.53354 -54.231784)
(590.9183 -386.35857 -84.574501)
(592.57176 -390.52417 -78.898263)
(592.98341 -394.18348 -73.90195)
(592.13646 -397.33374 -68.110274)
(589.91516 -400.42986 -63.080948)
(586.54425 -402.9608 -57.464438)
(581.76921 -405.73315 -52.031067)
(693.0021 -402.88951 -76.829797)
(693.92155 -407.01493 -72.343795)
(693.88069 -410.69439 -67.983732)
(692.72628 -413.85842 -63.348504)
(690.52341 -416.90164 -59.029593)
(687.30511 -419.44641 -54.459645)
(682.91833 -422.26142 -50.04593)
(797.15202 -417.68693 -69.449333)
(797.40609 -421.71932 -65.93439)
(796.91685 -425.26716 -62.404221)
(795.55905 -428.47781 -58.73495)
(793.32616 -431.50308 -55.309843)
(790.32208 -434.0955 -51.662653)
(786.426 -436.87477 -48.226078)
(902.57294 -430.5357 -62.447144)
(902.2549 -434.49857 -59.858671)
(901.33698 -438.07608 -57.11696)
(899.78569 -441.25812 -54.436519)