/*--------------------------------*- C++ -*----------------------------------*\
  =========                 |
  \\      /  F ield         | OpenFOAM: The Open Source CFD Toolbox
   \\    /   O peration     | Website:  https://openfoam.org
    \\  /    A nd           | Version:  6
     \\/     M anipulation  |
\*---------------------------------------------------------------------------*/
FoamFile
{
    version     2.0;
    format      ascii;
    class       pointVectorField;
    location    "1.05";
    object      u;
}
// * * * * * * * * * * * * * * * * * * * * * * * * * * * * * * * * * * * * * //

dimensions      [0 1 0 0 0 0 0];

internalField   nonuniform List<vector> 
28033
(
(0 0 0)
(0 0 0)
(2.5049032 -0.30964898 0.010113577)
(2.3438402 -0.85309109 0.0093883179)
(0 0 0)
(0 0 0)
(2.3435553 -0.85473084 0.0089931854)
(2.5046196 -0.31134521 0.0096485199)
(0 0 0)
(0 0 0)
(0 0 0)
(0 0 0)
(0 0 0)
(0 0 0)
(0 0 0)
(0 0 0)
(0 0 0)
(0 0 0)
(0 0 0)
(0 0 0)
(0 0 0)
(0 0 0)
(0 0 0)
(2.4945361 -0.34398797 0.009859955)
(2.4842751 -0.37798161 0.0098234194)
(2.4740731 -0.41188551 0.0097433905)
(2.4639528 -0.44576478 0.0097273899)
(2.453876 -0.4795941 0.0097119548)
(2.4438338 -0.51339995 0.0097106125)
(2.4338355 -0.54719847 0.0097240815)
(2.4238587 -0.5809984 0.0097414029)
(2.4139056 -0.61480996 0.0097547074)
(2.4039576 -0.6486537 0.009770868)
(2.394021 -0.68252402 0.0097695184)
(2.3840647 -0.71645273 0.0097492248)
(2.3741175 -0.75043745 0.0097182007)
(2.3640982 -0.78449811 0.00967275)
(2.3540886 -0.8186838 0.009562195)
(0.0068219033 0.010082913 0.011147814)
(0.0084990161 0.015956423 0.015125319)
(0.010945527 0.022041539 0.018244892)
(0.014472657 0.028290882 0.020149957)
(0.018597725 0.034680223 0.021387367)
(0.023919236 0.041118331 0.022224774)
(0.030120265 0.047631109 0.022721378)
(0.037361223 0.053927289 0.022973379)
(0.045518227 0.060308733 0.023091172)
(0.054681533 0.066385811 0.023096661)
(0.064683509 0.072411596 0.023017264)
(0.07562374 0.078158407 0.022854713)
(0.087398575 0.083759051 0.022735416)
(0.1001007 0.089079304 0.022489997)
(0.11352494 0.094171559 0.022323802)
(0.12782167 0.098986618 0.022053374)
(0.14287939 0.10355668 0.021866333)
(0.15873071 0.1078033 0.021605492)
(0.17528906 0.11179823 0.021386168)
(0.19260542 0.1154751 0.021122466)
(0.21059848 0.11885989 0.020910461)
(0.22930784 0.12193473 0.020634547)
(0.24866508 0.1246935 0.020420337)
(0.2686985 0.12715708 0.020160723)
(0.28933002 0.12928043 0.019922612)
(0.31059878 0.13111322 0.019674284)
(0.33244409 0.13259942 0.019440746)
(0.35488735 0.13380295 0.019188855)
(0.3778699 0.1346494 0.018943556)
(0.40140303 0.13520283 0.018704922)
(0.42546865 0.13543594 0.018453872)
(0.45001915 0.13534844 0.01820539)
(0.47507247 0.1349542 0.017965698)
(0.50060266 0.13422714 0.017716799)
(0.52658732 0.13321547 0.017464139)
(0.5530173 0.13187737 0.017215568)
(0.57985842 0.13024322 0.016974653)
(0.60713113 0.12830715 0.016728557)
(0.63476861 0.12606949 0.016472372)
(0.66280308 0.12354776 0.016232758)
(0.69118389 0.12072615 0.015985301)
(0.71991704 0.11763858 0.015749195)
(0.74898075 0.11425879 0.015504905)
(0.77836607 0.11061709 0.015274818)
(0.80804442 0.10670079 0.015042539)
(0.83802138 0.10253204 0.014818374)
(0.86826424 0.098106407 0.014599676)
(0.89877967 0.093434645 0.014385913)
(0.92953682 0.088523108 0.014179874)
(0.9605422 0.083376085 0.013980044)
(0.99176874 0.078003068 0.01378705)
(1.023219 0.072405957 0.013601295)
(1.0548736 0.066596311 0.013422219)
(1.0867285 0.060573444 0.013250037)
(1.1187722 0.054349833 0.013083806)
(1.1509954 0.047924825 0.012924483)
(1.1833908 0.041308499 0.012769891)
(1.2159485 0.034502933 0.012621195)
(1.2486606 0.027515314 0.012476882)
(1.2815184 0.020348507 0.012337154)
(1.314514 0.013010407 0.012200792)
(1.3476393 0.0055025195 0.012068014)
(1.3808838 -0.0021650897 0.011938963)
(1.414245 -0.0099969873 0.011809907)
(1.4477061 -0.017969316 0.011688464)
(1.481268 -0.026100064 0.011563316)
(1.5149118 -0.034367693 0.011446979)
(1.5486408 -0.042769677 0.011330501)
(1.5824383 -0.051302676 0.011209962)
(1.6163062 -0.059955532 0.011098933)
(1.6502281 -0.068726756 0.010990138)
(1.6841995 -0.077609808 0.010885807)
(1.7182218 -0.086586855 0.010781174)
(1.7522716 -0.095677431 0.010688506)
(1.7863686 -0.10483294 0.010590237)
(1.8204747 -0.11410751 0.010511709)
(1.8546223 -0.12341456 0.01042301)
(1.8887687 -0.13284686 0.010359598)
(1.9229468 -0.14228355 0.010283552)
(1.9571186 -0.15184364 0.010237802)
(1.9913149 -0.16139935 0.010174612)
(2.0254993 -0.17105246 0.010148016)
(2.0597053 -0.18071549 0.010102083)
(2.0938922 -0.19044543 0.010091676)
(2.1281003 -0.20019507 0.010067067)
(2.1622958 -0.20998514 0.010065036)
(2.1964991 -0.21982135 0.01006057)
(2.2306969 -0.2296624 0.010072269)
(2.2649023 -0.23956131 0.010074727)
(2.299105 -0.24944933 0.010096545)
(2.3333048 -0.25942395 0.010124761)
(2.367543 -0.26931751 0.010121751)
(2.4017433 -0.27935586 0.010194944)
(2.4360381 -0.28932692 0.010189176)
(2.4703106 -0.29931796 0.010260784)
(0.002331414 -0.011243826 -0.012781545)
(0.0042362594 -0.015099298 -0.015357348)
(0.0054796611 -0.020836052 -0.019800963)
(0.0070097971 -0.025570166 -0.021419846)
(0.010444692 -0.03147641 -0.022953836)
(0.014359074 -0.037651955 -0.023717454)
(0.019342114 -0.043359695 -0.024167692)
(0.025229346 -0.049810498 -0.024227774)
(0.032128756 -0.056078047 -0.024168966)
(0.039682932 -0.062462275 -0.023930905)
(0.048214702 -0.069002821 -0.023595926)
(0.057380742 -0.075518393 -0.02320767)
(0.067421799 -0.082195968 -0.022733053)
(0.078101537 -0.088896451 -0.022304907)
(0.089557609 -0.095640298 -0.021770386)
(0.10167043 -0.10252744 -0.021314641)
(0.11447859 -0.1093493 -0.020775374)
(0.1279644 -0.11639022 -0.020276401)
(0.14209154 -0.12338907 -0.019763913)
(0.15689899 -0.1305369 -0.019257744)
(0.17229853 -0.13769406 -0.018724318)
(0.188364 -0.14502085 -0.018241473)
(0.20497364 -0.15228713 -0.017715969)
(0.22225895 -0.15980414 -0.017208012)
(0.24004315 -0.16725162 -0.016715104)
(0.25850282 -0.17491152 -0.01617604)
(0.27742595 -0.18257192 -0.015715188)
(0.29699788 -0.19038083 -0.015168532)
(0.31702287 -0.19824461 -0.014711142)
(0.33765195 -0.20621325 -0.014170644)
(0.35873459 -0.21428693 -0.013700008)
(0.38037586 -0.2224357 -0.013183851)
(0.40246998 -0.23069157 -0.01270099)
(0.42508352 -0.23903393 -0.012193648)
(0.44814235 -0.24747707 -0.011704396)
(0.47167811 -0.2559941 -0.011216495)
(0.49565206 -0.2646047 -0.010708927)
(0.52006673 -0.27332332 -0.010223955)
(0.54490112 -0.28210406 -0.0097306793)
(0.57015506 -0.29098646 -0.0092423479)
(0.59580314 -0.29994473 -0.0087559589)
(0.62184257 -0.30898408 -0.0082738958)
(0.64825543 -0.31810306 -0.0077939324)
(0.67503385 -0.32729694 -0.0073204303)
(0.70216098 -0.33656436 -0.006851172)
(0.72963185 -0.34590402 -0.0063872982)
(0.75742687 -0.35531126 -0.005930834)
(0.78554334 -0.36478659 -0.0054791407)
(0.81396324 -0.37432627 -0.0050354238)
(0.84268172 -0.38392822 -0.0045972538)
(0.87168513 -0.39359205 -0.0041658666)
(0.90096639 -0.4033142 -0.0037403893)
(0.93051449 -0.41309348 -0.0033203975)
(0.96032249 -0.42292887 -0.0029053778)
(0.99037992 -0.43281704 -0.0024947484)
(1.0206804 -0.44275673 -0.0020878444)
(1.0512146 -0.4527468 -0.0016837799)
(1.0819755 -0.4627829 -0.001282435)
(1.1129543 -0.47286454 -0.00088309044)
(1.1441447 -0.48298857 -0.0004851311)
(1.1755371 -0.49315139 -8.912384e-05)
(1.2071251 -0.50335102 0.000305609)
(1.2388997 -0.51358383 0.00069840377)
(1.2708535 -0.52384636 0.0010892481)
(1.3029773 -0.53413454 0.0014766566)
(1.3352641 -0.54444681 0.001861523)
(1.3677044 -0.5547764 0.0022402415)
(1.4002902 -0.56512432 0.0026159308)
(1.4330138 -0.57547852 0.0029810206)
(1.4658642 -0.58583977 0.0033459497)
(1.4988335 -0.59621336 0.0036960668)
(1.5319158 -0.60657881 0.0040399555)
(1.5651016 -0.61695271 0.0043733134)
(1.5983815 -0.627312 0.0046941909)
(1.6317513 -0.63767431 0.0050074162)
(1.6651989 -0.6480194 0.0053031981)
(1.6987217 -0.65836139 0.0055933198)
(1.7323106 -0.66868542 0.0058650272)
(1.7659592 -0.67900298 0.0061301152)
(1.7996636 -0.68930072 0.0063780477)
(1.833416 -0.69959201 0.0066191024)
(1.867214 -0.70986265 0.0068441397)
(1.9010504 -0.72012649 0.0070628556)
(1.934925 -0.73037205 0.0072672639)
(1.96883 -0.74060921 0.0074652727)
(2.0027671 -0.7508328 0.0076523199)
(2.0367303 -0.76104699 0.0078334303)
(2.0707204 -0.77125 0.0080043901)
(2.1047328 -0.78144889 0.0081743237)
(2.1387723 -0.79163683 0.0083340422)
(2.17283 -0.80182169 0.0084931633)
(2.2069177 -0.81201192 0.0086480209)
(2.2410224 -0.82220541 0.0088111984)
(2.2751885 -0.83241093 0.0089556597)
(2.309376 -0.84269915 0.0091479388)
(0 0 0)
(0 0 0)
(0 0 0)
(0 0 0)
(0 0 0)
(0 0 0)
(0 0 0)
(0 0 0)
(0 0 0)
(0 0 0)
(0 0 0)
(0 0 0)
(0 0 0)
(0 0 0)
(0 0 0)
(0.0059727314 -0.0047013939 0.0093944028)
(0.0059887359 -0.017933773 0.015131917)
(0.0055521482 -0.018641051 0.018389201)
(0.0080549548 -0.027423963 0.021459895)
(0.010618814 -0.031632559 0.022871706)
(0.014997959 -0.038324552 0.023578524)
(0.019759977 -0.044002419 0.02408311)
(0.025972663 -0.050818272 0.02427261)
(0.032672687 -0.056762991 0.024253231)
(0.040348204 -0.06359862 0.024056522)
(0.048955966 -0.070085955 0.023960898)
(0.057975922 -0.076554884 0.023550712)
(0.068175689 -0.083607205 0.023373541)
(0.078648238 -0.089933749 0.022903703)
(0.090305996 -0.097347067 0.022689832)
(0.10222286 -0.1036805 0.02227082)
(0.11512461 -0.11107925 0.022010369)
(0.12850898 -0.11768347 0.021541503)
(0.14266518 -0.12512735 0.021294765)
(0.15744177 -0.13203716 0.020862889)
(0.17278894 -0.13940025 0.020607345)
(0.1888732 -0.14665037 0.020206993)
(0.20544582 -0.15407505 0.019933637)
(0.22271968 -0.16154312 0.019583586)
(0.24049873 -0.16903535 0.019270607)
(0.25892432 -0.17675293 0.018959972)
(0.27785993 -0.18435014 0.018632146)
(0.29737985 -0.19228744 0.018333435)
(0.31743092 -0.20006102 0.018012448)
(0.33799804 -0.20814459 0.017714814)
(0.35910743 -0.21617576 0.017407888)
(0.38070502 -0.22436566 0.017108047)
(0.40280901 -0.23261863 0.016805333)
(0.42539249 -0.240978 0.016502044)
(0.4484509 -0.24944144 0.016211979)
(0.47197349 -0.25792293 0.015903518)
(0.49592245 -0.26660771 0.015614642)
(0.52033385 -0.27530129 0.015322532)
(0.54515073 -0.28410693 0.015037548)
(0.5703904 -0.2929902 0.014749458)
(0.59602405 -0.30196173 0.01447191)
(0.62204601 -0.31100814 0.01419674)
(0.64844303 -0.32013724 0.013928542)
(0.67520269 -0.32933869 0.013667485)
(0.70231255 -0.33861547 0.013413699)
(0.72976247 -0.34796316 0.013168473)
(0.75753953 -0.35737932 0.012931248)
(0.78563411 -0.36686334 0.012703231)
(0.8140342 -0.37641136 0.012484395)
(0.84273064 -0.38602276 0.012274569)
(0.87171218 -0.3956946 0.012074796)
(0.90097125 -0.40542554 0.011882384)
(0.93049694 -0.41521377 0.011700482)
(0.96028213 -0.42505582 0.011524563)
(0.99031688 -0.43495283 0.011358258)
(1.020595 -0.44489811 0.011196786)
(1.051106 -0.45489403 0.01104384)
(1.0818448 -0.46493439 0.010894843)
(1.1128014 -0.47501857 0.010752433)
(1.1439698 -0.48514313 0.010614159)
(1.1753411 -0.49530475 0.01048047)
(1.2069087 -0.50550051 0.010350689)
(1.2386637 -0.51572735 0.010224878)
(1.2705992 -0.52598057 0.010102447)
(1.3027064 -0.5362581 0.0099834201)
(1.3349773 -0.54655627 0.0098682969)
(1.3674056 -0.55686711 0.0097548305)
(1.3999771 -0.56720322 0.0096504156)
(1.4326965 -0.57752729 0.0095436797)
(1.4655296 -0.5878795 0.0094436983)
(1.4985015 -0.59822366 0.0093484845)
(1.531577 -0.60857003 0.0092603888)
(1.5647628 -0.61891438 0.0091737659)
(1.5980437 -0.62925535 0.0090963392)
(1.6314144 -0.63958908 0.009023353)
(1.6648668 -0.64991505 0.0089584732)
(1.6983933 -0.6602315 0.0088997504)
(1.7319876 -0.6705372 0.0088502228)
(1.7656418 -0.68083164 0.0088076599)
(1.7993517 -0.69111332 0.0087749627)
(1.8331091 -0.70138325 0.0087493615)
(1.8669121 -0.71164078 0.008734304)
(1.9007526 -0.72188553 0.0087259021)
(1.9346304 -0.73211996 0.0087276464)
(1.9685386 -0.74234168 0.0087355149)
(2.0024776 -0.75255547 0.0087527372)
(2.0364424 -0.76275683 0.0087739073)
(2.0704336 -0.7729547 0.0088040769)
(2.1044474 -0.78313994 0.0088353061)
(2.1384862 -0.79332766 0.0088745524)
(2.1725455 -0.80350318 0.0089110218)
(2.2066329 -0.81369401 0.0089558827)
(2.2407392 -0.82387601 0.0089895779)
(2.2749059 -0.83410085 0.0090312654)
(2.3090621 -0.84437294 0.0090400703)
(2.3538392 -0.82034622 0.0089162057)
(2.3638333 -0.78619352 0.0088917192)
(2.3738397 -0.75209785 0.0089278649)
(2.3837962 -0.71812821 0.0089616939)
(2.3937518 -0.68420026 0.0090454509)
(2.4036851 -0.65032202 0.0091166354)
(2.413633 -0.61649048 0.0092221953)
(2.4235831 -0.58266353 0.0093171854)
(2.4335699 -0.54888775 0.0094172267)
(2.4435533 -0.51506576 0.0095169698)
(2.4535993 -0.48127659 0.0095967131)
(2.4636698 -0.44744098 0.0096675451)
(2.473795 -0.41358226 0.0097303972)
(2.4839467 -0.3796353 0.0097542461)
(2.4942477 -0.34570853 0.0097622174)
(2.4700726 -0.30102984 0.0093246984)
(2.4357124 -0.29104646 0.0091668579)
(2.4014761 -0.28103557 0.008990314)
(2.3672444 -0.2710587 0.0088376881)
(2.3330355 -0.26110834 0.0086660751)
(2.2988319 -0.25118218 0.0085008542)
(2.2646342 -0.24128522 0.0083309787)
(2.2304379 -0.23141266 0.0081544747)
(2.196243 -0.2215752 0.0079766327)
(2.1620499 -0.21176422 0.0077876978)
(2.1278555 -0.20199143 0.0075954362)
(2.0936626 -0.19225214 0.0073921513)
(2.0594696 -0.18255407 0.0071808811)
(2.0252762 -0.17289459 0.0069557086)
(1.9910869 -0.16328623 0.0067225705)
(1.9569026 -0.15372587 0.0064766299)
(1.9227253 -0.14422208 0.0062207547)
(1.8885564 -0.13477858 0.0059517471)
(1.8544012 -0.12539896 0.0056707142)
(1.8202614 -0.11609231 0.0053779872)
(1.7861432 -0.10685971 0.0050730225)
(1.75205 -0.0977118 0.0047566574)
(1.7179889 -0.088649799 0.0044291413)
(1.6839629 -0.079684292 0.0040909627)
(1.6499836 -0.070818054 0.0037440493)
(1.6160526 -0.062055188 0.0033885646)
(1.5821721 -0.053414258 0.0030224888)
(1.5483832 -0.044902666 0.0026584298)
(1.5146385 -0.036495854 0.0022837683)
(1.4809893 -0.028231322 0.001903786)
(1.4474265 -0.020104054 0.0015207213)
(1.4139645 -0.012121451 0.0011363585)
(1.3806076 -0.0042890304 0.00075083062)
(1.3473662 0.0033875843 0.00036345195)
(1.3142479 0.010902221 -2.3861863e-05)
(1.2812614 0.018250802 -0.00041186862)
(1.2484145 0.025426404 -0.00080039166)
(1.215716 0.032425378 -0.0011893319)
(1.1831736 0.039240847 -0.0015792191)
(1.1507958 0.045869219 -0.0019705729)
(1.1185908 0.052303441 -0.0023637421)
(1.0865674 0.05853975 -0.0027592626)
(1.0547338 0.064571128 -0.0031582089)
(1.0230996 0.07039311 -0.0035603815)
(0.99167367 0.075998907 -0.0039670419)
(0.96046608 0.081383222 -0.0043780716)
(0.92948697 0.086539466 -0.0047940153)
(0.8987471 0.091461686 -0.0052148775)
(0.86825786 0.096143288 -0.0056410388)
(0.83803113 0.10057858 -0.0060716162)
(0.80807937 0.10475942 -0.006507271)
(0.77841491 0.10868368 -0.0069474273)
(0.74905304 0.11233743 -0.0073901863)
(0.72000569 0.11572543 -0.0078397499)
(0.6912893 0.11883027 -0.0082871041)
(0.66291966 0.12165688 -0.0087413774)
(0.63490114 0.12420486 -0.0091974367)
(0.60725435 0.12644956 -0.0096565856)
(0.58004409 0.12836182 -0.010093161)
(0.55317787 0.13005346 -0.010574212)
(0.52675163 0.13139496 -0.011033263)
(0.50082259 0.13238835 -0.011471716)
(0.47527247 0.13315039 -0.01194054)
(0.45023138 0.13356939 -0.012407583)
(0.42565097 0.13367873 -0.012870429)
(0.401641 0.13343163 -0.013327965)
(0.37806743 0.13294577 -0.013782645)
(0.35513328 0.13204872 -0.01423556)
(0.33266894 0.13091815 -0.01470976)
(0.31082744 0.12944959 -0.015173866)
(0.28955963 0.12764684 -0.015629245)
(0.26889322 0.12557394 -0.016104359)
(0.24892774 0.12306911 -0.016522958)
(0.22950693 0.12041679 -0.017018413)
(0.21081982 0.11736979 -0.017465163)
(0.19281501 0.11398032 -0.017891428)
(0.17548524 0.11041082 -0.018382417)
(0.1589219 0.10639097 -0.018768285)
(0.14305821 0.1022703 -0.019259402)
(0.12800926 0.097675497 -0.019634301)
(0.11375681 0.092926647 -0.020063619)
(0.1002148 0.0878812 -0.020432415)
(0.087562668 0.082702455 -0.020865217)
(0.075791769 0.077020425 -0.021122178)
(0.064818569 0.071481842 -0.021503502)
(0.05477094 0.06547184 -0.021690162)
(0.045666684 0.05940207 -0.021841619)
(0.037477843 0.053175621 -0.021855631)
(0.030206219 0.0469074 -0.021729536)
(0.023973636 0.040529924 -0.021353475)
(0.018722252 0.034067209 -0.020555798)
(0.014564984 0.027553438 -0.019329607)
(0.011411142 0.021716219 -0.017528044)
(0.0086193704 0.015220537 -0.01415493)
(0.0095028355 0.0093368231 -0.0084536749)
(0 0 0)
(0 0 0)
(0 0 0)
(0 0 0)
(0 0 0)
(0 0 0)
(0 0 0)
(0 0 0)
(0 0 0)
(0 0 0)
(0 0 0)
(0 0 0)
(0 0 0)
(0 0 0)
(0 0 0)
(0 0 0)
(0 0 0)
(0 0 0)
(0 0 0)
(0 0 0)
(0 0 0)
(0 0 0)
(0 0 0)
(0 0 0)
(0 0 0)
(0 0 0)
(0 0 0)
(0 0 0)
(0 0 0)
(0 0 0)
(2.3438328 -0.85330672 0.0093589503)
(2.3438102 -0.85345762 0.0093285791)
(2.3437882 -0.85357851 0.0092947288)
(2.3437711 -0.85370207 0.0092691896)
(2.3437541 -0.85381927 0.0092427151)
(2.3437399 -0.85393204 0.0092251876)
(2.3437232 -0.85403979 0.0092050157)
(2.3437071 -0.85414439 0.0091915604)
(2.3436897 -0.85424721 0.009173688)
(2.3436691 -0.85434466 0.0091565383)
(2.343653 -0.85445001 0.0091385831)
(2.3436328 -0.85453209 0.0091134352)
(2.3436161 -0.85462771 0.0090878995)
(2.3436004 -0.85470433 0.0090574067)
(2.3435906 -0.85479218 0.0090229535)
(2.5050485 -0.30968165 0.010079123)
(2.5050539 -0.30977263 0.010075031)
(2.5050568 -0.30985432 0.010040914)
(2.5050661 -0.30994644 0.010013861)
(2.5050522 -0.31004427 0.009986717)
(2.5050437 -0.3101468 0.0099484283)
(2.5050311 -0.31024748 0.0099151294)
(2.5050131 -0.31035393 0.0098753634)
(2.5049931 -0.31045947 0.0098379802)
(2.5049681 -0.31056678 0.0098022154)
(2.5049402 -0.31067932 0.0097667708)
(2.5049074 -0.31079163 0.0097344542)
(2.5048789 -0.3109062 0.0097178802)
(2.5048273 -0.3110478 0.0096726498)
(2.5048184 -0.3111469 0.0096643093)
(0.0035140879 0.0077147903 0.011284519)
(0.0050902056 0.013369849 0.013109531)
(0.006892766 0.019155721 0.01624739)
(0.0099596104 0.024796398 0.017501608)
(0.013393715 0.030405524 0.018891192)
(0.018261506 0.036078571 0.019551156)
(0.02382004 0.041648296 0.020057491)
(0.030660125 0.047324618 0.020307002)
(0.038208377 0.052763577 0.020460066)
(0.046902063 0.058237501 0.020511852)
(0.056423482 0.063413255 0.02041156)
(0.066938202 0.068592647 0.020405827)
(0.078278839 0.073383343 0.020208373)
(0.090526513 0.078158251 0.020116425)
(0.10357835 0.082512407 0.019904848)
(0.11753 0.086800684 0.019780016)
(0.13225459 0.090669732 0.019539183)
(0.14773523 0.094412404 0.019404137)
(0.16404481 0.097767352 0.019168985)
(0.18108772 0.10092156 0.018996103)
(0.19885584 0.10372742 0.018785343)
(0.21735761 0.10625849 0.01859907)
(0.23655288 0.10849863 0.018377311)
(0.25639905 0.11041302 0.018190594)
(0.2769452 0.11203462 0.017968124)
(0.29810977 0.11333297 0.017776116)
(0.31990813 0.11433596 0.017554855)
(0.34229889 0.11500317 0.017354244)
(0.36529754 0.11536395 0.017138321)
(0.38885433 0.11542194 0.016928582)
(0.4129604 0.11513711 0.01670974)
(0.43761455 0.11455734 0.016497036)
(0.46278092 0.11365279 0.016284922)
(0.48843873 0.11244491 0.016065676)
(0.51458624 0.11092436 0.015848639)
(0.54119525 0.10908272 0.015630419)
(0.56825233 0.10696134 0.015413592)
(0.59572935 0.10451883 0.015192004)
(0.62363483 0.10179291 0.014973837)
(0.65192376 0.098769873 0.014761928)
(0.68059761 0.095461976 0.014549683)
(0.70962099 0.091863784 0.014334759)
(0.73900027 0.088007219 0.014131117)
(0.76870348 0.083861417 0.013924354)
(0.7987147 0.079469326 0.013724934)
(0.82902666 0.074814782 0.013531455)
(0.85961639 0.06991222 0.013340232)
(0.89047535 0.064768662 0.013158932)
(0.92158512 0.059389987 0.012981268)
(0.95293631 0.053782756 0.012811653)
(0.98451244 0.047956302 0.012647729)
(1.0163036 0.041914005 0.012492204)
(1.0482967 0.035666587 0.012341456)
(1.0804807 0.029216538 0.012199194)
(1.1128448 0.022574571 0.012061972)
(1.1453774 0.015742595 0.011931896)
(1.1780699 0.0087313282 0.011806623)
(1.2109102 0.0015427089 0.0116876)
(1.2438898 -0.0058140474 0.011572973)
(1.2769987 -0.013334942 0.011463148)
(1.3102274 -0.021012762 0.011357073)
(1.3435662 -0.028842156 0.011255239)
(1.3770056 -0.036816806 0.011156368)
(1.4105383 -0.044932376 0.011061151)
(1.4441502 -0.053173415 0.010966963)
(1.4778418 -0.06155605 0.010878812)
(1.5116046 -0.070044218 0.010788979)
(1.545407 -0.078653873 0.010707048)
(1.5792694 -0.087366324 0.010624218)
(1.6131607 -0.096184245 0.010547494)
(1.6470943 -0.10509239 0.01046905)
(1.6810475 -0.11408934 0.01039653)
(1.7150262 -0.12316525 0.010323888)
(1.7490104 -0.1323186 0.010258576)
(1.7830092 -0.14153333 0.010194079)
(1.8170005 -0.15082265 0.010139358)
(1.8509982 -0.16014884 0.010082962)
(1.8849778 -0.16955227 0.010041674)
(1.9189576 -0.17896845 0.0099947889)
(1.9529134 -0.18846253 0.0099681175)
(1.9868596 -0.19795866 0.0099344901)
(2.0207862 -0.20751334 0.0099194757)
(2.0546934 -0.21708438 0.0099019498)
(2.0885785 -0.22668831 0.009899691)
(2.1224493 -0.23630865 0.0098921099)
(2.156298 -0.24596363 0.0099042012)
(2.1901356 -0.25563568 0.0099133894)
(2.2239491 -0.26532335 0.0099282368)
(2.2577599 -0.27503464 0.0099485999)
(2.2915371 -0.2847773 0.0099820678)
(2.3253375 -0.29450808 0.009986367)
(2.3591008 -0.30429055 0.01003177)
(2.3928733 -0.31412262 0.010042561)
(2.4266903 -0.3239124 0.010035481)
(2.4604778 -0.33390985 0.010016744)
(0.00033673225 0.0068337455 0.010223461)
(0.0012946796 0.010280452 0.011920787)
(0.0034479957 0.016172696 0.01410366)
(0.0055461292 0.020610686 0.015543225)
(0.0088680706 0.025887515 0.016476141)
(0.013056918 0.03066163 0.017057713)
(0.018378859 0.035793127 0.017473324)
(0.02452783 0.040571516 0.017722719)
(0.031808443 0.045471878 0.01790899)
(0.040031641 0.050088407 0.017864748)
(0.049162815 0.054712521 0.017971001)
(0.05926163 0.059052672 0.017804371)
(0.070225763 0.063320226 0.017815139)
(0.082123173 0.067294291 0.017632932)
(0.094836561 0.071118132 0.017599644)
(0.10848283 0.074670753 0.017358515)
(0.12281332 0.07801669 0.01732151)
(0.13811917 0.081074693 0.017108036)
(0.15409783 0.083891837 0.016995388)
(0.17092252 0.086421391 0.016816328)
(0.18844804 0.08868119 0.016682179)
(0.20676995 0.09065705 0.016488277)
(0.22575347 0.09233775 0.016351726)
(0.24550071 0.093721294 0.016172993)
(0.26589385 0.094793543 0.016013501)
(0.28697679 0.095586055 0.015830762)
(0.30868837 0.096046694 0.015667229)
(0.3310517 0.096208719 0.015495071)
(0.3540163 0.09606054 0.015311753)
(0.37757742 0.095597534 0.01513505)
(0.40171683 0.094820659 0.014960045)
(0.42641842 0.093736198 0.014775641)
(0.45164386 0.092343438 0.014591472)
(0.47740334 0.090634289 0.014409639)
(0.50366472 0.088617233 0.014222041)
(0.53041139 0.086301902 0.014039014)
(0.55762906 0.083675279 0.013849363)
(0.58529228 0.080753646 0.01366921)
(0.61337178 0.077536736 0.013485067)
(0.64187269 0.074040109 0.013303473)
(0.67075342 0.070245182 0.013117918)
(0.70001712 0.066190662 0.012946659)
(0.72963682 0.061841587 0.012759639)
(0.75958513 0.057245453 0.012597171)
(0.78986232 0.052386844 0.012424018)
(0.82044057 0.04727444 0.012263625)
(0.8513033 0.041921008 0.012105412)
(0.88243868 0.036331025 0.011956208)
(0.91382761 0.030511778 0.011808614)
(0.94545673 0.024472505 0.011672281)
(0.97731051 0.018220326 0.011538779)
(1.0093762 0.011760767 0.01141435)
(1.0416394 0.005105408 0.011294557)
(1.0740875 -0.0017438473 0.011183207)
(1.1067083 -0.0087744652 0.01107625)
(1.1394894 -0.015984199 0.010976946)
(1.1724195 -0.023361768 0.010881977)
(1.2054864 -0.030904888 0.010793921)
(1.2386804 -0.038601742 0.010709413)
(1.2719897 -0.04645063 0.01063064)
(1.3054034 -0.054440534 0.01055585)
(1.3389122 -0.062567613 0.010484777)
(1.3725047 -0.070824763 0.01041826)
(1.4061716 -0.079202271 0.010352751)
(1.4399035 -0.087694867 0.010292518)
(1.4736956 -0.096301274 0.010235369)
(1.5075098 -0.1049936 0.010181931)
(1.5413769 -0.11380085 0.010132437)
(1.5752731 -0.12269169 0.010074369)
(1.6091882 -0.13166748 0.010027202)
(1.643119 -0.14070957 0.0099757054)
(1.6770463 -0.14982784 0.0099355014)
(1.7109782 -0.15899671 0.0098893668)
(1.7448909 -0.16823457 0.0098576658)
(1.7788021 -0.17750378 0.0098152226)
(1.8126756 -0.18684006 0.0097943579)
(1.846545 -0.19618376 0.0097550873)
(1.8803629 -0.20559832 0.0097472184)
(1.9141748 -0.21499631 0.0097122933)
(1.947924 -0.22447057 0.0097194083)
(1.9816682 -0.23391133 0.0096907057)
(2.0153478 -0.24341852 0.0097064787)
(2.0490116 -0.25290875 0.0096997248)
(2.0826218 -0.26243586 0.0097095067)
(2.1162214 -0.27195366 0.0097165885)
(2.1497598 -0.28150491 0.0097443231)
(2.1832865 -0.29105245 0.0097591572)
(2.216764 -0.30061306 0.0097907439)
(2.2502307 -0.31021357 0.0098225718)
(2.2836635 -0.31977817 0.0098379202)
(2.3170893 -0.32941533 0.0098770015)
(2.3504757 -0.33904762 0.0098961812)
(2.3838938 -0.34870568 0.0099021074)
(2.4172875 -0.3584231 0.0099037992)
(2.4507392 -0.36820054 0.0098811282)
(-0.0016956934 0.0053731633 0.008876294)
(-0.0010876076 0.0085072272 0.010179577)
(-0.00029086318 0.012922513 0.012483053)
(0.0018942345 0.017104928 0.013394831)
(0.0048090985 0.02138908 0.014089557)
(0.0089422919 0.025780226 0.014555026)
(0.01371495 0.029934924 0.014914964)
(0.01983767 0.034199298 0.015152881)
(0.026709484 0.038163373 0.015159218)
(0.034641986 0.042278321 0.015354409)
(0.043472564 0.045979868 0.015229172)
(0.053312918 0.049804067 0.015318065)
(0.063980236 0.053192124 0.015166848)
(0.075589995 0.056635776 0.015204328)
(0.088081328 0.059674796 0.014998831)
(0.10137064 0.062653525 0.015036443)
(0.11558758 0.065275219 0.01484277)
(0.13056089 0.067758585 0.014793526)
(0.14636547 0.069917758 0.014651208)
(0.1629575 0.071861854 0.014571436)
(0.18033361 0.073521577 0.014418912)
(0.19844251 0.074895266 0.014335563)
(0.21731426 0.076010543 0.014189675)
(0.23687703 0.076809049 0.014079549)
(0.25716002 0.077355198 0.013933777)
(0.27811302 0.07756897 0.013818433)
(0.29974455 0.077506676 0.013678779)
(0.32201 0.077136432 0.013540095)
(0.34491446 0.076464521 0.013402242)
(0.36842462 0.075483568 0.013267841)
(0.39253243 0.07420154 0.013117704)
(0.417205 0.072615313 0.012974622)
(0.44244376 0.07071794 0.012830507)
(0.46821366 0.068520292 0.012681135)
(0.49450012 0.066022331 0.012534082)
(0.52128555 0.063224869 0.012383188)
(0.54853729 0.060133912 0.012241153)
(0.57624179 0.056752679 0.012095312)
(0.60441983 0.053076161 0.011945409)
(0.63300077 0.049108392 0.011791473)
(0.66199101 0.044879985 0.011654361)
(0.69136352 0.040367127 0.011497102)
(0.72109446 0.035594522 0.011371215)
(0.75117723 0.030563007 0.011230335)
(0.78158467 0.025275485 0.011096612)
(0.81229725 0.019748064 0.010971673)
(0.84330243 0.013983707 0.0108474)
(0.87458127 0.0079905919 0.010729968)
(0.90611618 0.0017770137 0.010618422)
(0.93789172 -0.0046488888 0.010513894)
(0.96989367 -0.011280113 0.010412756)
(1.0021045 -0.018108163 0.010321443)
(1.0345124 -0.0251248 0.010233094)
(1.0671011 -0.032324414 0.010153628)
(1.0998598 -0.039696029 0.01007802)
(1.1327727 -0.047236204 0.010010063)
(1.1658297 -0.05493383 0.0099463977)
(1.1990169 -0.062784776 0.0098892588)
(1.2323238 -0.070778886 0.0098356813)
(1.2657371 -0.078912193 0.0097886934)
(1.2992475 -0.087174291 0.0097441248)
(1.3328426 -0.095561034 0.0097047215)
(1.3665114 -0.10406299 0.0096686039)
(1.400245 -0.11267296 0.0096340448)
(1.4340323 -0.12138755 0.0096058923)
(1.4678545 -0.13019541 0.0095761315)
(1.501736 -0.13907526 0.0095550074)
(1.5356119 -0.14806044 0.0095233027)
(1.5695136 -0.15712238 0.0095129936)
(1.6034175 -0.16623108 0.0094950482)
(1.6373207 -0.17540933 0.0094796329)
(1.6712122 -0.18463249 0.009468271)
(1.7050937 -0.19390603 0.0094541373)
(1.7389479 -0.20321527 0.0094463163)
(1.7727776 -0.2125632 0.0094365971)
(1.8065686 -0.22193705 0.0094351243)
(1.840329 -0.23133516 0.0094295095)
(1.8740382 -0.24075609 0.0094361622)
(1.9077135 -0.25018636 0.0094361703)
(1.9413313 -0.25963723 0.009451196)
(1.9749138 -0.26908288 0.0094556078)
(2.0084332 -0.27856164 0.0094862092)
(2.0419179 -0.28800891 0.0094910661)
(2.0753486 -0.2975004 0.0095297799)
(2.1087348 -0.30696263 0.0095499076)
(2.1420736 -0.31645272 0.0095925497)
(2.1753781 -0.3259216 0.0096142773)
(2.2086369 -0.33543536 0.0096667785)
(2.2418787 -0.34490987 0.0096832953)
(2.2750662 -0.35443568 0.0097381524)
(2.3082517 -0.36396476 0.0097617111)
(2.3414047 -0.37349304 0.0097902418)
(2.3745592 -0.38309059 0.0098060132)
(2.4077149 -0.39267095 0.0098079278)
(2.4408893 -0.40231447 0.0097944711)
(-0.0028511744 0.0047784319 0.0074502281)
(-0.0032027341 0.0066237363 0.0087890211)
(-0.0024409924 0.010356832 0.010219244)
(-0.00057463197 0.013540696 0.010898386)
(0.0022927871 0.017259148 0.011509957)
(0.0059482461 0.020680441 0.01191817)
(0.010905191 0.024324864 0.012206267)
(0.016666028 0.027653262 0.012257854)
(0.023427745 0.031126629 0.012544244)
(0.031216553 0.034282178 0.012442085)
(0.039927433 0.037448138 0.012606031)
(0.049544164 0.040377179 0.012485259)
(0.060063663 0.043189092 0.0125974)
(0.071563853 0.045821703 0.012419233)
(0.083783851 0.048211569 0.01252941)
(0.097040715 0.05046456 0.012359438)
(0.11098745 0.052438122 0.012373392)
(0.12586582 0.054228805 0.012278601)
(0.14147237 0.055738186 0.012241669)
(0.15794851 0.057038157 0.012140014)
(0.17511153 0.058047249 0.01209681)
(0.19311267 0.058824629 0.012000617)
(0.21178636 0.059311924 0.011928884)
(0.23123668 0.059541302 0.011841246)
(0.25135571 0.059475498 0.011761531)
(0.27219115 0.059132052 0.011673191)
(0.29367313 0.058510265 0.011574611)
(0.3158262 0.057582542 0.011490457)
(0.3386001 0.056373065 0.011391188)
(0.36200089 0.05486766 0.011290242)
(0.38598589 0.05306997 0.011191401)
(0.4105659 0.050972844 0.011091654)
(0.4356943 0.048585382 0.010983459)
(0.46136873 0.04590881 0.010881131)
(0.48756878 0.042927113 0.010771817)
(0.51426628 0.039676485 0.010664467)
(0.54146426 0.036110874 0.010554485)
(0.56915406 0.03228606 0.01043492)
(0.59723645 0.028166724 0.010330414)
(0.6257618 0.023800801 0.01023515)
(0.65468725 0.01914927 0.010122864)
(0.68400417 0.014235817 0.010031357)
(0.71368745 0.0090739504 0.0099259579)
(0.74371828 0.0036588366 0.0098280354)
(0.77407965 -0.0019931258 0.0097390492)
(0.80475273 -0.0078814885 0.0096522593)
(0.83572156 -0.013996165 0.0095674988)
(0.86696558 -0.020329121 0.0094922691)