/*--------------------------------*- C++ -*----------------------------------*\
  =========                 |
  \\      /  F ield         | OpenFOAM: The Open Source CFD Toolbox
   \\    /   O peration     | Website:  https://openfoam.org
    \\  /    A nd           | Version:  6
     \\/     M anipulation  |
\*---------------------------------------------------------------------------*/
FoamFile
{
    version     2.0;
    format      ascii;
    class       pointScalarField;
    location    "1.38";
    object      p;
}
// * * * * * * * * * * * * * * * * * * * * * * * * * * * * * * * * * * * * * //

dimensions      [1 -1 -2 0 0 0 0];

internalField   nonuniform List<scalar> 
28033
(
-1441894.7
1908288.2
94.000632
-90.791742
-2770119.8
2608873.9
-169.52433
117.34534
-1270865.1
-1105509.8
-945185.21
-776814.51
-558992.18
-380552.84
-195183.3
-2680.7303
192391.72
360491.67
554598.07
651846.97
857967.18
1049218.1
1002412.7
274.77295
589.69761
833.8725
686.30172
787.35452
293.59682
129.68803
-258.61794
-693.49557
-851.95745
-1168.8453
-1307.0754
-1226.9022
-929.77163
-446.91491
-318980.67
-374187.64
-329711.94
-370434.91
-356583.17
-374273.35
-375776.61
-381426.83
-382838.72
-388898.27
-386294.8
-387819.11
-388952.6
-389478.08
-387337.9
-385655.58
-386160.82
-382860.65
-380407.57
-376948.58
-374756.76
-368958.58
-366256.39
-360475.19
-354943.43
-349808.47
-344287.61
-337517.8
-331520.92
-325127.32
-319010.91
-311827.7
-306323.47
-300204.83
-293199.32
-287821.48
-281715.77
-277001.21
-270456.95
-265220.66
-258942.59
-253382.08
-247245.62
-241537.9
-235186.15
-229198.67
-222623.21
-216358.02
-209547.59
-203088.31
-196215.64
-189661.98
-182959.08
-176499.05
-170117.48
-163982.96
-158033.48
-152349.84
-146874.22
-141681.06
-136653.39
-131810.02
-127051.11
-122526.25
-117877.62
-113472.3
-109367.38
-104292.32
-98834.473
-93451.488
-87728.942
-82077.321
-76152.928
-70138.826
-63939.654
-57777.263
-51619.181
-45641.886
-39687.567
-34283.941
-28979.328
-24106.129
-19632.939
-15438.174
-12049.912
-8986.6714
-6656.9451
-4587.8874
-3042.8887
-1776.7189
-975.74596
-336.82502
60.535695
161.34782
169.049
389532.01
335652.49
369433.04
340225.49
376718.56
371953.63
384659.44
380954.35
390665.3
386396.3
391837.26
388783.77
389530.57
389343.78
387140.31
386001.85
383030.63
380676.37
378127.1
374108.89
369951.89
366937.92
360556.2
357624.39
351806.22
345879.09
341817.37
334366.01
330343.92
322432.52
317834.43
311018.92
305835.64
300082.66
294984.34
290011.1
283637.71
279400.21
273398.93
268860.66
263329.81
258233.81
252695.94
247281.73
241459.34
235681.12
229559.69
223396.99
217041.73
210601.49
204094.75
197572.8
191059.81
184643.49
178299.11
172132.44
166095.71
160261.41
154578.35
149089.54
143706.85
138479.54
133284.1
128144.23
122967.59
117747.89
112439.79
107084.24
101709.46
95500.269
89852.814
83620.956
77574.435
71306.474
65103.317
58915.349
52819.471
46918.518
41214.501
35889.143
30843.384
26224.125
21986.401
18228.815
14845.157
11967.763
9425.9699
7335.6244
5544.5143
4085.2965
2893.9242
1949.5885
1132.3861
659.66763
217.64868
-2230203.4
-2160555.8
-1529814.8
-1546606.7
-1057449
-631657.2
-385517.1
17545.625
334015.87
699651.79
974229.45
1302507.8
1642083.5
1849973.6
1981804.6
538567.83
456888.68
247236.34
429252.94
367161.6
395337.01
382480.45
404442.82
390696.68
410834.54
409407.14
401714.07
411707.46
400013.64
409933.49
400605.36
398833.44
397422.78
390805.79
393715.77
386009.59
378942.98
377469.73
375363.48
366584.26
364783.25
351462.8
352677.05
338951.59
337599.24
331004.62
324611.41
318018.23
312023.91
306601.3
295384.33
293609.73
287969.59
281911.96
276294.64
270540.74
264836.51
259008.53
253056.48
247044.81
240825.92
234462.3
227896.87
221232.79
214473.92
207682.62
200855.01
194116.81
187430.67
180911.1
174525.76
168388.42
162429.12
156714.35
151227.86
145897.5
140780.2
135728.45
130779.72
125813.57
120775.76
116001.69
110856.68
103597.06
99581.504
93678.317
87561.683
81353.862
75006.511
68524.518
62015.793
55553.848
49244
43088.009
37214.666
31637.352
26486.541
21726.658
17507.453
13725.979
10500.819
7717.4625
5464.4286
3603.4615
2189.3284
1108.584
348.34818
-80.841987
-352.92927
-310.52286
-372.24462
-709.83245
-682.05052
-698.01142
-340.15603
-266.65793
65.312769
440.84036
785.57309
1309.7695
1183.3872
1473.856
843.91871
642.85615
249.13925
-174.55347
-321.38655
-807.91989
-1598.0326
-2285.4515
-3423.0804
-4733.7898
-6404.2708
-8202.3979
-10731.754
-13324.875
-16370.999
-20048.195
-24196.579
-28761.745
-33707.776
-39113.112
-44730.582
-50720.763
-56857.287
-63148.373
-69505.512
-75912.392
-82095.989
-88313.307
-94110.227
-97961.946
-107874.21
-111129.79
-116936.06
-122087.9
-127324.3
-132426.79
-137590.78
-142808.51
-148136.35
-153649.97
-159313.53
-165224.83
-171333.87
-177664.73
-184180.2
-190880.51
-197679.84
-204578.86
-211500.69
-218390.42
-225215.85
-231944.07
-238466.03
-244859.65
-251015.31
-257086.93
-262780.83
-268112.74
-274181.91
-278357.93
-280665.58
-293168.27
-294318.06
-296875.54
-310588.15
-311531.43
-317409.71
-318267.6
-333795.83
-328198.09
-345640.26
-347208.68
-354063.15
-359184.97
-357774.29
-375301.06
-372821.42
-372143.5
-386692.19
-379360.91
-392940.65
-384959.77
-397012.42
-401767.73
-394273.78
-392439.69
-401944.3
-398510.33
-394326.27
-398381.2
-392444.65
-386988.06
-373935.4
-364250.06
-393520.74
-362420.71
-316870.03
-422805.59
-934606.32
-1056110.3
-1112872.7
-1193465.6
-1207630.2
-1264856.9
-1254532.3
-1285448.3
-1256929.2
-1212684.2
-1253703.9
-1151256.1
-1091195.5
-1167632.6
-825561.72
1607914.1
1993467.8
1955209.5
2092627.2
2021158.9
1930561.8
2209817.4
2333762.3
2197148.6
2203954.1
2124393
2062564.7
1943410.6
1931382
1808280.5
293.8678
475.86586
479.28959
622.98615
494.15429
528.37365
444.13442
386.77004
356.58802
299.52463
218.78305
236.73329
212.63947
162.74274
48.618858
-1.1147973
-105.37882
-102.71665
-170.21985
-195.52534
-237.88393
-299.18223
-363.61102
-428.45022
-453.29297
-503.41303
-425.29146
-417.00346
-197.32572
88.832048
-319213.93
-337622.8
-300826.01
-310098
-321165.12
-329173.96
-336086.13
-341158.24
-345974.43
-347190.58
-348911.35
-352454.63
-351401.78
-350805.8
-349850.62
-351060.11
-348037.09
-346608.89
-344013.05
-341669.84
-338707.39
-335555.55
-331657.6
-326718.18
-322387.49
-318113.64
-312137.25
-306512.72
-301320.98
-295471.33
-288577.94
-283067.47
-278453.62
-271773.63
-266585.58
-260296.29
-254974.6
-248709.45
-243534.11
-238596.38
-233334.22
-227748.87
-222527.04
-216868.17
-211317.56
-205754.61
-199906.55
-194245.75
-188226.3
-182409
-176367.53
-170480.71
-164531.79
-158735.5
-153006.2
-147453.13
-142045.76
-136834.11
-131813.79
-126981.86
-122316.35
-117765.64
-113417.22
-109161.77
-104683.58
-100400.37
-95285.927
-91028.896
-86561.063
-82093.567
-77453.062
-72497.778
-67393.552
-62272.818
-56941.762
-51676.135
-46398.424
-41187.292
-36086.438
-31381.976
-26602.082
-22434.55
-18507.841
-15195.373
-11999.616
-9248.0049
-6910.1378
-4925.7335
-3346.4336
-2156.873
-1187.0697
-570.84604
-43.137613
114.20964
352.40906
-301743.13
-282908.58
-245365.18
-264650.07
-268271.21
-275451.9
-279635.73
-286689.07
-289667.3
-294581.44
-295523.87
-298285.43
-298028.53
-299977.57
-298963.82
-298303.37
-296933.65
-296188.5
-294105.66
-291576.52
-289584.19
-285272.67
-283089.62
-278988
-275802.83
-270583.57
-267106.06
-262289.74
-257473.34
-252382.86
-247990.32
-242969.62
-237497.09
-232370.39
-227447.14
-222470.35
-217721.95
-212984.86
-208370.63
-203554.01
-198659.79
-194384.75
-189118.48
-184624.65
-179636.69
-174984.04
-169986.56
-165208.17
-160113.36
-155259.62
-150144.57
-145227.35
-140218.35
-135339.7
-130507.92
-125805.06
-121207.94
-116780.27
-112467.6
-108330.66
-104310.4
-100409.62
-96711.469
-92988.121
-89333.395
-86320.028
-83165.016
-79328.84
-76215.615
-72231.499
-68256.449
-64122.628
-59817.485
-55323.824
-50780.967
-46339.772
-41643.521
-37296.108
-32791.243
-28672.768
-24521.328
-20739.226
-17373.509
-13535.38
-10778.621
-8275.0594
-6134.0241
-4480.4972
-3105.5525
-1980.4143
-1225.8957
-571.05842
-128.33004
9.8484063
487.58157
-251081.78
-249136.11
-204070.83
-222967.97
-219450.39
-227866.72
-233847.79
-240312.16
-242448.16
-246101.14
-248075.08
-250215.01
-250740.77
-251131.57
-250897.94
-250853.59
-250081.71
-248524.57
-247292.85
-245202.31
-243494.69
-240906
-238664.41
-235338.72
-231931.01
-228581.61
-225048.65
-220515.26
-216914.81
-212470.39
-208235.02
-203412.38
-199520.97
-195031.41
-191065.36
-186495.61
-182708.07
-178683.39
-174619.08
-170403.11
-166269.59
-162163.09
-158418.6
-154404.07
-150483.97
-146383.23
-142266.31
-138146.55
-133942.67
-129776.85
-125505.51
-121344.86
-117106.06
-112986.05
-108884.81
-104892.1
-100994.5
-97222.075
-93555.259
-90039.716
-86628.287
-83324.37
-80175.631
-76900.74
-74019.839
-71348.021
-68970.994
-65381.442
-62708.812
-59817.254
-56777.903
-53236.349
-49486.908
-45915.423
-42181.12
-38447.32
-34789.006
-31049.746
-27489.461
-24011.46
-20622.223
-17627.039
-14551.784
-11984.737
-9539.8368
-7247.9182
-5288.585
-3922.7201
-2624.1879
-1682.7912
-981.70892
-376.24263
-27.509946
370.1136
695.45678
-194240.88
-202382.39
-158023.35
-180223.35
-169609.11
-180348.23
-183276.76
-188122.34
-189787.86
-194990.86
-195873.47
-198678.64
-198258.72
-200653.54
-199515.6
-200412.32
-198841.59
-199059.43
-197683.19
-196287.49
-194895.24
-192590.51
-190915.89
-187888.82
-186117.35
-182746.25
-180154.53
-176875.13
-173805.08
-170098.37
-166951.02
-163216.05
-159852.79
-155950.2
-152887.18
-148563.07
-145666.26
-140847.02
-137232.19
-133756.7
-130885.28
-127532.56
-124203.54
-120833.02
-117626.35
-114325.65
-111081.47
-107838.65
-104523.03
-101241.15
-97913.66
-94628.572
-91321.047
-88083.436
-84862.289
-81736.689
-78665.475
-75703.088
-72826.583
-70064.381
-67409.482
-64833.994
-62331.063
-59961.245
-57663.33
-55233.923
-53388.374
-50975.077
-48048.958
-45747.405
-43328.225
-40549.922
-38225.034
-35508.253
-32636.632
-29777.788
-26901.685
-24069.42
-21243.72
-18523.043
-15914.591
-13467.205
-11112.859
-8788.6504
-6940.1049
-5612.8761
-4220.9962
-3089.9482
-2082.146
-1316.8841
-756.71466
-309.68579
56.129021
148.6278
571.95958
-165124.42
-150425.94
-118739.94
-133330.87
-128541.31
-134647.93
-138300.23
-141827.33
-143412.84
-146606.06
-148117.17
-149016.23
-150389.47
-150948.41
-150985.54
-151113.21
-150759.02
-150326.73
-149316.49
-148400.41
-147460.2
-145938.81
-144437.16
-142742.27
-140924.99
-138396.07
-136555.2
-133605.44
-131354.06
-128466.92
-125934.32
-122870.71
-120219.09
-117354.85
-114700.13
-111679.97
-111020.83
-109908.81
-107518.73
-107032.5
-103918.15
-101384.29
-98989.146
-96409.261
-93880.692
-91227.958
-88642.276
-85979.402
-83338.808
-80688.849
-78013.022
-75367.061
-72707.34
-70081.967
-67488.893
-64950.1
-62457.803
-60056.881
-57721.596
-55481.32
-53348.25
-51220.662
-49280.131
-47451.318
-45268.551
-43881.294
-41904.7
-40022.192
-38004.763
-36135.21
-34190.77
-31834.558
-28979.812
-26747.533
-24409.615
-22166.57
-20113.982
-17964.73
-15874.104
-13857.913
-11851.671
-10047.448
-8223.6932
-6739.6786
-5194.9113
-4037.4218
-2904.5145
-2103.5488
-1281.4124
-809.24409
-388.47651
-44.57419
76.199366
237.83236
483.60364
-100994.32
-106107.04
-76113.712
-91785.617
-83408.105
-87059.95
-90322.113
-92819.273
-92771.147
-97214.428
-96555.368
-99144.553
-98633.031
-100692.39
-99442.482
-100948.6
-99922.484
-100576.78
-99516.108
-99574.605
-98442.037
-97601.38
-96789.66
-95437.091
-94287.532
-92701.412
-91418.791
-89503.481
-88019.581
-85807.666
-84138.982
-81801.834
-80032.643
-77722.124
-75675.594
-73816.064
-72837.082
-72010.207
-71130.923
-70099.915
-69598.475
-67608.655
-65687.401
-63817.626
-62007.413
-60113.31
-58270.129
-56443.979
-54604.082
-52775.738
-50943.998
-49134.158
-47309.342
-45536.267
-43770.133
-42051.625
-40383.275
-38772.449
-37222.498
-35748.674
-34325.383
-33033.248
-31738.885
-30464.031
-29515.704
-28101.614
-27262.679
-26103.991
-24978.131
-23971.598
-22568.507
-21203.014
-19989.46
-18235.588
-16353.68
-15027.759
-13579.048
-12194.843
-10798.319
-9448.8184
-8066.6265
-6823.5434
-5589.7209
-4499.5432
-3442.4727
-2672.5864
-1776.3082
-1186.0927
-589.96777
-274.43519
26.230766
134.81985
236.0608
224.11483
265.99072
-55219.962
-49853.613
-36034.822
-46578.041
-38361.246
-42371.72
-44364.45
-45260.567
-45908.379
-47197.669
-48761.881
-48168.664
-50070.925
-49977.465
-50466.021
-50987.693
-50976.319
-51140.137
-50998.694
-51186.972
-50713.321
-50781.988
-50269.453
-49703.926
-49237.56
-48276.129
-47607.607
-46372.21
-45462.588
-44158.451
-43152.708
-41691.595
-40619.509
-39090.462
-38017.363
-36629.438
-35363.696
-34486.061
-32616.848
-30917.258
-30181.15
-29200.165
-28015.366
-27191.293
-26264.427
-25341.703
-24422.717
-23575.448
-22647.166
-21797.028
-20901.174
-20043.221
-19167.206
-18328.864
-17490.211
-16687.381
-15919.576
-15189.633
-14500.87
-13867.428
-13305.854
-12764.372
-12277
-11931.029
-11424.376
-11192.783
-10791.297
-10439.808
-10115.601
-9720.9217
-9336.5486
-8910.1072
-8060.8832
-8102.3162
-7605.9905
-7056.1354
-6317.1895
-5643.1046
-4920.2691
-4167.1264
-3426.366
-2742.732
-2005.8482
-1450.9283
-803.83665
-430.3276
79.492853
171.36464
482.86939
395.00243
519.0722
343.23972
305.26445
171.88137
-10.799294
6752.8377
-713.69597
8790.2735
2514.109
5347.6833
4201.0441
3918.5378
2638.1005
4977.8914
1543.7787
3244.157
1739.0359
1974.0056
737.72607
1292.7381
-147.324
419.92059
-920.80421
-525.16529
-1441.8162
-1301.7448
-2028.3614
-1568.8561
-1928.6034
-1871.321
-1786.3113
-1810.9692
-1393.7841
-1386.335
-756.81394
-549.40607
189.52701
500.3302
1202.9569
1554.8005
2376.5163
2393.5663
3027.9895
3360.5212
4161.9574
4343.1782
4538.9447
4892.7976
5068.6538
5156.841
5344.4417
5366.6858
5421.828
5459.0724
5486.138
5508.6428
5537.9282
5567.6117
5602.7055
5623.0898
5653.3954
5647.2475
5632.8691
5587.6449
5477.4284
5364.8122
5168.7685
4905.0967
4657.6137
4261.2956
3928.1404
3495.3809
3037.3457
2622.4177
2119.5513
1765.4414
1456.1361
1109.0724
659.89531
345.91133
162.3344
71.44981
16.708739
52.834664
103.75616
214.85482
361.29896
494.71024
658.24747
797.15961
875.0125
997.49802
952.26668
1070.6857
867.56327
896.88252
568.05835
436.89555
130.35942
-131.6881
52438.602
51809.101
48736.835
46153.377
48387.388
50197.396
49157.451
51457.642
50756.65
52262.923
50607.458
52499.217
50514.764
51093.916
50153.628
49893.027
49000.269
48399.557
48100.406
46911.987
46612.09
46004.974
45366.322
44454.219
43902.915
43230.529
42766.294
42206.508
41730.426
41468.946
40956.139
40812.66
40360.716
40213.228
39934.63
39613.554
39428.142
39092.269
38678.139
38226.596
37764.439
37240.392
36746.915
36077.847
35420.878
34756.307
34034.372
33268.88
32534.808
31751.151
30977.318
30198.283
29437.509
28659.638
27897.088
27141.565
26360.73
25590.958
24785.102
23971.638
23118.032
22220.386
21319.451
20322.496
19367.913
18300.334
17230.102
16151.03
15048.136
13931.6
12894.399
11736.815
10767.172
9762.1182
9132.9703
8475.8756
7659.6722
7025.7534
6320.3579
5786.6726
5282.7248
4820.0781
4448.7641
4053.5585
3754.0055
3367.2312
3132.0319
2653.5132
2485.0773
1840.651
1653.0169
1015.4903
655.28838
230.55863
-316.77805
109904.58
108409.5
93067.139
95387.626
97629.656
99099.096
101124.84
100915.42
104829.46
103351.32
104853.54
104984.44
104652.82
104190.06
104272.9
102713.33
102393.16
101133.82
100079.97
98709.933
97895.517
94800.358
93634.363
92057.143
90939.154
89616.382
88182.641
87017.798
85612.8
84598.251
83289.792
82373.064
81203.237
80341.318
79095.284
78317.609
77065.227
76182.57
74943.87
73968.685
72726.753
71502.831
70134.817
68815.069
67294.581
65838.092
64239.548
62641.944
61024.087
59382.933
57729.183
56109.663
54484.121
52881.961
51307.95
49756.346
48205.726
46682.191
45159.48
43612.119
42063.281
40485.512
38853.789
37204.898
35493.797
33725.864
31937.486
30122.513
28244.481
26386.266
24467.935
22644.972
20729.295
18792.148
16050.336
14487.239
13188.505
11726.127
10490.829
9417.852
8312.2675
7476.5469
6563.6537
5881.9342
5139.3449
4553.0505
3943.7478
3363.8571
2908.1518
2171.6051
1920.6533
1072.2136
697.31435
142.59098
-422.46845
168537
140377.53
127955.14
131545.78
135889.46
137534.04
140063.31
143036.68
145006.84
146222.99
146563.08
147940.09
146931.16
147190.89
146305.93
145144.51
144672.92
142697.63
141821.37
140562.83
139633.52
140530.95
140110.32
139550.85
138058.68
135830.83
134148.38
131889.22
129862.17
127955.83
125876.68
124137.62
122197.71
120378.87
118447.33
116668.23
114809.39
112963.44
111026.61
109121.75
107107.26
105017.79
102926.83
100702.47
98437.631
96113.056
93746.096
91317.876
88885.754
86412.291
83945.808
81484.684
79034.208
76606.815
74211.2
71839.111
69486.04
67176.292
64854.726
62552.499
60251.08
57911.901
55589.725
53193.113
50826.011
48365.547
45890.578
43338.206
40795.187
38188.637
35632.433
33111.095
30536.593
28042.568
25942.956
23184.039
20411.13
18363.868
16307.932
14491.729
12838.992
11262.841
9864.6722
8558.7929
7390.1978
6313.9118
5346.3641
4454.0339
3634.006
2875.9124
2151.9539
1469.5812
787.17601
230.52245
-604.26363
203467.37
196251.35
179997.83
178970.84
183429.84
184215.3
190426.81
191811.18
194748.29
196660.54
197833.02
198152.83
198643.88
197852.51
197387.5
196565.43
194784.82
193493.82
191972.19
189591.43
188826
186360.91
188103.53
186959.7
184447.16
182247.17
179479.55
176641.47
173788.87
170990.63
168250.67
165430.88
162848.5
160247.62
157559.57
155144.96
152396.53
149903.94
147194.47
144615.43
141766.87
139068.74
136121.04
133202.92
130118.13
126996.6
123783.99
120501
117179.42
113838.61
110467.77
107126.18
103800.6
100516.56
97285.382
94107.264
90991.528
87926.082
84905.804
81929.26
78951.548
76004.509
73019.007
70000.105
66977.62
63847.313
60671.406
57501.002
54199.663
50875.708
47531.443
44116.863
40676.939
37443.486
34139.812
31205.631
27954.679
24985.246
22115.106
19496.805
17019.983
14768.684
12696.179
10844.318
9160.6844
7677.2023
6340.5105
5171.1053
4116.9211
3157.4028
2367.4681
1481.5857
863.77482
177.97371
-545.04412
287594.61
263753.52
231654.04
241668.49
239700.43
248317.19
249502.88
255115.26
256078.13
259786.28
259633.76
261774.91
260173.64
261068.15
258730.41
258344.42
256050.73
254267.66
251812.05
249393.59
246652.61
244272.31
240040.03
236283.31
232741.96
229394.42
226077.5
222218.16
218620.51
215017.92
211225.37
207635.12
204224.48
200765.98
197282.25
193935.93
190355.78
187028.65
183559.57
180053.1
176554.19
172912.9
169204.48
165404.37
161503.66
157527.96
153470.89
149334.43
145169.97
140967.03
136743.83
132553.59
128376.81
124254.45
120187.96
116196.55
112263.85
108409.26
104612.22
100860.58
97148.229
93451.512
89740.954
86010.484
82275.69
78432.108
74607.453
70677.538
66677.766
62588.633
58503.548
54377.987
50319.895
46197.184
42153.018
38317.009
34491.686
30838.378
27356.12
24072.188
21038.367
18224.63
15650.674
13334.528
11229.463
9370.0618
7707.4223
6246.647
4934.3787
3807.2638
2768.1314
1838.0021
1028.4454
338.35417
-397.97133
321165.96
311162.38
270413.34
284933.8
289357.94
294882.68
299398.87
304214.78
307373.31
309268.29
311876.63
311595.42
312125.61
311889.49
309700.28
309229.94
306628.22
304197.56
301991.55
298604.95
295561.99
291973.33
288407.92
285335.32
280513
276404.54
272005.03
267265.49
263407.02
258465.87
254295.27
249609.81
245205.51
240793.62
236668.7
232716.48
228415.62
224535.13
220242.75
216248.11
211975.52
207711.13
203336.94
198822.4
194203.78
189430.31
184544.81
179550.04
174468.66
169329.87
164159.5
158998.39
153868.2
148798.44
143820.73
138942.32
134176.3
129532.92
124988.84
120556.43
116182.72
111883.81
107573.13
103293.29
98916.032
94495.752
89958.199
85455.234
80758.194
75933.755
71137.42
66173.465
61125.664
56174.614
51158.322
46277.273
41476.568
36895.865
32522.569
28416.273
24576.791
21060.449
17844.004
14977.454
12403.307
10171.559
8205.2187
6526.5657
5074.7573
3833.7844
2786.3347
1829.6348
1074.0117
425.17877
-197.27235
428036.04
321182.41
330650.37
330952.68
343201.1
342284.94
351385.18
354616.8
357470.45
360448.78
361187.24
363454.32
361574.38
362016.43
359235.94
359078.09
355696.34
353001.64
350311.77
346908.66
342420.43
338923.99
334431.44
330126.83
325246.08
319674.46
314733.34
309000.02
304812.31
299166.41
294284.63
288684.29
283542.52
277899.06
272692.97
268648.24
263672
258929.1
254049.12
249302.98
244297.89
239362.67
234191.11
228933.83
223510.2
217935.74
212234.27
206406.4
200465.37
194486
188444.07
182437.25
176458.8
170567.55
164787.54
159136.93
153632.29
148277.11
143067.03
137975.2
132996.21
128081.05
123206.59
118332.15
113390.4
108340.38
103118.14
97771.506
92575.95
87230.918
81667.134
75877.543
70200.054
64396.397
58626.105
52978.142
47492.067
42138.342
37089.732
32270.996
27829.072
23728.647
20018.554
16685.327
13755.73
11176.108
8971.9558
7068.9622
5463.3426
4129.36
2993.5354
2040.3877
1330.4789
645.3651
165.63221
-653578.06
-740769.93
-692386.45
-722137.84
-722819.96
-731018.81
-761443.97
-739451.95
-731057.54
-741446.61
-723596.45
-694971.25
-691458.42
-739112.51
-570842.51
-686000.03
-732322.99
-671151.62
-713374.74
-703185.29
-732676.08
-704864.15
-737700.42
-729829.44
-731836.89
-716687.15
-715506.13
-711842.68
-729738.91
-613712.6
-509153.92
-610334.11
-505282.32
-539401.13
-540403.82
-527485.29
-540924.45
-531412.23
-536314.88
-529422.68
-527372.76
-534149.25
-495097.82
-565593.81
-511831.45
-457372.47
-473546.07
-464512.06
-452972.21
-474147.84
-463930.33
-476217.86
-474897.95
-471886.16
-471818.92
-475533.74
-455460
-460650.65
-506052.52
-344212.11
-319434.4
-369831.17
-305355.96
-342940.92
-318079.06
-341465.55
-328997.29
-333967.11
-330267.43
-334063.95
-327509.16
-329653.42
-332603.62
-345139.24
-313687.89
-242508.58
-253409.16
-228605.71
-237723.85
-237658.55
-239964.1
-237357.42
-238912.08
-242672.84
-242105.71
-233652.27
-247229.81
-228678.56
-252784.09
-236723.49
-123260.34
-119809.32
-121995.93
-110779.25
-118482.21
-115553.22
-117832.62
-113922.59
-114980.43
-113287.99
-116438.77
-107940.88
-122689.48
-119179.95
-120517.07
-13796.311
-10070.971
2067.0871
-7006.5766
-1027.3546
-3550.1155
-2578.9615
-2528.0091
-3070.4495
-7678.2277
4252.2176
-9069.3397
-17156.641
7765.5186
-46650.394
94547.173
110117.92
97748.661
110705.72
105798.54
109874.42
107826.89
110446.58
108747.12
105246.71
112572.48
100602.79
98256.172
118783.37
26983.631
186796.01
229640.75
210122.53
217149.46
217825.84
220638.49
222433.77
221287.77
225856.72
215365.6
235153.55
210142.45
204287.44
246388.6
140775.45
306623.13
364170.98
317224.16
349779.01
333694.15
343746.15
339214.54
342720.54
340684.98
333169.59
335034.46
334387.8
311808.95
345453.38
227186.01
440560.72
420850.39
427981.76
417694.19
435622.86
434948.08
438447.48
440327.58
442144.88
438810.98
453137.84
406412
425567.76
457329.64
340397.41
518540.26
556180.87
511135.44
527419.31
508469.14
522767.21
518467.02
517341.05
514925.08
507917.01
513686.01
521249.56
476077.02
556222.7
329960.16
617877.44
710823.67
638955.21
675204.86
695589.41
687284.85
693184.81
718714.8
705377.03
727246.61
685639.08
673853.98
690040.3
670325.77
624909.22
734005.06
603909.24
566018.25
570927.43
591748.8
628548.22
605049.57
579850.63
560785.01
557057.24
571608.72
574190.05
576013.24
624244.81
570340.21
565237.54
530552.23
620824.47
639531.11
657750.9
710847.86
684027.07
637921.07
725290.65
711578.09
689157.06
655371.24
635521.1
604272.19
526551.14
447502.03
442264.09
481522.89
489550.24
504639.99
521774.61
532154.13
545551.21
556646.68
536051.33
527886.26
498879.82
507490.27
504076.68
507681.23
364508.56
403827.3
403200.01
427951.79
453619.77
438810.27
456773.84
451811.61
438949.08
456905.58
442002.96
449665.87
435820.95
399120.44
406573.27
380442.14
419244.96
424114.52
427924.59
435216.69
444304.68
444931.36
447405.75
447065.06
438130.67
438750.43
429920.95
418346.67
412880.8
394528.88
397436.23
423811.47
417103.15
440015.72
442184.4
448810.32
456770.8
455196.99
457701.03
459098.57
446941.44
440776.09
424078.02
414253.02
405522.13
394643.75
405191.74
410265.08
423949.7
427903.94
436788.87
434545.72
436613
437026.81
430591.53
429970.03
421866.04
413974.17
406258.61
390616.15
394253.52
412013.37
413736.7
422172.94
424713.42
431771.14
433734.47
435003.41
434960.44
431795.08
424782.08
422318.11
413739.72
403306.82
404363.34
399980.85
403468.68
411646.1
414939.41
423199.27
424438.91
426828.77
427995.01
426421.83
423904.22
420694.96
415991.03
409352.99
402520.19
395467.52
396097.59
407740.06
408653.75
415179.87
415269.87
422121.86
419365.6
422398.36
421577.63
417498.02
415816.66
410598.83
407808.07
401822.12
398202.83
400421.42
401061.42
405911.67
406789.11
411353.28
411989.1
414677.53
414288.7
412996.44
414097.08
410106.32
409673.13
405462.1
401794.65
400475.16
397040.67
403181.71
403498.19
408023.38
408717.58
412360.37
411145.33
414204.56
414235.84
411895.71
412731.21
410716.81
407663.9
405920.92
405329.98
399620.24
398558.68
401956.87
402126.33
404360.76
404323.29
406600.16
407395.97
407619.88
407482.97
407017.92
404859.75
404592.67
401656.03
402735.62
398597.73
399035.57
398217.75
401349.29
401424.24
403996.23
403480.39
405094.11
405566.22
405231.07
404609.2
405301.84
403088.15
403318.81
402849.78
396353.82
395752.17
398946.43
397192.79
399622.63
399480.15
399820.2
401184.14
401310.34
400757
401088.49
401150.22
400250.66
399666.58
401982.32
395450.68
394547.76
395035.93
396263.81
397063.46
397032.99
397038.53
398581.84
398938.58
399104.79
399683.01
399630.95
398790.69
400111.26
400127.65
392666.77
392283.61
394889.52
392546.53
393655.14
393390.98
396198.48
394383.29
394489.92
394738.63
393815.17
395251.72
393272.13
394083.89
395098.77
391657.51
389462.87
391171.94
389951.82
391936.43
392189.03
391291.43
392403.02
392628.43
392818.27
393480.34
394591.42
394794.28
394448.13
398085.51
388776.83
388274.71
388418.77
387461.98
388594.46
388467.09
389366.7
389148.93
388949.21
389617.77
388618.48
389863.48
387598.82
389810.54
390289.75
384360.1
384119.49
385711.05
385459.3
385300.1
385272.41
384429.6
385877.35
385308.38
386163.82
385821.13
387341.93
386886.98
388925.71
390103.11
382127.15
380755.38
381802.93
380182.92
382099.49
381718.25
382826.73
382194.53
382899.28
383186.7
381435.12
384456.45
382324.35
384824.97
384782.74
378334.92
377648.49
378155.66
377625.13
377492.68
377199.64
378128.55
378742.63
377621.09
378520.47
378206.49
380037.99
378421
380912.01
381442.68
372281.06
372944.01
373530.06
372825.61
373743.55
373150.17
374013.48
373338.96
374143.05
374484.75
374718.29
376412.64
375688.47
375988.22
378605.08
369673.23
368013.05
368788.89
368581.91
368687.13
368760.01
369229.65
369178.62
368366.85
370058.13
368686.73
370347.24
369145.76
371913.74
372737.33
363018.78
363341.31
363763.29
363316.36
363766.2
363973.03
363773.73
363952.06
364204.21
364886.93
363624.16
366760.08
365808.3
366994.3
367779.7
358250.16
357841.49
357916.49
358039.67
357857.1
357523.39
358657.83
358293.15
358325.07
359223.9
357617.37
360057.47
359427.22
360663.1
362358.93
353591.21
351312.92
352441.97
351265.15
352198.31
352408.48
352593.08
352586.91
352692.25
353581.67
354011.08
354954.78
353394.53
356745.64
356384.93
346038.69
345490.9
345726.2
346338.34
345679.99
346853.63
346317.52
346768.22
346448.02
347067.46
346592.99
349184.81
346884.13
349048.47
351014.36
341711.95
339118.57
339706.47
339422.81
340448.27
340380.36
340006.58
340346.88
340625.75
340977.53
340969.06
341758.17
341766.02
344645.66
343914.51
333740.79
333743.57
334361.05
333562.11
333234.51
334073.27
333698.48
334272.32
333955.87
334755.27
334149.73
336169.54
334774.59
336573.04
338589.31
330008
326434.93
327389.24
327760.77
327704.1
327464.35
327695.15
327865.62
327736.47
328464.98
327647.44
329987
328578.25
331320.32
332058.25
322549.22
320972.89
321332.88
321198.8
320785.26
322180.3
320926.99
321638.66
320426.52
322194.03
321525.23
323317.41
322316.91
324297.83
325237.42
317657.58
314351.37
315564.39
315105.57
314955.12
315545.5
314910.32
315383.77
314910.9
315987.52
315175.4
317241.15
316198.91
318443.48
319169.37
311256.16
308683.69
309303.2
309068.74
308892.67
309402.94
308775
309271.65
308900
309772.7
309163.36
310907.19
309999.26
312019.83
312616.51
305678.18
302720.34
303689.39
303252.32
303033.99
303433.52
303054.99
303443.56
302922.24
303857.46
303098.89
304965.96
304090.05
306107.66
306874.93
299370.05
297464.73
297876.12
297465.54
297372.74
297834.24
297209.76
297602.01
297271
297907.75
297466.17
298902.48
298078.56
300055.82
300107.25
293789.93
292301.18
292264.42
293121.95
291516.28
292366.33
291821.97
291987.63
291692.71
292520.03
291503.99
293378.19
292548.21
293971.53
295560.88
289748.29
286408.81
287047.25
286726.17
286818.13
286665.21
286526.64
286662.56
286258.33
286376.3
286193.79
287907.11
286779.62
288589.7
288940.67
283570.39
281589.78
281765.36
281951.04
280974.92
281856.42
280923.73
281593.04
280780.7
281660.09
280792.07
282423.61
281512.09
282753.27
283564.98
279106.67
276011.17
276922.43
276470.48
276237.97
276467.02
276006.43
276236.92
275636.63
276422.86
275485.24
277199.76
275921.33
277352.3
277878.2
273475.96
271141.2
271719.16
271493.07
271018.8
271498.68
270859.57
271129.95
270589.41
271222.23
270293.65
271735.8
270730.98
271837.86
272451.35
268483.33
265840.02
266641.51
266228.03
265959.13
266169.38
265675.5
265891.98
265282.19
265981.2
264925.26
266442.92
265265.14
266260.61
266828.37
263009.68
260729.42
261363.78
261120.64
260733.66
261057.16
260554.56
260640.53
260142.83
260664.36
259714.52
261074.39
259906.14
260726.9
261304.15
257680.22
255312.12
256064.8
255699.75
255396.4
255692.1
255126.65
255261.33
254682.12
255246.71
254211.38
255508.24
254306.86
255036.98
255590.65
251994.23
249866.75
250508.01
250182.35
249909.75
250169.7
249657.36
249662.13
249175.07
249608
248607.97
249831.96
248634.63
249262.67
249768.17
246265.55
244127.52
244804.75
244442.47
244142.9
244465.8
243872.56
243898.34
243391.84
243769.51
242813.29
243935.97
242765.54
243302.08
243769.43
240226.89
238224.79
238875.43
238446.15
238208.77
238488.9
237923.37
237901.1
237427.59
237748.96
236831.22
237841.69
236735.5
237165.63
237647.93
234055.8
232116.04
232709.94
232292.63
232021.58
232340.09
231742.17
231701.99
231237.96
231506.87
230610
231541.22