/*--------------------------------*- C++ -*----------------------------------*\
  =========                 |
  \\      /  F ield         | OpenFOAM: The Open Source CFD Toolbox
   \\    /   O peration     | Website:  https://openfoam.org
    \\  /    A nd           | Version:  6
     \\/     M anipulation  |
\*---------------------------------------------------------------------------*/
FoamFile
{
    version     2.0;
    format      ascii;
    class       pointScalarField;
    location    "0.92";
    object      p;
}
// * * * * * * * * * * * * * * * * * * * * * * * * * * * * * * * * * * * * * //

dimensions      [1 -1 -2 0 0 0 0];

internalField   nonuniform List<scalar> 
28033
(
2125841.7
-3112518.4
9790.3368
6399.3379
3876781.2
-4452108.7
7061.945
4735.2616
1757603.3
1571335.3
1356959.7
1098651.4
827069.78
564728.91
295417.71
-8212.4248
-309619.93
-591032.23
-925092.92
-1106585.4
-1514508.6
-1798691.3
-1822649.5
-7365.5288
-2615.2493
-3559.2344
-677.69785
-232.32354
1838.7318
3628.4049
5786.0978
7684.1323
9695.5896
11919.343
12982.487
14413.624
15070.099
13699.439
586273.78
622178.99
576392.89
610560.99
599692.46
615371.16
618177.57
620355.07
619808.48
621513.56
616898.41
611444.16
609329.94
603212.03
597015.54
588007.92
583834.07
574394.24
567246.23
558217.77
550635.35
540872.72
533370.21
523675.52
514160.42
505089.72
495850.52
485698.99
476041.22
465968.76
456268.42
445363.44
435526.09
425625.4
413947.1
404327.08
393602.02
384793.75
372497.41
363201.46
351785.58
341364.76
330734.35
321044.11
310462.79
300889.91
290825.99
281498.21
271770.54
262902.99
253612.42
245069.2
236416.58
228186.44
220108.52
212315.17
204748.05
197398.95
190276.15
183412.97
176706.29
170178.75
163785.94
157817.06
151652.89
145985.49
141039.4
135064.51
128756.05
123107.23
117216
111689.19
105870.9
100482.1
94549.036
89378.147
83417.736
78485.168
72535.802
67874.952
62257.751
57707.072
52529.54
47845.206
43278.957
38977.126
35172.615
31590.217
27311.401
24545.925
21903.843
17457.302
17727.684
16121.152
13769.382
-502186.57
-423428.8
-527165.75
-471785.88
-550179.2
-539547.86
-556384.22
-548936.14
-563046.48
-551535.79
-558130.73
-549267.13
-547947.3
-543398.28
-537838.28
-532039.12
-525553.68
-517895.75
-512001.08
-504077.42
-495445.8
-490304.99
-479057.25
-474017.62
-463939.12
-455786.01
-448043.96
-437685.44
-430392.05
-418799.58
-410298.03
-400163.61
-390346.43
-381280.42
-371520.32
-362966.08
-351088.95
-342786.31
-331544.59
-322883.99
-312559.16
-303292.59
-293441.29
-284249.13
-274647.81
-265634.11
-256405.02
-247553.86
-238756.15
-230167.76
-221752.32
-213529.71
-205490.31
-197692.18
-190041.44
-182659.81
-175445.48
-168451.82
-161648.45
-155054.46
-148609.99
-142366.7
-136257.21
-130270.68
-124411.32
-118615.94
-113042.53
-107504.88
-102408.51
-96297.578
-91249.51
-85618.518
-80581.999
-75178.419
-70134.471
-65016.372
-59974.604
-55194.172
-50345.456
-45810.651
-41301.44
-37065.483
-32841.08
-29057.337
-25186.064
-21732.49
-18340.341
-15326.479
-12198.275
-9721.9585
-7281.8699
-4870.6011
-3100.5601
-2444.5291
-559.54218
3223265.6
3027495.9
2219318.2
2237058.9
1565586.3
936814.26
594892.56
-46091.123
-529338.58
-1163413.6
-1607928.4
-2217132.4
-2811958.7
-3298394
-3503045.9
-928176.49
-666039.75
-280219.56
-663515.22
-531771.4
-580565.75
-561503.62
-597700.37
-562971.03
-587951.31
-594581.08
-564667.31
-588481.84
-555873.09
-579411
-559819.23
-552299.04
-539562.84
-532992.49
-526797.49
-515211.53
-502842.19
-503184.86
-493300.03
-484698.58
-478820.95
-460152.08
-461525.1
-440453.94
-439501.56
-429048.8
-419560.7
-409366.82
-400637.06
-391300.48
-373679.35
-369492.07
-359391.18
-348983.71
-338720.52
-328657.91
-318491.44
-308494.45
-298455.99
-288684.68
-278994.58
-269354.87
-259905.5
-250570.98
-241500.05
-232610.86
-223955.38
-215545.75
-207370.29
-199448.44
-191699.22
-184297.37
-177014.69
-170009.5
-163229.11
-156598.08
-150202.43
-143929.77
-137840.21
-131820.86
-125945.35
-120479.66
-114963.08
-107297.46
-103213.25
-97891.906
-92309.592
-86830.125
-81451.95
-76058.336
-70769.376
-65542.522
-60497.239
-55457.579
-50568.959
-45750.869
-41179.803
-36591.633
-32428.751
-28222.95
-24412.724
-20577.916
-17255.722
-13830.569
-10933.291
-8148.5797
-5704.7197
-4227.7447
-2628.8596
-2089.3491
16007.975
16416.018
13738.841
14457.045
10735.253
10947.354
7575.955
5973.8775
3304.9665
817.56112
991.61209
-2662.9542
-1532.349
-5919.2274
-3779.5112
21356.07
17553.835
17649.912
20039.265
21900.134
24958.287
27989.229
31460.687
34824.354
38944.918
42797.284
46803.577
51377.186
56090.771
60982.041
65989.165
71271.954
76533.223
82028.256
87617.389
93235.6
99039.921
104870.95
110644.43
116500.01
122332.61
126167.12
136196.24
140226.28
146844.56
152951.4
159482.26
165861.94
172554.44
179302.27
186248.1
193423.28
200711.35
208299.56
216049.2
224058.33
232242.49
240748.42
249351.37
258293.39
267354.67
276683.76
286145.91
295860.14
305611.98
315709.65
325590.85
336101.98
346698.82
356505.82
367377.17
376902.06
383555.86
402102.19
408671.93
416203.2
435801.32
439866.51
452126.94
456284.06
477087.98
474695.67
497335.4
501028.34
513953.22
521169.5
526522.44
545525.59
548234.06
554625.03
569618.29
571442.76
584734.74
586935.61
600588.39
612925.26
604966.76
615370.59
624465.03
629434.09
625344.11
636020.04
628906.78
625286.02
615387.25
609555.11
623211.72
611349
569555.15
697408.29
1556928.9
1672111.3
1763732.6
1826527.2
1863842.3
1913088.4
1912922.9
1935522.1
1915345.1
1877317
1903735.5
1792962
1737820.7
1818737.1
1490213.2
-2452381.8
-3112010.4
-3107555.8
-3363066.3
-3305167.4
-3160038.5
-3634981.9
-3891092.6
-3638140.4
-3646530.8
-3494887.3
-3355663.7
-3146733.2
-3107496.6
-2940004.1
5641.6071
5523.1173
5992.4664
6159.3305
7010.7391
7423.6961
7578.2588
7674.4133
7677.8319
7504.0401
7349.1434
6695.8978
6421.1873
6249.1058
6304.3574
3877.0498
6412.9918
6006.4159
5661.7225
5046.5868
5064.6329
4688.1764
4810.1574
4996.951
5122.5498
5862.755
6227.7424
6363.7885
8952.348
4306.8217
566238.32
576513.39
521101.72
526487.9
537494.81
545655.51
550248.12
555428.86
557545.54
557147.53
553905.94
556193.01
549054.67
545638.96
538054.92
537145.28
527247.69
522720.88
513686.78
508336.63
500337.62
494098.08
485049.15
477028.06
468287.05
461412.73
451478.66
442868.05
433963.14
425276.49
414578.96
405889.57
397724.46
387322.94
377901.66
367801.04
358556.14
347517.38
338335.68
329297.87
319831.6
310008.16
300838.25
291073.76
281755.61
272764.7
263494.86
254905.69
246049.88
237737.21
229361.34
221416.39
213517.64
205952.25
198557.41
191407.81
184462.88
177727.81
171231.03
164895.64
158751.38
152726.13
146995.74
141385.83
135486.34
130235.38
124055.64
119028.55
113904.4
109030.74
104002.04
99196.213
94128.973
89387.733
84365.29
79723.925
74806.714
70341.057
65428.526
61337.844
56620.291
52454.941
48333.66
44452.508
40436.661
36736.341
33291.745
29576.688
26518.965
23909.965
20172.337
18015.436
15868.594
10810.418
6383.1962
523257.17
481271.14
433920.13
449763.38
452598.09
459113.58
463988.09
469910.67
472155.7
474964.16
473942.81
473869.94
470192.04
469471.75
464281.33
460333.51
454530.39
451090.06
444231.24
439094.97
432318.74
424977.85
418753.47
411990.7
405254.38
397066.84
390246.26
382770.35
374712.36
366729.2
359095.59
351099.84
342213.2
333844.41
325599.64
317049.1
308345.97
299970.92
291570.49
282885.24
274197.48
266431.69
257026.76
249062.51
240687.8
232862.39
224806.22
217337.77
209587.64
202464.86
195155.58
188340.8
181514.39
175031.4
168686.62
162561.07
156628.11
150915.53
145350.4
139994.65
134779.27
129747.45
124962.62
120174.58
115596.82
112173.15
108724.97
104061.22
100816.25
96243.677
92010.373
88023.542
83452.751
79489.764
74851.338
71301.131
66468.698
63191.697
58440.265
55338.211
50878.053
47411.155
43885.244
39419.398
35773.438
32471.716
28873.512
26253.558
23340.149
20287.458
17630.556
15224.462
11610.235
8238.9547
2283.9374
402244.21
407562.83
358200.19
376825.56
372313.14
382644.44
388461.22
394692.74
395656.89
398892.27
398284.27
399687.77
396884.05
395613.88
391534.15
390127.63
384648.93
381571.17
375750
372169.32
366195.27
361977.9
356066.97
350791.7
343827.72
338652.56
331929.8
325312.31
318709.79
312130.45
304902.48
297781.24
290837.99
283669.17
276512.25
268918.14
262214.52
255101.02
247800.25
240356.91
232601.74
225112.46
218305.9
211259.62
204332.89
197343.5
190501.76
183844.25
177288.1
170975.05
164723.72
158793.73
152898.16
147319.82
141833.46
136573.92
131490.81
126582.49
121818
117249.12
112811.01
108506.64
104387.94
100133.19
96541.802
93112.751
90535.978
86509.088
83363.823
80534.167
77231.794
73758.949
70212.601
66815.719
63448.72
60046.061
56856.158
53424.501
50373.807
47084.837
43886.091
41135.579
37613.134
34755.593
31918.193
28917.42
25828.701
23637.344
20868.427
18508.708
16249.286
12979.329
10779
5904.798
3240.49
328157.68
327006.82
278940.87
297971.03
290081.35
302855.55
305741.76
310731.11
312781.94
317551.81
316812.95
319106.32
316026.17
317664.49
313564.27
313148.18
308393.29
307674.17
302462.03
300058.03
294972.93
291474.64
286533.92
282053.07
277538.31
272652.14
267525.75
262733.45
257234.45
251789.14
246342.92
240655.12
234923.95
228897.08
223549.5
216687.03
211103.65
203322.73
197249.02
191053.61
185860.19
179902.41
173837.92
167778.17
162088.75
156463.19
150960.41
145681.46
140427.28
135405
130452.13
125737.3
121091.04
116678.6
112350.49
108243.94
104231.27
100399.08
96683.941
93129.333
89701.867
86359.454
83157.196
80118.612
77192.683
74141.336
71980.276
69006.554
65644.82
63323.899
60801.261
57886.985
55449.126
52691.244
50123.88
47544.093
45020.287
42607.425
40070.838
37675.774
35322.342
33027.693
30542.635
28128.318
25877.974
24393.896
22117.25
20143.208
17995.098
16085.834
13612.309
11639.4
8779.4057
6019.0148
2072.7182
261035.92
240722.77
204063.71
222522.49
220272.15
227690.87
230929.98
235446.18
236284.05
239232.61
239355.46
240021.64
239412.14
239499.87
236745.02
236878.92
232945.46
232595.01
228184.18
227362.3
223280.39
221596.32
217208.29
215201.83
210854.74
207774.18
203700.83
199956.5
195738.07
192011.86
187564.17
183427.82
178943.86
174816.32
170233.16
165730.67
163492.73
161845.98
157388.36
156314.41
150412.49
145878.53
141536.67
137019.24
132578.52
128047.98
123599.99
119243.83
115006.63
110870.57
106839.17
103000.58
99201.068
95597.846
92091.598
88733.566
85469.337
82361.689
79352.353
76452.571
73698.96
70895.763
68473.708
65914.991
63199.271
61419.38
58725.733
56743.522
54209.128
52134.612
50097.709
47507.031
44159.258
41912.158
39588.772
37617.262
35789.193
33930.289
32071.375
30413.135
28432.99
26961.075
24971.732
23658.91
21661.074
20438.802
18386.887
17118.275
15155.589
13564.451
11828.022
10054.757
8280.3695
5487.0466
2838.7641
163359.96
163316.32
130965.07
149940.45
141976.54
147512.53
151142.17
154158.71
153472.62
158314.42
155992.72
158922.79
156436.4
158212.22
155304.08
156503.33
153283.51
154340.11
150420.14
150853.81
147162.81
146454.38
143518.39
142313.63
139334.15
137789.83
135074.45
133072.15
130453.85
127932
125242.82
122551.62
119860.56
116970.29
113927.34
111518.47
109731.16
108509.31
107700.22
105701.66
104498.18
101210.1
97890.462
94887.163
91775.474
88697.739
85648.504
82767.528
79871.92
77113.077
74412.825
71830.427
69281.997
66884.211
64537.358
62281.604
60124.983
58053.268
56037.23
54122.678
52253.537
50533.032
48751.658
47062.288
45696.852
43791.284
42649.722
41116.087
39696.005
38372.961
36837.508
35151.642
33679.932
31883.683
29957.788
28786.985
27416.783
26212.189
24911.362
23877.625
22291.477
21544.829
19787.089
19098.498
17343.157
16756.511
14917.507
14279.064
12607.053
11900.133
10489.298
9197.2436
7629.0582
5667.7365
4214.2737
87108.267
75894.318
67209.182
76580.76
70044.657
74080.322
76204.234
75917.851
76292.607
76645.904
76984.92
76350.451
76311.383
76807.724
74927.083
76309.003
73758.399
75073.464
72436.478
74182.052
71372.988
72873.02
70504.882
71162.967
69202.602
69376.175
67597.145
67327.102
65698.624
65178.389
63791.27
62950.457
61577.367
60474.157
59276.787
58144.103
56650.726
56213.763
54172.024
51684.161
50764.477
49501.085
47854.093
46815.551
45502.326
44262.611
42915.408
41771.769
40463.532
39332.784
38146.975
37059.095
35954.602
34955.157
33936.072
32993.967
32079.65
31210.307
30344.017
29551.933
28789.77
27989.666
27295.658
26656.26
25820.284
25341.782
24581.755
23919.415
23277.099
22675.974
21998.313
21426.57
20482.692
20440.218
19935.997
19390.856
18574.047
17951.519
17273.654
16550.463
15816.251
15250.471
14242.745
13939.235
12728.755
12572.644
11314.226
11244.265
10030.857
9629.1546
8409.8369
7679.3433
7044.7642
6052.584
5427.2139
-9540.8016
-3264.871
-10136.657
-1832.9936
-4374.2133
-2547.9873
-3631.0261
-2614.3659
-6771.7746
-3511.1481
-7105.9389
-5712.0491
-7237.9908
-6289.6148
-7908.3406
-5870.9765
-7947.3387
-5280.4617
-7259.38
-4906.3812
-6315.4555
-3936.0976
-5534.9528
-3459.2327
-4116.7631
-2596.4451
-2659.1035
-1555.1533
-1310.4611
-483.00365
-143.54354
466.63139
918.93297
1552.3476
1990.9883
2267.8911
3217.366
3416.8272
4061.0983
3982.1817
4492.4345
5102.354
5086.097
5427.4792
5723.1928
5892.3259
6148.9185
6448.0907
6653.1441
6907.5879
7131.6132
7377.7803
7574.6651
7800.8337
8010.1626
8202.4989
8398.2643
8597.7802
8746.3244
8968.9268
9075.8657
9280.5532
9437.9773
9540.5059
9781.4523
9829.8883
10008.375
10169.315
10243.397
10397.653
10390.899
10344.503
10216.345
10391.185
10436.873
10461.564
10291.164
10287.581
10092.619
10014.183
9854.4397
9566.5249
9501.7909
9122.055
8887.404
8738.889
8123.3109
8340.6723
7347.6454
7840.6674
7175.1342
7605.0025
7197.7056
6720.2408
6844.1909
-81541.055
-85323.675
-71049.761
-68521.988
-70207.554
-75051.804
-74011.854
-79699.213
-79965.882
-83268.19
-83457.255
-85349.487
-85439.184
-85221.959
-85840.076
-84312.609
-85158.694
-82278.743
-83900.177
-79948.967
-81065.271
-77969.964
-78204.822
-74378.948
-74374.634
-70803.338
-70345.572
-67066.139
-65986.338
-63175.522
-61643.978
-59105.259
-57254.294
-54918.85
-53072.047
-50576.821
-48907.827
-46544.751
-44556.392
-42420.613
-40554.987
-38469.02
-36782.913
-34708.994
-32915.721
-31137.396
-29457.921
-27698.531
-26153.753
-24550.929
-23032.05
-21536.935
-20151.703
-18735.054
-17417.224
-16147.697
-14897.945
-13701.753
-12569.601
-11458.592
-10384.168
-9374.2008
-8404.2024
-7413.8196
-6604.6016
-5685.4335
-4828.9883
-4058.9288
-3259.779
-2471.9833
-1807.3517
-1012.5787
-408.43163
264.44317
594.48072
1000.0137
1616.5182
1993.3998
2495.7114
2820.8557
3204.8005
3460.232
3775.0532
3997.3843
4129.7488
4622.4697
4351.0592
5310.0347
4681.2565
5835.4904
5203.4185
5754.4588
5629.8319
6600.662
7939.5246
-172528.1
-172853.94
-141315.94
-145763.29
-149499.86
-152291.45
-156994.12
-159073.48
-165593.22
-165802.3
-168663.17
-169813.03
-170320.05
-169548.55
-170229
-167484.88
-167440.23
-164308.43
-163445.63
-159646.5
-158914.88
-152258.16
-150184.98
-145745.92
-143920.52
-139701.58
-137113.63
-132936.2
-129928.99
-125957.65
-122684.52
-118725.95
-115332.78
-111478.85
-107690.28
-104183.35
-100260.16
-96743.232
-92975.821
-89496.836
-85957.111
-82417.709
-78970.27
-75665.935
-72297.793
-69100.685
-65915.145
-62771.437
-59803.524
-56848.354
-53992.004
-51251.542
-48596.641
-46004.292
-43542.684
-41163.228
-38851.666
-36638.894
-34549.621
-32445.606
-30513.62
-28612.813
-26751.265
-25030.228
-23320.517
-21641.165
-20058.144
-18551.06
-17029.391
-15629.1
-14217.282
-12877.619
-11590.064
-9898.3054
-7623.8719
-6612.4087
-5605.8839
-4745.7858
-3577.6614
-3144.0545
-1754.2469
-1703.8036
-295.02814
-266.97709
805.21459
1214.4877
1681.1617
2798.7684
2569.6547
4299.7073
3938.7159
5182.4967
5970.9507
7312.5901
8816.222
-265066.8
-210424.21
-189761.1
-195360.62
-202181.91
-206538.08
-212777.24
-218366.73
-224271.39
-226333.31
-228919.67
-231145.2
-230926.03
-230303.19
-230561.5
-226772.29
-227631.73
-222243.59
-222238.62
-218045.61
-217976.74
-216779.03
-216115.78
-212277.99
-210487.09
-204034.83
-201407.72
-194917.63
-191342.07
-185432.05
-181154.43
-175668.69
-171092.08
-165583.1
-160751.35
-155329.36
-150470.19
-145198.84
-140259.57
-135156.66
-130312.83
-125235.96
-120551.94
-115686.43
-111046.81
-106421.68
-102008.82
-97576.322
-93373.446
-89195.802
-85188.256
-81272.476
-77501.87
-73825.124
-70295.495
-66877.056
-63562.745
-60393.968
-57305.024
-54330.958
-51467.475
-48668.539
-46013.084
-43396.959
-40957.016
-38525.35
-36185.403
-33877.022
-31650.039
-29444.405
-27327.317
-25379.465
-23228.603
-21190.781
-19430.585
-17044.244
-14710.952
-13117.999
-11481.732
-9975.5825
-8736.0166
-7246.7595
-6143.3563
-4882.0749
-3727.2277
-2784.2314
-1527.8068
-779.15508
459.47288
1470.3128
2406.2594
4031.4779
5284.8208
7162.6208
10684.346
-313850.25
-297948.33
-269472.47
-265521.01
-273554.38
-277982.65
-288448.74
-293941.39
-298464.81
-303359.97
-305960.19
-305791.42
-307295.2
-305110.54
-304216.11
-301521.54
-298822.57
-294737.28
-292538.26
-286772.45
-285424.99
-278863.52
-280172.54
-277155.47
-272965.55
-267314.82
-262262.65
-255597.02
-250174.37
-243271.9
-237709.78
-230676.73
-224807.32
-218149.55
-211705.84
-205386.01
-198776.26
-192377.73
-185871.52
-179574.59
-173103.77
-166975.96
-160748.25
-154728.58
-148746.77
-142886.56
-137192.02
-131535.7
-126082.17
-120760.68
-115560.94
-110533.31
-105666.11
-100933.51
-96372.758
-91965.361
-87711.217
-83590.599
-79642.79
-75803.151
-72086.456
-68532.763
-65026.473
-61654.458
-58441.668
-55243.325
-52134.278
-49197.929
-46238.028
-43352.843
-40656.57
-37824.395
-35166.636
-32605.698
-30096.683
-28232.536
-25562.608
-23144.498
-20831.956
-18740.893
-16545.292
-14614.288
-12619.36
-10856.157
-8979.342
-7522.5147
-5581.3254
-4453.2049
-2671.043
-1182.4833
-130.51999
2624.2374
4210.5383
8138.482
11975.753
-435313.6
-393190.48
-326963.92
-352012.84
-349051.26
-367533.85
-370954.15
-380901.79
-384870.98
-389739.34
-390539.44
-392420.34
-390405.23
-389881.06
-386221
-382810.41
-379369.76
-373438.12
-370125.86
-363436.87
-359376.88
-352678.43
-345928.83
-337492.57
-332870.68
-324761.29
-319975.86
-311114.51
-305389.24
-297042.39
-290397.5
-282199.62
-275477.51
-267545.2
-260307.31
-252571.33
-244950.19
-237345.47
-229962.29
-222312.46
-215074.48
-207619.67
-200401.6
-193192.37
-186157.63
-179197.93
-172450.15
-165742.66
-159288.06
-152938.59
-146749.74
-140749.43
-134913.48
-129237.31
-123740.61
-118426.98
-113252.89
-108266.42
-103435.48
-98731.334
-94208.807
-89784.145
-85485.801
-81295.438
-77270.876
-73280.101
-69463.409
-65698.873
-61984.639
-58322.596
-54743.884
-51269.122
-47847.017
-44491.998
-41177.533
-38069.374
-34942.775
-31948.789
-28998.856
-26167.265
-23482.658
-20846.505
-18354.742
-15967.774
-13704.253
-11496.88
-9422.4688
-7555.93
-5277.1537
-3863.3512
-1367.0689
642.98446
2828.8572
6342.7604
10494.706
-468420.74
-448780.75
-371028.8
-414841.22
-418644.27
-436003.78
-440088.78
-453344.76
-456183.77
-458526.6
-462351.72
-459859.73
-459412.24
-456584.04
-451678.98
-448114.08
-442741.45
-436083.89
-431822.2
-423765.56
-418118.26
-411137.14
-404377.86
-398082.49
-390471.19
-382748.79
-375303.15
-366514.14
-359765.62
-350353.06
-342831.51
-333714.78
-325237.38
-316490.77
-307959.2
-299668.6
-290747.18
-282507.09
-273574.76
-265233.95
-256640.12
-248235.86
-239946.94
-231710.58
-223648.45
-215655.94
-207827.96
-200133.99
-192604.88
-185241.92
-178043.93
-171045.18
-164226.53
-157595.35
-151162.15
-144924.21
-138868.72
-133006.57
-127316.2
-121816.19
-116457.1
-111270.98
-106206.63
-101252.67
-96388.313
-91573.305
-86856.119
-82443.333
-78066.56
-73571.339
-69409.822
-65109.636
-60862.692
-56843.954
-52678.024
-48741.898
-44818.51
-41061.756
-37340.332
-33871.919
-30403.876
-27159.781
-23982.708
-21054.046
-18091.223
-15495.834
-12839.318
-10434.425
-8002.3418
-6111.2415
-3180.8092
-1857.9964
1224.5763
4653.3265
9995.0795
-667885.54
-419109.99
-462556.11
-472347.21
-494784.82
-492026
-511152.78
-517695.93
-518108.47
-523132.61
-521909.45
-523005.81
-517968.61
-514494.88
-509309.76
-503641.37
-499758.68
-490618.82
-486092.06
-476127.45
-470238.51
-460768.94
-455980.92
-445930.09
-440699.37
-429442.21
-422957.15
-411900.83
-405925.82
-395340.18
-387516.73
-377202.48
-368161
-357868.54
-347891.95
-339571.55
-330350.67
-320835.71
-311349.64
-302075.76
-292603.01
-283415.82
-274170.34
-265070.08
-256111.11
-247237.18
-238572.52
-230043.33
-221669.28
-213513.81
-205498.79
-197717.75
-190111.41
-182709.01
-175522.81
-168533.4
-161737.14
-155149.09
-148753.53
-142520.65
-136476.56
-130602.63
-124855.16
-119249.79
-113750.47
-108199.78
-102713.17
-97360.915
-92536.169
-87489.785
-82625.744
-77470.199
-72693.173
-67826.274
-63066.23
-58401.022
-53965.684
-49429.037
-45185.458
-40949.447
-36925.14
-32992.968
-29332.518
-25674.337
-22355.202
-19144.844
-16041.188
-13279.73
-10598.703
-8203.4128
-5698.7043
-4461.3422
-1611.1911
702.42417
5923.3552
1252628.4
1201026.1
1177988.2
1206584.6
1212733.8
1219965.6
1260806.1
1235117.7
1225343.2
1221638.3
1215197.6
1177847.4
1167962.2
1225232.3
1068682.3
1109380.1
1126999.9
1080302.7
1105633
1118278.8
1135495.8
1105691.8
1145059.1
1134075.9
1142790.2
1120496.3
1114729.1
1114780.5
1122741.4
974768.29
841295.59
944724.29
851769.42
888371.85
885721.51
879321.09
889783.74
882167.65
890047.41
876901.33
875373.22
881129.59
827928.32
901413.06
842460.25
731627.42
730938.09
734999.95
726361.26
746790.82
742218.11
751576.76
753215.52
745533.53
749043.18
749486.91
725207.19
727008.82
772869.22
568854.85
523273.04
587472.8
522442.86
560388.34
547049.79
563585.08
559028.6
555930.06
561448.51
559584.88
552605.06
551367.5
543153.74
556851.38
500566.23
382619.04
397245.68
377011.22
388152.42
389442.24
390968.89
388708.78
389935.49
392534.47
390217.57
380832.71
395550.44
373822.79
393140.96
378188.98
207255.58
210450.94
214868.79
206795.81
217340.59
219167.41
216456.35
218394.2
213394.96
217625.32
211963.59
201912.69
215895.62
197173.94
206870.76
27816.586
26350.481
18523.093
30532.806
23732.363
27854.905
24458.6
27171.192
20667.766
35077.983
7717.0706
33244.063
43409.902
-374.14922
100122.71
-130290.33
-149951.2
-124934.46
-139127.22
-132949.12
-134198.23
-135823.39
-132683.38
-139217.44
-124886.37
-147533.57
-125285.51
-124746.45
-173274.49
-10254.365
-279934.3
-347707.3
-303676.82
-316908.19
-316575.86
-321018.77
-325585.2
-322847.18
-335212.58
-313415.95
-359050.74
-307860.15
-308793.93
-376714.75
-180274.52
-455439.12
-565329.26
-463932.65
-522458.42
-493831.93
-510041.42
-503618.99
-504482
-509867.91
-485376.89
-502313.73
-493580.34
-460566.99
-532000.59
-297688.94
-677368.51
-647128.6
-652457.73
-633774.95
-662552.8
-663531.93
-669923.12
-676481.65
-680796.24
-668453.72
-708969.94
-619245.62
-655131.31
-733679.75
-468445.59
-759123.95
-878732.34
-752333.93
-802477.9
-762310.62
-793054.45
-781328.5
-785128.47
-775586.78
-770852.36
-779120.69
-784620.63
-715342.05
-878831.54
-404723.72
-937292.97
-1150711.5
-981203.97
-1078394.9
-1102376.1
-1095649.3
-1103219.7
-1159874.1
-1131046.5
-1159238.5
-1092275.4
-1063129.2
-1089792.6
-1067281.6
-955584.5
-989380.64
-910865.81
-810216.31
-815454.23
-851577.79
-917463.03
-874181.91
-845562.29
-807880.75
-802526.74
-819216.98
-826556.91
-824557.92
-936187.07
-831159.86
-941964.11
-883501.76
-1052572.1
-1122160.3
-1169927.8
-1279500.7
-1230268.6
-1153025.9
-1310707.7
-1282014.6
-1237993.1
-1170290.6
-1112484.5
-1062654.1
-872724.87
-646683.71
-658371.44
-747940.29
-773931.26
-809856.64
-836790.04
-863383.76
-889482.28
-920581.45
-871421.91
-851534.33
-796998.7
-797420.12
-788461.68
-797345.04
-543270.04
-636213.02
-614114.83
-682878.33
-724846.17
-702469.1
-741499.33
-735163.22
-711960.81
-744481.62
-713047.24
-722969.48
-699650.91
-610255.67
-645832.05
-548780.29
-633278.91
-639969.75
-661872.01
-682410.23
-697554.49
-705420.97
-712803.32
-711464.79
-694650.4
-694384.17
-675998.78
-644451.95
-633088.57
-593131.1
-596488.5
-661261.76
-640392.31
-694778.81
-701955.9
-718559.67
-734118.04
-732041.23
-736911.09
-735266.09
-715783.12
-699722.17
-667794.06
-634191.62
-630727.8
-576556.82
-609000.24
-625804.75
-653219.48
-664061.87
-684424.99
-683719.14
-687829.13
-688209.01
-676181.06
-671299.99
-656661.79
-633937.97
-616378.36
-579878.06
-578316.79
-627705.97
-627552.97
-658668.25
-661575.35
-678299.52
-683322.49
-686164.71
-685710.27
-678358.43
-663750.75
-654598.76
-634648.83
-604460.58
-610541.32
-585505.41
-601133.88
-619333.13
-630549.42
-651412.57
-654957.02
-663047.46
-666373.08
-663245.44
-659389.47
-650674.06
-637081.77
-623590.51
-600119.66
-584132.16
-575791.81
-605199.52
-610408.28
-631998.86
-631327.17
-648861.09
-644944.21
-651113.9
-648182.04
-640961.45
-634099.27
-623052.82
-611728.08
-596842.68
-587045.23
-578830.24
-588149.7
-600485.17
-606043.63
-617823.71
-620851.79
-627262.81
-627772.09
-625323.38
-625858.76
-616163.72
-611095.41
-600593.74
-587350.78
-580843.75
-568788.15
-587522.83
-591722.46
-606769
-609535.86
-620499.58
-618854.68
-624802.65
-622671.66
-618623.54
-616085.84
-609572.71
-599158.86
-591633.25
-584372.53
-570629.5
-574299.57
-584077.65
-587872
-593882.26
-595350.74
-600910.62
-601508.98
-602113.93
-600708.89
-596672.53
-591465
-586967.9
-578585.82
-574806.28
-564776.72
-570669.27
-573115.87
-582550.8
-584905.47
-593221.9
-592668.85
-597038.32
-595917.77
-595145.41
-589765.08
-589085.07
-579916.41
-577463.93
-571218.89
-557414.72
-561002.52
-568760.51
-570223.95
-575830.58
-576264.05
-578113.81
-581041.34
-580752.83
-578657.24
-577637.2
-574812.24
-570709.81
-566587.37
-565003.3
-552346.07
-554753.29
-559158.76
-563801.73
-566870.85
-569263.06
-572642.24
-572255.14
-574233.15
-574903.86
-571557.04
-571046.99
-562905.65
-564663.12
-560389.38
-543541.89
-546984.34
-553068.28
-553505.75
-557010.59
-557873.07
-563222.88
-559207.26
-558966.1
-558260.98
-556084.11
-555341.63
-548493.62
-548386.41
-545216.4
-539200.7
-539460.61
-544463.04
-543594.38
-549748.93
-551357.1
-552197.78
-554344.54
-554756.53
-555757.6
-553110.15
-554062.46
-551618.47
-546164.95
-549922.76
-531975.91
-532942.77
-536896.71
-536703.31
-539932.83
-541245.79
-543492.99
-541738.24
-542291.18
-541178.53
-539598.19
-538096.56
-537365.35
-532750.47
-532524.78
-522801.39
-524551.51
-528910.85
-531022.54
-532576.82
-533203.38
-532616.36
-536079.8
-535240.57
-536665.53
-532425.99
-535938.32
-531111.05
-534704.24
-530735.01
-516083.72
-517151.6
-520175.55
-520291.43
-523269.96
-524299.43
-527478.32
-524861.54
-527098.1
-524600.96
-523088.72
-524397.36
-520168.29
-520900.87
-517896.07
-509425.34
-509373.05
-513415.18
-512866.92
-515007.82
-514615.71
-517195.36
-518806.41
-517124.32
-518388.94
-517159.68
-518568.57
-515373.74
-516125.73
-513548.36
-497356.31
-501653.07
-503040.67
-504809.26
-506562.08
-507018.5
-508741.97
-508249.75
-509471.94
-508860.15
-507501.73
-508826.33
-504856.85
-502542.44
-505084.72
-493447.49
-492076.9
-495663.04
-496256.06
-498133.43
-498956.07
-500503
-500328.79
-499496.17
-501747.72
-499068.1
-499527.41
-495726.18
-498813.34
-496081.19
-482010.64
-483846.13
-485952.74
-488318.11
-488825.03
-490054.35
-491442.77
-490430.49
-492113.37
-491006.31
-488991.76
-491496.64
-488611.38
-487666.92
-486581.94
-474860.32
-476111.56
-477522.55
-478523.33
-480151.8
-479912.95
-482536.59
-482282.57
-482358.85
-483380.31
-479901.85
-482404.77
-479171.17
-479424.05
-478702.29
-466786.83
-464902.63
-468936.75
-468166.64
-470523.56
-471589.32
-472965.7
-472509.65
-473369.32
-473343.48
-473787.84
-473085.39
-469196.87
-471559.69
-468304.76
-456534.68
-456536.22
-458250.73
-460415.82
-461319.99
-463527.59
-463419.19
-464359.49
-463800.64
-464487.79
-462522.21
-464961.05
-460258.73
-460907.55
-461633.76
-448744.86
-446284.42
-449102.67
-450140.33
-452561.76
-453006.15
-453631.34
-454019.81
-454985.85
-454415.8
-453924.72
-453659.6
-451278.24
-453893.83
-449636.9
-437105.43
-438506.48
-440936.24
-441100.79
-442380.3
-443463.52
-444171.42
-445023.03
-444919.71
-445609.72
-443788.76
-445411.88
-441986.35
-441832.91
-443087.77
-430640.31
-426797.79
-430408.06
-431187.06
-433516.19
-433219.16
-434442.96
-434983.64
-435148.44
-434851.06
-433952.2
-435052.78
-431961.05
-433713.97
-432292.05
-419237.18
-418439.9
-420735.45
-421758.21
-422635.23
-425015.72
-424594.04
-424898.17
-424082.54
-425694.49
-424298.5
-425513.16
-422680.56
-423075.11
-422868.34
-410680.37
-407733.2
-411060.47
-411433.67
-412914.79
-414085.66
-414192.83
-414880.91
-414709.75
-415472.96
-413990.94
-415524.5
-412624.54
-413950.83
-412884.68
-400303.59
-398175.93
-400803.65
-401543.51
-402982.04
-403919.69
-404203.89
-404804
-404816.63
-405391.04
-404269.16
-405354.32
-402953.83
-403798.76
-402713.25
-390259.56
-387990.11
-390785.18
-391124.04
-392537.79
-393382.95
-393992.75
-394485.29
-394419.56
-394985.34
-393723.98
-395222.16
-392762.18
-394137.55
-393179.89
-379373.87
-378281.21
-380750.3
-381030.51
-382245.91
-383492.78
-383409.31
-384502.57
-383906.76
-385279.25
-383544.8
-385192.87
-382427.53
-383981.37
-382154.57
-368668.39
-369018.54
-369616.1
-372491.1
-371413.68
-373005.02
-373072.78
-373641.96
-373787.1
-374027.53
-373503.67
-374335.1
-373140.63
-373220.24
-374348.68
-360894.76
-357514.42
-360219.78
-360153.94
-362320.97
-361933.56
-363366.19
-363046.29
-363757.69
-363102.31
-362832.75
-364544.12
-362147.26
-363922.25
-362737.01
-349417.3
-348109.37
-349770.39
-350861.33
-350869.53
-352372.97
-352091.29
-353144.5
-352779.95
-353493.19
-352650.49
-353875.13
-352328.03
-353098.24
-352899.93
-340623.85
-337361.32
-340037.55
-339920.67
-341211.29
-341537.29
-342155.51
-342457.07
-342454.44
-343189.69
-342238.15
-343928.55
-341776.09
-343295.68
-342649.33
-329799.54
-327654.56
-329701.1
-329953.27
-330669.19
-331457.24
-331710.54
-332077.68
-332268.5
-332717.17
-332002.32
-333193.33
-331748.76
-332996.41
-332652.61
-320293.65
-317396.73
-319770.06
-319500.37
-320605.08
-320878.16
-321359.15
-321710.35
-321786.89
-322454.42
-321607.56
-323138.86
-321527.53
-322925.19
-322496.39
-310101.08
-307646.99
-309621.21
-309556.69
-310396.73
-310807.03
-311294.35
-311412.56
-311722.86
-312120.3
-311582.28
-312909.13
-311501.78
-312824.12
-312600.84
-300527.09
-297658.55
-299803.21
-299400.09
-300337.41
-300676.62
-301028.03
-301267.83