/*--------------------------------*- C++ -*----------------------------------*\
  =========                 |
  \\      /  F ield         | OpenFOAM: The Open Source CFD Toolbox
   \\    /   O peration     | Website:  https://openfoam.org
    \\  /    A nd           | Version:  6
     \\/     M anipulation  |
\*---------------------------------------------------------------------------*/
FoamFile
{
    version     2.0;
    format      ascii;
    class       pointScalarField;
    location    "1.85";
    object      E;
}
// * * * * * * * * * * * * * * * * * * * * * * * * * * * * * * * * * * * * * //

dimensions      [1 -1 -2 0 0 0 0];

internalField   nonuniform List<scalar> 
28033
(
1871.5807
99.909362
32221.093
31407.982
2462.0468
4946.6215
32254.917
33289.625
403.65082
25.411574
-289.26538
469.88398
-77.267638
215.78929
98.684134
189.60851
1.6850507
59.705244
-369.17751
-18.377025
-108.75251
-205.79564
-1050.3775
34111.862
32845.239
32664.262
31931.223
31203.025
31225.139
29918.8
30498.529
30290.981
29992.68
30809.792
30667.909
31321.621
32141.736
33114.582
1852.1404
886.49494
382.50404
218.06317
430.22891
407.57639
476.16627
259.73949
597.10239
267.50584
610.73186
526.99099
558.4243
498.97589
386.78586
208.66313
-45.666465
132.79349
-49.520219
23.964973
104.91648
112.49316
290.38473
506.94465
332.17156
632.50294
416.6547
636.49925
314.77723
425.67558
494.77605
202.21364
64.152858
168.33747
114.64548
474.57803
70.016638
386.49721
228.14577
108.55594
-23.354701
-71.271224
-185.67527
-150.05071
-73.516295
201.6367
320.602
805.04422
953.82303
1427.9607
1564.2383
1900.1149
1990.9474
2172.3757
2241.4417
2367.7793
2460.125
2619.9928
2779.1071
3005.1487
3224.9312
3518.2271
3736.4975
4167.1769
4461.2225
4853.5362
5288.874
5784.1448
6409.1816
7298.95
7917.6013
8801.6023
9527.2415
10480.508
11311.434
12225.109
13052.102
14082.504
14835.376
15811.89
16818.145
17707.512
18895.705
19560.898
20913.412
21710.808
23139.267
23941.028
25602.997
26215.427
28179.336
28558.167
30672.161
31177.515
32391.215
8306.0793
-3761.7235
5500.0055
-850.38081
2615.04
1806.7274
1361.4728
1368.7838
1910.5041
1205.8818
2192.3862
1647.6225
2622.7624
2200.1581
2652.6576
2426.3939
2575.9334
2312.5154
2294.1021
2329.3879
1916.1671
2310.2791
1780.4896
2878.344
2210.5035
3136.367
2437.0271
2957.4242
2321.7444
2517.4619
1777.7723
1780.3758
1351.9222
1230.8423
1028.0965
1182.1773
1089.8875
1189.4549
1077.8378
1494.9652
1432.4887
1705.8108
1749.3501
2023.8754
2076.6104
2409.8497
2552.486
2910.9277
3149.8733
3479.6796
3716.4065
3962.4468
4068.3441
4189.2077
4145.4981
4129.103
4043.7196
3992.8697
3973.5499
4057.5484
4201.2876
4484.9469
4851.3282
5314.5829
5856.3095
6425.4522
7095.839
7822.0762
8650.3621
9176.4494
10122.155
10700.151
11819.564
12424.076
13453.644
14230.535
15036.356
15958.484
16656.081
17521.599
18324.045
19071.221
20034.42
20853.375
21906.425
22878.125
24042.282
25106.745
26333.154
27445.554
28607.953
29642.698
30653.345
31506.832
32117.58
954.6362
580.85735
-228.2791
918.76139
-0.51319166
260.82737
238.61162
32.147358
72.726337
-112.59424
-108.76999
-307.42178
-597.63038
-1252.83
-303.30865
5699.5791
11034.428
-10584.87
4777.3407
-315.18364
-562.06063
1453.7963
1109.7977
1775.7956
2310.6056
1958.7057
1220.2767
3036.2291
461.52244
3067.3553
521.51727
4102.1182
-240.84461
3737.9435
358.07981
2517.3691
3306.7691
1808.9274
3910.7077
1389.0107
3658.1093
2586.1867
2500.0865
3029.8281
797.42919
1029.8675
994.44456
787.74767
1251.3495
1489.2397
3123.9251
1566.8898
3033.0213
2947.7831
3103.9282
3139.2612
3079.6659
3048.8378
3026.6746
3180.0877
3356.5202
3690.637
4018.9114
4368.8591
4608.4894
4745.3644
4715.6341
4573.8141
4298.3547
4044.2728
3799.9237
3690.0535
3756.0829
3978.6668
4424.6886
4944.1647
5618.878
6248.9972
6906.0711
7487.2372
8022.8511
8536.4516
8770.9092
9544.1438
10004.347
10708.43
11181.989
11978.529
12721.754
13444.669
14146.872
14816.751
15473.996
16050.863
16732.155
17377.93
18205.789
19018.41
20059.36
21032.677
22211.951
23260.47
24431.375
25428.15
26475.729
27374.541
28269.183
29194.416
29911.757
31394.319
33300.098
33103.873
31602.599
31050.83
31035.853
29995.113
30326.415
29629.769
31507.82
29519.845
31652.633
30048.557
33863.991
31389.178
34546.488
33630.745
30881.143
31162.172
29425.346
28559.831
27209.632
26056.366
24835.098
23587.049
22465.494
21283.113
20253.136
19321.552
18274.278
17450.852
16584.285
15768.258
14965.241
14148.83
13336.606
12531.067
11708.509
10943.285
10080.917
9588.4939
8598.0551
8093.9403
6562.3637
7054.5733
6097.6184
5694.4348
5110.351
4622.9621
4202.0596
3838.5365
3577.1949
3389.3892
3301.0659
3260.4384
3287.0192
3296.4853
3330.774
3284.5412
3233.8793
3080.8288
2930.3366
2701.2151
2501.4091
2273.62
2110.4716
1900.7685
1857.6753
1662.2256
1627.9929
1446.3123
1467.3464
821.93647
1331.4673
656.73333
495.02457
1267.1744
480.34896
753.71195
679.84544
1225.5358
1413.7086
988.06595
1450.2238
920.51645
1536.0487
1534.2582
1171.6137
165.1932
1513.4862
441.48069
360.91773
917.04219
417.47985
1352.9218
901.95225
850.57593
392.27378
1829.1787
-184.95089
2410.7567
474.58801
146.26186
203.56549
1497.4953
454.63507
-381.14108
1354.5528
2842.4512
-2324.7471
6717.3941
641.18365
1469.0459
790.39721
1382.0124
638.83433
1515.3714
371.73021
1457.7525
923.03073
1259.9583
813.98717
783.17771
666.10447
969.55207
-748.99882
-1503.1772
-1067.1432
-2626.1573
-1304.3597
-1505.9648
-2795.3107
-1679.7875
-1312.8635
-2407.454
-1296.3723
-1444.633
-1728.6437
-1798.617
-2340.5394
-2665.317
32349.527
32304.913
32361.665
32260.955
32256.914
32220.505
32199.433
32175.721
32222.607
32239.291
32325.516
32265.496
32344.83
31931.428
32746.843
33380.791
32957.597
33357.074
33039.947
33332.567
33276.778
33309.428
33304.46
33345.924
33324.176
33414.924
33292.518
33369.67
33105.18
33774.542
3770.7287
-398.90497
352.1551
228.87513
60.880793
419.1584
173.76062
556.73773
119.28875
765.99689
-196.25541
461.70116
-480.32184
315.81759
-719.638
195.41871
-129.14696
309.70209
181.51232
554.87998
489.28509
438.69908
500.11452
-45.872361
8.8512719
-424.04404
-415.55997
-724.50563
-420.2303
-279.93123
-36.018784
419.065
1076.9544
1447.5461
2037.055
2057.2278
2414.961
2409.8466
2677.9416
2614.7326
2930.5777
2897.3302
3062.3614
3253.1052
3118.2992
3148.2138
2914.1549
2710.2875
2339.4884
2042.4955
1685.7213
1492.2403
1383.2672
1484.3112
1748.1315
2192.4022
2760.8499
3411.767
4085.9947
4731.7784
5304.819
5822.1345
6195.7604
6592.9085
6771.3149
7117.1557
7677.7535
7781.6236
8324.0438
8269.5099
8770.5071
9090.1841
9562.5129
10037.273
10531.876
11133.269
11828.373
12554.063
13512.192
14427.617
15636.081
16740.424
18021.952
19173.167
20343.164
21724.258
22859.003
24077.461
25308.671
26273.353
27774.651
28551.67
30321.228
31079.81
32831.954
2860.6346
-709.79618
646.32961
-487.95594
580.36998
28.581294
493.40437
244.92687
398.94429
211.5452
287.82402
157.86061
98.795671
-11.973503
-7.78097
223.43635
-234.07076
241.15034
99.32074
345.16737
197.80906
351.38154
107.20556
212.83966
17.303139
-22.345687
-136.31849
-123.42179
-122.65424
-60.983614
123.33118
391.18905
412.25917
560.46297
817.74958
912.22838
1232.4815
1462.3179
1469.0287
1489.4263
1571.757
1631.5535
1809.415
1748.7793
1810.6367
1923.9353
1926.0846
1942.8311
1948.6346
1902.2334
1870.212
1861.7557
1876.6394
1965.6159
2112.1671
2347.849
2631.9602
2988.8443
3370.1423
3761.9048
4159.4496
4541.3443
4899.0662
5259.2885
5650.8122
6133.3263
6226.4922
7259.9507
7572.2872
8125.9191
8840.2772
9326.788
9871.8376
10495.654
11137.032
11851.905
12608.229
13432.556
14369.129
15208.783
16396.635
17201.675
18574.432
19190.457
21151.528
22148.906
23593.15
24386.677
26070.801
26686.751
28469.72
29035.809
30922.931
30713.899
33682.196
2324.4431
-791.54232
705.85579
-360.56526
276.87178
-60.270795
148.52208
351.95472
303.57241
476.70051
217.23157
479.62247
71.759788
398.25841
60.416773
220.35479
226.24827
464.95
311.11391
553.17959
527.72948
646.8294
633.97088
595.86259
503.67682
403.06783
423.46543
270.07756
441.55361
415.41651
662.9987
613.82704
1010.9725
1131.6111
1389.068
1496.6557
1457.0183
1219.9859
1455.0666
1447.8424
1652.1886
1686.3936
1650.813
1868.7122
2036.6627
2098.8286
2151.5434
2170.8226
2158.5592
2074.3933
2067.5704
2010.8088
2064.5507
2149.2674
2348.6283
2602.6425
2945.9276
3327.3825
3737.4279
4146.9412
4549.4894
4938.1099
5270.1655
5656.4743
5959.1675
6303.6624
6840.4685
7150.1684
7920.0587
8152.068
8768.997
9171.5763
9933.5558
10560.182
11254.177
11946.178
12698.203
13562.692
14370.382
15322.018
16328.726
17314.918
18283.575
19827.595
20676.78
21381.733
22362.658
23657.954
24791.678
25753.365
27305.359
27913.956
29715.264
29900.399
33953.426
1261.2877
-69.319212
195.83617
63.446821
155.40022
24.630403
248.03014
154.60957
66.140729
78.798306
113.79206
17.238935
-120.4623
72.329819
-337.91103
120.56975
-391.11732
56.667753
-291.90375
185.51179
-220.54774
150.29329
-251.13664
6.3050213
-291.32167
-129.21685
-385.45447
-212.66699
-355.9665
-208.93106
-226.12713
-1.8529576
123.40811
154.98889
427.64768
399.79987
673.71033
1364.2514
1352.6456
1393.7616
1420.7802
1565.246
1672.0165
1752.5625
1763.9452
1837.1
1937.69
2015.5482
2099.4664
2173.21
2262.706
2321.7961
2428.6852
2523.0012
2666.3331
2833.4873
3046.7515
3287.4088
3578.2075
3879.8351
4222.0568
4567.8077
4903.5174
5309.721
5681.5686
6065.1117
6500.2493
6919.1307
7576.6433
7718.9304
8666.2885
9191.8031
9483.3764
9915.534
10674.403
11368.632
12138.342
12894.027
13778.551
14624.942
15630.009
16500.039
17822.698
18543.598
20006.823
20925.418
22841.037
23566.125
25356.069
25961.361
27932.851
28167.769
30695.419
29736.611
34898.562
1246.8125
-568.7647
432.51948
-504.36789
221.82608
-288.5396
227.47981
-113.84153
216.3768
149.5189
120.83943
61.335423
68.508129
-1.9755227
-51.874081
35.513103
-65.310134
208.31244
-2.8293943
293.96286
59.965362
415.47433
120.04275
424.48706
116.41647
234.61522
137.14741
114.67202
136.25243
178.73674
314.28426
384.62028
514.06593
662.93768
789.69409
814.90933
1092.6217
477.70696
474.88979
467.57388
817.25042
736.92013
882.24397
1033.4911
1192.9339
1326.566
1456.2867
1508.3403
1595.0243
1632.0002
1700.5623
1736.6522
1854.4842
1938.8276
2116.895
2292.5396
2530.1495
2781.3198
3067.878
3367.4906
3678.8553
4009.1514
4344.6865
4773.5079
5002.2837
5613.334
6006.795
6295.0169
6981.4637
7507.069
8335.6008
8698.618
9793.9428
11154.494
11680.645
12465.143
13131.702
13986.354
14794.805
15669.996
16632.737
17606.96
18565.761
19781.571
20726.173
21950.8
22739.482
23901.993
24959.062
25966.481
27322.875
28180.472
30098.413
29559.487
35398.14
659.14359
-225.39226
315.40698
-0.76641142
70.149018
40.477585
-15.296013
4.4906118
2.5427517
-57.003913
-59.250885
-12.0996
-195.91901
-22.823086
-298.64349
-67.409897
-359.81156
-52.467941
-361.05106
82.799377
-269.4441
141.77263
-247.74727
121.82097
-329.38649
106.43191
-358.63166
-6.8402298
-254.76251
-33.057607
-131.43562
-10.612926
74.919547
138.95615
221.25159
363.92539
428.55012
845.71489
824.16174
1180.2493
1086.4765
1326.2476
1293.9782
1495.0893
1569.8209
1682.1463
1729.9742
1838.6938
1901.6205
1987.6843
2067.5109
2169.5004
2279.054
2422.7067
2582.2467
2778.4601
2989.465
3222.8871
3490.3906
3750.3246
4022.6777
4378.3273
4654.4842
4944.4671
5506.3649
5699.0197
6234.4835
6693.0377
7265.494
7723.278
8273.2342
8886.5774
9565.8383
9497.1289
10040.224
10744.399
11535.847
12333.46
13186.166
14059.971
15062.448
15897.859
17182.351
17915.817
19407.441
20199.111
21914.629
22748.37
24633.142
25306.188
27484.934
27777.623
30352.588
29670.244
35719.069
472.87305
-548.2307
457.8918
-549.3375
143.30968
-366.58214
68.993649
-271.30524
82.189289
-183.46897
39.763566
-258.02586
-101.93677
-313.69205
-288.49714
-311.09432
-339.72072
-241.50988
-339.31097
-80.302148
-332.73487
61.812586
-318.20605
35.900793
-249.22967
-84.972585
-315.29348
-135.81815
-345.49668
-151.66066
-233.93503
-25.166271
9.8654944
96.943384
220.35483
296.75343
231.16733
324.25376
223.54963
477.02911
338.65965
520.98241
565.64337
728.40855
878.95202
1013.0347
1242.414
1348.5905
1531.6522
1605.3408
1755.6687
1809.1431
1957.4905
2048.0293
2232.4382
2395.0628
2644.4541
2887.0956
3195.4559
3470.8684
3862.8203
4150.8303
4510.7102
4998.6687
5263.3913
5825.7839
6260.7071
6806.3986
7355.6535
7895.7744
8735.9752
9119.4284
10031.112
10748.557
11721.433
12489.51
13308.118
14040.498
14942.222
15764.481
16706.052
17721.738
18637.157
19815.343
20783.733
21961.314
22939.534
24092.112
25160.299
26102.369
27404.316
28080.707
30361.228
29530.682
36113.337
370.13603
-217.13912
342.89889
-47.040194
137.27768
-32.447795
34.063581
-97.445809
52.971336
-89.26563
-21.07104
-21.324261
-44.470764
-39.898256
-63.567031
-51.714662
-102.82594
-15.618217
-79.362667
62.312792
-145.9603
57.10596
-201.74022
246.38321
-290.31766
211.40368
-221.13052
122.68679
-172.47402
101.01057
-88.197371
113.59982
-1.5423199
160.84435
221.94941
156.89316
436.59411
341.06486
516.96599
596.61981
602.11328
753.80361
848.30569
961.88133
1009.7205
1177.155
1234.6044
1371.3848
1449.1193
1565.3852
1633.3844
1734.3702
1822.0601
1920.8717
2047.8149
2188.0353
2370.3849
2565.4291
2798.698
3078.2197
3344.4352
3649.535
4042.9772
4307.0191
4764.4168
5134.0435
5603.2213
6066.4711
6597.8237
7173.4211
7668.6436
8342.6059
9029.032
9417.9695
9870.9501
10498.702
11257.108
12011.477
12876.028
13659.805
14692.92
15453.958
16687.613
17460.199
18851.195
19711.438
21264.317
22201.581
23890.238
24864.377
26895.29
27731.687
30164.518
29789.4
35825.411
197.13356
-734.10032
278.55918
-657.86494
-142.26528
-650.15322
-185.48506
-586.41262
-167.00906
-552.80777
-242.85923
-596.40852
-488.86954
-761.98592
-729.62086
-908.63869
-844.567
-936.20804
-869.37576
-782.02157
-748.58625
-394.94422
-457.58442
-399.61313
-540.67561
-340.57578
-678.87859
-446.59157
-726.68891
-503.96476
-657.57021
-449.34723
-479.90277
-247.35036
-420.17473
-52.383727
-300.24506
-77.794294
-203.31339
-143.0426
-116.27196
-87.211708
48.794644
102.01082
359.72308
480.10128
730.70512
861.96798
1083.3461
1184.7008
1355.8626
1438.2652
1582.343
1680.4247
1853.4075
2010.4453
2247.0389
2465.8154
2790.2221
3052.3082
3396.5593
3761.1963
4068.5943
4499.1505
4884.8919
5361.7937
5806.8428
6354.9744
6933.0074
7519.1679
8248.3075
8906.5509
9678.2715
10460.704
11745.916
12395.374
13253.761
14046.3
14866.787
15771.269
16603.933
17665.222
18538.191
19714.583
20679.658
21885.422
22910.957
24129.442
25184.426
26376.141
27507.129
28385.349
30320.149
29903.051
35709.654
726.65409
-351.56138
716.29793
-222.77467
367.91123
11.315319
316.56178
23.412976
253.62669
225.61955
255.50175
271.54517
338.42541
269.62447
371.19983
232.42344
367.76833
212.60271
409.38988
294.97281
314.33477
207.56885
-1.0694824
239.28522
71.443637
260.84558
24.419856
314.67413
19.24427
311.01906
64.330227
302.73573
214.70287
250.83183
443.6258
355.45757
509.55946
549.7359
579.9573
739.6665
749.71437
915.7466
942.70271
1147.2798
1158.5487
1358.0191
1413.8652
1577.7197
1647.3224
1775.8541
1839.2491
1935.8744
2013.2539
2112.3011
2220.711
2364.5045
2522.8434
2733.2468
2963.7198
3214.2237
3540.9691
3829.2281
4194.0809
4565.0535
4975.9767
5355.8003
5860.8865
6347.4044
6874.7184
7423.6393
7990.4879
8590.84
9167.1841
9782.3884
10455.641
10750.689
11765.698
12307.227
13330.204
14034.88
15144.274
15915.741
17147.356
17974.679
19320.662
20184.166
21680.982
22556.396
24201.966
25127.122
26852.516
27964.888
29903.592
30455.292
35587.056
421.95731
-685.29432
96.402281
-920.40296
-212.11258
-779.50392
-410.8545
-718.56864
-353.76853
-616.98778
-557.3626
-695.8396
-707.68489
-948.11797
-819.61888
-1175.7204
-783.62023
-1236.4717
-745.11905
-1130.1436
-614.75376
-1265.1607
-809.58475
-779.83232
-883.74958
-927.96002
-1037.2212
-1109.2818
-1302.7934
-1249.273
-1432.2717
-1211.419
-1433.0595
-1006.5207
-1284.8437
-936.15118
-1021.9519
-864.69834
-826.55508
-808.76228
-690.94986
-708.70319
-514.66291
-469.89741
-241.92768
-119.91192
109.85288
217.16579
409.04365
480.25583
591.12654
623.50545
698.55922
727.46479
829.26965
931.43261
1118.5333
1332.8896
1625.0404
1954.8224
2326.1941
2738.4441
3156.2001
3649.2551
4084.8691
4663.5898
5183.1815
5759.8333
6347.6131
7008.9484
7706.3386
8395.2576
9113.7387
10053.045
10820.754
11797.314
12360.752
13313.97
14045.052
14975.276
15873.451
16893.924
17910.683
19061.346
20169.776
21446.658
22606.891
23966.182
25162.526
26508.426
27824.319
28935.921
30557.881
31041.226
34507.014
1057.6188
-918.31973
73.847054
-396.1178
172.63966
-78.746298
335.68405
166.30008
426.51469
453.45699
440.51154
450.95264
591.59004
352.12693
476.77432
422.95911
445.31603
396.4682
563.53766
469.40214
558.07558
761.94409
706.11862
528.45426
561.5074
626.61677
556.86596
717.89666
655.72714
836.72305
859.65159
938.12278
1115.2264
1163.8092
1335.4088
1507.4142
1489.1761
1676.2937
1563.1762
1746.1607
1599.7784
1783.5194
1663.2622
1853.2995
1813.0512
1993.8227
2050.0303
2216.7894
2321.7941
2473.9983
2580.0413
2722.0344
2841.0121
2988.6277
3146.1464
3344.1959
3555.998
3812.8496
4092.9163
4383.8534
4703.4146
5023.5315
5341.3103
5674.7347
6002.2031
6350.8828
6716.5801
7130.4569
7602.0191
8109.5021
8608.5555
9131.1974
9863.6061
10206.136
10972.784
11612.345
12257.911
13055.519
13843.399
14678.382
15625.556
16505.181
17528.484
18486.334
19577.612
20565.52
21731.24
22740.02
23958.723
25085.104
26386.862
27700.849
29587.922
30649.489
34622.208
1290.374
-748.04387
242.39615
-495.49285
-399.16192
-730.55819
-443.13492
-879.30734
-572.16665
-844.23123
-816.94109
-827.79643
-1107.9402
-1072.4625
-1240.801
-1371.1515
-1328.4018
-1542.5761
-1251.4728
-1563.1906
-1190.3724
-1502.9324
-1199.9178
-1481.5688
-1141.0845
-1613.4178
-1519.7508
-1860.0493
-1989.5585
-2035.2551
-2274.5536
-2047.6589
-2260.6552
-1919.4645
-1989.7517
-1743.737
-1652.887
-1526.6313
-1340.2303
-1340.4614
-1127.0213
-1112.3836
-920.71889
-821.34413
-643.06191
-521.69743
-350.95857
-289.91305
-189.42315
-203.38488
-206.04645
-275.90974
-317.04132
-373.53634
-349.05221
-284.38013
-117.45661
132.18212
465.02808
879.08495
1342.6303
1863.6039
2374.7049
2980.315
3475.6159
4144.9696
4638.4442
5303.8527
5891.6034
6527.6539
7115.2099
7941.5978
8354.4994
9303.6949
9820.599
10704.827
11310.987
12128.447
12868.599
13814.376
14712.988
15798.775
16895.839
18166.996
19392.545
20823.168
22138.651
23649.465
25038.452
26524.631
27975.048
29327.702
30767.263
31730.536
33770.41
1844.0577
-1417.6667
119.53187
-967.05049
65.624148
-217.13706
152.18891
207.19332
489.09786
518.85917
661.94593
533.02004
722.89292
555.5792
559.31064
483.67795
504.25423
321.60219
780.84816
440.26243
1016.0643
820.22148
968.49932
903.26161
874.81894
836.65412
868.66828
675.38975
677.22575
473.49228
570.9668
518.44463
677.51127
895.06966
886.49197
1216.9609
1232.3797
1528.2915
1418.8125
1675.7454
1542.467
1717.5374
1639.4553
1800.3567
1822.2933
2010.728
2125.0524
2314.0753
2448.215
2593.427
2673.3491
2745.9086
2777.2364
2813.0938
2855.034
2945.635
3081.2548
3283.6141
3556.7812
3882.6266
4251.0673
4659.0685
5079.4907
5504.1136
5934.1895
6421.5903
6848.3085
7425.0627
7846.5876
8376.2479
9055.8445
9499.3752
10307.239
10822.011
11543.247
12154.029
12903.37
13579.492
14364.913
15145.366
16011.302
16918.885
17935.335
18933.631
20089.696
21156.747
22388.241
23476.804
24701.15
25812.578
26970.958
28151.239
29425.696
30948.894
32957.55
3430.2261
-2779.8548
220.5524
-1409.2007
-86.456396
-866.54002
-251.29454
-422.68303
-536.22858
-588.94739
-1287.0644
-1197.0395
-1645.7641
-1727.8565
-1648.228
-1773.1788
-1325.0933
-1634.1944
-908.08222
-1579.5599
-762.27341
-1913.1256
-1279.4462
-2404.4294
-2009.6522
-2501.4454
-2234.4801
-2135.0701
-1754.0814
-1144.9522
-813.64086
-52.598936
291.70023
776.44837
806.62808
1169.7154
1206.7954
1195.6224
1262.0304
1141.6168
1184.5569
1120.6222
1139.1827
1073.8019
1011.4145
838.79457
664.14851
392.97186
176.81817
-33.546013
-124.07508
-85.914804
136.10717
501.72042
1055.3658
1699.3227
2405.434
3127.148
3787.2563
4362.173
4836.0727
5214.9131
5474.6364
5718.1387
5890.972
6110.1388
6169.8161
6485.0109
6550.7348
7114.4738
7165.9104
7771.6419
7935.0843
8603.2859
9036.6718
9852.0872
10594.584
11588.408
12686.288
13910.969
15153.486
16572.326
17812.388
19263.585
20446.986
21825.724
22946.574
24263.486
25423.3
26716.285
28027.03
29457.626
30753.476
32407.042
33340.126
-794.02966
-168.98868
-964.07259
-1110.7411
-1199.3075
-1045.7733
-1122.7577
-967.64915
-1097.4725
-405.43665
-940.6697
-794.46358
-345.05702
-382.7953
-1191.9102
362.32462
245.8024
-72.577964
193.1763
-184.58117
-97.525245
-231.50116
-278.45403
-12.608142
-230.29979
-191.97452
135.21135
-115.51886
252.03975
-493.52459
5.5631984
-488.39934
-922.6627
-767.93428
-986.52771
-1036.5913
-944.79705
-1110.1625
-1051.8624
-1012.6789
-895.00967
-1078.5606
-991.54395
-629.7991
-941.49128
64.235482
150.27555
10.367523
-194.49617
-123.2519
-206.78388
-201.81373
-253.22431
-109.64444
-210.48033
-86.549366
-135.64035
6.6799834
292.43982
-727.43544
-85.411568
-203.22916
-483.27109
-485.76699
-645.63885
-600.5925
-676.2544
-629.50708
-729.05844
-696.73796
-671.93888
-624.36316
-536.45131
-524.74389
-365.55263
279.97704
130.64236
-4.5208107
44.943155
-25.376721
-6.7862585
-80.462437
-38.875215
-41.501155
-37.24004
-9.5399153
-57.273358
-26.993618
-4.0677354
-72.396884
-44.74719
-117.29709
-225.6034
-281.98644
-300.13416
-341.20636
-341.6743
-383.87504
-385.23092
-354.49635
-366.17736
-270.92313
-248.11757
-92.704637
-161.88903
108.08315
49.419437
-34.265134
-18.920366
-69.684791
-62.569373
-88.48432
-82.732025
-69.085441
-97.535212
-78.79459
-75.047422
-104.91714
-75.711475
-147.42087
-264.61108
-216.45616
-391.68523
-358.48918
-411.47321
-426.80398
-430.5987
-402.12789
-431.25617
-336.37654
-371.25593
-290.88954
-310.24361
-137.88752
-220.67786
134.68001
23.735075
-70.262939
-61.942539
-126.02458
-127.4645
-115.50952
-135.71105
-128.60174
-182.09582
-96.292217
-180.02207
-157.36576
-56.185754
-305.62784
-644.08169
-567.03882
-731.5767
-737.32501
-794.91726
-686.65534
-772.01882
-669.49292
-739.27485
-560.53844
-610.33887
-617.90565
-500.00031
-319.86444
-523.61082
-508.06395
-561.24742
-595.55989
-838.90623
-736.33021
-924.79568
-850.89098
-928.36561
-880.19977
-845.97819
-811.61137
-716.37045
-686.49256
-536.66936
-670.74096
-1176.9406
-486.23643
-1224.7257
-1085.5
-1224.6372
-1148.9278
-1343.7001
-1149.8039
-1088.5522
-1029.0688
-966.64774
-1118.4654
-991.80299
-681.0929
-654.97014
-516.16604
-977.164
-1150.8247
-1318.3154
-1441.6483
-1528.9143
-1274.0026
-1210.1216
-1222.9909
-1569.7442
-1411.4261
-1561.644
-1592.8202
-1426.8456
-1861.465
-1736.0673
-1945.1083
-2548.229
-2701.901
-2928.6395
-2696.2681
-2680.3253
-2511.3652
-2794.661
-2805.7849
-2938.7998
-2795.7645
-2456.255
-1739.141
-1947.4385
3785.4762
8433.724
4784.5241
6644.5901
7609.8796
6432.8214
7374.588
8486.1156
6285.8136
7252.8204
7273.706
7069.9123
6966.4428
7603.3656
4022.5252
7206.3929
2162.5072
4574.0468
4847.0816
3549.7197
6130.425
5611.4773
5415.2732
6283.5731
3804.4266
4514.8204
2878.8755
3617.8962
5345.7241
5134.0282
-56.795059
418.23785
-855.41747
-359.43024
2567.6893
-913.69188
-988.08725
-806.88383
-3152.329
346.99559
-1105.9075
2317.9205
-39.154031
-2086.4939
40.700227
-350.89435
1273.1367
1266.1617
-1498.0601
-1197.0344
-313.84175
-1153.6154
-296.87023
-79.670956
-1950.5758
-414.82839
-1378.8484
171.5103
960.71024
-491.00219
3216.5485
1581.9912
-653.54316
2285.6364
444.96916
802.83516
1642.3368
926.55305
1395.403
3440.6367
932.50817
2130.7557
152.11868
945.81358
2940.4686
-1062.3991
70.063683
77.800334
-105.09386
-249.56294
-210.19591
-940.13757
-945.00921
-677.21454
-2172.6906
-414.9168
-1311.3147
-559.77668
554.6415
-713.10539
813.93705
1271.3011
768.68544
127.23602
70.434409
500.86464
742.53342
570.91212
735.20966
1045.9304
57.323978
821.55559
401.09447
142.55575
1770.8375
910.43059
180.17373
562.11305
1164.4963
1167.6315
656.01755
683.91883
889.04902
186.5439
1072.7699
963.32121
903.7499
963.08494
535.06289
2096.5416
842.41719
1749.6352
1282.3627
1627.4664
572.83556
1222.8273
879.70499
1238.0003
1155.4757
1056.6831
1008.1812
665.80652
1021.8371
1154.1397
980.75911
1985.8401
813.75139
1314.5833
1177.6681
1471.8924
1089.7328
1340.2241
1108.764
529.0577
1852.9087
637.43763
1980.8472
1205.6039
1437.444
2547.5159
1762.3997
2318.9029
1935.1395
2450.5368
1784.3516
2325.8291
1818.4742
2006.5809
2392.7324
1587.5076
2626.4857
1932.0976
2187.2334
2443.7841
2900.9276
3037.2938
1719.4776
2137.1792
1956.8803
2098.7067
1953.5072
1923.471
1617.0213
1014.4327
1658.7245
843.23467
1270.7885
1110.1744
1016.085
2434.8434
2573.7454
2638.5045
1960.8284
2783.9057
2065.6248
2320.6698
2198.7641
1982.5076
2444.8224
2326.6854
2563.404
2480.4247
2635.5065
2927.9252
3293.8984
2983.3705
2317.812
2634.7507
1929.6396
2230.6073
2599.258
2388.5666
1791.1636
1223.834
1279.346
625.30249
981.50471
694.98688
388.91563
2358.3058
2888.1196
2083.02
1866.5747
2914.3085
2644.5442
2131.3767
1738.0747
2189.4912
2282.4462
2477.5625
2996.9531
2807.0532
3039.8578
3433.2082
3814.462
2518.7873
2366.2392
2538.0267
2361.8418
1463.4115
2417.0155
2209.2602
1713.7987
1272.0395
1236.5084
214.74072
553.30775
358.77799
111.95969
1879.6646
2208.9591
1382.7745
1459.299
1904.0466
2278.1498
2036.2587
1688.7286
1418.2149
2019.1819
1871.9803
2589.3429
2510.106
2391.764
2091.5642
3937.3387
2007.1895
1976.5819
1617.4489
1869.3202
1272.0307
1800.6488
1455.1146
1890.2252
1317.9838
1454.2419
549.67978
473.55581
229.84615
455.97519
797.48301
2197.0741
1718.4476
2103.1124
1862.3059
1987.0246
1485.7308
2243.4311
1396.3432
1655.1209
1586.8948
1468.5039
1801.2258
2190.7194
1802.4517
3722.122
1681.7833
1484.4212
1211.7244
1808.799
1506.0618
2054.4729
1552.6727
1681.7608
1653.4787
1671.2174
1928.9934
1747.2561
1356.0295
1034.3105
1609.0758
2679.964
2050.5503
2437.4978
2097.0123
2080.778
1853.5224
2184.3457
2053.7556
1933.6735
1487.0313
1398.4507
1351.1498
2398.6676
1779.0726
3311.7881
2176.018
2458.1844
1910.7793
2650.6779
1984.6543
2923.88
1912.8964
2476.0545
1551.8965
3121.6355
2355.7765
2704.3763
1794.1731
1043.514
3861.9572
3734.5383
2216.1939
2875.9427
2330.8754
2625.7058
2392.5183
2568.9903
2100.8519
2541.6673
2052.8914
1575.0166
1582.2915
1701.8116
1882.2101
3709.8768
3057.0509
3374.8618
2618.5884
3133.9819
2539.6001
2370.8225
2062.3852
2217.8257
2228.7138
2190.2
2406.258
2941.9016
3080.193
2371.9332
5704.763
4616.0554
2824.2824
2692.4413
2520.402
2891.5717
2428.9055
3073.3903
2641.8706
2585.4779
2437.7088
2618.6464
2713.0704
2072.3373
2001.4035
4829.7507
3739.9657
2867.2934
2873.363
2977.9918
2537.091
3098.3259
2162.6084
2458.8772
2159.9102
2303.9937
2179.4134
2362.4271
3385.1558
3373.923
5197.1794
4036.9891
3095.695
3139.7621
2744.2014
3038.6179
2453.1917
2548.9247
2575.1502
2333.0831
2541.2585
2420.4026
1477.8058
2134.5999
943.08371
5124.9526
3388.8491
2298.7235
1726.2116
2729.7277
1714.6192
1666.7992
1785.5298
1492.2618
1906.0802
1591.9337
2021.8157
2382.0363
2110.1366
2579.7912
4184.9112
2987.449
2449.5674
1916.0315
1527.8787
1556.0116
1749.8344
1494.8887
1512.0749
1349.4288
1429.4679
1343.6754
1786.9288
1472.176
547.62548
4382.3829
2148.6512
1058.5911
1264.7343
1445.897
1130.4632
1060.4416
992.10845
921.06136
748.92878
652.50654
534.80056
491.18839
1454.2168
958.92581
2556.1189
2021.3078
1794.7562
1744.1879
1330.348
1324.5394
537.36491
910.3198
567.174
1390.1638
930.26961
867.9635
725.35856
517.68332
257.92718
1846.154
1649.6445
1125.307
738.24625
920.54043
709.55987
858.34616
630.21845
839.26418
342.45274
544.50906
226.12022
595.92505
354.19514
492.78064
1672.2358
1129.828
792.48848
837.78036
887.04868
880.92402
671.44196
835.00189
498.14281
739.47199
504.84346
775.95346
529.44821
543.2868
555.04043
982.77159
939.62311
869.82762
799.17424
999.79007
731.83495
897.32826
614.92208
919.03314
565.46678
879.50401
473.14012
806.74978
529.64654
586.76121
871.96613
1025.1429
985.28489
1074.6053
1346.2593
1073.8229
1047.2886
1104.8518
1049.7625
1068.3193
1087.3509
1146.7343
1196.939
1048.2953
1349.6027
1474.4161
956.04201
1291.1515
1269.4133
900.85398
1134.5694
1050.0337
1153.9864
992.99216
1354.5179
763.22302
1210.8906
1018.8992
1226.5589
949.74385
1714.188
1225.6624
1137.9563
1594.7534
1426.6721
1685.5237
1239.9556
1560.807
1272.6051
1414.4635
1767.1994
1472.786
1786.6477
1323.496
1838.7557
1707.6719
1596.819
2339.2561
1958.5781
2309.1426
1767.0694
2094.368
1721.4143
1987.8818
1762.3807
1745.3146
1807.7118
1706.9206
1981.557
1879.3661
1978.0291
2454.5663
2172.4635
2329.2363
2099.4191
2390.1105
1955.903
2227.5411
1961.3276
2014.4602
2095.7049
1892.9097
2322.2484
1952.8366
2144.4584
2487.4659
2272.3021
2594.4707
2230.8975
2644.3231
2141.4955
2345.1546
2055.3468
2136.6008
2112.5629
1987.5147
2138.89
2064.0457
2008.0115
2248.1612
2509.0177
2745.3997
2618.1425
2652.1028
2441.3428
2541.2142
2240.9114
2303.4237
2242.1668
2113.7237
2241.6252
2056.3221
2244.2539
2113.0702
2237.4951
2618.1966
2638.8318
2835.3945
2370.3101
2685.7028
2350.308
2354.1079
2244.811
2147.2038
2154.2924
2080.638
2004.1205
2208.2498
1945.8922
2168.8638
2737.2143
2929.8003
2753.2341
2678.6098
2583.235
2529.3217
2349.4208
2305.7707
2260.0104
2178.476
2153.1655
2105.2997
2200.7991
1996.695
2202.3494
2866.144
2857.9656
2968.8479
2541.4679
2718.1087
2482.3108
2394.0902
2323.9486
2256.5345
2153.2091
2196.7935
2007.1846
2236.5566
1985.4786
2149.3584
3141.1045
3231.7481
3016.6179
2835.3486
2833.8025
2706.0922
2541.2611
2536.7428
2414.2179
2404.5587
2321.2276
2256.1856
2416.0637
2191.3542
2320.4259
3603.4694
3422.3168
3314.8222
2968.1667
3074.8698
2831.3367
2757.4492
2656.5789
2639.5105
2483.5369
2555.0729
2378.6839
2602.7511
2427.822
2445.8644
4242.7711
3967.8536
3590.7724
3358.2993
3349.2504
3230.5168
3031.0454
3059.0229
2900.6415
2888.5908
2857.8289
2732.9429
2957.8376
2821.9344
2751.507
5011.9538
4441.6883
3984.6481
3667.6705
3757.195
3455.1377
3351.1666
3233.8113
3216.6995
3083.917
3144.5199
2986.2374
3257.1687
3196.0442
3006.4345
5854.2505
5052.8694
4328.642
4109.8181
4022.6204
3869.8619
3642.9853
3679.3941
3539.7739
3488.7534
3495.9165
3372.9046
3624.6205
3613.1459
3323.3375
6615.0634
5546.3659
4693.9011
4357.1694
4403.8237
4090.8537
3929.0696
3814.484
3752.8759
3625.824
3696.4573