/*--------------------------------*- C++ -*----------------------------------*\
  =========                 |
  \\      /  F ield         | OpenFOAM: The Open Source CFD Toolbox
   \\    /   O peration     | Website:  https://openfoam.org
    \\  /    A nd           | Version:  6
     \\/     M anipulation  |
\*---------------------------------------------------------------------------*/
FoamFile
{
    version     2.0;
    format      ascii;
    class       pointVectorField;
    location    "1.85";
    object      lm;
}
// * * * * * * * * * * * * * * * * * * * * * * * * * * * * * * * * * * * * * //

dimensions      [1 -2 -1 0 0 0 0];

internalField   nonuniform List<vector> 
28033
(
(-1.780536e-14 4.8656612e-16 1.3104288e-15)
(-5.4375576e-15 3.3318594e-15 9.9433006e-16)
(8685.7794 625.7264 13.998562)
(8478.7744 -2014.5806 33.156503)
(-1.338461e-14 3.0090723e-15 -2.870051e-16)
(-1.2587315e-14 4.9008913e-15 -4.4266115e-15)
(8472.936 -1917.5259 30.200883)
(8699.8285 715.27826 17.717362)
(-5.6329745e-15 1.0535579e-15 6.7193838e-16)
(-2.4534443e-15 3.0423504e-16 5.8836893e-16)
(-5.4923298e-15 2.4302826e-15 8.9528572e-16)
(-2.6209443e-15 -1.1537891e-15 -6.7979696e-16)
(-7.2548563e-15 1.5542294e-15 1.0013199e-15)
(-4.7613589e-15 -9.2108094e-16 -7.3952737e-16)
(-1.132389e-15 -2.2256662e-17 -6.4484848e-16)
(-7.4239857e-16 -2.4218299e-16 -3.6669977e-16)
(-1.1196198e-15 4.5550132e-16 8.383863e-16)
(-2.3465882e-16 2.2667819e-16 1.4996246e-15)
(-4.0583243e-15 -8.7236639e-16 -1.3429605e-15)
(-5.8237189e-15 8.4462789e-16 7.5519031e-16)
(-5.1611762e-15 1.0100276e-15 9.7613867e-16)
(-1.7679952e-15 -8.1010255e-16 4.5192313e-16)
(-4.4158752e-15 1.0299569e-15 -9.452958e-16)
(8671.6201 454.74794 12.28077)
(8655.9182 284.99983 10.205402)
(8640.1271 117.48075 9.7342994)
(8624.3905 -48.177513 9.9401589)
(8609.1007 -211.16058 11.498699)
(8594.7991 -372.77104 14.260681)
(8581.0728 -532.71846 17.526505)
(8568.7443 -692.43104 21.396243)
(8557.2294 -852.01612 25.385685)
(8546.3512 -1012.8579 29.162478)
(8536.3078 -1175.2135 32.129407)
(8526.019 -1339.6168 33.914288)
(8515.8381 -1505.9756 35.216721)
(8504.8543 -1674.6215 35.272282)
(8492.4821 -1844.4775 34.308994)
(4.8014786 13.29855 14.930221)
(3.1977986 19.534966 23.332774)
(3.3442053 27.110036 29.99223)
(6.3771917 34.558925 35.80792)
(10.902715 42.721127 39.446996)
(19.054947 50.888776 42.561133)
(29.603554 59.421646 43.977183)
(43.42393 67.645048 44.441283)
(59.840923 76.236516 43.802247)
(79.270106 84.459848 42.129884)
(101.02883 92.697681 39.516829)
(125.21313 100.84368 36.204102)
(151.22041 108.94554 32.505496)
(179.1225 116.96209 28.253523)
(208.05065 124.97301 24.196829)
(238.08458 133.0812 20.168569)
(268.74463 141.61278 16.728486)
(299.87888 150.17144 13.641988)
(331.21078 159.46942 11.54593)
(362.92942 169.17443 10.104483)
(394.76768 179.67471 9.7537252)
(427.14473 190.86704 10.036714)
(460.1575 202.96282 11.220572)
(494.06521 215.84239 13.035369)
(529.49029 229.60277 15.216253)
(566.68959 244.02839 17.623427)
(606.14918 259.06816 19.972176)
(648.24118 274.56455 22.089914)
(693.6034 290.21229 23.443428)
(742.34457 305.86031 24.197919)
(794.69895 321.12826 23.724397)
(850.97326 335.67536 22.237888)
(910.9289 349.7887 19.456859)
(974.46359 362.12372 15.869723)
(1041.567 373.53238 10.621018)
(1111.3217 383.20887 4.5439293)
(1183.6313 391.49057 -1.9735251)
(1257.7743 397.91337 -9.2550642)
(1333.0175 402.85919 -16.777743)
(1408.8528 406.46033 -23.87316)
(1484.4987 408.69864 -30.57712)
(1559.5204 410.23542 -36.356688)
(1633.3814 410.98658 -41.030052)
(1705.7253 411.69906 -44.090853)
(1776.3699 412.51457 -45.639338)
(1845.2396 414.03512 -45.204531)
(1912.4619 416.54554 -42.914409)
(1978.3884 420.47318 -38.677361)
(2043.4034 426.07956 -32.599038)
(2108.1873 433.64431 -24.826623)
(2173.3983 443.29395 -15.581273)
(2239.8972 455.11872 -5.1389868)
(2308.5027 469.07769 6.1781247)
(2380.1185 485.06275 18.024411)
(2455.5667 502.86519 30.035754)
(2535.6471 522.2075 41.863782)
(2621.032 542.74876 53.172646)
(2712.2892 564.10667 63.672532)
(2809.8209 585.87418 73.121033)
(2913.8839 607.63403 81.342493)
(3024.5447 629.00922 88.221194)
(3141.7394 649.60399 93.723076)
(3265.1831 669.1709 97.884695)
(3394.5976 687.37525 100.79243)
(3529.3404 704.16308 102.59964)
(3669.0644 719.25884 103.54961)
(3812.7938 732.70658 103.86563)
(3960.325 744.55051 103.84749)
(4110.8254 754.93965 103.22932)
(4263.8525 763.80751 103.0071)
(4418.8423 771.41057 102.88849)
(4575.4622 777.90069 103.102)
(4733.4522 783.43602 103.72617)
(4892.6406 788.09008 104.81941)
(5052.9468 792.01157 106.32443)
(5214.4342 795.18589 108.15901)
(5377.1497 797.70391 110.17091)
(5541.3075 799.42305 112.17969)
(5707.0623 800.41382 113.95782)
(5874.522 800.39602 115.28235)
(6043.9897 799.28201 115.89661)
(6215.3891 797.0098 115.59682)
(6388.8638 793.18711 114.1976)
(6564.1703 787.96423 111.53567)
(6741.4446 781.07753 107.5194)
(6920.0758 772.31442 102.09659)
(7099.8962 761.94641 95.459945)
(7280.1466 749.88809 87.639825)
(7460.5963 736.2621 78.921833)
(7640.3155 721.43788 69.464891)
(7819.0365 705.46177 59.894351)
(7995.9582 689.00622 49.870002)
(8170.9857 671.91624 40.810524)
(8343.6758 655.85468 31.293362)
(8515.1395 639.89637 22.774392)
(5.8801197 -14.413247 -18.883017)
(14.318828 -22.648955 -15.935161)
(19.483906 -33.961101 -18.305243)
(25.907108 -43.823104 -16.130038)
(34.092319 -56.12735 -15.102081)
(43.620781 -68.86345 -13.307816)
(54.433466 -81.023174 -12.314462)
(67.224653 -94.292467 -10.859378)
(81.932111 -106.91325 -10.283164)
(98.096811 -119.41108 -9.694404)
(116.30781 -131.48251 -9.734519)
(135.76052 -142.75742 -10.261499)
(157.00933 -153.54518 -11.003211)
(179.24063 -163.40819 -12.618887)
(202.76947 -172.60404 -14.426828)
(227.01273 -181.08743 -17.077721)
(252.26398 -188.92422 -20.102272)
(278.12012 -196.39975 -23.644041)
(304.62642 -203.58976 -27.758508)
(331.92452 -210.66838 -32.291192)
(360.12885 -217.99661 -37.023283)
(389.30551 -225.70475 -42.162397)
(419.89975 -233.86925 -47.228723)
(452.24334 -242.94488 -52.301637)
(486.43034 -252.79142 -57.12841)
(523.30473 -263.51411 -61.450924)
(562.93408 -275.4403 -65.378654)
(605.81786 -288.00065 -68.369398)
(652.2436 -301.74703 -70.840306)
(702.41046 -315.85182 -72.100385)
(756.6658 -330.84589 -72.643893)
(814.5754 -345.91213 -72.180802)
(876.44726 -361.21931 -70.931691)
(941.86249 -376.31363 -68.936694)
(1010.3967 -391.11418 -66.351853)
(1081.5209 -405.22194 -63.766097)
(1154.9364 -418.57443 -60.649715)
(1229.7901 -431.31856 -58.026789)
(1305.3499 -442.99847 -55.798045)
(1381.1054 -453.94832 -54.356348)
(1456.2917 -464.1202 -53.895354)
(1530.382 -473.7594 -54.651276)
(1602.8873 -483.06202 -56.754969)
(1673.4783 -492.37316 -60.311142)
(1741.9689 -502.00145 -65.314291)
(1808.3637 -512.36467 -71.709147)
(1872.8171 -523.83187 -79.347579)
(1935.696 -536.82212 -88.008391)
(1997.4994 -551.69597 -97.412059)
(2058.8911 -568.80631 -107.21946)
(2120.6405 -588.42691 -117.06028)
(2183.5991 -610.78799 -126.54612)
(2248.6576 -636.01637 -135.29085)
(2316.7103 -664.17685 -142.93325)
(2388.6024 -695.22252 -149.15255)
(2465.1077 -729.03697 -153.69004)
(2546.8799 -765.40636 -156.35452)
(2634.4373 -804.05298 -157.04195)
(2728.1359 -844.63252 -155.728)
(2828.1681 -886.75808 -152.47776)
(2934.5513 -930.01641 -147.43009)
(3047.15 -973.97954 -140.80149)
(3165.6769 -1018.239 -132.85042)
(3289.7369 -1062.4012 -123.89227)
(3418.8295 -1106.1333 -114.23701)
(3552.4154 -1149.1234 -104.22884)
(3689.931 -1191.1787 -94.166419)
(3830.7731 -1232.1247 -84.307856)
(3974.4447 -1271.7985 -74.997133)
(4120.5203 -1310.2192 -66.127647)
(4268.6496 -1347.678 -58.077985)
(4418.4441 -1383.7805 -50.795021)
(4569.9272 -1419.0797 -44.224827)
(4722.9507 -1453.4496 -38.287997)
(4877.5897 -1487.1838 -32.868625)
(5033.9557 -1520.3612 -27.794661)
(5192.2348 -1553.1145 -22.894349)
(5352.6305 -1585.5436 -17.987253)
(5515.31 -1617.6631 -12.925295)
(5680.4676 -1649.4917 -7.6064548)
(5848.1633 -1680.9436 -1.9608987)
(6018.4195 -1711.9221 4.0004511)
(6191.1499 -1742.2737 10.222041)
(6366.1267 -1771.8031 16.558935)
(6543.0549 -1800.312 22.83898)
(6721.4938 -1827.5772 28.814445)
(6900.9492 -1853.3994 34.241795)
(7080.8376 -1877.5953 38.841807)
(7260.5668 -1900.0303 42.376247)
(7439.5217 -1920.6342 44.642656)
(7617.1768 -1939.3882 45.484583)
(7793.0563 -1956.4193 44.913224)
(7966.9268 -1972.0007 43.032984)
(8138.7592 -1986.2992 40.049967)
(8308.9985 -2000.4199 36.568636)
(3.2927448e-15 -1.3239155e-15 2.3845803e-16)
(2.4470133e-15 -9.6672015e-16 3.215493e-17)
(-9.0574249e-15 9.0550918e-16 6.4029168e-16)
(-1.2642219e-16 -5.721845e-16 4.4370095e-16)
(-7.6811722e-15 -4.9270561e-16 4.1193361e-16)
(-7.3893964e-15 2.7533729e-15 -1.0951501e-15)
(-3.2915852e-15 -8.1743692e-16 3.8364228e-16)
(-1.9032499e-15 5.3200654e-16 -8.2319016e-17)
(-4.7409759e-15 -4.8623412e-16 4.3918642e-16)
(-1.2869644e-14 1.1845665e-15 6.4228907e-16)
(-9.6157521e-15 1.4157374e-15 5.9836601e-16)
(-9.4077204e-15 4.9518432e-16 1.1192419e-15)
(-5.982767e-15 2.6210694e-16 3.0473736e-16)
(-1.1478475e-14 -5.3386198e-16 1.6580808e-15)
(-5.257323e-15 3.6289085e-16 2.8600704e-16)
(9.9170556 -7.1706117 15.872651)
(8.908687 -28.687063 29.026713)
(4.8143101 -27.631069 38.852388)
(6.9791292 -41.427519 47.5165)
(9.2491647 -46.517556 53.415765)
(15.969798 -55.356779 56.446326)
(24.230944 -62.612095 58.167374)
(36.757942 -71.244292 58.285426)
(51.115228 -77.918211 55.793391)
(69.13453 -86.610379 52.44718)
(89.483292 -93.041429 47.763534)
(111.7718 -100.22982 41.591659)
(136.72192 -107.36968 35.164147)
(162.77238 -113.54579 27.829353)
(190.50954 -120.54517 20.846165)
(218.91485 -126.58098 13.960522)
(248.0448 -133.40831 7.7393057)
(277.45497 -139.70995 2.1608495)
(306.98591 -146.89576 -1.8809147)
(336.96923 -154.08994 -5.0801023)
(366.66049 -162.23059 -6.8557366)
(397.28317 -170.87116 -7.2868531)
(428.17827 -180.04801 -6.5317974)
(460.30112 -190.8196 -4.6355764)
(493.74283 -201.98848 -2.1085729)
(529.34578 -214.40164 0.97055418)
(566.93896 -227.29054 4.2633228)
(608.28695 -241.51743 7.6230557)
(651.92572 -255.72595 10.510087)
(700.4759 -271.40354 12.833232)
(752.06455 -286.64122 14.326435)
(808.2391 -302.25534 14.576405)
(868.24753 -317.81691 13.889369)
(932.17954 -332.94841 11.905293)
(999.70951 -347.91781 9.1988894)
(1070.1081 -361.81235 5.3454312)
(1143.0974 -376.01417 0.81512878)
(1218.0419 -388.62193 -3.8549065)
(1293.914 -400.98623 -8.6952592)
(1370.2847 -412.67139 -13.156628)
(1446.2553 -424.0311 -16.88607)
(1521.2567 -435.17253 -19.549594)
(1594.7191 -446.43435 -20.818623)
(1666.2399 -458.08434 -20.432965)
(1735.5573 -470.51084 -18.191548)
(1802.6152 -484.02576 -14.004397)
(1867.524 -499.02973 -7.8429588)
(1930.6046 -515.82122 0.19770147)
(1992.3389 -534.73587 9.9568665)
(2053.3857 -555.99818 21.161402)
(2114.5214 -579.82335 33.496183)
(2176.6275 -606.3062 46.560908)
(2240.6347 -635.50801 59.951118)
(2307.4864 -667.36887 73.222341)
(2378.0953 -701.78422 85.963544)
(2453.296 -738.54494 97.773363)
(2533.8182 -777.40029 108.31839)
(2620.2451 -818.02642 117.31611)
(2713.001 -860.06895 124.57165)
(2812.3325 -903.14531 129.97136)
(2918.3037 -946.8596 133.48987)
(3030.8105 -990.83034 135.19207)
(3149.5824 -1034.6911 135.21769)
(3274.2162 -1078.1135 133.79088)
(3404.1984 -1120.8136 131.16436)
(3538.9451 -1162.5862 127.66601)
(3677.812 -1203.1142 123.56904)
(3820.2738 -1242.8585 119.4446)
(3965.4987 -1280.7705 115.32406)
(4112.9726 -1317.7875 111.51808)
(4262.6477 -1353.4084 108.50845)
(4413.6245 -1387.9136 106.27781)
(4566.0483 -1421.3467 104.91534)
(4719.636 -1453.8448 104.54369)
(4874.4274 -1485.4392 105.03388)
(5030.5123 -1516.2332 106.29731)
(5188.0636 -1546.2561 108.13052)
(5347.2967 -1575.5194 110.30109)
(5508.4583 -1603.999 112.53119)
(5671.7756 -1631.6318 114.53392)
(5837.4416 -1658.3376 116.02105)
(6005.5793 -1683.9936 116.72713)
(6176.221 -1708.4938 116.42759)
(6349.2955 -1731.6982 114.94956)
(6524.6098 -1753.5153 112.18747)
(6701.866 -1773.8426 108.108)
(6880.6423 -1792.6528 102.75553)
(7060.4417 -1809.929 96.249447)
(7240.6784 -1825.7555 88.777111)
(7420.7437 -1840.238 80.585642)
(7600.0174 -1853.6134 71.960075)
(7777.941 -1866.1403 63.20108)
(7954.0716 -1878.2369 54.566004)
(8128.2899 -1890.4948 46.28871)
(8300.6204 -1903.3687 38.510792)
(8487.1447 -1745.6081 25.028719)
(8500.1096 -1573.9208 19.897203)
(8512.293 -1404.0312 15.774935)
(8523.8324 -1237.4095 13.038726)
(8536.1528 -1072.2956 11.74992)
(8547.8272 -910.40426 11.427665)
(8561.2537 -749.52121 12.65373)
(8574.5372 -590.08362 14.287586)
(8589.1478 -431.0781 16.420863)
(8604.5979 -271.8567 18.77782)
(8621.2215 -111.54214 20.422103)
(8636.8954 50.823707 22.045067)
(8654.4243 214.10179 21.651404)
(8670.1653 380.72081 21.444112)
(8685.8564 547.98625 19.151654)
(8532.6426 729.07654 20.223839)
(8364.8407 743.42055 23.496665)
(8195.4021 756.89981 26.027055)
(8023.7545 769.48602 28.081737)
(7849.5247 781.0238 28.530001)
(7673.0099 791.03503 27.704652)
(7494.6913 799.53719 25.419873)
(7315.0007 806.41434 21.935902)
(7134.5867 811.6789 17.3944)
(6954.0439 815.39272 12.081411)
(6773.9672 817.6413 6.2893844)
(6594.9102 818.56859 0.28045862)
(6417.2674 818.35913 -5.7245712)
(6241.248 817.21554 -11.585498)
(6067.2072 815.12682 -17.129469)
(5895.2986 812.40796 -22.277698)
(5725.5343 809.10375 -26.896439)
(5557.7912 805.28394 -31.168592)
(5391.9582 801.02748 -35.098944)
(5227.8375 796.29551 -38.876163)
(5065.2556 791.08051 -42.648764)
(4904.0377 785.27488 -46.593964)
(4744.0929 778.8098 -50.872285)
(4585.3575 771.46356 -55.608825)
(4427.9102 763.23585 -60.977702)
(4271.9423 753.90356 -66.902958)
(4117.5759 743.01377 -73.574261)
(3965.8952 731.25813 -80.45896)
(3816.2034 717.8516 -88.150062)
(3670.1387 702.97823 -95.691911)
(3527.8096 686.82573 -103.42084)
(3390.0098 669.40169 -110.74321)
(3257.324 650.87669 -117.4935)
(3130.3314 631.49679 -123.3478)
(3009.5028 611.53833 -128.05393)
(2895.1895 591.33613 -131.38691)
(2787.5952 571.24131 -133.1773)
(2686.7536 551.63499 -133.32453)
(2592.5221 532.88234 -131.80032)
(2504.5816 515.341 -128.6594)
(2422.4447 499.31866 -124.02761)
(2345.4793 485.08271 -118.10875)
(2272.9271 472.81732 -111.16031)
(2203.9501 462.64478 -103.49591)
(2137.651 454.583 -95.451812)
(2073.1359 448.58132 -87.387935)
(2009.5317 444.47852 -79.649582)
(1946.0441 442.06848 -72.576611)
(1881.9881 441.01583 -66.438241)
(1816.8033 441.02378 -61.502077)
(1750.1112 441.6396 -57.911129)
(1681.6772 442.50065 -55.765887)
(1611.4828 443.17873 -55.132893)
(1539.6578 443.31171 -55.86387)
(1466.3589 442.52695 -57.954875)
(1392.3852 440.39614 -61.118068)
(1317.9323 437.29756 -65.123389)
(1243.773 431.61379 -69.449662)
(1170.6335 425.75148 -74.524947)
(1098.8291 417.11273 -79.153599)
(1029.2605 407.07587 -83.38828)
(962.85421 396.07441 -87.389248)
(899.19034 383.75617 -90.150471)
(839.61427 370.33453 -91.842546)
(783.18533 356.23489 -92.328059)
(731.42807 341.7458 -92.081473)
(682.47969 327.64536 -89.901084)
(638.08221 312.97542 -87.153252)
(596.33163 299.42554 -83.127477)
(557.66301 285.97264 -78.329144)
(521.44327 273.27655 -72.95725)
(487.1732 261.36483 -67.002074)
(454.51956 249.88595 -60.84179)
(423.05154 239.4877 -54.861819)
(392.25635 229.35044 -48.936)
(361.99138 219.7002 -43.245957)
(332.19373 210.29906 -38.281773)
(302.37248 201.03728 -33.615794)
(273.03516 191.495 -29.883882)
(244.01235 181.88517 -26.369202)
(215.45907 172.00985 -23.898312)
(187.74982 161.12443 -21.697129)
(161.03881 150.1379 -20.173754)
(136.08595 138.42707 -18.987761)
(112.21719 126.45496 -18.39927)
(90.886151 113.56965 -17.786469)
(71.52479 101.00036 -17.757808)
(54.67962 87.597297 -17.592359)
(40.298484 74.714387 -17.673234)
(28.415183 62.128022 -17.987451)
(19.359716 49.575183 -17.817308)
(12.912933 37.813013 -17.737341)
(8.2949729 27.579195 -17.250111)
(6.323599 17.921777 -14.605064)
(7.595976 10.093171 -9.9898735)
(-6.8708141e-15 1.5083581e-15 1.9262289e-16)
(-1.2504183e-14 5.7375616e-16 8.4327435e-16)
(-8.3449101e-15 1.4891922e-15 5.3018253e-16)
(-4.9731758e-15 1.4991158e-15 6.2376313e-16)
(-3.4146159e-15 1.5624416e-15 3.1576894e-17)
(2.0582335e-15 9.3962624e-16 -5.746342e-16)
(2.2101935e-15 3.7457559e-17 -1.1841335e-16)
(2.4553765e-15 -8.5141669e-16 -9.3419562e-16)
(1.2987427e-15 1.0081898e-16 1.7950851e-15)
(-4.5074861e-15 9.063971e-16 1.0710522e-15)
(-5.2682467e-15 2.1856155e-15 1.0652666e-15)
(-7.4917339e-15 1.915055e-15 2.2418828e-16)
(-9.400838e-15 1.3708275e-15 6.2833768e-16)
(-6.2048683e-15 1.3247981e-15 5.4317906e-16)
(-6.971104e-15 1.5128103e-15 7.5678131e-16)
(-1.2693866e-14 6.2923345e-15 -2.1364834e-15)
(-5.2452578e-15 2.6791924e-15 -5.3037742e-16)
(-1.0752404e-15 9.8318743e-16 -1.0111087e-16)
(-2.7353382e-15 1.7746034e-15 7.3085398e-17)
(1.0178949e-15 -1.5450237e-16 -4.119182e-16)
(-1.4303492e-15 4.136346e-16 -3.3264033e-16)
(-1.0059749e-14 4.7133437e-15 -1.6449855e-15)
(2.9801421e-15 -1.9180379e-15 -8.3172098e-16)
(-4.79756e-15 2.8035442e-15 1.1420498e-15)
(-5.4778068e-15 3.5047253e-15 -3.934403e-16)
(-1.8117877e-15 1.1581936e-15 -9.1309836e-16)
(-3.9812639e-16 4.7407236e-16 -2.2932148e-16)
(-1.5272242e-15 1.100363e-15 -2.2557932e-16)
(-4.1024849e-15 1.9838802e-15 2.8069696e-17)
(-5.3424143e-16 2.551799e-16 -1.9455919e-16)
(8480.7075 -2011.3224 33.557294)
(8482.2197 -2008.6885 33.121349)
(8484.1093 -2006.0204 32.437114)
(8485.8417 -2002.8394 31.693605)
(8487.5225 -1999.0622 31.096025)
(8488.7462 -1994.5967 30.788734)
(8489.4376 -1989.2656 30.656735)
(8489.5027 -1983.2415 30.742673)
(8488.9431 -1976.475 30.910385)
(8487.7931 -1969.1471 31.081528)
(8486.167 -1961.3373 31.13868)
(8484.0759 -1953.0561 31.00913)
(8481.7866 -1944.428 30.732673)
(8479.1586 -1935.7181 30.301477)
(8476.4144 -1926.2923 30.227772)
(8689.2427 634.27108 13.618314)
(8691.8385 643.34656 13.820553)
(8694.5148 651.94487 14.410665)
(8696.8484 660.16797 14.734459)
(8699.2349 667.99088 14.893018)
(8701.1209 675.3243 14.849461)
(8702.5799 682.09604 14.756791)
(8703.4826 688.25901 14.647234)
(8703.8204 693.72356 14.659675)
(8703.609 698.42977 14.837934)
(8702.9414 702.40346 15.289254)
(8702.0299 705.591 15.912068)
(8701.0613 708.29739 16.667393)
(8700.1842 710.35816 17.59541)
(8699.9715 712.70909 17.650997)
(1.325501 11.663233 15.491472)
(0.6522014 17.166249 19.763679)
(0.31442127 24.13578 26.777515)
(3.5764796 29.826517 30.528032)
(7.7552371 35.784365 34.467971)
(16.038454 41.430454 36.848004)
(26.386848 47.085425 38.201287)
(40.332593 53.046882 38.606596)
(56.571528 58.634071 38.039047)
(75.95413 64.721001 36.554327)
(97.670376 70.489789 34.237817)
(121.78879 76.943636 31.402747)
(147.73516 82.994747 27.981683)
(175.4186 89.892637 24.393391)
(204.23891 96.629317 20.671213)
(234.0716 104.26018 17.221862)
(264.50226 111.84208 13.960141)
(295.32831 120.31166 11.349558)
(326.4777 129.13996 9.2598803)
(357.73132 138.64142 7.9866459)
(389.26161 148.72034 7.3858854)
(421.21812 159.3711 7.5701098)
(453.84807 170.65217 8.3584754)
(487.38469 182.39089 9.7037259)
(522.44136 194.58219 11.396771)
(559.2336 207.05693 13.28357)
(598.41288 219.82793 15.048433)
(640.29054 232.52467 16.63841)
(685.49509 245.08157 17.64389)
(734.0251 257.47647 17.95639)
(786.51293 269.16991 17.497759)
(842.81709 280.38108 15.9604)
(902.93097 290.70338 13.509116)
(966.65423 299.97897 10.034465)
(1033.9535 308.39017 5.4329171)
(1104.1074 315.56442 0.17204037)
(1176.7283 321.7353 -5.678483)
(1251.1369 326.75804 -12.162414)
(1326.829 330.88264 -18.601216)
(1402.8406 334.1896 -24.960101)
(1478.8063 336.767 -30.785265)
(1553.8907 338.90012 -36.05566)
(1627.8315 340.91777 -40.141345)
(1700.1077 342.90463 -43.107211)
(1770.46 345.28884 -44.540864)
(1838.964 348.28238 -44.418212)
(1905.6628 352.09009 -42.657092)
(1970.9069 356.96749 -39.211382)
(2035.1345 363.05019 -34.174635)
(2098.9919 370.47782 -27.648479)
(2163.1996 379.29727 -19.820807)
(2228.6057 389.5144 -10.914231)
(2296.0834 401.07017 -1.1964895)
(2366.5404 413.84538 9.0448161)
(2440.8436 427.67554 19.50805)
(2519.8064 442.34744 29.897876)
(2604.1347 457.62536 39.933234)
(2694.4096 473.24283 49.365572)
(2791.0622 488.94108 57.991836)
(2894.3464 504.45689 65.644899)
(3004.3574 519.55268 72.239179)
(3121.0088 534.01351 77.717437)
(3244.0533 547.69288 82.09948)
(3373.1386 560.40143 85.477283)
(3507.6699 572.11033 87.903031)
(3647.3525 582.74708 89.609253)
(3791.2662 592.39895 90.748494)
(3938.6184 600.77545 91.548077)
(4089.2535 608.25631 92.04629)
(4242.277 614.62112 92.668107)
(4397.3603 620.14905 93.282591)
(4554.1034 624.83906 94.113093)
(4712.2019 628.78006 95.238209)
(4871.4915 631.95193 96.697794)
(5031.9049 634.36642 98.436472)
(5193.5043 636.0184 100.37547)
(5356.3666 636.8655 102.40552)
(5520.6776 636.82328 104.35798)
(5686.6082 635.82154 106.05316)
(5854.3708 633.73341 107.30328)
(6024.0959 630.44115 107.90323)
(6195.8992 625.96326 107.63498)
(6369.7996 620.04015 106.37985)
(6545.5946 612.8207 104.07733)
(6723.3597 603.97653 100.49754)
(6902.5985 594.0186 95.871074)
(7082.9827 582.68737 89.970693)
(7263.8618 570.25961 83.100581)
(7444.8414 556.91537 75.307414)
(7625.209 542.77986 66.852824)
(7804.2274 528.1687 57.958386)
(7981.8938 513.3289 48.750688)
(8156.8597 498.21568 39.678953)
(8330.0869 483.60888 30.269192)
(8501.2132 468.74563 21.134549)
(-2.466789 11.410441 13.29869)
(-3.0302083 12.910256 18.28839)
(-1.2857033 20.729631 22.505528)
(0.9253622 23.44841 27.014012)
(6.1407477 28.511841 29.712551)
(14.041888 31.912532 31.959978)
(24.799185 36.184336 33.068006)
(38.29489 39.847883 33.515524)
(54.778699 43.859865 33.029492)
(73.90754 47.883084 31.618476)
(95.518345 52.167369 29.755895)
(119.34154 56.707186 26.955633)
(145.09442 61.670932 24.127058)
(172.40023 66.936857 20.651019)
(200.92843 72.807879 17.505732)
(230.45908 79.092091 13.98899)
(260.38956 86.03141 11.274306)
(290.98473 93.439679 8.5359893)
(321.60863 101.55556 6.6659602)
(352.60173 110.12586 5.1522548)
(383.76373 119.3246 4.5362616)
(415.4574 128.97273 4.3006096)
(447.72902 139.07284 4.8561074)
(481.14993 149.50871 5.7307863)
(515.95049 160.15743 7.0569823)
(552.69308 171.00753 8.3996318)
(591.79421 181.77649 9.8609994)
(633.71586 192.39965 11.016762)
(678.8653 202.8266 11.754026)
(727.62903 212.74562 11.95866)
(780.11532 222.12857 11.426955)
(836.54245 230.89004 10.003485)
(896.80097 238.88232 7.8112842)
(960.81062 246.0394 4.6450685)
(1028.1703 252.26481 0.72457405)
(1098.5307 257.75159 -3.9898971)
(1171.259 262.27569 -9.2141996)
(1245.8447 266.03933 -14.859323)
(1321.4392 269.1064 -20.61116)
(1397.4825 271.6945 -26.322538)
(1473.2871 273.74401 -31.602074)
(1548.2743 275.67887 -36.420808)
(1621.8998 277.5274 -40.215396)
(1693.8309 279.52599 -42.968549)
(1763.824 281.95045 -44.59201)
(1831.8625 284.87302 -44.790327)
(1898.0465 288.48942 -43.574657)
(1962.7075 292.94734 -40.886081)
(2026.3175 298.31764 -36.802152)
(2089.5086 304.67904 -31.376646)
(2153.0289 312.02227 -24.78446)
(2217.7283 320.32981 -17.184663)
(2284.4945 329.51588 -8.8149528)
(2354.2444 339.4696 0.097173049)
(2427.8547 350.04077 9.287526)
(2506.1466 361.05729 18.512295)
(2589.8308 372.32798 27.521429)
(2679.4997 383.65534 36.110622)
(2775.574 394.8517 44.079865)
(2878.3259 405.7265 51.302344)
(2987.8381 416.12823 57.672448)
(3104.0286 425.92891 63.132323)
(3226.6485 434.99767 67.712014)
(3355.3331 443.30673 71.424636)
(3489.5149 450.81246 74.341366)
(3628.8513 457.62773 76.704372)
(3771.9312 463.56434 78.591894)
(3919.2926 468.60468 79.974385)
(4069.8025 472.74682 81.06167)
(4222.7136 476.28947 82.208303)
(4377.7107 479.13552 83.356167)
(4534.3438 481.39144 84.68479)
(4692.381 483.05986 86.221397)
(4851.6855 484.06821 87.99722)
(5012.1731 484.462 89.954089)
(5173.8784 484.1458 92.071012)
(5336.9051 483.07733 94.210018)
(5501.448 481.13885 96.26646)
(5667.6653 478.2834 98.069053)
(5835.763 474.36354 99.457976)
(6005.8839 469.33463 100.24007)
(6178.0834 463.14426 100.2954)
(6352.5634 455.56514 99.429757)
(6528.8241 446.63051 97.384175)
(6707.037 436.82284 94.372558)
(6886.6054 425.65178 90.329366)
(7067.3962 413.57384 85.181234)
(7248.6391 400.6021 79.03987)
(7429.962 386.86485 72.02201)
(7610.5935 372.6226 64.202739)
(7789.8891 357.99557 56.015082)
(7967.6415 343.204 47.126158)
(8142.8787 328.11663 38.500248)
(8315.9527 313.64916 28.856124)
(8487.0582 298.57626 20.000797)
(-4.1935077 8.1901688 11.63973)
(-4.0269724 10.397711 14.955433)
(-4.2288257 15.358167 19.794305)
(-0.8382317 17.932357 23.113241)
(4.3742929 21.027958 25.402994)
(12.817956 23.546922 27.369423)
(23.188906 25.778234 28.424437)
(37.207587 28.235134 28.821498)
(53.345458 30.28477 28.255956)
(72.427696 33.171694 27.231119)
(93.710068 35.585297 25.324699)
(117.39827 39.173269 23.108866)
(142.69525 42.397489 20.29464)
(169.70074 46.904315 17.445005)
(197.86631 51.378892 14.205712)
(226.83103 56.887717 11.432762)
(256.57657 62.69907 8.5009476)
(286.59989 69.368192 6.1526663)
(316.96904 76.484003 4.1088237)
(347.56965 84.214615 2.7213502)
(378.49619 92.46518 1.7321209)
(409.88469 101.02686 1.4223288)
(442.07323 110.05448 1.5103366)
(475.28419 119.14393 2.0681842)
(510.05426 128.51091 2.8549504)
(546.73378 137.70362 3.8741613)
(585.87691 146.83658 4.8433203)
(627.82397 155.70527 5.6329727)
(673.12207 164.15303 6.128698)
(721.90324 172.11826 6.1524909)
(774.58848 179.52275 5.5414916)
(831.12281 186.25817 4.2930278)
(891.54231 192.24883 2.3084427)
(955.615 197.48939 -0.44221818)
(1023.0786 202.06688 -3.8906771)
(1093.4743 205.80858 -7.9612617)
(1166.1759 208.92903 -12.479839)
(1240.5867 211.38814 -17.4378)
(1316.2068 213.47268 -22.500599)
(1392.1502 215.04112 -27.574306)
(1467.8078 216.4785 -32.334782)
(1542.6264 217.75303 -36.676288)
(1616.0252 219.18009 -40.23885)
(1687.6375 220.68873 -42.968085)
(1757.3471 222.60512 -44.745745)
(1825.0041 224.97787 -45.314594)
(1890.7955 227.89662 -44.703076)
(1955.0209 231.46715 -42.839033)
(2018.1743 235.70536 -39.748909)
(2080.881 240.63729 -35.492986)
(2143.9089 246.22963 -30.177739)
(2208.0978 252.4319 -23.939188)
(2274.354 259.15278 -16.954045)
(2343.589 266.28242 -9.4115044)
(2416.6901 273.68845 -1.5184818)
(2494.4754 281.22489 6.5146796)
(2577.6662 288.74337 14.491158)
(2666.8436 296.09493 22.218963)
(2762.4441 303.14329 29.542709)
(2864.7289 309.76572 36.330092)
(2973.7854 315.86643 42.483553)
(3089.5292 321.36277 47.95204)
(3211.7211 326.20503 52.72329)
(3339.9814 330.40141 56.791009)
(3473.7813 333.90326 60.224977)
(3612.6247 336.74028 63.168532)
(3755.8594 339.29404 65.573055)
(3902.7507 340.62305 67.436522)
(4053.03 341.46853 69.812687)
(4205.5994 342.12523 71.553256)
(4360.341 342.22559 73.389673)
(4516.8096 341.88313 75.231813)
(4674.7876 341.1173 77.147065)
(4834.0159 339.80284 79.222267)
(4994.4678 337.90153 81.411856)
(5156.2155 335.36186 83.640909)
(5319.3364 332.12851 85.861526)
(5484.0117 328.07445 87.958601)
(5650.4137 323.15285 89.813863)
(5818.7216 317.24893 91.275468)
(5989.1082 310.32742 92.23648)
(6161.5911 302.32458 92.490021)
(6336.1794 293.26332 92.006233)
(6512.9533 283.09663 90.69174)
(6691.5754 272.13196 88.33417)
(6871.2955 260.15232 84.872117)
(7052.3081 247.33116 80.460843)
(7233.7636 233.66551 75.159734)
(7415.2327 219.56198 68.905471)
(7596.053 204.97223 61.969477)
(7775.4239 190.21649 54.390587)
(7953.4723 175.30207 46.15228)
(8128.7199 160.19274 37.773777)
(8301.9002 145.67794 28.527665)
(8473.0271 130.76559 19.471641)
(-5.2337557 7.4899024 9.212698)
(-5.9850291 7.7880533 12.996802)
(-4.8464787 11.462869 15.950302)
(-1.4395545 12.387695 18.97585)
(4.3790526 14.454715 20.924461)
(12.313093 15.152714 22.890459)
(23.476085 16.495151 23.680674)
(36.965156 17.172495 24.002684)
(53.14176 18.299021 23.79462)
(71.938584 19.42188 22.594636)
(93.115255 20.954633 21.227044)
(116.21709 22.859903 18.908264)
(141.2685 25.292697 16.741366)
(167.83674 28.365714 13.686849)
(195.42119 31.901746 11.24864)
(224.13221 36.269882 8.1393603)
(253.24441 41.181878 5.7185193)
(282.97814 46.770914 3.219297)
(312.90421 52.945244 1.3663817)
(343.25017 59.65691 -0.3369461)
(373.83455 66.809139 -1.3213388)
(405.11088 74.368409 -2.0539743)
(437.05911 82.143067 -2.196346)
(470.28394 90.109848 -2.1125228)
(504.99777 98.048243 -1.6281837)
(541.78322 105.89692 -1.0962391)
(580.97225 113.56762 -0.47897669)
(623.13021 120.82856 -0.0056178613)
(668.51194 127.68718 0.27005394)
(717.55164 134.01961 0.093897259)
(770.33295 139.73155 -0.47053356)
(827.03758 144.76631 -1.6480724)
(887.55473 149.15513 -3.4077227)
(951.72794 152.83956 -5.8163971)
(1019.2444 155.80637 -8.7678583)
(1089.6136 158.19575 -12.3354)
(1162.3826 159.924 -16.322659)
(1236.8546 161.34691 -20.632276)
(1312.1545 162.21287 -25.060771)
(1387.8835 162.86167 -29.462238)
(1463.289 163.331 -33.743604)
(1537.777 163.69635 -37.615819)
(1610.8081 164.20998 -40.997727)
(1682.0818 164.85495 -43.684331)
(1751.3972 165.84008 -45.549482)
(1818.6803 167.19634 -46.464393)
(1884.101 168.99336 -46.389259)
(1947.9627 171.27813 -45.24399)
(2010.7653 174.05276 -43.057904)
(2073.1373 177.30528 -39.844984)
(2135.8426 180.98791 -35.687633)
(2199.7225 185.03192 -30.677101)
(2265.6802 189.34163 -24.95093)
(2334.6213 193.81001 -18.648354)
(2407.4301 198.31056 -11.940525)
(2484.9187 202.71968 -4.9871663)
(2567.8001 206.90933 2.0380049)
(2656.6533 210.76061 8.9850308)
(2751.9089 214.17435 15.708517)
(2853.8201 217.061 22.092065)
(2962.4778 219.35778 28.047192)
(3077.8005 221.0303 33.505818)
(3199.5373 222.0731 38.439253)
(3327.3282 222.45559 42.834942)
(3460.6788 222.25847 46.76533)
(3599.0022 221.50676 50.150667)
(3741.6562 220.18101 53.246053)
(3888.2682 218.65956 56.072499)
(4037.9331 216.433 58.723069)
(4190.0884 213.95124 60.923605)
(4344.5845 211.04432 63.313954)
(4500.7235 207.8411 65.525091)
(4658.2764 204.34437 67.818011)
(4817.3533 200.41343 70.216151)
(4977.8343 196.06282 72.600813)
(5139.612 191.19118 75.057901)
(5302.861 185.74393 77.431843)
(5467.7182 179.60572 79.699219)
(5634.3543 172.70489 81.705693)
(5802.9519 164.94558 83.399486)
(5973.5922 156.29586 84.575303)
(6146.3759 146.659 85.214105)
(6321.3122 136.1417 85.09954)
(6498.0879 124.56541 84.199253)
(6676.7122 112.02505 82.278868)
(6856.7854 98.901199 79.571955)
(7038.0213 85.080947 75.896925)
(7219.632 70.695118 71.334538)