/*--------------------------------*- C++ -*----------------------------------*\
  =========                 |
  \\      /  F ield         | OpenFOAM: The Open Source CFD Toolbox
   \\    /   O peration     | Website:  https://openfoam.org
    \\  /    A nd           | Version:  6
     \\/     M anipulation  |
\*---------------------------------------------------------------------------*/
FoamFile
{
    version     2.0;
    format      ascii;
    class       pointScalarField;
    location    "1.85";
    object      p;
}
// * * * * * * * * * * * * * * * * * * * * * * * * * * * * * * * * * * * * * //

dimensions      [1 -1 -2 0 0 0 0];

internalField   nonuniform List<scalar> 
28033
(
120297.27
-117692.1
-124.92284
222.48762
273162.11
-124878.74
64.769409
-34.767904
116847.73
104023.35
91788.428
76970.379
62264.489
47496.934
33353.675
15415.112
1032.4138
-15420.284
-30105.835
-40299.708
-55546.96
-69555.639
-73337.68
-110.63739
-535.12627
-734.76415
-758.33492
-691.65178
-471.00051
-237.54049
126.97462
392.08889
775.70106
849.55194
888.06077
911.00784
723.68042
476.52456
35051.308
33516.542
32320.831
32471.939
36025.586
35106.159
37811.888
37278.871
39507.765
38829.582
41348.922
41407.616
43004.328
43081.808
45435.797
45749.941
47015.226
48114.793
49487.541
50459.381
51881.13
53149.869
53901.285
55508.247
56421.424
57653.655
58716.261
60014.114
60897.459
62327.054
63035.929
64494.576
65345.984
66911.363
67281.308
68838.815
69431.557
70468.233
71308.833
71946.873
72533.24
73201.556
73275.694
73538.042
73409.617
73189.46
72693.14
72048.144
71142.279
70023.102
68721.112
67197.368
65464.831
63616.044
61535.775
59388.807
57068.867
54702.456
52219.237
49725.993
47148.696
44624.704
42013.395
39453.32
36956.629
34594.213
32205.372
29851.412
27465.775
24999.036
22730.868
20582.112
18456.815
16404.02
14423.078
12485.985
10684.541
8927.3922
7301.4071
5782.2353
4456.689
3187.2281
2116.5329
1073.3126
267.35871
-476.94352
-947.97142
-1315.9364
-1474.7
-1562.454
-1407.8199
-1317.243
-816.02325
-643.57274
-44.521582
-20489.028
-22332.108
-24830.127
-25623.149
-28095.601
-30057.01
-29336.043
-31495.03
-31069.301
-32555.702
-32025.113
-33531.303
-33212.458
-34374.308
-34442.404
-35802.283
-35904.956
-37347.113
-37957.59
-39217.552
-40408.681
-41838.817
-43066.574
-44568.336
-46145.202
-47273.823
-49182.995
-50009.222
-51834.203
-52492.15
-54065.12
-54753.713
-55521.173
-56547.114
-56581.169
-57645.589
-57362.951
-58082.166
-57802.825
-58356.246
-58051.292
-58539.035
-58296.573
-58663.454
-58552.873
-58836.632
-58756.947
-58969.398
-58831.486
-58873.803
-58577.012
-58340.425
-57760.249
-57126.741
-56162.063
-55060.812
-53627.737
-52037.295
-50141.713
-48078.503
-45783.811
-43351.651
-40766.035
-38103.69
-35380.969
-32682.547
-29948.79
-27354.075
-24821.389
-22266.84
-20058.244
-17821.137
-15809.629
-13938.583
-12182.306
-10570.87
-9069.7363
-7626.3927
-6310.5227
-5037.3791
-3858.1911
-2700.2359
-1638.4595
-599.37922
323.39771
1196.0822
1929.1058
2555.6695
3023.2845
3320.3905
3409.8838
3294.9552
2920.4477
2131.5969
1157.8706
223409.28
220892.76
172510.1
177512.29
140119.17
103002.18
88544.771
53601.479
28023.385
-4139.8904
-27335.921
-58176.148
-86964.018
-106894.29
-118952.6
-29580.291
-24612.311
-13644.417
-28086.622
-21048.556
-26187.928
-24103.17
-27532.168
-23819.764
-26789.894
-27742.076
-28652.821
-29790.41
-30795.88
-31633.377
-33659.936
-32777.808
-35578.703
-35515.996
-37950.431
-37298.758
-39002.297
-43047.196
-39962.612
-46643.922
-44219.105
-45673.102
-46684.686
-46656.593
-48320.116
-51261.397
-50612.55
-53273.668
-53135.939
-55448.636
-54014.73
-57448.075
-57438.786
-58878.62
-59193.927
-60383.838
-60555.997
-61291.678
-61279.622
-61641.361
-61249.379
-61148.243
-60434.238
-59804.112
-58710.202
-57597.836
-56116.551
-54560.291
-52729.228
-50790.203
-48699.973
-46454.548
-44164.122
-41754.547
-39322.48
-36837.313
-34368.223
-31871.832
-29433.502
-26987.232
-24606.856
-22504.093
-19942.841
-17534.851
-15725.709
-13536.486
-11509.934
-9564.7287
-7677.8337
-5884.8913
-4148.7212
-2535.5043
-987.01859
397.55459
1689.6401
2793.3098
3793.0589
4552.9341
5218.2196
5615.7576
5898.5423
5912.3576
5817.6057
5466.4551
5007.7131
4358.8508
3590.4831
2715.1729
1779.7563
764.25047
321.31474
865.63562
874.33969
1160.4013
797.79323
812.17339
177.08109
181.92301
-80.62729
-456.26566
-503.23773
-431.63051
-319.00313
-252.77445
8.1232637
-277.73518
-930.34149
-982.4912
-884.62808
-590.96972
-62.166037
639.11344
1536.8348
2557.0105
3745.4014
4967.4463
6365.9884
7725.697
9195.4529
10758.095
12329.562
13943.311
15634.416
17384.508
19215.572
21157.895
23172.562
25357.307
27609.622
30053.834
32589.69
34884.744
38517.949
40932.283
44083.549
47004.908
50027.881
52979.287
55856.349
58582.104
61202.688
63556.903
65793.339
67678.671
69448.393
70826.713
72126.196
72997.912
73878.903
74323.764
74876.19
74984.926
75323.009
75233.505
75439.039
75235.648
75410.272
75158.128
75160.808
74853.831
75200.737
74599.92
74019.327
74781.723
74089.751
72968.343
73731.671
71532.515
71782.791
69692.726
69977.952
66911.957
67295.787
64750.471
64274.628
61667.84
60619.157
59599.409
58047.707
56431.919
55793.152
53308.849
53684.108
50968.74
50222.559
50244.255
50416.878
49246.307
48477.899
45773.268
45294.733
45746.224
44859.868
43572.749
41138.861
40587.931
40053.535
39167.232
35517.021
44486.023
90166.307
94540.134
99386.288
102706.15
110554.93
110180.01
116440.73
115034.73
119108.28
116638.67
119217.8
113887
111418.44
120563.45
96155.182
-97143.825
-121545.99
-117824.1
-128547.91
-120163.9
-117763.64
-132694.59
-135509.76
-125692.11
-122352.76
-113950.46
-106735.99
-96359.118
-90564.344
-86388.249
18.422275
-19.362891
-294.63481
-440.79275
-671.67155
-785.92142
-1020.8607
-1163.9256
-1293.3468
-1356.4117
-1372.5928
-1253.5284
-1000.6326
-630.1027
-324.06282
382.66602
872.6865
1228.1069
1405.7766
1425.7183
1299.042
1123.4811
874.77736
594.0284
342.94203
85.221301
-110.12126
-215.36614
-344.08975
-137.50944
35190.955
30980.122
29008.992
30010.078
30725.955
30829.128
32299.047
32924.845
34045.293
35413.295
36287.499
37053.552
38109.912
39469.918
40355.785
41041.332
42566.499
43658.441
44570.923
45680.144
46676.105
47560.137
48672.938
49726.006
50397.656
51710.561
52425.567
53375.958
54263.858
55436.922
56129.989
57285.346
58192.975
59163.515
60192.262
61078.494
61978.044
62974.285
63526.769
64389.029
64938.688
65408.518
65653.213
65830.242
65749.032
65459.322
65040.723
64296.284
63432.79
62305.616
61026.506
59520.879
57895.799
56102.807
54193.746
52192.875
50111.712
47981.398
45813.418
43636.022
41461.702
39297.714
37135.666
35073.325
33023.621
30797.608
28496.976
26487.43
24623.547
22598.352
20797.606
18807.486
16978.81
15144.928
13353.615
11599.642
9950.8675
8328.6307
6847.4262
5433.4994
4202.6756
3009.2853
2081.9404
1375.4589
667.1875
161.11937
-225.6801
-450.58021
-574.10387
-574.87664
-514.12747
-420.81834
-261.24769
-329.96511
-274.97533
32708.436
26389.959
24873.685
25237.454
26009.194
26320.911
27992.379
28631.079
29758.097
30144.988
31563.292
32050.824
33347.881
33840.684
35142.222
35881.381
37111.291
37688.756
38785.51
39682.938
40474.514
41430.748
42186.407
42939.828
43632.425
44477.925
45032.732
46017.671
46585.692
47489.963
48140.912
49199.003
49828.309
50886.383
51706.806
52710.452
53450.848
54393.811
55132.92
55908.477
56388.16
56896.542
57187.795
57303.436
57200.926
56946.288
56461.582
55750.181
54891.727
53799.613
52563.106
51156.24
49629.241
47989.816
46253.466
44477.31
42641.891
40800.257
38946.774
37116.721
35299.215
33499.712
31753.044
30049.942
28359.881
26702.134
25357.864
23486.267
21877.177
20446.264
18814.092
17177.897
15631.853
13971.269
12367.553
10814.929
9336.8037
7870.7229
6570.5533
5301.4849
4209.604
3163.0897
2361.1912
1417.2675
1078.983
584.35427
337.88769
152.17248
91.904623
51.040288
111.15747
61.435573
122.09679
-200.46735
-197.93496
27514.137
23311.308
21358.882
21337.912
21605.786
21868.871
23654.896
23553.43
24491.661
25544.579
26505.173
27060.619
28089.729
29038.578
29874.044
30643.213
31442.531
32381.783
33075.605
33869.448
34328.334
35357.166
35467.121
36520.961
36695.094
37635.418
37814.725
38758.709
38941.51
40049.37
40356.51
41337.77
41836.394
42916.874
43500.738
44489.812
45207.976
46260.435
46714.292
47496.407
47959.522
48476.73
48620.097
48806.53
48620.185
48461.917
47928.422
47358.7
46490.563
45550.467
44381.283
43144.438
41753.18
40311.686
38778.486
37245.196
35660.239
34107.382
32557.036
31047.34
29563.498
28128.467
26739.89
25361.474
24017.27
22816.146
21752.294
19864.098
18790.538
17362.696
16198.872
14780.888
13341.293
12003.464
10637.727
9287.6221
8006.5814
6771.2236
5604.9244
4539.5159
3609.9737
2733.9826
2054.2086
1618.9185
1423.7776
1023.169
842.0045
711.95643
619.686
619.34453
564.41875
486.35122
379.72688
5.5353317
-258.76995
23416.442
18840.923
17498.891
17203.122
17051.965
18049.722
18803.503
18893.009
20187.451
20658.005
21414.744
21893.346
23090.87
23398.325
24477.599
24817.726
25983.096
26263.454
27077.775
27512.693
28313.318
28579.42
29111.435
29649.033
29830.885
30417.157
30642.267
31195.739
31494.99
32131.94
32368.368
33228.332
33681.383
34476.067
35055.818
36034.364
36455.921
37228.224
37643.126
38459.991
38798.848
39334.904
39534.414
39706.891
39615.045
39383.889
38948.779
38355.399
37560.709
36653.036
35580.439
34416.76
33158.876
31846.196
30501.541
29147.898
27808.383
26502.215
25242.21
24031.668
22888.958
21796.714
20757.671
19749.825
18844.024
17838.338
17033.917
16123.242
14996.015
13858.003
12966.572
11964.679
11155.074
10180.796
9032.7469
7976.4542
6904.8099
5896.1007
4942.7228
4086.5728
3295.1543
2656.0139
2101.98
1640.4141
1255.52
1100.2274
1047.4146
979.46561
994.28037
1007.112
977.2659
895.53874
729.54748
221.1966
-98.846079
20005.52
15142.181
12716.757
13111.525
13475.091
13541.345
14381.499
14591.118
15407.665
15890.52
16535.149
17252.687
17864.497
18586.503
19032.641
19800.425
20410.587
20869.804
21386.959
22089.766
22087.572
22755.321
22788.674
23299.766
23146.76
23870.803
23526.556
24345.284
24123.524
24925.897
24927.131
25853.966
25878.275
26875.991
27229.331
28128.048
28747.923
30119.958
30632.029
31282.497
31944.686
32371.47
32470.831
32705.608
32528.088
32369.686
31942.559
31426.544
30671.059
29888.663
28891.746
27872.575
26744.827
25610.524
24431.739
23291.668
22158.234
21091.452
20066.96
19124.324
18237.058
17429.272
16626.923
15989.997
15217.836
14588.128
14003.241
13135.542
12437.327
11620.031
10845.54
10005.702
9052.7798
8436.067
7522.1142
6661.0052
5833.1888
5025.7377
4276.7628
3579.6872
2986.9681
2449.256
2052.9147
1702.1992
1503.916
1386.0351
1302.2462
1289.5188
1287.9985
1315.7349
1241.074
1177.1855
893.69773
437.28434
63.703968
14867.147
11664.034
9619.7428
9811.8013
9265.6066
9210.5696
10345.084
9984.2805
10780.315
11124.187
11667.177
11986.642
12878.208
12917.817
13852.461
14122.788
14736.841
14705.335
15626.876
15340.188
15920.764
15963.912
16115.749
16222.468
16301.092
16374.233
16368.157
16635.696
16502.372
16981.445
16951.955
17487.848
17626.512
18389.504
18589.466
19385.113
20019.609
20968.398
21657.588
22602.653
23048.333
23619.686
23776.048
23955.097
23850.66
23720.409
23329.419
22877.261
22206.299
21493.962
20606.109
19705.177
18711.964
17731.94
16722.074
15782.797
14854.879
14024.794
13254.92
12583.618
11980.512
11475.151
11037.013
10614.836
10330.593
9924.1791
9672.8888
9279.3964
8921.8136
8564.9978
8004.4525
7581.1645
7170.7553
6449.3674
5783.0404
5126.8006
4526.5656
3905.0704
3360.1907
2834.3097
2400.2112
2033.8875
1750.6438
1550.4297
1422.7978
1381.3115
1385.569
1475.0564
1490.2913
1589.8744
1496.9977
1440.7545
1150.7308
687.03249
197.97973
10228.504
7246.0911
5956.0284
5744.5719
5400.3782
5595.2498
6152.7331
5677.5108
6478.2245
6718.7614
6914.6503
7598.4032
7746.4933
8294.3596
8681.7372
8985.085
9220.7806
9792.7271
9820.2991
10051.702
10164.7
10219.442
10096.002
10293.93
9794.3261
10164.357
9643.0354
10007.454
9577.8378
10145.73
9729.3366
10479.391
10318.003
11087.895
11112.831
12033.735
12089.187
13115.56
13024.227
13827.87
13966.314
14523.826
14521.383
14743.394
14551.95
14453.889
14065.264
13665.686
13051.148
12445.659
11665.554
10929.844
10104.93
9331.5571
8557.7624
7868.362
7221.8859
6685.2842
6230.3702
5878.7469
5617.3597
5452.8309
5335.7848
5315.612
5283.6072
5316.1859
5312.1597
5300.2318
5263.962
5153.0144
5015.8944
4802.3315
4334.7262
4153.2431
3824.1909
3440.7545
3049.2267
2653.054
2294.6941
1965.2365
1716.7293
1497.681
1382.1007
1314.6261
1323.6778
1389.7218
1474.0051
1612.6353
1659.6905
1806.2482
1682.1241
1710.5518
1328.0787
956.4354
468.92036
6259.2894
2630.0176
2311.5366
1200.9341
1710.2635
823.13606
1558.5539
1057.6592
1578.8006
1593.4055
1915.6434
1980.4111
2516.976
2632.0121
2993.6776
3038.2893
3645.5836
3228.5493
3734.0236
3438.5353
3674.2051
3348.1993
3433.3873
2930.8049
2926.8284
2612.5923
2293.8242
2216.6678
1913.6205
1971.9183
1724.0483
2088.9217
1882.5966
2420.942
2460.5456
3053.9641
3239.1076
3997.4341
4037.1534
4588.2707
4798.1529
5192.7494
5321.5528
5533.875
5413.0591
5366.6144
5081.6995
4748.9091
4276.925
3789.4699
3181.6222
2600.6714
1979.8229
1408.0111
862.67339
409.94039
24.276284
-248.85254
-416.01538
-477.50731
-431.44153
-295.1862
-65.072967
198.31793
535.77662
861.27516
1201.3137
1499.6751
1776.8224
1982.0277
2128.7507
2203.6144
2291.1969
2338.6626
2301.4731
2130.5453
1973.3285
1770.0513
1593.7202
1443.0464
1307.9196
1247.3225
1200.6733
1255.8298
1295.6386
1448.6957
1539.3866
1733.9178
1791.6128
1962.3892
1864.5959
1887.0303
1516.726
1185.0586
720.67833
1108.1061
-885.74517
-983.30781
-1635.2582
-1662.0121
-2561.6596
-1702.6336
-2857.5294
-2163.8977
-2304.403
-2385.1026
-2066.0945
-1827.7411
-1884.8358
-1746.7592
-1321.3115
-1657.2888
-1430.1635
-1404.6394
-1699.3759
-1830.0871
-2150.7335
-2631.4386
-2761.3055
-3345.2216
-3589.9141
-4203.542
-4213.4891
-4923.0779
-4701.767
-5263.2518
-4868.5606
-5278.9923
-4651.9769
-4911.7389
-4191.8745
-4231.125
-3505.2554
-3479.0128
-2752.8777
-2650.1414
-2186.1402
-2152.4437
-1933.7537
-2090.8534
-2086.1819
-2404.9171
-2659.7246
-3117.9605
-3510.6299
-4070.0754
-4528.7207
-5049.7965
-5473.2248
-5876.5347
-6142.207
-6347.6158
-6401.3719
-6349.8012
-6166.6184
-5880.6481
-5459.8156
-4996.4266
-4423.6229
-3830.6391
-3212.8973
-2607.4919
-2008.1196
-1478.9846
-1000.119
-598.82588
-240.38303
-35.067958
142.38135
115.83145
74.423861
112.18755
112.3537
173.17191
198.24321
281.88465
382.28248
539.24767
727.49082
940.49641
1213.5179
1421.3919
1729.4694
1847.1258
2105.9047
1991.9563
2097.4713
1672.7629
1469.9187
885.03993
-3288.2603
-5944.7929
-4620.2573
-6722.3353
-6233.1888
-7239.172
-7127.0172
-7721.9614
-7478.9673
-7907.9388
-7767.0492
-7677.3317
-7745.6875
-7842.2957
-7438.0457
-7811.0052
-7715.4751
-7944.8596
-8032.5115
-8598.6168
-8576.3577
-9153.6626
-9197.521
-9988.704
-10380.696
-11083.45
-11480.872
-12107.203
-12565.664
-12831.876
-13322.771
-13294.245
-13634.116
-13409.69
-13586.017
-13130.719
-13194.498
-12683.628
-12597.849
-12170.927
-12035.882
-11730.173
-11669.197
-11490.026
-11564.489
-11589.142
-11784.435
-11997.724
-12297.61
-12593.124
-12958.073
-13252.403
-13547.887
-13758.935
-13899.625
-13911.736
-13826.567
-13593.13
-13228.81
-12740.538
-12114.883
-11388.621
-10571.038
-9669.2563
-8738.6779
-7791.904
-6842.7493
-5941.9475
-5081.6469
-4295.4484
-3564.9175
-2947.2288
-2389.9708
-1896.3257
-1292.1017
-1018.8634
-900.5498
-574.02986
-467.396
-210.27219
-86.51933
217.74843
378.27714
725.9579
939.04704
1305.258
1520.5987
1857.7653
2000.3349
2205.6139
2191.7643
2177.5328
1921.2384
1564.6694
964.51347
-8939.5652
-6986.3967
-8014.802
-8499.9117
-8950.6871
-9922.3724
-9965.5045
-10518.717
-11017.575
-10946.397
-11235.369
-11294.21
-11566.572
-11328.8
-11717.372
-11767.219
-11919.281
-12236.395
-12467.416
-12934.132
-13633.577
-14178.797
-14870.502
-15704.016
-16467.143
-17038.205
-17914.889
-18354.087
-19170.261
-19418.172
-20163.858
-20064.547
-20694.214
-20374.044
-20769.913
-20322.893
-20541.417
-19971.018
-20072.66
-19542.924
-19549.691
-19180.001
-19204.552
-18969.017
-19114.496
-19057.386
-19279.337
-19397.752
-19687.233
-19879.362
-20182.3
-20352.189
-20551.522
-20605.725
-20610.062
-20436.146
-20176.43
-19726.745
-19157.081
-18417.591
-17571.596
-16570.971
-15509.3
-14333.757
-13149.244
-11903.742
-10703.934
-9505.5723
-8381.6199
-7321.8411
-6362.9419
-5495.2244
-4735.5479
-4091.7936
-3606.5167
-3103.1343
-2504.2125
-2152.3958
-1710.8555
-1369.2247
-988.90768
-635.35744
-244.80423
141.80077
538.9496
940.19699
1304.2033
1676.2467
1911.0804
2205.9606
2196.5427
2304.0846
1951.8298
1730.1101
1236.3106
-10278.054
-12307.764
-11373.053
-12778.662
-13225.91
-13969.525
-14702.866
-15127.787
-15423.678
-15934.754
-15915.492
-16311.515
-16222.281
-16738.652
-16665.135
-17141.709
-17299.821
-17868.036
-18088.02
-18979.898
-19405.613
-20500.544
-21643.664
-22828.269
-23484.014
-24691.755
-25337.071
-26264.816
-27012.756
-27662.533
-28317.198
-28654.073
-29193.079
-29225.131
-29602.806
-29456.957
-29609.665
-29388.612
-29399.412
-29156.642
-29115.091
-28907.426
-28882.028
-28784.309
-28834.41
-28856.712
-28968.88
-29082.365
-29235.107
-29340.952
-29458.04
-29478.592
-29443.141
-29282.54
-29009.398
-28569.343
-27996.206
-27241.451
-26326.368
-25264.133
-24054.622
-22707.315
-21296.336
-19755.649
-18218.986
-16618.276
-15080.504
-13551.887
-12102.361
-10742.462
-9444.1957
-8275.6554
-7169.4321
-6229.948
-5403.6757
-4576.815
-3798.7199
-3194.8473
-2534.1426
-1945.4824
-1388.8492
-832.00084
-297.56387
228.89277
726.07679
1198.5254
1621.3536
1996.2416
2245.1782
2502.775
2424.714
2533.9945
2052.2546
1872.5222
1205.3075
-17473.162
-17709.371
-15044.156
-17286.436
-16911.917
-18845.316
-18906.649
-19911.885
-20230.973
-20853.265
-21216.607
-21290.531
-21974.054
-22041.734
-22676.573
-22797.387
-23617.183
-23783.963
-24738.821
-25208.642
-26022.422
-27053.432
-27828.199
-28645.049
-29728.691
-30675.02
-31720.325
-32491.048
-33610.726
-34175.084
-35170.791
-35471.781
-36287.504
-36324.511
-36929.909
-36703.129
-37130.79
-36780.333
-37016.657
-36671.161
-36766.586
-36490.459
-36571.562
-36377.556
-36468.019
-36385.506
-36477.312
-36472.241
-36556.347
-36523.138
-36538.88
-36399.494
-36228.834
-35889.285
-35452.562
-34816.323
-34054.28
-33078.452
-31961.147
-30658.808
-29214.219
-27630.867
-25964.58
-24164.743
-22404.682
-20510.903
-18734.059
-16925.124
-15211.606
-13567.131
-12031.046
-10598.043
-9309.0875
-8091.7756
-6990.9448
-6054.938
-5123.4748
-4282.7002
-3480.1979
-2734.3231
-2040.1276
-1367.2524
-733.35974
-117.29239
443.6324
986.67022
1448.3229
1862.9639
2166.0695
2421.1049
2424.8245
2559.1332
2110.5907
1924.7129
1195.872
-19615.405
-20823.023
-18540.07
-20926.606
-21947.736
-22848.449
-23669.067
-24526.576
-25192.768
-25623.742
-25913.778
-26505.206
-26645.277
-27270.661
-27710.249
-28404.66
-28947.799
-29868.891
-30528.805
-31509.323
-32516.921
-33643.871
-34509.601
-35862.63
-36853.19
-38217.705
-39331.777
-40380.765
-41537.722
-42378.182
-43368.649
-43915.426
-44748.131
-45093.84
-45511.99
-45757.498
-46012.598
-46083.987
-46164.223
-46143.483
-46189.198
-46148.939
-46177.387
-46171.237
-46233.088
-46263.262
-46338.583
-46372.707
-46398.73
-46347.569
-46244.43
-46005.376
-45655.545
-45134.307
-44449.669
-43558.826
-42480.924
-41192.009
-39712
-38037.85
-36209.223
-34229.486
-32142.392
-29968.094
-27802.458
-25513.915
-23408.891
-21205.332
-19119.048
-17151.369
-15304.636
-13567.951
-11956.501
-10454.843
-9105.2512
-7839.0866
-6663.1076
-5575.9238
-4564.5605
-3584.6461
-2683.8607
-1800.1404
-976.4327
-187.97496
538.44792
1207.2726
1788.2277
2279.0942
2648.5848
2875.6895
2944.4397
2872.8331
2412.1582
2029.0303
1249.2716
-27476.932
-20751.601
-22346.207
-24822.09
-25505.363
-26632.453
-27670.305
-28836.895
-29101.229
-29778.7
-30432.445
-30472.284
-31179.66
-31443.263
-32412.615
-32790.905
-34047.971
-34593.082
-35641.63
-36574.726
-37742.786
-38753.502
-40118.186
-41430.398
-42866.238
-44293.287
-45678.553
-46753.975
-48361.988
-48924.627
-50289.906
-50795.573
-51920.564
-52090.15
-52824.257
-52839.146
-53708.328
-53506.283
-53825.174
-53776.524
-53900.919
-53837.477
-53921.97
-53909.733
-53961.779
-53974.533
-54008.259
-53978.28
-53939.219
-53792.263
-53580.127
-53212.845
-52717.63
-52034.275
-51161.559
-50072.454
-48778.773
-47254.31
-45521.133
-43596.564
-41488.665
-39227.007
-36849.245
-34400.287
-31876.478
-29352.56
-26885.083
-24396.146
-22020.534
-19889.928
-17727.501
-15767.061
-13920.603
-12203.909
-10617.047
-9157.2989
-7767.9118
-6507.9232
-5309.2551
-4194.024
-3134.3459
-2145.0553
-1198.5674
-330.89998
481.10337
1195.0031
1824.9329
2329.888
2694.7404
2927.7046
2976.5622
2832.8303
2506.9115
2011.3709
1240.9553
70943.993
73771.543
71491.914
73571.274
74837.987
75243.045
79243.515
77098.429
79045.739
77396.569
78965.912
77191.184
76030.91
81400.365
68886.638
69593.478
69517.11
65209.35
67159.178
70892.223
70780.556
70955.974
73299.765
73992.287
75411.559
73922.699
74994.837
76311.399
77188.402
66866.481
51808.858
60189.13
54748.873
57581.772
57182.695
58733.356
59636.945
59786.146
60735.937
60823.399
60493.856
62585.737
58685.86
66008.309
60585.594
49022.783
48221.244
48141.712
48753.207
50252.425
50789.548
52486.59
53410.625
53084.891
55109.308
55534.798
55041.284
54344.262
61687.389
44187.946
38050.069
42485.32
38138.498
40348.522
42693.095
41688.287
43985.399
43594.985
45410.529
46006.466
45540.038
46232.748
45646
47538.493
41908.791
28051.188
29300.982
27924.75
29039.939
29603.339
30566.134
31949.566
32824.982
33349.132
34627.927
34979.047
37053.882
35300.963
39873.719
35464.466
20725.024
20949.508
20991.741
21394.41
23480.687
23597.352
24916.713
26116.478
26254.806
26796.382
28485.288
26386.931
27987.87
30320.017
22572.123
10601.039
9819.4232
9358.9786
9972.5919
11511.633
11210.902
13617.116
13381.212
14664.468
16037.033
16920.828
17176.187
18177.451
19506.034
18545.473
650.40848
-216.96069
384.69289
1474.8883
1974.4546
2945.2565
3954.48
5284.2496
5603.2169
7217.6815
8414.4648
8014.3528
9931.8446
10070.938
10050.716
-6418.4872
-10410.915
-8250.4948
-8997.6166
-7263.2953
-7656.2506
-5700.1011
-5728.1468
-4722.2278
-3600.1344
-3087.4579
-2010.2613
-703.42207
-232.47707
789.26133
-17368.722
-19397.145
-17068.541
-17135.434
-16467.411
-14833.691
-14452.915
-13000.707
-13094.116
-10889.832
-9995.468
-11173.53
-6950.9482
-9510.6549
-5150.409
-26523.168
-29316.112
-26474.031
-28634.344
-26838.015
-27459.5
-26024.044
-26154.478
-25463.058
-23443.614
-23703.469
-19759.206
-20311.956
-19021.053
-15827.423
-33760.04
-35215.151
-33354.093
-32042.204
-31100.521
-30456.973
-29946.208
-29483.144
-27687.459
-26557.375
-25736.164
-27119.672
-22373.741
-28408.236
-13625.462
-38024.409
-49366.135
-40040.538
-45618.802
-44620.222
-44081.243
-43827.781
-43999.903
-42685.437
-43925.212
-40910.226
-37785.395
-39234.829
-34281.402
-37782.105
-50120.947
-40676.494
-40381.155
-40040.719
-41445.156
-42819.365
-40431.193
-36695.131
-36415.542
-35023.166
-36250.344
-36036.836
-33965.99
-37751.45
-33629.582
-34556.257
-31782.256
-37628.822
-37311.081
-40142.945
-41656.149
-40271.407
-37970.547
-41876.852
-40406.059
-38101.481
-34757.565
-31548.55
-30567.386
-21491.54
-31212.068
-31267.608
-34797.403
-35715.271
-37572.303
-38326.262
-39101.517
-38640.797
-38690.996
-37356.238
-36176.701
-33918.194
-32610.613
-32144.163
-30291.05
-24298.732
-26278.367
-25010.284
-27091.961
-27520.521
-26693.465
-27748.637
-26819.557
-26457.745
-26742.955
-25505.829
-25529.158
-24587.117
-21653.867
-22843
-28919.353
-32553.389
-32147.094
-33320.403
-33243.993
-34509.698
-34271.414
-34554.961
-34130.17
-33476.944
-32410.517
-30934.819
-30100.577
-28782.537
-26741.864
-29858.897
-30028.341
-28457.096
-30733.264
-30265.489
-30607.78
-31242.821
-30872.761
-30762.347
-30512.173
-29652.884
-28611.813
-27520.783
-25454.467
-25387.504
-29776.656
-31190.059
-31848.65
-32532.916
-32407.452
-33146.11
-32855.813
-32697.489
-32085.26
-31396.277
-30899.54
-29783.686
-29290.864
-27796.819
-25840.027
-30854.704
-31001.729
-31032.784
-31636.5
-30830.76
-31013.59
-31061.293
-30830.013
-30306.333
-30011.8
-28969.863
-28353.254
-27391.492
-25721.115
-25457.226
-31131.456
-31955.852
-31712.851
-32812.725
-32783.253
-33275.578
-32964.633
-32909.591
-32373.403
-32111.694
-31423.275
-30519.724
-29412.328
-28001.546
-26742.371
-32095.294
-31268.944
-31449.409
-31157.828
-30877.96
-30743.468
-30394.801
-30358.22
-29195.244
-29596.509
-28619.804
-27800.908
-27656.199
-26421
-27057.354
-31807.801
-32300.316
-32319.799
-32957.787
-32837.515
-33089.863
-32722.832
-32528.671
-32831.683
-31564.24
-31051.076
-30358.525
-29692.827
-28473.887
-27978.637
-32906.382
-32206.415
-32600.21
-31886.653
-31779.683
-31659.152
-31365.923
-31118.804
-30783.153
-30502.026
-29777.802
-29279.474
-28665.736
-27912.192
-27576.959
-32715.167
-32972.752
-32999.108
-33023.925
-32770.816
-33094.38
-32529.142
-32355.469
-31971.154
-31532.485
-30913.485
-30265.771
-29856.945
-29114.336
-28668.649
-33721.552
-33342.67
-33256.192
-33016.174
-32973.753
-32593.262
-32328.578
-32129.36
-31816.972
-31353.365
-30761.456
-30321.862
-30076.979
-29447.773
-29164.769
-33806.824
-34245.019
-33944.565
-33942.468
-33669.24
-33910.247
-33135.356
-33779.323
-32987.154
-32738.333
-32150.109
-31849.019
-31194.2
-30553.57
-30211.495
-35026.163
-34670.738
-34130.932
-34520.124
-33832.385
-33816.897
-34440.32
-32300.408
-32950.879
-32436.324
-32015.388
-31466.903
-31156.728
-30716.657
-30882.153
-35311.47
-35780.714
-35279.782
-35528.038
-34982.903
-35591.109
-34509.421
-35005.497
-34024.817
-34253.387
-33529.194
-33273.43
-32629.1
-32652.965
-32292.043
-36589.598
-36387.145
-36237.095
-35899.073
-36005.904
-35858.106
-35603.042
-34878.08
-35218.789
-34405.174
-34052.817
-33572.084
-33625.496
-32122.024
-33260.407
-37512.877
-37446.556
-37280.149
-37139.771
-36680.452
-36911.662
-36571.459
-36396.753
-35840.494
-35768.425
-35148.225
-35033.233
-35192.475
-34087.378
-34293.441
-38481.472
-38510.623
-38285.69
-38559.722
-37868.78
-38237.038
-37476.578
-37444.289
-37243.749
-36731.914
-35675.558
-35901.883
-35689.439
-35527.735
-35049.657
-39761.889
-39606.327
-39542.044
-39372
-39284.307
-39335.454
-38573.395
-38425.865
-38234.075
-37882.547
-37856.495
-37278.41
-37680.88
-36719.416
-36579.633
-41069.89
-40985.586
-40807.273
-41039.263
-40334.106
-40290.216
-39888.265
-39917.314
-39588.771
-39108.511
-39280.791
-38360.072
-38475.302
-37453.598
-37296.435
-42292.118
-42175.733
-42218.57
-42074.764
-41881.958
-41769.423
-41421.661
-41264.685
-41175.139
-40130.869
-39985.339
-39862.649
-39647.039
-39113.033
-39235.681
-43760.518
-43570.046
-43523.684
-43636.018
-43142.105
-43375.569
-42965.357
-42815.087
-41899.833
-42779.378
-41263.275
-41314.171
-40023.867
-40468.883
-40066.547
-45181.588
-45072.71
-45052.436
-45023.301
-44610.232
-44764.433
-43845.058
-43917.676
-43540.915
-42955.882
-43528.734
-42183.274
-42256.342
-41303.988
-41712.1
-46488.483
-46740.239
-46293.348
-46561.739
-45845.047
-45840.957
-45502.718
-45514.02
-44912.172
-45120.107
-44279.63
-44191.633
-43365.761
-43403.517
-42598.062
-48328.781
-47961.614
-47828.836
-47823.089
-47408.099
-47551.963
-47172.328
-46875.129
-46676.767
-46033.197
-45582.619
-44569.356
-45116.847
-43757.573
-43837.576
-49432.855
-49657.144
-48949.4
-49533.875
-48620.073
-49046.09
-48330.696
-48309.953
-47794.843
-47596.512
-46889.561
-47137.057
-46085.181
-45760.81
-45584.474
-51178.863
-50617.627
-50525.062
-50619.734
-50244.639
-50181.255
-49509.152
-49550.369
-48986.56
-48703.19
-48182.399
-47735.617
-47544.646
-46703.399
-46187.74
-52163.992
-52233.001
-51877.569
-51899.624
-51234.47
-51456.266
-50958.362
-50899.894
-50503.398
-50142.115
-49668.901
-49425.525
-48587.301
-47817.486
-48016
-53774.213
-52954.439
-52937.544
-53052.451
-52619.219
-52450.467
-52134.265
-52145.107
-51585.857
-51162.807
-50694.209
-50234.114
-50148.802
-48962.457
-48943.661
-54557.582
-54496.769
-53994.344
-54338.759
-53467.718
-54139.713
-52920.159
-53282.652
-52254.371
-52573.329
-51894.137
-51547.461
-51159.252
-50227.497
-50112.323
-55629.038
-55125.816
-55047.898
-55089.439
-54760.41
-54615.092
-54382.539
-54089.83
-53870.188
-53531.528
-53045.58
-52514.708
-52284.379
-50985.066
-51245.986
-56619.934
-56174.103
-55917.1
-56226.456
-55466.464
-55931.328
-55065.963
-55386.636
-54641.971
-54665.002
-53920.571
-53695.507
-53122.655
-52355.79
-52234.575
-57017.73
-56815.885
-56623.192
-56744.418
-56375.382
-56452.42
-56081.167
-56009.47
-55541.619
-55319.592
-54912.42
-54346.269
-54185.131
-52985.229
-53228.129
-57921.244
-57545.972
-57424.299
-57699.325
-57143.14
-57414.815
-56838.308
-56885.633
-56391.279
-56387.865
-55682.355
-55535.297
-54814.144
-54476.474
-53941.156
-57999.826
-58128.761
-57725.877
-58144.397
-57544.091
-57748.446
-57471.124
-57357.422
-57083.045
-56970.002
-56402.938
-55977.632
-55798.212
-54740.468
-55130.931
-58918.778
-58387.679
-58461.036
-58663.433
-58416.068
-58527.285
-58139.19
-58239.077
-57704.823
-57441.871
-57193.47
-56908.871
-56502.254
-55892.654
-55701.032
-58933.797
-58866.521
-58695.202
-59158.219
-58612.301
-58951.28
-58572.763
-58635.868
-58178.603
-58250.507
-57706.7
-57452.503
-57180.314
-56353.674
-56607.763
-59511.467
-59186.494
-59207.445
-59665.317
-59229.53
-59653.346
-59190.793
-59354.064
-58950.629
-58955.724
-58418.696
-58295.924
-57790.893
-57392.207
-57291.943
-59477.349
-59495.102
-59428.127
-59912.819
-59537.402
-59867.819
-59493.718
-59653.584
-59245.33
-59234.001
-58758.08
-58532.666
-58343.348
-57777.085
-57849.577
-59912.172
-59765.031
-59790.174
-60370.79
-59990.034
-60402.91
-60067.745
-60231.183
-59824.159
-59899.75
-59339.451
-59321.145
-58888.252
-58518.126
-58441.525
-59874.634
-60012.434
-59980.325
-60594.383
-60212.636
-60645.641
-60300.93
-60461.366
-60117.509
-60121.335
-59693.143
-59546.067
-59254.301
-58856.854
-58902.415
-60179.502
-60275.932
-60277.685
-60952.02
-60596.531
-61050.49
-60736.01
-60933.827
-60535.393
-60632.67
-60089.874
-60040.7
-59662.639
-59379.212
-59258.204
-60220.502
-60511.597
-60436.857