/*--------------------------------*- C++ -*----------------------------------*\
  =========                 |
  \\      /  F ield         | OpenFOAM: The Open Source CFD Toolbox
   \\    /   O peration     | Website:  https://openfoam.org
    \\  /    A nd           | Version:  6
     \\/     M anipulation  |
\*---------------------------------------------------------------------------*/
FoamFile
{
    version     2.0;
    format      ascii;
    class       pointVectorField;
    location    "1.63";
    object      lm;
}
// * * * * * * * * * * * * * * * * * * * * * * * * * * * * * * * * * * * * * //

dimensions      [1 -2 -1 0 0 0 0];

internalField   nonuniform List<vector> 
28033
(
(-1.780536e-14 4.8656612e-16 1.3104288e-15)
(-5.4375576e-15 3.3318594e-15 9.9433006e-16)
(4840.2222 1148.3201 8.9748148)
(5076.2116 501.24567 -32.685234)
(-1.338461e-14 3.0090723e-15 -2.870051e-16)
(-1.2587315e-14 4.9008913e-15 -4.4266115e-15)
(5130.8669 411.98673 -19.013373)
(4884.3101 1051.4887 -5.1517191)
(-5.6329745e-15 1.0535579e-15 6.7193838e-16)
(-2.4534443e-15 3.0423504e-16 5.8836893e-16)
(-5.4923298e-15 2.4302826e-15 8.9528572e-16)
(-2.6209443e-15 -1.1537891e-15 -6.7979696e-16)
(-7.2548563e-15 1.5542294e-15 1.0013199e-15)
(-4.7613589e-15 -9.2108094e-16 -7.3952737e-16)
(-1.132389e-15 -2.2256662e-17 -6.4484848e-16)
(-7.4239857e-16 -2.4218299e-16 -3.6669977e-16)
(-1.1196198e-15 4.5550132e-16 8.383863e-16)
(-2.3465882e-16 2.2667819e-16 1.4996246e-15)
(-4.0583243e-15 -8.7236639e-16 -1.3429605e-15)
(-5.8237189e-15 8.4462789e-16 7.5519031e-16)
(-5.1611762e-15 1.0100276e-15 9.7613867e-16)
(-1.7679952e-15 -8.1010255e-16 4.5192313e-16)
(-4.4158752e-15 1.0299569e-15 -9.452958e-16)
(4731.3963 1079.3527 6.3445641)
(4594.9783 1006.3135 4.0990253)
(4498.1873 944.11541 1.4694499)
(4457.4803 895.57547 -0.5246796)
(4481.1138 859.90487 -3.0731548)
(4566.6978 835.5637 -5.519951)
(4703.3556 818.65066 -8.264953)
(4871.2688 804.94425 -11.390149)
(5046.7822 789.84918 -14.409467)
(5204.1206 769.73983 -17.681519)
(5320.5864 741.94501 -20.761831)
(5379.8197 705.40289 -23.326683)
(5373.5125 660.51685 -26.300263)
(5304.3646 609.167 -28.568916)
(5189.8764 554.33158 -30.680822)
(2.5362582 23.271384 29.28747)
(-15.488437 34.844317 53.04266)
(-32.035023 50.01203 73.145895)
(-44.054431 68.253 88.77955)
(-51.21335 86.72686 100.62371)
(-52.084639 108.38222 108.02628)
(-46.180064 130.32378 111.69124)
(-33.796666 154.02025 111.55822)
(-14.635203 178.44713 108.13598)
(10.666507 204.18815 101.86842)
(41.770051 230.12786 92.97723)
(78.031889 257.28893 82.643313)
(118.67462 284.31523 71.357816)
(163.06065 312.02862 59.851309)
(210.32499 339.43866 48.89667)
(259.78904 367.15738 39.147479)
(310.64059 394.33031 31.491468)
(362.88689 421.30484 25.908136)
(415.90704 447.70099 22.837749)
(469.38112 473.71662 22.592398)
(523.7102 498.99526 24.85562)
(578.85493 523.60495 29.494366)
(635.25449 547.77493 36.059523)
(693.3858 571.20683 43.968931)
(753.77012 594.16401 52.758822)
(817.02864 616.69981 61.508513)
(883.89767 638.82491 69.633604)
(954.74029 660.77197 76.34333)
(1030.2415 682.35859 81.162681)
(1110.8462 704.09214 83.271138)
(1196.3608 725.35572 82.576487)
(1287.2841 746.70182 78.646981)
(1383.2075 768.00066 71.514043)
(1484.0143 788.95965 61.36161)
(1588.8269 809.71014 48.073206)
(1697.2361 829.83091 32.574772)
(1808.1614 849.34076 15.430937)
(1920.8933 867.97876 -3.0141976)
(2034.1079 885.28008 -22.087212)
(2147.0262 901.38688 -40.590732)
(2258.3405 915.78392 -58.265949)
(2367.2822 928.42153 -74.198463)
(2472.8918 939.02277 -87.939983)
(2574.3605 947.55486 -98.936481)
(2671.006 953.88692 -106.95494)
(2762.4026 958.13387 -111.81604)
(2848.2244 960.2888 -113.50901)
(2928.3885 960.57951 -112.20177)
(3002.9202 959.156 -108.18934)
(3072.0751 956.35895 -101.88825)
(3136.1831 952.45963 -93.816945)
(3195.7535 947.87039 -84.545327)
(3251.3343 942.93653 -74.68673)
(3303.5729 938.08145 -64.839039)
(3353.1094 933.66336 -55.573304)
(3400.6028 930.05099 -47.383828)
(3446.6593 927.54158 -40.679097)
(3491.8316 926.40212 -35.755098)
(3536.5865 926.79604 -32.777603)
(3581.2947 928.8438 -31.78366)
(3626.212 932.5482 -32.701054)
(3671.4786 937.87568 -35.310549)
(3717.1608 944.63186 -39.301984)
(3763.1591 952.65024 -44.383187)
(3809.3675 961.62066 -49.970617)
(3855.4716 971.20509 -55.734711)
(3901.417 981.13506 -61.277258)
(3946.6977 990.93752 -66.079951)
(3991.0201 1000.2946 -69.809948)
(4034.0741 1009.0502 -72.277759)
(4075.6053 1016.8271 -73.127325)
(4115.3524 1023.3995 -72.401509)
(4153.1548 1028.7255 -70.123148)
(4188.8609 1032.723 -66.351229)
(4222.4247 1035.4923 -61.276551)
(4253.875 1037.0773 -55.122419)
(4283.2869 1037.7462 -48.217818)
(4310.8723 1037.6993 -40.880113)
(4336.7794 1037.2574 -33.446199)
(4361.4158 1036.6908 -26.244577)
(4384.9928 1036.4889 -19.620573)
(4407.8589 1036.6986 -13.655667)
(4430.4293 1037.8446 -8.7719522)
(4453.0396 1040.0067 -4.8935982)
(4475.885 1043.3326 -2.1221546)
(4499.2465 1048.1517 -0.34325899)
(4523.3862 1054.0703 0.49037134)
(4548.3769 1061.4196 0.75246503)
(4574.3497 1069.6712 0.46536738)
(4601.1169 1078.8753 0.39480974)
(4628.745 1088.5991 0.011561818)
(4657.2789 1098.4007 0.87191736)
(4685.8236 1108.6231 1.4865921)
(4715.3585 1117.5027 3.9637694)
(4742.9376 1125.2963 6.2783962)
(-0.16493946 -20.472926 -30.223022)
(-4.0077269 -32.800885 -35.077886)
(-15.206259 -52.550026 -53.933271)
(-21.84382 -72.972402 -61.956971)
(-20.912999 -98.794285 -70.964793)
(-16.385594 -126.06721 -77.77461)
(-5.129199 -153.74644 -83.901431)
(11.354565 -182.58426 -89.169138)
(34.18485 -210.83897 -93.955102)
(62.041548 -238.35775 -98.203258)
(95.61565 -264.73486 -101.94773)
(134.05651 -289.46769 -105.01211)
(177.13374 -312.28392 -107.3482)
(224.5618 -333.24777 -108.87418)
(275.65025 -351.96055 -109.39359)
(330.40826 -368.93274 -108.88689)
(388.19313 -383.91182 -107.0672)
(448.71705 -397.31894 -104.23192)
(511.95721 -409.4627 -100.03259)
(577.49109 -420.4594 -94.624344)
(645.25171 -430.66135 -88.33408)
(715.40538 -440.44237 -80.803436)
(787.49459 -449.68963 -72.760562)
(862.07232 -458.8695 -63.988071)
(938.88686 -467.78756 -54.842004)
(1018.1272 -476.52302 -45.704037)
(1099.8165 -484.86786 -36.655883)
(1184.1136 -492.65723 -27.899232)
(1270.9246 -499.45024 -19.74916)
(1360.3275 -505.04579 -12.176704)
(1452.1555 -508.85911 -5.476853)
(1546.3736 -510.6359 0.45173593)
(1642.6174 -509.78842 5.4917811)
(1740.7271 -505.99655 9.746074)
(1840.2146 -498.92455 13.325872)
(1940.7602 -488.20776 16.143209)
(2041.791 -473.74866 18.790862)
(2142.9002 -455.4928 21.055372)
(2243.4626 -433.48775 23.217248)
(2342.9881 -407.82671 25.419579)
(2440.883 -378.85277 27.781423)
(2536.6949 -346.92968 30.398932)
(2629.8566 -312.53651 33.271746)
(2720.0083 -276.22689 36.402337)
(2806.7133 -238.59476 39.691016)
(2889.7362 -200.2684 43.027042)
(2968.8134 -161.87186 46.221064)
(3043.8696 -124.00428 49.079977)
(3114.8346 -87.220409 51.362034)
(3181.8062 -52.003547 52.84415)
(3244.9047 -18.753128 53.29032)
(3304.3881 12.229045 52.51053)
(3360.5411 40.746172 50.339609)
(3413.7499 66.711662 46.68051)
(3464.4157 90.139675 41.492776)
(3513.0041 111.14966 34.816721)
(3559.9752 129.93942 26.764775)
(3605.8122 146.78693 17.530932)
(3650.9707 162.01504 7.3749803)
(3695.888 175.98955 -3.3778926)
(3740.9478 189.07713 -14.35957)
(3786.4832 201.64852 -25.173035)
(3832.7475 214.03604 -35.418043)
(3879.9137 226.53073 -44.701412)
(3928.064 239.36763 -52.695514)
(3977.1999 252.69361 -59.08628)
(4027.1551 266.59006 -63.699085)
(4077.7931 281.09848 -66.440354)
(4128.8102 296.10248 -67.27114)
(4179.7879 311.48109 -66.292552)
(4230.4538 326.92426 -63.728301)
(4280.1971 342.39824 -59.871909)
(4328.7733 357.46638 -55.076849)
(4375.6939 371.9042 -49.708517)
(4420.6099 385.43554 -44.254367)
(4463.2492 397.83326 -39.089281)
(4503.4164 408.90175 -34.605414)
(4541.0333 418.50787 -31.126172)
(4576.1103 426.58623 -28.882688)
(4608.7778 433.14736 -28.023422)
(4639.2862 438.26816 -28.561403)
(4667.9085 442.10863 -30.448208)
(4695.0547 444.87607 -33.478434)
(4721.1127 446.84417 -37.413446)
(4746.5374 448.30343 -41.879141)
(4771.7242 449.58306 -46.511816)
(4797.0821 450.98765 -50.860872)
(4822.9156 452.82525 -54.530029)
(4849.486 455.33674 -57.106443)
(4876.9398 458.73895 -58.282418)
(4905.3189 463.12935 -57.78485)
(4934.5481 468.57299 -55.511089)
(4964.3795 475.06573 -51.533806)
(4994.5042 482.28912 -45.953475)
(5033.3573 491.3165 -39.469986)
(3.2927448e-15 -1.3239155e-15 2.3845803e-16)
(2.4470133e-15 -9.6672015e-16 3.215493e-17)
(-9.0574249e-15 9.0550918e-16 6.4029168e-16)
(-1.2642219e-16 -5.721845e-16 4.4370095e-16)
(-7.6811722e-15 -4.9270561e-16 4.1193361e-16)
(-7.3893964e-15 2.7533729e-15 -1.0951501e-15)
(-3.2915852e-15 -8.1743692e-16 3.8364228e-16)
(-1.9032499e-15 5.3200654e-16 -8.2319016e-17)
(-4.7409759e-15 -4.8623412e-16 4.3918642e-16)
(-1.2869644e-14 1.1845665e-15 6.4228907e-16)
(-9.6157521e-15 1.4157374e-15 5.9836601e-16)
(-9.4077204e-15 4.9518432e-16 1.1192419e-15)
(-5.982767e-15 2.6210694e-16 3.0473736e-16)
(-1.1478475e-14 -5.3386198e-16 1.6580808e-15)
(-5.257323e-15 3.6289085e-16 2.8600704e-16)
(14.429316 -10.887823 26.865027)
(6.3248247 -50.540161 50.816684)
(-8.1899067 -55.488717 66.498567)
(-9.9892996 -90.386181 83.7276)
(-12.35977 -110.56407 93.312881)
(-4.5473796 -140.57065 101.13421)
(6.8754073 -167.93164 105.38424)
(27.002979 -197.62842 107.61743)
(52.257576 -226.70302 106.54027)
(84.580269 -256.71367 104.19782)
(122.40538 -285.1905 99.606664)
(165.83192 -314.11209 94.650077)
(213.48293 -341.75372 88.088372)
(265.98935 -368.8119 82.56833)
(320.71922 -394.51123 76.38651)
(378.84938 -419.18695 72.073245)
(439.79452 -443.36939 69.023213)
(500.40724 -465.19435 66.868717)
(564.74855 -486.98894 67.547969)
(627.62609 -506.10414 69.236736)
(693.15513 -524.83758 73.031381)
(759.59196 -542.56387 78.502696)
(826.76588 -557.80452 84.656532)
(895.68451 -571.54794 91.456604)
(966.54335 -584.1336 98.442813)
(1039.9536 -593.9463 104.67582)
(1115.0196 -603.03928 109.85181)
(1195.352 -609.148 113.69772)
(1276.2838 -612.99724 114.57128)
(1363.7464 -614.94012 113.67542)
(1453.9174 -614.08779 109.51666)
(1547.8572 -610.37964 102.54898)
(1645.4982 -604.14825 92.568675)
(1746.1992 -594.87509 79.826681)
(1852.5701 -584.4941 65.116473)
(1952.213 -566.71237 47.487826)
(2062.9687 -551.50065 28.862105)
(2170.6685 -531.54902 9.502913)
(2277.935 -509.55239 -9.9724501)
(2384.0258 -485.30061 -28.996364)
(2487.933 -459.2706 -46.762515)
(2588.8392 -431.54694 -62.775428)
(2686.0182 -402.55353 -76.462178)
(2778.817 -372.45823 -87.490226)
(2866.788 -341.65833 -95.557108)
(2949.5865 -310.34736 -100.59722)
(3027.0963 -278.87967 -102.61313)
(3099.3212 -247.45146 -101.81542)
(3166.475 -216.35994 -98.487313)
(3228.884 -185.78497 -93.066115)
(3287.0346 -155.96151 -86.032055)
(3341.4879 -127.03818 -77.951517)
(3392.9021 -99.187747 -69.382971)
(3441.9526 -72.520822 -60.894853)
(3489.3416 -47.146682 -52.999975)
(3535.7331 -23.131133 -46.152105)
(3581.7502 -0.52351988 -40.709377)
(3627.9325 20.662484 -36.927966)
(3674.7284 40.436792 -34.951086)
(3722.4725 58.838337 -34.797803)
(3771.3797 75.934411 -36.386438)
(3821.5398 91.816201 -39.520709)
(3872.9209 106.59702 -43.922018)
(3925.3703 120.41417 -49.249315)
(3978.6283 133.41242 -55.096678)
(4032.3442 145.74956 -61.059198)
(4086.1364 157.60697 -66.654454)
(4141.573 168.85032 -71.680784)
(4189.6115 180.73354 -75.113428)
(4242.9117 191.34389 -78.244946)
(4292.1142 202.78546 -78.933337)
(4339.0348 213.94432 -78.386987)
(4383.5312 225.32058 -76.011021)
(4425.1995 236.77209 -72.041178)
(4464.0661 248.2821 -66.69829)
(4500.1627 259.79166 -60.178684)
(4533.601 271.18755 -52.833884)
(4564.6816 282.3753 -45.039307)
(4593.7529 293.2211 -37.178825)
(4621.2504 303.61291 -29.647196)
(4647.649 313.42995 -22.801089)
(4673.4473 322.58876 -16.942735)
(4699.1043 331.0157 -12.306289)
(4725.0632 338.68516 -9.0241585)
(4751.6574 345.59341 -7.1411113)
(4779.1627 351.79623 -6.5932306)
(4807.7168 357.36234 -7.2230137)
(4837.3659 362.43256 -8.7902184)
(4868.0306 367.13846 -10.983629)
(4899.5325 371.6928 -13.460069)
(4931.6156 376.27635 -15.851548)
(4963.9272 381.15287 -17.83779)
(4996.1489 386.53688 -19.112369)
(5027.7809 392.80362 -19.631282)
(5049.0069 399.30052 -19.28789)
(5259.0745 466.80833 -20.674237)
(5382.3338 522.28823 -21.874024)
(5430.3305 572.39725 -22.523875)
(5427.2532 617.78635 -23.039686)
(5363.5244 655.80834 -22.83071)
(5232.5115 684.36718 -22.466704)
(5079.6272 707.71426 -21.395351)
(4916.8218 726.86198 -20.121242)
(4726.0076 738.95642 -18.391752)
(4585.1797 755.61855 -16.550876)
(4518.5744 782.70126 -14.31067)
(4502.2641 817.41344 -12.818556)
(4545.7607 863.38133 -10.253355)
(4655.6746 922.76873 -8.7819488)
(4814.1059 995.00825 -6.8604323)
(4804.3367 1033.7161 -9.8130789)
(4783.3329 1028.6975 -14.623221)
(4754.6469 1021.8761 -18.639219)
(4726.577 1014.7191 -21.823123)
(4699.8967 1007.2284 -23.126079)
(4674.3738 999.45268 -23.242568)
(4650.288 991.3999 -21.89136)
(4627.5072 983.20233 -19.43613)
(4605.8049 974.93536 -16.155782)
(4584.8596 966.73178 -12.398986)
(4564.2458 958.75268 -8.6119015)
(4543.4944 951.04622 -5.1393041)
(4522.1024 943.81334 -2.3487539)
(4499.6791 937.08798 -0.44374641)
(4475.7087 931.0002 0.28967865)
(4449.758 925.49844 -0.27856034)
(4421.4783 920.61102 -2.3172502)
(4390.6501 916.32249 -5.6610264)
(4357.1841 912.52825 -10.18208)
(4321.0752 909.15231 -15.627024)
(4282.4518 906.0475 -21.659349)
(4241.5569 903.08804 -27.896671)
(4198.7013 900.10855 -33.946118)
(4154.2418 896.9621 -39.436942)
(4108.6211 893.57956 -43.90354)
(4062.425 889.72763 -47.079406)
(4017.5342 885.53067 -48.437454)
(3968.5908 879.87576 -48.597096)
(3923.016 875.07714 -46.645514)
(3877.8339 868.92241 -42.900072)
(3833.1808 862.44224 -37.439336)
(3789.3659 855.63138 -30.490841)
(3746.3009 848.59963 -22.339514)
(3703.7531 841.57762 -13.313705)
(3661.4273 834.7644 -3.7916661)
(3618.9168 828.38817 5.8430892)
(3575.7513 822.66721 15.200666)
(3531.39 817.82357 23.936366)
(3485.2792 814.03284 31.747142)
(3436.8408 811.45097 38.394195)
(3385.5327 810.16601 43.723355)
(3330.8386 810.22157 47.654666)
(3272.3201 811.57454 50.197771)
(3209.6058 814.1285 51.431589)
(3142.431 817.69011 51.512992)
(3070.6258 822.01936 50.633368)
(2994.1364 826.78125 49.040684)
(2913.0171 831.62036 46.97274)
(2827.4338 836.0995 44.689398)
(2737.6425 839.79956 42.404296)
(2644.033 842.26939 40.312102)
(2546.9921 843.03412 38.56514)
(2447.1103 841.82381 37.198683)
(2344.8865 838.12301 36.363224)
(2240.9233 831.75637 35.844583)
(2135.885 822.55646 35.651123)
(2030.4744 810.39231 35.683164)
(1929.8852 796.82115 35.681966)
(1818.3662 776.97273 35.284324)
(1716.8354 756.89609 34.641022)
(1618.7091 735.34469 33.690431)
(1514.4784 709.32544 31.721743)
(1418.8047 683.08237 28.720175)
(1324.6538 656.02897 25.144179)
(1235.3343 629.39047 20.323335)
(1145.1036 600.60564 14.814758)
(1061.7687 574.07613 7.8676351)
(979.08313 546.74059 0.71494464)
(900.79625 521.29274 -7.4434491)
(825.51357 497.35906 -16.001804)
(752.86498 474.62791 -24.78502)
(683.37633 453.67642 -33.678844)
(616.63546 433.255 -42.239047)
(551.91562 415.15628 -50.545464)
(489.93182 397.18699 -58.148932)
(430.97127 380.43715 -65.296132)
(373.51267 363.5025 -71.225802)
(319.82896 347.5687 -76.732964)
(267.43532 330.15208 -80.900892)
(219.24312 312.81036 -84.396379)
(173.71753 295.43062 -87.000635)
(131.28451 276.25726 -88.691958)
(92.427608 254.74888 -89.192057)
(58.312967 234.54267 -89.670782)
(28.037074 212.27946 -89.077101)
(2.0683875 188.29042 -87.438617)
(-18.191741 165.5001 -85.841799)
(-33.809059 141.9301 -82.944263)
(-44.248542 118.31868 -79.324403)
(-48.930636 95.829286 -74.273141)
(-48.96798 74.150802 -68.166308)
(-41.779896 54.175647 -59.977529)
(-32.281175 39.273101 -50.767454)
(-15.608561 22.55062 -34.139614)
(6.3060219 12.767627 -12.798216)
(-6.8708141e-15 1.5083581e-15 1.9262289e-16)
(-1.2504183e-14 5.7375616e-16 8.4327435e-16)
(-8.3449101e-15 1.4891922e-15 5.3018253e-16)
(-4.9731758e-15 1.4991158e-15 6.2376313e-16)
(-3.4146159e-15 1.5624416e-15 3.1576894e-17)
(2.0582335e-15 9.3962624e-16 -5.746342e-16)
(2.2101935e-15 3.7457559e-17 -1.1841335e-16)
(2.4553765e-15 -8.5141669e-16 -9.3419562e-16)
(1.2987427e-15 1.0081898e-16 1.7950851e-15)
(-4.5074861e-15 9.063971e-16 1.0710522e-15)
(-5.2682467e-15 2.1856155e-15 1.0652666e-15)
(-7.4917339e-15 1.915055e-15 2.2418828e-16)
(-9.400838e-15 1.3708275e-15 6.2833768e-16)
(-6.2048683e-15 1.3247981e-15 5.4317906e-16)
(-6.971104e-15 1.5128103e-15 7.5678131e-16)
(-1.2693866e-14 6.2923345e-15 -2.1364834e-15)
(-5.2452578e-15 2.6791924e-15 -5.3037742e-16)
(-1.0752404e-15 9.8318743e-16 -1.0111087e-16)
(-2.7353382e-15 1.7746034e-15 7.3085398e-17)
(1.0178949e-15 -1.5450237e-16 -4.119182e-16)
(-1.4303492e-15 4.136346e-16 -3.3264033e-16)
(-1.0059749e-14 4.7133437e-15 -1.6449855e-15)
(2.9801421e-15 -1.9180379e-15 -8.3172098e-16)
(-4.79756e-15 2.8035442e-15 1.1420498e-15)
(-5.4778068e-15 3.5047253e-15 -3.934403e-16)
(-1.8117877e-15 1.1581936e-15 -9.1309836e-16)
(-3.9812639e-16 4.7407236e-16 -2.2932148e-16)
(-1.5272242e-15 1.100363e-15 -2.2557932e-16)
(-4.1024849e-15 1.9838802e-15 2.8069696e-17)
(-5.3424143e-16 2.551799e-16 -1.9455919e-16)
(5080.3525 495.46042 -33.22227)
(5085.0874 490.58101 -32.345398)
(5089.9366 485.15005 -30.5379)
(5095.5664 478.97317 -28.213985)
(5101.366 472.07662 -25.610878)
(5107.4304 464.5286 -23.07251)
(5113.4131 456.49316 -20.745662)
(5118.9741 448.41883 -18.839017)
(5123.9141 440.50703 -17.443667)
(5127.9526 433.18165 -16.569537)
(5130.8571 426.74352 -16.300032)
(5132.6862 421.35464 -16.424331)
(5133.268 417.10981 -17.017491)
(5132.9893 414.57571 -17.59926)
(5131.7473 412.45245 -18.829706)
(4843.4493 1146.3781 9.6409021)
(4847.3691 1143.3856 10.438966)
(4851.0885 1139.2679 10.898049)
(4854.6013 1133.8028 11.25759)
(4857.7465 1127.0335 11.267055)
(4860.5674 1119.1805 10.811736)
(4863.0398 1110.5595 9.8283843)
(4865.2574 1101.5213 8.3395813)
(4867.2728 1092.5138 6.393575)
(4869.2159 1083.9304 4.1090115)
(4871.1794 1076.1324 1.6344465)
(4873.2662 1069.4078 -0.77358448)
(4875.5987 1063.8333 -2.9121717)
(4878.2794 1059.5462 -4.5780976)
(4881.2271 1055.6837 -5.1791158)
(-3.5831868 29.39385 30.966401)
(-19.540002 41.507313 45.569066)
(-36.604077 56.614496 61.837859)
(-48.04038 70.002254 73.302899)
(-57.133535 82.993875 84.121177)
(-58.664413 97.5301 90.077366)
(-55.292197 112.34569 94.246822)
(-44.554933 128.7731 94.57095)
(-28.377751 146.03924 92.66678)
(-5.6226322 164.76715 88.047329)
(22.73545 184.40072 81.393967)
(56.422856 205.64427 73.172905)
(94.619891 227.65425 63.961189)
(136.81732 250.99946 54.281133)
(182.36278 274.93242 44.807826)
(230.63932 299.83041 36.149118)
(280.95076 325.12483 28.894849)
(332.72069 350.59939 23.285763)
(385.90849 376.1508 19.852684)
(440.13561 401.67915 18.628112)
(495.27729 426.57988 19.852121)
(551.63573 451.06044 23.152773)
(609.39649 474.91435 28.42134)
(668.9856 497.85619 35.298556)
(731.08035 520.12068 43.089946)
(796.11437 541.58077 51.338461)
(864.8466 562.19492 59.355862)
(937.89384 582.34412 66.498217)
(1015.8375 601.90768 72.022586)
(1099.1274 621.10092 75.45142)
(1188.0791 640.29451 76.31484)
(1282.864 659.39026 74.302006)
(1383.3202 678.60338 69.211172)
(1489.1744 697.95018 61.146008)
(1599.8425 717.67567 49.954951)
(1714.6429 737.41471 36.432609)
(1832.6397 757.44468 21.036767)
(1952.6789 777.30481 4.0203137)
(2073.7074 796.88454 -13.59816)
(2194.478 816.01812 -31.183054)
(2313.6543 834.25491 -48.047575)
(2430.1129 851.2057 -63.562152)
(2542.8306 866.96601 -76.850463)
(2650.862 880.86734 -87.731868)
(2753.2716 892.8714 -95.722246)
(2849.6045 902.76282 -100.67909)
(2939.4605 910.47179 -102.59053)
(3022.7062 915.98796 -101.60529)
(3099.3966 919.39349 -98.034651)
(3169.8043 920.86488 -92.301236)
(3234.3398 920.6458 -84.933898)
(3293.5865 919.05735 -76.50893)
(3348.1961 916.46605 -67.64055)
(3398.9106 913.28049 -58.912708)
(3446.4694 909.91229 -50.873184)
(3491.6153 906.77357 -43.978041)
(3535.0226 904.24159 -38.592994)
(3577.3014 902.64453 -34.948928)
(3618.9458 902.23811 -33.156265)
(3660.3384 903.20792 -33.195923)
(3701.7351 905.6372 -34.935473)
(3743.2675 909.53121 -38.107539)
(3784.948 914.7903 -42.412425)
(3826.6868 921.21259 -47.452482)
(3868.2802 928.67824 -52.769387)
(3909.5013 936.73238 -58.010756)
(3950.0856 945.15105 -62.801613)
(3989.7142 953.73336 -66.741506)
(4027.9728 961.73552 -69.651859)
(4064.6258 969.32206 -71.139182)
(4099.4302 975.98505 -71.079787)
(4132.1833 981.58364 -69.665087)
(4162.7226 986.04127 -66.830135)
(4190.9727 989.32143 -62.729697)
(4216.9551 991.44015 -57.563108)
(4240.7712 992.47129 -51.570455)
(4262.562 992.63625 -45.074497)
(4282.5998 992.06937 -38.327015)
(4301.1396 991.12879 -31.67259)
(4318.5638 989.96783 -25.337726)
(4335.1778 989.01267 -19.604172)
(4351.4087 988.37805 -14.59407)
(4367.6091 988.39091 -10.493344)
(4384.1887 989.23916 -7.4041931)
(4401.3812 991.1875 -5.1939262)
(4419.5131 994.10468 -3.8637156)
(4438.7099 998.22551 -3.1471209)
(4459.1505 1003.4096 -2.960832)
(4480.9775 1009.6516 -2.9936684)
(4503.8306 1016.6671 -3.0183919)
(4528.2824 1024.5271 -2.8120299)
(4553.4839 1032.5278 -2.0274147)
(4579.8433 1041.081 -0.83783215)
(4607.2155 1049.0821 1.4693419)
(4643.8381 1058.7292 3.969446)
(-12.481521 26.665475 28.129557)
(-28.105404 33.001452 41.302092)
(-40.039019 50.330074 51.953142)
(-52.96562 59.387853 62.877199)
(-59.801291 71.216058 70.3737)
(-63.276674 81.784694 75.847371)
(-59.94737 93.312765 79.015389)
(-51.894922 105.22884 79.981096)
(-37.19282 117.97973 78.67298)
(-17.067848 132.0187 75.212696)
(8.8316385 147.07701 70.110895)
(39.865483 163.77292 63.432825)
(75.69449 181.62475 55.880474)
(115.85451 201.01822 47.653336)
(159.63107 221.58717 39.566432)
(206.59673 243.45528 31.796306)
(256.04858 266.13074 25.094713)
(307.76115 289.66472 19.682302)
(361.18845 313.5833 16.094125)
(416.18162 337.72709 14.336662)
(472.56409 361.76456 14.753792)
(530.53041 385.50881 17.120263)
(590.20352 408.62403 21.495075)
(652.02172 431.00565 27.367846)
(716.41605 452.433 34.481573)
(784.05201 473.04815 42.216537)
(855.47607 492.63953 50.115649)
(931.42961 511.42709 57.378941)
(1012.4867 529.4565 63.564869)
(1099.2015 547.09889 67.929942)
(1191.8943 564.34062 70.1295)
(1290.7635 581.63584 69.60827)
(1395.7724 599.09718 66.256986)
(1506.6738 617.08684 59.917282)
(1622.9572 635.58071 50.779202)
(1743.9118 654.83915 38.979518)
(1868.3067 674.77148 25.112335)
(1995.2369 695.22052 9.7055726)
(2123.3131 716.15153 -6.7124573)
(2251.1203 737.21537 -23.288053)
(2377.335 758.13254 -39.321695)
(2500.5399 778.39551 -54.218886)
(2619.5584 797.83038 -67.154654)
(2733.186 815.80557 -77.650358)
(2840.5939 832.10618 -85.542231)
(2941.0596 846.35074 -90.490245)
(3034.1681 858.31949 -92.533509)
(3119.7356 867.87053 -91.782142)
(3197.8323 874.96845 -88.593561)
(3268.7423 879.7033 -83.359964)
(3332.9485 882.24744 -76.652388)
(3391.095 882.89686 -69.026213)
(3443.9254 882.00392 -61.110221)
(3492.263 879.99806 -53.459693)
(3536.9355 877.32519 -46.606521)
(3578.7569 874.45617 -40.964462)
(3618.4701 871.82022 -36.849824)
(3656.728 869.81747 -34.435342)
(3694.0573 868.76529 -33.778561)
(3730.8627 868.91015 -34.797803)
(3767.4033 870.38437 -37.296519)
(3803.7989 873.23548 -40.997296)
(3840.0732 877.3954 -45.528582)
(3876.0808 882.71125 -50.544454)
(3911.6929 889.04453 -55.522657)
(3946.5927 895.8536 -60.295607)
(3981.9376 903.32486 -64.199918)
(4016.7483 910.8623 -67.238968)
(4048.9789 918.30378 -69.097998)
(4079.1974 925.14461 -69.607138)
(4107.3199 931.1144 -68.753719)
(4133.2641 936.02127 -66.600726)
(4156.8257 939.86393 -63.243604)
(4178.0636 942.47839 -58.864644)
(4197.0569 943.94362 -53.669292)
(4213.9456 944.31382 -47.919976)
(4228.9677 943.78542 -41.896357)
(4242.4201 942.50003 -35.833135)
(4254.6281 940.77436 -30.028769)
(4265.9916 938.75517 -24.62765)
(4276.8892 936.88666 -19.88217)
(4287.741 935.19823 -15.822091)
(4298.8706 934.2 -12.603758)
(4299.5126 931.66419 -10.026758)
(4305.6247 931.00174 -8.2261762)
(4319.2805 932.66914 -7.2544928)
(4334.4714 935.44799 -6.7068788)
(4351.251 939.38461 -6.4872144)
(4369.8259 944.36509 -6.392048)
(4389.9219 950.37841 -6.077642)
(4411.945 957.15841 -5.694398)
(4435.4963 964.48208 -4.4706828)
(4460.3528 972.46327 -3.2558227)
(4487.2764 980.09387 -0.67463016)
(4522.2575 989.36422 1.5101627)
(-17.732741 20.743892 26.178231)
(-32.016688 28.14311 35.077133)
(-46.543372 40.566481 44.973334)
(-56.408081 49.89812 52.810615)
(-63.761789 58.337926 59.097013)
(-65.986849 67.408133 62.989147)
(-63.828561 75.696565 66.149065)
(-55.969958 84.72151 66.762951)
(-42.739783 94.040823 65.732094)
(-23.953243 104.7863 63.00535)
(0.36058799 116.20654 58.696252)
(29.769282 129.34745 53.146014)
(64.213833 143.62354 46.554502)
(102.92831 159.64525 39.552676)
(145.73443 176.91253 32.34321)
(191.96539 195.65286 25.429419)
(241.25368 215.55847 19.341165)
(293.05486 236.44936 14.331416)
(347.09439 258.06647 10.846464)
(403.07576 280.11866 9.0226458)
(460.92602 302.31838 9.1618142)
(520.62251 324.32632 11.137952)
(582.33462 345.88651 14.947739)
(646.38219 366.79245 20.33813)
(713.25073 386.82814 26.977537)
(783.4225 405.93321 34.415124)
(857.56592 423.97975 42.119492)
(936.28093 441.17114 49.5219)
(1020.1929 457.53353 55.997865)
(1109.8314 473.30504 61.025714)
(1205.5785 488.81562 64.01064)
(1307.642 504.30622 64.634059)
(1416.0744 520.12908 62.562819)
(1530.534 536.54152 57.704548)
(1650.5472 553.84378 50.04279)
(1775.3219 572.1359 39.886514)
(1903.8273 591.583 27.577198)
(2034.8615 612.07773 13.601201)
(2167.0621 633.51633 -1.3798902)
(2298.953 655.70131 -16.638077)
(2429.0682 678.2094 -31.588563)
(2555.9146 700.67686 -45.468743)
(2678.1236 722.61491 -57.617543)
(2794.547 743.53192 -67.528914)
(2904.1983 762.92806 -74.973718)
(3006.3035 780.4338 -79.69572)
(3100.4109 795.692 -81.68563)
(3186.3234 808.44375 -81.097211)
(3264.1072 818.58462 -78.24205)
(3334.0766 826.1097 -73.547578)
(3396.7542 831.15342 -67.547614)
(3452.8313 833.96204 -60.79777)
(3503.1145 834.87907 -53.894044)
(3548.4858 834.32746 -47.363932)
(3589.8353 832.77503 -41.700791)
(3628.0351 830.70828 -37.269918)
(3663.8761 828.59499 -34.338226)
(3698.0529 826.86911 -33.03364)
(3731.1287 825.88539 -33.363269)
(3763.5298 825.92372 -35.195517)
(3795.5294 827.14702 -38.320812)
(3827.2687 829.63488 -42.415137)
(3858.7518 833.34112 -47.130055)
(3889.8703 838.1669 -52.092178)
(3920.4791 843.84433 -56.819683)
(3950.3 850.21236 -61.199634)
(3977.9432 856.43836 -64.410454)
(4015.2852 865.85343 -67.383805)
(4040.4387 872.06992 -68.536543)
(4065.1305 878.00716 -68.464922)
(4087.6199 883.08324 -67.016269)
(4107.9629 887.17946 -64.402259)
(4126.0137 890.20105 -60.742574)
(4141.8604 892.11742 -56.199367)
(4155.6128 892.95681 -51.021903)
(4167.4771 892.78497 -45.458329)
(4177.7129 891.78265 -39.787632)
(4186.6611 890.10959 -34.221288)
(4194.6799 888.03784 -29.011663)
(4202.1764 885.76318 -24.285547)
(4209.5292 883.57767 -20.248949)
(4217.2145 881.67529 -16.860796)
(4225.5103 880.36934 -14.328347)
(4234.8613 879.70931 -12.38662)
(4229.0885 876.1895 -11.451494)
(4241.2504 877.51366 -10.611662)
(4255.3561 879.88748 -10.268345)
(4271.4724 883.4422 -10.080271)
(4289.6693 888.0984 -9.8860204)
(4309.7502 893.69689 -9.4958399)
(4332.236 900.29382 -8.8453083)
(4356.4028 907.36522 -7.5307953)
(4382.5109 915.2645 -5.9658316)
(4411.0232 922.98848 -3.496494)
(4445.3178 931.78072 -0.97092731)
(-21.337067 18.274678 22.487103)
(-37.965177 23.007344 30.473211)
(-50.372918 33.231681 37.44583)
(-61.082726 39.973208 44.405269)
(-66.88949 46.474981 49.111695)
(-69.627905 53.356026 52.633871)
(-66.558746 59.565991 54.903824)
(-59.133972 66.014347 55.125706)
(-45.857683 73.080046 54.236968)
(-27.382514 80.921216 51.539762)
(-3.4272492 89.678805 47.793259)
(25.737197 99.840141 42.606577)
(59.789851 111.2889 36.90785)
(98.455207 124.33308 30.506235)
(141.23544 138.69364 24.100509)
(187.76111 154.67107 17.891958)
(237.46915 171.73871 12.496515)
(290.09326 190.04518 7.9431568)
(345.13796 209.03745 4.9141597)
(402.51378 228.70212 3.32289)
(461.91376 248.46272 3.5831207)
(523.48468 268.25993 5.4867393)
(587.25326 287.55749 9.2115511)
(653.61019 306.34534 14.346172)
(722.83853 324.1464 20.751703)
(795.54373 341.12582 27.895743)
(872.19898 356.99527 35.408027)
(953.4876 372.03349 42.635073)
(1039.8903 386.16152 49.149723)
(1131.9796 399.85288 54.295849)
(1230.034 413.17393 57.66712)
(1334.3178 426.6641 58.856972)
(1444.6944 440.52327 57.551478)
(1560.9763 455.2497 53.677865)
(1682.5501 471.02469 47.208542)
(1808.7141 488.15434 38.435947)
(1938.2892 506.80985 27.569943)
(2070.1187 527.00369 15.154026)
(2202.9228 548.58663 1.8267872)
(2335.1633 571.04885 -11.997167)
(2465.2441 594.40328 -25.391768)
(2591.8749 618.02481 -37.836613)
(2713.5589 641.51905 -48.804264)
(2829.1427 664.26589 -57.761264)
(2937.6537 685.78298 -64.450369)
(3038.3779 705.57852 -68.675597)
(3130.8323 723.24827 -70.46726)
(3214.8299 738.46008 -69.946011)
(3290.4559 751.04024 -67.445423)
(3358.0334 760.93047 -63.352373)
(3418.1061 768.20765 -58.17554)
(3471.3792 773.08128 -52.429664)
(3518.6858 775.86097 -46.660639)
(3560.9228 776.95618 -41.345246)
(3599.0108 776.81793 -36.921365)
(3633.8393 775.93923 -33.695822)
(3666.2266 774.79394 -31.893721)
(3696.8932 773.83168 -31.591986)
(3726.4261 773.42638 -32.759789)
(3755.2753 773.88242 -35.25089)
(3783.7424 775.38712 -38.827298)
(3811.9841 778.05679 -43.17591)
(3840.0321 781.85373 -47.962466)
(3867.8329 786.7154 -52.771738)
(3895.1191 792.39791 -57.326025)
(3921.8574 798.77388 -61.19354)
(3947.5219 805.46391 -64.28163)
(3971.938 811.9683 -66.221417)
(3995.1533 818.4381 -66.93334)
(4016.5129 824.23577 -66.299019)
(4035.9667 829.38735 -64.639583)
(4053.5605 833.48439 -61.864817)
(4069.1461 836.58987 -58.178826)
(4082.8386 838.62626 -53.753683)
(4094.7783 839.58084 -48.877439)
(4105.1556 839.56922 -43.744553)
(4114.269 838.74601 -38.614125)
(4122.4255 837.26729 -33.668133)
(4130.0249 835.4054 -29.118953)
(4137.4122 833.33263 -25.081059)
(4145.0744 831.38053 -21.66134)
(4153.2832 829.70224 -18.919396)
(4162.5525 828.6172 -16.837435)