/*--------------------------------*- C++ -*----------------------------------*\
  =========                 |
  \\      /  F ield         | OpenFOAM: The Open Source CFD Toolbox
   \\    /   O peration     | Website:  https://openfoam.org
    \\  /    A nd           | Version:  6
     \\/     M anipulation  |
\*---------------------------------------------------------------------------*/
FoamFile
{
    version     2.0;
    format      ascii;
    class       pointVectorField;
    location    "0.09";
    object      lm;
}
// * * * * * * * * * * * * * * * * * * * * * * * * * * * * * * * * * * * * * //

dimensions      [1 -2 -1 0 0 0 0];

internalField   nonuniform List<vector> 
625
(
(0 0 0)
(0 0 0)
(2457.1623 344.35555 36.121533)
(2407.4287 -525.45497 9.1848902)
(0 0 0)
(0 0 0)
(2441.6168 -548.39795 4.1145173)
(2494.1886 327.22167 42.183338)
(0 0 0)
(0 0 0)
(0 0 0)
(2426.0912 125.63262 27.75248)
(2420.5196 -88.591761 23.771704)
(2426.5501 -306.70602 15.716641)
(-72.185199 -61.025366 -28.249504)
(-153.41532 -96.53791 -11.769897)
(-247.24505 -111.29794 10.228525)
(-342.98319 -107.50868 32.111774)
(-422.37081 -81.183139 50.007216)
(-475.97442 -37.537226 61.233641)
(-492.8054 18.440167 64.566847)
(-468.26391 82.155046 61.111262)
(-405.41652 145.60896 53.128758)
(-309.58481 205.57296 42.671609)
(-185.36606 260.02605 36.609604)
(-40.153592 305.49892 32.030002)
(124.13079 343.37458 30.166917)
(303.82236 373.02827 29.281339)
(497.12656 394.74667 28.602264)
(700.86948 408.77333 28.303929)
(912.5245 416.86338 27.24017)
(1128.9415 416.90355 28.486123)
(1349.2005 413.82167 27.930741)
(1569.7426 405.2075 29.691662)
(1792.5052 392.24752 30.533952)
(2013.7864 378.19237 31.292448)
(2232.3068 361.52528 34.969025)
(-54.326207 58.376864 56.629663)
(-141.5061 96.713851 35.762926)
(-245.81792 119.07551 13.929122)
(-345.36186 117.02065 -11.245567)
(-428.69273 92.697467 -35.121924)
(-483.3712 49.788534 -55.343584)
(-500.58107 -6.5604772 -70.532612)
(-477.90266 -67.18987 -76.071133)
(-414.25385 -126.81846 -79.248446)
(-321.05653 -179.68205 -76.359484)
(-199.03381 -225.39171 -71.084509)
(-56.091539 -264.94041 -64.215978)
(104.90574 -299.69074 -56.937972)
(281.20332 -330.98966 -49.794392)
(470.46358 -359.1067 -42.790204)
(669.99887 -384.23128 -36.032903)
(877.06164 -406.4189 -29.178283)
(1089.518 -426.46683 -23.185864)
(1305.7479 -445.15597 -16.94837)
(1524.4908 -462.58481 -12.251532)
(1745.5862 -479.63974 -6.9699172)
(1966.3591 -495.42848 -1.9862665)
(2187.7271 -510.12324 2.5792821)
(0 0 0)
(0 0 0)
(0 0 0)
(-57.468151 39.797656 -46.022218)
(-128.758 107.0973 -39.852215)
(-226.41056 115.24482 -13.923077)
(-324.37132 112.72621 4.6491763)
(-405.46829 84.955279 23.047814)
(-455.87926 41.432554 34.570322)
(-477.38076 -6.9191315 38.918979)
(-443.57582 -68.742943 33.309253)
(-382.10085 -125.87129 26.103129)
(-286.96179 -178.02601 17.091335)
(-166.08526 -225.56885 9.0840093)
(-25.094052 -268.48411 4.255413)
(134.32673 -307.03369 1.1772141)
(310.16672 -341.43207 -1.230328)
(500.02409 -371.79976 -3.8728345)
(700.66624 -398.36706 -6.3833538)
(908.43783 -421.5799 -8.1271121)
(1120.7139 -442.41328 -8.2099286)
(1336.239 -461.7231 -7.4372888)
(1555.1024 -479.96885 -6.0746798)
(1775.5557 -497.82762 -4.6781036)
(1997.9943 -514.92637 -3.2012951)
(2216.4668 -529.80688 0.24451171)
(2462.1162 -326.27741 11.661427)
(2452.7955 -107.05797 19.905984)
(2467.5925 108.05371 31.116133)
(2270.9219 343.12297 38.306284)
(2050.7884 360.48481 33.785322)
(1829.2301 374.13389 28.240423)
(1606.2806 385.9607 21.989534)
(1383.6131 394.00677 15.755034)
(1162.8113 398.0321 8.9095611)
(944.65842 397.7262 1.9200651)
(731.45425 391.38389 -5.6904225)
(525.42887 378.49882 -13.507363)
(330.05173 358.35981 -21.666584)
(148.11748 331.70874 -29.658246)
(-17.671445 298.64023 -37.281629)
(-163.85415 259.62397 -43.708861)
(-287.7477 213.7427 -48.735225)
(-384.94773 157.63828 -49.633769)
(-443.97246 96.791417 -50.460195)
(-469.24911 33.866037 -43.183565)
(-453.71347 -26.081734 -32.024731)
(-397.27023 -76.577791 -13.918361)
(-318.38756 -107.54229 4.669301)
(-225.33409 -117.95383 23.562791)
(-133.438 -98.275355 34.201632)
(-73.201485 -65.656914 40.159866)
(0 0 0)
(0 0 0)
(0 0 0)
(0 0 0)
(0 0 0)
(0 0 0)
(2415.0893 -531.55355 7.5753715)
(2425.2869 -537.83231 6.1970819)
(2433.6457 -543.80902 3.9823818)
(2464.6974 341.26634 38.400034)
(2473.6842 336.89277 40.5381)
(2484.2217 332.38091 41.772845)
(-49.519736 -15.385765 -18.522344)
(-137.54075 -29.752522 -3.8765054)
(-241.76521 -36.028587 9.5327406)
(-345.25223 -33.417707 21.920798)
(-433.64746 -22.9859 32.228636)
(-494.53129 -5.7334155 36.761406)
(-516.53814 17.199078 37.277375)
(-496.05046 45.120968 32.603794)
(-434.19762 74.414246 25.652641)
(-334.87394 105.38437 19.034371)
(-208.20777 134.25322 13.714008)
(-59.048425 159.55753 10.553488)
(108.52715 180.07829 9.4648765)
(291.39014 194.98644 9.2804656)
(486.99242 204.1499 9.7539969)
(691.94554 208.71738 10.307596)
(904.21409 208.13762 11.535588)
(1119.6596 204.09613 13.521964)
(1338.2889 197.38035 14.899318)
(1556.9798 185.59521 18.73928)
(1777.3193 173.38448 19.455629)
(1995.6138 158.90372 23.241587)
(2214.5836 141.88956 25.833724)
(-46.762095 -0.65757789 5.8482904)
(-138.37363 2.8849775 10.136856)
(-245.87766 4.8312666 12.157049)
(-351.10798 6.22484 11.303504)
(-440.02596 6.9444975 8.7160015)
(-498.67437 7.0504296 4.7318896)
(-518.72438 7.2500436 -1.0544489)
(-495.63307 7.2822179 -7.0502288)
(-432.59853 8.8669635 -12.260248)
(-336.04945 11.884592 -16.026552)
(-211.56732 15.688673 -17.406625)
(-65.058416 19.197 -16.471563)
(99.655974 21.073771 -14.154661)
(279.89236 20.714787 -11.11172)
(472.78641 17.821232 -7.9725995)
(676.09582 12.450086 -4.5339017)
(886.62073 4.8734605 -0.99879401)
(1101.9852 -4.0021871 2.4506388)
(1322.0062 -15.182714 6.31587)
(1542.7256 -27.878336 9.6417185)
(1766.6415 -41.141568 12.370228)
(1989.1089 -56.867929 16.486833)
(2211.751 -72.717285 19.466066)
(-43.656488 17.38794 22.712854)
(-137.03429 30.012503 19.879018)
(-246.72964 35.771341 9.75703)
(-354.3786 33.52775 -1.3705586)
(-443.74507 23.028427 -11.782893)
(-502.2618 6.4440473 -22.087126)
(-520.008 -13.016474 -30.482911)
(-495.38189 -34.542426 -36.015051)
(-432.21829 -55.091899 -39.534013)
(-335.2695 -74.009561 -40.876146)
(-211.96 -91.815164 -39.601033)
(-67.541516 -108.70592 -36.944266)
(94.639727 -125.28228 -33.211177)
(272.18047 -141.62758 -29.030405)
(463.00304 -158.00757 -24.530938)
(664.67841 -174.14292 -19.99261)
(873.77698 -190.29151 -15.535076)
(1089.6764 -206.66255 -10.671177)
(1308.7183 -223.0778 -6.6915621)
(1532.066 -239.83604 -1.8381298)
(1757.1699 -256.71442 1.4953823)
(1982.4171 -273.17007 6.3715227)
(2205.7849 -289.81846 10.565839)
(0 0 0)
(0 0 0)
(0 0 0)
(0 0 0)
(0 0 0)
(0 0 0)
(0 0 0)
(0 0 0)
(0 0 0)
(-73.347578 32.435899 21.036334)
(-76.369743 36.986058 0.5098381)
(-68.34017 29.488938 -16.630655)
(-158.80146 106.33997 17.739696)
(-154.24557 103.11383 -2.2751458)
(-148.49224 95.560214 -21.276311)
(-248.84319 127.06938 5.0431823)
(-242.6417 123.07597 -2.2042882)
(-239.1481 120.70034 -11.746359)
(-337.67965 127.54764 -7.6594119)
(-331.57937 122.32675 -5.2475378)
(-326.87119 120.48329 -2.1269362)
(-411.84235 102.6183 -20.707157)
(-401.71746 96.950881 -7.455259)
(-399.67331 96.482582 6.4939634)
(-457.53421 57.974341 -32.622178)
(-446.67162 51.467603 -10.257167)
(-446.26201 51.771745 12.839904)
(-470.77499 -0.32735321 -40.776864)
(-455.19786 -8.7726099 -13.666436)
(-455.68624 -3.8003555 16.09669)
(-441.25874 -66.847138 -46.709888)
(-433.1417 -67.534839 -18.197861)
(-429.76739 -65.869983 7.5381359)
(-383.21618 -126.34391 -50.522564)
(-370.11117 -128.17312 -24.916755)
(-366.15519 -125.63307 3.1713797)
(-291.05937 -182.06931 -51.302332)
(-278.90157 -181.68915 -27.327987)
(-275.73386 -181.16765 -3.3324662)
(-173.49533 -229.96188 -49.356002)
(-162.2997 -228.40876 -29.123191)
(-157.87395 -228.95607 -8.1805956)
(-34.217223 -271.16202 -45.69254)
(-23.375712 -269.27078 -28.991781)
(-18.954286 -271.18321 -10.641413)
(124.19158 -307.11602 -41.222254)
(134.16038 -305.95117 -27.749206)
(138.78912 -308.69937 -11.353323)
(298.65814 -339.06035 -36.635534)
(308.12382 -339.30389 -26.120031)
(313.08128 -342.68961 -11.571257)
(486.5915 -367.5213 -32.134839)
(495.50203 -369.14677 -24.263458)
(501.11777 -372.96996 -12.000721)
(684.7041 -392.56634 -27.661098)
(693.5028 -395.30934 -22.258574)
(699.58533 -399.66299 -12.400636)
(890.32759 -414.48758 -23.223221)
(898.76406 -418.17755 -19.537932)
(905.52062 -422.61508 -12.424595)
(1101.1729 -434.1729 -18.574593)
(1109.8314 -438.11463 -16.329272)
(1116.6728 -442.72223 -11.25915)
(1316.1727 -452.11929 -14.153432)
(1324.4044 -456.63332 -12.670566)
(1331.506 -461.17387 -9.6410222)
(1534.0313 -469.10972 -9.9954021)
(1542.5597 -473.98592 -9.3871311)
(1550.0268 -478.50652 -7.680258)
(1753.9044 -485.68041 -6.0933986)
(1762.1948 -490.7571 -6.3233565)
(1770.0489 -495.31322 -5.5801499)
(1974.1354 -501.13022 -2.1822058)
(1983.0329 -506.96709 -3.0817571)
(1991.476 -512.46726 -3.7114065)
(2193.5206 -515.50182 2.024619)
(2202.2604 -521.3503 0.14822508)
(2211.4853 -526.34948 -0.0062366207)
(2435.0856 122.64346 29.047612)
(2444.3017 117.89118 29.598946)
(2454.5109 113.13564 30.5583)
(2424.7026 -92.756193 23.047869)
(2434.7668 -97.845822 21.409373)
(2443.9204 -102.28288 20.346675)
(2431.9709 -311.32109 14.68778)
(2442.0842 -316.43776 14.318968)
(2451.8505 -321.80754 11.665564)
(-90.08373 -63.641179 -9.9490987)
(-88.252497 -60.874437 3.8347371)
(-83.480416 -59.522971 18.63758)
(-157.3897 -102.83317 -1.3210288)
(-156.34063 -102.81247 10.935348)
(-154.5313 -101.2326 25.379076)
(-248.76453 -124.24028 12.816178)
(-240.4483 -122.23534 13.865319)
(-237.30637 -119.19597 21.830859)
(-333.72291 -117.35709 26.101823)
(-324.50208 -116.61281 19.360182)
(-320.97328 -115.29297 13.737587)
(-406.48241 -89.129544 35.650001)
(-394.65168 -87.008252 20.269565)
(-392.20953 -85.026542 3.2404207)
(-451.40837 -41.913765 40.405983)
(-441.74906 -37.925462 16.731621)
(-437.56769 -35.507102 -9.4631632)
(-464.74974 19.963407 40.471341)
(-454.4319 24.284455 15.396056)
(-449.65453 26.60284 -16.2743)
(-439.17104 85.148256 34.948759)
(-430.51015 92.180755 8.9283387)
(-428.44703 93.512626 -23.039063)
(-380.2275 152.99545 28.250673)
(-369.76517 154.40872 2.8555424)
(-364.36626 157.79235 -27.753794)
(-282.70153 211.64821 19.211577)
(-277.28531 212.99744 -0.82415659)
(-272.56058 213.5692 -27.855928)
(-162.80519 262.15261 15.372183)
(-155.93999 263.06185 -3.3461633)
(-150.77116 263.07261 -26.45816)
(-19.036623 305.9791 13.166975)
(-11.974721 304.36657 -3.1858166)
(-7.3570927 303.60681 -22.36936)
(143.21343 341.77049 13.578406)
(150.77183 338.40398 -0.5597013)
(155.93222 337.02611 -16.794773)
(321.68311 370.1587 14.936775)
(329.82468 365.65553 3.0337638)
(335.21759 363.60475 -10.909409)
(513.71127 391.2499 16.670271)
(521.8884 385.99901 6.5979657)
(527.96943 383.38544 -4.8003939)
(716.00243 405.11677 17.988005)
(724.61944 399.41041 10.300093)
(730.95532 396.204 0.82399295)
(926.27447 412.46479 20.060272)
(934.68783 406.1594 13.797725)
(941.72757 402.42975 6.6843868)
(1141.4412 412.80048 21.9805)
(1150.114 406.80579 17.380421)
(1157.3248 403.01836 12.175264)
(1359.9422 409.55395 24.429168)
(1368.4304 403.15312 21.994609)
(1376.567 398.81404 17.957027)
(1579.8341 400.97206 28.200049)
(1588.9322 395.23132 25.234831)
(1597.2244 390.74241 23.106576)
(1802.0174 388.67199 29.871002)
(1810.5166 382.63443 29.301046)
(1819.114 378.61047 28.534056)
(2021.5403 374.02223 32.00887)
(2029.6589 369.98436 33.354849)
(2039.0324 365.36352 32.996712)
(2241.9083 357.48876 35.718746)
(2249.7019 353.30864 36.679263)
(2259.913 348.48858 37.539469)
(-39.599047 -11.807968 26.537776)
(-123.37279 -40.147192 17.399144)
(-219.74726 -39.549377 10.800587)
(-322.24231 -31.011965 2.6731501)
(-408.53367 -11.874208 -6.654229)
(-468.85348 12.666794 -15.690389)
(-491.04608 37.380823 -22.700106)
(-468.99106 66.205144 -27.380959)
(-406.76173 89.839499 -30.273625)
(-309.35196 112.89658 -30.511899)
(-182.73427 133.57029 -28.61129)
(-33.958464 151.58526 -25.027188)
(134.29948 166.87671 -20.158585)
(318.57028 178.81044 -14.860336)
(515.98923 186.45663 -9.6705711)
(723.2329 189.51186 -4.7442419)
(936.76759 188.43421 0.12408435)
(1154.0676 183.85475 4.7376747)
(1372.9236 176.31919 9.681863)
(1593.1858 166.37114 14.034161)
(1813.2207 154.05505 18.869449)
(2031.4216 140.28714 22.568072)
(2248.7819 123.47876 27.034117)
(-34.552437 -5.8586629 0.1278177)
(-122.38083 -5.8616575 2.8731521)
(-228.98591 -0.42633303 4.8033341)
(-333.67313 2.4572509 7.188615)
(-420.55958 8.2532895 5.080228)
(-477.55074 11.52258 2.2685905)
(-494.97923 14.253973 -1.82891)
(-469.01586 15.206451 -7.3895751)
(-404.54844 14.19163 -12.559379)
(-306.62508 13.180666 -15.201866)
(-182.3697 12.348299 -16.781766)
(-36.329146 11.653766 -16.038944)
(128.44944 10.779759 -13.979047)
(309.4662 8.8261176 -11.703911)
(504.14618 4.7723427 -9.6275177)
(708.86487 -1.9260234 -7.6621071)
(920.40148 -10.638708 -5.3048315)
(1135.8847 -21.297797 -2.6710377)
(1354.6388 -32.547396 1.0482164)
(1575.1309 -45.291408 4.5185102)
(1797.4707 -59.280936 8.5898021)
(2018.3358 -75.022777 12.272827)
(2244.018 -91.884776 15.861717)
(-33.720484 12.799962 -16.270119)
(-125.00614 25.454964 -14.769025)
(-230.63295 31.620675 -7.1711291)
(-333.76402 28.521382 1.8998612)
(-419.9979 20.580738 7.5097867)
(-474.28675 8.4908816 11.786662)
(-490.78127 -7.2859252 13.52923)
(-463.69002 -25.40481 11.642659)
(-398.38364 -45.450368 8.515171)
(-302.26567 -66.987523 5.3945497)
(-180.77818 -88.745132 2.5736201)
(-38.461313 -110.09615 0.65903666)
(122.23697 -130.18613 -0.80874904)
(299.6292 -148.98215 -2.2284599)
(491.37507 -167.0172 -3.5775471)
(694.05705 -184.98214 -4.3802226)
(904.38682 -203.22997 -4.5698633)
(1119.592 -221.37821 -3.7910005)
(1338.8503 -239.26703 -2.1390141)
(1561.6827 -256.90784 -0.79734278)
(1786.726 -273.82839 2.129312)
(2013.5496 -292.06002 3.9860529)
(2238.3475 -309.52439 7.8288285)
(-54.921165 -9.4517955 -4.6825303)
(-53.732107 -10.912362 3.5090585)
(-54.47709 -10.589559 13.177396)
(-144.56805 -36.257659 0.89839387)
(-142.03749 -37.79131 8.1591288)
(-137.75206 -37.648677 16.441201)
(-241.67139 -44.75563 10.601657)
(-235.19973 -46.069193 12.532645)
(-230.97019 -44.613596 13.982929)
(-336.89235 -41.709445 18.456522)
(-328.32421 -41.560094 14.330066)
(-324.80474 -40.424915 9.36065)
(-417.92896 -28.962192 23.886532)
(-407.62456 -26.966897 13.960089)
(-404.29953 -24.863439 4.151613)
(-471.86178 -6.8368866 25.045453)
(-460.29629 -3.1765452 10.912992)
(-457.21952 -1.0994753 -4.4480332)
(-489.54044 20.407196 22.570708)
(-478.12842 26.095171 5.641691)
(-475.33206 27.429164 -10.958964)
(-466.97113 51.142424 16.730408)
(-456.21261 56.166 -0.087434937)
(-452.52911 56.502605 -17.799635)
(-404.89246 81.200896 9.7529718)
(-394.5944 86.78802 -6.6947955)
(-390.92245 86.836526 -21.082974)
(-308.35197 111.18631 3.726505)
(-299.34703 114.16586 -10.110112)
(-295.27176 113.05102 -22.62747)
(-184.24537 137.59866 -0.31748333)
(-175.93128 138.29776 -11.335936)
(-171.03526 136.90211 -21.713285)
(-37.266505 160.0433 -1.6969985)
(-29.247549 158.87209 -10.88607)
(-24.085346 156.83583 -18.709523)
(128.36362 178.19313 -0.9271775)
(136.21406 175.46249 -8.3417132)
(141.88865 172.84355 -14.341659)
(309.70042 191.42606 0.7743286)
(317.55606 187.80311 -5.2450841)
(323.59034 184.5383 -9.9063602)
(503.79781 199.97824 2.8185553)
(511.72058 195.68414 -2.0504147)
(518.23226 191.84231 -5.5947407)
(707.65938 203.91095 4.9068792)
(715.68655 199.1581 1.2274165)
(722.49659 194.68986 -1.6758816)
(918.1526 203.33827 7.3722108)
(926.2441 198.43065 4.3597575)
(933.52258 193.53776 2.5664959)
(1132.6983 199.27675 10.04985)
(1141.057 194.07086 8.2106657)
(1148.2912 189.03243 6.5385604)
(1349.7397 192.30792 13.158645)
(1357.6575 187.12975 11.835601)
(1366.0522 181.48104 11.100603)
(1567.465 181.12402 16.891431)
(1576.2541 175.81591 15.637293)
(1584.2593 171.04938 14.703279)
(1786.1531 168.81454 18.828917)
(1795.6934 164.67817 19.147256)
(1803.3905 159.38095 19.147674)
(2003.7925 154.39245 23.277568)
(2011.8464 150.7493 23.057603)
(2020.7082 144.62262 22.156609)
(2220.8202 138.18773 26.033694)
(2228.8889 134.07061 25.95845)
(2238.9202 128.89941 26.299095)
(-52.469888 -1.6169964 3.6465772)
(-51.645836 -3.2507308 3.466903)
(-50.610002 -4.403735 1.2773828)
(-143.7262 0.27991532 7.742748)
(-141.17326 -2.4481375 6.456253)
(-136.33942 -3.1543643 4.3539202)
(-245.59509 2.1208038 10.798213)
(-241.77755 1.1503718 9.0171126)
(-236.45965 0.73743785 6.6395445)
(-343.63784 3.6735763 10.714581)
(-337.74075 3.5962821 8.51605)
(-333.02391 4.7290291 7.0950682)
(-424.80409 5.4864432 8.6797316)
(-416.20485 7.628223 6.3591874)
(-412.43903 9.4316901 5.8290167)
(-477.64955 6.8934106 4.2778992)
(-466.26722 11.03444 2.2891455)
(-464.32621 13.107299 1.8488664)
(-493.24713 8.6386206 -1.6788542)
(-480.41317 12.88095 -3.0798517)
(-478.34879 15.460352 -2.0458184)
(-468.72428 9.8101052 -9.0299595)
(-454.82639 14.066507 -9.1053356)
(-454.0333 16.186824 -7.7512593)
(-406.75772 12.040455 -15.166419)
(-392.21856 14.931137 -13.647036)
(-391.08348 15.488074 -13.106776)
(-310.95593 14.089233 -19.546813)
(-297.41966 14.924777 -16.830802)
(-296.09429 14.324005 -15.985586)
(-188.76491 16.251602 -21.133528)
(-175.81167 15.108006 -16.923111)
(-174.53224 13.304864 -17.4013)
(-44.340897 18.166615 -20.040133)
(-32.322928 14.765787 -15.469148)
(-30.60752 12.544604 -16.928316)
(118.50358 18.662354 -17.367649)
(129.69571 13.968911 -12.80056)
(131.93237 11.459839 -14.885949)
(297.15418 17.356887 -14.038185)
(307.7281 11.761627 -10.045183)
(310.57919 9.0508596 -12.638344)
(488.85234 13.86109 -10.538607)
(498.92944 7.7069512 -7.4622058)
(502.64569 4.8870514 -10.473177)
(690.69789 8.0054382 -7.1555717)
(700.4806 1.6917851 -5.0054158)
(704.94094 -1.4672464 -8.3580301)
(899.77199 0.44083726 -3.4711447)
(909.27785 -6.1499323 -2.3325604)
(914.37018 -9.7047189 -5.7181988)
(1113.8567 -8.766652 0.16631227)
(1122.8713 -15.681852 0.80538161)
(1128.9227 -19.285598 -2.8338114)
(1331.6532 -19.890172 4.3491196)
(1340.7301 -26.076449 4.0664392)
(1347.0383 -30.383135 1.1138674)
(1551.7236 -31.873493 7.7420252)
(1560.0684 -39.366237 7.5524146)
(1567.3173 -42.317021 4.3087149)
(1773.669 -45.433845 11.64687)
(1782.0155 -51.715595 9.8651158)
(1790.0943 -55.457251 8.8049041)
(1994.2747 -62.008826 15.06342)
(2002.4485 -66.632205 14.079905)
(2010.6754 -71.3171 11.82164)
(2216.5621 -76.81671 18.676517)
(2225.4167 -82.341867 17.228445)
(2234.6598 -86.496906 16.247897)
(-53.533335 11.393693 9.7351693)
(-50.677822 9.7020717 0.21474753)
(-46.218398 8.5294956 -8.0723455)
(-147.78222 32.31822 10.861454)
(-145.12505 28.694624 1.4278558)
(-138.19782 27.197561 -6.9262767)
(-248.48668 42.109834 6.474574)
(-244.91227 41.160963 2.7690164)
(-240.1234 37.990235 -1.5082446)
(-346.06229 41.685352 0.88232508)
(-339.23969 40.708714 2.2865577)
(-337.24904 37.4625 3.2105439)
(-425.93329 31.945803 -4.8068731)
(-417.17125 31.96144 0.50556297)
(-416.33096 30.123348 7.1918873)
(-476.39301 16.05215 -11.116864)
(-465.00746 16.247339 -1.7293489)
(-466.55791 14.75655 7.1938581)
(-489.91184 -5.365896 -17.388721)
(-476.7201 -3.6143788 -5.5948808)
(-478.02697 -4.4925359 5.2264369)
(-463.27834 -28.193583 -22.470697)
(-450.4501 -26.169623 -10.802353)
(-450.36572 -26.914227 1.4422949)
(-400.62429 -51.345117 -27.268349)
(-387.98389 -49.680087 -15.113112)
(-386.44515 -49.783393 -3.2768347)
(-306.06824 -73.263844 -29.99039)
(-294.72002 -72.149249 -18.458464)
(-291.19336 -72.809082 -7.6002724)
(-185.96271 -93.481544 -30.483337)
(-176.15715 -93.588321 -19.680775)
(-170.97893 -94.771482 -10.324039)
(-44.460383 -112.45807 -29.190585)
(-36.157513 -113.59462 -19.463049)
(-29.851039 -115.26067 -11.362499)
(115.18635 -130.34037 -26.611326)
(122.45904 -132.2906 -18.046137)
(129.42284 -134.23852 -11.268903)
(290.77427 -147.46029 -23.477395)
(297.56301 -150.09481 -16.382734)
(305.11488 -152.24018 -10.92977)
(479.9024 -164.16028 -20.160613)
(486.55467 -167.29849 -14.825296)
(494.70371 -169.61085 -10.604368)
(679.73208 -180.5197 -16.934879)
(686.57898 -184.12064 -13.080112)
(695.25363 -186.77827 -10.169988)
(887.47524 -196.81158 -13.347211)
(894.35715 -200.86848 -11.151345)
(903.43182 -203.92408 -9.1024852)
(1101.2658 -212.92093 -9.6444803)
(1108.3993 -217.35201 -8.3388808)
(1117.6538 -221.02156 -7.3505678)
(1319.2268 -229.3815 -5.8627993)
(1326.371 -234.17653 -5.3879083)
(1335.1443 -237.81705 -4.8118821)
(1541.1658 -245.67829 -1.6140323)
(1548.5181 -250.33898 -2.0523478)
(1557.6414 -254.5567 -2.1808644)
(1764.4331 -262.17182 1.3004401)
(1772.2425 -266.67981 1.0540619)
(1780.7911 -271.00013 0.75036394)
(1989.2619 -278.80258 5.8361186)
(1997.7553 -284.00261 4.8967617)
(2006.9596 -288.33799 4.2568078)
(2212.5193 -295.40974 10.198293)
(2220.6398 -299.58461 8.8907413)
(2230.3009 -306.09367 7.2487142)
)
;

boundaryField
{
    free
    {
        type            zeroGradient;
    }
    fixed
    {
        type            fixedValue;
        value           uniform (0 0 0);
    }
    traction
    {
        type            zeroGradient;
    }
}


// ************************************************************************* //
