/*--------------------------------*- C++ -*----------------------------------*\
  =========                 |
  \\      /  F ield         | OpenFOAM: The Open Source CFD Toolbox
   \\    /   O peration     | Website:  https://openfoam.org
    \\  /    A nd           | Version:  6
     \\/     M anipulation  |
\*---------------------------------------------------------------------------*/
FoamFile
{
    version     2.0;
    format      ascii;
    class       pointScalarField;
    location    "0.3";
    object      E;
}
// * * * * * * * * * * * * * * * * * * * * * * * * * * * * * * * * * * * * * //

dimensions      [1 -1 -2 0 0 0 0];

internalField   nonuniform List<scalar> 
28033
(
59048.045
61590.885
2149.8604
1823.9294
65563.472
71190.537
2263.226
2500.2643
35827.859
25015.543
17038.781
11660.338
6949.308
4369.7837
3060.5563
2996.5282
4715.493
7363.761
12061.316
18573.887
26827.171
36489.893
55996.376
2941.2535
2557.3667
2600.9361
2480.5877
2272.4694
2342.1398
1902.338
2089.7049
2008.2045
1873.3248
2090.1075
1993.2
2106.6273
2269.9025
2517.8715
46466.155
30900.506
30035.326
30088.879
30842.767
31151.716
31396.705
31384.649
31159.068
30843.128
30359.531
29793.756
29121.767
28421.449
27648.797
26823.753
26077.538
25293.205
24622.77
23847.216
23243.856
22596.235
21987.418
21391.013
20728.552
20177.212
19431.683
18784.533
17993.947
17252.929
16500.004
15661.554
14860.178
14016.196
13234.333
12620.5
11821.989
11225.248
10607.451
10006.14
9472.9546
8984.6267
8571.3876
8227.9219
7955.1087
7773.0414
7620.9961
7559.6181
7490.2525
7470.3612
7411.2139
7355.3712
7248.2567
7115.9737
6942.8092
6741.8995
6520.1505
6284.5141
6042.3297
5804.9839
5565.3397
5348.4928
5113.7604
4968.0569
4740.3945
4612.9876
4484.8386
4390.351
4344.8683
4378.3207
4352.8689
4415.2329
4443.9305
4518.9649
4561.0509
4590.8625
4577.3059
4557.0056
4444.9688
4324.3929
4192.9981
3971.6037
3830.0596
3521.37
3383.3331
3131.1106
3052.5372
2824.5618
2873.1156
2622.7247
2851.324
2498.1643
2873.3673
2626.5484
2618.9887
47628.098
28676.882
32280.999
30934.53
31768.957
32191.057
32209.671
32446.081
32228.695
31908.295
31579.292
30915.46
30368.612
29690.986
28945.642
28246.347
27403.44
26580.314
25831.211
25131.503
24326.352
23745.085
23007.936
22533.044
21805.825
21258.275
20586.988
19835.587
19101.158
18191.459
17325.841
16399.755
15578.562
14694.823
13906.917
13118.338
12389.774
11658.463
11021.722
10527.244
9987.3384
9552.8241
9149.0874
8806.9468
8506.9701
8274.9324
8084.2177
7946.8544
7848.1152
7767.2753
7702.9071
7620.9558
7517.9622
7373.4143
7185.6752
6948.7992
6679.2111
6378.6799
6072.2788
5769.1739
5490.0255
5235.739
5021.5403
4842.1247
4697.2435
4586.269
4512.4326
4487.3248
4479.351
4381.5241
4441.2038
4383.6952
4507.1849
4505.6697
4582.7675
4605.5076
4603.5536
4612.6759
4516.2646
4438.7117
4293.0981
4112.1813
3940.8801
3726.3279
3546.9222
3359.3482
3218.2843
3080.173
2992.0356
2909.6752
2850.3431
2772.903
2710.396
2589.2164
2450.8757
43476.795
28640.593
20484.568
15636.224
8786.3664
5585.9058
4218.3643
4138.5282
5812.4241
9999.7598
13940.009
21386.355
30078.066
42874.011
54847.346
90984.562
39216.191
25589.608
35222.921
31160.456
34067.449
33088.792
33804.566
33232.9
33426.705
32811.725
32193.694
31718.925
30820.33
30176.24
29116.974
28705.164
26760.533
27011.105
25253.512
25000.04
24563.329
23923.545
23279.594
22458.245
21705.158
21168.536
19980.688
19642.078
18085.283
17237.743
16291.796
15404.443
14652.459
13387.956
13968.835
12202.76
11960.765
11242.898
10647.98
10075.943
9537.0392
9059.1371
8671.0624
8364.8092
8154.2736
8015.0561
7933.5551
7867.7806
7798.8256
7685.1301
7516.3098
7281.5653
6985.9729
6653.3356
6300.9435
5964.2003
5656.8202
5398.8771
5189.4764
5023.2745
4887.3595
4767.7667
4647.7143
4521.6763
4401.49
4284.8344
3774.2326
4413.0342
4030.8623
4018.9167
3978.7416
4047.3038
4092.9035
4129.2001
4137.9986
4105.1779
4025.948
3888.9707
3722.3281
3514.2996
3306.4567
3089.3428
2904.6133
2732.5215
2607.9193
2499.7744
2429.5526
2368.0175
2323.2059
2286.9663
2248.5026
2250.8776
2189.4896
2333.245
2598.2681
2796.7735
2292.1518
2439.1571
2295.1301
2276.0974
2148.0797
2135.2602
2647.4164
1870.0657
2460.6737
1943.5971
3027.5862
2026.863
3001.909
2982.6896
2572.5655
3007.555
2857.7523
2892.237
2901.0911
2922.6631
3001.0849
3062.8771
3205.2064
3346.6241
3542.3296
3742.8106
3917.4393
4111.9022
4281.6619
4443.8993
4557.5764
4646.6377
4699.8013
4720.679
4722.3464
4713.5953
4688.1945
4704.0159
4736.3612
4889.0989
4284.9317
4822.3149
4810.5784
4929.557
5040.7477
5173.456
5337.2923
5529.1185
5743.9452
5984.6794
6235.7144
6495.0184
6743.5675
6978.2624
7182.8466
7360.0371
7502.9477
7622.6477
7724.191
7825.4322
7929.5332
8072.9768
8235.996
8450.6555
8720.381
9036.3664
9420.0054
9831.872
10344.588
10865.203
11725.457
11767.613
12808.572
13865.652
13956.562
15178.602
16098.086
16965.005
17832.908
18405.642
19215.333
19976
20821.266
21648.117
22072.354
22407.142
23605.329
23911.493
24511.188
25431.738
26094.016
26938.654
27613.514
28730.301
29527.604
30128.914
30863.496
31853.878
31789.157
32483.138
32888.253
32732.883
31641.53
31898.306
32170.501
31821.367
27484.375
51102.269
37686.247
36882.031
35705.148
35875.622
36726.935
37280.785
37305.616
37619.404
37710.891
37522.073
36430.03
35725.048
36445
37359.511
41529.731
42480.538
43499.765
42250.201
44339.024
44164.653
43917.545
46569.609
49292.431
47991.425
47395.362
45079.252
43388.322
42631.476
41632.554
47090.762
2222.786
2227.8649
2257.6823
2250.0875
2247.8407
2239.1763
2240.318
2239.6051
2258.1475
2264.1701
2300.6063
2266.9858
2306.941
2167.3853
2484.4568
2472.654
2323.7744
2444.5422
2329.4332
2417.2846
2399.8945
2409.4053
2418.107
2446.4576
2454.3973
2508.7492
2482.7256
2517.3147
2454.789
2656.7199
34365.267
26841.465
25035.196
24828.17
25051.428
25330.596
25634.977
25703.083
25666.525
25481.588
25115.373
24687.517
24150.792
23638.473
23047.046
22542.701
22009.51
21503.028
20978.292
20509.505
19968.488
19418.546
18871.555
18228.175
17654.57
17015.069
16380.331
15785.345
15239.172
14685.061
14116.426
13687.181
13212.882
12770.544
12350.094
11826.957
11398.731
10880.767
10524.895
10083.958
9743.3255
9435.528
9185.9646
8955.1992
8742.5441
8532.9142
8317.3287
8094.3049
7842.1239
7592.0638
7331.6084
7092.0395
6878.2135
6706.4652
6579.3087
6493.2264
6439.8065
6399.6768
6360.1506
6303.7766
6215.5638
6107.4464
5952.3185
5818.9617
5578.1205
5476.1361
5458.9675
5314.9188
5250.8479
5078.8305
5041.5608
4977.4668
4936.9888
4869.0631
4789.8911
4714.6338
4620.0382
4509.3922
4415.7798
4290.882
4202.5921
4071.0782
4000.329
3768.823
3650.0706
3536.2551
3424.4551
3268.8023
3181.1611
2980.2739
2988.4963
2767.4903
2915.0918
2711.6171
2881.561
22491.264
19354.304
19439.781
18912.236
19020.244
19002.748
19067.846
19114.046
19062.264
18932.21
18683.514
18454.292
18088.759
17732.739
17307.928
16960.205
16533.063
16151.385
15750.38
15374.249
14964.703
14567.81
14160.999
13717.791
13301.618
12871.073
12445.751
12021.071
11619.66
11239.538
10878.013
10544.551
10169.218
9814.1542
9487.5951
9122.1475
8849.4377
8536.9843
8214.6619
7915.1917
7676.0809
7414.3717
7215.5801
7024.2247
6860.5825
6729.2479
6592.1956
6472.2049
6342.7441
6219.8631
6086.2476
5963.7329
5841.2907
5733.5209
5638.4833
5556.9928
5486.3699
5421.7377
5355.2745
5280.5849
5195.585
5098.6326
4989.5911
4878.5071
4737.7807
4770.9646
4470.3073
4598.4776
4539.5578
4536.298
4577.309
4545.2933
4527.95
4535.5475
4538.6743
4529.1796
4509.1123
4487.2639
4459.142
4380.604
4368.0992
4194.402
4216.5236
3946.3062
4027.9831
3835.4245
3774.2452
3509.287
3510.1138
3208.5956
3277.7413
2946.3707
3158.3408
2586.9154
3153.9975
14402.012
12454.147
13683.552
13450.092
13666.386
13453.545
13522.53
13465.885
13406.196
13302.963
13160.987
12975.858
12716.525
12474.172
12210.977
11931.755
11660.247
11388.353
11134.156
10870.098
10607.279
10313.976
10044.189
9717.0323
9438.3191
9116.5154
8830.1291
8537.9796
8300.8937
8044.3758
7827.4747
7615.1632
7431.7827
7248.8883
7064.1797
6845.9895
6615.0428
6327.2568
6180.1293
5999.6293
5789.5097
5669.7285
5532.289
5434.0585
5364.6439
5282.9304
5209.7939
5138.6216
5052.3792
4962.3178
4869.3568
4777.5634
4696.8508
4630.6889
4585.3175
4554.9396
4542.8697
4534.1773
4524.8356
4508.5654
4476.1703
4430.6121
4372.77
4295.2868
4267.5932
4168.1939
4210.846
4187.792
4171.5063
4125.1359
4163.6112
4183.0078
4290.4384
4342.0323
4375.6773
4407.4488
4422.7948
4423.4408
4398.7571
4349.5564
4304.2336
4213.3813
4074.1636
4121.4124
4042.1251
3753.6837
3603.4116
3418.8908
3313.8847
3030.391
3072.3519
2700.5934
2933.4758
2396.9807
3435.763
9087.3816
7502.6735
8424.8753
8730.2132
8896.8616
8915.5473
8923.6901
8925.8078
8850.6942
8844.2787
8702.26
8641.575
8454.9589
8356.1806
8129.1397
8008.8041
7805.4317
7652.9873
7468.3278
7303.0406
7126.3757
6956.1118
6785.8815
6605.2981
6441.1669
6264.9094
6113.5088
5957.9984
5818.2495
5702.4154
5591.8272
5495.2291
5405.623
5291.7251
5229.7726
5051.7309
5042.793
5023.7121
4955.6199
4821.9022
4728.6077
4641.4039
4546.4283
4482.9907
4433.9907
4388.6079
4365.9491
4346.0484
4328.2062
4316.5277
4299.1574
4281.7049
4261.1806
4238.5572
4216.6366
4194.1449
4174.3192
4152.492
4133.5591
4110.4935
4085.0712
4061.6228
4019.9241
4017.8524
3959.0664
3988.0557
3919.8393
4021.4063
4042.5525
4047.7309
4211.8445
4287.1983
4207.6157
4183.3692
4309.0702
4365.4231
4434.6344
4449.5427
4478.1738
4448.3122
4432.233
4314.4975
4318.5601
4046.2099
3936.4297
3720.1477
3753.7853
3470.6922
3480.342
3149.9708
3279.8251
2811.3763
3250.3161
2360.7687
3732.6685
5605.9254
3926.7486
4784.9502
4850.1579
5202.8843
5193.7929
5274.5111
5224.3855
5235.4008
5198.019
5154.6955
5095.5938
5008.1527
4918.3008
4817.2638
4731.429
4618.9259
4547.2205
4459.3669
4379.1719
4306.5685
4214.9285
4137.196
4032.9046
3949.4362
3849.5835
3785.4929
3704.3856
3684.8039
3638.1495
3634.31
3629.6336
3617.9808
3628.6893
3594.7936
3531.5573
3640.3006
3351.1294
3406.8006
3350.9398
3311.9187
3236.488
3216.4776
3198.3538
3188.3728
3178.2638
3178.0252
3168.86
3161.0826
3150.7083
3138.5807
3129.617
3125.5959
3127.0451
3138.5386
3151.8492
3172.1812
3189.7261
3202.2716
3208.9675
3210.707
3192.2847
3185.3754
3188.6459
3138.9473
3194.8975
3223.2591
3221.5513
3297.27
3356.9008
3534.9352
3552.3611
3865.7149
4283.1165
4339.4443
4451.7927
4508.3162
4565.5307
4597.1225
4586.3577
4567.9284
4524.7337
4419.8962
4354.8208
4225.5808
4090.4681
3873.998
3658.8368
3499.8728
3229.0483
3196.7876
2859.057
3152.0568
2313.819
3993.8285
3320.4227
1781.5825
2143.9522
2145.2055
2388.799
2492.2859
2532.1875
2625.1604
2623.4228
2696.1704
2649.4997
2703.6778
2630.96
2659.0034
2580.6894
2585.7667
2521.7232
2522.2033
2469.8616
2473.2475
2443.4485
2434.6943
2419.8032
2411.4786
2412.8189
2421.2589
2427.8327
2455.1687
2479.8699
2516.3659
2571.5085
2607.7095
2669.1715
2706.2326
2729.2281
2794.6225
2763.9466
2990.0686
2961.4683
2894.5657
2863.6315
2857.1421
2849.8788
2862.5301
2871.7646
2891.6247
2914.6626
2945.1424
2975.0988
3007.1429
3038.7665
3072.4249
3106.4241
3141.6764
3177.7928
3211.7286
3246.3508
3270.0271
3296.818
3309.0525
3312.1086
3330.1723
3325.1001
3312.6925
3372.6255
3354.9679
3413.5885
3463.948
3553.6861
3648.4805
3701.4874
3841.7048
3894.4741
3818.0418
3924.4032
4013.6933
4115.3479
4180.3525
4222.8447
4228.0883
4231.8851
4136.2652
4125.6333
3930.6232
3892.4799
3652.6378
3634.8122
3361.2586
3413.547
3058.7004
3268.185
2763.9026
3253.9491
2388.4092
4125.0617
2254.4555
512.19266
678.16164
473.52206
687.3895
728.90896
872.11889
913.88196
1010.07
1049.5926
1087.6039
1112.579
1109.6571
1108.6813
1084.5363
1092.5919
1063.651
1086.2399
1078.5139
1105.0733
1117.2333
1146.0133
1159.9921
1180.0357
1211.6014
1220.0438
1271.6552
1308.0964
1380.3897
1452.4599
1538.2251
1627.5546
1720.1409
1783.4262
1869.9723
1887.7008
1940.2132
1903.8204
1938.5747
1855.3933
1912.1279
1906.59
1933.2688
1970.3732
2017.1377
2073.1042
2144.4749
2203.8924
2268.6456
2320.8222
2372.2169
2413.341
2457.5394
2497.5181
2545.5415
2591.7573
2645.8985
2696.2521
2748.5268
2785.8399
2833.9417
2855.9347
2876.3942
2926.942
2928.4983
2994.0726
3039.3219
3126.984
3238.8256
3317.8351
3535.0794
3607.152
3821.015
3993.8519
4230.177
4350.2364
4476.7181
4546.9811
4619.9813
4639.2648
4641.2622
4618.7203
4542.1947
4463.2205
4337.4363
4182.3606
4007.9078
3797.5061
3631.8007
3324.5523
3289.6832
2861.8375
3288.2381
2336.8505
4281.9092
2105.7338
389.41291
269.00699
63.857474
117.2899
236.75981
289.56656
400.82496
466.96412
573.67608
599.28792
702.11425
706.01189
777.89954
784.57733
834.6834
834.72469
891.04381
888.76571
947.15005
951.36535
992.12087
1035.6607
1109.5514
1151.0785
1231.9729
1300.5157
1380.504
1468.1176
1554.636
1652.681
1750.3894
1832.5167
1926.5424
1998.1038
2046.704
2102.4661
2146.4739
2145.9494
2166.9314
2172.0357
2175.6421
2194.0638
2226.164
2254.4647
2309.7826
2354.3558
2413.2777
2464.2883
2519.8717
2565.0208
2612.1408
2650.1816
2689.6256
2725.7898
2759.2511
2798.4827
2828.4547
2861.3622
2893.5634
2917.5474
2934.6816
2971.7521
2975.8113
3016.3967
3043.7614
3104.7096
3169.4192
3236.8737
3366.987
3442.9433
3584.4947
3724.901
3790.9961
3820.8036
3934.008
4019.0038
4079.0975
4126.4219
4112.2602
4112.825
4010.1629
3970.5991
3789.7177
3723.4468
3494.2121
3439.0276
3184.0725
3184.5963
2922.8501
3092.9811
2762.2648
3209.2537
2432.9511
4183.1166
2880.6045
934.93512
751.64914
483.1661
527.92839
589.86182
680.89615
761.41794
858.48507
927.89954
979.22804
1009.9899
1016.3313
1011.313
985.90228
983.9581
955.6717
976.92213
976.46458
1029.8706
1089.34
1184.9352
1195.5153
1203.1252
1230.3912
1258.5564
1291.1044
1332.1131
1398.8415
1458.0586
1551.3089
1621.7459
1710.5858
1791.3353
1825.5846
1895.5523
1892.0148
1916.5652
1887.0951
1876.7865
1855.4055
1853.8744
1866.245
1887.2577
1938.0292
1986.3833
2057.0999
2119.6366
2187.7884
2242.4008
2294.6277
2334.2889
2371.9688
2407.087
2442.1719
2482.7746
2527.8039
2568.208
2621.4999
2657.8678
2693.2544
2731.7481
2746.7817
2780.7058
2803.5579
2855.0091
2901.2093
2970.5092
3088.6391
3191.6636
3346.2613
3503.7167
3659.6962
3830.8151
4149.3335
4269.2939
4381.6855
4482.4434
4533.7423
4571.8587
4559.6692
4538.4855
4460.3079
4380.5346
4251.3191
4113.1133
3948.8285
3762.6888
3606.0593
3362.2084
3290.2055
2919.189
3208.7314
2432.7997
4110.1534
4907.873
2822.9473
2609.0718
2452.774
2490.8802
2534.9691
2587.6363
2619.4657
2705.5311
2789.5307
2824.0892
2911.8208
2934.4356
2962.6464
2974.5088
2966.4015
2938.8953
2941.2054
2871.1869
2863.5881
2844.7353
2792.1902
2725.7373
2732.7283
2741.2578
2750.0797
2752.8604
2790.0464
2807.6901
2847.4175
2883.2084
2924.9451
2975.2093
2990.2375
3054.8112
3044.3628
3064.1318
3054.3958
3036.771
3028.9934
3003.4975
2998.1962
2975.3109
2987.5703
2984.499
3009.9927
3027.4402
3057.3292
3078.7533
3105.013
3121.1883
3137.439
3148.2574
3158.0334
3166.1823
3177.0602
3185.4019
3197.3135
3211.1324
3213.533
3233.5463
3231.4343
3243.2701
3249.8769
3267.1235
3280.0242
3320.5956
3379.1303
3443.0567
3521.3432
3622.8368
3726.8774
3817.0115
3973.9513
3983.4442
3891.2657
4047.2213
4071.768
4150.9556
4131.4385
4151.0216
4066.4266
4031.2571
3876.5619
3798.2818
3584.894
3498.0636
3245.1177
3201.1206
2935.6833
2998.7279
2753.7715
3014.5605
2604.0139
4004.4511
5570.9362
4465.9015
4208.3397
4331.3088
4322.7472
4441.0213
4398.8523
4471.3616
4511.1568
4562.2859
4531.1834
4568.5938
4487.9036
4461.8009
4368.3766
4310.9257
4230.7566
4173.9298
4093.0837
4056.7896
4032.4276
4298.682
4234.0633
4188.2567
4106.5235
3994.6223
3921.4013
3806.4697
3740.4586
3661.2613
3620.9529
3594.6189
3530.0006
3542.6196
3460.7339
3436.4859
3367.9833
3304.9689
3224.8727
3137.4436
3068.3544
2985.7618
2951.7068
2906.0702
2903.7561
2897.7424
2913.5924
2922.1384
2934.8281
2932.837
2923.2743
2900.8988
2871.4348
2839.1559
2808.0049
2785.714
2769.8879
2768.5884
2768.7798
2782.4244
2791.7901
2803.9637
2813.0689
2835.6336
2842.265
2884.4498
2924.721
2978.8349
3055.4106
3160.8873
3287.2048
3402.0125
3566.7998
3697.395
3926.505
4157.4701
4174.3271
4255.4702
4271.688
4291.9578
4270.6026
4234.2302
4167.2271
4087.4352
3979.5521
3874.6456
3733.9895
3625.4305
3477.3363
3354.4918
3281.6622
3070.5973
3181.051
2797.7591
3571.1934
12659.268
8260.0039
8676.3326
8606.7416
8701.7166
8567.3472
8639.224
8627.6893
8657.9856
8667.1701
8681.4103
8633.1183
8576.9144
8461.9248
8383.2873
8202.9526
8096.1787
7917.7536
7773.963
7627.5164
7425.1978
7291.4495
7619.3722
7562.8002
7385.6383
7256.494
7075.6227
6937.4079
6793.8379
6657.923
6564.2417
6420.0573
6346.6147
6229.3077
6148.9326
6039.5249
5917.9484
5794.032
5643.601
5523.3544
5360.5539
5253.3991
5117.6347
5030.9803
4941.3378
4884.5984
4832.541
4799.4372
4765.5322
4737.3396
4704.3438
4669.2566
4631.0816
4590.289
4550.884
4513.1686
4478.0078
4444.507
4413.5047
4377.2868
4339.9255
4293.8179
4246.3697
4190.2876
4132.7212
4085.4116
4044.7928
4025.5458
4037.7802
4061.7631
4091.2239
4150.5995
4235.5876
4269.6307
4294.2146
4349.1383
4323.7027
4355.4817
4335.4418
4293.2089
4226.7532
4113.7258
3991.5949
3824.1514
3660.4729
3450.9698
3270.5325
3052.1218
2879.5555
2716.4775
2616.8726
2523.2082
2733.4091
2568.1711
3585.4249
19071.435
15413.779
15087.011
14799.783
14455.052
14360.886
14335.768
14213.326
14300.563
14203.753
14110.39
13993.477
13749.712
13530.775
13251.639
12903.246
12651.214
12277.338
12017.109
11688.055
11399.34
11117.64
10764.365
10457.041
10119.087
9713.7313
9385.6195
8997.9917
8620.2688
8318.716
7964.1238
7730.117
7422.5295
7232.2985
6952.387
6722.0948
6509.1716
6269.7358
6080.3375
5840.1297
5678.6278
5481.3166
5344.1165
5204.1054
5097.0858
4993.6456
4902.1762
4802.791
4698.0975
4577.2442
4442.7982
4297.1002
4144.6376
3996.5876
3858.7261
3741.146
3642.9903
3573.7209
3517.4731
3484.2439
3452.5487
3433.6863
3404.1008
3391.0287
3362.744
3369.0138
3351.4315
3374.5612
3389.7053
3424.5608
3470.5582
3566.937
3573.8646
3676.5493
3712.2996
3767.517
3769.4162
3772.5104
3739.6253
3716.1136
3662.2807
3615.3626
3556.8451
3503.7844
3438.2491
3389.3336
3323.8616
3283.1882
3229.8717
3196.1178
3167.3615
3119.521
3131.6302
2953.0587
3240.036
27592.296
22436.375
21426.352
20627.738
20889.411
20773.04
20911.941
21058.471
21211.441
21127.606
21091.993
20844.58
20577.995
20203.305
19758.467
19304.766
18846.16
18346.105
17903.912
17459.422
17011.529
16591.628
16136.571
15761.712
15279.94
14851.516
14399.076
13892.114
13436.529
12920.094
12485.593
11994.683
11569.077
11185.431
10741.291
10378.175
10004.105
9634.6544
9243.0512
8912.1119
8553.5603
8253.3356
7969.8001
7737.5671
7538.7198
7387.576
7262.2277
7165.4572
7076.9427
6988.8286
6891.5794
6775.8863
6644.4044
6494.8683
6336.6845
6171.9079
6012.7261
5855.9771
5711.7956
5572.1277
5440.7824
5310.3047
5183.245
5056.0063
4932.0158
4819.0202
4727.0569
4664.0598
4594.9758
4571.7012
4596.1724
4574.8707
4644.9275
4656.2503
4681.39
4677.2375
4665.3377
4605.9648
4518.2498
4406.056
4256.1265
4093.3822
3919.1572
3725.2321
3551.4707
3356.6081
3198.6526
3020.1935
2881.2975
2739.0034
2622.2118
2535.2057
2512.3876
2584.3148
2863.7582
33751.274
27522.852
25814.154
25781.025
26530.511
26574.364
27031.957
27255.189
27227.231
27125.112
26728.617
26372.373
25856.456
25273.372
24772.051
24174.921
23731.448
23161.306
22596.213
22020.054
21448.658
20681.827
20147.961
19343.175
18644.643
18033.627
17271.396
16861.728
16200.694
15905.001
15314.323
14918.633
14389.409
13898.326
13332.587
12822.491
12353.322
11754.018
11309.956
10792.094
10404.233
10015.998
9687.7557
9373.2577
9075.5795
8772.7556
8461.4183
8142.9216
7819.6059
7512.7921
7229.728
6996.163
6815.3243
6696.4749
6627.8375
6601.0844
6584.3325
6566.9217
6515.705
6426.7439
6285.4926
6106.7165
5888.3759
5659.3056
5419.6996
5198.6376
4971.4607
4809.3782
4630.9777
4626.8533
4435.2
4418.8596
4277.7059
4225.2758
4132.4281
4079.0568
4009.464
3968.1355
3945.0766
3922.8014
3902.1227
3895.1613
3846.5661
3810.8525
3716.8925
3628.2034
3486.9145
3362.0018
3221.9067
3099.7687
3019.8826
2987.3686
2949.3928
3016.8817
2895.1675
21940.938
20782.705
17430.633
16926.009
16529.401
16614.894
16235.315
16548.37
16659.851
16734.509
16704.93
16710.243
18185.594
19584.831
24525.319
14843.88
12106.112
10317.848
10213.733
9497.2639
9462.5641
9150.0126
9342.5139
9503.8013
9455.705
9637.5272
10009.363
10859.282
12642.003
16103.102
9940.8892
7594.013
5481.1363
5145.5852
4595.9456
4459.8786
4408.2588
4297.2315
4351.5248
4452.2318
4704.3927
4995.6923
5815.2186
7715.7272
10490.417
6362.9544
4780.6833
3609.5442
3036.7309
2853.9326
2665.7443
2621.4371
2534.1644
2665.0699
2745.1581
2955.2785
3209.5151
4109.384
5375.4411
7107.4925
3901.5579
2803.0583
1829.0259
1543.3588
1282.9656
1187.8509
1130.4008
1110.5992
1142.257
1229.6511
1354.0097
1673.3481
2209.1799
3025.431
4686.0777
2961.2382
1789.8027
1158.2238
913.96654
743.8884
682.82203
626.59222
637.67742
651.8876
697.19899
847.77056
985.88921
1352.8383
2108.8726
3301.6976
1797.0731
1060.6294
670.76125
454.95321
337.467
238.59693
211.63113
191.94123
218.59121
262.38834
361.06305
540.76824
800.41721
1397.1787
2442.657
1912.0707
1133.8614
675.12161
481.16382
338.77849
269.57777
224.81417
227.945
245.11173
291.86136
406.1746
571.8413
835.60281
1455.3571
2532.2616
2362.1677
1440.8522
902.89616
644.51148
471.35673
381.33442
331.91939
332.09596
354.92854
456.72735
545.94989
734.33197
1082.3158
1835.5752
2750.1149
3932.3049
2790.6639
1730.2781
1401.7026
1086.898
980.78396
883.22511
876.1337
892.96183
940.08448
1191.2168
1333.9107
1977.1793
3085.5065
4668.5147
5396.2863
3998.0267
2525.6385
2153.282
1672.169
1552.341
1423.1196
1444.4737
1480.5109
1563.228
1859.1817
2279.9648
3063.6216
4504.4221
6184.3791
8965.6145
6123.7252
4548.774
3894.4315
3321.5165
3067.6662
2939.2044
2899.7266
2967.2601
3055.7619
3479.4043
3551.315
4895.8809
6729.5728
9368.1886
12218.322
9606.1691
7249.9951
6377.5997
5611.6382
5460.722
5182.1035
5321.1246
5320.9813
5254.7322
5832.5389
6200.7966
7496.9915
10132.484
11925.484
19023.187
15454.446
12390.339
11558.595
10606.718
10247.294
10366.886
10491.329
10319.542
10439.69
10582.639
11171.073
12592.708
14614.934
20476.058
25544.238
26363.97
20533.111
19893.403
18764.721
17541.436
18619.727
19415.793
18085.288
19155.711
18699.643
19366.64
20744.7
23609.438
28999.367
60255.686
49734.06
49636.415
50542.21
51317.922
50802.463
53319.351
56133.117
57114.398
56210.359
54395.88
51616.138
51109.631
52605.539
51198.524
44749.34
39753.342
37687.937
36666.105
34807.768
36120.172
35407.155
35343.921
37554.26
35722.388
36404.668
35878.854
38353.11
40913.054
46777.068
36040.408
36907.01
34968.169
33563.904
33911.449
30980.554
30732.97
30930.053
29449.307
31986.418
32017.384
35094.548
36086.333
36442.49
37482.08
35163.604
38707.044
38096.614
36865.085
36039.457
35591.217
35231.563
35366.251
35497.969
35703.456
36655.047
37607.078
38335.963
38738.154
36204.657
35157.918
37181.498
37366.639
38232.974
37133.989
36733.468
36655.629
36331.925
36657.355
37649.917
37532.419
38488.566
38001.705
37115.698
34740.871
34583.964
37731.715
38291.607
38541.018
38530.286
38363.089
38119.217
38051.429
38267.097
38136.188
38747.774
38786.62
38511.522
37439.813
34842.446
34593.615
36724.484
37639.715
38276.453
38439.171
38448.283
38552.148
38497.775
38654.905
38857.646
38620.59
38591.936
37755.786
36176.898
34592.677
34586.823
36227.238
37400.999
38115.744
38566.994
38579.694
38608.296
38720.026
38615.58
38661.005
38473.751
38052.36
37234.434
35557.275
33883.751
33910.387
35447.381
36460.089
37143.076
37338.724
37704.498
37762.43
37808.22
37846.891
37640.322
37390.498
36858.957
36138.559
34873.034
33741.074
33891.252
34794.46
35881.543
36425.497
36989.646
37154.169
37327.714
37321.511
37112.392
37196.729
36806.476
36493.197
35628.037
34559.968
33740.437
33079.304
33941.478
34760.794
35350.34
35667.21
35996.244
36109.447
36165.677
36279.643
35925.912
35878.717
35221.845
34754.353
33802.186
32993.016
32877.936
33105.017
33885.804
34329.376
34766.101
34929.931
35086.479
35092.697
34998.902
34875.415
34504.806
34177.053
33515.533
32787.624
32625.013
31983.583
32265.234
32728.367
33204.076
33528.402
33761.524
33904.114
33956.718
34051.928
33833.312
33664.905
33329.655
32823.791
32329.646
31819.912
31167.025
31148.522
31975.348
32045.893
32463.893
32574.97
32733.993
32617.281
32611.573
32430.885
32170.057
31884.787
31401.816
30887.911
31133.44
30269.399
30169.782
30630.047
30991.742
31313.038
31360.262
31670.71
31360.425
31581.267
31425.461
31304.4
31069.604
30625.589
30385.676
30137.076
29261.501
29194.281
29831.7
29803.217
30094.494
30286.112
30447.413
30307.558
30232.62
30030.903
29814.397
29606.259
29375.394
28996.116
29166.783
28368.839
28125.639
28554.572
28655.218
29089.463
29106.995
29238.564
29161.739
29307.066
29143.695
29105.233
28880.18
28508.329
28061.141
28549.222
27351.291
27403.448
27849.222
27953.381
27984.55
28180.301
28116.318
28214.324
28131.76
27982.407
27749.597
27521.36
27359.575
27157.74
27012.906
26637.94
26461.483
26952.762
26964.668
27296.334
27254.664
27524.183
27268.643
27378.495
27232.692
26922.338
26981.264
26740.163
26550.347
26814.12
25841.64
25801.347
26084.48
26199.498
26377.307
26404.477
26651.629
26515.606
26527.397
26327.948
26466.961
26113.933
25880.35
25634.015
25588.079
25165.118
25223.052
25647.546
25629.532
25753.225
25724.238
25887.827
25821.386
25889.119
25644.081
25636.117
25464.516
25568.603
25116.37
25232.513
24669.943
24635.558
24899.915
25009.634
25168.074
25244.173
25279.336
25248.151
25107.553
25361.894
25063.199
24994.28
24504.524
24292.894
24861.571
24270.826
24053.022
24520.825
24446.718
24616.859
24707.591
24705.556
24591.175
24628.928
24548.653
24222.135
24209.768
24082.159
23915.54
24404.875
23604.984
23699.444
23858.491
23970.924
23994.545
23973.827
24050.378
23970.652
24017.836
23836.039
23791.849
23787.465
23777.103
23279.152
24097.445
23403.128
23120.647
23239.014
23186.297
23412.816
23240.433
23550.708
23343.925
23433.65
23318.202
23439.093
23231.627
22883.323
22711.975
23498.369
22608.504
22234.92
22716.025
22534.695
22726.362
22804.606
22805.313
22636.057
22753.573
22549.811
22569.858
22567.076
22491.712
22303.197
22627.349
22015.568
21633.151
21893.032
21795.323
22207.102
21917.041
22031.474
21951.156
21991.339
21929.16
21839.186
21512.893
21521.281
21115.707
22156.565
21124.061
20672.447
21097.874
20955.626
21025.456
20991.963
21108.413
21011.864
21095.207
20977.479
21006.06
20966.238
20819.036
20712.653
20962.683
20291.569
19866.516
20089.288
19993.659
20135.645
20153.788
20180.46
20117.805
20138.28
20075.649
20022.562
20092.194
19655.409
19325.629
20387.674
19175.067
18677.02
19132.675
19089.404
19266.108
19261.427
19218.151
19165.284
19018.959
19035.368
18932.706
18823.55
19042.302
18494.284
19006.323
18254.043
17944.209
18372.965
18114.247
18327.143
18071.303
18252.048
18101.268
18397.396
18066.165
18132.061
17904.525
17890.452
17398.798
18032.94
17369.285
16796.38
17226.822
17052.604
17315.062
17174.068
17349.004
17196.004
17252.397
17121.991
17104.729
17010.564
16912.732
16601.033
16951.392
16226.592
15831.888
16279.776
16139.171
16331.993
16246.72
16396.81
16188.339
16339.631
16131.978
16263.331
15993.45
16060.672
15644.08
15909.039
15312.761
14935.973
15378.728
15178.292
15466.589
15313.57
15482.415
15340.609
15447.816
15312.559
15311.682
15180.711
15159.352
14797.382
15015.761
14373.936
14114.826
14527.237
14619.121
14557.303
14494.837
14634.869
14509.031
14616.885
14509.74
14559.496
14397.467
14388.825
14180.902
14192.05
13758.046
13402.011
13716.072
13498.013
13753.457
13701.998
13802.23
13707.305
13821.645
13448.333
13708.703
13529.713
13567.4
13226.767
13514.952
12754.816
12630.79
13003.232
12873.906
13072.559
12910.374
13076.277
12920.258
12991.535
13053.446
12958.451
12836.915
12801.149
12606.545
12705.502
12276.704
12082.02
12377.349
12272.868
12351.272
12295.865
12394.771
12270.57
12380.333
12196.927
12294.074
12085.396
12244.397
11907.668
12053.531
11812.66
11358.073
11748.664
11492.957
11777.142
11563.061
11768.721
11562.103
11697.029
11551.229
11577.333
11512.063
11492.519
11283.483
11473.921
11136.944
10794.031
11113.64
10949.744
11099.294
10965.258
11115.3
10938.2
11086.642
10886.306
11015.125
10791.844
10900.09
10677.266
10849.267
10643.018
10242.931
10578.612
10332.043
10562.119
10364.068
10546.088
10363.835
10468.454
10350.92
10370.323
10265.994
10298.325
10101.007
10299.568
10100.161
9747.4466
10019.557
9829.4353
10014.719
9840.9022
10029.927
9810.2215
9980.7879
9783.8296
9867.4828
9727.7851
9749.3774
9605.1464
9790.5084
9661.3802
9284.9223
9579.928
9359.0589
9560.6862
9391.4134
9550.9907
9384.2273
9492.1412
9352.5748
9397.4029
9275.5053
9285.2701
9160.0253
9353.3561
9255.4684
8922.1096
9186.8598
8976.9645
9187.7923
9001.6809
9198.8136
8991.7201
9132.85
8980.3421
9018.0402
8923.9093
8910.1534
8809.7876
9033.951
8972.6512
8624.1507
8896.9593
8695.7554
8889.1552
8733.1547
8899.6286
8722.8834
8845.4104
8702.7822
8741.1898
8653.7064
8631.928
8540.6533
8831.8037
8775.5846
8424.549
8707.0585
8486.0433
8696.4406
8523.8655
8709.0345
8523.7265
8645.1993
8520.4854
8544.4201
8477.9351
8457.5332
8359.4127
8757.9396
8689.6357
8314.4824
8587.995
8379.6291
8574.3829
8418.5177
8591.9091
8408.4716
8532.8767
8407.9749
8430.1526
8378.7897
8364.012
8245.5847
8790.874
8694.3033
8258.8593
8552.3069
8325.1229
8516.9683
8352.4439
8521.7777
8343.6135
8462.0241
8347.4488
8371.529
8328.6865
8335.9646
8182.4528
8900.1083
8745.186
8255.9428
8543.0367
8308.1174
8490.411
8331.1653
8497.8681
8315.8593
8432.3221
8322.3025
8341.1168
8305.2204
8334.1547
8131.5373
9031.4537
8823.1715
8250.1738
8542.6937
8297.7095
8470.1786
8301.4815
8453.5354
8270.7183
8386.2575
8276.9032
8301.3302
8266.631
8324.0923
8070.8574
9137.7372
8860.8667
8217.5528
8512.6856
8253.7242
8412.3597
8244.2574
8395.8442
8216.8449
8325.9495
8218.8822
8239.6611
8200.1821
8277.8636
7971.3938
9163.2742
8831.8387
8129.7897
8424.7809
8155.0791
8311.5853
8139.9631
8279.1754
8091.5477
8198.312
8088.3315
8112.5983
8065.6902
8163.1699
7814.2353
9073.0014
8700.4739
7963.3688
8262.9952
7991.953
8140.8569
7967.1208
8103.2548
7925.2235
8029.73
7919.6498
7940.6488
7881.0195
7984.3426
7600.1962
8851.264
8456.6584
7719.0433
8030.1873
7754.7786
7906.9861
7737.5479
7873.5941
7690.0072
7789.5616
7674.0416
7695.4944