/*--------------------------------*- C++ -*----------------------------------*\
  =========                 |
  \\      /  F ield         | OpenFOAM: The Open Source CFD Toolbox
   \\    /   O peration     | Website:  https://openfoam.org
    \\  /    A nd           | Version:  6
     \\/     M anipulation  |
\*---------------------------------------------------------------------------*/
FoamFile
{
    version     2.0;
    format      ascii;
    class       pointVectorField;
    location    "0.11";
    object      lm;
}
// * * * * * * * * * * * * * * * * * * * * * * * * * * * * * * * * * * * * * //

dimensions      [1 -2 -1 0 0 0 0];

internalField   nonuniform List<vector> 
28033
(
(-1.780536e-14 4.8656612e-16 1.3104288e-15)
(-5.4375576e-15 3.3318594e-15 9.9433006e-16)
(8076.4328 33.836093 -43.045205)
(7817.7976 -2136.6847 40.904319)
(-1.338461e-14 3.0090723e-15 -2.870051e-16)
(-1.2587315e-14 4.9008913e-15 -4.4266115e-15)
(7840.9569 -2176.9457 -44.327144)
(8097.3693 27.38391 44.983707)
(-5.6329745e-15 1.0535579e-15 6.7193838e-16)
(-2.4534443e-15 3.0423504e-16 5.8836893e-16)
(-5.4923298e-15 2.4302826e-15 8.9528572e-16)
(-2.6209443e-15 -1.1537891e-15 -6.7979696e-16)
(-7.2548563e-15 1.5542294e-15 1.0013199e-15)
(-4.7613589e-15 -9.2108094e-16 -7.3952737e-16)
(-1.132389e-15 -2.2256662e-17 -6.4484848e-16)
(-7.4239857e-16 -2.4218299e-16 -3.6669977e-16)
(-1.1196198e-15 4.5550132e-16 8.383863e-16)
(-2.3465882e-16 2.2667819e-16 1.4996246e-15)
(-4.0583243e-15 -8.7236639e-16 -1.3429605e-15)
(-5.8237189e-15 8.4462789e-16 7.5519031e-16)
(-5.1611762e-15 1.0100276e-15 9.7613867e-16)
(-1.7679952e-15 -8.1010255e-16 4.5192313e-16)
(-4.4158752e-15 1.0299569e-15 -9.452958e-16)
(8029.3229 -125.5384 -48.307551)
(7969.5956 -278.38571 -55.747402)
(7918.2109 -423.25022 -57.434767)
(7878.7301 -558.40996 -54.658009)
(7855.6098 -685.32618 -48.124157)
(7849.02 -806.05926 -35.064239)
(7856.0351 -921.39266 -20.064265)
(7874.6845 -1036.4996 -1.3359628)
(7897.7882 -1152.4039 17.072309)
(7919.1377 -1273.5631 34.320077)
(7935.4012 -1401.1952 47.504574)
(7938.3779 -1536.4473 53.668941)
(7928.9925 -1679.9562 57.786252)
(7903.0054 -1830.463 54.567743)
(7862.9392 -1985.2811 47.376923)
(-2.4434874 -15.103809 -16.283076)
(-6.7889899 -20.399728 -22.382056)
(-12.676962 -20.812203 -23.22841)
(-18.895829 -20.576596 -23.80132)
(-28.043329 -17.760038 -18.645943)
(-38.125478 -12.358312 -10.653097)
(-48.95955 -4.0266679 0.50399598)
(-58.534129 6.6593494 13.29167)
(-65.340565 20.255977 26.732979)
(-67.333339 36.156729 39.405966)
(-62.977051 53.665521 50.307263)
(-51.138763 72.150547 58.279096)
(-31.041309 90.734191 63.169119)
(-2.1187923 108.65454 63.897017)
(34.075282 124.69953 61.64439)
(76.911304 138.86007 56.971262)
(125.46238 150.89211 50.250197)
(177.63804 160.1467 42.120051)
(231.08429 166.77473 35.010524)
(285.22807 171.46745 28.354833)
(338.03572 174.28123 23.692781)
(389.25938 176.20353 21.155321)
(438.0209 177.2606 20.579977)
(484.55675 178.50556 22.425179)
(529.42732 180.07825 25.855434)
(573.7104 182.31361 29.939616)
(618.15801 185.46583 34.38777)
(663.93952 189.68801 38.428078)
(712.47237 194.51826 40.961654)
(764.26476 199.87255 42.131385)
(819.95553 205.41249 41.153569)
(879.97761 210.65253 38.281083)
(944.02938 215.58531 33.82445)
(1011.4334 219.14364 28.212401)
(1082.3078 221.82183 21.694614)
(1155.2558 222.82427 14.751909)
(1229.97 222.78917 8.3133344)
(1305.1213 220.87779 2.4843033)
(1380.4461 217.83045 -2.1545572)
(1455.0449 213.92587 -5.0622741)
(1528.3593 209.14519 -6.1630837)
(1600.1842 204.23738 -4.9988585)
(1670.2629 199.2898 -1.581465)
(1738.7316 194.88313 4.206454)
(1805.8211 191.22117 12.167449)
(1872.1496 188.57392 21.983064)
(1938.3796 187.05672 33.240547)
(2005.4201 186.70394 45.289308)
(2074.2246 187.46685 57.457279)
(2145.8121 189.20922 68.971596)
(2221.156 191.71345 79.075752)
(2301.1546 194.6878 87.053899)
(2386.5379 197.75993 92.287003)
(2477.8291 200.49599 94.292935)
(2575.2641 202.412 92.76849)
(2678.7517 203.01933 87.621371)
(2787.8266 201.8692 79.000142)
(2901.6471 198.61129 67.312966)
(3019.0225 193.04866 53.221435)
(3138.4744 185.1842 37.613215)
(3258.3765 175.22612 21.54214)
(3377.0596 163.54381 6.1489474)
(3492.9904 150.78589 -7.4404848)
(3604.9116 137.46061 -18.257072)
(3711.9062 124.44351 -25.536483)
(3813.428 112.29965 -28.602404)
(3909.477 101.53388 -27.214106)
(4000.5146 93.284342 -21.934646)
(4087.1018 87.113696 -12.463465)
(4170.6784 84.118665 0.57318015)
(4252.2102 84.023917 15.952019)
(4333.0914 87.502788 33.676601)
(4415.1793 94.497218 52.749963)
(4500.1539 104.89283 72.370203)
(4589.9787 118.48854 91.613018)
(4686.5787 134.92156 109.5504)
(4791.7737 153.47208 125.28774)
(4907.0924 173.46047 137.89236)
(5033.9219 193.77995 146.80833)
(5172.7433 213.69868 151.22332)
(5324.143 231.73985 151.0563)
(5487.7367 247.08852 145.94752)
(5662.5863 258.99281 136.22896)
(5847.8624 266.56641 121.97235)
(6041.4576 269.02901 104.085)
(6241.6522 265.93127 83.244649)
(6445.6247 257.1292 60.382732)
(6650.6804 242.26149 37.294816)
(6853.4777 222.76331 15.043759)
(7051.3449 197.41324 -4.5385216)
(7241.1167 170.56468 -20.123083)
(7421.0018 139.13551 -31.137348)
(7591.5114 109.71858 -36.876085)
(7749.8973 81.388202 -38.572709)
(7903.771 55.687817 -36.614823)
(10.244773 10.056143 19.872991)
(-3.0428665 7.558756 2.1004733)
(-13.900287 16.461859 6.2733722)
(-17.40013 8.5028678 -1.6707914)
(-28.176173 5.922922 -6.5984831)
(-40.502839 0.11433812 -17.110643)
(-53.05967 -7.8679122 -28.888306)
(-65.503722 -18.002604 -42.359519)
(-74.071654 -31.819486 -54.679693)
(-77.729847 -47.045031 -65.597446)
(-73.396824 -66.317129 -72.560923)
(-61.528705 -86.340292 -75.729659)
(-40.050306 -108.89096 -74.860212)
(-10.385286 -131.84235 -69.601416)
(27.136726 -155.09083 -61.344677)
(70.367616 -177.87604 -51.000753)
(117.74651 -199.01981 -40.248837)
(167.27459 -219.01689 -29.998501)
(217.18173 -236.9223 -21.572922)
(266.29144 -253.06282 -16.121885)
(312.79402 -267.4962 -13.426876)
(356.77639 -280.51506 -14.522345)
(398.21777 -292.98133 -18.438571)
(436.84305 -304.52715 -24.899113)
(474.12209 -316.74413 -33.285561)
(511.57676 -329.35547 -41.621624)
(549.79912 -343.13126 -49.98413)
(590.72989 -357.98305 -56.481847)
(635.03699 -374.49079 -61.348813)
(683.72477 -391.88273 -63.111567)
(737.22334 -410.98881 -62.635565)
(795.15476 -430.41814 -59.597535)
(857.72524 -450.69891 -54.474243)
(924.13324 -471.16213 -47.723516)
(993.63876 -491.48082 -40.13955)
(1065.4714 -511.28696 -32.02982)
(1138.7836 -530.42612 -24.199023)
(1212.7736 -549.25553 -16.969614)
(1286.8296 -566.88544 -10.632302)
(1360.414 -584.283 -5.6659165)
(1432.6216 -601.07846 -2.5236186)
(1503.0665 -617.6565 -1.6286064)
(1571.4241 -634.24049 -3.197961)
(1637.6289 -651.13741 -7.4050116)
(1701.8955 -668.63824 -14.154299)
(1764.7714 -687.05366 -23.130662)
(1827.0603 -706.67413 -33.789164)
(1889.7929 -727.75564 -45.397799)
(1954.1057 -750.50692 -57.134461)
(2021.1486 -775.04898 -68.163501)
(2091.9918 -801.40675 -77.72596)
(2167.5522 -829.47744 -85.187784)
(2248.5549 -859.02695 -90.06489)
(2335.5062 -889.69458 -92.015738)
(2428.6722 -921.01054 -90.832912)
(2528.0556 -952.43739 -86.429456)
(2633.3575 -983.41331 -78.859371)
(2743.9429 -1013.4098 -68.343299)
(2858.8147 -1041.9763 -55.316192)
(2976.6327 -1068.7855 -40.453945)
(3095.7762 -1093.6518 -24.669792)
(3214.4691 -1116.5442 -9.0696175)
(3330.9485 -1137.5832 5.1704534)
(3443.6509 -1157.0149 16.894695)
(3551.3753 -1175.2242 25.195436)
(3653.3776 -1192.6394 29.384599)
(3749.553 -1209.8572 29.239008)
(3840.0883 -1227.5463 24.860229)
(3925.7015 -1246.2064 16.581712)
(4007.7229 -1266.7223 4.8316072)
(4087.2052 -1289.4085 -9.1939872)
(4165.6859 -1315.345 -25.281147)
(4244.5534 -1344.664 -42.680661)
(4325.4689 -1377.7978 -60.835622)
(4410.2054 -1414.8734 -79.078237)
(4500.4943 -1455.8281 -96.785505)
(4598.0981 -1500.3229 -113.27312)
(4704.6469 -1547.8569 -127.73351)
(4821.5576 -1597.7334 -139.38613)
(4949.9244 -1649.137 -147.52378)
(5090.3727 -1701.1432 -151.52163)
(5243.1635 -1752.8393 -150.93377)
(5408.0244 -1803.2873 -145.54176)
(5584.243 -1851.6094 -135.35171)
(5770.5985 -1896.9764 -120.6895)
(5965.3734 -1938.6541 -102.13989)
(6166.3141 -1975.9848 -80.689474)
(6370.6436 -2008.5156 -57.547172)
(6575.2005 -2035.9317 -34.327069)
(6776.6388 -2058.203 -12.640862)
(6971.6962 -2075.8417 5.9543727)
(7157.9464 -2089.3696 20.113404)
(7333.7907 -2100.1373 29.468641)
(7499.5633 -2110.905 34.571316)
(7660.4779 -2122.0126 36.521344)
(3.2927448e-15 -1.3239155e-15 2.3845803e-16)
(2.4470133e-15 -9.6672015e-16 3.215493e-17)
(-9.0574249e-15 9.0550918e-16 6.4029168e-16)
(-1.2642219e-16 -5.721845e-16 4.4370095e-16)
(-7.6811722e-15 -4.9270561e-16 4.1193361e-16)
(-7.3893964e-15 2.7533729e-15 -1.0951501e-15)
(-3.2915852e-15 -8.1743692e-16 3.8364228e-16)
(-1.9032499e-15 5.3200654e-16 -8.2319016e-17)
(-4.7409759e-15 -4.8623412e-16 4.3918642e-16)
(-1.2869644e-14 1.1845665e-15 6.4228907e-16)
(-9.6157521e-15 1.4157374e-15 5.9836601e-16)
(-9.4077204e-15 4.9518432e-16 1.1192419e-15)
(-5.982767e-15 2.6210694e-16 3.0473736e-16)
(-1.1478475e-14 -5.3386198e-16 1.6580808e-15)
(-5.257323e-15 3.6289085e-16 2.8600704e-16)
(7.2943192 3.864586 -17.569403)
(-3.9670524 20.190867 -14.951267)
(-8.4896041 8.6079322 -16.238897)
(-14.736374 5.0551671 -15.345382)
(-22.360929 6.4256995 -12.493119)
(-34.102292 -4.3098415 -2.1065892)
(-46.551574 -9.7808764 8.2783012)
(-57.910808 -21.002091 22.340482)
(-66.65998 -33.765044 34.82894)
(-70.150344 -50.379266 46.29125)
(-65.624683 -65.041801 56.139908)
(-56.271844 -86.776749 60.469363)
(-34.507439 -106.83787 63.552194)
(-8.3530776 -129.13513 61.118353)
(28.093605 -150.6299 57.858001)
(69.217798 -172.12024 51.441359)
(114.26529 -193.21115 44.726969)
(162.49627 -209.82967 38.140231)
(211.26436 -227.38474 32.504882)
(259.53269 -240.84012 28.893403)
(306.42304 -255.45383 25.947611)
(350.85858 -265.60252 27.230855)
(392.86029 -276.54797 29.718416)
(432.00409 -288.28928 34.601033)
(470.86674 -299.95558 40.495712)
(508.65727 -312.49449 46.992552)
(548.43895 -324.48096 52.439217)
(590.43095 -340.68408 57.357186)
(635.46465 -354.90862 59.529044)
(685.83602 -374.3262 59.647642)
(739.81153 -392.41401 57.385266)
(799.34242 -411.99026 52.307445)
(862.89949 -432.26934 45.940727)
(930.22658 -452.50908 38.140745)
(1000.8853 -472.87924 29.733965)
(1073.0507 -492.52822 21.921287)
(1146.6732 -512.75167 13.764746)
(1221.8797 -530.73531 7.0356554)
(1296.2994 -548.61845 1.1208068)
(1370.268 -565.62721 -2.9785953)
(1442.5957 -582.04182 -5.1042113)
(1512.8434 -598.12995 -4.7892858)
(1580.6039 -614.21365 -1.665845)
(1645.7081 -630.64504 4.4374577)
(1708.4529 -647.78099 13.410586)
(1769.4738 -665.98016 24.84643)
(1829.7645 -685.54541 38.024465)
(1890.5692 -706.74043 52.005687)
(1953.2271 -729.74683 65.753103)
(2019.048 -754.67274 78.263431)
(2089.18 -781.51656 88.68472)
(2164.5523 -810.17178 96.371088)
(2245.8356 -840.40169 100.89981)
(2333.4555 -871.84922 102.03172)
(2427.5915 -904.04136 99.673777)
(2528.1758 -936.42285 93.844349)
(2634.8545 -968.39692 84.684082)
(2746.9445 -999.38372 72.494643)
(2863.3872 -1028.8771 57.79951)
(2982.7546 -1056.4981 41.389488)
(3103.3044 -1082.0317 24.321353)
(3223.1225 -1105.4417 7.8578771)
(3340.3104 -1126.8729 -6.6739152)
(3453.1936 -1146.6183 -18.014228)
(3560.5377 -1165.1091 -25.219124)
(3661.6451 -1182.893 -27.626687)
(3756.3337 -1200.3201 -25.158511)
(3845.4016 -1218.0093 -18.341203)
(3928.3662 -1239.4149 -6.9192748)
(4008.5605 -1257.7635 7.6006889)
(4085.7448 -1281.8815 24.486505)
(4162.1097 -1307.9994 43.141912)
(4238.825 -1337.7781 62.576149)
(4318.0427 -1371.5243 82.207833)
(4401.3232 -1409.3308 101.28415)
(4490.6187 -1451.2198 119.01253)
(4587.7906 -1496.9135 134.5966)
(4694.5257 -1545.9159 147.20732)
(4812.2864 -1597.5343 156.06442)
(4942.1385 -1650.9447 160.5188)
(5084.7034 -1705.2277 160.10344)
(5240.1163 -1759.4365 154.58424)
(5408.0283 -1812.6155 143.98392)
(5587.5948 -1863.8325 128.58879)
(5777.4767 -1912.1849 108.97682)
(5975.7902 -1956.834 86.033274)
(6180.1068 -1997.0212 60.966467)
(6387.4593 -2032.154 35.299762)
(6594.4757 -2061.8486 10.762929)
(6797.6458 -2086.0838 -10.851715)
(6993.6672 -2105.1968 -27.962382)
(7180.0054 -2120.1534 -39.559407)
(7355.2767 -2132.2886 -45.248369)
(7520.1071 -2143.6205 -46.228189)
(7674.794 -2155.515 -44.894187)
(7890.119 -2026.0924 -46.245246)
(7931.8651 -1873.2315 -48.643663)
(7951.0196 -1719.3576 -48.696099)
(7959.7964 -1575.7796 -45.15821)
(7952.6561 -1436.3041 -36.602782)
(7933.5019 -1306.8096 -25.315732)
(7911.2175 -1182.4044 -9.6684326)
(7890.5634 -1062.9297 7.3655024)
(7867.3985 -944.51416 22.652591)
(7859.4596 -825.93422 37.067453)
(7870.1682 -703.48817 47.816883)
(7896.1383 -573.02598 54.876619)
(7938.4198 -436.80578 54.839404)
(7991.9188 -285.91433 54.691173)
(8059.2941 -132.74186 47.936142)
(7928.5335 47.248276 38.721769)
(7771.7632 75.390292 38.598978)
(7608.402 104.82651 32.975669)
(7435.2439 137.1034 25.288646)
(7250.7068 169.4048 11.735001)
(7056.6007 199.84728 -6.6581827)
(6854.9603 226.87785 -28.144722)
(6648.346 249.27763 -52.209091)
(6440.0976 266.10088 -76.594966)
(6233.3523 276.91116 -100.00721)
(6030.9637 281.52023 -120.83966)
(5835.7921 280.19979 -137.97873)
(5649.6733 273.06603 -150.407)
(5474.4816 261.19558 -157.94928)
(5311.2401 245.17842 -159.80603)
(5160.9656 225.84329 -156.15154)
(5023.715 204.41262 -147.27166)
(4898.9636 182.0142 -133.85969)
(4785.6748 159.8093 -116.88547)
(4682.4454 138.83038 -97.257748)
(4587.5441 120.02804 -76.082892)
(4499.0439 104.11543 -54.375174)
(4415.0399 91.602994 -33.097491)
(4333.6949 82.883195 -13.054709)
(4253.1815 77.666404 4.9436563)
(4171.7932 76.850732 20.08403)
(4089.3619 80.054564 31.802989)
(4001.0031 86.043783 40.406464)
(3910.7065 94.325758 43.820926)
(3813.8772 106.82722 43.043785)
(3711.7388 120.65682 37.729078)
(3603.9429 135.9375 28.28423)
(3491.0857 151.70439 15.38292)
(3374.1358 167.05663 -0.043105363)
(3254.5024 181.16329 -16.838031)
(3133.818 193.31362 -33.790558)
(3013.832 202.98921 -49.727546)
(2896.2157 209.90513 -63.635534)
(2782.4262 214.0287 -74.721735)
(2673.6101 215.53847 -82.452539)
(2570.5523 214.78954 -86.551498)
(2473.6734 212.24644 -86.974681)
(2383.0517 208.43677 -83.886111)
(2298.4629 203.89883 -77.625868)
(2219.4179 199.15657 -68.696887)
(2145.1975 194.6956 -57.734504)
(2074.9084 190.94166 -45.494632)
(2007.4914 188.26275 -32.798657)
(1941.874 186.91124 -20.478754)
(1876.9128 187.04082 -9.3163779)
(1811.6214 188.72122 0.0011986903)
(1745.2514 191.75474 7.0594287)
(1677.0172 195.95961 11.519468)
(1607.0146 201.03959 13.344033)
(1534.7133 206.47985 12.697843)
(1460.8456 211.90445 9.5552971)
(1385.2689 217.2911 4.8383663)
(1310.0741 221.62296 -1.6901779)
(1233.0848 223.87198 -9.1073705)
(1157.3099 226.58799 -17.620155)
(1083.3392 227.1496 -26.413457)
(1010.8488 225.66716 -34.636468)
(941.34389 224.72846 -42.103397)
(875.55194 221.66782 -48.523315)
(813.76968 217.00342 -52.27159)
(756.40992 212.5884 -54.988927)
(703.33315 207.61863 -53.475161)
(653.95088 202.70517 -51.461932)
(608.28956 198.07387 -46.231214)
(564.63592 192.78366 -39.78933)
(522.4674 187.94064 -32.993523)
(479.42332 183.34176 -26.499332)
(435.10028 180.80952 -21.892977)
(389.4289 174.61051 -18.215432)
(341.00118 169.7193 -17.989828)
(290.44459 164.90941 -19.968411)
(238.54385 156.18733 -24.279532)
(186.75044 147.80765 -30.813381)
(135.51725 136.81913 -37.787087)
(88.496922 123.97503 -45.843551)
(44.939999 107.87182 -52.719776)
(7.4608194 93.803711 -57.91376)
(-22.135064 78.907645 -60.228544)
(-43.697133 58.895581 -59.350611)
(-58.080011 46.308077 -55.967494)
(-64.01423 31.724541 -47.729725)
(-63.998033 16.087915 -37.639852)
(-58.5392 7.9044496 -26.483615)
(-50.197598 -1.019405 -13.982721)
(-39.473537 -8.0936696 -2.4640596)
(-30.23347 -11.603084 6.8404509)
(-20.886069 -13.219731 13.538594)
(-15.080915 -11.607696 14.611312)
(-11.307593 -13.282713 14.093859)
(-3.0200745 -12.101302 12.846147)
(-6.8708141e-15 1.5083581e-15 1.9262289e-16)
(-1.2504183e-14 5.7375616e-16 8.4327435e-16)
(-8.3449101e-15 1.4891922e-15 5.3018253e-16)
(-4.9731758e-15 1.4991158e-15 6.2376313e-16)
(-3.4146159e-15 1.5624416e-15 3.1576894e-17)
(2.0582335e-15 9.3962624e-16 -5.746342e-16)
(2.2101935e-15 3.7457559e-17 -1.1841335e-16)
(2.4553765e-15 -8.5141669e-16 -9.3419562e-16)
(1.2987427e-15 1.0081898e-16 1.7950851e-15)
(-4.5074861e-15 9.063971e-16 1.0710522e-15)
(-5.2682467e-15 2.1856155e-15 1.0652666e-15)
(-7.4917339e-15 1.915055e-15 2.2418828e-16)
(-9.400838e-15 1.3708275e-15 6.2833768e-16)
(-6.2048683e-15 1.3247981e-15 5.4317906e-16)
(-6.971104e-15 1.5128103e-15 7.5678131e-16)
(-1.2693866e-14 6.2923345e-15 -2.1364834e-15)
(-5.2452578e-15 2.6791924e-15 -5.3037742e-16)
(-1.0752404e-15 9.8318743e-16 -1.0111087e-16)
(-2.7353382e-15 1.7746034e-15 7.3085398e-17)
(1.0178949e-15 -1.5450237e-16 -4.119182e-16)
(-1.4303492e-15 4.136346e-16 -3.3264033e-16)
(-1.0059749e-14 4.7133437e-15 -1.6449855e-15)
(2.9801421e-15 -1.9180379e-15 -8.3172098e-16)
(-4.79756e-15 2.8035442e-15 1.1420498e-15)
(-5.4778068e-15 3.5047253e-15 -3.934403e-16)
(-1.8117877e-15 1.1581936e-15 -9.1309836e-16)
(-3.9812639e-16 4.7407236e-16 -2.2932148e-16)
(-1.5272242e-15 1.100363e-15 -2.2557932e-16)
(-4.1024849e-15 1.9838802e-15 2.8069696e-17)
(-5.3424143e-16 2.551799e-16 -1.9455919e-16)
(7820.5854 -2144.1893 40.557847)
(7821.0552 -2151.9032 37.355355)
(7820.9301 -2159.1021 31.949377)
(7819.8826 -2164.5917 25.893154)
(7819.3491 -2168.9158 19.150995)
(7818.5277 -2172.2619 12.516281)
(7818.3989 -2174.8184 5.617232)
(7819.0248 -2177.207 -1.3473725)
(7820.736 -2179.4134 -8.3728998)
(7823.3209 -2181.6231 -15.425037)
(7826.9868 -2183.1548 -22.365212)
(7830.353 -2183.3912 -29.294306)
(7834.0303 -2182.4931 -35.776391)
(7837.7328 -2180.3332 -40.403189)
(7840.7467 -2177.8828 -44.478039)
(8081.1088 38.703631 -42.177682)
(8083.1804 42.501874 -39.539632)
(8084.6431 46.34589 -34.92876)
(8085.0362 49.456542 -28.792519)
(8086.0085 51.412389 -21.823895)
(8086.452 52.408216 -14.530934)
(8087.3426 52.735639 -6.8906028)
(8089.0034 52.77323 0.75163681)
(8091.6021 52.633352 8.3002939)
(8094.8138 52.171798 15.772499)
(8098.2411 51.04215 22.930331)
(8100.9173 48.460737 29.726341)
(8102.3154 44.696807 36.372899)
(8103.2423 39.223511 40.425097)
(8101.2787 33.208988 44.520697)
(1.577902 -7.1069475 -17.570035)
(-7.0732013 -8.4314397 -14.815531)
(-12.68045 -8.8172826 -19.025122)
(-19.529854 -7.7275186 -18.284739)
(-29.089848 -4.8222771 -14.016191)
(-39.568967 0.10790219 -7.6492085)
(-51.380489 5.9540998 1.2909532)
(-61.308897 13.968926 11.359437)
(-69.383399 22.772602 22.012943)
(-72.380898 32.634746 32.374344)
(-69.227444 42.949281 40.84277)
(-58.579204 53.920224 47.633193)
(-39.795524 64.273968 51.496004)
(-12.432079 74.652283 52.878744)
(22.88595 84.314189 51.388733)
(65.200281 93.597248 48.019321)
(112.90595 101.31758 42.970162)
(164.82285 108.51296 37.451346)
(218.58066 114.9717 31.663079)
(272.81055 120.23447 26.876607)
(326.39649 125.09965 23.28127)
(377.82672 129.08137 21.257921)
(427.20625 132.59081 20.948796)
(474.24495 135.90536 22.194012)
(519.21634 138.70887 24.66371)
(563.30679 141.35366 27.769276)
(607.54776 144.03069 31.008303)
(652.95131 146.4191 33.817435)
(700.79671 148.5479 35.649426)
(751.88112 150.84259 36.02973)
(807.04698 152.48981 35.080824)
(866.43322 153.81649 32.403518)
(929.98591 154.71819 28.488785)
(997.37745 154.95696 23.560458)
(1068.1142 154.37482 17.86707)
(1141.5367 153.01222 11.983562)
(1216.6323 150.97364 6.4857003)
(1292.6131 147.95908 1.5568154)
(1368.8228 144.4554 -2.3390566)
(1444.2587 140.58742 -4.725872)
(1518.6077 136.41273 -5.4961914)
(1591.1741 132.30254 -4.3211883)
(1662.0953 128.53155 -1.1372203)
(1731.1234 125.14879 4.078325)
(1798.6655 122.37825 11.184589)
(1865.2244 120.21324 19.945156)
(1931.5326 118.60902 29.884899)
(1998.4808 117.49622 40.480706)
(2067.0653 116.71614 51.084157)
(2138.3349 116.1012 61.022048)
(2213.312 115.43258 69.628266)
(2292.9397 114.47907 76.297273)
(2378.002 112.97998 80.521071)
(2469.0674 110.67142 81.926406)
(2566.4132 107.2959 80.297985)
(2669.9727 102.64025 75.602313)
(2779.2897 96.56262 68.006752)
(2893.5067 89.030595 57.888172)
(3011.395 80.14278 45.828413)
(3131.4267 70.136686 32.587256)
(3251.8995 59.358519 19.081944)
(3371.0744 48.25016 6.2511797)
(3487.3525 37.322457 -4.920873)
(3599.4079 26.994163 -13.665056)
(3706.2394 17.71168 -19.202368)
(3807.4492 9.8810813 -21.220059)
(3902.9268 3.6587189 -19.750552)
(3992.7159 -1.1315416 -14.450352)
(4078.3125 -3.5731082 -5.9395754)
(4160.1745 -4.0849238 5.5946181)
(4239.8263 -2.5368174 19.1511)
(4318.7184 1.2747356 34.447138)
(4398.5846 7.1277323 50.745698)
(4481.2234 14.743814 67.296429)
(4568.6407 23.947576 83.398344)
(4662.8201 34.24805 98.218454)
(4765.6126 45.150628 111.07289)
(4878.7065 56.098673 121.23562)
(5003.2883 66.361058 128.15677)
(5140.2662 75.462402 131.28191)
(5289.8266 82.488063 130.54824)
(5451.9431 87.211615 125.51193)
(5625.402 88.962389 116.57015)
(5809.2344 87.380498 103.79931)
(6001.9537 82.103356 88.219778)
(6201.1444 73.209179 70.177929)
(6404.7161 60.753532 50.76523)
(6609.1806 45.084162 30.974722)
(6811.8291 26.702488 12.248791)
(7009.5448 6.201783 -4.6411692)
(7199.0016 -15.645632 -17.946149)
(7379.2543 -38.060238 -28.376371)
(7548.5179 -60.808497 -34.619376)
(7706.5938 -82.031131 -39.206791)
(7862.2426 -104.78673 -41.797673)
(1.6902127 -6.0734779 -12.794002)
(-6.5995942 -7.8332361 -13.072503)
(-12.861502 -7.8322686 -16.794132)
(-21.003407 -7.8936116 -14.606612)
(-30.940815 -4.0259484 -11.258745)
(-42.466401 -0.42672459 -5.7078315)
(-53.795968 5.5625712 1.6673671)
(-64.672399 11.682798 10.197989)
(-72.314511 18.685782 19.264731)
(-75.606988 25.857171 27.473997)
(-72.816658 33.234338 35.01096)
(-62.735236 40.388939 40.36149)
(-44.622124 47.374398 43.979978)
(-18.092865 53.886852 44.9592)
(16.20932 59.907686 44.163458)
(57.518026 65.371522 41.280188)
(104.30964 70.459643 37.535007)
(155.20062 75.026691 32.818836)
(208.22244 79.096641 28.403171)
(262.19076 82.88123 24.374039)
(315.2013 86.248089 21.442404)
(366.82104 89.361692 19.771737)
(416.1859 92.174158 19.471939)
(463.38051 94.76647 20.402799)
(508.75228 97.009362 22.330567)
(553.25188 98.959351 24.794023)
(597.69756 100.4847 27.287538)
(643.28406 101.7104 29.402753)
(691.13827 102.56459 30.626849)
(742.27225 102.90038 30.869161)
(797.15321 102.83069 29.712696)
(856.36973 102.36556 27.318778)
(919.86269 101.43014 23.929024)
(987.21088 99.855799 19.567959)
(1058.1023 97.764745 14.792723)
(1131.6358 95.199053 9.8119052)
(1207.0847 92.051799 5.107397)
(1283.5247 88.419442 0.96155565)
(1360.1594 84.479469 -2.2962619)
(1436.1427 80.340827 -4.3195832)
(1510.9978 76.048005 -4.906728)
(1584.209 71.930805 -3.9430593)
(1655.5104 67.971743 -1.0282815)
(1724.9868 64.283736 3.5403323)
(1792.8492 60.877181 9.7448006)
(1859.6594 57.714879 17.35274)
(1926.1154 54.690691 25.987137)
(1993.1398 51.714241 35.152602)
(2061.7444 48.642247 44.290194)
(2133.0045 45.346246 52.807819)
(2207.9704 41.674837 60.131376)
(2287.6071 37.481358 65.748733)
(2372.7159 32.605399 69.242275)
(2463.8699 26.897045 70.317725)
(2561.3378 20.225648 68.819895)
(2665.0332 12.512652 64.750581)
(2774.4654 3.7565627 58.273548)
(2888.7394 -5.9395666 49.724255)
(3006.5835 -16.365791 39.598257)
(3126.4325 -27.211792 28.545606)
(3246.5542 -38.103225 17.318283)
(3365.1957 -48.633661 6.7090298)
(3480.745 -58.426851 -2.4630147)
(3591.9059 -67.189562 -9.5721256)
(3697.6719 -74.716484 -13.880799)
(3797.7919 -80.538213 -15.603655)
(3891.8926 -85.305707 -13.546415)
(3980.8692 -88.177654 -8.9978817)
(4065.1317 -89.951272 -1.8095396)
(4145.5498 -90.305903 7.9945397)
(4223.8068 -89.542247 19.484217)
(4301.2776 -87.34803 32.32685)
(4379.6594 -84.25146 45.914758)
(4460.9025 -80.342058 59.630523)
(4546.9029 -75.913051 72.854212)
(4639.6806 -71.308448 84.966164)
(4741.1168 -66.932967 95.409349)
(4852.8431 -63.167224 103.56251)
(4976.1091 -60.4796 109.08673)
(5111.7957 -59.078801 111.41293)
(5259.9817 -59.528573 110.60934)
(5420.7837 -61.809575 106.26389)
(5592.9654 -66.546888 98.756687)
(5774.1817 -73.577052 87.606456)
(5964.4834 -82.228018 74.218044)
(6162.2025 -93.947723 58.516672)
(6364.0829 -107.97536 42.017751)
(6567.3809 -123.91041 25.281074)
(6768.3547 -141.218 8.9253208)
(6965.2271 -160.13227 -5.2255073)
(7153.4209 -178.84236 -17.821814)
(7332.8663 -199.30553 -27.404896)
(7501.792 -219.42127 -34.61615)
(7658.4555 -238.65897 -41.217523)
(7813.3647 -260.75689 -45.219967)
(0.52235879 -4.6322576 -10.42362)
(-6.6900884 -5.7544844 -10.419097)
(-13.813952 -5.2360342 -13.354342)
(-21.726405 -4.5826906 -11.858357)
(-32.525142 -2.0530992 -9.6449604)
(-43.642304 1.1088258 -5.1900321)
(-55.867938 4.8315321 0.90878402)
(-66.188072 9.2830683 7.8167067)
(-74.24338 13.590674 14.793488)
(-77.641597 18.468263 21.980315)
(-75.197418 22.642727 27.793322)
(-65.459778 27.1363 32.704739)
(-47.897863 30.76625 35.607172)
(-22.157638 34.470796 37.144911)
(11.364724 37.517901 36.623487)
(51.692867 40.570182 35.112177)
(97.695225 43.10741 32.22086)
(147.67049 45.663217 29.069139)
(200.12573 47.992542 25.686762)
(253.34806 50.264262 22.772861)
(306.16375 52.467674 20.530785)
(357.53915 54.536314 19.266637)
(406.94257 56.478749 18.961251)
(454.31551 58.192299 19.575379)
(499.98563 59.607029 20.865316)
(544.70782 60.614616 22.482262)
(589.45483 61.201504 24.098199)
(635.32988 61.280011 25.31254)
(683.43485 60.741483 25.908086)
(734.58987 59.706149 25.522224)
(789.60561 58.05418 24.188647)
(848.80083 55.879822 21.89659)
(912.06974 53.116332 18.722738)
(979.37497 49.926878 14.958462)
(1050.0847 46.258903 10.798847)
(1123.5262 42.15571 6.5949878)
(1198.8588 37.707874 2.7066592)
(1275.2054 32.91218 -0.6472146)
(1351.947 27.948614 -3.2699353)
(1428.1155 22.949551 -4.8243856)
(1503.1585 17.97433 -5.1574973)
(1576.5771 13.115833 -4.0614732)
(1648.1183 8.4870754 -1.464731)
(1717.7861 3.9930704 2.6099342)
(1785.8612 -0.3389751 8.0256335)
(1852.822 -4.5960033 14.635547)
(1919.3977 -8.9279892 22.063696)
(1986.4913 -13.436939 29.891873)
(2055.1288 -18.26206 37.622908)
(2126.3913 -23.516692 44.752047)
(2201.3431 -29.319367 50.794681)
(2280.9591 -35.774996 55.33544)
(2366.0469 -42.99018 58.047118)
(2457.1729 -51.050892 58.716076)
(2554.5918 -60.01815 57.249037)
(2658.1864 -69.893255 53.679179)
(2767.4338 -80.60112 48.169531)
(2881.4001 -91.968097 41.014791)
(2998.7855 -103.73099 32.639574)
(3118.0073 -115.53894 23.577601)
(3237.3316 -127.01499 14.450634)
(3355.0252 -137.77698 5.9203888)
(3469.5068 -147.51947 -1.3615387)
(3579.5401 -155.99617 -6.8284653)
(3684.0628 -163.09175 -10.065124)
(3783.0957 -168.73903 -10.813391)
(3875.8914 -173.00671 -8.6599018)
(3964.5782 -176.91904 -4.9072054)
(4047.907 -178.88167 2.4485456)
(4127.4831 -180.06192 10.804015)
(4204.9453 -180.32714 20.71566)
(4281.7029 -179.98696 31.493703)
(4359.5137 -179.20509 42.694062)
(4440.1255 -178.21742 53.765428)
(4525.5699 -177.15617 64.39584)
(4617.8036 -176.49528 73.833284)
(4718.6621 -176.44755 81.877368)
(4829.727 -177.35619 87.954447)
(4952.2089 -179.49902 91.794605)
(5086.9656 -183.08074 93.054194)
(5234.1108 -188.34811 91.680529)
(5393.673 -195.29697 87.328462)
(5564.6107 -204.22373 80.71145)
(5746.0591 -215.50267 71.057105)
(5934.1374 -228.88796 59.627742)
(6130.6101 -242.61762 46.213653)
(6331.6335 -258.58193 32.755116)
(6533.5431 -275.30037 18.203955)
(6733.913 -293.26628 5.2403583)
(6929.5727 -311.41273 -7.482866)
(7117.2962 -330.22691 -17.563884)
(7296.395 -349.4245 -26.621248)
(7464.9244 -369.01751 -33.463446)
(7620.9562 -387.2847 -40.623565)
(7774.6155 -408.45819 -46.548691)
(-0.35863144 -3.0023132 -8.1934793)
(-6.8855503 -4.5789452 -9.0297076)
(-13.582837 -3.5680538 -12.022633)
(-22.177861 -3.7023273 -10.662471)
(-32.80743 -1.344572 -8.7192268)
(-44.928586 0.22445425 -4.6620663)
(-56.542853 3.1409837 0.23783542)
(-67.351626 5.7022261 5.5493704)
(-75.221009 8.8159731 11.733016)
(-78.661924 11.39538 17.053639)
(-76.203594 13.995817 22.221113)
(-66.72939 16.070197 25.937777)
(-49.516214 17.873307 28.812174)
(-24.175252 19.254545 29.897218)
(8.5646171 20.276434 30.133199)
(48.342008 21.08731 28.881697)
(93.441596 21.685044 27.123678)
(142.79618 22.22846 24.740108)
(194.4371 22.692059 22.361952)
(247.17375 23.241886 20.157878)
(299.44956 23.770609 18.50812)
(350.53107 24.393087 17.473788)
(399.71256 24.926889 17.159464)
(447.08245 25.413112 17.466367)
(492.86113 25.628534 18.231807)
(537.8308 25.545958 19.230652)
(582.86073 25.008555 20.148276)
(629.06711 23.943983 20.771714)
(677.37999 22.301233 20.804774)
(728.78523 20.046406 20.163338)
(783.85782 17.179731 18.764984)
(842.95306 13.724918 16.614753)
(906.20899 9.7481278 13.883279)
(973.26776 5.27055 10.700449)
(1043.7569 0.30938837 7.3259749)
(1116.8672 -4.967434 3.9952457)
(1192.091 -10.579908 0.89403309)
(1268.4273 -16.401114 -1.841086)
(1344.7888 -22.411663 -3.8057581)
(1420.6968 -28.411093 -4.8878099)
(1495.464 -34.40071 -4.9492142)
(1568.6461 -40.255792 -3.8861594)
(1639.9627 -45.994619 -1.5727265)
(1709.4489 -51.634451 1.922389)
(1777.3564 -57.220685 6.5506127)
(1844.1751 -62.850215 12.097161)
(1910.6157 -68.65283 18.283539)
(1977.582 -74.73528 24.741238)
(2046.0981 -81.214832 31.053973)
(2117.2445 -88.189154 36.80372)
(2192.086 -95.750723 41.600803)
(2271.5945 -103.97918 45.123246)
(2356.5676 -112.94876 47.132741)
(2447.5559 -122.71416 47.489833)
(2544.786 -133.29977 46.15325)
(2648.1102 -144.67138 43.177166)
(2756.9704 -156.72499 38.713493)
(2870.4036 -169.2639 33.006698)
(2987.0932 -182.01538 26.394226)
(3105.4539 -194.63581 19.292474)
(3223.7732 -206.77501 12.19569)
(3340.3511 -218.09564 5.6111869)
(3453.6737 -228.32218 0.066040642)
(3562.4772 -237.30782 -4.0380772)
(3666.0191 -244.98047 -6.2723432)
(3763.7876 -251.40964 -6.5698994)
(3855.8965 -256.75472 -4.7969538)
(3942.8413 -260.97298 -0.99917086)
(4025.2947 -264.29113 4.575875)
(4104.236 -267.11474 11.110058)
(4181.1685 -269.49663 19.03362)
(4257.6425 -271.57406 27.350075)
(4335.3643 -273.46857 35.895066)
(4415.8928 -275.35884 44.491215)
(4501.3898 -277.8313 52.337538)
(4593.6346 -280.72974 59.543177)
(4694.5222 -284.5257 65.51343)