/*--------------------------------*- C++ -*----------------------------------*\
  =========                 |
  \\      /  F ield         | OpenFOAM: The Open Source CFD Toolbox
   \\    /   O peration     | Website:  https://openfoam.org
    \\  /    A nd           | Version:  6
     \\/     M anipulation  |
\*---------------------------------------------------------------------------*/
FoamFile
{
    version     2.0;
    format      ascii;
    class       pointScalarField;
    location    "0.67";
    object      p;
}
// * * * * * * * * * * * * * * * * * * * * * * * * * * * * * * * * * * * * * //

dimensions      [1 -1 -2 0 0 0 0];

internalField   nonuniform List<scalar> 
28033
(
1232844.2
-1879972.7
26.925635
152.66399
2316430.3
-2640224.6
278.92476
-156.66095
1050083.2
901200.5
765918.04
618041.65
456486.28
307664.51
154508.96
-11866.425
-181229.2
-331214.72
-518390.08
-616876.68
-831210.53
-1014206.9
-999227.83
-662.30247
-1366.0879
-2051.4291
-2073.6421
-2014.1082
-1463.4167
-858.18958
0.15061166
697.59864
1455.4211
2175.805
2397.1647
2468.0773
1898.2704
1027.8584
335143.15
347787.64
312668.19
331843.82
319222.8
326366.65
323947.37
322257.69
318746.34
317372.65
311190.24
306051.42
302262.36
297084.85
290905.11
284254.42
280395.34
273758.39
268043.02
261862.7
256847.07
250048.17
245574.96
239363.77
233326.24
228179.67
222591.7
216929.91
211494.74
206188.95
201041.97
195503.68
191054.69
186288.09
181207.78
176953.4
172751.06
169599.1
164739.32
161719.25
157516.79
153889.11
150103.51
146813.83
142902.65
139453.11
135450.12
131742.67
127473.33
123486.13
118945.84
114604.22
109914.68
105266.57
100494.4
95742.566
90997.231
86331.826
81779.196
77411.381
73226.125
69276.045
65583.725
62277.304
59080.043
56396.736
54348.185
51823.383
49357.44
47503.853
45570.268
43785.833
42020.857
40289.495
38399.15
36545.341
34470.696
32381.688
30038.963
27714.97
25152.68
22665.614
20011.92
17209.041
14563.805
11921.869
9565.271
7278.2936
5235.2291
3399.1671
2013.3202
581.08779
62.057834
-313.02527
-494.82143
-327936.37
-262806.19
-311742.63
-272966.73
-310553.64
-301437.58
-307754.37
-299430.18
-304633.36
-294565.92
-295970.87
-287526.3
-284539.86
-279380.65
-274149.96
-268646.93
-263372.12
-257084.13
-252637.16
-246545.25
-240645.75
-236483.59
-229139.91
-225597.16
-218867.03
-213687.27
-208441.86
-202382.7
-197698.66
-191298.06
-186183.59
-180909.8
-175586.21
-171127.78
-166378.02
-162546.99
-157351.64
-153887.66
-149359.75
-146198.2
-142288.3
-139013.44
-135448.72
-132229
-128697.76
-125403.67
-121816.12
-118265.04
-114532.65
-110691.09
-106710.63
-102613.05
-98395.819
-94126.37
-89762.898
-85431.984
-81094.822
-76846.258
-72691.708
-68711.904
-64874.959
-61296.572
-57907.236
-54782.136
-51867.124
-49241.475
-46782.479
-44594.324
-42602.829
-40433.977
-38733.601
-36816.351
-35072.121
-33202.339
-31311.707
-29331.311
-27235.735
-25101.734
-22787.404
-20494.126
-18049.982
-15673.149
-13230.7
-10935.345
-8634.2879
-6580.7164
-4607.4081
-2930.3574
-1433.3302
-243.06552
673.65054
1258.4603
1605.8501
1368.0549
827.14532
1882453.8
1762066
1266783.7
1273145.6
878542.13
521040.49
323482.78
-32296.308
-302012.44
-649508.53
-895240.7
-1227687.6
-1560002.4
-1835201.4
-1965210.6
-548299.61
-398070.21
-177781.01
-372708.12
-300559.16
-321768.09
-309377.57
-323180.2
-305559.64
-314965.67
-312725.34
-296832.46
-303772
-285648.3
-294166.52
-281738.93
-277582.67
-266168.95
-262983.57
-255697.61
-248961.56
-241162.93
-239581.98
-233433.4
-226775.29
-223142.48
-212853.95
-212358.78
-201587.37
-200063.9
-194191.53
-189718.68
-184226.9
-180243.17
-175881.52
-168962.08
-166559.43
-163243.39
-159217.14
-155618.65
-152023.68
-148611.05
-145136.86
-141670.88
-138155.08
-134623.54
-130835.52
-126990.14
-122909.27
-118755.16
-114383.69
-109905.54
-105291.92
-100585
-95815.258
-90983.002
-86232.328
-81465.625
-76855.025
-72378.672
-68069.163
-64008.051
-60170.38
-56595.292
-53301.169
-50232.727
-47541.545
-45107.7
-42133.758
-40450.114
-38538.82
-36643.841
-34792.02
-32977.09
-31148.784
-29277.362
-27330.002
-25378.441
-23265.955
-21115.184
-18827.503
-16561.459
-14168.735
-11924.342
-9606.117
-7494.9162
-5409.9657
-3611.9548
-1933.0409
-574.75062
507.59331
1286.5534
1575.4479
1614.1138
1021.2473
1130.0158
1898.9767
1943.4332
2595.5777
1709.7698
1967.3273
881.3522
246.93927
-748.07832
-1534.6156
-1269.668
-2699.9926
-1327.995
-1624.9217
-454.63555
-130.15449
-496.86738
-296.77707
391.94671
1360.6892
2703.2963
4348.0912
6317.7604
8393.0912
10935.6
13377.9
16002.279
18793.177
21673.817
24458.651
27240.822
29949.015
32475.116
34959.176
37262.625
39449.318
41531.692
43573.523
45450.466
47318.432
49227.086
50850.364
53600.307
55564.325
58162.631
60807.328
63776.755
66950.84
70408.567
74117.848
78041.513
82238.189
86531.729
91052.381
95610.697
100278.35
104904.21
109582.22
114114.21
118633.74
122981.23
127247.35
131351.08
135349.2
139205.02
143018.21
146644.33
150396.35
154260.34
157646.3
161749.55
165124.47
167560.02
175331.44
178008.88
181279.48
190457.92
192509.16
198872.49
200932.72
212035.44
211192.11
223445.7
226244.9
233664.46
238502.65
241586.83
253303.24
255565.42
259453.52
269424.91
270954.36
280370.32
282389.32
292543.51
301096.99
298447.35
305166.56
314281.43
320171.49
319346.8
329534.1
328262.27
329840.2
326039.96
326904.98
340866.21
336976.01
312678.06
401993.14
937892.56
1001827
1052711.4
1095711.6
1117858.6
1148492.3
1148550.9
1162900.6
1149238.3
1125055.4
1142789
1072830.6
1038365.9
1082676.2
873236.93
-1547091.9
-1958249.3
-1934829.2
-2083819
-2029699.8
-1938188.1
-2221396.3
-2366098.8
-2216811.7
-2222847.6
-2137038.5
-2063495.3
-1941316.4
-1917915.6
-1792098.7
-644.35084
-936.33136
-1088.1965
-1160.3241
-985.3615
-943.85329
-847.17843
-769.71143
-774.0252
-759.62996
-710.95062
-782.54295
-784.10297
-398.95928
-447.81656
149.16562
455.71244
663.61908
691.77194
632.31065
579.39913
569.71073
582.29977
671.32675
730.06045
866.67552
900.64134
913.95362
825.03918
193.28198
309646.14
316407.6
282574.6
282269.17
286038.47
287777.6
287248.09
287491
285984.01
282782.48
278556.99
277437.16
271111.97
266852.45
260730.58
258507.78
251166.9
247033.69
240681.43
236682.12
230996.58
226772.39
220877.96
215800.39
210565.48
206422.02
200696.3
196009.98
191132.41
186650.94
181310.68
177134.92
173412.41
168691.78
165001.24
160654.5
157013.07
152675.48
149328.49
146152.81
142811.15
139277.68
136024.52
132538.71
129109.62
125745.83
122077.9
118638.47
114802.3
111115.51
107138.96
103224.99
99107.69
95019.012
90843.39
86687.101
82535.679
78449.199
74457.845
70577.486
66848.807
63280.205
59968.205
56833.559
53767.283
51247.534
48271.351
46037.877
43908.088
42228.905
40384.804
38755.375
37031.471
35423.213
33737.517
32118.032
30362.063
28592.55
26685.343
24811.646
22675.666
20685.431
18486.651
16381.999
14094.096
11971.014
9843.6973
7849.155
6018.0957
4366.6616
2870.7563
1572.8668
685.30101
-206.52361
-866.31545
281942.91
261838.19
230268.17
238835.3
237684.73
238997.88
238950.79
239910.46
238407.01
237860.92
234675.54
232585.17
228368.31
226054.91
221295.58
217365.01
212612.13
209357.99
204291.59
200278.49
195712.48
190706.1
186805.47
182608.72
178565.58
173867.17
170237.36
166229.91
162185.21
158287.91
154781.28
151139.77
147316.54
143806.63
140405.37
137097.3
133934.96
130927.14
127924.49
124912.63
121804.77
119221.21
115850.17
113113.18
110086.53
107243.23
104150.19
101241.27
97993.223
94954.214
91602.717
88377.366
84954.569
81585.282
78133.639
74701.472
71269.249
67902.097
64570.413
61355.856
58234.002
55265.915
52482.521
49811.447
47360.16
45630.984
43395.106
41265.01
40042.456
37924.877
36290.984
34760.271
33119.995
31609.038
30118.332
28715.131
27047.157
25648.23
23913.251
22354.314
20542.469
18759.621
17020.436
14799.254
12997.706
10995.307
9125.1601
7469.7418
5840.8436
4374.8254
3051.8357
1715.2792
962.81602
-226.87776
-1093.0526
223231.69
220515.21
189234.41
198909.92
193865.63
197752.6
198600.13
199990.04
198349.43
197821.6
195378.18
194167.68
190650.64
188039.9
184176.18
181820.16
177396.03
174392.22
170043.51
167125.05
163004.96
160026.4
156324.23
153008.92
148960.8
146122.09
142533.58
139072.74
135920.61
132761.52
129551.74
126393.59
123591.56
120657.28
117964.12
115128.19
112624.2
110008.46
107544.42
104945.42
102225.54
99748.176
97483.931
95038.833
92647.351
90131.607
87576.178
85027.295
82379.262
79743.894
76975.544
74255.934
71393.806
68584.695
65692.818
62824.838
59960.194
57129.012
54330.275
51623.794
48987.636
46460.498
44068.003
41730.175
39735.647
38044.782
36511.619
34874.915
33292.495
32262.454
30915.269
29596.217
28293.302
27062.856
25807.644
24577.213
23350.208
22015.801
20723.325
19336.233
17861.89
16485.686
14803.411
13263.307
12023.836
10188.59
8581.3351
7112.0666
5635.8274
4282.205
2997.267
1721.9971
788.46294
-524.73817
-1444.5934
175833.36
175422.04
145159.85
156299.28
148984.23
154580.33
154198.08
155410.13
154261.02
155368.09
153146.99
152820.85
149400.26
148962.74
145202.39
143774.74
139826.17
138540.59
134639.67
132574.33
129073.2
126626.63
123494.41
120733.11
118253.97
115526.26
112933.49
110594.15
108088.07
105599.52
103388.39
100982.91
98792.74
96419.887
94617.201
91944.892
90231.029
87497.284
85538.276
83363.125
81895.973
79824.461
77803.387
75705.737
73768.599
71770.958
69760.419
67791.276
65717.951
63674.123
61546.632
59446.83
57253.638
55103.055
52876.852
50693.713
48475.014
46301.203
44127.289
42027
39965.419
37968.222
36057.301
34265.842
32573.09
30865.556
29690.715
28243.179
26671.182
25635.321
24522.528
23243.05
22434.152
21429.647
20497.213
19564.229
18648.262
17697.783
16711.15
15686.268
14622.066
13489.272
12289.887
10906.824
9627.6801
8673.9893
7398.9631
6291.3901
5033.2718
3989.7767
2805.1817
1802.0305
846.01118
-234.02097
-1258.8295
140890.28
128304.75
105750.01
115843.98
112243.09
115280.96
115939.53
116712.38
115836.62
116096.34
114784.2
113702.22
112293.01
110951.05
108492.31
107415.66
104363.84
103355.04
100119.36
99069.048
96308.524
95012.9
92269.577
91136.408
88625.909
87000.573
85002.375
83170.951
81283.066
79690.6
77885.186
76215.149
74577.037
73094.153
71455.605
69852.963
69570.503
69120.198
67630.592
68153.395
65846.43
64477.274
63156.431
61656.331
60177.771
58596.207
56992.694
55374.756
53733.281
52061.948
50360.192
48662.984
46898.227
45151.626
43362.315
41583.323
39783.213
38008.318
36235.586
34508
32810.552
31139.697
29594.265
28120.527
26486.907
25503.349
23979.449
23011.667
21750.641
20758.817
19874.801
18693.797
17551.085
16810.095
15994.7
15281.183
14650.983
13959.64
13265.129
12552.221
11745.085
10984.489
10093.985
9268.1413
8310.0057
7349.3394
6325.0906
5417.31
4328.5949
3521.8671
2443.3494
1609.8137
799.24299
-190.42218
-979.611
86062.804
87440.256
67326.279
77882.626
71545.28
74011.559
74784.358
75707.785
74268.773
76208.45
73927.552
74945.437
72521.206
73005.532
70503.922
70641.923
68119.801
68363.738
65440.166
65511.072
62929.289
62341.416
60495.076
59732.695
58006.889
57279.781
55915.856
55017.343
53944.122
52850.27
51879.84
50797.221
49954.108
48806.715
47879.281
47134.03
46734.573
46729.63
46598.674
45961.571
46059.015
44853.771
43757.988
42753.012
41693.962
40591.859
39473.366
38395.076
37252.384
36139.099
34986.833
33853.403
32661.799
31505.432
30307.115
29108.666
27909.285
26710.465
25506.122
24325.352
23152.631
22036.884
20916.473
19832.238
18925.152
17831.23
17073.253
16244.999
15472.881
14853.502
14085.068
13393.286
12858.417
12328.732
11650.461
11285.68
10820.772
10448.91
9998.0735
9585.344
9069.9666
8559.8351
7981.271
7374.4073
6699.0164
6053.8867
5281.9472
4577.391
3712.5411
3070.121
2132.4868
1564.2724
736.91252
93.926545
-608.43407
44574.175
39403.271
32831.676
38947.196
34005.496
35985.15
36959.674
36536.968
36205.383
36103.436
36178.867
35149.422
35161.85
34878.149
33685.018
34033.371
32412.057
32764.515
31088.143
31910.953
30040.205
30918.775
29352.211
29766.069
28629.043
28802.876
27861.042
27880.337
27111.431
27035.236
26528.415
26298.973
25833.589
25512.495
25184.751
24741.79
24323.019
24242.766
23559.712
22469.687
22349.894
21867.807
21274.037
20959.455
20484.081
20030.409
19486.674
19053.192
18481.731
17998.415
17439.743
16911.33
16328.223
15780.112
15176.994
14584.291
13981.386
13373.668
12748.644
12150.906
11558.051
10960.844
10404.669
9917.2729
9341.7829
8971.0955
8519.2551
8122.4185
7817.6157
7531.6459
7310.8977
7140.1157
6892.8948
6906.7409
6829.4148
6790.3659
6626.0632
6522.9317
6395.8071
6235.7287
6023.3101
5810.7869
5499.789
5181.4691
4763.8528
4370.3682
3837.1938
3439.1036
2826.1025
2446.1147
1736.4438
1427.8272
761.93042
366.98961
-11.991712
-8616.6424
-3078.1612
-7476.4411
-2261.7527
-4339.8354
-2753.1939
-3192.1322
-2357.4215
-4508.7266
-2060.1095
-4032.2442
-2740.4022
-3533.742
-2708.6313
-3543.964
-2191.6936
-3507.0055
-1693.348
-3066.4598
-1631.5012
-2616.6481
-1260.7458
-2380.969
-1070.0127
-1633.231
-697.90432
-779.27076
-160.24784
-3.200983
429.51194
673.06541
898.41894
1247.1556
1474.1027
1730.6018
1801.149
2321.6695
2225.7603
2680.0771
2443.1397
2646.7531
2772.0094
2662.5035
2669.2584
2727.3534
2661.0401
2691.3902
2737.5947
2741.6576
2783.8349
2814.4454
2858.4943
2879.534
2915.4944
2929.1516
2928.5182
2924.6037
2893.3156
2835.6747
2793.8591
2684.2481
2610.8461
2512.3019
2383.6081
2314.4268
2196.8456
2111.9358
2093.226
2033.2809
2064.7481
2031.2388
2055.4217
2088.2162
2279.5711
2452.0483
2588.5845
2681.0473
2885.142
3021.0055
3162.0139
3283.7762
3329.503
3395.9866
3319.6298
3284.8129
3120.9893
2914.5096
2714.1478
2282.2399
2108.6072
1477.6353
1449.6831
743.91416
824.60919
565.24761
-49013.732
-47839.637
-40632.725
-38218.275
-38823.577
-40318.703
-39444.316
-41237.069
-40693.229
-41730.116
-40741.871
-41340.24
-40501.844
-39905.549
-39535.47
-38529.269
-38384.695
-36598.549
-37370.789
-34790.167
-35398.983
-33348.205
-33458.802
-31278.891
-31376.499
-29315.91
-29272.1
-27434.535
-27052.091
-25593.048
-24995.256
-23783.24
-23022.408
-22092.257
-21361.491
-20431.466
-19915.649
-19083.463
-18428.801
-17794.094
-17235.527
-16590.209
-16153.007
-15485.643
-14966.398
-14429.469
-13917.81
-13328.542
-12835.358
-12271.132
-11729.447
-11170.325
-10651.321
-10096.877
-9582.5764
-9084.8708
-8590.117
-8135.1459
-7698.5686
-7292.1181
-6901.2101
-6547.5602
-6217.5448
-5877.1447
-5607.832
-5292.8108
-4975.8595
-4694.7018
-4367.5035
-4032.0801
-3693.0357
-3272.6454
-2912.068
-2487.9263
-2231.0897
-1865.7732
-1355.7243
-948.42503
-489.23526
-83.00743
284.28083
635.71371
889.47754
1130.3383
1271.0842
1373.016
1382.731
1408.5972
1228.0813
1328.4517
930.0623
1163.8472
739.19247
1045.4743
1001.6138
-98544.31
-95662.847
-78574.456
-79419.493
-80771.237
-80830.677
-82044.293
-81333.337
-83742.851
-81934.825
-82289.995
-81515.007
-80536.207
-78931.415
-78539.163
-75944.942
-75381.279
-72954.697
-72060.903
-69425.866
-68966.295
-65049.011
-64089.861
-61282.604
-60433.607
-58060.282
-56836.698
-54649.218
-53263.72
-51413.382
-49952.043
-48266.014
-46905.725
-45389.929
-43894.369
-42747.277
-41254.25
-40205.763
-38897.979
-37919.792
-36812.505
-35796.372
-34742.472
-33816.207
-32763.382
-31797.779
-30763.12
-29702.555
-28672.78
-27581.786
-26474.755
-25370.928
-24255.665
-23116.468
-22006.52
-20910.05
-19816.65
-18774.842
-17778.431
-16793.436
-15898.599
-15041.655
-14224.981
-13489.355
-12795.172
-12111.304
-11500.353
-10904.434
-10313.907
-9727.3278
-9174.4871
-8562.4236
-7976.9731
-7162.7857
-5982.3722
-5356.0648
-4705.2044
-4013.0322
-3261.5087
-2708.196
-1941.7075
-1504.133
-832.99969
-484.10461
13.813441
264.38436
581.96824
722.9264
840.84871
1011.5832
834.11084
1192.6512
943.92421
1245.3508
1230.1302
-150986.14
-118178.98
-105449.98
-107001.46
-109633.95
-109770.73
-111740.21
-112664.1
-113876.42
-113320.8
-112919.07
-112407.64
-110686.53
-109165.35
-107829.09
-104725.21
-104343.84
-100442.78
-99866.079
-96907.706
-96272.757
-95494.254
-94495.991
-91894.797
-90983.536
-87314.255
-86130.36
-82587.731
-81036.66
-78025.271
-76197.318
-73708.709
-71841.1
-69529.231
-67707.956
-65631.605
-63915.77
-62064.806
-60398.467
-58709.567
-57149.314
-55473.015
-54001.643
-52405.738
-50875.475
-49307.691
-47782.521
-46170.461
-44606.554
-42965.878
-41339.56
-39686.69
-38035.899
-36368.405
-34732.759
-33109.531
-31504.482
-29968.888
-28450.83
-27007.821
-25622.236
-24288.534
-23048.832
-21843.997
-20747.514
-19664.889
-18642.041
-17648.27
-16678.055
-15731.194
-14792.445
-13868.385
-12892.923
-11906.472
-11075.682
-9776.6711
-8546.3252
-7607.1998
-6622.7239
-5666.5754
-4819.3985
-3915.4961
-3136.5301
-2385.9483
-1709.8352
-1145.325
-622.41791
-240.87738
118.27495
381.16005
563.96696
925.85441
957.26091
1514.6902
1948.5817
-179510.88
-167826.63
-151196.67
-146703.32
-149270.48
-148917.65
-152432.09
-152595.38
-153021.54
-153031.91
-152444.28
-150217.98
-149294.99
-146163.77
-144266.92
-141395.65
-138656.37
-135364.3
-133355.03
-129178.18
-127895.68
-123622.84
-123756.86
-121118.3
-118735.6
-115407.2
-112801.95
-109263.58
-106532.12
-103135.39
-100608.37
-97363.879
-94890.461
-92131.459
-89521.136
-87175.1
-84679.668
-82464.725
-80185.465
-78136.456
-75965.155
-74049.189
-72019.257
-70099.293
-68119.957
-66150.799
-64175.837
-62116.706
-60055.327
-57944.932
-55780.906
-53587.925
-51367.727
-49117.786
-46873.956
-44635.475
-42425.319
-40257.139
-38157.901
-36129.988
-34180.204
-32356.054
-30616.246
-28974.783
-27498.966
-26060.974
-24752.776
-23543.709
-22348.347
-21208.564
-20143.296
-19026.665
-17944.056
-16843.403
-15749.597
-14822.736
-13452.717
-12220.7
-10899.314
-9650.1228
-8349.8595
-7108.3208
-5876.4889
-4733.7829
-3632.8768
-2662.2995
-1769.4614
-1009.6456
-396.47161
198.82812
432.58176
1074.6465
900.24208
1717.4439
2071.3137
-252024.32
-225126.32
-187422.01
-197417.83
-192967.16
-199530.35
-198610.4
-200984.33
-200107.72
-200407.15
-197943.79
-197131.63
-193382.95
-191318.39
-187287.31
-183932.9
-180322.39
-176021.99
-172851.36
-168340.64
-165330.9
-160667.6
-157228.43
-151975.96
-149238.77
-144356
-141934.15
-136943.5
-134106.24
-129757.01
-126647.63
-122624.12
-119782.19
-116214.11
-113296.3
-110155.14
-107213.62
-104369.48
-101696.74
-98968.118
-96465.562
-93877.602
-91376.018
-88860.208
-86362.651
-83831.268
-81309.532
-78687.197
-76083.19
-73401.143
-70670.096
-67913.466
-65124.892
-62312.899
-59505.902
-56723.116
-53960.475
-51272.367
-48650.165
-46114.319
-43694.584
-41382.544
-39194.821
-37102.129
-35212.428
-33352.881
-31678.253
-30040.368
-28489.776
-26995.973
-25554.833
-24122.573
-22694.1
-21284.357
-19812.542
-18373.968
-16878.216
-15359.774
-13816.494
-12262.793
-10747.347
-9239.0736
-7778.2353
-6417.2616
-5098.0446
-3948.0287
-2865.2009
-1981.0246
-1177.7081
-554.09882
-59.108301
526.1118
689.61192
1540.9637
1776.5847
-279627
-261875.92
-216833.38
-234012.54
-234043.4
-238594.72
-238370.41
-241204.65
-240312.1
-238454.59
-237880.99
-233847.2
-231279.37
-227429.68
-222740.12
-218841.68
-214276.44
-209023.58
-205425.83
-199865.19
-195656.93
-190821.8
-186750.4
-182431.3
-177951.4
-173092.24
-168809.35
-163859.9
-160095.75
-155126.48
-151197.75
-146708.55
-142602.59
-138586.63
-134869.34
-131455.67
-127831.77
-124687.01
-121334.89
-118348.74
-115300.56
-112389.01
-109531.63
-106671.38
-103836.18
-100939.2
-98005.006
-94997.303
-91917.945
-88749.099
-85492.07
-82168.831
-78775.52
-75331.527
-71868.361
-68407.311
-64971.471
-61605.008
-58317.149
-55165.812
-52132.374
-49291.844
-46593.278
-44083.148
-41772.929
-39563.935
-37559.177
-35770.11
-34068.428
-32441.26
-30895.626
-29357.935
-27797.054
-26278.154
-24623.741
-22994.692
-21241.663
-19471.118
-17599.191
-15739.102
-13807.853
-11920.067
-10029.108
-8237.5616
-6498.6982
-4930.7872
-3469.4213
-2220.9975
-1118.8432
-246.41923
437.57316
1008.425
1176.3946
1522.0074
1523.0135
-391547.18
-253697.72
-269389.06
-269360.51
-278408.59
-272588.66
-279180.5
-278951.57
-276650.27
-275903.16
-272449.1
-270468.35
-265072.89
-260935.24
-255651.53
-250870.75
-246616.69
-239933.9
-236260.65
-229234.9
-224813.32
-218712.65
-215095.13
-208656
-205301.24
-198051.99
-194405.19
-187730.81
-184506.67
-178454.22
-174454.95
-169086.69
-164578.57
-159689.24
-155123.02
-151629.1
-147660.66
-143958.39
-140222.34
-136772.36
-133275.6
-129976.18
-126636.45
-123338.35
-120045.84
-116676.64
-113290.42
-109807.52
-106218.75
-102555.57
-98766.032
-94907.599
-90959.387
-86956.161
-82934.285
-78910.754
-74921.799
-71012.682
-67213.911
-63543.021
-60057.517
-56759.492
-53662.954
-50790.353
-48136.098
-45603.127
-43280.559
-41159.8
-39353.963
-37449.058
-35718.562
-33899.739
-32162.468
-30376.911
-28543.642
-26652.6
-24727.879
-22635.28
-20533.185
-18318.333
-16120.865
-13883.93
-11707.166
-9571.9098
-7572.1589
-5689.9488
-4006.6344
-2516.939
-1258.3509
-286.08091
476.46531
923.15481
1073.3337
1205.4374
1148.2987
669628.42
687694.97
673461.96
693415.34
697496.37
702878.03
726743.59
711657.77
705936.15
704694.47
699462.85
676102.96
670411.9
701159.53
601178.04
625085.88
640311.7
615199.25
634912.75
640215.97
653284.68
635591.4
659286.47
652710.07
657223.4
643691.2
639832.52
638248.02
642199.3
554703.82
464532.36
528137.54
469566.52
493206.69
493091.73
489484.53
496054.62
491857.89
496011.26
488710.2
487597.76
490338.24
458976.75
503767.5
466531.97
401362.88
406676.12
407570.91
402909.86
416922.13
413176.47
420251.08
419825.43
416912.78
418103.69
418188.26
403803.83
405075.14
431467.9
313642.25
282494.09
319555.98
281574.59
305950.1
295859.76
307969.1
303929.11
304185.98
305587.63
305320.26
301036.71
300603.7
297814.16
305855.75
276027.53
207386.58
215634.95
203530.75
210030.03
211502.07
212753.38
211591.02
212463.64
214130.81
212925.77
207212.1
215726.23
202590.99
215600
205597.87
106936.23
107698.59
110685.28
105408.26
111737.73
112154.46
110999.22
111567.67
109629.03
111654.91
109137.41
104220.99
112863.48
105328.44
109625.34
9824.8504
8374.5488
3103.2819
10002.691
5752.0709
7983.0173
6280.052
7606.5461
4754.2604
11783.196
-2334.4036
11728.129
17833.117
-5379.4757
47733.992
-80819.477
-92176.562
-79139.746
-88361.952
-84944.405
-86142.593
-86950.506
-85573.957
-88705.943
-80557.957
-92864.776
-79141.423
-78561.08
-101492.25
-13649.605
-162302.54
-199359.98
-177698.41
-185002.98
-185571.89
-188087.83
-190764.65
-189542.78
-195553.89
-183768.56
-207292.82
-179349.94
-178289.15
-214461.02
-110132.18
-262961.74
-323840.31
-271340.73
-303657.15
-288911.98
-298142.92
-295066.31
-295487.28
-297821.21
-284470.85
-293012.11
-285971.02
-267507.02
-302207.36
-178914.36
-388092.82
-372898.14
-377363.67
-369382.25
-385741.41
-386296.68
-389981.17
-393653.54
-395194.73
-389284.81
-408553.01
-360580.58
-378508.42
-415367.38
-277236.19
-441821.65
-499416.21
-440238.79
-463957.11
-444425.44
-460219.97
-455800.47
-455568.22
-451934.58
-446702.2
-452312.59
-454333.79
-413930.19
-496066.68
-248465.91
-551138.91
-669553.54
-584893.54
-635234.19
-651647.26
-645397.32
-650966.44
-681459.15
-665364.44
-681994.99
-643288.03
-628480.46
-641540.85
-621541.19
-565808.13
-603504.12
-534198.62
-485335.84
-492527.94
-513354.75
-550118.99
-527729.71
-509754.26
-486320.09
-484051.79
-493411.29
-495332.72
-493724.75
-548717.75
-483797.37
-578044.88
-538458.12
-645726.16
-676749.37
-702668.97
-764479.65
-731228.77
-683228.02
-777339.87
-761331.82
-736790.65
-699976.65
-670154.29
-636565.74
-529329.08
-397395.84
-401337.98
-453863.57
-468033.59
-485607.08
-503551.6
-516385.53
-531009.29
-548073.92
-520159.54
-509523.35
-477443.09
-479871
-471592.5
-470713.15
-315476.57
-365757.38
-357065.8
-392639.87
-417635.14
-405119.62
-426306.17
-420998.3
-409015.79
-427022.55
-409366.65
-415588.05
-399459.9
-353915.21
-368003.74
-314441.68
-360234.06
-365853.09
-375755.23
-386545.39
-395449.92
-399221.49
-403037.67
-402471.76
-392569.5
-392154.47
-381061.3
-365621.43
-357788.93
-335710.6
-334655.91
-368969.9
-359121.15
-388077.79
-392084.85
-400438.4
-409740.13
-407933.5
-411097.81
-409915.09
-398401.95
-390183.95
-372356.03
-355327.93
-350355.35
-321284.13
-336043.55
-344821.05
-358929.41
-364843.5
-375528.06
-375010.69
-377044.69
-377151.12
-370796.88
-368049.14
-360087.33
-348009.01
-339153.94
-320326.35
-317531.98
-342149.32
-343009.81
-358164.59
-360003.62
-368571.48
-371529.36
-372866.75
-372877.98
-368783.26
-361199.96
-356143.94
-345852.94
-331084.39
-332720.53
-318591.98
-324681.85
-334369.04
-338820.31
-349949.45
-351366.39
-355588.24
-356995.75
-355756.58
-353163.08
-348829.48
-341950.96
-334929.85
-324147.52
-316162.11
-309548.69
-324048.57
-326314.11
-336356.37
-336320.43
-345033.6
-343010.79
-346264.2
-344957.71
-340829.21
-337567.81
-331998.82
-326315.52
-319431.9
-313870.95
-308759.15
-311527.59
-317739.51
-319534.48
-325575.25
-326663.82
-330205.78
-330057.35
-328893.3
-329246.42
-324691.23
-322338.53
-317012.9
-311518.58
-308269.34
-300091.11
-308385.68
-310058.09
-316741.94
-318113.46
-323165.06
-322312.09
-325329.8
-324551.84
-322326.18
-321343.2
-318267.93
-313567.06
-310325.08
-307237.51
-298579.52
-298683.1
-302984.16
-304216.48
-307218.56
-307488.41
-310532.61
-310728.1
-311356.84
-310521.53
-309054.04
-306541.42
-304626.38
-301200.45
-299740.95
-292481.46
-294173.92
-295081.8
-298642.67
-299832.02
-303536.73
-303193.27
-305201.92
-304888.7
-304464.71
-302238.92
-302229.04
-297954.19
-297498.89
-295069.89
-286404.39
-286292.16
-290215.88
-289755.19
-292387.36
-292333.45
-293503.81
-294238.24
-294711.41
-293508.09
-293436.53
-292242.94
-290792.32
-289585.05
-289217.84
-280996.87
-281043.13
-282815.32
-284046.61
-285870.6
-286371.99
-287987.95
-288153.38
-288853.59
-289139.44
-287882.65
-287956.24
-284186.31
-286002.89
-284235.83
-274575.77
-274580.43
-277752.66
-276335.23
-278415.87
-278020.44
-281144.83
-278786.58
-279010.86
-278422.92
-277867.06
-277784.89
-274892.92
-275284.11
-273816.49
-270190.63
-268899.18
-271135.03
-269810.27
-272694.94
-273023.97
-273299.4
-274335.86
-274365.45
-274908.28
-273851.12
-274564.95
-273461.13
-272516.43
-273955.51
-264265.81
-263688.6
-265092.74
-264448.55
-266015.24
-265883.25
-267054.62
-266161.48
-266506.91
-265933.8
-265441.86
-264926.9
-264915.63
-263283.82
-263399.96
-257893.25
-257599.92
-259440.32
-259504.22
-260392.38
-260144.32
-259849.6
-261363.78
-260806.24
-261567.53
-259584.46
-261743.54
-259627.48
-262306.67
-260644.44
-252775.09
-252226.21
-253287.1
-252547.43
-254166.46
-253827.62
-255710.89
-254187.7
-255185.5
-254022.53
-253409.44
-254222.08
-252240.38
-253463.45
-252088.77
-247656.36
-246684.2
-248240.5
-247221.24
-248162.96
-247618.47
-248801.08
-249461.85
-248513.83
-249117.63
-248846.25
-249628.16
-248453.55
-249485.19
-248583.85
-239813.05
-241242.96
-241495.67
-241660.55
-242718.75
-242222.58
-243283.2
-242445.5
-243265.11
-242904.78
-242438.74
-242922.23
-241212.74
-240871.44
-241980.7
-236682.8
-234961.42
-236255.87
-236025.05
-236746.53
-236894.39
-237508.11
-237231.2
-236775.17
-237630.99
-236496.22
-237014.25
-235181.72
-237529.24
-236227.92
-229042.01
-229468.79
-230005.73
-230461.39
-230806.11
-230764.89
-231591.05
-230855.53
-231629.86
-231112.81
-230093.15
-231629.36
-230234.62
-230431.91
-230040.36
-224275.41
-223862.95
-224620.21
-224187.97
-225029.16
-224622.4
-225790.11
-225464.08
-225389.8
-225832.01
-224151.41
-225512.51
-224011.88
-224722.43
-224632.3
-218537.91
-217019.41
-218687.23
-217787.08
-218981.77
-219011.03
-219687.07
-219184.08
-219641.61
-219553.49
-219884.67
-219766.1
-217942.14
-219644.41
-218340.98
-212298.84
-211149.78
-212603.38
-212528.16
-213345.31
-213666.25
-213892.49
-213947.13
-213761.42
-213893.47
-212959.85
-214287.49
-212034.93
-212966.16
-213571.72
-207063.24
-205364.12
-206374.12
-206329.28
-207619.67
-207391.34
-207818.95
-207667.76
-208266.62
-207832.29
-207786.03
-207729.36
-206609.56
-208338.93
-206689.45
-200411.12
-199984.65
-201579.59
-200643.19
-201628.07
-201671.43
-202133.05
-202198.35
-202221.18
-202420.31
-201630.88
-202556.49
-200975.33
-201717.55
-202259.87
-196043.22
-193614.38
-195228.57
-195021.81
-196176.3
-195659.62
-196402.36
-196359.83
-196620.27
-196437.4
-195932.73
-196794.64
-195238.66
-196704.15
-196177.22
-189915.29
-188670.76
-189918.87
-189603.63
-190350.27
-190934.18
-190997.53
-190893.03
-190694.32
-191233.04
-190607.44
-191432.75
-189915
-190966.89
-190759.38
-185122.54
-182835.57
-184647.08
-183966.83
-184938.77
-185197.54
-185335.16
-185448.87
-185430.46
-185687.49
-185118.17
-186036.18
-184684.9
-186150.12
-185627.49
-179725.36
-177853.04
-179251.44
-178851.3
-179948.8
-179914.91
-180355.34
-180312.37
-180587.41
-180726.68
-180270.44
-181058.84
-179821.87
-181062.99
-180453.23
-174678.52
-172742.14
-174300.13
-173868.15
-174730.31
-174869.87
-175322.03
-175410.44
-175522.04
-175740.35
-175223.33
-176217.71
-175023.3
-176515.07
-176059.95
-169471.3
-168233.28
-169493.49
-168911.91
-170091.7
-170231.42
-170653.65
-170844.28
-170946.95
-171264.87
-170817.66
-171630.72
-170576.96
-171720.86
-171144.16
-164539.99
-164060.69
-164770.74
-165284.54
-165322.53
-165901.15
-166130.41
-166305.3
-166542.43
-166787.26
-166504.04
-167300.47
-166624.07
-167662.42
-168040
-161248.08
-159379.18
-160574.17
-160494.53
-161595.57
-161508.49
-162308.67
-162196.19
-162678.14
-162629.93
-162352.9
-163448.12
-162307.46
-163755.8
-163377.03
-156700.37
-155666.71
-156673.25
-156807.5
-157254.72
-157888.34
-157989.63
-158503.74
-158537.7
-158789.05
-158533.73
-159461.45
-158628.19
-159873.07
-159434.18
-153431.79
-151513.02
-153070.45
-152732.4
-153841.68
-153902.72
-154577.38
-154677.93
-154871.59
-155286.34
-154964.53
-156006.23
-155009.02
-156296.63
-155922.03
-149342.77
-148149.1
-149430.81
-149407.05
-150241.63
-150630.93
-151089.13
-151233.3
-151587.44
-151844.71
-151600.27
-152447.21
-151658.53
-152860.46
-152533.1
-146059.75
-144601.04
-146099.8
-145877.33
-146948.66
-147102.1
-147680.38
-147886.92
-148152.73
-148513.58
-148206.15
-149168.28
-148350.09
-149484.73
-149161.65
-142487.48
-141426.69
-142729.59
-142758.48
-143701.32
-143976.65
-144583.15
-144674.69
-145040.62
-145285.11
-145101.87
-145973.23
-145199
-146201.01
-145967.01
-139271.6
-138094.25
-139534.14
-139474.28
-140475.55
-140785.84
-141298.87
-141484.13
-141773.48
-142113.67
-141869.09
-142752.23