/*--------------------------------*- C++ -*----------------------------------*\
  =========                 |
  \\      /  F ield         | OpenFOAM: The Open Source CFD Toolbox
   \\    /   O peration     | Website:  https://openfoam.org
    \\  /    A nd           | Version:  6
     \\/     M anipulation  |
\*---------------------------------------------------------------------------*/
FoamFile
{
    version     2.0;
    format      ascii;
    class       pointScalarField;
    location    "0.25";
    object      p;
}
// * * * * * * * * * * * * * * * * * * * * * * * * * * * * * * * * * * * * * //

dimensions      [1 -1 -2 0 0 0 0];

internalField   nonuniform List<scalar> 
625
(
466157.11
-746035.96
-232.03446
3174.5758
973032.39
-1380095.9
3017.8766
-877.93508
397391.66
-37424.275
-125698.99
-1700.8327
148.1336
1359.9923
209306.66
236493.52
249905.75
258034.04
248586.81
249467.35
242161.6
229437.12
225786.65
201893.14
189140.3
169359.31
150916.52
130549.44
111444.48
92661.847
74061.885
58613.913
41973.045
29156.605
17368.37
6800.2465
1874.5245
-265698.12
-198153.91
-266423.85
-230646.4
-228239.69
-232878.44
-216091.54
-207294.37
-201797.78
-184635.52
-170429.8
-153872.11
-136795.44
-117693.18
-99337.669
-80848.907
-63409.428
-47830.393
-33000.106
-22287.421
-11516.724
-4945.039
-198.20309
575154.4
-9265.2051
-177028.78
-265147.98
-364421.62
-288072.68
-270791.17
-314547.99
-265657.9
-249022.93
-255285.33
-237817.68
-224384.52
-202550.89
-184286.86
-161344.3
-139237.91
-117843.22
-96009.099
-76436.934
-58070.122
-41375.817
-27113.253
-15088.663
-5914.5118
843.75555
1414.1619
-1354.047
-1582.8558
2072.4013
8381.4331
16371.617
28491.921
43194.082
59653.453
78502.976
99045.101
120576
142913.36
164310.65
187558.74
204082.28
213894.52
254780.64
251266.88
265646.51
265175.59
297813.9
263083.74
288770.7
292806.1
240885.25
520243
515773.1
488762.44
-796855.01
-807161.24
-796553.32
2736.1844
3755.5923
4553.5505
-1746.7972
-1474.4175
-1278.4645
130390.6
151731.31
161661.74
155276.6
148758.43
157273.34
142915.17
140892.32
126750.63
120827.67
111177.42
99958.45
87666.269
75878.119
64392.599
52834.893
42460.847
32664.496
23187.659
16587.608
9199.5209
4934.3217
1873.3559
-34109.933
-26923.86
-37542.263
-22425.019
-31111.17
-25436.072
-26547.975
-21711.74
-20042.524
-18297.796
-17332.475
-15261.734
-12866.181
-10154.087
-7657.0222
-5205.1514
-2779.5852
-809.66097
203.44234
1434.4053
1078.2303
2281.3106
1512.3759
-180406.48
-161061.68
-156242.85
-143885.44
-161385.43
-141460.79
-142493.82
-133014.23
-126106.91
-115420.13
-106098.11
-93157.042
-82186.881
-70186.69
-58639.853
-47228.08
-36504.273
-26544.325
-18646.427
-10368.169
-6437.1204
-2609.6345
-243.30501
321711.18
319327.97
335791.38
-39422.601
-18622.098
-42318.517
-92583.998
-112599.01
-171537.47
-378232.01
-369362.21
-384722.56
-336478.28
-311525.56
-305974.44
-290117.07
-271340.24
-288557.56
-255268.22
-250323.31
-257836.97
-259371.41
-255325.43
-269408.73
-246586.73
-236746.11
-244189.82
-242081.69
-238525.97
-248936.06
-234024.73
-217190.21
-233442.46
-218753.65
-209209.59
-220220.34
-203010.68
-193415.25
-206340.82
-185827.13
-177764.28
-186584.39
-167410.63
-158404.4
-167557.76
-146176.21
-139112.27
-146623.02
-125745.68
-118768.61
-125360.62
-105056.39
-99067.474
-105016.23
-85087.901
-80083.303
-84766.522
-66473.694
-61974.327
-65941.397
-49236.416
-46027.12
-48883.904
-34113.389
-31276.675
-33405.102
-21589.099
-19835.549
-20967.815
-10260.121
-9200.5621
-9858.5402
-3328.0628
-3578.3068
-3518.9168
255.28666
1954.0404
1190.5924
-2205.6551
-2056.2513
-2544.0964
-1099.3298
-1345.9333
-776.26877
2579.3666
3011.0851
3646.0269
288221.59
253627.4
288680.72
286447.99
249437.7
278150.69
303869.6
266053.36
294150.98
278117.47
251444.8
277586.31
279365.63
259794.29
270555.98
278790.26
239581.99
265418.53
264178.09
242019.62
261414.61
259109.22
229049.65
246774.38
236718.47
221441.01
231154.89
226477.4
203877.77
220129.43
207437.72
188051.69
198936.84
188627.14
167382.72
181795.4
164571.71
149044.44
160253.04
143501.75
129193.29
138644.7
120871.15
109331.05
116964.04
99218.803
90270.014
95941.455
78951.835
72144.904
76098.684
59916.469
55381.257
57650.513
42124.894
40104.973
41072.566
27902.264
26476.992
27418.525
15132.872
13956.859
14819.872
5945.9367
6316.7637
6860.7465
1279.5441
1052.7635
1725.2505
156951.58
176723.04
145089.95
167347.92
162429.71
157707.39
154860.37
149735.71
133528.41
129213.93
123265.14
106922.1
94560.212
82556.814
69859.84
58052.029
46623.222
36411.459
27323.947
18945.391
12370.516
6678.7219
614.0918
-21499.068
18058.737
30.964509
25647.253
27875.225
21894.824
29056.441
26547.953
24859.244
26008.757
25737.545
23432.314
21896.632
19791.716
17435.203
15155.819
12516.539
10583.332
8038.8527
6243.7365
4725.0717
2187.6539
732.88542
-92130.611
-92650.101
-141549.83
-131557.61
-142054.73
-145545.37
-139168.63
-132631.34
-124510.17
-118084.46
-109088.83
-98066.301
-88510.959
-76822.323
-66441.729
-55703.905
-45627.662
-35953.7
-27296.438
-18938.146
-12310.143
-5994.3325
-3627.5941
183544.29
213614.52
184400.19
172550.52
197580.02
180332.92
141035.14
151213.35
177072.8
127039.35
177072.62
146015.74
156105.47
143498.25
152681.48
121511.3
155762.58
155235.33
129436.21
148566.76
139215.16
122046
137749.56
135824.45
119803.34
126164.37
135876.92
105091.84
123093.54
117883.71
97654.443
108854.6
110207.54
84750.389
99182.999
99729.479
76594.2
87293.247
88201.044
66080.274
74971.026
76428.442
55961.197
62924.668
64911.034
46383.203
51791.294
53256.714
37517.209
40606.659
42399.62
28977.407
30742.349
32112.973
21379.235
21360.594
23194.694
15518.141
14686.996
15730.818
8296.1826
8233.7953
8337.9317
5643.7008
4535.2741
5638.7575
555.73414
-46.73653
-320.80507
-44365.33
-47346.855
-26132.413
-19695.414
916.25491
-12158.042
-1753.5911
-6510.8839
-11150.563
-1498.4015
-2218.0362
-20339.915
-2000.2511
1472.8446
1807.8761
-996.63636
9021.0458
-12223.081
4857.7642
6060.5819
-7975.7235
580.20456
10284.907
-3265.3107
2151.6682
12133.792
-7360.9663
4872.3118
11038.453
-954.30887
3614.1586
12095.411
-1252.9552
5482.1001
13922.228
1132.2806
6036.9649
13759.354
998.9149
6081.4587
13010.614
2675.7328
6204.16
13139.118
3125.9823
6456.8746
12204.343
3598.6083
6362.5629
11076.914
4069.3918
5841.7489
10160.007
3883.7977
6008.5448
7911.8138
4608.9492
5166.9231
6540.4437
3206.4867
4331.6728
3051.848
3403.664
2216.9316
3608.2429
2578.4455
1882.6527
2071.2791
2414.0881
-169455.36
-181672.04
-206999.69
-127243.03
-103761.85
-152045.95
-127339.05
-178810.92
-161359.76
-164283.71
-140521.03
-151899
-136196.49
-156275.01
-155311.44
-136847.15
-152672.21
-154140.78
-135320.88
-149609.07
-143832.19
-127410.01
-141596.96
-151327.55
-116896.47
-140427.47
-133812.06
-115036.02
-126552.81
-127986.34
-101866.22
-117406.98
-117432.85
-92843.588
-105833.77
-106842.89
-81387.697
-94830.341
-94647.846
-70268.306
-82048.927
-82487.615
-58757.246
-69908.935
-69907.932
-48146.21
-57789.449
-58423.58
-37825.285
-46389.843
-46881.457
-29038.782
-35539.639
-36588.672
-20643.481
-26131.612
-27013.024
-14170.969
-16992.777
-18095.123
-9400.4752
-10661.149
-11650.747
-2914.3704
-3315.2595
-2748.6055
-1773.1471
-2506.698
-4349.5626
)
;

boundaryField
{
    free
    {
        type            calculated;
    }
    fixed
    {
        type            calculated;
    }
    freeTop
    {
        type            calculated;
    }
}


// ************************************************************************* //
