/*--------------------------------*- C++ -*----------------------------------*\
  =========                 |
  \\      /  F ield         | OpenFOAM: The Open Source CFD Toolbox
   \\    /   O peration     | Website:  https://openfoam.org
    \\  /    A nd           | Version:  6
     \\/     M anipulation  |
\*---------------------------------------------------------------------------*/
FoamFile
{
    version     2.0;
    format      ascii;
    class       pointVectorField;
    location    "1.49";
    object      lm;
}
// * * * * * * * * * * * * * * * * * * * * * * * * * * * * * * * * * * * * * //

dimensions      [1 -2 -1 0 0 0 0];

internalField   nonuniform List<vector> 
3969
(
(0 0 0)
(0 0 0)
(-3842.9531 264.96118 15.692464)
(-3757.0777 684.23068 -11.103134)
(0 0 0)
(0 0 0)
(-3740.7674 613.60632 -12.637261)
(-3827.5777 192.30657 16.334414)
(0 0 0)
(0 0 0)
(0 0 0)
(0 0 0)
(0 0 0)
(0 0 0)
(0 0 0)
(-3832.1457 316.03565 11.514665)
(-3822.6671 368.64122 7.9823052)
(-3812.6754 421.98572 5.3697647)
(-3802.3163 475.88542 2.8723265)
(-3791.4367 529.73179 0.39534741)
(-3779.8201 582.40794 -2.5914944)
(-3768.0788 633.66362 -6.580757)
(-13.830093 -34.744491 -36.754318)
(-15.355978 -58.720736 -50.492032)
(-25.197796 -86.814209 -64.412281)
(-42.684617 -114.52806 -74.958571)
(-66.170298 -142.98047 -86.544191)
(-98.553673 -170.72435 -96.403958)
(-137.02365 -197.7341 -107.05584)
(-184.71926 -224.18706 -116.07878)
(-239.24426 -249.15894 -125.19242)
(-302.58526 -272.92294 -132.10867)
(-373.51632 -295.34627 -138.68362)
(-452.74232 -316.26457 -142.82134)
(-539.97733 -335.08305 -145.65413)
(-635.01751 -352.2125 -146.44734)
(-737.69497 -366.79158 -145.17103)
(-847.26226 -379.14111 -142.25046)
(-963.62236 -388.6377 -137.5003)
(-1085.8471 -395.23479 -131.15255)
(-1213.3693 -398.63511 -123.42157)
(-1345.1703 -398.65359 -114.53423)
(-1480.261 -395.07134 -104.95563)
(-1617.5863 -387.84114 -94.856353)
(-1755.9549 -376.8462 -84.733123)
(-1894.14 -362.16055 -74.847415)
(-2031.0516 -343.75504 -65.586406)
(-2165.4379 -321.87804 -57.150851)
(-2296.1834 -296.699 -49.900244)
(-2422.3245 -268.50557 -43.877917)
(-2543.0387 -237.71467 -39.176114)
(-2657.5357 -204.7631 -35.847826)
(-2765.3717 -170.11843 -33.756658)
(-2866.1637 -134.31336 -32.796158)
(-2959.8332 -97.902158 -32.676446)
(-3046.4296 -61.337549 -33.253788)
(-3126.2908 -25.355429 -33.987933)
(-3199.5774 9.7443049 -34.851161)
(-3267.4068 43.462768 -35.326965)
(-3329.8972 75.217793 -35.162988)
(-3388.2716 105.03746 -34.200875)
(-3442.9294 132.14997 -32.246944)
(-3495.0333 157.08546 -29.260011)
(-3545.1498 178.99867 -25.219663)
(-3594.0205 198.51398 -19.993182)
(-3643.0553 215.85553 -14.116823)
(-3691.0746 229.69235 -7.1526962)
(-3741.4672 243.63143 0.22063113)
(-3791.8826 254.35153 8.4561779)
(6.0728625 18.357068 29.310333)
(-4.0098468 33.751005 25.07735)
(-9.0287836 52.563053 31.525262)
(-28.647939 74.488063 22.574473)
(-54.538152 98.882748 17.843053)
(-86.385329 124.32643 9.0838468)
(-127.07971 151.74268 1.2873617)
(-173.00206 180.19801 -7.0778261)
(-226.94675 209.79292 -14.940325)
(-288.03164 240.9735 -22.600878)
(-355.33828 271.91053 -29.084875)
(-430.80083 304.43156 -35.35877)
(-512.36031 336.53274 -40.485296)
(-601.25377 368.7022 -45.232782)
(-696.46067 400.53379 -48.970064)
(-798.2198 431.34149 -52.260971)
(-906.14789 461.30743 -54.908495)
(-1019.2997 489.24353 -57.304298)
(-1137.9745 515.86029 -59.525003)
(-1260.5767 539.88163 -61.665499)
(-1387.0825 561.73828 -64.068443)
(-1516.2004 580.89985 -66.709058)
(-1647.1885 597.26198 -69.767476)
(-1779.0638 610.91089 -73.414425)
(-1910.7773 621.63183 -77.533918)
(-2041.1986 629.82996 -82.239178)
(-2169.8446 635.52673 -87.238696)
(-2295.166 638.92499 -92.575201)
(-2416.4203 640.38936 -98.155231)
(-2532.8202 640.21485 -103.60395)
(-2643.6871 638.83661 -108.68315)
(-2748.5054 636.49936 -113.09728)
(-2846.8921 633.66874 -116.58902)
(-2938.6796 630.67685 -118.86433)
(-3023.8537 627.85229 -119.72046)
(-3102.5214 625.55146 -118.94142)
(-3175.059 623.94146 -116.44842)
(-3241.8653 623.42333 -112.06273)
(-3303.5491 623.75403 -105.93677)
(-3360.8157 625.55902 -98.182679)
(-3414.4902 628.50342 -88.981009)
(-3465.2785 632.7897 -78.504365)
(-3514.1555 638.38754 -67.077871)
(-3561.931 645.24328 -55.281066)
(-3609.3445 653.28 -43.356515)
(-3657.3694 662.36926 -31.76931)
(-3706.2676 672.8827 -21.083842)
(0 0 0)
(0 0 0)
(0 0 0)
(0 0 0)
(0 0 0)
(0 0 0)
(0 0 0)
(-16.396944 22.259326 -31.536236)
(-21.833237 70.59342 -49.978848)
(-24.671813 75.444404 -59.51106)
(-44.253256 118.00757 -71.393015)
(-65.767629 140.15436 -82.255341)
(-96.463813 169.62758 -89.959671)
(-134.03966 199.03183 -100.5857)
(-178.18554 224.15214 -107.24703)
(-230.32312 254.4407 -116.35213)
(-289.07543 278.46258 -121.09756)
(-355.66237 308.29738 -128.68524)
(-429.43825 331.79165 -130.9072)
(-511.12571 359.01965 -133.80232)
(-600.14129 384.02663 -133.62777)
(-695.95016 408.90048 -132.1744)
(-798.798 433.95275 -128.89437)
(-907.84287 457.44166 -123.8579)
(-1022.5533 481.01608 -117.49252)
(-1142.5279 503.29092 -109.88484)
(-1266.5777 524.56908 -101.3176)
(-1394.2057 544.64449 -92.239187)
(-1524.1201 563.10279 -82.88905)
(-1655.5339 579.96922 -73.710676)
(-1787.2089 594.77916 -64.986635)
(-1918.2146 607.70466 -57.095926)
(-2046.9514 618.13444 -50.587694)
(-2172.2944 626.36068 -45.745502)
(-2294.6902 631.78693 -41.793583)
(-2412.4798 634.83952 -39.441435)
(-2525.0654 635.51324 -38.500608)
(-2631.9652 634.01658 -38.913602)
(-2732.7559 630.53005 -40.444838)
(-2827.3146 625.39201 -42.827213)
(-2915.5841 618.95126 -45.784592)
(-2997.7531 611.61096 -48.878265)
(-3073.8575 603.65938 -51.937885)
(-3144.9631 596.69526 -54.252346)
(-3210.8732 588.7027 -56.187824)
(-3272.4475 582.73523 -56.707835)
(-3330.4084 577.79956 -56.216475)
(-3385.3247 574.69932 -54.382215)
(-3437.9337 573.5392 -51.144754)
(-3488.9339 574.70525 -46.720094)
(-3538.9135 578.17853 -41.125641)
(-3588.6073 584.00191 -34.611721)
(-3638.5509 592.18186 -27.419621)
(-3689.1404 602.19699 -19.854441)
(-3752.1631 561.88648 -9.1874951)
(-3763.882 509.27361 -5.7391449)
(-3775.5052 455.97561 -1.6226685)
(-3787.2325 402.02538 2.7694155)
(-3797.442 347.32155 6.9753589)
(-3807.9711 294.89595 10.732129)
(-3816.8551 242.34389 13.90394)
(-3776.9658 181.76075 5.722381)
(-3728.1925 171.77262 -5.0988885)
(-3680.0654 160.95811 -17.083575)
(-3632.7745 149.65929 -29.314489)
(-3585.7088 137.24365 -41.775235)
(-3537.8312 123.26312 -53.78641)
(-3488.442 107.5038 -64.962425)
(-3436.7591 89.54734 -75.055756)
(-3381.9403 69.366357 -83.789794)
(-3323.0752 46.658688 -90.856253)
(-3260.1856 21.234044 -96.329232)
(-3190.5299 -7.2850088 -99.970645)
(-3116.6664 -36.498228 -102.45997)
(-3035.7623 -68.897544 -103.20905)
(-2948.352 -102.60505 -102.8173)
(-2854.2308 -137.37831 -101.30498)
(-2753.3811 -172.66009 -99.075188)
(-2646.0063 -207.8128 -96.253397)
(-2532.4188 -241.98294 -93.255193)
(-2413.2224 -274.75029 -90.032712)
(-2289.0392 -305.06017 -87.133279)
(-2160.6954 -332.58966 -84.378669)
(-2029.0332 -356.6029 -81.956077)
(-1895.17 -376.65856 -79.95883)
(-1760.1356 -392.40393 -78.334974)
(-1624.9846 -403.55066 -77.038675)
(-1490.819 -409.99906 -75.931459)
(-1358.6722 -411.71321 -74.914735)
(-1229.5429 -408.84209 -73.806416)
(-1104.2888 -401.58066 -72.420014)
(-983.83297 -390.26264 -70.642903)
(-868.71121 -375.32232 -68.207881)
(-759.52306 -357.23248 -65.047735)
(-657.57071 -335.97159 -61.460402)
(-562.2577 -312.44797 -56.301979)
(-473.48961 -287.65916 -50.962944)
(-393.00819 -261.35714 -43.942346)
(-319.25432 -234.00159 -36.821893)
(-253.24802 -207.34766 -27.799043)
(-195.38412 -178.95557 -19.414954)
(-144.89167 -152.52162 -10.127948)
(-100.74053 -125.8606 -0.83307429)
(-65.681489 -100.66177 8.8486386)
(-36.767951 -76.051786 15.96409)
(-16.798808 -55.318254 22.702851)
(-3.8855252 -31.255157 25.73166)
(-8.2625985 -18.219484 17.699644)
(0 0 0)
(0 0 0)
(0 0 0)
(0 0 0)
(0 0 0)
(0 0 0)
(0 0 0)
(0 0 0)
(0 0 0)
(0 0 0)
(0 0 0)
(0 0 0)
(0 0 0)
(0 0 0)
(-3754.5633 673.50003 -11.641182)
(-3752.1297 663.52468 -12.22515)
(-3750.02 654.48766 -12.45049)
(-3748.1097 645.99893 -12.56406)
(-3746.3025 637.75674 -12.410055)
(-3744.6871 629.92799 -11.960674)
(-3742.9354 621.59427 -12.44439)
(-3840.7402 256.90295 15.837154)
(-3838.4679 248.16912 15.586389)
(-3836.027 239.8299 15.206382)
(-3833.5367 231.46136 15.050583)
(-3831.3781 222.69562 15.052519)
(-3829.4482 213.51793 15.330873)
(-3828.2921 203.49511 16.2813)
(-2.3639494 -29.341089 -36.522857)
(-5.7654579 -49.224181 -41.529876)
(-14.227606 -72.833266 -54.147751)
(-31.325305 -94.584894 -63.948686)
(-54.361845 -115.25544 -73.961662)
(-87.007803 -136.61567 -83.742779)
(-125.46449 -155.83866 -93.102263)
(-172.79772 -175.29582 -102.54015)
(-227.67936 -192.36909 -110.15434)
(-290.6374 -209.06979 -117.77165)
(-361.41332 -223.95534 -123.51901)
(-440.33508 -237.13852 -127.98714)
(-527.31508 -249.08907 -130.84303)
(-621.90143 -258.99078 -131.87459)
(-724.10129 -266.97201 -131.55061)
(-833.37312 -272.91262 -129.24038)
(-949.30204 -276.63031 -125.61645)
(-1071.141 -277.91053 -120.53782)
(-1198.3674 -276.76972 -114.19143)
(-1329.9358 -272.99575 -106.9795)
(-1464.9577 -266.53858 -99.053559)
(-1602.2884 -257.38003 -90.796219)
(-1740.8333 -245.4408 -82.514872)
(-1879.3631 -230.81946 -74.50146)
(-2016.682 -213.48349 -67.050067)
(-2151.6613 -193.75268 -60.394204)
(-2283.063 -171.53757 -54.714288)
(-2410.1604 -147.24124 -50.105603)
(-2531.7304 -121.08355 -46.695987)
(-2647.2476 -93.365984 -44.338904)
(-2756.0758 -64.450583 -43.055912)
(-2857.8452 -34.672935 -42.593213)
(-2952.448 -4.4210349 -42.827147)
(-3039.8837 25.895363 -43.388015)
(-3120.3738 55.87706 -44.065557)
(-3194.378 85.31754 -44.623114)
(-3262.469 113.57466 -44.659121)
(-3325.0814 140.63026 -43.937892)
(-3383.305 166.0959 -42.379244)
(-3437.722 189.76581 -39.725417)
(-3489.3829 211.65624 -36.106606)
(-3538.8009 231.49137 -31.209771)
(-3587.1605 249.56577 -25.502545)
(-3635.116 265.66462 -18.64909)
(-3682.4639 279.86588 -11.329863)
(-3732.1153 293.5623 -3.5681212)
(-3780.9324 304.67896 4.4067622)
(8.2076026 -22.033325 -28.273699)
(4.6900421 -34.04729 -32.059174)
(-5.259328 -55.464546 -44.049605)
(-21.482449 -68.558487 -52.351767)
(-46.637358 -84.930939 -62.041454)
(-77.472445 -99.137411 -70.55882)
(-116.54191 -112.62533 -80.611394)
(-164.05209 -124.88164 -87.990247)
(-218.49333 -135.61326 -96.95238)
(-281.25188 -145.65331 -103.54095)
(-351.96029 -153.52228 -109.55075)
(-430.47383 -160.84128 -114.12026)
(-517.01918 -166.12813 -117.41775)
(-611.15541 -170.02514 -119.22437)
(-712.93522 -172.25534 -119.41256)
(-821.75169 -172.94936 -118.05208)
(-937.18503 -171.89006 -115.40271)
(-1058.617 -168.98522 -111.43142)
(-1185.3908 -164.27373 -106.49202)
(-1316.6118 -157.58281 -100.74354)
(-1451.2643 -148.98263 -94.441064)
(-1588.4317 -138.42284 -87.901244)
(-1726.7529 -125.85924 -81.393719)
(-1865.3058 -111.4118 -75.117325)
(-2002.6761 -95.071115 -69.428308)
(-2137.9299 -76.914389 -64.371724)
(-2269.7681 -57.151773 -60.130079)
(-2397.1935 -35.777202 -57.009952)
(-2519.3978 -13.134893 -54.616373)
(-2635.5511 10.639865 -53.221465)
(-2745.0839 35.270879 -52.562885)
(-2847.585 60.558594 -52.551143)
(-2942.9385 86.177951 -52.920187)
(-3031.0091 111.85525 -53.435935)
(-3112.1821 137.36367 -53.899263)
(-3186.6442 162.29157 -53.907184)
(-3255.0564 186.52809 -53.395324)
(-3318.0303 209.74231 -52.012934)
(-3376.4309 231.80717 -49.686951)
(-3430.7825 252.41792 -46.319369)
(-3482.1684 271.7778 -41.938975)
(-3531.3758 289.36033 -36.404996)
(-3579.0128 305.69936 -30.077714)
(-3626.5541 320.46747 -22.966899)
(-3673.1455 333.69084 -15.244342)
(-3722.2597 346.75948 -7.5062942)
(-3770.2241 357.45417 0.82412708)
(16.627547 -15.547093 -20.993696)
(10.991703 -25.178006 -24.956131)
(3.2204427 -36.654 -33.483551)
(-16.059501 -46.520724 -41.045687)
(-38.968397 -55.260934 -49.175559)
(-72.070362 -63.827741 -58.450857)
(-111.55107 -69.333318 -65.771895)
(-158.55466 -75.422936 -75.161659)
(-213.21328 -79.135795 -82.538684)
(-276.06965 -82.152581 -89.285364)
(-346.0938 -84.056964 -95.47849)
(-424.43117 -84.495928 -100.11358)
(-510.22926 -83.80815 -103.69803)
(-603.89049 -81.884715 -105.7422)
(-705.03576 -78.913569 -106.65904)
(-813.13579 -74.466177 -106.04715)
(-927.89652 -68.836781 -104.38202)
(-1048.6222 -61.920343 -101.56605)
(-1174.7481 -53.647325 -97.964736)
(-1305.2319 -44.185874 -93.621079)
(-1439.3889 -33.383546 -88.897833)
(-1575.8855 -21.294075 -84.005502)
(-1713.9088 -8.004425 -79.103855)
(-1852.147 6.4120738 -74.535322)
(-1989.4885 22.063938 -70.405983)
(-2124.7046 38.719612 -66.923479)
(-2256.6318 56.424563 -64.272211)
(-2384.2796 75.04051 -62.389691)
(-2506.8292 94.494276 -61.310998)
(-2623.3815 114.61027 -60.94274)
(-2733.3732 135.25463 -61.16298)
(-2836.4135 156.27051 -61.791047)
(-2932.233 177.47819 -62.618442)
(-3020.8679 198.71192 -63.413911)
(-3102.4441 219.7169 -63.87004)
(-3177.3158 240.42846 -63.838255)
(-3246.0346 260.49495 -63.013484)
(-3309.1045 279.97561 -61.269134)
(-3367.3941 298.50073 -58.482725)
(-3421.7077 316.17601 -54.538637)
(-3473.0438 332.73809 -49.47923)
(-3521.9596 348.15719 -43.237943)
(-3569.5568 362.71331 -36.346433)
(-3616.7555 375.92724 -28.206379)
(-3663.3016 388.40098 -20.108723)
(-3712.0682 400.28602 -11.300393)
(-3759.6549 410.69664 -2.7948576)
(18.389266 -7.9021921 -10.787808)
(12.96678 -10.982392 -12.367652)
(4.5619158 -17.316195 -20.453638)
(-12.080354 -20.570744 -27.918343)
(-37.336311 -22.715751 -36.671211)
(-69.053851 -25.253048 -44.181798)
(-108.14787 -24.247901 -54.152519)
(-154.86727 -24.405149 -61.454003)
(-209.37602 -21.331025 -69.365125)
(-271.48116 -18.789615 -76.692922)
(-341.39347 -13.678496 -82.510945)
(-419.33009 -8.4387213 -87.482755)
(-504.62612 -1.7052478 -91.152478)
(-597.92796 5.9101904 -93.744972)
(-698.09268 14.179408 -95.117183)
(-805.64872 23.587858 -95.446012)
(-919.45687 33.453232 -94.586935)
(-1039.4429 44.314087 -92.934457)
(-1164.5316 55.75584 -90.492283)
(-1294.2817 67.816262 -87.53269)
(-1427.4704 80.606884 -84.309499)
(-1563.4418 93.698177 -80.895941)
(-1700.6754 107.36089 -77.688599)
(-1838.2267 121.66108 -74.820128)
(-1974.8919 136.42007 -72.470123)
(-2109.5929 151.70159 -70.748283)
(-2241.2601 167.38066 -69.615141)
(-2368.8525 183.48688 -69.177787)
(-2491.4059 199.89359 -69.326524)
(-2608.135 216.62562 -70.008929)
(-2718.473 233.55634 -71.049273)
(-2821.9134 250.62596 -72.251687)
(-2918.2755 267.79687 -73.452939)
(-3007.4423 284.8628 -74.297132)
(-3089.6339 301.86844 -74.692298)
(-3165.1103 318.5168 -74.261361)
(-3234.3659 334.93133 -72.965135)
(-3298.0974 350.68658 -70.481898)
(-3357.1302 365.97138 -66.903023)
(-3411.9712 380.62084 -62.063262)
(-3463.4163 394.57294 -56.175891)
(-3512.6085 407.83306 -49.138156)
(-3560.1085 420.41216 -41.34483)
(-3607.1802 432.17118 -32.723952)
(-3653.4241 443.42726 -24.065084)
(-3701.6838 454.39611 -14.952927)
(-3749.0036 464.71567 -6.0481946)
(20.487553 -1.4611328 -1.4092926)
(13.359688 -2.0402512 -3.639187)
(8.3194918 -0.65612561 -10.588278)
(-11.388532 1.7659141 -16.604377)
(-35.047493 5.8162585 -23.688146)
(-67.758532 10.483113 -32.412212)
(-106.73051 17.48499 -40.161748)
(-154.41295 24.619364 -47.777928)
(-208.4194 33.884702 -55.781502)
(-270.8804 43.542527 -62.436816)
(-340.35568 55.051891 -68.371521)
(-417.66442 66.19086 -73.78227)
(-502.37092 79.394425 -77.90936)
(-594.65392 92.118016 -81.10676)
(-694.0697 106.18162 -83.236944)
(-800.4164 120.24291 -84.361927)
(-913.32904 134.80212 -84.44222)
(-1032.058 149.41213 -83.845955)
(-1156.2446 164.19173 -82.60198)
(-1284.7311 178.98396 -81.009959)
(-1417.0498 193.66891 -79.1352)
(-1551.7913 208.39815 -77.429601)
(-1688.0328 223.01711 -75.686885)
(-1824.9037 237.29361 -74.3696)
(-1961.1011 251.39756 -73.451651)
(-2095.4835 265.25378 -73.101691)
(-2226.9117 278.93889 -73.348096)
(-2354.4212 292.47865 -74.223395)
(-2477.0209 305.91946 -75.567017)
(-2593.9745 319.24976 -77.317943)
(-2704.5791 332.4818 -79.218302)
(-2808.4291 345.63222 -81.142519)
(-2905.1946 358.71349 -82.820212)
(-2994.8811 371.67942 -84.000817)
(-3077.5209 384.54456 -84.499206)
(-3153.4751 397.25602 -84.049233)
(-3223.1021 409.824 -82.53359)
(-3287.2241 421.89269 -79.717764)
(-3346.1847 434.02953 -75.830699)
(-3400.6964 445.83523 -70.506773)
(-3452.3297 457.18439 -63.987077)
(-3501.3912 468.09151 -56.337008)
(-3548.9174 478.61083 -47.913197)
(-3595.7356 488.71279 -38.622339)
(-3642.3321 498.75527 -29.268152)
(-3690.4959 508.76246 -19.223817)
(-3738.3401 518.91781 -9.6440856)
(17.555952 5.1406961 9.8822826)
(9.1277483 12.176594 6.8354299)
(3.5498541 19.308304 3.7954628)
(-15.454937 28.261572 -2.1848522)
(-39.575956 38.700295 -9.9945662)
(-71.7465 49.963639 -17.77654)
(-111.41461 63.737872 -25.786192)
(-158.08541 77.258973 -34.205238)
(-212.31817 93.411372 -41.777355)
(-273.81551 109.13832 -49.030699)
(-342.92247 126.95227 -55.577297)
(-419.21405 144.68611 -60.985452)
(-503.16583 163.54168 -65.448215)
(-594.35482 182.44361 -69.200842)
(-692.5256 201.77381 -71.732361)
(-797.63048 220.91597 -73.654141)
(-908.99801 240.05118 -74.568195)
(-1026.3659 258.65355 -75.083433)
(-1148.8698 276.98006 -74.981232)
(-1275.8304 294.43 -74.702623)
(-1406.5736 311.35689 -74.306577)
(-1539.7894 327.33718 -73.984598)
(-1674.8643 342.29981 -73.811885)
(-1810.3306 356.3737 -74.302158)
(-1945.4401 369.53578 -75.105995)
(-2078.5856 381.79308 -76.517639)
(-2209.2113 393.2437 -78.431033)
(-2336.1511 403.92423 -80.849535)
(-2458.4415 413.93062 -83.616297)
(-2575.2422 423.39633 -86.538037)
(-2685.9531 432.39259 -89.456546)
(-2790.0701 441.06033 -92.142897)
(-2887.3232 449.50985 -94.338002)
(-2977.5546 457.78844 -95.797297)
(-3060.9065 466.06414 -96.33698)
(-3137.5772 474.28281 -95.684962)
(-3208.0028 482.60302 -93.756867)
(-3272.7849 490.92734 -90.31172)
(-3332.4588 499.30845 -85.697341)
(-3388.3027 507.71037 -79.302854)
(-3440.3724 516.67515 -71.936115)
(-3489.9655 525.44481 -63.242755)
(-3537.8124 534.34699 -53.784439)
(-3584.9431 543.29041 -43.636117)
(-3631.9075 552.53551 -33.345692)
(-3679.7388 561.95022 -23.021527)
(-3727.8667 571.80822 -13.087736)
(12.532407 14.090411 17.959163)
(5.0133323 23.638673 15.977286)
(0.15807347 36.706032 15.451156)
(-20.24362 51.215459 9.3668056)
(-43.03555 67.53845 2.9483626)
(-76.786211 86.141579 -5.0175501)
(-115.57657 105.97498 -12.933376)
(-162.64919 126.83798 -21.23175)
(-216.51455 149.73245 -28.717533)
(-277.50319 172.03931 -36.210283)
(-346.49555 197.30571 -42.932245)
(-421.82584 220.90601 -48.097619)
(-505.2802 246.78153 -53.499618)
(-595.03803 271.6332 -57.296272)
(-692.35256 296.93176 -60.751001)
(-795.84669 321.49228 -63.150276)
(-905.92187 345.49933 -65.074325)
(-1021.5734 368.5901 -66.400897)
(-1142.429 390.41296 -67.422563)
(-1267.8287 411.02739 -68.353193)
(-1396.7317 429.97937 -69.18276)
(-1528.5078 447.39668 -70.386088)
(-1661.9273 463.05886 -71.75076)
(-1796.0872 476.89749 -73.662075)
(-1929.8093 489.02267 -76.07087)
(-2062.042 499.42205 -79.094651)
(-2192.0697 508.40819 -82.384227)
(-2318.4422 516.00411 -86.197145)
(-2440.3912 522.50604 -90.242318)
(-2557.0824 528.0015 -94.345295)
(-2667.899 532.7166 -98.277488)
(-2772.3094 536.91325 -101.78283)
(-2869.9935 540.73566 -104.58445)
(-2960.8071 544.43639 -106.47228)
(-3044.8005 548.13948 -107.16334)
(-3122.1609 552.02442 -106.51861)
(-3193.3423 556.23616 -104.32857)
(-3258.6839 560.75956 -100.54071)
(-3319.0768 565.73055 -95.283979)
(-3375.1397 571.27421 -88.403411)
(-3427.6909 577.24723 -80.180274)
(-3477.602 583.70481 -70.716237)
(-3525.765 590.57159 -60.461519)
(-3573.0541 597.93332 -49.55303)
(-3620.1964 605.85281 -38.693299)
(-3667.9267 614.11891 -27.731876)
(-3717.1413 623.20107 -17.24967)
(0 0 0)
(0 0 0)
(0 0 0)
(0 0 0)
(0 0 0)
(0 0 0)
(0 0 0)
(0 0 0)
(0 0 0)
(0 0 0)
(0 0 0)
(0 0 0)
(0 0 0)
(0 0 0)
(0 0 0)
(0 0 0)
(0 0 0)
(0 0 0)
(0 0 0)
(0 0 0)
(0 0 0)
(0 0 0)
(0 0 0)
(0 0 0)
(0 0 0)
(0 0 0)
(0 0 0)
(0 0 0)
(0 0 0)
(0 0 0)
(0 0 0)
(0 0 0)
(0 0 0)
(0 0 0)
(0 0 0)
(0 0 0)
(0 0 0)
(0 0 0)
(0 0 0)
(0 0 0)
(0 0 0)
(0 0 0)
(0 0 0)
(0 0 0)
(0 0 0)
(0 0 0)
(0 0 0)
(0 0 0)
(0 0 0)
(-4.8092029 5.2214542 16.046061)
(-9.2811497 8.6680824 11.760335)
(-14.19298 9.6181126 5.5202343)
(-16.637343 10.762085 0.53876216)
(-17.648904 10.59955 -4.3185765)
(-18.516156 12.151173 -10.237462)
(-16.622797 8.0885278 -15.71345)
(-14.798415 38.268733 19.848183)
(-22.405827 46.469822 8.8707824)
(-26.764019 44.968144 0.61736819)
(-29.580087 44.734039 -7.0295999)
(-31.571602 49.822967 -14.765379)
(-30.036575 51.405525 -24.354669)
(-28.185803 53.831614 -36.353195)
(-19.964758 51.395516 19.273016)
(-30.346768 51.184326 11.217087)
(-37.624065 58.025452 -3.3289991)
(-39.719725 60.013269 -11.579855)
(-41.195959 59.903106 -24.281487)
(-38.944727 63.61511 -32.658543)
(-35.43498 71.584492 -49.702632)
(-43.374359 83.012419 11.381964)
(-50.770402 89.074959 1.591813)
(-56.72783 91.091357 -11.161422)
(-59.76042 93.604874 -20.559683)
(-60.815647 96.936158 -32.868264)
(-57.92698 103.53103 -46.291318)
(-52.116428 104.48435 -57.771024)
(-65.394827 105.28543 5.9108317)
(-75.651492 109.40026 -4.4763276)
(-83.069508 114.71108 -18.265168)
(-85.273056 117.61796 -30.536628)
(-86.011424 121.65207 -42.845993)
(-82.877231 125.89236 -54.868208)
(-77.324723 132.22048 -70.002007)
(-100.28418 134.14069 -3.3370972)
(-107.91763 138.35946 -14.318294)
(-114.08721 142.07565 -27.647208)
(-116.594 147.21891 -38.607222)
(-116.579 149.90329 -52.752379)
(-112.43829 155.91614 -65.280256)
(-106.06459 160.11829 -77.900357)
(-138.50611 159.90904 -11.426743)
(-147.21743 165.04144 -23.663347)
(-153.59451 171.36518 -36.583223)
(-156.01174 175.25693 -48.659349)
(-155.95734 180.2255 -62.310208)
(-152.29169 186.24695 -74.334448)
(-145.59812 190.98996 -88.646481)
(-185.52345 189.39253 -20.242895)
(-193.82645 195.18987 -31.795542)
(-199.22127 199.4153 -45.63867)
(-201.42987 203.96269 -57.973426)
(-200.12734 207.31083 -70.545375)
(-196.31245 211.80251 -83.468409)
(-188.6403 216.47164 -95.697767)
(-239.20828 218.81523 -28.123876)
(-246.89189 223.51886 -41.307481)
(-252.52236 229.16242 -53.923102)
(-254.12215 233.58432 -65.990365)
(-253.75871 238.85159 -79.143382)
(-249.17251 243.16678 -91.519957)
(-242.14655 248.0482 -105.13527)
(-299.36632 248.53368 -35.93809)
(-307.27606 254.20001 -48.24989)
(-312.0778 258.41402 -61.175015)
(-314.40411 263.4003 -74.129355)
(-312.69428 266.15038 -86.789509)
(-308.21032 269.80913 -98.650009)
(-300.64705 273.59244 -110.88666)
(-367.43554 280.18141 -42.646138)
(-374.53959 284.64754 -55.483211)
(-379.72255 289.35986 -68.741037)
(-380.61535 292.32533 -80.082892)
(-379.97369 296.29001 -92.720083)
(-375.03924 299.80904 -104.30185)
(-367.38912 303.3645 -117.68819)
(-441.68231 310.59349 -48.371921)
(-449.04542 315.11106 -61.700632)
(-453.20537 319.02492 -72.953032)
(-455.15279 322.85966 -85.693939)
(-453.59373 325.54748 -98.01501)
(-448.29731 327.55698 -109.0845)
(-441.72256 330.42048 -121.32756)
(-523.69554 343.23457 -53.802475)
(-529.96032 346.44102 -65.979215)
(-534.64331 350.06661 -78.026388)
(-535.78516 352.21445 -89.70681)
(-534.34288 354.29337 -101.37127)
(-529.72534 357.13838 -111.92253)
(-522.41275 357.68743 -124.02155)
(-611.47537 373.80492 -57.576338)
(-617.82575 376.83736 -69.621888)
(-622.37457 379.84708 -80.587199)
(-623.2255 381.74832 -91.911848)
(-622.37805 384.19563 -103.17064)
(-617.4103 384.52016 -113.18181)
(-611.18695 385.37676 -124.77023)
(-706.42928 405.59239 -60.819353)
(-712.60841 407.74272 -72.15251)
(-716.47135 409.58018 -82.550152)
(-717.81233 411.20242 -93.44156)
(-716.56984 411.78757 -103.51814)
(-712.43263 412.29729 -113.26579)
(-706.17394 411.69224 -123.79079)
(-807.63876 435.52104 -63.098729)
(-813.0559 436.75818 -73.505849)
(-817.23984 438.7886 -83.208603)
(-818.1353 439.32519 -92.824716)
(-817.42799 440.18823 -102.6159)
(-813.42825 439.53106 -111.23692)
(-808.01677 438.31801 -121.15858)
(-914.4789 464.80666 -64.699725)
(-919.95089 465.88266 -74.277777)
(-923.45651 466.66823 -82.710048)
(-924.66318 466.83698 -91.864729)
(-924.01789 466.81209 -100.24762)
(-920.76034 465.46265 -108.22678)
(-915.8947 463.51337 -117.03678)
(-1027.2015 492.65688 -65.91274)
(-1031.7845 492.838 -73.971764)
(-1035.3132 493.4194 -81.737784)
(-1036.3277 493.16325 -89.317091)
(-1036.0522 492.69591 -96.80873)
(-1033.2567 490.8171 -103.80983)
(-1029.2483 488.15585 -111.42087)
(-1144.4685 518.70529 -66.557648)
(-1148.726 518.55483 -73.572402)
(-1151.7974 518.66121 -79.842543)
(-1152.9204 517.8423 -86.359359)
(-1152.8883 516.9563 -92.591056)
(-1150.8469 514.53475 -98.464968)
(-1147.7331 511.56351 -104.77611)
(-1266.1672 542.72398 -67.310416)
(-1269.6646 542.23377 -72.66395)
(-1272.4178 541.91385 -77.704504)
(-1273.4779 540.91187 -82.797865)
(-1273.7431 539.63116 -87.648321)
(-1272.3576 536.98259 -92.360765)
(-1270.2139 533.50896 -97.243421)
(-1391.2768 564.5172 -67.951478)
(-1394.0879 563.69569 -71.828973)
(-1396.3573 563.2073 -75.402126)
(-1397.4518 561.83104 -79.028625)
(-1397.9285 560.38148 -82.480555)
(-1397.3478 557.42234 -85.877882)
(-1396.1515 553.88407 -89.248892)
(-1519.0244 583.69174 -68.918957)
(-1520.9954 582.80342 -71.158153)
(-1522.8134 582.0236 -73.207964)
(-1523.765 580.61167 -75.335113)
(-1524.5126 578.95317 -77.273066)
(-1524.5929 575.98331 -79.270785)
(-1524.4173 572.40892 -81.080884)
(-1648.4828 600.27582 -70.248049)
(-1649.6516 599.28157 -70.870377)
(-1650.814 598.51469 -71.378815)
(-1651.729 596.92039 -71.971189)
(-1652.5903 595.19275 -72.318062)
(-1653.4145 592.24001 -72.96036)
(-1654.1901 588.84117 -73.106548)
(-1778.8154 614.12139 -72.163262)
(-1778.9408 613.12322 -71.153662)
(-1779.5701 612.22865 -70.098714)
(-1780.2212 610.62383 -69.168638)
(-1781.1917 608.91518 -68.018604)
(-1782.6555 606.14151 -67.142079)
(-1784.2609 603.06901 -65.644283)
(-1908.8213 625.08002 -74.713468)
(-1908.0639 624.14742 -72.040343)
(-1907.9599 623.40545 -69.64031)
(-1908.2494 621.77896 -67.199254)
(-1909.3981 620.04002 -64.392316)
(-1911.2689 617.46723 -62.220087)
(-1913.8306 614.7989 -58.987198)
(-2037.7346 633.34343 -77.815487)
(-2035.9382 632.65889 -73.715289)
(-2035.0909 631.84081 -69.976067)
(-2035.2656 630.25938 -65.753616)
(-2036.2637 628.52158 -62.128391)
(-2038.4378 626.13571 -58.337102)
(-2041.568 624.04064 -53.682571)
(-2164.5198 639.04472 -81.582477)
(-2161.8296 638.52667 -76.300292)
(-2160.1301 637.60428 -71.116018)
(-2159.7434 636.22123 -65.802325)
(-2160.9963 634.38116 -60.765102)
(-2163.0594 632.63951 -55.561301)
(-2166.6581 630.61343 -50.143778)
(-2288.3835 642.45509 -85.875374)
(-2284.6107 641.88799 -79.440445)
(-2281.8684 641.12329 -73.069926)
(-2281.2502 639.43996 -66.802256)
(-2281.7583 638.09091 -60.294496)
(-2284.3481 636.26496 -54.213087)
(-2288.2363 634.96835 -47.351691)
(-2408.1798 643.66993 -90.626838)
(-2403.297 643.15012 -83.0682)
(-2399.8969 642.19016 -75.932626)
(-2398.6983 640.74465 -68.425644)
(-2399.0955 639.23537 -61.067871)
(-2401.6696 637.75617 -53.935411)
(-2405.6606 636.74137 -46.018211)
(-2523.2974 643.16706 -95.374293)
(-2517.5429 642.44658 -87.095653)
(-2513.3591 641.41989 -79.158204)
(-2511.6342 639.78063 -70.891384)
(-2511.6677 638.29977 -62.745575)
(-2514.0458 636.95771 -54.770664)
(-2518.0933 636.20707 -45.961089)
(-2633.0986 641.11522 -100.04281)
(-2626.4907 640.15881 -91.209114)
(-2621.6163 638.88831 -82.769318)
(-2619.3588 637.14112 -73.879605)
(-2619.0426 635.52808 -65.167225)
(-2621.17 634.27332 -56.535817)
(-2625.1093 633.65123 -47.090837)
(-2737.08 637.95056 -104.28696)
(-2729.7956 636.67035 -95.174341)
(-2724.3005 635.07279 -86.404988)
(-2721.5475 633.09015 -77.163537)
(-2720.8177 631.29385 -68.071572)
(-2722.5633 630.00499 -59.036851)
(-2726.2582 629.36902 -49.147244)
(-2834.9274 634.09186 -107.82942)
(-2827.0885 632.33266 -98.659834)
(-2821.0938 630.32563 -89.802727)
(-2817.8503 628.06326 -80.417238)
(-2816.7059 625.94958 -71.19691)
(-2818.0235 624.50339 -61.947548)
(-2821.3405 623.6855 -51.86984)
(-2926.4367 629.86295 -110.37859)
(-2918.2325 627.56453 -101.40308)
(-2911.8317 625.06353 -92.652695)
(-2908.1853 622.36731 -83.359961)
(-2906.6463 619.87544 -74.211681)
(-2907.431 618.18728 -64.992924)
(-2910.2972 617.03995 -54.945791)
(-3011.6289 625.70577 -111.70507)
(-3003.2178 622.74337 -103.11905)
(-2996.5788 619.65183 -94.69297)
(-2992.5709 616.5032 -85.664948)
(-2990.6099 613.64022 -76.882628)
(-2990.9057 611.47014 -67.735256)
(-2993.293 609.78049 -58.02438)
(-3090.5885 621.95221 -111.56919)
(-3082.1508 618.25468 -103.47125)
(-3075.3937 614.52841 -95.552494)
(-3071.0975 610.88632 -86.96658)
(-3068.9102 607.332 -78.667918)
(-3068.5916 604.63246 -69.709017)
(-3070.326 602.62412 -60.761879)
(-3163.6874 618.83069 -109.73353)
(-3155.4606 614.30812 -102.43937)
(-3148.6569 609.9709 -95.18752)
(-3144.302 605.63174 -87.233774)
(-3141.6344 601.76555 -79.500952)
(-3140.9643 598.09259 -71.696424)
(-3142.0817 595.32923 -62.678469)
(-3231.3184 616.35185 -106.35665)
(-3223.3695 611.5309 -99.966707)
(-3216.8705 606.31375 -93.348976)
(-3212.2492 601.53468 -86.341421)
(-3209.5607 596.77676 -79.169344)
(-3208.1512 593.42251 -71.568022)
(-3209.0496 589.36659 -63.847434)
(-3293.9465 616.02583 -100.96734)
(-3286.5174 610.00314 -95.385844)
(-3280.2635 604.10038 -89.647976)
(-3275.782 598.71814 -83.372797)
(-3272.8844 593.37352 -77.174248)
(-3271.3655 588.64911 -70.767694)
(-3271.4661 583.83708 -63.673227)
(-3352.4261 616.30303 -94.161542)
(-3345.5298 609.67767 -89.467173)
(-3339.633 603.16557 -84.636646)
(-3335.3055 597.21012 -79.209925)
(-3332.3775 591.17568 -74.078423)
(-3330.3786 585.91523 -68.180989)
(-3330.0502 580.34133 -62.27148)
(-3407.3058 618.3444 -85.652761)
(-3401.0278 610.98253 -82.06754)
(-3395.6872 603.88971 -77.959376)
(-3391.582 597.36215 -73.590238)
(-3388.5434 590.76471 -69.198965)
(-3386.4316 584.83561 -64.39329)
(-3385.7233 578.44283 -59.475809)
(-3459.3008 621.80093 -75.889428)
(-3453.7718 613.9442 -73.339892)
(-3449.0121 606.43186 -69.941847)
(-3445.0762 599.29354 -66.616803)
(-3442.2194 592.25603 -63.091722)
(-3439.9309 585.6467 -59.170136)
(-3438.8104 578.52534 -55.253257)
(-3509.359 626.98076 -65.272025)
(-3504.5612 618.63465 -63.556005)
(-3500.3568 610.58399 -60.919213)
(-3496.7875 603.04724 -58.540529)