/*--------------------------------*- C++ -*----------------------------------*\
  =========                 |
  \\      /  F ield         | OpenFOAM: The Open Source CFD Toolbox
   \\    /   O peration     | Website:  https://openfoam.org
    \\  /    A nd           | Version:  6
     \\/     M anipulation  |
\*---------------------------------------------------------------------------*/
FoamFile
{
    version     2.0;
    format      ascii;
    class       pointVectorField;
    location    "0.54";
    object      lm;
}
// * * * * * * * * * * * * * * * * * * * * * * * * * * * * * * * * * * * * * //

dimensions      [1 -2 -1 0 0 0 0];

internalField   nonuniform List<vector> 
625
(
(-3.6361799e-15 2.112754e-16 -3.2990721e-16)
(2.8178306e-17 1.9013092e-16 6.1994168e-17)
(-639.40485 269.8861 327.38715)
(-869.09887 -201.35738 157.96288)
(6.5239771e-16 2.739523e-16 -5.5565719e-16)
(-3.7042918e-15 1.4868296e-15 -1.3023874e-15)
(-750.12461 -337.70273 153.9333)
(-522.69461 129.7858 326.87477)
(-1.9658614e-16 -3.2115893e-17 -1.1045223e-16)
(1.4766345e-16 -3.4299605e-16 -2.8648028e-16)
(-1.0135278e-15 7.0169807e-16 1.7538027e-16)
(-699.74251 149.54225 282.60064)
(-758.00849 36.442408 240.51819)
(-810.43082 -79.265976 200.23907)
(-31.084828 -61.991491 -48.83672)
(-83.720686 -114.50179 -53.028613)
(-164.84028 -159.31012 -52.14236)
(-268.38948 -188.68317 -53.683246)
(-384.23658 -201.23092 -52.64166)
(-516.51873 -199.72758 -51.471229)
(-652.40216 -180.6823 -46.162119)
(-793.12915 -147.55658 -37.849282)
(-932.0417 -100.0625 -24.08386)
(-1064.7265 -39.453389 -5.9094383)
(-1186.115 31.570499 18.760539)
(-1291.1767 109.91176 48.018627)
(-1374.1201 191.47928 81.364281)
(-1431.0067 271.53855 117.09577)
(-1457.8572 344.7636 153.10589)
(-1453.1898 406.45357 187.50036)
(-1416.7245 451.82511 218.65591)
(-1350.3293 478.60274 244.85772)
(-1259.0021 484.21782 265.96258)
(-1147.1018 468.92303 282.03386)
(-1021.5644 436.47526 294.17625)
(-890.90489 388.83401 305.03106)
(-760.81626 328.97752 314.72578)
(9.3662135 33.333852 56.009285)
(-43.66767 67.865808 28.812963)
(-117.18435 120.80066 21.394074)
(-200.1616 155.71528 5.2598706)
(-299.10135 197.00056 -9.9916762)
(-413.97361 243.79939 -23.102163)
(-530.5127 286.896 -33.062264)
(-657.84125 330.37869 -43.440184)
(-786.40002 373.38642 -49.686335)
(-916.53083 411.92731 -54.807623)
(-1042.7938 442.31485 -55.95015)
(-1161.4376 462.61231 -54.492313)
(-1267.6941 469.09148 -49.378243)
(-1356.3531 459.56612 -40.714983)
(-1422.8305 432.64087 -28.803534)
(-1462.8899 388.39087 -13.829584)
(-1473.752 328.51563 3.7205098)
(-1453.9445 255.91276 23.44045)
(-1404.3091 174.7455 44.805231)
(-1327.3827 89.974 67.40078)
(-1228.24 6.0730475 90.66179)
(-1113.9661 -71.910609 113.91372)
(-990.53511 -141.09038 136.30143)
(-4.8813632e-16 1.9183015e-16 -1.0607077e-16)
(-2.6214496e-15 -5.6404768e-16 7.244144e-16)
(-2.4010456e-15 1.4295629e-15 -1.6975308e-16)
(-8.4022703 28.852752 -43.7688)
(-45.063337 110.49336 -53.58365)
(-115.59735 129.51702 -47.393253)
(-191.04228 170.39132 -43.792028)
(-289.61853 221.04786 -50.668465)
(-395.83685 246.73689 -46.384405)
(-512.77048 284.27164 -45.030078)
(-633.87422 316.55399 -42.075586)
(-762.96813 343.68149 -32.658183)
(-889.73404 365.62573 -21.494653)
(-1015.4968 380.63501 -5.9358028)
(-1131.6795 383.74684 12.882937)
(-1235.2669 376.4568 33.363666)
(-1319.542 354.01666 54.443926)
(-1379.7832 317.02946 74.619209)
(-1411.7203 265.37528 92.313333)
(-1412.5265 200.05884 106.55462)
(-1381.4415 124.0243 116.98849)
(-1319.9604 40.749903 123.78477)
(-1231.8038 -45.224772 127.9171)
(-1123.0129 -129.45245 131.0123)
(-1000.8946 -207.58651 135.01892)
(-874.15671 -277.49588 142.83747)
(-692.44624 -213.48315 196.57491)
(-643.39129 -100.57859 241.90405)
(-582.53435 8.8273342 286.57233)
(-643.29029 189.65024 304.84951)
(-775.49643 247.98744 279.75519)
(-912.38586 296.01136 250.8586)
(-1046.9517 329.64947 218.69453)
(-1170.919 345.69111 185.20742)
(-1276.5974 343.22954 151.33828)
(-1357.0579 322.12741 117.94971)
(-1407.4793 284.69825 86.301239)
(-1424.7309 233.97977 57.168259)
(-1408.4148 174.17419 31.561578)
(-1359.6992 109.45533 10.127615)
(-1282.3907 44.719038 -6.5095617)
(-1180.7313 -16.817584 -18.660666)
(-1060.994 -71.145319 -25.070559)
(-928.93698 -117.59841 -27.95358)
(-788.66461 -151.04417 -25.509273)
(-648.54954 -174.64464 -20.119245)
(-509.72775 -185.60269 -12.151444)
(-381.64266 -182.44432 -1.1708436)
(-260.75292 -166.31043 9.5146264)
(-159.26051 -142.406 24.358404)
(-78.764741 -95.994708 34.036952)
(-36.365478 -54.041044 32.95881)
(-1.3028228e-15 -3.4252847e-16 3.3068324e-16)
(-2.0449562e-15 -3.5718549e-16 -7.3673077e-16)
(-1.4121951e-15 -1.0527101e-15 6.223458e-16)
(-1.2019486e-15 6.189313e-16 -3.4292956e-16)
(-1.2511779e-16 -6.848356e-17 2.1836215e-16)
(-3.8898857e-17 4.7141393e-16 -3.1043199e-16)
(-840.6515 -237.93254 156.23501)
(-809.84581 -274.26431 156.67245)
(-781.76918 -308.69122 155.75895)
(-606.42067 238.02364 327.96482)
(-576.253 202.75111 327.57007)
(-548.81574 167.46735 326.70385)
(-6.8927537 -33.329289 -39.433536)
(-63.658445 -66.008264 -29.298615)
(-141.43245 -89.022143 -34.076485)
(-241.68209 -99.256892 -35.988047)
(-356.12894 -98.516139 -39.5082)
(-484.08927 -83.631805 -39.543226)
(-617.77238 -57.024562 -38.331806)
(-755.94742 -18.771507 -34.552486)
(-894.5689 30.210116 -25.877895)
(-1027.7053 87.091768 -12.951688)
(-1152.8846 149.91977 4.5794471)
(-1263.6357 214.68641 26.25607)
(-1355.3919 277.83897 51.67061)
(-1422.9934 334.63004 79.364956)
(-1462.5397 381.10034 108.10192)
(-1471.1415 413.41023 136.45695)
(-1447.8985 429.19909 163.0399)
(-1393.6152 427.24609 186.88638)
(-1311.4478 407.65831 208.26087)
(-1206.0532 372.59927 225.87359)
(-1085.1824 324.556 241.48426)
(-954.83213 268.76189 256.27937)
(-822.03905 207.53947 269.43439)
(5.3262439 -11.683494 -8.2535237)
(-48.760103 -19.738945 -9.6149268)
(-124.09624 -24.630223 -17.375935)
(-220.02839 -21.938446 -26.856029)
(-332.43565 -6.5598632 -30.786729)
(-456.27786 15.752868 -36.890519)
(-587.49048 47.658597 -40.046666)
(-724.13324 86.86991 -39.143073)
(-861.46606 133.29455 -35.566426)
(-996.6524 183.76877 -27.971675)
(-1124.4519 236.73029 -16.290374)
(-1239.8195 288.04214 -0.57816995)
(-1337.7142 334.23082 18.562821)
(-1413.0272 371.48223 40.283258)
(-1461.4183 396.27456 63.763476)
(-1479.7371 406.08501 87.763906)
(-1466.415 399.4311 111.39652)
(-1421.6431 376.3126 133.99538)
(-1348.6006 337.94488 155.02271)
(-1250.6131 287.33524 173.94309)
(-1135.0917 227.23897 192.50682)
(-1008.5077 162.52767 208.66382)
(-877.0752 96.349581 225.31109)
(17.635912 6.4166009 9.7345419)
(-40.104507 11.375327 7.6642403)
(-112.04416 26.088769 -2.3233046)
(-207.06501 49.981357 -10.291778)
(-314.86793 79.237857 -19.247439)
(-434.69673 112.41456 -29.502184)
(-561.88462 152.11961 -34.086551)
(-695.00778 195.19249 -39.106275)
(-831.14101 240.87555 -40.48437)
(-965.05556 286.93554 -38.500268)
(-1093.9809 330.95214 -33.501118)
(-1212.2345 368.90139 -24.5599)
(-1315.1359 398.05623 -12.764689)
(-1397.1141 414.86669 2.2287006)
(-1453.8784 416.86012 19.514536)
(-1481.5102 402.6017 38.517429)
(-1478.12 371.89456 58.637407)
(-1443.3995 326.02987 79.257352)
(-1379.0344 267.55234 99.946426)
(-1289.1883 199.55564 120.72488)
(-1179.7829 127.29542 140.48388)
(-1058.0539 53.028576 160.69838)
(-931.52463 -16.813957 179.87424)
(-2.5953868e-15 -2.1703571e-16 4.2716933e-18)
(-3.8783653e-15 3.5858996e-16 7.5215743e-16)
(-9.8459492e-16 7.8127033e-16 2.7525688e-16)
(-3.9146975e-16 7.8165185e-18 1.2560621e-16)
(1.6350797e-16 -2.4226884e-16 -1.2066667e-17)
(-1.0304172e-15 -9.2669207e-16 -7.5672327e-16)
(-6.4481012e-16 3.525084e-16 2.7116342e-16)
(-3.5205005e-15 9.4737515e-16 -2.5196009e-17)
(-3.8147498e-15 1.043275e-15 1.2924308e-16)
(-17.294839 16.936379 24.122092)
(-24.016045 23.321513 2.697875)
(-22.940036 15.690843 -15.443815)
(-70.720865 99.03238 8.9067316)
(-67.500886 99.971901 -6.933866)
(-65.404636 96.299316 -33.181901)
(-129.64519 129.40465 3.9193445)
(-133.71649 126.56669 -12.335389)
(-132.53318 139.71095 -33.568144)
(-207.78475 167.96635 -10.444747)
(-211.92493 174.58527 -23.866954)
(-204.4892 170.60724 -35.526901)
(-307.21607 215.54794 -20.7891)
(-305.05837 216.88557 -28.831099)
(-300.57682 218.97635 -40.751464)
(-411.59622 254.39259 -31.177661)
(-410.5299 251.8641 -39.088511)
(-405.78245 251.83068 -44.253824)
(-527.1963 293.24693 -39.171062)
(-525.15928 293.32492 -41.679682)
(-519.1708 289.21892 -44.490637)
(-650.23333 334.68572 -45.326572)
(-645.64092 330.15407 -46.928518)
(-639.78761 323.4621 -45.401587)
(-775.72784 372.8211 -48.547928)
(-770.39201 363.94239 -46.392091)
(-764.78218 353.75504 -39.64235)
(-901.92798 404.24084 -49.41801)
(-895.01737 391.79376 -42.890042)
(-889.25889 378.44303 -32.108689)
(-1024.7982 429.52717 -45.850196)
(-1016.6794 412.6236 -35.816048)
(-1011.5829 396.00319 -20.315752)
(-1139.904 442.7691 -39.639753)
(-1130.5194 421.46964 -25.334425)
(-1125.315 401.90024 -5.2267613)
(-1243.0071 443.44727 -29.977302)
(-1231.8242 418.35924 -11.755101)
(-1226.6464 395.67857 12.306573)
(-1328.7087 428.16699 -17.43966)
(-1315.7881 399.42076 4.1792723)
(-1310.2891 374.60981 31.001427)
(-1392.5985 396.63231 -2.7040417)
(-1377.6664 365.25803 21.129056)
(-1371.0795 337.91086 49.857119)
(-1430.6077 349.05509 13.618251)
(-1413.4009 315.31143 38.648419)
(-1405.2963 286.25255 67.530159)
(-1439.8928 286.88071 30.897418)
(-1420.312 251.76499 55.535454)
(-1410.0615 220.98301 83.032679)
(-1419.2539 213.34741 48.627858)
(-1397.3161 177.34266 71.472435)
(-1384.3304 145.06335 96.024491)
(-1369.5359 132.27903 66.481791)
(-1345.2182 95.962976 86.188282)
(-1329.1358 62.478397 106.51909)
(-1293.355 48.409423 84.429218)
(-1267.0115 12.162148 99.948078)
(-1247.6633 -22.256413 115.07015)
(-1195.5933 -33.727439 102.4682)
(-1167.5261 -69.625624 113.13832)
(-1145.1358 -104.59252 122.99966)
(-1082.5206 -110.3079 120.19431)
(-1053.5941 -145.52669 126.50449)
(-1028.1803 -180.46345 131.40533)
(-961.11204 -177.90105 137.80634)
(-931.72923 -212.99573 140.23664)
(-903.60962 -247.82776 141.94476)
(-666.85269 116.62362 284.41585)
(-636.14045 81.259366 285.43861)
(-609.05622 46.277197 285.4887)
(-726.66389 2.8319188 241.56736)
(-696.80466 -33.017846 242.31749)
(-668.78167 -66.32657 241.71697)
(-781.98302 -115.13123 199.90834)
(-751.19895 -151.08392 199.34615)
(-722.66586 -183.7851 198.33393)
(-53.480544 -52.39621 -24.706791)
(-50.210016 -53.460524 -6.8445799)
(-53.136436 -51.580263 11.408948)
(-99.418036 -105.78836 -27.961458)
(-99.715895 -104.35306 -3.7182525)
(-96.13154 -100.44465 14.956385)
(-180.86531 -154.08671 -30.885013)
(-180.27423 -146.00916 -15.14267)
(-178.01295 -145.59035 6.9050137)
(-276.17412 -177.63199 -35.584994)
(-278.12069 -174.35596 -18.476002)
(-273.43735 -170.87848 -4.2174755)
(-393.93522 -193.57152 -38.587071)
(-395.08006 -189.19995 -28.060869)
(-391.46381 -187.15919 -14.34551)
(-520.14196 -191.87371 -41.348289)
(-520.83552 -188.78637 -30.495888)
(-518.31037 -187.27419 -22.652068)
(-654.71787 -175.59032 -39.794337)
(-656.38622 -174.94588 -33.702558)
(-653.06491 -174.8349 -27.445134)
(-792.80695 -147.93975 -35.93765)
(-793.35461 -147.82274 -31.69793)
(-790.69493 -149.46695 -30.270601)
(-929.24031 -104.32571 -25.730392)
(-928.60838 -108.29233 -29.7138)
(-926.82196 -112.96325 -29.141918)
(-1058.5624 -50.934724 -13.627955)
(-1058.3475 -58.404547 -15.662401)
(-1056.2328 -64.406973 -23.973596)
(-1177.476 13.263799 7.1267929)
(-1174.8103 2.7476936 -1.9338209)
(-1172.2413 -5.7084949 -11.956618)
(-1278.7179 84.215707 31.347474)
(-1274.2827 70.076498 18.928261)
(-1270.9691 58.644772 3.8952464)
(-1358.1676 158.79601 60.707626)
(-1350.6358 141.02195 43.648794)
(-1346.4198 126.78423 24.790551)
(-1410.5847 232.88153 92.779749)
(-1400.1014 211.62258 72.354029)
(-1394.2045 194.44749 49.801045)
(-1433.2124 301.65053 126.49806)
(-1419.1396 277.16073 103.34865)
(-1411.1342 257.1619 78.203835)
(-1424.0865 360.5467 159.9213)
(-1406.5532 333.32125 135.30552)
(-1396.0365 310.48836 108.81995)
(-1383.7177 405.30684 191.44304)
(-1362.8976 375.8286 166.89713)
(-1349.3998 350.34602 140.61357)
(-1314.5919 432.97678 219.88692)
(-1290.6686 401.53311 197.13769)
(-1274.1111 373.44196 172.48521)
(-1220.8877 440.80802 244.95438)
(-1194.5099 408.01299 224.77875)
(-1174.8485 378.15316 203.47227)
(-1108.5447 428.98007 266.20293)
(-1080.089 395.58998 249.81039)
(-1057.5836 363.40405 232.91809)
(-984.46094 399.66748 283.0243)
(-955.05521 365.42143 271.86508)
(-930.08866 331.36298 260.33984)
(-855.16313 354.05801 299.12235)
(-825.81301 319.12716 291.90191)
(-798.78866 283.87281 284.91555)
(-727.56633 297.2512 312.96445)
(-697.37718 262.20013 309.41529)
(-669.87235 226.36041 306.77345)
(-5.0489127 -14.07907 21.565684)
(-62.668764 -56.570967 14.589444)
(-131.74636 -65.489338 3.2126418)
(-234.51431 -79.615189 -2.92511)
(-348.37128 -79.539443 -13.521617)
(-473.90963 -71.345689 -20.631151)
(-609.38933 -53.937027 -25.783724)
(-747.05833 -27.351597 -29.170962)
(-885.51987 7.880097 -26.986711)
(-1019.6146 48.844323 -22.765791)
(-1143.1615 94.865062 -13.407165)
(-1251.4107 142.56444 0.87594253)
(-1338.1549 189.72175 18.386647)
(-1398.8129 232.17086 39.982128)
(-1428.8542 266.30192 64.269788)
(-1426.1507 289.14516 90.405348)
(-1390.0766 297.82004 117.6568)
(-1322.3744 291.08608 145.02417)
(-1227.1244 268.6252 171.74262)
(-1110.0295 231.99294 197.44284)
(-978.88464 183.48527 221.39669)
(-841.71618 126.965 243.58206)
(-705.19713 67.557119 265.45255)
(7.3331683 -8.9739096 -3.3139922)
(-47.015879 -14.080513 -4.8156609)
(-118.80902 -8.9451246 -11.630719)
(-217.85998 -5.2066326 -17.99143)
(-325.57535 5.3741551 -23.076537)
(-448.48399 21.733045 -27.113646)
(-579.39917 45.506972 -31.382514)
(-714.23899 72.68333 -29.766428)
(-851.7938 105.38338 -27.616233)
(-984.86531 140.96853 -19.768995)
(-1110.7665 178.31901 -8.6955851)
(-1222.2957 213.72518 6.0899414)
(-1314.912 245.63509 24.043714)
(-1382.7877 269.99447 45.016078)
(-1421.686 284.41821 66.924667)
(-1428.7236 286.06891 89.797112)
(-1402.7175 273.51301 112.20093)
(-1344.9881 246.30169 133.6671)
(-1258.9377 205.18313 153.83663)
(-1149.8902 152.59571 172.7078)
(-1025.3833 91.340423 190.20341)
(-893.17062 25.839161 207.75775)
(-759.36297 -41.325199 224.19895)
(19.97848 14.892455 -18.253019)
(-44.413859 15.501258 -21.876577)
(-111.68505 57.570801 -34.32278)
(-202.89136 65.291886 -30.788409)
(-306.86849 96.71633 -35.747067)
(-423.89966 127.10172 -39.339747)
(-548.31548 155.6376 -37.344358)
(-679.32707 187.93694 -35.862648)
(-813.08555 220.43134 -29.561434)
(-944.99965 250.44417 -19.737306)
(-1071.4994 278.3153 -6.3747573)
(-1186.2537 300.32533 10.37712)
(-1284.5274 314.10193 30.210904)
(-1360.0984 317.96705 51.113464)
(-1408.5389 308.96764 72.516714)
(-1426.2555 286.32013 93.098576)
(-1411.4313 249.56561 111.79898)
(-1364.5612 199.3956 128.10976)
(-1288.3031 137.92529 142.00572)
(-1187.6848 68.161938 153.64174)
(-1069.5968 -6.0950789 163.99182)
(-942.221 -81.130752 173.63968)
(-813.37011 -152.67087 184.91973)
(-17.786258 -15.108642 -17.554402)
(-16.973959 -16.945994 -6.0080614)
(-20.887146 -13.995605 8.2701166)
(-79.922386 -61.099641 -14.738604)
(-82.899112 -57.850422 -5.7989332)
(-76.771586 -56.463488 6.989153)
(-153.004 -78.257326 -20.422857)
(-152.70823 -73.531335 -12.623531)
(-149.75895 -71.088333 -5.0347339)
(-249.95018 -90.583805 -26.601492)
(-252.54744 -87.206645 -20.592803)
(-246.05045 -84.10462 -11.863904)
(-362.40012 -90.325273 -30.435386)
(-363.692 -85.638672 -26.630087)
(-359.69992 -83.125341 -19.834647)
(-486.14539 -77.424154 -34.435351)
(-487.48632 -74.384814 -31.330035)
(-481.55378 -74.07601 -26.882073)
(-617.88241 -54.2061 -35.298191)
(-618.70137 -52.771161 -34.917133)
(-614.22539 -54.217667 -31.00997)
(-753.49414 -19.652505 -34.289403)
(-753.16898 -21.40304 -34.114183)
(-749.54416 -25.574623 -32.759706)
(-888.97958 22.843148 -28.465462)
(-888.14769 19.079699 -29.508142)
(-884.75033 12.10137 -29.712898)
(-1020.4983 74.123773 -18.252823)
(-1018.0577 66.605409 -21.588483)
(-1015.5932 55.741783 -23.057762)
(-1142.6051 130.39958 -3.2362298)
(-1138.5863 118.6595 -8.0793485)
(-1136.3279 105.27813 -11.860246)
(-1250.4749 188.51532 15.804341)
(-1244.2473 172.78763 9.6110192)
(-1242.2466 155.87658 3.6989305)
(-1338.6762 245.61619 39.184411)
(-1329.9122 225.66464 31.171065)
(-1327.4229 205.72343 23.703148)
(-1402.4986 297.27482 65.313272)
(-1390.9948 273.58418 56.196636)
(-1387.491 250.73859 46.789693)
(-1438.0838 339.99077 93.239749)
(-1423.6207 312.83079 82.950602)
(-1418.2892 287.38188 72.41435)
(-1442.8486 370.2064 121.44131)
(-1425.2705 340.24261 110.68856)
(-1417.6351 312.54507 99.361065)
(-1416.0662 385.54358 148.74152)
(-1395.6374 353.18409 138.05126)
(-1385.0159 323.58654 126.71376)
(-1359.1421 384.33153 174.09678)
(-1335.8857 350.35155 164.22879)
(-1321.9471 319.13399 153.51549)
(-1275.0665 366.76274 197.21517)
(-1249.6885 331.24023 188.33584)
(-1232.2277 299.17201 179.22501)
(-1169.8304 334.19173 217.46401)
(-1141.513 298.25341 211.04135)
(-1121.1791 264.59145 203.1299)
(-1049.5838 288.6737 235.33501)
(-1019.4724 252.80835 231.43734)
(-995.88707 218.4116 225.29231)
(-919.67666 234.24886 252.28219)
(-890.24704 198.20963 249.24358)
(-864.00742 163.73316 246.102)
(-788.67804 175.42429 268.03628)
(-758.71315 139.43034 266.78578)
(-731.1402 104.59774 265.75433)
(-4.8668068 -6.4994304 -2.3646264)
(-8.5838772 -7.1555016 0.35820511)
(-11.108148 -7.2260184 -1.616255)
(-62.8136 -15.147958 -4.6089954)
(-66.047721 -14.724217 -4.237059)
(-57.585391 -10.240021 -3.900922)
(-137.16638 -17.813072 -14.381641)
(-135.49574 -13.317468 -16.831966)
(-134.64745 -11.32555 -12.314439)
(-229.08941 -12.014353 -22.639573)
(-233.57226 -7.5452792 -22.256816)
(-226.10977 -2.5118087 -20.079771)
(-340.17646 1.4637308 -29.367859)
(-338.35605 5.346754 -30.37078)
(-334.06651 7.331403 -25.719591)
(-459.68354 22.226305 -36.536545)
(-459.17402 24.09435 -35.344667)
(-454.6625 25.267243 -31.649602)
(-588.81635 51.748795 -39.890333)
(-586.73593 51.355169 -38.640153)
(-582.49745 50.369234 -35.288562)
(-722.42352 86.699438 -40.727629)
(-719.01454 83.185822 -38.419548)
(-715.75471 80.314556 -35.556853)
(-857.56629 129.03731 -37.61556)
(-852.96353 121.98075 -35.580665)
(-850.44245 115.48723 -33.071571)
(-989.21469 174.14315 -30.802061)
(-983.19131 162.83253 -27.619783)
(-981.56712 154.03969 -25.55024)
(-1113.7643 220.65544 -19.542547)
(-1106.3743 205.95801 -15.72533)
(-1105.1442 193.15009 -14.624391)
(-1225.6529 265.93228 -4.0519795)
(-1216.2115 247.0215 -0.23351517)
(-1215.0079 231.2185 0.67096005)
(-1319.6645 306.09164 15.15514)
(-1308.1521 283.6905 19.193695)
(-1306.5597 264.79064 19.602176)
(-1391.1899 338.12453 37.074969)
(-1377.3272 312.29264 40.956717)
(-1374.6553 290.55054 41.056632)
(-1435.6599 358.7349 60.898554)
(-1419.2749 330.16414 64.512332)
(-1414.7304 305.91902 64.239867)
(-1450.3793 365.72359 85.349506)
(-1431.416 334.79035 88.501925)
(-1424.4209 308.37866 87.956676)
(-1433.8367 357.60267 109.43032)
(-1412.437 324.87747 112.04649)
(-1402.3268 296.58878 111.32495)
(-1386.8366 334.26032 132.33738)
(-1363.1034 300.19026 134.46295)
(-1349.5398 270.33828 133.48574)
(-1311.9911 296.92464 153.72952)
(-1286.3327 261.67897 155.12485)
(-1269.0779 230.59726 154.24489)
(-1213.427 247.78462 172.82183)
(-1186.8092 211.77178 174.35597)
(-1165.921 179.35432 173.19695)
(-1098.0694 189.46284 192.20489)
(-1071.6173 153.92495 192.11666)
(-1046.7144 120.10374 190.57818)
(-973.9671 126.45009 208.05256)
(-944.73892 90.968506 208.91806)
(-918.70918 57.104268 207.56141)
(-845.06057 61.985747 224.29198)
(-815.24833 26.073156 224.48638)
(-787.24345 -7.6476141 223.98467)
(-0.73740404 7.6788223 4.1876178)
(3.6059998 6.1316556 -2.8574825)
(2.3937193 6.6346034 -10.331921)
(-61.486676 19.552778 2.0302999)
(-63.882327 12.208589 -8.6434973)
(-60.019793 18.074582 -15.679687)
(-127.05516 39.818757 -7.6078655)
(-127.90061 51.329403 -14.482681)
(-127.28332 53.667694 -23.902727)
(-218.9488 68.031149 -14.097283)
(-218.80378 67.120724 -22.206611)
(-215.88243 69.917967 -27.678019)
(-321.90544 92.436268 -23.822553)
(-320.75385 96.992032 -29.096456)
(-317.85254 98.753558 -30.374528)
(-437.53186 126.62155 -31.611684)
(-435.46365 129.4665 -33.742761)
(-432.03688 128.39376 -36.453591)
(-561.01951 162.62704 -36.074495)
(-558.07056 162.42616 -37.821492)
(-554.00391 160.01523 -38.003163)
(-690.30902 201.66985 -39.842892)
(-686.37473 199.38219 -39.106339)
(-682.29599 193.72465 -37.471972)
(-821.77336 242.45257 -39.950433)
(-817.37682 237.28382 -36.785103)
(-812.66741 228.62054 -33.950337)
(-951.82224 282.37326 -36.426808)
(-946.08773 273.8242 -31.155094)
(-941.94315 261.35413 -26.382075)
(-1076.7647 320.04677 -29.614266)
(-1070.153 307.50696 -22.087582)
(-1065.508 291.58007 -15.183873)
(-1190.8448 351.03866 -18.756802)
(-1182.6178 334.88196 -8.8988931)
(-1177.9641 315.81778 -0.3428727)
(-1289.8889 373.56959 -4.945774)
(-1280.029 353.57264 6.8555104)
(-1274.906 331.36894 17.286258)
(-1368.323 384.21083 11.850816)
(-1356.3214 360.89666 25.207947)
(-1350.4767 336.19621 37.085521)
(-1421.8823 381.15571 30.584283)
(-1407.6167 354.66969 44.814721)
(-1400.2936 327.96112 57.582543)
(-1447.0137 363.08212 50.439459)
(-1430.2089 333.98454 64.782535)
(-1420.972 305.69239 77.935434)
(-1441.8019 329.95868 70.633349)
(-1422.4456 298.68247 84.389868)
(-1410.5503 269.17136 97.158069)
(-1406.099 283.03098 90.613313)
(-1384.174 249.97425 102.91129)
(-1369.1926 219.66303 114.56637)
(-1341.704 224.52524 109.83726)
(-1317.5101 190.36974 120.20254)
(-1299.1421 159.09912 130.23404)
(-1252.9932 157.9487 128.45846)
(-1226.6505 122.70022 136.30638)
(-1204.7807 90.991219 144.08551)
(-1144.6349 86.675815 146.11095)
(-1117.3362 51.3214 151.97302)
(-1092.157 18.774456 156.8183)
(-1025.3347 14.781373 163.72727)
(-996.35069 -20.838762 167.06054)
(-969.10339 -53.506152 169.42907)
(-901.12996 -53.908985 180.60248)
(-871.70002 -89.283376 181.85069)
(-842.67891 -122.19346 182.96064)
)
;

boundaryField
{
    free
    {
        type            zeroGradient;
    }
    fixed
    {
        type            fixedValue;
        value           nonuniform List<vector> 
25
(
(-2.5953868e-15 -2.1703571e-16 4.2716933e-18)
(-1.3028228e-15 -3.4252847e-16 3.3068324e-16)
(-1.9658614e-16 -3.2115893e-17 -1.1045223e-16)
(-3.6361799e-15 2.112754e-16 -3.2990721e-16)
(-3.8783653e-15 3.5858996e-16 7.5215743e-16)
(-2.0449562e-15 -3.5718549e-16 -7.3673077e-16)
(-9.8459492e-16 7.8127033e-16 2.7525688e-16)
(-1.4121951e-15 -1.0527101e-15 6.223458e-16)
(-4.8813632e-16 1.9183015e-16 -1.0607077e-16)
(6.5239771e-16 2.739523e-16 -5.5565719e-16)
(-3.9146975e-16 7.8165185e-18 1.2560621e-16)
(1.4766345e-16 -3.4299605e-16 -2.8648028e-16)
(1.6350797e-16 -2.4226884e-16 -1.2066667e-17)
(-1.0304172e-15 -9.2669207e-16 -7.5672327e-16)
(-2.6214496e-15 -5.6404768e-16 7.244144e-16)
(-6.4481012e-16 3.525084e-16 2.7116342e-16)
(-1.0135278e-15 7.0169807e-16 1.7538027e-16)
(-3.5205005e-15 9.4737515e-16 -2.5196009e-17)
(-3.8147498e-15 1.043275e-15 1.2924308e-16)
(-2.4010456e-15 1.4295629e-15 -1.6975308e-16)
(-1.2019486e-15 6.189313e-16 -3.4292956e-16)
(2.8178306e-17 1.9013092e-16 6.1994168e-17)
(-1.2511779e-16 -6.848356e-17 2.1836215e-16)
(-3.8898857e-17 4.7141393e-16 -3.1043199e-16)
(-3.7042918e-15 1.4868296e-15 -1.3023874e-15)
)
;
    }
    freeTop
    {
        type            zeroGradient;
    }
}


// ************************************************************************* //
