/*--------------------------------*- C++ -*----------------------------------*\
  =========                 |
  \\      /  F ield         | OpenFOAM: The Open Source CFD Toolbox
   \\    /   O peration     | Website:  https://openfoam.org
    \\  /    A nd           | Version:  6
     \\/     M anipulation  |
\*---------------------------------------------------------------------------*/
FoamFile
{
    version     2.0;
    format      ascii;
    class       pointVectorField;
    location    "1.82";
    object      u;
}
// * * * * * * * * * * * * * * * * * * * * * * * * * * * * * * * * * * * * * //

dimensions      [0 1 0 0 0 0 0];

internalField   nonuniform List<vector> 
28033
(
(0 0 0)
(0 0 0)
(0.14590474 0.035683965 -0.0028635994)
(0.14253146 -0.045732731 -0.0020812054)
(0 0 0)
(0 0 0)
(0.14155202 -0.045750772 -0.0019945911)
(0.14496929 0.035620834 -0.003076399)
(0 0 0)
(0 0 0)
(0 0 0)
(0 0 0)
(0 0 0)
(0 0 0)
(0 0 0)
(0 0 0)
(0 0 0)
(0 0 0)
(0 0 0)
(0 0 0)
(0 0 0)
(0 0 0)
(0 0 0)
(0.14558724 0.030025411 -0.0030675358)
(0.14518909 0.024792325 -0.0030119444)
(0.14480007 0.019689273 -0.0030041533)
(0.14448662 0.014659359 -0.002919955)
(0.14418966 0.0097063374 -0.0028329556)
(0.1439171 0.0047965269 -0.0027292734)
(0.14368411 -8.029622e-05 -0.0026092464)
(0.14347648 -0.004946391 -0.0024820881)
(0.14329669 -0.0098118516 -0.0023623579)
(0.14314141 -0.014706127 -0.0022370865)
(0.1430119 -0.019619973 -0.0021346748)
(0.14289481 -0.024606272 -0.0020546151)
(0.14281869 -0.029643099 -0.00198814)
(0.14271159 -0.034800031 -0.0019401783)
(0.14268564 -0.040084847 -0.0019717982)
(-0.0010186058 -0.001664965 -0.0015679937)
(-0.0014847199 -0.0023849309 -0.0020705999)
(-0.0021303431 -0.0030882066 -0.0023155806)
(-0.0028970117 -0.0038327767 -0.0024411254)
(-0.0037805391 -0.0044719502 -0.0024371938)
(-0.0047582374 -0.0051553844 -0.0023851458)
(-0.0058587372 -0.0057467704 -0.0022817474)
(-0.0070265859 -0.0063482593 -0.0021481693)
(-0.0082996324 -0.0068627356 -0.0020003153)
(-0.0096241301 -0.0073713371 -0.0018331248)
(-0.01102879 -0.0077905955 -0.0016675588)
(-0.012468518 -0.0081980607 -0.0014891565)
(-0.013967132 -0.0085155766 -0.0013234686)
(-0.015487654 -0.0088133093 -0.0011474511)
(-0.017047154 -0.00902681 -0.00098381693)
(-0.018608807 -0.0092114485 -0.00082113546)
(-0.020194362 -0.0093194574 -0.00066747834)
(-0.021776069 -0.0093970945 -0.00051271822)
(-0.023359537 -0.0093984039 -0.00037068767)
(-0.024922028 -0.0093662311 -0.0002308064)
(-0.026480552 -0.0092678038 -9.6600051e-05)
(-0.028001936 -0.0091311882 3.0450676e-05)
(-0.029505073 -0.0089342406 0.0001547033)
(-0.030967314 -0.0086988683 0.00027586946)
(-0.032390852 -0.0084035847 0.00038891481)
(-0.033766125 -0.0080750857 0.00050154439)
(-0.035093343 -0.0076889148 0.00060990414)
(-0.036362667 -0.0072669425 0.00071638033)
(-0.037566908 -0.0067910785 0.0008160814)
(-0.038708852 -0.0062847231 0.00091908532)
(-0.039772389 -0.0057192764 0.0010120259)
(-0.040758178 -0.0051246008 0.0011042826)
(-0.041661683 -0.0044815095 0.0011950701)
(-0.042472238 -0.003805581 0.0012785975)
(-0.043187922 -0.0030815489 0.0013601909)
(-0.043800147 -0.0023242933 0.001429384)
(-0.044306697 -0.001527853 0.0014992377)
(-0.04469668 -0.00069285772 0.0015593217)
(-0.044966437 0.00017229467 0.0016078942)
(-0.045110687 0.0010750023 0.0016506132)
(-0.045124283 0.00200565 0.0016831675)
(-0.045002264 0.0029673472 0.0017056194)
(-0.044737942 0.0039558704 0.0017161744)
(-0.044328262 0.0049699699 0.0017170057)
(-0.043770131 0.0060040244 0.0017059157)
(-0.043057907 0.0070581217 0.0016837382)
(-0.042191883 0.0081277716 0.001650928)
(-0.041166722 0.0092091733 0.0016067157)
(-0.039984045 0.010300771 0.0015529166)
(-0.038639816 0.01139677 0.0014889193)
(-0.037136688 0.012496315 0.0014161696)
(-0.035472207 0.013592698 0.0013350545)
(-0.033649634 0.014686469 0.0012465147)
(-0.031668385 0.015769269 0.0011514467)
(-0.029531975 0.016843395 0.0010505509)
(-0.027241679 0.017899985 0.00094505585)
(-0.024801141 0.018941182 0.00083534994)
(-0.022213004 0.019959813 0.0007228505)
(-0.019481498 0.020957218 0.00060768068)
(-0.01660992 0.021927013 0.00049136525)
(-0.013602877 0.02287129 0.00037381422)
(-0.010464295 0.023784193 0.00025632399)
(-0.0072000533 0.024668255 0.00013917176)
(-0.0038109121 0.025516842 2.2249457e-05)
(-0.00030883422 0.026336189 -9.1188418e-05)
(0.0033106113 0.027118304 -0.00020612453)
(0.0070344147 0.027864716 -0.00031590249)
(0.010861581 0.02857698 -0.0004238085)
(0.014786309 0.029255083 -0.00053191166)
(0.018805786 0.029897044 -0.00063256743)
(0.022912947 0.03050553 -0.00073166979)
(0.027104814 0.031074357 -0.00082516173)
(0.031378053 0.031620454 -0.00091988016)
(0.035728091 0.032114724 -0.001004341)
(0.040150108 0.032604079 -0.0010942883)
(0.044646445 0.033022515 -0.0011694133)
(0.049200807 0.033458325 -0.0012555937)
(0.053832823 0.03380526 -0.0013226962)
(0.058506906 0.034186612 -0.0014055049)
(0.063261373 0.034470535 -0.001466253)
(0.068051721 0.034790009 -0.0015489787)
(0.072910772 0.035023639 -0.0016044883)
(0.077813689 0.035275211 -0.001686529)
(0.082765933 0.03545794 -0.0017417683)
(0.087769965 0.035645683 -0.0018212751)
(0.092815328 0.035784008 -0.0018859356)
(0.097914042 0.03589321 -0.0019638989)
(0.10303815 0.035984864 -0.0020324176)
(0.10822135 0.036030945 -0.0021207083)
(0.11341648 0.036075221 -0.0021946035)
(0.11867474 0.036030817 -0.0022684537)
(0.12393768 0.03608435 -0.0023832662)
(0.12925549 0.035959536 -0.0024127891)
(0.13463576 0.035955683 -0.0025371042)
(0.14000711 0.035911844 -0.0025696146)
(-0.00064517635 0.0016028469 0.0020332286)
(-0.0015135527 0.0022781241 0.0020055689)
(-0.0022059893 0.0031434991 0.0024764202)
(-0.0029230781 0.0037209538 0.0024882331)
(-0.0038746491 0.0044470353 0.0025205782)
(-0.0048620322 0.0050911148 0.0024515205)
(-0.0059619208 0.0056808821 0.0023376718)
(-0.0071467488 0.0062493044 0.0021899019)
(-0.0084324073 0.0067725727 0.0020075093)
(-0.0097644824 0.0072313555 0.0018205802)
(-0.011178866 0.0076577539 0.0016072183)
(-0.012632931 0.0080138843 0.0013976295)
(-0.014135093 0.0083309391 0.0011736009)
(-0.015670018 0.008583071 0.00095423323)
(-0.017231561 0.008789978 0.00072778274)
(-0.018811242 0.0089353587 0.00050486067)
(-0.02039953 0.0090330152 0.00028196506)
(-0.021988264 0.0090735538 6.1590979e-05)
(-0.023575573 0.0090686227 -0.00015687222)
(-0.025145383 0.0090034126 -0.0003715195)
(-0.026699949 0.0089011707 -0.00058191446)
(-0.028226017 0.0087366036 -0.00079134298)
(-0.029726406 0.0085397321 -0.00099358935)
(-0.031182186 0.0082830636 -0.0011959598)
(-0.032606385 0.0079919878 -0.0013929595)
(-0.033970299 0.0076472442 -0.0015853772)
(-0.035291238 0.0072652735 -0.0017788855)
(-0.036546117 0.0068367818 -0.0019648929)
(-0.037743559 0.0063671038 -0.0021548124)
(-0.038868916 0.0058573511 -0.002336761)
(-0.039921929 0.005303166 -0.0025221207)
(-0.040898294 0.0047142764 -0.002704806)
(-0.04178932 0.0040794953 -0.0028875834)
(-0.042594067 0.0034128308 -0.0030689773)
(-0.043301875 0.002702155 -0.0032506252)
(-0.043917076 0.0019603714 -0.0034339752)
(-0.044418706 0.0011783071 -0.0036090362)
(-0.044815161 0.00036498052 -0.0037898197)
(-0.045094859 -0.0004822258 -0.0039654393)
(-0.04525642 -0.0013583783 -0.0041400342)
(-0.045287586 -0.0022665729 -0.0043096611)
(-0.045193362 -0.0031984626 -0.0044764171)
(-0.04495828 -0.004158209 -0.004636188)
(-0.044588208 -0.0051378456 -0.0047909337)
(-0.044070275 -0.0061395798 -0.0049368822)
(-0.043408151 -0.0071573985 -0.0050750817)
(-0.042593287 -0.0081910225 -0.0052029437)
(-0.041627404 -0.0092364282 -0.0053205505)
(-0.040505037 -0.010292037 -0.0054262222)
(-0.03922797 -0.01135411 -0.0055198355)
(-0.037792534 -0.01242137 -0.0056001401)
(-0.03620106 -0.013490178 -0.0056672066)
(-0.034451968 -0.014558835 -0.0057202243)
(-0.032547586 -0.015624779 -0.0057593242)
(-0.030488535 -0.016685917 -0.0057843928)
(-0.028277654 -0.017739893 -0.0057956069)
(-0.025916458 -0.018785447 -0.0057932652)
(-0.023408968 -0.019819997 -0.00577784)
(-0.02075783 -0.020842429 -0.0057501465)
(-0.017966685 -0.021851406 -0.0057102774)
(-0.015040276 -0.022844827 -0.0056601733)
(-0.01198177 -0.023822702 -0.0055992527)
(-0.0087966393 -0.024782607 -0.0055302339)
(-0.0054883765 -0.025725498 -0.0054520962)
(-0.0020632282 -0.026647956 -0.0053684288)
(0.0014764572 -0.027553646 -0.0052770262)
(0.0051235713 -0.028436547 -0.0051827593)
(0.0088748941 -0.029303018 -0.0050824051)
(0.012725697 -0.030144575 -0.0049824911)
(0.016669127 -0.030966886 -0.0048744737)
(0.020704527 -0.031773054 -0.0047703321)
(0.02482416 -0.032553072 -0.0046631859)
(0.029029033 -0.033318701 -0.0045559468)
(0.033307901 -0.034059711 -0.0044505119)
(0.037666623 -0.034785743 -0.0043430896)
(0.042091385 -0.035488309 -0.0042407996)
(0.046589322 -0.036176665 -0.0041350543)
(0.051149456 -0.036841648 -0.0040350525)
(0.055774903 -0.037493416 -0.0039325435)
(0.060459228 -0.038122051 -0.0038342294)
(0.065203364 -0.038737411 -0.0037346185)
(0.070003341 -0.039330643 -0.0036371273)
(0.074856761 -0.039908776 -0.0035393867)
(0.079765094 -0.040466583 -0.0034416726)
(0.084719872 -0.041005425 -0.0033451382)
(0.08972766 -0.041526917 -0.0032458642)
(0.094777315 -0.042024632 -0.0031483777)
(0.099874473 -0.04250469 -0.0030493337)
(0.1050109 -0.042963343 -0.0029476013)
(0.11019054 -0.043398861 -0.0028476793)
(0.11540207 -0.043812778 -0.002745566)
(0.12066209 -0.044213126 -0.0026429218)
(0.12595057 -0.044597379 -0.0025290967)
(0.13131584 -0.044953348 -0.0024359002)
(0.1367518 -0.045372442 -0.0022866033)
(0 0 0)
(0 0 0)
(0 0 0)
(0 0 0)
(0 0 0)
(0 0 0)
(0 0 0)
(0 0 0)
(0 0 0)
(0 0 0)
(0 0 0)
(0 0 0)
(0 0 0)
(0 0 0)
(0 0 0)
(-0.0011260669 0.0007560387 -0.0015465598)
(-0.0017453916 0.0027244017 -0.0020757681)
(-0.0022731606 0.0028851377 -0.002218996)
(-0.0031988062 0.0040282048 -0.0024454646)
(-0.0040465799 0.0045404975 -0.0024249763)
(-0.0051076937 0.0052829006 -0.0023440731)
(-0.0062125587 0.0058795095 -0.0022284069)
(-0.0074477406 0.0065141675 -0.0020945039)
(-0.0087335397 0.0070253277 -0.0019126284)
(-0.010099305 0.0075484095 -0.0017455019)
(-0.011528625 0.0079945143 -0.0015612283)
(-0.012999751 0.0083717105 -0.0013752667)
(-0.014520252 0.0087346692 -0.0011862819)
(-0.016069425 0.0089975994 -0.0010054651)
(-0.017643257 0.0092448926 -0.00081803912)
(-0.019238849 0.009411226 -0.00064560633)
(-0.020839299 0.0095322384 -0.00047174756)
(-0.022435365 0.0095994392 -0.00030480709)
(-0.024043561 0.0096090968 -0.00013955608)
(-0.025613069 0.0095714149 1.0500531e-05)
(-0.027194339 0.0094871139 0.00016913441)
(-0.028728131 0.0093449604 0.00030735807)
(-0.030240365 0.0091611903 0.00045464258)
(-0.031706816 0.0089178702 0.00059174868)
(-0.033151183 0.0086510645 0.00072405449)
(-0.034522483 0.0083120428 0.00085423447)
(-0.035878554 0.0079597269 0.00098341232)
(-0.037129562 0.0075320744 0.0011056585)
(-0.038369414 0.0070986121 0.0012303777)
(-0.039492012 0.0065866398 0.001350503)
(-0.040582724 0.0060722117 0.001466207)
(-0.041566353 0.0054840154 0.0015795601)
(-0.042487366 0.0048876173 0.0016879398)
(-0.043301805 0.0042230868 0.0017945784)
(-0.04403212 0.0035523763 0.0018913555)
(-0.044668091 0.0028276433 0.0019859431)
(-0.045176284 0.0020687705 0.0020717469)
(-0.045585626 0.0012746228 0.002153046)
(-0.045876154 0.00045611726 0.0022192787)
(-0.046038631 -0.0004067317 0.0022811972)
(-0.046077354 -0.0012893346 0.0023288696)
(-0.04597822 -0.0022102587 0.0023682118)
(-0.045743498 -0.0031513543 0.0023928404)
(-0.045363935 -0.0041248842 0.002408599)
(-0.044840341 -0.0051162463 0.0024086465)
(-0.044165083 -0.0061349591 0.0023995248)
(-0.043339861 -0.0071681183 0.0023753763)
(-0.042359063 -0.0082226572 0.0023418667)
(-0.041223818 -0.0092883186 0.0022947585)
(-0.03993161 -0.01036875 0.002239024)
(-0.038483517 -0.011456269 0.0021715995)
(-0.03687844 -0.012552367 0.0020964115)
(-0.035118646 -0.013650924 0.0020122177)
(-0.033204375 -0.014751807 0.0019213518)
(-0.031138056 -0.015850917 0.0018240291)
(-0.028921766 -0.016946182 0.001721597)
(-0.026558263 -0.018035311 0.0016150123)
(-0.024050321 -0.019115613 0.0015049237)
(-0.021401737 -0.020185179 0.0013926884)
(-0.018615579 -0.021241807 0.0012785977)
(-0.015696176 -0.022283801 0.0011638694)
(-0.012647169 -0.023309286 0.0010488313)
(-0.009473123 -0.024317024 0.00093443649)
(-0.0061780198 -0.025305532 0.00082094531)
(-0.0027665289 -0.026273788 0.00070911962)
(0.00075707185 -0.027221208 0.00059902843)
(0.0043884574 -0.028146002 0.00049153769)
(0.0081240014 -0.029053179 0.00038726749)
(0.011956103 -0.029923423 0.00028425955)
(0.015882594 -0.030792124 0.00018625851)
(0.019902492 -0.03162248 9.0863464e-05)
(0.024005407 -0.032436377 1.4983064e-07)
(0.028192755 -0.033225075 -8.8991815e-05)
(0.032458474 -0.03399387 -0.00017283161)
(0.036799352 -0.034738941 -0.00025449601)
(0.041213018 -0.035464018 -0.00033220629)
(0.045695508 -0.036166905 -0.00040761807)
(0.050244905 -0.036849829 -0.00047969002)
(0.05485805 -0.037512014 -0.00055034326)
(0.059532741 -0.038153892 -0.00061825713)
(0.064266906 -0.038776321 -0.00068617136)
(0.069058553 -0.039378246 -0.00075223757)
(0.073905355 -0.039960746 -0.00081953577)
(0.078806001 -0.040522925 -0.00088641681)
(0.083758004 -0.041064554 -0.00095566183)
(0.088759853 -0.04158652 -0.0010250942)
(0.093808362 -0.04208495 -0.0010988409)
(0.098903812 -0.042566138 -0.0011722428)
(0.10403948 -0.043019416 -0.0012516281)
(0.10921992 -0.043459158 -0.0013292919)
(0.11443318 -0.043867216 -0.0014155244)
(0.11969528 -0.044270621 -0.0014956806)
(0.12498297 -0.044643077 -0.0015916147)
(0.13036079 -0.045019462 -0.0016782537)
(0.13575705 -0.045438301 -0.0018026502)
(0.14175096 -0.040098452 -0.0022069332)
(0.14178698 -0.034868004 -0.0023587412)
(0.14185175 -0.029671236 -0.0024334462)
(0.1419554 -0.024655757 -0.002508984)
(0.14206033 -0.019660049 -0.0025253848)
(0.14219226 -0.014751575 -0.002554366)
(0.14234654 -0.009859693 -0.002543054)
(0.14252068 -0.0049890469 -0.002542598)
(0.14274749 -0.00013398845 -0.0025397204)
(0.14295967 0.0047516469 -0.0025332194)
(0.14324309 0.0096529133 -0.002551989)
(0.14353247 0.014605836 -0.0025807637)
(0.14386597 0.019620438 -0.0026211554)
(0.14417671 0.024741967 -0.0027085585)
(0.14465983 0.029929718 -0.0028184635)
(0.13912657 0.03585664 -0.0033673168)
(0.13366234 0.035842122 -0.0034599819)
(0.12831533 0.035924284 -0.0035782119)
(0.12299282 0.035967198 -0.0036679162)
(0.11771583 0.035992996 -0.0037810595)
(0.11247093 0.035990336 -0.003881146)
(0.10726035 0.03596179 -0.0039849038)
(0.10208523 0.035905394 -0.0040880689)
(0.096949585 0.035817997 -0.0041873778)
(0.091854118 0.035706021 -0.0042892983)
(0.086802111 0.035562354 -0.0043868308)
(0.081795645 0.035393644 -0.0044854588)
(0.076836217 0.035195653 -0.0045826488)
(0.071924155 0.034972477 -0.0046824596)
(0.067066354 0.034720037 -0.0047799521)
(0.062262616 0.034441753 -0.0048781829)
(0.057516168 0.034135742 -0.0049754232)
(0.052827719 0.033801361 -0.0050737765)
(0.048201003 0.033440416 -0.0051726868)
(0.043638501 0.033048536 -0.0052715216)
(0.03914228 0.03263041 -0.0053716341)
(0.034717026 0.03217933 -0.005471324)
(0.030363873 0.031701825 -0.0055721359)
(0.026089063 0.031188862 -0.0056714136)
(0.021893357 0.030649744 -0.005771937)
(0.017783445 0.030075617 -0.0058698074)
(0.013758167 0.029468759 -0.0059677805)
(0.0098469689 0.028821386 -0.0060567121)
(0.0060099012 0.028157207 -0.0061491351)
(0.0022880617 0.027448353 -0.0062347138)
(-0.0013282785 0.026711681 -0.0063167059)
(-0.0048298044 0.025940198 -0.0063908724)
(-0.0082142336 0.025137856 -0.0064587383)
(-0.011474773 0.024302882 -0.0065182817)
(-0.014607676 0.023438164 -0.0065690232)
(-0.017607756 0.022543291 -0.0066097646)
(-0.020470777 0.021620887 -0.0066401419)
(-0.023192223 0.020671302 -0.0066587231)
(-0.025768374 0.019697706 -0.0066656491)
(-0.028195431 0.018700636 -0.0066595306)
(-0.030470281 0.017684058 -0.0066408467)
(-0.032590024 0.016648667 -0.006608238)
(-0.034552533 0.015599131 -0.0065628779)
(-0.036355833 0.014536223 -0.0065032005)
(-0.037998909 0.01346542 -0.0064311332)
(-0.039480941 0.012387254 -0.0063450056)
(-0.040802109 0.011308088 -0.0062473984)
(-0.041962807 0.010228068 -0.0061365802)
(-0.04296444 0.0091541411 -0.0060156623)
(-0.043808668 0.0080864218 -0.005882951)
(-0.044497997 0.0070312689 -0.0057415455)
(-0.045035599 0.0059903251 -0.0055909194)
(-0.04542444 0.0049673371 -0.0054323015)
(-0.045669385 0.0039655978 -0.0052671161)
(-0.045775377 0.0029898701 -0.0050976224)
(-0.045743049 0.0020368361 -0.0049186744)
(-0.045584332 0.00111888 -0.0047417796)
(-0.045303297 0.00023299267 -0.0045569834)
(-0.044892214 -0.00063048755 -0.0043675224)
(-0.044376156 -0.0014427593 -0.0041819986)
(-0.043760257 -0.0022173857 -0.0039936236)
(-0.043019509 -0.0029734879 -0.0037940863)
(-0.042205013 -0.003661774 -0.0036085338)
(-0.041287916 -0.0043294339 -0.0034133993)
(-0.040295796 -0.004939428 -0.00322042)
(-0.039212518 -0.005525503 -0.0030208423)
(-0.038065081 -0.0060426779 -0.002822513)
(-0.03684206 -0.0065416351 -0.0026221665)
(-0.035558435 -0.0069757939 -0.0024201074)
(-0.034217984 -0.0073760811 -0.0022158289)
(-0.032824237 -0.0077263547 -0.0020097868)
(-0.031384433 -0.008026677 -0.0017962618)
(-0.029903312 -0.0082876727 -0.0015813767)
(-0.028377369 -0.0084952439 -0.0013611906)
(-0.026834744 -0.0086494466 -0.0011408414)
(-0.025257626 -0.0087698174 -0.0009110871)
(-0.023665711 -0.0088163936 -0.00068071177)
(-0.022065019 -0.0088390219 -0.00044644472)
(-0.020452349 -0.008784227 -0.00020811988)
(-0.018854965 -0.0086972464 3.2988193e-05)
(-0.017260292 -0.0085393608 0.00027478187)
(-0.015675161 -0.0083513233 0.00052086964)
(-0.014130549 -0.0080861094 0.00076086686)
(-0.012620112 -0.0077880107 0.0010049594)
(-0.011141203 -0.0074259069 0.0012390414)
(-0.0097227301 -0.0070221077 0.0014704164)
(-0.008376861 -0.0065505705 0.0016861588)
(-0.0070864847 -0.006065803 0.0018911351)
(-0.0058849705 -0.0055103842 0.0020598234)
(-0.0047762342 -0.0049306302 0.0022061348)
(-0.0037821393 -0.0042818515 0.0022831266)
(-0.0029198116 -0.0036168217 0.0022984162)
(-0.0021439716 -0.0029968534 0.0022324658)
(-0.0015238451 -0.0021938905 0.0018630214)
(-0.0013842583 -0.0015314876 0.0012037805)
(0 0 0)
(0 0 0)
(0 0 0)
(0 0 0)
(0 0 0)
(0 0 0)
(0 0 0)
(0 0 0)
(0 0 0)
(0 0 0)
(0 0 0)
(0 0 0)
(0 0 0)
(0 0 0)
(0 0 0)
(0 0 0)
(0 0 0)
(0 0 0)
(0 0 0)
(0 0 0)
(0 0 0)
(0 0 0)
(0 0 0)
(0 0 0)
(0 0 0)
(0 0 0)
(0 0 0)
(0 0 0)
(0 0 0)
(0 0 0)
(0.14255415 -0.045872112 -0.0020909189)
(0.14252563 -0.045943929 -0.0020987386)
(0.14248005 -0.04597983 -0.0021068476)
(0.14244038 -0.046013545 -0.0021032272)
(0.14239619 -0.046036157 -0.0020960915)
(0.14234996 -0.046052507 -0.002078089)
(0.14229718 -0.046061304 -0.0020608482)
(0.14223998 -0.046065448 -0.0020353257)
(0.14217846 -0.046066771 -0.0020143207)
(0.14210768 -0.046061626 -0.0019950994)
(0.1420459 -0.046060668 -0.0019755199)
(0.14196089 -0.046035173 -0.0019683374)
(0.14188927 -0.046019115 -0.0019645971)
(0.14180472 -0.045976648 -0.0019691614)
(0.141733 -0.045940132 -0.0019849905)
(0.14598715 0.035857201 -0.002875047)
(0.14595527 0.035883949 -0.0028535821)
(0.14591435 0.035918414 -0.0028710006)
(0.14588559 0.035944329 -0.0028829513)
(0.14583462 0.035951614 -0.0028974477)
(0.14579052 0.035957351 -0.0029266687)
(0.14573873 0.035963015 -0.0029513048)
(0.14568273 0.035960451 -0.0029833323)
(0.14562113 0.0359575 -0.0030125701)
(0.14555321 0.035950156 -0.0030383766)
(0.14548231 0.035934964 -0.0030626067)
(0.14540434 0.035916816 -0.0030803616)
(0.14532959 0.035896647 -0.0030769421)
(0.14524506 0.035833059 -0.0031056139)
(0.14517937 0.035835178 -0.0030858818)
(-0.00058719463 -0.0011361042 -0.0015609796)
(-0.0012007529 -0.0017039654 -0.0017050875)
(-0.0018251792 -0.0023931101 -0.0020226654)
(-0.0026306963 -0.0029997639 -0.002069012)
(-0.0034985236 -0.0035661405 -0.0021107301)
(-0.0045103726 -0.004126887 -0.0020517862)
(-0.0056079666 -0.0046393474 -0.0019806919)
(-0.0068159127 -0.0051443052 -0.0018606397)
(-0.008098045 -0.0055937416 -0.0017410805)
(-0.0094465166 -0.006020514 -0.0016034228)
(-0.010875684 -0.006400834 -0.0014547067)
(-0.012337503 -0.0067429826 -0.0013127764)
(-0.013858931 -0.0070359804 -0.001165556)
(-0.015402184 -0.0072907218 -0.001020297)
(-0.016985285 -0.0074940745 -0.0008789085)
(-0.018570883 -0.0076544202 -0.00074282152)
(-0.020182248 -0.0077658564 -0.00060905462)
(-0.021783419 -0.007833809 -0.00048260068)
(-0.023388555 -0.0078508511 -0.00035985667)
(-0.024974871 -0.0078281563 -0.00024256174)
(-0.02655295 -0.007754839 -0.00013078514)
(-0.028096633 -0.007641347 -2.1692994e-05)
(-0.029619008 -0.0074790485 8.1211361e-05)
(-0.031100259 -0.0072799825 0.00018108935)
(-0.032543449 -0.0070315331 0.00027669876)
(-0.033937347 -0.0067501595 0.00037121515)
(-0.035281777 -0.0064172587 0.00045872316)
(-0.036567329 -0.0060558438 0.00054792238)
(-0.037789987 -0.0056468796 0.00063087878)
(-0.038945601 -0.0052033093 0.00071334396)
(-0.04002703 -0.0047225798 0.00079081717)
(-0.041028071 -0.0042051505 0.00086670801)
(-0.041946402 -0.0036512068 0.00093725287)
(-0.042774695 -0.0030616443 0.0010048899)
(-0.043505143 -0.0024383581 0.0010672519)
(-0.044131052 -0.0017834573 0.0011252501)
(-0.044650431 -0.0010922097 0.0011745913)
(-0.045056556 -0.00037549461 0.0012188792)
(-0.045338135 0.0003728548 0.0012558514)
(-0.045496904 0.0011514482 0.0012834463)
(-0.045522765 0.0019534691 0.0013042578)
(-0.045410706 0.0027804346 0.0013143149)
(-0.045159504 0.003633026 0.0013156443)
(-0.044759713 0.0045036105 0.0013063829)
(-0.044212248 0.0053936399 0.0012876863)
(-0.043509813 0.0062999632 0.0012596534)
(-0.042652002 0.007218684 0.0012207478)
(-0.041635758 0.008148766 0.0011740526)
(-0.040459498 0.0090864284 0.0011172273)
(-0.039122395 0.010028764 0.0010530253)
(-0.037624169 0.01097347 0.00098046202)
(-0.035964783 0.011916548 0.00090172742)
(-0.034145524 0.012856185 0.00081598438)
(-0.032167331 0.013788137 0.00072577253)
(-0.030032624 0.014711243 0.00063009471)
(-0.027743367 0.015620544 0.00053151118)
(-0.025302949 0.016515964 0.00042926751)
(-0.022714093 0.017392653 0.00032525158)
(-0.019981064 0.018250264 0.00021937886)
(-0.017107295 0.019085122 0.00011306171)
(-0.01409724 0.01989687 5.9410109e-06)
(-0.010955572 0.02068264 -0.00010045737)
(-0.0076865205 0.021441757 -0.00020631588)
(-0.0042943031 0.022171845 -0.00031044013)
(-0.00078758616 0.02287536 -0.00041415061)
(0.0028385193 0.02354586 -0.00051459012)
(0.0065712772 0.02419039 -0.00061206513)
(0.010401007 0.024799786 -0.00070638142)
(0.014332997 0.025380393 -0.00079766649)
(0.01835596 0.025926494 -0.00088673553)
(0.022471293 0.026445895 -0.000974383)
(0.026668399 0.026931587 -0.001057107)
(0.030950027 0.027392269 -0.0011391059)
(0.035304703 0.027815726 -0.00121422)
(0.039735534 0.028220448 -0.0012901247)
(0.044236047 0.028580335 -0.0013582419)
(0.048800089 0.028934331 -0.0014295802)
(0.053434281 0.029230474 -0.0014900227)
(0.058119278 0.029534975 -0.0015591088)
(0.062876612 0.029773438 -0.001613697)
(0.067673322 0.030019551 -0.0016795337)
(0.072541245 0.030214089 -0.0017339068)
(0.077447613 0.030394195 -0.001796831)
(0.082409492 0.030540272 -0.001852692)
(0.0874147 0.030670181 -0.0019199484)
(0.092473796 0.03075961 -0.0019757718)
(0.097574495 0.030829186 -0.0020419916)
(0.10271155 0.030873758 -0.0021094333)
(0.10789645 0.03089199 -0.0021792698)
(0.11310513 0.030860375 -0.0022389232)
(0.11836229 0.030853407 -0.002340181)
(0.12363535 0.030769425 -0.0023956607)
(0.12896826 0.030636756 -0.0024975434)
(0.13433364 0.030572886 -0.0026205856)
(0.13979663 0.030265948 -0.002760737)
(-0.00027001097 -0.00097245325 -0.0012845843)
(-0.00083549181 -0.0012052642 -0.0015296052)
(-0.0015817242 -0.0018933148 -0.0017159315)
(-0.0023437935 -0.0023352014 -0.0018098262)
(-0.0032715264 -0.0028422591 -0.0018149421)
(-0.0042683397 -0.0033067926 -0.0017769513)
(-0.0054128784 -0.003760878 -0.0017010362)
(-0.006612965 -0.0041854576 -0.0016104071)
(-0.0079162699 -0.0045681561 -0.0015133328)
(-0.0092912481 -0.0049481949 -0.0013816939)
(-0.010729609 -0.0052616056 -0.0012764335)
(-0.012214206 -0.0055669955 -0.0011468704)
(-0.013754687 -0.005816359 -0.0010285229)
(-0.015322926 -0.0060448969 -0.00090371875)
(-0.016917399 -0.0062166587 -0.00079327607)
(-0.018530949 -0.0063668167 -0.00067455731)
(-0.020156024 -0.0064629248 -0.00056861845)
(-0.02177942 -0.0065321421 -0.00046165806)
(-0.023401367 -0.0065480675 -0.00036424209)
(-0.025011395 -0.0065410465 -0.00026590179)
(-0.026601747 -0.0064773498 -0.00017591639)
(-0.028167169 -0.0063920314 -8.798519e-05)
(-0.02970526 -0.0062538349 -5.3553239e-06)
(-0.031204327 -0.006092337 7.6529374e-05)
(-0.032662852 -0.0058807819 0.00015284244)
(-0.034073377 -0.0056459769 0.00022691505)
(-0.035433484 -0.0053641075 0.00029807395)
(-0.036733901 -0.0050597334 0.0003687439)
(-0.037971626 -0.0047091531 0.00043265741)
(-0.039142356 -0.0043384838 0.00049850528)
(-0.04023686 -0.0039242674 0.00055821543)
(-0.041252171 -0.0034865344 0.00061570791)
(-0.04218493 -0.0030124336 0.00067151106)
(-0.043022219 -0.0025132305 0.00072062997)
(-0.04376576 -0.0019831148 0.00076934866)
(-0.044405124 -0.001424914 0.00080786778)
(-0.044935122 -0.00083978716 0.00084437691)
(-0.045349923 -0.00022899863 0.000874316)
(-0.045645934 0.00040687601 0.00089712949)
(-0.04581349 0.0010680712 0.00091202545)
(-0.045851425 0.0017488733 0.000920535)
(-0.045750961 0.0024530703 0.00092072765)
(-0.045507009 0.0031753671 0.00090934569)
(-0.045119013 0.0039153074 0.00089313324)
(-0.044579346 0.0046714549 0.00086654233)
(-0.043885601 0.005440156 0.0008317082)
(-0.043036339 0.0062209213 0.00078934319)
(-0.04202689 0.0070104065 0.00073830488)
(-0.040857861 0.007807067 0.00068019181)
(-0.039526662 0.0086070117 0.00061506268)
(-0.038034162 0.0094101804 0.00054376134)
(-0.036379296 0.010210406 0.00046670493)
(-0.0345645 0.011009556 0.00038488013)
(-0.032589303 0.011800498 0.00029879064)
(-0.030457631 0.012585107 0.00020932672)
(-0.028170091 0.013356812 0.0001173332)
(-0.025731104 0.014117749 2.2860656e-05)
(-0.023142708 0.014860914 -7.227977e-05)
(-0.020409879 0.015589288 -0.00016868153)
(-0.017535034 0.016296449 -0.0002649304)
(-0.014524265 0.016984627 -0.00036085599)
(-0.011380432 0.017649411 -0.00045607547)
(-0.0081089868 0.018291152 -0.00054932767)
(-0.0047153401 0.018908389 -0.00064206542)
(-0.0012033737 0.019502433 -0.00073224871)
(0.0024256045 0.020068672 -0.00081868568)
(0.0061454083 0.020609401 -0.00090264953)
(0.0099819135 0.021117374 -0.00098370019)
(0.013917933 0.021601878 -0.0010683388)
(0.017948674 0.02205836 -0.0011451454)
(0.022067901 0.022491967 -0.0012210752)
(0.026270639 0.022891957 -0.00128979)
(0.030555521 0.023275004 -0.0013609659)
(0.03491676 0.023616147 -0.0014204011)
(0.039353181 0.023953389 -0.0014903599)
(0.043857449 0.024235209 -0.0015393533)
(0.048429151 0.024528775 -0.0016087678)
(0.053066029 0.024751408 -0.0016484965)
(0.057760538 0.025004031 -0.0017192441)
(0.062518206 0.025168656 -0.0017496965)
(0.067327546 0.025375895 -0.0018220518)
(0.072195361 0.025497968 -0.0018526915)
(0.077111928 0.025639948 -0.001913725)
(0.082082068 0.025723321 -0.0019603895)
(0.087105489 0.025818381 -0.0020202561)
(0.092164182 0.025851363 -0.0020623199)
(0.097276617 0.025890754 -0.0021260777)
(0.1024131 0.025885784 -0.0021778565)
(0.10761896 0.025842566 -0.002234571)
(0.1128226 0.025814227 -0.0023172257)
(0.11810681 0.025708904 -0.0023758449)
(0.12338132 0.02558568 -0.0024626235)
(0.12873728 0.025452044 -0.0025679376)
(0.13411725 0.025241 -0.0026802752)
(0.13960857 0.024994373 -0.0028234055)
(-0.00012340751 -0.00070646643 -0.0010859695)
(-0.00069450265 -0.00092944163 -0.0012428468)
(-0.0013178603 -0.0014069904 -0.001449706)
(-0.0021356638 -0.00179096 -0.0015051689)
(-0.0030453276 -0.0021822155 -0.001512756)
(-0.00409697 -0.0025940804 -0.0014616382)
(-0.0052282349 -0.0029541789 -0.0014142913)
(-0.0064549931 -0.0033046575 -0.0013437499)
(-0.0077842504 -0.0036380993 -0.0012414775)
(-0.009165307 -0.0039376159 -0.0011620147)
(-0.01062193 -0.0042109149 -0.0010615467)
(-0.012125781 -0.0044620786 -0.00096303404)
(-0.013684805 -0.0046790836 -0.00086390176)
(-0.015259241 -0.0048625982 -0.00077594576)
(-0.01688133 -0.0050204183 -0.0006766061)
(-0.018505435 -0.005142697 -0.00059116767)
(-0.020150642 -0.0052328162 -0.00050352377)
(-0.021785704 -0.0052894376 -0.0004249672)
(-0.023430803 -0.0053155485 -0.00034413976)
(-0.025048218 -0.0053067828 -0.00027188317)
(-0.02665964 -0.0052646544 -0.00020208689)
(-0.028238007 -0.0051949624 -0.00013453407)
(-0.029792057 -0.0050860126 -7.1286845e-05)
(-0.031302633 -0.0049550262 -1.0011614e-05)
(-0.032778056 -0.0047820983 4.5350797e-05)
(-0.034201292 -0.0045916972 0.00010372412)
(-0.035574026 -0.0043587901 0.00015423676)
(-0.036886658 -0.0041081159 0.00020568903)
(-0.038138749 -0.0038203211 0.00025311946)
(-0.039319022 -0.0035120466 0.0003006677)
(-0.040425853 -0.0031701795 0.00034123801)
(-0.041454848 -0.0028088068 0.00038526828)
(-0.042394629 -0.0024162264 0.00041994975)
(-0.043245914 -0.002003334 0.00045559678)
(-0.044000401 -0.0015622959 0.00048435768)
(-0.044649613 -0.0011011561 0.000510026)
(-0.04519198 -0.00061446116 0.00053120588)
(-0.045621781 -0.000109204 0.00054638081)
(-0.045923608 0.00041967538 0.00055460549)
(-0.046102597 0.00096318223 0.00055656101)
(-0.046148159 0.0015300448 0.0005523167)
(-0.046056489 0.0021118675 0.00053853942)
(-0.045821866 0.0027102105 0.00052128828)
(-0.045441325 0.003323132 0.00049449662)
(-0.044908734 0.0039485409 0.00045974333)
(-0.044223659 0.0045850737 0.00041974971)
(-0.043380054 0.0052316723 0.00037061746)
(-0.042378005 0.005885147 0.00031652973)
(-0.041214471 0.0065446517 0.00025515559)
(-0.039889305 0.0072071182 0.00018947058)
(-0.038401275 0.0078715108 0.00011732209)
(-0.036751513 0.0085340758 4.2590632e-05)
(-0.034939937 0.0091950804 -3.7640859e-05)
(-0.032968584 0.0098490516 -0.00011903277)
(-0.030839248 0.010497616 -0.0002042115)
(-0.028553936 0.01113514 -0.00028994658)
(-0.026116394 0.011762855 -0.00037758643)
(-0.023529048 0.012375779 -0.00046459856)
(-0.020796256 0.01297568 -0.0005529023)
(-0.017921662 0.013556991 -0.00063907816)
(-0.014909954 0.014122256 -0.00072560811)
(-0.011764791 0.014666752 -0.00080993633)