/*--------------------------------*- C++ -*----------------------------------*\
  =========                 |
  \\      /  F ield         | OpenFOAM: The Open Source CFD Toolbox
   \\    /   O peration     | Website:  https://openfoam.org
    \\  /    A nd           | Version:  6
     \\/     M anipulation  |
\*---------------------------------------------------------------------------*/
FoamFile
{
    version     2.0;
    format      ascii;
    class       pointVectorField;
    location    "1.58";
    object      u;
}
// * * * * * * * * * * * * * * * * * * * * * * * * * * * * * * * * * * * * * //

dimensions      [0 1 0 0 0 0 0];

internalField   nonuniform List<vector> 
625
(
(0 3.0344909e-19 0)
(0 2.7307985e-19 0)
(-1.5942497 -0.45401343 -0.13634844)
(-1.660859 -0.095023092 -0.1393075)
(0 3.9347022e-19 0)
(0 2.1354927e-18 0)
(-1.6708915 -0.060874132 -0.13982224)
(-1.604318 -0.41978215 -0.13706488)
(0 -4.6127181e-20 0)
(2.1208498e-19 -4.9263587e-19 0)
(0 1.0078298e-18 0)
(-1.6109426 -0.36418308 -0.13705673)
(-1.6274308 -0.27449091 -0.13781848)
(-1.6441843 -0.18480263 -0.13857733)
(-0.0035000717 -0.018814446 -0.017357846)
(-0.016796103 -0.037144419 -0.017561012)
(-0.038897108 -0.057335498 -0.018006348)
(-0.071562135 -0.077064982 -0.017907674)
(-0.10965794 -0.096312731 -0.018713904)
(-0.15706671 -0.11641695 -0.019727358)
(-0.20921571 -0.13597461 -0.021968741)
(-0.26816834 -0.15560034 -0.024448528)
(-0.33202402 -0.17592079 -0.028005741)
(-0.40062089 -0.19529395 -0.031872899)
(-0.47322306 -0.21553101 -0.036579497)
(-0.54946257 -0.23524624 -0.04190383)
(-0.62884945 -0.25508621 -0.047779034)
(-0.71070006 -0.27458093 -0.054228134)
(-0.79485038 -0.29397255 -0.061152548)
(-0.8806485 -0.31296707 -0.068544188)
(-0.96786948 -0.33174633 -0.076245363)
(-1.0561794 -0.3500416 -0.084373077)
(-1.1451854 -0.36815698 -0.092592694)
(-1.2346739 -0.38580556 -0.10117413)
(-1.3245904 -0.40318388 -0.10983818)
(-1.4144341 -0.42033958 -0.11857039)
(-1.504432 -0.43718406 -0.12749379)
(0.00024979119 0.015179054 0.021120437)
(-0.019825053 0.033142463 0.015529037)
(-0.045520248 0.049580239 0.015847677)
(-0.081018037 0.064279602 0.011995567)
(-0.12448972 0.074728099 0.0086457381)
(-0.1769684 0.084464329 0.0042230902)
(-0.23418094 0.089352154 -0.00033088778)
(-0.29867402 0.092554294 -0.0059805587)
(-0.36788377 0.092808869 -0.011697727)
(-0.44117148 0.090066419 -0.018338757)
(-0.51868177 0.085461188 -0.025316536)
(-0.59905043 0.078469816 -0.032812511)
(-0.68214345 0.069513885 -0.040724485)
(-0.76724718 0.058961899 -0.048975557)
(-0.8541012 0.04684476 -0.057587234)
(-0.94211977 0.033561431 -0.066375692)
(-1.0311441 0.0192246 -0.075427745)
(-1.1207289 0.0040774571 -0.084508154)
(-1.2107624 -0.01168503 -0.093779141)
(-1.3008888 -0.027956353 -0.10292887)
(-1.3911741 -0.044508934 -0.11221102)
(-1.4812075 -0.061267869 -0.1212937)
(-1.5712102 -0.078175894 -0.1303835)
(0 2.7552041e-19 0)
(-3.7651166e-18 -8.1012631e-19 0)
(0 2.0532422e-18 0)
(-0.0055100927 0.010142056 -0.014706709)
(-0.022878992 0.043306576 -0.01851099)
(-0.047731389 0.052015128 -0.015780717)
(-0.083752874 0.072186004 -0.016624714)
(-0.12850387 0.085492685 -0.018825089)
(-0.18017369 0.096079813 -0.019287537)
(-0.23851646 0.10373052 -0.022604244)
(-0.30377558 0.10948329 -0.025382846)
(-0.37290427 0.11126903 -0.029250045)
(-0.44774342 0.11146546 -0.033758241)
(-0.52513252 0.10828927 -0.038768918)
(-0.60656835 0.10350942 -0.044488416)
(-0.68992102 0.09617994 -0.050658993)
(-0.77569662 0.087243607 -0.057366154)
(-0.8628898 0.076519255 -0.064494257)
(-0.95132067 0.064422548 -0.072033187)
(-1.0406017 0.051077525 -0.079870192)
(-1.1304292 0.036727528 -0.08801106)
(-1.2205809 0.02156702 -0.096352001)
(-1.3108494 0.0057280718 -0.10486579)
(-1.4010946 -0.010535375 -0.11351493)
(-1.491234 -0.027167526 -0.12225599)
(-1.5811529 -0.044006297 -0.13104167)
(-1.6542012 -0.15063728 -0.13911683)
(-1.6374144 -0.24028742 -0.13844728)
(-1.6210142 -0.32991596 -0.13779417)
(-1.5145153 -0.40292692 -0.12812588)
(-1.4244102 -0.38606084 -0.11908111)
(-1.3343668 -0.36895619 -0.10999184)
(-1.2442714 -0.35175424 -0.10078031)
(-1.1544118 -0.33432208 -0.091588184)
(-1.0649652 -0.31671634 -0.082406906)
(-0.97616693 -0.29894306 -0.073304132)
(-0.88834345 -0.28099257 -0.064355824)
(-0.80182308 -0.26295888 -0.055596859)
(-0.71694874 -0.24482114 -0.047104639)
(-0.63422547 -0.22666984 -0.038958048)
(-0.55402731 -0.20852757 -0.031187353)
(-0.47679212 -0.19061546 -0.023756246)
(-0.4031829 -0.17250089 -0.017082152)
(-0.33429349 -0.1546561 -0.010781907)
(-0.26908493 -0.13708339 -0.0049353552)
(-0.20963681 -0.12015224 0.00041177746)
(-0.15614671 -0.10218503 0.0046575058)
(-0.1095848 -0.085306465 0.0091192414)
(-0.069855511 -0.067793344 0.011895781)
(-0.036861947 -0.051456953 0.015172734)
(-0.015311812 -0.031478971 0.017103866)
(-0.0070287413 -0.017261301 0.012727937)
(0 -4.919643e-19 0)
(0 -5.1301578e-19 -1.0581463e-18)
(0 -1.5119788e-18 0)
(0 8.8895414e-19 0)
(0 -9.8361069e-20 3.1362759e-19)
(0 6.7707897e-19 0)
(-1.6634095 -0.086417591 -0.13940879)
(-1.665918 -0.077881413 -0.13956188)
(-1.6683567 -0.069348767 -0.13969949)
(-1.5967502 -0.44546286 -0.13652689)
(-1.5992887 -0.43694468 -0.13664841)
(-1.6017839 -0.42839085 -0.13688994)
(0.0039478991 -0.010086135 -0.011426356)
(-0.010683578 -0.018861987 -0.0086821334)
(-0.033920314 -0.029194176 -0.010165771)
(-0.067778775 -0.039986462 -0.010420497)
(-0.10783424 -0.05162652 -0.011942763)
(-0.15697893 -0.064533283 -0.014055046)
(-0.2111145 -0.077473158 -0.016638097)
(-0.2720029 -0.091923081 -0.020005797)
(-0.33743143 -0.10677473 -0.023959009)
(-0.40791401 -0.12232272 -0.028630178)
(-0.48214705 -0.13879471 -0.0338815)
(-0.55991549 -0.1553935 -0.039731693)
(-0.64051505 -0.17263437 -0.046105512)
(-0.72357765 -0.19006809 -0.052966783)
(-0.80865168 -0.20774132 -0.060307476)
(-0.89525981 -0.22547635 -0.067987385)
(-0.98318767 -0.24323269 -0.076045786)
(-1.0719333 -0.26090706 -0.084357119)
(-1.1613597 -0.27854485 -0.092848104)
(-1.2511537 -0.29591944 -0.10161301)
(-1.341196 -0.31321809 -0.11032913)
(-1.4311562 -0.33033076 -0.11927023)
(-1.5212013 -0.34730327 -0.12817379)
(0.0064971765 -0.0014949448 -8.6306049e-05)
(-0.011068811 -0.00078395579 -0.00012047315)
(-0.034578365 -0.0031234341 -0.001080959)
(-0.068918667 -0.005455527 -0.003216896)
(-0.11109448 -0.009225233 -0.0053337474)
(-0.16067084 -0.014690888 -0.0080820369)
(-0.21648923 -0.021776469 -0.011436437)
(-0.27874233 -0.030217114 -0.01558573)
(-0.34559814 -0.040158229 -0.020275474)
(-0.41740628 -0.051374083 -0.025466872)
(-0.49271205 -0.063911629 -0.031324545)
(-0.57156719 -0.077379528 -0.037692512)
(-0.65315925 -0.091894588 -0.04457677)
(-0.73708344 -0.1070914 -0.051899147)
(-0.82288066 -0.12292458 -0.059641701)
(-0.9101396 -0.1392145 -0.067681008)
(-0.99853684 -0.15584993 -0.076050798)
(-1.0876807 -0.17270813 -0.084579262)
(-1.1774498 -0.18970762 -0.093334094)
(-1.2674005 -0.20671203 -0.10214334)
(-1.3576187 -0.223766 -0.11107483)
(-1.4476701 -0.24076312 -0.11997979)
(-1.5377831 -0.2577008 -0.12891544)
(0.0062651964 0.0069537435 0.0075836455)
(-0.013119176 0.014326418 0.0072715665)
(-0.036212934 0.021158598 0.0062093166)
(-0.072561889 0.027020971 0.0037425354)
(-0.11504697 0.031428782 0.0013386347)
(-0.16580146 0.032256825 -0.0020941252)
(-0.22326375 0.032321114 -0.0062589845)
(-0.28635574 0.029355537 -0.010919909)
(-0.35450012 0.024595444 -0.0160395)
(-0.42743562 0.017889673 -0.021990062)
(-0.50385574 0.0092440132 -0.028339099)
(-0.5838306 -0.0008523952 -0.035286549)
(-0.66626414 -0.012458863 -0.04263349)
(-0.75102576 -0.025257809 -0.0504144)
(-0.83747282 -0.039081209 -0.058542492)
(-0.92532075 -0.05379337 -0.06695655)
(-1.014137 -0.069129453 -0.075622084)
(-1.1037005 -0.085036364 -0.084455468)
(-1.1936519 -0.10128613 -0.093401566)
(-1.283911 -0.11780506 -0.1024775)
(-1.374157 -0.13449462 -0.11147156)
(-1.4643718 -0.15124508 -0.12057333)
(-1.5544448 -0.16799603 -0.12957282)
(0 -3.1172247e-19 0)
(0 5.1503298e-19 1.0803032e-18)
(0 1.1221173e-18 0)
(-5.6225733e-19 1.1226652e-20 0)
(2.3484204e-19 -3.4796412e-19 -1.7331025e-20)
(-1.4799601e-18 -1.3309825e-18 0)
(0 5.0629821e-19 0)
(0 1.3606891e-18 -3.618834e-20)
(0 1.4984274e-18 0)
(-0.0075558181 0.0066470129 0.0091574895)
(-0.010065713 0.0090222121 0.0019242145)
(-0.0093205556 0.0065406129 -0.0045684027)
(-0.029786307 0.037929785 0.0074014886)
(-0.029640899 0.038720602 -4.1569991e-05)
(-0.029001611 0.037478592 -0.0093382054)
(-0.050924959 0.048882079 0.0073782993)
(-0.053330867 0.048285042 3.0548642e-05)
(-0.053807992 0.052846621 -0.0090054237)
(-0.088035718 0.065850049 0.0040954566)
(-0.090281094 0.068840807 -0.0026173496)
(-0.088655334 0.06879848 -0.0098633265)
(-0.13114689 0.077405456 0.0016282796)
(-0.13246101 0.078351354 -0.0041666911)
(-0.13296619 0.082372118 -0.012023768)
(-0.18213299 0.086575448 -0.0017985206)
(-0.18467964 0.089723661 -0.0081220398)
(-0.18409638 0.092446226 -0.013860999)
(-0.23995619 0.092759604 -0.006371125)
(-0.24180637 0.096056893 -0.010705396)
(-0.24213563 0.099947087 -0.017420101)
(-0.30407948 0.096697151 -0.010793369)
(-0.30569202 0.099789237 -0.01534432)
(-0.30646228 0.10440959 -0.020651644)
(-0.37237466 0.096735244 -0.016334669)
(-0.37464185 0.1012775 -0.020176165)
(-0.37510609 0.10622479 -0.025164666)
(-0.44609131 0.095318997 -0.022170673)
(-0.44804026 0.10013272 -0.02558708)
(-0.44916212 0.10550746 -0.029946887)
(-0.52286854 0.090912714 -0.028709037)
(-0.5251131 0.096176536 -0.0316971)
(-0.52623904 0.10219501 -0.035564413)
(-0.60330346 0.084528013 -0.035758278)
(-0.60546785 0.090476206 -0.038248529)
(-0.60690796 0.096756557 -0.041601599)
(-0.68597662 0.076082935 -0.043191199)
(-0.68830978 0.082372761 -0.045307635)
(-0.68995772 0.089199267 -0.048257744)
(-0.77104883 0.065987391 -0.051076485)
(-0.77336716 0.072766961 -0.052868509)
(-0.77515338 0.0798558 -0.055306519)
(-0.85758631 0.054277498 -0.059308084)
(-0.85997959 0.061400953 -0.060722418)
(-0.8619972 0.068880733 -0.062788811)
(-0.94550449 0.041351465 -0.067775059)
(-0.947958 0.048831589 -0.0689493)
(-0.95005309 0.056527685 -0.070646673)
(-1.034325 0.027301962 -0.076520917)
(-1.0367757 0.035036176 -0.077433756)
(-1.0390134 0.042988533 -0.078769904)
(-1.1237692 0.012378004 -0.085384473)
(-1.1262702 0.020359658 -0.086083593)
(-1.1285844 0.028483411 -0.087153026)
(-1.213635 -0.0032156021 -0.094391244)
(-1.2161351 0.0049440328 -0.094923405)
(-1.2185152 0.013204639 -0.095715644)
(-1.3036834 -0.019375444 -0.10341991)
(-1.3061989 -0.011079379 -0.10382396)
(-1.3086159 -0.0027037106 -0.10440353)
(-1.3937676 -0.035864861 -0.11251899)
(-1.3962603 -0.02746806 -0.11278736)
(-1.3987228 -0.019034517 -0.11319102)
(-1.4837864 -0.052626936 -0.12151496)
(-1.4863304 -0.044145811 -0.12173232)
(-1.4888084 -0.035655397 -0.12203178)
(-1.573714 -0.069529462 -0.13052552)
(-1.5762115 -0.060995692 -0.13068718)
(-1.5786894 -0.052522652 -0.13089458)
(-1.6134501 -0.35563168 -0.13724294)
(-1.6159835 -0.34708081 -0.13739825)
(-1.6184775 -0.33851908 -0.13761573)
(-1.6299323 -0.26591446 -0.13798441)
(-1.6324659 -0.25738541 -0.13809727)
(-1.6348911 -0.24884161 -0.13829203)
(-1.6467692 -0.17618732 -0.13869796)
(-1.6492729 -0.16765346 -0.13882392)
(-1.6517552 -0.15909695 -0.13897741)
(-0.012685929 -0.015856037 -0.0082439114)
(-0.012082407 -0.017113258 -0.0022639592)
(-0.013771712 -0.015275502 0.0051892028)
(-0.024376429 -0.035498197 -0.0082224329)
(-0.025204719 -0.035369743 0.00079029273)
(-0.023306506 -0.033324248 0.009720653)
(-0.046670919 -0.058265855 -0.0090582652)
(-0.046470083 -0.056099825 -0.0019000152)
(-0.045941079 -0.054938298 0.008565061)
(-0.077667241 -0.075143427 -0.0093896206)
(-0.078687918 -0.07359936 -0.0027573133)
(-0.076966975 -0.071240335 0.0061276218)
(-0.11563959 -0.096230254 -0.011352858)
(-0.11652404 -0.093525458 -0.003943113)
(-0.11512077 -0.090578434 0.0033235265)
(-0.16232775 -0.11449302 -0.01268249)
(-0.16282198 -0.1105452 -0.0076927312)
(-0.16196548 -0.10772344 -3.5566771e-05)
(-0.21410927 -0.13357531 -0.01551668)
(-0.21487197 -0.1303127 -0.010249887)
(-0.21421906 -0.12608109 -0.0039858653)
(-0.27275777 -0.1530168 -0.018797757)
(-0.27359746 -0.14825098 -0.014286195)
(-0.2730829 -0.14377874 -0.0085597578)
(-0.33573419 -0.17209166 -0.02302454)
(-0.33733507 -0.16702996 -0.018363753)
(-0.33669984 -0.16191676 -0.014177372)
(-0.40457226 -0.19135882 -0.027347513)
(-0.40563962 -0.18545938 -0.024483772)
(-0.40588424 -0.17999264 -0.019715312)
(-0.47681799 -0.21058546 -0.032749757)
(-0.47824442 -0.2045767 -0.029553411)
(-0.4783787 -0.19840854 -0.026064313)
(-0.55297822 -0.22996238 -0.03852055)
(-0.55440361 -0.22314388 -0.036116774)
(-0.55502818 -0.21679027 -0.033055377)
(-0.63205278 -0.24900807 -0.045023113)
(-0.6337822 -0.24204647 -0.042878531)
(-0.63455623 -0.23512903 -0.040454209)
(-0.71388294 -0.2681593 -0.051891208)
(-0.71566284 -0.26069542 -0.050264806)
(-0.71676539 -0.25347359 -0.048262978)
(-0.79781677 -0.28697925 -0.059345688)
(-0.79982218 -0.27926553 -0.057981844)
(-0.80111176 -0.27175288 -0.056476664)
(-0.88356191 -0.30563168 -0.067066932)
(-0.88566188 -0.29766291 -0.066106588)
(-0.88719419 -0.28987735 -0.064955306)
(-0.970689 -0.32402226 -0.075239124)
(-0.9729253 -0.31584548 -0.074491328)
(-0.97464106 -0.30786568 -0.073706902)
(-1.0588976 -0.34210067 -0.083577594)
(-1.0612023 -0.33380523 -0.083109121)
(-1.0631007 -0.32564947 -0.082612946)
(-1.1478197 -0.35994154 -0.092184724)
(-1.1502538 -0.35150074 -0.091929351)
(-1.1523102 -0.34321909 -0.091658109)
(-1.237318 -0.37742859 -0.10098597)
(-1.2397825 -0.36899671 -0.10078554)
(-1.2419511 -0.36060032 -0.10074179)
(-1.3271318 -0.39470663 -0.10977126)
(-1.3296523 -0.38617325 -0.10978036)
(-1.3319112 -0.37772859 -0.10987248)
(-1.4170034 -0.41177971 -0.11863929)
(-1.4194613 -0.40326777 -0.11877584)
(-1.4218658 -0.39475945 -0.11892878)
(-1.5069896 -0.42862406 -0.12764068)
(-1.5094841 -0.42007413 -0.12781068)
(-1.51197 -0.41156239 -0.12795271)
(0.0023579662 -0.0048828262 0.0079123125)
(-0.01010012 -0.019639622 0.0079609532)
(-0.032203209 -0.021610679 0.0051970282)
(-0.067553834 -0.032115804 0.0037060443)
(-0.10758511 -0.041255303 0.0013332437)
(-0.15728114 -0.050607388 -0.0025487167)
(-0.21226005 -0.062098677 -0.0062877888)
(-0.27383459 -0.073344328 -0.011032615)
(-0.34017304 -0.086405261 -0.016138332)
(-0.4114437 -0.099529837 -0.022056241)
(-0.48638568 -0.11403785 -0.028176353)
(-0.56508045 -0.12865121 -0.035206666)
(-0.64647662 -0.14432389 -0.042437389)
(-0.73027465 -0.16026555 -0.050167295)
(-0.81607406 -0.17668334 -0.058267965)
(-0.90331867 -0.1934084 -0.066619323)
(-0.99174785 -0.21033688 -0.075247335)
(-1.0809922 -0.22742206 -0.084028894)
(-1.1707649 -0.24457125 -0.09294247)
(-1.2608479 -0.26174125 -0.10191457)
(-1.3510688 -0.27890061 -0.11093619)
(-1.4411614 -0.29596035 -0.11990831)
(-1.5312896 -0.31302768 -0.12889987)
(0.005827353 -0.002152874 -0.0012179472)
(-0.010041729 7.0029273e-05 1.6851108e-05)
(-0.036004742 0.0033595554 -0.0021999537)
(-0.071016638 0.0017263949 -0.0026676883)
(-0.1121046 0.00017891574 -0.0046078569)
(-0.16358288 -0.0012642045 -0.0085121292)
(-0.219065 -0.0075609387 -0.011077071)
(-0.28241062 -0.012600139 -0.01571253)
(-0.34974467 -0.020863993 -0.020270453)
(-0.42228739 -0.029589344 -0.025799879)
(-0.4981877 -0.040354348 -0.031561724)
(-0.57801147 -0.051745549 -0.038192023)
(-0.66006412 -0.064694102 -0.044996827)
(-0.74474011 -0.078254251 -0.052501358)
(-0.83102882 -0.092855022 -0.060211399)
(-0.91879998 -0.1079695 -0.068347563)
(-1.0075836 -0.1237276 -0.076718632)
(-1.0970975 -0.13984942 -0.085281204)
(-1.1870624 -0.15630435 -0.094041583)
(-1.2772487 -0.17297912 -0.1028576)
(-1.367542 -0.18975481 -0.11176365)
(-1.45763 -0.20662019 -0.12066578)
(-1.5478525 -0.22356048 -0.12956771)
(0.0056372986 0.0076550966 -0.0074851304)
(-0.015495056 0.015060145 -0.0081203742)
(-0.039813169 0.029218042 -0.011484372)
(-0.074136862 0.032074198 -0.0099899417)
(-0.11742437 0.041410088 -0.013606442)
(-0.16940853 0.044048656 -0.015125188)
(-0.22604664 0.046023418 -0.017950764)
(-0.2908505 0.046008469 -0.02177538)
(-0.35899793 0.04325093 -0.025846191)
(-0.43292873 0.038802774 -0.03064922)
(-0.50991921 0.032375 -0.036079524)
(-0.59052079 0.024155798 -0.042009796)
(-0.67359579 0.014413524 -0.048535367)
(-0.75892156 0.0031613631 -0.055463629)
(-0.8459083 -0.0092420943 -0.0628395)
(-0.93418222 -0.022741378 -0.07057658)
(-1.0234053 -0.037125639 -0.078609121)
(-1.1132222 -0.05221798 -0.086886342)
(-1.2034476 -0.067896723 -0.095386201)
(-1.2938089 -0.083994834 -0.10397758)
(-1.3841691 -0.10041841 -0.11274685)
(-1.4744249 -0.11704327 -0.12148466)
(-1.5644714 -0.13379153 -0.13037558)
(-0.0018521745 -0.0043904961 -0.0048956394)
(-0.0019066833 -0.0051257461 -0.0012071932)
(-0.0036387261 -0.0041196945 0.0033145008)
(-0.017414835 -0.019625361 -0.0040543958)
(-0.019566451 -0.018860254 0.00054451)
(-0.017127965 -0.017994332 0.0059292232)
(-0.041142341 -0.028089747 -0.0052613023)
(-0.039929174 -0.026752999 -0.00082683929)
(-0.04007863 -0.025697257 0.0026552099)
(-0.073241752 -0.03980023 -0.0060474988)
(-0.075147284 -0.038155675 -0.0017774153)
(-0.073962772 -0.034960541 0.0012230139)
(-0.11401575 -0.050870049 -0.007385542)
(-0.11432422 -0.048073205 -0.0045332147)
(-0.11393758 -0.045367874 -0.00071469724)
(-0.16193515 -0.062628794 -0.010236059)
(-0.16312614 -0.059912025 -0.0069907368)
(-0.16227435 -0.05622938 -0.0044146835)
(-0.21598588 -0.075433546 -0.013044845)
(-0.21675774 -0.072034165 -0.010322247)
(-0.21668529 -0.067405007 -0.0078794569)
(-0.27621557 -0.089221281 -0.016762982)
(-0.27770503 -0.084510336 -0.014533227)
(-0.27746148 -0.079933427 -0.012450425)
(-0.34181511 -0.10295562 -0.02105767)
(-0.34290812 -0.098468376 -0.019255603)
(-0.34302313 -0.093066517 -0.017219988)
(-0.41185592 -0.11820676 -0.026174218)
(-0.41310436 -0.11293463 -0.024460487)
(-0.41367351 -0.10686932 -0.022968059)
(-0.48579068 -0.13380982 -0.031693326)
(-0.48734485 -0.127858 -0.030247229)
(-0.48789588 -0.12156714 -0.029040985)
(-0.56337858 -0.14983457 -0.037886135)
(-0.56499738 -0.14354264 -0.036818577)
(-0.56593733 -0.13683762 -0.035731242)
(-0.64379806 -0.16653678 -0.044564079)
(-0.6456188 -0.15974961 -0.043618166)
(-0.646735 -0.15259192 -0.042908473)
(-0.72675139 -0.1834465 -0.051713663)
(-0.72865296 -0.17628051 -0.051104732)
(-0.73004125 -0.16883514 -0.050480181)
(-0.81166719 -0.20065024 -0.059319101)
(-0.81375591 -0.19313388 -0.058832231)
(-0.81529668 -0.18540559 -0.058453362)
(-0.89823646 -0.21799372 -0.067253879)
(-0.90037615 -0.21023019 -0.066990779)
(-0.9021432 -0.20224721 -0.066720542)
(-0.98600552 -0.23542336 -0.075527084)
(-0.98828044 -0.22740767 -0.075373144)
(-0.99019584 -0.21924809 -0.075262861)
(-1.074728 -0.25284422 -0.08401221)
(-1.0770608 -0.24466681 -0.084007229)
(-1.0791122 -0.23634155 -0.08397631)
(-1.1640404 -0.27026819 -0.092698808)
(-1.1664581 -0.26190354 -0.09277317)
(-1.1686691 -0.25349751 -0.09284962)
(-1.2538015 -0.28744701 -0.10153841)
(-1.2562916 -0.27909071 -0.10168461)
(-1.2585228 -0.27058265 -0.1017736)
(-1.3437538 -0.30467663 -0.11039142)
(-1.3462827 -0.29631579 -0.11061141)
(-1.3486081 -0.28770607 -0.1107767)
(-1.4337541 -0.32173341 -0.11939936)
(-1.4362015 -0.31322544 -0.11958873)
(-1.4386441 -0.30462536 -0.11974367)
(-1.523721 -0.3387399 -0.12834675)
(-1.526233 -0.33020849 -0.12851301)
(-1.5287358 -0.32164511 -0.12869538)
(0.0019335184 -0.0010400748 0.00067176813)
(0.00050552327 -0.0019086264 0.00071853328)
(-0.00085863868 -0.0012545436 0.00052010699)
(-0.016719364 -0.0011665503 0.001344361)
(-0.018126058 -0.0013094544 0.0013643507)
(-0.015499439 -0.00040502274 0.0011796001)
(-0.040980378 -0.0030237152 -0.00013907427)
(-0.042124236 -0.0017050272 -0.0015883009)
(-0.041479071 -6.3323553e-05 -0.0010429843)
(-0.07455925 -0.0039762635 -0.0015468536)
(-0.077689791 -0.0021965506 -0.0025481432)
(-0.07582687 0.00083316577 -0.0019269713)
(-0.11660028 -0.0082484034 -0.0043157147)
(-0.11840496 -0.0058346222 -0.0055365633)
(-0.11680888 -0.0035612259 -0.0039699682)
(-0.1656866 -0.012741735 -0.006937922)
(-0.16810437 -0.0093146941 -0.007516754)
(-0.16681477 -0.0057635093 -0.0072709427)
(-0.22131963 -0.019422978 -0.010237671)
(-0.22329532 -0.01569523 -0.011618808)
(-0.22256521 -0.011382086 -0.010575243)
(-0.28316417 -0.026965622 -0.014671131)
(-0.28547026 -0.022426582 -0.015510529)
(-0.2845803 -0.01829173 -0.014666045)
(-0.34973832 -0.036418308 -0.019357208)
(-0.35186137 -0.03173499 -0.019989497)
(-0.35166628 -0.026255818 -0.019543759)
(-0.42119985 -0.047186515 -0.024636508)
(-0.42356162 -0.041367159 -0.025500686)
(-0.4234234 -0.036011024 -0.025019818)
(-0.49647565 -0.058852277 -0.030613168)
(-0.49867279 -0.053007873 -0.031398321)
(-0.49903621 -0.046727776 -0.03082357)
(-0.57511404 -0.071884008 -0.037085385)
(-0.57747452 -0.065346045 -0.037780221)
(-0.57804415 -0.058908052 -0.037431104)
(-0.65658683 -0.08578707 -0.044077918)
(-0.65892031 -0.079000614 -0.044740497)
(-0.65984456 -0.07190538 -0.044389205)
(-0.74034179 -0.10048901 -0.051497502)
(-0.74279115 -0.093178929 -0.052110907)
(-0.74391379 -0.085938476 -0.051840521)
(-0.82605162 -0.11587098 -0.059354996)
(-0.8284805 -0.10835301 -0.059870497)
(-0.82990422 -0.1006969 -0.059681854)
(-0.91317887 -0.13177936 -0.067469665)
(-0.91566513 -0.12392465 -0.06797637)
(-0.91729096 -0.11608179 -0.067831934)
(-1.001475 -0.14809101 -0.075941461)
(-1.0039695 -0.14004487 -0.076352181)
(-1.0058135 -0.1319449 -0.076276313)
(-1.0905446 -0.16468673 -0.084537746)
(-1.0930679 -0.1564228 -0.084921127)
(-1.0950698 -0.14823411 -0.084892201)
(-1.1801917 -0.18146652 -0.093362357)
(-1.1827105 -0.17311749 -0.093678555)
(-1.1848776 -0.16474473 -0.093712411)
(-1.2701216 -0.19836172 -0.1022218)
(-1.2726628 -0.18983486 -0.10251285)
(-1.2749087 -0.181479 -0.10256275)
(-1.3602633 -0.21536524 -0.1112275)
(-1.362696 -0.20665935 -0.11134166)
(-1.3651268 -0.19833138 -0.11154958)
(-1.4502312 -0.23217942 -0.12010775)
(-1.4527229 -0.22371031 -0.12034495)
(-1.4551796 -0.21512867 -0.12044091)
(-1.5403195 -0.24914682 -0.12907685)
(-1.5428358 -0.24059618 -0.12925668)
(-1.5453096 -0.2321119 -0.12941975)
(0.00041064318 0.0051350043 0.0032632117)
(0.00061522727 0.004754895 0.00042702258)
(0.00051380969 0.004577938 -0.003145729)
(-0.021152147 0.013603277 0.0036440881)
(-0.022798711 0.011920552 -0.00037199744)
(-0.020791666 0.014049798 -0.0041455758)
(-0.043758397 0.021970568 0.002363584)
(-0.044961152 0.025242618 -0.0017381691)
(-0.045392013 0.026430207 -0.0061397034)
(-0.079935859 0.028716622 0.00038187268)
(-0.080806077 0.028761907 -0.0030435356)
(-0.080752783 0.031234633 -0.0063151423)
(-0.12154732 0.03233255 -0.0019784464)
(-0.12282487 0.035590785 -0.0052509387)
(-0.12276889 0.037856933 -0.008623839)
(-0.17227123 0.034942523 -0.0047790617)
(-0.17363614 0.037445128 -0.007944414)
(-0.17373967 0.04090408 -0.010967065)
(-0.22906904 0.035063182 -0.0087921876)
(-0.22989908 0.038585253 -0.011873679)
(-0.23069516 0.041875622 -0.014319116)
(-0.29170594 0.0326643 -0.013165824)
(-0.29332644 0.036757725 -0.01540951)
(-0.29393529 0.041184369 -0.017971931)
(-0.35981034 0.028676109 -0.017909151)
(-0.36097969 0.033379269 -0.020486817)
(-0.3620871 0.037935372 -0.02277404)
(-0.43225347 0.022583743 -0.023728904)
(-0.43382463 0.027618514 -0.025831454)
(-0.43494147 0.032978987 -0.027676833)
(-0.50844654 0.014552805 -0.029804138)
(-0.51004734 0.020351082 -0.031639525)
(-0.51158005 0.026013017 -0.033467406)
(-0.58812859 0.0050313376 -0.03653625)
(-0.5899062 0.01117808 -0.038207849)
(-0.59144765 0.017342838 -0.039721646)
(-0.67033542 -0.0060511949 -0.043695685)
(-0.67216476 0.00064724594 -0.045130628)
(-0.67406633 0.0072228674 -0.046456527)
(-0.75487592 -0.018333355 -0.05131791)
(-0.75687795 -0.011308535 -0.052542741)
(-0.75881091 -0.004355654 -0.053715801)
(-0.84114436 -0.031751397 -0.059286238)
(-0.84318655 -0.024357016 -0.060347357)
(-0.84535856 -0.017069204 -0.061326777)
(-0.92878105 -0.046063238 -0.067586504)
(-0.93096026 -0.038400269 -0.06847945)
(-0.93319717 -0.030781823 -0.069295267)
(-1.0174546 -0.061115459 -0.076144218)
(-1.0196798 -0.05319055 -0.076863103)
(-1.0220535 -0.045349648 -0.077561745)
(-1.1068233 -0.076760082 -0.084872757)
(-1.1091584 -0.068658305 -0.085490651)
(-1.1115647 -0.060597612 -0.086034836)
(-1.196674 -0.092829989 -0.093771202)
(-1.1990115 -0.084584543 -0.094243903)
(-1.2014961 -0.076358128 -0.094696671)
(-1.2867452 -0.1092316 -0.10275666)
(-1.2892055 -0.10087849 -0.1031181)
(-1.2916766 -0.092528144 -0.10346978)
(-1.3768962 -0.12584266 -0.11171911)
(-1.379312 -0.1174269 -0.1120481)
(-1.3818135 -0.10900641 -0.11233463)
(-1.4670199 -0.14257024 -0.12077941)
(-1.4695227 -0.13410775 -0.12102193)
(-1.4720321 -0.12563797 -0.12124973)
(-1.5569969 -0.15936155 -0.12975814)
(-1.5594823 -0.15084161 -0.12994434)
(-1.5619906 -0.14228928 -0.13011353)
)
;

boundaryField
{
    free
    {
        type            calculated;
    }
    fixed
    {
        type            calculated;
    }
    freeTop
    {
        type            calculated;
    }
}


// ************************************************************************* //
