/*--------------------------------*- C++ -*----------------------------------*\
  =========                 |
  \\      /  F ield         | OpenFOAM: The Open Source CFD Toolbox
   \\    /   O peration     | Website:  https://openfoam.org
    \\  /    A nd           | Version:  6
     \\/     M anipulation  |
\*---------------------------------------------------------------------------*/
FoamFile
{
    version     2.0;
    format      ascii;
    class       pointScalarField;
    location    "0.96";
    object      E;
}
// * * * * * * * * * * * * * * * * * * * * * * * * * * * * * * * * * * * * * //

dimensions      [1 -1 -2 0 0 0 0];

internalField   nonuniform List<scalar> 
625
(
63943.843
69789.597
-896804.43
-446346.05
59992.851
68035.598
-681957.16
-1379472.2
19747.528
9420.0221
43769.023
-494511.49
-509831.63
-357029.71
86891.254
75682.116
71189.197
68099.189
62814.717
62244.01
59460.493
57023.507
52385.742
44478.317
32322.347
15441.004
-4249.0019
-25830.551
-46571.929
-65355.747
-77732.498
-85847.402
-82902.268
-77416.352
-65073.076
-47917.81
-18376.456
72199.241
47866.368
46871.26
37817.73
27130.164
18464.207
9938.3579
3160.8354
-952.14662
-3094.1947
-784.7477
4074.7572
13567.783
26198.071
42128.293
58375.477
75278.767
87515.356
96299.935
96802.709
85891.187
70744.518
36866.235
17407.372
5908.3661
35834.671
115443.86
108257.96
66053.117
68703.459
57989.959
32244.59
35493.808
23640.831
23120.351
23023.81
24657.577
30602.345
34516.794
39861.145
43564.996
46922.307
50185.148
52443.169
52934.571
51697.365
44834.707
34153.016
14867.864
-988648.43
-1055164.4
-1005335.4
-13496.998
-32425.01
-42659.046
-53506.892
-60790.999
-61991.661
-60741.507
-52594.085
-41847.127
-27090.706
-11725.149
4417.5551
18192.018
30627.04
39481.62
44786.437
50304.579
52462.375
59146.109
62317.305
71261.821
72887.948
85039.814
55148.275
54444.543
55376.149
52929.067
53663.423
56709.824
-506466.11
-506751.85
-510562.19
-1014466.2
-1015970
-1020964.7
37729.755
31529.217
31077.847
25892.227
19467.781
12488.312
5902.0448
-882.64177
-4423.1487
-7002.747
-5985.1626
-2463.3995
4255.428
13312.73
23891.169
35359.331
46665
55843.684
64195.781
63170.007
62608.044
52387.59
24630.766
12232.012
6292.5298
7509.2951
3166.372
3496.0229
3928.5419
3498.038
6241.7114
6643.2368
8532.5992
10322.78
11863.007
14328.345
17399.865
21450.12
25828.274
30564.634
32514.804
34456.941
28281.008
26216.944
12501.991
536.02681
28642.326
27390.276
30923.83
29522.334
30973.691
31558.706
30332.152
29957.823
26685.371
22526.491
14191.214
3561.4532
-10187.274
-25538.562
-41688.783
-55945.315
-68247.543
-74352.934
-77887.396
-70987.532
-61407.952
-44366.126
-14041.549
13059.693
13325.861
12436.536
5162.0218
4547.9814
6897.0974
19871.972
21874.846
22458.509
88270.927
87966.461
96627.745
92542.108
89577.065
86640.311
62382.459
58431.697
61083.4
54402.82
58649.292
56894.581
43000.256
40700.164
44039.161
31052.873
33649.321
33240.825
24373.98
24997.254
30705.632
17964.065
16234.296
17509.028
12782.951
15111.07
14846.515
12710.622
12563.805
13254.857
14122.636
15001.081
15280.612
19905.481
19199.847
20673.955
27589.356
24969.87
28018.461
38247.285
32518.762
37090.969
50280.754
40515.268
47386.134
63085.569
49294.098
57977.007
74884.369
57974.78
68105.08
84628.845
65892.195
76453.664
89401.067
70704.792
80780.893
87330.491
70421.802
79328.627
77952.794
64357.555
71743.936
59885.508
54976.069
58916.732
30545.983
26228.578
32205.668
-664556.84
-663918.46
-664047.85
-607481.21
-669444.78
-671910.38
-693808.14
-641067.36
-641650.63
84358.525
77306.884
74597.223
80507.093
76318.002
77300.704
75151.631
68281.313
66205.59
68875.725
63190.413
63093.191
63777.353
60992.123
58498.668
63120.805
55670.138
55056.749
60182.406
56011.853
54429.383
58829.789
52846.28
50846.982
52382.383
49092.928
44777.939
43412.861
41567.531
37745.209
33189.498
30172.7
26182.668
16172.254
14408.439
10656.912
-2694.9892
-3114.2186
-6077.1098
-22488.511
-22410.484
-24279.831
-41636.994
-40959.382
-40901.134
-57486.46
-56796.252
-55440.708
-68729.388
-68601.943
-65063.772
-74130.666
-74024.14
-70677.551
-74085.423
-75725.513
-69697.408
-65265.721
-70287.363
-63739.785
-53066.802
-58338.579
-53005.294
-42182.558
-42113.177
-40688.423
-14845.794
-15776.718
-14688.008
52721.617
49616.197
41410.435
32831.461
26597.145
16073.711
11474.289
6707.2097
2945.4644
5576.8704
9039.2671
13568.651
21145.069
29123.662
37378.363
45566.345
52182.022
57646.274
58762.479
57007.702
49206.887
36740.97
26830.609
9100.4665
25378.681
10245.21
23138.243
23123.001
26366.269
31176.37
30865.498
31207.895
26680.662
22191.494
15017.516
7951.2238
82.435371
-8096.7186
-16315.535
-23920.099
-30878.923
-35818.496
-37795.79
-36917.826
-32137.179
-21320.181
42206.772
26758.109
33077.956
33942.079
30637.42
29248.659
27016.498
24682.764
18759.114
12625.778
3837.4251
-7932.1369
-20411.629
-33883.383
-46275.289
-56472.824
-63361.67
-66341.335
-63892.681
-56608.926
-45022.974
-25567.404
-5227.7716
47647.424
41825.58
41504.351
44000.402
43291.916
40742.416
38404.813
37547.346
33987.806
30709.785
27798.07
26559.976
23207.724
22896.92
20885.581
15342.494
14152.92
11458.739
9323.7015
8106.8216
5063.0461
2641.6129
2374.9437
-161.88516
288.57424
-534.2779
-3338.1562
-338.82315
-1949.3554
-3632.4268
2235.1223
851.65825
-339.71442
6938.0743
5675.6617
4689.9027
14269.729
12921.414
12948.558
23469.092
22065.927
22634.21
33798.002
32756.806
33748.732
45012.95
44052.263
44892.178
55065.074
54664.441
55665.064
64539.207
64380.619
63829.134
69586.048
68048.317
69370.293
66889.854
71163.479
68747.52
63894.252
64374.321
63087.603
51333.867
52529.617
51694.867
27734.817
27146.263
28692.716
10858.83
9769.7122
7982.3247
15949.228
22736.884
22357.796
9294.2246
6998.0805
6431.5429
10374.047
15207.212
15623.108
12492.424
12853
13906.398
13561.187
15436.245
16198.329
14871.92
18116.975
19532.323
17094.053
18648.514
19500.075
17022.964
19060.035
21049.912
17079.707
18620.148
19299.53
16131.78
16783.815
17480.743
14918.517
14652.015
14524.923
13738.492
12357.601
11307.218
12288.559
9941.3208
8540.5393
11074.994
7827.8427
5539.2181
9490.1858
5054.3996
3009.1624
7693.5386
2563.6966
50.448192
5188.4967
-1561.6416
-2596.3601
2083.9006
-4474.6176
-5780.7607
-2753.1652
-7208.7777
-8919.732
-13979.889
3464.7692
-8769.8084
-9588.7264
-15259.592
-14196.135
-13123.489
-18708.282
-17756.874
32581.258
34251.994
37907.259
28684.43
33413.187
40886.104
29295.484
36039.482
39069.437
30038.415
31514.76
36519.467
28102.463
30418.531
34980.566
26730.154
28458.888
32778.598
26876.79
25632.666
29086.377
23566.278
23530.836
27968.462
21042.216
20487.43
23337.848
15538.861
15005.917
17372.764
7670.4701
7032.2594
8999.2408
-2779.6215
-3096.2919
-1826.3936
-16149.018
-15153.674
-14565.776
-30433.939
-28010.508
-28537.683
-45161.65
-40698.797
-42043.462
-58423.968
-51309.06
-54182.122
-68317.842
-59909.042
-63168.986
-74716.635
-63696.194
-67470.65
-74589.873
-62978.227
-67460.15
-67646.528
-57898.487
-61046.501
-57570.701
-48466.305
-52414.732
-37283.13
-30282.854
-34453.428
-13221.686
-7339.9679
-9482.8419
)
;

boundaryField
{
    free
    {
        type            zeroGradient;
    }
    fixed
    {
        type            zeroGradient;
    }
    traction
    {
        type            zeroGradient;
    }
}


// ************************************************************************* //
