/*--------------------------------*- C++ -*----------------------------------*\
  =========                 |
  \\      /  F ield         | OpenFOAM: The Open Source CFD Toolbox
   \\    /   O peration     | Website:  https://openfoam.org
    \\  /    A nd           | Version:  6
     \\/     M anipulation  |
\*---------------------------------------------------------------------------*/
FoamFile
{
    version     2.0;
    format      ascii;
    class       pointVectorField;
    location    "0.05";
    object      lm;
}
// * * * * * * * * * * * * * * * * * * * * * * * * * * * * * * * * * * * * * //

dimensions      [1 -2 -1 0 0 0 0];

internalField   nonuniform List<vector> 
625
(
(-3.6361799e-15 2.112754e-16 -3.2990721e-16)
(2.8178306e-17 1.9013092e-16 6.1994168e-17)
(6585.5795 446.83687 51.121277)
(6536.6531 -801.92048 -127.99513)
(6.5239771e-16 2.739523e-16 -5.5565719e-16)
(-3.7042918e-15 1.4868296e-15 -1.3023874e-15)
(6524.2882 -727.72822 2.4885863)
(6566.0841 434.76215 -46.089836)
(-1.9658614e-16 -3.2115893e-17 -1.1045223e-16)
(1.4766345e-16 -3.4299605e-16 -2.8648028e-16)
(-1.0135278e-15 7.0169807e-16 1.7538027e-16)
(6576.8012 151.77973 23.10897)
(6563.9776 -166.04801 -25.491514)
(6547.1048 -489.59985 -81.813691)
(-6.0508428 69.512677 93.454671)
(43.565786 134.4107 90.818051)
(164.86438 206.30923 80.243269)
(326.65017 268.23075 80.591176)
(498.38896 329.42329 99.240528)
(706.62128 405.44531 133.48617)
(968.85743 479.62508 153.02112)
(1328.8573 540.10341 141.49089)
(1784.6698 561.95005 96.581858)
(2297.2832 533.67953 30.806981)
(2806.2741 465.60062 -28.791804)
(3257.9993 381.04404 -59.578165)
(3623.6707 306.46088 -57.905019)
(3916.6534 262.23963 -33.895426)
(4172.3117 252.69275 -7.3422375)
(4426.8328 268.25839 5.4671476)
(4696.3114 292.80862 0.026920728)
(4974.4316 314.15772 -13.001063)
(5242.3376 330.92244 -18.741159)
(5492.107 348.29078 -8.9537717)
(5733.862 373.16192 16.693548)
(5989.9694 410.84401 43.717406)
(6265.8409 447.02948 41.485426)
(-56.113435 -34.543007 -74.09068)
(12.217884 -85.950755 -45.054558)
(120.5096 -144.1201 -45.757427)
(264.43088 -187.33775 -47.637487)
(439.33745 -240.76441 -63.417831)
(663.65561 -318.95588 -85.534937)
(938.46083 -410.18369 -101.40036)
(1301.4044 -504.18342 -86.876857)
(1744.9951 -578.9528 -44.921112)
(2240.6175 -608.62537 15.156301)
(2735.6738 -586.90718 69.933907)
(3180.642 -525.26394 101.88762)
(3549.0477 -452.63582 101.82427)
(3847.1026 -398.92219 74.612567)
(4107.3598 -381.80418 35.548378)
(4364.7727 -400.05458 1.8614252)
(4636.4674 -437.89905 -16.062399)
(4915.5268 -477.94093 -19.142775)
(5183.2849 -513.17717 -17.60325)
(5430.7246 -549.41729 -23.88545)
(5667.1644 -599.338 -41.815544)
(5919.5009 -666.5325 -70.3167)
(6206.7572 -741.11647 -100.0362)
(-4.8813632e-16 1.9183015e-16 -1.0607077e-16)
(-2.6214496e-15 -5.6404768e-16 7.244144e-16)
(-2.4010456e-15 1.4295629e-15 -1.6975308e-16)
(-36.689636 -18.447915 44.045571)
(8.2819007 -146.56067 64.982606)
(114.10802 -179.86724 49.477118)
(255.37108 -267.39626 46.687949)
(449.46338 -364.6393 59.933385)
(678.08526 -453.53586 62.766358)
(976.90612 -563.33369 70.859357)
(1339.0272 -678.80071 71.757301)
(1776.6299 -763.29857 45.503025)
(2256.1384 -803.7997 6.8156188)
(2735.9122 -789.25372 -37.492957)
(3167.8548 -733.81767 -67.208541)
(3526.2589 -664.87003 -70.373525)
(3819.5083 -612.14085 -47.983069)
(4083.8777 -591.67307 -16.441789)
(4356.3316 -596.93485 3.3660937)
(4648.7467 -608.19299 2.215255)
(4942.8902 -609.85976 -9.6808038)
(5211.163 -603.26996 -11.32971)
(5444.41 -603.97195 8.8382752)
(5666.4289 -626.65591 39.09767)
(5915.8182 -670.63186 57.620157)
(6209.6038 -719.51596 42.710894)
(6544.5675 -447.8709 -5.7819838)
(6568.3829 -161.13787 -8.3727632)
(6552.1292 138.80162 -16.053172)
(6262.1935 445.84379 -53.619342)
(5977.2089 407.39291 -58.227102)
(5720.6242 380.42556 -49.799166)
(5478.5419 373.16923 -41.109049)
(5231.0605 383.57031 -35.810491)
(4967.0569 399.53344 -33.225829)
(4691.6771 404.53414 -31.624518)
(4420.0714 397.02269 -24.832198)
(4161.6397 392.46989 -7.9128568)
(3904.1687 412.80451 18.467192)
(3616.2892 468.99976 45.795853)
(3265.3594 550.86018 62.088275)
(2836.8099 630.39207 58.609041)
(2353.5906 674.04519 35.728334)
(1868.9942 692.7036 5.0644522)
(1421.3971 645.22879 -22.86675)
(1049.7748 578.73871 -41.952743)
(755.78835 502.79449 -46.052417)
(521.80562 422.04141 -47.971469)
(324.03099 348.03992 -50.143428)
(163.30783 265.9202 -63.309068)
(48.818818 160.59224 -69.814339)
(22.288982 73.932099 -48.233747)
(-1.3028228e-15 -3.4252847e-16 3.3068324e-16)
(-2.0449562e-15 -3.5718549e-16 -7.3673077e-16)
(-1.4121951e-15 -1.0527101e-15 6.223458e-16)
(-1.2019486e-15 6.189313e-16 -3.4292956e-16)
(-1.2511779e-16 -6.848356e-17 2.1836215e-16)
(-3.8898857e-17 4.7141393e-16 -3.1043199e-16)
(6572.2411 -786.26809 -88.935163)
(6559.4881 -772.72461 -37.231514)
(6545.8096 -747.38757 4.4325306)
(6617.9932 441.17269 23.291181)
(6618.9433 436.68764 -18.485782)
(6597.0883 437.61224 -42.451556)
(-37.027982 54.265861 66.922393)
(17.383898 100.23164 56.031165)
(134.68518 145.35037 56.459785)
(294.86111 190.0685 46.914725)
(472.54642 231.34365 46.391582)
(680.74421 266.5255 51.5342)
(943.86683 283.5299 57.673281)
(1302.0806 283.61649 59.88842)
(1758.2338 265.83242 48.252688)
(2278.1531 238.15107 27.607497)
(2798.4738 207.77386 5.3019485)
(3256.6753 181.02401 -8.7356295)
(3623.7683 161.71473 -9.7746381)
(3911.4633 149.3121 -0.68153015)
(4158.463 141.04391 9.4636386)
(4404.717 134.42294 12.837223)
(4669.3489 129.91877 6.4717582)
(4946.613 129.5089 -2.3517707)
(5214.6679 134.84807 -6.7037051)
(5464.4427 146.99316 -0.26704558)
(5705.8253 160.03398 11.280796)
(5957.5935 164.6236 23.131768)
(6238.3354 161.76265 18.291253)
(-57.407445 27.538071 17.378952)
(10.541793 37.261384 12.927984)
(120.62746 50.682299 15.985664)
(274.74167 66.209328 18.439477)
(456.45088 82.035236 16.213811)
(668.47562 98.597079 18.047738)
(940.5903 101.86699 19.434222)
(1302.2353 85.993506 22.624316)
(1756.3792 51.539464 25.145661)
(2269.9199 11.566949 27.009262)
(2782.1193 -22.2959 26.282659)
(3235.9217 -41.647936 24.788423)
(3602.7552 -46.662411 23.249317)
(3893.2974 -44.180712 20.90094)
(4144.6523 -42.801764 16.228327)
(4394.2727 -48.225368 8.6907453)
(4658.8443 -60.770542 -0.34090545)
(4931.3961 -75.510515 -6.7747264)
(5193.0024 -88.373431 -8.5353748)
(5434.6481 -98.588312 -5.3462983)
(5674.4948 -106.12434 -0.38347041)
(5934.4399 -120.03212 -1.2960219)
(6217.5603 -142.58043 -15.725712)
(-71.683104 -8.2224497 -11.548959)
(4.0241695 -20.623461 -12.555307)
(106.12787 -38.957689 -9.1374285)
(256.73165 -61.631711 -13.759665)
(431.3462 -83.363015 -23.708368)
(645.07179 -104.20615 -30.955747)
(927.3787 -138.53728 -36.653801)
(1298.778 -180.70493 -27.005915)
(1758.8385 -229.66812 -5.6666407)
(2270.7127 -272.36477 20.922874)
(2777.5794 -297.48922 43.609071)
(3224.3868 -302.58493 55.241682)
(3584.4231 -293.37617 53.393963)
(3869.7858 -280.20239 40.678373)
(4118.856 -271.57979 23.195464)
(4370.3193 -271.52767 6.8724793)
(4640.6221 -279.94587 -4.4525229)
(4918.6647 -295.33792 -10.498552)
(5184.2959 -316.70404 -13.523115)
(5425.6025 -346.07803 -16.68797)
(5659.0746 -382.97834 -23.352157)
(5915.0307 -423.80561 -39.053933)
(6202.9179 -464.79723 -49.445343)
(-2.5953868e-15 -2.1703571e-16 4.2716933e-18)
(-3.8783653e-15 3.5858996e-16 7.5215743e-16)
(-9.8459492e-16 7.8127033e-16 2.7525688e-16)
(-3.9146975e-16 7.8165185e-18 1.2560621e-16)
(1.6350797e-16 -2.4226884e-16 -1.2066667e-17)
(-1.0304172e-15 -9.2669207e-16 -7.5672327e-16)
(-6.4481012e-16 3.525084e-16 2.7116342e-16)
(-3.5205005e-15 9.4737515e-16 -2.5196009e-17)
(-3.8147498e-15 1.043275e-15 1.2924308e-16)
(-23.328635 -9.2560095 -35.458169)
(-10.465813 -20.987382 -10.720909)
(-13.477817 -7.9395363 11.229661)
(56.411431 -122.47982 -24.766506)
(46.008912 -133.45277 -8.1017677)
(41.258162 -129.01108 31.558415)
(142.00041 -146.60467 -28.9506)
(145.09344 -159.80635 -11.798413)
(142.45214 -189.82583 25.826136)
(287.6779 -201.31221 -28.942235)
(292.20351 -238.47803 -7.226617)
(280.96849 -250.5664 22.965609)
(473.27178 -266.39001 -38.467586)
(477.98009 -302.44798 -13.873208)
(474.73427 -338.95298 27.407319)
(698.46806 -347.22672 -48.915953)
(712.96396 -387.96022 -9.4292131)
(706.25757 -425.83113 30.572725)
(983.82405 -447.41442 -53.1173)
(1006.1442 -498.51001 -14.719222)
(1000.2485 -540.27029 40.069837)
(1345.7202 -561.48214 -46.326857)
(1364.4969 -608.9339 -0.0033443817)
(1358.6967 -651.0687 42.743844)
(1773.7148 -648.05138 -19.145093)
(1789.4928 -701.12456 7.8521837)
(1784.4954 -740.33151 34.258894)
(2245.2499 -685.31934 12.886132)
(2252.1685 -741.04563 15.062263)
(2249.7757 -781.82094 16.79978)
(2716.001 -661.72874 41.121932)
(2714.4412 -722.17946 17.307098)
(2714.3076 -765.17587 -6.4645264)
(3144.459 -591.02542 57.564173)
(3135.8205 -655.17265 15.739794)
(3137.3829 -701.71497 -25.615771)
(3508.2903 -505.09534 58.349701)
(3497.0056 -571.02914 12.846657)
(3497.6945 -620.89193 -32.737627)
(3815.2007 -439.24234 46.053114)
(3804.6609 -504.63316 10.851556)
(3802.7382 -555.36479 -25.5723)
(4092.5598 -415.0409 27.362292)
(4084.9326 -478.11048 9.4108197)
(4081.7484 -526.28955 -10.737676)
(4367.3194 -431.42506 9.9904139)
(4363.2078 -490.30551 6.7832957)
(4362.6288 -532.88287 0.48643149)
(4648.7487 -469.1692 -0.7181418)
(4647.9293 -520.41031 2.4293452)
(4652.887 -556.14249 0.79338208)
(4927.6262 -505.99742 -3.8393288)
(4929.1771 -545.02719 -0.67155481)
(4938.6833 -574.27597 -6.1365765)
(5189.3953 -532.76855 -2.9361151)
(5193.0561 -555.33243 1.1538186)
(5202.2558 -578.75538 -8.089754)
(5432.7531 -557.32988 -4.7473185)
(5438.2666 -563.74908 6.9391535)
(5442.0203 -580.58233 2.937952)
(5674.1963 -596.39203 -15.016202)
(5681.1655 -592.49568 9.9240682)
(5678.5908 -600.48273 21.655116)
(5941.7534 -655.1826 -36.202339)
(5951.4844 -646.48322 1.3713769)
(5943.3813 -645.29988 32.895591)
(6244.1393 -727.65742 -61.609684)
(6247.6639 -719.6715 -15.647761)
(6233.7855 -710.03261 24.322904)
(6613.0529 137.85022 17.872316)
(6613.8314 139.01043 0.8406728)
(6587.4201 144.95039 -14.444471)
(6612.4089 -171.47674 -21.50059)
(6618.3088 -166.38575 -19.112675)
(6592.986 -161.20059 -9.3469905)
(6599.8211 -476.8713 -71.379367)
(6594.2018 -468.66758 -45.667881)
(6570.6322 -458.71885 -12.114378)
(32.67384 55.98621 60.247487)
(29.196568 66.521964 29.276765)
(44.04418 64.914613 -7.2360243)
(73.95122 144.77235 62.637603)
(77.168326 161.71995 16.024701)
(75.349925 158.14564 -28.922708)
(194.51671 240.88689 58.169867)
(185.75444 250.47479 27.614064)
(192.79578 266.70784 -26.026315)
(346.13551 288.44998 54.040363)
(347.42599 324.42281 23.684777)
(348.56952 341.28272 -18.680717)
(539.67479 360.74267 65.302668)
(549.85318 392.82685 26.610263)
(546.80311 418.76587 -14.940754)
(768.66178 427.67501 85.828442)
(778.37859 465.32119 41.679484)
(789.33664 497.73683 -13.768487)
(1048.1626 510.63138 100.55649)
(1073.1574 550.33975 48.58663)
(1080.286 579.99397 -4.6138524)
(1403.6593 587.53276 99.603202)
(1432.2074 620.51294 51.539385)
(1441.3658 648.66371 7.0449812)
(1830.7169 620.92917 77.668156)
(1859.4552 657.85146 53.513908)
(1868.9223 684.5208 24.404575)
(2311.4036 608.58379 42.325796)
(2327.8697 646.04396 36.763128)
(2340.0281 675.32102 32.283956)
(2790.7315 538.17042 0.49595629)
(2795.0918 581.73282 18.155042)
(2802.2632 611.82022 37.197561)
(3222.943 441.67033 -25.415873)
(3219.9926 491.74809 2.2907482)
(3225.8762 526.48452 33.591626)
(3587.9597 352.31779 -32.327736)
(3581.1688 405.60229 -7.0566928)
(3583.9853 443.51999 23.004672)
(3891.8851 295.59671 -23.918537)
(3886.122 349.6781 -9.5451244)
(3886.3814 389.3805 9.6641671)
(4162.899 280.09414 -11.702311)
(4159.475 332.39996 -9.1495662)
(4158.9594 372.18811 -3.1122015)
(4429.2822 295.19784 -6.9560669)
(4426.6215 343.1565 -11.898784)
(4426.129 380.32882 -14.017153)
(4703.4226 320.13187 -13.775426)
(4700.0471 361.37191 -20.350605)
(4698.2503 392.83324 -23.204593)
(4979.3875 337.4602 -25.859792)
(4975.5321 370.31017 -31.569153)
(4970.5867 394.50211 -30.256426)
(5245.1495 344.00931 -31.724546)
(5243.248 367.83183 -38.725251)
(5234.5428 385.39745 -34.16325)
(5497.9421 347.93236 -25.577189)
(5500.2676 363.35958 -37.525324)
(5488.5084 377.84854 -34.799397)
(5747.8195 363.5797 -7.3781637)
(5755.371 371.71755 -28.217498)
(5742.117 383.33192 -35.800399)
(6015.1292 399.16588 10.346074)
(6024.9846 400.72815 -17.565535)
(6011.6171 408.58602 -34.346458)
(6299.4305 439.30719 16.916505)
(6305.2079 434.47719 -14.187197)
(6292.7088 439.16876 -38.045128)
(-25.651981 29.215133 -38.684478)
(20.841796 128.67262 -46.476075)
(116.58961 155.01924 -29.935882)
(282.92228 212.72953 -30.647314)
(475.01413 258.50377 -22.359452)
(709.01209 286.34922 -16.9331)
(999.894 301.37734 -5.4598376)
(1369.5073 302.16986 5.6465155)
(1820.0018 287.29438 14.593481)
(2321.1366 262.50776 22.428276)
(2818.2592 232.44801 23.27669)
(3259.1041 205.67095 16.052599)
(3615.0373 186.66255 6.4886491)
(3899.296 179.38534 -4.5791865)
(4150.3564 179.26645 -11.796598)
(4404.8913 177.38671 -16.246047)
(4676.9749 167.17234 -20.385721)
(4955.1223 150.10028 -25.013085)
(5219.5315 135.28595 -28.507503)
(5463.0994 133.28658 -28.436775)
(5700.0811 144.74875 -25.525044)
(5952.458 159.21642 -21.321941)
(6240.5263 162.33091 -24.25921)
(-61.722916 21.456596 -6.6014107)
(-11.145501 39.597092 -8.323311)
(93.086282 28.75385 1.3302618)
(251.97201 37.854165 -3.362309)
(440.94736 37.760202 -1.5620949)
(682.85561 35.890713 2.5554514)
(979.84946 23.107206 7.9732413)
(1353.9738 -3.8709197 13.757175)
(1804.0986 -41.611256 17.606998)
(2298.7346 -85.028043 13.485631)
(2789.1713 -122.62367 5.4468958)
(3223.7038 -145.42911 -3.9915639)
(3578.5105 -151.5773 -10.156788)
(3866.7763 -142.35373 -12.128195)
(4127.8359 -127.39106 -10.238794)
(4397.1188 -117.64541 -10.570742)
(4682.9514 -120.79382 -15.639779)
(4967.118 -135.0147 -21.613805)
(5226.4145 -150.63458 -21.786486)
(5457.7125 -156.09735 -13.10454)
(5685.8156 -148.02406 -2.0774742)
(5942.5141 -137.76744 -0.49291053)
(6235.4693 -134.90955 2.2418853)
(-79.00346 -24.27012 11.549671)
(-6.2443616 -23.977227 7.8239934)
(91.306298 -87.041672 24.122703)
(236.5881 -99.463929 13.201413)
(421.5922 -158.58731 28.186152)
(660.10343 -208.29237 40.23679)
(957.83832 -266.40548 48.738644)
(1338.7924 -329.22852 54.337175)
(1791.8973 -384.08238 42.77962)
(2289.8313 -427.22896 20.808759)
(2779.129 -450.7139 -6.9784594)
(3210.4997 -455.41973 -28.927128)
(3560.8566 -446.51056 -38.078828)
(3844.1361 -430.04495 -33.598766)
(4102.1389 -410.74235 -22.124147)
(4373.6569 -392.08366 -12.917081)
(4667.6974 -379.00881 -9.7686977)
(4961.6603 -376.98008 -8.2919852)
(5225.647 -387.82908 -0.6157341)
(5452.8359 -407.01434 14.484546)
(5670.992 -424.70952 29.759679)
(5923.8899 -434.41798 29.171637)
(6222.6412 -438.17864 18.175093)
(-12.987628 24.332821 35.895614)
(-16.908459 29.98147 12.752113)
(-4.2823637 27.238596 -13.146644)
(41.702366 106.03354 31.475354)
(49.935189 112.56546 6.0467604)
(42.573206 112.92077 -26.209214)
(150.54645 144.82212 30.322945)
(148.16769 157.55726 6.9357782)
(147.36255 160.87376 -13.670097)
(307.08343 195.30212 24.214842)
(315.13193 211.40788 7.3745109)
(307.62926 213.64247 -12.334276)
(498.39559 234.1872 17.817003)
(508.94985 250.32581 6.699453)
(505.97185 255.91866 -11.671104)
(723.36114 266.21077 22.314446)
(742.86712 283.58688 8.6054148)
(736.68329 287.81162 -7.0040865)
(1001.8681 287.78306 28.873235)
(1029.8496 302.10711 16.481923)
(1027.8 308.45246 0.78859828)
(1360.3337 293.12662 35.910523)
(1392.2244 307.23832 22.126243)
(1392.1035 313.23872 8.9992402)
(1800.9389 282.38569 34.445182)
(1829.0109 298.5047 24.149533)
(1830.9901 303.03989 14.161196)
(2294.5555 256.94802 25.059199)
(2313.2297 275.94329 22.297491)
(2316.6667 279.3614 18.731691)
(2788.4787 222.51215 11.025766)
(2795.0367 244.29183 14.879061)
(2798.9505 247.52569 18.340037)
(3230.2059 187.90713 0.090116157)
(3226.8823 211.50074 7.947683)
(3230.782 216.97594 14.699483)
(3594.3937 159.80623 -2.6532456)
(3585.4933 185.03521 4.1416493)
(3588.2662 192.90864 9.1347674)
(3889.7215 142.43959 1.8224667)
(3879.8985 169.48163 4.0392118)
(3881.6665 180.22312 4.0044069)
(4149.101 134.84046 7.6457337)
(4141.1269 163.70578 4.4005281)
(4143.0123 176.37592 -0.95004145)
(4406.5426 132.97074 8.2471483)
(4400.6251 162.14028 1.2639527)
(4403.3886 174.44227 -7.152858)
(4678.0933 132.86044 1.7456511)
(4673.1568 159.56127 -5.8952987)
(4675.5695 168.63562 -14.561697)
(4957.4325 132.18381 -7.2088654)
(4952.6982 153.6837 -13.155486)
(4952.6542 158.64423 -20.228493)
(5227.1379 132.38827 -10.726579)
(5223.4172 147.66864 -14.743393)
(5219.657 149.3529 -20.449645)
(5480.3276 135.43542 -6.5034829)
(5480.8086 145.80285 -8.8974537)
(5472.5608 147.17824 -14.705543)
(5727.7681 143.53918 4.4103828)
(5732.499 148.98299 -0.24477583)
(5721.9385 151.85982 -8.1521671)
(5988.1786 150.52493 15.179224)
(5995.8276 152.72347 6.0523453)
(5983.8755 157.24543 -5.9165769)
(6280.9911 151.48907 13.352543)
(6288.8504 152.27213 2.197692)
(6273.0589 157.23856 -10.656171)
(-44.412176 15.017496 1.4425014)
(-37.602057 18.783853 -4.9764079)
(-29.588818 19.084454 -8.8153582)
(25.193766 35.57795 -0.8537758)
(27.898588 38.99542 -7.5096814)
(12.526574 34.395181 -14.714647)
(131.37288 50.815062 4.0716186)
(129.23933 45.368875 0.94301183)
(122.32957 41.307074 -10.082328)
(282.25218 60.761293 1.1150085)
(292.60345 57.16357 -2.8309376)
(276.50532 43.114147 -9.8492873)
(474.47557 75.182193 1.2895173)
(481.84639 66.663049 2.0103152)
(468.73802 53.553839 -8.987935)
(703.61209 81.694095 1.567142)
(718.42053 69.62579 1.6734536)
(708.53431 53.5952 -2.8152196)
(991.54042 76.445304 3.7992851)
(1011.1527 60.180828 8.3070131)
(1003.5421 42.521122 3.3263078)
(1356.8288 53.192956 11.052285)
(1377.4189 34.293358 13.588959)
(1373.1209 18.059366 11.571466)
(1797.5006 17.081522 16.407791)
(1815.0822 -3.2262542 17.045325)
(1814.0694 -18.828114 14.860561)
(2285.8747 -22.90954 19.979258)
(2295.6441 -43.007123 16.316207)
(2297.3173 -58.32824 12.308109)
(2772.7927 -55.746791 19.861572)
(2772.6666 -75.00155 12.748199)
(2776.5402 -90.572273 6.5599504)
(3209.1044 -74.511137 18.350562)
(3200.3833 -92.144032 9.3632763)
(3204.4881 -108.40639 0.60580535)
(3570.9467 -79.003843 17.760234)
(3556.963 -94.398975 8.1054787)
(3560.4938 -110.09512 -2.279001)
(3867.9501 -74.783696 17.77608)
(3853.2518 -86.294828 9.1224529)
(3855.8563 -99.290219 -0.82573755)
(4132.0069 -69.985775 16.323157)
(4120.6328 -76.356074 9.457224)
(4123.7601 -85.310055 2.0519755)
(4394.656 -70.927054 11.217752)
(4388.8223 -72.626313 6.1081244)
(4394.0551 -78.382958 1.9908375)
(4668.6405 -79.28671 3.0770768)
(4668.1816 -78.374432 -0.41105583)
(4675.1248 -83.828754 -2.3935343)
(4945.8956 -91.915678 -3.9142809)
(4948.9476 -91.012376 -5.3537005)
(4955.0265 -98.685301 -7.0850425)
(5210.2007 -103.72643 -5.0097535)
(5214.6618 -104.07166 -3.5379687)
(5217.2437 -114.2616 -5.8535397)
(5456.6661 -113.36347 -0.062923297)
(5461.9569 -113.05998 5.3716928)
(5460.4514 -121.99725 2.7137126)
(5703.9277 -118.73809 5.6573385)
(5711.1261 -116.66088 11.290522)
(5705.4374 -121.60713 12.518481)
(5970.5723 -126.04058 5.1799241)
(5980.6177 -124.70587 11.2132)
(5972.7924 -122.77321 13.252377)
(6269.2882 -142.89093 -8.1413692)
(6279.9257 -139.15182 -1.7911574)
(6265.9435 -133.81991 2.9047015)
(-45.236407 -9.0421871 -5.2701748)
(-49.205476 -9.7028302 -3.4910717)
(-50.576846 -9.4324149 4.475962)
(34.940013 -19.669302 -4.6464355)
(36.690844 -14.0717 -0.46264317)
(22.795166 -24.673914 4.3576189)
(128.79577 -37.139626 0.098932048)
(128.29342 -62.458857 1.6603735)
(122.01041 -72.933058 9.9193569)
(281.95905 -61.168083 -5.8670087)
(279.46097 -71.201636 0.12074584)
(272.10797 -91.675189 5.2945083)
(462.9039 -80.77284 -13.040396)
(463.9307 -106.99342 -0.42504629)
(459.68169 -134.16568 6.7282065)
(692.55654 -118.2497 -21.862546)
(698.03177 -146.1082 -1.9903948)
(694.71797 -179.76409 14.16282)
(982.2354 -166.87573 -26.512079)
(993.9083 -198.40133 1.7230562)
(990.59845 -235.04611 21.650172)
(1350.752 -224.41705 -19.332242)
(1366.5334 -261.48957 5.5510594)
(1362.8355 -298.90454 26.871614)
(1794.3323 -281.9454 -3.4680241)
(1808.9966 -322.18929 11.441194)
(1805.1405 -357.60986 24.821662)
(2280.9594 -324.11029 14.881419)
(2290.7741 -366.57089 14.072107)
(2288.6048 -400.83545 14.522761)
(2762.3879 -342.69641 29.21816)
(2764.7649 -385.23482 13.647575)
(2765.1309 -420.64515 0.24848065)
(3191.7933 -337.38819 35.891889)
(3186.6481 -379.21249 11.538172)
(3188.966 -416.96729 -11.562186)
(3547.5795 -317.67829 34.814714)
(3536.9207 -357.3853 9.9899663)
(3539.3859 -397.27066 -15.601104)
(3841.0438 -296.12706 28.233519)
(3828.1895 -332.17641 10.032743)
(3829.1339 -372.23145 -11.060028)
(4105.1523 -282.54908 19.081341)
(4094.0463 -313.71089 10.127642)
(4094.2781 -350.96691 -2.9419743)
(4371.3728 -280.97883 9.4598605)
(4365.1768 -306.49794 7.7599243)
(4367.7 -338.68943 1.7414713)
(4650.6384 -290.17253 0.87091743)
(4650.2171 -309.77312 2.5025343)
(4657.7074 -336.44405 -0.054536182)
(4931.42 -306.72213 -5.1821285)
(4935.2445 -320.42706 -2.3701057)
(4946.9142 -342.68929 -3.8092029)
(5196.1413 -327.89911 -7.8403953)
(5201.3271 -335.92352 -2.5162191)
(5212.986 -354.87254 -1.5926499)
(5439.5534 -353.57701 -8.4314007)
(5443.685 -355.88422 3.3464008)
(5450.6533 -370.92068 9.2823358)
(5679.1324 -383.2489 -10.424836)
(5685.4 -381.127 7.2438497)
(5684.6919 -390.10784 21.805909)
(5947.0772 -413.84685 -18.905857)
(5954.9016 -407.40712 3.1657123)
(5948.1421 -409.81897 22.272963)
(6254.7393 -446.33091 -38.156334)
(6262.2698 -437.24378 -12.269997)
(6247.3556 -433.17572 9.2330659)
)
;

boundaryField
{
    free
    {
        type            zeroGradient;
    }
    fixed
    {
        type            fixedValue;
        value           nonuniform List<vector> 
25
(
(-2.5953868e-15 -2.1703571e-16 4.2716933e-18)
(-1.3028228e-15 -3.4252847e-16 3.3068324e-16)
(-1.9658614e-16 -3.2115893e-17 -1.1045223e-16)
(-3.6361799e-15 2.112754e-16 -3.2990721e-16)
(-3.8783653e-15 3.5858996e-16 7.5215743e-16)
(-2.0449562e-15 -3.5718549e-16 -7.3673077e-16)
(-9.8459492e-16 7.8127033e-16 2.7525688e-16)
(-1.4121951e-15 -1.0527101e-15 6.223458e-16)
(-4.8813632e-16 1.9183015e-16 -1.0607077e-16)
(6.5239771e-16 2.739523e-16 -5.5565719e-16)
(-3.9146975e-16 7.8165185e-18 1.2560621e-16)
(1.4766345e-16 -3.4299605e-16 -2.8648028e-16)
(1.6350797e-16 -2.4226884e-16 -1.2066667e-17)
(-1.0304172e-15 -9.2669207e-16 -7.5672327e-16)
(-2.6214496e-15 -5.6404768e-16 7.244144e-16)
(-6.4481012e-16 3.525084e-16 2.7116342e-16)
(-1.0135278e-15 7.0169807e-16 1.7538027e-16)
(-3.5205005e-15 9.4737515e-16 -2.5196009e-17)
(-3.8147498e-15 1.043275e-15 1.2924308e-16)
(-2.4010456e-15 1.4295629e-15 -1.6975308e-16)
(-1.2019486e-15 6.189313e-16 -3.4292956e-16)
(2.8178306e-17 1.9013092e-16 6.1994168e-17)
(-1.2511779e-16 -6.848356e-17 2.1836215e-16)
(-3.8898857e-17 4.7141393e-16 -3.1043199e-16)
(-3.7042918e-15 1.4868296e-15 -1.3023874e-15)
)
;
    }
    freeTop
    {
        type            zeroGradient;
    }
}


// ************************************************************************* //
