/*--------------------------------*- C++ -*----------------------------------*\
  =========                 |
  \\      /  F ield         | OpenFOAM: The Open Source CFD Toolbox
   \\    /   O peration     | Website:  https://openfoam.org
    \\  /    A nd           | Version:  6
     \\/     M anipulation  |
\*---------------------------------------------------------------------------*/
FoamFile
{
    version     2.0;
    format      ascii;
    class       pointVectorField;
    location    "1.2";
    object      u;
}
// * * * * * * * * * * * * * * * * * * * * * * * * * * * * * * * * * * * * * //

dimensions      [0 1 0 0 0 0 0];

internalField   nonuniform List<vector> 
28033
(
(0 5.3599182e-19 0)
(0 3.6344529e-18 0)
(-1.5653889 -0.40193547 0.0011797129)
(-1.623344 -0.06633342 0.0017644562)
(0 3.319224e-18 0)
(0 5.3459814e-18 0)
(-1.6242501 -0.066053855 0.0018843823)
(-1.5662176 -0.40166 0.001052105)
(0 1.1776606e-18 0)
(0 3.449631e-19 0)
(0 2.7765689e-18 0)
(0 -1.3184554e-18 0)
(0 1.7632684e-18 0)
(0 -1.0312563e-18 0)
(0 -2.4504204e-20 0)
(-8.031745e-19 -2.6200913e-19 0)
(0 4.8514627e-19 0)
(0 2.3863163e-19 0)
(0 -9.1262473e-19 0)
(0 8.8345888e-19 0)
(0 1.0627707e-18 0)
(0 -8.6218767e-19 0)
(0 1.1118669e-18 0)
(-1.5690159 -0.38095333 0.0012138599)
(-1.5726397 -0.35997056 0.001248606)
(-1.5762633 -0.33898613 0.0012866338)
(-1.5798832 -0.31800312 0.00132563)
(-1.5835041 -0.29702209 0.0013647133)
(-1.587123 -0.27604228 0.0014062558)
(-1.5907431 -0.25506669 0.0014442935)
(-1.5943635 -0.23409157 0.0014852932)
(-1.5979847 -0.21311903 0.0015233392)
(-1.6016071 -0.19214841 0.0015624798)
(-1.6052294 -0.1711778 0.0015992652)
(-1.6088533 -0.15020822 0.0016350069)
(-1.6124766 -0.12923826 0.0016703169)
(-1.6161002 -0.10826917 0.0017040021)
(-1.6197227 -0.087300385 0.0017351221)
(-0.0039341383 -0.0080816352 -0.0082345151)
(-0.0041999747 -0.011832468 -0.011864478)
(-0.0053314762 -0.015726935 -0.014148776)
(-0.0073326582 -0.0200268 -0.015676136)
(-0.0098441982 -0.024149827 -0.016552354)
(-0.013171057 -0.028630704 -0.017078594)
(-0.017160554 -0.033065241 -0.01730913)
(-0.021804348 -0.037589822 -0.017347248)
(-0.027070091 -0.042159479 -0.017263983)
(-0.032951602 -0.046758484 -0.017088928)
(-0.039385777 -0.051346638 -0.016835766)
(-0.046374246 -0.055990543 -0.016543224)
(-0.053894623 -0.060604461 -0.016253749)
(-0.061956304 -0.065262058 -0.015907969)
(-0.070502852 -0.069885551 -0.015581279)
(-0.079562418 -0.074539575 -0.015218457)
(-0.089106238 -0.079191146 -0.014884636)
(-0.099150395 -0.083837202 -0.014525659)
(-0.10966343 -0.088498759 -0.014155597)
(-0.12064412 -0.093150213 -0.013785921)
(-0.1320939 -0.097818664 -0.013418045)
(-0.14399404 -0.10246797 -0.013017865)
(-0.15634108 -0.10712985 -0.012636529)
(-0.16912583 -0.11179336 -0.012225539)
(-0.18233118 -0.11643113 -0.011809102)
(-0.1959475 -0.12109253 -0.011385313)
(-0.20996438 -0.12571405 -0.010959353)
(-0.2243669 -0.13035901 -0.010513479)
(-0.23914137 -0.1349583 -0.010067062)
(-0.2542716 -0.13957058 -0.0096178743)
(-0.26974318 -0.14415583 -0.0091622294)
(-0.28553398 -0.14871882 -0.0087062357)
(-0.30163778 -0.15328133 -0.0082563544)
(-0.31804764 -0.15780434 -0.0078068393)
(-0.33473076 -0.16233108 -0.0073530653)
(-0.35169019 -0.16682209 -0.0069179079)
(-0.3688943 -0.17130254 -0.0064931331)
(-0.38635422 -0.17576054 -0.0060754269)
(-0.40403516 -0.1801941 -0.0056617738)
(-0.42193878 -0.18461851 -0.0052722016)
(-0.44005329 -0.18900814 -0.0048884467)
(-0.4583625 -0.19339224 -0.004524365)
(-0.47686921 -0.19774573 -0.0041683856)
(-0.4955562 -0.20208335 -0.0038314996)
(-0.51441661 -0.20639229 -0.0035055896)
(-0.53344331 -0.21068303 -0.0031943099)
(-0.55262529 -0.2149433 -0.0028960406)
(-0.57195902 -0.2191822 -0.0026097357)
(-0.59143064 -0.22338892 -0.0023358494)
(-0.61103742 -0.22757062 -0.0020730556)
(-0.63076555 -0.23171937 -0.0018214923)
(-0.65061055 -0.2358398 -0.0015805902)
(-0.67056022 -0.2399273 -0.0013504675)
(-0.6906078 -0.24398479 -0.0011311022)
(-0.71074309 -0.24801042 -0.00092259573)
(-0.73095795 -0.25200641 -0.00072558206)
(-0.75124374 -0.25597281 -0.00054032155)
(-0.77159253 -0.25991236 -0.00036725074)
(-0.79199692 -0.26382596 -0.00020717441)
(-0.8124507 -0.26771688 -6.0342384e-05)
(-0.83294741 -0.27158684 7.273953e-05)
(-0.85348342 -0.27544014 0.00019257586)
(-0.87405285 -0.27927709 0.00029734684)
(-0.89465823 -0.28310288 0.00039137953)
(-0.91528795 -0.28691933 0.00046837797)
(-0.9359525 -0.29072816 0.00053903736)
(-0.95664549 -0.29452976 0.0005946351)
(-0.97736712 -0.2983308 0.00064381855)
(-0.9981217 -0.30212553 0.00068644037)
(-1.0189065 -0.30592291 0.00072258707)
(-1.0397271 -0.3097144 0.00075548373)
(-1.0605807 -0.3135053 0.00078702577)
(-1.0814688 -0.31729392 0.0008187389)
(-1.1023931 -0.32107628 0.00085131924)
(-1.1233495 -0.32485664 0.00088801012)
(-1.1443403 -0.32862563 0.00092619851)
(-1.1653582 -0.33239104 0.0009697705)
(-1.1864061 -0.33614112 0.0010148748)
(-1.207472 -0.33988554 0.0010651494)
(-1.2285608 -0.3436109 0.001113755)
(-1.2496597 -0.34732935 0.0011676759)
(-1.2707666 -0.35102889 0.0012151881)
(-1.2918797 -0.35471807 0.0012648639)
(-1.3129864 -0.35839076 0.0013059548)
(-1.3340924 -0.36205286 0.0013440333)
(-1.3551825 -0.36570433 0.0013726113)
(-1.3762686 -0.36934128 0.0013929352)
(-1.3973294 -0.37297685 0.0014037053)
(-1.4183862 -0.37659649 0.0014034309)
(-1.4394144 -0.3802217 0.0013936232)
(-1.4604401 -0.38383359 0.0013731853)
(-1.4814402 -0.38745385 0.0013446996)
(-1.5024397 -0.39106762 0.001308255)
(-1.5234244 -0.39468749 0.0012681956)
(-1.5444068 -0.39830905 0.0012219301)
(-0.0030652521 0.0075671405 0.010130277)
(-0.0062821951 0.011504822 0.010576674)
(-0.0082170503 0.016236806 0.013714519)
(-0.010539619 0.020316548 0.014596758)
(-0.014085519 0.02498569 0.015521682)
(-0.017949477 0.029663822 0.015989869)
(-0.022624574 0.034119696 0.016232244)
(-0.027924529 0.038735356 0.016299352)
(-0.033969339 0.043190391 0.016248138)
(-0.040548501 0.047553588 0.01613919)
(-0.047847386 0.05184444 0.015951583)
(-0.055676114 0.055966545 0.015759628)
(-0.064149522 0.059991544 0.01551438)
(-0.073166004 0.063853499 0.015293642)
(-0.082763442 0.067563626 0.015028223)
(-0.092903699 0.07112377 0.014787685)
(-0.10358259 0.074498934 0.014518028)
(-0.11479099 0.07771512 0.014253529)
(-0.12651551 0.080756097 0.013984389)
(-0.13873511 0.08359431 0.013708164)
(-0.15145155 0.086264889 0.013416376)
(-0.16464284 0.088738772 0.013134677)
(-0.17828336 0.091006713 0.01283149)
(-0.19238562 0.09309625 0.012526603)
(-0.20690105 0.094973803 0.012223285)
(-0.22183858 0.096649462 0.01189991)
(-0.23716314 0.098133662 0.011599084)
(-0.25286571 0.099401002 0.01127166)
(-0.26892446 0.10048389 0.010970022)
(-0.28531824 0.10135057 0.010651234)
(-0.30203584 0.10204025 0.010352763)
(-0.3190534 0.10252352 0.010055711)
(-0.33635639 0.10282268 0.0097710918)
(-0.35393039 0.10293495 0.0094948596)
(-0.37175398 0.10286717 0.0092290124)
(-0.38981869 0.10261964 0.0089799642)
(-0.40809704 0.10219742 0.0087294316)
(-0.42659983 0.10162132 0.0084977912)
(-0.44528984 0.10087331 0.0082709187)
(-0.46417975 0.099975477 0.0080514806)
(-0.48323924 0.098925082 0.0078376805)
(-0.50247408 0.097729432 0.0076266273)
(-0.52186358 0.096393944 0.0074177707)
(-0.54140834 0.094922657 0.0072086855)
(-0.56109142 0.093321502 0.0069992238)
(-0.58091139 0.091594153 0.0067870325)
(-0.60085342 0.089747187 0.0065735697)
(-0.62091328 0.087783547 0.0063569744)
(-0.64107842 0.085710318 0.0061395552)
(-0.66134193 0.083530966 0.005920976)
(-0.68169273 0.081251994 0.0057037057)
(-0.70212262 0.078878046 0.0054888711)
(-0.72262125 0.07641515 0.0052790094)
(-0.7431804 0.073868663 0.0050759729)
(-0.76379066 0.071244461 0.004882126)
(-0.7844447 0.068548114 0.0046994257)
(-0.80513456 0.065785445 0.0045296177)
(-0.82585452 0.062961686 0.0043740217)
(-0.84659877 0.060082504 0.004233646)
(-0.86736363 0.057152409 0.00410855)
(-0.88814567 0.054176514 0.0039986308)
(-0.90894352 0.051158482 0.0039029967)
(-0.92975605 0.04810246 0.0038200769)
(-0.95058386 0.045011021 0.0037480443)
(-0.97142762 0.041887404 0.0036847309)
(-0.99228943 0.038732771 0.0036272262)
(-1.0131705 0.03554952 0.0035737605)
(-1.0340747 0.032337939 0.0035200925)
(-1.0550011 0.029098401 0.00346629)
(-1.0759528 0.025831218 0.0034069567)
(-1.0969325 0.022538135 0.0033438518)
(-1.1179378 0.019215252 0.0032728947)
(-1.1389712 0.01586663 0.0031957776)
(-1.1600279 0.012487832 0.0031112819)
(-1.1811095 0.0090822927 0.0030196781)
(-1.20221 0.0056480488 0.0029233837)
(-1.2233274 0.0021864626 0.0028221274)
(-1.2444569 -0.0013019954 0.0027192757)
(-1.265594 -0.0048155974 0.0026155104)
(-1.2867332 -0.0083537994 0.002514575)
(-1.3078716 -0.01191303 0.0024161254)
(-1.3290016 -0.015493194 0.0023252595)
(-1.3501234 -0.019089333 0.0022395202)
(-1.3712289 -0.022701414 0.0021646605)
(-1.3923203 -0.026323968 0.002096484)
(-1.4133915 -0.029957155 0.0020401235)
(-1.4344463 -0.033595255 0.0019905029)
(-1.4554805 -0.037239024 0.0019512724)
(-1.4764992 -0.040883064 0.0019174708)
(-1.4975011 -0.044528433 0.0018907818)
(-1.5184911 -0.048170799 0.0018671121)
(-1.5394703 -0.051811446 0.001846813)
(-1.5604429 -0.055447615 0.0018270798)
(-1.5814117 -0.059079208 0.0018069321)
(-1.6023791 -0.062708764 0.0017867222)
(0 -1.4774493e-18 0)
(0 -1.0959455e-18 0)
(0 1.0343339e-18 0)
(0 -6.5426009e-19 0)
(0 -5.5908514e-19 0)
(0 3.0852992e-18 0)
(0 -9.0032494e-19 0)
(-2.0609362e-18 5.7608385e-19 0)
(0 -5.1806804e-19 0)
(0 1.2476275e-18 0)
(0 1.481881e-18 0)
(0 5.1770635e-19 0)
(0 2.757338e-19 0)
(0 -5.6779697e-19 0)
(0 3.920995e-19 0)
(-0.0052517906 0.0034346055 -0.0074454169)
(-0.0069421286 0.013267673 -0.01113745)
(-0.0079049784 0.014583817 -0.012661859)
(-0.01119304 0.021270897 -0.014741859)
(-0.013926248 0.024682447 -0.015398028)
(-0.018193962 0.029848724 -0.015910635)
(-0.022615555 0.034063673 -0.016129094)
(-0.02813365 0.038873328 -0.01624912)
(-0.034001496 0.04310598 -0.016147974)
(-0.040727228 0.047664238 -0.016053678)
(-0.047976116 0.051810442 -0.01586416)
(-0.055798968 0.055954284 -0.015642198)
(-0.064321081 0.060001035 -0.015385035)
(-0.073288426 0.063782473 -0.015115677)
(-0.082961422 0.067573998 -0.014822837)
(-0.093059591 0.071028337 -0.014521985)
(-0.10376982 0.074459681 -0.014234609)
(-0.11497672 0.077623085 -0.013889699)
(-0.12671141 0.080653881 -0.013582565)
(-0.13895171 0.08349249 -0.013233377)
(-0.15165919 0.086129235 -0.012904192)
(-0.16485369 0.088582158 -0.012549784)
(-0.1785041 0.090851089 -0.012189169)
(-0.19260343 0.092902933 -0.011818159)
(-0.2071252 0.094756717 -0.011437025)
(-0.22206275 0.096414113 -0.011049605)
(-0.23738424 0.097843159 -0.010648209)
(-0.25309117 0.09911773 -0.010244544)
(-0.26915071 0.10013452 -0.0098274613)
(-0.28554448 0.10100361 -0.009410245)
(-0.30228399 0.10165112 -0.0089843227)
(-0.31930336 0.10210134 -0.0085591838)
(-0.33663014 0.10238004 -0.0081302289)
(-0.35421619 0.10245669 -0.0077017526)
(-0.3720775 0.10238699 -0.0072781064)
(-0.39015382 0.1020908 -0.006857397)
(-0.40847651 0.10169508 -0.006442681)
(-0.42701167 0.10109324 -0.0060331357)
(-0.44574403 0.10035719 -0.0056387565)
(-0.46466848 0.09946082 -0.0052467957)
(-0.4837731 0.098427927 -0.0048714566)
(-0.50304365 0.0972501 -0.0045038248)
(-0.5224743 0.095941505 -0.0041512439)
(-0.54205169 0.094498668 -0.0038080413)
(-0.56176905 0.092932432 -0.0034803446)
(-0.58161462 0.091240724 -0.0031621794)
(-0.60158138 0.089432495 -0.0028584994)
(-0.62165842 0.08750747 -0.0025648834)
(-0.64183738 0.085472984 -0.0022847807)
(-0.66210902 0.083330777 -0.0020148159)
(-0.68246415 0.081087165 -0.001757673)
(-0.70289413 0.078745449 -0.0015108131)
(-0.72339038 0.0763118 -0.0012760984)
(-0.74394469 0.073790847 -0.0010524028)
(-0.76454915 0.071188731 -0.0008406703)
(-0.78519705 0.068511074 -0.00064068984)
(-0.80588142 0.065763935 -0.00045300949)
(-0.82659721 0.062953456 -0.00027790821)
(-0.84733928 0.060085148 -0.00011515647)
(-0.8681044 0.057165216 3.4400512e-05)
(-0.88888925 0.054198335 0.0001717841)
(-0.90969264 0.05118967 0.00029658702)
(-0.93051335 0.048143451 0.00040967002)
(-0.95135111 0.045062669 0.00051187578)
(-0.97220704 0.041950925 0.00060397534)
(-0.99308169 0.038809905 0.00068738682)
(-1.0139766 0.035639953 0.00076380792)
(-1.0348925 0.032446139 0.00083260127)
(-1.0558327 0.02921844 0.00090027309)
(-1.0767957 0.025971941 0.00096309097)
(-1.0977848 0.022692374 0.0010251854)
(-1.1187971 0.019385819 0.0010868744)
(-1.1398349 0.016049359 0.0011504928)
(-1.1608951 0.012682835 0.0012158603)
(-1.1819768 0.0092861608 0.0012838131)
(-1.2030768 0.005858501 0.001354459)
(-1.2241919 0.0024010695 0.0014278272)
(-1.2453189 -0.0010857266 0.0015027018)
(-1.2664527 -0.0045999481 0.001578677)
(-1.2875901 -0.0081401418 0.0016541443)
(-1.3087255 -0.011703005 0.0017279092)
(-1.3298565 -0.015286559 0.0017979348)
(-1.3509774 -0.018886755 0.0018632012)
(-1.3720872 -0.022501088 0.0019210934)
(-1.3931808 -0.026125323 0.0019712095)
(-1.414259 -0.029757317 0.0020111758)
(-1.4353182 -0.033392681 0.0020409903)
(-1.4563606 -0.037030628 0.0020592425)
(-1.4773847 -0.040666761 0.0020664434)
(-1.4983937 -0.044302224 0.0020624274)
(-1.5193883 -0.047932902 0.0020482575)
(-1.5403717 -0.051561998 0.0020251975)
(-1.5613472 -0.055185636 0.0019947085)
(-1.5823168 -0.058809912 0.0019594911)
(-1.6032849 -0.062431314 0.0019229393)
(-1.6206307 -0.087020217 0.0018235735)
(-1.6170014 -0.10799297 0.0017638057)
(-1.6133772 -0.12896264 0.0017072829)
(-1.6097426 -0.14993871 0.0016524651)
(-1.6061179 -0.17090844 0.0016005297)
(-1.6024808 -0.19188606 0.0015493393)
(-1.5988574 -0.21285597 0.0015008015)
(-1.5952235 -0.23383348 0.0014521635)
(-1.5916028 -0.25480619 0.0014034272)
(-1.5879685 -0.27578572 0.0013563699)
(-1.5843477 -0.29675951 0.0013079457)
(-1.580721 -0.31774211 0.0012616507)
(-1.5770956 -0.33871913 0.0012102195)
(-1.5734699 -0.35970156 0.001161496)
(-1.5698445 -0.38067983 0.0011071935)
(-1.5452367 -0.39803362 0.0010623659)
(-1.5242494 -0.39441849 0.0010709277)
(-1.5032625 -0.39080879 0.0010776373)
(-1.4822654 -0.38720368 0.0010835201)
(-1.4612645 -0.38360135 0.001087824)
(-1.4402502 -0.37999903 0.0010929484)
(-1.4192263 -0.37639308 0.0011008808)
(-1.3981876 -0.37278186 0.0011131138)
(-1.3771358 -0.36916141 0.0011313162)
(-1.3560701 -0.36553071 0.0011574348)
(-1.3349909 -0.36188674 0.00119206)
(-1.3139011 -0.35822834 0.0012358396)
(-1.2928022 -0.35455481 0.0012894494)
(-1.2716972 -0.35086491 0.0013528061)
(-1.2505924 -0.34715936 0.0014234829)
(-1.22949 -0.34343904 0.0015016491)
(-1.2083962 -0.33970474 0.001584371)
(-1.1873155 -0.33595794 0.0016702653)
(-1.1662527 -0.33220138 0.001757168)
(-1.1452131 -0.32843582 0.0018423517)
(-1.1242002 -0.32466458 0.0019241932)
(-1.1032183 -0.32088869 0.0020008815)
(-1.0822697 -0.31711055 0.0020710589)
(-1.0613565 -0.313331 0.0021345873)
(-1.040481 -0.30955157 0.0021892293)
(-1.019641 -0.30577254 0.0022390412)
(-0.9988387 -0.30199148 0.0022816365)
(-0.97808335 -0.29821037 0.002318356)
(-0.95734922 -0.29442976 0.0023553028)
(-0.93665472 -0.29064364 0.0023944699)
(-0.91599459 -0.28685096 0.0024351375)
(-0.89536595 -0.28305122 0.002483014)
(-0.87476972 -0.27923938 0.0025395704)
(-0.85420604 -0.27541396 0.0026085758)
(-0.83367665 -0.27157161 0.0026914026)
(-0.81318321 -0.26771033 0.0027902543)
(-0.79273015 -0.26382685 0.0029063305)
(-0.77232113 -0.25992026 0.0030401558)
(-0.75196304 -0.25598769 0.0031915097)
(-0.73166156 -0.25202914 0.0033601947)
(-0.71142576 -0.24804247 0.0035443452)
(-0.69126309 -0.24402872 0.0037428869)
(-0.67118414 -0.23998627 0.0039530982)
(-0.65119752 -0.23591707 0.0041733433)
(-0.63131469 -0.23181981 0.0044003467)
(-0.61154467 -0.22769706 0.0046328379)
(-0.59189917 -0.22354742 0.0048673273)
(-0.57238681 -0.21937386 0.0051034611)
(-0.55301928 -0.21517449 0.00533843)
(-0.53380415 -0.21095234 0.0055725627)
(-0.51475308 -0.20670499 0.0058047402)
(-0.49587188 -0.20243529 0.0060356696)
(-0.47717379 -0.19813935 0.0062658071)
(-0.45866127 -0.19382258 0.0064983009)
(-0.44035191 -0.18947621 0.0067283193)
(-0.42224183 -0.18511053 0.0069705632)
(-0.40434461 -0.1807183 0.0072129664)
(-0.38667443 -0.17628575 0.0074688423)
(-0.36926441 -0.17184504 0.0077245961)
(-0.35204347 -0.16737635 0.0080099309)
(-0.3351128 -0.16285995 0.008300597)
(-0.31846503 -0.1583451 0.0085987655)
(-0.30205868 -0.15379032 0.0089180619)
(-0.28595656 -0.14921904 0.0092505943)
(-0.27016177 -0.14460675 0.0096006948)
(-0.25471379 -0.14000269 0.0099586251)
(-0.23955073 -0.13535608 0.010321937)
(-0.22480723 -0.13070711 0.010691133)
(-0.21036101 -0.12605074 0.011082382)
(-0.19633455 -0.12137937 0.011457235)
(-0.18269137 -0.11670705 0.011838135)
(-0.16945051 -0.11201216 0.012219131)
(-0.15668933 -0.10731862 0.012581248)
(-0.14427389 -0.10265695 0.012958967)
(-0.13235387 -0.097958711 0.013313991)
(-0.12091522 -0.093268918 0.013655511)
(-0.10986828 -0.088606953 0.014017646)
(-0.099389165 -0.08390873 0.014328671)
(-0.089291017 -0.079271642 0.014678209)
(-0.079773861 -0.074563292 0.014989343)
(-0.070719987 -0.069908182 0.01531078)
(-0.062126487 -0.065263255 0.015615897)
(-0.054059746 -0.060615218 0.0159403)
(-0.046589641 -0.055906646 0.016204451)
(-0.039544604 -0.051340299 0.01650068)
(-0.033097533 -0.046683816 0.016724929)
(-0.027251517 -0.042029168 0.016910389)
(-0.021972852 -0.037513886 0.016992664)
(-0.017274809 -0.032947237 0.016962477)
(-0.013274263 -0.028510965 0.016757994)
(-0.0099764809 -0.023934422 0.016181361)
(-0.0076300918 -0.019587095 0.0152337)
(-0.0056662495 -0.015811348 0.013947811)
(-0.004911485 -0.011239892 0.010664)
(-0.0064054897 -0.0077416496 0.0059281237)
(0 1.6650776e-18 0)
(0 6.3289281e-19 0)
(0 1.6426828e-18 0)
(0 1.6536292e-18 0)
(0 1.723482e-18 0)
(0 1.0364732e-18 0)
(0 4.1318298e-20 0)
(0 -9.3917194e-19 -1.0304829e-18)
(0 1.1121036e-19 0)
(0 9.9981917e-19 0)
(0 2.4108862e-18 0)
(0 2.1124392e-18 0)
(0 1.5121182e-18 0)
(0 1.4613446e-18 0)
(0 1.668737e-18 0)
(0 6.8637928e-18 0)
(0 2.9225117e-18 0)
(0 1.0724787e-18 0)
(0 1.9357696e-18 0)
(0 -1.68534e-19 0)
(0 4.5120014e-19 0)
(0 5.141401e-18 0)
(0 -2.0922306e-18 -9.0725636e-19)
(0 3.0581569e-18 0)
(0 3.8230181e-18 0)
(0 1.2633786e-18 0)
(0 5.1712674e-19 0)
(0 1.2002959e-18 0)
(0 2.1640526e-18 0)
(0 2.7835487e-19 0)
(-1.6233799 -0.066320997 0.001765217)
(-1.6234156 -0.066308277 0.0017662667)
(-1.6234528 -0.066293466 0.0017693741)
(-1.6234937 -0.066276727 0.0017729395)
(-1.6235384 -0.066257259 0.0017802371)
(-1.6235879 -0.066237174 0.0017885403)
(-1.6236422 -0.066214941 0.001799551)
(-1.6237013 -0.066192994 0.0018117295)
(-1.6237646 -0.066170869 0.0018253941)
(-1.6238311 -0.066149856 0.0018388668)
(-1.6238992 -0.066130375 0.0018522149)
(-1.6239694 -0.066112981 0.0018642695)
(-1.6240388 -0.06609734 0.0018738302)
(-1.6241083 -0.066083958 0.0018801352)
(-1.6241789 -0.066068981 0.0018846101)
(-1.5654355 -0.40190762 0.0011784522)
(-1.5654817 -0.40188237 0.0011740961)
(-1.5655273 -0.40185851 0.0011659845)
(-1.565573 -0.4018331 0.0011542006)
(-1.5656191 -0.40180669 0.0011398962)
(-1.5656664 -0.40177886 0.0011248246)
(-1.5657152 -0.40175136 0.0011089883)
(-1.5657659 -0.40172451 0.0010944601)
(-1.5658187 -0.40170046 0.0010809951)
(-1.5658734 -0.40167965 0.001069982)
(-1.5659302 -0.40166357 0.0010614108)
(-1.5659879 -0.40165261 0.0010556828)
(-1.5660467 -0.40164671 0.0010523946)
(-1.5661049 -0.40164754 0.0010520344)
(-1.5661626 -0.40165153 0.0010522046)
(-0.0022180752 -0.0077298424 -0.0082815207)
(-0.0035168851 -0.011515439 -0.0099710766)
(-0.0049316761 -0.016282475 -0.012334583)
(-0.0074364986 -0.020643683 -0.013340472)
(-0.010150792 -0.025013139 -0.014369867)
(-0.013931276 -0.029526697 -0.014775523)
(-0.018170684 -0.034028867 -0.015092529)
(-0.023235885 -0.03869514 -0.015148103)
(-0.028766212 -0.043310945 -0.015141182)
(-0.034958738 -0.04802739 -0.015018717)
(-0.041686964 -0.052696225 -0.014821657)
(-0.048951847 -0.057441392 -0.0146198)
(-0.05672854 -0.062095208 -0.014350402)
(-0.06499615 -0.066809765 -0.014090434)
(-0.073770184 -0.071430208 -0.013794273)
(-0.083019956 -0.07609331 -0.013508038)
(-0.09274743 -0.080662671 -0.013195302)
(-0.1029099 -0.085242558 -0.012895366)
(-0.11357016 -0.089744025 -0.012571848)
(-0.12465986 -0.094251035 -0.012247866)
(-0.13619733 -0.098674519 -0.01191834)
(-0.14817808 -0.10307117 -0.011577411)
(-0.1605811 -0.10743107 -0.011221604)
(-0.17339561 -0.11172078 -0.010869728)
(-0.18663863 -0.11597646 -0.01049134)
(-0.20026409 -0.12017808 -0.010117875)
(-0.21427966 -0.12432571 -0.0097240543)
(-0.22866354 -0.1284144 -0.0093331068)
(-0.24342042 -0.13245051 -0.008925844)
(-0.25850813 -0.13643883 -0.0085179313)
(-0.27393599 -0.14035082 -0.0081027301)
(-0.28968221 -0.14422524 -0.007688119)
(-0.30573135 -0.14803154 -0.0072764237)
(-0.3220673 -0.15178032 -0.0068614374)
(-0.33868029 -0.15547971 -0.0064508832)
(-0.35555932 -0.1591141 -0.0060469045)
(-0.37268085 -0.16270917 -0.0056512494)
(-0.3900451 -0.16623647 -0.005262318)
(-0.40763972 -0.1697347 -0.0048824138)
(-0.42544694 -0.17317275 -0.0045194221)
(-0.44346696 -0.17657385 -0.0041672957)
(-0.46168218 -0.17992321 -0.0038230547)
(-0.48008805 -0.18324758 -0.003497658)
(-0.49868107 -0.18652558 -0.003182904)
(-0.51744168 -0.18977664 -0.0028814614)
(-0.5363719 -0.19299502 -0.0025944488)
(-0.55545931 -0.19618632 -0.0023185353)
(-0.57469817 -0.19935417 -0.0020563082)
(-0.59407861 -0.20249928 -0.0018051277)
(-0.61359425 -0.20562735 -0.0015657772)
(-0.63323432 -0.20873945 -0.0013371889)
(-0.65299191 -0.21184027 -0.0011196636)
(-0.67285645 -0.21493266 -0.0009124777)
(-0.69282012 -0.21802082 -0.00071601684)
(-0.71287318 -0.22110832 -0.00053013845)
(-0.7330075 -0.22419972 -0.00035519435)
(-0.75321448 -0.2272992 -0.00019122837)
(-0.7734868 -0.23041154 -3.8693708e-05)
(-0.79381734 -0.23354119 0.00010194524)
(-0.8142003 -0.2366933 0.00023073748)
(-0.8346304 -0.23987232 0.00034750215)
(-0.85510404 -0.24308397 0.00045197874)
(-0.87561799 -0.24633089 0.00054431123)
(-0.89617169 -0.24961965 0.00062503759)
(-0.9167591 -0.25295431 0.00069588876)
(-0.93739183 -0.25633456 0.00075447811)
(-0.95805795 -0.25977415 0.00080656072)
(-0.9787629 -0.26326102 0.00084868592)
(-0.99951019 -0.26680987 0.00088543604)
(-1.0202979 -0.27041447 0.00091648786)
(-1.0411298 -0.27408108 0.00094535372)
(-1.0620049 -0.27780835 0.00097191102)
(-1.0829249 -0.28159689 0.00099901147)
(-1.1038875 -0.28544559 0.0010262078)
(-1.1248918 -0.28935427 0.0010553659)
(-1.1459359 -0.29331965 0.0010857352)
(-1.1670151 -0.29734264 0.0011194909)
(-1.1881277 -0.30141693 0.0011540992)
(-1.2092664 -0.30554582 0.0011918879)
(-1.2304299 -0.30971916 0.0012288117)
(-1.2516087 -0.31394292 0.0012680513)
(-1.2728003 -0.3182063 0.0013037388)
(-1.2940004 -0.32251156 0.0013388403)
(-1.3151998 -0.32685361 0.0013687577)
(-1.3363998 -0.33123171 0.0013960231)
(-1.3575928 -0.33564091 0.0014148424)
(-1.37878 -0.34008149 0.0014282692)
(-1.399953 -0.34454636 0.0014329469)
(-1.4211194 -0.34903954 0.0014298579)
(-1.4422679 -0.35355103 0.0014177311)
(-1.4634128 -0.3580853 0.0013983667)
(-1.4845395 -0.36263448 0.0013705025)
(-1.5056671 -0.36719919 0.0013372632)
(-1.5267826 -0.37177565 0.0012986076)
(-1.5478985 -0.37636074 0.0012556196)
(-0.00062298041 -0.0075802599 -0.0069454313)
(-0.0021445232 -0.010341422 -0.0090492758)
(-0.0046915974 -0.016119065 -0.010440711)
(-0.0071365165 -0.020220761 -0.011716554)
(-0.010548554 -0.025062674 -0.012336126)
(-0.01445254 -0.029611364 -0.012763878)
(-0.01915878 -0.03439552 -0.012981835)
(-0.024346951 -0.039075578 -0.013089878)
(-0.030239547 -0.043814441 -0.013100415)
(-0.036664625 -0.048553282 -0.012982367)
(-0.043642422 -0.053271298 -0.01288736)
(-0.051128631 -0.057983788 -0.012670502)
(-0.059119812 -0.062658662 -0.012500041)
(-0.067607718 -0.067295183 -0.012248213)
(-0.076552819 -0.071882456 -0.012038769)
(-0.085983677 -0.076418665 -0.011755093)
(-0.095830474 -0.080894017 -0.011526451)
(-0.1061703 -0.085296725 -0.011242263)
(-0.11691781 -0.089635197 -0.01098105)
(-0.12812384 -0.09389559 -0.010688514)
(-0.13973985 -0.098074487 -0.010409604)
(-0.15179116 -0.10218527 -0.010096964)
(-0.16424602 -0.10619853 -0.0098016918)
(-0.17711772 -0.11013866 -0.0094775215)
(-0.19038156 -0.11397427 -0.0091570883)
(-0.20403046 -0.11774726 -0.0088118693)
(-0.21805625 -0.1214018 -0.0084753635)
(-0.23244721 -0.12498449 -0.0081192518)
(-0.2471867 -0.12846479 -0.0077586523)
(-0.26226645 -0.1318606 -0.0073892853)
(-0.27766889 -0.13515693 -0.0070238032)
(-0.2933847 -0.13836804 -0.0066470503)
(-0.30938895 -0.1414863 -0.0062706103)
(-0.32568405 -0.14451495 -0.0058971498)
(-0.34224915 -0.14746283 -0.0055220566)
(-0.35907178 -0.15032711 -0.0051553067)
(-0.37614405 -0.15311128 -0.004793507)
(-0.39345255 -0.15581978 -0.0044412612)
(-0.41097896 -0.15845358 -0.0040950106)
(-0.4287207 -0.16102578 -0.0037629658)
(-0.44667116 -0.16352948 -0.0034349802)
(-0.46481388 -0.16598455 -0.003126865)
(-0.483155 -0.16838264 -0.002822035)
(-0.50166903 -0.17073791 -0.0025403868)
(-0.52036096 -0.17305501 -0.0022631746)
(-0.53921955 -0.17533833 -0.0020035879)
(-0.55823671 -0.1775937 -0.0017532935)
(-0.57740492 -0.17982919 -0.001517776)
(-0.59671714 -0.18204865 -0.0012910933)
(-0.61616368 -0.18426133 -0.0010780529)
(-0.63573692 -0.1864707 -0.00087375699)
(-0.65542765 -0.18868634 -0.00068124747)
(-0.67522697 -0.1909126 -0.00049785191)
(-0.69512589 -0.19315799 -0.00032516081)
(-0.71511574 -0.19542839 -0.00016184261)
(-0.73518772 -0.1977318 -8.8431382e-06)
(-0.75533423 -0.20007448 0.00013442859)
(-0.77554772 -0.20246446 0.00026706049)
(-0.79582176 -0.20490814 0.00038953869)
(-0.81615101 -0.20741336 0.00050135385)
(-0.83653088 -0.20998655 0.00060241187)
(-0.85695814 -0.21263524 0.00069289852)
(-0.87743105 -0.21536364 0.00077202089)
(-0.89794655 -0.21818251 0.00084308896)
(-0.9185073 -0.22109273 0.00090208024)
(-0.93911369 -0.2241029 0.00095292263)
(-0.9597581 -0.22721359 0.00099660646)
(-0.98045793 -0.23043082 0.0010309774)
(-1.0012018 -0.23376075 0.0010637943)
(-1.0219982 -0.23720116 0.0010888069)
(-1.0428431 -0.24076051 0.0011140352)
(-1.0637402 -0.24443207 0.0011341009)
(-1.0846864 -0.24822187 0.0011553523)
(-1.1056829 -0.2521249 0.0011745689)
(-1.1267267 -0.25614448 0.0011965664)
(-1.1478159 -0.26027366 0.0012180899)
(-1.1689455 -0.26451619 0.0012435701)
(-1.1901132 -0.26886193 0.001268116)
(-1.2113118 -0.27331568 0.0012969778)
(-1.2325385 -0.27786294 0.0013230376)
(-1.2537856 -0.28251246 0.0013535812)
(-1.2750489 -0.28724509 0.0013789622)
(-1.2963252 -0.29206844 0.0014048508)
(-1.3176033 -0.29696857 0.0014292718)
(-1.3388883 -0.30194949 0.0014463488)
(-1.3601682 -0.30699405 0.0014595187)
(-1.381447 -0.31210287 0.0014659767)
(-1.4027132 -0.31727208 0.0014671523)
(-1.4239793 -0.32248942 0.001459601)
(-1.445228 -0.32775659 0.0014471131)
(-1.466479 -0.33306041 0.0014254759)
(-1.487713 -0.33840054 0.0013997368)
(-1.5089506 -0.34376653 0.0013665304)
(-1.530179 -0.34915419 0.0013300231)
(-1.551408 -0.35455725 0.0012902862)
(0.00014328027 -0.0065483044 -0.0061384803)
(-0.0016598698 -0.0099388336 -0.0075095819)
(-0.0036581278 -0.01499342 -0.0089641663)
(-0.0067648007 -0.019450115 -0.0098284506)
(-0.010293013 -0.024013876 -0.010335413)
(-0.014649923 -0.028725588 -0.010627909)
(-0.019441269 -0.033283985 -0.010875454)
(-0.024992413 -0.037927098 -0.010964162)
(-0.031046358 -0.04247883 -0.010936256)
(-0.037671521 -0.047125819 -0.010921237)
(-0.044825275 -0.051628477 -0.010790629)
(-0.052493424 -0.05621269 -0.010682893)
(-0.060657014 -0.060651289 -0.010496764)
(-0.069275669 -0.065122949 -0.010347351)
(-0.078388129 -0.069465284 -0.010121334)
(-0.08792084 -0.073788039 -0.0099497662)
(-0.09793874 -0.077993775 -0.009711596)
(-0.10835423 -0.082145236 -0.0095052597)
(-0.11923377 -0.086187335 -0.0092633469)
(-0.13051712 -0.090148109 -0.0090351437)
(-0.14223561 -0.094006335 -0.0087815902)
(-0.15435835 -0.097760854 -0.0085350091)
(-0.16689395 -0.10141495 -0.0082666134)
(-0.17981655 -0.10495584 -0.0079987808)
(-0.1931383 -0.10839711 -0.0077121496)
(-0.20683182 -0.11172099 -0.0074259095)
(-0.2209012 -0.11493388 -0.0071268952)
(-0.23531718 -0.11804109 -0.0068170009)
(-0.25009004 -0.12102921 -0.0065038539)
(-0.2651861 -0.12390969 -0.0061852454)
(-0.28060736 -0.12667644 -0.0058577793)
(-0.29632908 -0.12933871 -0.0055258629)
(-0.31234876 -0.13188832 -0.0051977596)
(-0.32864672 -0.13433695 -0.004864138)
(-0.3452108 -0.13668449 -0.0045334867)
(-0.36202846 -0.13893038 -0.0042073486)
(-0.37908177 -0.14108548 -0.0038859125)
(-0.39636599 -0.14314617 -0.0035707033)
(-0.41388558 -0.14513719 -0.0032621037)
(-0.43161719 -0.14703976 -0.0029578494)
(-0.44954708 -0.14888494 -0.0026712915)
(-0.46767773 -0.15065937 -0.0023855938)
(-0.48599225 -0.15238191 -0.002123496)
(-0.50448954 -0.15405519 -0.0018661072)
(-0.52316104 -0.15568897 -0.0016214441)
(-0.54199611 -0.15729042 -0.0013900114)
(-0.5609902 -0.15886772 -0.0011695575)
(-0.58013477 -0.16043056 -0.00096049671)
(-0.5994223 -0.16198524 -0.00076305675)
(-0.61884369 -0.16354221 -0.00057618573)
(-0.63839165 -0.16510854 -0.0003991367)
(-0.65805605 -0.16669445 -0.0002324504)
(-0.67782902 -0.1683069 -7.471834e-05)
(-0.69770091 -0.16995649 7.3669797e-05)
(-0.71766352 -0.17165052 0.00021322136)
(-0.73770811 -0.17339894 0.00034409626)
(-0.7578274 -0.17520971 0.00046597073)
(-0.77801388 -0.17709232 0.00057927586)
(-0.79826185 -0.17905475 0.00068366188)
(-0.81856618 -0.18110637 0.00077904469)
(-0.83892281 -0.18325449 0.00086552373)
(-0.85932921 -0.18550769 0.00094268768)
(-0.87978309 -0.18787349 0.0010113916)
(-0.90028409 -0.1903602 0.0010718745)
(-0.92083405 -0.19297175 0.0011218894)
(-0.94142736 -0.19571482 0.0011669458)
(-0.96207508 -0.19860599 0.0012011838)
(-0.98276936 -0.20162404 0.0012321456)
(-1.0035242 -0.20479374 0.0012549766)
(-1.0243234 -0.20811724 0.0012756084)
(-1.0451838 -0.21158854 0.0012919812)
(-1.0660935 -0.21521412 0.0013049548)
(-1.0870615 -0.21899504 0.0013183449)
(-1.1080822 -0.22292859 0.0013305082)
(-1.129155 -0.22701479 0.0013443008)
(-1.1502749 -0.23125108 0.0013571945)
(-1.1714395 -0.2356348 0.001372631)
(-1.1926442 -0.2401606 0.0013877563)
(-1.2138828 -0.24482691 0.0014050014)
(-1.2351515 -0.24962539 0.0014219427)
(-1.256444 -0.25455459 0.0014403403)
(-1.277756 -0.25960188 0.0014553865)