/*--------------------------------*- C++ -*----------------------------------*\
  =========                 |
  \\      /  F ield         | OpenFOAM: The Open Source CFD Toolbox
   \\    /   O peration     | Website:  https://openfoam.org
    \\  /    A nd           | Version:  6
     \\/     M anipulation  |
\*---------------------------------------------------------------------------*/
FoamFile
{
    version     2.0;
    format      ascii;
    class       pointScalarField;
    location    "1.84";
    object      p;
}
// * * * * * * * * * * * * * * * * * * * * * * * * * * * * * * * * * * * * * //

dimensions      [1 -1 -2 0 0 0 0];

internalField   nonuniform List<scalar> 
625
(
-41907.069
19846.798
5275.1173
6775.7927
3759.6486
109079.84
5107.409
-31.223184
-19176.648
-13274.261
-6708.4157
-15929.074
628.5298
4631.236
-9171.2515
-8068.2146
211.60841
6884.656
12049.574
18909.369
24006.372
30003.429
35045.71
38884.183
43163.918
46921.293
49130.997
51179.526
52202.916
52497.217
50347.303
49706.65
45862.368
40339.316
34956.847
24575.333
17341.943
-180.13624
-7054.2796
-12681.194
-17948.1
-24589.699
-28775.658
-34911.003
-37964.033
-44180.869
-47582.31
-51523.761
-54999.13
-57758.782
-59244.678
-60069.007
-59966.738
-57684.189
-55032.325
-49631.562
-44165.34
-36210.815
-25669.054
-12789.363
28185.221
22326.857
9549.8731
13336.303
10386.791
-5480.0521
-7374.1417
-16649.514
-23739.12
-25645.421
-36762.151
-41494.726
-48465.66
-51751.994
-58124.28
-59031.393
-62455.905
-62158.57
-61524.413
-59394.435
-55025.802
-49679.601
-43050.929
-33369.565
-24567.724
-11982.949
4335.1489
512.67725
-8800.1588
23871.562
29302.877
36931.436
46200.432
54927.546
59922.319
64215.421
67332.419
68314.851
68134.331
66993.307
64355.36
61095.775
55800.6
50286.129
48203.07
39443.172
35778.952
28842.403
21536.191
17179.833
12901.326
-668.43037
-37382.706
-33885.856
-29088.971
42504.076
64170.078
69137.212
16897.714
15277.655
18147.203
-6731.5164
-512.46039
-4245.8742
-7633.0915
-4323.7198
-350.82518
2957.6556
6769.8398
11564.878
15256.804
18991.872
22411.378
25978.527
29052.783
31024.66
32748.367
33563.69
34150.94
32751.452
31903.608
29998.473
26147.158
24976.544
19342.478
10705.373
7566.7993
-7286.7046
-6854.5469
-7811.938
-7584.4609
-8224.4138
-8540.8439
-9361.6247
-9607.4211
-10177.041
-10724.901
-11514.155
-11748.813
-12098.189
-11895.837
-11930.833
-11310.998
-10276.798
-9437.1325
-8087.9244
-6081.6609
-5928.1835
-1009.9861
925.07046
-4455.4306
-9940.9273
-13406.319
-16176.913
-19458.223
-22967.906
-26619.885
-29397.795
-31949.357
-34385.911
-36179.808
-37589.896
-38180.963
-38795.126
-38044.114
-36786.625
-34994.791
-31624.431
-28567.982
-23169.315
-17314.721
-13162.825
-4603.6801
-13861.531
-5707.58
406.90197
-9068.0828
-211.0863
8852.8255
-6590.4405
3148.1514
11704.609
7728.9236
10192.931
17360.601
-1269.1726
4254.7867
6133.5582
-12231.143
-8842.2936
-6516.4426
-18528.67
-14237.816
-13466.396
-24086.692
-19894.726
-17962.647
-29532.812
-26290.848
-24989.246
-35501.699
-32139.033
-30802.624
-41937.556
-36035.116
-37532.445
-46717.886
-41983.553
-42967.931
-51587.919
-47156.516
-48630.252
-55829.414
-50895.76
-52760.82
-59186.136
-54865.128
-57015.277
-61634.194
-57092.114
-59780.851
-62823.118
-58968.808
-61647.678
-63347.925
-59237.676
-62429.45
-61834.13
-58575.106
-61336.552
-59528.534
-55872.272
-59309.327
-54990.259
-52749.227
-55579.202
-50207.004
-47363.321
-49771.921
-42804.981
-40533.956
-43198.571
-33599.462
-32260.626
-34450.641
-24683.18
-25893.611
-25959.794
-18146.075
-14710.204
-17459.66
-20960.453
-22507.918
-23957.52
80.400964
-302.43047
814.98548
6764.2829
8049.2317
5646.4777
-8313.3842
-4550.7736
-1341.5875
-3655.6497
-2066.5999
1848.802
5196.9763
6971.7755
11855.98
11593.674
13296.4
18058.851
17327.413
17578.765
23193.951
25542.871
24664.357
30578.725
31527.381
29259.363
36949.578
38176.976
34457.288
40485.163
42817.784
39512.03
48657.725
49216.659
43199.51
52836.32
54345.187
47116.294
56891.922
58066.985
49900.225
60528.115
61016.282
52631.493
63081.673
63151.645
53974.317
64397.014
63943.745
54722.119
64793.092
63077.339
54180.655
63620.077
61194.948
52870.176
61625.747
58149.786
50151.66
57528.942
51844.149
45496.825
52074.039
46846.475
38746.26
46637.192
38962.352
33488.173
38309.435
28391.329
27234.132
27730.682
26631.736
27583.702
28870.16
11751.976
12915.725
10660.831
14516.012
19356.845
20821.971
24869.339
27713.873
29994.988
32387.227
34504.22
35739.383
36309.271
36964.653
36144.702
35494.698
33166.269
31338.384
27915.265
23157.482
18511.357
11397.597
2745.1313
7070.3352
7078.833
3741.2758
6262.313
6007.8786
6039.9416
6807.8796
6439.1962
6889.155
6948.6673
7758.9429
7565.2761
8613.1517
8633.7635
9470.7334
9647.5212
9955.8486
10594.664
9462.355
9529.1323
9475.6412
7451.6748
5107.3669
7544.5036
7476.5706
6901.2388
-542.4949
-2342.5455
-7223.676
-11789.185
-12592.484
-16647.747
-19123.997
-21641.503
-23443.119
-25873.629
-26897.886
-28744.583
-29374.5
-29470.799
-29464.309
-28221.695
-25089.823
-22017.92
-15592.196
-12735.456
-9630.7786
-1842.5704
-177.06637
552.68494
2733.9054
7100.2847
2454.1807
6707.2114
12412.33
4462.8693
9983.345
10535.007
10555.143
14287.2
17950.361
11014.419
17874.41
20545.176
15647.302
22089.936
22647.216
17846.44
25141.698
27918.095
21686.198
28659.509
30595.955
23019.291
32019.641
32719.011
25163.76
34133.034
34978.001
26324.295
36369.79
37067.274
27660.743
37434.582
37761.584
28019.072
37950.208
38419.515
27771.447
37482.64
37891.252
27026.281
36668.49
36882.275
26321.023
34755.066
34979.121
24082.774
32078.104
31585.752
21559.662
27815.888
28974.748
17595.103
27203.28
24850.872
13579.869
19007.682
17523.327
11433.837
11807.03
14658.065
2261.5191
-351.75018
526.97761
-3671.2633
880.41888
7260.073
-4593.8926
-1997.2232
2397.049
-5486.9112
-2663.7892
1981.7291
-3700.3833
-717.54676
2454.6717
-4165.5996
-1718.3687
2290.8085
-3800.8702
-1154.0218
1306.7881
-3954.9987
-928.2813
1421.6715
-4039.3242
-739.84007
458.95667
-4045.752
-944.42848
-574.55928
-3834.5043
-992.20119
-436.40726
-3989.3011
-449.00535
-1586.8705
-3142.3469
-162.01196
-1936.2234
-2773.0983
555.25847
-2227.8169
-1647.9738
993.25983
-2526.7595
-1126.8188
1912.3636
-2000.908
403.68269
3145.2868
-2080.524
1629.8831
3526.7761
-1533.3647
1931.6286
4159.3186
-1381.8552
3677.8236
4622.7556
662.75291
4441.7267
5677.8297
-1539.9151
3641.7202
-92.130268
-793.11934
5587.3713
5311.8918
1561.2421
5623.4573
6150.8766
6009.1521
-2232.2283
7325.9368
5754.6222
-3702.3232
-1685.3244
2958.7164
-7135.1884
-191.1529
3278.862
-10277.834
-7213.4004
-3832.4886
-14667.146
-10208.93
-7895.3444
-18009.869
-14660.564
-11289.682
-20434.174
-17462.43
-14815.342
-23736.637
-21691.997
-20084.79
-25621.199
-24682.854
-20715.203
-28680.102
-26592.111
-24535.324
-29561.784
-29538.427
-26761.997
-30906.017
-31361.201
-28346.082
-31661.512
-33507.235
-29962.881
-31888.355
-34723.716
-30845.681
-31427.622
-35839.536
-31054.301
-30830.606
-36140.268
-31621.364
-29598.364
-36559.414
-30710.733
-27925.348
-34780.559
-28915.707
-24935.819
-32675.647
-27934.368
-21973.51
-30912.588
-24337.334
-18633.589
-24929.31
-19816.18
-12387.265
-16760.194
-10288.588
-6013.5456
-11736.568
-9017.21
)
;

boundaryField
{
    free
    {
        type            calculated;
    }
    fixed
    {
        type            calculated;
    }
    traction
    {
        type            calculated;
    }
}


// ************************************************************************* //
