/*--------------------------------*- C++ -*----------------------------------*\
  =========                 |
  \\      /  F ield         | OpenFOAM: The Open Source CFD Toolbox
   \\    /   O peration     | Website:  https://openfoam.org
    \\  /    A nd           | Version:  6
     \\/     M anipulation  |
\*---------------------------------------------------------------------------*/
FoamFile
{
    version     2.0;
    format      ascii;
    class       pointScalarField;
    location    "0.14";
    object      p;
}
// * * * * * * * * * * * * * * * * * * * * * * * * * * * * * * * * * * * * * //

dimensions      [1 -1 -2 0 0 0 0];

internalField   nonuniform List<scalar> 
625
(
473099.12
-731088.82
404.66792
141.03062
887567.06
-1326709.2
153.3526
58.538362
344767.84
-26397.378
-69168.043
46.822607
562.74495
654.61455
182965.4
202932.53
191825.29
182123.54
158463.4
145164.66
124157.67
104247.18
90219.143
70493.081
57334.348
44951.227
36077.728
29184.968
24746.298
21437.815
19419.211
16466.333
14468.156
11785.964
7591.6834
3959.6586
1944.9463
-239493.47
-161247.86
-205570.71
-156893.94
-139671.87
-132807.35
-106000.18
-90780.634
-75781.977
-58327.345
-45195.807
-33602.561
-25769.276
-19960.234
-16450.68
-14105.981
-12492.056
-10500.136
-9838.5955
-7072.3219
-6243.3043
-3296.7993
-1724.7624
492815.71
3373.6305
-136133.2
-239079.32
-302875.7
-206900.93
-178421.17
-194183.79
-137155.44
-120093.04
-105551.35
-83622.893
-66771.786
-48857.884
-35725.336
-24789.663
-17232.685
-12655.525
-9705.0851
-8520.6084
-7569.9506
-6463.9752
-4879.8787
-3349.7879
-1882.2325
-1464.1308
133.95646
6.8821404
-1027.021
2004.2144
5305.6958
10098.355
14392.125
18768.622
22389.609
25611.214
28644.857
31863.136
36052.246
42019.718
51771.499
62145.274
74332.52
101340.6
114353.61
136084.46
149269.66
188209.04
182190.2
212300.84
240000.38
206799.42
511138.3
515539.62
483464.13
-800667.51
-801406.21
-788024.36
1902.4937
1515.286
1544.5527
-549.33177
-1228.6778
-735.87303
112230.63
121170.79
118781.17
103495.32
91699.991
86198.349
69639.2
62310.147
48980.334
40579.309
33156.212
26292.07
20705.527
16702.299
13925.775
12474.085
11534.359
10719.523
10616.043
8756.9446
7146.5232
4126.5313
2335.3696
-26209.543
-18749.225
-23358.899
-9086.8304
-15630.89
-8732.3209
-8152.5924
-4302.4294
-2996.9575
-536.39425
761.85055
1782.1328
2390.2274
2524.7172
2222.1831
2053.7657
1860.5855
1757.0086
1958.0375
1045.2439
2020.0796
14.256343
1090.6333
-144896.32
-119366.51
-104697.87
-91527.781
-95108.417
-70673.86
-65075.87
-53016.027
-43093.335
-33138.546
-25211.555
-17990.081
-13168.41
-9949.4221
-8288.8263
-7156.4742
-6269.6477
-5512.8889
-3936.6829
-3843.0132
-3212.3775
-1808.0682
-1824.2266
290693.72
284652.58
291667.57
-26638.464
-10899.696
-40184.416
-57029.464
-86415.254
-127632
-348786.8
-338190.71
-353966.18
-278371.1
-260640.63
-250069.13
-209191.35
-196310.93
-212774.4
-167270.55
-166071.39
-166442.34
-158003.12
-154893.82
-166218.67
-133402.12
-126118.07
-128812.79
-115803.26
-113352.39
-117622.72
-97148.954
-87883.239
-94266.431
-77513.281
-72812.051
-76113.935
-60303.064
-54950.278
-58832.757
-45304.681
-41468.261
-43223.849
-33622.032
-29761.232
-30988.977
-24762.902
-21662.948
-22287.488
-19326.594
-16381.497
-16813.938
-16293.55
-13462.698
-14005.305
-14760.719
-11692.723
-12431.856
-13562.334
-10551.501
-11165.75
-12307.704
-8985.9747
-9716.8665
-10497.062
-7988.0321
-8167.2783
-7975.2794
-5537.14
-5628.2951
-5656.4475
-3937.2828
-3532.453
-1887.3704
639.88074
-291.26592
-291.72161
453.81539
464.68354
-550.38094
-737.69678
-1168.0598
-413.48941
145.28164
-889.29623
761.94958
481.74913
363.8825
254163.79
222303.13
246342.64
238548.86
215323.31
232179.89
228798.84
203477.58
221640.37
190914.42
176315.42
192317.94
177070.81
167662.28
170867.6
156296.04
136406.17
152061.78
132087.69
125152.09
133580.58
115210.73
105006.39
112029.13
91891.981
88387.003
90589.63
74729.116
70609.364
76920.949
58437.697
56897.242
59124.368
45614.213
44424.006
47705.493
34939.215
36193.162
38676.372
28564.751
30163.144
32972.358
24179.219
26049.975
29486.259
21890.903
23107.062
27365.332
20174.404
20501.832
25318.736
18392.024
17852.671
22828.133
16504.633
14652.603
19809.727
13528.034
11123.913
15955.961
9488.5777
6751.0497
10806.677
5293.1117
3676.4592
5832.8462
1337.0686
427.39969
1084.0634
130721.29
138949.57
107305.6
117187.18
102934.11
91292.9
81590.118
70110.505
57233.4
49142.389
42434.501
34596.193
29085.873
25173.229
21569.939
18312.48
15350.576
12691.934
10276.001
8368.9936
6669.215
4809.1648
2466.8071
-14739.558
21076.295
5517.98
28357.271
26204.151
21744.478
24789.994
21706.335
18688.528
17864.68
16351.783
14379.304
13056.632
12430.331
11695.637
11027.568
10370.77
9247.1455
8199.0517
6795.7362
5390.238
3892.8263
1521.2605
-80403.967
-74599.216
-112733.31
-87573.391
-88798.941
-81363.641
-65545.098
-57604.819
-44434.756
-35518.078
-26356.691
-17803.339
-10641.721
-4381.6583
57.416214
2777.2481
3879.5177
3648.2925
2883.4478
2044.2837
1943.372
1882.7421
648.74249
168324.72
188187.86
162073.59
136329.46
156059
145308.42
103691.04
110318.98
129598.74
88926.909
121037.29
101173.6
95619.948
85791.988
96126.649
66965.55
86623.509
89027.991
65638.19
74258.198
72386.578
54933.982
59833.726
62573.566
46776.144
49545.987
56969.123
38012.333
42650.767
43141.929
31365.138
33020.547
36638.01
24803.897
27160.232
30544.677
20991.567
22257.82
25811.378
17349.49
18620.956
22321.732
14730.213
16272.012
20207.134
12483.941
14613.748
18285.64
10426.131
13200.721
16502.844
8814.3021
11782.005
14619.688
7347.8922
10394.375
12671.422
4357.7774
8854.004
9934.5668
3314.32
8854.1583
7837.2688
3160.8697
4748.6701
5133.1399
2490.5095
2872.8448
3182.6139
-29609.574
-38847.807
-19475.13
-9888.1242
12087.856
-2608.2972
10138.454
5907.5793
497.83246
3698.9096
6727.1062
-8868.3444
4950.0816
11550.854
11996.987
5723.2596
17194.081
1196.2051
9063.3894
12298.438
4174.1443
5013.5128
14917.247
8725.9905
6769.5251
15184.775
5843.168
7024.195
12700.107
8920.763
5789.9084
11976.074
8874.851
5699.4029
11444.554
9753.0383
4839.2985
9993.806
9384.4779
3713.6393
8670.7502
9537.994
2649.3858
7676.3166
8987.5677
1845.3063
6728.5586
8382.2483
1231.1056
6262.2032
7505.5205
1513.3142
5630.8123
6995.2349
844.80902
5195.9815
5911.8632
1864.0636
5295.9917
5715.053
411.56329
5230.6368
2998.0968
1908.3722
3068.8748
2210.8197
1671.0141
2641.7659
1823.8952
-139046.98
-155019.88
-172865.62
-96545.778
-81822.514
-119210.09
-90127.609
-141767.68
-123413.58
-112584.9
-92967.587
-98851.156
-77834.837
-95105.942
-92840.122
-73230.636
-84233.729
-83781.373
-65728.835
-72463.898
-67671.063
-51648.818
-58963.646
-62800.532
-41270.459
-50739.144
-47830.321
-33991.84
-38127.739
-38258.942
-24641.906
-28488.742
-28143.48
-18302.653
-19959.887
-19994.231
-12787.984
-13299.061
-12765.812
-9115.9245
-7783.193
-7312.1407
-6299.0099
-3892.3616
-3477.5489
-4395.4162
-1334.798
-1067.403
-3223.317
280.83673
55.379839
-2162.1307
911.79158
636.76204
-1639.8026
1446.2207
1207.1019
-1479.9003
1520.8128
262.87938
310.9583
1193.8333
736.09972
-516.26084
263.32078
-752.00877
1629.9558
2363.8766
2507.3043
)
;

boundaryField
{
    free
    {
        type            calculated;
    }
    fixed
    {
        type            calculated;
    }
    freeTop
    {
        type            calculated;
    }
}


// ************************************************************************* //
