/*--------------------------------*- C++ -*----------------------------------*\
  =========                 |
  \\      /  F ield         | OpenFOAM: The Open Source CFD Toolbox
   \\    /   O peration     | Website:  https://openfoam.org
    \\  /    A nd           | Version:  6
     \\/     M anipulation  |
\*---------------------------------------------------------------------------*/
FoamFile
{
    version     2.0;
    format      ascii;
    class       pointScalarField;
    location    "3.6998626015831246";
    object      p;
}
// * * * * * * * * * * * * * * * * * * * * * * * * * * * * * * * * * * * * * //

dimensions      [1 -1 -2 0 0 0 0];

internalField   nonuniform List<scalar> 
625
(
-110717.12
98151.061
6275.2662
8796.3729
-76029.641
329093.92
6591.5219
-3583.7238
-64750.786
-26468.421
-32832.017
-18247.938
-122.45587
2525.2517
-28950.798
-29166.109
-16063.156
-6779.3276
5704.8489
14649.273
24750.721
34434.364
42912.997
51877.304
56558.308
60023.702
64569.027
65838.05
66217.478
65560.03
61881.201
59209.885
52847.315
47927.081
39061.419
30682.39
21589.192
28398.41
12124.452
10521.613
-2323.0911
-6848.9313
-11911.972
-20924.224
-23420.457
-31269.067
-35343.526
-38911.927
-42093.373
-45992.258
-47210.94
-48765.294
-48891.377
-47300.018
-46928.408
-43516.525
-40668.987
-38037.567
-24969.639
-14932.484
-24635.876
46554.594
60191.7
49192.304
45332.153
14487.107
8064.1955
-2187.3026
-12852.118
-26254.35
-37412.097
-47031.274
-54762.06
-61919.695
-67672.275
-72278.524
-73234.157
-74298.784
-73076.811
-69207.944
-65235.586
-58680.707
-49562.749
-39334.248
-27776.136
-13190.745
7510.5751
-2602.3414
-6911.1127
22810.277
25553.047
37922.14
42270.533
50185.894
54616.16
57445.495
59563.349
58721.671
59081.627
57595.235
56571.762
49046.741
45951.012
39235.429
33862.569
26372.589
19901.588
12186.686
8458.312
-2781.933
-7611.8521
-13400.306
-99963.575
-82807.746
-71860.971
104653.88
168039.36
162934.44
13934.516
13767.264
14301.051
-7894.4597
38.620759
-6247.4742
-19836.047
-18375.994
-11557.724
-1820.6505
3862.6605
11317.2
19011.484
24466.587
29983.989
33480.778
36862.48
41658.586
43245.719
43812.132
44380.547
42039.635
40836.341
37542.512
31499.397
25716.621
18514.32
10153.871
11027.843
-1959.3741
-6273.1814
-3704.6105
-3278.664
-1164.1739
-1460.9054
307.63014
-21.000314
1343.0486
1744.9313
2102.7783
1612.9354
943.60542
635.16104
602.74918
-752.98838
1842.7882
-1266.3402
1302.5919
3586.9697
2616.5316
3826.2904
1125.6139
8080.52
-4130.6849
-841.65339
-6826.2951
-6619.0724
-11985.327
-13356.801
-17145.843
-18539.661
-20919.183
-24113.383
-25860.049
-26606.118
-27673.279
-27661.448
-27335.653
-25985.932
-25790.059
-20649.995
-20320.173
-14964.973
-14471.193
-3538.41
-42576.493
-29828.838
-27541.155
-11044.913
3920.6379
15504.048
4896.7701
1278.2225
20063.378
53906.738
61734.354
56294.923
22022.425
30711.566
34965.435
8926.1784
16162.872
18384.599
-2767.015
2011.4819
2472.918
-8073.2212
-4658.8044
-1764.5851
-17716.172
-15154.926
-17770.545
-23485.168
-23355.629
-24009.686
-31358.662
-31868.227
-34508.629
-37600.099
-38870.862
-41952.886
-42084.785
-45055.871
-49642.444
-46714.845
-50999.591
-55655.638
-52303.26
-54313.055
-59619.153
-54763.428
-58376.503
-63628.155
-56935.207
-59428.16
-65710.979
-57396.939
-59925.55
-66045.943
-56936.16
-59245.744
-65173.287
-55044.163
-56974.411
-62101.429
-50810.673
-53230.235
-57595.146
-46577.092
-48677.356
-52589.291
-41149.13
-42237.988
-44660.739
-32210.966
-33576.178
-34517.536
-24034.222
-25091.621
-28078.957
-16442.894
-13752.851
-13978.452
-18965.767
-21531.972
-23393.532
3817.0599
-1233.331
-1084.6223
7706.8076
8978.0759
8395.4983
-34997.725
-26283.026
-24044.372
-27827.553
-17842.053
-16322.221
-13222.779
-9390.4633
-5901.9411
-1369.6417
882.03034
3701.4895
9579.7708
7467.6855
10720.289
19568.162
17386.522
20937.985
30853.254
24063.831
26977.756
39648.617
31835.956
34659.027
48458.255
38850.076
41127.632
53783.839
45228.058
46135.826
59387.304
50548.718
52499.246
67167.872
54208.021
53020.838
69568.091
56845.839
57991.958
72067.825
58828.547
60761.35
72545.155
59193.195
61582.836
71033.789
59289.705
60217.323
67491.497
55894.056
58999.384
60844.508
55219.712
55172.148
56217.741
49865.724
49822.991
47672.342
43130.77
43240.245
37815.655
37147.877
36039.706
28677.799
30320.554
25601.933
25493.363
27487.733
27239.598
7683.6119
1896.1174
5665.1748
5160.6231
9898.1216
13012.247
15730.95
18839.976
21688.902
24000.697
26463.573
28236.725
31201.255
30516.621
31298.284
31302.401
29675.104
28106.253
25993.324
23695.759
17112.058
15165.713
7659.8581
17774.471
8987.4428
6122.7328
5372.1541
1482.2774
2328.7283
273.14055
-271.71469
-582.62042
-851.59371
-1201.5579
-1315.9836
-1056.6455
-1200.4746
996.96224
518.28502
1632.3211
3298.194
3649.4583
4052.7795
4532.2121
4385.4306
5902.9192
32818.227
22935.431
23842.058
10023.768
4225.9668
-3656.6568
-12697.536
-17429.147
-24392.482
-29535.442
-33964.218
-38354.047
-40347.002
-42119.798
-41936.431
-42142.198
-40309.931
-37021.719
-33635.499
-30124.008
-23189.605
-14743.031
-13541.124
-28376.509
-22421.016
-8990.5344
-12749.207
-11618.804
-3843.0506
-5420.9614
-4394.8006
456.6251
-528.24393
373.68101
5265.0449
4795.1957
9316.6897
9125.1465
12591.673
12809.274
11947.472
16157.274
17601.792
17015.264
21161.262
23377.835
20002.363
26000.095
26565.009
22496.088
29698.202
29802.48
26829.003
34135.004
34819.635
26377.208
34786.141
33975.758
30968.293
35448.124
37406.668
31566.069
37033.1
38091.108
32580.273
36027.01
38415.952
31869.138
35996.582
36552.048
32585.243
32862.278
36358.991
31427.145
34062.855
32528.317
29863.656
28082.421
28887.992
25787.143
25849.474
25263.151
23701.261
19076.502
19327.924
18178.759
15461.189
12316.799
11641.024
-4180.5648
2699.5145
3080.0775
-4401.2465
12070.5
14016.387
-7383.3325
-2679.1284
5261.744
-5366.5513
-837.48499
5956.785
-3097.8995
-934.74233
5968.6382
-1707.1952
-1088.5529
2251.2969
348.47737
-2023.9212
2186.2355
891.54404
-399.12488
1166.4468
3073.0712
-165.17386
-1386.4116
3424.2142
-61.139955
-1527.4853
4771.5824
1607.4769
-3355.3464
6281.3516
-286.87183
-3527.6789
5831.6668
1052.412
-3305.6527
6468.3875
2460.0214
-4617.5723
7139.1777
2517.3901
-4392.4592
6091.443
3285.9477
-5474.8535
7348.3993
3258.9579
-3547.842
4206.7915
4990.5997
-4497.2115
5509.1341
4372.9771
-5004.1154
2908.3186
3288.2513
-2189.0989
1525.8363
4429.4925
-1158.7071
2113.4976
3229.4167
-297.18583
3121.5341
5277.7219
352.95115
5684.2401
6081.2025
4771.3947
10644.949
26959.814
28394.648
6959.7692
10996.492
18187.889
2172.8964
16803.319
14769.779
3645.7386
3145.8637
6840.6421
-6070.2227
1141.2494
-264.80744
-6965.8459
-5433.5269
-5937.2677
-11136.921
-10288.79
-12728.631
-15096.298
-15672.219
-18638.869
-17094.874
-20070.388
-24166.127
-22109.088
-25517.075
-28442.955
-23923.785
-27486.198
-33176.827
-25020.157
-31479.245
-36201.716
-26344.345
-34399.969
-38017.911
-28061.853
-36243.489
-40130.571
-27984.728
-37133.152
-40514.951
-28796.414
-37211.032
-39637.527
-27698.924
-36316.158
-38980.587
-25122.049
-34814.407
-36066.429
-24172.027
-31799.765
-31142.625
-20625.198
-26507.729
-27895.818
-19149.505
-23015.687
-23537.969
-8665.2382
-15446.042
-13842.387
-6836.2098
-11485.504
-8970.0172
)
;

boundaryField
{
    free
    {
        type            calculated;
    }
    bottom
    {
        type            calculated;
    }
    traction
    {
        type            calculated;
    }
}


// ************************************************************************* //
