/*--------------------------------*- C++ -*----------------------------------*\
  =========                 |
  \\      /  F ield         | OpenFOAM: The Open Source CFD Toolbox
   \\    /   O peration     | Website:  https://openfoam.org
    \\  /    A nd           | Version:  6
     \\/     M anipulation  |
\*---------------------------------------------------------------------------*/
FoamFile
{
    version     2.0;
    format      ascii;
    class       pointScalarField;
    location    "2";
    object      E;
}
// * * * * * * * * * * * * * * * * * * * * * * * * * * * * * * * * * * * * * //

dimensions      [1 -1 -2 0 0 0 0];

internalField   nonuniform List<scalar> 
625
(
141.84968
-2351.7751
-135672.41
-67144.82
2527.3341
-183.95879
-100126.98
-201619.69
-217.2345
39.765023
186.63778
-75219.976
-73560.438
-51337.659
2517.2055
-624.35557
-1018.9622
903.95794
-2029.9786
-118.35908
-850.67397
-1901.2784
-482.54775
-1491.6865
-1520.9077
-895.83184
-1278.4824
-787.01394
-408.72751
-362.6727
824.74095
428.85353
2008.3265
2293.5671
3459.0367
4011.5081
6890.5137
4980.3895
-2000.7285
9294.977
6480.362
3057.9874
11514.697
3231.794
6859.3714
6292.3509
4790.7067
6163.8231
4491.9443
5112.575
4290.1055
4136.9527
3836.1829
3411.085
3053.8809
2837.4044
1767.8878
2778.3488
631.67021
1215.0793
1187.404
545.33202
-1419.6665
4947.1726
14729.337
-2571.1959
4701.7103
17611.964
174.97363
9610.0157
6182.5001
7209.7871
7938.4053
5153.5377
7315.9262
5368.1057
5561.3919
5086.8967
4137.6322
3725.0833
2697.9184
1577.2802
573.40707
-822.82643
-1718.3411
-3296.0114
-139705.27
-160530.95
-152623.85
6472.9502
4045.7912
5006.3684
4839.5217
4578.4701
4247.3186
4027.8934
3483.6621
3377.646
3066.5726
2243.7738
2792.4003
1712.2869
2268.8978
651.42355
913.49197
736.88075
1043.0986
1179.1394
-2097.4989
5376.1358
-721.87105
4789.4344
651.05436
635.53781
534.65783
-2215.3285
-2313.8565
-2834.4239
-76834.902
-75872.575
-78447.229
-151360.89
-153136.89
-150873.39
2368.355
714.31472
-158.62209
780.23822
-1341.4192
695.92373
-683.89683
-4.5991737
213.90347
-39.186661
803.3307
607.6941
923.11112
1327.9356
1368.3574
1880.6843
1979.5061
1949.273
3074.6005
2494.686
2662.5339
3256.3373
2759.0502
522.83908
-24.102769
689.35808
-424.07602
353.22373
625.11507
-876.69064
535.70788
-729.91614
207.90813
-489.71848
-55.604329
-4.5249326
70.207319
225.35554
391.57844
342.2625
680.85778
764.39053
176.11581
2016.7805
179.74807
6233.2016
844.66014
-1746.7469
-1810.0112
-2681.5609
-1722.1682
-4367.1017
-1236.0165
-3114.7853
-1760.6889
-1142.5483
-1370.1648
142.04329
99.342067
1004.7565
1494.1803
2308.6374
2738.0036
3819.0299
3964.8069
5885.8328
5104.4059
7311.3417
8561.7296
-54.176399
-163.10057
-154.82364
-254.184
-278.34157
236.38932
-387.07119
-989.8236
-1165.8881
6171.6703
7614.7842
6202.4141
8153.9648
5317.3413
7531.0744
4725.9949
537.13099
6236.3196
6307.6991
7740.2225
2438.7272
11810.037
6625.4256
12417.575
6697.7712
7415.4163
6870.9155
9622.994
7850.3679
9114.9923
8087.8427
4747.2983
8924.6625
7809.0237
8305.4639
6592.6365
9304.0575
5966.0349
9584.3904
6652.8066
7070.7049
6684.424
8552.1793
6084.0674
7733.9441
6603.9209
5997.3269
7090.3399
6884.6294
5627.4844
6193.1188
6310.2437
5285.9424
6196.3722
5519.5527
4805.9874
5154.8563
5014.6092
4298.5039
4453.8685
4025.8343
3640.6229
3571.1055
3122.1516
2994.8753
2342.1138
1927.9351
1965.986
977.58282
677.975
1112.5066
-209.84548
-498.44779
135.84231
-1917.4203
-2392.0962
-1872.5114
-1943.2057
-99577.388
-98958.86
-99258.963
-89831.719
-100266.98
-101394.11
-100873.78
-91607.876
-92265.41
1551.6382
3862.6219
2409.9887
-1255.8772
-1651.309
-435.32721
2652.877
1766.4294
4315.229
-1063.5685
-918.99176
456.56016
1828.3131
1232.0957
2379.1441
1369.0935
-1236.3513
2776.6939
928.43463
415.2622
1698.7307
1336.5207
-17.710924
3483.2633
2472.809
-1029.4957
2612.6001
2227.9646
-62.505342
2624.5983
1770.1226
-61.652568
2743.1615
2383.242
559.104
3398.9116
2258.496
421.5063
3244.4614
2757.7769
782.55354
3597.3195
2969.3617
1165.1137
4023.3877
3001.4057
1448.9852
4050.1133
3795.3552
2020.8059
4334.6398
3256.5235
2217.4832
4570.3326
4211.3318
3042.7348
4635.6046
3721.0168
3660.1813
4641.0824
4539.4013
3406.5878
4750.7283
2308.3663
3570.7056
4148.5065
7568.0291
6362.291
6565.9843
1930.3515
1914.7057
-1930.9728
1722.4195
-1713.1376
-26.145227
1200.3886
-1705.4752
1513.5181
557.36371
665.20607
1152.5524
1187.8341
1422.461
1613.4194
1695.0318
1821.0675
1968.7988
1916.389
2182.83
2522.655
2268.9421
3144.5165
593.32154
2256.2415
-1441.8711
2269.5655
-87.19033
2047.8701
1552.9126
1211.9006
2360.4827
1497.2018
2016.3603
2648.3806
2086.6274
3043.1935
3166.3856
3349.5657
4012.1092
4076.2157
4500.5272
4546.1972
5374.5721
2311.1206
10298.838
754.87632
-3649.7788
-1638.6913
-6713.8943
-2629.6738
-2578.603
-5200.316
-572.62333
-4327.2926
-231.6077
-1928.5571
43.804893
-44.002465
1283.4765
1618.8529
2593.7305
3338.0028
4193.0341
5118.0019
6419.8306
6726.1016
8894.0806
8488.8298
855.37316
1526.5753
1322.0835
921.43624
1196.5516
1598.6658
-541.89437
-1541.9865
-589.61321
480.85306
1444.1171
2066.3912
718.6608
-358.52247
1021.9569
963.74786
975.34737
168.80047
674.06614
481.61582
2686.414
1779.6598
1593.3037
1055.0989
1420.0129
1014.6861
1759.0075
1782.9053
2040.0885
2271.5762
2912.4001
2085.6253
2324.0178
2282.4278
2215.2103
2838.4848
3289.4002
2889.8452
2899.9564
3256.4995
2915.2063
3105.2289
3410.838
3095.729
3190.3795
3700.1021
3464.6728
3287.7373
3512.1047
3367.6283
3170.9434
3521.5422
3564.4652
3186.5254
4003.418
3751.8879
3148.6296
2367.8476
3501.9342
2460.5336
2112.7633
4853.7199
3140.5972
3535.7271
3928.3975
2023.1768
4072.5251
2997.9282
3469.4128
-41.110335
138.18456
285.38697
1213.3394
1998.5754
2166.3549
181.65334
-2217.8883
-337.8826
347.7192
2096.8539
1843.5277
2194.5008
-301.70486
-220.41314
753.94102
267.30844
1034.346
987.40235
460.80432
400.44996
2377.1324
875.08006
-190.41689
1015.6348
-365.83309
462.53162
2357.1146
1172.8528
582.3081
2019.2588
-95.639631
-44.01146
2205.3863
735.70006
802.93681
2627.6478
907.21499
174.9577
2416.3687
599.17444
414.76172
2915.5035
1232.8494
633.77032
2743.6979
992.8545
500.16601
3030.0837
1443.1521
638.56222
3123.2646
1235.1442
795.81496
3198.3975
1998.4596
805.11771
3389.4459
599.26407
661.21525
5852.4872
281.0458
2832.4942
891.96185
698.72846
-1166.942
7770.3611
6571.1132
8071.7854
2349.1837
2091.8097
1893.973
-2023.652
-3997.1027
-3398.7722
-1629.3146
-29.599826
517.34157
265.08852
-4033.6287
-2802.8089
-2174.3104
-2381.8964
-1039.3164
-1061.1679
-3574.7102
-1152.0747
667.21186
-2630.0656
-1211.3958
-1140.1179
-3248.2664
563.03357
884.09123
-2601.1127
182.36873
688.73465
-1813.6147
1247.1352
1129.9173
-2084.78
1569.5286
2051.5998
-760.46947
2571.8121
2096.4697
-815.56053
2888.6854
3086.8664
174.5437
3683.3163
3281.4996
494.57357
4224.1023
3949.3977
1447.1345
4779.3416
4409.3182
1843.8095
5306.3706
4977.8542
3066.4064
5998.6465
5274.5288
3123.3378
6093.8045
6027.3664
5535.747
7553.6626
5492.0749
4846.0646
6600.2042
7056.509
7635.3004
9621.5831
6874.7293
7675.1872
6768.3793
)
;

boundaryField
{
    free
    {
        type            zeroGradient;
    }
    fixed
    {
        type            zeroGradient;
    }
    traction
    {
        type            zeroGradient;
    }
}


// ************************************************************************* //
