/*--------------------------------*- C++ -*----------------------------------*\
  =========                 |
  \\      /  F ield         | OpenFOAM: The Open Source CFD Toolbox
   \\    /   O peration     | Website:  https://openfoam.org
    \\  /    A nd           | Version:  6
     \\/     M anipulation  |
\*---------------------------------------------------------------------------*/
FoamFile
{
    version     2.0;
    format      ascii;
    class       pointScalarField;
    location    "1.88";
    object      E;
}
// * * * * * * * * * * * * * * * * * * * * * * * * * * * * * * * * * * * * * //

dimensions      [1 -1 -2 0 0 0 0];

internalField   nonuniform List<scalar> 
28033
(
1331.9475
299.50286
-319804.45
-158004.57
1106.6097
4402.228
-234843.31
-477508.84
610.88933
438.02855
358.143
539.07884
247.08917
410.88202
341.99505
288.73627
359.23781
189.63288
158.32996
197.4692
288.47286
51.68188
-426.53555
-180638.84
-177223.74
-175963.56
-176186.15
-175953.6
-175563.32
-175896.55
-175404.13
-175251.61
-175352.06
-174562.15
-174928.6
-174070.59
-174077.61
-130303.31
1625.9678
338.98355
489.51364
148.2797
361.79172
289.98481
351.17986
80.288122
358.76389
72.697775
250.62347
188.55311
216.08671
298.1695
274.7356
398.81656
225.09181
607.4047
307.57966
598.93935
503.16112
635.4894
483.52757
802.83786
508.36278
846.99802
596.59016
936.39139
725.42814
964.25907
962.4258
970.17218
1021.8611
1000.1533
1147.7812
1224.8232
1174.8759
1411.9989
1310.7756
1498.7166
1446.1178
1619.7631
1613.045
1758.704
1776.0401
1929.6685
1917.9688
2104.275
2073.5857
2244.6668
2235.2088
2362.0616
2389.4078
2464.2892
2513.4016
2565.6927
2603.4705
2646.4164
2674.3976
2702.9079
2712.6029
2744.8971
2730.1763
2754.6518
2775.4871
2746.7499
2681.373
2696.5047
2650.605
2794.9995
2679.9057
2647.7288
2676.2669
2483.5484
2730.5031
2300.1626
2744.543
2170.6161
2741.449
2060.0153
2688.5868
2084.1965
2653.511
2092.0688
2556.3484
2357.2971
2392.8254
2387.3534
2354.8979
2676.027
1333.2957
3170.11
1128.6974
1099.5246
4606.5139
4539.085
-2688.5799
2655.8532
-944.33702
1193.8461
1153.746
707.01069
953.2966
1445.6733
842.41715
1578.6962
1139.4218
1678.6141
1341.4777
1641.4617
1524.5721
1684.2206
1797.9667
1746.8241
1850.9364
1468.2672
1795.6462
1336.9259
2137.2451
1641.3861
2473.4341
1724.7215
2389.1278
1804.4984
2327.5397
1811.0893
2261.9474
1963.3392
2264.2412
2153.9256
2382.4386
2234.7912
2429.6038
2310.2927
2536.2804
2459.2306
2599.1619
2591.4397
2713.5604
2693.6623
2820.2591
2808.9134
2904.1616
2920.2759
2977.9218
3007.9906
3051.9158
3065.6514
3113.6201
3112.7338
3142.0539
3146.7325
3154.3778
3146.1474
3154.8501
3123.6021
3128.2402
3086.0432
3082.6662
3022.4093
3008.4304
2932.1908
2950.9125
2934.7493
2837.5691
2740.66
2671.3001
2675.8473
2535.2385
2529.7999
2430.8563
2333.049
2327.2189
2166.5869
2179.288
2052.6823
2010.4728
1914.5157
1880.696
1775.2212
1718.9987
1669.8972
1592.2662
1476.1442
1511.8257
1389.2496
1238.5692
1143.0133
1509.0513
-672.43165
429.17833
342.83469
-33.035721
505.59533
73.05528
199.19519
245.36373
147.03627
245.25271
157.62124
204.73169
122.03413
-8.2012408
-465.95751
280.48091
3820.4592
5264.7135
-5739.3172
2782.3895
529.183
-18.534775
1591.8831
1317.0314
1526.1798
1278.3734
2024.1489
484.61243
2441.888
64.128268
2576.5816
636.24853
3303.763
-44.360132
3550.8711
803.31221
2512.7983
2458.1538
1738.8828
2260.6594
1676.3127
2406.4086
2360.095
2145.9615
2497.7521
2054.8574
2128.4963
2240.9935
2201.1825
2236.9388
2353.3646
2932.6207
2151.026
2499.2759
2449.5999
2498.6316
2586.057
2632.6421
2691.7189
2740.5136
2807.6899
2847.3654
2901.7485
2943.3904
2982.9345
3017.8264
3043.4975
3070.0042
3090.492
3091.9812
3106.2761
3099.2127
3088.128
3076.8233
3045.3142
3021.9414
2973.9814
2940.5722
2876.6335
2832.253
2761.4686
2716.1339
2597.7587
2603.4818
3260.3927
2127.4887
2413.4397
2166.8692
2102.1742
2004.703
1893.0559
1782.3569
1668.088
1574.5392
1425.3438
1357.0769
1196.6521
1149.833
979.37727
949.32263
759.73722
723.63437
536.04282
460.13331
306.49874
187.00419
85.312249
-103.86824
-117.58162
-124.96811
-2573.9061
-370032.96
-349531.27
-309818.76
-373283.57
-310790.21
-374044.21
-311914.01
-351558.06
-374678.01
-352617.55
-313060.31
-377544.36
-313700.55
-378328.39
-360124.46
3657.1622
440.52024
2355.1874
2021.5344
2455.5919
2361.2345
2512.6181
2553.6741
2522.1343
2633.3731
2608.9218
2639.7196
2711.1586
2689.9563
2759.4572
2789.9333
2853.3305
2878.5197
2957.6673
2973.679
3049.8383
3060.566
3149.7712
3106.4805
3260.7679
3287.3698
3170.8843
2802.717
3368.0725
3312.6527
3368.3634
3365.6349
3365.8302
3367.4473
3354.3361
3343.4075
3321.8238
3294.3434
3262.7199
3222.1297
3177.1444
3124.7999
3070.1072
3003.7995
2943.0146
2863.7032
2798.9762
2707.5362
2638.8679
2541.9634
2469.073
2379.9264
2307.6431
2204.746
2147.8401
2032.4069
2037.2601
1760.434
1561.1354
1720.2008
1683.8087
1116.5122
1628.6638
1404.799
1318.2471
1094.0415
1139.4471
985.83163
934.79891
1307.0459
780.28599
1098.9172
518.07572
1110.5931
584.56735
721.66778
622.79808
518.72841
739.21876
430.22168
332.51673
-60.360521
790.69383
-198.05715
1128.87
-182.14397
362.44241
-291.98873
693.8409
-68.269633
41.630755
127.29412
1162.0517
-1152.6139
2829.4244
1167.7452
1146.2671
921.9184
905.9495
840.52333
926.31896
639.04879
908.64744
791.71505
991.95889
634.92457
645.08419
673.30516
618.62722
-175.6046
-737.44174
-508.04249
-1528.2865
-934.58133
-951.28602
-1708.791
-1176.3533
-825.31515
-1458.0621
-724.09978
-803.92681
-1022.1701
-873.23309
-892.22736
-1052.4523
-176940.92
-177257.88
-176761.47
-176958.18
-176933
-176966.21
-176940.47
-176919.52
-176867.99
-176843.84
-176965.26
-176727.27
-176813.53
-176799.16
-177694.36
-359029.04
-360000.14
-359907.47
-359907.46
-359825.18
-359903.5
-359819.45
-359845.09
-359799.41
-359732.84
-359733.08
-359833.48
-359361.95
-360664.78
-357919.9
1820.7422
-101.29389
172.88507
152.53395
-96.546858
128.46444
-243.08849
97.165396
-306.49782
181.7568
-360.22207
184.73845
-318.3095
297.67313
-367.07858
249.121
-74.895144
180.24941
-39.440965
237.12441
127.4008
205.40139
356.50929
258.04314
395.44587
369.52634
522.16249
458.20395
536.41096
631.58362
554.37193
686.61555
776.59342
812.65944
968.07022
846.78485
1021.3614
965.35184
1080.9718
1126.7738
1279.5878
1243.6007
1369.7679
1438.7193
1436.1542
1546.4504
1553.8896
1632.7707
1647.0111
1718.8259
1733.9562
1785.5708
1809.7348
1840.0008
1868.5781
1883.834
1908.8727
1919.4861
1934.3477
1944.4034
1948.4018
1967.4091
1944.5545
1966.9124
1907.4881
1872.8271
2086.0148
1891.0718
2056.9943
1754.7267
1784.4393
1654.9105
1676.2629
1574.4666
1587.1487
1415.3413
1541.8418
1227.9583
1477.1135
1116.1923
1269.8997
1152.3894
1116.4199
987.36249
902.39579
811.49978
764.7206
802.54237
1125.6637
253.98086
1837.6339
1181.9665
867.52347
4046.89
1092.353
1245.3254
-437.97228
435.62867
-196.58916
324.34608
-21.505558
198.25408
11.032227
96.833643
29.979318
56.735876
86.455203
53.738257
108.19089
40.953576
362.60305
-88.703067
378.95143
111.88009
407.03055
145.43312
454.27857
166.16417
457.96538
278.52614
495.72194
346.87483
492.67806
471.84633
565.33733
553.20218
689.77386
616.91418
680.21774
683.17396
779.34534
881.25222
997.99605
971.68163
1069.8186
1045.7123
1138.0695
1225.5409
1194.0354
1245.0194
1333.0417
1335.7729
1400.2819
1438.2707
1481.5724
1511.2776
1553.84
1585.481
1613.0115
1646.0511
1671.8104
1697.6093
1719.5121
1747.1034
1763.2003
1782.6565
1809.8982
1801.6423
1854.0214
1839.1353
2075.1295
1989.7769
2256.8022
2158.2977
2201.1769
2331.6997
2269.3285
2357.6631
2187.3102
2402.7004
2085.307
2456.6786
1958.257
2557.1835
1771.0263
2607.7919
1812.7516
2380.4377
1605.081
2563.1367
2005.0819
2542.8428
2297.6739
2002.3411
2628.1014
2382.3738
1719.3689
3320.0243
1791.244
1795.7141
1082.4746
-383.1761
390.33383
-119.44582
144.4674
-20.838456
-47.365343
131.17701
-0.5642606
168.58455
-12.523722
278.24837
10.757455
338.62593
125.62421
315.406
216.21077
460.65168
204.63323
453.66158
347.63224
500.47774
466.92251
592.51781
532.95995
623.55801
625.82789
694.16682
692.40963
733.83219
777.95114
758.45608
851.25985
877.99369
946.70869
995.60148
920.17257
808.43923
954.68597
938.95835
1057.6944
1096.4032
1063.3641
1173.7929
1225.3134
1272.9648
1287.6863
1353.4981
1376.8395
1402.6328
1451.1666
1463.6701
1508.9508
1517.7175
1563.0858
1570.0261
1606.8347
1620.7299
1652.5572
1663.8731
1696.3513
1717.2204
1726.486
1774.5135
1778.8596
1703.1131
2180.3039
1801.6657
1930.3172
1821.7779
1813.9591
1677.5888
1687.4139
1689.3223
1662.6693
1641.3433
1639.3925
1613.6153
1596.5038
1530.5589
1691.6099
1346.9309
1642.9859
1565.6705
1548.7454
1297.8513
1502.9712
945.65934
1864.1194
1175.5708
1348.2899
1863.3838
1274.2611
1710.6792
1513.328
604.45272
-70.442116
264.24607
75.931427
186.08889
26.249805
177.07002
121.6173
24.359544
91.93357
97.838486
123.48989
9.8227695
277.10863
-66.68069
363.64816
-47.467635
359.58479
18.576836
443.57
43.477789
431.30508
68.190814
384.26746
122.91019
368.74917
181.96068
361.34455
232.00825
397.17106
276.06032
412.93046
381.82465
401.31875
441.93676
443.10777
477.60339
888.49517
786.28996
869.8561
860.99218
918.54091
969.84817
999.93358
990.63307
1016.5363
1042.1537
1071.169
1078.2743
1108.7199
1125.922
1135.0366
1161.7932
1164.4242
1189.787
1191.4056
1217.1876
1219.0602
1241.9843
1250.0563
1268.1189
1285.0418
1288.2938
1318.6763
1309.9992
1362.5197
1301.8537
1340.2187
1486.7107
1370.9285
1573.6389
1594.9609
1537.5145
1481.1129
1590.4763
1496.6439
1677.0717
1456.7827
1798.8094
1465.9447
1894.2634
1375.2356
2251.0332
1224.6509
2057.0824
1464.3832
1941.9237
2003.9946
2112.9838
1586.4668
2719.9037
1405.9026
2729.609
1384.7938
2752.5699
623.69775
-221.68163
317.17398
-139.40408
172.02208
-54.276312
128.47008
-7.7617223
77.948418
151.51912
57.808875
160.00883
134.02844
229.13376
136.64416
348.44211
151.61736
420.9153
171.96433
424.00836
198.02107
494.29295
258.98364
573.16855
343.49697
574.69575
455.67134
562.25073
525.08276
581.38982
585.55804
646.27415
630.73987
700.73852
710.44791
733.95033
892.54462
644.23063
723.26726
691.14961
834.51126
793.39425
832.30952
876.41185
922.20314
959.88243
1008.1326
1016.2387
1056.8047
1073.5243
1106.9633
1110.9998
1157.5996
1153.2759
1195.2386
1201.0192
1236.331
1246.7114
1281.5004
1298.4858
1329.0527
1354.7844
1373.5513
1434.2918
1413.0011
1464.1028
1570.5558
1412.6546
1541.0646
1493.4442
1632.6455
1459.4001
1659.1388
1984.1493
1829.5344
2005.636
1821.8213
2054.2087
1893.8435
1993.701
1958.2566
2092.537
1878.5183
2065.6562
2169.454
1787.1921
2324.2392
1584.9999
1879.4091
1848.4765
1884.5145
1752.9562
2016.9297
1498.4062
2702.4189
343.32537
1.2219122
263.87556
65.379373
151.08431
132.47052
87.748174
131.41673
103.64918
108.55372
84.970817
206.65644
46.472475
274.25449
51.951448
307.66358
48.743655
377.69521
75.393677
447.04525
127.29085
473.0666
151.7276
453.53809
137.13003
464.32198
151.29934
442.56528
230.31925
421.24952
299.91471
377.90149
350.4143
388.73658
361.86628
463.75236
315.49778
858.7577
542.09588
687.93971
634.19377
703.94754
660.00457
741.596
729.51543
752.93745
738.51632
765.31061
759.72209
776.12396
775.92841
786.77705
788.33552
795.53226
800.48504
807.1034
814.52041
816.21559
838.61486
837.2303
844.82412
881.96641
871.59654
876.88406
927.9904
922.15756
920.30886
956.59499
1043.6834
1023.9343
991.91681
1138.5803
1144.8205
571.71121
799.50714
701.21199
860.79205
751.53112
945.06893
706.47467
1239.7602
485.80996
1478.9485
600.70059
1375.9879
884.64764
1511.4191
1021.3685
2088.6102
1322.8822
2240.9818
1206.2159
2546.3119
1146.3762
3114.385
343.70126
-151.87321
385.65845
-107.23088
213.76711
-36.297025
110.56821
1.2259475
70.460084
33.843325
93.913556
61.002661
98.29415
165.36171
86.764917
253.28447
132.51276
289.7697
121.47228
354.2064
109.71045
415.43319
109.35231
433.34643
216.10492
414.92376
275.0371
432.40248
294.76136
444.16396
337.78192
466.30713
436.10894
470.84872
514.18557
502.66302
560.65276
501.37534
523.80047
648.18383
639.37978
707.4677
716.09448
761.5922
782.82739
796.74817
864.47255
867.64946
919.80817
924.49586
977.64388
974.95045
1029.8179
1032.5438
1081.9717
1089.9809
1140.3337
1155.6559
1207.2689
1214.1284
1292.4131
1300.4583
1343.2647
1427.3119
1434.5781
1515.6994
1540.7564
1636.5995
1638.7404
1642.1177
1880.3175
1712.0292
1799.8675
2027.7728
2032.1644
2224.7092
2094.7617
2290.4297
2164.1649
2428.453
2182.5345
2448.0978
2507.8205
2163.7187
2902.007
2043.1647
2909.5684
2094.9494
2675.6671
1692.9054
2370.1132
1840.6988
2496.3535
1362.7815
3526.5847
197.09553
-17.441009
214.31201
77.229931
166.82025
100.03695
164.71651
110.11679
187.81399
159.64076
187.07263
239.05251
211.80532
289.13893
226.15105
350.22243
232.616
408.61648
288.87772
445.07937
251.14836
427.38636
224.96436
533.13067
173.22196
533.90287
235.74932
499.97463
303.94081
492.10583
355.82355
491.45885
378.69641
478.83615
433.51204
479.19769
480.03254
534.31969
524.56209
596.81547
533.79333
585.99904
572.34575
601.04146
557.89533
599.95294
564.15528
581.61851
559.18691
574.60267
551.30571
558.36076
551.30712
541.55745
543.82145
533.74444
541.67217
528.05419
536.87218
537.7224
545.96752
530.58869
572.30018
550.67659
560.835
574.80979
585.51589
599.26919
570.47655
704.36149
546.52394
633.85608
720.09584
539.68481
531.81697
406.97079
516.88826
458.97914
605.94445
430.61156
704.98255
494.89498
722.04926
507.04719
913.88978
377.25657
1216.5353
424.46057
1443.5597
891.3158
2275.6106
959.95984
2338.0426
1043.5876
3349.1682
207.65183
-179.84643
325.92536
-95.713862
100.08477
-116.9601
31.887895
-158.06353
-19.51363
-164.86372
-50.552571
-125.4631
-75.370146
-67.071191
-63.685914
-19.577922
-25.106679
13.508995
-20.845503
68.243135
33.370478
263.56653
184.62107
260.17799
193.88574
339.37291
189.30167
357.18513
209.28552
362.81224
265.88516
368.87044
336.57387
424.79435
369.0603
483.1544
417.39698
511.92327
485.18169
495.29638
539.95837
549.23435
617.12752
606.76214
694.44202
685.79743
754.15271
749.10188
808.26284
806.19087
859.5125
864.23811
909.91057
921.00117
965.6479
981.59735
1028.8311
1037.8934
1105.9181
1112.3043
1164.9587
1207.4952
1249.2599
1283.9873
1343.8971
1414.7997
1433.0448
1492.4099
1589.3958
1568.6377
1671.9548
1781.7925
1714.7368
1908.7918
2057.3687
2166.3863
2210.1749
2303.8703
2216.8903
2483.4192
2257.5307
2543.0162
2428.4601
2482.7748
2750.0744
2282.1873
3119.796
2086.0202
3192.8972
2105.9746
2449.366
1785.9017
2752.3322
1483.3384
3711.9093
366.74391
-132.85818
404.29424
-56.37097
277.60983
131.74506
304.86836
173.81512
300.90489
316.43341
324.42094
373.45573
406.14393
418.36708
458.91617
463.93776
515.37549
496.6362
595.05701
547.14112
560.43443
481.92417
311.71765
475.6751
352.00791
500.30246
364.52157
551.62521
399.87073
579.60184
438.18856
577.53053
510.45793
550.08524
577.61855
579.32014
601.01543
650.52965
604.86641
716.16616
682.88258
749.65178
706.83819
772.79665
716.55059
765.21754
736.98708
766.59258
746.53971
769.85807
757.53421
760.34224
762.99624
758.98237
758.56968
760.63988
756.33168
757.43181
771.70541
744.40753
783.10181
765.51396
768.59694
780.95661
794.80676
772.50954
773.95828
838.29287
759.27508
828.96416
821.36124
769.16117
849.52982
796.26683
929.00113
899.49887
939.31249
851.69702
1039.0141
884.66
1012.8163
1057.1199
910.70944
1225.9606
924.97919
1146.5473
1258.8102
810.12784
1800.7186
552.74625
2295.7524
1333.0483
2305.2624
1437.3634
3577.5433
338.72055
-204.58855
232.02409
-331.02064
133.20942
-271.40433
-38.720504
-283.47253
-45.916826
-225.27846
-133.82239
-183.41937
-95.743376
-202.67963
-6.5456538
-233.62938
108.77933
-259.49903
156.10507
-243.87043
209.27156
-311.55811
142.35036
148.88351
209.45355
177.94006
247.22842
236.41102
237.83775
294.15198
259.30628
374.43601
304.67545
459.33658
367.94554
488.84008
471.42511
510.0015
578.34523
561.02482
643.10567
611.09096
712.0167
696.77124
782.97885
782.61672
858.83049
849.87681
917.28836
924.05442
970.30333
986.38136
1035.0665
1046.2818
1093.9145
1113.0358
1152.0537
1183.01
1215.7559
1244.3071
1302.5228
1302.5887
1370.1895
1401.6428
1429.5266
1482.5366
1555.7381
1548.2812
1609.7205
1683.6284
1652.9476
1809.9887
1756.2772
1840.5613
2140.031
2046.6116
1992.8406
2218.7359
2045.5445
2262.1628
2217.6876
2270.0133
2370.8539
2376.5547
2405.4576
2590.7394
2507.0056
2622.8549
2852.4444
2504.3317
3133.4095
2008.31
2836.829
2156.0432
3217.2358
495.71368
-498.28722
68.199486
-190.19109
135.47727
-38.351316
184.10895
62.861955
195.36877
199.79557
219.29515
234.77734
389.29413
279.05077
399.05871
434.01889
432.56779
472.95953
508.12182
518.47821
487.02102
700.00115
625.49637
554.04141
599.26851
591.00088
614.44607
666.2743
678.92198
723.13311
745.41755
740.61959
795.85203
781.922
826.03511
894.24259
855.25654
981.18146
911.2492
1036.1169
982.90655
1101.2393
1047.1748
1143.0613
1102.8904
1160.6868
1153.7446
1181.5411
1193.0957
1208.2301
1218.8018
1230.5287
1240.6612
1245.4732
1255.6978
1256.7248
1269.1646
1262.874
1273.0953
1277.783
1271.6984
1276.4556
1287.9483
1269.3471
1268.1459
1282.2385
1238.7602
1262.7463
1267.3587
1233.4254
1263.2491
1200.1984
1222.2851
1200.9487
1080.6491
1023.7454
1044.068
992.43935
1025.6436
985.31046
955.19696
1003.3075
879.73872
993.17429
784.17072
1063.9081
564.70181
1064.3486
654.84131
575.61764
1121.9436
443.95596
1950.5805
1094.2436
3147.4879
611.07828
-347.37178
122.16118
-226.87374
-166.78981
-294.78766
-150.33122
-431.40263
-199.83354
-398.69861
-312.20856
-283.62617
-361.16856
-277.04956
-254.71188
-270.1003
-106.56941
-250.91027
41.128727
-265.47611
107.47245
-246.02943
76.88584
-265.53728
240.86547
-120.31356
228.74181
18.22346
201.51304
168.45033
224.85598
299.74659
314.05467
379.88803
409.97858
452.15139
526.46647
526.52919
639.45506
610.26151
736.11132
714.36028
817.76453
832.24497
912.2569
936.69283
1017.9549
1033.6993
1107.4138
1131.4862
1190.6049
1218.7482
1272.9302
1300.4008
1345.2297
1380.3976
1414.9996
1444.1013
1488.9483
1503.1069
1544.6606
1570.4363
1598.0301
1622.1536
1656.4341
1687.119
1703.4049
1730.1953
1735.3449
1796.3053
1742.6473
1871.4156
1780.2974
1894.9531
1874.6464
2011.8177
1926.6367
2045.5045
1962.772
2045.5838
2065.2014
2063.4941
2142.4527
2130.9411
2247.2615
2215.3538
2260.1352
2621.8427
2022.4031
3019.4028
2423.4965
2586.3641
2879.7278
2112.7534
3036.3177
1016.4294
-710.80665
180.36606
-273.13482
312.45071
176.19455
270.15843
334.93114
416.23271
354.68509
480.55866
341.31833
589.61979
446.58985
647.14968
531.53907
708.9111
551.23483
980.2109
641.53465
1111.6599
772.09746
1032.3265
749.32148
965.14173
786.53326
1076.7528
886.80842
1130.5186
988.40623
1184.6083
1100.4919
1246.6833
1245.6199
1302.4263
1364.5994
1336.1594
1474.9735
1422.3805
1569.7376
1540.4824
1659.6313
1650.9651
1738.2304
1751.9443
1808.6817
1843.439
1877.5419
1919.5957
1948.6027
1983.2816
2007.2294
2040.8187
2053.9269
2082.2671
2093.7967
2108.1775
2120.0765
2125.1796
2130.0832
2128.8812
2131.8152
2116.6
2121.3326
2094.2364
2116.4941
2066.2323
2095.471
2044.9269
1983.967
2010.3946
1913.0808
1924.8581
1869.5994
1833.4812
1772.1279
1736.5595
1712.8825
1634.1498
1678.9467
1539.4903
1599.6617
1464.7166
1526.7991
1361.5475
1415.9118
1347.7545
1239.2313
1129.5205
1524.1543
482.24481
1537.589
835.22532
488.45416
2196.9633
2031.4014
-1671.3048
301.8543
-1108.8067
-263.97705
-1136.9337
-664.29219
-881.59879
-861.65143
-801.51475
-1018.4623
-842.84121
-793.83008
-983.26764
-512.88958
-1106.3109
-375.20824
-1123.6552
-102.07578
-943.43024
241.40184
-845.69426
229.98516
-872.05488
107.14972
-592.29861
135.82164
-236.23623
201.16981
147.44366
316.5479
350.08096
485.7136
486.81742
583.6187
618.15176
819.58904
792.61169
981.69955
975.38549
1122.0088
1152.1535
1268.9578
1330.5178
1432.4953
1497.9029
1600.6875
1661.2067
1758.152
1824.742
1902.3938
1972.2336
2043.974
2100.2627
2167.9975
2219.5134
2274.3061
2319.2496
2369.931
2399.538
2447.8037
2468.1122
2505.2466
2520.3421
2551.2945
2562.4893
2538.6279
2537.9579
2496.69
2631.2918
2499.6539
2624.209
2489.3542
2578.1832
2468.8951
2534.6785
2448.6083
2461.9924
2437.9966
2405.1825
2389.4374
2387.8413
2364.6802
2368.5644
2357.6646
2439.6568
2331.2814
2509.0319
2540.1581
2521.1885
2600.8166
3267.1383
2431.6052
3651.7806
4750.003
-83.395234
48.442325
-189.02581
-391.85426
-327.29448
-401.88187
-325.99631
-380.55531
-336.6014
-192.09801
-359.68154
-330.60478
-153.79396
-184.18238
-643.43678
535.89947
319.66014
145.56271
128.10057
15.560688
-30.687823
-23.805447
-104.86949
27.065317
-79.939296
-53.108048
27.219215
-43.904303
85.451974
-169.8143
181.72432
-175.59544
-238.96201
-296.77373
-374.00762
-402.38336
-386.68993
-447.59132
-416.20431
-414.27132
-339.19617
-434.78393
-379.54302
-207.47216
-372.29344
211.10335
184.55553
74.848935
-46.110745
-51.968978
-88.960997
-85.143516
-120.16418
-62.412736
-81.189204
-46.187291
-49.901926
41.815199
171.05227
-288.68401
113.01694
66.054394
-76.425735
-123.79166
-180.88056
-193.91639
-210.97739
-199.6945
-226.42388
-222.25738
-211.80571
-181.61063
-138.72304
-151.07979
-51.394292
282.40722
175.01197
116.18266
113.05123
72.125302
53.627526
33.87233
34.88594
32.524747
36.593091
66.83717
42.414777
77.605686
89.821606
71.876351
161.18764
138.78818
73.632644
29.994104
30.255859
-1.7604294
-5.6776835
-33.883861
-31.81418
-21.501159
-40.846221
1.3259408
14.590446
68.090916
32.278521
207.07511
164.59261
103.75187
111.62808
80.890764
78.264086
66.510515
57.859626
79.966081
56.891264
76.199044
73.651849
81.199011
68.479575
62.141405
76.655989
119.35437
27.433847
41.791289
10.791697
-3.8447491
-6.2873356
7.3451575
-12.591417
29.189866
2.1316449
48.065682
9.4383908
90.717526
16.06186
178.63096
151.48086
83.580389
104.26867
55.944368
65.291773
65.883941
57.999685
57.712911
37.984459
98.229214
39.278598
73.297103
132.6558
-15.56225
-177.07967
-26.469881
-158.38014
-136.63452
-182.27439
-116.36919
-168.96514
-119.03074
-167.1266
-59.849996
-92.430052
-93.285194
-36.684412
28.766061
-147.09378
-132.07342
-157.52554
-164.79873
-299.60962
-223.22231
-326.80746
-287.03727
-333.81034
-304.19328
-256.90494
-257.11757
-207.96398
-165.43906
-81.64794
-204.43755
-587.59448
22.808591
-497.45297
-325.39937
-495.3937
-398.74338
-553.93011
-442.67134
-405.31567
-379.45781
-320.78415
-378.38774
-309.61772
-44.457244
-122.79696
-245.69212
-354.93722
-545.26431
-567.92567
-662.24618
-646.29987
-555.90935
-526.53128
-539.06178
-704.32427
-651.36049
-737.57678
-742.77349
-547.41102
-993.94013
-898.69309
-803.59781
-1184.2226
-1304.7916
-1499.0517
-1378.9293
-1398.4526
-1255.2766
-1438.5204
-1406.0892
-1487.4783
-1363.0541
-1159.1626
-662.25279
-929.38958
2330.2324
4777.4113
3219.5089
4342.2376
4942.8118
4467.2692
4991.6368
5356.0145
4309.394
4894.4604
4949.6302
4854.5428
4608.2513
5269.3578
2934.2033
2416.6326
-486.36589
1370.0915
876.2812
615.16005
1724.2896
1568.2726
1752.1776
2229.8707
782.83709
1069.3488
166.98162
379.724
1764.3466
1105.6134
334.21544
817.99963
-182.73687
405.61472
1692.2609
-157.69646
-116.92349
58.074268
-1190.8152
786.21502
-119.53478
1674.231
585.90072
-890.26802
523.71631
-632.93369
588.63254
565.22978
-1135.8865
-795.65656
-343.9466
-857.11665
-301.49798
-294.61312
-1269.5914
-367.1532
-855.35728
-381.52755
735.1676
-704.13179
2968.6894
1887.3784
985.3882
2592.7018
1400.1197
1760.3828
2311.363
1871.7206
2295.2841
3001.5184
2062.374
2541.0105
1932.9283
1547.2807
3275.2719
-191.70299
393.76075
106.39539
-180.38832
115.19409
91.636499
-414.25718
-372.81261
-462.82585
-974.6334
-146.28977
-313.64346
-351.5346
964.46233
-97.815676
1508.1895
1820.6223
1468.7779
1755.8161
1080.7277
1555.5083
1623.6554
1565.932
1709.2788
1788.0865
1202.3256
1666.5123
1497.1957
993.04333
2651.8998
1433.1762
660.373
610.12441
794.4298
1111.9502
598.37269
724.21182
851.6913
432.90978
1083.5141
1034.7015
933.2638
1347.4489
747.81639
1562.6714
1281.7906
1644.614
1573.9901
1997.2452
1253.8245
1707.1894
1542.9996
1604.2153
1672.6586
1402.9587
1458.6626
1248.005
1434.3494
1286.6483
2088.2812
1685.0329
766.68445
847.0366
741.31321
875.37764
585.08402
708.70731
694.58652
258.20455
1213.6561
375.73534
1292.8479
755.83271
1051.0044
1580.1525
1358.8386
1621.9503
1531.5382
1903.8158
1638.5728
2045.2867
1853.8574
1880.9206
2274.7741
1527.1623
2406.1339
1698.0299
2049.0182
1903.8775
2458.8888
1766.8515
944.86226
1181.9108
1122.381
1041.3671
938.90304
822.12253
739.58114
328.07116
813.01081
289.66067
637.09298
569.86928
473.76624
1379.242
1490.4577
1609.0862
1248.2193
1752.0818
1507.6496
1757.316
1799.4386
1714.5494
2109.1439
1867.4267
2188.0568
1892.9101
2043.9439
2140.3256
2203.4914
1630.4642
1430.2897
1506.9576
1220.572
1262.8736
1461.5063
1043.7822
1036.1451
447.85126
550.11065
162.69653
449.38495
271.82076
151.982
1247.9052
1852.2876
1327.6557
1375.6649
1861.1913
1876.1619
1526.2534
1673.1022
1699.3084
2169.8954
2120.8037
2642.6759
2351.8429
2587.3994
2781.5424
2708.0322
1552.4381
1699.5074
1694.631
1833.5586
983.0446
1912.2979
1325.7577
1333.3139
617.73895
774.3072
103.60094
406.57403
-20.598005
80.95918
1141.0687
1926.275
1317.4485
1529.0344
1519.6598
2144.0758
1634.0786
1743.1938
1472.4342
2175.795
1973.1884
2631.5822
2337.1624
2826.3664
2341.624
3244.0119
1643.9075
1718.72
1431.1743
1598.3291
1215.0252
1769.0961
1411.9132
1663.1185
1058.5666
1278.2958
642.00724
652.42772
495.65398
439.5426
1074.6916
2181.1836
1632.9704
2014.8518
1781.0974
1891.7899
1449.9817
1992.2392
1539.8548
1978.4976
1745.4536
2068.7489
2133.7441
2474.2096
2569.9479
3290.7497
1514.3836
1529.1424
1348.4649
1796.8192
1426.3867
2138.43
1354.5872
1716.8301
1471.858
1585.034
1354.7106
1514.0286
1198.6594
962.18225
1508.7427
2481.1543
1569.4252
2088.6816
1597.915
1936.4013
1430.5621
2102.351
1657.2703
1952.8188
1497.3065
1804.3512
1703.4112
2437.1791
2325.2879
3086.4088
1571.1699
1852.2457
1520.0616
2085.2315
1491.9854
2355.5018
1443.5129
2061.8428
1388.1762
2221.4339
1662.2213
2038.6218
1508.2445
1059.3614
2375.3237
2624.0132
1393.1378
2085.6286
1534.0493
2013.2731
1573.9069
2021.9853
1613.5323
2260.7204
1550.166
1750.6179
1526.811
1741.3388
1895.3306
2259.5378
1742.8954
2069.3116
1634.7236
2195.699
1660.058
1811.9625
1510.6444
1745.5509
1608.3684
1786.8364
1838.7208
2035.3248
2097.3683
1792.2395
2656.1519
2726.9033
1539.8565
1776.2929
1627.0693
2103.5373
1739.1088
2284.2366
1845.5019
2042.9495
1816.0363
1839.76
1893.1537
1685.9071
1721.0842
2288.6676
1661.8183
1993.8202
1774.6367
2234.8935
1672.1398
2203.2361
1595.345
1966.9236
1697.123
1862.5656
1797.0695
1828.0378
2373.7459
2190.6136
2594.0308
2352.2889
1963.488
2242.4385
1899.4818
2275.4111
1891.3839
2212.1578
2022.6499
2078.7604
2022.561
2097.5723
1677.7755
1903.245
1587.7481
2542.3417
1881.4197
1942.7995
1482.3782
2328.0176
1718.8836
1845.3352
1819.7061
1791.4285
1978.3633
1811.1005
2048.0078
2102.7885
2032.1642
2224.8886
2470.2174
2202.6963
2102.7192
2181.1637
1818.3997
2057.8919
2001.3804
2090.8952
1979.2651
2018.3974
1971.691
2024.6398
2059.1125
2118.4827
1640.7424
2717.8336
2075.1983
1860.6229
1872.5949
2056.8467
1929.7147
1859.3592
1944.7115
1873.2616
1975.1867
1751.959
1877.322
1761.8233
2070.7219
2111.648
2461.7951
2389.6172
2227.1233
2382.303
2220.2834
2207.6574
2008.97
2111.9749
1940.7493
2184.8648
2163.3163
2134.6058
2073.5172
2079.9471
1850.6807
2488.0578
2374.9995
2286.3663
2073.8735
2193.0872
2132.3041
2154.6985
2087.8843
2119.9793
2028.9747
2001.5841
1948.8704
2044.8582
2053.3128
2023.4056
2672.1206
2495.5635
2135.3163
2290.9182
2234.1658
2321.5174
2119.4907
2288.0416
2067.5536
2239.071
2084.9443
2241.3024
2115.2032
2163.2153
2087.8532
2609.4212
2459.4508
2324.9306
2286.4001
2340.0038
2194.8164
2238.6596
2152.2188
2215.9423
2110.3922
2177.8566
2066.608
2153.5283
2121.7368
2099.9167
2563.7468
2606.7382
2243.1847
2415.1318
2246.7824
2340.6335
2250.0107
2327.4291
2257.2704
2302.8793
2243.4267
2314.5416
2306.2056
2340.796
2383.7682
2736.0045
2268.9576
2419.9326
2228.1096
2189.9256
2144.2084
2178.4529
2205.4469
2146.3777
2301.2563
2093.8744
2222.1748
2100.6923
2290.7302
1966.1085
2899.595
2518.1809
2073.5641
2357.0867
2201.9535
2419.1343
2121.8484
2366.9105
2111.2868
2266.4846
2392.0134
2224.6268
2339.89
2137.5135
2326.2348
2646.459
2536.065
2653.1518
2497.0556
2615.0983
2358.8185
2495.2608
2327.7248
2403.3085
2363.5066
2229.994
2347.5318
2203.3558
2436.5738
2184.9311
2745.4486
2846.4583
2412.688
2553.7839
2395.0048
2592.0228
2337.8841
2530.5979
2363.3824
2410.3656
2397.3365
2357.2562
2476.7096
2380.2145
2297.378
2918.3068
2665.4375
2594.3513
2509.721
2655.9997
2478.3808
2527.3227
2482.1666
2417.5394
2497.8266
2347.0696
2468.6354
2363.5221
2403.2792
2381.3533
2870.4768
2874.0635
2573.3962
2705.314
2556.2539
2666.0295
2501.9654
2586.8272
2517.4052
2517.3986
2504.1281
2493.7758
2479.605
2548.2245
2405.4789
2939.586
2820.5616
2703.2573
2631.6557
2720.1917
2652.1526
2597.4004
2650.0977
2520.4009
2611.3647
2500.5669
2526.4617
2556.8954
2529.7407
2466.8623
3012.4248
2983.5096
2679.563
2815.128
2720.1116
2759.158
2650.752
2699.0665
2628.1697
2667.1098
2578.5999
2650.8853
2588.786
2633.9026
2543.0566
3067.4243
2946.1219
2806.606
2799.2735
2803.8278
2787.037
2689.0983
2764.1215
2661.8305
2698.6376
2657.3942
2639.4412
2663.3369
2670.4846
2580.8433
3121.9503
3091.5933
2810.2954
2921.8638
2865.6128
2871.6643
2768.3045
2849.3144
2731.3283
2814.7947
2700.0944
2755.8189
2733.0697
2744.4557
2657.9997
3190.7765
3086.7363
2895.1825
2952.4292
2918.6855
2902.4449
2814.4673
2874.5159
2801.2964
2814.9225
2780.6833
2777.5245
2782.3017
2791.8781
2705.1938
3245.669
3182.3393
2929.2843
3029.9313
2979.1356
2998.5467
2876.3483
2988.4992
2848.2627
2929.9805
2843.2425
2857.0404
2860.0257
2855.5107
2765.9411
3296.2844
3215.341
2988.8328
3074.8947
3047.4263
3010.6665
2919.0177
2977.7673
2900.9847
2934.0162
2882.4019
2887.3367
2902.8384
2892.802
2818.4974
3352.8293
3267.9406
3022.1642
3138.7707
3072.1112
3097.7084
2969.4054
3099.228
2971.2631
3030.336
2963.392
2968.0566
2970.4416
2954.6692
2874.0405
3392.8159
3312.6567
3081.6164
3167.653
3151.8681
3125.1159
3017.39
3090.2267
2984.1613
3029.0428
2981.1406
2980.9054
2998.1831
2986.8505
2911.125
3437.1795
3355.3846
3095.9847
3232.0085
3163.6805
3180.8219
3050.1413
3179.7281
3064.8382
3122.781
3059.1529
3060.4136
3063.4521
3040.3769
2961.2925