/*--------------------------------*- C++ -*----------------------------------*\
  =========                 |
  \\      /  F ield         | OpenFOAM: The Open Source CFD Toolbox
   \\    /   O peration     | Website:  https://openfoam.org
    \\  /    A nd           | Version:  6
     \\/     M anipulation  |
\*---------------------------------------------------------------------------*/
FoamFile
{
    version     2.0;
    format      ascii;
    class       pointVectorField;
    location    "0.500171";
    object      u;
}
// * * * * * * * * * * * * * * * * * * * * * * * * * * * * * * * * * * * * * //

dimensions      [0 1 0 0 0 0 0];

internalField   nonuniform List<vector> 
625
(
(0 0 0)
(0 0 0)
(1.8352519 -0.098737323 0.024251368)
(1.7263948 -0.550901 -0.0071455582)
(0 0 0)
(0 0 0)
(1.7535718 -0.56739939 -0.0088405306)
(1.8620855 -0.11579233 0.02346065)
(0 0 0)
(0 0 0)
(0 0 0)
(1.8073578 -0.21252812 0.015414806)
(1.7799742 -0.32425395 0.0084685931)
(1.753522 -0.43651774 0.00042660874)
(0.0027146901 0.014904709 0.014764828)
(0.012533291 0.031236256 0.016467592)
(0.032404694 0.047403471 0.018157269)
(0.060986623 0.062289766 0.018878598)
(0.097281918 0.075497328 0.019621979)
(0.1422357 0.087441124 0.020354033)
(0.19384411 0.096921065 0.020947059)
(0.25293372 0.10474702 0.021688285)
(0.31877606 0.11009186 0.022407418)
(0.39102321 0.11311855 0.022871202)
(0.46938172 0.1138925 0.023471155)
(0.55349791 0.11185954 0.023615362)
(0.64302292 0.10748858 0.024021505)
(0.73733357 0.10024075 0.02414102)
(0.83614972 0.090483491 0.024307301)
(0.93888371 0.077844083 0.024256214)
(1.0448306 0.063107031 0.024352375)
(1.1537672 0.045422392 0.024299001)
(1.2649307 0.025549915 0.0241711)
(1.3775266 0.0037755445 0.024225415)
(1.4915014 -0.019907968 0.024154336)
(1.6058861 -0.044613875 0.024198346)
(1.7202263 -0.071198336 0.024645238)
(-0.0031876743 -0.013160818 -0.018180695)
(0.0087748011 -0.026895302 -0.016613149)
(0.025080762 -0.043679943 -0.019694076)
(0.051310889 -0.059926614 -0.018676816)
(0.083020776 -0.075959234 -0.019363377)
(0.12367552 -0.094047872 -0.019275744)
(0.16922968 -0.11132306 -0.019583751)
(0.22280997 -0.13049317 -0.019339999)
(0.28187131 -0.15052361 -0.01971785)
(0.34737022 -0.17120525 -0.019538133)
(0.41861447 -0.19360036 -0.019617641)
(0.49561807 -0.2167978 -0.019235644)
(0.57794871 -0.24147139 -0.019051034)
(0.66521913 -0.26700245 -0.018600397)
(0.75734374 -0.29369337 -0.018050197)
(0.85370123 -0.32117955 -0.017304506)
(0.95413146 -0.34948166 -0.016396487)
(1.0577635 -0.3784664 -0.015496429)
(1.1648129 -0.40743476 -0.014124236)
(1.2739085 -0.43675425 -0.012951003)
(1.3852855 -0.46590299 -0.011437032)
(1.4980021 -0.49467028 -0.010169118)
(1.6117782 -0.52293357 -0.0089269896)
(0 0 0)
(0 0 0)
(0 0 0)
(0.0030395222 -0.008057936 0.011925409)
(0.014224054 -0.033821678 0.013589294)
(0.033606981 -0.043091834 0.010579655)
(0.060654681 -0.061971398 0.0085814427)
(0.096148819 -0.080966276 0.0084588508)
(0.13682101 -0.096377619 0.0056224495)
(0.18517446 -0.1171557 0.0056456135)
(0.23972533 -0.13612357 0.0040255132)
(0.30036933 -0.15690984 0.0030219753)
(0.36724369 -0.17887989 0.0019704002)
(0.43977637 -0.20198305 0.00076769766)
(0.51775201 -0.22617353 -1.8215934e-05)
(0.60106946 -0.25178721 -0.0012775638)
(0.68927806 -0.27832216 -0.002310028)
(0.78204837 -0.30588276 -0.0033716778)
(0.87904886 -0.33441147 -0.0043467482)
(0.97986888 -0.36343352 -0.0053263445)
(1.0840544 -0.39304391 -0.0061619105)
(1.191133 -0.42281563 -0.0068866202)
(1.3007021 -0.45255953 -0.0075379757)
(1.4120849 -0.48221326 -0.0080141949)
(1.5251711 -0.51111931 -0.0083207137)
(1.6386824 -0.53974438 -0.0084276546)
(1.7808018 -0.45325261 -0.00079696561)
(1.8067046 -0.34111021 0.0077254641)
(1.8340347 -0.22999024 0.016255083)
(1.7472829 -0.088104922 0.021634772)
(1.6321964 -0.061504228 0.020274523)
(1.5177015 -0.036393153 0.018697419)
(1.4032582 -0.011954738 0.0168217)
(1.2901237 0.010480762 0.015099072)
(1.1785484 0.031025426 0.013241417)
(1.0691786 0.04938004 0.011583171)
(0.96251742 0.065358967 0.0098458531)
(0.85913797 0.078745563 0.0082810803)
(0.75960879 0.089596154 0.0067265158)
(0.66438301 0.097612766 0.0052482422)
(0.57381036 0.10320278 0.0034747039)
(0.48882088 0.10589588 0.0024638623)
(0.40921741 0.10604569 0.00091362761)
(0.33561567 0.10389701 -0.0006317929)
(0.26840388 0.099238591 -0.0020983701)
(0.20782843 0.092674826 -0.0038665385)
(0.15403787 0.083570145 -0.0051169607)
(0.10858541 0.072712174 -0.0071477866)
(0.069426577 0.059554333 -0.0081097287)
(0.039165203 0.04625008 -0.010830984)
(0.016828632 0.029843302 -0.011380543)
(0.0086824334 0.014550703 -0.0092021917)
(0 0 0)
(0 0 0)
(0 0 0)
(0 0 0)
(0 0 0)
(0 0 0)
(1.7329682 -0.55543741 -0.0079948619)
(1.7399114 -0.55979419 -0.0078286654)
(1.7464158 -0.56394021 -0.0084015053)
(1.8426032 -0.10259487 0.024075165)
(1.8492704 -0.1069694 0.023722741)
(1.8561116 -0.11098941 0.023505531)
(-0.0040141837 0.0091191101 0.010165315)
(0.0065314573 0.017661114 0.0086727438)
(0.02528205 0.0259409 0.0097343055)
(0.05321003 0.033110272 0.010027583)
(0.088778165 0.039114306 0.010442219)
(0.13247733 0.043765675 0.010910397)
(0.18313826 0.046427828 0.011418941)
(0.24098111 0.047572364 0.011906492)
(0.30532227 0.046538066 0.012268998)
(0.37599635 0.043661111 0.012681103)
(0.45274151 0.038609647 0.01302503)
(0.535498 0.031124192 0.013300824)
(0.6233495 0.021563116 0.013532188)
(0.71620612 0.0095451555 0.013683471)
(0.81357998 -0.0046505018 0.013921908)
(0.91497213 -0.02113804 0.013933872)
(1.0197927 -0.039693473 0.014276725)
(1.1277911 -0.060179141 0.014261101)
(1.238194 -0.082640526 0.014507372)
(1.3502174 -0.10647289 0.014834193)
(1.4638646 -0.13161585 0.014998908)
(1.5780238 -0.15761985 0.015356437)
(1.6927164 -0.18521134 0.015786599)
(-0.0074835236 0.0018311905 -5.0538996e-05)
(0.0040784243 0.0015268707 -0.0010114983)
(0.022257405 0.0027915822 -0.000145611)
(0.049038823 0.0022711072 -0.00013991192)
(0.084126605 0.00049486383 0.00029678565)
(0.12649438 -0.0019688295 0.00065782193)
(0.17576268 -0.0060778745 0.00092112077)
(0.23220029 -0.011590848 0.0012208128)
(0.29480896 -0.018694336 0.0014761929)
(0.36418303 -0.027646984 0.0020074274)
(0.439129 -0.038272705 0.0019284377)
(0.52008103 -0.051015028 0.0024447701)
(0.60619646 -0.065507265 0.0026514759)
(0.69746228 -0.081924912 0.0029794032)
(0.79321182 -0.10025209 0.0033354115)
(0.89316927 -0.12034862 0.0036146396)
(0.99680246 -0.14220114 0.004265542)
(1.1035139 -0.16533185 0.0044485814)
(1.2127536 -0.18997306 0.0052744676)
(1.3240263 -0.215631 0.0058446234)
(1.4371628 -0.24224522 0.0063433623)
(1.5510813 -0.26949041 0.0071575622)
(1.6660942 -0.29706175 0.0076822613)
(-0.0081306488 -0.0064912413 -0.0074659889)
(0.0038496361 -0.012415097 -0.0075365466)
(0.020535266 -0.019194354 -0.0088007038)
(0.047586749 -0.027337971 -0.0085725799)
(0.081186831 -0.036747131 -0.0088280907)
(0.1221909 -0.046009018 -0.008772926)
(0.17050053 -0.057474156 -0.0087582411)
(0.22506767 -0.069313491 -0.0086384989)
(0.28645005 -0.082913873 -0.008487228)
(0.35369647 -0.097865327 -0.0084270525)
(0.42720555 -0.11406993 -0.0083205398)
(0.50634012 -0.13216865 -0.0080133507)
(0.59073654 -0.15153977 -0.0078506218)
(0.68028498 -0.17257004 -0.0074942161)
(0.77436803 -0.19500682 -0.0070970733)
(0.87286847 -0.21888644 -0.0065925239)
(0.97486241 -0.24386265 -0.0059616103)
(1.0804971 -0.2699584 -0.0053313431)
(1.1887061 -0.29693929 -0.004425528)
(1.299451 -0.32459559 -0.0037289238)
(1.4117293 -0.35278631 -0.0027293508)
(1.5251473 -0.38080448 -0.0017368207)
(1.6393698 -0.40895689 -0.00072081541)
(0 0 0)
(0 0 0)
(0 0 0)
(0 0 0)
(0 0 0)
(0 0 0)
(0 0 0)
(0 0 0)
(0 0 0)
(0.0042878647 -0.0047928529 -0.0078658157)
(0.0063668343 -0.0068694502 -0.0029964436)
(0.0063646199 -0.005812452 0.0035175659)
(0.01718729 -0.030151889 -0.010085478)
(0.018907056 -0.031400493 -0.0033013868)
(0.019972002 -0.031402043 0.0056318478)
(0.033478308 -0.043366497 -0.011646591)
(0.037168212 -0.04309128 -0.0043947845)
(0.038424566 -0.045390932 0.0042355403)
(0.059291309 -0.060969747 -0.011277932)
(0.063303077 -0.062647791 -0.004846822)
(0.063559769 -0.062141636 0.0024228089)
(0.092460583 -0.0782989 -0.012342715)
(0.096195226 -0.078993565 -0.0063845744)
(0.098551693 -0.081427932 0.0018036376)
(0.13170115 -0.095433988 -0.012806359)
(0.13683367 -0.096991478 -0.0060341342)
(0.13886478 -0.097848448 0.00017884385)
(0.17871303 -0.11393127 -0.01283263)
(0.18370748 -0.11610669 -0.0076135615)
(0.18588484 -0.11648972 -7.607439e-05)
(0.23176892 -0.13327559 -0.013530586)
(0.23698591 -0.13439541 -0.0078028013)
(0.24024297 -0.13690823 -0.0012938957)
(0.29114617 -0.15309117 -0.013688888)
(0.2969356 -0.15570532 -0.0084759257)
(0.30024313 -0.15713305 -0.0021358577)
(0.35675199 -0.17457193 -0.014022745)
(0.36261941 -0.17683861 -0.0090044621)
(0.36644778 -0.17885797 -0.0029220451)
(0.42793608 -0.19692478 -0.014360516)
(0.4343599 -0.19975308 -0.009358743)
(0.43850195 -0.20184025 -0.0039096017)
(0.50512226 -0.22100024 -0.014377187)
(0.51141411 -0.22334794 -0.010089823)
(0.51592419 -0.22564003 -0.004384622)
(0.5872234 -0.24529988 -0.014494205)
(0.5938279 -0.24838034 -0.010197059)
(0.59857922 -0.25119359 -0.005373333)
(0.67451001 -0.27142947 -0.014388387)
(0.68120606 -0.2746289 -0.010623143)
(0.68633141 -0.27742101 -0.006075797)
(0.76637435 -0.29820262 -0.014275708)
(0.7732159 -0.30159196 -0.010826799)
(0.77855007 -0.30461802 -0.006740363)
(0.86257944 -0.32597337 -0.013959345)
(0.86946668 -0.32951616 -0.010934662)
(0.87507451 -0.33280489 -0.0073407483)
(0.96259547 -0.35434087 -0.0135657)
(0.96959949 -0.35805364 -0.010968089)
(0.97537777 -0.36154069 -0.0078721804)
(1.0661189 -0.38298767 -0.012999903)
(1.0731383 -0.38711976 -0.010870758)
(1.0791128 -0.39073094 -0.0082707655)
(1.172601 -0.41239658 -0.012257286)
(1.1796685 -0.41637065 -0.01058096)
(1.1857605 -0.42017501 -0.00853716)
(1.2816692 -0.4414076 -0.011519244)
(1.2886308 -0.44566994 -0.010233865)
(1.2948811 -0.44961557 -0.0087548308)
(1.3926538 -0.47063388 -0.01063296)
(1.3995681 -0.47485882 -0.009700033)
(1.406026 -0.47880547 -0.0087843714)
(1.5051893 -0.49926792 -0.0097439493)
(1.5120887 -0.503553 -0.0092373471)
(1.5185903 -0.50776056 -0.0087963567)
(1.6186024 -0.52770266 -0.008823482)
(1.6254172 -0.53184383 -0.0087253262)
(1.6322068 -0.5359504 -0.0085330463)
(1.8147668 -0.21660547 0.015979743)
(1.8214721 -0.22079002 0.015883916)
(1.8281369 -0.22508619 0.015934642)
(1.7865606 -0.3285589 0.0083473432)
(1.7937139 -0.33285586 0.0079599584)
(1.7999671 -0.33703768 0.0077132961)
(1.7603597 -0.44120861 9.3110248e-05)
(1.7673947 -0.44550213 -0.00017958551)
(1.7738662 -0.44940566 -0.00030105458)
(0.0095136897 0.012179222 0.0079244225)
(0.010789251 0.013141765 0.0026389692)
(0.01203626 0.013690078 -0.0023530846)
(0.02028935 0.028964685 0.008856131)
(0.021419889 0.029703711 0.0029269379)
(0.022224383 0.029587588 -0.0054869337)
(0.040410715 0.045848279 0.011042786)
(0.042418914 0.046304519 0.0037769255)
(0.044082132 0.046873772 -0.0036558995)
(0.068448715 0.060259843 0.011605023)
(0.072119845 0.060050527 0.0049510625)
(0.073207558 0.060130404 -0.0024647232)
(0.10592336 0.073800272 0.01253959)
(0.10921332 0.073710449 0.0062663672)
(0.11095458 0.074079096 -0.00080877704)
(0.15000752 0.085438363 0.01360291)
(0.15438005 0.084145022 0.0075033539)
(0.15694276 0.084065063 0.00048608803)
(0.20260061 0.094493104 0.014369376)
(0.20690612 0.093827597 0.0087055638)
(0.20960629 0.093259313 0.0017187274)
(0.26165162 0.10184087 0.015321646)
(0.26621111 0.10079521 0.0097097065)
(0.26960513 0.10025732 0.0031686948)
(0.32751982 0.10701158 0.016211533)
(0.33267521 0.10581686 0.010715706)
(0.33628857 0.10492248 0.0044843497)
(0.39986941 0.10989254 0.017023774)
(0.40528123 0.1084383 0.011717094)
(0.40919987 0.10731717 0.0057656614)
(0.4781026 0.11058993 0.01795783)
(0.48415235 0.10856272 0.012397286)
(0.48841631 0.10696696 0.0071649652)
(0.56268152 0.10827031 0.018214589)
(0.5683426 0.10601469 0.013934056)
(0.57286057 0.10465991 0.0077544259)
(0.65192621 0.10355344 0.018915151)
(0.65800198 0.10120592 0.014271161)
(0.66288362 0.099644148 0.0093161627)
(0.74633742 0.096294375 0.019345203)
(0.75250587 0.093691434 0.015273724)
(0.75768103 0.091568902 0.010489892)
(0.84499588 0.086313003 0.01988871)
(0.85134339 0.083459472 0.016029284)
(0.85669078 0.081086817 0.011698966)
(0.94760849 0.073764896 0.020224926)
(0.95400519 0.07055342 0.016844587)
(0.95958275 0.067990966 0.012917149)
(1.0534669 0.058491952 0.020810662)
(1.0599294 0.055348993 0.017721125)
(1.0657558 0.05234237 0.014278994)
(1.1619789 0.041094767 0.021137812)
(1.1687338 0.037409334 0.018517718)
(1.174615 0.034302747 0.015527477)
(1.2729798 0.021321429 0.021579867)
(1.2795825 0.017506521 0.019427668)
(1.2856757 0.014147846 0.016990758)
(1.385356 -0.00055731286 0.022079614)
(1.3921437 -0.0043759541 0.020299502)
(1.3983362 -0.0080840526 0.018310901)
(1.4991302 -0.023952831 0.022502019)
(1.5058534 -0.02829991 0.021095445)
(1.5120939 -0.03195695 0.019852926)
(1.6131418 -0.049233184 0.023019312)
(1.6199706 -0.053275671 0.02213034)
(1.6264981 -0.057203583 0.021151626)
(1.7279805 -0.075093022 0.023841866)
(1.7345501 -0.079508279 0.02305417)
(1.7412786 -0.083659066 0.022538017)
(-9.5232557e-06 0.004577004 -0.0059799227)
(0.011616865 0.019081876 -0.0066308547)
(0.031715169 0.022659423 -0.004212303)
(0.062197964 0.030529748 -0.0042329652)
(0.099664856 0.035588619 -0.0033562778)
(0.14496777 0.039152186 -0.0019131718)
(0.19722224 0.041436803 -0.0013255762)
(0.25648018 0.041545073 -0.00033741464)
(0.32234735 0.039831339 0.0005318042)
(0.39432829 0.036000156 0.0014574883)
(0.47253733 0.030146318 0.0021274562)
(0.5559277 0.021992305 0.003191091)
(0.64475674 0.011231531 0.003851225)
(0.73854481 -0.0016649199 0.0048994185)
(0.83663554 -0.016768397 0.0057047745)
(0.93864681 -0.034176283 0.0067227692)
(1.0441201 -0.053676059 0.0077416231)
(1.1524879 -0.075046857 0.008798802)
(1.2632039 -0.09808915 0.009939742)
(1.3757957 -0.1227174 0.011020865)
(1.4896874 -0.14836713 0.012194169)
(1.6042038 -0.17491987 0.013354648)
(1.7194105 -0.20242755 0.014593692)
(-0.005152137 0.0026516661 0.00045372173)
(0.0086480909 0.0034523477 0.0001955615)
(0.029124346 0.00053502875 0.00053703451)
(0.059361746 0.00042510108 0.00019698347)
(0.095106822 -0.0019516528 0.00024873771)
(0.13990658 -0.0059001352 0.00066465355)
(0.19049881 -0.010406514 0.00076597031)
(0.24858443 -0.016912759 0.0010757331)
(0.31274349 -0.024887304 0.0012215073)
(0.38330889 -0.034567561 0.0014949249)
(0.45960222 -0.046333433 0.0016732749)
(0.54156804 -0.059668459 0.001855785)
(0.6286904 -0.075364234 0.0021213292)
(0.72088118 -0.092617781 0.0023334677)
(0.81739228 -0.11190912 0.0025279308)
(0.918015 -0.13301972 0.0028930548)
(1.0221248 -0.15564165 0.0032379746)
(1.129332 -0.17977443 0.0036407901)
(1.239036 -0.2051311 0.0041884593)
(1.3507282 -0.23151966 0.0046779531)
(1.4641316 -0.25840216 0.0054638083)
(1.5779731 -0.28603161 0.0060328816)
(1.6935122 -0.31410456 0.0066901815)
(-0.0059810878 -0.0052778202 0.0059608341)
(0.010259048 -0.0089542454 0.004439534)
(0.029587537 -0.022135442 0.0071227344)
(0.057401786 -0.026037895 0.004269554)
(0.093455636 -0.038324444 0.0050709049)
(0.13662608 -0.048764797 0.0040381884)
(0.18588011 -0.060129646 0.0037268273)
(0.24257854 -0.073463309 0.0031936768)
(0.30515686 -0.087888309 0.0028189714)
(0.373927 -0.10370421 0.0023991003)
(0.44862223 -0.121096 0.0018652342)
(0.52863297 -0.14016206 0.0015720486)
(0.6141727 -0.16047948 0.0010400035)
(0.70453009 -0.18270626 0.00063653962)
(0.79930933 -0.20614047 0.00023694737)
(0.89832488 -0.23101766 -0.00010645746)
(1.0009675 -0.25705334 -0.00043415227)
(1.1067994 -0.28405371 -0.00066942959)
(1.215339 -0.31185701 -0.00084534178)
(1.3261111 -0.34010576 -0.00088608921)
(1.4384704 -0.36863298 -0.0008755605)
(1.5521484 -0.3972976 -0.00096784144)
(1.6663733 -0.42542353 -0.00054325635)
(0.0012858419 0.0042563407 0.0048219825)
(0.001622661 0.0048339998 0.0020562312)
(0.0030471372 0.0047360065 -0.0012244934)
(0.013298123 0.017172567 0.0045975688)
(0.016006528 0.017223118 0.00072040442)
(0.015952758 0.016792176 -0.0039219547)
(0.03291794 0.024385485 0.0053937713)
(0.035048331 0.023418691 0.0017745092)
(0.036467871 0.023823067 -0.0016825877)
(0.060850287 0.031493829 0.0056758063)
(0.064909756 0.031878894 0.0022352177)
(0.0655249 0.030558755 -0.0012190201)
(0.097198754 0.037576113 0.0062521073)
(0.1007074 0.036598665 0.0030087963)
(0.10272173 0.035737827 -1.169326e-05)
(0.14077865 0.041325393 0.0068115516)
(0.14510384 0.040851309 0.0038767919)
(0.14735775 0.039831346 0.00025284264)
(0.19171205 0.04402151 0.0076232822)
(0.19657497 0.043154986 0.0042243803)
(0.19890579 0.041794629 0.0014599949)
(0.24960032 0.044922747 0.0080201916)
(0.25453449 0.043685477 0.0052144515)
(0.25753294 0.042270486 0.0020949647)
(0.31413395 0.043603976 0.0086964272)
(0.31948796 0.042321244 0.00581534)
(0.32286971 0.040627265 0.002936625)
(0.38490959 0.040665226 0.0091253184)
(0.39060486 0.038830397 0.006437824)
(0.39423947 0.036833879 0.00371738)
(0.46188092 0.035093775 0.0095432072)
(0.467809 0.032991491 0.007100686)
(0.47180184 0.031253802 0.0045344385)
(0.5444247 0.027542323 0.010100889)
(0.55064473 0.025372311 0.0075387006)
(0.55484807 0.023085354 0.0050305647)
(0.63231317 0.017737078 0.010461594)
(0.63853598 0.015360499 0.0081276715)
(0.64320209 0.012962535 0.005869998)
(0.72507216 0.0056251742 0.010874404)
(0.73155054 0.0030116293 0.0087689917)
(0.73642103 0.00017454674 0.0065381776)
(0.82233203 -0.0087119531 0.011222558)
(0.82888655 -0.011735315 0.00928889)
(0.83400164 -0.014574711 0.0073177904)
(0.92355557 -0.025329511 0.01168635)
(0.93023007 -0.028439748 0.0098868704)
(0.93557864 -0.031630005 0.0081205495)
(1.0283453 -0.043938977 0.011924657)
(1.0349605 -0.047380044 0.010553679)
(1.0405457 -0.050760366 0.00894223)
(1.135829 -0.06450249 0.012607875)
(1.142718 -0.068285512 0.011163033)
(1.1484469 -0.071775434 0.0098736254)
(1.246008 -0.0869403 0.013029416)
(1.2527938 -0.090679158 0.011928691)
(1.2587073 -0.094455335 0.010797158)
(1.3578577 -0.11070128 0.013513663)
(1.364701 -0.11480822 0.012713021)
(1.3708043 -0.11872639 0.011743597)
(1.4712444 -0.13584859 0.014031392)
(1.4780815 -0.14011858 0.013476657)
(1.4843531 -0.14412489 0.012772437)
(1.5852636 -0.16210215 0.014655468)
(1.5920535 -0.16623226 0.014473593)
(1.5984456 -0.17037356 0.01375286)
(1.6998426 -0.1892276 0.015433368)
(1.7065818 -0.19350175 0.015207821)
(1.7132752 -0.19779761 0.015008806)
(-0.0028961717 0.0006249494 -0.00065894295)
(-0.001685076 0.0019806544 -0.00060526378)
(-0.00041382299 0.0013560476 0.0004547616)
(0.010134795 0.0019976976 -0.0017860773)
(0.012598774 0.0021964962 -0.0012149859)
(0.012759676 0.0015915319 -0.00098331927)
(0.02958382 0.0015548667 -0.0012135722)
(0.032664964 0.0012459161 0.0003034157)
(0.033207415 0.0013045378 -0.00010119959)
(0.056772947 0.00083465765 -0.0010061837)
(0.061133501 0.00036613971 -0.00031514093)
(0.061525758 -0.00093147935 -0.00047246394)
(0.092185105 -0.00082764873 -0.00064201727)
(0.096389355 -0.0019107852 0.00054072875)
(0.097534015 -0.0020524131 -0.00043230546)
(0.13435212 -0.0038609145 -0.00028853046)
(0.13964638 -0.0050191737 0.00044297596)
(0.14095698 -0.0060547415 6.6510679e-05)
(0.18422596 -0.0080241287 -0.00012683408)
(0.18940134 -0.0097378975 0.00077849406)
(0.19138183 -0.010587783 0.0003230932)
(0.24062929 -0.014006419 0.00029589316)
(0.24627108 -0.015651989 0.0012254409)
(0.24854013 -0.016781411 0.0005327051)
(0.30352462 -0.021299207 0.00061157754)
(0.30938265 -0.023380962 0.0012443067)
(0.31236685 -0.024833582 0.00078425258)
(0.37280939 -0.03052044 0.00088359378)
(0.37911388 -0.03284957 0.001713576)
(0.38214814 -0.034165112 0.0010317598)
(0.44818282 -0.041556085 0.0012711548)
(0.4542562 -0.043869497 0.0017850618)
(0.45807506 -0.045769177 0.0012116239)
(0.528919 -0.054388455 0.0015466968)
(0.53556798 -0.057125641 0.0020125995)
(0.53945106 -0.058933787 0.0015613302)
(0.6151808 -0.069112777 0.0017909129)
(0.62183762 -0.071937435 0.002354591)
(0.62605057 -0.074229012 0.0017751945)
(0.70630173 -0.085746638 0.0021414723)
(0.71313087 -0.08899435 0.0025565622)
(0.71769469 -0.091424306 0.0020662519)
(0.80202844 -0.10426435 0.0025043127)
(0.80887331 -0.10760791 0.0029404335)
(0.81377469 -0.11029378 0.002307724)
(0.90179854 -0.12452471 0.0029309103)
(0.90878128 -0.12812298 0.0031748364)
(0.91385633 -0.1310541 0.0026970952)
(1.0051928 -0.14640742 0.0034112332)
(1.012125 -0.15020646 0.003725636)
(1.0175395 -0.15341111 0.0031363754)
(1.1117142 -0.16984756 0.0040050435)
(1.1187063 -0.17374792 0.0041153965)
(1.1243209 -0.17714147 0.0035715571)
(1.2208232 -0.19460365 0.0046958528)
(1.2277994 -0.19854051 0.0046263438)
(1.2335918 -0.20214498 0.0042015734)
(1.3320392 -0.22027214 0.0054484789)
(1.3388771 -0.22430827 0.0052073213)
(1.3450656 -0.22824298 0.0047954717)
(1.4447634 -0.24684349 0.0060002584)
(1.451858 -0.25096725 0.0058441201)
(1.4579306 -0.25496005 0.0055632239)
(1.5583892 -0.2739572 0.006803142)
(1.5651909 -0.27805227 0.0066114922)
(1.5715323 -0.28228036 0.0061516571)
(1.6731257 -0.30144052 0.0073942954)
(1.6801521 -0.30571019 0.0072386768)
(1.6866823 -0.30978364 0.0069226324)
(-0.0030071587 -0.0035816953 -0.0038251317)
(-0.0026659538 -0.0038878821 0.00065239617)
(-0.0013381004 -0.003815527 0.0028432984)
(0.011939329 -0.011745912 -0.0043437808)
(0.014614954 -0.0096740725 -0.00085665014)
(0.014259813 -0.010585987 0.0023821052)
(0.028881776 -0.019366742 -0.0052701756)
(0.031903645 -0.021469689 -0.0011709532)
(0.033034168 -0.021583775 0.0024978154)
(0.056444809 -0.028718147 -0.0054976278)
(0.059522458 -0.02793973 -0.0019264878)
(0.061190884 -0.028688372 0.0015787064)
(0.090100515 -0.037409685 -0.005541038)
(0.094119399 -0.038952634 -0.0019037904)
(0.096009321 -0.039128655 0.0011783268)
(0.13159878 -0.047995416 -0.0059001138)
(0.13561953 -0.048844313 -0.0026915984)
(0.13841763 -0.049565605 0.00061679494)
(0.17985905 -0.059411891 -0.0058979262)
(0.18450083 -0.060481596 -0.0023253818)
(0.18733864 -0.061358207 0.00032836979)
(0.2346559 -0.071635996 -0.0058858197)
(0.23951165 -0.073235344 -0.0029328035)
(0.24301292 -0.074225859 -7.907799e-05)
(0.29612712 -0.085678967 -0.0059813421)
(0.30138929 -0.087247703 -0.002993207)
(0.30518249 -0.088374368 -0.00034057602)
(0.36357037 -0.10078431 -0.0060014844)
(0.36906886 -0.10262414 -0.003185846)
(0.37324919 -0.10420662 -0.00060376949)
(0.43696696 -0.11739167 -0.0060428549)
(0.44283508 -0.1197719 -0.0033378507)
(0.4474313 -0.12121472 -0.00099557041)
(0.51611273 -0.13575127 -0.0058887491)
(0.52214069 -0.13807352 -0.0034675475)
(0.52692347 -0.140061 -0.0012650275)
(0.60043361 -0.15538492 -0.0059476555)
(0.60662121 -0.15815694 -0.0036619501)
(0.61179919 -0.16024751 -0.0014865633)
(0.68983082 -0.17672857 -0.0057598423)
(0.69618291 -0.17959256 -0.0036134539)
(0.7016389 -0.1820042 -0.0017930596)
(0.78378366 -0.19940309 -0.0055832014)
(0.79023365 -0.20253458 -0.0037056465)
(0.79598996 -0.20521386 -0.0020089047)
(0.88194342 -0.22339532 -0.0052427342)
(0.8885222 -0.22681481 -0.0036056751)
(0.89443158 -0.22966548 -0.002126746)
(0.98383115 -0.2486799 -0.0049288756)
(0.99044189 -0.2521465 -0.0034446822)
(0.99663457 -0.2553375 -0.0022358459)
(1.0889421 -0.27474863 -0.0044664131)
(1.0957171 -0.27869148 -0.0032603799)
(1.1020146 -0.28193763 -0.0022206203)
(1.1969395 -0.30193399 -0.0038167353)
(1.2036299 -0.30575833 -0.0028797818)
(1.2100836 -0.30930331 -0.0021036701)
(1.3069292 -0.32940058 -0.0032146223)
(1.3139591 -0.33353303 -0.0025473329)
(1.3204467 -0.33725589 -0.0018953521)
(1.4188927 -0.35730529 -0.0024818818)
(1.4258417 -0.36161337 -0.0019745839)
(1.4323464 -0.36541741 -0.0015774757)
(1.5321721 -0.38551507 -0.0015342379)
(1.539083 -0.38982965 -0.0013909182)
(1.5458022 -0.39365485 -0.0012055975)
(1.6461488 -0.41351961 -0.00076431693)
(1.6530053 -0.41762073 -0.00075273838)
(1.6596832 -0.42184744 -0.00093745832)
)
;

boundaryField
{
    free
    {
        type            calculated;
    }
    bottom
    {
        type            calculated;
    }
    traction
    {
        type            calculated;
    }
}


// ************************************************************************* //
