/*--------------------------------*- C++ -*----------------------------------*\
  =========                 |
  \\      /  F ield         | OpenFOAM: The Open Source CFD Toolbox
   \\    /   O peration     | Website:  https://openfoam.org
    \\  /    A nd           | Version:  6
     \\/     M anipulation  |
\*---------------------------------------------------------------------------*/
FoamFile
{
    version     2.0;
    format      ascii;
    class       pointVectorField;
    location    "1.4";
    object      lm;
}
// * * * * * * * * * * * * * * * * * * * * * * * * * * * * * * * * * * * * * //

dimensions      [1 -2 -1 0 0 0 0];

internalField   nonuniform List<vector> 
28033
(
(-1.780536e-14 4.8656612e-16 1.3104288e-15)
(-5.4375576e-15 3.3318594e-15 9.9433006e-16)
(927.90789 326.81664 -79.99555)
(990.93746 195.47711 -102.84882)
(-1.338461e-14 3.0090723e-15 -2.870051e-16)
(-1.2587315e-14 4.9008913e-15 -4.4266115e-15)
(1012.5507 197.16648 -86.832747)
(935.6322 342.88212 -96.366563)
(-5.6329745e-15 1.0535579e-15 6.7193838e-16)
(-2.4534443e-15 3.0423504e-16 5.8836893e-16)
(-5.4923298e-15 2.4302826e-15 8.9528572e-16)
(-2.6209443e-15 -1.1537891e-15 -6.7979696e-16)
(-7.2548563e-15 1.5542294e-15 1.0013199e-15)
(-4.7613589e-15 -9.2108094e-16 -7.3952737e-16)
(-1.132389e-15 -2.2256662e-17 -6.4484848e-16)
(-7.4239857e-16 -2.4218299e-16 -3.6669977e-16)
(-1.1196198e-15 4.5550132e-16 8.383863e-16)
(-2.3465882e-16 2.2667819e-16 1.4996246e-15)
(-4.0583243e-15 -8.7236639e-16 -1.3429605e-15)
(-5.8237189e-15 8.4462789e-16 7.5519031e-16)
(-5.1611762e-15 1.0100276e-15 9.7613867e-16)
(-1.7679952e-15 -8.1010255e-16 4.5192313e-16)
(-4.4158752e-15 1.0299569e-15 -9.452958e-16)
(937.29221 308.16659 -88.784905)
(943.57761 289.96405 -97.286877)
(947.50452 274.6171 -102.69182)
(949.2484 262.44734 -105.861)
(949.39526 253.82233 -106.97648)
(948.88047 248.19045 -105.26302)
(947.39521 245.34876 -102.98333)
(946.932 244.1908 -99.305319)
(947.14928 244.29884 -95.280514)
(948.59583 243.67962 -91.530835)
(952.36959 242.42296 -88.955839)
(957.58252 238.48703 -88.357833)
(964.76465 232.35522 -89.086286)
(973.61383 222.58916 -92.074428)
(982.81904 209.7776 -97.171603)
(-36.020654 -46.988221 -35.770477)
(-79.014012 -62.98874 -28.06293)
(-131.35033 -69.464885 -10.840876)
(-182.38064 -72.20493 6.1168599)
(-229.22637 -70.236614 23.76316)
(-269.88026 -64.442864 37.476194)
(-301.89363 -56.387897 48.088795)
(-324.87164 -45.614423 53.380315)
(-337.80084 -33.416292 54.511144)
(-341.26454 -19.678212 50.490982)
(-335.28147 -6.0406501 42.018502)
(-321.39696 7.9907818 30.128006)
(-300.62595 20.75759 15.601102)
(-274.761 32.409894 -0.83394678)
(-245.72304 41.775382 -17.690892)
(-215.76317 49.147775 -33.563942)
(-185.83077 54.153055 -48.010918)
(-158.15293 56.594876 -60.183366)
(-133.65619 56.624479 -68.754424)
(-113.51904 54.656172 -73.934519)
(-98.202432 50.808177 -75.278265)
(-87.63782 46.152784 -72.840634)
(-81.787833 40.393614 -67.286751)
(-79.873024 35.119827 -58.606647)
(-80.870203 30.440432 -47.687485)
(-83.504278 26.999757 -35.660275)
(-86.469938 25.453977 -22.93385)
(-88.401781 26.523058 -10.546792)
(-87.621212 29.951218 0.65248716)
(-82.856616 36.48619 10.062376)
(-73.084589 45.706612 16.842634)
(-57.423653 57.635663 20.945296)
(-35.513544 71.841436 22.102293)
(-6.9619823 87.376697 20.926106)
(27.937054 104.45714 16.33832)
(68.183121 121.3981 9.9792965)
(113.35467 138.37307 2.2463245)
(162.2121 153.69502 -6.6994708)
(213.15609 167.11126 -15.812304)
(264.89336 178.1904 -24.127583)
(315.90087 185.99464 -31.316257)
(364.7011 190.57731 -36.639848)
(410.13612 191.51919 -39.649597)
(451.02728 188.99534 -39.998833)
(486.54713 183.24582 -37.63927)
(516.23685 174.71727 -32.589781)
(539.93881 164.03613 -25.116744)
(557.8236 151.91301 -15.660497)
(570.42266 139.21976 -4.7875108)
(578.47954 126.80911 6.8279547)
(583.03944 115.57594 18.435273)
(585.24159 106.32239 29.281111)
(586.36308 99.753116 38.633714)
(587.64515 96.417425 45.845517)
(590.28868 96.659037 50.385103)
(595.32927 100.62562 51.874624)
(603.61464 108.21524 50.111336)
(615.72751 119.12202 45.078623)
(631.98476 132.81846 36.951231)
(652.37932 148.61191 26.070586)
(676.62912 165.67888 12.947274)
(704.18316 183.07325 -1.8117912)
(734.20527 199.91723 -17.461943)
(765.65063 215.20022 -33.237763)
(797.58477 228.18152 -48.57176)
(828.4131 237.999 -62.17914)
(857.173 244.20085 -73.97902)
(882.72141 246.56578 -83.15012)
(903.82998 244.72734 -89.561745)
(919.93015 239.03052 -92.187318)
(930.30355 229.58579 -91.837814)
(934.58637 217.10781 -88.221947)
(932.88659 202.36529 -81.590409)
(925.41503 186.07071 -72.337026)
(912.82381 169.24657 -61.028486)
(895.92066 152.92516 -48.315859)
(875.80099 138.03228 -34.902089)
(853.62075 125.52911 -21.537011)
(830.84537 116.18736 -8.9033547)
(808.50569 110.65244 2.2359878)
(788.29588 109.22203 11.429862)
(771.06173 112.28064 18.088381)
(757.82791 119.57231 22.030294)
(749.50955 131.0443 22.946119)
(746.31729 145.96548 20.939538)
(748.65311 163.82796 16.201741)
(756.11913 183.77423 8.9869545)
(768.55123 204.73537 -0.03752835)
(784.8241 226.04303 -10.601964)
(804.52535 246.38258 -21.723991)
(825.57037 265.49534 -33.142422)
(848.33746 281.8621 -43.925542)
(869.81334 296.29291 -53.967751)
(890.05056 307.94812 -62.6935)
(909.56659 317.45312 -70.94326)
(-37.569587 45.34964 54.349266)
(-95.327791 62.232947 36.316041)
(-147.90081 74.400639 28.412848)
(-190.85066 74.785896 16.183735)
(-233.735 71.02667 4.1499285)
(-267.62182 63.127704 -6.4321204)
(-294.24942 51.683806 -16.276426)
(-313.21697 38.888256 -23.377405)
(-323.1543 24.82166 -28.654835)
(-325.08475 11.56835 -30.848093)
(-318.88918 -0.9079384 -30.939414)
(-305.98775 -10.860325 -28.532487)
(-287.05041 -18.482164 -24.0034)
(-263.84701 -23.076064 -18.351765)
(-237.79117 -24.416268 -11.359107)
(-210.35413 -23.10356 -4.387551)
(-183.10308 -18.783664 2.4919905)
(-157.41223 -12.880115 8.4670759)
(-134.32643 -5.3983165 13.002132)
(-114.37393 2.7481547 15.792819)
(-98.44771 10.385985 16.473243)
(-86.142406 17.366579 15.120512)
(-77.408375 22.595745 11.343681)
(-71.648038 25.806074 5.8961836)
(-67.902917 26.628869 -1.2674865)
(-64.95859 24.989967 -9.6158986)
(-61.728855 20.897007 -18.380742)
(-56.954107 14.965024 -27.198693)
(-49.269973 7.3207811 -35.21724)
(-37.868473 -0.91558526 -41.806682)
(-21.461277 -9.297625 -46.444748)
(-0.066183011 -16.881128 -48.589864)
(27.000321 -22.848192 -47.93997)
(59.633045 -26.534769 -44.186291)
(97.282625 -27.230629 -37.331183)
(139.24304 -24.543888 -27.710157)
(184.45828 -17.984502 -15.304144)
(232.10952 -8.0387462 -0.85269931)
(280.19963 5.6125446 15.057325)
(327.90579 22.298838 31.756335)
(373.49181 41.507858 48.402406)
(415.86027 62.481478 64.236578)
(453.83064 84.371967 78.445591)
(486.66174 106.28565 90.378047)
(513.74737 127.32615 99.417831)
(534.94327 146.67742 105.15852)
(550.32712 163.62373 107.31145)
(560.37356 177.62958 105.80884)
(565.78145 188.34173 100.73796)
(567.53815 195.63869 92.390253)
(566.75672 199.61877 81.196752)
(564.70001 200.60742 67.746168)
(562.61802 199.12395 52.712246)
(561.74295 195.86057 36.850506)
(563.15985 191.62129 20.923811)
(567.78444 187.28233 5.6859425)
(576.26991 183.72362 -8.1883215)
(589.00718 181.77239 -20.118101)
(606.06247 182.14858 -29.673511)
(627.20754 185.40976 -36.581286)
(651.91058 191.91873 -40.757012)
(679.38452 201.80814 -42.291097)
(708.62364 214.97667 -41.459938)
(738.48087 231.08868 -38.691547)
(767.71802 249.58859 -34.534476)
(795.11548 269.72466 -29.643642)
(819.54268 290.67863 -24.689887)
(839.88557 311.31588 -20.402195)
(855.50598 330.97991 -17.350803)
(865.81326 348.25683 -16.25025)
(870.39763 362.49435 -17.334791)
(869.6221 372.92752 -21.055933)
(863.67077 378.95181 -27.47054)
(853.26331 380.18649 -36.553761)
(839.29153 376.54253 -48.097212)
(822.89283 368.09465 -61.702325)
(805.29404 355.22955 -76.883961)
(787.81017 338.49234 -93.003446)
(771.74417 318.65479 -109.387)
(758.30583 296.61548 -125.33306)
(748.54291 273.38475 -140.14174)
(743.30794 249.98845 -153.17626)
(743.1478 227.46094 -163.90877)
(748.36168 206.7333 -171.91297)
(758.87199 188.63841 -176.95439)
(774.34328 173.80854 -178.92069)
(794.09228 162.70993 -177.92141)
(817.22545 155.53118 -174.17598)
(842.60699 152.28267 -168.10344)
(869.00684 152.68745 -160.17892)
(895.13444 156.27904 -151.01504)
(919.78069 162.39222 -141.15254)
(941.9553 170.22033 -131.19767)
(961.11266 178.7943 -121.48286)
(977.15662 187.45179 -112.11301)
(3.2927448e-15 -1.3239155e-15 2.3845803e-16)
(2.4470133e-15 -9.6672015e-16 3.215493e-17)
(-9.0574249e-15 9.0550918e-16 6.4029168e-16)
(-1.2642219e-16 -5.721845e-16 4.4370095e-16)
(-7.6811722e-15 -4.9270561e-16 4.1193361e-16)
(-7.3893964e-15 2.7533729e-15 -1.0951501e-15)
(-3.2915852e-15 -8.1743692e-16 3.8364228e-16)
(-1.9032499e-15 5.3200654e-16 -8.2319016e-17)
(-4.7409759e-15 -4.8623412e-16 4.3918642e-16)
(-1.2869644e-14 1.1845665e-15 6.4228907e-16)
(-9.6157521e-15 1.4157374e-15 5.9836601e-16)
(-9.4077204e-15 4.9518432e-16 1.1192419e-15)
(-5.982767e-15 2.6210694e-16 3.0473736e-16)
(-1.1478475e-14 -5.3386198e-16 1.6580808e-15)
(-5.257323e-15 3.6289085e-16 2.8600704e-16)
(-47.087859 23.858074 -43.337035)
(-101.40545 70.192781 -35.600956)
(-150.61225 72.176409 -18.152569)
(-201.41609 78.785463 -9.4102631)
(-241.77369 75.058608 2.8979664)
(-275.08494 67.215098 12.74769)
(-302.50149 57.785182 19.700497)
(-318.17816 44.19059 24.597964)
(-327.91525 32.078119 25.26981)
(-326.33082 17.083057 23.63419)
(-317.79974 5.2535855 19.322561)
(-303.1029 -4.9326308 12.875043)
(-281.3037 -14.677999 4.3239225)
(-256.62176 -19.262362 -4.2537358)
(-228.61799 -23.647339 -13.949872)
(-200.23049 -23.462119 -21.816006)
(-172.01725 -21.947774 -29.223615)
(-146.7024 -18.036684 -34.614414)
(-123.09231 -13.198167 -37.379056)
(-104.70349 -7.2525588 -37.660966)
(-88.806878 -2.4167503 -35.680407)
(-77.518031 2.3463441 -30.72002)
(-69.622036 6.0307976 -23.644307)
(-64.662063 7.0947129 -14.775444)
(-60.638775 5.8427096 -4.5483127)
(-57.830093 2.9570877 6.1224567)
(-53.807222 -2.931656 16.696552)
(-47.449608 -9.8365463 27.060309)
(-38.682648 -18.865576 35.695122)
(-24.185148 -28.621038 42.969357)
(-5.8781737 -38.575495 48.104418)
(18.270423 -47.488883 50.706313)
(47.96555 -55.272959 51.083703)
(82.578888 -60.478606 49.028879)
(122.20095 -63.154023 45.119336)
(164.79989 -61.888186 39.4755)
(210.64595 -58.363119 32.362247)
(257.2889 -49.553121 24.919651)
(303.65624 -37.767416 17.200689)
(348.43806 -22.310348 9.9954644)
(390.18957 -4.0240061 3.7968627)
(427.77609 16.642185 -1.0064231)
(460.34628 38.856847 -4.057521)
(487.2392 61.857463 -5.1892305)
(508.22649 84.774727 -4.3294661)
(523.34664 106.84868 -1.6005151)
(533.03493 127.32801 2.7933088)
(537.98264 145.65086 8.4799759)
(539.17638 161.36619 15.029824)
(537.77237 174.24324 21.917034)
(535.06543 184.2244 28.601787)
(532.38118 191.46258 34.52977)
(531.01486 196.28453 39.183773)
(532.14134 199.17509 42.111335)
(536.74569 200.7428 42.945191)
(545.5743 201.66112 41.44188)
(559.07084 202.64545 37.477611)
(577.37187 204.37005 31.083042)
(600.27673 207.45255 22.419903)
(627.27543 212.38072 11.79826)
(657.56787 219.50106 -0.35540772)
(690.11666 228.97205 -13.504668)
(723.70588 240.77224 -27.049913)
(757.01626 254.67114 -40.321499)
(788.7153 270.27965 -52.70087)
(817.4804 287.00326 -63.525498)
(842.11569 304.41017 -72.285213)
(861.84739 320.73068 -78.406018)
(876.65689 336.4306 -81.476108)
(883.48309 350.65668 -81.894779)
(885.67346 361.61185 -78.948956)
(881.47524 369.37548 -72.980634)
(872.00645 373.41574 -64.489745)
(858.21797 373.28218 -53.694509)
(841.05716 368.9804 -41.259935)
(821.88091 360.55147 -27.806339)
(802.06569 348.32901 -14.039796)
(783.00644 332.79212 -0.69496337)
(766.07751 314.60337 11.530269)
(752.49998 294.53733 21.987993)
(743.31339 273.46259 30.127677)
(739.2918 252.26954 35.520512)
(740.92404 231.84355 37.891549)
(748.35926 212.99472 37.123076)
(761.42785 196.43806 33.27652)
(779.62014 182.7258 26.573626)
(802.14353 172.25667 17.395066)
(827.9472 165.2085 6.2514572)
(855.79723 161.59128 -6.2531655)
(884.3578 161.17513 -19.448306)
(912.26627 163.59239 -32.677093)
(938.30066 168.28022 -45.327073)
(961.38741 174.57399 -56.936919)
(981.16233 181.89508 -67.392467)
(997.18667 189.21744 -76.622052)
(1004.1464 212.81325 -91.396081)
(994.22422 226.08651 -95.380166)
(984.43804 237.62978 -97.78513)
(975.64809 244.42275 -98.176909)
(969.18512 250.46361 -96.866759)
(963.51994 252.33625 -94.497469)
(960.83824 255.02424 -90.61215)
(958.75177 256.36144 -86.746876)
(957.5533 258.51094 -82.963098)
(958.32057 262.24532 -79.769289)
(958.51579 268.84059 -77.991949)
(956.52716 277.73016 -77.257014)
(955.91149 290.15855 -79.842773)
(950.32187 306.01502 -82.982635)
(944.9812 324.37711 -90.005645)
(917.55498 333.61932 -102.57297)
(897.37316 324.51132 -107.60942)
(875.60908 313.198 -114.02836)
(852.94233 299.70551 -120.33336)
(829.79079 283.78198 -126.81183)
(807.68199 265.64323 -133.09869)
(787.93434 246.03529 -138.26555)
(771.58136 225.58584 -142.02901)
(759.6848 205.19247 -143.80771)
(752.94203 185.60467 -143.15399)
(751.77223 167.84737 -139.94757)
(756.35507 152.4278 -133.91412)
(766.40161 140.22903 -125.22189)
(781.28606 131.58107 -114.05242)
(800.33823 126.82445 -100.69623)
(822.38374 126.06268 -85.64424)
(846.1989 129.15529 -69.549811)
(870.37373 135.77558 -53.067279)
(893.42572 145.44064 -36.960688)
(913.95267 157.45743 -21.922823)
(930.64731 171.09427 -8.6456151)
(942.38517 185.47534 2.3086044)
(948.29006 199.78007 10.486766)
(947.85561 213.09601 15.674327)
(940.6558 224.72725 17.450318)
(926.90846 234.00281 16.393659)
(907.726 240.3388 12.160747)
(881.37036 243.95831 5.9984468)
(852.45595 243.15414 -2.7366206)
(819.49918 239.86251 -11.98366)
(784.88297 233.2263 -22.028702)
(749.78305 223.86401 -31.552135)
(715.6856 212.31653 -39.900039)
(683.85178 199.21308 -46.292287)
(655.42469 185.24674 -50.100032)
(631.29217 171.15053 -50.826531)
(612.04627 157.62916 -48.143408)
(597.95432 145.32339 -41.937476)
(588.92037 134.77872 -32.293763)
(584.50767 126.40608 -19.521916)
(583.9395 120.46284 -4.12373)
(586.1581 117.0437 13.215088)
(589.87252 116.07001 31.681592)
(593.64533 117.31274 50.359535)
(595.97112 120.39249 68.310038)
(595.37597 124.8304 84.600637)
(590.5092 130.05082 98.392832)
(580.22087 135.45565 108.96103)
(563.66148 140.42849 115.77013)
(540.29552 144.36107 118.49906)
(509.97715 146.83982 116.98067)
(473.007 147.24022 111.49914)
(429.86299 145.54871 102.14555)
(381.77855 141.35923 89.799178)
(329.71511 134.70796 74.968313)
(275.4479 125.89401 58.481963)
(220.27091 115.25155 41.584271)
(166.51264 101.83801 25.08157)
(115.35422 88.675151 9.1947222)
(67.080668 74.222667 -4.3155737)
(24.597585 59.344561 -14.610751)
(-10.39562 45.134216 -22.877249)
(-40.816926 33.149683 -26.354494)
(-62.795591 21.733549 -27.191436)
(-79.178577 12.206042 -23.748418)
(-87.794399 4.8268116 -18.341544)
(-93.468965 1.7831249 -9.4483437)
(-93.258832 -1.1646017 0.49855569)
(-91.530293 0.38303272 11.507344)
(-88.526577 2.792272 22.529549)
(-86.149891 7.2518477 32.74063)
(-85.594599 13.917687 40.931947)
(-88.789874 20.453872 47.601179)
(-95.121466 27.316276 50.582167)
(-106.3882 34.117163 49.995373)
(-123.67377 40.430334 47.147235)
(-143.48578 43.806506 39.931287)
(-170.00985 47.401828 30.295229)
(-197.40474 46.249286 18.000111)
(-227.4856 44.684507 4.1030255)
(-257.63611 39.869512 -10.775546)
(-286.52923 33.089304 -25.50335)
(-311.21209 22.611327 -38.267329)
(-330.48997 12.387403 -50.732685)
(-343.98269 0.44212828 -59.171704)
(-348.85998 -13.247117 -63.016147)
(-343.06161 -26.686504 -64.896629)
(-329.80323 -38.011067 -60.609179)
(-305.02954 -49.204137 -52.671405)
(-271.95792 -58.184978 -39.296351)
(-230.95861 -64.807982 -24.419028)
(-182.89908 -67.590548 -6.0538377)
(-131.62431 -67.421229 12.46648)
(-79.234719 -58.676016 24.360645)
(-43.416065 -52.637502 30.750536)
(-6.8708141e-15 1.5083581e-15 1.9262289e-16)
(-1.2504183e-14 5.7375616e-16 8.4327435e-16)
(-8.3449101e-15 1.4891922e-15 5.3018253e-16)
(-4.9731758e-15 1.4991158e-15 6.2376313e-16)
(-3.4146159e-15 1.5624416e-15 3.1576894e-17)
(2.0582335e-15 9.3962624e-16 -5.746342e-16)
(2.2101935e-15 3.7457559e-17 -1.1841335e-16)
(2.4553765e-15 -8.5141669e-16 -9.3419562e-16)
(1.2987427e-15 1.0081898e-16 1.7950851e-15)
(-4.5074861e-15 9.063971e-16 1.0710522e-15)
(-5.2682467e-15 2.1856155e-15 1.0652666e-15)
(-7.4917339e-15 1.915055e-15 2.2418828e-16)
(-9.400838e-15 1.3708275e-15 6.2833768e-16)
(-6.2048683e-15 1.3247981e-15 5.4317906e-16)
(-6.971104e-15 1.5128103e-15 7.5678131e-16)
(-1.2693866e-14 6.2923345e-15 -2.1364834e-15)
(-5.2452578e-15 2.6791924e-15 -5.3037742e-16)
(-1.0752404e-15 9.8318743e-16 -1.0111087e-16)
(-2.7353382e-15 1.7746034e-15 7.3085398e-17)
(1.0178949e-15 -1.5450237e-16 -4.119182e-16)
(-1.4303492e-15 4.136346e-16 -3.3264033e-16)
(-1.0059749e-14 4.7133437e-15 -1.6449855e-15)
(2.9801421e-15 -1.9180379e-15 -8.3172098e-16)
(-4.79756e-15 2.8035442e-15 1.1420498e-15)
(-5.4778068e-15 3.5047253e-15 -3.934403e-16)
(-1.8117877e-15 1.1581936e-15 -9.1309836e-16)
(-3.9812639e-16 4.7407236e-16 -2.2932148e-16)
(-1.5272242e-15 1.100363e-15 -2.2557932e-16)
(-4.1024849e-15 1.9838802e-15 2.8069696e-17)
(-5.3424143e-16 2.551799e-16 -1.9455919e-16)
(999.40372 189.26978 -103.50669)
(1007.6202 184.21797 -104.34699)
(1015.7765 179.8865 -104.42937)
(1023.6549 176.46219 -103.7662)
(1031.1504 173.88619 -102.16659)
(1037.6459 171.79541 -99.736245)
(1042.7661 170.41042 -96.840651)
(1046.2004 169.58633 -93.755364)
(1047.7465 169.50622 -90.783084)
(1047.3649 170.17231 -88.223987)
(1045.1051 171.85374 -86.389257)
(1040.9715 174.48172 -85.353254)
(1035.4566 178.3746 -85.235675)
(1028.8082 183.58482 -85.575617)
(1021.029 189.87284 -86.69385)
(931.40068 338.41285 -79.880812)
(934.50559 348.90057 -79.292893)
(938.08291 358.56888 -78.802705)
(941.51498 366.87427 -78.986604)
(945.15097 373.99953 -79.964346)
(948.08607 379.28028 -81.720021)
(950.25566 382.64243 -84.082802)
(951.40247 384.03474 -86.836628)
(951.4763 383.4677 -89.71906)
(950.51424 381.0906 -92.437008)
(948.63355 377.19195 -94.671053)
(946.21159 371.86507 -96.287664)
(943.31706 365.78391 -97.009077)
(940.72743 358.72685 -97.086831)
(938.11167 351.33044 -96.596796)
(-25.182116 -15.692978 -29.249899)
(-76.014042 -16.677642 -14.94744)
(-129.8996 -21.945914 -7.0576824)
(-183.0407 -25.587524 7.0023438)
(-231.36739 -28.283182 19.740341)
(-273.18593 -29.465305 30.790854)
(-306.07291 -29.897965 38.770707)
(-329.18138 -28.232305 42.793472)
(-342.21286 -25.377301 43.033731)
(-345.13836 -21.179411 39.475724)
(-338.03224 -15.71085 32.084136)
(-322.98138 -9.164335 22.080532)
(-300.86956 -2.0831499 9.672879)
(-273.87346 5.3349201 -3.9001108)
(-243.53895 12.848874 -18.011416)
(-212.36044 19.942 -31.362066)
(-181.65925 26.016225 -43.403266)
(-153.33384 31.197216 -53.326523)
(-128.67994 35.038272 -60.710947)
(-108.77422 37.419304 -64.915656)
(-93.707441 38.426 -66.073767)
(-83.928483 37.95305 -64.229763)
(-78.815589 36.413435 -59.449333)
(-77.657137 34.103616 -52.456524)
(-79.554688 31.201602 -43.549537)
(-82.808485 28.322901 -33.596505)
(-86.244367 26.070404 -23.193438)
(-88.077544 24.544481 -13.054644)
(-86.85207 24.518546 -3.8293777)
(-81.424752 26.159779 3.6920185)
(-70.307724 29.727377 9.5675643)
(-52.955367 35.495444 12.93589)
(-28.957289 43.232027 14.18042)
(1.5913613 53.001733 13.123156)
(38.675406 64.229141 9.8189526)
(81.4153 76.976835 4.9827858)
(128.71825 90.385134 -0.83396774)
(179.43098 103.73026 -7.4668733)
(232.01619 116.93644 -14.162993)
(284.79428 129.05605 -20.122735)
(336.44293 139.40068 -25.018307)
(385.09375 147.68565 -28.434318)
(430.10307 153.6268 -29.824384)
(469.82206 156.72615 -29.076964)
(503.75245 157.10069 -26.152475)
(531.46174 154.77546 -21.086739)
(552.9392 150.01203 -14.163954)
(568.49854 143.2179 -5.762482)
(578.7882 134.96328 3.6287871)
(584.72542 125.88699 13.418304)
(587.45948 116.72564 22.991353)
(588.25879 108.22166 31.710878)
(588.46321 101.09377 38.9907)
(589.37185 95.992858 44.300084)
(592.18228 93.442705 47.231825)
(597.90638 93.824506 47.493637)
(607.32065 97.324701 44.956994)
(620.91538 103.94675 39.639757)
(638.88027 113.48223 31.72583)
(661.07762 125.54714 21.526187)
(687.08499 139.58952 9.5104431)
(716.19463 154.89447 -3.8020471)
(747.44352 170.77088 -17.756583)
(779.71437 186.28544 -31.782413)
(811.90364 200.70026 -45.079769)
(842.38545 213.33544 -57.153569)
(870.26868 223.37157 -67.615485)
(894.34511 230.13336 -75.534161)
(913.72437 233.60119 -81.324438)
(927.36552 233.37378 -83.689182)
(935.15363 229.51235 -83.601893)
(936.70078 222.51987 -80.75953)
(932.16724 212.65131 -75.356002)
(922.02287 200.52192 -67.823564)
(906.98493 186.90425 -58.594413)
(888.02461 172.6361 -48.257979)
(866.32648 158.59317 -37.380559)
(843.16914 145.67984 -26.606148)
(819.93697 134.65297 -16.521485)
(797.94214 126.35678 -7.7113767)
(778.5321 121.17653 -0.57490881)
(762.71075 119.74664 4.3733349)
(751.33143 122.12126 7.0036311)
(745.22031 128.2989 7.1250846)
(744.54354 138.04851 4.9322363)
(749.30397 151.06312 0.49508811)
(759.30536 166.76698 -5.9023642)
(773.81818 184.40967 -13.890507)
(792.07519 203.2774 -22.986934)
(813.02417 222.47385 -32.827639)
(835.20576 241.10901 -42.667551)
(858.2752 258.71615 -52.538655)
(879.74776 274.08283 -61.751758)
(900.23364 287.61832 -70.683763)
(919.58586 298.30349 -79.485827)
(-26.840973 -7.0436565 -15.910961)
(-76.573647 -1.4103117 -9.7500959)
(-130.26944 -4.8075886 -3.7717111)
(-182.27223 -7.2153295 6.9727041)
(-230.53605 -10.624908 17.176566)
(-272.20581 -14.163239 25.637695)
(-304.73836 -17.514246 31.956906)
(-328.08033 -19.697875 34.896623)
(-340.77801 -21.152916 35.108697)
(-343.50717 -21.003246 31.502337)
(-336.61426 -19.608915 25.474445)
(-321.46916 -16.607762 16.618027)
(-299.45434 -12.409951 6.1859468)
(-272.36292 -7.0662316 -5.492361)
(-242.25448 -1.0690742 -17.325006)
(-211.01839 5.3999756 -28.768446)
(-180.51878 11.736577 -39.018039)
(-152.37608 17.660311 -47.598046)
(-127.9077 22.756569 -53.790774)
(-107.95966 26.855977 -57.61425)
(-93.121128 29.417699 -58.758883)
(-83.35431 30.817107 -57.310302)
(-78.244423 30.665721 -53.585373)
(-77.042791 29.447459 -47.809252)
(-78.581468 27.162214 -40.513119)
(-81.589999 24.378645 -32.251427)
(-84.410519 21.293275 -23.605895)
(-85.598981 18.691881 -15.151956)
(-83.719379 16.689614 -7.521271)
(-77.214366 16.090716 -0.92906463)
(-65.253905 17.02497 3.9364336)
(-46.952144 19.866433 7.1245028)
(-21.953786 24.843502 8.4230348)
(9.6710822 31.863301 7.9363277)
(47.801819 40.832547 5.846476)
(91.373789 51.600339 2.4983459)
(139.32469 63.573715 -1.7915142)
(190.53036 76.386624 -6.5421893)
(243.41344 89.568253 -11.227429)
(296.21515 102.27223 -15.41632)
(347.67554 114.07311 -18.517078)
(396.19624 124.43702 -20.718213)
(440.3611 132.72069 -20.681366)
(479.44561 138.64988 -19.280648)
(512.49947 142.02737 -16.073084)
(539.31751 142.73176 -11.217356)
(559.8704 140.84446 -4.9150755)
(574.54003 136.65075 2.4642281)
(584.01477 130.57243 10.50985)
(589.2641 123.1602 18.712275)
(591.46197 115.07938 26.561177)
(591.90175 107.04467 33.528694)
(591.93645 99.784033 39.129288)
(592.85669 93.999259 42.942398)
(595.85138 90.295124 44.637513)
(601.90106 89.165858 44.000312)
(611.749 90.93075 40.941343)
(625.83968 95.741702 35.505376)
(644.31236 103.53597 27.865139)
(666.98336 114.08177 18.316753)
(693.37152 126.93579 7.2586916)
(722.72745 141.53207 -4.835728)
(754.04016 157.1833 -17.435079)
(786.23256 173.08493 -30.00087)
(817.98313 188.39395 -41.841705)
(847.87756 202.7011 -52.877038)
(875.10991 214.55945 -61.725422)
(898.41428 223.94476 -69.25974)
(916.64936 230.29307 -74.379635)
(928.95975 233.16519 -77.069522)
(935.36311 232.29561 -77.412079)
(935.47792 228.22191 -75.479738)
(929.56803 220.93337 -71.403326)
(918.19617 210.98759 -65.54052)
(902.09314 199.00011 -58.249158)
(882.31492 185.73891 -50.031221)
(860.07827 171.99406 -41.357953)
(836.6897 158.67091 -32.785437)
(813.56487 146.55577 -24.755961)
(791.99073 136.52735 -17.83016)
(773.25499 129.07507 -12.261899)
(758.40125 124.96483 -8.4916018)
(748.25734 124.31484 -6.7139461)
(743.53475 127.30966 -6.880225)
(744.02222 134.05684 -9.26576)
(750.13665 144.15755 -13.450175)
(761.3705 157.21252 -19.26036)
(777.15747 172.55705 -26.323415)
(796.39673 189.52933 -34.504897)
(818.43714 207.31875 -43.078595)
(841.27261 225.01054 -52.095953)
(865.22037 241.8523 -60.949504)
(887.38852 256.96202 -69.655196)
(908.28015 270.32979 -78.52549)
(928.2735 280.79867 -86.958679)
(-30.790977 -0.85328416 -9.3695057)
(-79.414004 4.1437889 -3.6903116)
(-130.39837 4.5940024 0.029174206)
(-181.20972 3.0638019 8.5121632)
(-228.36563 -0.050641432 15.374208)
(-268.9345 -4.2810017 21.764576)
(-301.36464 -9.0630436 26.23199)
(-324.33647 -13.283118 28.272728)
(-337.10815 -16.871589 27.544495)
(-340.14238 -19.193555 24.495507)
(-333.54227 -20.061213 18.865325)
(-318.92887 -19.371037 11.444089)
(-297.28559 -16.982164 2.4353909)
(-270.92527 -13.324662 -7.2212324)
(-241.2068 -8.3329998 -17.252789)
(-210.55385 -2.6206822 -26.789633)
(-180.36408 3.4893241 -35.381234)
(-152.60724 9.6037379 -42.415488)
(-128.21277 15.161125 -47.711702)
(-108.4188 19.890203 -50.933201)
(-93.444868 23.401342 -51.940095)
(-83.420419 25.602911 -50.941805)
(-77.939408 26.25335 -47.932847)
(-76.235806 25.599142 -43.369755)
(-77.21788 23.624532 -37.535697)
(-79.46269 20.809623 -30.941386)
(-81.564526 17.419117 -24.008465)
(-81.967729 13.978429 -17.258724)
(-79.163637 11.000513 -11.00293)
(-71.909005 8.9522674 -5.7691339)
(-59.154309 8.2310478 -1.6548874)
(-40.067847 9.367779 1.0711866)
(-14.47612 12.463338 2.3698184)
(17.782542 17.695502 2.4037588)
(56.219691 25.097739 1.145224)
(99.979462 34.466187 -0.96942851)
(148.13415 45.469389 -3.6643903)
(199.30975 57.679303 -6.5091151)
(251.89009 70.604301 -9.3362511)
(304.4963 83.854063 -11.504971)
(355.51808 96.477704 -13.02428)
(403.48593 108.06927 -13.219286)
(447.09356 118.11609 -12.280097)
(485.48667 125.93537 -9.881452)
(517.92587 131.45455 -6.2620312)
(544.09565 134.37584 -1.3685217)
(564.03602 134.68294 4.4958846)
(578.15123 132.5583 11.045525)
(587.14193 128.32444 17.902883)
(592.0023 122.45499 24.6495)
(593.89558 115.55177 30.870919)
(594.13671 108.29319 36.128869)
(594.05324 101.39597 40.06214)
(594.94287 95.575206 42.333167)
(597.96789 91.475132 42.717698)
(604.09838 89.652233 41.064972)
(614.05137 90.507249 37.348122)
(628.2507 94.282654 31.635138)
(646.81134 101.0228 24.115809)
(669.52283 110.58477 15.053202)
(695.88568 122.63782 4.8192866)
(725.12173 136.68597 -6.1888898)
(756.21923 152.09469 -17.51782)
(788.10806 168.13614 -28.634684)
(819.26545 183.97678 -39.281371)
(848.95241 199.12839 -48.727987)
(875.38076 212.05905 -56.922138)
(897.49757 222.75671 -63.81355)
(915.03858 231.17799 -67.855684)
(926.74492 235.75768 -70.49151)
(932.24257 237.03027 -71.025821)
(931.69834 234.80097 -69.713774)
(925.16061 229.23654 -66.684806)
(913.28457 220.75037 -62.239175)
(896.83052 209.89665 -56.682507)
(876.8859 197.31592 -50.488921)
(854.64945 183.83546 -43.968962)
(831.45996 170.26615 -37.610901)
(808.69139 157.44713 -31.784855)
(787.67443 146.19537 -26.851668)
(769.60006 137.19915 -23.104624)
(755.53515 131.12224 -20.853838)
(746.2197 128.27233 -20.029882)
(742.35114 128.87817 -20.912411)
(744.22056 133.12729 -23.515446)
(751.19855 141.04059 -27.490816)
(763.44907 151.80516 -32.605028)
(779.99829 165.09862 -38.907142)
(800.16035 180.27477 -45.817463)
(822.79179 196.57929 -53.388438)
(846.44277 212.98624 -60.986916)
(871.04078 229.08812 -68.93589)
(893.69537 243.41008 -76.592763)
(915.0898 256.37747 -84.792655)
(935.08122 266.54318 -92.879838)
(-35.010843 1.9158008 -3.1316172)
(-82.823245 6.9676282 0.48470677)
(-131.91251 7.9497134 3.4796086)
(-180.82526 7.2516792 8.9319798)
(-226.12357 4.7385204 13.986677)
(-265.87015 0.67666333 18.452735)
(-297.30687 -4.377433 21.63002)
(-319.91554 -9.074217 22.302685)
(-332.67232 -13.562177 21.678138)
(-335.86075 -16.92539 18.388944)
(-329.85493 -18.931476 13.691309)
(-315.74955 -19.357752 7.1403307)
(-295.10926 -18.12481 -0.26844511)
(-269.38831 -15.367281 -8.4686985)
(-240.68423 -11.212978 -16.740118)
(-210.64642 -6.0802036 -24.624354)
(-181.25716 -0.34901826 -31.640891)
(-153.86117 5.5862866 -37.542001)
(-129.90477 11.136462 -41.888646)
(-110.15258 16.10115 -44.560184)
(-95.087626 19.838248 -45.51586)
(-84.796151 22.410737 -44.779033)
(-78.856211 23.376515 -42.511807)
(-76.530388 23.050524 -38.95503)
(-76.709653 21.254771 -34.410995)
(-78.165952 18.552661 -29.220905)
(-79.367418 14.991018 -23.782327)
(-78.871893 11.381306 -18.41469)
(-75.252005 7.8631242 -13.503965)
(-67.261331 5.2282594 -9.2284398)
(-53.823997 3.7782507 -5.8756975)
(-34.335134 4.0520879 -3.4929021)
(-8.3389857 6.2200476 -2.0984383)
(24.041451 10.630954 -1.6836393)
(62.436169 17.215904 -2.0454164)
(106.05814 25.910999 -2.9532335)
(153.98634 36.534306 -4.2186526)
(204.69922 48.681086 -5.6497369)
(256.76333 61.75943 -6.77495)
(308.75045 75.038816 -7.3833812)
(359.08572 88.143294 -7.1973671)
(406.36524 100.44095 -6.1711989)
(449.39506 111.24036 -4.072221)
(487.19692 120.16894 -0.99387288)
(519.15656 126.83232 3.0214427)
(544.93984 131.01735 7.8682419)
(564.60349 132.62599 13.293714)
(578.54525 131.78764 19.04826)
(587.46293 128.77336 24.790051)
(592.32716 124.00716 30.197364)
(594.29243 118.05345 34.905802)
(594.64025 111.55511 38.602338)
(594.68027 105.21635 40.992254)
(595.68329 99.737438 41.848887)
(598.78905 95.778219 41.015667)
(604.94892 93.908755 38.41855)
(614.86448 94.56556 34.071931)
(628.94897 98.032086 28.082305)
(647.30914 104.40022 20.631932)
(669.73703 113.57897 11.98575)
(695.73007 125.29778 2.4587725)
(724.51921 139.08386 -7.5961708)
(755.13478 154.38171 -17.76289)
(786.38904 170.44271 -27.731613)
(817.1165 186.58313 -37.052819)
(846.04589 201.79565 -45.407061)
(871.94305 215.74593 -52.693187)
(893.77989 227.30321 -58.276143)
(910.5693 236.11383 -62.311529)
(921.78978 241.58586 -64.91397)
(926.89725 243.80759 -65.778157)
(926.12775 242.37819 -65.215679)
(919.47834 237.74193 -63.374714)
(907.56945 230.10754 -60.370998)
(891.28475 219.78261 -56.611968)