/*--------------------------------*- C++ -*----------------------------------*\
  =========                 |
  \\      /  F ield         | OpenFOAM: The Open Source CFD Toolbox
   \\    /   O peration     | Website:  https://openfoam.org
    \\  /    A nd           | Version:  6
     \\/     M anipulation  |
\*---------------------------------------------------------------------------*/
FoamFile
{
    version     2.0;
    format      ascii;
    class       pointVectorField;
    location    "1.84";
    object      lm;
}
// * * * * * * * * * * * * * * * * * * * * * * * * * * * * * * * * * * * * * //

dimensions      [1 -2 -1 0 0 0 0];

internalField   nonuniform List<vector> 
3969
(
(-4.0340813e-15 -4.7705825e-17 1.3312818e-16)
(9.2297575e-16 -2.6090405e-16 -6.0252577e-16)
(8372.9607 985.82357 47.39273)
(8387.4739 -1430.6535 109.17572)
(-7.1783695e-15 2.6020842e-15 -1.0366567e-15)
(-4.622429e-15 2.1493156e-15 -1.5432914e-15)
(8363.7949 -1446.0366 108.51623)
(8349.3826 969.96298 48.386582)
(-6.09887e-15 1.0869625e-16 -2.0095736e-16)
(-3.193382e-15 6.5333688e-16 6.3735029e-17)
(-2.9260211e-15 2.9260844e-16 -4.8432863e-17)
(-1.7497804e-15 -1.5755452e-16 -2.074758e-16)
(-4.3254872e-15 8.6218995e-16 7.3228779e-16)
(-2.4697388e-15 -4.9707839e-16 4.8086129e-16)
(5.2680668e-16 -4.7467027e-16 -5.3018058e-16)
(8260.6684 675.72283 53.888205)
(8170.3494 375.12399 60.399549)
(8189.8063 82.161209 68.374171)
(8302.5645 -214.75716 77.307522)
(8438.066 -521.67892 86.864384)
(8512.7839 -833.5501 95.730484)
(8480.8513 -1137.9284 103.03881)
(-6.3788534 3.6509422 9.9280745)
(-7.7421961 10.779616 8.9925866)
(-2.7886383 25.434596 3.9721136)
(9.7772219 39.849984 -4.0510494)
(26.194865 58.59061 -12.200544)
(49.177304 79.030557 -21.297902)
(75.925297 102.49046 -28.403901)
(109.03922 128.1312 -35.430765)
(147.09489 156.43448 -39.721469)
(191.43161 186.33359 -43.437214)
(242.25311 219.1528 -44.0081)
(299.67969 253.10767 -43.42062)
(365.19719 289.42946 -40.738931)
(438.28684 327.11508 -36.098236)
(521.0106 366.04913 -30.117202)
(612.40465 406.00516 -22.802914)
(714.33291 446.84676 -14.305697)
(826.71905 488.14747 -5.2846228)
(950.58471 529.84463 4.2150793)
(1085.9409 571.25898 13.715353)
(1233.6582 612.46421 22.938182)
(1393.5578 652.8925 31.655997)
(1566.0783 692.37835 39.551543)
(1751.1262 730.46735 46.555873)
(1948.4143 767.03993 52.416392)
(2157.7944 801.82165 57.232394)
(2378.645 834.51153 60.861069)
(2610.689 864.97778 63.305752)
(2853.0943 892.97474 64.659986)
(3105.0517 918.36583 65.012464)
(3365.819 941.16509 64.391518)
(3634.4781 961.19828 62.988142)
(3910.0446 978.47247 60.919979)
(4191.6249 993.08875 58.291933)
(4478.0831 1004.9251 55.437761)
(4768.7684 1014.161 52.380882)
(5062.3019 1020.9723 49.231078)
(5358.2218 1025.2159 46.44973)
(5655.4135 1027.4211 43.983397)
(5953.4085 1027.3782 41.98985)
(6251.5855 1025.7017 40.458005)
(6549.2934 1022.157 39.582856)
(6846.5808 1017.1785 39.378336)
(7142.4045 1011.2076 39.647424)
(7437.8181 1003.6939 40.847725)
(7731.2503 996.13 42.368421)
(8021.958 987.26859 44.786962)
(8.544321 -28.799535 -34.423456)
(9.8771845 -48.514586 -47.411427)
(12.584724 -68.485914 -64.83886)
(19.770027 -92.299995 -77.859958)
(32.165827 -113.15018 -92.75366)
(48.493627 -135.85007 -105.3777)
(71.532479 -157.90967 -118.06411)
(99.074722 -180.23192 -129.27401)
(133.4895 -203.16323 -139.46706)
(173.99815 -226.80032 -147.73281)
(221.52173 -251.60273 -154.69918)
(276.48677 -277.8884 -159.75105)
(339.18253 -305.84688 -162.92618)
(410.35158 -335.73834 -164.24447)
(490.56485 -368.11779 -163.88269)
(580.30984 -402.63092 -161.72977)
(680.17974 -439.61771 -158.05729)
(790.64496 -478.90045 -152.96036)
(912.166 -520.55136 -146.56365)
(1045.2753 -564.04732 -139.14925)
(1189.9842 -609.90835 -130.69267)
(1347.1535 -656.54665 -121.65193)
(1516.3099 -705.18796 -111.6619)
(1698.2093 -754.24294 -101.40363)
(1891.9032 -803.63661 -90.756095)
(2097.9502 -852.84959 -79.930505)
(2315.1652 -901.65546 -68.782914)
(2544.7427 -949.58093 -57.586347)
(2785.0919 -996.03545 -46.629311)
(3035.8144 -1040.7757 -35.504453)
(3296.3632 -1083.5566 -24.597289)
(3565.7257 -1124.0256 -13.792092)
(3843.301 -1161.9556 -3.2205474)
(4127.9931 -1197.1216 7.112518)
(4418.9795 -1229.4196 17.137096)
(4715.2713 -1258.8124 26.910053)
(5015.8337 -1285.1192 36.256398)
(5319.7028 -1308.5807 45.343039)
(5625.9905 -1329.3735 53.981423)
(5933.781 -1347.4021 62.188738)
(6242.3119 -1363.1516 70.045761)
(6550.7182 -1376.7262 77.333702)
(6858.3942 -1388.356 84.167519)
(7164.6571 -1398.3661 90.325417)
(7469.13 -1406.9949 95.925336)
(7771.2723 -1414.5537 100.85538)
(8078.4509 -1422.3818 105.23298)
(-3.9179893e-16 -2.8384427e-17 -1.6191597e-16)
(6.8869455e-16 3.3255846e-16 -2.9305012e-16)
(-3.0379221e-16 -4.0639439e-16 3.7376104e-16)
(8.6048107e-16 -8.7588792e-17 1.0515471e-16)
(5.0258192e-16 -7.4376592e-16 6.4035694e-16)
(-2.9679417e-15 -3.4669267e-16 7.3060073e-16)
(8.9003905e-16 -2.834795e-16 1.0120244e-16)
(-1.6098507 -4.1934957 11.919759)
(-3.9962954 -18.721768 12.149175)
(1.7145787 -30.388461 5.708056)
(15.675173 -50.012723 -2.5060778)
(31.717662 -66.930607 -11.92084)
(55.282952 -91.422064 -22.052565)
(81.766514 -114.80738 -29.504759)
(114.46465 -142.33779 -38.384274)
(151.8197 -171.8109 -42.203705)
(195.21455 -202.69929 -47.458233)
(244.79102 -237.66136 -47.262844)
(299.84521 -271.81463 -47.099727)
(363.79121 -309.60498 -44.315415)
(434.62816 -348.93764 -39.375397)
(514.27158 -388.95276 -33.264137)
(602.80066 -431.85886 -24.914786)
(701.17997 -474.98743 -15.975488)
(809.90312 -520.13301 -5.7328801)
(929.62176 -565.91125 4.7924267)
(1060.8216 -612.73117 15.684428)
(1203.9113 -660.14176 26.417429)
(1359.2348 -707.94624 36.86485)
(1526.9604 -755.94971 46.666262)
(1707.102 -803.67235 55.755247)
(1899.9774 -851.50007 63.677026)
(2105.9016 -898.23301 70.141961)
(2322.5387 -944.86849 76.434355)
(2550.6257 -989.63874 81.557973)
(2789.7693 -1033.1301 85.789994)
(3039.2302 -1074.6828 88.934837)
(3298.2508 -1114.3069 91.156318)
(3566.0905 -1151.7675 92.633685)
(3841.8275 -1186.8641 93.403342)
(4124.5462 -1219.4945 93.649938)
(4413.2708 -1249.5057 93.476245)
(4707.5088 -1277.4097 93.229037)
(5005.4385 -1301.6551 92.679769)
(5305.9863 -1324.5212 92.500415)
(5609.1705 -1344.1485 92.379972)
(5913.8036 -1361.7169 92.662856)
(6219.0064 -1376.9869 93.268486)
(6524.215 -1390.2644 94.35551)
(6828.7505 -1401.6924 95.821012)
(7132.2091 -1411.4891 97.692122)
(7434.1303 -1419.96 99.938262)
(7734.1707 -1427.2348 102.48562)
(8024.8323 -1432.4265 105.20245)
(8462.8431 -1154.6772 101.87376)
(8484.0442 -849.21895 94.288523)
(8394.6757 -536.4541 85.87423)
(8244.5352 -229.19972 77.380702)
(8152.8631 66.65148 69.517465)
(8152.2554 360.43934 62.400557)
(8257.6142 662.04121 55.682098)
(8013.1229 973.17317 44.042425)
(7725.8179 982.39462 40.207164)
(7431.6175 990.10188 35.964773)
(7136.1388 997.10274 31.551027)
(6839.6786 1002.9861 26.839331)
(6542.4578 1007.5178 21.940908)
(6244.7722 1010.4664 16.897956)
(5947.0039 1011.4949 11.70163)
(5649.6212 1010.4469 6.2925575)
(5353.3214 1007.1566 0.84022194)
(5056.8447 1000.6683 -4.8360198)
(4767.2635 991.94248 -10.208709)
(4477.1652 980.4049 -16.828744)
(4192.4173 965.56718 -22.96797)
(3912.4193 947.80082 -29.722157)
(3638.3538 927.01312 -36.665383)
(3371.1026 903.26438 -43.985541)
(3111.5677 876.69734 -51.647897)
(2860.589 847.56705 -59.653142)
(2618.9868 815.91736 -67.9118)
(2387.4052 782.32058 -76.529591)
(2166.6226 746.7443 -85.256385)
(1957.0769 709.84818 -94.094237)
(1759.1027 671.81097 -102.98722)
(1573.1239 633.08185 -111.80136)
(1399.3159 594.13577 -120.342)
(1237.6595 555.26495 -128.49373)
(1088.1396 516.96464 -136.08273)
(950.625 479.53293 -142.88532)
(824.68884 443.21519 -148.68817)
(710.11955 408.51897 -153.46859)
(606.27236 375.27537 -156.78232)
(513.18835 344.48723 -158.57942)
(429.57118 313.31175 -158.32714)
(355.74602 286.07501 -157.32795)
(289.82523 260.01015 -152.82291)
(232.73517 235.5773 -148.16411)
(182.65431 211.72197 -140.76631)
(139.93001 189.67977 -132.12131)
(104.24723 167.03022 -121.54549)
(74.726918 147.81714 -110.51478)
(50.764046 125.20132 -97.200738)
(32.734267 106.34458 -84.71986)
(20.192591 83.918696 -69.867737)
(13.26197 64.528367 -56.017777)
(9.7523378 42.967138 -39.832358)
(21.315467 23.083598 -18.565606)
(-6.7652979e-16 3.5118239e-16 1.2802193e-16)
(-2.3129286e-15 2.7505878e-16 1.3239036e-16)
(-3.6393531e-15 -1.4253491e-16 -1.5464221e-16)
(-4.9195801e-15 -9.3657526e-16 4.6870719e-16)
(-4.0844143e-15 -8.2232132e-16 1.723462e-16)
(-2.0271537e-15 -1.8079967e-16 2.6438577e-16)
(-2.0670014e-15 8.6459225e-16 1.4474963e-15)
(-4.5036838e-15 1.2268482e-15 -2.065022e-16)
(-1.9919023e-15 1.1694967e-15 -1.6367101e-16)
(-2.9438013e-15 1.1112212e-15 -1.969436e-16)
(-2.4504202e-15 9.597151e-16 -1.1789697e-16)
(-5.2893259e-15 2.5926013e-15 -8.0820905e-16)
(-1.8775489e-15 1.1365606e-15 -5.8525306e-16)
(-7.4714327e-17 -2.094137e-16 9.7564992e-17)
(8384.8766 -1433.2471 109.0317)
(8382.2018 -1435.6911 108.83393)
(8379.3731 -1437.825 108.71939)
(8376.4154 -1439.6977 108.64918)
(8373.3049 -1441.4255 108.70089)
(8370.0553 -1442.9539 108.74228)
(8366.8604 -1444.5694 108.61258)
(8370.3545 984.74728 47.61587)
(8367.6865 983.28477 47.760737)
(8364.9235 981.66485 47.899825)
(8362.0484 979.79425 47.974969)
(8359.0186 977.63039 48.01985)
(8355.8749 975.29916 48.097987)
(8352.653 972.74159 48.313061)
(-8.0094965 5.0555705 4.3885824)
(-12.079882 9.1686262 1.1989565)
(-8.7997466 17.531901 -5.3688752)
(1.5575248 26.93324 -12.44932)
(16.174876 39.232311 -21.299358)
(37.586738 55.276138 -29.562199)
(62.017834 71.705761 -37.476045)
(93.637164 92.618683 -44.255547)
(129.67193 113.59326 -49.887123)
(172.51872 137.81365 -53.504263)
(221.42144 163.32109 -55.572908)
(277.62877 190.19798 -56.008235)
(341.89467 219.18246 -54.200823)
(414.23709 248.47451 -50.980079)
(496.20725 279.05377 -45.913372)
(587.86781 310.17401 -39.656689)
(690.37769 341.78968 -32.171162)
(803.9648 373.23036 -23.827138)
(929.60976 404.66663 -14.957136)
(1067.5793 435.4209 -5.8830129)
(1218.3248 465.56316 3.1884395)
(1381.9762 494.56106 11.846163)
(1558.7131 522.42754 20.012618)
(1748.1796 548.75825 27.372913)
(1950.3152 573.61696 33.927095)
(2164.5746 596.50588 39.359845)
(2390.0845 617.61057 43.86043)
(2626.318 636.82726 47.32477)
(2872.3109 653.87152 49.848474)
(3126.9623 668.93261 51.419339)
(3389.3532 681.91097 52.201746)
(3658.3874 692.81656 52.25543)
(3932.938 701.79533 51.716609)
(4212.0133 708.82034 50.758377)
(4494.5508 714.04169 49.511381)
(4779.6047 717.61151 48.095487)
(5066.386 719.50592 46.687444)
(5354.106 719.95528 45.479473)
(5642.1923 719.13385 44.498125)
(5930.1916 716.99474 43.897263)
(6217.7665 713.91321 43.591934)
(6504.7779 709.71457 43.893616)
(6791.1555 704.86772 44.487427)
(7076.8241 699.21856 45.689417)
(7362.4327 692.96648 47.258297)
(7647.2748 686.54884 49.163072)
(7939.8677 679.99277 51.469092)
(-11.291694 -1.1118955 -2.174764)
(-14.211832 -0.53630667 -7.7761301)
(-11.23671 4.637938 -14.974498)
(-2.1519898 8.4105057 -22.977749)
(11.860048 17.131948 -31.371072)
(30.038359 26.353665 -40.325267)
(54.378244 38.445706 -47.718142)
(83.622478 52.494445 -55.94501)
(118.6738 67.871398 -60.686465)
(159.88075 85.498457 -65.957723)
(208.14474 103.73248 -68.301862)
(263.48089 123.89203 -69.637041)
(327.02279 144.47091 -68.645911)
(399.37959 165.84607 -66.122618)
(481.23323 187.58707 -61.884749)
(572.99694 209.6487 -56.56362)
(675.60453 231.5061 -49.741863)
(789.68074 253.00787 -42.084106)
(916.04401 273.85827 -33.76489)
(1054.9024 293.826 -24.967716)
(1206.8311 312.74707 -16.182812)
(1371.8097 330.49153 -7.5081904)
(1549.6659 346.86724 0.77729974)
(1740.5038 361.97491 8.5564451)
(1943.7497 375.4487 15.5229)
(2158.7384 387.52898 21.919916)
(2384.9446 398.01914 27.435275)
(2621.464 406.93263 31.968045)
(2867.1834 414.44102 35.855978)
(3121.2451 420.47263 38.854888)
(3382.5215 425.13153 41.15518)
(3649.8776 428.52025 42.806549)
(3922.265 430.68966 43.948957)
(4198.6746 431.76182 44.648622)
(4478.0842 431.85074 45.059316)
(4759.7348 430.97591 45.31244)
(5042.8037 429.31265 45.468755)
(5326.6821 426.89213 45.722888)
(5610.9662 423.83606 46.103164)
(5895.2709 420.05802 46.675863)
(6179.588 415.94144 47.489982)
(6463.5971 411.09193 48.644096)
(6747.7902 406.04107 50.037495)
(7031.7492 400.45671 51.71326)
(7316.6082 394.54973 53.761659)
(7601.4397 388.58901 55.816491)
(7891.0612 382.06471 58.39646)
(-15.328869 -6.156164 -7.0882233)
(-17.477813 -8.4895537 -13.469472)
(-14.680127 -8.5700122 -23.215324)
(-5.2006272 -7.9207144 -31.177008)
(7.003338 -5.0492337 -41.29025)
(27.205613 0.24646165 -50.199991)
(50.482773 5.8875444 -59.758704)
(80.437351 14.72826 -66.990872)
(115.53152 23.420425 -73.775677)
(157.60571 34.040149 -79.140775)
(205.2406 45.773122 -82.166929)
(260.73622 57.540005 -84.019513)
(323.81682 70.403658 -83.710128)
(395.47636 82.798083 -81.860816)
(476.38486 95.657193 -78.220981)
(567.3179 107.94432 -73.538478)
(668.87856 119.78077 -67.273477)
(781.74615 130.69797 -60.374466)
(906.32045 140.7069 -52.376317)
(1042.929 149.56565 -44.088023)
(1191.9403 157.31435 -35.409996)
(1353.4319 163.64542 -26.734253)
(1527.8763 169.00653 -18.210064)
(1714.7867 172.82745 -10.21934)
(1913.7992 175.5863 -2.4303188)
(2124.7635 177.22065 4.4714031)
(2346.9877 177.76429 10.757978)
(2579.6702 177.38992 16.416517)
(2822.0012 176.21027 21.39977)
(3073.1761 174.1779 25.70194)
(3332.223 171.58282 29.437625)
(3598.2618 168.3798 32.621263)
(3870.356 164.74383 35.333694)
(4147.5889 160.74351 37.640462)
(4429.1114 156.40649 39.697373)
(4714.1044 151.87873 41.499223)
(5001.8535 147.08965 43.251421)
(5291.7741 142.21327 44.948632)
(5583.2729 137.11476 46.67086)
(5875.9252 131.87678 48.589283)
(6169.3942 126.46721 50.557193)
(6463.4984 120.758 52.850065)
(6758.1667 115.05424 55.096511)
(7053.1293 108.90305 57.796183)
(7348.8878 102.72208 60.376743)
(7644.6685 96.26073 63.255144)
(7939.1012 89.385355 66.058134)
(-14.478572 -10.100688 -14.915088)
(-14.799828 -16.808999 -24.436062)
(-12.253277 -20.936565 -34.208604)
(-3.6998111 -26.055438 -43.749581)
(10.635165 -27.695212 -54.051793)
(28.814681 -28.840185 -64.099997)
(53.171968 -28.627616 -72.408111)
(82.262322 -26.039916 -81.015223)
(117.96606 -24.018303 -87.196367)
(158.95292 -19.674757 -92.173204)
(207.1659 -16.210511 -95.626834)
(262.88563 -11.646904 -97.678494)
(325.89667 -7.3732427 -97.905143)
(397.75072 -3.7106605 -96.275118)
(478.06886 -0.12222946 -93.537539)
(568.17017 2.5941378 -89.072398)
(667.9394 4.4743575 -83.608063)
(778.38557 5.2487798 -76.92692)
(899.69259 4.7831876 -69.512762)
(1032.4232 3.1955273 -61.634349)
(1177.1707 0.35733237 -53.436604)
(1334.1767 -3.517686 -45.061536)
(1502.6879 -8.7081564 -36.913126)
(1683.3382 -14.753266 -28.635185)
(1876.0165 -21.604098 -20.996641)
(2080.4365 -29.213455 -13.543176)
(2296.1544 -37.491885 -6.3543955)
(2522.9488 -46.296155 0.34249964)
(2760.2991 -55.507454 6.5232189)
(3007.6608 -64.967822 12.285912)
(3264.4249 -74.541825 17.532894)
(3529.9185 -84.21585 22.383089)
(3803.4083 -93.75116 26.773287)
(4084.1549 -103.21087 30.877231)
(4371.3443 -112.42028 34.63987)
(4664.2154 -121.43626 38.22744)
(4961.9847 -130.11716 41.610378)
(5263.7743 -138.63396 44.939812)
(5568.8614 -146.93573 48.241049)
(5876.6838 -155.01441 51.46047)
(6186.6436 -162.79961 54.716054)
(6497.8377 -170.55461 58.032581)
(6810.0591 -178.1011 61.337002)
(7122.3299 -185.80485 64.729833)
(7434.954 -193.33911 68.017523)
(7746.491 -200.98536 71.350765)
(8051.0956 -208.50954 74.625391)
(-13.194162 -17.197863 -21.94986)
(-13.338922 -27.88031 -30.238923)
(-11.045268 -38.047969 -42.23056)
(-0.80979578 -47.452286 -52.818333)
(11.514856 -54.919969 -64.395436)
(31.546195 -61.009277 -74.449327)
(55.237361 -66.477008 -84.738532)
(85.878582 -69.904226 -93.665627)
(121.20796 -74.10193 -100.49826)
(163.77412 -76.7608 -106.83589)
(212.54142 -79.892042 -111.26191)
(268.19526 -82.325979 -113.61402)
(331.54276 -86.345775 -113.81715)
(402.79177 -90.260682 -112.83412)
(482.39787 -95.468644 -109.90466)
(571.1124 -101.6634 -105.77846)
(669.24099 -108.92402 -100.42225)
(777.38 -117.56146 -94.106315)
(895.83083 -127.36546 -86.982715)
(1025.0777 -138.42188 -79.344263)
(1165.628 -150.56466 -71.165989)
(1317.7646 -164.38603 -62.683373)
(1482.5221 -178.71888 -54.138072)
(1657.8589 -194.2807 -45.69634)
(1845.1095 -210.32945 -37.231322)
(2044.0898 -227.10139 -28.965935)
(2255.039 -244.25385 -21.042545)
(2477.5908 -261.6872 -13.5554)
(2711.4594 -279.18839 -6.350663)
(2956.3574 -296.6162 0.44353217)
(3211.9184 -313.87641 6.9269672)
(3477.6123 -330.85042 13.060471)
(3752.9044 -347.33642 18.849429)
(4037.0772 -363.35512 24.38662)
(4329.4436 -378.71412 29.632613)
(4629.1691 -393.39582 34.675584)
(4935.408 -407.37437 39.528653)
(5247.184 -420.73616 44.321713)
(5568.8095 -433.71139 48.789015)
(5892.8988 -445.6394 53.464264)
(6216.8135 -457.04434 57.96896)
(6542.4652 -467.86426 62.462569)
(6868.7854 -478.19668 66.779613)
(7194.8518 -488.20609 71.143506)
(7519.9592 -497.68474 75.206548)
(7842.822 -506.96959 79.389391)
(8156.8417 -515.2753 83.219812)
(-9.1408814 -19.685996 -27.422793)
(-6.9252158 -35.375229 -38.315188)
(-3.9124053 -49.851651 -52.311148)
(4.8287953 -64.855363 -63.61429)
(18.430682 -76.984207 -76.159971)
(36.984831 -89.437185 -87.099435)
(61.52939 -100.6388 -97.933114)
(91.209737 -110.9023 -107.04308)
(127.15488 -121.54296 -114.8865)
(169.38187 -131.20281 -121.31421)
(218.05419 -141.80859 -125.80228)
(274.01026 -152.68985 -128.43283)
(337.31711 -164.71029 -129.61173)
(408.47538 -177.399 -128.87469)
(487.90264 -191.39411 -126.70524)
(576.31862 -206.53352 -123.0386)
(673.94091 -223.11437 -118.26565)
(781.39118 -241.01797 -112.25111)
(899.00875 -260.42017 -105.48608)
(1027.2892 -281.09782 -97.911467)
(1166.4115 -303.40503 -89.922277)
(1317.9387 -325.88518 -81.205539)
(1479.6713 -350.10596 -73.067642)
(1654.0713 -376.11721 -63.880821)
(1839.7854 -401.93526 -55.172473)
(2037.5148 -428.30259 -46.518463)
(2247.3717 -454.60418 -37.858714)
(2469.0349 -481.06353 -29.278396)
(2702.393 -507.24643 -21.000183)
(2947.4191 -533.22434 -12.837497)
(3203.5549 -558.66463 -4.9528937)
(3470.4403 -583.43171 2.740596)
(3747.5164 -607.34374 10.131367)
(4034.0836 -630.33447 17.347192)
(4329.399 -652.10394 24.22975)
(4632.5884 -672.80964 30.987555)
(4942.7068 -692.17233 37.498092)
(5258.6527 -710.31794 43.847383)
(5579.6163 -727.18726 50.032152)
(5910.9972 -743.74508 56.139904)
(6238.2132 -758.02292 61.861315)
(6566.7115 -771.34114 67.472857)
(6895.4952 -783.66619 72.836309)
(7223.363 -795.11535 77.946679)
(7549.4907 -805.67957 82.733192)
(7872.8145 -815.58359 87.207812)
(8190.1273 -824.29319 91.364861)
(-0.69531934 -27.741653 -31.12081)
(0.91990457 -45.726624 -43.878555)
(2.8939848 -64.941918 -58.090199)
(12.006329 -83.120663 -71.212782)
(23.198407 -100.64785 -84.183827)
(42.232856 -117.96492 -96.073649)
(64.771163 -134.61177 -107.88829)
(94.176835 -150.97894 -117.77278)
(129.05689 -167.60993 -126.92111)
(170.50133 -184.15899 -134.02108)
(218.80087 -201.85158 -139.64255)
(274.07099 -219.93816 -143.52456)
(337.27508 -239.71767 -145.2598)
(408.23421 -260.52664 -145.54328)
(487.94858 -282.99194 -144.04353)
(576.79685 -307.15805 -141.10728)
(675.18721 -333.10469 -136.65671)
(783.77886 -360.82408 -131.12533)
(902.78447 -390.35829 -124.4539)
(1032.8399 -421.55609 -117.00297)
(1174.1861 -454.00915 -108.87495)
(1326.871 -488.24139 -100.03947)
(1492.1476 -523.06718 -91.005662)
(1668.9681 -559.3101 -81.534983)
(1857.9501 -595.80376 -72.136139)
(2058.9029 -632.68675 -62.388495)
(2271.9827 -669.52242 -52.481015)
(2497.0118 -705.94647 -42.85959)
(2733.604 -741.83239 -33.323433)
(2981.4111 -776.99128 -23.864527)
(3239.8256 -811.04584 -14.598094)
(3508.4152 -843.84066 -5.5024088)
(3786.3727 -875.12244 3.3577432)
(4072.9785 -904.73466 12.010948)
(4367.3638 -932.46431 20.372827)
(4668.547 -958.3324 28.572133)
(4975.5854 -982.15251 36.459762)
(5287.4845 -1003.9938 44.134693)
(5603.0269 -1023.8845 51.483993)
(5921.2048 -1041.8054 58.607527)
(6241.1737 -1057.977 65.469619)
(6561.7639 -1072.5128 72.022328)
(6882.0212 -1085.5967 78.142362)
(7201.0805 -1097.3433 83.904876)
(7518.1426 -1107.8972 89.092852)
(7832.5239 -1117.514 93.950326)
(8140.5729 -1125.7427 98.27675)
(-1.8726199e-15 -1.0357256e-16 4.2324109e-16)
(-4.3693994e-15 5.8098526e-16 1.0825799e-16)
(-1.86708e-15 5.0203615e-16 5.7484399e-16)
(-1.1298519e-15 4.4303811e-16 -1.5186772e-16)
(-1.5283164e-15 1.7502349e-16 4.7144117e-17)
(-3.9278597e-15 -6.147074e-18 -1.0233878e-17)
(-3.270765e-15 8.5080195e-17 2.8271762e-17)
(-1.444637e-15 3.1767481e-17 -1.0328492e-16)
(-1.9600489e-15 -2.0641393e-16 2.5996682e-17)
(-1.0758982e-15 -5.0887233e-16 -1.6282415e-16)
(-1.1902312e-15 -6.3217422e-16 -1.0496995e-16)
(-2.2455722e-15 -1.0363924e-16 3.7607835e-16)
(-1.7254929e-15 1.2766475e-16 7.9907906e-17)
(-6.542485e-16 2.4659353e-16 4.7610311e-16)
(-1.0183069e-15 2.0413811e-16 3.0876606e-16)
(-1.2825224e-16 3.2154578e-16 2.6910031e-16)
(-2.4669526e-15 5.8726168e-16 -3.2350189e-17)
(-1.9694108e-15 5.8752001e-16 2.9593509e-16)
(-1.9972486e-15 5.0741204e-16 1.6376266e-16)
(-5.0142844e-16 5.9082617e-16 -1.5096731e-17)
(2.8672985e-17 2.0007103e-16 -2.079567e-16)
(-3.5598279e-15 1.6770216e-16 6.1584209e-17)
(1.5219227e-15 -3.8112137e-16 -3.4960392e-16)
(-8.8364966e-17 -1.5289127e-16 1.7491834e-16)
(2.7397895e-16 -2.6900304e-16 -2.0413732e-16)
(-5.1236454e-16 -3.7600259e-16 -4.411389e-17)
(-1.3114086e-15 -5.3747975e-16 1.2489795e-16)
(2.0041989e-16 -4.4379834e-16 -1.4360784e-16)
(-1.3448657e-15 3.3966264e-16 -2.7012678e-16)
(-2.2010094e-15 1.2158219e-16 1.1470551e-16)
(-1.2722141e-15 -2.3577892e-16 -7.7366055e-17)
(-2.6936153e-15 2.298542e-17 6.0151854e-16)
(-1.8084585e-15 2.5926424e-16 8.2177642e-17)
(-1.0121806e-15 3.7760621e-16 1.5728837e-17)
(-3.5076342e-15 -1.049112e-16 -1.8966684e-16)
(-1.2388067e-16 -2.746004e-16 -1.3203227e-16)
(-1.1077126e-15 -2.2449831e-16 5.9960705e-17)
(-7.9462407e-16 5.2806017e-17 1.8160622e-16)
(-1.481116e-15 2.6347307e-16 -6.003674e-17)
(5.3541372e-16 1.9494005e-16 5.7756958e-17)
(-2.5861876e-15 -7.0653702e-17 -1.8824779e-16)
(-1.6152529e-15 1.8241927e-16 3.8488004e-16)
(-1.0389662e-15 3.299921e-17 2.9700946e-16)
(-3.8817577e-15 -1.9427146e-16 -1.2145786e-15)
(-1.6161979e-15 2.8442108e-16 -1.856842e-16)
(8.1577518e-16 1.8112067e-17 2.0819295e-16)
(-2.485062e-15 2.8178417e-16 -5.4749215e-16)
(-1.8307085e-15 4.4562511e-16 -1.4619564e-16)
(-1.4586292e-15 4.0358521e-16 -4.0281137e-16)
(13.639713 -8.0096193 -17.93559)
(14.07591 -7.8287507 -13.317217)
(13.605372 -7.6871839 -8.849006)
(12.50439 -7.3861321 -5.4480583)
(10.760553 -6.2313278 -1.3385768)
(7.6746059 -5.3572472 2.5379052)
(3.1170929 -3.3117572 7.2143216)
(15.811037 -35.10183 -41.326368)
(18.170706 -32.852883 -28.801673)
(18.670314 -29.872497 -20.667802)
(17.232757 -28.053147 -14.555431)
(15.093816 -26.966468 -8.5202754)
(10.633151 -24.368724 -1.7091723)
(5.5006603 -21.114865 5.3322387)
(18.152835 -54.835751 -53.490651)
(21.816178 -48.766547 -44.108717)
(24.093443 -46.112194 -33.883836)
(23.264435 -43.887364 -26.555492)
(21.629189 -41.879004 -16.842691)
(16.765481 -39.553013 -9.9691433)
(10.78436 -36.66463 -1.1138853)
(28.366089 -80.278438 -67.91337)
(32.859269 -75.74845 -57.841583)
(35.900087 -71.719652 -47.826453)
(36.112991 -68.556426 -37.990263)
(34.349336 -66.052797 -28.787774)
(30.222558 -62.63148 -20.212777)
(24.398284 -57.671786 -10.839268)
(40.194929 -100.90867 -82.21725)
(46.320794 -94.618097 -71.871951)
(50.104201 -90.041588 -60.871316)
(51.157919 -86.786871 -51.08079)
(50.43401 -84.245407 -40.206861)
(46.423563 -80.235163 -31.332687)
(40.72282 -75.847259 -20.89388)
(58.953523 -125.95932 -94.799396)
(65.447006 -120.21951 -85.18817)
(70.675779 -116.00307 -73.381792)
(71.859662 -112.35695 -63.879413)
(71.879726 -108.78177 -52.141569)
(68.093283 -103.83541 -42.139529)
(62.960029 -99.261697 -32.077665)
(82.052636 -147.31163 -107.53993)
(90.066057 -141.90511 -96.742098)
(95.177393 -137.63284 -85.693501)
(98.023451 -134.04043 -74.686454)
(97.850454 -131.00988 -63.505859)
(95.435916 -127.92759 -52.909629)
(89.92183 -122.34248 -40.546403)
(111.17027 -171.94937 -118.45087)
(119.68229 -167.39395 -108.42677)
(126.6792 -163.85255 -95.664434)
(129.25239 -160.45859 -84.458374)
(129.52093 -156.86233 -72.91828)
(127.23229 -153.05814 -61.013755)
(121.71816 -148.32171 -49.83816)
(146.4423 -195.68486 -128.39788)
(156.12859 -191.33237 -116.86199)
(162.69747 -188.36686 -105.00565)
(166.38968 -185.53504 -93.482153)
(167.19467 -183.44692 -80.742295)
(165.24191 -180.54738 -68.709039)
(160.00624 -176.98948 -55.253683)
(187.74669 -221.2309 -136.28675)
(197.87709 -218.28643 -125.1492)
(205.68899 -215.53421 -112.26819)
(209.85713 -214.36634 -99.442254)
(210.61076 -211.72828 -87.001238)
(208.53499 -209.10883 -73.545265)
(203.24155 -205.53917 -60.756341)
(236.28484 -247.24629 -142.49738)
(247.37301 -245.10348 -130.85488)
(255.40771 -243.85823 -116.56294)
(259.5584 -242.01984 -104.5211)
(260.77827 -240.84492 -90.173205)
(258.6585 -239.45156 -77.150416)
(253.46244 -238.59452 -62.202277)
(292.13238 -275.45466 -147.2499)
(303.54985 -274.59724 -134.02159)
(311.7724 -274.07818 -120.49188)
(316.80922 -274.35257 -106.4918)
(317.91394 -273.43219 -91.770021)
(315.32247 -273.01091 -78.138889)
(310.23467 -271.61347 -61.861878)
(356.12667 -305.15463 -149.36035)
(367.30528 -304.99811 -135.46725)
(376.55545 -306.07687 -121.38102)
(381.07476 -305.49551 -106.50354)
(382.33014 -305.99004 -91.474415)
(379.52357 -306.48341 -76.878213)
(373.88523 -306.6786 -60.396963)
(427.93345 -336.7645 -150.07977)
(439.5496 -338.02498 -135.36143)
(449.42061 -339.59936 -120.47554)
(453.73281 -340.81382 -104.95033)
(455.21553 -342.31636 -88.871432)
(452.00698 -343.70187 -73.878177)
(446.09536 -344.80419 -55.842053)
(508.83589 -370.87094 -148.79479)
(520.94618 -372.86472 -132.85932)
(530.73693 -375.35509 -117.6499)
(535.02047 -377.07813 -100.87089)
(536.41419 -378.90981 -84.634105)
(532.68543 -381.17235 -68.472795)
(526.14604 -383.20755 -50.207023)
(599.19426 -406.76523 -145.6591)
(611.43927 -409.72754 -129.20972)
(621.36665 -413.075 -113.07153)
(625.79933 -415.65905 -95.853062)
(626.80756 -418.58157 -78.534594)
(622.75353 -421.77532 -61.969544)
(615.65007 -424.66875 -42.584022)
(699.48403 -445.10785 -141.17628)
(711.949 -448.94332 -123.69982)
(722.12664 -452.88799 -106.93526)
(726.01676 -456.16506 -88.757465)
(727.04213 -459.49417 -71.032082)
(722.38569 -463.321 -53.690511)
(714.67692 -467.01456 -33.78867)
(810.31823 -485.59984 -135.1467)
(823.03922 -489.98215 -117.08968)
(832.91544 -494.66895 -99.559978)
(836.88062 -498.50172 -80.886488)
(837.56673 -502.56144 -62.556875)
(832.38509 -507.03438 -44.564216)
(824.1422 -511.29988 -24.101494)
(932.20366 -528.10088 -128.02501)
(944.74566 -533.19017 -109.2534)
(954.7827 -538.18947 -91.075098)
(958.33035 -542.64332 -71.861625)
(958.81055 -546.93584 -52.958385)
(953.11599 -551.9255 -34.552522)
(944.41215 -556.73819 -13.715739)
(1065.3177 -572.6684 -119.87223)
(1078.0482 -577.89349 -100.55208)
(1087.7621 -583.51888 -81.981334)
(1091.1875 -588.21419 -62.274136)
(1091.399 -592.98419 -43.044877)
(1085.2614 -598.36397 -24.202711)
(1076.0705 -603.34045 -3.0607212)
(1210.3256 -618.65341 -110.95108)
(1222.8109 -624.49881 -91.242341)
(1232.3764 -630.18566 -72.167832)
(1235.5545 -635.19773 -52.19854)
(1235.4547 -640.13853 -32.651829)
(1228.9759 -645.6169 -13.6169)
(1219.3939 -650.83325 7.6878742)
(1367.237 -666.29775 -101.41223)
(1379.5929 -672.09315 -81.398997)
(1388.9157 -677.9713 -62.120955)
(1391.844 -683.10649 -42.060161)
(1391.555 -688.14253 -22.333183)
(1384.7046 -693.75774 -3.1594331)
(1374.8253 -698.95978 18.16151)
(1536.2766 -714.78822 -91.276103)
(1548.4698 -720.78366 -71.233205)
(1557.3939 -726.59456 -51.933885)
(1560.1841 -731.82956 -31.845989)
(1559.5275 -736.96505 -12.058976)
(1552.5722 -742.49572 6.9404857)
(1542.4648 -747.52554 28.195737)
(1717.6538 -763.9871 -80.856734)
(1729.5724 -770.03845 -61.013581)
(1738.0345 -775.56587 -41.826048)
(1740.608 -780.96023 -21.816603)
(1739.8399 -785.73516 -2.386917)
(1732.6909 -791.03605 16.615556)
(1722.401 -795.90558 37.568971)
(1910.8812 -813.37094 -70.569628)
(1922.8838 -819.26004 -50.705535)
(1930.4019 -824.48638 -31.926544)
(1933.3991 -829.95736 -12.03481)
(1931.8208 -834.48449 6.8635874)
(1924.9461 -840.09113 25.702053)
(1914.6298 -844.65384 45.885579)
(2116.3205 -862.78989 -60.014521)
(2127.8291 -868.14487 -40.663929)
(2134.8621 -873.63211 -22.300222)
(2137.5683 -878.48069 -2.3288114)
(2135.5471 -882.971 15.139946)
(2129.4913 -887.95906 33.80925)
(2119.1796 -892.13955 52.778138)
(2333.2882 -911.29878 -49.61447)
(2344.3955 -916.63439 -31.105495)
(2351.1038 -921.81935 -12.626234)
(2353.9645 -926.42452 5.4044435)
(2352.0867 -930.52656 23.617977)
(2345.671 -935.22461 41.668165)
(2335.1897 -939.29392 59.705675)
(2562.1532 -958.80232 -39.299498)
(2572.0707 -964.02995 -21.151246)
(2578.969 -968.86053 -3.6497117)
(2580.7699 -972.94628 13.643562)
(2579.1505 -976.92501 31.369835)
(2572.6863 -980.97915 48.025544)
(2562.7916 -985.00196 65.76347)
(2801.4429 -1004.8755 -29.166848)
(2811.0758 -1009.9557 -11.551056)
(2816.9712 -1014.3922 4.5618884)
(2818.9334 -1018.3289 21.665413)
(2816.9609 -1022.1805 37.925554)
(2810.885 -1025.8058 54.045706)
(2801.1887 -1029.3661 70.805292)
(3051.2787 -1049.3815 -18.930033)
(3059.8062 -1054.0927 -2.5797989)
(3065.5423 -1058.3137 12.870617)
(3066.9902 -1061.9146 28.703032)
(3065.1208 -1065.4318 44.123609)
(3059.1948 -1068.5512 59.208314)
(3049.9498 -1071.8093 74.961178)
(3310.431 -1091.7924 -9.2040015)
(3318.4655 -1096.2946 6.219252)
(3323.4606 -1100.0941 20.431352)
(3324.6943 -1103.4482 35.346842)
(3322.7164 -1106.6013 49.564451)
(3317.0305 -1109.4075 63.65423)
(3308.2629 -1112.2657 78.195068)
(3578.6177 -1131.9624 0.45942797)
(3585.6969 -1136.0147 14.559777)
(3590.1532 -1139.5832 27.745052)
(3591.0741 -1142.6184 41.364048)
(3589.0912 -1145.5083 54.463982)
(3583.7008 -1147.9749 67.394555)
(3575.4579 -1150.4617 80.735264)
(3854.6459 -1169.4441 9.7043618)
(3860.9456 -1173.2549 22.582151)
(3864.8029 -1176.5379 34.504313)