/*--------------------------------*- C++ -*----------------------------------*\
  =========                 |
  \\      /  F ield         | OpenFOAM: The Open Source CFD Toolbox
   \\    /   O peration     | Website:  https://openfoam.org
    \\  /    A nd           | Version:  6
     \\/     M anipulation  |
\*---------------------------------------------------------------------------*/
FoamFile
{
    version     2.0;
    format      ascii;
    class       pointVectorField;
    location    "2.500029953938588";
    object      u;
}
// * * * * * * * * * * * * * * * * * * * * * * * * * * * * * * * * * * * * * //

dimensions      [0 1 0 0 0 0 0];

internalField   nonuniform List<vector> 
625
(
(0 0 0)
(0 0 0)
(2.601062 -0.3561786 -0.0080599148)
(2.4126453 -0.93879868 -0.042122116)
(0 0 0)
(0 0 0)
(2.4472527 -0.94944867 -0.043882176)
(2.6353297 -0.36717569 -0.009104597)
(0 0 0)
(0 0 0)
(0 0 0)
(2.5532528 -0.50241694 -0.017421634)
(2.5061994 -0.64688677 -0.025154672)
(2.4598573 -0.79199918 -0.033835283)
(0.0069131183 0.026078795 0.024729153)
(0.026489167 0.054239478 0.026944017)
(0.063263036 0.080011541 0.029570334)
(0.11461814 0.10221979 0.030306071)
(0.17816706 0.1193723 0.031026432)
(0.2552272 0.13245048 0.031598255)
(0.34144487 0.13930888 0.031741607)
(0.43780252 0.14161453 0.031848728)
(0.54260533 0.13818399 0.031715733)
(0.65455147 0.12963829 0.030926085)
(0.77319505 0.11647713 0.030105808)
(0.89736784 0.098198889 0.028381407)
(1.0264795 0.075966134 0.026728234)
(1.1596467 0.049463403 0.024499814)
(1.2963172 0.019502768 0.02201031)
(1.4359322 -0.014002733 0.019119485)
(1.5777516 -0.049989571 0.016126035)
(1.7216028 -0.088817946 0.012822409)
(1.8668353 -0.12997439 0.0093362085)
(2.0128907 -0.17264243 0.0059084794)
(2.1597921 -0.21702263 0.0023385142)
(2.3069044 -0.26214437 -0.0011460174)
(2.4537132 -0.3086942 -0.0042646222)
(-0.005689426 -0.022518926 -0.031718919)
(0.015771332 -0.044583473 -0.026824898)
(0.044205132 -0.073745318 -0.031288564)
(0.088890325 -0.10130544 -0.027567303)
(0.1413493 -0.12865938 -0.027331188)
(0.20797017 -0.16082109 -0.025551488)
(0.28074842 -0.19096971 -0.024866851)
(0.3653691 -0.22523632 -0.023189097)
(0.45653553 -0.26090039 -0.022995464)
(0.55608617 -0.29755602 -0.02211154)
(0.6622679 -0.33716344 -0.022058577)
(0.77483863 -0.37775654 -0.02189477)
(0.89296861 -0.42035541 -0.022361974)
(1.0160508 -0.46417301 -0.023048278)
(1.1436972 -0.50935712 -0.024098831)
(1.2751359 -0.55548185 -0.025450347)
(1.4101692 -0.60259473 -0.027001683)
(1.5477823 -0.65025962 -0.029064458)
(1.6883065 -0.69839209 -0.030864116)
(1.8304335 -0.74660698 -0.033156889)
(1.9744506 -0.7950713 -0.035287634)
(2.119611 -0.84316043 -0.037730127)
(2.2657041 -0.89103525 -0.040174915)
(0 0 0)
(0 0 0)
(0 0 0)
(0.0052497606 -0.014547998 0.021504019)
(0.023415503 -0.058943403 0.024833522)
(0.057046687 -0.074285027 0.01974337)
(0.10110708 -0.1058213 0.016186332)
(0.15917969 -0.140023 0.016323028)
(0.22499513 -0.16565749 0.011320426)
(0.30101716 -0.20219647 0.011461802)
(0.38616865 -0.23463214 0.0084636988)
(0.47928206 -0.2706364 0.0063558672)
(0.58015378 -0.30827808 0.0040795121)
(0.68774129 -0.34748868 0.0013852897)
(0.80150282 -0.38825126 -0.00098525515)
(0.92082613 -0.43076505 -0.0041134188)
(1.0451861 -0.47452847 -0.0072425063)
(1.1737988 -0.51952042 -0.010584563)
(1.3062593 -0.56573183 -0.014078408)
(1.4420359 -0.61265084 -0.017772672)
(1.5805862 -0.6603621 -0.021521057)
(1.7214587 -0.70851233 -0.025312552)
(1.8643123 -0.75690785 -0.02917015)
(2.0085283 -0.80547988 -0.03293978)
(2.1541472 -0.85369745 -0.036626043)
(2.3000568 -0.90185623 -0.040140939)
(2.4945634 -0.80283073 -0.035236858)
(2.5404382 -0.65769963 -0.02617522)
(2.5873788 -0.51369547 -0.017045271)
(2.4882048 -0.31962468 -0.0072579088)
(2.3408217 -0.2730675 -0.0048506841)
(2.1936844 -0.22787177 -0.0026273381)
(2.0464469 -0.18323981 -0.00069052985)
(1.8998641 -0.14048094 0.0012428666)
(1.7541265 -0.099533515 0.0028599075)
(1.6096837 -0.060815921 0.0043634647)
(1.4669606 -0.024624754 0.0054381778)
(1.3263937 0.008568267 0.0062790173)
(1.1886934 0.038607168 0.0066729253)
(1.054232 0.064903034 0.0066396924)
(0.92370544 0.087492139 0.0058382165)
(0.79824869 0.10553256 0.0053484497)
(0.6780209 0.11908137 0.0037665794)
(0.56425208 0.12800414 0.0018630881)
(0.45778573 0.13178757 -0.00041203277)
(0.35963619 0.1309891 -0.0034161781)
(0.27044247 0.1242664 -0.0058053139)
(0.19331462 0.11301005 -0.0097446226)
(0.12545562 0.095724356 -0.011839252)
(0.07241299 0.076733292 -0.017031002)
(0.031822082 0.050630247 -0.018595811)
(0.015917955 0.02505755 -0.015533412)
(0 0 0)
(0 0 0)
(0 0 0)
(0 0 0)
(0 0 0)
(0 0 0)
(2.4210734 -0.94173347 -0.042894766)
(2.4298481 -0.94463411 -0.042835768)
(2.4382378 -0.94730569 -0.043417871)
(2.6102577 -0.358648 -0.0083099318)
(2.6187225 -0.36150636 -0.0086639565)
(2.6274396 -0.36407043 -0.0089841306)
(-0.0049744878 0.015515791 0.017586763)
(0.015856799 0.030691181 0.014330579)
(0.050321424 0.043739103 0.016286164)
(0.099939269 0.05344408 0.016578571)
(0.16177723 0.059687035 0.01729755)
(0.23604368 0.061755304 0.017767406)
(0.31998029 0.058948143 0.018244956)
(0.41384158 0.052209155 0.018429545)
(0.51567854 0.040532375 0.018229266)
(0.62494168 0.024916382 0.017860037)
(0.7408669 0.0050005011 0.017060754)
(0.86276486 -0.019147799 0.015908327)
(0.98947981 -0.046639244 0.014410819)
(1.1205547 -0.077738505 0.012511834)
(1.2553281 -0.11173447 0.010384038)
(1.3932449 -0.14857507 0.0078292449)
(1.5336791 -0.1876543 0.0052068145)
(1.6763657 -0.22880958 0.0021410603)
(1.8207112 -0.27190868 -0.0009027421)
(1.9660348 -0.316154 -0.0039881003)
(2.1125338 -0.36159824 -0.0073218847)
(2.2592585 -0.40773081 -0.010509654)
(2.4062236 -0.45517192 -0.013644523)
(-0.01122151 0.0036289333 -0.00020945167)
(0.010701394 0.003758984 -0.0015597999)
(0.043416717 0.0053306405 0.00048669888)
(0.090607237 0.0034281573 0.0011040495)
(0.15097413 -0.0027195265 0.0021607965)
(0.22218148 -0.010879617 0.0031342312)
(0.30329974 -0.023115755 0.0037510691)
(0.39414924 -0.038950449 0.0042062728)
(0.49274278 -0.058149785 0.0044082717)
(0.5994903 -0.081291795 0.0045806454)
(0.71228954 -0.10742618 0.0037494755)
(0.83138161 -0.13728455 0.0033072244)
(0.95543922 -0.16983805 0.0020756265)
(1.0842072 -0.20518787 0.00066624656)
(1.2168023 -0.24303367 -0.0011004229)
(1.3528153 -0.28301373 -0.0032570371)
(1.4916863 -0.3249416 -0.0054354405)
(1.632896 -0.36825595 -0.0082117472)
(1.7758846 -0.4130227 -0.010686435)
(1.9203767 -0.45871939 -0.013538167)
(2.0662097 -0.50531577 -0.016571913)
(2.2125641 -0.55244865 -0.019327037)
(2.3598127 -0.59987687 -0.02239051)
(-0.013373205 -0.010090557 -0.012453698)
(0.0088243024 -0.019113379 -0.011721137)
(0.038654848 -0.030149635 -0.013143886)
(0.085957733 -0.044668808 -0.011873822)
(0.14297594 -0.062568496 -0.011373798)
(0.21131509 -0.080492961 -0.010466188)
(0.29003601 -0.10368299 -0.0097116832)
(0.377159 -0.12778715 -0.0090452928)
(0.47317166 -0.15553298 -0.0085758143)
(0.57609974 -0.18602694 -0.0084751393)
(0.68625243 -0.21865754 -0.0087042018)
(0.80232059 -0.25444339 -0.0090491877)
(0.92362862 -0.29203569 -0.0099871617)
(1.0498326 -0.33198206 -0.011054625)
(1.1800464 -0.37367953 -0.012550122)
(1.3140252 -0.41708799 -0.014281989)
(1.4508853 -0.46169589 -0.016296503)
(1.5906155 -0.50744757 -0.018536848)
(1.7323764 -0.55412545 -0.020900075)
(1.876051 -0.60138972 -0.023557457)
(2.020918 -0.64920201 -0.02610299)
(2.1667374 -0.69683825 -0.028733499)
(2.3132536 -0.74463075 -0.031373015)
(0 0 0)
(0 0 0)
(0 0 0)
(0 0 0)
(0 0 0)
(0 0 0)
(0 0 0)
(0 0 0)
(0 0 0)
(0.007789998 -0.008374804 -0.013630188)
(0.01130172 -0.012047631 -0.0049807922)
(0.01140398 -0.01001955 0.0065696748)
(0.029891014 -0.05245625 -0.015900884)
(0.032294243 -0.054764428 -0.0045249037)
(0.034012945 -0.054707761 0.01125414)
(0.058045918 -0.075104384 -0.017892742)
(0.063927402 -0.074446036 -0.0057130264)
(0.065622632 -0.078808657 0.0092036112)
(0.10073545 -0.10466752 -0.015621505)
(0.10661682 -0.10788116 -0.0053452543)
(0.10630368 -0.10668607 0.006507643)
(0.15540165 -0.13518947 -0.016334609)
(0.16038566 -0.13653163 -0.0072657914)
(0.16356417 -0.14112345 0.0058819848)
(0.21857149 -0.16456457 -0.015964489)
(0.22580268 -0.16754375 -0.0057523801)
(0.22806743 -0.16837912 0.0034032244)
(0.29346298 -0.19725543 -0.014942988)
(0.29980306 -0.20096412 -0.0076732671)
(0.30245566 -0.2012749 0.0033898178)
(0.37637374 -0.23108092 -0.015276653)
(0.38309889 -0.23262433 -0.0075016025)
(0.38694357 -0.23667153 0.0014855404)
(0.46772741 -0.26590955 -0.014968713)
(0.47491932 -0.26997299 -0.008239256)
(0.47891036 -0.27154712 -3.6793209e-05)
(0.56701491 -0.30355716 -0.015178466)
(0.57412383 -0.306348 -0.0091161126)
(0.57877618 -0.30888989 -0.001601042)
(0.67274936 -0.3422088 -0.015825248)
(0.6804288 -0.34574872 -0.010020469)
(0.68550423 -0.34809602 -0.0037196716)
(0.78528421 -0.38347861 -0.016321595)
(0.79290431 -0.38600364 -0.011807529)
(0.7984928 -0.38841462 -0.0054460542)
(0.90317399 -0.42509771 -0.017466502)
(0.9109604 -0.42830407 -0.012962758)
(0.91680871 -0.43098764 -0.0080249489)
(1.0261454 -0.46910596 -0.018683242)
(1.0340793 -0.47206171 -0.015044254)
(1.0405152 -0.4744851 -0.010632472)
(1.1535758 -0.51380997 -0.020425538)
(1.1617167 -0.51675356 -0.017206506)
(1.1684313 -0.51919533 -0.013432904)
(1.2849469 -0.55983339 -0.022294495)
(1.2931835 -0.56266986 -0.019618797)
(1.300284 -0.56517513 -0.01648087)
(1.4196758 -0.60654495 -0.024502558)
(1.4280863 -0.60939325 -0.022310891)
(1.4354557 -0.61190781 -0.019709753)
(1.5574119 -0.65380914 -0.026906047)
(1.5658564 -0.6568425 -0.025125445)
(1.5735337 -0.65930673 -0.023053744)
(1.6974663 -0.70192982 -0.029292351)
(1.706114 -0.70467441 -0.028029238)
(1.7139552 -0.70720464 -0.026459701)
(1.8397394 -0.74983623 -0.032051011)
(1.8483232 -0.75278339 -0.031083276)
(1.8563891 -0.75535598 -0.029972976)
(1.9834909 -0.79821324 -0.03468712)
(1.9921134 -0.801014 -0.034019778)
(2.0004138 -0.80352758 -0.033400272)
(2.1285706 -0.84614831 -0.037453469)
(2.1372232 -0.84901752 -0.037143689)
(2.1455785 -0.85175433 -0.036889027)
(2.2743606 -0.89416533 -0.040177857)
(2.2829928 -0.89685453 -0.040194428)
(2.2916214 -0.89952127 -0.04012591)
(2.5624779 -0.50506238 -0.017014486)
(2.5710266 -0.50773768 -0.017167971)
(2.579572 -0.5105182 -0.017237474)
(2.5146714 -0.64963014 -0.025343513)
(2.5236121 -0.65247662 -0.025753809)
(2.53182 -0.65511386 -0.026061696)
(2.4684999 -0.79509647 -0.034207667)
(2.4773282 -0.79794076 -0.034500119)
(2.4857528 -0.80037276 -0.034719988)
(0.018233279 0.021862266 0.01331791)
(0.019849619 0.022776186 0.0041742782)
(0.021945837 0.023752297 -0.0040749742)
(0.038639522 0.049875002 0.014283082)
(0.040015148 0.050840911 0.0045787709)
(0.041018265 0.050228398 -0.0090034014)
(0.075685308 0.07675883 0.018027392)
(0.07837394 0.077008057 0.0062257395)
(0.080770109 0.077448897 -0.0054081835)
(0.12549866 0.098016645 0.01869886)
(0.13068147 0.096930735 0.0082885688)
(0.1319024 0.096485936 -0.0031862191)
(0.19081558 0.11566494 0.020200943)
(0.19527512 0.11468603 0.010573141)
(0.19755003 0.11496912 7.7887299e-06)
(0.26597559 0.12825117 0.021525321)
(0.27169792 0.12553178 0.01258637)
(0.27507414 0.12477513 0.0024533777)
(0.35319414 0.13464227 0.022423526)
(0.35899768 0.13286503 0.014358306)
(0.3623786 0.13158373 0.0045072836)
(0.44919918 0.13638992 0.023157607)
(0.45508404 0.13427395 0.015579617)
(0.45953959 0.13304627 0.0067685625)
(0.55360625 0.13310295 0.023685644)
(0.56026933 0.13080859 0.016544279)
(0.56497607 0.12913829 0.0085470717)
(0.66554038 0.12463628 0.023745975)
(0.67247082 0.12211598 0.01720313)
(0.67761296 0.12038323 0.009867512)
(0.78382672 0.11170512 0.023647534)
(0.79139662 0.10874655 0.017201764)
(0.79695112 0.10660548 0.01099626)
(0.90825785 0.09347017 0.022464607)
(0.91555165 0.090581566 0.017723739)
(0.92150184 0.088773058 0.010754651)
(1.0370124 0.07122494 0.021397625)
(1.0446962 0.068432212 0.016405671)
(1.0511831 0.066683079 0.011141686)
(1.1701688 0.045099658 0.019700599)
(1.1780372 0.042306149 0.015604023)
(1.1848839 0.040089991 0.010684695)
(1.3066879 0.015272021 0.017854263)
(1.3147822 0.012456714 0.014065329)
(1.3218503 0.010257201 0.0097818754)
(1.4461795 -0.017815658 0.015429691)
(1.4543341 -0.020637002 0.012256094)
(1.4617515 -0.022881051 0.008515486)
(1.5879057 -0.05385598 0.013015736)
(1.5962207 -0.056518039 0.010198029)
(1.6039012 -0.058928827 0.0069878949)
(1.7314095 -0.092321159 0.01011472)
(1.7399835 -0.095177704 0.0077731035)
(1.7477777 -0.097531439 0.0050444429)
(1.8765647 -0.13308636 0.0071414942)
(1.8850066 -0.13587016 0.0052419868)
(1.8930473 -0.1382701 0.0030391019)
(2.0224338 -0.17570217 0.0040909196)
(2.0310866 -0.17834914 0.0025299624)
(2.0392121 -0.18093837 0.00072050618)
(2.1692324 -0.21972944 0.00090428002)
(2.1777512 -0.22272299 -0.00035129345)
(2.1859743 -0.22512645 -0.0015258138)
(2.3159104 -0.26522903 -0.0022109135)
(2.3246004 -0.26789463 -0.0030284734)
(2.3330216 -0.27045062 -0.0039775377)
(2.4632534 -0.31123869 -0.005061953)
(2.4716515 -0.31413868 -0.0058388269)
(2.4802627 -0.31684662 -0.0063703842)
(0.00092028898 0.0075862779 -0.0098976007)
(0.022972462 0.031939281 -0.010518018)
(0.058764325 0.036541362 -0.0057509989)
(0.11184394 0.047588584 -0.0056347957)
(0.17602634 0.051875095 -0.0033677312)
(0.25199293 0.052475508 -0.00084632492)
(0.33807438 0.049569748 0.00038844553)
(0.43338832 0.041619725 0.0020391831)
(0.53719373 0.029792068 0.0031510548)
(0.64804455 0.01364261 0.0040679045)
(0.76580986 -0.0063313235 0.0042915944)
(0.88875583 -0.030186855 0.0045632405)
(1.016731 -0.057949097 0.0039674333)
(1.149159 -0.088937992 0.0034352582)
(1.2850278 -0.12270639 0.0021364579)
(1.4239021 -0.15940094 0.00074706162)
(1.5652404 -0.19847008 -0.0010216138)
(1.7085592 -0.23958256 -0.0030617055)
(1.853373 -0.28247451 -0.0052476483)
(1.9993161 -0.32694571 -0.007668515)
(2.1460408 -0.37247428 -0.010116585)
(2.2930316 -0.41887003 -0.01260361)
(2.4403979 -0.46624484 -0.015037495)
(-0.0079283417 0.0044618533 0.0012476877)
(0.01690307 0.0057593394 0.0013801173)
(0.052672791 0.00024186754 0.0020886737)
(0.10491866 -0.00167233 0.0022036751)
(0.16538154 -0.0085338485 0.0024190805)
(0.23983623 -0.018803849 0.0033177933)
(0.32224843 -0.031538079 0.0036983321)
(0.41502972 -0.048033206 0.0039617246)
(0.51544896 -0.067977184 0.0039619654)
(0.62355807 -0.091116316 0.0037646399)
(0.73795549 -0.11790362 0.0031969842)
(0.85838926 -0.14733522 0.0022550399)
(0.98365759 -0.18026285 0.001209978)
(1.1137341 -0.21538539 -0.00044362945)
(1.2473407 -0.25318154 -0.0023202498)
(1.3843322 -0.2932134 -0.004398403)
(1.5239559 -0.33497997 -0.0068032869)
(1.6658675 -0.37846101 -0.0093968424)
(1.8094745 -0.42328203 -0.012076851)
(1.9544796 -0.46917548 -0.014979391)
(2.1006186 -0.51575442 -0.017719459)
(2.2469601 -0.56300121 -0.020722094)
(2.3945978 -0.61092959 -0.023617959)
(-0.010548062 -0.0090160702 0.010648905)
(0.018535042 -0.014041569 0.0082543213)
(0.051893663 -0.038143846 0.013642523)
(0.099288442 -0.044500786 0.008766363)
(0.1597961 -0.067541413 0.010249682)
(0.23034098 -0.087958535 0.0088562058)
(0.30984774 -0.10966653 0.0081194805)
(0.3995363 -0.13610167 0.0071375645)
(0.49661057 -0.1641768 0.0060905168)
(0.60125521 -0.19490749 0.0047769768)
(0.71269618 -0.22817107 0.0030503591)
(0.82974126 -0.2639884 0.0014092892)
(0.95249511 -0.30159055 -0.00087385662)
(1.0797235 -0.34175569 -0.0032397853)
(1.2109136 -0.38337955 -0.0058725991)
(1.3457517 -0.42676481 -0.0087582209)
(1.4835088 -0.47150775 -0.011824074)
(1.6237537 -0.51734815 -0.015050548)
(1.7660477 -0.56413675 -0.018362832)
(1.9099965 -0.6115236 -0.021716825)
(2.0551038 -0.65929946 -0.02506949)
(2.2011952 -0.70739222 -0.028579969)
(2.3477297 -0.7551572 -0.031643679)
(0.0037423226 0.0073346145 0.0082363997)
(0.0039041151 0.0083305028 0.0034451413)
(0.0063467965 0.0079763176 -0.0020546962)
(0.026840722 0.029364884 0.0073577011)
(0.030780391 0.029161067 0.0012228105)
(0.03040471 0.028293356 -0.0062286643)
(0.062217095 0.040266725 0.009025469)
(0.064978183 0.038099329 0.0035129615)
(0.066955503 0.038441839 -0.0018380369)
(0.11132634 0.04984157 0.0096927257)
(0.11732984 0.049827096 0.004507773)
(0.11756571 0.047504269 -0.00083664605)
(0.17409871 0.055988399 0.010729091)
(0.17877505 0.053693264 0.0059676813)
(0.18130378 0.052088172 0.0016998372)
(0.24745709 0.056753515 0.011674539)
(0.25327171 0.055346181 0.0076576091)
(0.25601705 0.053405535 0.0022568714)
(0.33153234 0.054169698 0.01288382)
(0.33804586 0.052197286 0.0081579386)
(0.34080842 0.049942348 0.0044531252)
(0.42499878 0.0472719 0.013108642)
(0.43133358 0.044881297 0.0095214243)
(0.43504137 0.042595031 0.0053537865)
(0.52673356 0.035442622 0.013693728)
(0.5336134 0.0332014 0.010101228)
(0.53786523 0.030655853 0.0064234427)
(0.63591471 0.020098728 0.013498792)
(0.64305551 0.01720634 0.010283743)
(0.64762942 0.014556178 0.0070020871)
(0.75180237 -0.00010652014 0.013087923)
(0.75915 -0.0029817349 0.010386432)
(0.76436697 -0.0052105915 0.0073267514)
(0.87330764 -0.023884817 0.012453182)
(0.88106591 -0.026664911 0.0096483945)
(0.88657725 -0.029251473 0.006866952)
(0.99995949 -0.051295252 0.011256287)
(1.0076928 -0.054046798 0.0088162893)
(1.0137868 -0.056517212 0.0063903901)
(1.1308598 -0.082080665 0.0097818929)
(1.1389344 -0.084784405 0.0076928278)
(1.1453275 -0.087536999 0.0053466071)
(1.2655365 -0.11584263 0.0078949732)
(1.2736682 -0.11873076 0.0059897051)
(1.2804749 -0.12120216 0.0040208747)
(1.4032789 -0.1524247 0.0057893194)
(1.4116361 -0.15510886 0.0040914067)
(1.418731 -0.15772968 0.0023276552)
(1.5437122 -0.19124984 0.0031920339)
(1.5520224 -0.19407576 0.0018826658)
(1.5594632 -0.19665209 0.00033711964)
(1.6860029 -0.2322129 0.00070832902)
(1.6946107 -0.23511409 -0.0005994252)
(1.7022381 -0.23761467 -0.0018665446)
(1.8301783 -0.27504366 -0.002143001)
(1.8387523 -0.27770989 -0.0031893604)
(1.8466053 -0.28031038 -0.0042871692)
(1.9754262 -0.31906761 -0.0051385369)
(1.9840425 -0.32194784 -0.0059122631)
(1.9920946 -0.32456049 -0.006871699)
(2.1217015 -0.36442708 -0.0081946143)
(2.1303308 -0.3673373 -0.008755755)
(2.1385604 -0.36992517 -0.0094690258)
(2.2682885 -0.41068008 -0.011173987)
(2.2769264 -0.41339835 -0.011411744)
(2.2852348 -0.4160332 -0.012152255)
(2.4152118 -0.45773052 -0.01404421)
(2.4237964 -0.46050414 -0.014334697)
(2.4323351 -0.46330474 -0.014602865)
(-0.0033896867 0.0012841791 -0.0011875725)
(-0.0017612717 0.0034723259 -0.0011695971)
(0.00028252431 0.0024922852 0.0010521579)
(0.020349854 0.0039782709 -0.0030126553)
(0.024132003 0.0039098949 -0.0017222641)
(0.024005058 0.0025793887 -0.00078930953)
(0.054931196 0.002266933 -0.0011388273)
(0.059414868 0.0012329082 0.001761848)
(0.060019482 0.0013339314 0.0011188726)
(0.10225156 -0.00036476145 -0.00040985868)
(0.10860044 -0.0017801893 0.00084305497)
(0.10852858 -0.0041944198 0.00081378552)
(0.16270797 -0.0060800312 0.00073197767)
(0.16832731 -0.0086218208 0.0029157968)
(0.16948208 -0.0089038924 0.0013963714)
(0.23304541 -0.015164813 0.0018105255)
(0.24022015 -0.017723938 0.0030321655)
(0.24163734 -0.019450845 0.0025097175)
(0.31468535 -0.027331828 0.0022332825)
(0.32130615 -0.030697755 0.0037247381)
(0.32365431 -0.032109474 0.0030253775)
(0.4050351 -0.043627058 0.0030556564)
(0.41218295 -0.046641545 0.0045222521)
(0.41491252 -0.048293723 0.003434534)
(0.50363968 -0.062840473 0.0033248027)
(0.5108671 -0.066287366 0.0042363824)
(0.51467275 -0.068342362 0.0035154856)
(0.60998561 -0.08585127 0.0032947708)
(0.61772715 -0.089427378 0.0044961422)
(0.62157934 -0.091065573 0.0034369872)
(0.72302626 -0.11236734 0.0031077868)
(0.73037049 -0.11550281 0.003771522)
(0.73530598 -0.11778128 0.002890973)
(0.84171925 -0.14177544 0.0023979357)
(0.84975206 -0.14520076 0.0029668626)
(0.85487027 -0.1470861 0.0022270443)
(0.96585533 -0.17424029 0.0012863263)
(0.97383666 -0.17740928 0.0019311798)
(0.97939121 -0.17967656 0.0010831513)
(1.0943837 -0.20938549 -9.0743178e-05)
(1.1025491 -0.21271589 0.0003358959)
(1.1086749 -0.2148858 -0.00036069604)
(1.2269412 -0.24702685 -0.0017978015)
(1.2352023 -0.25014631 -0.0013887353)
(1.2417524 -0.25240012 -0.0022558926)
(1.3627996 -0.28681853 -0.0038464333)
(1.371239 -0.28993951 -0.0036539859)
(1.3780739 -0.29217496 -0.0042916777)
(1.5015116 -0.32844306 -0.0061233824)
(1.5099613 -0.33150873 -0.0058958558)
(1.5172133 -0.33385328 -0.0066203505)
(1.6425389 -0.37176087 -0.0085916647)
(1.6511475 -0.37472921 -0.0085708123)
(1.6586669 -0.37706016 -0.0092193794)
(1.7854783 -0.41645307 -0.011188112)
(1.7941516 -0.41926564 -0.011324053)
(1.801862 -0.42164266 -0.011859943)
(1.9299482 -0.46197921 -0.013901483)
(1.938554 -0.46474515 -0.014240598)
(1.946659 -0.46734672 -0.014698315)
(2.0754749 -0.50844622 -0.016920622)
(2.0843557 -0.51124074 -0.017111579)
(2.0923567 -0.5137764 -0.017494306)
(2.2216383 -0.55537894 -0.019700363)
(2.2302542 -0.55803547 -0.019984271)
(2.2385048 -0.56075391 -0.020510808)
(2.3686552 -0.60272808 -0.022742033)
(2.3774917 -0.60553826 -0.022957865)
(2.385933 -0.60811785 -0.023328992)
(-0.0045765998 -0.0057414239 -0.0065916821)
(-0.0044777649 -0.0062695221 0.0015412998)
(-0.0020881573 -0.0062225321 0.0053436232)
(0.022057592 -0.019269301 -0.0066317492)
(0.026472759 -0.015307244 -0.00047875493)
(0.025713277 -0.017273459 0.0049712852)
(0.052026142 -0.032065025 -0.0074363019)
(0.056436877 -0.036545523 -0.00049441132)
(0.057972184 -0.036971112 0.0057468444)
(0.099350412 -0.04933541 -0.0072916192)
(0.10354133 -0.047960186 -0.0013049903)
(0.10581028 -0.049781774 0.0045167582)
(0.15590838 -0.065551676 -0.0062628724)
(0.1614384 -0.068745894 -0.00041875386)
(0.16410409 -0.069197706 0.0043314056)
(0.22431021 -0.086007264 -0.0063450498)
(0.22953405 -0.087741824 -0.0014749378)
(0.23334893 -0.089443258 0.0035281606)
(0.30238192 -0.10871565 -0.0056093257)
(0.30845918 -0.11076789 -0.00032042761)
(0.31210451 -0.11233338 0.0034102347)
(0.38930339 -0.13309441 -0.0052697215)
(0.3953581 -0.13593272 -0.0012343583)
(0.40002724 -0.13755451 0.0026199214)
(0.4849393 -0.16125774 -0.0052686293)
(0.49153899 -0.16368339 -0.0012766304)
(0.49644239 -0.16543251 0.0020687227)
(0.58775108 -0.1913918 -0.0053613742)
(0.59446233 -0.19406766 -0.0019370553)
(0.59985941 -0.19619716 0.00115771)
(0.69744287 -0.22407671 -0.0059411403)
(0.70455601 -0.22722053 -0.0027549808)
(0.71049797 -0.22894373 -0.0001478671)
(0.81330752 -0.25967687 -0.0065587287)
(0.82057951 -0.26238285 -0.0038789323)
(0.82671992 -0.26458855 -0.0015636309)
(0.93437988 -0.29702495 -0.0078224722)
(0.94183611 -0.30003169 -0.0054846755)
(0.94848778 -0.30208146 -0.0032997818)
(1.0603482 -0.33681701 -0.0091850093)
(1.0680424 -0.33959326 -0.0070697165)
(1.075021 -0.34177709 -0.0054266267)
(1.1904176 -0.37825264 -0.010947671)
(1.1982625 -0.38108897 -0.0092579904)
(1.205612 -0.38331801 -0.0077718371)
(1.3241326 -0.42132525 -0.012946097)
(1.3321834 -0.42418941 -0.01152731)
(1.3397516 -0.42632141 -0.010320609)
(1.4609436 -0.46581553 -0.015277142)
(1.4690731 -0.4685037 -0.014072621)
(1.4770069 -0.47083853 -0.013152081)
(1.6003245 -0.51123563 -0.017786358)
(1.6086878 -0.51422705 -0.016844657)
(1.6167619 -0.51638993 -0.016111139)
(1.7419831 -0.55781151 -0.020365846)
(1.7503196 -0.56049335 -0.019686812)
(1.7586082 -0.56281936 -0.019177206)
(1.8851312 -0.60470511 -0.023145138)
(1.8938341 -0.60762584 -0.022713989)
(1.9021755 -0.61001611 -0.02231549)
(2.0298535 -0.65214871 -0.025978589)
(2.0384997 -0.65508687 -0.025654788)
(2.0468821 -0.65747072 -0.025468394)
(2.1755535 -0.69993152 -0.028641083)
(2.1842236 -0.70282046 -0.028632006)
(2.1928538 -0.70521081 -0.028602498)
(2.3218698 -0.74758367 -0.031507098)
(2.330567 -0.75025183 -0.031586614)
(2.3391045 -0.75298296 -0.031863323)
)
;

boundaryField
{
    free
    {
        type            calculated;
    }
    bottom
    {
        type            calculated;
    }
    traction
    {
        type            calculated;
    }
}


// ************************************************************************* //
