/*--------------------------------*- C++ -*----------------------------------*\
  =========                 |
  \\      /  F ield         | OpenFOAM: The Open Source CFD Toolbox
   \\    /   O peration     | Website:  https://openfoam.org
    \\  /    A nd           | Version:  6
     \\/     M anipulation  |
\*---------------------------------------------------------------------------*/
FoamFile
{
    version     2.0;
    format      ascii;
    class       pointVectorField;
    location    "1.15";
    object      u;
}
// * * * * * * * * * * * * * * * * * * * * * * * * * * * * * * * * * * * * * //

dimensions      [0 1 0 0 0 0 0];

internalField   nonuniform List<vector> 
28033
(
(0 0 0)
(0 0 0)
(2.2050576 -0.21028189 0.013070898)
(2.0613941 -0.72589576 0.011859163)
(0 0 0)
(0 0 0)
(2.0606599 -0.72928574 0.011503471)
(2.2043062 -0.21371708 0.012587243)
(0 0 0)
(0 0 0)
(0 0 0)
(0 0 0)
(0 0 0)
(0 0 0)
(0 0 0)
(0 0 0)
(0 0 0)
(0 0 0)
(0 0 0)
(0 0 0)
(0 0 0)
(0 0 0)
(0 0 0)
(2.1957527 -0.2429473 0.012756883)
(2.1865319 -0.2752366 0.012663286)
(2.1773747 -0.30741819 0.012544064)
(2.1683086 -0.33954587 0.012494523)
(2.1593 -0.3716078 0.012461341)
(2.1503367 -0.40363632 0.012447603)
(2.1414298 -0.43564263 0.012454227)
(2.1325593 -0.46765622 0.012468284)
(2.1237181 -0.49968235 0.012476626)
(2.1148889 -0.53175264 0.012486184)
(2.1060743 -0.56386499 0.012469372)
(2.097235 -0.59605301 0.01242214)
(2.0884035 -0.62831663 0.012361445)
(2.0794875 -0.66067844 0.01226843)
(2.0705664 -0.693177 0.01210055)
(0.0043108707 0.0070854 0.007874431)
(0.0048571874 0.011078289 0.010941525)
(0.0060015603 0.01541988 0.013390675)
(0.0079735287 0.019939504 0.014929286)
(0.010383829 0.024651806 0.01601131)
(0.013722548 0.029447199 0.016769985)
(0.017726358 0.034398515 0.017298195)
(0.022546411 0.039214068 0.017617774)
(0.02806664 0.044207888 0.017850649)
(0.0343942 0.049001765 0.017982246)
(0.041374601 0.053854804 0.018052488)
(0.049125611 0.058543749 0.018039729)
(0.057538774 0.063206895 0.018072779)
(0.066735745 0.067713998 0.017981267)
(0.07650742 0.072110655 0.017969302)
(0.087041188 0.076362691 0.017842349)
(0.098197254 0.080488456 0.017802358)
(0.1100521 0.084422843 0.017679957)
(0.12250241 0.088221093 0.017601938)
(0.13563501 0.091830701 0.017469818)
(0.14934804 0.095263778 0.017392474)
(0.16371486 0.098510459 0.017247246)
(0.17865339 0.10155624 0.017161701)
(0.19421323 0.10442272 0.017032886)
(0.2103185 0.10705938 0.016924272)
(0.22701864 0.10951774 0.016804267)
(0.24425204 0.11173607 0.016700021)
(0.26205237 0.11377503 0.016582291)
(0.28036906 0.11556183 0.01646859)
(0.29921196 0.11715172 0.016364395)
(0.31857455 0.11851919 0.016251418)
(0.33841749 0.11965667 0.016141989)
(0.35875773 0.12057832 0.01604369)
(0.37957553 0.12125727 0.015939223)
(0.40085455 0.12173154 0.015836415)
(0.42259699 0.12196572 0.015734347)
(0.44476704 0.1219764 0.015645952)
(0.46739165 0.12176261 0.015554107)
(0.49041515 0.12131519 0.015452823)
(0.51386864 0.12065145 0.015369207)
(0.53771004 0.11974868 0.015278223)
(0.56195036 0.11863941 0.015197811)
(0.58657283 0.11729033 0.015107966)
(0.61157376 0.1157292 0.015030099)
(0.63692929 0.11393605 0.014946466)
(0.6626497 0.1119296 0.014867081)
(0.6887058 0.1096991 0.014787737)
(0.71510818 0.10725115 0.014707605)
(0.74182887 0.10458611 0.014628562)
(0.76887667 0.10170425 0.014548575)
(0.7962267 0.098609333 0.014467999)
(0.82388261 0.095299766 0.014387076)
(0.85182592 0.091782121 0.014305248)
(0.88005299 0.088052471 0.014223102)
(0.90855179 0.084119658 0.014140188)
(0.93731322 0.079979984 0.014057952)
(0.96632849 0.075641002 0.01397533)
(0.99558722 0.071102205 0.013894164)
(1.0250803 0.066369351 0.013813924)
(1.054798 0.061442484 0.013736051)
(1.0847313 0.056329034 0.013660043)
(1.1148714 0.051027981 0.013587)
(1.1452062 0.045549096 0.013518039)
(1.1757349 0.039883853 0.013449005)
(1.2064356 0.0340579 0.013391397)
(1.2373149 0.028049935 0.013327148)
(1.268349 0.021875793 0.01327545)
(1.299543 0.01554087 0.013223491)
(1.3308799 0.0090466294 0.013169087)
(1.3623596 0.0023974571 0.013123033)
(1.3939676 -0.0044048727 0.013079679)
(1.4256971 -0.01135746 0.013038588)
(1.4575484 -0.018445266 0.012994071)
(1.4894989 -0.02568892 0.012958069)
(1.5215622 -0.033043981 0.01291266)
(1.5537031 -0.040565755 0.012881605)
(1.585944 -0.04816951 0.012835437)
(1.6182473 -0.055950087 0.012808762)
(1.6506312 -0.063786141 0.012763953)
(1.6830646 -0.071799221 0.012744049)
(1.7155627 -0.07985895 0.012700483)
(1.7480905 -0.088069432 0.012691176)
(1.780672 -0.096339349 0.012657121)
(1.8132605 -0.10472597 0.012656789)
(1.8458934 -0.11317453 0.012641706)
(1.878525 -0.12171221 0.012647618)
(1.9111755 -0.13033576 0.012654403)
(1.9438176 -0.13899775 0.012678567)
(1.9764661 -0.1477559 0.012699798)
(2.0090955 -0.15651987 0.012744342)
(2.0417121 -0.16540881 0.012806385)
(2.0743373 -0.17420931 0.012841343)
(2.1069097 -0.18319314 0.01296794)
(2.1395437 -0.19208777 0.013020779)
(2.1721369 -0.20101748 0.013161417)
(0.0017724457 -0.0078997122 -0.0091913168)
(0.0029934822 -0.01078746 -0.011011091)
(0.0034678664 -0.015010817 -0.014466904)
(0.0042248981 -0.018690842 -0.015813962)
(0.0063207675 -0.023149562 -0.017171666)
(0.008793836 -0.027910192 -0.017920303)
(0.012070839 -0.032305717 -0.018493843)
(0.016045429 -0.03731024 -0.018732808)
(0.020804151 -0.042163214 -0.018917352)
(0.026095139 -0.04715279 -0.01893629)
(0.032177261 -0.052256104 -0.018889497)
(0.038772178 -0.057369841 -0.018788843)
(0.04610476 -0.062607758 -0.018610497)
(0.053965582 -0.067889554 -0.018462832)
(0.062487428 -0.073197741 -0.01821907)
(0.071566532 -0.078646036 -0.018029867)
(0.081245353 -0.084029141 -0.017763864)
(0.091509419 -0.089609462 -0.017519595)
(0.10232873 -0.095141721 -0.01725683)
(0.113751 -0.1008209 -0.016988339)
(0.12568755 -0.10648146 -0.016690106)
(0.138219 -0.11230937 -0.016423511)
(0.15123005 -0.11806297 -0.01611528)
(0.16484858 -0.12404106 -0.015811587)
(0.17891087 -0.12994627 -0.015515001)
(0.1935941 -0.13604569 -0.015167346)
(0.20868998 -0.14212804 -0.014885274)
(0.22438648 -0.14835042 -0.014517084)
(0.24049417 -0.15460733 -0.014224651)
(0.25716488 -0.16096279 -0.01385015)
(0.27425322 -0.16740217 -0.013534149)
(0.29186619 -0.17391228 -0.013172291)
(0.30990104 -0.18051549 -0.012836921)
(0.32842985 -0.18719693 -0.012475047)
(0.3473786 -0.19397202 -0.012127689)
(0.36678641 -0.20081792 -0.011778298)
(0.38661522 -0.20775291 -0.011408064)
(0.40687483 -0.21479229 -0.0110564)
(0.42754431 -0.22189854 -0.010695185)
(0.44863149 -0.22910672 -0.010335368)
(0.47011353 -0.23639817 -0.0099744379)
(0.49199373 -0.24377864 -0.0096136611)
(0.51425837 -0.25124929 -0.0092505881)
(0.53690507 -0.25880802 -0.0088883427)
(0.55992158 -0.26645532 -0.0085242194)
(0.58330817 -0.27419211 -0.0081584482)
(0.60704945 -0.28201516 -0.007792417)
(0.63114757 -0.28992678 -0.007422876)
(0.65558806 -0.29792395 -0.0070526553)
(0.6803701 -0.3060059 -0.0066790185)
(0.70548273 -0.31417229 -0.0063032606)
(0.73092202 -0.32242032 -0.0059245184)
(0.75667858 -0.33074839 -0.0055428721)
(0.78274775 -0.33915567 -0.0051581293)
(0.80911976 -0.34763834 -0.0047704794)
(0.83578958 -0.35619481 -0.0043798354)
(0.86274814 -0.36482367 -0.0039860956)
(0.88998897 -0.37352014 -0.0035898069)
(0.91750344 -0.38228359 -0.0031908514)
(0.94528542 -0.39111077 -0.002789131)
(0.97332542 -0.3999983 -0.0023854544)
(1.0016175 -0.40894433 -0.00197936)
(1.030153 -0.417946 -0.00157132)
(1.0589254 -0.42700028 -0.0011610663)
(1.0879259 -0.43610409 -0.00074969826)
(1.1171493 -0.445257 -0.00033516155)
(1.1465864 -0.45445246 7.9019763e-05)
(1.1762317 -0.46369247 0.00049730465)
(1.2060776 -0.47296617 0.00091195091)
(1.2361162 -0.48227244 0.0013391738)
(1.2663406 -0.49162544 0.001758341)
(1.296746 -0.50098957 0.0021832338)
(1.3273244 -0.51039627 0.002609193)
(1.3580674 -0.51981099 0.0030349899)
(1.3889715 -0.52925588 0.003465443)
(1.4200241 -0.53870592 0.0038912509)
(1.4512232 -0.54817423 0.0043239533)
(1.4825585 -0.55764365 0.0047508212)
(1.514022 -0.56712127 0.0051826988)
(1.5456079 -0.5765924 0.005608831)
(1.5773065 -0.58606499 0.0060380926)
(1.6091113 -0.59552247 0.0064610943)
(1.6410124 -0.60497384 0.0068853804)
(1.6730046 -0.61440438 0.00730239)
(1.7050755 -0.62381916 0.0077177137)
(1.7372215 -0.63320998 0.0081257707)
(1.7694307 -0.64257628 0.00852917)
(1.8016978 -0.65191335 0.0089221587)
(1.8340119 -0.66122455 0.0093115804)
(1.8663705 -0.67050023 0.0096863495)
(1.8987582 -0.67974583 0.010054054)
(1.9311806 -0.68896792 0.010408726)
(1.9636175 -0.69816445 0.010762711)
(1.9961088 -0.70734473 0.011087294)
(2.028617 -0.71658195 0.011451178)
(0 0 0)
(0 0 0)
(0 0 0)
(0 0 0)
(0 0 0)
(0 0 0)
(0 0 0)
(0 0 0)
(0 0 0)
(0 0 0)
(0 0 0)
(0 0 0)
(0 0 0)
(0 0 0)
(0 0 0)
(0.0043133949 -0.0032924178 0.0066781985)
(0.004210385 -0.012780264 0.010943642)
(0.0034917607 -0.013371036 0.013430421)
(0.0050134918 -0.020013547 0.015850808)
(0.0064537278 -0.023175691 0.017064538)
(0.0093054313 -0.028384134 0.017789951)
(0.012394527 -0.032687068 0.018373381)
(0.016633495 -0.037979779 0.018695992)
(0.021239915 -0.042575721 0.018891738)
(0.026655474 -0.047930281 0.018921734)
(0.03279435 -0.052929625 0.019020872)
(0.039299449 -0.058063738 0.018870596)
(0.046776924 -0.06355504 0.018896728)
(0.054482621 -0.068566059 0.018668508)
(0.063198781 -0.074410934 0.018652264)
(0.07212447 -0.079402506 0.018441909)
(0.081912241 -0.085306352 0.018366052)
(0.092100891 -0.090499955 0.018097278)
(0.10296793 -0.09647169 0.01802142)
(0.11437066 -0.10191358 0.017768333)
(0.12628 -0.10781973 0.017665705)
(0.1388349 -0.11357985 0.017433423)
(0.15182969 -0.11951459 0.017311664)
(0.16544238 -0.12547248 0.017114416)
(0.17950979 -0.1314577 0.016947527)
(0.19416449 -0.13763422 0.016780964)
(0.20927063 -0.14370666 0.016600757)
(0.22492505 -0.15006938 0.016440067)
(0.24105026 -0.15629068 0.016265231)
(0.25766521 -0.16278199 0.016108013)
(0.27477214 -0.16921948 0.015943242)
(0.29234028 -0.17580709 0.015785389)
(0.31037956 -0.18244096 0.015627637)
(0.32887142 -0.18917852 0.015471024)
(0.34781852 -0.19600061 0.015325257)
(0.36719821 -0.20285343 0.015168)
(0.38700613 -0.20988717 0.015029357)
(0.40725157 -0.21693536 0.014888687)
(0.42790116 -0.22409531 0.014754808)
(0.44896799 -0.23133429 0.014619252)
(0.47043232 -0.23866666 0.014492475)
(0.49229121 -0.24608089 0.014366647)
(0.51453767 -0.25358774 0.014244876)
(0.5371634 -0.26117863 0.014126639)
(0.56016166 -0.26885933 0.014010412)
(0.58352669 -0.27662704 0.013897281)
(0.60725042 -0.28448133 0.013784959)
(0.63132743 -0.29242307 0.013674654)
(0.65574984 -0.3004498 0.013564976)
(0.68051182 -0.3085618 0.013456095)
(0.70560537 -0.31675699 0.013348163)
(0.73102533 -0.32503449 0.013239206)
(0.75676294 -0.33339279 0.013132146)
(0.78281251 -0.34182849 0.013023341)
(0.80916547 -0.35034295 0.012916896)
(0.83581596 -0.358929 0.012809034)
(0.86275429 -0.36758942 0.012704359)
(0.8899753 -0.37631747 0.012599345)
(0.91746888 -0.38511289 0.012497735)
(0.94522935 -0.39397206 0.012397994)
(0.97324733 -0.40289212 0.01230162)
(1.0015167 -0.41187019 0.012208572)
(1.0300284 -0.42090401 0.01211975)
(1.0587766 -0.42998913 0.012034645)
(1.0877525 -0.43912415 0.01195401)
(1.11695 -0.44830631 0.011877463)
(1.1463628 -0.45752895 0.011803948)
(1.1759821 -0.46680516 0.011738162)
(1.2058039 -0.47608199 0.011671506)
(1.2358097 -0.48544251 0.011608721)
(1.2660171 -0.49480309 0.011551608)
(1.2963946 -0.50419883 0.011496441)
(1.3269514 -0.51361907 0.011440662)
(1.3576722 -0.52306109 0.011390211)
(1.3885535 -0.5325196 0.011339433)
(1.4195874 -0.54199259 0.011291971)
(1.4507661 -0.5514753 0.011245583)
(1.4820829 -0.56096446 0.011203204)
(1.5135286 -0.57045561 0.011162821)
(1.545097 -0.57994465 0.011127637)
(1.576778 -0.58942825 0.011095544)
(1.608566 -0.59890234 0.011070651)
(1.6404499 -0.60836219 0.011050142)
(1.6724249 -0.61780639 0.011038482)
(1.7044794 -0.62722816 0.011033011)
(1.7366084 -0.63662857 0.011038326)
(1.7688013 -0.64599876 0.011050291)
(1.8010527 -0.65534457 0.011075714)
(1.833352 -0.66465276 0.011107899)
(1.8656955 -0.67393638 0.011155367)
(1.8980712 -0.68317751 0.011208635)
(1.930481 -0.692403 0.011279972)
(1.9629083 -0.70158801 0.011350121)
(1.9953921 -0.7107846 0.011438077)
(2.0278562 -0.7200048 0.011500024)
(2.0698651 -0.69658839 0.011428692)
(2.0787696 -0.66413366 0.011403751)
(2.0876694 -0.63173368 0.011455232)
(2.0965092 -0.59949498 0.011514703)
(2.1053437 -0.56730443 0.011634712)
(2.1141494 -0.53518962 0.011748816)
(2.1229769 -0.50313174 0.011904509)
(2.1318105 -0.47108554 0.012052456)
(2.140693 -0.43909858 0.012198792)
(2.1495778 -0.40705992 0.012350086)
(2.1585477 -0.3750525 0.012468976)
(2.1675451 -0.34297129 0.012575529)
(2.176625 -0.3108722 0.012657696)
(2.1857257 -0.27863149 0.012695437)
(2.1949954 -0.24641231 0.012702081)
(2.1714319 -0.2044664 0.012099681)
(2.1387426 -0.19554417 0.01178513)
(2.1061624 -0.18659123 0.011441599)
(2.0735553 -0.17767177 0.011112044)
(2.0409501 -0.16878634 0.010748743)
(2.0083293 -0.15993948 0.010387087)
(1.9756987 -0.15113924 0.01001042)
(1.9430604 -0.1423889 0.0096241572)
(1.9104191 -0.13370284 0.0092337082)
(1.8777833 -0.12507675 0.0088313114)
(1.8451544 -0.11652687 0.0084276313)
(1.8125437 -0.10805206 0.0080168597)
(1.7799533 -0.099661354 0.0076022247)
(1.747391 -0.091356965 0.007179965)
(1.7148686 -0.083151839 0.0067583496)
(1.6823916 -0.075044556 0.0063337628)
(1.649968 -0.067044999 0.005910278)
(1.6176037 -0.05915661 0.00548452)
(1.5853092 -0.051382777 0.0050591151)
(1.5530902 -0.043732643 0.0046343399)
(1.5209563 -0.036204946 0.00420993)
(1.4889142 -0.028810523 0.003786644)
(1.4569729 -0.021546261 0.0033641278)
(1.4251386 -0.014425114 0.0029435014)
(1.3934214 -0.0074408595 0.0025241593)
(1.3618286 -0.00060304849 0.0021063658)
(1.3303531 0.0060833119 0.0016890331)
(1.2990615 0.01257792 0.0012886426)
(1.267871 0.018973922 0.00087314838)
(1.2368568 0.025172626 0.00046598389)
(1.2060021 0.031213803 5.9142334e-05)
(1.1753225 0.037082548 -0.00034237033)
(1.1448214 0.04277668 -0.00074171381)
(1.1145102 0.048292201 -0.0011386515)
(1.0843964 0.053625034 -0.0015322347)
(1.0544892 0.058772527 -0.0019231455)
(1.0247974 0.063729763 -0.0023112552)
(0.99533043 0.068494783 -0.0026961061)
(0.96609723 0.07306308 -0.0030780173)
(0.93710719 0.077432936 -0.0034568868)
(0.90836971 0.081600359 -0.0038326265)
(0.87989427 0.085563961 -0.0042051452)
(0.85168996 0.089320417 -0.0045749812)
(0.82376649 0.09286844 -0.0049414973)
(0.79613279 0.09620552 -0.0053054933)
(0.76879845 0.099330353 -0.0056667012)
(0.74177228 0.10224114 -0.0060254376)
(0.71506376 0.10493663 -0.0063819211)
(0.68868162 0.10741527 -0.0067364419)
(0.66263543 0.1096767 -0.0070889327)
(0.63693374 0.1117175 -0.0074396575)
(0.61158574 0.11354175 -0.0077898618)
(0.58660169 0.11513912 -0.0081363476)
(0.56198918 0.11652155 -0.0084859878)
(0.53775975 0.1176747 -0.0088290871)
(0.51392488 0.11860761 -0.0091736165)
(0.49048116 0.11932477 -0.0095187236)
(0.46744981 0.11980623 -0.0098620444)
(0.44487514 0.12003645 -0.010183976)
(0.4226838 0.1201024 -0.010539104)
(0.40094587 0.11990537 -0.010874746)
(0.37971153 0.11945512 -0.011189281)
(0.35888035 0.11883545 -0.011522517)
(0.33855171 0.11797031 -0.01185561)
(0.31868972 0.11687803 -0.012175468)
(0.29937548 0.11554381 -0.012492008)
(0.28050789 0.11403345 -0.012792538)
(0.2622314 0.11225057 -0.013098324)
(0.24442615 0.11029342 -0.013401035)
(0.22719815 0.10812581 -0.013703549)
(0.21051101 0.10571516 -0.013981663)
(0.19438582 0.10314455 -0.014277241)
(0.17888637 0.10027611 -0.014520116)
(0.16390754 0.09733765 -0.014815916)
(0.14957256 0.094125663 -0.015067901)
(0.13584723 0.090718724 -0.015300567)
(0.12272661 0.087198325 -0.015574984)
(0.11026194 0.083403022 -0.015763982)
(0.098418859 0.079571479 -0.016031031)
(0.087256234 0.075436027 -0.016198219)
(0.076776876 0.071258613 -0.016412852)
(0.066901368 0.066874409 -0.016553646)
(0.057755557 0.062498037 -0.016769071)
(0.049330147 0.05776024 -0.016817131)
(0.041565927 0.053248634 -0.01698398)
(0.034534389 0.048385545 -0.016968345)
(0.028253289 0.043610492 -0.016954389)
(0.022698367 0.038720082 -0.016799191)
(0.017855758 0.033921173 -0.016575494)
(0.013813268 0.029071251 -0.016131647)
(0.010526875 0.024245945 -0.015394372)
(0.0080759069 0.019440163 -0.014331535)
(0.0063803711 0.015232907 -0.012872798)
(0.0050240975 0.010582007 -0.010193241)
(0.0062687376 0.0065291156 -0.0058989613)
(0 0 0)
(0 0 0)
(0 0 0)
(0 0 0)
(0 0 0)
(0 0 0)
(0 0 0)
(0 0 0)
(0 0 0)
(0 0 0)
(0 0 0)
(0 0 0)
(0 0 0)
(0 0 0)
(0 0 0)
(0 0 0)
(0 0 0)
(0 0 0)
(0 0 0)
(0 0 0)
(0 0 0)
(0 0 0)
(0 0 0)
(0 0 0)
(0 0 0)
(0 0 0)
(0 0 0)
(0 0 0)
(0 0 0)
(0 0 0)
(2.0613561 -0.72628541 0.011828919)
(2.0612991 -0.72660198 0.011792776)
(2.0612457 -0.72687856 0.011753009)
(2.0612005 -0.72714885 0.01172546)
(2.0611576 -0.72740473 0.011701172)
(2.0611176 -0.72764667 0.011689901)
(2.0610745 -0.72787475 0.011678747)
(2.0610311 -0.72809102 0.011676062)
(2.060985 -0.72829743 0.011669511)
(2.0609346 -0.72848993 0.011661747)
(2.0608895 -0.72868315 0.011652751)
(2.0608376 -0.72884385 0.011631264)
(2.0607936 -0.72901186 0.011606954)
(2.0607517 -0.72915188 0.011574039)
(2.06072 -0.72929953 0.011533831)
(2.2052169 -0.21039192 0.013039787)
(2.2052255 -0.21057151 0.01304003)
(2.2052305 -0.21074478 0.013009629)
(2.2052375 -0.2109332 0.012981908)
(2.2052192 -0.21113141 0.01295193)
(2.2052002 -0.21133679 0.012906298)
(2.2051711 -0.21154206 0.012864699)
(2.2051301 -0.21175496 0.012815101)
(2.2050801 -0.21196834 0.012768609)
(2.2050178 -0.21218538 0.012725682)
(2.2049459 -0.21241056 0.012685341)
(2.2048615 -0.21263881 0.012652953)
(2.2047756 -0.21287387 0.012639721)
(2.2046606 -0.21314397 0.012599931)
(2.204582 -0.21337359 0.012600652)
(0.001868835 0.0051801847 0.0079979213)
(0.0021952576 0.0085903513 0.0094692055)
(0.0027334537 0.012236123 0.011854669)
(0.0042221921 0.015811546 0.012895345)
(0.0059659997 0.01940696 0.014065915)
(0.0088189582 0.023143576 0.014688411)
(0.012179212 0.026858731 0.01519343)
(0.016549689 0.0307622 0.015511465)
(0.02143383 0.034533802 0.01575025)
(0.027252717 0.038458202 0.015909507)
(0.033701958 0.042202705 0.015943555)
(0.040968923 0.04608289 0.016054772)
(0.048893478 0.049712157 0.015996907)
(0.057578129 0.053464476 0.016030602)
(0.066917952 0.056944824 0.015955456)
(0.077033417 0.060503061 0.01595131)
(0.087797904 0.063796773 0.015840659)
(0.099219645 0.06710403 0.015821698)
(0.11136518 0.070186457 0.015711119)
(0.12416007 0.073207168 0.015651344)
(0.13759984 0.076037105 0.01555773)
(0.15170377 0.078737165 0.015484455)
(0.1664419 0.08128996 0.015376625)
(0.18177855 0.083665276 0.015302409)
(0.19776888 0.085887697 0.015194882)
(0.21434089 0.087927193 0.015115043)
(0.23151864 0.089804946 0.015010216)
(0.24926494 0.091483439 0.014925828)
(0.26760185 0.092984051 0.01482747)
(0.28648842 0.094305435 0.014739207)
(0.30592155 0.095409959 0.014643126)
(0.32590157 0.096335054 0.014554324)
(0.34640339 0.097052797 0.014468579)
(0.36740885 0.097572277 0.014379441)
(0.3889256 0.097887152 0.01429474)
(0.41092736 0.097980107 0.014211169)
(0.4334054 0.097886319 0.014130133)
(0.45633944 0.097562862 0.014046269)
(0.47974052 0.0970381 0.013968737)
(0.50357034 0.096294575 0.013895262)
(0.52783485 0.095337729 0.013823707)
(0.55250522 0.094154599 0.01374823)
(0.57758764 0.092771916 0.013682687)
(0.60305996 0.091152026 0.01361124)
(0.62890621 0.089328534 0.013544815)
(0.65512541 0.087280661 0.013479997)
(0.68169639 0.085014072 0.013412934)
(0.7086139 0.082529852 0.01335054)
(0.73586149 0.079826332 0.013285691)
(0.76343146 0.076903907 0.013222782)
(0.79130822 0.073765201 0.013158909)
(0.81948255 0.07040791 0.013096789)
(0.84794089 0.066836871 0.013032958)
(0.87667195 0.063049684 0.012971392)
(0.90566328 0.05905212 0.012909004)
(0.93490252 0.054841841 0.012848691)
(0.9643785 0.050425689 0.012788766)
(0.99407777 0.045801995 0.012731367)
(1.0239895 0.040976816 0.012675738)
(1.0541013 0.035950929 0.012623102)
(1.084402 0.030729141 0.012573087)
(1.1148796 0.025313909 0.012526971)
(1.1455235 0.019708979 0.012484381)
(1.1763241 0.013915345 0.012446699)
(1.2072656 0.007948615 0.012410045)
(1.2383514 0.0017858569 0.012380649)
(1.269568 -0.0045366911 0.012354094)
(1.3008818 -0.01103627 0.012334348)
(1.3323137 -0.017699795 0.012317283)
(1.3638366 -0.024533006 0.0123034)
(1.3954573 -0.03151893 0.012288461)
(1.4271558 -0.038662719 0.012278144)
(1.4589356 -0.045953706 0.012266049)
(1.490776 -0.053393563 0.012259567)
(1.5226837 -0.060968077 0.012250843)
(1.5546362 -0.068690359 0.012248322)
(1.5866424 -0.076524032 0.012240916)
(1.6186776 -0.084509508 0.012244116)
(1.6507532 -0.092580888 0.012238014)
(1.6828453 -0.1008038 0.012247884)
(1.7149595 -0.10909903 0.012247396)
(1.7470849 -0.11752212 0.012262853)
(1.7792132 -0.1260284 0.012271914)
(1.811339 -0.13462659 0.01229614)
(1.8434598 -0.14330279 0.012312933)
(1.875573 -0.15206845 0.012350572)
(1.9076726 -0.16089969 0.012386821)
(1.939746 -0.16979083 0.012430292)
(1.9718072 -0.17874315 0.01248339)
(2.0038184 -0.18775864 0.012554863)
(2.0358369 -0.19678883 0.012601147)
(2.0677883 -0.20588563 0.012696169)
(2.0997323 -0.21505686 0.012761959)
(2.1316817 -0.22417552 0.012813607)
(2.1635892 -0.23352803 0.012856765)
(-0.00056585254 0.0041377827 0.0072369481)
(-0.00074393179 0.0055576687 0.0085636422)
(-9.9444375e-06 0.0089476651 0.010225876)
(0.0006099952 0.011188728 0.011396414)
(0.0021773789 0.014174082 0.012206216)
(0.0043805451 0.016813914 0.012733423)
(0.007453247 0.019831286 0.013169592)
(0.011132357 0.022634329 0.013462786)
(0.015712845 0.025651618 0.013721258)
(0.021021179 0.028522552 0.013779394)
(0.027040599 0.031523551 0.013978914)
(0.033852019 0.034394766 0.01392517)
(0.041356577 0.037333948 0.014043438)
(0.049637238 0.040145196 0.013972861)
(0.058593099 0.042959759 0.014043968)
(0.068352452 0.045677271 0.01391338)
(0.078681616 0.048342419 0.013976765)
(0.089874027 0.050905445 0.013866539)
(0.10164618 0.053387442 0.013852499)
(0.11417862 0.055758836 0.013772362)
(0.12733866 0.058031041 0.013734918)
(0.14122908 0.060187734 0.013638463)
(0.15572551 0.062220794 0.013596867)
(0.17093676 0.064125132 0.013515418)
(0.18675587 0.065883134 0.013452238)
(0.2032356 0.06752119 0.01336877)
(0.22032075 0.068990735 0.013304057)
(0.23804084 0.070315879 0.013232204)
(0.25635531 0.071482282 0.013153546)
(0.27526463 0.072481655 0.013081521)
(0.2947554 0.073311785 0.01301274)
(0.3148217 0.073970692 0.012938624)
(0.33542846 0.074452977 0.01286704)
(0.35659239 0.074747 0.012799647)
(0.37828304 0.074855143 0.012729174)
(0.40049282 0.074778911 0.012664223)
(0.42321272 0.074500563 0.012595321)
(0.44642069 0.074029126 0.012537947)
(0.47009218 0.073354182 0.012476724)
(0.49423874 0.072487428 0.012419277)
(0.51882149 0.071400182 0.012357903)
(0.54384741 0.070123385 0.012310825)
(0.56929675 0.068615632 0.01224497)
(0.59514264 0.066912328 0.012203041)
(0.62138977 0.064991544 0.01214721)
(0.64801381 0.062853048 0.012100901)
(0.67500024 0.060500388 0.012052785)
(0.70233966 0.057929958 0.012008739)
(0.73001403 0.055140534 0.011961592)
(0.75801114 0.052133178 0.011919983)
(0.78631549 0.048907534 0.011875755)
(0.81491414 0.045461598 0.011834861)
(0.84379151 0.041800311 0.0117932)
(0.87293381 0.037919052 0.011754545)
(0.90232653 0.033824566 0.011715667)
(0.93195526 0.029513512 0.011680069)
(0.96180577 0.024992481 0.011645222)
(0.99186341 0.020258676 0.011614403)
(1.022115 0.015320283 0.011585107)
(1.0525462 0.010174341 0.011560156)
(1.0831431 0.0048289569 0.011538577)
(1.113894 -0.0007162315 0.011520713)
(1.1447846 -0.0064574629 0.011508731)
(1.1758033 -0.012387449 0.011497719)
(1.2069403 -0.01850439 0.01149413)
(1.2381882 -0.024810858 0.011496078)
(1.2695022 -0.031279827 0.011503226)
(1.3009201 -0.037948786 0.011515706)
(1.3324155 -0.044784525 0.01151764)
(1.3639768 -0.051792048 0.011533658)
(1.3955987 -0.058953259 0.011545573)
(1.4272616 -0.066282897 0.011568846)
(1.4589722 -0.073755233 0.011586271)
(1.4907076 -0.081391679 0.011616004)
(1.5224806 -0.089153821 0.011633763)
(1.5542574 -0.097078291 0.011670499)
(1.5860638 -0.10510524 0.011686935)
(1.6178566 -0.11329708 0.011731176)
(1.649671 -0.12156372 0.011746214)
(1.6814541 -0.12999871 0.011800341)
(1.7132535 -0.13848464 0.011815693)
(1.7450097 -0.14712325 0.011874172)
(1.7767657 -0.15582447 0.011907793)
(1.808476 -0.1646397 0.011952888)
(1.8401905 -0.17350976 0.011996395)
(1.8718372 -0.18248229 0.012064617)
(1.9034702 -0.191508 0.012119739)
(1.9350432 -0.20059794 0.012193053)
(1.9665952 -0.20977548 0.012271347)
(1.998089 -0.21894891 0.012332315)
(2.0295609 -0.22823508 0.012426127)
(2.0609575 -0.23752838 0.012497793)
(2.0923685 -0.24687924 0.012566505)
(2.1237121 -0.25628161 0.012626108)
(2.1550997 -0.26576883 0.01266929)
(-0.0021051164 0.0027748036 0.0062794114)
(-0.0025745305 0.0037942608 0.0072857228)
(-0.0029705563 0.0057789037 0.0090372258)
(-0.0023064252 0.007641719 0.0097770832)
(-0.0011185782 0.0095989182 0.010374587)
(0.00098266103 0.011723679 0.010812133)
(0.0035232095 0.013711925 0.011181453)
(0.0071445915 0.015909304 0.011453303)
(0.011303415 0.017923698 0.011541206)
(0.016302395 0.020208838 0.011793085)
(0.022011104 0.022232438 0.011764926)
(0.028538157 0.024515948 0.011928785)
(0.035723771 0.026528986 0.011876305)
(0.04370065 0.028755343 0.011987422)
(0.052411694 0.030753405 0.011881841)
(0.061796369 0.032855923 0.011991507)
(0.071984621 0.034789928 0.011889951)
(0.082832071 0.03675829 0.011913908)
(0.094410275 0.038587879 0.011857424)
(0.10669673 0.040385673 0.01185224)
(0.11969297 0.04208185 0.011780068)
(0.13335862 0.043677245 0.011773125)
(0.14773574 0.045195383 0.011706474)
(0.16276031 0.046578346 0.011674191)
(0.17846997 0.047885884 0.011609762)
(0.19482295 0.049037976 0.011575336)
(0.21183714 0.050087505 0.01151743)
(0.22947393 0.050995345 0.011465368)
(0.24774684 0.051768767 0.011413626)
(0.2666279 0.052391333 0.011367996)
(0.28611898 0.052869319 0.011309978)
(0.30618832 0.053189567 0.011261447)
(0.32684815 0.053345395 0.011213167)
(0.34806384 0.053336647 0.011162629)
(0.36983132 0.053158573 0.011116414)
(0.39213576 0.052802806 0.011068764)
(0.41495005 0.052269911 0.011031577)
(0.43826405 0.051553162 0.010990803)
(0.46210469 0.050643286 0.010949296)
(0.48640455 0.049530811 0.01090268)
(0.51117448 0.048241087 0.010873783)
(0.53639198 0.04673886 0.010823949)
(0.56203787 0.045039709 0.010804101)
(0.58810622 0.04313564 0.01076788)
(0.61457539 0.041019435 0.010736221)
(0.64142724 0.038697012 0.010710697)
(0.66865196 0.03616214 0.010681943)
(0.69623166 0.033413334 0.010656562)
(0.7241501 0.030449762 0.010632366)
(0.7523921 0.027270467 0.010610774)
(0.78094305 0.0238742 0.010587804)
(0.80978467 0.020260976 0.010569978)
(0.83890366 0.016431857 0.010550368)
(0.86828172 0.012384866 0.010535433)
(0.89790528 0.0081247623 0.010520322)
(0.92775613 0.0036485371 0.010509353)
(0.95782057 -0.0010381084 0.010499782)
(0.98808143 -0.0059366273 0.010494542)
(1.0185249 -0.011041292 0.010491175)
(1.049134 -0.016353253 0.010493552)
(1.0798962 -0.021865689 0.010498047)
(1.1107959 -0.027579479 0.010508214)
(1.1418193 -0.033487916 0.010522529)
(1.1729543 -0.039588175 0.010538907)
(1.2041903 -0.045880839 0.010565348)
(1.2354985 -0.052357043 0.010588442)
(1.2669182 -0.058994982 0.010628662)
(1.2983689 -0.065838604 0.010649235)
(1.3298785 -0.072864472 0.010704855)
(1.3614322 -0.080034169 0.01074873)
(1.3930198 -0.087379636 0.010797207)
(1.424634 -0.094876725 0.010850555)
(1.4562739 -0.10253142 0.010899874)
(1.4879193 -0.11033035 0.010956205)
(1.5195726 -0.11827682 0.011010435)
(1.5512193 -0.12635911 0.011071186)
(1.5828638 -0.13457193 0.011127311)
(1.6144846 -0.14291483 0.011193434)
(1.6460953 -0.15137033 0.011252339)
(1.6776699 -0.15994744 0.011323645)
(1.709227 -0.16861628 0.01138356)
(1.7407359 -0.17741232 0.011468518)
(1.7722172 -0.18626299 0.01152605)
(1.8036574 -0.19524551 0.011616803)
(1.8350494 -0.20426946 0.01169233)
(1.866392 -0.21339256 0.011787642)
(1.8976914 -0.22255768 0.011863047)
(1.9289364 -0.23182679 0.011971873)
(1.960146 -0.24110317 0.012044447)
(1.9912804 -0.25047351 0.012159825)
(2.0223929 -0.25988265 0.012245007)
(2.0534365 -0.26931012 0.012337297)
(2.0844651 -0.27883839 0.012419547)
(2.1154478 -0.2883415 0.012485522)
(2.1464352 -0.29793186 0.012537146)
(-0.0029729354 0.0022298183 0.0052486356)
(-0.0041591215 0.0022192228 0.0062554111)
(-0.0045358229 0.0036478989 0.0073249634)
(-0.004129942 0.0046846926 0.0078655475)
(-0.0029865177 0.0061386647 0.0084129257)
(-0.0013126253 0.0074252415 0.0087797172)
(0.0014030812 0.008978666 0.0090778402)
(0.0046801985 0.010339626 0.0091768722)
(0.0087337886 0.011930065 0.0094933563)
(0.01360265 0.013359494 0.0094573445)
(0.019194525 0.014915447 0.0096752673)
(0.025507237 0.016393161 0.0096245857)
(0.032564274 0.017901251 0.0097912996)
(0.04043381 0.019400777 0.0096856238)
(0.048896918 0.020813726 0.0098502848)
(0.058252475 0.022275344 0.0097457852)
(0.068199772 0.023623474 0.0098165467)
(0.0789574 0.024974351 0.0097812362)
(0.09036407 0.026222875 0.0098024)
(0.10254869 0.027446268 0.0097565232)
(0.1153559 0.028560618 0.0097724301)
(0.12893448 0.029627654 0.0097329037)
(0.14313956 0.030586122 0.0097201389)
(0.15807275 0.031467767 0.0096922332)
(0.17364518 0.032234342 0.0096741227)
(0.18990678 0.032898351 0.0096475086)
(0.20679904 0.033457748 0.0096155826)
(0.22435161 0.033879906 0.0095977531)
(0.2425235 0.034187255 0.009567953)
(0.26132685 0.034356775 0.0095397567)
(0.28072432 0.034390958 0.0095153205)
(0.30073517 0.034274715 0.0094925058)
(0.32131595 0.034013091 0.0094636516)
(0.34247221 0.033597101 0.0094438842)
(0.36418782 0.033008878 0.0094183908)
(0.38643909 0.032271732 0.0093976897)
(0.40923414 0.031338658 0.0093743115)
(0.43256832 0.030252518 0.0093463341)
(0.45635001 0.028968091 0.0093314287)
(0.48063071 0.027527567 0.0093276182)
(0.50537309 0.025881217 0.0093066611)
(0.53057261 0.024043994 0.0093059415)
(0.55620599 0.02201977 0.0092906842)
(0.58225955 0.019793075 0.0092816904)
(0.60871842 0.017371031 0.0092796574)
(0.6355664 0.014743807 0.0092773891)
(0.66278933 0.011912199 0.0092747241)
(0.69036828 0.0088738782 0.0092782939)
(0.71828845 0.0056268877 0.0092807672)