/*--------------------------------*- C++ -*----------------------------------*\
  =========                 |
  \\      /  F ield         | OpenFOAM: The Open Source CFD Toolbox
   \\    /   O peration     | Website:  https://openfoam.org
    \\  /    A nd           | Version:  6
     \\/     M anipulation  |
\*---------------------------------------------------------------------------*/
FoamFile
{
    version     2.0;
    format      ascii;
    class       pointScalarField;
    location    "0.19";
    object      E;
}
// * * * * * * * * * * * * * * * * * * * * * * * * * * * * * * * * * * * * * //

dimensions      [1 -1 -2 0 0 0 0];

internalField   nonuniform List<scalar> 
3969
(
97.421208
34.531728
-262182.27
-123314.33
161.72589
148.21742
-187184.29
-393795.54
20.25732
75.947016
75.927832
86.895175
72.957298
61.592462
10.459943
-142071.69
-141146.45
-140490.96
-139944.08
-139649.14
-139660.12
-104620.26
174.1068
32.746747
105.16175
134.66329
206.10517
282.1166
367.5533
487.17202
595.93512
747.72327
882.81165
1075.7036
1246.4116
1444.9034
1657.2685
1873.9925
2111.6826
2348.0487
2599.6949
2848.2275
3097.8404
3335.4356
3559.6089
3756.1432
3928.8916
4074.5336
4177.8844
4277.4018
4338.0656
4378.4737
4392.9004
4399.7642
4367.5978
4321.4927
4291.5832
4169.3045
4148.6918
3935.8336
3967.655
3730.7336
3828.2445
3694.5932
3738.7141
3903.4322
4040.1206
3957.1154
4027.3221
321.16036
-2.8287928
306.16152
163.52985
344.94518
360.53672
449.15787
554.44657
658.72903
784.39499
926.94302
1064.619
1257.0402
1425.6958
1622.2112
1823.7816
2037.6422
2258.2802
2493.7006
2717.5146
2964.9918
3190.7988
3392.6094
3597.0773
3757.9925
3951.5722
3963.0127
4099.0896
4145.3579
4173.5301
4211.0782
4194.5822
4173.1894
4124.6272
4066.6712
3994.7136
3920.7527
3719.8977
3730.1249
3557.4189
3577.1636
3564.5761
3457.0455
3719.0279
3787.2866
4007.2917
4377.4982
13.434165
104.5289
83.176084
88.366883
79.963794
62.995763
-46.960838
185.96416
550.35598
-397.8663
458.69755
245.65534
371.97015
523.92448
554.37594
757.67361
750.74808
933.52986
1175.1607
1284.8908
1524.2497
1778.1987
2011.7262
2303.3143
2570.6364
2864.7163
3158.7946
3450.9314
3735.0971
4010.2491
4251.4627
4475.24
4724.9552
4817.5431
4910.9873
5005.8217
5020.9553
4997.088
4955.608
4859.5189
4761.6437
4594.1796
4294.8233
4275.6171
4013.5168
3773.8679
3542.2124
3304.024
3168.6575
2939.0617
2932.5
2925.1494
3243.9018
2590.6471
-301552.41
-251256.29
-302830.01
-284832.85
-286675.7
-256406.74
-311451.71
2182.4167
3175.1683
3796.8638
3582.5119
3531.964
3453.1085
3521.716
3562.875
3686.0124
3866.2815
4040.0889
3930.587
4129.5681
4214.2548
4276.1653
4331.4424
4345.2479
4350.522
4325.43
4275.8184
4183.8027
4074.0335
3932.7581
3755.5296
3555.0356
3334.542
3102.633
2858.7154
2617.3495
2373.6156
2138.8468
1912.6735
1669.5962
1462.3508
1320.6944
1112.6858
898.1539
775.90116
606.24296
509.82678
408.01045
289.83159
224.13616
127.12237
134.16033
-60.501067
338.48504
97.416947
102.27397
84.872837
89.296898
86.528024
86.070953
76.290836
-22.470617
2.3662865
-16.450017
7.0517889
-7.5417544
45.42816
-44.437002
-139292.86
-139364.43
-139388.11
-139406.39
-139399.14
-139405.23
-139336.98
-295222.69
-295406.06
-295528.06
-295569.73
-295564.76
-295794.24
-295854.35
165.05932
9.1036425
55.977507
72.167307
92.986048
158.37064
216.8739
296.36517
386.99133
489.30488
617.29523
740.8351
876.30317
1040.5971
1199.8929
1373.7473
1560.5106
1754.5281
1951.5595
2154.3782
2348.4762
2533.5219
2709.9402
2862.2412
3009.972
3147.7603
3229.1023
3333.2203
3408.1555
3468.3628
3515.21
3549.3984
3553.3939
3555.6899
3548.5757
3462.5848
3518.0643
3420.1482
3483.6075
3489.6942
3542.4203
3583.4789
3892.1776
3883.4704
4496.3778
4626.6179
5310.1258
117.63703
46.3951
89.331368
70.217566
93.3613
118.14037
145.25779
190.78163
241.16254
307.18883
373.86069
461.52062
557.78987
656.50537
764.05718
884.38794
1011.6919
1140.5862
1277.9194
1419.0715
1562.9916
1703.6908
1835.9259
1967.7485
2095.3232
2188.6733
2255.4604
2362.7341
2417.1927
2488.5105
2551.3622
2602.8169
2645.9975
2707.238
2731.9413
2799.8169
2888.9295
2834.3533
3110.9072
3047.8882
3427.5592
3498.0748
3899.925
3919.0739
4566.6419
4355.0738
5676.2515
115.33807
66.588758
86.985807
88.800189
105.89803
122.83567
154.71947
179.63412
223.58187
262.21765
316.18636
362.17473
420.87692
490.91049
559.19835
642.73075
723.13818
818.5592
916.56321
1013.5743
1099.9084
1183.773
1260.581
1331.2678
1368.6592
1417.8914
1515.8597
1571.5135
1632.742
1711.6938
1771.7053
1848.796
1918.4582
1988.8917
2075.9224
2170.4318
2274.7536
2491.3278
2694.8145
2886.7659
3122.3811
3363.7617
3664.5088
3957.6395
4732.4519
4661.5977
5852.4275
118.9918
75.281414
90.800302
83.726132
96.894647
97.713587
110.06281
127.1698
150.87167
191.06374
224.27193
276.67252
330.33323
377.16143
444.47266
517.66365
600.87351
693.31597
787.98747
887.61178
995.40929
1111.6801
1254.702
1377.9552
1491.8355
1616.9481
1691.1145
1782.2517
1875.5709
1966.1901
2046.192
2141.1053
2212.2863
2308.2793
2391.0385
2479.2947
2605.6293
2684.9405
2811.9117
2869.734
3245.21
3403.8869
3794.5031
4120.722
4510.3487
4367.0169
5731.3654
104.24725
77.187536
97.941901
98.611861
127.20378
137.22
185.32338
213.04412
261.58856
302.94744
353.46397
415.32684
479.79708
558.85974
637.48814
720.20413
809.29938
901.19158
997.40746
1090.8763
1201.2608
1219.1421
1284.8433
1338.1239
1404.5186
1437.8503
1499.9424
1555.2658
1604.8463
1649.7048
1703.3955
1751.9271
1819.6368
1857.6004
1943.5333
2037.1099
2080.7091
2340.4884
2429.2199
2776.9702
2872.1622
3190.7641
3475.8317
3836.9587
4092.0682
4672.8686
5888.9001
106.41694
33.353955
56.432571
74.03303
100.43906
121.44045
162.95373
207.1873
259.10819
331.33279
418.80644
509.9964
611.43314
717.13964
839.66398
967.58819
1108.7065
1259.4623
1417.6971
1584.95
1732.8449
1957.8715
1897.9842
2049.8825
2149.3165
2284.9253
2381.8091
2483.7315
2563.1941
2653.4136
2722.5934
2791.2845
2834.9239
2900.7947
2925.7831
2963.8398
3061.3738
2995.4599
3218.4719
3372.9224
3498.4602
3734.6454
3845.6442
4129.5108
4269.802
4632.2025
5441.5788
55.265636
-39.067287
43.02011
52.377964
109.48365
165.91147
249.53124
338.98885
446.88095
567.81425
703.95747
853.80656
1001.0542
1178.2737
1351.3911
1534.1786
1723.0155
1910.7889
2108.8993
2285.9862
2497.6698
2630.7464
2862.2659
2953.2797
3102.5594
3219.6588
3297.2639
3368.5583
3434.2083
3476.3199
3492.6816
3509.5076
3502.1559
3474.1752
3434.1813
3414.3237
3319.7945
3401.8419
3294.9587
3298.0204
3334.8666
3448.6277
3617.8271
3866.942
4080.5666
4758.9114
4730.4169
-36.927352
-36.435314
-60.153128
-58.351082
-55.528047
-46.50467
-31.800334
58.917459
52.444973
41.28871
44.068281
39.908593
48.399462
57.009242
48.202495
35.900511
27.645425
20.433099
26.906501
28.87923
63.681243
68.553555
58.516062
56.031482
53.907457
56.116731
61.491206
77.106279
42.487513
23.346954
22.934129
10.476223
15.32406
17.473377
49.158309
18.655684
2.1186037
1.3773681
-5.4682221
0.37955653
9.0158426
22.831469
-61.039908
-77.085196
-84.414969
-113.34531
-100.65386
-107.45233
-58.19245
255.80179
261.14386
275.32916
309.89883
284.4129
350.99284
248.51169
361.97335
448.08114
262.36493
207.41628
392.18013
303.69093
451.11441
-8.7706924
-102.88832
77.54508
39.950175
-39.479351
-40.222908
186.38781
260.45142
292.58652
185.8859
212.57566
217.24488
324.51991
175.13944
242.13799
192.91049
251.29276
221.93907
228.46311
261.50172
367.3021
338.58485
300.33058
231.86766
293.3995
238.07833
307.79751
291.52784
399.68735
385.85658
409.11965
397.09447
449.00217
426.79542
511.08636
508.63843
477.53329
406.93838
444.31538
471.73979
442.46331
504.16652
580.35091
607.44268
623.28988
608.57386
604.31809
650.09001
686.25486
747.74703
716.26279
718.21816
724.18898
689.81755
710.91652
763.90204
902.31381
897.46749
871.74744
874.20609
861.02205
922.32096
862.52672
1069.7303
1049.6321
1016.0946
1037.4669
1027.2723
1023.801
1071.5627
1244.242
1226.005
1226.5429
1221.7816
1217.236
1267.1614
1240.2186
1436.3313
1442.4484
1401.3782
1409.5318
1404.8422
1429.1423
1408.7697
1643.2183
1637.4403
1621.4189
1637.9097
1625.6787
1656.2934
1646.3975
1859.9726
1869.2539
1850.9013
1851.2447
1851.04
1884.4973
1867.3842
2094.33
2103.9149
2094.1596
2099.2329
2108.6986
2130.7294
2117.1649
2341.7261
2349.2531
2358.9408
2348.9696
2366.957
2379.9519
2383.5808
2599.1653
2612.8169
2622.8483
2607.6154
2637.3977
2644.1093
2655.1583
2875.3957
2867.1369
2905.1838
2876.8139
2923.9411
2910.7194
2944.2954
3146.6822
3141.2954
3186.0065
3146.1251
3206.4951
3178.0259
3226.7979
3428.3566
3399.3146
3468.4763
3405.6609
3480.004
3429.58
3508.1837
3687.4719
3657.8041
3720.9222
3663.6967
3756.6451
3700.135
3792.8257
3924.0008
3895.1594
3952.5514
3894.1681
3985.6851
3907.2786
4026.6634
4146.8077
4129.0717
4125.5434
4172.1818
4189.74
4129.9424
4261.7136
4327.3495
4300.9464
4303.0769
4315.9598
4334.0636
4316.0284
4528.1068
4507.4645
4438.2075
4493.1334
4474.1729
4587.0026
4485.1175
4666.4646
4669.06
4535.571
4652.9782
4560.0079
4661.5895
4537.9306
4769.3719
4704.182
4646.8515
4692.7395
4661.1784
4729.7035
4661.6623
4845.9152
4808.6527
4653.4986
4797.477
4687.8861
4809.1261
4685.7659
4896.732
4814.6973
4723.0383
4809.483
4710.2486
4819.3762
4677.4307
4904.7565
4851.6986
4703.8927
4815.5229
4696.3247
4820.8918
4665.4931
4906.6306
4823.2332
4686.631
4801.3882
4672.2455
4792.8239
4612.2958
4862.9364
4785.8131
4645.2492
4755.0184
4612.1801
4728.3989
4550.7243
4807.5017
4721.8151
4586.9329
4685.1378
4550.4494
4641.5662
4469.4132
4705.4908
4627.1847
4489.8983
4606.9955
4440.5399
4558.8689
4500.8329
4526.5325
4529.3054
4421.5645
4472.0327
4372.6148
4433.2228
4168.2408
4440.5121
4368.7803
4165.8535
4259.2319
4141.933
4192.4305
4061.4883
4248.3994
4240.4065
4121.0328
4243.05
4032.5694
4163.0067
3916.9005
4168.5415
4160.0316
3959.4755
4078.8687
3898.3003
3970.9953
3756.4538
3966.3206
3975.2991
3798.3487
3962.0088
3713.3661
3851.0198
3612.0225
3802.1777
3922.7636
3765.4446
3857.5773
3698.4784
3753.5146
3542.5341
3688.2001
3781.1828
3526.3747
3726.8607
3498.3956
3613.9902
3403.9885
3564.0284
3794.9912
3654.1089
3751.6895
3603.1715
3645.5035
3477.1008
3543.629
3906.4386
3723.4289
3877.6308
3680.8053
3808.5021
3611.8476
3674.7871
4119.147
3932.2486
4076.9975
3951.7083
4021.1674
3884.2841
3971.4537
3875.5346
3821.6758
3893.1209
3792.2798
3853.603
3742.1884
3782.6519
-174580.35
-192482.72
-192586.34
-192590.81
-192599.66
-192639.4
-192364.31
-191520.13
-191020.01
-191124.63
-191165.65
-191140.38
-206058.3
-191268.4
-204715.08
-189491.15
-189466.43
-189457.94
-189476.03
-171317.03
-189430.87
-188811.73
-188361.96
-188595.46
-188613.79
-188598.97
-188431.07
-188718.13
-188077.4
-170239.12
-187941.39
-187881.19
-187772.97
-187790.46
-187810.45
-170088.57
-202069.44
-187559.28
-187474.18
-202445.53
-187323.71
-187466.39
-201377.29
-186684.27
-186752.43
-186755.01
-169226.85
-186721.33
-186724.64
207.06726
218.01917
237.41091
220.03879
254.09177
270.09727
160.10747
23.23695
-36.857936
-8.57863
24.753299
8.5938361
-33.274149
55.03399
166.76904
158.79408
149.11039
133.82994
188.33606
130.92919
167.91068
159.18092
119.59392
125.82601
145.38112
120.64801
156.10576
144.80667
243.06712
223.32389
211.05728
218.07965
226.41553
198.05615
253.98468
282.40321
276.95341
272.76778
280.75442
264.7769
284.62056
276.66298
391.28229
366.53221
361.85865
351.21544
360.17942
382.13835
361.8336
463.12252
477.09266
460.76839
481.78058
463.4398
479.83734
485.24409
614.16183
589.7079
581.46931
584.87263
566.84496
604.62886
571.75327
744.83076
740.90729
727.43647
739.0273
708.659
747.7292
700.42666
887.67781
886.23945
877.43968
873.83444
847.46414
884.38637
855.56639
1044.4505
1045.9161
1020.0066
1033.6468
1018.6164
1061.0014
1006.0179
1240.2961
1249.2679
1229.2672
1231.9665
1177.9717
1222.8914
1168.1478
1391.055
1425.2931
1407.8368
1418.335
1392.6479
1411.594
1415.854
1644.1689
1623.7453
1599.6175
1593.7067
1600.3776
1648.4342
1565.7837
1880.2148
1876.5879
1852.5068
1852.0587
1790.0727
1817.9067
1783.8405
2090.6691
2090.0145
2072.2429
2066.4876
2039.0496
2067.7268
2012.6169
2341.819
2326.9988
2317.2221
2297.3293
2275.9068
2293.3457
2250.9863
2590.2978
2581.017
2564.1078
2540.9743
2527.1497
2530.8893
2494.8482
2854.7784
2829.1824
2818.9604
2789.3164
2778.7673
2772.1262
2746.6235
3111.8134
3082.7651
3077.2902
3031.6775
3030.6841
3011.7469
2997.6244
3372.2892
3330.0636
3323.9817
3271.5501
3281.323
3245.6319
3243.7476
3612.3831
3557.0183
3561.271
3503.3542
3516.5721
3463.8323
3478.1963
3832.0401
3774.9388
3785.2246
3710.9243
3740.4726
3671.058
3695.5923
4040.9138
3964.4849
3972.6168
3898.2932
3941.2435
3846.6179
3886.5009
4218.1685
4107.8024
4150.1312
4056.9881
4108.1019
3996.3774
4057.585
4337.9912
4250.1713
4287.0934
4180.9578
4247.1722
4116.6562
4182.907
4464.2676
4345.8779
4380.4843
4289.4081
4355.8958
4214.8856
4294.2608
4534.0466
4395.7859
4476.5614
4357.1958
4434.1292
4278.0205
4370.6093
4575.8759
4473.6339
4512.9414
4404.9482
4495.4005
4324.8363
4424.7743
4621.3031
4473.1956
4549.0923
4441.1944
4526.8239
4338.9498
4453.6184
4614.0577
4492.6828
4561.3437
4446.6437
4534.4289
4350.8088
4461.6725
4608.2662
4478.1998
4547.7554
4443.9071
4528.9832
4328.6726
4452.9618
4577.3032
4443.7885
4525.9311
4429.7833
4499.7031
4324.0013
4425.8947
4525.8016
4405.6618
4481.7354
4384.0688
4430.5823
4265.5137
4372.7015
4449.3637
4329.5322
4423.6815
4323.1024
4391.7731
4321.2038
4335.138
4365.0955
4328.3047
4368.899
4292.5232
4368.4182
4003.8905
4225.5272
4188.6879
4121.2068
4183.6454
4116.0809
4172.2422
4097.5324
4142.5414
4161.7431
4124.4876
4190.8476
4089.1774
4167.6989
3931.7599
4055.605
4084.6066
3978.9518
4004.5251
4006.6405
3991.8875
3858.7594
3962.2077
3987.9871
3894.6457
4044.4165
3923.144
3991.0809
3814.0626
3905.8064
3949.507
3976.1431
3928.8871
3933.6535
3932.146
3780.59
3875.9844
4016.6226
3787.0567
3909.0268
3904.7218
3946.1305
3869.7045
3926.4799
3942.2743
3971.2495
3998.0714
4005.8937
3963.7432
3884.6611
3908.5499
4312.71
4094.3883
4219.9312
4147.2622
4162.4235
4190.9824
4115.4903
3498.4376
3616.3818
3621.7613
3586.0694
3626.4552
3467.943
3520.8144
3522.0542
3142.8212
3166.6814
3176.3656
3102.3414
3184.6937
3132.8074
87.046478
-28.192311
23.864781
83.500415
115.22467
217.09481
279.4134
401.36652
493.67042
647.01103
786.52485
947.72602
1122.9868
1308.7033
1484.3968
1716.4077
1912.0501
2135.6257
2349.7266
2565.145
2774.2064
2974.517
3163.217
3327.3215
3485.39
3599.2585
3724.6185
3801.5875
3863.418
3908.1442
3928.8346
3935.2994
3916.0113
3880.6709
3856.1071
3759.4865
3627.3948
3733.8335
3593.7606
3546.6804
3550.8792
3577.6238
3660.277
3841.5215
4223.7083
4757.755
5757.96
79.373556
153.51115
68.318291
105.69443
138.08407
127.77406
166.78241
206.99222
238.69753
311.76361
351.50438
433.29977
512.98
614.35808
722.72241
823.99141
948.30945
1077.6898
1217.618
1361.8795
1510.5862
1660.1373
1804.3304
1946.1589
2086.3472
2200.1946
2384.3276
2439.0232
2535.9521
2624.0529
2706.1521
2783.4716
2848.3699
2925.1189
2986.3313
3030.8817
3121.8637
3224.0276
3360.5416
3491.0474
3733.2164
3852.3795
4253.144
4301.7439
4968.3383
4320.4008
6562.4866
76.344252
77.730915
2.3944562
92.726049
79.753793
151.26892
175.22509
211.32508
268.0827
316.95145
370.4186
450.24372
497.90317
619.00534
679.72659
793.00163
882.7004
989.32896
1087.8474
1193.3471
1294.7594
1391.9396
1491.9281
1580.5061
1664.4128
1727.9305
1817.3278
1860.7979
1929.5158
1989.0929
2041.758
2088.0162
2138.9906
2187.2211
2236.0047
2311.1679
2395.3921
2529.206
2627.2764
2890.0536
2993.2926
3412.8807
3544.4284
4046.3963
4242.3288
4709.1727
5896.662
88.006467
108.34543
75.849541
152.05464
116.65939
166.12925
124.48219
200.4134
189.67117
214.89232
258.69867
296.48861
336.83529
357.81633
421.7699
482.78195
540.98338
623.71525
703.31145
794.85798
884.03755
978.87941
1068.5249
1156.5331
1236.2957
1333.3854
1441.6989
1517.7215
1614.3918
1696.3249
1779.3807
1868.0663
1963.3087
2038.8085
2158.6175
2261.5474
2404.1681
2550.393
2803.9497
2924.868
3365.6035
3471.5879
4007.9202
4118.9984
4868.8957
4449.0696
5929.9466
81.136885
79.07921
53.506177
103.7008
93.681327
131.88957
123.51782
184.45731
197.3432
273.67595
315.44796
362.58738
417.59659
504.58328
582.84152
648.89861
726.55616
809.75155
892.73574
978.41021
1067.2786
1143.0754
1243.678
1309.5472
1402.8216
1490.2725
1514.7098
1590.3147
1646.552
1699.5017
1755.4509
1810.1859
1855.9485
1912.9823
2002.4763
2065.4013
2192.441
2364.2555
2440.8405
2832.6128
2917.7239
3363.0968
3593.9068
4085.5202
4227.476
4670.1788
5686.468
100.39188
87.758788
-3.5203471
145.43714
65.739176
152.16175
177.06817
213.75405
284.5611
306.82837
359.37032
462.27929
562.23495
648.98496
773.12855
895.61574
1035.457
1183.0184
1338.9185
1499.0958
1657.089
1810.6933
1962.2043
2068.9827
2075.8127
2123.1398
2275.08
2361.9218
2460.8736
2544.8813
2627.4492
2688.0793
2749.3415
2800.2865
2869.5856
2871.4678
3000.1448
2977.1357
3252.1582
3230.3928
3522.2217
3665.5307
3994.5312
4176.3372
4576.4795
5084.4291
5226.6347
158.99574
-56.101867
102.16513
-26.817016
129.95959
129.27898
211.00849
310.79707
401.47858
564.93945
740.88518
968.65649
1114.8705
1290.0797
1473.2406
1664.6641
1847.2951
2046.5682
2230.783
2416.3075
2592.5591
2748.395
2905.8784
3002.4848
3162.8326
3072.4919
3099.1897
3153.6798
3177.4496
3209.3923
3218.1341
3211.8692
3197.399
3168.3565
3131.8631
3086.8384
3148.1491
3113.9156
3064.5746
3173.2236
3258.032
3429.8415
3636.9818
3948.3159
4225.8252
4767.8419
4147.116
40.830652
70.71771
45.880444
44.17946
43.619377
36.121638
59.521663
21.643249
2.6615373
-8.7094158
-4.6421781
-10.949437
-19.826717
15.494468
26.309291
13.542613
16.06435
22.062488
21.599386
40.125903
49.475171
82.469488
59.673711
63.006837
66.011668
61.067955
62.580577
71.253551
104.25458
82.2586
97.568
80.329757
96.668238
96.658497
104.50745
171.34363
157.60017
165.75513
173.68853
172.39679
192.73694
185.2099
229.44395
220.87017
237.46726
216.83244
240.6115
240.10084
237.12174
317.49
318.28579
326.32668
328.7361
335.28045
344.7349
338.42138
412.27925
418.80095
422.92301
414.0643
428.40685
435.91354
427.29236
521.7761
536.07523
541.89426
536.0428
549.03457
563.86445
551.66565
654.64842
666.66385
664.10447
652.1946
680.54658
685.41937
678.6979
791.80364
805.25859
808.69072
813.75472
814.52886
834.20722
830.74699
953.27559
973.6266
962.35768
960.5237
973.04419
997.2859
969.47846
1119.3999
1139.9458
1142.6652
1126.9065
1147.9022
1155.6715
1130.2717
1285.7931
1322.0482
1310.4305
1309.0918
1314.4545
1336.0923
1330.3539
1478.7511
1521.9911
1501.1964
1493.5275
1517.9435
1513.926
1521.3916
1676.0526
1710.2381
1705.9347
1680.1516
1714.8521
1711.5637
1717.4233
1872.8952
1918.2272
1905.6622
1882.7129
1916.7622
1912.1287
1923.929
2085.9219
2124.5086
2116.374
2093.116
2129.4498
2114.545
2134.8583
2295.3453
2334.9026
2326.5243
2303.8129
2333.2929
2318.639
2348.3166
2510.0053
2534.828
2536.1203
2506.2129
2542.8449
2522.8448
2556.9089
2716.0266
2729.2865
2735.5147
2705.0858
2743.7131
2715.1804
2758.0627
2911.6896
2908.7535
2929.192
2894.1589
2931.0475
2898.5492
2953.3788
3093.6403
3080.0001
3111.883
3062.3703
3097.4412
3066.6067
3125.4838
3259.7371
3233.2935
3251.5307
3224.0253
3250.6368
3209.0033
3288.2759
3375.4085
3347.8352
3406.7345
3350.1885
3374.7083
3341.7628
3413.2082
3512.2024
3459.9634
3510.8119
3463.3227
3484.5295
3464.7556
3540.6205
3606.0222
3568.5628
3575.6714
3577.3484
3575.8832
3540.2325
3636.0555
3673.2122
3604.7431
3693.974
3630.1904
3645.9914
3615.9776
3715.2906
3729.1982
3689.0774
3726.3168
3685.2366
3708.3269
3668.0931
3772.4988
3777.1679
3701.512
3768.4857
3737.0254
3739.098
3705.0532
3808.9697
3790.8668
3731.6385
3795.4388
3749.672
3755.3217
3729.6854
3828.9214
3805.5488
3738.1211
3794.0574
3765.6974
3765.7216
3736.5996
3836.2197
3798.3969
3714.1539
3794.8595
3752.943
3753.2869
3746.3567
3812.4951
3770.7765
3723.6219
3783.5927
3732.1052
3759.6095
3685.545
3781.2151
3754.0521
3671.4473
3720.9343
3721.3462
3682.4493
3692.4175
3747.9031
3718.0672
3587.5553
3786.2458
3610.4369
3749.0451
3614.832
3800.7759
3707.4487
3619.5931
3636.0419
3733.0389
3573.7297
3705.4562
3618.8837
3609.5581
3604.0283
3666.0355
3621.4733
3658.863
3593.7878
3677.0799
3702.9348
3630.3291
3642.4587
3676.9032
3596.8752
3652.2662
3614.7201
3596.3053
3575.0442
3647.7737
3627.6719
3663.9761
3655.4949
3649.765
3766.1302
3758.2186
3715.6164
3777.4088
3690.892
3740.5157
3694.3742
3938.7352
3785.5134
3846.3565
3876.7403
3878.7735
3889.5955
3793.871
3860.779
3937.2348
3955.7815
4062.2254
3888.8058
3918.9167
3906.9337
4469.7887
4376.4486
4449.7361
4444.1222
4393.0232
4567.5485
4334.5313
4637.1446
4903.8742
4784.1894
4931.6066
4910.9749
4860.6868
4858.225
5566.326
5162.9475
5473.6916
5431.0212
5404.6401
5426.8712
5538.9208
75.408312
71.677999
61.781424
59.995336
55.586869
59.711202
62.879809
77.46235
73.436518
68.14993
82.734724
81.974708
93.782324
90.053285
92.005207
56.252453
62.857289
50.437272
66.693045
49.680385
89.4442
78.866179
55.678925
58.059238
59.296483
51.337278
71.240725
51.011861
115.55411
90.145561
86.344438
87.592568
93.557422
90.057071
105.12434
130.73562
101.30046
96.920738
91.401451
90.189963
104.36683
92.985754
157.49227
139.52685
125.88266
133.18777
129.96804
131.16646
128.07146
205.00003
182.02407
163.07967
171.89855
164.69848
174.85967
167.47697
248.58189
218.10364
208.0517
211.37189
211.56747
210.24537
211.30685
313.16505
286.36711
266.64092
276.23176
272.13612
277.97734
272.90146
376.06352
341.84065
334.14287
334.41834
335.32463
323.68664
335.32024
458.07267
430.91348
413.8613
412.36646
419.7481
410.88324
411.28523
538.11716
504.43141
507.92476
501.47453
502.124
491.15872
494.74683
635.80034
608.65734
591.72928
602.47043
596.49932
597.23471
612.72906
746.86494
723.80565
702.61482
708.94261
708.76007
689.18303
700.80842
864.63582
833.49422
824.11168
831.58597
817.8698
814.89439
817.76038
991.53101
975.9791
942.99786
960.81978
946.55326
932.60148
947.91829
1130.0951
1110.1061
1077.9636
1094.7871
1082.1013
1062.701
1083.1596
1275.2605
1263.8887
1225.0869
1239.2159
1229.3634
1202.1365
1223.9581
1424.7774
1414.8864
1370.9803
1385.0619
1373.5368
1341.6972
1370.2188
1571.5656
1569.3884
1525.5358
1535.8981
1524.7465
1493.5765
1517.0694
1716.7639
1726.9308
1680.7527
1685.3082
1677.8816
1631.4058
1661.2389
1863.7908
1873.2149
1828.8586
1835.9009
1815.9696
1775.1978
1801.4491
1993.4974
2013.1529
1975.7492
1961.0188
1958.9221
1915.2095
1931.6009
2115.9777
2149.2404
2095.7479
2083.7367
2099.3998
2047.6804
2054.8709
2229.0911
2257.776
2211.7445
2256.8734
2190.3292
2191.9308
2182.5673
2305.7452
2425.2802
2322.545
2289.1647
2359.78
2256.3854
2283.0885
2442.5362
2441.7127
2478.5246
2419.4243
2428.4647
2390.6047
2390.9124
2522.9153
2565.4981
2551.2228
2492.2074
2532.7849
2489.4402
2473.473
2621.8619
2645.9691
2615.6975
2593.4999
2617.3288
2574.5735
2557.7293
2694.5473
2702.3351
2701.3339
2663.7845
2687.2534
2656.7969
2633.0964
2759.1678
2781.5642
2771.4647
2738.1499
2758.5093
2737.5482
2705.346
2827.7971
2831.6106
2827.7261
2800.5503
2824.6777
2812.7635
2762.9046
2888.3611
2894.9524
2897.1574
2871.7788
2883.3835
2859.3398
2816.82
2939.8877
2947.5034
2933.2282
2928.1259
2926.0987
2942.0702
2911.6343
3014.9692
2987.4204
3010.993
3002.9267
2995.0255
3022.1175
2947.6734
3075.8837
3134.5111
3062.3156
3089.9357
3045.3133
3103.0947
2999.5219
3185.2364
3095.6199
3123.3473
3145.3163
3132.729
3186.8277
3101.5452
3353.8076
3312.5983
3321.9671
3291.4489
3267.9309
3303.8473
3214.0224
3417.6501
3288.1559
3345.7108
3330.0635
3331.697
3425.4211
3318.3319
3666.2155
3606.9012
3655.2485
3634.4367
3646.7427
3647.0654
3550.6219
3808.7782
3662.6642
3696.6902
3655.9289
3619.5144
3705.0887
3640.0051
4058.6716
4025.8186
4072.3978
4093.0133
4132.9372
4176.6104
4047.6136
4178.3
4012.5744
4101.7192
4043.4562
3966.8675
4046.2134
4013.2096
4796.8956
4768.2535
4780.6126
4711.6856
4774.9252
5029.1264
4894.524
4499.3847
4036.8819
4323.6386
4174.5858
4189.9684
4238.7296
3914.6752
6013.8139
6142.741
6004.8091
5928.8249
5952.1578
6008.6918
6051.1084
80.402365
72.424728
65.070547
59.301063
62.925834
59.406055
79.066092
74.296715
44.718889
42.850947
39.405128
42.156829
44.736263
82.425766
77.341796
30.003993
21.828124
10.627754
16.283026
9.8523111
66.945659
106.61363
64.833336
85.214566
91.958804
90.814561
98.009301
113.83071
124.0538
83.347391
83.048821
50.579269
69.401402
62.819193
106.38707
132.92935
94.55141
101.81459
97.114779
114.98314
108.7059
131.25513
153.67194
128.50221
135.26216
133.031
135.01769
128.32274
156.43462
177.44323
154.8772
164.23837
154.57239
162.69009
157.67819
178.17691
209.97497
205.46422
203.11712
204.55871
200.2375
203.31079
213.53238
248.88287
245.91813
249.03907
248.69037
237.24359
243.27293
251.42997
297.53752
302.91042
302.7976
301.24525
292.29361
301.77371
302.99873
352.5097
355.3179
359.74938
363.71985
349.34475
365.51662
363.95436
409.07435
420.47357
426.06806
416.58431
412.87562
434.83696
412.07037
465.20105
512.56757
496.49299
482.9285
496.69435
521.93643
474.40719
528.3828
565.55126
580.9586
562.44584
568.27979
595.57675
557.96888
605.1547
663.2838
659.56213
640.60133
661.92263
673.77918
653.33202
693.24593
740.63224
753.61044
735.10567
747.18406
766.83185
739.89119
787.94543
835.05837
854.02986
824.4059
843.47435
862.54508
840.34076
889.87998
932.86155
955.18496
927.81237
951.99393
957.23844
946.63032
998.06746
1030.8737
1057.2587
1031.2609
1050.7316
1055.5278
1056.4658
1110.2546
1132.3867
1167.5877
1137.6817
1165.2132
1159.6725
1171.7018
1224.2073
1235.2762
1268.5227
1238.5804
1266.1299
1255.2688
1278.7646
1330.5617
1330.9727
1373.0426
1325.9413
1375.1128
1352.9718
1399.1011
1449.5497
1423.7905
1468.9964
1424.0271
1478.6412
1441.4737
1499.3929
1550.165
1501.2732
1564.1445
1529.2481
1577.7083
1509.1543
1622.3029
1645.4688
1594.2332
1675.0605
1597.4139
1673.7056
1596.6905
1698.4945
1771.5316
1668.0258
1722.0796
1677.2958
1759.8367
1648.477
1800.5466
1825.2195
1736.795
1823.3681
1774.0817
1840.1401
1731.5423
1881.6778
1927.8449
1823.4865
1913.2171
1833.0888
1925.0413
1796.9884
1960.4888
2018.0059
1890.8629
1962.228
1911.6977
1994.1469
1852.1682
2038.8331
2091.675
1952.7351
2052.1092
1994.6733
2067.0631
1930.4572
2115.3807
2176.8811
2028.2921
2125.1393
2053.2316
2133.4691
1989.6705
2174.334
2259.4522
2092.0337
2195.5501
2129.9057
2204.0673
2046.7318
2241.8631
2335.3384
2158.6367
2267.1826
2197.3612
2259.0626
2130.4275
2323.7027
2428.1159
2224.3541
2359.838
2273.254
2348.9196
2212.4149
2362.4563
2508.1487
2334.4437
2450.9743
2354.8906
2434.3223
2281.6761
2456.934
2623.139
2391.0738
2529.7133
2454.821
2528.4813
2389.3308
2551.3233
2746.4209
2530.2898
2713.4033
2578.6646
2678.1981
2521.9059
2652.8888
2818.9286
2706.6669
2763.4366
2720.7762
2757.8945
2651.0188
2804.7256
3097.2304
2870.6482
3034.8479
2944.7651
3033.5945
2921.1005
3001.0183
3162.8142
3078.0905
3106.2836
3063.4502
3089.7156
2985.2141
3133.3355
3532.2631
3371.2502
3485.3895
3418.9405
3465.9747
3440.4352
3498.6548
3689.6966
3580.2982
3548.88
3553.7993
3587.4733
3543.8246
3611.9014
4077.1321
3979.262
4058.9469
4039.8883
3998.0885
3993.1384
4079.5033
4476.7219
4367.2786
4307.6061
4312.6517
4303.4987
4427.6317
4262.1076
4620.7393
4705.9592
4765.8168
4724.9923
4885.5247
4746.2374
4581.2617
5639.3036
5492.4412
5418.4513
5327.4589
5502.6232
5265.2383
5458.7476
90.514299
85.84935
77.256412
80.214548
78.256245
83.698833
77.673898
75.04761
61.789334
69.432994
77.076439
70.311556
91.676543
97.055293
71.577211
42.750786
55.607439
58.850515
64.654606
72.455243
73.371699
108.1693
81.982374
91.13179
88.760338
87.872254
107.51728
103.64286
100.8306
65.77244
70.048371
72.229412
51.916842
89.263243
80.290143
122.2267
74.233746
78.839525
94.834641
99.394825
113.50782
130.42537
115.73988
90.024594
80.054781
76.30738
78.926933
107.80276
94.458221
141.60022
121.34444
109.55116
114.95296
121.1746
139.6484
118.7837
156.6449
122.05919
119.0479
116.75975
127.16336
152.70336
133.81344
183.90371
160.5474
154.96487
154.26789
173.33324
202.25386
153.91722
214.95409
190.88624
177.57366
183.13043
197.59771
227.51134
188.2999
259.50611
230.96047
217.89862
224.8916
239.64619
267.93208
230.88324
295.28545
286.31639
263.02884
274.36653
285.75236
304.58876
273.15816
356.76696
353.21702
305.92096
335.29395
328.22226
338.73727
331.89755
420.46647
425.88177
392.18922
398.67629
399.53972
395.46404
399.75647
492.38574
494.60665
460.09191
467.8811
468.2088
468.77971
475.39
565.84009
587.74856
538.31539
546.23066
552.55979
543.54906
557.05357
649.25
679.12587
624.75933
635.56874
639.25218
627.07453
644.51755
734.95785
779.38855
720.81994
731.34601
738.57371
721.84868
741.19647
830.16508
884.34011
820.77198
832.9125
833.55331
814.85263
838.93178
931.61948
986.99088
926.54935
939.98775
933.47955
924.28234
942.31968
1040.7816
1091.3504
1033.7792
1038.0665
1035.9879
1019.4649
1038.0834
1160.7963
1192.9755
1121.1174
1164.4657
1136.8187
1125.5108
1135.3785
1251.9683
1266.6337
1243.1839
1267.7031
1235.5115
1229.1104
1236.5109
1358.1078
1370.63
1357.7362
1338.7121
1326.0667
1343.8721
1307.5852
1486.6939
1443.4079
1427.6649
1444.5793
1406.0553
1431.725
1403.6329
1549.5935
1519.5159
1536.6598
1544.2176
1484.1778
1550.007
1478.9886
1648.9797
1591.7704
1637.3799
1619.5144
1589.3202
1633.0218
1573.1447
1741.1314
1682.7174
1706.7128
1709.0462
1641.8174
1717.4514
1654.9966
1816.1223
1745.782
1796.5262
1787.9102
1743.1
1821.4465
1744.4994
1894.8214
1832.5797
1876.9797
1872.4184
1813.0316
1896.6091
1820.6004
1988.503
1907.2929
1961.8281
1950.1092
1885.0425
1979.3751
1901.2109
2052.4705
1978.7501
2032.3962
2019.1532
1967.0391
2082.3075
1995.4194
2155.6296
2064.0903
2127.8676
2113.7026
2056.9804
2153.7711
2059.3988
2229.5225
2144.9622
2214.3466
2184.2998
2138.2927
2250.5292
2161.8427
2338.5988
2251.5386
2294.6906
2283.381
2248.2453
2331.3416
2268.0137
2478.5754
2366.7294
2429.6924
2430.8779
2332.9112
2490.8562
2378.1554
2553.7637
2485.6345
2549.2103
2482.1992
2482.0908
2572.7982
2523.2538
2817.8523
2745.7663
2753.3041
2777.4545
2697.9643
2833.3985
2737.321
2893.3308
2786.9519
2867.6146
2788.0236
2777.0282
2888.4139
2836.6972
3248.6284
3222.2743
3230.3338
3240.8106
3180.6237
3321.8084
3240.3144
3502.1609
3313.0286
3372.4276
3286.2068
3299.5084
3405.7131
3338.8919
3781.079
3741.7296
3763.8816
3792.7464