/*--------------------------------*- C++ -*----------------------------------*\
  =========                 |
  \\      /  F ield         | OpenFOAM: The Open Source CFD Toolbox
   \\    /   O peration     | Website:  https://openfoam.org
    \\  /    A nd           | Version:  6
     \\/     M anipulation  |
\*---------------------------------------------------------------------------*/
FoamFile
{
    version     2.0;
    format      ascii;
    class       pointVectorField;
    location    "0.04";
    object      lm;
}
// * * * * * * * * * * * * * * * * * * * * * * * * * * * * * * * * * * * * * //

dimensions      [1 -2 -1 0 0 0 0];

internalField   nonuniform List<vector> 
28033
(
(0 0 0)
(0 0 0)
(1617.6655 428.00492 -4.2656021)
(1585.2381 -471.67249 5.6129073)
(0 0 0)
(0 0 0)
(1584.3369 -472.96981 -6.3116831)
(1610.0358 422.68401 7.0156517)
(0 0 0)
(0 0 0)
(0 0 0)
(0 0 0)
(0 0 0)
(0 0 0)
(0 0 0)
(0 0 0)
(0 0 0)
(0 0 0)
(0 0 0)
(0 0 0)
(0 0 0)
(0 0 0)
(0 0 0)
(1613.9906 366.33136 -9.5195698)
(1611.6816 304.43359 -15.635297)
(1611.4848 242.70175 -21.880271)
(1612.6732 183.35883 -26.454065)
(1614.8346 126.98343 -27.064738)
(1616.971 73.060119 -23.24715)
(1618.3767 22.097087 -14.896554)
(1617.7395 -28.125931 -4.5075756)
(1615.3125 -78.233696 6.2373919)
(1610.7667 -129.64365 15.066491)
(1605.846 -182.71931 19.604767)
(1599.8605 -237.96579 20.147451)
(1595.0334 -295.51474 18.146263)
(1590.7862 -353.07178 13.633209)
(1587.5945 -411.52454 9.2827086)
(0.0099947415 0.02095051 0.047060313)
(-0.0055668565 0.0065883918 0.084582852)
(-0.04632076 -0.0099339388 0.092661448)
(-0.10262182 -0.0095143318 0.077432229)
(-0.16193687 0.00034329462 0.055064206)
(-0.22778601 0.0012257975 0.028041636)
(-0.29975717 -0.015663749 -0.004771126)
(-0.38205992 -0.058557063 -0.043069569)
(-0.47278912 -0.1390325 -0.083110083)
(-0.57053558 -0.26865248 -0.12974444)
(-0.68202778 -0.45553168 -0.19331796)
(-0.81139633 -0.70927071 -0.2806993)
(-0.9651472 -1.0435911 -0.40411342)
(-1.1441787 -1.4711651 -0.57105476)
(-1.3534957 -2.0097137 -0.79065536)
(-1.5876112 -2.6718039 -1.0730609)
(-1.838186 -3.4676838 -1.4256774)
(-2.0996395 -4.4157732 -1.8547752)
(-2.3750784 -5.5433847 -2.3700034)
(-2.6379799 -6.8489742 -2.9753383)
(-2.8684777 -8.3454312 -3.6691277)
(-3.0782375 -10.064953 -4.4706579)
(-3.2073797 -11.980033 -5.367828)
(-3.267624 -14.138929 -6.3740736)
(-3.2437291 -16.52502 -7.5113027)
(-3.0921416 -19.124227 -8.7532045)
(-2.8202481 -21.954394 -10.132769)
(-2.4059742 -25.001826 -11.623819)
(-1.8521839 -28.267129 -13.256517)
(-1.1069783 -31.675144 -14.997433)
(-0.29692266 -35.348863 -16.847796)
(0.64949346 -39.160164 -18.815416)
(1.6869739 -43.092616 -20.866938)
(2.691292 -47.26009 -22.993682)
(3.6294298 -51.555566 -25.176347)
(4.3317766 -56.08265 -27.387707)
(4.6132693 -60.786225 -29.610395)
(4.2331433 -65.764417 -31.806126)
(2.8164302 -70.97173 -33.940564)
(-0.051645281 -76.388742 -35.806905)
(-5.0911624 -81.885937 -37.261273)
(-13.096373 -87.234093 -37.8173)
(-25.137334 -92.065452 -36.921191)
(-42.325485 -95.709167 -33.654212)
(-65.796157 -97.43319 -27.02109)
(-96.305547 -96.280262 -15.931274)
(-133.99547 -91.346199 0.45717967)
(-177.97969 -81.879136 22.372598)
(-226.10762 -67.467929 49.105986)
(-274.91701 -48.170563 78.745537)
(-319.89895 -24.536661 108.22214)
(-356.11078 2.4785366 133.68971)
(-379.04756 31.696349 151.27362)
(-385.60726 61.936781 158.02617)
(-374.88233 92.2022 152.84876)
(-348.54104 121.78219 137.05653)
(-310.62279 150.24166 114.36517)
(-266.75624 177.33868 90.178238)
(-222.93827 202.90758 70.370778)
(-184.23007 226.75894 59.790866)
(-153.62579 248.70424 61.102614)
(-131.48532 268.55954 74.010251)
(-115.67192 286.35854 95.486676)
(-101.96454 302.31922 120.69777)
(-85.617563 316.88068 143.78442)
(-61.624939 330.70563 159.72745)
(-27.152228 344.25381 165.07122)
(20.257971 357.35487 158.79789)
(80.192724 370.62555 140.9741)
(149.83334 382.73978 113.68025)
(226.95176 394.48366 81.736182)
(307.66361 404.3611 47.925998)
(388.42676 412.39928 15.356561)
(466.1035 418.66201 -12.800437)
(538.23983 423.5293 -34.557852)
(603.60508 427.13589 -48.638652)
(662.08105 430.30955 -55.169467)
(714.94583 432.76437 -55.032935)
(763.83815 435.15784 -50.347056)
(811.43478 436.58695 -43.22981)
(859.24648 437.63728 -36.252019)
(908.8671 437.17912 -30.753136)
(960.28588 436.01391 -27.964938)
(1012.7443 433.56029 -26.958303)
(1064.8579 431.03487 -27.314495)
(1115.2189 428.22911 -27.242138)
(1162.8248 426.06862 -25.542187)
(1207.371 424.89551 -21.401632)
(1250.2068 424.67903 -15.323053)
(1292.3632 425.50935 -7.7070006)
(1336.734 426.37034 -1.2022533)
(1384.4387 428.51455 3.9886311)
(1436.6194 429.0204 5.349726)
(1494.8579 429.61797 4.4544176)
(1555.0315 430.16691 -0.10293037)
(0.032795617 -0.036644638 -0.050782426)
(0.0087780876 -0.10456417 -0.064724689)
(-0.027098812 -0.18263505 -0.081324439)
(-0.044143292 -0.22436348 -0.10678387)
(-0.041227864 -0.22667338 -0.14048626)
(-0.049009574 -0.20290923 -0.16773085)
(-0.083089214 -0.16914878 -0.1663398)
(-0.14480653 -0.11592819 -0.14871898)
(-0.24334566 -0.031926285 -0.093685024)
(-0.37599878 0.10072216 -0.021317534)
(-0.55029853 0.29682695 0.096161489)
(-0.75946538 0.56579881 0.24397615)
(-1.0071776 0.92228886 0.42640301)
(-1.2739551 1.3803397 0.65415136)
(-1.5616214 1.9480818 0.91761603)
(-1.8589351 2.6501118 1.2260485)
(-2.1571679 3.4958348 1.588551)
(-2.461241 4.4935516 2.003879)
(-2.7428102 5.6690592 2.4789295)
(-3.0093746 7.0358998 3.035801)
(-3.2597623 8.6012857 3.6871984)
(-3.4686083 10.392406 4.436834)
(-3.656757 12.417842 5.3139058)
(-3.7902216 14.699345 6.331552)
(-3.8542243 17.267051 7.4904488)
(-3.8677615 20.118088 8.8305335)
(-3.7751061 23.285887 10.32688)
(-3.5994284 26.769835 12.015313)
(-3.2888938 30.583638 13.86128)
(-2.872127 34.71873 15.89288)
(-2.298895 39.140208 18.055319)
(-1.6045539 43.842072 20.340209)
(-0.78205674 48.762969 22.71556)
(0.11203025 53.846216 25.137309)
(1.0091136 59.012025 27.559928)
(1.7950722 64.239292 29.910904)
(2.2961971 69.388453 32.217255)
(2.2980982 74.411147 34.285875)
(1.4265037 79.28608 36.149896)
(-0.70179615 83.932288 37.706766)
(-4.7247429 88.280436 38.823648)
(-11.438198 92.199248 39.25138)
(-21.878053 95.442786 38.553949)
(-37.290202 97.601574 36.029349)
(-59.026496 98.068202 30.667702)
(-88.30623 96.059653 21.21365)
(-125.83071 90.712414 6.3854703)
(-171.28911 81.25337 -14.719571)
(-222.87323 67.211539 -42.084072)
(-276.98419 48.601572 -74.242659)
(-328.33435 25.996177 -108.00119)
(-370.58305 0.42795782 -138.64645)
(-397.4932 -26.874329 -160.78363)
(-404.39368 -54.827587 -169.71496)
(-389.55516 -82.762898 -163.00722)
(-355.01668 -110.48189 -141.69618)
(-306.49695 -138.04668 -110.59388)
(-252.27709 -165.41348 -77.400537)
(-201.28144 -192.11579 -50.77436)
(-160.88003 -217.21593 -37.926185)
(-135.06141 -239.59356 -42.547447)
(-123.52204 -258.44735 -63.765071)
(-121.92352 -273.71969 -96.509896)
(-123.18191 -286.26413 -133.02489)
(-119.31965 -297.56677 -165.08969)
(-103.45447 -309.24702 -185.99506)
(-71.05376 -322.42063 -192.00329)
(-20.606491 -337.29579 -182.4518)
(46.303983 -353.24153 -159.79697)
(125.98494 -369.06856 -125.24386)
(213.97242 -384.27402 -87.388297)
(303.4505 -396.36963 -48.010988)
(391.36439 -405.88597 -11.070227)
(473.43915 -412.88072 20.581578)
(547.02374 -418.1153 44.750699)
(611.10947 -422.29532 60.232786)
(666.26949 -426.14207 67.040958)
(714.44851 -429.95237 66.336469)
(758.58299 -433.77374 60.278662)
(801.8489 -437.37374 51.6382)
(846.8102 -440.42424 43.056605)
(894.78711 -442.68751 36.492342)
(945.61605 -444.09227 32.737102)
(997.90678 -444.7211 31.393035)
(1049.5718 -444.88546 31.16073)
(1098.8348 -444.90954 30.498986)
(1144.5616 -445.15692 28.082226)
(1186.9555 -445.95077 23.387723)
(1227.3036 -447.5291 16.851681)
(1267.6324 -449.89438 9.4376721)
(1310.2323 -453.06726 2.7971561)
(1356.9138 -456.87436 -1.769897)
(1408.6738 -460.86686 -3.4519493)
(1464.9348 -464.86999 -1.9493386)
(1524.403 -468.26789 1.3293696)
(0 0 0)
(0 0 0)
(0 0 0)
(0 0 0)
(0 0 0)
(0 0 0)
(0 0 0)
(0 0 0)
(0 0 0)
(0 0 0)
(0 0 0)
(0 0 0)
(0 0 0)
(0 0 0)
(0 0 0)
(0.034453345 -0.015837119 0.057847739)
(0.04220274 -0.095437901 0.088028932)
(-0.01401735 -0.16283912 0.10793158)
(-0.060244695 -0.23793813 0.12776255)
(-0.058080125 -0.25704919 0.13368393)
(-0.10267426 -0.23638845 0.16162168)
(-0.14276313 -0.19041494 0.16955298)
(-0.20062048 -0.11950779 0.15171374)
(-0.32130935 -0.036979764 0.12958245)
(-0.42668041 0.095075034 0.055608996)
(-0.56450754 0.28503165 -0.051105964)
(-0.77128337 0.54028108 -0.1700885)
(-0.95589458 0.85875363 -0.34583765)
(-1.2017636 1.2913384 -0.55538619)
(-1.4442173 1.7960767 -0.81614085)
(-1.7161643 2.4487649 -1.1192295)
(-2.001052 3.2445208 -1.4821298)
(-2.3053392 4.1521272 -1.9005769)
(-2.5687206 5.3078761 -2.420464)
(-2.8939641 6.555715 -2.9742849)
(-3.1244965 8.0805745 -3.646215)
(-3.3324461 9.8524951 -4.4582024)
(-3.5746208 11.781093 -5.3448448)
(-3.7205844 14.010966 -6.3720496)
(-3.7883902 16.512379 -7.5443801)
(-3.7696432 19.222448 -8.8581508)
(-3.5932777 22.442458 -10.390357)
(-3.3928335 25.646317 -12.027916)
(-2.9871758 29.503404 -13.889163)
(-2.5013777 33.361706 -15.886343)
(-1.8059554 37.671855 -18.079066)
(-1.0172957 42.218051 -20.393831)
(-0.11978895 47.026638 -22.831508)
(0.82846908 52.100701 -25.351737)
(1.7744985 57.210405 -27.941916)
(2.4520587 62.711817 -30.360369)
(2.8630004 68.054093 -32.882603)
(2.79682 73.628272 -35.214026)
(1.7782037 79.137182 -37.295534)
(-0.47055597 84.627852 -39.075496)
(-4.5535062 89.968189 -40.378627)
(-11.18987 95.023174 -40.964717)
(-21.368487 99.513576 -40.386947)
(-36.339274 102.9868 -37.927292)
(-57.564096 104.74947 -32.518122)
(-86.510876 103.85369 -22.781519)
(-124.2406 99.160447 -7.2452394)
(-170.7992 89.518278 15.203496)
(-224.53091 74.05944 44.662241)
(-281.5666 52.555699 79.53009)
(-335.81537 25.714481 116.10078)
(-379.73181 -4.7451122 148.78141)
(-405.89725 -36.364398 171.15469)
(-409.09031 -66.570831 177.78587)
(-388.17759 -93.477831 166.2703)
(-347.03013 -116.52308 138.71765)
(-293.89799 -136.6079 101.89737)
(-239.24668 -155.60378 65.694888)
(-192.72931 -175.42276 40.243305)
(-160.42693 -197.10208 32.734518)
(-143.40254 -220.36722 45.158011)
(-138.02454 -243.86046 73.868105)
(-137.72304 -265.93686 111.05953)
(-135.22355 -285.49298 147.4943)
(-124.38802 -302.55397 175.19676)
(-101.10309 -318.03787 189.20018)
(-63.137088 -333.76827 188.16091)
(-10.117421 -350.55597 173.88132)
(55.151065 -361.4861 148.07317)
(132.34524 -382.31267 115.56666)
(216.83539 -394.49942 78.481352)
(304.23235 -405.15709 41.175916)
(390.54683 -412.61568 6.3514908)
(471.34794 -417.17781 -23.279129)
(544.30496 -420.19772 -45.647713)
(608.00948 -422.50981 -59.533105)
(662.86756 -424.90584 -65.125009)
(710.70965 -427.84679 -63.708111)
(754.39752 -431.43612 -57.599932)
(797.18778 -435.49219 -49.450229)
(841.80241 -439.55027 -41.637187)
(889.65027 -442.99783 -35.718659)
(940.54161 -445.33309 -32.150629)
(992.94722 -446.36801 -30.394435)
(1044.7915 -446.34231 -29.246194)
(1094.2288 -445.81022 -27.39957)
(1140.3288 -445.40203 -23.923099)
(1183.238 -445.70693 -18.576614)
(1224.2188 -447.01222 -11.971124)
(1265.2404 -449.54137 -5.2144043)
(1308.4295 -453.02408 0.23426925)
(1355.6036 -457.40123 3.3293093)
(1407.5896 -461.97781 3.4164293)
(1464.1023 -466.57194 1.0108302)
(1523.6173 -470.34864 -2.7267033)
(1586.8852 -412.78085 -9.3077099)
(1590.1542 -353.33623 -13.598549)
(1593.8935 -294.1256 -17.244562)
(1599.3266 -236.73817 -20.752068)
(1604.6673 -179.98058 -19.314888)
(1608.9611 -126.79563 -16.260845)
(1613.1122 -74.556527 -7.7153867)
(1614.0171 -24.627245 1.6487139)
(1612.2929 25.281081 12.301497)
(1611.0041 75.702132 19.978)
(1608.3123 128.6631 24.047493)
(1605.6169 183.59245 26.190747)
(1604.2689 241.18955 22.022888)
(1605.2955 301.44769 16.940731)
(1606.8532 361.50469 12.090538)
(1548.8402 425.01907 3.1389881)
(1489.4641 424.96662 -0.11347565)
(1434.1227 424.53973 -0.83860373)
(1382.4753 423.52689 0.75528689)
(1335.6237 422.23354 5.6053279)
(1292.0897 421.14372 12.272565)
(1250.2156 420.93878 19.470779)
(1208.0154 421.7845 25.685875)
(1163.6939 423.79925 29.769199)
(1116.3884 426.6652 31.489997)
(1066.2305 429.81608 31.514275)
(1014.3128 432.5644 30.989111)
(962.19251 434.4111 31.423899)
(911.13111 435.1106 33.854592)
(862.42644 434.4956 38.674859)
(815.78892 433.1684 45.370232)
(770.00212 431.53596 52.241499)
(722.85296 430.12769 57.02848)
(671.66708 429.12778 57.353559)
(614.13803 428.33396 51.071777)
(548.88035 427.03718 37.109726)
(476.06305 424.43028 15.330658)
(397.03036 419.63821 -13.206236)
(314.80354 412.32736 -46.5361)
(232.40822 402.6491 -81.570142)
(153.9954 390.30914 -115.85677)
(81.051607 376.26055 -144.5561)
(19.220393 362.89716 -167.4382)
(-33.112598 350.01098 -175.84269)
(-71.778135 333.57167 -173.31228)
(-99.027187 317.20565 -157.58583)
(-116.46944 299.11941 -132.56685)
(-127.91847 279.72184 -102.94647)
(-138.46506 259.53384 -75.421941)
(-153.54375 239.2848 -56.496232)
(-177.49918 219.39509 -51.001948)
(-212.14269 199.73577 -60.490314)
(-255.81164 179.49203 -82.648666)
(-303.41573 157.46384 -111.76642)
(-347.56364 132.54508 -140.30286)
(-380.46259 104.23344 -160.97356)
(-395.9694 72.930306 -168.67179)
(-391.11712 39.937358 -161.59607)
(-366.65457 7.1721605 -141.30536)
(-326.53655 -23.270161 -111.83015)
(-276.65756 -49.564329 -78.275366)
(-223.33266 -70.484948 -45.43923)
(-172.01003 -85.549267 -16.847678)
(-126.48959 -94.9762 5.6226707)
(-88.761068 -99.51439 21.611751)
(-59.223219 -100.15838 31.797863)
(-37.220861 -98.045204 37.432371)
(-21.556697 -94.071651 39.78495)
(-10.822237 -89.066281 40.006964)
(-3.8270819 -83.544983 38.963473)
(0.55211641 -77.888177 37.192652)
(2.9812837 -72.265923 35.070619)
(4.1899633 -67.008954 32.712258)
(4.2704777 -61.69038 30.193618)
(3.8295444 -56.834217 27.775237)
(3.0502593 -52.259684 25.353866)
(2.1857686 -47.681441 23.019232)
(1.0932316 -43.450235 20.763781)
(0.06256231 -39.341546 18.58895)
(-0.917395 -35.613394 16.563155)
(-1.5628771 -31.780168 14.680479)
(-2.3543932 -28.444531 12.900476)
(-2.6993093 -25.037903 11.290162)
(-3.1231371 -22.024071 9.7910478)
(-3.3226089 -19.182204 8.4511758)
(-3.4 -16.576957 7.2409681)
(-3.3887965 -14.26863 6.1973419)
(-3.2982594 -12.093183 5.1854203)
(-3.1418897 -10.19444 4.3752973)
(-2.9082858 -8.5320623 3.688619)
(-2.7042425 -7.0231041 2.9905759)
(-2.4564098 -5.7753558 2.4810239)
(-2.1983003 -4.6206344 1.9847441)
(-1.9640735 -3.6934752 1.5993015)
(-1.6969293 -2.8562777 1.2560134)
(-1.4532296 -2.1408318 0.97951486)
(-1.2578711 -1.5633505 0.72917541)
(-1.0753662 -1.1085738 0.52333225)
(-0.84855357 -0.69590438 0.3705342)
(-0.69421028 -0.41801655 0.23804638)
(-0.54703263 -0.2239647 0.13587756)
(-0.43639981 -0.079332543 0.038103679)
(-0.31488112 -0.018500023 -0.011305584)
(-0.21824041 -0.0038129854 -0.044720945)
(-0.12356458 -0.01750254 -0.056217269)
(-0.11153322 -0.061108957 -0.08745956)
(-0.073199875 -0.097945306 -0.078959762)
(-0.04502683 -0.08816273 -0.05232431)
(-0.034777675 -0.019951376 0.0041633199)
(0.0046170537 0.022265304 0.024153956)
(0 0 0)
(0 0 0)
(0 0 0)
(0 0 0)
(0 0 0)
(0 0 0)
(0 0 0)
(0 0 0)
(0 0 0)
(0 0 0)
(0 0 0)
(0 0 0)
(0 0 0)
(0 0 0)
(0 0 0)
(0 0 0)
(0 0 0)
(0 0 0)
(0 0 0)
(0 0 0)
(0 0 0)
(0 0 0)
(0 0 0)
(0 0 0)
(0 0 0)
(0 0 0)
(0 0 0)
(0 0 0)
(0 0 0)
(0 0 0)
(1589.0865 -475.9306 5.966599)
(1590.7752 -477.59699 7.2959293)
(1588.8585 -476.21092 8.4874438)
(1583.194 -472.01027 8.8784968)
(1575.6041 -466.01737 7.7433905)
(1568.211 -460.18476 5.3257491)
(1562.9919 -456.02051 1.8879459)
(1561.6269 -454.91712 -1.8659889)
(1564.3684 -457.31925 -5.3729242)
(1570.4553 -462.4275 -8.0445955)
(1578.0213 -468.77942 -9.4854884)
(1584.7938 -474.54734 -9.5878499)
(1589.1738 -478.13597 -8.7080413)
(1589.7443 -478.74977 -7.3674021)
(1587.7276 -476.62487 -5.8748731)
(1623.6613 432.0548 -4.5054336)
(1626.9421 433.97175 -6.0058149)
(1625.021 432.36059 -6.9927006)
(1618.4472 426.82599 -6.5726757)
(1608.898 419.03993 -4.9172802)
(1599.0598 411.08125 -2.3579582)
(1591.5703 405.15523 0.90498478)
(1588.6044 402.85579 4.2342057)
(1590.7275 404.77083 7.1835002)
(1597.0302 410.09713 9.3093439)
(1605.3824 417.01728 10.465441)
(1613.1439 423.533 10.519373)
(1618.0382 427.61286 9.8816337)
(1618.5969 428.34725 8.900073)
(1615.5912 426.33968 6.8855599)
(0.00016211889 0.027747945 0.01189831)
(-0.0080930302 0.040805564 0.040253908)
(-0.05076938 0.04110364 0.065903396)
(-0.11225691 0.045962889 0.074837808)
(-0.17212878 0.057852487 0.077249504)
(-0.22971799 0.063867579 0.071994746)
(-0.29108651 0.053283099 0.052799206)
(-0.3581493 0.018598776 0.019427014)
(-0.43046518 -0.048956503 -0.027952932)
(-0.50687402 -0.15835939 -0.091755326)
(-0.59080425 -0.31891461 -0.17357544)
(-0.68909621 -0.54226871 -0.28016048)
(-0.80472158 -0.84131031 -0.41466957)
(-0.93908899 -1.2297173 -0.58004029)
(-1.093004 -1.7241045 -0.78264815)
(-1.2628683 -2.3423948 -1.0304615)
(-1.4437935 -3.1001597 -1.3320358)
(-1.6338812 -4.0143111 -1.6972808)
(-1.8204032 -5.104591 -2.1324572)
(-1.9889062 -6.386307 -2.6490351)
(-2.1314654 -7.8773851 -3.2551993)
(-2.223107 -9.5911541 -3.9535956)
(-2.2590618 -11.534995 -4.7563251)
(-2.2208058 -13.723452 -5.6635327)
(-2.0773956 -16.154902 -6.6773715)
(-1.8273662 -18.831091 -7.7962559)
(-1.4614191 -21.752357 -9.0277626)
(-0.96451214 -24.897744 -10.355632)
(-0.30926626 -28.26359 -11.780258)
(0.46447106 -31.815503 -13.307689)
(1.3686999 -35.540354 -14.912473)
(2.3948262 -39.4002 -16.581661)
(3.4721605 -43.403435 -18.315641)
(4.5487898 -47.50155 -20.095196)
(5.5032267 -51.650339 -21.927918)
(6.2256133 -55.850672 -23.748258)
(6.5390145 -60.051645 -25.53973)
(6.1550692 -64.20822 -27.319658)
(4.7305757 -68.236125 -28.946247)
(1.7622006 -71.979116 -30.326608)
(-3.4161803 -75.174643 -31.271847)
(-11.790517 -77.520596 -31.373272)
(-24.345442 -78.447059 -30.121733)
(-42.35478 -77.464273 -26.850261)
(-66.930738 -73.868053 -20.677533)
(-98.846845 -67.150445 -10.768147)
(-138.15711 -57.013337 3.4900686)
(-183.85434 -43.528371 22.216786)
(-233.61739 -27.216831 44.732749)
(-283.81282 -8.9919077 69.394169)
(-329.80765 10.024534 93.636524)
(-366.61926 28.800889 114.30876)
(-389.80504 46.708146 128.29736)
(-396.40094 63.74276 133.30648)
(-385.66113 80.54768 128.59084)
(-359.36638 98.205163 115.38675)
(-321.5731 117.83766 96.850704)
(-277.81308 140.15583 77.448275)
(-233.92274 165.10028 61.928155)
(-194.79834 191.72039 54.12097)
(-163.35877 218.36547 56.016182)
(-140.03025 243.09179 67.169747)
(-122.80032 264.20096 85.008441)
(-107.78279 280.7315 105.47495)
(-90.344415 292.48164 123.68136)
(-65.798789 300.3195 136.02188)
(-30.904891 305.56035 139.95855)
(16.219874 309.86017 133.85438)
(75.254049 314.37014 118.83391)
(144.82782 319.35394 95.799029)
(221.59741 326.05512 69.198472)
(302.14699 333.32159 41.062689)
(382.99213 341.28675 14.092833)
(460.81408 349.69172 -9.1761201)
(533.25358 358.20529 -27.125776)
(598.93708 366.3556 -38.753472)
(657.84795 373.88167 -44.13738)
(711.10791 379.95627 -44.040029)
(760.58828 384.5813 -40.134656)
(808.63424 386.96835 -34.194871)
(856.97652 387.58286 -28.244195)
(907.01626 386.38482 -23.541049)
(958.68046 384.2169 -20.881911)
(1011.3002 381.74224 -20.016759)
(1063.268 379.62509 -20.342735)
(1113.5585 378.318 -20.261707)
(1160.8571 377.98625 -19.19552)
(1205.3163 378.53513 -16.543061)
(1247.9393 379.20606 -12.339871)
(1290.1145 379.23214 -7.5201331)
(1334.6222 378.97201 -3.5130659)
(1381.9619 376.92468 -0.3557287)
(1434.7374 374.39073 -0.52696569)
(1491.6662 371.22107 -1.2857721)
(1551.5275 368.82522 -5.5943042)
(-0.0031179273 0.0047843747 -0.054932643)
(-0.0094788409 0.011380785 -0.024322782)
(-0.053486629 0.012714051 0.022882622)
(-0.12379804 0.018966469 0.054406073)
(-0.19107566 0.036481297 0.082110566)
(-0.25000872 0.057178359 0.10347607)
(-0.3081537 0.068528623 0.10479233)
(-0.367764 0.061354243 0.080188992)
(-0.42576304 0.026384268 0.031099876)
(-0.48069702 -0.046538712 -0.04140478)
(-0.53593386 -0.1677337 -0.13754029)
(-0.59600756 -0.34904139 -0.25662782)
(-0.664174 -0.60297883 -0.39771189)
(-0.74193914 -0.94263295 -0.56000818)
(-0.82953199 -1.3823413 -0.74497115)
(-0.92575228 -1.9375844 -0.95823285)
(-1.0267905 -2.6235771 -1.2085774)
(-1.1244457 -3.4566785 -1.503254)
(-1.2106951 -4.4543745 -1.8554722)
(-1.276044 -5.6356904 -2.2774244)
(-1.3029721 -7.0170942 -2.778649)
(-1.2809071 -8.6128552 -3.3711474)
(-1.1932731 -10.437702 -4.0561398)
(-1.0225889 -12.502484 -4.8394215)
(-0.75758849 -14.813369 -5.7207318)
(-0.38685893 -17.367421 -6.702333)
(0.10314059 -20.163743 -7.7705694)
(0.72187694 -23.19144 -8.9223533)
(1.4620932 -26.431072 -10.163244)
(2.3302551 -29.856261 -11.468641)
(3.3049261 -33.442069 -12.835673)
(4.3426375 -37.155199 -14.264083)
(5.4143894 -40.945974 -15.730608)
(6.4369127 -44.770875 -17.237194)
(7.3218872 -48.589735 -18.733459)
(7.9322335 -52.338945 -20.227599)
(8.0401216 -55.948254 -21.69045)
(7.4030631 -59.331838 -23.072323)
(5.6294954 -62.311842 -24.317707)
(2.1589724 -64.736772 -25.299283)
(-3.6998011 -66.277983 -25.834953)
(-12.91046 -66.607818 -25.660674)
(-26.562594 -65.193783 -24.275931)
(-45.847447 -61.677607 -21.177885)
(-71.839379 -55.566161 -15.714007)
(-105.17017 -46.656223 -7.2177134)
(-145.71449 -35.022434 4.7876795)
(-192.25485 -21.142328 20.368825)
(-242.29768 -5.8948488 38.967838)
(-292.12726 9.5813932 59.251085)
(-337.17671 24.145162 79.145637)
(-372.69459 36.996624 96.098804)
(-394.59959 47.981549 107.58489)
(-400.33235 57.750434 111.73247)
(-389.47181 67.661605 107.9345)
(-363.93302 79.432202 97.198217)
(-327.6473 94.603289 82.107222)
(-285.77478 113.9993 66.317221)
(-243.63694 137.35608 53.708764)
(-205.59665 163.26928 47.412068)
(-174.22191 189.50517 49.013632)
(-149.80746 213.56284 58.140541)
(-130.55446 233.32851 72.6313)
(-112.9815 247.66563 89.141512)
(-92.956073 256.44644 103.61675)
(-66.486065 260.67078 113.87501)
(-30.878241 262.32569 115.62129)
(16.693604 261.91638 110.37513)
(75.46633 262.42772 98.039934)
(144.17237 264.64124 79.410483)
(219.75011 269.42078 57.597405)
(298.94611 275.93396 34.589023)
(378.62518 284.26626 12.506774)
(455.49601 293.88772 -6.5575735)
(527.31705 304.19277 -21.423969)
(592.76604 314.18653 -31.058751)
(651.86876 323.38005 -35.69027)
(705.64608 330.52397 -35.61959)
(755.934 335.68413 -32.509591)
(804.77336 337.75515 -27.281838)
(853.97497 337.96576 -22.188085)
(904.40232 335.86471 -17.668516)
(956.32512 333.42785 -15.08125)
(1008.7383 330.63449 -13.712514)
(1060.3509 329.21291 -13.561001)
(1110.1108 328.22339 -13.597716)
(1157.3529 328.63738 -13.411068)
(1201.9397 329.12633 -11.955911)
(1245.3206 329.09472 -9.6789754)
(1288.2872 328.5621 -7.205815)
(1333.8894 325.74446 -4.7708769)
(1381.7992 321.91996 -3.86799)
(1434.6066 317.20962 -4.792683)
(1491.1819 311.67289 -6.7528661)
(1549.6205 307.93619 -11.638172)
(-0.004949862 -0.019402301 -0.11834948)
(-0.01433572 -0.022938183 -0.088837283)
(-0.059337497 -0.031640257 -0.01808406)
(-0.13314941 -0.034024683 0.033498259)
(-0.20591036 -0.018268542 0.080296058)
(-0.26788269 0.011338514 0.12137948)
(-0.32517289 0.04241343 0.14009893)
(-0.38017137 0.063207633 0.125238)
(-0.4291866 0.062626881 0.076949126)
(-0.46942076 0.02923569 -0.0010735836)
(-0.50214438 -0.048521085 -0.10490419)
(-0.53071025 -0.18223443 -0.23026787)
(-0.55785539 -0.38368523 -0.37199011)
(-0.58469759 -0.66463254 -0.52589248)
(-0.61116367 -1.0370603 -0.69051545)
(-0.63575804 -1.5135144 -0.8689914)
(-0.65424522 -2.1075893 -1.067959)
(-0.66087116 -2.8331218 -1.2989656)
(-0.64692325 -3.7063478 -1.5744526)
(-0.6003841 -4.7434699 -1.9079262)
(-0.50988871 -5.9615831 -2.3130479)
(-0.361723 -7.3775752 -2.7978965)
(-0.14280454 -9.0047565 -3.3701353)
(0.15970063 -10.856651 -4.0299924)
(0.55783931 -12.938691 -4.7794259)
(1.0628616 -15.254485 -5.6097494)
(1.6807838 -17.797973 -6.5181927)
(2.4111979 -20.559616 -7.4989148)
(3.258086 -23.521615 -8.5405125)
(4.2053884 -26.655167 -9.6388016)
(5.2277776 -29.931163 -10.786574)
(6.3003099 -33.307456 -11.966949)
(7.3591954 -36.741006 -13.180403)
(8.3335772 -40.185978 -14.392785)
(9.1052045 -43.568612 -15.617034)
(9.5137273 -46.836131 -16.820031)
(9.3606929 -49.877108 -17.960067)
(8.3449912 -52.573639 -19.016166)
(6.0415871 -54.773214 -19.930917)
(1.9015165 -56.223075 -20.577905)
(-4.8201436 -56.688189 -20.834405)
(-15.094617 -55.787351 -20.429051)
(-30.012356 -53.149825 -19.024199)
(-50.681004 -48.430201 -16.198956)
(-78.05479 -41.343164 -11.459835)
(-112.60596 -31.852167 -4.275485)
(-154.00154 -20.220047 5.7071928)
(-200.8339 -7.0758583 18.533505)
(-250.4834 6.6137166 33.748339)
(-299.23943 19.707936 50.274703)
(-342.70508 31.154304 66.432698)
(-376.45889 40.317764 80.142847)
(-396.85022 47.251578 89.336698)
(-401.7418 52.817762 92.475983)
(-391.00347 58.552765 89.065718)
(-366.60378 66.295104 79.952484)
(-332.24709 77.643088 67.301061)
(-292.63261 93.426397 54.163473)
(-252.48874 113.36188 43.771319)
(-215.63961 136.02283 38.699023)
(-184.2841 159.18518 40.207725)
(-158.66823 180.36866 47.905124)
(-137.20107 197.53583 59.89292)
(-116.92122 209.50969 73.330416)
(-94.040682 216.34721 85.011615)
(-65.714636 218.79519 92.540563)
(-28.052386 219.2244 93.404203)
(19.57659 218.50545 90.406447)
(77.323192 217.39184 78.047657)
(144.33888 218.79141 62.617033)
(217.94991 222.11638 44.336106)
(295.27551 227.58429 25.431372)
(373.16932 234.87714 7.5671987)
(448.67624 243.65487 -7.503355)
(519.61371 253.06163 -18.856718)
(584.81634 262.45066 -25.835108)
(644.30886 270.98809 -28.603859)
(698.89254 277.85107 -27.630806)
(750.35064 282.57743 -23.996726)
(800.23606 284.80968 -18.946854)
(850.28694 284.99308 -13.910373)
(901.1708 283.29254 -9.6521102)
(952.93928 281.13929 -7.3218631)
(1005.1912 278.82525 -6.0940666)
(1056.1012 277.28757 -6.9720233)
(1105.7627 276.6069 -7.5604)
(1152.9769 276.71769 -8.1231041)
(1198.5151 276.5117 -7.721272)
(1242.7772 276.2871 -7.3900182)
(1287.432 274.01662 -6.0869316)
(1334.2868 270.41816 -5.9564187)
(1383.4485 265.39602 -6.19605)
(1436.8205 259.15619 -8.4305083)
(1493.0149 252.57808 -11.536622)
(1550.0041 247.29109 -16.582434)
(-0.012304635 -0.03475285 -0.1658645)
(-0.02243016 -0.046721741 -0.14137071)
(-0.066453979 -0.064664842 -0.051696624)
(-0.13995398 -0.076591632 0.020204069)
(-0.21359582 -0.066752751 0.082685985)
(-0.27600657 -0.035221771 0.13923307)
(-0.33201766 0.0065062541 0.17143675)
(-0.38404878 0.045272337 0.16432183)
(-0.4278037 0.068896437 0.1170466)
(-0.45915655 0.065450355 0.035738232)
(-0.47765528 0.023455703 -0.072505376)
(-0.48483872 -0.067832972 -0.19994764)
(-0.48188301 -0.21852938 -0.33816204)
(-0.46880489 -0.43830663 -0.47972716)
(-0.44444182 -0.73659057 -0.62073092)
(-0.40640521 -1.12312 -0.76204276)
(-0.35074903 -1.6084571 -0.91040904)
(-0.27123047 -2.2043618 -1.0765594)
(-0.15950539 -2.9239849 -1.2745563)
(-0.0060456572 -3.7818739 -1.519524)
(0.20047156 -4.7936928 -1.8242917)
(0.47116786 -5.9747149 -2.1995682)
(0.81754178 -7.3398365 -2.649997)
(1.2499895 -8.9004046 -3.1779215)
(1.7782626 -10.664786 -3.7790994)
(2.4090594 -12.63431 -4.4500244)
(3.1454874 -14.805739 -5.1828585)
(3.9882046 -17.168433 -5.9691653)
(4.9281609 -19.704162 -6.8032937)
(5.9485493 -22.388939 -7.6775469)
(7.0244654 -25.19229 -8.5812537)
(8.1080927 -28.075735 -9.51368)
(9.1416067 -30.999592 -10.455903)
(10.030677 -33.905655 -11.410555)
(10.65145 -36.741787 -12.356302)
(10.841199 -39.430563 -13.265558)
(10.369777 -41.867086 -14.118069)
(8.8925628 -43.935371 -14.927342)
(5.9995745 -45.453408 -15.54773)
(1.1028538 -46.286884 -15.975145)
(-6.5879429 -46.114357 -16.021204)
(-17.990316 -44.673816 -15.539299)
(-34.17857 -41.662812 -14.258735)
(-56.18543 -36.820894 -11.863839)
(-84.816071 -29.990308 -7.9729489)
(-120.37005 -21.221253 -2.2056484)
(-162.32514 -10.840762 5.7164617)
(-209.10439 0.52378511 15.836421)
(-258.00388 11.979929 27.818209)
(-305.35706 22.524641 40.837601)
(-346.96716 31.277004 53.584298)
(-378.75083 37.760999 64.403704)
(-397.47115 42.128905 71.621772)
(-401.37897 45.248457 73.963946)
(-390.5979 48.563568 70.993138)
(-367.12728 53.749562 63.373522)
(-334.45686 62.225634 52.874514)
(-296.85981 74.696898 42.018787)
(-258.54381 90.861396 33.491824)
(-222.84389 109.41843 29.420807)
(-191.64004 128.39382 30.817125)
(-165.10682 145.62488 37.278023)
(-141.83056 159.39901 47.152222)
(-119.21065 168.7385 58.003927)
(-94.114736 173.80786 67.097419)
(-63.41941 175.33574 72.581464)
(-24.957939 174.89154 73.042784)
(23.131656 173.96918 68.036652)
(80.787068 173.37093 58.332232)
(146.96358 174.72034 45.790821)
(219.22482 177.84979 31.303133)
(294.80637 182.82288 16.866272)
(370.45175 189.28247 3.8731808)
(444.27815 196.87412 -7.1135207)
(513.99902 205.24712 -15.248623)
(578.47223 213.4223 -20.133068)
(637.75752 220.87396 -21.744658)
(692.59081 226.74099 -20.420716)
(744.55658 230.75111 -17.144677)
(795.02614 232.47388 -12.655021)
(845.52904 232.4534 -8.2609972)
(896.50472 230.76449 -4.55982)
(948.36051 228.82857 -2.369444)
(1000.0341 226.35684 -1.3933277)
(1051.3062 224.97651 -1.8031303)
(1100.917 223.78742 -2.5682838)
(1149.0932 223.34467 -3.6383554)
(1195.3208 222.80166 -4.6774279)
(1241.4922 221.20553 -5.1884999)
(1287.7282 218.36724 -5.8447156)
(1336.5219 214.15119 -6.8333)
(1386.9838 208.23166 -8.3563104)
(1440.9684 201.7241 -11.168377)
(1497.0645 194.58183 -14.806878)
(1553.4786 188.28357 -19.850761)
(-0.024825273 -0.048620077 -0.21537367)
(-0.042129784 -0.067750719 -0.19172251)
(-0.084750747 -0.094861134 -0.08419336)
(-0.15176816 -0.1148068 0.0040333923)
(-0.22010576 -0.11083549 0.080225095)
(-0.27817327 -0.078593836 0.15187673)
(-0.32987394 -0.0298796 0.1986657)
(-0.37732934 0.021560828 0.20210144)
(-0.41626628 0.062756247 0.16049897)
(-0.44180609 0.081812722 0.081432082)
(-0.4519125 0.067872158 -0.025507407)
(-0.44625783 0.011671216 -0.15020749)
(-0.4241047 -0.094734768 -0.28159405)
(-0.38369305 -0.2581745 -0.4098257)
(-0.32221191 -0.48497501 -0.5285052)
(-0.23595504 -0.78117034 -0.63700204)
(-0.11995483 -1.1535708 -0.74037475)
(0.03204052 -1.6100907 -0.84928)
(0.22774883 -2.1604669 -0.97745559)
(0.47613191 -2.8159725 -1.1395438)
(0.78658377 -3.5894639 -1.3486991)
(1.168641 -4.4944726 -1.6144115)