/*--------------------------------*- C++ -*----------------------------------*\
  =========                 |
  \\      /  F ield         | OpenFOAM: The Open Source CFD Toolbox
   \\    /   O peration     | Website:  https://openfoam.org
    \\  /    A nd           | Version:  6
     \\/     M anipulation  |
\*---------------------------------------------------------------------------*/
FoamFile
{
    version     2.0;
    format      ascii;
    class       pointVectorField;
    location    "0.48";
    object      u;
}
// * * * * * * * * * * * * * * * * * * * * * * * * * * * * * * * * * * * * * //

dimensions      [0 1 0 0 0 0 0];

internalField   nonuniform List<vector> 
625
(
(0 9.2173694e-20 0)
(0 8.2948933e-20 0)
(1.9817002 -0.14959697 0.030821812)
(1.8887568 -0.57059239 0.027531742)
(0 1.1951792e-19 0)
(0 6.4866319e-19 0)
(1.8898083 -0.57633689 0.027401628)
(1.9826928 -0.155431 0.030895461)
(0 -1.4011288e-20 0)
(6.4421536e-20 -1.4963982e-19 0)
(0 3.0613173e-19 0)
(1.9584083 -0.25491852 0.029947356)
(1.9351114 -0.36000446 0.029134675)
(1.9120183 -0.46522504 0.02836499)
(0.0071785676 0.02292846 0.020656128)
(0.025541723 0.046170668 0.021101479)
(0.057306034 0.067778103 0.022533894)
(0.10250841 0.086148789 0.021943539)
(0.15543111 0.10012576 0.02234863)
(0.22023206 0.11068554 0.022167859)
(0.29101867 0.11671679 0.022474666)
(0.36944822 0.11883651 0.022430256)
(0.45369343 0.11750463 0.022847906)
(0.54242938 0.11219853 0.022707716)
(0.63541817 0.10420904 0.022958481)
(0.73165718 0.093218731 0.023109158)
(0.83054531 0.079802727 0.023312816)
(0.93147285 0.064316416 0.023592334)
(1.0340774 0.047022589 0.023928138)
(1.1378455 0.028245181 0.024367399)
(1.2425206 0.0082431259 0.024861525)
(1.3477954 -0.012792055 0.025477774)
(1.4534496 -0.034565113 0.026109831)
(1.5592341 -0.057001826 0.026902447)
(1.6651243 -0.079848294 0.027726598)
(1.7708237 -0.10294951 0.028668639)
(1.8763727 -0.12631867 0.029727655)
(-0.0038064572 -0.018378712 -0.0278233)
(0.016490428 -0.03825 -0.020270579)
(0.045761378 -0.063435344 -0.021746651)
(0.084027889 -0.085558648 -0.017438657)
(0.13093268 -0.10694645 -0.01473046)
(0.1891163 -0.13259359 -0.011044601)
(0.25168577 -0.15457208 -0.0085515093)
(0.32314574 -0.17893766 -0.0048220974)
(0.3999127 -0.2036806 -0.0022001227)
(0.48219824 -0.22780663 0.00097729488)
(0.56907842 -0.2530793 0.0036660672)
(0.65989817 -0.2780385 0.0063728793)
(0.7540795 -0.30322402 0.008788391)
(0.85100149 -0.328379 0.011100529)
(0.95025374 -0.35348629 0.013235924)
(1.0513118 -0.37846238 0.015222116)
(1.1538492 -0.40330619 0.017097908)
(1.2574974 -0.42791266 0.01883072)
(1.3619691 -0.45233591 0.020515128)
(1.4669981 -0.47644321 0.0220417)
(1.5723962 -0.50037557 0.023571821)
(1.6778801 -0.52396768 0.024945888)
(1.7834338 -0.54737183 0.02628777)
(0 8.3690261e-20 0)
(-1.143667e-18 -2.4607862e-19 0)
(0 6.2367929e-19 0)
(0.0040758836 -0.012745619 0.019296633)
(0.01953774 -0.051957308 0.023989173)
(0.049519241 -0.064460322 0.020024724)
(0.085943865 -0.089649001 0.018299802)
(0.1355369 -0.11753818 0.020018871)
(0.19100684 -0.13678469 0.017312803)
(0.25448682 -0.16234751 0.018386444)
(0.32536733 -0.18640743 0.017719488)
(0.40197031 -0.21059104 0.017961079)
(0.48409525 -0.23543789 0.018146306)
(0.57073273 -0.25979268 0.018261714)
(0.66143389 -0.28493511 0.018630226)
(0.75543327 -0.30974008 0.018960437)
(0.85228519 -0.33470072 0.019373173)
(0.95142776 -0.35969453 0.019882948)
(1.0524324 -0.38446751 0.020427786)
(1.1549238 -0.40922877 0.021048983)
(1.2585479 -0.43375769 0.021740357)
(1.3630003 -0.45810779 0.022489356)
(1.4680425 -0.4822087 0.023309837)
(1.5734027 -0.50607914 0.024211519)
(1.6789337 -0.52969963 0.025199903)
(1.7844365 -0.55307934 0.026275226)
(1.9130494 -0.47097142 0.028249889)
(1.9360958 -0.36573814 0.029159419)
(1.9594172 -0.26074906 0.030069314)
(1.8774013 -0.13216203 0.029598732)
(1.7718503 -0.10880054 0.028270322)
(1.6661356 -0.085711861 0.026879121)
(1.560313 -0.062861739 0.025382138)
(1.4545097 -0.040504459 0.023841352)
(1.3489003 -0.018765611 0.022218308)
(1.2436697 0.0021582414 0.020524677)
(1.139067 0.022033479 0.018749173)
(1.0353686 0.04065791 0.016874441)
(0.93290504 0.057757362 0.014886924)
(0.83203036 0.073022352 0.012769273)
(0.73334476 0.086235966 0.010479825)
(0.63712704 0.097019816 0.0080428484)
(0.54416087 0.10512243 0.00536928)
(0.4557602 0.10953685 0.002896241)
(0.37129032 0.11147239 -0.00030354642)
(0.29321408 0.10968692 -0.0034184314)
(0.22126405 0.1036716 -0.0063498697)
(0.15843137 0.093881468 -0.0097437326)
(0.10296829 0.07999306 -0.012188226)
(0.058530901 0.064585911 -0.015916223)
(0.025829015 0.04141081 -0.017777005)
(0.011903896 0.021554105 -0.014121857)
(0 -1.4943583e-19 0)
(0 -1.5583029e-19 -3.2141554e-19)
(0 -4.5926872e-19 0)
(0 2.7002284e-19 0)
(0 -2.9877509e-20 9.5265449e-20)
(0 2.0566504e-19 0)
(1.8889985 -0.5720579 0.027483452)
(1.889281 -0.57352922 0.027477377)
(1.8895041 -0.57495195 0.02744119)
(1.982005 -0.15096956 0.030859028)
(1.9822752 -0.15243895 0.030857122)
(1.9824785 -0.15390427 0.030885392)
(-0.0028860549 0.012730657 0.014568195)
(0.016189152 0.025460173 0.011013038)
(0.047389281 0.035995926 0.012601598)
(0.090796232 0.043626816 0.012336678)
(0.14323546 0.048984258 0.013303819)
(0.20655365 0.050728882 0.013989469)
(0.27597914 0.049164312 0.014658197)
(0.35330032 0.044970229 0.015677931)
(0.43590064 0.037533535 0.016367595)
(0.52370665 0.027409304 0.017219354)
(0.61572852 0.015107201 0.018024901)
(0.71099509 0.00040719117 0.018808978)
(0.80910199 -0.01596254 0.019587432)
(0.90943513 -0.033954207 0.020350714)
(1.0115091 -0.053248417 0.021158229)
(1.1149082 -0.073618804 0.021962179)
(1.2193159 -0.094882613 0.022821382)
(1.3244066 -0.11680685 0.023704102)
(1.4299749 -0.13926448 0.024636129)
(1.5357461 -0.16210997 0.025635903)
(1.6416353 -0.18519954 0.026614788)
(1.747397 -0.20839905 0.027741896)
(1.8530761 -0.23171443 0.028837551)
(-0.0076785164 0.0025873713 8.8193055e-05)
(0.013120514 0.0030761006 -0.0008148502)
(0.042378293 0.0037580948 0.00072245822)
(0.084395914 0.002447505 0.0025686089)
(0.13641102 -0.0023191859 0.0038368285)
(0.1970241 -0.008536824 0.0054843048)
(0.26533285 -0.017104105 0.0070861708)
(0.34090453 -0.028276551 0.0087739601)
(0.42184444 -0.041292535 0.010290522)
(0.50829831 -0.056319004 0.011859838)
(0.59867747 -0.073001647 0.013272438)
(0.69277307 -0.091194266 0.014701799)
(0.78978413 -0.1106426 0.016017226)
(0.88917933 -0.13112876 0.017324528)
(0.99046253 -0.15249277 0.018569265)
(1.0932345 -0.17450439 0.0197809)
(1.1971327 -0.19705417 0.020984364)
(1.3018451 -0.21996333 0.022152927)
(1.4071259 -0.2431644 0.02333699)
(1.5127054 -0.26650258 0.02448057)
(1.6184861 -0.28993962 0.025666503)
(1.7242053 -0.31334808 0.026825148)
(1.8298947 -0.3367739 0.027990774)
(-0.010004397 -0.0078212667 -0.0091956701)
(0.011738684 -0.015484218 -0.0093028561)
(0.039166216 -0.024508843 -0.0083790972)
(0.081553721 -0.037133478 -0.0065266928)
(0.13121235 -0.051360816 -0.0048000212)
(0.19038824 -0.065084471 -0.002495415)
(0.25727495 -0.082537275 -0.00015619541)
(0.33050274 -0.099894588 0.0020487205)
(0.40994143 -0.118853 0.004243756)
(0.49446503 -0.13918351 0.0064909397)
(0.58335709 -0.1601581 0.0085223317)
(0.67603533 -0.18221101 0.010555851)
(0.7717318 -0.2047823 0.012414989)
(0.87002051 -0.22790609 0.014195075)
(0.97034009 -0.25140074 0.015866644)
(1.072338 -0.27513045 0.017457762)
(1.1755811 -0.29904418 0.018979638)
(1.2798035 -0.32300724 0.020434979)
(1.3846842 -0.34697821 0.02183799)
(1.4900208 -0.37091467 0.023226275)
(1.5955745 -0.39470092 0.024511761)
(1.7011773 -0.41840758 0.025848461)
(1.8067073 -0.44193579 0.027082371)
(0 -9.468676e-20 0)
(0 1.5644302e-19 3.2814577e-19)
(0 3.4084694e-19 0)
(-1.7078758e-19 3.4101338e-21 0)
(7.1334068e-20 -1.0569529e-19 -5.2643578e-21)
(-4.4954293e-19 -4.0429048e-19 0)
(0 1.537898e-19 0)
(0 4.1331394e-19 -1.0992331e-20)
(0 4.5515243e-19 0)
(0.0076665326 -0.0080512199 -0.012306733)
(0.010825192 -0.010892697 -0.0023933285)
(0.0099510841 -0.0076052395 0.0062853307)
(0.029806161 -0.047018102 -0.010096415)
(0.029393655 -0.047829076 -0.00039395513)
(0.028560163 -0.045971358 0.012736267)
(0.054120287 -0.064312042 -0.010922958)
(0.057222484 -0.063254401 -0.0010794252)
(0.057540119 -0.068691968 0.011369304)
(0.091637868 -0.088507282 -0.0073636184)
(0.094820111 -0.091534197 0.0011940636)
(0.092640262 -0.089685426 0.010624542)
(0.13973889 -0.11316129 -0.0059581648)
(0.14143157 -0.11374023 0.0013283074)
(0.14114149 -0.11666225 0.011536138)
(0.19425783 -0.13567268 -0.0036983965)
(0.19684683 -0.1371523 0.0040413086)
(0.19603818 -0.13815804 0.011429764)
(0.25765017 -0.15913812 -0.0010650366)
(0.25976081 -0.16171064 0.0043067612)
(0.25917724 -0.16310494 0.012575011)
(0.32800192 -0.18360739 0.0010179967)
(0.32965611 -0.18437991 0.0064938585)
(0.32928875 -0.18647119 0.012746898)
(0.40405688 -0.20716669 0.0033806669)
(0.40565369 -0.20952814 0.0079747258)
(0.40510948 -0.21069752 0.013650235)
(0.48583122 -0.23206527 0.0055309116)
(0.48711444 -0.23361437 0.0095346528)
(0.48692082 -0.2352925 0.014369187)
(0.57204683 -0.25645986 0.0076412236)
(0.57330288 -0.25828135 0.011102834)
(0.57296005 -0.25971276 0.015156849)
(0.6624733 -0.28140418 0.0097270389)
(0.66342512 -0.28306282 0.012548164)
(0.66329513 -0.28451263 0.015967621)
(0.75615662 -0.3061828 0.011556918)
(0.75707026 -0.30784745 0.013933052)
(0.75693471 -0.30934472 0.0168056)
(0.85276303 -0.33115286 0.013391509)
(0.85349625 -0.3327267 0.01534285)
(0.85342968 -0.33412311 0.017624984)
(0.9516624 -0.35597075 0.015075358)
(0.95230973 -0.35751979 0.016599435)
(0.952304 -0.35898985 0.018466169)
(1.052461 -0.3807708 0.016660573)
(1.0530299 -0.38228672 0.017892211)
(1.0530574 -0.38369963 0.019349444)
(1.1547696 -0.40540718 0.018201742)
(1.1552564 -0.40687432 0.01912664)
(1.1553221 -0.40830693 0.020224286)
(1.2582229 -0.42986079 0.019648965)
(1.2586527 -0.43132492 0.02032678)
(1.2587613 -0.43276761 0.021145379)
(1.3625275 -0.45413333 0.021062457)
(1.3629137 -0.45557531 0.021536049)
(1.363055 -0.4570104 0.022091347)
(1.4674472 -0.47814766 0.022412854)
(1.4677952 -0.4795865 0.022719328)
(1.4679563 -0.48103249 0.023068243)
(1.5727062 -0.50194067 0.023755755)
(1.573014 -0.50336743 0.023906132)
(1.5732186 -0.50481355 0.024094056)
(1.6781617 -0.52549008 0.025018837)
(1.6784625 -0.52694399 0.02508594)
(1.6786834 -0.5283858 0.025168408)
(1.7836585 -0.54883675 0.026271243)
(1.7839134 -0.55028037 0.026267566)
(1.7841674 -0.55170677 0.026294097)
(1.9587141 -0.25631028 0.030001264)
(1.9589908 -0.25777675 0.030029939)
(1.9591934 -0.25922828 0.030050544)
(1.935385 -0.36139939 0.029164853)
(1.9356597 -0.36287139 0.029163709)
(1.9358726 -0.36426941 0.029155974)
(1.9122627 -0.46673557 0.028349875)
(1.9125368 -0.46819848 0.028307389)
(1.9127742 -0.46961187 0.028286647)
(0.017231636 0.019196915 0.010486243)
(0.01679275 0.020554122 0.0033475108)
(0.019047992 0.019566313 -0.0047278697)
(0.033787417 0.042917627 0.010797244)
(0.035542487 0.043310485 0.00037096547)
(0.033930051 0.04211063 -0.0089362551)
(0.067175098 0.067070785 0.012362798)
(0.067559193 0.064942193 0.0039900416)
(0.067814879 0.065072255 -0.0073035433)
(0.10931356 0.082374146 0.012384027)
(0.11121358 0.081831736 0.004589886)
(0.11015767 0.080669336 -0.0049611643)
(0.16337586 0.098260522 0.014157022)
(0.16521549 0.096476773 0.0057746497)
(0.16431682 0.095492005 -0.0022346991)
(0.22662414 0.10755269 0.01435255)
(0.22746506 0.10539825 0.0082284987)
(0.22740234 0.10452392 -4.580968e-05)
(0.29691333 0.11365624 0.015546612)
(0.29857323 0.11210044 0.0093809471)
(0.29819669 0.11060795 0.0024064935)
(0.37496701 0.11607481 0.016431591)
(0.3761486 0.11392952 0.011060357)
(0.37579438 0.11254582 0.0047012648)
(0.45803379 0.11483955 0.017498528)
(0.45953456 0.11242482 0.012351121)
(0.45902878 0.11115599 0.0074475451)
(0.5466811 0.10969181 0.018157527)
(0.54762822 0.10760966 0.014527742)
(0.54768264 0.10603014 0.0092511262)
(0.63902767 0.10168618 0.019029516)
(0.64002126 0.099654183 0.015328812)
(0.63973977 0.098158177 0.011326819)
(0.73481861 0.090940778 0.019743117)
(0.73552365 0.088922523 0.016855855)
(0.7355649 0.087436835 0.013329345)
(0.83314393 0.077671356 0.020560425)
(0.83391994 0.075779639 0.018015751)
(0.83386944 0.074273949 0.015103132)
(0.93375134 0.062355503 0.021273646)
(0.93434725 0.060524145 0.019245148)
(0.93435139 0.059019496 0.016830623)
(1.0359228 0.045189894 0.022082308)
(1.0364688 0.043423975 0.020398114)
(1.036512 0.041961667 0.01843963)
(1.1393874 0.026523066 0.022858465)
(1.1398708 0.024845707 0.021542392)
(1.1399293 0.02338387 0.019984051)
(1.2437808 0.0066183908 0.023718487)
(1.2441981 0.0049849245 0.022677366)
(1.2442899 0.0035364948 0.021478686)
(1.3488066 -0.014318547 0.024575928)
(1.3491869 -0.01589622 0.023812102)
(1.3492978 -0.017334028 0.022918586)
(1.4542396 -0.036048193 0.025515356)
(1.4545827 -0.037605752 0.024967922)
(1.4547231 -0.039048424 0.024331741)
(1.5598711 -0.058430982 0.026516199)
(1.5602102 -0.059933799 0.026099185)
(1.5603622 -0.06137512 0.02569852)
(1.6655814 -0.081248285 0.027482536)
(1.665878 -0.082753287 0.027275028)
(1.6660528 -0.084203202 0.027052412)
(1.7711984 -0.10436584 0.028564969)
(1.7714589 -0.1058172 0.028462059)
(1.7716717 -0.1072888 0.028349868)
(1.8766952 -0.12770177 0.029700335)
(1.8769552 -0.12916117 0.029656325)
(1.8771849 -0.13063908 0.029620695)
(-0.00071807371 0.006520349 -0.0089742359)
(0.018455216 0.026275369 -0.0090432063)
(0.047695266 0.029727948 -0.0053276794)
(0.092624049 0.038719729 -0.0048179219)
(0.14546154 0.042593738 -0.0023746242)
(0.20784734 0.043480425 -4.4537156e-05)
(0.27820909 0.042190701 0.0021683792)
(0.35488175 0.037213773 0.0044890107)
(0.43786787 0.03019447 0.0065828347)
(0.52541792 0.020043378 0.0088139608)
(0.6171955 0.0079854928 0.010668516)
(0.71246049 -0.0065397715 0.012633608)
(0.81043273 -0.022668414 0.014408488)
(0.91066051 -0.040450825 0.016088019)
(1.0126512 -0.059577341 0.017707294)
(1.1159816 -0.079801413 0.019232105)
(1.2203276 -0.10094278 0.020724199)
(1.3253991 -0.1228009 0.02214736)
(1.4309303 -0.14520559 0.02354428)
(1.5367264 -0.16800278 0.024893213)
(1.6426118 -0.19107415 0.02622302)
(1.7483861 -0.21427193 0.027501522)
(1.8541082 -0.23754464 0.028802566)
(-0.0067704644 0.00325504 0.0018464511)
(0.013128747 0.0036141994 0.0011660321)
(0.044623038 -0.0010290703 0.0030734286)
(0.087693764 -0.0020816015 0.0030858861)
(0.13849477 -0.0075724647 0.0041586618)
(0.20001133 -0.015247918 0.0060346032)
(0.26794409 -0.023718886 0.0070723985)
(0.34341424 -0.035158382 0.0086566152)
(0.42444271 -0.048289886 0.010252281)
(0.51044951 -0.063139008 0.011613133)
(0.60082044 -0.079661231 0.013066707)
(0.69478762 -0.097772903 0.014457108)
(0.79157118 -0.11697169 0.015749071)
(0.89087261 -0.13733736 0.017061795)
(0.99201453 -0.15850169 0.018292132)
(1.0946717 -0.18042462 0.019533681)
(1.198487 -0.20286067 0.020745486)
(1.3031338 -0.22572666 0.021932049)
(1.4083439 -0.24888249 0.023146757)
(1.5139102 -0.27220396 0.024329131)
(1.6196185 -0.29564985 0.025533807)
(1.7252834 -0.31904763 0.026737506)
(1.8309814 -0.34250991 0.02793443)
(-0.0097597229 -0.0085428478 0.0090915957)
(0.0151143 -0.013442896 0.0095123999)
(0.044033109 -0.033196474 0.013569282)
(0.083964341 -0.039106729 0.010486903)
(0.13477687 -0.057001994 0.012844466)
(0.19387144 -0.072212976 0.012809693)
(0.25980993 -0.088179753 0.013101616)
(0.33356188 -0.10733274 0.014155597)
(0.4122851 -0.1256191 0.01463284)
(0.49688416 -0.14617164 0.015449292)
(0.58540626 -0.16704202 0.016224028)
(0.67789083 -0.18883102 0.016937636)
(0.77341761 -0.21131289 0.017790353)
(0.87154741 -0.23419234 0.018547071)
(0.97175686 -0.25756127 0.019396398)
(1.0736317 -0.28117426 0.02023821)
(1.1768211 -0.30497151 0.021117875)
(1.2809648 -0.32888076 0.022018715)
(1.3858231 -0.35281824 0.022976032)
(1.4911169 -0.37670828 0.023934044)
(1.5966423 -0.40051004 0.02497794)
(1.7022352 -0.42419058 0.026001857)
(1.8077287 -0.44770794 0.027164431)
(0.0038280294 0.0061048208 0.0067558767)
(0.003733195 0.0067608461 0.0020775465)
(0.0059839221 0.0059322177 -0.0034475756)
(0.024968043 0.0248199 0.005002778)
(0.027675208 0.024254712 0.00028264558)
(0.025408292 0.023751704 -0.0055894652)
(0.0561835 0.032765867 0.0065781451)
(0.056075398 0.031923856 0.0021458949)
(0.056235152 0.031430605 -0.0018391339)
(0.098125389 0.041668091 0.0073042946)
(0.10066013 0.040795015 0.0029324423)
(0.099429841 0.038733517 -0.0010812911)
(0.15116478 0.046354477 0.0079854056)
(0.15257852 0.044365046 0.0048731543)
(0.15207796 0.043200126 0.00073241553)
(0.21278655 0.047560652 0.0096680065)
(0.21450156 0.046294356 0.0063451746)
(0.21348013 0.044537512 0.0028996873)
(0.28200267 0.046437606 0.010775046)
(0.28360137 0.0447739 0.0078641184)
(0.28320196 0.04286958 0.0048524975)
(0.35845008 0.042253692 0.012072364)
(0.3600614 0.039907845 0.0095681054)
(0.35930828 0.038305792 0.0068913016)
(0.44062075 0.034455242 0.013384688)
(0.44184579 0.032801597 0.011309475)
(0.44149209 0.031133627 0.0087301747)
(0.52778581 0.024836366 0.014615336)
(0.5290629 0.023043333 0.012632125)
(0.52868004 0.021017819 0.010573149)
(0.61920125 0.012557954 0.015777375)
(0.62022313 0.010557522 0.014122127)
(0.61986318 0.0089988411 0.012380875)
(0.71392643 -0.0019378123 0.016924806)
(0.71489815 -0.0036817076 0.015557753)
(0.71472484 -0.005358577 0.013973542)
(0.81163351 -0.018093387 0.018008441)
(0.81247351 -0.019896264 0.016806061)
(0.81229982 -0.021500956 0.015575451)
(0.91154451 -0.035956717 0.019045647)
(0.91226926 -0.037658741 0.018122282)
(0.91215093 -0.039244016 0.017058194)
(1.0132556 -0.055101205 0.020097784)
(1.0138832 -0.056784557 0.019328963)
(1.0138316 -0.058296086 0.018483744)
(1.1163553 -0.075368503 0.021120747)
(1.1169097 -0.07695993 0.020535744)
(1.1168845 -0.078477181 0.019858031)
(1.2204844 -0.096499778 0.022164051)
(1.2209592 -0.098089827 0.021718393)
(1.220985 -0.09956847 0.021206229)
(1.3253562 -0.11836914 0.023207175)
(1.3257756 -0.11991334 0.022899459)
(1.3258305 -0.12137472 0.022507602)
(1.4307183 -0.14074412 0.024284264)
(1.4310775 -0.14228934 0.024066251)
(1.4311917 -0.14373943 0.02380543)
(1.5363167 -0.16355832 0.02537876)
(1.536696 -0.16507265 0.025259482)
(1.536802 -0.16650991 0.025062366)
(1.6420606 -0.1866121 0.026469781)
(1.6424389 -0.18808336 0.026440367)
(1.6425686 -0.18954063 0.02632059)
(1.7477728 -0.20983097 0.027656937)
(1.7480368 -0.21129765 0.027623998)
(1.7482253 -0.21275417 0.027556785)
(1.8533963 -0.23308532 0.028818297)
(1.8536602 -0.23456495 0.02880227)
(1.8538883 -0.23601932 0.028793269)
(-0.0020695329 0.0017228669 -0.00081766933)
(-8.6510961e-05 0.002433153 -0.00077843669)
(0.0015398007 0.0023827889 0.00020126985)
(0.020215275 0.0026634815 -0.0024174239)
(0.022247368 0.0031823396 -0.0015318679)
(0.019310293 0.002165537 -0.00039889774)
(0.050780298 0.0022566726 6.1432628e-05)
(0.052080983 0.00084959069 0.0023382415)
(0.051753418 0.00031798226 0.0018556375)
(0.09131328 -0.00051804852 0.00084925106)
(0.095094621 -0.0022682816 0.002158872)
(0.093012568 -0.0041776329 0.0023018768)
(0.14348253 -0.0047305831 0.0029703529)
(0.14553151 -0.0068894205 0.0049933197)
(0.1438328 -0.0073134395 0.0034335131)
(0.20314715 -0.011561143 0.0046800712)
(0.20543021 -0.013867451 0.0054817106)
(0.20433728 -0.015156908 0.0053730674)
(0.27095466 -0.019945776 0.0060385103)
(0.27310627 -0.022620764 0.0075660804)
(0.27176524 -0.024071559 0.0065607868)
(0.34589685 -0.031490923 0.0081918308)
(0.34758961 -0.033845908 0.009144099)
(0.34657356 -0.034741047 0.00831429)
(0.42617345 -0.04409229 0.0096315239)
(0.42787003 -0.046477198 0.010311607)
(0.42705082 -0.048076039 0.0097888681)
(0.51212355 -0.058994976 0.011307762)
(0.51347612 -0.061532048 0.012087344)
(0.51277135 -0.062661294 0.011518439)
(0.60198587 -0.075668383 0.012829773)
(0.60318582 -0.077876039 0.013459622)
(0.60261149 -0.079306163 0.012797229)
(0.69562866 -0.09362591 0.014306313)
(0.69666958 -0.095783848 0.014800197)
(0.69626356 -0.097086399 0.014332597)
(0.7922202 -0.11291764 0.01569275)
(0.79313802 -0.11493279 0.016142098)
(0.79274105 -0.11637104 0.015635026)
(0.89120542 -0.1332562 0.017047073)
(0.89196555 -0.13522174 0.017381638)
(0.89171734 -0.136532 0.016982551)
(0.99217081 -0.15446827 0.01834172)
(0.99284301 -0.15626584 0.018612788)
(0.99265968 -0.15765964 0.018243427)
(1.0946415 -0.17634605 0.019587176)
(1.0952081 -0.17809601 0.019805756)
(1.0951006 -0.17945968 0.019499801)
(1.1982908 -0.19878111 0.020831619)
(1.1987752 -0.20044627 0.020987294)
(1.1987305 -0.20184568 0.02072569)
(1.3027873 -0.2216077 0.022024313)
(1.3032004 -0.22322974 0.022144395)
(1.3032333 -0.22460383 0.021928457)
(1.407878 -0.24472026 0.023240724)
(1.4082441 -0.2462837 0.0233139)
(1.4083215 -0.24769964 0.023150572)
(1.5133459 -0.26799346 0.024401675)
(1.5136309 -0.26956189 0.024468472)
(1.513776 -0.27095769 0.024328681)
(1.6190064 -0.29138391 0.025634167)
(1.6191812 -0.29291558 0.025605639)
(1.6194342 -0.29432883 0.025551462)
(1.7245697 -0.31479856 0.026778789)
(1.72485 -0.31624017 0.026816629)
(1.7250351 -0.31770414 0.026719238)
(1.8302029 -0.33817967 0.027962386)
(1.8304655 -0.33965304 0.02796709)
(1.8307166 -0.34106375 0.027952256)
(-0.00205085 -0.0057468744 -0.0040643827)
(-0.0027191746 -0.0051562067 -0.00018302928)
(-0.002616184 -0.004810805 0.0042812001)
(0.022104264 -0.015628286 -0.0050281776)
(0.024216876 -0.012432843 0.0008183102)
(0.022128625 -0.014687612 0.0055141558)
(0.048609966 -0.027341015 -0.0037419055)
(0.050731516 -0.031748466 0.0018717077)
(0.0510446 -0.031956702 0.0076112374)
(0.090526802 -0.041721352 -0.0026404222)
(0.091698201 -0.040300538 0.0023887179)
(0.091416383 -0.042017024 0.0066516025)
(0.13898416 -0.054142596 -0.00050374313)
(0.14092993 -0.056905165 0.0040056228)
(0.1408121 -0.057602939 0.0079643501)
(0.19758924 -0.069915764 0.00072397877)
(0.19910873 -0.071549276 0.0047790435)
(0.19887488 -0.07293057 0.0082817241)
(0.2634609 -0.086756087 0.0030298955)
(0.26462497 -0.088223085 0.0069161906)
(0.26481453 -0.089293975 0.0097132125)
(0.335984 -0.10381601 0.0048809921)
(0.33724097 -0.10598057 0.0076315467)
(0.33729398 -0.10753809 0.010498027)
(0.41475057 -0.12299995 0.006609277)
(0.41570931 -0.12481342 0.0095676401)
(0.41588486 -0.12613564 0.011956404)
(0.49857022 -0.14297448 0.0086668967)
(0.49950577 -0.14479364 0.010969958)
(0.49960873 -0.14627389 0.012865405)
(0.58683683 -0.16371375 0.010350622)
(0.58762484 -0.16562463 0.012297677)
(0.58785549 -0.16705661 0.014073677)
(0.67899019 -0.18550459 0.012094187)
(0.67968159 -0.18726353 0.013773508)
(0.67983752 -0.18865755 0.01516976)
(0.77419696 -0.20777444 0.013706556)
(0.77475984 -0.20956706 0.015063201)
(0.77500939 -0.21098943 0.016221545)
(0.87206746 -0.23067704 0.015247119)
(0.87258015 -0.23236386 0.016344525)
(0.87279176 -0.23372376 0.017323329)
(0.97203883 -0.25391462 0.016708907)
(0.97246469 -0.25555401 0.017612239)
(0.97271932 -0.25694 0.018362194)
(1.0737081 -0.27744978 0.018124007)
(1.0740956 -0.27905436 0.018816295)
(1.0743267 -0.28042744 0.019413568)
(1.1766981 -0.30117542 0.019482542)
(1.1770245 -0.30273665 0.020012182)
(1.17729 -0.30410809 0.020475212)
(1.2806788 -0.3249834 0.020800099)
(1.2809938 -0.3265309 0.021201683)
(1.2812505 -0.32788791 0.021527562)
(1.3853835 -0.34883327 0.022098794)
(1.3856544 -0.35032881 0.022369464)
(1.3859233 -0.35171818 0.022605509)
(1.490543 -0.37262978 0.023378931)
(1.4908273 -0.37415492 0.0235483)
(1.4910968 -0.37551641 0.02369331)
(1.5959811 -0.39635125 0.024601299)
(1.596221 -0.39781432 0.024730789)
(1.5965042 -0.39919819 0.024808994)
(1.7014944 -0.41996958 0.025880332)
(1.7017655 -0.42145112 0.025934864)
(1.7020516 -0.42283504 0.025954002)
(1.806964 -0.44342342 0.027082287)
(1.8072041 -0.4448982 0.027099871)
(1.8074709 -0.44629745 0.027100912)
)
;

boundaryField
{
    free
    {
        type            calculated;
    }
    fixed
    {
        type            calculated;
    }
    freeTop
    {
        type            calculated;
    }
}


// ************************************************************************* //
