/*--------------------------------*- C++ -*----------------------------------*\
  =========                 |
  \\      /  F ield         | OpenFOAM: The Open Source CFD Toolbox
   \\    /   O peration     | Website:  https://openfoam.org
    \\  /    A nd           | Version:  6
     \\/     M anipulation  |
\*---------------------------------------------------------------------------*/
FoamFile
{
    version     2.0;
    format      ascii;
    class       pointScalarField;
    location    "1.57";
    object      p;
}
// * * * * * * * * * * * * * * * * * * * * * * * * * * * * * * * * * * * * * //

dimensions      [1 -1 -2 0 0 0 0];

internalField   nonuniform List<scalar> 
625
(
-815066.27
1182924.4
4358.8351
-446.3928
-1400008.8
2181645.3
-1843.5542
1028.5051
-497352.43
-79656.151
166374.14
-1602.6708
-2172.6225
-2396.6398
-337737.03
-353133.32
-339873.04
-324281.32
-277633.45
-261981.81
-225314.29
-197683.85
-183678.38
-150542.19
-138080.56
-119581.38
-108288.18
-94693.285
-84715.368
-73699.722
-62156.49
-52418.676
-39558.961
-30379.669
-19490.637
-9607.2278
-1828.7003
365064.46
245705.3
309831.53
238358.4
227094
212551.61
187585.96
173321.22
161572.9
145015.28
132975.66
116356.27
104444.57
88019.012
72723.128
56893.151
40955.662
27125.93
13500.965
4546.4313
-2761.0537
-4530.8584
-6338.7482
-741684.33
11552.835
375151.32
369252.75
497041.02
352205.6
338133.59
361271.2
299461.58
287946.65
279480.56
248353.59
234806.79
200691.99
181186.62
149141.92
127024.5
102262.76
80135.502
61255.173
44585.264
30581.858
20001.472
11747.484
4904.8401
-142.50689
-248.05276
561.02103
-214.30105
66.335255
-2297.7653
-5764.09
-13361.027
-22998.125
-34649.148
-47211.856
-61004.4
-75578.897
-89739.658
-105056.44
-121259.92
-137277.33
-143226.36
-189126.06
-194255.07
-220387.27
-227392.91
-283192.53
-266898.18
-306761.84
-346809.78
-308208.7
-830656.6
-811265.43
-681869.76
1278405.3
1285192.3
1254396.4
2237.0867
-362.0002
449.84337
3554.4588
2996.5439
2306.5043
-133590.3
-167486.24
-176872.67
-159938.77
-158898.52
-158301.67
-141384.05
-136109.07
-124867.95
-113024.45
-106301.04
-94505.961
-83657.076
-71431.225
-61899.558
-49298.079
-39495.971
-29281.015
-19152.139
-11417.44
-5854.4744
-1593.5676
287.90273
21498.329
-15205.134
7099.5765
-14384.191
-4278.5877
-6632.9456
-1317.0855
-3710.5308
-1160.1809
4904.782
5163.0447
9315.1025
10123.412
10269.33
9266.3914
8458.049
5976.7455
4282.9368
2388.3897
1562.6157
-14.319296
-940.08011
-2686.8506
226105.27
198767.52
187466.12
163191.45
176161.71
145073.37
141011.85
122397.79
112651.97
97791.813
82341.584
69335.196
56172.147
45045.018
34707.301
26288.576
18779.063
12544.75
8198.8161
4228.9988
3273.7715
968.67335
-905.61907
-398365.42
-358173.24
-392524.29
-25605.221
-51316.467
-12044.924
175852.65
239151.77
322942.46
478922.62
474358.56
495561.23
412253.26
392863.02
366676.29
340145.67
326938.73
343202.62
290859.97
288199.28
287387.19
286969.76
285033.99
306680.95
262463.53
255863.78
261603.85
246430.1
240109.92
261436.11
228677.31
221515.93
240983.32
206579.69
203992.86
221671.81
186554.27
186265.47
203406.56
162802.48
163878.9
179296.3
140859.81
143403.79
156670.49
116522.13
119593.02
130244.86
94530.986
97325.827
105877.64
72882.408
75219.544
83314.216
53847.317
56467.023
61634.978
37061.122
37828.924
42493.724
22859.061
23935.711
26952.706
11942.792
11547.974
13574.273
4490.7355
3785.6919
4535.4059
-1140.441
-2817.6591
-1744.5726
-1527.7633
-3233.5435
-2772.1102
-1457.2029
-3721.151
-4464.6042
-822.65186
-740.72089
-524.36248
317.19524
127.55594
-1624.3846
-5969.53
-4761.0709
-5867.0603
-393041.8
-398882.06
-388104.42
-397750.89
-374119.49
-342327.17
-372288.58
-342635.01
-335739.75
-314370.35
-292579.77
-287039.31
-295559.06
-283280.36
-245375.41
-274115.17
-222367.62
-234931.51
-237269.2
-211467.74
-209425.8
-222794.64
-184468.39
-183552.62
-191590.27
-165223.76
-160669.46
-180085.7
-140903.77
-151093.93
-159205.8
-126998.82
-132425.39
-145138.09
-108517.26
-120021.36
-124899.79
-97669.079
-107293.66
-110956.81
-86275.179
-94804.772
-94545.417
-76492.231
-82940.696
-79149.197
-66293.508
-70783.86
-64164.339
-56867.352
-58622.264
-49351.346
-46177.564
-46370.916
-35238.177
-36428.486
-34473.676
-23269.15
-26629.66
-23894.4
-12977.829
-15324.906
-13859.372
-4739.9347
-8304.9529
-7141.4862
777.78919
-300.41087
-1042.5151
-209477.8
-207584.59
-185150.74
-186022.29
-193459.41
-161340.94
-150470.76
-133553.84
-115103.94
-96413.021
-85422.489
-65901.772
-51661.023
-39754.916
-28711.141
-20187.208
-13437.318
-8407.9325
-5258.656
-2734.9188
-2066.397
-918.15864
1883.3636
39440.074
-9036.0091
13269.804
-4341.9106
-6885.9448
24469.804
10035.598
22402.566
19870.031
22369.032
13180.083
14081.012
7399.4038
4962.1814
984.73466
-570.0826
-1899.0804
-2386.1299
-1424.6409
-1485.5127
-520.0576
927.67255
825.88981
211486.84
217668.54
247366.51
204957.87
199789.85
182402.98
147025.84
138568.19
116951.53
105042.52
94310.062
86752.335
81245.599
73643.105
68139.849
60352.437
51644.935
42112.666
32596.471
21822.003
13827.11
6869.4243
849.7157
-284357.51
-250210.02
-223874.26
-240723.54
-213972.48
-201602.76
-195141.73
-173692.84
-211273.47
-184141.82
-192883.73
-156373.47
-204351.41
-154195.29
-172151.02
-157958.32
-160541.19
-164396.41
-163417.1
-160939.78
-147211.83
-150289.58
-134393.99
-131929.24
-131785.48
-123688.52
-125133.02
-113489.31
-116278.27
-103800.92
-98015.02
-98225.796
-86968.119
-77560.734
-82791.743
-73587.984
-62932.88
-69505.701
-58211.069
-49216.931
-54356.484
-44493.893
-35022.606
-40606.897
-31950.14
-24125.312
-29366.442
-21117.268
-15186.991
-18557.775
-11632.647
-7864.9376
-9925.1589
-4678.8172
-2529.9245
-4113.4233
625.65775
-1676.9396
668.84444
3512.7396
3012.9819
2872.2636
6400.6534
1505.1724
3249.8885
3967.9522
2236.3963
2559.4452
4306.739
-3955.0579
34656.375
-2414.8837
-7088.597
-41444.661
-41284.253
-34324.199
-28349.182
-26958.924
-21181.5
-18954.358
-15774.542
-9224.3965
-14948.47
-25878.212
-4823.082
-19827.644
-11344.566
-8875.9293
-6628.2179
2746.679
218.54839
1921.3709
1644.2117
4128.1336
-3104.4286
9146.0597
-3930.8061
3606.1478
13056.64
-1518.3092
3610.7725
16478.089
-4584.8758
2031.8866
15469.631
-5790.3187
-626.85662
19264.955
-7279.6035
1140.0754
18570.437
-5181.5243
-1455.1942
18334.562
-5456.7739
-947.9297
17716.77
-3198.9553
-703.061
16173.551
-745.05578
204.1054
14596.78
695.29351
291.43156
11012.351
993.48213
2175.2128
11126.698
2807.2086
4717.9096
4224.6632
3109.7219
1306.3331
3375.8868
279.63144
-508.70156
200.40688
289559.04
317066.68
360683.79
187703.47
175915.4
247632.7
180161.2
240969.68
246821.29
208127.85
174919.35
212457.58
156558.89
166748
195073.75
151554.25
148306.72
189072.92
130259.87
131381.09
160904.54
116951.3
112772.64
145238.75
96060.046
97993.745
126057.95
85968.333
88539.574
111328.82
73981.013
79353.325
96325.494
64791.213
73758.761
86510.314
55040.941
71346.548
77725.899
49256.204
67924.947
69506.885
42703.782
63448.67
61842.302
37778.49
57651.864
55583.104
32455.875
50538.815
48074.312
27784.948
41157.077
40015.44
22166.899
31398.469
32704.077
17267.121
21547.128
23842.986
10164.152
14386.714
15350.434
5291.1045
4027.5606
6444.8719
1897.8175
1352.2468
4360.4426
)
;

boundaryField
{
    free
    {
        type            calculated;
    }
    fixed
    {
        type            calculated;
    }
    freeTop
    {
        type            calculated;
    }
}


// ************************************************************************* //
