/*--------------------------------*- C++ -*----------------------------------*\
  =========                 |
  \\      /  F ield         | OpenFOAM: The Open Source CFD Toolbox
   \\    /   O peration     | Website:  https://openfoam.org
    \\  /    A nd           | Version:  6
     \\/     M anipulation  |
\*---------------------------------------------------------------------------*/
FoamFile
{
    version     2.0;
    format      ascii;
    class       pointVectorField;
    location    "0.17";
    object      lm;
}
// * * * * * * * * * * * * * * * * * * * * * * * * * * * * * * * * * * * * * //

dimensions      [1 -2 -1 0 0 0 0];

internalField   nonuniform List<vector> 
625
(
(-3.6361799e-15 2.112754e-16 -3.2990721e-16)
(2.8178306e-17 1.9013092e-16 6.1994168e-17)
(7303.4612 -654.754 112.68654)
(6768.3206 -2713.2531 35.215155)
(6.5239771e-16 2.739523e-16 -5.5565719e-16)
(-3.7042918e-15 1.4868296e-15 -1.3023874e-15)
(6855.6631 -2816.3348 16.478873)
(7375.5714 -747.35143 120.22114)
(-1.9658614e-16 -3.2115893e-17 -1.1045223e-16)
(1.4766345e-16 -3.4299605e-16 -2.8648028e-16)
(-1.0135278e-15 7.0169807e-16 1.7538027e-16)
(7168.3227 -1175.7534 91.285254)
(7032.8674 -1687.6854 72.70412)
(6902.8164 -2200.6269 54.114349)
(19.256094 29.845872 24.754132)
(43.963278 57.734576 21.742791)
(71.557295 80.233505 28.731229)
(109.43293 99.659603 31.030917)
(145.8491 118.10369 39.860115)
(197.62515 143.54259 50.411479)
(259.66521 175.83773 67.852322)
(349.95332 219.18542 86.84576)
(481.505 272.60241 105.85683)
(666.26596 329.05556 117.98585)
(915.78195 384.00147 126.79408)
(1230.9399 426.76862 128.48795)
(1610.6132 449.99208 124.5682)
(2047.1186 447.4559 115.72405)
(2529.9381 415.61708 103.22962)
(3045.7857 354.18971 90.119468)
(3580.0401 267.12709 79.101785)
(4122.276 157.70978 73.909205)
(4664.3481 34.520106 72.166623)
(5200.8246 -99.39197 75.918517)
(5736.7273 -240.85373 80.02466)
(6262.8143 -379.37195 85.903711)
(6786.519 -520.81045 98.349717)
(-2.922492 -22.416145 -37.002199)
(29.556595 -41.492432 -19.693403)
(60.788837 -71.248028 -23.918731)
(94.217486 -99.635209 -17.313246)
(126.79936 -131.25466 -21.135929)
(167.20771 -182.6412 -28.607784)
(207.98143 -241.35544 -45.499129)
(271.49229 -326.28701 -65.562537)
(365.44747 -433.76904 -91.233144)
(503.32169 -562.16298 -113.59968)
(698.53961 -714.03759 -131.70163)
(957.38132 -881.43185 -141.51076)
(1281.784 -1060.3495 -142.94383)
(1667.7061 -1243.8935 -135.83159)
(2106.5168 -1425.4413 -121.84754)
(2586.2277 -1599.7118 -102.41343)
(3093.6827 -1763.7749 -79.91116)
(3617.3847 -1918.4993 -57.183152)
(4147.2996 -2065.7875 -35.789414)
(4679.0345 -2206.4134 -19.965414)
(5209.1207 -2342.2014 -6.3330804)
(5734.5543 -2470.7999 4.8488398)
(6257.495 -2593.6884 17.846794)
(-4.8813632e-16 1.9183015e-16 -1.0607077e-16)
(-2.6214496e-15 -5.6404768e-16 7.244144e-16)
(-2.4010456e-15 1.4295629e-15 -1.6975308e-16)
(12.521927 -17.084893 19.723876)
(39.653889 -70.830491 24.091566)
(73.634022 -73.908088 20.847613)
(102.88376 -107.77946 27.147888)
(140.65014 -144.46204 42.896893)
(177.73855 -177.80605 53.327372)
(221.40039 -241.304 71.00203)
(297.39029 -318.39948 81.017186)
(401.74966 -423.38417 87.757226)
(556.2034 -555.10112 87.398944)
(765.72782 -708.78507 80.231521)
(1037.437 -882.87664 67.8602)
(1371.2588 -1068.2222 50.682315)
(1764.4129 -1259.5124 29.964385)
(2207.5309 -1449.9372 8.598445)
(2687.569 -1634.0037 -8.9518424)
(3190.2787 -1808.3511 -18.389393)
(3704.7362 -1971.3512 -18.547501)
(4225.8174 -2124.0635 -13.69857)
(4752.7494 -2269.1037 -9.0332006)
(5283.9118 -2409.7981 -8.3779154)
(5814.9045 -2547.0828 -7.3444236)
(6338.6054 -2681.8119 0.04193362)
(6986.3951 -2292.0795 42.1609)
(7110.4505 -1773.5512 67.718545)
(7243.2838 -1265.9195 95.619085)
(6858.9907 -613.29094 105.6937)
(6338.1121 -462.32864 98.070735)
(5812.2709 -318.18059 88.653837)
(5278.8286 -176.7898 77.336242)
(4740.332 -40.886089 62.86356)
(4199.7523 87.217585 45.128838)
(3660.2484 203.11228 25.511022)
(3127.8485 300.2847 5.2674552)
(2611.6887 372.04883 -14.032171)
(2124.4514 413.67874 -31.086003)
(1679.9685 424.3018 -44.025837)
(1290.9809 407.52979 -51.000015)
(965.7267 367.43217 -51.258884)
(704.88088 317.74355 -45.8369)
(514.40592 253.55178 -32.33696)
(371.82245 201.85164 -20.823876)
(274.0166 154.51749 -10.220713)
(204.8738 121.12744 -3.4318973)
(154.83198 93.89684 0.44940894)
(113.70746 74.915331 -1.0077205)
(76.563348 63.45864 -9.2375686)
(40.715622 44.089207 -18.41843)
(23.49976 27.953663 -17.159621)
(-1.3028228e-15 -3.4252847e-16 3.3068324e-16)
(-2.0449562e-15 -3.5718549e-16 -7.3673077e-16)
(-1.4121951e-15 -1.0527101e-15 6.223458e-16)
(-1.2019486e-15 6.189313e-16 -3.4292956e-16)
(-1.2511779e-16 -6.848356e-17 2.1836215e-16)
(-3.8898857e-17 4.7141393e-16 -3.1043199e-16)
(6785.9133 -2738.4214 30.849973)
(6808.9954 -2767.5856 26.470923)
(6830.428 -2795.4967 17.850644)
(7321.0905 -676.08589 116.84172)
(7338.1142 -700.82074 118.70944)
(7354.6342 -726.09547 119.50465)
(4.413373 16.149187 18.206254)
(31.309383 33.595609 13.398613)
(61.082619 46.385824 17.452664)
(95.30876 55.822251 21.120303)
(129.76921 66.302688 27.8819)
(174.83058 77.124194 35.732319)
(227.69885 88.44919 44.526194)
(306.99583 103.13759 53.555836)
(422.89913 114.60621 61.593301)
(593.30382 121.78373 66.631563)
(826.12557 120.92943 68.533701)
(1126.4977 105.8064 66.632574)
(1493.4622 73.667538 62.022798)
(1920.2793 21.292373 55.197673)
(2396.3927 -51.332555 48.017504)
(2908.2252 -142.48638 41.857157)
(3442.014 -249.2073 38.784134)
(3984.6199 -368.04173 39.351253)
(4528.265 -496.77912 42.388285)
(5067.3658 -632.25487 48.429866)
(5603.596 -771.29836 53.190499)
(6129.6173 -908.73278 63.342467)
(6654.6908 -1045.4654 76.083347)
(-3.4959065 4.5438074 -1.8079399)
(28.288164 7.4234417 -0.22255832)
(54.028869 7.4214377 2.486783)
(86.37331 4.0137623 7.4784279)
(120.08573 -5.8888972 10.583753)
(157.98224 -17.128688 12.280054)
(206.79557 -31.568462 12.381398)
(279.37461 -51.574724 11.332373)
(386.78547 -77.422753 8.0312999)
(546.10669 -112.77915 3.6840173)
(766.40376 -159.71428 -1.1585419)
(1054.5756 -220.71614 -5.3953445)
(1409.6683 -297.1478 -8.8933731)
(1825.6314 -389.35735 -10.74756)
(2291.8829 -495.99454 -10.555743)
(2795.1982 -614.60133 -7.4048479)
(3321.567 -742.0163 -1.1933611)
(3858.9461 -875.66038 7.6483321)
(4400.2812 -1012.8656 17.53137)
(4937.3071 -1151.8757 26.398091)
(5472.7445 -1290.9398 35.716229)
(5999.0357 -1425.6435 45.176193)
(6524.3317 -1559.5398 57.041772)
(-7.9857809 -6.0322866 -11.882127)
(26.037396 -13.725824 -8.4814022)
(50.895629 -25.294405 -7.5940332)
(87.747388 -45.549596 -4.2534481)
(117.61379 -74.843435 -5.2331742)
(152.28056 -106.30537 -9.2444865)
(195.8238 -152.15653 -15.334214)
(258.14401 -203.76289 -25.483488)
(355.97377 -267.69582 -37.479841)
(503.76051 -344.59561 -48.957018)
(712.11452 -434.62162 -58.752116)
(988.1516 -539.62836 -65.070213)
(1331.7908 -658.24264 -67.680846)
(1737.8146 -788.9547 -66.241262)
(2195.7804 -928.70239 -60.9489)
(2691.8155 -1074.1445 -51.862396)
(3211.6058 -1222.5142 -39.547224)
(3743.8306 -1371.4739 -25.295012)
(4278.4217 -1519.2238 -11.92114)
(4813.7701 -1666.0028 1.7039607)
(5345.4743 -1806.1168 10.976889)
(5872.2699 -1941.7211 23.129573)
(6393.4606 -2073.7508 35.688387)
(-2.5953868e-15 -2.1703571e-16 4.2716933e-18)
(-3.8783653e-15 3.5858996e-16 7.5215743e-16)
(-9.8459492e-16 7.8127033e-16 2.7525688e-16)
(-3.9146975e-16 7.8165185e-18 1.2560621e-16)
(1.6350797e-16 -2.4226884e-16 -1.2066667e-17)
(-1.0304172e-15 -9.2669207e-16 -7.5672327e-16)
(-6.4481012e-16 3.525084e-16 2.7116342e-16)
(-3.5205005e-15 9.4737515e-16 -2.5196009e-17)
(-3.8147498e-15 1.043275e-15 1.2924308e-16)
(12.348054 -8.8789234 -18.283977)
(17.785306 -14.010134 -7.5046586)
(18.585181 -10.038571 2.3549641)
(46.177316 -57.885838 -9.7940034)
(45.365208 -60.702566 -2.4374426)
(48.023418 -60.361218 11.763809)
(69.435547 -68.416339 -10.677366)
(76.262257 -64.83461 -1.9650249)
(79.016633 -79.875764 12.196674)
(104.00293 -97.74299 -3.7435437)
(109.50452 -103.40352 5.2188192)
(107.50755 -103.55425 17.046201)
(141.67658 -131.5724 -4.6645025)
(145.44825 -129.41873 7.93527)
(146.88728 -140.23522 27.2836)
(180.25699 -172.66226 -7.9814478)
(188.0199 -176.68816 13.441593)
(186.07506 -179.66157 35.149235)
(232.23241 -234.73057 -14.546174)
(242.31046 -237.71101 10.59722)
(240.93514 -241.22286 45.512564)
(307.05236 -317.99408 -28.659743)
(315.66545 -320.97762 6.536508)
(318.287 -322.88863 45.734649)
(409.08206 -424.58346 -45.405417)
(424.86742 -432.22245 -3.8295558)
(427.04188 -431.62965 45.610098)
(557.73086 -559.30775 -62.647303)
(576.97613 -566.59563 -15.07134)
(581.72573 -567.3517 40.104318)
(758.98936 -714.65963 -77.234895)
(782.58781 -723.53851 -26.292589)
(789.08433 -724.98669 31.05356)
(1020.8689 -888.37352 -87.180602)
(1047.1703 -897.68201 -36.649254)
(1056.4686 -900.66105 19.604979)
(1343.8155 -1072.5296 -92.297095)
(1372.4714 -1081.999 -45.181443)
(1384.1804 -1087.1495 6.6331683)
(1725.2907 -1260.5448 -92.017877)
(1754.9123 -1269.9891 -51.726933)
(1769.161 -1277.5857 -7.3807998)
(2157.0928 -1444.8186 -87.093256)
(2186.7606 -1454.4322 -55.795832)
(2203.365 -1465.4242 -20.488829)
(2628.3685 -1620.5375 -77.499458)
(2657.1675 -1630.4723 -55.193432)
(2675.1817 -1644.7774 -29.531335)
(3127.3617 -1785.1254 -63.618951)
(3153.9403 -1795.8097 -48.885045)
(3172.5049 -1812.6432 -31.684129)
(3642.8638 -1939.7158 -46.897551)
(3667.2021 -1951.3419 -38.00863)
(3685.1799 -1969.4242 -26.373314)
(4167.738 -2086.0904 -30.906692)
(4188.9556 -2100.0167 -25.7122)
(4206.6302 -2118.0793 -17.74764)
(4696.2528 -2226.2613 -17.657957)
(4715.8345 -2242.813 -15.980164)
(4733.7957 -2261.3496 -10.511985)
(5225.0243 -2361.0434 -8.0425085)
(5243.6908 -2381.6777 -10.528797)
(5262.6653 -2401.4209 -7.6043735)
(5751.0741 -2489.7887 0.26939405)
(5770.154 -2513.5823 -4.6308671)
(5790.5064 -2537.2709 -5.2890942)
(6273.0071 -2613.6096 12.098756)
(6292.3147 -2641.0479 6.0255274)
(6314.3872 -2666.0242 2.8242277)
(7186.2114 -1196.3872 93.299935)
(7204.1836 -1221.4279 95.640557)
(7221.6318 -1245.502 95.602023)
(7048.6301 -1708.2531 72.315238)
(7067.3677 -1733.1329 73.192262)
(7086.3103 -1755.8098 70.080265)
(6919.1814 -2223.7002 52.920113)
(6939.7456 -2249.208 51.37857)
(6961.3969 -2274.3507 44.892795)
(31.919566 27.345452 11.371893)
(28.116507 27.717626 2.9377824)
(32.882404 24.315273 -6.926223)
(52.070994 54.283149 10.138465)
(53.629864 52.238166 -1.4628257)
(50.904158 47.057949 -11.019809)
(85.267641 80.859977 16.763833)
(82.398898 74.084007 8.3590871)
(84.958423 67.741181 -1.7987308)
(116.83294 93.34414 20.112854)
(120.99392 86.920489 15.178053)
(119.4347 78.819622 5.0468532)
(158.8521 114.93239 29.78755)
(161.88855 106.22399 18.260896)
(161.73142 98.200385 9.5635753)
(210.53017 133.11649 35.868602)
(216.13037 124.63661 26.445805)
(214.88246 117.80591 11.985541)
(278.73934 163.68467 48.264758)
(287.97926 156.4499 30.35531)
(289.12694 150.39514 10.494295)
(378.08684 204.01748 59.844297)
(390.13555 197.41964 35.97261)
(391.59449 192.69772 6.5381253)
(516.38328 258.54333 71.735752)
(535.06805 249.7503 35.580946)
(535.5222 246.32889 1.6232598)
(713.20594 314.16897 76.873302)
(729.3641 307.66654 40.940021)
(735.61059 302.46605 -8.2506088)
(967.18811 370.12352 82.451226)
(986.68546 363.33486 40.664524)
(994.75337 357.9033 -9.4340896)
(1287.1102 414.59337 82.543774)
(1307.1441 406.96013 41.415157)
(1318.0552 399.75824 -10.307522)
(1667.9291 439.89255 80.747952)
(1688.9647 430.09896 41.31576)
(1702.337 421.05776 -7.2921143)
(2103.2923 439.69005 76.353221)
(2124.4637 426.61785 41.871174)
(2139.5839 414.7427 -0.57421033)
(2581.9047 409.37272 70.867928)
(2602.4401 392.84571 42.906167)
(2618.7906 377.80453 8.7680328)
(3090.6973 348.56965 65.432074)
(3110.6089 328.90048 45.47824)
(3127.2265 310.71222 20.380083)
(3617.8709 259.65034 62.820886)
(3636.5643 237.6253 50.163741)
(3653.3995 217.46346 34.309206)
(4152.8797 147.84002 63.537974)
(4171.1597 124.72569 57.629845)
(4187.7874 104.1248 49.115623)
(4689.5009 21.754069 68.030178)
(4707.5084 -2.6599832 66.199583)
(4724.546 -23.384815 63.575256)
(5224.4357 -115.5901 75.484727)
(5242.5034 -139.92175 74.372225)
(5259.6728 -160.49838 75.83539)
(5756.3774 -256.7565 80.844596)
(5774.0589 -282.07591 82.533676)
(5791.066 -302.82567 85.353456)
(6281.5045 -398.60405 87.394073)
(6297.9057 -422.24939 89.496286)
(6315.3685 -445.54436 92.755737)
(6804.5015 -541.81076 99.380923)
(6820.306 -566.90526 101.02191)
(6838.2027 -591.60509 103.32222)
(7.6375122 7.1446424 -11.31633)
(34.667387 29.118044 -9.735961)
(65.171591 24.702925 1.1689204)
(103.02528 38.063045 3.6126242)
(139.42993 47.545665 7.9210983)
(184.57625 60.664889 9.3957091)
(245.28054 79.417468 7.2680773)
(331.50337 97.441677 1.7337816)
(460.29224 116.05311 -4.274932)
(639.06652 124.16192 -11.128222)
(881.57103 120.16633 -15.738608)
(1192.1235 99.868629 -17.19821)
(1567.8146 58.3381 -15.622117)
(2001.8511 -4.9803002 -10.861049)
(2481.8549 -89.928916 -3.6031356)
(2993.6209 -193.71078 6.0922332)
(3523.8383 -311.74158 18.163827)
(4062.5084 -439.08404 31.500808)
(4602.9739 -572.24084 44.629861)
(5142.6338 -709.08097 55.707513)
(5678.4578 -848.51863 64.398378)
(6206.0538 -991.00566 71.591041)
(6730.0497 -1133.3524 81.774755)
(0.24349206 4.8161927 1.1130856)
(30.464733 -0.28648853 1.2724192)
(64.999363 -8.9389794 7.7913747)
(98.114727 -10.423421 13.493726)
(129.25745 -17.523724 19.591276)
(170.50108 -27.721931 27.815457)
(221.87397 -34.138387 29.38682)
(302.65793 -48.769979 30.62879)
(421.54627 -70.132374 27.422944)
(592.99027 -103.77475 22.17798)
(826.37615 -153.22274 15.840143)
(1126.5189 -220.56007 9.3297641)
(1491.7908 -305.49155 3.7056764)
(1916.092 -407.9116 -0.11000454)
(2387.092 -525.79136 -2.1264229)
(2890.4481 -656.42212 -0.7334962)
(3412.6062 -794.93221 4.5657482)
(3943.7187 -936.80326 13.187551)
(4478.9544 -1078.0897 23.543883)
(5015.3004 -1218.7946 32.390311)
(5550.3725 -1359.4875 39.070028)
(6077.542 -1500.021 45.831962)
(6603.7563 -1642.5702 53.219302)
(-5.3673812 -9.9987508 9.7717023)
(36.953403 -14.485362 9.0131993)
(65.776733 -44.417453 21.086731)
(96.535344 -49.866073 21.669147)
(131.40298 -82.786484 35.037789)
(167.91738 -110.60712 41.569503)
(213.72548 -146.18169 48.075748)
(287.13462 -194.98477 52.439414)
(396.49854 -251.64488 53.486152)
(559.33881 -326.80987 51.262503)
(781.28037 -418.44706 46.701007)
(1069.0616 -528.37974 39.58589)
(1421.727 -654.86583 30.935316)
(1834.0459 -795.0497 20.811091)
(2294.9264 -946.22388 11.16663)
(2789.8084 -1104.7564 4.4181721)
(3304.1086 -1266.2903 2.293068)
(3827.2846 -1426.317 4.9488463)
(4354.9199 -1581.2901 9.6718195)
(4886.3222 -1730.3967 12.962556)
(5419.2244 -1874.4608 16.517304)
(5948.7409 -2017.6525 19.018394)
(6471.3401 -2158.7724 29.350084)
(13.042878 8.0528255 8.5413905)
(10.999042 8.6666442 1.2439937)
(15.896749 6.2374738 -5.9150952)
(42.657137 34.46543 6.3430262)
(45.26792 31.511755 -0.80130826)
(42.089924 27.663555 -7.7480159)
(73.525461 42.428136 11.766818)
(69.578694 37.501249 6.9515061)
(73.230874 33.039488 3.8133292)
(105.45003 54.141118 16.563024)
(109.14119 49.143772 11.141094)
(109.88073 39.850855 8.5453934)
(144.37524 62.348101 21.872228)
(146.03718 54.256887 18.943308)
(147.51317 48.550238 14.543446)
(190.06966 69.493464 28.975405)
(195.07581 63.872917 23.50458)
(195.50772 58.304377 18.071295)
(250.15662 80.572298 34.784971)
(257.89615 75.167515 25.926117)
(259.73331 69.831219 18.063739)
(337.08236 94.148712 39.501554)
(348.76113 86.840603 27.635371)
(349.99075 83.469618 15.697047)
(462.31689 103.86627 43.654264)
(477.04634 99.437301 27.592046)
(480.57167 96.201294 10.747065)
(639.56467 113.49684 44.928947)
(658.29087 108.85075 24.403694)
(663.09459 103.19433 4.90298)
(877.90964 113.41659 44.200872)
(899.2019 107.32392 21.747465)
(905.80487 102.11234 0.54314195)
(1181.6515 99.206871 41.272372)
(1205.1348 92.49958 18.922454)
(1214.3162 84.842792 -3.04108)
(1549.7043 68.2213 37.416805)
(1574.3757 59.035885 16.295935)
(1586.0861 49.556659 -3.5399999)
(1975.0243 16.447188 32.906148)
(1999.9839 4.8044276 14.940587)
(2014.1287 -7.3721664 -1.6266666)
(2447.1075 -56.189782 29.138096)
(2471.4408 -70.707072 15.13161)
(2487.4192 -85.574268 2.5972329)
(2952.7732 -148.45422 27.261429)
(2976.0033 -165.40335 18.061045)
(2992.8053 -183.17794 9.6766611)
(3479.1874 -257.48316 28.429093)
(3500.648 -276.64491 24.087906)
(3517.7658 -296.1292 19.935134)
(4014.931 -379.54106 32.939529)
(4035.3004 -399.94511 33.076753)
(4052.1934 -420.40272 32.08976)
(4553.4046 -510.65485 39.710672)
(4572.0353 -532.70168 42.429112)
(4589.9822 -552.8241 44.450948)
(5088.7945 -648.87223 47.171697)
(5108.5831 -671.00388 51.351803)
(5125.1886 -691.01392 54.355881)
(5621.7785 -788.56115 54.094346)
(5642.3776 -809.95937 58.933552)
(5658.5486 -831.67121 62.033545)
(6148.5399 -928.49821 64.083296)
(6165.9127 -950.82022 66.583556)
(6183.0258 -974.52958 68.137329)
(6672.0324 -1065.249 76.376967)
(6689.0946 -1089.3031 77.882404)
(6707.2423 -1113.5539 79.504483)
(3.6274945 3.899903 -2.9232592)
(5.3410035 4.0982697 -3.5698045)
(10.146023 3.7511763 -2.3456931)
(36.267777 6.2144514 -3.9664624)
(38.730781 4.7789427 -3.7170234)
(35.44153 1.5809087 -1.364431)
(65.763594 6.9354902 2.6325978)
(67.489398 2.0680351 7.1803374)
(69.374209 -2.369316 6.4410056)
(96.222351 1.8476482 6.0338898)
(102.77587 -4.4246299 10.35208)
(101.81036 -11.567578 10.933453)
(133.02341 -5.2466963 12.038539)
(137.28334 -11.507493 19.263155)
(136.22142 -14.275938 17.490858)
(173.45629 -17.99193 14.366239)
(180.52337 -23.850468 20.693612)
(180.43794 -27.567857 23.983401)
(228.06332 -32.003229 14.380319)
(237.79006 -37.54064 23.705424)
(237.25308 -39.667152 26.127938)
(307.69724 -53.778436 13.78043)
(321.09258 -58.033377 22.19031)
(321.35978 -56.672523 25.769158)
(422.94015 -79.26964 9.5200676)
(441.45273 -83.320823 16.990014)
(442.83339 -83.124969 21.821815)
(590.13729 -115.61194 4.174582)
(612.61587 -121.0702 12.128221)
(615.03431 -119.33566 16.568272)
(816.22716 -164.33951 -1.8340424)
(842.29909 -170.25892 6.124183)
(846.23161 -170.79441 9.29771)
(1107.6629 -226.469 -7.3642352)
(1136.4497 -234.96794 0.27912479)
(1142.3791 -237.14363 3.0286841)
(1463.5372 -304.24074 -11.939771)
(1493.7997 -315.35268 -4.2035909)
(1501.5467 -320.42692 -2.6610983)
(1877.7664 -397.59812 -14.816968)
(1908.1572 -411.94227 -7.3016254)
(1918.2327 -419.95877 -6.6057039)
(2340.0862 -505.39381 -15.280118)
(2369.6813 -522.6544 -8.0114309)
(2381.5169 -534.3387 -8.6570269)
(2837.5197 -625.23605 -12.384571)
(2865.1977 -645.17956 -5.3036259)
(2878.1177 -660.33504 -7.2052586)
(3357.2173 -754.12673 -5.553685)
(3382.26 -775.98794 1.2835755)
(3395.7657 -793.89618 -1.4008672)
(3888.0723 -889.11275 4.2020361)
(3910.7243 -912.18068 11.040049)
(3924.5404 -931.34252 7.9946486)
(4424.06 -1027.4545 15.412342)
(4444.4867 -1050.5105 21.243473)
(4458.9059 -1070.3613 19.201435)
(4958.7836 -1166.7402 25.029174)
(4977.2519 -1191.4817 30.124951)
(4993.3549 -1209.9772 28.357079)
(5493.0053 -1307.0349 34.828914)
(5507.2425 -1331.0172 34.9329)
(5527.795 -1350.3647 36.068862)
(6016.9071 -1444.2316 43.304163)
(6034.623 -1466.6323 43.450121)
(6052.9412 -1489.2801 41.968729)
(6540.7478 -1578.9611 55.258052)
(6558.5673 -1603.1933 55.10568)
(6578.5352 -1625.8402 53.983178)
(1.258157 -5.319442 -6.6433114)
(0.43472379 -5.0815437 -3.4272371)
(2.6203123 -4.3170918 2.9014192)
(38.461954 -14.724632 -4.2688472)
(43.448367 -10.013888 1.4809806)
(42.252798 -16.370497 5.3595063)
(62.513206 -27.403612 -0.56905539)
(65.712937 -36.784154 6.04707)
(70.725845 -39.518873 12.557141)
(99.934289 -48.206741 3.0722764)
(101.69514 -44.803445 9.7373677)
(104.54403 -52.438547 15.240769)
(131.52768 -69.563848 6.2331579)
(135.97635 -74.588032 15.456061)
(138.28735 -79.186394 25.390332)
(171.20894 -102.6495 4.3800029)
(177.01189 -104.06895 18.499271)
(177.38496 -109.93565 30.194775)
(221.17604 -145.18269 2.6674859)
(228.413 -145.30118 21.024096)
(229.36834 -148.8728 35.602477)
(293.1185 -195.45655 -3.7658658)
(304.74431 -196.83118 16.261585)
(305.0506 -200.02969 36.269925)
(401.41342 -260.96089 -13.246245)
(416.40847 -262.21573 11.915595)
(417.75592 -263.274 35.19497)
(557.62118 -340.2055 -22.608174)
(576.95567 -342.33668 3.8991881)
(579.82674 -343.56298 29.127967)
(772.00713 -434.11653 -32.140617)
(794.46836 -438.86358 -4.900767)
(800.64045 -439.79586 21.862476)
(1050.8691 -544.00122 -39.514047)
(1075.572 -550.69069 -12.724788)
(1084.9352 -552.48051 13.057603)
(1393.6771 -667.13769 -44.5352)
(1419.3468 -676.5551 -19.905223)
(1432.5443 -679.89373 3.7198081)
(1795.9261 -801.81425 -46.809738)
(1821.6134 -813.64018 -25.590932)
(1838.5311 -819.14158 -5.1659882)
(2247.5861 -944.47159 -45.997442)
(2272.4332 -958.73228 -28.769819)
(2292.5628 -967.08546 -12.676428)
(2735.9554 -1092.1574 -41.426371)
(2758.9958 -1108.4521 -28.253242)
(2781.3477 -1119.8951 -16.36146)
(3247.8787 -1241.8355 -32.769842)
(3268.6084 -1259.8431 -23.03057)
(3291.6275 -1274.0224 -14.800056)
(3772.5672 -1391.1694 -21.447719)
(3790.7999 -1410.3271 -13.708976)
(3813.3071 -1426.521 -8.3116632)
(4302.3631 -1539.1618 -8.8808318)
(4318.9004 -1559.0092 -3.4384876)
(4340.062 -1576.1718 0.3057787)
(4833.8435 -1684.091 2.3414511)
(4849.9152 -1704.2755 5.3520221)
(4870.3723 -1722.2546 7.388843)
(5363.7227 -1824.3898 10.142999)
(5380.3992 -1845.5192 11.911084)
(5400.9132 -1864.344 12.943531)
(5889.2659 -1961.1039 20.299201)
(5907.1088 -1984.3039 19.208394)
(5928.1172 -2005.5183 18.495688)
(6408.6097 -2094.5259 32.580683)
(6426.2343 -2118.8884 31.06477)
(6447.756 -2143.2953 28.355253)
)
;

boundaryField
{
    free
    {
        type            zeroGradient;
    }
    fixed
    {
        type            fixedValue;
        value           nonuniform List<vector> 
25
(
(-2.5953868e-15 -2.1703571e-16 4.2716933e-18)
(-1.3028228e-15 -3.4252847e-16 3.3068324e-16)
(-1.9658614e-16 -3.2115893e-17 -1.1045223e-16)
(-3.6361799e-15 2.112754e-16 -3.2990721e-16)
(-3.8783653e-15 3.5858996e-16 7.5215743e-16)
(-2.0449562e-15 -3.5718549e-16 -7.3673077e-16)
(-9.8459492e-16 7.8127033e-16 2.7525688e-16)
(-1.4121951e-15 -1.0527101e-15 6.223458e-16)
(-4.8813632e-16 1.9183015e-16 -1.0607077e-16)
(6.5239771e-16 2.739523e-16 -5.5565719e-16)
(-3.9146975e-16 7.8165185e-18 1.2560621e-16)
(1.4766345e-16 -3.4299605e-16 -2.8648028e-16)
(1.6350797e-16 -2.4226884e-16 -1.2066667e-17)
(-1.0304172e-15 -9.2669207e-16 -7.5672327e-16)
(-2.6214496e-15 -5.6404768e-16 7.244144e-16)
(-6.4481012e-16 3.525084e-16 2.7116342e-16)
(-1.0135278e-15 7.0169807e-16 1.7538027e-16)
(-3.5205005e-15 9.4737515e-16 -2.5196009e-17)
(-3.8147498e-15 1.043275e-15 1.2924308e-16)
(-2.4010456e-15 1.4295629e-15 -1.6975308e-16)
(-1.2019486e-15 6.189313e-16 -3.4292956e-16)
(2.8178306e-17 1.9013092e-16 6.1994168e-17)
(-1.2511779e-16 -6.848356e-17 2.1836215e-16)
(-3.8898857e-17 4.7141393e-16 -3.1043199e-16)
(-3.7042918e-15 1.4868296e-15 -1.3023874e-15)
)
;
    }
    freeTop
    {
        type            zeroGradient;
    }
}


// ************************************************************************* //
