/*--------------------------------*- C++ -*----------------------------------*\
  =========                 |
  \\      /  F ield         | OpenFOAM: The Open Source CFD Toolbox
   \\    /   O peration     | Website:  https://openfoam.org
    \\  /    A nd           | Version:  6
     \\/     M anipulation  |
\*---------------------------------------------------------------------------*/
FoamFile
{
    version     2.0;
    format      ascii;
    class       pointVectorField;
    location    "0.1";
    object      u;
}
// * * * * * * * * * * * * * * * * * * * * * * * * * * * * * * * * * * * * * //

dimensions      [0 1 0 0 0 0 0];

internalField   nonuniform List<vector> 
28033
(
(0 0 0)
(0 0 0)
(0.15553421 0.033846796 0.00024466559)
(0.15265133 -0.041465804 3.6907278e-05)
(0 0 0)
(0 0 0)
(0.15263915 -0.041521998 0.00012807243)
(0.15556558 0.033713663 2.7950224e-05)
(0 0 0)
(0 0 0)
(0 0 0)
(0 0 0)
(0 0 0)
(0 0 0)
(0 0 0)
(0 0 0)
(0 0 0)
(0 0 0)
(0 0 0)
(0 0 0)
(0 0 0)
(0 0 0)
(0 0 0)
(0.1552484 0.028564404 -1.7555425e-05)
(0.15487663 0.023707831 -2.3321606e-05)
(0.15451139 0.018984543 -7.4362187e-05)
(0.15422255 0.014336724 -4.9605605e-05)
(0.15394926 0.009766917 -2.4510877e-05)
(0.15370276 0.0052425885 1.8958148e-05)
(0.15349664 0.00074966599 7.450158e-05)
(0.15331825 -0.0037307031 0.00013893676)
(0.15316943 -0.0082112142 0.00019444113)
(0.1530471 -0.012721562 0.00025573392)
(0.15295188 -0.0172513 0.00029511575)
(0.15287093 -0.021854713 0.00031202705)
(0.15283114 -0.026509486 0.0003170063)
(0.15276121 -0.031287593 0.00030261779)
(0.15277083 -0.036194029 0.00020844497)
(-0.00052762023 -0.00079785038 -0.00077969678)
(-0.00082032628 -0.0011820675 -0.0010086164)
(-0.0012144379 -0.0015135027 -0.0010917023)
(-0.0016979157 -0.0018346303 -0.001096307)
(-0.0022385453 -0.0021106645 -0.001022524)
(-0.0028458912 -0.0023632159 -0.00090750353)
(-0.0034977244 -0.0025801737 -0.00075985863)
(-0.0041797802 -0.0027608361 -0.00059765825)
(-0.0048762154 -0.0029075906 -0.00043328225)
(-0.0055699159 -0.0030168004 -0.00027988294)
(-0.006247086 -0.0030914583 -0.00014286134)
(-0.0068999326 -0.0031380761 -2.999629e-05)
(-0.0075230903 -0.0031547766 5.8900744e-05)
(-0.0081178143 -0.0031487914 0.00012537909)
(-0.0086872836 -0.0031208632 0.00017486164)
(-0.0092359191 -0.0030749801 0.00021286199)
(-0.0097714618 -0.0030113684 0.0002466415)
(-0.010301624 -0.0029314856 0.00028234987)
(-0.010827817 -0.0028337659 0.00032563797)
(-0.011354926 -0.0027191325 0.00037905623)
(-0.011885068 -0.0025868963 0.0004457454)
(-0.012411855 -0.0024320524 0.00052418083)
(-0.012937877 -0.0022601922 0.00061523474)
(-0.013455209 -0.0020629016 0.00071601496)
(-0.013958441 -0.0018428646 0.00082395109)
(-0.014443468 -0.0015993463 0.0009362024)
(-0.014904519 -0.0013306061 0.0010528606)
(-0.015336653 -0.0010339159 0.0011691921)
(-0.015731712 -0.00071074258 0.0012840978)
(-0.016088855 -0.00036234655 0.001398534)
(-0.016396734 2.0227869e-05 0.0015051922)
(-0.01665347 0.00042803588 0.0016085636)
(-0.016853529 0.00086484372 0.0017064703)
(-0.016989344 0.0013299903 0.0017969376)
(-0.017057254 0.0018247096 0.0018808074)
(-0.017051828 0.0023469645 0.0019531897)
(-0.016970776 0.0028948265 0.002023988)
(-0.016808079 0.0034693116 0.0020865834)
(-0.016562028 0.004064404 0.0021431563)
(-0.016231519 0.0046829908 0.002198204)
(-0.015814408 0.0053198574 0.0022503406)
(-0.015309068 0.0059757375 0.0023018329)
(-0.014713842 0.0066475172 0.0023522477)
(-0.014027002 0.0073349461 0.0024031261)
(-0.013247107 0.0080348742 0.0024530774)
(-0.012371591 0.0087474856 0.002502458)
(-0.011399059 0.0094704161 0.002550016)
(-0.01032696 0.010203046 0.002595137)
(-0.0091540302 0.010943782 0.0026370271)
(-0.007878272 0.011691705 0.0026749844)
(-0.0064987131 0.01244544 0.0027086264)
(-0.0050141971 0.013204067 0.0027376423)
(-0.0034240709 0.013966357 0.0027619932)
(-0.0017277581 0.014731366 0.0027817445)
(7.5092861e-05 0.015498012 0.0027970869)
(0.0019847331 0.016265337 0.0028082038)
(0.0040014193 0.017032191 0.0028154978)
(0.0061252254 0.017797613 0.0028190327)
(0.008356193 0.018560582 0.0028191834)
(0.010694604 0.019319643 0.0028159433)
(0.013140196 0.020073858 0.0028095831)
(0.015693364 0.020822111 0.0027996384)
(0.018353174 0.021562978 0.0027866172)
(0.021122027 0.022294599 0.0027689518)
(0.023994885 0.023017202 0.002749639)
(0.026977813 0.023728162 0.0027226812)
(0.030064228 0.024424392 0.0026941579)
(0.033256337 0.025106424 0.0026602961)
(0.036552083 0.025774817 0.0026201271)
(0.039951262 0.026423691 0.0025766803)
(0.043449394 0.027054601 0.0025292442)
(0.04704686 0.027663752 0.0024776784)
(0.050740047 0.028253208 0.0024201058)
(0.054526937 0.028815643 0.0023604752)
(0.058404014 0.029361282 0.0022941147)
(0.062370686 0.02986942 0.0022282439)
(0.06641807 0.030368082 0.0021531358)
(0.070554209 0.030818126 0.0020814858)
(0.07475831 0.031265806 0.0019991347)
(0.079050735 0.031656084 0.0019224285)
(0.083402505 0.032047282 0.0018314786)
(0.087832271 0.03237827 0.0017529952)
(0.092321482 0.032705616 0.0016552448)
(0.096872616 0.032976219 0.0015728178)
(0.10148322 0.033237872 0.0014737177)
(0.10614698 0.033450411 0.0013818568)
(0.11086663 0.033632126 0.0012819132)
(0.11562251 0.033782723 0.0011886621)
(0.12043512 0.0338968 0.0010789132)
(0.1252687 0.033987627 0.00098316254)
(0.13015994 0.034002464 0.00089141145)
(0.13505917 0.0340946 0.00075974847)
(0.14000981 0.034016683 0.00071685949)
(0.14501658 0.034049749 0.00058418429)
(0.15001354 0.034040537 0.00054562738)
(-0.00036912493 0.00082692488 0.0010492834)
(-0.00083540108 0.0011979979 0.0010691583)
(-0.0013102196 0.0016146571 0.0012226771)
(-0.0017546535 0.0019122971 0.0012099883)
(-0.0023340397 0.0022252286 0.0011588312)
(-0.0029361954 0.0024967635 0.0010567223)
(-0.0035886899 0.0027308657 0.00092197073)
(-0.0042735397 0.0029331551 0.00077080544)
(-0.0049700241 0.0030960667 0.00061684972)
(-0.0056622314 0.0032224169 0.00046996248)
(-0.0063415287 0.0033160232 0.00033910871)
(-0.0069956829 0.0033749392 0.00023001926)
(-0.0076190706 0.0034103772 0.00014366139)
(-0.0082151113 0.003417354 7.6965922e-05)
(-0.0087845045 0.0034056068 2.8264655e-05)
(-0.0093339394 0.003373867 -1.2894316e-05)
(-0.0098697814 0.003324741 -4.868212e-05)
(-0.010397656 0.003261264 -8.8359704e-05)
(-0.010925964 0.0031809575 -0.00013762944)
(-0.011454279 0.0030843804 -0.00019814182)
(-0.011985114 0.0029721852 -0.0002734674)
(-0.012517903 0.002840225 -0.00036231861)
(-0.0130463 0.0026896925 -0.00046412886)
(-0.013569076 0.002518726 -0.0005757919)
(-0.014078817 0.0023238097 -0.00069455573)
(-0.014568624 0.0021072319 -0.00081704417)
(-0.015033075 0.0018632003 -0.00094129965)
(-0.015467107 0.0015964086 -0.0010639017)
(-0.015863233 0.0012992118 -0.0011853277)
(-0.016218482 0.00097791854 -0.0013006153)
(-0.016524136 0.0006256937 -0.0014127591)
(-0.016780409 0.00024732852 -0.001519439)
(-0.016977525 -0.0001610051 -0.0016199962)
(-0.017112565 -0.00059703883 -0.0017140696)
(-0.01718116 -0.0010602868 -0.0018025992)
(-0.017179252 -0.001552112 -0.0018858358)
(-0.017102053 -0.0020671553 -0.0019598735)
(-0.016945692 -0.002610281 -0.0020327364)
(-0.01671305 -0.0031731034 -0.0021009793)
(-0.016396158 -0.0037596112 -0.0021663976)
(-0.015996332 -0.0043658179 -0.0022297295)
(-0.015510878 -0.0049911436 -0.0022920622)
(-0.014938257 -0.0056340484 -0.0023534288)
(-0.014276356 -0.0062934867 -0.0024140876)
(-0.013523163 -0.006968223 -0.0024735792)
(-0.012676426 -0.0076572719 -0.0025313391)
(-0.011733936 -0.0083596438 -0.0025865318)
(-0.010693634 -0.0090744156 -0.0026383008)
(-0.0095536372 -0.0098007208 -0.0026858115)
(-0.0083124118 -0.010537749 -0.0027283913)
(-0.0069687521 -0.011284723 -0.0027655555)
(-0.0055217762 -0.01204095 -0.0027970664)
(-0.0039709373 -0.012805756 -0.0028229127)
(-0.0023159189 -0.01357852 -0.0028432864)
(-0.00055658875 -0.014358646 -0.0028585365)
(0.0013070891 -0.015145526 -0.0028690968)
(0.0032750905 -0.015938549 -0.0028754328)
(0.0053474521 -0.01673707 -0.0028779198)
(0.0075242206 -0.017540389 -0.0028769158)
(0.0098056214 -0.018347779 -0.0028724441)
(0.012191739 -0.019158433 -0.0028646757)
(0.014683061 -0.019971592 -0.0028531481)
(0.017279587 -0.020786202 -0.0028379675)
(0.019981749 -0.021601647 -0.0028182806)
(0.022789277 -0.022416552 -0.0027943786)
(0.025702489 -0.023230474 -0.002765151)
(0.028720405 -0.02404163 -0.0027313894)
(0.031842646 -0.024849508 -0.0026917722)
(0.035067386 -0.025651646 -0.0026494449)
(0.038393718 -0.026445783 -0.0025964492)
(0.041821656 -0.027237774 -0.0025431107)
(0.045345379 -0.028014427 -0.0024831064)
(0.048967235 -0.0287858 -0.0024184676)
(0.052681321 -0.029542426 -0.0023492842)
(0.056487753 -0.030288519 -0.0022752737)
(0.060381476 -0.031019552 -0.0021977774)
(0.064361394 -0.03173666 -0.0021155375)
(0.068424318 -0.032437708 -0.0020303348)
(0.072566396 -0.033122108 -0.0019414391)
(0.0767861 -0.03378894 -0.0018495875)
(0.081079513 -0.034437144 -0.0017548508)
(0.085444072 -0.035065078 -0.0016572778)
(0.08987599 -0.035673287 -0.001557132)
(0.094373911 -0.036258164 -0.001454114)
(0.098930779 -0.036820981 -0.0013496949)
(0.1035485 -0.037359801 -0.0012409651)
(0.10821786 -0.037872665 -0.001131675)
(0.11293934 -0.038359572 -0.0010203011)
(0.11770708 -0.038822633 -0.00090463321)
(0.12251977 -0.039254867 -0.000790832)
(0.12736735 -0.039661691 -0.00067489481)
(0.13226303 -0.040048885 -0.00055923486)
(0.13718603 -0.040414877 -0.00043378948)
(0.14218286 -0.040748436 -0.00033162371)
(0.14724676 -0.041138894 -0.00017454632)
(0 0 0)
(0 0 0)
(0 0 0)
(0 0 0)
(0 0 0)
(0 0 0)
(0 0 0)
(0 0 0)
(0 0 0)
(0 0 0)
(0 0 0)
(0 0 0)
(0 0 0)
(0 0 0)
(0 0 0)
(-0.000582935 0.00038902983 -0.0008041976)
(-0.00088711572 0.0013465989 -0.0010857341)
(-0.0012688122 0.0014910595 -0.0010997562)
(-0.0018013038 0.0019661393 -0.001186269)
(-0.0023230703 0.0022016284 -0.00109766)
(-0.002956922 0.0025110076 -0.00098901334)
(-0.0036147873 0.0027194628 -0.00084495053)
(-0.0043067851 0.0029434999 -0.00068148035)
(-0.005014463 0.0030839906 -0.00051624483)
(-0.0057089371 0.0032219758 -0.00036011959)
(-0.0063892486 0.0033186474 -0.00021994372)
(-0.0070504027 0.0033727309 -0.0001107483)
(-0.0076657961 0.003418344 -1.5250424e-05)
(-0.0082683877 0.0034279845 4.8802966e-05)
(-0.0088272215 0.0034242843 9.9657654e-05)
(-0.0093787023 0.0033995602 0.00013667689)
(-0.0099116646 0.0033627576 0.00017050262)
(-0.010436095 0.003299984 0.00020348524)
(-0.010963069 0.0032297551 0.00024920993)
(-0.01148548 0.0031363629 0.00029941854)
(-0.01201717 0.0030277857 0.00036854198)
(-0.012545363 0.0029003653 0.00044875661)
(-0.013067973 0.00275079 0.00054053327)
(-0.013587287 0.0025802548 0.00064253085)
(-0.014091239 0.0023837137 0.00075064591)
(-0.01457754 0.0021687332 0.00086262626)
(-0.0150447 0.0019230121 0.00097816975)
(-0.015466735 0.0016558066 0.0010901648)
(-0.015872525 0.0013600081 0.0012047444)
(-0.016214707 0.0010344364 0.0013121498)
(-0.01652655 0.00068316887 0.0014182115)
(-0.016778247 0.00030327244 0.0015155828)
(-0.01697587 -0.0001054547 0.0016096462)
(-0.017109844 -0.00054429865 0.0016968858)
(-0.017174116 -0.0010065442 0.0017755065)
(-0.017182215 -0.0014935608 0.0018531717)
(-0.017092854 -0.002017475 0.0019205516)
(-0.016940828 -0.0025567354 0.0019866884)
(-0.016704114 -0.0031221997 0.0020461802)
(-0.016386175 -0.00371035 0.0021052951)
(-0.015984532 -0.0043183644 0.0021621024)
(-0.015497233 -0.00494596 0.0022180472)
(-0.014922294 -0.0055914976 0.0022733895)
(-0.01425825 -0.0062537405 0.0023281257)
(-0.013502713 -0.0069314746 0.0023817518)
(-0.012653807 -0.0076236761 0.0024337896)
(-0.011709339 -0.0083293028 0.0024834483)
(-0.010667403 -0.0090473739 0.0025299443)
(-0.0095261087 -0.0097770554 0.0025725517)
(-0.0082839554 -0.010517465 0.0026106436)
(-0.0069396093 -0.011267859 0.0026437559)
(-0.0054921369 -0.012027516 0.0026716504)
(-0.0039408534 -0.012795782 0.0026942809)
(-0.0022853931 -0.013572072 0.0027118413)
(-0.00052558683 -0.014355797 0.0027246885)
(0.0013385504 -0.015146431 0.0027333186)
(0.0033069726 -0.015943378 0.0027382683)
(0.0053795839 -0.016746034 0.0027400305)
(0.0075564498 -0.017553721 0.0027389761)
(0.0098376367 -0.018365656 0.0027352859)
(0.012223448 -0.019181062 0.0027289158)
(0.014714135 -0.019998937 0.0027196425)
(0.017310073 -0.020818488 0.0027070989)
(0.020011419 -0.021638482 0.0026907978)
(0.02281835 -0.022458155 0.002670429)
(0.025730644 -0.023276116 0.0026452306)
(0.028747862 -0.024092098 0.0026158475)
(0.031872411 -0.024905875 0.0025806257)
(0.035089934 -0.025700972 0.0025416591)
(0.038421258 -0.026513411 0.0024966246)
(0.04184769 -0.02730085 0.0024484582)
(0.045371825 -0.028084482 0.002394496)
(0.048993687 -0.028857072 0.0023363769)
(0.052708334 -0.029618121 0.002274321)
(0.056514524 -0.030366155 0.0022079521)
(0.060409249 -0.0311004 0.0021378863)
(0.064389614 -0.031819606 0.0020642659)
(0.06845281 -0.032522923 0.0019874454)
(0.072595886 -0.033209333 0.0019076161)
(0.07681574 -0.033877728 0.001825167)
(0.081109542 -0.034527443 0.0017401313)
(0.085473995 -0.035156842 0.0016528512)
(0.089906249 -0.035765595 0.0015632796)
(0.094402701 -0.036351757 0.0014715432)
(0.098960528 -0.036914981 0.0013777101)
(0.10357553 -0.037453831 0.0012819037)
(0.10824517 -0.037967027 0.0011836202)
(0.11296494 -0.038455128 0.0010844224)
(0.11773116 -0.038914667 0.00098212117)
(0.12254219 -0.039350569 0.00088075256)
(0.12738935 -0.039754656 0.00077553796)
(0.13228205 -0.040142787 0.00067479385)
(0.13720219 -0.040501808 0.00056563603)
(0.14220461 -0.040850069 0.00046348319)
(0.1472265 -0.041246539 0.00033082578)
(0.15280671 -0.036251815 -2.4773235e-05)
(0.1528029 -0.031400201 -0.00011440458)
(0.15283533 -0.026586234 -0.00013234125)
(0.15290029 -0.021954912 -0.0001424191)
(0.1529703 -0.017343522 -0.00010110555)
(0.15306809 -0.012822867 -6.6665262e-05)
(0.15318872 -0.0083162139 3.6971045e-06)
(0.15333305 -0.0038335936 6.6348903e-05)
(0.15352762 0.00063575342 0.00012827216)
(0.15371657 0.0051309069 0.00019759196)
(0.15397115 0.0096490944 0.00024067146)
(0.1542361 0.01421453 0.00027435153)
(0.15454583 0.018846652 0.00029646134)
(0.15483079 0.02358818 0.00027208914)
(0.15528949 0.028398287 0.00022299559)
(0.15009956 0.033916088 -0.00026671172)
(0.14500963 0.033867409 -0.00036287659)
(0.14003224 0.033915149 -0.00048957463)
(0.13507965 0.033917039 -0.00058565009)
(0.13016549 0.033902638 -0.00071174969)
(0.12528772 0.033849632 -0.00082183594)
(0.1204421 0.033771953 -0.0009389838)
(0.11563746 0.033655535 -0.0010528606)
(0.11087475 0.033508126 -0.0011645181)
(0.10616002 0.033326429 -0.0012753252)
(0.10149496 0.033110976 -0.0013820882)
(0.096885793 0.03286302 -0.0014869572)
(0.092332604 0.032582729 -0.0015892206)
(0.087840404 0.032271268 -0.0016911678)
(0.083413985 0.031928536 -0.0017889794)
(0.07905683 0.031556266 -0.0018845001)
(0.074771999 0.031154546 -0.0019756604)
(0.070561447 0.030724565 -0.0020649604)
(0.066429603 0.030266977 -0.0021501652)
(0.062379081 0.029782121 -0.0022319389)
(0.058412966 0.029271816 -0.0023096554)
(0.05453485 0.028735427 -0.0023829074)
(0.05074692 0.028176119 -0.0024518885)
(0.047052986 0.02759193 -0.0025156792)
(0.043454224 0.026988199 -0.0025751943)
(0.039954781 0.026362903 -0.0026296045)
(0.036549279 0.025719372 -0.0026800873)
(0.033268373 0.025048233 -0.0027189846)
(0.030066509 0.024378994 -0.0027608144)
(0.026981373 0.023682383 -0.0027945256)
(0.023999142 0.022978181 -0.0028246988)
(0.021124569 0.022260858 -0.002849067)
(0.018356231 0.021533986 -0.0028696974)
(0.015695387 0.020798036 -0.0028860531)
(0.013141526 0.020054871 -0.0028987004)
(0.01069485 0.019305507 -0.0029078125)
(0.0083552433 0.018551268 -0.0029135343)
(0.0061226535 0.017793334 -0.0029158212)
(0.0039969963 0.017032827 -0.0029145342)
(0.0019782995 0.01627079 -0.0029093853)
(6.6519503e-05 0.015508255 -0.0028999397)
(-0.0017383396 0.014746192 -0.0028858046)
(-0.0034363855 0.013985552 -0.0028665366)
(-0.0050278557 0.013227353 -0.0028418552)
(-0.0065131753 0.012472566 -0.0028115871)
(-0.0078930445 0.011722332 -0.0027757961)
(-0.009168443 0.010977689 -0.0027347389)
(-0.010340677 0.010239973 -0.0026889121)
(-0.011411259 0.0095101673 -0.0026389561)
(-0.012382224 0.0087900404 -0.0025858279)
(-0.013255183 0.0080800255 -0.0025300307)
(-0.014032844 0.0073830486 -0.0024731927)
(-0.014716521 0.0066980947 -0.0024145966)
(-0.01530932 0.0060298154 -0.0023566055)
(-0.015812671 0.0053769794 -0.0022978401)
(-0.016226608 0.0047419997 -0.002237056)
(-0.016556968 0.0041277432 -0.0021771286)
(-0.016805085 0.0035366842 -0.0021134225)
(-0.016962834 0.0029591594 -0.002042914)
(-0.017049189 0.0024184131 -0.0019734159)
(-0.017064309 0.0019017362 -0.0018956294)
(-0.0169905 0.0013987708 -0.0018059862)
(-0.016864935 0.00094282654 -0.0017173242)
(-0.016666584 0.00049974542 -0.0016181479)
(-0.016417882 9.6000753e-05 -0.0015123531)
(-0.016106732 -0.00029244622 -0.0013983523)
(-0.01575529 -0.000634843 -0.0012800172)
(-0.015357303 -0.00096869628 -0.0011588276)
(-0.014923146 -0.0012620015 -0.0010357976)
(-0.014460236 -0.001537425 -0.00091334722)
(-0.013970937 -0.0017862313 -0.00079294309)
(-0.013465277 -0.0020058792 -0.00067948779)
(-0.012945757 -0.0022089814 -0.00057028346)
(-0.012415063 -0.0023877171 -0.000475066)
(-0.011887136 -0.0025436574 -0.00039553539)
(-0.011358593 -0.0026813041 -0.00032374323)
(-0.010829411 -0.0028016744 -0.00027081448)
(-0.010307399 -0.0029019397 -0.00022799463)
(-0.0097773393 -0.0029901978 -0.00019093493)
(-0.0092467904 -0.0030567182 -0.00015886591)
(-0.008698352 -0.0031083867 -0.00012050746)
(-0.0081291222 -0.0031442486 -6.9262535e-05)
(-0.0075381076 -0.0031521783 -1.0492585e-06)
(-0.0069122255 -0.0031449045 8.6177697e-05)
(-0.0062572706 -0.0031039225 0.00020034746)
(-0.0055813888 -0.0030229833 0.00033290051)
(-0.004886544 -0.0029278915 0.00048604156)
(-0.0041865404 -0.0027771816 0.00064232527)
(-0.0035055672 -0.0025958419 0.00079495956)
(-0.0028513132 -0.0023697097 0.00093145286)
(-0.0022562798 -0.0021102062 0.0010390332)
(-0.0017131762 -0.0018170236 0.0010979133)
(-0.0012627775 -0.0015117971 0.001087379)
(-0.00085406635 -0.0011434801 0.00094357282)
(-0.00071910182 -0.0007787454 0.0006451365)
(0 0 0)
(0 0 0)
(0 0 0)
(0 0 0)
(0 0 0)
(0 0 0)
(0 0 0)
(0 0 0)
(0 0 0)
(0 0 0)
(0 0 0)
(0 0 0)
(0 0 0)
(0 0 0)
(0 0 0)
(0 0 0)
(0 0 0)
(0 0 0)
(0 0 0)
(0 0 0)
(0 0 0)
(0 0 0)
(0 0 0)
(0 0 0)
(0 0 0)
(0 0 0)
(0 0 0)
(0 0 0)
(0 0 0)
(0 0 0)
(0.1527339 -0.041614944 2.5608818e-05)
(0.1527675 -0.041695803 1.5743192e-05)
(0.15278076 -0.041735322 7.6928495e-06)
(0.15280128 -0.041773406 1.0608376e-05)
(0.1528157 -0.041797574 1.9430236e-05)
(0.15282928 -0.041815771 3.8277354e-05)
(0.15283574 -0.041826107 5.7948566e-05)
(0.15283898 -0.041832633 8.4773538e-05)
(0.15283721 -0.041835384 0.00010812327)
(0.15282831 -0.041833831 0.000128306)
(0.15282705 -0.041834391 0.00014924696)
(0.15280469 -0.041812554 0.00015644311)
(0.15279372 -0.041796156 0.000160203)
(0.15277178 -0.041755034 0.00015529237)
(0.15276077 -0.041715958 0.00013767088)
(0.15567351 0.034021399 0.00023513657)
(0.15570035 0.034045951 0.00025687597)
(0.15571571 0.034076201 0.00024074094)
(0.15574453 0.034097608 0.00022861646)
(0.15575069 0.034098322 0.00021321392)
(0.15576458 0.034098828 0.00018339012)
(0.1557716 0.034098267 0.0001564258)
(0.15577546 0.034091323 0.00012330785)
(0.1557747 0.034083632 9.1497126e-05)
(0.15576873 0.03407319 6.461594e-05)
(0.1557605 0.034054522 3.8350878e-05)
(0.15574604 0.034033838 2.0463683e-05)
(0.15573474 0.034009884 2.3596544e-05)
(0.15571466 0.033942018 -4.3810865e-06)
(0.15571197 0.033938032 1.7577492e-05)
(-0.00031165139 -0.00052581185 -0.00075745078)
(-0.00067685128 -0.00080875462 -0.00081998556)
(-0.0010842211 -0.0010976619 -0.00093075631)
(-0.0015771787 -0.0013503921 -0.00092079391)
(-0.0021262602 -0.0015748969 -0.00086904469)
(-0.0027461674 -0.0017807697 -0.00077188922)
(-0.003409583 -0.0019644771 -0.00065116302)
(-0.0041065958 -0.0021247033 -0.00051636288)
(-0.004816606 -0.0022630683 -0.00037918126)
(-0.0055228476 -0.0023761193 -0.0002483092)
(-0.0062140508 -0.0024651078 -0.00013082078)
(-0.0068800044 -0.0025292654 -3.1933201e-05)
(-0.0075162889 -0.0025675929 4.8235386e-05)
(-0.0081221533 -0.0025817733 0.00011070856)
(-0.0087020078 -0.0025711832 0.00015866021)
(-0.0092614133 -0.002538494 0.0001970239)
(-0.0098069658 -0.0024831709 0.00023101937)
(-0.010344282 -0.0024075042 0.00026601353)
(-0.010879672 -0.0023125254 0.00030621951)
(-0.01141577 -0.0021997723 0.00035447089)
(-0.011952476 -0.0020678469 0.00041224282)
(-0.012489455 -0.0019195029 0.0004810562)
(-0.013023058 -0.0017534158 0.0005589047)
(-0.013548941 -0.0015691338 0.00064495031)
(-0.014062168 -0.0013664049 0.00073769061)
(-0.014556792 -0.0011455177 0.00083470084)
(-0.015027961 -0.00090127801 0.00093367276)
(-0.015469989 -0.00063904604 0.0010342961)
(-0.015876193 -0.00035363816 0.0011338766)
(-0.016243075 -4.4389364e-05 0.0012304405)
(-0.016562898 0.00028580284 0.0013245743)
(-0.016831268 0.00064009901 0.0014135474)
(-0.017042457 0.0010188532 0.0014968054)
(-0.017191906 0.0014223615 0.0015745072)
(-0.017271742 0.0018476729 0.0016464673)
(-0.017276426 0.0022977157 0.001711348)
(-0.017206352 0.0027711546 0.0017701077)
(-0.017055172 0.0032640816 0.0018253564)
(-0.016818647 0.0037784854 0.0018758374)
(-0.016498215 0.0043137939 0.0019230782)
(-0.016090263 0.0048653105 0.0019699686)
(-0.015592216 0.0054337019 0.0020144992)
(-0.015005634 0.0060174463 0.0020593726)
(-0.01432571 0.0066141773 0.0021030871)
(-0.013552997 0.0072222837 0.0021468887)
(-0.012683953 0.007840948 0.0021895359)
(-0.011717644 0.0084681971 0.0022305751)
(-0.010651585 0.0091033936 0.0022694775)
(-0.0094843721 0.0097451342 0.0023054537)
(-0.0082142083 0.01039263 0.0023380675)
(-0.0068400374 0.011044853 0.0023669472)
(-0.0053607747 0.011701001 0.0023918407)
(-0.003775723 0.012360146 0.0024127457)
(-0.0020843689 0.013021462 0.0024296726)
(-0.00028630772 0.013684046 0.0024427831)
(0.0016187347 0.014346962 0.0024523076)
(0.0036309556 0.015009244 0.0024584772)
(0.0057504899 0.015669933 0.002461398)
(0.0079775406 0.016327955 0.0024614468)
(0.010312059 0.016982028 0.0024585981)
(0.012754224 0.017631257 0.0024529523)
(0.015303906 0.018274515 0.0024442485)
(0.017961267 0.018910153 0.0024327766)
(0.020726371 0.019536799 0.0024182857)
(0.023596949 0.020154913 0.002399623)
(0.026578877 0.020760769 0.0023774303)
(0.029666725 0.021355515 0.0023538227)
(0.032855556 0.021935552 0.002324509)
(0.036150462 0.022501273 0.0022935)
(0.039548743 0.023048548 0.0022553955)
(0.043048511 0.023581765 0.0022136416)
(0.046646159 0.024094046 0.0021686266)
(0.050342222 0.024589101 0.0021184449)
(0.054129852 0.025061103 0.0020667439)
(0.058011227 0.025514318 0.002009961)
(0.061979217 0.025939634 0.0019514978)
(0.066032777 0.026350261 0.0018878667)
(0.070169612 0.026723665 0.0018248729)
(0.074381942 0.02708841 0.0017541393)
(0.078676253 0.027410121 0.0016864073)
(0.083034088 0.02772013 0.001611388)
(0.087471493 0.027993509 0.0015380742)
(0.091965558 0.028242504 0.0014583443)
(0.096525185 0.028462075 0.0013814944)
(0.10113911 0.028656909 0.0012951169)
(0.10581635 0.028815612 0.0012165882)
(0.11053997 0.028945372 0.0011310325)
(0.11531033 0.029051903 0.0010419887)
(0.12012616 0.029125168 0.00095309373)
(0.12497557 0.029147301 0.00087531032)
(0.12986677 0.029190225 0.00075781949)
(0.13477953 0.029151612 0.00068790877)
(0.13974567 0.029064831 0.00057542257)
(0.14474163 0.029038804 0.00044306772)
(0.14983383 0.028769516 0.00029586617)
(-0.00018435875 -0.00041202096 -0.00060702939)
(-0.00053313259 -0.0005492205 -0.00070277795)
(-0.00098098742 -0.00080160239 -0.00078180371)
(-0.0014728906 -0.00099513972 -0.00078085794)
(-0.0020402011 -0.001178482 -0.00073060036)
(-0.0026662896 -0.0013487095 -0.00065074602)
(-0.0033382563 -0.0015033448 -0.00054878872)
(-0.0040414523 -0.0016424288 -0.00043520163)
(-0.0047580371 -0.0017656248 -0.00031966962)
(-0.0054732922 -0.0018721235 -0.00020922857)
(-0.0061738481 -0.0019593647 -0.00010990645)
(-0.0068500402 -0.0020271283 -2.4661986e-05)
(-0.0074976298 -0.0020727028 4.5138683e-05)
(-0.0081165239 -0.0020958264 0.00010015461)
(-0.0087093048 -0.0020959744 0.00014345601)
(-0.0092808989 -0.0020732183 0.00017851163)
(-0.0098374923 -0.002028623 0.0002097466)
(-0.010386453 -0.0019631997 0.0002412655)
(-0.010931598 -0.0018785642 0.00027658402)
(-0.011475864 -0.001775778 0.00031819006)
(-0.012020429 -0.001656829 0.00036809433)
(-0.012564295 -0.0015221667 0.00042593326)
(-0.013104368 -0.0013728442 0.00049164925)
(-0.013636727 -0.001207659 0.00056431765)
(-0.014156534 -0.0010281188 0.00064267109)
(-0.014657828 -0.00083216161 0.00072430569)
(-0.015136274 -0.00062003393 0.00080840525)
(-0.015585236 -0.00039087437 0.00089368478)
(-0.016000202 -0.00014322859 0.00097709471)
(-0.016374974 0.00012213567 0.0010598743)
(-0.016704047 0.00040661037 0.0011387615)
(-0.016981113 0.00071163741 0.0012137012)
(-0.017201596 0.0010352116 0.0012848234)
(-0.017358473 0.0013783763 0.0013503056)
(-0.017446981 0.0017410044 0.0014115018)
(-0.017463006 0.0021241196 0.0014653643)
(-0.017401038 0.0025253182 0.0015166977)
(-0.017258001 0.0029463208 0.0015632802)
(-0.017032464 0.003384154 0.0016064854)
(-0.016720053 0.0038403024 0.0016477994)
(-0.016320667 0.0043107737 0.0016870831)
(-0.015832044 0.0047961819 0.0017262573)
(-0.015251825 0.0052945434 0.0017636308)
(-0.01457959 0.005804195 0.0018017398)
(-0.013812918 0.0063234239 0.0018388104)
(-0.012950159 0.0068515968 0.0018752995)
(-0.011989398 0.0073869025 0.001910186)
(-0.01092877 0.0079288341 0.0019433143)
(-0.009766617 0.0084760174 0.0019737979)
(-0.0085014531 0.0090279589 0.0020015131)
(-0.0071321118 0.0095836224 0.0020259501)
(-0.0056575975 0.010142467 0.0020470235)
(-0.0040772164 0.010703589 0.0020646766)
(-0.0023904399 0.011266359 0.0020789055)
(-0.00059682604 0.011829863 0.0020899491)
(0.0013038593 0.012393354 0.0020978893)
(0.0033118857 0.012955914 0.0021029898)
(0.0054274664 0.0135166 0.0021054359)
(0.0076506376 0.014074451 0.0021054457)
(0.0099816363 0.01462836 0.0021029994)
(0.01242045 0.015177446 0.0020983473)
(0.014967163 0.015720625 0.0020909555)
(0.017621825 0.016255968 0.002082015)
(0.020383859 0.016783942 0.0020692172)
(0.023253636 0.017303563 0.0020540407)
(0.026233259 0.01781212 0.0020371777)
(0.029306608 0.018309305 0.0020170604)
(0.032494163 0.018791187 0.0019936608)
(0.035789283 0.019259789 0.0019625759)
(0.039187911 0.019714754 0.0019310973)
(0.04268754 0.020156085 0.0018956855)
(0.046285166 0.020577965 0.0018588865)
(0.049981173 0.020985593 0.0018169509)
(0.053771155 0.021369704 0.0017751351)
(0.057654578 0.021741762 0.0017247789)
(0.061624209 0.022083855 0.0016793356)
(0.06568187 0.022418388 0.0016214961)
(0.06982052 0.022712918 0.001573225)
(0.074039189 0.023010453 0.0015065383)
(0.07833437 0.023253429 0.001458133)
(0.082701801 0.023508634 0.0013840074)
(0.087139965 0.023706991 0.0013308307)
(0.091643116 0.023904566 0.0012593613)
(0.09621147 0.024056119 0.0011919125)
(0.10084325 0.024209043 0.0011157942)
(0.10552106 0.0243046 0.0010535482)
(0.11025732 0.024400107 0.00097286712)
(0.11502846 0.024449862 0.00090151253)
(0.11986553 0.024462377 0.0008294273)
(0.12471207 0.024479949 0.00073049857)
(0.12963092 0.024426832 0.00065734411)
(0.13454788 0.024345809 0.00055937401)
(0.13953777 0.024255502 0.00044300753)
(0.14455222 0.024085073 0.00032242327)
(0.14967242 0.023874715 0.00017336526)
(-0.00012761051 -0.00030817553 -0.00050031044)
(-0.00045944712 -0.00040353389 -0.00057090639)
(-0.00088262116 -0.00057572007 -0.0006487566)
(-0.0013861128 -0.00072437731 -0.00064005439)
(-0.001959184 -0.00086490145 -0.00059877189)
(-0.0025931352 -0.0010046181 -0.00053184814)
(-0.0032708541 -0.0011299584 -0.00044604256)
(-0.0039803275 -0.001245951 -0.00035268093)
(-0.0047032431 -0.0013514582 -0.00025638308)
(-0.0054252169 -0.0014436602 -0.00016494629)
(-0.0061336817 -0.001521932 -8.1174667e-05)
(-0.0068194811 -0.0015837033 -9.3880444e-06)
(-0.0074784796 -0.0016271097 5.0232799e-05)
(-0.008108963 -0.0016509179 9.7880371e-05)
(-0.0087139632 -0.001654149 0.00013590725)
(-0.0092978193 -0.0016367654 0.00016686866)
(-0.0098669523 -0.0015989643 0.00019452177)
(-0.010426301 -0.001542306 0.00022183465)
(-0.010980698 -0.0014679611 0.00025199131)
(-0.011533283 -0.0013778894 0.00028705412)
(-0.012085182 -0.0012730796 0.00032795392)
(-0.012635312 -0.0011549528 0.00037554818)
(-0.01318082 -0.0010239487 0.00042966295)
(-0.013718484 -0.00088100032 0.00048919956)
(-0.014243168 -0.00072552931 0.00055323417)
(-0.014750084 -0.00055771851 0.00062024804)
(-0.015233648 -0.00037638638 0.00068942427)
(-0.015688893 -0.00018155107 0.00075862993)
(-0.016109506 2.7448253e-05 0.00082784089)
(-0.01649073 0.00025146125 0.00089511481)
(-0.016825885 0.00049048642 0.00095989)
(-0.017110374 0.00074514685 0.0010217172)
(-0.017337632 0.0010147955 0.0010796239)
(-0.017502147 0.0013016751 0.0011333025)
(-0.017599602 0.0016039191 0.001182433)
(-0.017623153 0.0019220927 0.0012279915)
(-0.017570598 0.0022573738 0.0012697821)
(-0.017438249 0.0026065608 0.0013078193)
(-0.017219745 0.002971915 0.0013439866)
(-0.016916036 0.0033492786 0.0013771507)
(-0.016524901 0.0037419262 0.0014105758)
(-0.016043182 0.0041452505 0.0014419531)
(-0.015470064 0.0045601541 0.0014740834)
(-0.014804227 0.0049838112 0.0015054298)
(-0.014043559 0.0054157541 0.0015362917)
(-0.013186363 0.0058548175 0.0015662825)
(-0.012230698 0.0062997025 0.0015950164)
(-0.011174971 0.0067497877 0.0016220565)
(-0.010017443 0.0072039919 0.0016469582)
(-0.0087568198 0.007661854 0.001669449)
(-0.0073918616 0.0081224823 0.0016892132)
(-0.0059216791 0.0085854433 0.0017061718)
(-0.004345536 0.0090499355 0.0017202724)
(-0.0026628989 0.0095154069 0.0017315757)
(-0.00087334902 0.0099810773 0.0017402389)
(0.0010234032 0.010446293 0.0017463314)
(0.0030276628 0.010910206 0.0017501959)
(0.0051395375 0.011371941 0.0017518662)
(0.0073592821 0.011830812 0.0017515556)
(0.0096869644 0.01228557 0.0017493856)
(0.012122667 0.012735703 0.0017452877)
(0.01466652 0.01317953 0.0017393294)
(0.017318469 0.013616911 0.0017317143)
(0.020077908 0.014046392 0.0017204942)
(0.022947198 0.014467511 0.0017092895)
(0.025919218 0.01487588 0.0016925724)