/*--------------------------------*- C++ -*----------------------------------*\
  =========                 |
  \\      /  F ield         | OpenFOAM: The Open Source CFD Toolbox
   \\    /   O peration     | Website:  https://openfoam.org
    \\  /    A nd           | Version:  6
     \\/     M anipulation  |
\*---------------------------------------------------------------------------*/
FoamFile
{
    version     2.0;
    format      ascii;
    class       pointScalarField;
    location    "1.41";
    object      E;
}
// * * * * * * * * * * * * * * * * * * * * * * * * * * * * * * * * * * * * * //

dimensions      [1 -1 -2 0 0 0 0];

internalField   nonuniform List<scalar> 
625
(
13284.067
8465.7735
-349998.84
-193867.09
9110.0945
12843.53
-295286.08
-550577.37
2790.6279
2165.9733
6075.4543
-210979.62
-232750.95
-128402.14
18979.756
15490.553
16106.525
18760.773
18364.222
22659.944
23060.76
23829.279
22631.656
17305.655
8052.5902
-4861.29
-21947.959
-41263.647
-60840.087
-80114.125
-93936.4
-103700.28
-101741.18
-92826.575
-75857.498
-53670.677
-12205.38
12810.341
4189.5552
9794.6447
4610.1088
-3079.3445
-4088.4542
-13388.454
-16703.727
-18411.248
-18461.243
-12257.953
-2355.1721
13932.243
35043.414
60485.45
87350.101
113388.95
133724.07
146188.85
147230.32
132879.79
109416.06
62429.755
2341.1971
2089.719
6616.364
25382.975
26476.759
7559.3268
9653.354
12287.286
-6939.3895
-4874.5419
-9774.0625
-10102.756
-6530.5243
-1259.055
11274.06
23818.743
40367.767
57504.255
74810.249
91013.753
103766.63
110311.39
109730.49
98495.758
78992.422
54428.335
-406572.01
-453646.61
-416245.94
-1366.4263
-21996.489
-37675.491
-51148.944
-59519.397
-61134.865
-59050.368
-51613.861
-41782.957
-29612.552
-17796.306
-5869.6796
3260.6999
10992.181
15412.429
17616.046
17823.65
16255.383
16966.474
12908.71
16552.562
10956.562
15791.764
10577.447
8786.3504
7559.5077
6928.6613
6941.9777
7471.5624
-221567.71
-219092.91
-221968.16
-398959.94
-397655.13
-397388.87
7194.2662
5347.8863
3961.7663
2786.4103
-1714.2496
-4413.2094
-9275.9542
-12686.456
-14593.982
-14400.378
-9627.4382
-1460.4391
11504.199
28195.416
46947.083
66065.192
83063.043
95321.376
102442.94
98434.732
92272.128
75384.362
37480.303
2155.409
-589.26862
-1039.2381
-4199.9244
-3744.4784
-3784.8953
-4691.3907
-2246.9662
-1570.1827
1513.0315
4386.2138
8991.8376
14411.797
20732.337
27375.188
33293.904
38147.585
39390.016
39561.09
31769.903
27602.597
13026.106
-432.07069
5879.3607
4443.0629
7387.7299
7920.8501
11850.388
12881.765
17750.02
17963.076
18640.675
16230.538
10502.266
2104.109
-10360.906
-25681.587
-43660.653
-62411.732
-81299.058
-94830.618
-105289.24
-101359.91
-89637.215
-64828.576
-19064.368
1794.4789
1126.8902
684.20998
1249.5091
1042.2066
2130.3881
3230.8092
3689.7667
4235.0041
17457.766
19247.464
20070.877
17215.825
15862.336
16858.119
10860.313
8270.3672
12343.835
7048.5521
8563.5358
5685.8943
5159.0826
2563.4283
6526.6947
-3935.474
-2361.4087
-3021.6365
-6674.2176
-7459.0057
-5301.5396
-10690.088
-13642.426
-11977.378
-13790.182
-12469.42
-14689.191
-10965.196
-11175.523
-10898.283
-6062.9003
-4255.6474
-6103.8515
5867.5414
6412.019
6089.9385
20829.527
21995.601
21785.296
41355.783
41008.717
41270.528
64775.478
62944.615
64275.497
89381.824
85668.103
87809.133
112618.37
107183.59
110056.65
130899.5
124195.48
127736.82
140880.95
133959.32
137568.2
139522.95
132426.57
135911.64
125711.28
120097.63
123561.76
98644.337
98184.38
99447.58
60085.589
58691.975
63382.057
-280155.75
-277967.81
-275442.66
-268233.9
-295374.89
-296617.06
-276953.04
-251271.6
-249959.71
16632.036
15868.073
12395.4
15067.225
13363.214
12439.62
18613.485
15325.198
15021.802
17717.742
15871.613
15472.678
20838.152
19360.394
18330.832
23784.889
18539.056
19742.138
24577.274
22582.81
22424.265
25746.062
22549.893
22969.257
24043.115
20491.746
20348.186
17773.078
16558.766
17181.9
9409.5811
8164.6549
9112.5648
-3429.0651
-3326.8162
-1835.7179
-19581.366
-18327.587
-15779.92
-37204.61
-35148.167
-31372.493
-55093.391
-52631.051
-47135.584
-71670.579
-68783.58
-62187.586
-83380.335
-81678.09
-73548.227
-90890.508
-89099.219
-80640.31
-90447.94
-90638.212
-80775.649
-79135.46
-85217.356
-73656.178
-61946.793
-69217.934
-59065.948
-45008.772
-43820.59
-39723.744
-6073.9679
-6487.5415
-4971.0462
6206.525
6325.7146
2263.6698
1775.787
-2822.1824
-6495.1993
-8952.5893
-13865.893
-13432.801
-12185.371
-6394.1672
3308.4114
16989.311
33690.149
51981.975
69564.49
84257.314
94249.199
96762.703
92865.064
80404.568
61748.898
45374.996
1723.0889
4895.4426
311.6921
7602.6732
9039.3351
14928.235
18753.052
21201.398
23398.001
21709.342
19136.813
14545.579
7552.6517
-101.03075
-9714.3939
-20170.687
-30388.999
-40169.903
-47332.663
-51157.419
-50138.847
-45058.845
-25945.683
11459.418
7474.5536
10315.741
5854.6009
10355.854
10069.711
10451.829
13744.976
9829.1026
8551.5343
374.63918
-8748.8534
-22095.746
-36764.332
-53326.602
-69236.699
-82962.208
-92451.767
-94876.552
-87593.222
-71954.204
-42015.503
-6105.9223
8332.4324
6277.3175
5373.8045
7894.9079
6619.8255
5387.7888
5188.175
3783.826
2711.7024
2985.0125
2288.1713
1540.756
-607.59123
-1886.8979
-1896.8184
-5154.1401
-5390.3785
-7146.4783
-9387.4208
-9799.8039
-9888.3124
-12828.265
-13158.241
-14722.667
-14626.931
-14942.452
-15821.472
-13257.548
-13272.016
-14321.924
-7043.1758
-7911.7173
-8718.1745
2153.7096
1863.4585
1508.6204
17146.054
16483.326
16047.794
35099.966
34247.694
33989.067
55193.643
54354.997
54189.129
75375.963
74626.098
74002.023
92441.035
91982.288
91501.838
105128.63
105228.32
103761.79
110291.96
110003.5
109544.25
103232.03
110057.19
106163.91
94482.587
97241.137
95255.757
76176.283
76824.901
75973.222
42996.49
43585.056
45168.053
1680.8751
1380.785
1258.5645
2554.1425
4129.2646
3846.0386
259.2791
-2250.768
-1283.2474
950.81346
3582.0418
3180.4167
3927.8195
2398.2635
2596.1878
4384.1731
5842.9874
6148.1563
6723.7305
8006.2957
8451.9548
9524.5818
10442.77
9892.1148
10070.63
11213.198
12209.564
12184.291
13039.258
12902.806
12767.015
12561.247
12722.803
13671.585
13198.155
12909.173
14358.887
13002.229
11573.088
14342.76
12119.694
10661.761
14153.226
11191.381
8707.8631
12583.324
8355.5811
6198.7379
10213.548
5353.2633
2363.125
6415.3164
-445.03105
-1809.3548
1627.0718
-5157.1506
-6929.1259
-5072.2598
-9813.2261
-11537.35
-19912.921
2732.1188
-12893.593
-15044.783
-20195.711
-19451.315
-16039.928
-21346.2
-19264.765
7796.4749
8983.2287
10782.913
5226.8164
6514.1093
10005.091
7188.9731
9435.1563
11907.724
10094.585
6434.6
9414.7998
9855.0996
9094.144
12451.804
13062.051
10319.914
13226.193
17007.77
12358.141
14828.743
16253.643
12978.288
16912.281
17679.392
13166.491
15723.133
14350.533
10215.286
13056.882
8536.7806
3941.7779
6809.1266
-454.07567
-5104.7254
-2387.7079
-13481.183
-17908.61
-15122.18
-28901.991
-32820.793
-30420.007
-46857.954
-49940.712
-47610.931
-65272.991
-66606.01
-64957.896
-82061.581
-82211.101
-80915.03
-95145.425
-93042.595
-91877.899
-101468.29
-96950.184
-97246.053
-96466.707
-92342.539
-91906.935
-83630.175
-78103.282
-79066.355
-54951.735
-49883.043
-51382.242
-16472.981
-10439.458
-11919.659
)
;

boundaryField
{
    free
    {
        type            zeroGradient;
    }
    fixed
    {
        type            zeroGradient;
    }
    traction
    {
        type            zeroGradient;
    }
}


// ************************************************************************* //
