/*--------------------------------*- C++ -*----------------------------------*\
  =========                 |
  \\      /  F ield         | OpenFOAM: The Open Source CFD Toolbox
   \\    /   O peration     | Website:  https://openfoam.org
    \\  /    A nd           | Version:  6
     \\/     M anipulation  |
\*---------------------------------------------------------------------------*/
FoamFile
{
    version     2.0;
    format      ascii;
    class       pointVectorField;
    location    "0.07";
    object      u;
}
// * * * * * * * * * * * * * * * * * * * * * * * * * * * * * * * * * * * * * //

dimensions      [0 1 0 0 0 0 0];

internalField   nonuniform List<vector> 
28033
(
(0 3.0927586e-20 0)
(0 2.1172452e-19 0)
(0.41490417 0.026256819 3.1057604e-05)
(0.41270478 -0.040100321 -4.4648931e-05)
(0 1.912772e-19 0)
(0 3.1142937e-19 0)
(0.41270481 -0.04007275 1.449672e-06)
(0.41490156 0.026256778 -2.5311959e-05)
(0 6.7004487e-20 0)
(0 1.9358448e-20 0)
(0 1.5468058e-19 0)
(0 -7.3437386e-20 0)
(0 9.8903118e-20 0)
(0 -5.8587336e-20 0)
(0 -1.414859e-21 0)
(-4.7164163e-20 -1.5385749e-20 0)
(0 2.8920356e-20 0)
(0 1.4385315e-20 0)
(0 -5.5346703e-20 0)
(0 5.358541e-20 0)
(0 6.4092848e-20 0)
(0 -5.1428526e-20 0)
(0 6.5420078e-20 0)
(0.41477196 0.022148873 4.066756e-05)
(0.41464794 0.018032417 4.9655265e-05)
(0.4145268 0.013904281 5.2378065e-05)
(0.41440529 0.0097635011 4.583114e-05)
(0.41428161 0.0056148161 3.8956509e-05)
(0.41415578 0.0014563289 2.5774397e-05)
(0.41402505 -0.0027081448 1.3322115e-05)
(0.41388982 -0.0068764591 -4.0786235e-08)
(0.41374835 -0.01104684 -1.4664909e-05)
(0.41360378 -0.015215272 -2.7512826e-05)
(0.41345362 -0.019380745 -3.8028155e-05)
(0.41330095 -0.023538697 -4.6657263e-05)
(0.41314754 -0.027690363 -5.1927194e-05)
(0.41299571 -0.03183296 -5.320562e-05)
(0.41284641 -0.035967617 -4.9449386e-05)
(0.002159281 0.0032959285 0.0034559663)
(0.0027680843 0.00507174 0.0047388402)
(0.0036471156 0.0067945337 0.0055698547)
(0.0048095043 0.0086177704 0.0061019141)
(0.0061609381 0.01037246 0.0063672401)
(0.0077989961 0.012197464 0.0065303041)
(0.0096783788 0.013982649 0.0065541516)
(0.011797426 0.015755048 0.0065330504)
(0.014148577 0.017504113 0.0064528931)
(0.016722828 0.019216428 0.0063492391)
(0.019500015 0.020888307 0.006220138)
(0.022479874 0.022521432 0.0060859697)
(0.025654729 0.024105424 0.0059466876)
(0.02902228 0.025645964 0.0058013181)
(0.032572477 0.027133344 0.0056522905)
(0.036304952 0.028567888 0.0055026468)
(0.040219222 0.029947842 0.0053475471)
(0.044318037 0.031269512 0.0051848251)
(0.048589793 0.032529566 0.0050041948)
(0.053032175 0.033720412 0.0048192315)
(0.057647171 0.034847885 0.004613829)
(0.062417769 0.035892436 0.0043913111)
(0.067345168 0.036866194 0.0041566763)
(0.072411199 0.037755912 0.0039013965)
(0.077598815 0.038559175 0.0036348306)
(0.082895329 0.039282316 0.0033634314)
(0.088282814 0.039915819 0.0030891715)
(0.093741456 0.040469671 0.0028144648)
(0.099245531 0.040936828 0.0025539986)
(0.10478825 0.041336681 0.0023064698)
(0.11034144 0.041656874 0.0020805218)
(0.11589488 0.041917677 0.0018776468)
(0.12144101 0.042123263 0.0016992937)
(0.12697471 0.042276021 0.0015450808)
(0.13248695 0.042389306 0.0014110203)
(0.13797821 0.042461037 0.0013057935)
(0.14345008 0.042502567 0.0012126079)
(0.1489076 0.042513218 0.0011311539)
(0.15435192 0.042502383 0.0010595843)
(0.15979004 0.042463439 0.000989694)
(0.16522933 0.042402646 0.00091579631)
(0.17067112 0.042317604 0.00083451017)
(0.17612153 0.042207089 0.0007417709)
(0.18158093 0.042068868 0.00063341585)
(0.1870496 0.041902342 0.0005099958)
(0.19252506 0.041704309 0.00036991754)
(0.19800338 0.041473204 0.00021494754)
(0.20347872 0.041206834 4.6575357e-05)
(0.20894421 0.040903743 -0.00013261953)
(0.21439172 0.040562735 -0.00031994796)
(0.21981245 0.040183437 -0.00051221934)
(0.2251967 0.0397662 -0.0007059077)
(0.23053417 0.039312388 -0.00089689083)
(0.23581394 0.038824375 -0.0010804534)
(0.2410249 0.038305599 -0.0012513197)
(0.24615613 0.037760507 -0.0014039664)
(0.25119766 0.037194406 -0.0015330615)
(0.25614112 0.036613335 -0.0016340196)
(0.26098046 0.036023812 -0.0017035419)
(0.26571244 0.035432686 -0.0017398946)
(0.27033677 0.034846823 -0.0017430554)
(0.27485603 0.03427324 -0.0017145864)
(0.27927553 0.033717903 -0.0016570566)
(0.283602 0.033187581 -0.0015739498)
(0.28784599 0.032685871 -0.0014689725)
(0.29201421 0.032219735 -0.001346667)
(0.29612389 0.031789994 -0.0012115305)
(0.30018113 0.031400617 -0.001067191)
(0.3042023 0.031047172 -0.00091356388)
(0.30819838 0.030734207 -0.00076446297)
(0.31218536 0.030454538 -0.00062300604)
(0.31617144 0.030207331 -0.00049032727)
(0.32016906 0.029987253 -0.00037465745)
(0.324186 0.029790407 -0.00027832072)
(0.32822823 0.029611698 -0.00020401791)
(0.3322988 0.029446407 -0.00015167832)
(0.33639822 0.029290189 -0.00012061084)
(0.34052461 0.029138511 -0.00010786128)
(0.34467441 0.028988177 -0.00011030824)
(0.34884257 0.028836019 -0.0001239559)
(0.35302283 0.028680023 -0.00014461733)
(0.35720933 0.028518155 -0.00016848839)
(0.36139557 0.028350505 -0.00019178129)
(0.36557476 0.028177325 -0.00021144544)
(0.36974396 0.028000415 -0.00022513115)
(0.37389716 0.027819687 -0.00023078232)
(0.37803404 0.027639983 -0.00022643873)
(0.38215289 0.027461953 -0.00021341357)
(0.38625696 0.027288993 -0.00019037162)
(0.3903484 0.027122345 -0.00016306919)
(0.39443422 0.026961616 -0.00012691897)
(0.39851438 0.026812691 -9.4732199e-05)
(0.40260213 0.026662884 -5.6439774e-05)
(0.40669431 0.026525844 -2.8585687e-05)
(0.4107952 0.02639136 5.9422298e-07)
(0.00088657656 -0.0030512621 -0.0037953609)
(0.0018873283 -0.0043355962 -0.004163586)
(0.0026555237 -0.0060846448 -0.0052824541)
(0.0035151605 -0.0074385171 -0.0055809524)
(0.0048694941 -0.0091209418 -0.005875353)
(0.0063734922 -0.010746502 -0.0059692047)
(0.0081455834 -0.01231871 -0.0059850136)
(0.010167846 -0.013941802 -0.0059194622)
(0.012436085 -0.015528735 -0.0058151072)
(0.014887698 -0.017081336 -0.0056860131)
(0.017570566 -0.018629322 -0.005537191)
(0.020427415 -0.020129796 -0.0053848982)
(0.023485123 -0.021616209 -0.0052250732)
(0.026717573 -0.0230674 -0.005073643)
(0.030132962 -0.024485039 -0.0049126515)
(0.033727425 -0.025878969 -0.0047592045)
(0.037494439 -0.027228007 -0.0045950269)
(0.041446118 -0.028552 -0.0044251334)
(0.045572487 -0.029836448 -0.0042478591)
(0.049871802 -0.031073718 -0.0040519309)
(0.054350895 -0.032275204 -0.0038383812)
(0.058994369 -0.033426199 -0.0036112197)
(0.063794677 -0.03451932 -0.0033581792)
(0.068752049 -0.035567902 -0.0030912571)
(0.073834711 -0.036545127 -0.0028118229)
(0.079037251 -0.037460537 -0.0025202171)
(0.084335569 -0.038312324 -0.002232096)
(0.089708853 -0.039089313 -0.0019442296)
(0.095140828 -0.039803592 -0.0016703811)
(0.10060832 -0.04044535 -0.0014126856)
(0.10609856 -0.041028639 -0.001177578)
(0.11159935 -0.041547253 -0.0009647979)
(0.11709853 -0.042013154 -0.00077880731)
(0.12258866 -0.042428098 -0.000618429)
(0.12806728 -0.042800011 -0.00048270021)
(0.13352938 -0.04313105 -0.00036893737)
(0.13897645 -0.043430464 -0.00027712745)
(0.14441197 -0.04369847 -0.00019878199)
(0.14984126 -0.043942387 -0.00013113649)
(0.15526723 -0.04416214 -6.8669871e-05)
(0.16069675 -0.044359758 -5.4899927e-06)
(0.16613554 -0.044536364 6.4524676e-05)
(0.17158783 -0.044691718 0.00014603943)
(0.17705617 -0.044824885 0.00024250924)
(0.1825408 -0.04493421 0.00035574299)
(0.18803964 -0.045017435 0.00048577684)
(0.19354836 -0.045071829 0.00063117672)
(0.19906086 -0.045094443 0.00078943567)
(0.20456964 -0.045082347 0.00095743675)
(0.21006625 -0.045032903 0.0011317919)
(0.21554142 -0.044943989 0.0013090066)
(0.22098523 -0.044814227 0.0014854577)
(0.22638699 -0.044643133 0.0016572101)
(0.23173545 -0.04443123 0.0018198853)
(0.23701892 -0.044180107 0.00196862)
(0.24222581 -0.043892453 0.0020982816)
(0.24734535 -0.043572031 0.0022038599)
(0.25236832 -0.043223643 0.0022810338)
(0.25728785 -0.042853041 0.0023266935)
(0.26209993 -0.042466776 0.0023393183)
(0.26680364 -0.042072015 0.0023190923)
(0.27140103 -0.041676309 0.0022677536)
(0.27589679 -0.041287256 0.0021881462)
(0.28029769 -0.040912208 0.0020838687)
(0.2846123 -0.040558023 0.0019587134)
(0.28885021 -0.040230546 0.0018166949)
(0.29302228 -0.03993439 0.0016616314)
(0.29713999 -0.039672746 0.0014974258)
(0.30121629 -0.039450126 0.0013296095)
(0.30526514 -0.039265046 0.0011617317)
(0.30929828 -0.039115146 0.0010010879)
(0.31332777 -0.039002108 0.00085113738)
(0.31736442 -0.038920823 0.00071801663)
(0.32141778 -0.038869492 0.00060535032)
(0.32549345 -0.038843561 0.00051535483)
(0.32959487 -0.038839318 0.00044848894)
(0.33372294 -0.038852502 0.00040344523)
(0.33787612 -0.03887903 0.00037740525)
(0.34205142 -0.038915023 0.00036691633)
(0.34624424 -0.038956927 0.0003676126)
(0.35044945 -0.039001829 0.00037543215)
(0.35466112 -0.03904728 0.00038616529)
(0.35887339 -0.039091983 0.00039633291)
(0.36308021 -0.039135166 0.00040249394)
(0.36727643 -0.039177498 0.00040214387)
(0.37145769 -0.039220016 0.00039302159)
(0.37562152 -0.039265003 0.00037412122)
(0.3797672 -0.039314652 0.00034495296)
(0.3838964 -0.039371865 0.00030660603)
(0.38801237 -0.039438808 0.00026054404)
(0.39212009 -0.039517477 0.00020940195)
(0.39622493 -0.039609085 0.00015565776)
(0.40033215 -0.039714243 0.00010252912)
(0.40444613 -0.039830323 5.0893757e-05)
(0.40856948 -0.039960221 2.5327008e-06)
(0 -8.4194759e-20 0)
(0 -6.1512678e-20 0)
(0 5.7632761e-20 0)
(0 -3.6419516e-20 0)
(0 -3.135305e-20 0)
(0 1.7513838e-19 0)
(0 -5.1964034e-20 0)
(-1.2091578e-19 3.3799022e-20 0)
(0 -3.0871349e-20 0)
(0 7.5175436e-20 0)
(0 8.9822009e-20 0)
(0 3.141527e-20 0)
(0 1.6632495e-20 0)
(0 -3.3890875e-20 0)
(0 2.305136e-20 0)
(0.0017889456 -0.0013320315 0.0028090744)
(0.002187841 -0.0050234341 0.0042409632)
(0.0025687363 -0.0054247612 0.0048421085)
(0.0037215296 -0.0077801652 0.0055806471)
(0.0048289785 -0.0090135668 0.0057778492)
(0.0064346007 -0.010762792 0.0058764714)
(0.0081656723 -0.012305243 0.0058744172)
(0.01024284 -0.013973519 0.0058354436)
(0.012472389 -0.015494782 0.0057016383)
(0.014952838 -0.017107369 0.0055853236)
(0.017643161 -0.018637841 0.0054424178)
(0.020479161 -0.020119928 0.0052893047)
(0.023561136 -0.021644069 0.0051371919)
(0.026766994 -0.023055791 0.0049848292)
(0.030209152 -0.02451986 0.0048282464)
(0.033783558 -0.025876598 0.0046778911)
(0.037553933 -0.027250643 0.0045215738)
(0.041508442 -0.02857079 0.0043492384)
(0.045627443 -0.029846563 0.0041736559)
(0.049943679 -0.031108225 0.0039742775)
(0.054416058 -0.032292795 0.0037701791)
(0.059061919 -0.033440583 0.003533684)
(0.06386989 -0.034553572 0.0032827226)
(0.068830332 -0.035587749 0.003012006)
(0.073917518 -0.036563304 0.002732274)
(0.079126868 -0.037485364 0.0024438141)
(0.084425844 -0.038310715 0.0021605125)
(0.089794206 -0.039110611 0.001878625)
(0.095230091 -0.039802111 0.001618819)
(0.10068001 -0.040451005 0.0013728412)
(0.1061746 -0.04102043 0.0011508611)
(0.11166238 -0.041536308 0.00095744134)
(0.11715514 -0.041994309 0.0007857592)
(0.12263613 -0.04240094 0.00064021205)
(0.12810546 -0.042769544 0.00051766505)
(0.13356286 -0.043105792 0.0004192816)
(0.13899717 -0.043389212 0.00033558668)
(0.14443096 -0.043659945 0.00026457666)
(0.14985317 -0.043900673 0.00020608797)
(0.15527635 -0.04411829 0.00014695345)
(0.16070554 -0.044315217 8.5725705e-05)
(0.1661461 -0.04449006 1.478963e-05)
(0.17160195 -0.044642875 -7.0379727e-05)
(0.17707559 -0.044772666 -0.00017266452)
(0.18256591 -0.044877606 -0.00029312434)
(0.18807038 -0.044955709 -0.00043103531)
(0.19358388 -0.045004553 -0.00058403119)
(0.19910009 -0.045021532 -0.00074905402)
(0.20461154 -0.0450039 -0.00092266571)
(0.21011009 -0.044949142 -0.0011014837)
(0.21558685 -0.044855008 -0.0012821927)
(0.22103213 -0.044719951 -0.0014613716)
(0.22643522 -0.044543247 -0.0016351372)
(0.23178447 -0.044325268 -0.001798959)
(0.23706759 -0.044067614 -0.0019476182)
(0.24227228 -0.043773142 -0.0020755719)
(0.24738718 -0.043446 -0.0021774892)
(0.25240283 -0.043091434 -0.0022490109)
(0.25731256 -0.042715676 -0.002287319)
(0.26211296 -0.042325638 -0.0022915604)
(0.26680402 -0.041928704 -0.0022628056)
(0.27138883 -0.041532407 -0.0022037555)
(0.275873 -0.041144212 -0.0021181563)
(0.28026415 -0.040771333 -0.0020102896)
(0.2845711 -0.040420267 -0.0018842509)
(0.28880403 -0.040096557 -0.0017440643)
(0.29297416 -0.039808275 -0.0015934955)
(0.2970909 -0.039544502 -0.0014377362)
(0.30116915 -0.039336604 -0.0012817093)
(0.30522795 -0.039150593 -0.0011239908)
(0.30926292 -0.039011439 -0.00097601285)
(0.31330411 -0.03890419 -0.00084255076)
(0.31735057 -0.038831505 -0.00072376994)
(0.32141503 -0.038786288 -0.00062620162)
(0.32550142 -0.038766619 -0.00054946925)
(0.3296126 -0.0387674 -0.00049386404)
(0.33374861 -0.038784755 -0.00045753504)
(0.33790775 -0.038814664 -0.00043752892)
(0.3420866 -0.038853475 -0.00043026774)
(0.34628098 -0.038897797 -0.00043194417)
(0.35048586 -0.038944859 -0.00043881928)
(0.35469593 -0.038992398 -0.00044737009)
(0.35890552 -0.039039071 -0.00045439802)
(0.36310917 -0.039084332 -0.00045699148)
(0.36730179 -0.039128741 -0.00045271558)
(0.3714795 -0.039173609 -0.0004397185)
(0.37563984 -0.039221139 -0.00041699059)
(0.37978251 -0.039273731 -0.00038454772)
(0.3839091 -0.039334087 -0.00034339068)
(0.38802316 -0.039404319 -0.00029556027)
(0.39212944 -0.039486276 -0.00024348475)
(0.39623326 -0.039580713 -0.00019010324)
(0.40033983 -0.039687756 -0.00013789413)
(0.40445289 -0.039807089 -8.8379113e-05)
(0.40857595 -0.03993608 -4.2921186e-05)
(0.41284454 -0.035946796 1.1708589e-05)
(0.41299648 -0.031811077 1.8118694e-05)
(0.41314686 -0.027672534 2.1224397e-05)
(0.41330533 -0.023521363 1.9395609e-05)
(0.4134538 -0.01936633 1.3790029e-05)
(0.41361 -0.015201385 6.3495215e-06)
(0.4137506 -0.011036793 -4.8609362e-06)
(0.41389393 -0.006868045 -1.5252826e-05)
(0.41403181 -0.0027043821 -2.5035658e-05)
(0.41415882 0.0014589441 -3.4191633e-05)
(0.41428345 0.0056149351 -4.3952875e-05)
(0.41440713 0.0097623134 -4.6913575e-05)
(0.41452683 0.01390083 -4.9112453e-05)
(0.41464844 0.018029847 -4.7783346e-05)
(0.41476751 0.02214848 -3.639495e-05)
(0.41079119 0.026391828 -2.5160966e-07)
(0.40668943 0.02652528 2.5653136e-05)
(0.40259862 0.026662169 5.5756372e-05)
(0.39851315 0.026805569 8.9367722e-05)
(0.39443019 0.026956151 0.00012012734)
(0.39034596 0.027115119 0.00015037302)
(0.38625365 0.027282439 0.00017496893)
(0.38214937 0.027457051 0.00019235696)
(0.3780295 0.027636928 0.00020188713)
(0.37389244 0.027820604 0.00020149009)
(0.36973822 0.028004138 0.00019296633)
(0.36556917 0.028186782 0.00017621446)
(0.36138862 0.028365361 0.00015382187)
(0.35720221 0.02853915 0.00012774744)
(0.35301397 0.028708429 0.00010044691)
(0.34883084 0.028873075 7.5587735e-05)
(0.34465825 0.029034956 5.6991496e-05)
(0.34050174 0.029196192 4.8303787e-05)
(0.33636633 0.029359018 5.3971128e-05)
(0.33225597 0.029526951 7.731053e-05)
(0.32817294 0.029703022 0.0001218404)
(0.32411816 0.02989157 0.00018912991)
(0.32008893 0.030096491 0.00027960054)
(0.31608264 0.030322994 0.00039232363)
(0.31208887 0.030573398 0.00052507725)
(0.30810199 0.030853864 0.00066920536)
(0.30410872 0.031171933 0.00082989827)
(0.30008394 0.031522165 0.00098814851)
(0.29604147 0.03190983 0.0011455395)
(0.29194438 0.032333159 0.0012987154)
(0.28779 0.032792518 0.0014403963)
(0.28356262 0.033284969 0.0015643292)
(0.27925327 0.033806618 0.0016674307)
(0.27485146 0.034353069 0.0017446885)
(0.27034948 0.034918808 0.0017924283)
(0.26574149 0.035497752 0.0018074441)
(0.26102425 0.036083391 0.0017878909)
(0.25619748 0.036668909 0.0017334413)
(0.25126398 0.037247409 0.0016455508)
(0.24622952 0.037812172 0.0015273423)
(0.2411024 0.0383569 0.0013832908)
(0.23589277 0.038875991 0.0012187242)
(0.23061189 0.039364748 0.0010392716)
(0.22527137 0.039819508 0.00085040818)
(0.21988265 0.040237733 0.00065715685)
(0.21445657 0.040617893 0.00046398168)
(0.20900325 0.040959486 0.00027490814)
(0.203532 0.041262552 9.3602074e-05)
(0.19805115 0.041528335 -7.679884e-05)
(0.19256828 0.041757421 -0.00023289221)
(0.18708936 0.041952258 -0.00037293753)
(0.18161907 0.042114021 -0.00049485913)
(0.17616015 0.042245348 -0.00059966205)
(0.17071268 0.042347301 -0.00068701293)
(0.16527768 0.042422369 -0.00076136874)
(0.15984389 0.042473991 -0.00082867271)
(0.15441483 0.04249832 -0.00089141615)
(0.1489796 0.042504366 -0.00095822737)
(0.14353823 0.042476521 -0.0010288034)
(0.13806961 0.042426331 -0.0011199132)
(0.13259325 0.042343946 -0.0012314442)
(0.12708688 0.042227881 -0.0013584932)
(0.12156176 0.042061427 -0.0015160557)
(0.1160126 0.041862068 -0.0016988146)
(0.11046141 0.041597044 -0.0019121746)
(0.10491087 0.041273708 -0.0021424878)
(0.09936247 0.040874207 -0.0023999575)
(0.093864718 0.04040479 -0.0026668763)
(0.088387898 0.039860505 -0.0029568401)
(0.082998241 0.039231642 -0.0032402172)
(0.077688557 0.038518849 -0.0035272044)
(0.072485986 0.037710158 -0.0038021385)
(0.067430696 0.036817473 -0.0040639487)
(0.062478763 0.035862865 -0.0043167917)
(0.05769944 0.034808677 -0.0045383572)
(0.05309829 0.033677866 -0.0047476713)
(0.048628351 0.032497641 -0.004942905)
(0.044382493 0.031221213 -0.0051098689)
(0.040262389 0.029918145 -0.0052813603)
(0.036370314 0.028519054 -0.0054288959)
(0.032640434 0.027080909 -0.005577401)
(0.029077396 0.025604371 -0.0057260126)
(0.025710614 0.024066063 -0.0058705308)
(0.022556523 0.02246085 -0.0060030959)
(0.019558949 0.020849216 -0.0061443815)
(0.016779346 0.019173887 -0.0062688399)
(0.014224177 0.017437136 -0.0063674287)
(0.011866475 0.015719379 -0.0064506539)
(0.009739011 0.013932194 -0.0064690733)
(0.0078573316 0.012153717 -0.0064381604)
(0.0062391335 0.010298999 -0.0062601966)
(0.0049204932 0.0084706289 -0.0059535109)
(0.0038189161 0.0067943509 -0.0054654839)
(0.0029385315 0.0048552041 -0.0044029916)
(0.0030594309 0.0031949964 -0.0026594525)
(0 9.5884791e-20 0)
(0 3.6471863e-20 0)
(0 9.4663235e-20 0)
(0 9.5294045e-20 0)
(0 9.9319467e-20 0)
(0 5.9729066e-20 0)
(0 2.3810585e-21 0)
(0 -5.4121864e-20 -5.9383858e-20)
(0 6.4087433e-21 0)
(0 5.7616794e-20 0)
(0 1.3893266e-19 0)
(0 1.2173399e-19 0)
(0 8.7139162e-20 0)
(0 8.421322e-20 0)
(0 9.6164559e-20 0)
(0 3.9984925e-19 0)
(0 1.702505e-19 0)
(0 6.2477092e-20 0)
(0 1.1276798e-19 0)
(0 -9.8179236e-21 0)
(0 2.6284599e-20 0)
(0 2.9951157e-19 0)
(0 -1.2188259e-19 -5.2852087e-20)
(0 1.7815249e-19 0)
(0 2.2270936e-19 0)
(0 7.3597939e-20 0)
(0 3.0125143e-20 0)
(0 6.9923064e-20 0)
(0 1.2606657e-19 0)
(0 1.6215523e-20 0)
(0.41270604 -0.040055051 -3.5694313e-05)
(0.41270267 -0.040019908 -2.9549398e-05)
(0.41270196 -0.039990239 -2.5227103e-05)
(0.41270087 -0.039966992 -2.1874631e-05)
(0.4126999 -0.039949635 -1.9155033e-05)
(0.41269951 -0.039937054 -1.7700034e-05)
(0.41269877 -0.039928749 -1.6602886e-05)
(0.41269763 -0.039924601 -1.5888912e-05)
(0.41269572 -0.03992378 -1.548049e-05)
(0.41269342 -0.039926588 -1.5489088e-05)
(0.41269115 -0.039933818 -1.4785489e-05)
(0.41269007 -0.03994624 -1.4008101e-05)
(0.41269111 -0.039964657 -1.0994689e-05)
(0.41269283 -0.03999268 -8.3731806e-06)
(0.41269964 -0.040026269 -2.4418885e-07)
(0.41489361 0.026228276 2.5806561e-05)
(0.41488455 0.026208099 1.9271707e-05)
(0.41487775 0.026192884 1.405093e-05)
(0.41487325 0.02618153 9.1342214e-06)
(0.41486951 0.026173929 5.3449632e-06)
(0.41486798 0.026169406 2.2501303e-06)
(0.4148675 0.026167423 -2.3178647e-07)
(0.41486739 0.026167375 -2.3659058e-06)
(0.41486729 0.026168877 -4.240723e-06)
(0.41486714 0.026172016 -5.9429916e-06)
(0.41486758 0.026176883 -8.0924897e-06)
(0.41486919 0.026184957 -1.0266192e-05)
(0.41487335 0.026195333 -1.3852383e-05)
(0.41487869 0.026210849 -1.7279528e-05)
(0.41488972 0.026231062 -2.3979194e-05)
(0.0012147117 0.002413742 0.003521184)
(0.0020307451 0.00384653 0.0040537171)
(0.0028630629 0.0054261912 0.0049466172)
(0.0040408853 0.0068970246 0.0052785226)
(0.005328998 0.0083500909 0.0056021189)
(0.0069734947 0.0098145836 0.0057029532)
(0.0088123473 0.011258205 0.0057629612)
(0.010937471 0.012707571 0.0057375598)
(0.013263812 0.014134793 0.0056803609)
(0.015826696 0.015538765 0.0055948341)
(0.018596664 0.016918996 0.0054831006)
(0.021571631 0.018270215 0.0053712161)
(0.024738507 0.019583047 0.0052465554)
(0.028096171 0.020861642 0.0051218249)
(0.031643991 0.022094971 0.0049913789)
(0.035376322 0.023291393 0.0048584859)
(0.039290277 0.024436954 0.0047213724)
(0.043380691 0.025537431 0.0045769602)
(0.047655649 0.026580219 0.0044225701)
(0.052104555 0.027578411 0.0042554515)
(0.056720727 0.028509755 0.0040782659)
(0.061505224 0.029386001 0.0038838732)
(0.066439749 0.030204118 0.0036759406)
(0.071516921 0.030953344 0.0034580417)
(0.076725887 0.031644386 0.0032262607)
(0.082044646 0.032273076 0.0029920236)
(0.087453105 0.032839222 0.002754193)
(0.092935704 0.033347036 0.0025216248)
(0.098472315 0.033800452 0.0022960551)
(0.10404055 0.034199615 0.002084533)
(0.10962493 0.034551031 0.0018889021)
(0.11521408 0.034859928 0.001713565)
(0.12079431 0.03512618 0.0015600378)
(0.12635852 0.035353909 0.0014253275)
(0.13190212 0.035552621 0.0013101137)
(0.13742118 0.035718 0.0012131658)
(0.14292241 0.035857886 0.0011300371)
(0.14840644 0.035971412 0.0010572353)
(0.15387807 0.036063023 0.00098981891)
(0.15934291 0.036127544 0.00092607856)
(0.16480752 0.036169711 0.00085782817)
(0.17027511 0.036188047 0.00078397266)
(0.17575241 0.036180206 0.00069920381)
(0.18123838 0.036147654 0.00060349638)
(0.18673531 0.036088901 0.00049334879)
(0.19223983 0.03600248 0.00036985861)
(0.19774876 0.035887929 0.00023348581)
(0.20325602 0.035743811 8.5882233e-05)
(0.20875471 0.035569431 -7.084795e-05)
(0.21423646 0.035364111 -0.00023423016)
(0.2196921 0.03512789 -0.00040143518)
(0.2251115 0.034861444 -0.00056930066)
(0.23048387 0.034566315 -0.00073422054)
(0.23579781 0.034244843 -0.0008921252)
(0.24104168 0.03390009 -0.0010385679)
(0.24620407 0.033535649 -0.00116894)
(0.25127451 0.033155421 -0.001278852)
(0.25624419 0.032763463 -0.001364559)
(0.2611066 0.032363815 -0.0014233824)
(0.26585811 0.031960516 -0.0014539439)
(0.27049811 0.031557538 -0.00145633)
(0.27502907 0.031158785 -0.0014318839)
(0.27945612 0.030767942 -0.0013827529)
(0.28378666 0.030388838 -0.0013122929)
(0.28803066 0.030024461 -0.0012235383)
(0.29219529 0.0296771 -0.0011199799)
(0.29629679 0.029346866 -0.001004585)
(0.30034759 0.029037279 -0.0008834966)
(0.30435926 0.028747895 -0.00075628894)
(0.30834756 0.028477084 -0.00063366685)
(0.31232306 0.028220539 -0.00051517609)
(0.31629908 0.027978465 -0.00040615995)
(0.32028644 0.027746297 -0.00031055576)
(0.32429329 0.027522253 -0.00023144506)
(0.32832579 0.027304114 -0.00017011027)
(0.33238694 0.027089034 -0.00012716255)
(0.33647737 0.026875268 -0.00010133759)
(0.3405954 0.026660368 -9.0653675e-05)
(0.34473711 0.026442825 -9.2390128e-05)
(0.34889766 0.026220658 -0.00010330065)
(0.35307076 0.025992802 -0.00011994938)
(0.35725018 0.02575803 -0.00013920486)
(0.36142937 0.025516424 -0.00015827534)
(0.36560107 0.025268841 -0.00017360689)
(0.36976122 0.025014814 -0.00018456699)
(0.37390541 0.024757173 -0.00018826089)
(0.37803117 0.024495992 -0.00018515267)
(0.38213894 0.024232913 -0.00017414898)
(0.38622902 0.023969029 -0.00015649283)
(0.39030802 0.023705294 -0.00013286287)
(0.39437707 0.023441897 -0.00010580644)
(0.39844386 0.023180746 -7.6719906e-05)
(0.40251527 0.022918507 -4.6348193e-05)
(0.40659049 0.022661051 -1.9518677e-05)
(0.41067605 0.022405266 9.2886326e-06)
(0.00040109106 0.0020285152 0.0030584124)
(0.001130233 0.0026752166 0.0037128331)
(0.0021725607 0.0041612478 0.0042969693)
(0.0032238545 0.0052200624 0.0046924541)
(0.00460457 0.0064502005 0.0048782543)
(0.0061881171 0.0075985874 0.0049878343)
(0.0080564962 0.008788752 0.0050134617)
(0.010142092 0.0099387893 0.0050008493)
(0.012476569 0.011088061 0.0049472071)
(0.015028612 0.012214794 0.0048689768)
(0.017794513 0.013323447 0.0047799844)
(0.020762043 0.014408013 0.0046776223)
(0.023925861 0.015466082 0.004572487)
(0.027284433 0.016494558 0.0044623673)
(0.030828864 0.017492669 0.0043509525)
(0.03456038 0.018456091 0.004234861)
(0.03847066 0.019384901 0.0041163464)
(0.042568578 0.020273181 0.0039911799)
(0.046843985 0.021123828 0.0038577311)
(0.051295861 0.021929798 0.0037154601)
(0.055919917 0.022693887 0.0035614494)
(0.060708865 0.023413048 0.0033949854)
(0.065654428 0.024086466 0.0032197403)
(0.070744597 0.02471342 0.0030320559)
(0.075965192 0.025296158 0.0028370382)
(0.081296208 0.025836113 0.0026366816)
(0.086723076 0.026332424 0.0024367076)
(0.092224025 0.026790335 0.0022386149)
(0.097778581 0.02720906 0.0020484157)
(0.10336873 0.027594981 0.0018683816)
(0.10897795 0.027947034 0.0017041435)
(0.11458874 0.028268398 0.0015546244)
(0.12019154 0.028563038 0.0014215278)
(0.12577943 0.028833113 0.0013054908)
(0.13134762 0.029080179 0.001205244)
(0.1368948 0.029303763 0.0011211879)
(0.14242163 0.029507595 0.0010471592)
(0.1479318 0.029690214 0.00098156909)
(0.15343002 0.029853489 0.00092237801)
(0.1589205 0.029995726 0.0008636693)
(0.16441148 0.030118195 0.00080337749)
(0.16990579 0.030220443 0.00073703407)
(0.17540805 0.030300052 0.00066314543)
(0.18092021 0.030359737 0.00057824219)
(0.18644276 0.030396972 0.00048241703)
(0.19197387 0.03041178 0.00037499371)
(0.19750941 0.030403364 0.00025691226)
(0.20304398 0.030370905 0.00012929833)
(0.2085703 0.030313703 -5.8446525e-06)
(0.21407998 0.03023115 -0.0001464921)
(0.21956347 0.030123198 -0.00029010035)
(0.22501031 0.029990313 -0.0004339823)
(0.23040927 0.029833705 -0.00057500082)
(0.23574858 0.02965521 -0.00070972687)
(0.24101629 0.029457195 -0.00083442104)
(0.24620081 0.029242313 -0.00094526116)
(0.2512915 0.029013293 -0.0010386421)
(0.25627948 0.028772774 -0.0011115043)
(0.26115816 0.028523206 -0.0011616903)
(0.26592379 0.028266925 -0.0011881043)
(0.27057567 0.028006125 -0.0011909127)
(0.27511615 0.027743033 -0.0011710914)
(0.27955037 0.027479936 -0.001130796)
(0.28388557 0.027218909 -0.0010726068)
(0.2881321 0.026961908 -0.00099887705)
(0.29229819 0.026708099 -0.00091317415)
(0.2964061 0.026465083 -0.00082195509)
(0.30045417 0.026229438 -0.00072066943)
(0.30446123 0.025998047 -0.0006164731)
(0.30844462 0.025768677 -0.00051391217)
(0.31241594 0.025543628 -0.00041597202)
(0.31638779 0.025318308 -0.00032559946)
(0.32037021 0.025091122 -0.00024668524)
(0.32437161 0.02486126 -0.00018103154)
(0.32839793 0.024627203 -0.00013046025)
(0.33245248 0.024387569 -9.4773052e-05)
(0.33653589 0.024141991 -7.3502145e-05)
(0.34064644 0.023888753 -6.465379e-05)
(0.34478048 0.023627723 -6.6276216e-05)
(0.34893335 0.023357353 -7.5274745e-05)
(0.35309843 0.023077695 -8.9326074e-05)
(0.35726973 0.022788029 -0.00010545623)
(0.36144069 0.022488182 -0.00012100823)
(0.36560264 0.02217838 -0.0001355657)
(0.36975348 0.021861422 -0.0001454457)
(0.37388834 0.02153498 -0.00014901241)
(0.3780046 0.021201951 -0.00014699922)
(0.38210235 0.020862461 -0.00013891745)
(0.38618286 0.020518207 -0.00012457065)
(0.39025035 0.020168702 -0.00010703463)
(0.39430974 0.019816157 -8.3650306e-05)
(0.39836359 0.019461791 -6.1166462e-05)
(0.40242393 0.019103079 -3.3631679e-05)
(0.40648499 0.018747478 -1.0174085e-05)
(0.4105584 0.018391927 1.8042344e-05)
(-4.5385401e-05 0.0014676936 0.0026980575)
(0.0006215459 0.0019617855 0.0031589742)
(0.0013971938 0.0029788256 0.0037619583)
(0.0025497057 0.0038514835 0.0040111291)
(0.0038855178 0.004755094 0.0041698707)
(0.0055184004 0.0056959542 0.0042294275)
(0.0073641822 0.0065957882 0.0042590947)
(0.0094720613 0.0074982474 0.0042378668)
(0.011799711 0.0083833879 0.0041841862)
(0.014352509 0.0092635891 0.0041255578)
(0.017114465 0.010118893 0.0040426657)
(0.020082063 0.010965188 0.0039612269)
(0.023246558 0.011784882 0.0038689331)
(0.026601996 0.012588927 0.0037798558)
(0.030147747 0.01336428 0.0036827611)
(0.033877679 0.014119066 0.0035882295)
(0.037794787 0.014842722 0.0034863261)
(0.041892236 0.015541271 0.0033824091)
(0.046171 0.016206051 0.0032700585)
(0.050627747 0.016842924 0.003151016)
(0.055257239 0.017445221 0.0030223379)
(0.060053597 0.018015602 0.0028855154)
(0.065005697 0.018553301 0.0027378213)
(0.070103446 0.019058838 0.0025832783)
(0.075331441 0.01953407 0.0024215173)
(0.080673521 0.019979747 0.0022575052)
(0.086109976 0.020398105 0.0020923177)
(0.09162124 0.020790679 0.0019305421)
(0.09718816 0.021160638 0.0017748677)
(0.10279172 0.021508113 0.0016287551)
(0.10841295 0.021836965 0.0014933361)
(0.11404026 0.022147396 0.0013709054)
(0.11966158 0.022442624 0.0012622342)
(0.12526849 0.022720105 0.0011675204)
(0.1308575 0.022983663 0.0010857215)
(0.13642373 0.023233133 0.0010146004)
(0.14197101 0.023467288 0.00095273215)
(0.1475025 0.023687753 0.00089898443)
(0.15302114 0.023893235 0.00084792203)
(0.15853461 0.024084378 0.00079865054)
(0.16404641 0.024258423 0.0007468179)
(0.16956177 0.024416746 0.00069071504)
(0.17508454 0.024557727 0.00062739033)
(0.18061742 0.024681598 0.00055560521)
(0.18616022 0.024787968 0.00047445145)
(0.19171122 0.024876016 0.00038399014)
(0.19726683 0.024945549 0.00028456602)
(0.20282159 0.024995677 0.00017748169)
(0.20836831 0.025025809 6.4290718e-05)
(0.21389849 0.025035351 -5.3223298e-05)
(0.21940236 0.02502422 -0.00017295155)
(0.22486918 0.024992687 -0.00029263309)
(0.23028741 0.024941672 -0.00040968407)
(0.23564501 0.024872537 -0.00052129846)
(0.24092987 0.024787033 -0.00062442672)
(0.24613027 0.024687028 -0.00071598411)
(0.25123563 0.02457434 -0.00079307115)
(0.25623704 0.024450572 -0.00085325278)
(0.261128 0.024317065 -0.00089483711)
(0.2659047 0.02417495 -0.00091704232)
(0.27056641 0.024025244 -0.00092003307)
(0.27511535 0.023868958 -0.00090477424)
(0.27955652 0.02370725 -0.00087322038)
(0.28389719 0.023540838 -0.00082697488)
(0.28814796 0.02337127 -0.00076859156)
(0.29231676 0.023198501 -0.00070151706)
(0.29642091 0.023022068 -0.00062675029)
(0.30047115 0.022842763 -0.00054029926)
(0.30447958 0.022663749 -0.00046461086)
(0.30846308 0.022476468 -0.00038350939)
(0.31243462 0.022281377 -0.00030763566)
(0.31640487 0.022077796 -0.00023738237)
(0.32038538 0.021863576 -0.00017600613)
(0.324384 0.021638644 -0.0001261286)
(0.32840701 0.021402698 -8.7653111e-05)