/*--------------------------------*- C++ -*----------------------------------*\
  =========                 |
  \\      /  F ield         | OpenFOAM: The Open Source CFD Toolbox
   \\    /   O peration     | Website:  https://openfoam.org
    \\  /    A nd           | Version:  6
     \\/     M anipulation  |
\*---------------------------------------------------------------------------*/
FoamFile
{
    version     2.0;
    format      ascii;
    class       pointScalarField;
    location    "0.35";
    object      p;
}
// * * * * * * * * * * * * * * * * * * * * * * * * * * * * * * * * * * * * * //

dimensions      [1 -1 -2 0 0 0 0];

internalField   nonuniform List<scalar> 
3969
(
683614.83
-952348.51
7357.6017
3846.2772
1253128.2
-1918158.7
4560.1707
2216.4113
510745.82
372510.56
190423.33
10548.898
-126222.88
-335422.27
-364121.62
-13627.067
-5219.0849
-4778.0287
69.094766
5469.6001
10302.713
10635.01
200736.08
229115.08
217824.14
225003.15
216158.31
211384.5
202072.96
192854.98
183441.98
173083.78
163994.92
155445.74
146481.52
138671.69
130782.28
122953.91
116557.16
110008.03
104571.63
99238.153
94966.215
91017.357
87733.813
85323.079
82813.367
81175.779
79562.153
78648.722
78450.37
77634.798
77303.161
76650.886
75545.67
73889.737
71856.045
69441.621
65272.457
61510.432
55872.86
51903.544
44963.766
39711.124
34406.253
27092.078
23860.854
18046.2
13117.863
-213688.53
-179207.23
-209996.02
-183961.47
-198826
-181828.8
-180467.31
-168225.58
-161808.53
-152226.76
-143625.91
-135930.35
-126967.33
-120759.2
-113297.02
-106693.53
-100765.01
-94646.894
-89890.148
-85127.794
-80695.262
-77687.529
-73899.862
-71657.698
-69317.385
-67350.587
-65791.907
-64577.876
-64245.697
-63636.518
-63929.608
-63338.402
-63105.866
-62036.815
-60919.723
-58909.561
-56754.265
-52562.832
-50213.678
-44791.565
-40505.308
-35174.25
-30075.836
-23597.61
-17645.288
-13047.366
-6588.3438
915841.3
697458.86
311724.79
-8971.6278
-286421.27
-639517.27
-525705.91
-252955.81
-286017.34
-168677.98
-240619.08
-202231.88
-203060.39
-191397.01
-183362
-170468.67
-159706.23
-158032.01
-142651.38
-139236.23
-128429.11
-121714.88
-114328.8
-107052.18
-101001.84
-94918.89
-89435.152
-85373.176
-81541.642
-78613.431
-76040.994
-74793.023
-74125.079
-73457.605
-72399.496
-72494.78
-72179.066
-71561.458
-71023.868
-69877.313
-68379.431
-66565.987
-64194.313
-56823.009
-56866.145
-51506.971
-46607.48
-41064.174
-35780.454
-29347.818
-23277.958
-17795.379
-11789.046
-7481.5064
15440.392
8646.3826
4898.5287
4322.8826
-6712.9494
-5370.9819
-13752.401
24036.33
21249.869
24354.1
30837.181
37155.18
43061.593
49539.263
54966.955
60433.557
64455.08
67473.891
76733.711
75669.535
79094.527
80898.75
82329.064
82691.162
83433.668
83692.11
84191.094
85140.801
86286.122
88159.887
90675.414
93766.452
97586.12
101831.44
106484.57
111963.67
117808.34
124395.73
130571.98
137093.2
145377.55
157466.53
162742.24
172718.12
180633.09
188159.56
201424.23
214661.12
213672.72
228223.29
229106.33
220311.56
238286.13
245856.92
565191.59
626875.98
660229.7
651039.53
641381.37
643464.86
521426.38
-766281.86
-973344.85
-1109462.7
-1187867.3
-1123028.6
-1111531.4
-867483.74
5733.8699
6726.4416
7275.282
8666.5081
8127.3265
6476.0365
6587.7878
-1068.9379
841.5728
-265.72729
-932.80692
-393.44043
3847.622
-75.879726
177455.96
175715.34
171942.06
173240.99
169813.06
166977.69
159664.87
155626
146331.49
141624.59
133166.01
126011.26
119700.16
113083.25
106908.34
101377.49
96206.104
91187.512
86603.794
82647.911
79196.73
76020.837
73547.526
71565.217
70127.441
68497.353
67426.469
66797.65
65786.532
64984.582
64012.62
62694.538
61037.807
58994.523
56610.059
53493.829
49553.596
46575.59
42385.345
38839.815
33896.106
30708.124
24921.315
21115.381
17521.011
10256.155
5336.571
116442.41
111029.06
108416.88
113186.55
111285.38
112778.82
108239.04
104434.17
100054.77
96154.668
91311.414
86998.751
81874.828
77324.994
73440.232
69327.134
65743.148
62112.792
58938.789
55927.069
53062.471
50531.826
48374.177
46607.736
44797.038
43812.779
42948.667
41497.486
41082.932
40023.684
39191.168
38244.699
36955.405
35774.513
34227.787
32443.96
30833.797
29151.967
26218.291
24778.045
21328.352
19671.894
15778.968
14871.078
11271.417
6710.9521
1358.0994
51771.814
58553.168
53069.169
57241.977
54791.754
57584.23
54814.997
54928.218
51898.867
50189.504
48067.554
45826.929
43458.602
40481.932
37784.954
36066.449
34279.917
32718.196
31283.867
30015.073
29160.374
28381.956
27605.065
27046.311
26844.789
26439.169
26027.416
26139.484
25775.928
25371.045
24922.176
24255.915
23416.365
22524.968
21509.048
20082.641
19032.432
17117.411
15885.67
14527.184
12509.756
12317.776
9411.346
9530.0638
6547.76
3527.1408
2122.4317
2246.2357
2495.99
-1971.4675
3556.2834
-1217.1284
1850.685
-481.1221
1357.1963
1113.8809
2667.571
2301.3719
3087.6689
2647.2608
3133.6698
3036.6814
3200.6535
3124.2036
3322.6777
3219.2609
3042.9555
2973.2013
2409.581
1651.133
1935.4026
2021.9953
1966.0905
2120.3783
2018.764
1893.169
1860.0702
1692.9514
1673.4452
1469.2884
1489.5649
1329.5584
1700.8317
1279.6318
1631.2614
2026.7514
1812.696
2338.1399
2525.2109
1783.0442
3538.2911
2622.1034
4136.6065
4409.9214
-58012.729
-51201.271
-52249.762
-53313.655
-54808.604
-52077.888
-51177.374
-48076.252
-46471.085
-42456.921
-40812.493
-37092.381
-35791.698
-32399.062
-30735.356
-28172.515
-26650.028
-24759.16
-23375.714
-22095.516
-19855.658
-17620.999
-16691.197
-14794.075
-14600.947
-14709.184
-13881.298
-13397.062
-13158.133
-12972.41
-12722.083
-12629.717
-12272.411
-12209.334
-11456.194
-11401.354
-10864.019
-9856.537
-9714.7171
-8879.0459
-8103.7182
-7320.1136
-5430.2448
-3680.3957
-2477.7151
243.717
2306.0095
-116146.47
-107029.42
-109830.31
-112113.68
-111741.12
-107803.19
-103677.78
-97970.74
-94156.739
-87070.644
-83488.643
-77109.603
-73725.317
-69223.946
-65395.302
-61158.205
-57804.518
-54244.806
-51372.09
-48628.365
-45530.754
-43525.203
-39871.143
-37660.64
-35938.759
-34704.361
-34122.655
-33443.087
-33067.56
-32733.918
-32744.514
-32427.463
-32215.001
-31525.661
-31200.3
-29872.187
-28688.005
-27368.907
-25407.465
-23319.225
-21329.142
-18610.295
-15070.097
-12228.222
-8290.8544
-3533.2298
3983.1345
-197935.13
-140648.71
-163987.21
-160508.4
-161782.41
-154564.2
-149534.52
-142460.28
-136479.83
-127479.69
-122547.76
-114341.48
-107977.53
-101110.12
-94885.482
-88878.488
-83227.89
-78750.372
-74179.164
-70517.96
-67271.225
-64381.133
-61961.878
-60069.996
-58489.014
-57366.005
-57111.041
-56051.873
-55372.932
-54841.443
-54457.094
-53824.329
-52917.717
-51917.945
-50493.944
-48476.241
-46866.286
-43924.663
-41224.825
-36877.741
-32935.429
-28459.923
-23795.065
-19868.206
-14499.602
-9010.4732
-596.3971
421322.51
390977.29
408502.15
408277.76
409058.75
398071.02
367089.96
270656.83
312774.6
290614.19
301377.57
297964.05
291102.36
275894.96
138255.79
162823.18
139454.8
152623.05
142584.04
141585.28
148092.04
30891.185
16695.979
8486.6517
22813.774
13806.005
-476.00024
45011.637
-69092.159
-72138.638
-79889.058
-69777.151
-75686.075
-72353.306
-41049.707
-253801.07
-274481.49
-271379.73
-279577.17
-286508.7
-278168.42
-267825.07
-318717.16
-280619.42
-252082.55
-257446.76
-240591.97
-224739.32
-250203.48
-345451.42
-357118.65
-399778.81
-415362.36
-423738.38
-415587.13
-325434.32
-263957.45
-308705.87
-308195.13
-314399.66
-329287.6
-311521.86
-283773.55
-210646.42
-237365.82
-249504.93
-252811.43
-249083.08
-232156.97
-246826.84
-212194.56
-232096.65
-226491.23
-240331.79
-230955.26
-229701.84
-213133.63
-206992.68
-218447.69
-224245.83
-224374.59
-224100.59
-214246.87
-216612.22
-197206.86
-193084.79
-195675.29
-200001.48
-198367.57
-194143.51
-192468.13
-185281.1
-189412.35
-192243.53
-194453.66
-192610.95
-193285.56
-193103.91
-178352.69
-175451.94
-175252.61
-177504.06
-175159.96
-177137.1
-176056.6
-167708.35
-167297.52
-167583.93
-168246.16
-168529.41
-169538.73
-170230.81
-159979.61
-157109.77
-156090.86
-157873.55
-156526.93
-156328
-156889.91
-150582.12
-148950.73
-147163.75
-148452.48
-147238.6
-147123.51
-150287.5
-141409.11
-139649.18
-138326.12
-139905.62
-138493.26
-135616.3
-139712.22
-133671.62
-129780.78
-131265.56
-129463.2
-130892.16
-128790.89
-132561.34
-124459.75
-122563.63
-123523.44
-121578.3
-123314.51
-119974.09
-123421.64
-117744.68
-114813.86
-116104.92
-113813.14
-115393.42
-112744.26
-116291.5
-110169.92
-107465.26
-109000.73
-106839.58
-109006.72
-106395.53
-109736.64
-103227.24
-101353.87
-102410.16
-100402.27
-102599.19
-99906.697
-102742.77
-97100.064
-95361.143
-96730.461
-94583.813
-96931.693
-94064.71
-97120.011
-91534.16
-90185.388
-91531.008
-89232.525
-91597.172
-88907.14
-91955.231
-86504.29
-85378.663
-86751.516
-84591.67
-87020.618
-84387.546
-87222.516
-82427.597
-81127.554
-82588.593
-80441.167
-82778.696
-80335.126
-83047.098
-78584.02
-77490.981
-78901.626
-77061.103
-79275.992
-76930.868
-79568.957
-75636.24
-74371.334
-76072.659
-74144.421
-75983.367
-74111.987
-76466.641
-72869.735
-72208.108
-73381.951
-71535.601
-73869.412
-71987.646
-74317.406
-70786.664
-70611.566
-70857.403
-70345.097
-71659.162
-70293.007
-72305.017
-68927.407
-69370.298
-68771.943
-69543.63
-70641.807
-69870.285
-71480.722
-68821.801
-68310.035
-68578.902
-68589.384
-69325.971
-68950.585
-70547.427
-68437.451
-67742.705
-68072.498
-68489.828
-69104.142
-68779.635
-69630.748
-68067.339
-67590.255
-68106.734
-68234.992
-68596.486
-68718.652
-69213.199
-67974.419
-67646.503
-68346.154
-68335.619
-69048.282
-68794.141
-69138.102
-67790.388
-67984.34
-68300.963
-68477.505
-68864.107
-68448.765
-68781.924
-67660.909
-67734.572
-68254.782
-68311.663
-68649.558
-68122.81
-68510.182
-67027.376
-67503.903
-67820.325
-67821.854
-68046.736
-67380.589
-67623.223
-66110.606
-66514.737
-66854.569
-66785.012
-66781.856
-66045.807
-66246.81
-64363.445
-64938.361
-65278.3
-64983.093
-64943.63
-64152.745
-64239.013
-62183.552
-63105.783
-63072.979
-63060.79
-62514.339
-62107.584
-61470.637
-59881.397
-59420.851
-60483.085
-59113.527
-59232.896
-58672.334
-57730.843
-56381.805
-56701.164
-56088.055
-56197.036
-54969.579
-54128.099
-54112.961
-51719.671
-52079.219
-51984.824
-51517.047
-50720.558
-50373.397
-49999.496
-47573.154
-47296.112
-47663.633
-46654.461
-46053.051
-45622.691
-45118.35
-42116.64
-42455.81
-42136.7
-41348.086
-40785.717
-40140.251
-39621.205
-36701.359
-36651.361
-36206.983
-35840.806
-34916.859
-34470.412
-34087.821
-30502.83
-31137.811
-30589.492
-30438.106
-29142.126
-28879.479
-28387.548
-24454.927
-24393.26
-24054.178
-23531.394
-22588.973
-22481.868
-21838.085
-19341.177
-20272.993
-19614.302
-19564.865
-18612.639
-17807.826
-17065.611
-15003.648
-14746.728
-14640.694
-14265.022
-13269.892
-13310.85
-12421.617
-11075.88
-11626.26
-11396.878
-10335.952
-11323.276
-10331.855
-9065.6404
-21051.447
-23753.687
-26774.032
-26977.921
-25870.35
-24635.226
-21943.972
-11303.072
-12206.991
-13191.488
-13804.163
-13346.076
-11574.536
-9709.1582
-8824.482
-10295.795
-11518.207
-11413.962
-11078.141
-9016.1219
-7922.2883
1344.9474
1766.2157
1498.9716
1521.1152
2198.9244
1610.7032
2743.4171
7841.6207
8119.0646
7609.4075
9025.1375
7675.4764
7568.8046
7133.4861
13807.839
17204.587
18006.41
18162.521
19276.647
16177.479
15360.658
18577.365
18910.359
21015.074
20848.983
20076.304
18952.447
16513.241
255123.47
258394.31
286161.4
281383.1
287896.01
273340.36
262832.5
260574.34
270292.32
282213.05
280787.37
284490.19
266082.48
261499.82
246616.84
252298.16
259139.36
260448.88
260077.39
244986.94
243906.79
231526.91
240317.84
246237.18
248751.02
245778.66
239263.12
238053.95
225688.8
228421.16
231255.39
232610.68
232903.16
227203.56
224000.9
212833.07
215096.98
219416.93
216878.17
219038.5
213468.06
214715.05
205606.52
205867.91
208015.98
206815.16
211033.72
206484.48
209457.09
193334.51
193224.71
196460.31
192055.58
196165.17
192593.29
195305.55
185071.04
185148.3
186447.84
185126.95
189076.84
184587.42
190058.6
175146.19
173694.66
175859.65
172931.82
177277.52
173749.48
178784.01
165869.11
164561.65
167781.52
164140.23
169253.48
165255.18
169897.97
156184.21
156193.6
157324.21
154740.32
158513
155687.41
160702.08
148476.56
146664.9
148426.97
146178.15
149808.53
147241.92
149141.3
139581.99
139023.27
139473.77
138550.51
141354.43
139912.64
143968.11
131894.15
131134.32
130990.44
131161.54
132825.23
131656.07
135453.16
125345.55
123499.27
124553.54
123408.07
126369.65
124609.42
127540.77
118053.03
116855.54
117255.01
117282.93
118792.13
117877.62
120692.16
112119.35
110363.68
111588.08
110808.98
112638.95
111945.84
114510.57
106234.31
104912.37
105818.14
105208.26
106979.96
106390.2
108776.46
101597.37
99595.911
100780.17
100154.35
101893.5
101356.23
103602.27
97292.733
94912.312
96404.906
95665.624
97358.576
96908.033
98904.583
93529.144
90913.08
92604.89
91737.769
93389.85
92859.826
94861.346
90550.214
87567.918
89459.981
88377.328
90026.206
89556.368
91295.059
87916.22
84816.003
86692.569
85493.525
87066.124
86418.142
88218.276
86171.231
82232.574
84621.763
82957.56
84647.096
83983.642
85709.322
84658.175
80352.451
83056.532
81144.291
82826.756
82152.095
83566.413
83505.066
79240.59
81691.46
80057.955
81307.06
80655.023
82254.424
83054.91
78544.593
80813.483
79248.121
80334.192
79668.541
81095.831
82253.841
77754.735
80647.693
78612.459
79631.621
78815.069
80327.345
81858.25
77801.542
80136.799
78345.821
79221.261
78400.519
79801.471
81509.579
77297.114
79986.665
78120.113
78800.768
77772.022
79264.76
80614.933
76896.316
79396.618
77639.233
78093.393
77058.752
78386.186
79591.294
75963.735
78592.593
76732.505
77012.79
76008.417
77600.825
77819.501
74677.077
77125.942
75520.35
75758.95
74800.212
75942.71
75594.62
72564.278
75022.961
73542.982
73312.146
72763.285
73292.642
72300.125
69985.266
72146.334
70515.282
70503.897
69354.976
70177.477
67796.917
66519.112
67835.552
67475.403
66635.905
66594.728
67236.697
64433.624
63591.031
63597.172
63646.528
62986.94
61568.952
63609.698
59004.798
57489.684
58876.5
58001.855
58186.525
57069.529
58508.401
54251.858
53416.528
54058.058
53437.22
53233.081
51738.656
53433.166
47505.725
46392.581
47149.54
46634.938
46641.692
46302.662
47460.991
42270.265
41501.427
42102.326
41503.072
41731.8
40500.925
41695.096
35976.245
35567.601
35692.285
35587.288
35106.119
34306.201
34959.945
28802.694
28449.209
28745.028
28494.055
28476.46
27536.961
29030.904
25151.22
26708.386
27062.238
27246.295
26662.95
25162.729
24483.102
20451.649
20730.35
20510.999
20285.946
20555.652
20578.886
19141.634
23777.41
26445.979
27440.291
28072.811
28151.617
28123.66
26351.293
257105.4
191246.4
186615.77
179643.22
184504.84
182645.72
172803.59
168716.33
162219.68
154950.87
147277.37
139408.46
131405.62
124617.71
117524.36
111761.79
105215.33
99632.709
94517.537
89825.294
85542.118
81711.832
78516.957
75837.721
73570.08
71782.123
70150.125
69022.886
67864.28
66721.548
65442.012
63997.624
62107.548
59839.383
58521.109
53814.573
52338.448
49093.103
45073.844
41277.489
37384.105
32998.39
28928.017
23924.073
19055.908
12703.811
4127.824
158837.47
152608.12
107274.65
125432.05
138026.68
125106.56
130383.4
120420.36
118336.63
111810.55
106904.52
101076.99
94600.856
90039.652
85206.476
80991.784
76205.828
71877.994
68564.088
64914.167
61841.455
59260.385
56932.997
54841.897
53246.784
51429.91
51458.751
50438.733
50046.391
49876.872
49560.685
49380.419
48662.439
48376.674
46611.419
45314.898
43299.227
41077.959
38694.56
35491.338
32149.62
28220.659
24436.251
19877.286
15711.014
10396.832
3624.1499
76921.308
85955.317
45894.612
75177.858
62661.887
59004.779
60015.322
57497.138
55650.168
52858.569
53144.783
50526.333
50531.579
48048.072
46418.799
45214.279
43032.067
41337.379
39883.024
37792.162
36386.005
35002.254
33639.154
32602.979
31653.532
30864.133
30216.611
29240.589
28798.786
28044.3
27340.39
26548.851
25719.365
24696.202
23434.598
22579.229
21178.86
20001.552
18540.438
17379.985
15855.477
14095.083
12261.79
10102.168
8013.0196
5650.4491
-432.18738
191.36333
22172.844
486.03555
15555.421
4960.4355
12867.374
10138.086
4446.3052
9124.6178
8358.4374
7497.7581
9871.159
8234.1011
11326.985
11365.611
11821.624
11578.142
11760.545
11628.184
11467.164
11421.27
11279.465
11036.465
10880.241
10401.129
10086.197
9663.4916
9627.122
9364.1857
9437.449
9418.7862
9735.3571
9785.6387
10008.683
10007.88
10320.349
9780.3731
9773.4674
9436.0121
9026.852
8304.3929
7665.0697
6732.6185
5646.4148
5243.756
3242.7616
605.73852
-95062.582
-43345.154
-55740.17
-33638.8
-48069.652
-33133.605
-41665.889
-36473.385
-31768.887
-32625.055
-27071.978
-27111.547
-24201.662
-23692.649
-20953.995
-19409.071
-17670.349
-16338.338
-14917.563
-13868.572
-13025.679
-12257.864
-11838.029
-11498.165
-11508.409
-11921.466
-11584.372
-11657.397
-11786.692
-11957.737
-12005.817
-11987.814
-11848.876
-11490.654
-11252.966
-10635.715
-10303.55
-9052.3738
-8778.4934
-7557.3981
-6767.2802
-5563.3787
-4736.8861
-3463.7968
-2100.0045
-566.59353
1159.1993
-148783.15
-112653.64
-94591.639
-94563.285
-98615.736
-92160.451
-94086.46
-81295.792
-85703.608
-79976.98
-78158.27
-72578.521
-67821.893
-64294.819
-59966.108
-55971.847
-52107.854
-48362.412
-45235.972
-42749.949
-40740.564
-38801.334
-37508.315
-35498.671
-34188.535
-32435.709
-32155.497
-31472.735
-31137.554
-30603.175
-30247.101
-29531.383
-28778.187
-27815.598
-26707.624
-25295.188
-23683.834
-22487.194
-20436.749
-18262.525
-16652.27
-13863.596
-11871.32
-8918.3048
-6269.1644
-1917.7233
1361.4032
-195594.49
-153241.41
-160263.03
-150679.49
-163494.68
-152302.03
-148632.49
-141511.36
-136161.84
-126722.91
-120233.93
-114365.01
-106802.82
-100686.53
-93944.673
-88711.628
-83600.186
-78900.31
-75132.5
-71336.792
-68084.881
-65300.577
-62858.067
-60704.914
-59076.651
-55662.123
-54752.556
-53754.48
-53114.034
-52537.572
-51942.853
-50918.768
-50203.744
-48749.227
-47345.954
-45660.049
-45060.612
-41042.963
-38515.884
-35737.995
-32224.531
-28253.456
-24716.639
-20227.566
-14837.383
-10151.309
-3501.0913
319349.7
343843.87
340072.42
350469.24
348699.71
329380.93
305439.99
215147.49
249929.95
248105.56
255673.79
248556.69
237030.04
217156.41
204471.93
221257.95
234234.97
234735.31
229551.58
228141.14
214094.44
189770.01
195184.74
199418.77
204932.88
198262.43
199422.4
182427.95
181874.04
187692.43
195096.82
191998.82
191848.84
188384.49
175946.52
174471.28
181485.19
176979.69
184454.4
178620.84
178205.57
177290.03
168504.06
169809.91
169881.82
171307.52
166688.47
169683.61
166164.38
159626.05
166079.95
160416.67
165978.09
163413.26
161936.18
161478.53
154346.6
155092.72
150442.87
156464.86
150310.41
154909.09
153213.26
145219.39
148028.28
145188.66
149363.81
144920.87
148045.87
146232.08
138347.22
140769.05
136031.17
140516.73
136633.97
139646.02
139317.59
132187.76
132076.68
130293.17
132618.87
131089.82
131839.13
132426.06
124202.47
125633.28
122892.24
126368.33
123775.12
125864.47
127020.92
117749.1
117461.58
116718.55
118988.35
116490.66
118573.99
119000.34
111578.37
111375.43
111264.7
111565.43
111013.34
112499.41
112640.76
104835.21
105334.78
104882.68
105955.76
104711.07
105528.92
106556.02
99095.821
99345.899
99008.338
100037.79
98957.461
100319.01
101340
93742.299
94428.519
94171.321
94608.488
93891.813
94950.098
95481.753
88965.907
89736.391
89007.944
89796.237
89092.206
89817.496
90468.282
84539.058
85352.482
84802.682
85461.67
84616.496
85387.829
85948.705
80183.306
81883.397
80922.211
81518.347
80647.736
81303.196
81752.333
76785.063
78792.449
77456.021
78013.303
77103.284
77732.987
78083.148
73682.823
76201.652
74403.419
75065.662
74055.411
74696.259
74692.79
71079.366
73849.39
71824.92
72581.606
71544.438
71979.72
71916.142
68482.971
72600.451
69895.182
70945.333
69552.713
70295.673
69825.589
67420.094
71136.426
68609.811
69116.849
68477.559
68255.12
68193.077
66333.455
69949.729
67541.703
68003.451
67250.667
67133.758
66662.56
65036.921
68509.271
67329.472
66846.332
66347.958
66281.202
65649.993
63870.15
68566.383
65607.763
66125.169
65656.281
65498.583
64807.001
63043.542
66842.386
65072.329
65328.768
64736.413
64634.558
63848.022
61402.605
65825.305
63759.803
63963.88
63657.131
63516.612
62897.184
59821.421
64110.454
62340.066
62547.251
62255.229
62328.106
61655.329
57756.32
62123.152
60514.118
60550.518
60762.626
60639.719
60348.61
55475.182
59823.05
58208.633
58359.805
58515.492
58649.448
57847.029
52889.68
56752.855
55688.73
55443.378
56236.864
55367.728
56033.672
49621.864
53938.088
52911.62
52813.33
53267.344
54295.506
53645.422
47848.328
50917.774
49747.757
49000.988
51159.421
49344.22
51474.986
44145.402
46287.174
47196.171
46132.121
46454.129
47666.502
46989.353
40861.363
43135.329
42498.353
42910.934
43207.836
43804.358
43720.911
36929.908
39508.219
39045.633
39396.175
39155.917
40041.109
40034.984
33986.018
35404.514
35558.097
35233.704
35641.759
36025.283
36115.002
29795.984
31947.356
31802.595
31917.325
32214.208
32056.209
32138.179
25937.716
26614.382
27002.163
26801.239
26959.026
27252.301
27705.486
22535.52
23599.639
24500.621
23993.607
24735.535
24545.895
24059.398
17404.191
18105.156
18155.505
18165.851
18361.825
18589.742
18480.494
11601.583
11438.215
12821.721
11698.512
12554.329
12531.47
11666.085
4404.2361
2242.5133
2040.4752
2053.8987
2428.5524
1798.3735
4325.5896
206650.9
215344.76
235295.06
230985.84
238053.99
218264.38
214547.1
155627.22
195747.26
199441.05
206044.55
204176.66
189086.57
175145.74
151635.61
141635.7
158840.89
152919.93
159783.59
142330.23
146088.87
126254.96
133988.9
142156.54
140047.37
142101.17
137640.34
121004.51
128923.18
130014.44
137437.28
132961.05
139627.42
127658.26
129685.58
119956.08
119825.06
122273.32
120487.03
119140.07
122124.61
120323.46
116435.12
117213.3
124056.89
118289.41
123428.95
121606.45
117708.61
111185.52
109813.57
111729.94
109194.67
112616.49
109633.94
113827.96
106908.89
104775.31
110961.61
106495.95
108181.94
108977.01
109343.65
100858.88
100390.75
103416.73
98325.098
103082.9
101665.5
104431.67
96449.565
95260.322
97852.698
95045.698
97510.909
97554.167
99142.18
91549.708
89664.679
94046.939
89548.65
93809.328
92177.88
95865.831
86530.67
85307.042
88798.673
84112.168
88062.636
86154.301
89092.572
81895.282
81371.335
83558.843
80083.003
83410.608
82304.928
83590.042
77473.399
77719.922
77747.563
75597.458
78455.808
77245.666
78924.463
73330.491
73057.397
73196.832
72044.151
73677.512
73429.901
74373.484
69098.245
69194.894
69218.866
67780.037
69457.924
69661.225
71073.825
65278.851
65531.28
65095.727
64384.155
65689.928
65915.571
66640.903
62053.514
61727.869
61629.041
60823.506
62084.12
62253.241
63397.51
58742.569
58496.16
58532.594
57792.604
58882.149
59125.724
60280.8
56272.387
55596.453
55700.806
54832.205
55957.533
56268.66
57381.394
54111.624
53022.656
53141.172
52389.203
53527.73
53797.352
54726.541
52343.423
50574.652
51086.103
50257.682
51475.821
51428.119
52604.655
50751.873
48842.545
49535.885
48676.149
49718.708
49723.332
50946.834
49674.26
47497.502
48282.279
47222.582
48406.933
48183.53
49339.231
48762.821
46645.451
46419.009
46950.517
46733.719
47007.457
48218.704
47480.691
45599.221
46446.427
45240.704
46637.006
45693.343
47355.099
47653.377
45196.252
45437.121
45137.379
45865.842
45442.688
46436.363
46802.872
44446.582
45677.466
44591.274
45768.662
44715.093
45832.074
46365.086
44329.113
45091.279
44435.405
45192.216
44501.432
45118.475
45731.915
43968.205
44892.49
44228.006
44975.62
44183.945
44510.477
44814.571
43665.186
44316.806
43980.317
44525.236
43946.814
43713.171
43862.041
43134.964
43662.073
43499.566
44068.46
43256.364
42566.952
42533.576
42273.729
42640.805
42873.938
42974.927
42201.024
41600.625
40645.655
41267.323
41582.792
41831.689
42155.585
41791.04
40736.73
39118.003
40143.201
39854.934
40575.867
40671.668
39559.888
38478.45
36465.317
37979.46
37908.12
38760.99
38629.849
38091.584
36998.253
33999.817
36380.132
35821.666
36912.655
36532.707
36192.656
34745.447
31359.287
33208.913
33575.011
33795.918
34329.798
33821.136
32165.73
28673.454
31435.273
31192.331
31646.603
31525.487
31108.608
29423.499
25972.147
27647.896
27990.468
28041.203
28698.119
28060.778
26689.479
22707.394
25272.662
24881.549
25426.709
25396.623
24755.027
23954.644
20095.038
21244.422
21532.027
21568.941
21714.092
21366.166
20617.683
17105.324
18670.501
18488.51
18587.283
18843.165
18235.635
17611.103
12181.273
13813.722
13515.69
13698.504
13621.296
13090.076
12261.911
8142.1701
8791.8672
7984.9277
8200.7486
8379.1001
8287.498
7621.8707
2627.8306
515.40196
-773.99327
-467.58792
-243.32851
141.10636
1403.2445
122647.95
123669.63
118538.09
128648.75
122367.94
114753.62
109437.2
84860.005
121408.47
114094.03
123711.44
109043.53
110654.9
93208.517
82897.666
75115.036
80407.551
81890.489
77686.908
71951.778
71382.237
62933.159
76022.537
80520.877
86109.003
77155.256
81650.175
65374.677
69590.01
66128.005
69627.781
64909.554
66606.499
60586.397
63695.649
60437.922
67467.429
62639.951
65202.766
64043.216
63983.321
62149.044
60980.138
63974.819
57321.997
60751.369
61316.829
57782.756
59352.229
57149.308
63938.46
54649.516
59767.386
56838.95
55683.903
58545.095
56788.328
61770.379
52271.168
56191.097
54948.088
55291.452
56117.564
53918.026
58710.69
48837.084
53156.452
52911.978
52179.331
53687.907
51553.232
56528.338
47113.646
52374.337
50545.689
51107.78
51282.576
48401.607
53442.657
44227.278
48571.082
47666.231
47775.101
49136.437
45038.877
51797.176
42232.559
46961.535
46031.175
46087.051
47150.576
43040.015
47735.772
41141.221
44593.753
44637.212
42555.146
47029.712
41631.161
43757.571
39264.115
42391.46
42085.361
41220.202
44166.002
38913.7
41179.047
37933.714
39703.831
40352.332
39231.288
42339.427
36616.054
39174.076
36133.684
38175.528
38192.383
37626.887
39948.813
34885.116
37058.514
34529.452
36371.107
36400.269
36129.075
37670.022
32954.642
35490.384
33047.079
34844.76
34682.033
34452.658
35916.389
31524.042
34094.151
31710.775
33462.293
33146.029
33240.97
34309.533
30050.227
32866.867
30574.256
32141.726
31865.726
31952.327
32548.723
28864.068
31689.766
29570.896
31122.228
30829.99
30690.353
31293.286
27951.429
30845.431
28946.587
30408.75
29706.874
29753.223
30111.38
27187.872
30119.699
28459.511
29449.765
28890.014
28922.858
28832.596
26742.959
29492.445
27966.48
28793.203
28330.404
28101.004
27927.821
26382.553
28626.137
28033.384
28108.16
27885.595
27512.821
27304.888
26309.52
28509.238
27565.704
28200.154
27217.829
27382.446
26506.87
25718.687
28572.855
27115.759
27783.053
27091.166
26556.941
26366.95
25347.726
28009.615
26821.833
27231.594
26737.778
25977.255
26199.451
25104.591
27490.336
26338.221
26875.224
26300.258
25484.741
25942.121
24593.274
26743.844
25767.844
26206.304
25709.295
24834.574
25747.372
23943.793
26020.297
24897.786
25437.585
25014.114
24077.04
25227.892
23363.3
24927.224
23965.993
24518.507
24098.947
22943.396
25032.276
22349.884
23849.175
22929.272
23498.777
23106.273
22431.898
24517.998
21595.327
22715.503
21728.78
22211.014
22090.264
20805.836
23595.696
20351.328
21131.233
20338.241
21081.383
20603.613
20131.424
22724.514
19556.759
20022.243
19391.631
19600.081
19819.691
18509.132
22250.685
18016.397
18589.052
17784.278
18647.762
18222.991
17831.461
20757.233
17243.276
17388.395
16709.881
16913.407
17205.54
16227.557
19440.246
15761.404
16613.616
14883.271
16457.856
15730.408
15276.663
17792.037
14649.48
13881.721
13568.628
13961.97
14041.931
13574.269
16351.03
13173.324
14227.719
12985.207
14125.88
13581.232
12940.801
14558.383
12125.09
10560.256
10449.117
10692.278
10743.849
10334.042
12818.547
10209.888
10376.336
10431.765
10865.114
10712.446
10364.22
10962.184
7552.1043
6336.2394
6414.5888
5875.7624
6430.6215
5771.7037
7120.1177
5778.7392
4704.0333
4234.4592
4281.5384
4797.8186
4395.2809
6376.4417
2357.0143
-1209.6495
-952.86929
-1407.2981
-1589.8804
-1687.7183
-155.59655
13093.043
5768.1147
10924.289
11147.699
8986.9329
7998.7642
14770.196
3760.5028
9635.762
9139.5928
13318.924
8590.4247
10621.535
4762.5218
15446.959
-2477.2407
2790.0732
-2533.9975
1569.2364
-2204.2172
8002.3502
3231.1389
827.26856
9662.5933
5997.1626
5343.6079
10885.92
322.55952
8417.8502
7161.5752
7930.7903
-2185.7927
8115.8723
-5057.7664
9403.1029
6267.0039
1719.6678
1153.2504
3691.5883
2852.022
5966.1665
4109.9928
6094.8556
6279.4811
10292.654
3697.6158
8514.3036
3802.289
8309.8257
6788.9865
4699.3539
3565.3786
5009.9916
4273.2545
6310.8272
7145.1777
5362.3309
3829.064
7478.4876
4100.4892
7598.1262
6656.4999
4851.9394
4758.8916
5796.2819
5984.8683
4352.9883
6133.9505
5203.6424
7278.9175
4999.3493
4850.6752
5555.8121
3973.2627
5347.7692
5999.275
6746.2459
4270.1028
5099.0381
5171.2678
4632.8679
5707.4111
6939.9185
6524.6812
5005.1603
4376.8881
5295.9959
4225.8289
6542.6347
5491.7167
7588.6053
4714.9311
4069.0164
7862.6539
4936.6964
4765.0507
6687.672
5664.4843
5302.9237
6547.9693
3987.8578
5466.3065
5099.4392
6357.9782
7180.7613
4598.3828
6093.3533
4061.0984
6212.6147
4516.6366
6553.0372
7153.8723
5090.1026
5764.7823
4464.3406
6515.3791
4660.9555
6512.8414
7638.2103
4706.8957
5945.0185
4600.595
6468.9446
4644.4844
6610.8746
7468.7723
5058.3266
6165.6172
4772.3464
6436.0718
4846.6294
6490.1592
7588.6149
5253.1751
6172.9585
4782.8571
6399.0034
4865.7227
6612.2171
7288.0089
5528.7729
6219.3587
4915.2213
6321.8346
5107.5416
6337.434
7193.8178
5947.5983
6529.2279
4980.4895
6446.5811
5020.8042
6410.9681
7143.9148
6262.1293
6547.0917
5300.7284
6076.2419
5210.8966
6274.2054
6911.518
6623.3932
6582.6107
5396.1374
5967.429
5487.489
6176.869
6911.1343
6628.7896
6717.6468
5571.5317
5861.8644
5815.3927
5873.4561
6955.6608
6676.1941
7401.814
5389.5906
6133.1285
5891.8155
5709.2382
6948.3159
7092.8443
7046.2935
5662.9519
5884.534
5860.5493
5549.8677
6651.0429
6932.3602
7059.2992
5649.1447
5770.0854
5710.7191
5607.0237
6514.4743
7023.2575
7039.6062
5717.9023
6064.2083
5850.7821
5795.8868
6523.8038
6727.5649
7065.5904
5802.4554
6054.0628
5735.4117
6046.2681
6360.3832
6547.9738
7043.7103
5858.201
6350.847
5917.4973
6386.318
6214.9831
6323.7979
7010.5222
6025.5879
6625.5698
5854.6777
6846.7084
6064.2992
6024.4307
7002.7633
6236.9817
6891.1898
6224.0867
7481.9573