/*--------------------------------*- C++ -*----------------------------------*\
  =========                 |
  \\      /  F ield         | OpenFOAM: The Open Source CFD Toolbox
   \\    /   O peration     | Website:  https://openfoam.org
    \\  /    A nd           | Version:  6
     \\/     M anipulation  |
\*---------------------------------------------------------------------------*/
FoamFile
{
    version     2.0;
    format      ascii;
    class       pointScalarField;
    location    "1.34";
    object      E;
}
// * * * * * * * * * * * * * * * * * * * * * * * * * * * * * * * * * * * * * //

dimensions      [1 -1 -2 0 0 0 0];

internalField   nonuniform List<scalar> 
28033
(
42021.055
40614.104
-1520055.5
-792287.89
50472.566
50458.575
-1177143.9
-2316223.3
24759.101
14793.857
9243.6059
6778.0772
4333.8589
3083.2763
2062.163
1548.297
2579.7073
4288.2107
8713.4177
14555.717
21346.756
27320.372
37481.603
-818057.84
-778760.12
-761494.34
-759337.98
-771216.4
-793363.13
-823185.88
-854319.3
-883942.08
-909111.55
-927095.97
-937861.29
-937371.9
-922866.02
-683280.45
35361.956
21936.659
20889.753
20522.659
20793.117
20904.21
20916.161
20685.171
20520.526
20434.891
19955.547
19689.286
19225.829
19072.422
18592.762
18123.704
17670.114
17482.447
16965.125
16537.474
16194.171
15811.564
15322.075
15004.53
14514.86
14202.285
13726.228
13283.44
12973.99
12426.064
11974.34
11631.551
11070.231
10702.304
9847.0187
9766.1953
9330.5254
8343.7638
8247.8073
7670.15
7086.9809
6624.535
6097.7158
5614.286
5101.4223
4653.507
4118.81
3711.0095
3168.9684
2765.5906
2245.973
1822.0127
1340.0286
885.82938
430.2204
-30.20229
-491.64089
-949.01886
-1407.0808
-1865.428
-2340.6808
-2778.1118
-3242.5756
-3600.6249
-4211.5919
-4658.3875
-5209.983
-5561.246
-6097.9972
-6220.2573
-6561.4692
-6866.1692
-7064.7175
-7389.3638
-7309.3484
-7741.2208
-7390.5843
-7785.5372
-7264.2874
-7633.5181
-6893.6699
-7191.3992
-6294.8189
-6455.9091
-5632.0353
-5198.4542
-4480.8464
-3886.1616
-3053.4198
-1798.7348
-2589.4914
74.192549
-1214.1439
189.52749
17042.302
33263.358
17423.543
22436.651
18778.072
19783.275
20102.474
19320.201
19272.983
19002.734
18175.369
17800.039
16843.451
16498.061
15347.19
14806.677
13762.364
13085.106
12330.909
11465.824
10698.012
9750.328
9119.5424
8114.2606
7714.6957
6858.5473
6391.6383
5629.7939
5080.9719
4499.7394
3986.9188
3317.5898
3009.0829
2452.742
2206.7808
1695.5826
1769.6194
1171.8832
1189.7982
924.9075
961.46763
886.41501
968.32086
1050.6852
1253.3794
1451.3406
1788.1654
2121.3731
2571.2085
3054.4375
3609.1982
4231.3292
4903.1586
5633.9256
6427.1858
7254.3028
8138.5886
9058.67
10012.241
10986.959
12003.418
12995.519
14038.121
15017.21
16067.674
17002.396
18025.882
18895.611
19945.026
20553.882
21248.195
21861.413
22336.95
22925.198
23187.593
23506.055
23604.591
23640.372
23613.251
23340.021
23136.016
22632.359
22198.709
21492.393
20872.062
19954.532
19163.963
18102.951
17172.27
15943.074
15007.142
13711.858
12667.176
11383.944
10458.903
3471.8488
30502.392
18874.247
11878.133
9993.0774
5415.6269
3515.3039
2450.9467
1930.2672
2871.6259
5712.1948
8857.8721
14849.682
21246.611
29965.57
36806.6
64412.776
27730.268
14398.753
22684.251
21038.742
20279.176
21209.2
21165.882
20538.751
19346.349
20061.684
17392.541
18431.244
15354.154
16780.179
14966.083
15104.053
12285.242
13530.511
10994.231
11315.007
9903.7352
9380.7757
8763.1742
7752.8644
7367.7907
6342.3134
6127.2679
4990.6468
5308.853
4373.4956
4036.8196
3568.7819
3513.2772
2382.8406
2243.8096
3140.0462
2518.3573
2430.1174
2423.7258
2515.1109
2632.0382
2830.8028
3070.2021
3385.4775
3746.8072
4162.7531
4635.0314
5147.9738
5713.1728
6313.2087
6956.0659
7630.1504
8322.8214
9049.7525
9777.1805
10521.791
11265.946
11998.373
12730.353
13428.28
14115.408
14757.448
15371.383
15923.885
16537.392
16948.902
16485.638
18958.813
17608.718
18257.899
18120.902
18204.882
18153.332
18011.687
17774.381
17506.498
17121.77
16644.394
16142.716
15485.86
14861.738
14060.42
13321.097
12352.008
11519.519
10442.822
9452.7464
8371.4978
7319.7027
6189.8212
5221.2223
4019.5146
2993.5664
3102.4036
-1926722.9
-1870293.9
-1678428.9
-2018039.2
-1656790.9
-1942763.8
-1563670.8
-1708465.6
-1739172.6
-1568688
-1367576.6
-1631816.5
-1369450.8
-1702923.5
-1692828.6
18113.114
8251.7723
10456.093
9975.2241
9430.0104
8743.2624
8089.095
7411.6833
6641.4949
6096.158
5350.6459
4698.4416
4138.8018
3430.2591
2823.5494
2197.7205
1614.94
1016.1047
486.43102
-62.853579
-556.34742
-1067.0296
-1469.6327
-1923.595
-2183.5592
-2413.3385
-1160.1218
-3344.5497
-3286.4086
-3624.734
-3606.951
-3705.7737
-3727.0042
-3688.7539
-3611.6434
-3489.0672
-3320.7878
-3105.5234
-2851.9562
-2557.8609
-2222.054
-1859.4684
-1455.2155
-1030.7832
-569.11192
-96.980263
417.19751
922.91951
1476.5382
2016.0271
2593.6658
3164.9392
3772.433
4311.4828
4946.9155
5560.3407
5312.8272
8008.7903
8164.5598
6632.6004
9819.8637
9458.2317
9602.869
9796.8353
11439.954
11586.131
11947.607
12741.829
12801.198
13766.977
13888.682
14599.09
14976.227
15828.456
15725.759
16507.709
16852.202
17288.663
17995.411
17603.87
18922.821
19318.266
19198.444
19442.789
21517.632
19659.787
20876.562
20894.977
21702.295
20144.92
20681.934
21083.004
22523.779
19325.197
40204.357
31830.08
29811.373
28822.23
28791.732
29339.05
29759.423
29558.042
29828.865
29802.131
29723.886
28630.642
28038.28
28502.551
29206.286
31971.7
28111.155
28924.31
27584.335
29260.046
29272.524
28761.583
30967.62
33139.362
31902.827
32016.746
30519.271
29278.869
28985.076
28644.364
31956.187
-889619.92
-889893.02
-889451.76
-889961.73
-889347.01
-889157.01
-889266.33
-889249.1
-889212.74
-889259.09
-888932.16
-889420.48
-889531.89
-889390.97
-889246.26
-1716236.5
-1714265.6
-1714105
-1712992.6
-1714721.3
-1714538.9
-1714645.1
-1714684.3
-1714697.9
-1714661.6
-1714682
-1714750.7
-1714287
-1715508.9
-1718490.2
24650.648
16983.736
16173.913
15831.723
15785.634
15965.409
15947.053
16177.471
16023.304
16310.05
15976.951
16197.343
15808.003
16028.482
15496.022
15698.9
15348.813
15270.401
14960.908
14896.576
14630.38
14396.232
14232.226
13862.985
13634.334
13285.942
12971.326
12570.978
12158.797
11750.039
11189.228
10806.21
10319.552
9768.4757
9269.1353
8562.2446
8118.6202
7403.3897
6853.7438
6226.3763
5612.0063
4923.6926
4334.8563
3742.6877
3122.5555
2545.2425
1960.0043
1428.4398
884.71828
415.6739
-60.285947
-476.61118
-864.72621
-1218.3422
-1519.3869
-1802.5096
-2017.6492
-2214.0978
-2361.3392
-2465.9855
-2536.4086
-2558.1843
-2569.2123
-2484.042
-2558.9037
-2042.125
-1282.4753
-658.25828
-197.17781
-332.43656
30.307233
192.16381
538.85979
800.32516
1093.9374
1412.6941
1772.9785
2082.3163
2496.6968
2909.3949
3261.5086
3837.5144
4504.21
4820.0811
5231.8845
5750.9456
6327.1588
6813.7748
7804.9177
7549.2887
9266.2263
9397.1627
10283.432
15223.669
22842.478
14727.545
10438.188
11456.325
10852.559
11278.135
11210.177
11419.366
11535.578
11707.119
11843.436
11953.81
12135.927
12230.513
12345.777
12420.094
12646.949
12505.013
12749.975
12714.386
12828.934
12730.968
12812.783
12669.956
12704.294
12592.982
12519.888
12300.48
12180.102
11963.681
11729.549
11477.622
11164.913
10733.962
10326.467
9899.6922
9462.1921
9018.7383
8537.3873
7971.9868
7451.1612
6874.4976
6325.3359
5758.4324
5133.6735
4569.7279
4013.3998
3431.4948
2893.0959
2356.5718
1846.687
1345.3025
881.08517
439.18112
17.228371
-362.90786
-721.06881
-1039.3238
-1336.3404
-1585.5992
-1805.1506
-2003.5386
-2147.5737
-2271.2416
-2337.6412
-2513.467
-2231.0076
-856.99656
3652.2769
5070.3048
5674.7386
6319.0405
6687.7415
7213.7481
7569.091
8175.7232
8383.9169
9085.2369
9137.1508
9933.791
9781.4523
10692.412
10437.251
11145.951
7763.0098
5376.0288
5612.9538
6567.5279
6903.5587
7164.3158
8039.5928
8249.3368
8458.7394
10800.769
13065.062
21101.222
9037.3797
6054.7444
7477.4986
7195.9512
7691.4849
7646.0694
7772.7713
8062.7655
8155.5602
8437.1387
8521.5148
8879.3745
8914.3843
9254.5496
9339.9251
9561.4977
9735.9118
9929.4787
10018.891
10176.226
10302.095
10415.907
10537.211
10589.142
10599.698
10606.143
10595.341
10538.646
10411.178
10295.829
10111.165
9886.2782
9677.0017
9427.8703
9096.8322
8764.3118
8245.3873
7693.2284
7282.95
6791.8303
6227.5455
5791.2403
5148.9726
4604.9904
4058.6652
3478.3107
2895.7849
2363.9271
1809.9702
1291.0355
807.13933
335.06618
-79.755597
-487.48893
-817.97682
-1143.1575
-1397.3996
-1625.1898
-1792.5261
-1932.5889
-2013.916
-2048.7441
-2052.3981
-2007.0649
-1946.1315
-1467.4732
-4744.8912
1381.2783
2495.0712
2840.7725
3106.5292
3257.8304
3633.2593
3856.5167
4155.9893
4463.7802
4760.1979
5105.742
5373.8335
5723.78
6097.8503
6293.9462
6812.6921
6936.5288
4576.7912
5615.4174
6224.0807
6535.0576
7740.6507
7863.6319
8605.037
9714.0612
10363.577
12845.261
16275.247
5708.6555
3684.7009
4510.2743
4664.2557
5029.3017
5062.6051
5304.1074
5455.5178
5515.5733
5697.6863
5869.9029
6055.5098
6135.4715
6441.425
6425.0711
6809.3678
6732.6411
7080.8084
7068.1493
7371.8221
7369.7813
7608.2322
7582.5837
7754.0693
7768.2198
7886.8172
7859.464
7909.3857
7890.8743
7880.1377
7790.0827
7723.4492
7601.3918
7421.0617
7232.8852
7013.0317
6827.2691
6854.3175
6360.6147
6011.4267
5719.1401
5340.5337
5001.1585
4645.4459
4271.8995
3889.1432
3534.0541
3177.5198
2813.1788
2489.1459
2165.0897
1865.6772
1596.4598
1341.6751
1136.2755
937.90647
796.31294
673.28782
592.16353
546.56817
530.52221
566.81236
589.64573
742.80943
800.31453
1090.0447
1518.399
-740.41656
-846.28944
-558.62668
133.31922
572.22909
336.82803
273.80481
744.84696
990.50401
1610.8618
1821.8704
2592.0565
2816.1751
3697.9913
3877.5943
5101.1122
5032.9812
7880.8783
8726.0269
9614.8056
10245.825
10987.926
11042.156
12527.345
11660.737
12934.922
11783.609
10364.823
3635.975
1915.5782
2804.1665
2694.6872
3191.8884
3148.2483
3376.2644
3375.1704
3497.679
3648.9183
3681.7604
3823.5946
3891.1511
4033.7539
4075.2311
4245.6887
4263.2246
4456.8864
4443.1989
4621.8108
4625.1074
4799.1799
4815.464
5006.7794
5001.6178
5135.4852
5176.961
5246.3295
5260.6513
5294.7704
5300.6409
5321.8
5263.74
5276.1276
5137.4008
5086.0726
5299.7291
5352.323
4663.5244
4020.9732
3925.8115
3736.788
3636.4386
3501.0783
3401.3509
3282.0956
3208.7123
3110.0137
3062.9957
3021.686
3013.7385
3019.5042
3075.529
3131.9778
3248.5228
3364.4167
3538.082
3715.1289
3936.8784
4167.2372
4446.6582
4695.5979
5025.4287
5331.1802
5664.4981
5970.3265
6442.7371
6578.7638
7092.4998
7467.7084
7871.4772
7794.7437
7750.3673
6034.0932
5953.1056
6411.6607
6722.2782
7283.9041
7641.2244
8169.1946
8599.4939
9213.8411
9525.245
10204.402
10766.739
11167.558
12080.156
12281.761
13125.534
13742.614
14206.223
13783.081
13582.914
11265.067
4962.8598
2007.4299
1067.5408
1491.3666
1519.195
1721.7452
1875.0766
1844.875
1943.2487
1925.381
1981.856
1920.2831
2078.5032
1924.5989
2155.371
1954.8764
2218.1195
2005.0676
2304.2873
2129.63
2406.4669
2279.8866
2519.3947
2441.0949
2636.7246
2573.572
2793.9597
2739.1469
2919.4904
2945.0883
3077.9412
3131.5137
3195.9421
3280.4092
3321.0651
3345.994
3483.8179
3110.7617
5110.3565
4870.2624
4535.8044
4496.6501
4436.525
4343.5777
4290.3999
4162.0543
4039.4828
3895.8164
3760.6806
3607.9217
3460.4049
3302.8031
3155.9517
3007.6269
2867.1597
2740.6043
2623.4024
2523.4259
2436.105
2381.9299
2332.7123
2304.7147
2340.2211
2326.6197
2414.3709
2484.488
2614.2494
2718.1935
2864.7367
3133.0831
3324.9274
3652.7926
3421.7338
3377.0283
6431.1098
7161.0994
7379.8822
7948.0583
8313.1536
8947.2548
9223.7185
10096.28
10093.299
11229.799
11240.49
12259.306
12641.918
13611.521
13980.846
15312.302
15051.323
16065.912
14986.157
15621.802
11550.819
2678.5414
1356.3748
161.06567
781.66361
462.83468
856.61767
736.47963
877.12905
785.02492
828.91441
770.00229
740.73373
719.38138
652.64696
677.80173
542.78358
654.28618
476.89984
605.58204
411.54113
591.91571
426.53316
657.75643
488.16896
714.34292
670.2884
827.54697
846.77867
1028.6555
1048.6211
1240.7975
1285.0191
1482.8257
1580.9649
1710.0239
1883.1023
1938.4813
2155.1211
1992.7317
2757.2926
2626.4073
2733.2473
2812.6718
2874.4619
2946.239
2980.7256
3022.752
3081.087
3104.1354
3147.7324
3172.4141
3219.938
3248.9038
3307.2398
3355.4293
3433.1528
3504.097
3611.3586
3719.0485
3860.6202
3997.5605
4200.6007
4375.9585
4603.7413
4866.1595
5119.1615
5435.2106
5724.8707
6104.0597
6452.2654
6788.7985
7270.5549
7621.6805
8024.5706
10086.162
11143.908
11552.541
11873.846
12429
12738.225
13330.147
13584.875
14095.361
14600.788
14632.53
15547.852
15258.177
16135.736
15959.883
16563.233
16386.329
17363.006
16663.621
16989.078
13360.509
4435.1985
976.93623
-11.608579
199.79569
163.48776
212.45093
287.521
248.46567
213.32076
121.07015
103.90959
-89.083677
-43.509934
-282.33128
-216.99027
-451.9285
-349.73139
-590.63626
-424.18737
-620.60985
-473.77057
-683.38114
-519.25754
-657.75816
-360.09109
-544.30412
-229.71812
-295.11088
-39.931451
-12.941558
228.84058
316.51291
553.10476
654.23015
908.04256
1047.6117
1265.7592
1436.1207
1691.9179
1861.8365
2113.6438
2275.4296
2481.887
2645.1815
2831.0462
2973.2983
3174.3965
3330.8496
3517.4938
3689.0226
3882.5338
4061.8903
4265.4419
4465.2523
4681.4823
4904.7428
5140.9687
5396.2253
5656.0042
5933.7921
6237.3622
6543.6405
6859.5888
7214.7287
7566.6695
7921.5662
8301.5469
8692.58
9102.397
9448.7626
9944.2771
10240.83
10684.273
11166.031
11363.438
11770.048
12099.617
12540.989
12858.993
13279.439
13504.505
13932.829
14105.028
14449.796
14545.384
14989.449
14806.966
15529.584
15190.942
15997.104
15647.875
16312.652
14891.772
16523.742
14679.15
7665.9625
1490.5857
162.82461
505.38526
180.91671
291.48822
214.42443
260.99147
29.156591
-12.398511
-188.35726
-363.87859
-503.83959
-693.32192
-794.08275
-1038.302
-1052.7707
-1304.8504
-1293.6435
-1511.7167
-1434.2347
-1521.3072
-1225.9617
-1313.3229
-1269.0456
-1290.8379
-1142.0395
-1164.831
-953.17595
-924.82795
-689.42605
-595.99175
-371.46812
-203.39574
40.321913
202.59482
490.98614
671.86576
951.2167
1163.5847
1432.4184
1694.1903
1946.1913
2249.1431
2520.8181
2837.0762
3111.7012
3420.0028
3703.4797
4015.5597
4308.9701
4628.5433
4934.6418
5260.1451
5584.2644
5915.6222
6258.7746
6607.9018
6951.159
7337.0512
7691.6908
8075.66
8471.8351
8870.7632
9263.2726
9683.4786
10122.794
10536.274
10953.742
11442.221
11817.109
12287.997
12775.42
13108.399
13660.769
13654.576
13367.359
13704.963
14066.026
14259.369
14709.149
14753.808
15150.247
15237.745
15339.627
15646.575
15238.144
15767.085
14867.274
15257.501
14442.76
14654.598
14602.38
16504.729
15128.45
11574.534
2891.1736
1384.1152
1638.0744
1310.689
1492.4093
1459.9983
1411.7279
1222.619
1103.2817
1017.1442
677.061
610.86432
310.64932
143.89478
-90.823058
-241.22595
-497.77186
-556.19498
-782.24129
-906.25758
-1121.1949
-1215.7237
-1578.8752
-1525.9868
-1629.5877
-1481.3844
-1556.4057
-1313.6391
-1362.9737
-1080.9778
-1073.4482
-786.28568
-680.03763
-441.7249
-219.65921
11.212117
252.15549
538.67142
766.08046
1092.426
1346.1543
1665.6863
1928.0764
2248.5975
2516.0422
2844.0673
3147.7454
3479.927
3799.8599
4145.476
4482.1278
4830.7729
5190.0223
5550.1616
5918.1247
6300.8458
6672.5958
7070.3253
7465.894
7848.6133
8271.6713
8669.5228
9064.0097
9483.6127
9896.6768
10285.617
10665.997
11106.108
11423.606
11831.841
12200.441
12491.818
12903.201
13536.275
9833.4304
5681.3865
5796.3766
5898.713
6126.8742
6039.2347
6358.499
6399.9996
6491.2561
6829.2808
6728.6098
7065.4884
7194.707
7159.3814
7836.2624
7257.2862
8576.8299
8166.4385
9908.301
10262.538
14812.368
3072.6938
2830.9799
2858.5411
2659.2122
2955.8816
2709.7515
2711.5194
2451.0184
2410.2106
2131.6501
1848.9166
1664.0856
1343.8916
1050.8907
867.71275
438.38498
424.75135
-72.752286
8.0850587
-458.60543
-318.50346
-554.37931
-1058.219
-1441.0655
-1478.4051
-1639.282
-1573.9199
-1643.461
-1588.1727
-1521.7623
-1478.4353
-1282.2924
-1241.0609
-986.56518
-888.17232
-648.26885
-447.00363
-221.67486
48.150466
277.12797
583.37656
821.87372
1162.191
1444.3578
1789.3966
2100.6115
2455.2967
2776.2237
3141.4675
3488.0606
3853.2671
4218.0679
4597.0863
4970.1515
5357.8301
5744.3557
6136.5549
6535.7905
6928.7495
7333.8295
7745.2909
8129.1553
8550.8596
8962.1538
9341.6503
9751.6053
10159.311
10506.093
10914.971
11290.016
11605.812
12016.318
12330.888
12595.083
16449.685
9394.4069
9880.2949
10185.093
10249.31
10633.784
10686.88
10977.302
11106.369
11331.984
11425.732
11657.663
11749.515
11726.907
12002.116
11650.698
12000.178
11414.574
12730.404
13136.943
18437.29
8492.7923
5415.4222
6114.6064
5874.8666
6040.5781
5715.5651
5673.6039
5380.7628
5177.0186
4815.3131
4447.417
4051.1608
3673.8748
3085.1285
2782.1813
2203.0646
1860.2225
1327.0291
1051.5409
536.66501
374.8589
-90.184403
-94.496191
-598.51951
-846.97284
-1021.4074
-1188.1044
-1221.7209
-1358.1279
-1319.3901
-1371.1776
-1298.3334
-1275.2884
-1150.6047
-1056.779
-865.46454
-729.6716
-488.92043
-317.0452
-31.691299
181.62292
501.28896
753.59635
1085.0579
1375.8158
1717.6547
2052.3573
2402.8349
2767.3314
3132.8757
3511.3206
3890.5125
4280.3671
4665.5986
5059.0879
5448.4706
5841.1952
6223.3166
6609.812
6990.4437
7349.0179
7718.811
8065.7121
8394.827
8681.1576
9051.5116
9276.4004
9623.6229
9876.208
10070.817
10347.263
10507.285
10700.213
10914.857
10497.551
13016.631
13936.172
14026.211
14153.809
14132.438
14118.348
14139.629
13931.788
13984.709
13583.941
13743.55
13042.498
13293.813
12700.311
12374.989
12349.13
11396.965
11664.595
9564.1827
14782.924
13010.2
11021.696
10911.984
10263.781
10198.378
9676.5746
9766.8878
9108.6751
9043.3408
8463.8439
7987.1423
7488.6718
6790.4009
6174.1933
5616.2751
4808.9463
4361.6295
3541.8971
3142.1606
2329.3792
2115.4857
1234.1718
1392.9801
705.58764
716.68042
9.0780126
42.314045
-411.66016
-499.65674
-685.85289
-834.58445
-869.61234
-960.41931
-940.87394
-953.29374
-920.84772
-838.63377
-785.83475
-625.93419
-551.84823
-343.90236
-219.22754
-4.6738523
176.49444
400.97605
609.22359
856.07472
1076.7541
1334.9333
1576.7641
1836.8481
2092.2551
2358.7843
2621.365
2888.6117
3161.3467
3428.1054
3700.189
3975.0069
4240.4384
4510.2585
4786.2842
5036.8576
5329.3702
5561.7347
5910.4089
6044.7788
6375.6628
6514.1828
6800.7576
6967.6331
7278.6716
7363.7877
7637.1705
7825.6029
8020.7708
8191.0809
8416.3539
8474.0015
8688.5452
8814.0245
8935.2074
9117.8609
9229.5896
9436.0637
9582.6527
9726.4784
10315.441
9949.329
11127.778
10839.469
11168.123
10239.79
7084.4109
10958.52
18807.073
15088.199
14746.839
13768.616
14127.331
13750.686
13681.736
13449.358
13237.495
12731.491
12226.202
11610.428
11028.086
10250.944
9682.8878
8773.2195
8266.5398
7372.2907
6924.0082
6080.9421
5676.7562
4818.0149
4468.7106
3655.2462
3424.0545
2794.721
2594.7178
2085.6058
1875.1437
1542.8052
1340.4187
1125.3007
958.59657
858.88109
713.69469
660.99632
613.00482
624.17316
601.14994
680.6921
719.64978
820.60462
912.47274
1040.9482
1171.7386
1319.3642
1482.8142
1641.711
1824.2466
1994.7368
2181.6191
2354.6958
2542.7063
2708.4648
2886.0295
3045.4386
3200.239
3347.5971
3478.7579
3606.8063
3710.0737
3820.7952
3883.2914
3977.6419
3965.0612
4117.9035
4006.8259
4266.983
4103.7093
4143.4525
4263.3227
4146.482
4265.4174
4241.6174
4290.4441
4284.2221
4379.1111
4449.925
4508.6593
4710.2834
4725.9625
5033.1698
5082.9204
5467.3676
5560.6861
6023.8513
6286.7103
6752.9338
7072.733
8194.8821
7924.2288
9538.7804
9223.9067
6485.5597
10346.652
22745.246
17274.31
17224.545
15623.402
16772.82
15598.695
16043.94
15698.588
15366.318
14974.988
14251.15
13770.968
13073.995
12250.322
11799.063
10591.231
10363.502
9100.8731
8989.0226
7736.5394
7785.1498
6418.7579
6532.0395
5234.2922
5320.3095
4300.4425
4259.384
3494.6445
3362.2216
2891.5964
2652.117
2282.2733
2069.7384
1782.0872
1523.2846
1329.0744
1246.9182
1008.9141
952.55899
794.98352
735.66888
639.71335
598.3626
538.70257
518.26995
484.13275
485.59305
475.12414
490.975
509.36648
533.9231
576.07795
620.93667
677.75663
745.4592
823.95523
912.77798
1016.024
1130.8853
1259.4527
1404.8861
1567.6857
1744.3008
1935.8432
2129.8829
2380.2492
2455.9692
2907.1741
2999.8625
3725.9922
3709.6991
4379.562
4533.7709
5046.4849
5424.6906
5915.5576
6323.6456
6855.2389
7366.0944
7872.9068
8441.8682
9014.134
9587.6737
10213.103
10827.901
11519.855
12102.57
12915.971
13592.085
14339.333
15135.294
16380.01
16264.573
17816.861
16857.523
14745.08
14025.181
11592.131
11167.32
10954.022
10972.017
10680.512
10892.401
10985.465
11091.304
10882.6
10782.678
11753.575
12463.889
15726.47
9158.7097
7387.8051
6249.9614
6285.4007
5707.4994
5662.6341
5437.1575
5522.8118
5696.9227
5555.4326
5664.8678
5848.3992
6225.8778
7200.0756
9323.542
5271.1143
3753.2528
2505.5585
2307.7393
1958.3503
1902.1572
1869.6248
1763.2932
1799.872
1831.3363
1991.9482
2060.2806
2445.1941
3434.5563
5454.5021
3520.9639
2683.6291
1969.4388
1606.0606
1494.7003
1377.0778
1350.6471
1268.8211
1372.9312
1386.5209
1480.6826
1553.2421
2050.9144
2531.3704
3728.0942
2319.9995
1663.0828
1010.6562
843.58687
656.79391
606.44556
561.85925
566.15174
526.33824
567.24942
606.59751
758.9424
1002.6524
1338.7181
2365.7167
1939.8054
1302.44
857.63658
774.34157
640.17625
595.62339
558.69438
555.33864
563.55853
574.15446
646.65508
682.7419
848.12633
1166.1125
1875.409
1099.1896
738.00983
490.62149
347.02124
312.86061
247.55896
231.78811
199.21907
202.56574
218.88344
235.87555
322.31484
435.6857
713.02498
1176.0972
996.1941
579.5259
336.85274
287.69741
211.65662
193.79898
175.97603
167.05295
197.55354
183.69096
237.54474
273.43502
380.38767
581.13588
1118.3087
1062.3961
681.41783
379.69299
277.3559
189.47575
137.38624
119.72768
126.88267
114.15497
167.03831
183.56069
300.3148
424.65708
823.07178
1284.617
2215.8668
1589.7381
972.29128
821.62905
638.95343
601.94584
572.73779
556.88096
582.24913
582.02984
791.41589
757.23506
1223.0825
1923.1456
2565.6744
3524.7641
2848.2014
1835.006
1659.6165
1297.2922
1281.329
1161.2437
1211.0676
1189.1674
1240.9086
1453.629
1742.6988
2300.3543
3379.856
4127.4204
7022.181
4864.1978
3813.939
3163.3501
2909.8732
2648.8609
2627.7609
2561.0827
2637.7087
2753.6387
3062.0074
2997.7097
4257.0749
5765.6872
7137.4307
9630.1417
8207.0981
6175.5854
5711.9156
4997.8721
5027.5864
4708.3392
4883.0667
4914.1896
4821.7004
5289.6448
5536.1791
6616.486
8918.5974
9653.1621
14941.304
12130.986
10023.851
9391.9274
8873.7481
8723.7316
8845.4676
8954.1727
8843.0389
8751.1793
8859.8694
9208.1695
10145.777
11992.095
14629.653
17526.014
18156.562
14231.654
13764.849
12948.411
12287.811
12983.894
13560.985
12571.792
13242.324
12998.784
13502.957
14644.925
16685.559
20296.701
42343.931
37059.802
36799.497
38377.137
39293.097
39002.287
41174.117
43171.142
43705.923
43397.642
42240.119
40028.819
39678.232
40512.876
38863.666
29883.648
25415.391
25679.484
24377.113
23676.178
24592.426
24298.615
24786.038
26458.927
24622.94
25147.206
24248.611
25877.609
28170.359
30962.616
24196.5
25596.804
24022.405
23790.321
24538.789
22040.303
22052.258
22361.522
20791.069
23327.483
22790.063
25610.896
25666.897
24728.613
25971.39
21206.561
23633.821
23571.357
22015.599
22073.391
21902.615
21363.264
21718.377
21794.434
21653.38
22752.771
23274.872
23767.801
24730.602
21840.18
23616.619
24929.92
25023.769
26382.303
24972.026
25137.396
25500.462
25208.124
25749.049
26513.497
26123.55
26660.6
25950.414
25012.947
24835.927
20889.506
22765.414
22746.025
22913.76
23371.826
23221.48
22902.324
22892.456
22964.694
22788.886
23614.356
23674.306
23319.838
23616.766
21147.006
21441.513
22977.434
23527.945
24154.769
24021.156
24464.524
24478.947
24523.703
24665.378
24814.338
24367.777
24593.359
24181.62
22861.587
23094.887
20913.425
21359.831
21899.302
22501.823
22946.042
22698.098
22887.304
23120.87
22751.956
23408.761
23160.003
22982.483
22738.364
21431.703
21092.662
19996.224
21038.354
21731.785
22568.736
22426.965
22983.345
22979.809
23039.271
23416.12
22804.181
22899.933
22419.753
22116.977
21454.646
20861.401
19641.08
19599.052
20104.974
20367.918
20714.927
20712.211
20915.202
21062.655
20569.585
21449.748
20501.252
20928.182
20232.732
19942.486
19801.211
18516.523
19126.104
19468.556
20158.605
20455.024
20897.379
20964.384
20997.697
21178.725
20629.706
21237.207
20537.755
20484.908
19911.44
19873.533
17768.816
17711.205
18524.919
18613.751
18763.852
18884.376
18891.609
18920.651
18621.368
18908.046
18447.493
18498.061
18147.369
17858.039
18158.568
17069.029
17248.654
17083.742
17825.671
17985.366
18263.451
18573.851
18437.532
18751.319
18591.187
18707.758
18358.639
18258.822
18046.928
17882.5
15995.716
16162.453
16394.217
16510.198
16781.927
17032.089
16777.935
17028.495
16548.204
16531.215
16203.753
16259.84
16031.868
15793.154
16344.215
15399.601
15264.31
15512.778
15933.105
16086.778
15926.236
16021.43
16218.843
16617.057
16563.61
16854.855
16580.588
16623.455
16552.405
16406.855
14228.621
14480.953
14374.654
14971.139
14460.071
15187.965
15067.818
14863.819
14521.667
14603.588
14155.028
14185.566
13624.473
13840.719
14483.756
13526.326
13343.906
13653.824
13695.878
14307.932
13938.687
14181.351
14040.217
14453.469
14347.974
14730.177
14505.705
14977.497
14447.597
14869.956
12742.141
12729.54
12533.215
12558.562
12682.415
13150.722
13214.676
13249.162
12873.14
13012.633
12591.214
12621.463
12501.97
12171.747
12563.87
12020.184
11785.9
12004.626
12270.334
12195.098
12031.323
12096.32
12144.222
12345.388
12275.376
12586.875
12450.24
12593.937
12810.419
13155.599
10743.787
10936.161
10852.161
11142.591
11142.138
11617.237
11145.328
11393.76
11339.583
11432.647
10989.282
11298.997
11058.342
10947.98
11099.106
10693.678
10182.777
10349.107
10258.927
10480.704
10235.74
10716.539
10546.084
10531.641
10401.856
10579.057
10492.029
10861.441
10837.514
11316.81
9183.0184
9485.8025
9257.1822
9674.3926
9444.245
9863.9341
9429.5288
9855.8033
9596.8773
9934.0287
9745.765
9927.3284
9787.4428
9312.3821
9977.6437
9200.9036
8522.7175
8813.0312
8668.3936
8986.2178
8725.1498
9066.8922
8872.9649
9007.3135
8935.8144
9034.0883
8788.7987
8761.6601
8977.3164
9157.4739
7915.8113
8042.2964
7858.6352
8237.064
8008.2685
8290.1402
8035.9916
8182.722
8118.9101
8244.5438
8062.7322
8393.356
8415.7715
8173.2378
8567.7491
7638.1809
7360.7046
7253.2239
7297.4702
7538.6666
7212.6416
7616.3658
7486.1468
7537.2083
7507.474
7398.2258
7439.9894
7392.8494
7347.1705
7661.0523
6576.1104
6705.3947
6677.5539
6661.6448
6582.9226
6868.9879
6653.3272
6802.7519
6723.5513
6788.5141
7053.7707
6917.985
6950.806
6992.1269
7168.6325
6127.7419
6050.261
6036.4857
6116.3693
6271.7215
6129.1565
6254.1516
6238.3716
6209.5929
6260.7208
6211.2044
6245.8553
6219.3058
5969.5874
6463.5374
5446.2599
5493.189
5217.0518
5475.8912
5599.8936
5514.808
5518.6137
5539.0103
5627.3915
5578.59
5656.7282
5371.1801
5713.2129
5753.9934
5839.4424
4876.9611
4949.5281
5239.9303
4906.2956
4922.1652
4907.9261
5026.4875
5032.3375
5141.8562
5068.8955
5130.7604
5203.4377
5031.3928
4812.9601
5318.4494
4569.506
4261.5383
4238.961
4475.8897
4458.7587
4491.7596
4531.6141
4482.9565
4428.7436
4430.8754
4468.1994
4416.6948
4273.4054
4484.9434
4657.506
3860.7765
3932.2325
4003.2469
4003.9398
3943.8734
4234.7414
4021.049
3943.4918
3778.8769
3991.5396
4078.7234
4003.3467
4167.1973
3880.0925
4218.2694
3584.3612
3465.0451
3491.0487
3502.2632
3560.5997
3424.08
3518.5789
3576.1743
3667.5212
3596.2974
3501.7889
3583.68
3541.1483
3523.3275
3830.2061
3184.7232
3050.3478
3120.1722
3171.0779
3186.2926
3129.1319
3211.0278
3110.1851
3233.6411
3160.7907
3259.8383
3168.8343
3223.8271
3096.3185
3404.2582
2885.5211
2706.3338
2762.4073
2659.8674
2810.6052
2824.9118
2806.908
2861.9359
2805.5668
2849.0361
2789.1009
2864.2656
2802.7
2787.8984
3106.097
2414.4552
2417.282
2625.1245
2751.8751
2611.7782
2508.6964
2588.5861
2539.8541
2601.2929
2700.793
2680.7076
2590.1607
2655.3386
2587.0436
2839.6417
2507.5799
2282.0617
2207.7187
2533.5618
2190.4028
2236.8976
2317.4452
2235.937
2448.6873
1965.8444
2342.0359
2244.3642
2362.7748
2118.6122
2582.617
2473.6433
1804.1529
1997.5034
1769.1439
2156.4283
1943.4475
2138.7122
1975.8487
2055.0356
1748.8141
1969.4635
2131.9835
2022.2617
2086.1917
2281.4133
1819.7404
1854.4253
1991.804
2014.6089
1934.0903
1990.4217
1950.2237
1974.9618
1984.7578
2142.6648
2057.7539
1899.2119
2032.9837
1816.9523
2235.2798
2092.96
1677.3552
1909.7482
1770.4818
1974.7448
1787.0369
1958.2684
1821.5398
1911.4079
1879.0275
1880.3493
1943.5201
1878.3184
1794.5688
2221.6563
1972.4675
1709.7132
1857.0437
1855.6408
1875.2596
1831.8226
1899.6936
1803.3703
1925.9281
1809.7929
1906.6116
1825.5166
1863.0144
1777.2566
2167.0529
2107.3571
1704.9309
1969.1536
1814.1172
1984.1995
1823.5269
1958.9284
1860.1898
1931.3843
1896.2001
1914.5241
1896.479
1935.1697
1790.5928
2242.691
2188.2149
1829.3138
2021.4487
1957.4268
2061.7913
1934.1848
2082.5898
1920.5556
2068.7376
1964.4976
2013.8629
2014.2022
2003.0721
1901.7883
2368.4214
2424.6003
1942.014
2254.689
2095.0643
2248.9507
2105.134
2228.7871
2113.5372
2219.5426
2133.9013
2198.953
2155.2575
2179.9163
2060.3456
2549.3348
2637.9177
2191.2966
2459.8441
2301.263
2466.738
2292.5092
2468.8455
2308.892
2432.0414
2366.1782
2385.925
2392.0854
2391.8274
2275.7696
2793.1376
2994.548
2446.6265
2783.1203
2595.5973
2759.3562
2607.2134
2770.6278
2601.5284
2743.8611
2643.5949
2687.3066
2681.6324
2674.0375
2561.8353
3101.4155
3350.1236
2791.4392
3141.6371
2900.9704
3094.84
2920.2069
3099.2859
2930.3421
3057.4289
2990.0083
3008.1955
3022.5825
3007.2772
2901.8522
3466.0374
3804.5506
3190.231
3560.1054
3315.5681
3523.1487
3348.536
3549.1004
3339.1732
3495.9787
3404.437
3414.4856
3437.2633
3405.1595
3300.5502
3883.8592
4311.0596
3643.1674
4052.1068
3760.4911
3971.2096
3788.6424
3982.0685
3775.9733
3933.1685
3845.2271
3855.7026
3892.7763
3851.6781
3760.4528
4368.8018
4860.068
4160.4886
4584.568
4266.3445
4513.4076
4326.0356
4553.2996
4318.8887
4485.5493
4386.4622
4387.0522
4419.4825
4366.9441
4272.2198
4898.0749
5493.0687
4735.4236
5183.2452
4845.3144
5090.8031
4884.6755
5101.3398
4845.8161
5026.9233
4925.2488
4926.7516
4972.9002
4922.3945
4829.6142
5489.2172
6153.2846
5350.928
5834.461
5456.6795
5724.6606
5518.1713
5764.7719
5504.5291
5697.7137
5577.6821
5573.4925
5613.6965
5545.6667
5449.7997
6125.3068
6880.3157
6040.4725
6530.9542
6132.2089
6420.4518
6192.2834
6432.7874
6138.0909
6334.6054
6206.8136
6211.0184