/*--------------------------------*- C++ -*----------------------------------*\
  =========                 |
  \\      /  F ield         | OpenFOAM: The Open Source CFD Toolbox
   \\    /   O peration     | Website:  https://openfoam.org
    \\  /    A nd           | Version:  6
     \\/     M anipulation  |
\*---------------------------------------------------------------------------*/
FoamFile
{
    version     2.0;
    format      ascii;
    class       pointVectorField;
    location    "0.03";
    object      u;
}
// * * * * * * * * * * * * * * * * * * * * * * * * * * * * * * * * * * * * * //

dimensions      [0 1 0 0 0 0 0];

internalField   nonuniform List<vector> 
28033
(
(0 1.3226427e-20 0)
(0 9.0565998e-20 0)
(0.17751455 0.013334439 -2.6051792e-05)
(0.17714227 -0.01440318 1.3223414e-05)
(0 8.1797157e-20 0)
(0 1.3321514e-19 0)
(0.17713695 -0.014399576 -3.9690292e-05)
(0.17751587 0.013330303 5.8678518e-06)
(0 2.8642031e-20 0)
(0 8.2716962e-21 0)
(0 6.6079066e-20 0)
(0 -3.137153e-20 0)
(0 4.2257781e-20 0)
(0 -2.5041158e-20 0)
(0 -6.0502011e-22 0)
(-2.0178799e-20 -6.5826661e-21 0)
(0 1.2379393e-20 0)
(0 6.1600106e-21 0)
(0 -2.3705489e-20 0)
(0 2.2951614e-20 0)
(0 2.7447245e-20 0)
(0 -2.2016102e-20 0)
(0 2.7993799e-20 0)
(0.17748618 0.011517184 -8.1627302e-05)
(0.17744565 0.0097100642 -0.00013987304)
(0.1774014 0.0079258768 -0.0001793137)
(0.17735429 0.0061767057 -0.00019446653)
(0.17731046 0.0044609674 -0.00018893588)
(0.17726901 0.0027779908 -0.0001500088)
(0.17723481 0.0011237356 -9.8356208e-05)
(0.17721028 -0.0005204329 -3.1635277e-05)
(0.17719531 -0.0021633168 3.7104024e-05)
(0.17718412 -0.0038249501 9.5990491e-05)
(0.17718512 -0.0055109208 0.00013534626)
(0.1771833 -0.0072334956 0.00014771417)
(0.17718288 -0.0089886794 0.00014063782)
(0.17717799 -0.010775968 0.00011124749)
(0.17716492 -0.012586146 6.4145709e-05)
(0.0012745878 0.0019060257 0.0019293164)
(0.0017636019 0.0029055581 0.0025934808)
(0.0024352326 0.0038311889 0.0029646364)
(0.003278071 0.0048013041 0.0031855098)
(0.0042396697 0.0057090616 0.0032425136)
(0.0053647447 0.0066310556 0.0032469963)
(0.0066291674 0.0075167727 0.00316719)
(0.0080297758 0.0083738092 0.0030612649)
(0.0095628504 0.009197989 0.0029192505)
(0.011218624 0.0099802326 0.0027586335)
(0.01298704 0.010715056 0.0025806572)
(0.014862404 0.011404826 0.0023954302)
(0.016839093 0.01204046 0.0022000801)
(0.018908798 0.012623144 0.0019972627)
(0.021056393 0.01314503 0.0017889566)
(0.023272006 0.013610392 0.0015819358)
(0.025546566 0.014018836 0.0013757444)
(0.02786746 0.014369208 0.00117385)
(0.030214438 0.01465832 0.00098103524)
(0.032582564 0.014896115 0.00079889634)
(0.034960324 0.01508171 0.00063104836)
(0.037333699 0.015215276 0.00047447672)
(0.039702703 0.015307901 0.00033293516)
(0.042053042 0.015354385 0.00020728889)
(0.044380319 0.015364017 9.6370486e-05)
(0.046678739 0.01534258 5.3377229e-06)
(0.048937542 0.015291068 -6.6960963e-05)
(0.051155722 0.015217925 -0.00011572212)
(0.053329566 0.01512865 -0.00014674089)
(0.05545881 0.015028618 -0.00015752757)
(0.057546291 0.014923624 -0.00015338923)
(0.059599739 0.014818438 -0.00013799924)
(0.061621677 0.01471553 -0.0001151723)
(0.063617486 0.014617503 -8.8323494e-05)
(0.065593643 0.014527101 -6.0388787e-05)
(0.067555901 0.01444546 -3.4084847e-05)
(0.069505012 0.014371313 -9.5661048e-06)
(0.071444331 0.014306227 1.2628075e-05)
(0.073376015 0.014248902 3.0431028e-05)
(0.07530187 0.014199801 4.5557317e-05)
(0.077221606 0.014157099 5.7738438e-05)
(0.07913685 0.014121036 6.7303465e-05)
(0.081048338 0.014090475 7.4338799e-05)
(0.082956659 0.014064844 7.9313676e-05)
(0.084862367 0.014043525 8.2542786e-05)
(0.086766036 0.014025881 8.4257459e-05)
(0.088668231 0.014011452 8.4726975e-05)
(0.090569524 0.013999745 8.4120317e-05)
(0.092470461 0.013990362 8.2630532e-05)
(0.094371613 0.013982951 8.0405755e-05)
(0.096273543 0.013977172 7.7571675e-05)
(0.098176852 0.013972721 7.4211813e-05)
(0.1000822 0.013969254 7.0344736e-05)
(0.10199037 0.013966385 6.5881045e-05)
(0.10390233 0.013963584 6.0568133e-05)
(0.10581928 0.013960121 5.3904674e-05)
(0.1077427 0.013954951 4.5044585e-05)
(0.10967425 0.013946638 3.2732197e-05)
(0.11161561 0.013933307 1.527991e-05)
(0.11356806 0.013912715 -9.2668241e-06)
(0.11553201 0.013882355 -4.2885336e-05)
(0.11750629 0.013839878 -8.6932448e-05)
(0.11948758 0.013783355 -0.00014164602)
(0.12147006 0.013711695 -0.00020563261)
(0.12344516 0.013625326 -0.0002748632)
(0.12540263 0.013525102 -0.00034360009)
(0.12733138 0.01341435 -0.00040426192)
(0.12921927 0.013296684 -0.00044957671)
(0.13105703 0.013176229 -0.00047100787)
(0.13284156 0.013058714 -0.00046179175)
(0.13456794 0.012945699 -0.00042355936)
(0.13624084 0.012842964 -0.00035617309)
(0.13786554 0.012753664 -0.00026335177)
(0.1394511 0.01268041 -0.00015144983)
(0.14100751 0.012626752 -2.7500954e-05)
(0.14254601 0.012594522 0.00010196063)
(0.14407744 0.012586238 0.00023068226)
(0.14561355 0.012601579 0.00035324294)
(0.14716491 0.01264129 0.00046457189)
(0.14874227 0.012700905 0.00056007705)
(0.15035526 0.012778259 0.00063490598)
(0.15201093 0.012866666 0.00068601766)
(0.15371159 0.012962232 0.00071023547)
(0.15546026 0.013056769 0.00070869999)
(0.15724781 0.013146069 0.00068284914)
(0.1590709 0.013227133 0.00063902203)
(0.16091688 0.013295481 0.00057893855)
(0.16277759 0.013349997 0.000514244)
(0.16464315 0.01339088 0.00044332822)
(0.16650793 0.013415041 0.00037749019)
(0.16836406 0.013430209 0.00030841167)
(0.17021605 0.013422017 0.00024725461)
(0.17205196 0.013414804 0.00018022954)
(0.17387983 0.0133897 0.00012054866)
(0.17569443 0.013363255 5.198188e-05)
(0.00064311157 -0.0018670595 -0.0023332858)
(0.0014661842 -0.0026470776 -0.0024225865)
(0.0021668646 -0.0037002785 -0.0029965256)
(0.0028733868 -0.0044382087 -0.0030834571)
(0.003883761 -0.0053852958 -0.0031720916)
(0.0049824582 -0.006256589 -0.0031367065)
(0.0062168185 -0.0070970647 -0.003060109)
(0.0076103098 -0.0079311865 -0.0029299756)
(0.0091305919 -0.008731947 -0.0027774361)
(0.01076372 -0.0094890404 -0.0026023848)
(0.012521288 -0.010217691 -0.0024157473)
(0.014375506 -0.010892917 -0.0022186557)
(0.016333927 -0.011530574 -0.0020128793)
(0.018379384 -0.01211629 -0.0018060212)
(0.020506304 -0.012650844 -0.001589533)
(0.022703712 -0.013134745 -0.0013775878)
(0.024956494 -0.013559085 -0.0011648717)
(0.027257399 -0.013934724 -0.00095632362)
(0.029590987 -0.014253686 -0.00075881212)
(0.03194689 -0.014517156 -0.00057068072)
(0.034314816 -0.014732751 -0.00039400115)
(0.036684727 -0.014896571 -0.00023524835)
(0.039048375 -0.015014733 -8.918806e-05)
(0.041395856 -0.015090665 3.7867448e-05)
(0.043722045 -0.015125326 0.00014579195)
(0.046018156 -0.01512782 0.00023578039)
(0.048277924 -0.015098333 0.00030287249)
(0.050497774 -0.015047565 0.00035017174)
(0.052675507 -0.014976263 0.00037696549)
(0.054811779 -0.014894533 0.00038571144)
(0.056907753 -0.01480401 0.0003800585)
(0.058968307 -0.014711665 0.00036257431)
(0.060997839 -0.014619706 0.00033773142)
(0.063001586 -0.014531821 0.00030872086)
(0.064984224 -0.014449659 0.00027875165)
(0.066950648 -0.014374746 0.00024946347)
(0.06890389 -0.014307244 0.00022267056)
(0.070847211 -0.014247296 0.00019892144)
(0.072781382 -0.014194993 0.00017828886)
(0.074708955 -0.014149514 0.00016070456)
(0.076630832 -0.01411081 0.00014624089)
(0.07854803 -0.014078154 0.0001345644)
(0.080461285 -0.014051039 0.00012529362)
(0.082371282 -0.014028888 0.00011816219)
(0.084278639 -0.014011194 0.00011282935)
(0.086183939 -0.013997473 0.00010902345)
(0.088087755 -0.013987289 0.00010649431)
(0.08999067 -0.01398026 0.00010502752)
(0.091893258 -0.013976037 0.00010443465)
(0.093796112 -0.01397431 0.00010455786)
(0.095699833 -0.013974796 0.00010526382)
(0.097605049 -0.013977226 0.00010645702)
(0.099512442 -0.013981327 0.00010808874)
(0.10142278 -0.013986796 0.0001101874)
(0.10333697 -0.013993247 0.00011289661)
(0.10525614 -0.014000146 0.00011655387)
(0.10718168 -0.014006716 0.00012179273)
(0.10911531 -0.014011823 0.00012966455)
(0.11105895 -0.014013905 0.00014174092)
(0.11301445 -0.014010924 0.00016010424)
(0.11498305 -0.014000462 0.00018714124)
(0.11696455 -0.013979955 0.00022506072)
(0.1189564 -0.013947114 0.00027513397)
(0.12095294 -0.013900287 0.00033675034)
(0.12294496 -0.013839051 0.00040670286)
(0.12492055 -0.013764284 0.00047871187)
(0.12686608 -0.013678168 0.00054412039)
(0.12876794 -0.013584447 0.00059323126)
(0.13061735 -0.013485293 0.00061740934)
(0.1324059 -0.013387394 0.00060541864)
(0.13413195 -0.013290686 0.00056175808)
(0.13580413 -0.013202314 0.00048527594)
(0.13742588 -0.013123776 0.00038185145)
(0.1390081 -0.013059444 0.00025930355)
(0.14056174 -0.01301307 0.00012616332)
(0.14209787 -0.012988405 -1.0090819e-05)
(0.14362767 -0.01298835 -0.00014336739)
(0.14516217 -0.013014519 -0.00026893416)
(0.14671252 -0.013066831 -0.00038288168)
(0.14828934 -0.013143045 -0.00048139113)
(0.14990226 -0.013239596 -0.00056056162)
(0.15155885 -0.013351338 -0.00061693294)
(0.15326333 -0.013472782 -0.00064773795)
(0.1550158 -0.013597986 -0.00065251862)
(0.15681176 -0.013721861 -0.00063279767)
(0.15864289 -0.013839665 -0.00059303138)
(0.1604985 -0.013948181 -0.00053891819)
(0.16236747 -0.014044839 -0.00047698508)
(0.16424036 -0.014128582 -0.00041254204)
(0.16611043 -0.014198609 -0.00034915468)
(0.16797354 -0.014255821 -0.00028807651)
(0.16982807 -0.014300346 -0.00022881291)
(0.17167225 -0.014334191 -0.00017054348)
(0.17350612 -0.014361514 -0.00011123417)
(0.17532893 -0.014381674 -5.0592857e-05)
(0 -3.5991657e-20 0)
(0 -2.6283705e-20 0)
(0 2.462065e-20 0)
(0 -1.5557748e-20 0)
(0 -1.3396106e-20 0)
(0 7.4855471e-20 0)
(0 -2.2220979e-20 0)
(-5.1731643e-20 1.4460304e-20 0)
(0 -1.3214613e-20 0)
(0 3.219085e-20 0)
(0 3.847105e-20 0)
(0 1.3455919e-20 0)
(0 7.1226979e-21 0)
(0 -1.4508667e-20 0)
(0 9.8633419e-21 0)
(0.0011824266 -0.00084181635 0.0017459943)
(0.0016392123 -0.0030842972 0.0024939811)
(0.0021120708 -0.0033162547 0.0027265184)
(0.0030076334 -0.0046542378 0.0030827188)
(0.0038813431 -0.0053547996 0.0031081314)
(0.0050257994 -0.0062877349 0.0030694982)
(0.0062546156 -0.0071231758 0.0029908423)
(0.0076672623 -0.0079845408 0.0028693973)
(0.0091775089 -0.0087528365 0.0026985823)
(0.010823188 -0.0095475094 0.002535499)
(0.012582674 -0.010270915 0.0023461238)
(0.01443184 -0.010936785 0.0021541168)
(0.016394271 -0.011600249 0.0019510259)
(0.018432506 -0.012161921 0.0017474379)
(0.02055818 -0.012723209 0.0015383948)
(0.022748348 -0.013196483 0.0013346742)
(0.024994069 -0.013618063 0.0011354975)
(0.027284566 -0.014008549 0.00093324646)
(0.029614551 -0.014308618 0.00074968311)
(0.031957994 -0.01459153 0.00056974775)
(0.034323066 -0.014802402 0.0004069072)
(0.036685905 -0.014959182 0.00026172329)
(0.039040661 -0.015079355 0.00011968688)
(0.041384933 -0.015155391 1.626092e-06)
(0.043706254 -0.015187941 -0.00010070564)
(0.045994851 -0.015198127 -0.00018697857)
(0.048259943 -0.015158891 -0.00024999825)
(0.050470164 -0.015115548 -0.00030137115)
(0.05265593 -0.015040787 -0.0003291837)
(0.054789168 -0.014960358 -0.00034411841)
(0.056889451 -0.014872595 -0.00034419468)
(0.058953553 -0.014780802 -0.00033244625)
(0.060986831 -0.014689495 -0.00031363702)
(0.062994779 -0.014601518 -0.00028993834)
(0.064979174 -0.014519987 -0.00026397288)
(0.066950182 -0.014442218 -0.00023941304)
(0.068905747 -0.014375096 -0.00021491992)
(0.070849525 -0.014314894 -0.00019367994)
(0.07278519 -0.014262048 -0.00017447094)
(0.074713341 -0.014216377 -0.00015840741)
(0.076635617 -0.014177418 -0.00014496389)
(0.078553 -0.014144639 -0.00013407474)
(0.080466293 -0.014117424 -0.00012549798)
(0.082376305 -0.014095237 -0.00011897334)
(0.084283647 -0.014077538 -0.00011421358)
(0.086188951 -0.014063835 -0.00011097985)
(0.08809279 -0.01405368 -0.00010902272)
(0.089995733 -0.014046689 -0.00010812268)
(0.091898337 -0.014042505 -0.00010808563)
(0.09380118 -0.014040835 -0.00010874403)
(0.095704847 -0.014041395 -0.00010996396)
(0.097609971 -0.014043931 -0.00011165806)
(0.099517226 -0.014048179 -0.00011378232)
(0.10142737 -0.014053837 -0.00011637262)
(0.1033413 -0.014060536 -0.00011956943)
(0.10526007 -0.014067757 -0.00012369355)
(0.10718504 -0.014074763 -0.00012934794)
(0.10911788 -0.014080472 -0.00013755199)
(0.11106058 -0.014083343 -0.00014987513)
(0.11301522 -0.014081284 -0.00016846051)
(0.11498344 -0.014071658 -0.00019586503)
(0.11696564 -0.014051454 -0.00023453521)
(0.11895976 -0.014017689 -0.00028598909)
(0.12096025 -0.01396799 -0.00034964496)
(0.12295739 -0.013901279 -0.00042200096)
(0.12493789 -0.013818662 -0.0004961236)
(0.12688675 -0.013720661 -0.00056214679)
(0.12878516 -0.013618669 -0.00061008051)
(0.13063736 -0.013515285 -0.00062467286)
(0.13240972 -0.013404974 -0.00061099091)
(0.13413357 -0.013307127 -0.00055835229)
(0.1357953 -0.013220052 -0.00047354909)
(0.13741273 -0.013144213 -0.00036508464)
(0.13899384 -0.013084203 -0.00024059092)
(0.14054933 -0.013041529 -0.00010900733)
(0.142089 -0.013019871 2.3345997e-05)
(0.14362269 -0.013022159 0.00015167309)
(0.14516061 -0.013050324 0.00027225588)
(0.14671354 -0.013104453 0.00038153484)
(0.1482922 -0.013182557 0.00047562565)
(0.14990637 -0.013280803 0.00055035175)
(0.15156378 -0.013394 0.00060202555)
(0.15326878 -0.013516232 0.00062826844)
(0.15502149 -0.013641335 0.0006290038)
(0.15681729 -0.01376367 0.00060662329)
(0.15864779 -0.013878458 0.00056587808)
(0.16050222 -0.013982496 0.00051257643)
(0.1623699 -0.014073774 0.00045261024)
(0.16424164 -0.01415185 0.00039032752)
(0.16611118 -0.01421656 0.00032846838)
(0.16797439 -0.014268808 0.00026759996)
(0.16982917 -0.014308851 0.00020753315)
(0.1716733 -0.014339021 0.00014778273)
(0.17350572 -0.014360565 8.7117204e-05)
(0.17532621 -0.014376845 2.5441337e-05)
(0.17716275 -0.012583807 -9.2328636e-05)
(0.17717627 -0.010779241 -0.00014046021)
(0.1771831 -0.0089901699 -0.0001677652)
(0.17718077 -0.00724192 -0.00018031192)
(0.1771875 -0.00551394 -0.0001618512)
(0.17717907 -0.0038299327 -0.00013278031)
(0.17719528 -0.0021594179 -7.5831094e-05)
(0.17720406 -0.00050976457 -1.8079257e-05)
(0.17722305 0.0011393454 4.1328392e-05)
(0.17726231 0.0027959069 9.2625557e-05)
(0.17730562 0.0044761114 0.00012940013)
(0.17734648 0.0061902138 0.00014638383)
(0.17740144 0.0079343149 0.00013154453)
(0.17744486 0.0097169911 0.00010591895)
(0.17748862 0.011518609 5.544053e-05)
(0.17570757 0.01335712 -6.7503956e-05)
(0.17389183 0.013390715 -0.00012902449)
(0.17206607 0.013416219 -0.00019315591)
(0.1702301 0.013433681 -0.0002563351)
(0.16838228 0.013439325 -0.00031815853)
(0.16652305 0.013432188 -0.00038641806)
(0.16465832 0.013411294 -0.00045454581)
(0.16279039 0.013376409 -0.00052450355)
(0.16092687 0.013327341 -0.00059203451)
(0.15907673 0.013262845 -0.00065089324)
(0.15725012 0.01318578 -0.00069640516)
(0.15545771 0.013096509 -0.00072150207)
(0.15370757 0.013000233 -0.00072236882)
(0.15200364 0.01290309 -0.00069742234)
(0.15034738 0.01281066 -0.00064512168)
(0.14873461 0.012729711 -0.00056844657)
(0.14715856 0.012665487 -0.00047094988)
(0.1456094 0.012621886 -0.00035689284)
(0.14407616 0.012601427 -0.00023167326)
(0.14254807 0.012604191 -9.9516383e-05)
(0.14101444 0.012630071 3.3812508e-05)
(0.13946401 0.012677459 0.0001623529)
(0.13788614 0.012744929 0.00027900575)
(0.13626884 0.012830201 0.00037590893)
(0.13460389 0.012931376 0.00044573315)
(0.13287996 0.013045203 0.00048588328)
(0.13110334 0.013164833 0.00048881291)
(0.12925585 0.013293851 0.0004669676)
(0.12736639 0.013409977 0.00041511399)
(0.12542867 0.013528117 0.0003486609)
(0.12346229 0.013630868 0.00027326745)
(0.12147849 0.013719173 0.00019944262)
(0.11948933 0.013791072 0.00013275766)
(0.11750389 0.013846908 7.706532e-05)
(0.1155278 0.013888322 3.3420918e-05)
(0.11356381 0.013917743 9.7348499e-07)
(0.11161233 0.013937823 -2.2214817e-05)
(0.10967231 0.013951124 -3.8441206e-05)
(0.10774199 0.013959818 -4.9815115e-05)
(0.10581953 0.013965632 -5.8001185e-05)
(0.10390324 0.013969854 -6.4167805e-05)
(0.10199172 0.013973425 -6.9054195e-05)
(0.10008387 0.013977024 -7.3090534e-05)
(0.098178773 0.013981161 -7.649379e-05)
(0.096275686 0.013986243 -7.9351309e-05)
(0.094373941 0.013992614 -8.1658174e-05)
(0.092472936 0.014000609 -8.3348953e-05)
(0.090572103 0.01401056 -8.4300937e-05)
(0.088670891 0.014022824 -8.4357671e-05)
(0.086768767 0.014037822 -8.3310946e-05)
(0.084865229 0.014056021 -8.0969659e-05)
(0.082959633 0.014077868 -7.696738e-05)
(0.081051672 0.014104155 -7.1212584e-05)
(0.079140056 0.014135346 -6.3332098e-05)
(0.077224927 0.014171976 -5.3017751e-05)
(0.075305255 0.014215395 -3.9792295e-05)
(0.073380244 0.014265128 -2.3945828e-05)
(0.071447456 0.014321247 -5.1939208e-06)
(0.069505776 0.014390868 1.600459e-05)
(0.06755772 0.014463777 4.1078816e-05)
(0.065594536 0.014544313 6.7842627e-05)
(0.063613291 0.014639025 9.5447893e-05)
(0.061617262 0.014733478 0.00012102032)
(0.059592792 0.014834567 0.00014291969)
(0.057539559 0.014934099 0.00015568247)
(0.055446129 0.015043478 0.00016195648)
(0.053319336 0.015127257 0.00014377215)
(0.051142013 0.015223351 0.0001175055)
(0.048928286 0.015280504 6.7688158e-05)
(0.046671508 0.015326328 -3.8604527e-07)
(0.044378671 0.015344055 -8.6388322e-05)
(0.042052718 0.015322656 -0.00019592672)
(0.039707821 0.015282878 -0.00031678193)
(0.037339372 0.015179985 -0.00045456584)
(0.034966181 0.015036788 -0.00060893334)
(0.032598425 0.014860058 -0.00077318947)
(0.030223934 0.014605529 -0.00095622383)
(0.02789242 0.014323719 -0.0011408247)
(0.025563439 0.013963943 -0.0013429619)
(0.023309288 0.013557955 -0.001543202)
(0.021092303 0.013090266 -0.0017486734)
(0.018938881 0.012569408 -0.0019533444)
(0.016870602 0.011986812 -0.0021540265)
(0.014908922 0.011346906 -0.0023473552)
(0.013016506 0.010668777 -0.0025385947)
(0.011245038 0.0099330921 -0.0027134133)
(0.0096012239 0.0091391974 -0.0028734617)
(0.0080543573 0.0083354794 -0.0030214178)
(0.0066501479 0.0074738991 -0.0031265303)
(0.0053744299 0.0065925604 -0.003203975)
(0.0042692345 0.0056467554 -0.0031949011)
(0.0033160449 0.0047102323 -0.0031157897)
(0.0025092291 0.0038154598 -0.0029272669)
(0.0018478998 0.0027636529 -0.002405652)
(0.0017628099 0.0018580196 -0.0015068788)
(0 4.1002729e-20 0)
(0 1.5596708e-20 0)
(0 4.0481476e-20 0)
(0 4.0751234e-20 0)
(0 4.2472652e-20 0)
(0 2.5542342e-20 0)
(0 1.018228e-21 0)
(0 -2.3144497e-20 -2.5394719e-20)
(0 2.740614e-21 0)
(0 2.4639058e-20 0)
(0 5.9412707e-20 0)
(0 5.2057924e-20 0)
(0 3.7263906e-20 0)
(0 3.6012666e-20 0)
(0 4.1123497e-20 0)
(0 1.7103709e-19 0)
(0 7.282532e-20 0)
(0 2.6724822e-20 0)
(0 4.8236946e-20 0)
(0 -4.1996554e-21 0)
(0 1.1243341e-20 0)
(0 1.2811725e-19 0)
(0 -5.2135758e-20 -2.2607688e-20)
(0 7.6205428e-20 0)
(0 9.5264806e-20 0)
(0 3.1481808e-20 0)
(0 1.2886149e-20 0)
(0 2.9909866e-20 0)
(0 5.392547e-20 0)
(0 6.9362536e-21 0)
(0.17718309 -0.014470481 8.1307443e-06)
(0.17722273 -0.014531884 -3.4324073e-07)
(0.17726297 -0.014589524 -9.6438145e-06)
(0.17730413 -0.014641862 -1.6734682e-05)
(0.17734439 -0.01468652 -2.0638588e-05)
(0.17737867 -0.014723482 -2.0301577e-05)
(0.17740404 -0.014749 -1.781952e-05)
(0.1774161 -0.014760742 -1.3817247e-05)
(0.17741316 -0.014757313 -1.0117682e-05)
(0.17739534 -0.014738036 -7.782962e-06)
(0.1773639 -0.014702474 -8.8504045e-06)
(0.17732185 -0.01465467 -1.177969e-05)
(0.1772751 -0.014598101 -1.9834795e-05)
(0.1772299 -0.014533293 -2.6353797e-05)
(0.17718373 -0.014468678 -3.8396163e-05)
(0.17756673 0.013407969 -2.2755147e-05)
(0.17761529 0.013472046 -1.8018969e-05)
(0.17766389 0.013532811 -1.2613486e-05)
(0.17770954 0.013586633 -7.5433723e-06)
(0.17775411 0.013632959 -5.6123692e-06)
(0.17779106 0.013669212 -6.5006987e-06)
(0.17781613 0.013692709 -9.9246457e-06)
(0.17782591 0.013701352 -1.4390145e-05)
(0.17781876 0.013694163 -1.8732064e-05)
(0.17779529 0.013671556 -2.1392702e-05)
(0.17775868 0.013635393 -2.1228153e-05)
(0.17771261 0.013586827 -1.8047718e-05)
(0.17766244 0.013531619 -1.033331e-05)
(0.17761463 0.013467782 -5.593509e-06)
(0.17756519 0.013403166 4.6387671e-06)
(0.00072896618 0.0013674187 0.0019488987)
(0.0013652398 0.0021628649 0.0021780896)
(0.0020293221 0.0030307775 0.002610037)
(0.0028826633 0.0038313353 0.0027341409)
(0.0038298001 0.0046003761 0.0028295813)
(0.0049649748 0.0053595038 0.0028144656)
(0.0062273405 0.0060914646 0.0027632536)
(0.0076429591 0.0068028567 0.0026685567)
(0.0091816495 0.0074843302 0.0025486252)
(0.010847451 0.008129152 0.0024111114)
(0.012630758 0.0087403951 0.0022559464)
(0.014522315 0.0093109586 0.0020950475)
(0.016513968 0.0098365244 0.0019256528)
(0.018597285 0.010318516 0.0017510013)
(0.020763857 0.010755749 0.0015729071)
(0.023001018 0.011148497 0.0013941956)
(0.025294789 0.011493821 0.0012177557)
(0.027632255 0.011793586 0.0010449216)
(0.030001685 0.012051162 0.00087820933)
(0.032391334 0.012264659 0.00072135826)
(0.03478813 0.012436858 0.00057424948)
(0.037183838 0.012568975 0.00043826788)
(0.039570771 0.012665395 0.00031575545)
(0.041939298 0.012728948 0.0002055673)
(0.044283109 0.012762792 0.00011113484)
(0.046595 0.012772441 3.225326e-05)
(0.048868526 0.012759433 -2.9454511e-05)
(0.051098033 0.012730809 -7.4248884e-05)
(0.053280962 0.012686401 -0.00010175296)
(0.055419047 0.012633142 -0.00011430684)
(0.057513249 0.012572189 -0.00011394806)
(0.05956904 0.012507538 -0.00010381112)
(0.061592543 0.012442693 -8.7176506e-05)
(0.063589843 0.012380243 -6.6273102e-05)
(0.06556669 0.012322035 -4.3341227e-05)
(0.067526886 0.012269485 -2.1552866e-05)
(0.069474704 0.012224117 -8.670589e-07)
(0.071412552 0.012186283 1.7600787e-05)
(0.073342643 0.012155363 3.3684047e-05)
(0.075266692 0.012131828 4.6779349e-05)
(0.077185556 0.012115004 5.7531646e-05)
(0.079099878 0.012104053 6.6007125e-05)
(0.081010833 0.012098427 7.2362984e-05)
(0.082918933 0.012097452 7.6929907e-05)
(0.084824705 0.01210043 7.9876392e-05)
(0.086728686 0.012106776 8.1511724e-05)
(0.08863142 0.012115847 8.1976527e-05)
(0.090533435 0.012127127 8.1471672e-05)
(0.092435258 0.012140118 8.0145783e-05)
(0.094337428 0.01215437 7.8126628e-05)
(0.096240497 0.01216944 7.5511418e-05)
(0.098145064 0.012184884 7.2358436e-05)
(0.10005181 0.0122002 6.8658734e-05)
(0.10196154 0.012214802 6.4311162e-05)
(0.10387529 0.012227937 5.9071839e-05)
(0.10579435 0.012238645 5.2486968e-05)
(0.10772032 0.012245694 4.3831818e-05)
(0.10965497 0.012247577 3.2054724e-05)
(0.11160011 0.012242578 1.5785248e-05)
(0.11355709 0.012228929 -6.5353389e-06)
(0.11552631 0.01220506 -3.6407177e-05)
(0.11750647 0.012169967 -7.4808752e-05)
(0.11949399 0.012123517 -0.00012181046)
(0.12148273 0.01206644 -0.00017587412)
(0.12346366 0.012000947 -0.00023362956)
(0.12542663 0.01192961 -0.00029026174)
(0.12735885 0.011855728 -0.00034066216)
(0.12925001 0.011781655 -0.0003755267)
(0.13109075 0.01170931 -0.00039303541)
(0.1328735 0.011641684 -0.00038281331)
(0.13459949 0.011578033 -0.00034889022)
(0.13627025 0.01152058 -0.00029063949)
(0.13789148 0.011469978 -0.00021136093)
(0.13947207 0.011426899 -0.00011637379)
(0.14102209 0.011393455 -1.1341411e-05)
(0.14255278 0.011370944 9.8131924e-05)
(0.14407552 0.011361147 0.00020669687)
(0.14560209 0.011364305 0.0003098841)
(0.14714409 0.011380195 0.0004034842)
(0.14871305 0.011406807 0.00048352537)
(0.15031825 0.011441835 0.00054651214)
(0.15196789 0.011482403 0.00058881051)
(0.15366403 0.011525587 0.00060984316)
(0.15540938 0.011566995 0.00060797734)
(0.15719751 0.011606781 0.00058758375)
(0.15902032 0.01164085 0.00054972342)
(0.16086955 0.011670147 0.00050043988)
(0.16273217 0.011691749 0.00044347701)
(0.16460318 0.011705511 0.00038275812)
(0.16647039 0.011708404 0.00032033468)
(0.16833315 0.011701302 0.00025898416)
(0.17018771 0.011681014 0.00019620393)
(0.1720269 0.011652178 0.00013304385)
(0.17385589 0.011612217 6.8128524e-05)
(0.17567174 0.011565588 -3.4886088e-06)
(0.00031128205 0.0011558859 0.0016459651)
(0.00090285948 0.0015580922 0.0019622044)
(0.0016693786 0.0023694574 0.0022553965)
(0.0024820091 0.0029889215 0.0024040753)
(0.0034797318 0.0036474677 0.0024483735)
(0.0046057513 0.0042740424 0.0024431519)
(0.0058884384 0.0048888565 0.0023890565)
(0.0073056582 0.0054741282 0.0023085024)
(0.0088590565 0.0060352447 0.0022024418)
(0.010537216 0.006566606 0.0020820442)
(0.012334169 0.0070651475 0.0019496468)
(0.014238784 0.0075303006 0.0018098098)
(0.016244762 0.0079589956 0.0016637937)
(0.01834377 0.0083521748 0.0015142626)
(0.020524742 0.0087078274 0.0013627417)
(0.022775041 0.0090270508 0.0012107316)
(0.025082735 0.0093104385 0.0010605119)
(0.027435872 0.0095587736 0.00091397361)
(0.02982137 0.0097714476 0.00077325978)
(0.032225912 0.0099509554 0.00063890095)
(0.034638544 0.010097555 0.00051301204)
(0.037050464 0.010213565 0.00039681671)
(0.039451157 0.010301371 0.00029092004)
(0.04183339 0.010362713 0.00019710295)
(0.044189372 0.01040208 0.0001159704)
(0.046511837 0.010422058 4.8996695e-05)
(0.048794671 0.010426338 -4.0725185e-06)
(0.051032965 0.010417908 -4.1899383e-05)
(0.053224779 0.010398993 -6.6184938e-05)
(0.055369369 0.01037245 -7.7950111e-05)
(0.057470252 0.010340533 -7.916094e-05)
(0.059531619 0.010305612 -7.2017769e-05)
(0.06155929 0.010269934 -5.8986957e-05)
(0.063558886 0.010235605 -4.2455803e-05)
(0.065536131 0.010204773 -2.4577125e-05)
(0.067496581 0.010178785 -6.6068676e-06)
(0.069443799 0.010158777 1.0445148e-05)
(0.071380703 0.010145298 2.587857e-05)
(0.07330972 0.010138385 3.9195987e-05)
(0.07523251 0.010137958 5.0469851e-05)
(0.077150319 0.010143838 5.9571211e-05)
(0.079064015 0.010155154 6.6930812e-05)
(0.080974543 0.010171431 7.2184991e-05)
(0.08288241 0.010191997 7.6140914e-05)
(0.084788241 0.010216151 7.8679033e-05)
(0.086692566 0.010243252 8.0043189e-05)
(0.088595866 0.010272654 8.0388507e-05)
(0.09049865 0.010303791 7.9869956e-05)
(0.092401412 0.010336103 7.8612448e-05)
(0.09430467 0.010369076 7.6717213e-05)
(0.096208972 0.010402194 7.4264076e-05)
(0.098114925 0.010434934 7.1287924e-05)
(0.10002324 0.010466703 6.7766396e-05)
(0.10193479 0.010496829 6.3596975e-05)
(0.10385067 0.010524483 5.8558528e-05)
(0.10577225 0.010548671 5.2268074e-05)
(0.10770119 0.010568194 4.4138099e-05)
(0.10963933 0.010581713 3.3332682e-05)
(0.11158843 0.010587824 1.8787838e-05)
(0.11354973 0.010585274 -6.9484981e-07)
(0.1155234 0.010573183 -2.6240362e-05)
(0.11750777 0.010551416 -5.8626473e-05)
(0.1194989 0.010520541 -9.7717497e-05)
(0.12149027 0.010482279 -0.00014240682)
(0.12347263 0.010438784 -0.00018970086)
(0.12543568 0.010393478 -0.00023680619)
(0.12736771 0.010346618 -0.00027512381)
(0.1292593 0.010302891 -0.00030458726)
(0.13109848 0.01026444 -0.00031705251)
(0.13288047 0.010229754 -0.00030952991)
(0.13460509 0.010196404 -0.00028154613)
(0.13627469 0.01016548 -0.00023361683)
(0.13789456 0.010136114 -0.00016833647)
(0.1394734 0.010108037 -8.9523258e-05)
(0.14102115 0.010082953 -2.3127285e-06)
(0.14254877 0.01006154 8.8851762e-05)
(0.14406778 0.010045994 0.00017913616)
(0.14559031 0.010035862 0.00026528228)
(0.14712826 0.010032162 0.00034315287)
(0.14869302 0.010032564 0.0004101296)
(0.15029467 0.010036892 0.00046285536)
(0.15194126 0.010041795 0.00049965344)
(0.15363479 0.010048441 0.00051763093)
(0.1553795 0.010054217 0.00051939876)
(0.15716408 0.010059575 0.0005032517)
(0.15898475 0.010062154 0.00047209192)
(0.16083163 0.010061997 0.00043044692)
(0.1626946 0.010056978 0.00038188463)
(0.16456474 0.010045647 0.00032660451)
(0.16643626 0.010025761 0.00027185965)
(0.16829989 0.0099971581 0.0002109073)
(0.17015985 0.0099536568 0.00015250767)
(0.17200113 0.0099045264 8.6503656e-05)
(0.17383222 0.0098431572 2.0573637e-05)
(0.17564746 0.0097732757 -5.4023952e-05)
(0.00010055441 0.00086583333 0.0014246609)
(0.00064764254 0.0011820952 0.001643751)
(0.0013006197 0.0017642389 0.0019431452)
(0.0021582464 0.0022822852 0.0020242152)
(0.0031470377 0.0027931839 0.002066755)
(0.0042970298 0.0033174698 0.0020476171)
(0.0055871604 0.0038068477 0.0020030914)
(0.007021194 0.0042802202 0.0019310019)
(0.0085864004 0.0047298285 0.0018410164)
(0.010278124 0.0051542389 0.0017403516)
(0.012085975 0.0055512622 0.0016290748)
(0.01400347 0.0059209922 0.0015126268)
(0.016021884 0.0062615068 0.0013919062)
(0.018131836 0.0065729002 0.0012689827)
(0.020323024 0.0068554617 0.0011445117)
(0.022584458 0.007109711 0.0010204013)
(0.02490374 0.0073358946 0.00089781212)
(0.027268107 0.0075341862 0.00077822618)
(0.029664395 0.0077060775 0.00066251173)
(0.032081037 0.0078517677 0.00055233037)
(0.034507073 0.0079727031 0.00044882972)
(0.036931159 0.0080698589 0.00035277103)
(0.039344289 0.0081451468 0.0002653711)
(0.041737709 0.0082013368 0.00018761954)
(0.044103324 0.0082404134 0.00012066289)
(0.046434293 0.0082658611 6.4877197e-05)
(0.048724815 0.0082795409 2.1215664e-05)
(0.050970298 0.0082844235 -1.0809602e-05)
(0.053168511 0.0082819143 -3.1683409e-05)
(0.055319935 0.0082741472 -4.2422278e-05)
(0.057426522 0.0082626006 -4.4708328e-05)
(0.059492657 0.0082491097 -4.0267062e-05)
(0.061523923 0.008235399 -3.1077489e-05)
(0.063526256 0.0082231802 -1.8754745e-05)
(0.065505469 0.008213827 -4.8082559e-06)
(0.067466415 0.0082086615 9.4245359e-06)
(0.069413483 0.0082087685 2.2856147e-05)
(0.07134983 0.0082144196 3.5151859e-05)
(0.073277993 0.0082260291 4.5952287e-05)
(0.075199865 0.0082433107 5.5068621e-05)
(0.07711679 0.0082661818 6.2552239e-05)
(0.079029783 0.0082939965 6.8507095e-05)
(0.080939786 0.0083262255 7.2941221e-05)
(0.082847393 0.0083622941 7.6105607e-05)
(0.08475321 0.0084014982 7.8128631e-05)
(0.08665772 0.0084431854 7.9181452e-05)
(0.088561439 0.0084867543 7.9350409e-05)
(0.090464827 0.0085316159 7.8776676e-05)
(0.092368365 0.0085771921 7.7549023e-05)
(0.09427255 0.0086229462 7.5755345e-05)
(0.096177927 0.0086683274 7.3452745e-05)
(0.098085119 0.0087127808 7.0662162e-05)
(0.099994874 0.0087556858 6.7354653e-05)
(0.10190811 0.0087963574 6.3431694e-05)
(0.10382598 0.0088339757 5.8699454e-05)
(0.10574992 0.0088676053 5.2843111e-05)
(0.10768162 0.0088961723 4.5389962e-05)
(0.10962288 0.0089185421 3.5692542e-05)
(0.11157537 0.0089336124 2.2937819e-05)
(0.11354013 0.0089405232 6.2221682e-06)
(0.11551699 0.008938833 -1.5318004e-05)
(0.11750394 0.0089288071 -4.2199169e-05)