/*--------------------------------*- C++ -*----------------------------------*\
  =========                 |
  \\      /  F ield         | OpenFOAM: The Open Source CFD Toolbox
   \\    /   O peration     | Website:  https://openfoam.org
    \\  /    A nd           | Version:  6
     \\/     M anipulation  |
\*---------------------------------------------------------------------------*/
FoamFile
{
    version     2.0;
    format      ascii;
    class       pointVectorField;
    location    "1.36";
    object      lm;
}
// * * * * * * * * * * * * * * * * * * * * * * * * * * * * * * * * * * * * * //

dimensions      [1 -2 -1 0 0 0 0];

internalField   nonuniform List<vector> 
3969
(
(0 0 0)
(0 0 0)
(-5099.8828 530.50462 -175.09048)
(-5016.3179 1469.762 -76.310108)
(0 0 0)
(0 0 0)
(-5086.8808 1587.5907 -75.653252)
(-5167.8309 643.87447 -173.93907)
(0 0 0)
(0 0 0)
(0 0 0)
(0 0 0)
(0 0 0)
(0 0 0)
(0 0 0)
(-4858.6326 613.48147 -156.21616)
(-4645.6804 692.01715 -139.0821)
(-4662.9115 802.69671 -128.70604)
(-4879.352 954.9363 -122.94308)
(-5147.0084 1130.5528 -117.00204)
(-5290.4627 1290.1991 -106.96488)
(-5215.5961 1399.7503 -92.373186)
(-0.42913755 -16.773131 -25.252718)
(7.5277667 -36.633547 -36.842057)
(8.630598 -60.744868 -46.642966)
(0.46432144 -87.847922 -52.414496)
(-15.031788 -117.01747 -57.896999)
(-40.742564 -147.67629 -61.827092)
(-75.348712 -178.71092 -65.562766)
(-120.7163 -210.09937 -68.508175)
(-176.27037 -240.42112 -70.984351)
(-242.60782 -269.58336 -72.934127)
(-319.5586 -296.69637 -74.634225)
(-407.50806 -321.61698 -75.715062)
(-505.75277 -343.10318 -76.369888)
(-614.58825 -361.59122 -76.733779)
(-733.31326 -375.72896 -76.599753)
(-861.31512 -385.9721 -76.224468)
(-998.43883 -391.69562 -75.392918)
(-1143.7847 -392.89395 -74.211741)
(-1296.7317 -389.3003 -72.654318)
(-1456.3426 -381.09635 -70.62517)
(-1621.7559 -368.17281 -68.244336)
(-1791.9414 -350.9219 -65.387744)
(-1965.8331 -329.28468 -62.158532)
(-2142.3724 -303.96591 -58.514847)
(-2320.1552 -274.71964 -54.613891)
(-2498.3161 -242.8725 -50.50137)
(-2675.297 -208.14114 -46.428484)
(-2850.1509 -171.28691 -42.440053)
(-3021.6358 -132.7601 -38.852775)
(-3188.4635 -93.061164 -35.867474)
(-3349.7946 -52.645253 -33.748515)
(-3504.5942 -11.92257 -32.741976)
(-3652.0376 28.661273 -32.996668)
(-3791.5262 68.814338 -34.730032)
(-3922.58 108.34168 -38.153402)
(-4044.8844 146.70739 -42.896371)
(-4158.2584 184.07134 -49.594475)
(-4262.9217 220.13389 -57.790568)
(-4359.3311 254.94244 -67.06877)
(-4447.249 288.24752 -77.696881)
(-4528.4214 320.46285 -89.053402)
(-4602.3795 350.93697 -101.1852)
(-4671.0311 380.85696 -113.43413)
(-4734.8977 409.09728 -125.84971)
(-4794.839 436.79706 -137.86459)
(-4852.8122 463.75822 -149.32115)
(-4910.4365 490.02003 -160.16178)
(8.1505268 14.714756 21.825941)
(20.940089 29.543814 37.828969)
(30.960892 47.126792 52.746936)
(29.556687 70.662234 62.690022)
(19.805181 95.970227 71.101487)
(2.0388695 123.05252 77.624184)
(-25.287716 152.73643 82.950738)
(-61.185639 183.73774 86.760444)
(-106.39735 216.46227 89.270062)
(-161.38118 251.01609 90.430144)
(-224.88764 286.20732 90.2601)
(-298.29905 323.11959 89.231184)
(-380.29808 360.76724 86.835542)
(-471.25763 399.21427 83.812619)
(-570.6352 438.58423 80.04714)
(-678.26211 478.17723 75.880626)
(-793.87903 518.64113 71.454105)
(-916.70874 558.81908 67.076358)
(-1046.8457 599.79279 62.825304)
(-1183.319 640.26094 59.031464)
(-1325.9825 681.13789 55.651728)
(-1474.1384 721.40017 53.035163)
(-1627.3312 761.67378 50.961559)
(-1784.8429 801.33283 49.773775)
(-1946.1903 840.34347 49.174002)
(-2110.6451 878.67167 49.037088)
(-2277.6396 916.06511 49.548707)
(-2445.9955 952.60678 50.293571)
(-2615.1736 987.84771 51.138769)
(-2784.0939 1021.8857 51.814427)
(-2952.0852 1054.6951 52.158318)
(-3118.0711 1086.0888 51.85023)
(-3281.2023 1116.154 50.752612)
(-3440.5132 1144.8439 48.631757)
(-3595.1544 1172.229 45.369497)
(-3744.2617 1198.3804 40.961389)
(-3887.2679 1223.5067 34.97488)
(-4023.141 1247.5197 28.244195)
(-4151.5459 1270.6177 19.999075)
(-4272.408 1293.0571 10.934125)
(-4384.9644 1314.8791 0.87914679)
(-4489.534 1335.9954 -9.6330326)
(-4586.2572 1356.8759 -20.766)
(-4675.224 1377.1802 -31.950082)
(-4757.1585 1397.2334 -43.278274)
(-4832.5593 1416.9312 -54.438931)
(-4918.8206 1441.0319 -65.475789)
(0 0 0)
(0 0 0)
(0 0 0)
(0 0 0)
(0 0 0)
(0 0 0)
(0 0 0)
(2.1568739 6.6718456 -12.91047)
(12.453238 29.038363 -25.1334)
(18.038234 41.384831 -29.799427)
(9.4237705 69.285972 -32.23245)
(-3.736314 93.288892 -33.801049)
(-27.701984 121.69388 -31.897764)
(-59.35459 154.63576 -31.799655)
(-99.546386 185.31092 -28.169038)
(-149.48044 223.21606 -26.79717)
(-207.23907 257.59699 -22.067109)
(-274.54492 298.35211 -20.643658)
(-350.40252 334.43572 -15.284693)
(-436.14432 375.67723 -11.201325)
(-530.64468 415.51915 -6.0361311)
(-633.29379 456.04746 -1.0587657)
(-744.57797 497.27469 4.363708)
(-863.69311 537.92444 9.8402554)
(-990.47259 578.98476 15.705343)
(-1124.5414 619.80339 21.604656)
(-1265.3833 660.43299 27.87202)
(-1412.5409 701.01396 34.162916)
(-1565.3901 741.29913 40.71965)
(-1723.4038 781.52846 47.307399)
(-1885.7193 821.37698 54.003707)
(-2051.7881 861.41841 60.613847)
(-2219.9367 900.66908 66.896864)
(-2389.7293 940.46227 72.325345)
(-2561.2156 979.20697 77.967187)
(-2732.5582 1018.1622 82.553838)
(-2903.0891 1056.6803 86.317148)
(-3071.6377 1094.7467 88.903556)
(-3237.2796 1132.3309 90.063321)
(-3399.0586 1169.2518 89.65594)
(-3556.0269 1205.2909 87.475352)
(-3707.4175 1240.3159 83.486322)
(-3853.0827 1274.43 77.56439)
(-3991.6475 1307.778 69.882072)
(-4120.4735 1337.5226 60.167656)
(-4243.2128 1367.522 49.179566)
(-4357.6285 1395.3042 36.502237)
(-4463.8432 1421.5707 22.883003)
(-4562.2901 1446.0828 8.5417311)
(-4652.9811 1469.1222 -6.2622291)
(-4736.5709 1490.5645 -21.064424)
(-4813.6502 1510.7187 -35.546415)
(-4884.9461 1529.5767 -49.384716)
(-4932.2064 1541.4238 -61.934575)
(-5297.5599 1525.1651 -92.319698)
(-5354.5286 1411.641 -106.56191)
(-5181.9771 1242.2564 -115.35293)
(-4875.5637 1052.5855 -119.6477)
(-4697.565 904.46307 -125.90032)
(-4718.3408 799.50376 -137.11708)
(-4960.8908 728.56235 -155.5003)
(-4999.7099 604.29357 -161.03063)
(-4962.127 580.63503 -151.94935)
(-4902.1848 553.3026 -142.1063)
(-4839.2002 524.08196 -132.06737)
(-4772.2734 493.00338 -122.14919)
(-4700.4065 459.70455 -112.44665)
(-4622.7446 424.13701 -103.0702)
(-4538.5861 386.33298 -94.332206)
(-4447.2543 346.30022 -86.224312)
(-4348.2818 304.37099 -79.023299)
(-4237.9425 260.50065 -72.828886)
(-4124.2732 214.96949 -67.179448)
(-4002.5897 168.90528 -63.292502)
(-3869.772 121.73741 -59.832279)
(-3729.8351 74.616265 -57.514209)
(-3582.0777 27.714782 -55.80029)
(-3427.2918 -18.389353 -54.623452)
(-3266.1127 -63.263838 -53.699845)
(-3099.436 -106.34129 -52.91417)
(-2928.1465 -147.33015 -51.859646)
(-2753.3285 -185.73204 -50.438405)
(-2576.0412 -221.22284 -48.422418)
(-2397.3923 -253.52774 -45.583828)
(-2218.6416 -282.28499 -41.891447)
(-2041.0561 -307.28783 -37.37685)
(-1865.6272 -328.38542 -31.895499)
(-1693.6227 -345.36789 -25.586908)
(-1526.0905 -358.18229 -18.590791)
(-1364.0935 -366.66599 -11.020609)
(-1208.5023 -370.98087 -3.0379473)
(-1060.3121 -370.93097 5.0867863)
(-920.09907 -367.00819 13.18083)
(-791.22667 -359.71132 20.989619)
(-667.74331 -346.38376 27.985791)
(-554.9851 -330.5689 34.970374)
(-453.16621 -311.83533 40.063492)
(-362.14683 -289.78231 44.867437)
(-281.34736 -265.3103 48.325141)
(-211.0217 -238.17086 50.585468)
(-152.07712 -209.65224 51.850345)
(-103.95065 -180.91066 51.84735)
(-64.583483 -150.71708 50.459114)
(-36.319032 -121.35763 48.912592)
(-16.739606 -92.19133 44.677741)
(-5.8117765 -65.517165 40.141398)
(-2.6741937 -39.02526 32.525748)
(-13.355117 -18.514166 17.795235)
(0 0 0)
(0 0 0)
(0 0 0)
(0 0 0)
(0 0 0)
(0 0 0)
(0 0 0)
(0 0 0)
(0 0 0)
(0 0 0)
(0 0 0)
(0 0 0)
(0 0 0)
(0 0 0)
(-5025.2603 1484.2308 -76.277966)
(-5033.9054 1498.6122 -76.030074)
(-5042.4762 1512.687 -75.534402)
(-5051.1459 1526.7633 -75.15538)
(-5059.815 1541.0505 -75.034929)
(-5068.6825 1555.9151 -74.993953)
(-5077.7532 1571.2274 -75.595823)
(-5107.7499 545.7125 -174.76456)
(-5115.8599 560.24801 -174.31027)
(-5124.2638 574.41932 -174.03837)
(-5132.9803 588.33188 -173.91298)
(-5141.8319 602.19059 -173.94357)
(-5150.6874 615.99433 -173.96692)
(-5159.4491 630.04795 -174.10324)
(5.5777826 -18.886728 -22.161)
(14.987916 -35.108191 -27.513564)
(17.991332 -53.196389 -33.449214)
(14.329799 -72.764359 -38.441339)
(2.7548277 -93.764051 -41.864073)
(-17.206747 -116.49344 -45.420777)
(-46.329929 -139.72118 -48.048215)
(-85.24713 -163.68615 -51.014971)
(-135.2621 -186.96368 -52.967455)
(-196.56111 -209.91879 -55.382812)
(-269.86975 -231.19186 -57.031406)
(-355.36447 -250.61761 -58.543614)
(-453.72591 -267.3559 -59.77667)
(-564.31824 -280.82021 -60.634989)
(-687.19684 -290.36778 -61.20766)
(-821.81127 -295.6884 -61.335945)
(-967.20146 -296.15805 -61.077024)
(-1122.3808 -291.61189 -60.424359)
(-1286.1481 -281.86039 -59.195231)
(-1457.0664 -267.00152 -57.472798)
(-1633.5574 -247.08855 -55.247211)
(-1813.9543 -222.51062 -52.448704)
(-1996.6338 -193.74424 -49.219764)
(-2179.7367 -161.30058 -45.535178)
(-2361.88 -125.8219 -41.672384)
(-2541.2637 -87.92502 -37.50686)
(-2716.4623 -48.334457 -33.508428)
(-2886.2863 -7.7487159 -29.788213)
(-3049.4024 33.373975 -26.603158)
(-3204.8991 74.209839 -24.167635)
(-3352.0377 114.46281 -22.75501)
(-3490.1368 153.69257 -22.484201)
(-3618.8525 191.54524 -23.570765)
(-3738.1205 227.95723 -26.144536)
(-3847.8256 262.5848 -30.03136)
(-3948.4516 295.55737 -35.475711)
(-4040.3042 326.8728 -42.208688)
(-4124.2029 356.4356 -50.114486)
(-4200.8648 384.64001 -59.027428)
(-4271.2745 411.32875 -68.750946)
(-4336.7332 436.88078 -79.052982)
(-4397.8747 461.42953 -89.754903)
(-4456.84 485.26688 -100.62094)
(-4513.9025 508.37628 -111.52444)
(-4571.0969 531.40815 -122.20273)
(-4629.6345 554.12567 -132.65733)
(-4709.1882 579.19254 -143.4428)
(13.928483 -12.591957 -16.372541)
(23.187668 -23.782597 -18.06808)
(27.262163 -38.622179 -23.16377)
(24.848007 -53.230725 -25.383737)
(15.579703 -69.386157 -28.428577)
(-1.9821777 -86.821517 -30.152917)
(-28.500413 -104.54451 -32.847912)
(-66.302121 -122.7543 -34.00844)
(-114.79091 -140.22734 -36.391994)
(-175.9397 -157.26132 -37.87918)
(-249.91924 -171.98734 -39.392124)
(-337.37327 -185.17001 -40.874036)
(-438.44327 -194.79856 -42.121159)
(-552.95429 -201.1912 -43.177783)
(-680.43055 -203.12269 -44.02653)
(-819.70337 -200.81332 -44.386024)
(-969.78222 -193.51232 -44.501669)
(-1129.0456 -181.22844 -44.170854)
(-1295.8716 -163.88807 -43.408328)
(-1468.3254 -141.71033 -42.153781)
(-1644.2396 -115.00828 -40.387336)
(-1821.7286 -84.437738 -38.064466)
(-1998.4608 -50.606381 -35.234202)
(-2173.0615 -14.166808 -32.084483)
(-2343.3168 24.215596 -28.520421)
(-2508.1161 63.501627 -25.034869)
(-2666.17 103.35501 -21.473067)
(-2816.4383 142.92379 -18.218557)
(-2958.3496 181.56272 -15.578759)
(-3091.4422 219.10046 -13.595757)
(-3215.5714 255.03185 -12.587836)
(-3330.7353 289.22187 -12.716642)
(-3437.4301 321.60444 -14.105637)
(-3535.9732 352.08311 -16.708497)
(-3627.332 380.80369 -20.684826)
(-3712.158 407.96972 -25.876997)
(-3791.7298 433.56841 -32.184749)
(-3866.8348 458.05347 -39.586384)
(-3939.3142 481.63145 -47.843758)
(-4009.6133 504.33036 -56.755095)
(-4079.792 526.90046 -66.380454)
(-4150.4279 549.04508 -76.275809)
(-4223.3983 571.5996 -86.608948)
(-4299.2412 594.30579 -96.991532)
(-4379.6951 617.79572 -107.4813)
(-4465.228 641.98771 -118.03532)
(-4562.7389 667.94326 -128.72499)
(23.024561 -8.4165092 -11.547832)
(32.706922 -15.620379 -12.464591)
(37.424704 -25.259052 -13.513035)
(34.885356 -35.961551 -14.436389)
(25.541172 -46.844884 -14.771249)
(6.1555463 -58.920171 -15.719476)
(-23.438887 -69.795611 -15.366207)
(-63.911582 -80.997882 -16.372941)
(-116.7296 -90.442547 -16.80883)
(-182.41831 -98.449143 -17.320493)
(-260.96477 -104.33306 -18.266598)
(-352.51597 -107.3237 -19.127516)
(-457.17253 -107.18372 -19.968451)
(-573.50572 -103.45476 -21.090651)
(-701.11559 -95.867174 -22.197435)
(-838.55649 -84.394855 -22.859478)
(-984.17338 -68.744184 -23.483363)
(-1136.1486 -49.300712 -23.683845)
(-1292.7372 -26.025397 -23.648124)
(-1451.7241 0.36699044 -23.144451)
(-1611.4846 29.68242 -22.245207)
(-1770.0549 61.095604 -20.762147)
(-1926.333 94.25432 -18.923494)
(-2078.4156 128.57163 -16.613623)
(-2225.67 163.15856 -14.090949)
(-2367.0408 197.86948 -11.305808)
(-2502.2379 232.07768 -8.5415486)
(-2630.7018 265.41776 -6.1320112)
(-2752.709 297.74294 -4.056132)
(-2868.371 328.81136 -2.5635207)
(-2978.0839 358.45788 -1.9437812)
(-3082.5556 386.86753 -2.2319975)
(-3182.4525 413.99316 -3.5538621)
(-3278.759 440.01979 -6.0424395)
(-3372.3252 465.24654 -9.6674093)
(-3464.2976 489.74665 -14.454578)
(-3555.5904 513.89578 -20.339225)
(-3647.479 537.97063 -27.33605)
(-3740.7136 562.14564 -35.193194)
(-3836.4696 586.87589 -44.028436)
(-3935.7519 612.17627 -53.462)
(-4039.0495 638.40547 -63.613168)
(-4147.5231 665.78824 -74.22589)
(-4261.3195 694.30393 -85.252769)
(-4381.0897 724.32488 -96.581103)
(-4507.289 755.70478 -108.18049)
(-4629.3589 786.66246 -119.56509)
(27.174884 -2.7927633 -3.1254644)
(37.562425 -4.162956 0.41169069)
(44.041161 -8.3033937 0.17286254)
(40.950958 -12.777009 2.1281405)
(28.742795 -16.283246 2.8814817)
(5.7065335 -21.299941 5.0785487)
(-28.332098 -23.19606 5.1340627)
(-74.845494 -25.720054 6.4086484)
(-133.79651 -24.609684 6.4895999)
(-205.16719 -22.641831 6.1855879)
(-288.6539 -17.03492 5.8021799)
(-383.93803 -9.4138215 5.1349443)
(-489.39428 1.2942588 4.1928945)
(-604.01554 14.893476 2.7559065)
(-726.50558 30.92725 1.5087519)
(-855.2247 49.766672 0.00529117)
(-988.32456 70.660939 -1.3532179)
(-1124.6159 93.913586 -2.6119377)
(-1262.1565 118.71569 -3.6505324)
(-1400.1148 145.06197 -4.2931227)
(-1536.9741 172.3848 -4.4936977)
(-1672.2947 200.31057 -4.2462609)
(-1804.591 228.56829 -3.6142017)
(-1934.0521 256.88771 -2.6697847)
(-2060.0815 285.11939 -1.3007548)
(-2183.0513 313.01858 0.20992907)
(-2302.8269 340.45546 1.7521261)
(-2419.9375 367.40645 3.2916239)
(-2534.7934 393.86945 4.666147)
(-2647.9489 419.8477 5.5980451)
(-2760.0897 445.47478 6.0596112)
(-2871.8581 470.84934 5.8555586)
(-2983.9999 496.15906 4.7925108)
(-3097.1517 521.53644 2.8316258)
(-3212.0698 547.26828 -0.20716005)
(-3329.2348 573.48459 -4.3115184)
(-3449.4389 600.42335 -9.5913512)
(-3573.005 628.35736 -16.014042)
(-3699.9898 657.36475 -23.608259)
(-3831.2923 687.55804 -32.214555)
(-3967.0569 719.30396 -41.869614)
(-4106.9248 752.49564 -52.409634)
(-4251.5477 787.4352 -63.766071)
(-4400.043 823.82658 -75.645884)
(-4552.9359 862.1199 -88.167199)
(-4709.5655 901.67582 -100.68517)
(-4848.4813 938.65134 -113.22167)
(30.160398 5.8673776 6.3128854)
(42.530481 10.642849 9.6425174)
(49.384466 14.123642 13.734459)
(44.639069 17.577097 18.171083)
(30.178393 21.680021 22.305029)
(3.0432516 26.43925 25.31106)
(-35.473404 33.756063 28.139569)
(-87.141922 41.675934 30.245295)
(-149.92229 53.056742 30.968122)
(-224.66698 65.13486 31.589787)
(-309.46168 80.391044 31.273571)
(-403.47098 96.247988 30.062666)
(-505.19359 115.20193 28.167172)
(-613.4343 134.5369 26.08262)
(-726.66589 156.09191 23.578581)
(-843.39821 178.15753 20.966174)
(-962.8029 201.36272 18.572572)
(-1083.4109 224.95789 16.233704)
(-1204.8564 249.02142 14.243954)
(-1326.1596 273.32292 12.633412)
(-1447.2857 297.6576 11.386301)
(-1573.457 323.20434 10.648572)
(-1700.6092 349.05179 10.361417)
(-1819.0424 373.37325 10.43513)
(-1937.1557 397.42863 10.983323)
(-2054.8916 421.40459 11.679402)
(-2173.0542 445.50137 12.63518)
(-2292.0761 469.7527 13.664286)
(-2412.4722 494.22845 14.589037)
(-2534.8261 519.06973 15.365114)
(-2659.5648 544.39215 15.764148)
(-2787.2463 570.33806 15.659571)
(-2918.0452 597.05945 14.852838)
(-3052.4301 624.55256 13.286255)
(-3190.3448 653.19398 10.669293)
(-3332.0186 682.8132 7.0043691)
(-3477.2233 713.71503 2.1657858)
(-3627.0325 746.19616 -4.063654)
(-3806.2451 785.35084 -11.503656)
(-3972.5769 822.99475 -20.303851)
(-4130.1649 859.71953 -30.175463)
(-4290.0622 898.19649 -41.353857)
(-4450.8475 937.90023 -53.140921)
(-4611.8169 979.04663 -65.990993)
(-4772.7153 1021.3557 -79.002269)
(-4932.3645 1064.5016 -92.473693)
(-5071.6175 1104.345 -105.61796)
(27.329382 11.996604 14.493427)
(37.994687 24.368867 22.682409)
(46.498993 34.831984 30.380447)
(41.829208 45.81896 37.17108)
(26.749113 58.182426 42.484483)
(-0.29652921 71.886706 47.177575)
(-38.899515 88.209916 50.609272)
(-89.089795 105.08007 52.786583)
(-149.83943 125.02508 53.892379)
(-220.91112 144.92675 53.879639)
(-300.58906 167.44134 52.907733)
(-388.66989 190.3598 51.106312)
(-483.33883 214.61234 48.824404)
(-583.61934 239.0214 45.833289)
(-688.45603 264.1504 42.572735)
(-797.12134 289.28892 39.22978)
(-908.79957 314.75856 36.005202)
(-1023.0744 340.062 32.812997)
(-1139.4237 365.64915 30.061795)
(-1257.8026 390.97361 27.596511)
(-1378.1156 416.75136 25.576906)
(-1502.2232 442.67371 24.238172)
(-1627.8084 468.89941 23.055782)
(-1753.766 494.85152 22.52763)
(-1880.3799 520.30391 22.374935)
(-2009.3823 546.35126 22.599046)
(-2141.3139 572.7186 23.159509)
(-2276.2931 599.50659 23.757646)
(-2414.5774 626.89859 24.543068)
(-2556.2034 654.92815 25.181083)
(-2701.1805 683.59145 25.619723)
(-2849.4603 712.93522 25.629651)
(-3000.784 743.01896 25.031763)
(-3154.8986 773.80527 23.699573)
(-3311.3461 805.45339 21.29405)
(-3469.5515 837.74162 17.916412)
(-3629.1441 871.01215 13.170584)
(-3789.1739 904.96014 7.2296323)
(-3951.6974 940.45046 -0.23877974)
(-4156.0657 986.85553 -8.9698051)
(-4306.2627 1021.9992 -19.214124)
(-4458.9127 1058.8445 -30.217051)
(-4607.7747 1096.4093 -42.358401)
(-4752.4326 1134.3553 -54.999263)
(-4892.3834 1172.7994 -68.124409)
(-5027.262 1211.2438 -81.326288)
(-5150.6729 1248.4609 -94.247318)
(17.928238 23.020917 20.981213)
(31.661253 37.035159 31.12585)
(41.710725 51.790972 41.920526)
(38.10362 67.684767 50.500461)
(26.134476 85.954201 57.687004)
(2.1252757 106.84288 63.109368)
(-31.24958 129.19373 67.577708)
(-75.450039 153.07976 70.226639)
(-129.39005 179.18327 71.99099)
(-192.87459 205.15796 72.115826)
(-265.6073 233.98487 71.39234)
(-346.17877 261.92098 69.739171)
(-434.92564 292.20951 66.789538)
(-529.93089 321.8144 63.780437)
(-631.722 352.49194 60.041987)
(-738.88194 383.1216 56.338883)
(-851.65689 414.23809 52.459007)
(-969.04164 445.51871 48.840183)
(-1091.1979 477.04124 45.473146)
(-1217.6306 508.80556 42.527815)
(-1348.359 540.76834 40.090184)
(-1483.0175 572.98522 38.174961)
(-1621.75 605.33881 36.82173)
(-1764.3443 638.09996 36.032661)
(-1910.5127 670.70363 35.88141)
(-2060.375 703.69834 36.021077)
(-2213.3254 736.50775 36.576421)
(-2369.0716 769.48184 37.311095)
(-2527.278 802.40773 38.201228)
(-2687.3406 835.11569 38.916118)
(-2848.7407 867.57718 39.40751)
(-3010.8749 899.74338 39.363611)
(-3172.9014 931.5685 38.613872)
(-3334.2566 962.98111 37.00408)
(-3493.868 994.13582 34.223056)
(-3651.2569 1024.6905 30.436663)
(-3805.405 1055.1967 25.137378)
(-3955.5814 1085.2793 18.614178)
(-4101.2245 1115.2287 10.808703)
(-4243.9397 1145.6242 1.726709)
(-4375.8115 1174.5907 -8.3677714)
(-4504.282 1204.3432 -19.429017)
(-4626.2783 1233.8678 -31.109743)
(-4741.7697 1263.5264 -43.317129)
(-4850.7347 1292.9025 -55.596621)
(-4953.3862 1322.161 -67.899869)
(-5047.4066 1350.4159 -79.818036)
(0 0 0)
(0 0 0)
(0 0 0)
(0 0 0)
(0 0 0)
(0 0 0)
(0 0 0)
(0 0 0)
(0 0 0)
(0 0 0)
(0 0 0)
(0 0 0)
(0 0 0)
(0 0 0)
(0 0 0)
(0 0 0)
(0 0 0)
(0 0 0)
(0 0 0)
(0 0 0)
(0 0 0)
(0 0 0)
(0 0 0)
(0 0 0)
(0 0 0)
(0 0 0)
(0 0 0)
(0 0 0)
(0 0 0)
(0 0 0)
(0 0 0)
(0 0 0)
(0 0 0)
(0 0 0)
(0 0 0)
(0 0 0)
(0 0 0)
(0 0 0)
(0 0 0)
(0 0 0)
(0 0 0)
(0 0 0)
(0 0 0)
(0 0 0)
(0 0 0)
(0 0 0)
(0 0 0)
(0 0 0)
(0 0 0)
(3.1801848 1.9322054 13.536448)
(0.69646511 2.7448051 11.349838)
(-0.80521437 3.5321665 7.5719077)
(-1.6403602 3.9395859 4.3601572)
(-1.7492278 3.7893501 0.71636617)
(-0.97878016 3.889173 -3.6189157)
(1.3513425 1.5280615 -6.9297272)
(11.900242 19.172602 31.700263)
(5.4248603 21.693895 21.698271)
(1.742829 21.974223 13.702151)
(0.20002488 22.417646 7.0464208)
(-0.043017471 23.676432 0.2131109)
(1.9590205 23.414003 -7.6711879)
(5.3686477 21.646864 -15.773849)
(18.607672 37.180487 41.782529)
(9.6848635 36.334233 31.925558)
(3.6751492 38.287633 20.502948)
(1.0506903 39.306155 12.071933)
(0.2584309 39.01177 0.97509445)
(3.0546106 39.720966 -7.6294687)
(7.8356811 40.149768 -20.741681)
(13.198435 65.30467 50.571361)
(3.6687822 66.782033 38.888863)
(-3.6814482 66.63398 26.717832)
(-7.4121754 67.724432 15.818666)
(-8.2825585 68.307945 3.7872357)
(-5.5978131 69.410677 -8.269392)
(0.12529841 67.198786 -20.333194)
(3.727898 90.926318 58.434094)
(-8.7805448 90.999997 45.808856)
(-17.685493 92.317424 31.860779)
(-22.092525 93.258892 18.962446)
(-23.622368 94.342933 5.4761224)
(-21.010433 94.251763 -6.6344165)
(-15.47485 94.413564 -21.730222)
(-16.441709 120.85183 64.189296)
(-29.120033 121.73633 51.117237)
(-38.509741 122.22529 36.535951)
(-43.680389 124.10305 23.664202)
(-45.660246 124.17147 8.6479902)
(-43.1239 125.15385 -5.0651955)
(-37.463382 123.43044 -18.966537)
(-43.950051 151.27284 69.297795)
(-57.76369 152.59804 55.298248)
(-68.277475 154.63687 40.731436)
(-74.435919 156.17985 26.645691)
(-76.708414 157.34623 11.657455)
(-75.167437 158.57661 -2.1439669)
(-70.044624 157.43737 -18.431732)
(-80.520512 183.99606 72.828799)
(-95.299647 186.55578 59.19046)
(-106.29839 188.1419 43.570756)
(-112.65861 189.5981 29.343546)
(-115.21717 190.14996 14.63349)
(-114.23036 190.20773 -0.26095744)
(-108.66275 189.07384 -14.524349)
(-126.64726 218.69172 75.551935)
(-141.28207 220.87923 61.049104)
(-152.33294 223.46494 46.720805)
(-159.76802 225.89969 32.327893)
(-163.25298 228.03958 17.315325)
(-162.62058 227.81723 2.8213462)
(-158.51024 227.62848 -13.111058)
(-180.6566 253.58341 76.831574)
(-196.17516 257.33524 63.250126)
(-207.96328 259.61947 48.630496)
(-215.62326 262.42813 34.08232)
(-218.90407 262.92696 19.607242)
(-219.17729 263.13054 5.4865977)
(-215.10193 262.46736 -8.9296573)
(-244.893 290.96564 77.013886)
(-260.02043 294.7683 63.742855)
(-271.94598 298.27378 49.277277)
(-279.58157 299.93328 36.209236)
(-284.16962 302.50447 21.841777)
(-284.69128 302.57369 8.5273205)
(-281.94066 302.76183 -7.2850561)
(-317.52247 328.15637 76.851634)
(-332.89951 332.88443 63.528771)
(-344.58862 336.04747 50.861243)
(-353.20849 339.26951 37.428326)
(-357.84816 341.0093 23.916781)
(-359.06421 340.51839 11.130533)
(-357.11456 340.94435 -3.2840359)
(-399.59812 367.64394 74.831425)
(-413.92682 371.94963 62.710372)
(-426.1721 375.97786 50.613092)
(-434.59048 378.14585 38.26268)
(-439.88315 380.32414 25.696267)
(-441.67879 381.08937 13.819815)
(-440.5748 380.6868 0.51976384)
(-489.74335 406.32199 73.026717)
(-503.99986 411.37814 61.533741)
(-516.46397 415.3369 50.797748)
(-524.85881 418.06984 39.102957)
(-530.91006 421.01634 27.665703)
(-533.38068 420.75509 16.900485)
(-533.71639 421.2191 4.3975776)
(-588.48697 446.83304 70.166715)
(-602.53836 451.69372 59.801271)
(-614.62194 455.35422 50.111557)
(-623.49926 458.45935 39.351612)
(-629.8645 460.60193 29.548573)
(-633.39623 461.027 19.285847)
(-634.42204 461.1715 8.4636418)
(-695.59841 486.67583 67.15406)
(-709.05181 491.35413 57.964628)
(-721.27072 495.65 49.417462)
(-730.13915 498.49033 40.227764)
(-737.23081 501.24435 31.111318)
(-741.35819 501.67886 22.465383)
(-743.62155 501.98104 12.689734)
(-810.27522 527.19689 63.908873)
(-823.57416 532.14792 55.907775)
(-835.4427 535.9514 48.742687)
(-844.71911 538.87425 40.39104)
(-852.19901 541.56025 32.983359)
(-857.30687 541.93099 25.275218)
(-860.62965 542.38418 16.949442)
(-932.7832 567.70715 60.655123)
(-945.4457 572.15443 54.180394)
(-957.47266 576.16923 47.930365)
(-966.71613 579.23129 41.201988)
(-974.80627 581.80091 34.905586)
(-980.67901 582.47754 28.461393)
(-985.1236 582.83743 21.570472)
(-1062.141 608.24232 57.765777)
(-1074.6497 612.56185 52.349149)
(-1086.3437 616.43289 47.520874)
(-1095.9011 619.22137 41.953248)
(-1104.5362 621.98197 36.966447)
(-1111.2674 622.63383 31.773512)
(-1116.8698 623.23577 26.28922)
(-1198.3308 648.57993 55.062747)
(-1210.381 652.5923 51.040369)
(-1222.0582 656.30187 47.398837)
(-1231.8075 659.35746 43.134991)
(-1240.9993 661.94872 39.441573)
(-1248.563 662.87147 35.41527)
(-1255.3666 663.36349 31.323915)
(-1340.5791 688.84557 52.99721)
(-1352.4619 692.49587 50.177717)
(-1363.9819 696.23279 47.705205)
(-1374.088 699.02258 44.697978)
(-1383.8141 701.75237 42.151968)
(-1392.2879 702.67433 39.295277)
(-1400.1897 703.36367 36.517129)
(-1488.5469 728.63994 51.49658)
(-1500.1561 732.11669 49.841347)
(-1511.7183 735.63038 48.487582)
(-1522.0446 738.57611 46.677011)
(-1532.3577 741.18529 45.259756)
(-1541.6136 742.37659 43.527704)
(-1550.7566 743.16743 41.999182)
(-1641.4993 768.26723 50.644837)
(-1653.0468 771.34485 50.075862)
(-1664.5531 774.88814 49.867848)
(-1675.3282 777.71583 49.129863)
(-1686.1298 780.53691 48.770558)
(-1696.3823 781.89203 48.060496)
(-1706.6069 782.837 47.639945)
(-1798.9968 807.12301 50.427627)
(-1810.4213 810.22821 50.945113)
(-1822.1421 813.62925 51.742548)
(-1833.1046 816.65666 51.909063)
(-1844.5429 819.43103 52.592672)
(-1855.5417 820.90735 52.755027)
(-1866.859 822.15604 53.440689)
(-1960.1315 845.62513 50.937389)
(-1971.7899 848.6136 52.301731)
(-1983.3436 851.96359 54.076073)
(-1994.8269 855.14465 55.064332)
(-2006.7944 857.93227 56.699477)
(-2018.5915 859.94797 57.639208)
(-2031.1043 861.50635 59.375206)
(-2124.4471 883.36268 51.781292)
(-2136.1819 886.34358 54.185824)
(-2147.8706 889.88054 56.631159)
(-2160.0784 893.24307 58.639867)
(-2172.328 896.19638 60.819565)
(-2184.8178 898.41559 62.731989)
(-2198.0371 900.19021 65.032867)
(-2291.3472 920.49704 53.095058)
(-2302.9506 923.53219 56.458279)
(-2314.929 927.20629 59.167229)
(-2326.909 930.66032 62.344177)
(-2340.1459 934.03126 64.782193)
(-2353.265 936.94674 67.482054)
(-2367.333 938.96742 69.843661)
(-2459.733 956.6971 54.599218)
(-2471.2779 959.9049 58.637268)
(-2483.4104 963.95071 62.01113)
(-2495.9419 967.67365 65.838951)
(-2509.271 971.61106 68.710975)
(-2523.1453 974.42772 72.09521)
(-2537.8606 977.52815 75.011628)
(-2628.5821 991.81115 56.187163)
(-2640.2833 995.4943 60.737376)
(-2652.517 999.77684 64.798097)
(-2665.3388 1004.0341 68.853508)
(-2679.0111 1008.2917 72.392155)
(-2693.4748 1012.1121 76.084068)
(-2708.7882 1015.5421 79.357328)
(-2797.3462 1026.0721 57.367252)
(-2808.999 1030.1189 62.646205)
(-2821.4514 1034.9885 66.822254)
(-2834.4719 1039.6935 71.52935)
(-2848.4818 1044.7126 75.306283)
(-2863.4015 1048.9363 79.361288)
(-2879.206 1053.2411 82.937639)
(-2964.8896 1059.1425 58.283995)
(-2976.6149 1063.899 63.795003)
(-2989.1567 1069.2399 68.475369)
(-3002.3591 1074.6413 73.339672)
(-3016.638 1080.166 77.412197)
(-3031.8255 1085.2473 81.666573)
(-3048.0178 1090.3177 85.451726)
(-3130.4164 1091.1243 58.28294)
(-3142.141 1096.5043 64.206917)
(-3154.7293 1102.5269 68.982048)
(-3168.0511 1108.5856 74.114885)
(-3182.4436 1114.8723 78.325904)
(-3197.8497 1120.8177 82.75721)
(-3214.2738 1126.796 86.637857)
(-3292.9439 1121.8248 57.445903)
(-3304.6341 1128.0567 63.500232)
(-3317.1997 1134.8564 68.482669)
(-3330.5427 1141.7184 73.670904)
(-3345.0255 1148.7952 77.998553)
(-3360.4855 1155.6023 82.425513)
(-3377.0176 1162.5457 86.340011)
(-3451.6213 1151.3817 55.41342)
(-3463.2026 1158.5327 61.583319)
(-3475.6896 1166.0829 66.53723)
(-3489.0181 1173.7544 71.735205)
(-3503.4183 1181.5957 76.020882)
(-3518.8102 1189.454 80.445622)
(-3535.2617 1197.3964 84.295742)
(-3605.4513 1179.7322 52.133834)
(-3616.9131 1187.7536 58.216751)
(-3629.2458 1196.2208 63.163962)
(-3642.4282 1204.7575 68.27628)
(-3656.7046 1213.4677 72.556569)
(-3671.9773 1222.1722 76.852211)
(-3688.2787 1231.1823 80.493386)
(-3753.8409 1206.8612 47.490659)
(-3765.1184 1215.8815 53.42423)
(-3777.2322 1225.1836 58.209574)
(-3790.2238 1234.5748 63.137964)
(-3804.2903 1244.0518 67.122064)
(-3818.6509 1254.0511 71.272443)
(-3834.9699 1264.1279 74.613878)
(-3896.2743 1233.3175 41.337468)
(-3906.786 1242.9879 47.0533)
(-3918.5426 1253.226 51.563698)
(-3931.3463 1263.3834 56.303021)
(-3945.0116 1273.9261 60.082715)
(-3958.6709 1283.8774 64.00851)
(-3974.9139 1295.6282 67.598406)
(-4029.8833 1257.441 33.963173)
(-4041.5757 1268.94 39.373942)
(-4053.1303 1279.8998 43.610311)
(-4065.4315 1290.8702 47.946862)
(-4078.7586 1302.0864 51.614893)
(-4093.7821 1314.2996 55.120012)
(-4107.8794 1325.497 57.938611)
(-4158.4406 1282.0053 25.375287)
(-4168.9626 1293.6355 30.233242)
(-4180.0809 1305.3847 34.118171)
(-4192.1426 1317.1982 38.17066)
(-4204.969 1329.0926 41.308523)
(-4218.3475 1341.3797 44.461621)
(-4232.449 1354.0214 47.276508)
(-4278.2047 1305.01 15.601872)
(-4288.4413 1317.5349 19.965286)
(-4299.2726 1330.0423 23.477203)
(-4310.9113 1342.4763 26.962195)
(-4323.1889 1354.9596 29.771867)
(-4335.9146 1368.1052 32.706717)
(-4349.534 1381.4507 34.888663)
(-4390.0226 1327.3907 4.9573336)
(-4400.015 1340.5649 8.7663536)
(-4410.4446 1353.6478 11.756745)
(-4421.6282 1366.6516 14.853625)
(-4433.3279 1379.7286 17.319235)
(-4445.516 1393.4423 19.692593)
(-4458.2863 1407.3201 21.551359)
(-4493.7934 1348.9785 -6.264099)
(-4503.5525 1362.67 -3.1491948)
(-4513.6397 1376.2351 -0.62202003)
(-4524.3485 1389.7144 1.9994042)
(-4535.6087 1403.2667 3.9387818)
(-4547.0751 1417.434 5.9848149)
(-4559.0805 1431.7555 7.4485788)
(-4589.7565 1370.0434 -18.075989)
(-4599.2567 1384.1126 -15.552038)
(-4608.9629 1398.0543 -13.460997)
(-4619.3036 1411.9246 -11.35283)
(-4630.0036 1425.825 -9.7590142)
(-4640.8081 1440.3078 -8.1220222)
(-4652.168 1454.9295 -7.1005292)
(-4678.0884 1390.3929 -29.97574)
(-4687.3749 1404.7181 -28.068851)
(-4696.8351 1418.9177 -26.467057)
(-4706.7858 1433.0571 -24.816617)
(-4716.9592 1447.2 -23.636411)
(-4727.2678 1461.9424 -22.377314)
(-4737.9041 1476.8261 -21.69641)
(-4759.4019 1410.3368 -41.887841)
(-4768.5035 1424.8423 -40.544974)
(-4777.6886 1439.1833 -39.329493)
(-4787.2461 1453.452 -38.15739)
(-4797.0323 1467.7695 -37.283428)
(-4806.788 1482.5946 -36.346798)
(-4816.8647 1497.5833 -36.014421)