/*--------------------------------*- C++ -*----------------------------------*\
  =========                 |
  \\      /  F ield         | OpenFOAM: The Open Source CFD Toolbox
   \\    /   O peration     | Website:  https://openfoam.org
    \\  /    A nd           | Version:  6
     \\/     M anipulation  |
\*---------------------------------------------------------------------------*/
FoamFile
{
    version     2.0;
    format      ascii;
    class       pointVectorField;
    location    "0.199903";
    object      u;
}
// * * * * * * * * * * * * * * * * * * * * * * * * * * * * * * * * * * * * * //

dimensions      [0 1 0 0 0 0 0];

internalField   nonuniform List<vector> 
625
(
(0 0 0)
(0 0 0)
(0.44524461 0.054041519 0.0027001439)
(0.4326866 -0.10410446 0.0050907094)
(0 0 0)
(0 0 0)
(0.43018492 -0.10595929 0.0042967328)
(0.44258845 0.05158936 0.0025573355)
(0 0 0)
(0 0 0)
(0 0 0)
(0.44168775 0.013526478 0.0022857849)
(0.43799953 -0.024782576 0.0037836553)
(0.43534911 -0.063261158 0.0042166826)
(-0.00052856263 -0.00012100735 4.3394324e-05)
(-0.001317011 0.00042997436 0.00026773246)
(-0.0014481585 0.0015567339 0.00048706974)
(-0.00073051893 0.0031830351 0.00043472217)
(0.00089096697 0.0053224922 0.00047463707)
(0.0038080658 0.0079615007 0.00045952087)
(0.0082298016 0.011075885 0.00033946295)
(0.014330737 0.014707562 0.00041926761)
(0.022419732 0.018630227 0.00043704501)
(0.032765166 0.022979958 0.00052436612)
(0.04542251 0.027601355 0.00068823568)
(0.060753732 0.032343787 0.00076946133)
(0.078809708 0.03725865 0.0011077204)
(0.099707385 0.041994033 0.0013680203)
(0.12355675 0.046613037 0.0017357427)
(0.1504061 0.050669618 0.0020491646)
(0.17999033 0.054553017 0.0023474431)
(0.21245195 0.057254665 0.0026537093)
(0.24745776 0.059253899 0.0027548769)
(0.28440283 0.060308357 0.0028867183)
(0.32326031 0.060285167 0.0029071836)
(0.36313446 0.059523779 0.0028698602)
(0.40358041 0.05718513 0.0031860127)
(-0.00034710206 -0.00018073549 -1.1258555e-05)
(-0.0014049804 -0.00092594851 -0.0010592935)
(-0.0013760983 -0.0021868596 -0.0012792542)
(-0.00080576524 -0.0039188224 -0.0019573318)
(0.00068761946 -0.0061888568 -0.0025450004)
(0.0034553679 -0.0087720261 -0.0031025582)
(0.0077459928 -0.011953069 -0.0036711617)
(0.013542448 -0.015467278 -0.0042044324)
(0.021390592 -0.019492628 -0.0046886877)
(0.031258268 -0.023893519 -0.0051163888)
(0.043405509 -0.028758719 -0.0054497553)
(0.058101449 -0.03400529 -0.0055248077)
(0.07544594 -0.039723164 -0.0056053681)
(0.09542465 -0.045684108 -0.0054706225)
(0.11834501 -0.05201013 -0.0051576332)
(0.14405824 -0.058516785 -0.0046406998)
(0.17263184 -0.065214525 -0.0039310811)
(0.20394371 -0.072064967 -0.0030953646)
(0.23782694 -0.078468053 -0.0019278071)
(0.27380088 -0.084847127 -0.00072877978)
(0.31179324 -0.090714451 0.00070747458)
(0.35113673 -0.095880386 0.0020200417)
(0.3914496 -0.10028021 0.0033065037)
(0 0 0)
(0 0 0)
(0 0 0)
(-0.00065325039 0.0001230047 0.00019476214)
(-0.0018791889 -0.00014134622 0.00086716613)
(-0.0021274993 -0.0018738228 0.0012732344)
(-0.0018194626 -0.0030751366 0.0016470065)
(-0.00050868728 -0.0053445781 0.0018486804)
(0.0018582905 -0.0079145444 0.00211442)
(0.0060125561 -0.01109975 0.0023634377)
(0.011716121 -0.01480129 0.0026117678)
(0.019205602 -0.018930604 0.0028734499)
(0.028966701 -0.023578286 0.0031192278)
(0.040994441 -0.028730272 0.003337775)
(0.055476909 -0.034240522 0.0037467436)
(0.072743409 -0.040311016 0.0039628084)
(0.092659042 -0.04659654 0.0042868592)
(0.11550131 -0.053234924 0.004549668)
(0.14120385 -0.060093977 0.0048223432)
(0.16975459 -0.066974305 0.0049908689)
(0.2010552 -0.073874394 0.0051250022)
(0.2348739 -0.080561344 0.0051761076)
(0.27098877 -0.086876828 0.0051191538)
(0.30896252 -0.092860834 0.0050222359)
(0.34850582 -0.097811655 0.0048636739)
(0.38870023 -0.10259647 0.0047839142)
(0.43299201 -0.065324824 0.0038079714)
(0.43526066 -0.027156437 0.0037795096)
(0.43897425 0.010689775 0.0038515701)
(0.40122217 0.054932886 0.00074742822)
(0.36028432 0.05690071 -0.00046297063)
(0.32058376 0.05773187 -0.0017334456)
(0.28144112 0.057994201 -0.0032220587)
(0.24435146 0.05700294 -0.0044335876)
(0.20931377 0.055171998 -0.0056408342)
(0.17681563 0.052509209 -0.0065540209)
(0.14704233 0.049204373 -0.0073707979)
(0.1202132 0.045354336 -0.0078946828)
(0.096350146 0.041188712 -0.0082221969)
(0.075536526 0.036741349 -0.0083335549)
(0.057498272 0.032345002 -0.0083651084)
(0.042450546 0.027860989 -0.0078678921)
(0.02995368 0.023504638 -0.0074699367)
(0.019860871 0.019450575 -0.0069059552)
(0.012054547 0.015640831 -0.0061918713)
(0.006211226 0.012153013 -0.0054250647)
(0.0020821356 0.0091558172 -0.0045935833)
(-0.000372296 0.0063052539 -0.0036809016)
(-0.0017622166 0.0042437361 -0.0029090391)
(-0.0019961752 0.0023000321 -0.0020318234)
(-0.001568936 0.0010130631 -0.0011491749)
(-0.0004698289 -7.3548091e-05 -0.00035196772)
(0 0 0)
(0 0 0)
(0 0 0)
(0 0 0)
(0 0 0)
(0 0 0)
(0.43203906 -0.10500601 0.0044905113)
(0.43160138 -0.10568863 0.0048668437)
(0.43075428 -0.10628389 0.0045483615)
(0.44511607 0.054062692 0.0027274274)
(0.44440989 0.053249711 0.0025868083)
(0.44379003 0.052898479 0.0024503695)
(-0.00064803286 0.00017963631 -1.8525753e-05)
(-0.0018325821 0.00057821777 0.00034706794)
(-0.0019786938 0.001136173 0.00021098906)
(-0.0015691187 0.0019533136 0.00014006028)
(-8.7884881e-05 0.0030742184 2.322625e-05)
(0.0025563791 0.0044279941 -0.00014265673)
(0.0068213937 0.0060566041 -0.0002758415)
(0.012694979 0.0078667074 -0.00038824284)
(0.020606715 0.0098387574 -0.00051639407)
(0.030664099 0.012024854 -0.00057462717)
(0.043057716 0.014247255 -0.00057696517)
(0.058263283 0.016479948 -0.00048148971)
(0.076038792 0.018634414 -0.00034581758)
(0.09673626 0.020598724 -0.00016455004)
(0.12036604 0.022328463 0.00016719482)
(0.14696461 0.023659988 0.0003868796)
(0.17637066 0.024533472 0.00088691555)
(0.20874478 0.024930793 0.0011159014)
(0.24363931 0.024577539 0.0014813396)
(0.28055002 0.023627198 0.0018828308)
(0.31945251 0.022068962 0.0020937824)
(0.35943974 0.019994552 0.0023612562)
(0.40047534 0.016632335 0.0027401519)
(-0.00084159465 -4.1830734e-05 -2.719256e-05)
(-0.0018442122 -9.9788646e-05 -0.00030170398)
(-0.002020055 -0.00019435501 -0.00052130869)
(-0.001596344 -0.00027821048 -0.00082809187)
(-0.00021761537 -0.00030525419 -0.0010940606)
(0.002475263 -0.0003208776 -0.0013975595)
(0.0065761608 -0.00033083923 -0.0017026709)
(0.012403267 -0.00028496602 -0.0019579513)
(0.020172286 -0.00032948299 -0.0022269286)
(0.030141952 -0.00033804071 -0.002271184)
(0.042405949 -0.00046285833 -0.0024642236)
(0.057347425 -0.00074815982 -0.0023791335)
(0.074893753 -0.0011318337 -0.0022972125)
(0.095361709 -0.0016942535 -0.0020603607)
(0.1187016 -0.0025743971 -0.0017114138)
(0.14503191 -0.0037197313 -0.0013437683)
(0.17429795 -0.0052747229 -0.00069807049)
(0.20628611 -0.0070606744 -0.00033268884)
(0.24074797 -0.0093951738 0.00048888695)
(0.27743283 -0.012061401 0.0011346986)
(0.31623805 -0.015012527 0.0016834966)
(0.35628551 -0.018317002 0.0025062042)
(0.39758172 -0.021562803 0.0030556015)
(-0.00065795531 -0.00055683114 -0.0002140273)
(-0.0018728733 -0.0011895976 -0.00054968069)
(-0.001877667 -0.001828138 -0.00082525989)
(-0.0016277066 -0.0028024661 -0.0011858798)
(-0.0001640703 -0.0037978989 -0.001576689)
(0.002429012 -0.0051681506 -0.0020112219)
(0.006520932 -0.0065771009 -0.0024038646)
(0.012287645 -0.008285061 -0.0028085825)
(0.01999731 -0.010218572 -0.0030966668)
(0.029780548 -0.012347608 -0.003411905)
(0.04200602 -0.014670612 -0.0036271285)
(0.05676801 -0.01732675 -0.0036675509)
(0.074159195 -0.020171073 -0.0036650864)
(0.094436286 -0.023325191 -0.0034955313)
(0.11753107 -0.026742516 -0.0031966131)
(0.14370325 -0.030453221 -0.0027627681)
(0.17252593 -0.034376178 -0.0021916699)
(0.2044214 -0.038485118 -0.0015070928)
(0.23867595 -0.042829626 -0.00066908654)
(0.27551447 -0.047164551 9.3895482e-05)
(0.31403415 -0.051691182 0.0010780122)
(0.35384321 -0.055784583 0.0020473312)
(0.39461036 -0.059796315 0.003118164)
(0 0 0)
(0 0 0)
(0 0 0)
(0 0 0)
(0 0 0)
(0 0 0)
(0 0 0)
(0 0 0)
(0 0 0)
(-0.00035567388 -3.0582295e-05 4.2436087e-05)
(-0.00043540852 3.4788283e-05 0.00019040741)
(-0.00058823515 9.2742378e-05 0.00021251161)
(-0.0011925107 -0.00027810777 -0.00053862624)
(-0.0011656789 -0.00021032168 -4.7351303e-05)
(-0.001424822 -1.2471485e-05 0.00041854817)
(-0.00091977924 -0.0019710149 -0.00063362867)
(-0.0011162718 -0.0020273639 2.1444219e-05)
(-0.0014286711 -0.0015620892 0.00064413448)
(-0.00040914801 -0.003568681 -0.0010618376)
(-0.00043866255 -0.0032436037 -0.00019126622)
(-0.00083256804 -0.0030463547 0.00078516206)
(0.0013315195 -0.0057699306 -0.0013989252)
(0.0012511005 -0.0056798807 -0.0002959763)
(0.00053699973 -0.0051903454 0.00085023552)
(0.0042709636 -0.0085257302 -0.0017472792)
(0.0040012665 -0.0081619667 -0.00045626651)
(0.0035451246 -0.007990313 0.00094610726)
(0.0085143845 -0.011574488 -0.0020941442)
(0.0084167084 -0.011515023 -0.00069387661)
(0.0075522846 -0.010944628 0.0010095783)
(0.014569758 -0.015273565 -0.0024358246)
(0.01433049 -0.014980377 -0.00083947385)
(0.013590069 -0.014769277 0.0010196248)
(0.022441222 -0.019256333 -0.0027147875)
(0.022213442 -0.019164363 -0.00098665689)
(0.021366732 -0.018908081 0.0011313175)
(0.032371709 -0.023773771 -0.0029775533)
(0.032167843 -0.023755678 -0.0010646828)
(0.031244967 -0.023542218 0.0012276386)
(0.04460063 -0.028808141 -0.0031515578)
(0.044485263 -0.028786323 -0.00097185126)
(0.043477042 -0.028651645 0.0013220439)
(0.059489868 -0.034339105 -0.0031293753)
(0.059093756 -0.034216188 -0.001070792)
(0.05803553 -0.03409429 0.001640886)
(0.076697569 -0.03993931 -0.0031154655)
(0.076475666 -0.04006812 -0.00084723426)
(0.075401967 -0.040237338 0.0017543219)
(0.096815825 -0.046192003 -0.0029018192)
(0.096532837 -0.046394401 -0.00065258198)
(0.095418613 -0.046513809 0.0020506328)
(0.1196451 -0.052631356 -0.0025898666)
(0.11936124 -0.052886385 -0.00032465315)
(0.11821682 -0.053096514 0.0023414861)
(0.14532879 -0.059333513 -0.0021273252)
(0.14501651 -0.059641986 7.7598177e-05)
(0.14388734 -0.059958219 0.0026701297)
(0.1737404 -0.066138704 -0.0015638759)
(0.17344126 -0.066500716 0.00053554646)
(0.17230678 -0.066870839 0.0029771124)
(0.20478009 -0.072742901 -0.00082749452)
(0.20455423 -0.073345721 0.0010548309)
(0.20342487 -0.073748249 0.0032950072)
(0.23843738 -0.07955485 -6.0680018e-06)
(0.2381242 -0.080006329 0.0016461356)
(0.23701661 -0.080450677 0.0035978598)
(0.27423612 -0.085696258 0.00086475215)
(0.27388217 -0.086298196 0.0022581997)
(0.27282684 -0.086790652 0.0038225624)
(0.3119223 -0.091587605 0.0017944399)
(0.3114775 -0.092188484 0.0029148676)
(0.31050781 -0.092609888 0.0040529655)
(0.35104093 -0.096685045 0.0027258401)
(0.35056886 -0.097305937 0.0034802236)
(0.34972865 -0.097920122 0.0041945259)
(0.39107355 -0.10134669 0.0036778402)
(0.39045387 -0.1018668 0.0040101654)
(0.3897653 -0.10230936 0.0044246936)
(0.441646 0.01335488 0.0030885934)
(0.44093105 0.012784802 0.0031774098)
(0.44024813 0.01213293 0.0033727354)
(0.43725986 -0.02545294 0.0038506544)
(0.43706056 -0.02601653 0.0036870477)
(0.43596398 -0.026701802 0.0036236322)
(0.43497395 -0.064247013 0.0040918855)
(0.4346062 -0.064829202 0.0040701494)
(0.43362478 -0.065206452 0.0040910325)
(-0.00062110201 -0.00031037805 -1.8975994e-05)
(-0.00045700942 -0.00027387952 -0.00012380918)
(-0.00056493068 -0.0002589415 -0.0001613117)
(-0.0011679473 0.00041050256 7.9910086e-05)
(-0.0011670047 0.00064606271 -0.00029628276)
(-0.001174187 0.00052307298 -0.00066863698)
(-0.0010923708 0.0016081917 -2.0578246e-05)
(-0.0011220279 0.0016964375 -0.00058749149)
(-0.0012969975 0.0017493136 -0.0013621227)
(-0.0003245274 0.0033038219 -0.00023934751)
(-0.00045335336 0.0034608736 -0.0010520784)
(-0.00068972998 0.0036385881 -0.0020304382)
(0.0014333268 0.0053961499 -0.00049405572)
(0.0012395299 0.0056858851 -0.0014332765)
(0.00081742472 0.0058550713 -0.0026536954)
(0.0043803384 0.0081851762 -0.00067051378)
(0.0041767643 0.008323376 -0.0019411303)
(0.0037184394 0.0085101731 -0.0034249832)
(0.0089752672 0.011210842 -0.001065308)
(0.0085876842 0.011432559 -0.0022961196)
(0.0080689246 0.011605835 -0.0040425506)
(0.015147135 0.014754607 -0.0011710184)
(0.014769899 0.014961578 -0.0027255828)
(0.014113623 0.015131185 -0.0046584839)
(0.023378186 0.018658188 -0.001387529)
(0.022933216 0.01884472 -0.0030975596)
(0.022197562 0.019006689 -0.0052114884)
(0.033728244 0.022891528 -0.0014637705)
(0.033282054 0.023113623 -0.0033560765)
(0.032387933 0.023221077 -0.005663255)
(0.046391341 0.027552858 -0.0013953591)
(0.046091002 0.027548331 -0.0037805787)
(0.04518972 0.027469109 -0.0058905249)
(0.061987605 0.032150974 -0.0015649145)
(0.06135197 0.032044279 -0.0034480217)
(0.060305076 0.032154282 -0.0063865551)
(0.079999847 0.036869745 -0.0013271821)
(0.079476991 0.036774305 -0.0036243718)
(0.078427648 0.036866443 -0.0062211827)
(0.10098129 0.041579329 -0.0011436944)
(0.10044245 0.041394032 -0.0033805129)
(0.099371983 0.041298641 -0.0060813986)
(0.12483648 0.046029758 -0.00079964087)
(0.12430386 0.04579426 -0.0030834117)
(0.12320289 0.045613251 -0.0057513793)
(0.15161359 0.05020383 -0.00047286447)
(0.15110458 0.049768455 -0.0026561501)
(0.14998583 0.049590561 -0.0052800343)
(0.18125237 0.053662267 3.8285638e-05)
(0.18065633 0.053373199 -0.0021141846)
(0.1796351 0.053004557 -0.0045629735)
(0.21337812 0.056665735 0.00037600912)
(0.21305572 0.05610972 -0.0015293246)
(0.21194591 0.055748264 -0.0038246358)
(0.24824625 0.05874448 0.0008120078)
(0.24774265 0.058122502 -0.00084890464)
(0.24669859 0.057712134 -0.0028437767)
(0.28498744 0.059765874 0.0012355063)
(0.28453025 0.059278604 -0.00021193697)
(0.28354646 0.058700839 -0.0019094927)
(0.32359491 0.060016726 0.0015661549)
(0.32315086 0.059172184 0.00039736282)
(0.32207283 0.058732311 -0.00071079589)
(0.36320072 0.058775945 0.0019166118)
(0.36271687 0.058253291 0.0012163065)
(0.36184098 0.057723585 0.00033935505)
(0.40389414 0.057308479 0.0025637801)
(0.4031489 0.056420385 0.0019166082)
(0.40253983 0.055848634 0.0015507832)
(-0.00062375767 0.00041826825 -0.0003625625)
(-0.0020682735 0.0014940046 -0.00092816882)
(-0.0024899747 0.0023851618 -0.0013607927)
(-0.0025109646 0.0032694395 -0.0018257274)
(-0.0012259132 0.0045413758 -0.0024874903)
(0.001106678 0.0059338834 -0.0029603324)
(0.0049572457 0.0074176448 -0.0035538955)
(0.010611878 0.0091757043 -0.0040478536)
(0.018240523 0.010931451 -0.0044837145)
(0.028052636 0.01282141 -0.0048247848)
(0.040390753 0.014765767 -0.005107895)
(0.055176395 0.016678956 -0.0051798385)
(0.072901498 0.018293758 -0.005206199)
(0.093499786 0.019914035 -0.0049474625)
(0.11709725 0.021266423 -0.004660614)
(0.14365998 0.02223535 -0.0041326536)
(0.17320941 0.022780841 -0.0034986966)
(0.20552334 0.022847437 -0.0027442794)
(0.24038468 0.022362224 -0.0018697196)
(0.27750794 0.021189096 -0.00097808894)
(0.31644287 0.019455969 3.1572585e-05)
(0.35653782 0.017165171 0.0010932082)
(0.39776503 0.014076871 0.0022547768)
(-0.0011422292 9.9944714e-05 -8.9396043e-05)
(-0.0024598372 0.00040294707 -0.00011177859)
(-0.0028056271 0.00031931849 -0.00028715885)
(-0.0028311479 0.00055078621 -0.00071497041)
(-0.0015459939 0.00044132475 -0.00084392787)
(0.00070686441 0.00050072384 -0.0012270542)
(0.0046063371 0.00042991749 -0.0014778049)
(0.010195515 0.00033011958 -0.0017282865)
(0.017733788 0.00017220736 -0.0020053405)
(0.027499528 -5.7630172e-05 -0.0021198076)
(0.039669522 -0.00050532709 -0.0022559215)
(0.054377959 -0.00091999682 -0.0022259418)
(0.071912881 -0.0017229267 -0.0021503256)
(0.092329335 -0.0025411723 -0.0019404676)
(0.11570737 -0.0037103824 -0.0016853441)
(0.14207485 -0.005165573 -0.0012641953)
(0.17135479 -0.006886162 -0.0008064983)
(0.20343708 -0.0089721969 -0.00028415129)
(0.23810982 -0.011409502 0.0003336879)
(0.27498953 -0.014198535 0.00089211086)
(0.31384508 -0.01706149 0.0016604191)
(0.35375298 -0.02048344 0.0022067488)
(0.39547476 -0.023919726 0.0028718616)
(-0.00089056769 -0.00035139205 9.9244657e-05)
(-0.0023374237 -0.00094733993 0.0002709666)
(-0.0026102633 -0.00097483504 0.00016885843)
(-0.0025925133 -0.0022382311 0.00043784364)
(-0.0014017657 -0.0028307904 0.00042595959)
(0.00091633311 -0.0041766698 0.000378242)
(0.0047393945 -0.0056737369 0.0004908485)
(0.010232108 -0.0073377812 0.00040975619)
(0.017750679 -0.0094223483 0.00050348703)
(0.027393793 -0.011726815 0.00057783063)
(0.039449681 -0.014309293 0.00066658428)
(0.053994552 -0.01725423 0.00089527185)
(0.071361626 -0.020342688 0.0010725654)
(0.091581841 -0.023886575 0.0013619438)
(0.11467019 -0.027606893 0.0016728057)
(0.14078499 -0.031602254 0.0020209486)
(0.16980041 -0.035815837 0.0023591869)
(0.20160703 -0.040193657 0.0026976801)
(0.23599508 -0.04469654 0.0029996773)
(0.2726632 -0.049168196 0.0033064596)
(0.31114229 -0.053596767 0.0035587921)
(0.35119833 -0.057921001 0.0036454865)
(0.3918791 -0.061702974 0.0040659927)
(-0.00056127395 0.0002500202 -3.6298703e-05)
(-0.0004820519 0.00026736163 -0.00013414856)
(-0.00059747711 0.00031365711 -0.00017811247)
(-0.0015888373 0.00060341076 0.00014425512)
(-0.0016088917 0.00076428499 -0.00018002238)
(-0.0016516399 0.00078535085 -0.00049640566)
(-0.001607545 0.0013139434 -0.00011645202)
(-0.0015203263 0.0014787956 -0.00058620349)
(-0.0018057306 0.0017052484 -0.0010501412)
(-0.0010491158 0.0021141639 -0.00036298715)
(-0.0011980913 0.0023697979 -0.00096133609)
(-0.0014697888 0.0025844203 -0.0014270609)
(0.0004837302 0.003324335 -0.00057605614)
(0.00039202395 0.0035946245 -0.0012502089)
(-7.1979685e-05 0.0038255338 -0.001929319)
(0.0033473573 0.0046181559 -0.0009474329)
(0.0031146352 0.0049329076 -0.0017227296)
(0.0026223507 0.0051900934 -0.0024310644)
(0.0076054277 0.0062581649 -0.0011349593)
(0.0073629829 0.0065108412 -0.002106323)
(0.0067939595 0.006758124 -0.002882331)
(0.013619165 0.0080209111 -0.001408748)
(0.013318821 0.0083046236 -0.0024036992)
(0.01263265 0.0084834304 -0.0033368239)
(0.021622501 0.0099769695 -0.0016483279)
(0.021241692 0.010203052 -0.0027422096)
(0.020496903 0.010376706 -0.0037102933)
(0.031714978 0.012108361 -0.0018234204)
(0.03138847 0.012252665 -0.0029295553)
(0.030520619 0.012256939 -0.0039899128)
(0.044305043 0.014142501 -0.001971689)
(0.043928929 0.014185555 -0.0030805511)
(0.042945097 0.014343767 -0.0041351333)
(0.059435179 0.016286872 -0.0018879658)
(0.059068001 0.016384326 -0.0031474583)
(0.057935702 0.016221583 -0.0043335912)
(0.077272431 0.018344766 -0.0018161773)
(0.076805024 0.01833147 -0.003062554)
(0.075780203 0.018219392 -0.0042092824)
(0.097956348 0.020225638 -0.0016291783)
(0.097540166 0.020156255 -0.0028424473)
(0.096423401 0.019826406 -0.0040308265)
(0.1215601 0.021877827 -0.0013592112)
(0.12114745 0.021633135 -0.0025224551)
(0.11997779 0.021340993 -0.0036938297)
(0.14809714 0.023131648 -0.00093800217)
(0.14766993 0.022881267 -0.0021219311)
(0.14652562 0.022444145 -0.0032146961)
(0.17754464 0.024018694 -0.00063918035)
(0.17705128 0.023605584 -0.0015678114)
(0.17592655 0.023126265 -0.0026513581)
(0.20949538 0.024335863 2.3491357e-05)
(0.20922269 0.023782299 -0.0010319079)
(0.20807431 0.023302694 -0.0019429276)
(0.24424408 0.02400511 0.00045983823)
(0.24380872 0.023541361 -0.00034848268)
(0.24270044 0.022957324 -0.0012063243)
(0.28093584 0.023154712 0.00095005102)
(0.28053595 0.022510978 0.00031858633)
(0.27952142 0.021909798 -0.00042313834)
(0.31958548 0.021632687 0.0014126468)
(0.31917645 0.02089287 0.0010031797)
(0.31819006 0.020325789 0.00047599284)
(0.35944207 0.019353408 0.0019177815)
(0.35887717 0.018824464 0.0018633503)
(0.35796606 0.018179632 0.0013236603)
(0.40019002 0.016428882 0.0025800899)
(0.39958245 0.015783789 0.0025299344)
(0.39889712 0.015109812 0.0024918886)
(-0.00084432142 -1.7986684e-05 -3.4781252e-05)
(-0.00084133591 -3.6077169e-05 1.1205127e-05)
(-0.00097859674 7.411816e-05 -4.6682993e-05)
(-0.0016477977 1.6590928e-05 -0.00020582517)
(-0.0017153366 0.00011728516 -0.00018739317)
(-0.0017863229 0.00039266562 -0.00017229834)
(-0.001750583 -0.00010244371 -0.00057434903)
(-0.0016734568 1.9860159e-05 -0.00060096758)
(-0.0020789426 0.00025746122 -0.00043545284)
(-0.0011937894 -2.5308999e-05 -0.00081207716)
(-0.0013268789 0.0001235263 -0.0007266541)
(-0.0016967289 0.0005005627 -0.0006683141)
(0.00022876606 -0.00015293591 -0.0012011882)
(0.00025931197 6.5563305e-05 -0.0010854485)
(-0.00028112872 0.0003720182 -0.0010426594)
(0.0030222028 -0.00011414746 -0.0015188162)
(0.0029192625 8.3547066e-05 -0.0013531565)
(0.0022841236 0.00039536931 -0.0013500448)
(0.0071807245 -0.00013066567 -0.0018644276)
(0.0071632294 1.2836783e-05 -0.0016815822)
(0.0063539887 0.00037461854 -0.0016403146)
(0.013112453 -0.00017937545 -0.0021906219)
(0.013052213 -3.3181242e-06 -0.001914605)
(0.012107513 0.00025974353 -0.0019452139)
(0.020956865 -0.00019482006 -0.002418039)
(0.02088094 -0.00014501134 -0.0021445311)
(0.019884977 7.8812874e-05 -0.0021981292)
(0.030938643 -0.00036916473 -0.0026093629)
(0.030935785 -0.00034703332 -0.0022778236)
(0.029718314 -7.5429986e-05 -0.002374706)
(0.043437061 -0.00052876518 -0.0026734212)
(0.043212222 -0.00054784878 -0.0023678292)
(0.042082785 -0.00049598142 -0.0025130916)
(0.058289343 -0.00087818621 -0.0026782684)
(0.05820533 -0.0010393121 -0.0023834533)
(0.056870485 -0.00091875137 -0.002454453)
(0.075956746 -0.0013548287 -0.0026226118)
(0.075818159 -0.0015280805 -0.0022182848)
(0.074445931 -0.001622547 -0.0023845346)
(0.096406754 -0.002044874 -0.0023721212)
(0.096307533 -0.0023988075 -0.0020075408)
(0.094874537 -0.0025154756 -0.0021610605)
(0.11979867 -0.0030157641 -0.0020379906)
(0.11961449 -0.0033974934 -0.0016368901)
(0.11822794 -0.0035857955 -0.0018716747)
(0.14606759 -0.0042576922 -0.0015967071)
(0.14592682 -0.0047262235 -0.0012754889)
(0.14448543 -0.0050229628 -0.0014405638)
(0.17521014 -0.0058358097 -0.001056223)
(0.17499376 -0.0064115281 -0.00068128857)
(0.17366531 -0.0067545824 -0.00092786793)
(0.20710762 -0.0078115276 -0.00043868031)
(0.20688731 -0.0083716231 -0.00016941345)
(0.20556907 -0.0087726113 -0.00039586061)
(0.24154465 -0.010193769 0.00028549729)
(0.24125697 -0.010739181 0.0004106083)
(0.23999059 -0.01117958 0.00027301073)
(0.2781778 -0.012791547 0.0010513025)
(0.27772768 -0.013355177 0.0010504304)
(0.27673293 -0.013926214 0.00088885125)
(0.31664808 -0.0157495 0.0016245546)
(0.31634694 -0.016258927 0.0016698943)
(0.31519394 -0.016854078 0.0016422771)
(0.35632623 -0.018970137 0.0024018419)
(0.35576797 -0.019498859 0.0024081724)
(0.35484377 -0.020208024 0.0021801163)
(0.39730726 -0.022175035 0.0029834347)
(0.39694456 -0.022755173 0.00301458)
(0.39605608 -0.023269064 0.0029005663)
(-0.00064468321 -0.00033140129 1.4972417e-05)
(-0.00050292167 -0.0002606057 5.4978136e-06)
(-0.00073954343 -0.00025437623 4.2495374e-05)
(-0.0015974948 -0.00085299551 -0.00023708951)
(-0.0017103072 -0.00087896519 -1.4491554e-05)
(-0.0019512582 -0.00079938321 0.00024971251)
(-0.0015899556 -0.0015687586 -0.00046488475)
(-0.0015226458 -0.0011588665 -0.00014217835)
(-0.0019834443 -0.0010954806 8.3530032e-05)
(-0.0011377415 -0.0023439894 -0.00067529539)
(-0.0011972283 -0.0022065002 -0.00028211674)
(-0.0017039965 -0.0020459309 0.00012658648)
(0.00042481138 -0.0034597924 -0.0010125496)
(0.00034514655 -0.0030918545 -0.00050936218)
(-0.00029358626 -0.0030449564 -3.5738047e-06)
(0.0031532854 -0.0046958737 -0.0013185219)
(0.0030174656 -0.0044340046 -0.00070203749)
(0.0023417594 -0.0042407847 -0.00011244404)
(0.0073552641 -0.0062138136 -0.0016609423)
(0.007185486 -0.0058810038 -0.00091430475)
(0.0064159556 -0.0057850095 -0.00023268072)
(0.013274764 -0.0079419812 -0.0019383012)
(0.01299231 -0.0076535071 -0.0010884686)
(0.012202964 -0.007580127 -0.00031065233)
(0.021075922 -0.0099289882 -0.0021802352)
(0.020781518 -0.0096777892 -0.0012962042)
(0.019910714 -0.0095351218 -0.00042259337)
(0.031031921 -0.012117138 -0.002428851)
(0.03067038 -0.011875423 -0.0013873134)
(0.029759298 -0.011922975 -0.00040270031)
(0.04329406 -0.014579342 -0.0025569608)
(0.042944552 -0.014516377 -0.0014259008)
(0.042013741 -0.014459263 -0.00043805262)
(0.058134297 -0.017351017 -0.002554236)
(0.05773111 -0.017255061 -0.0014123445)
(0.056695227 -0.017371505 -0.0003400818)
(0.07559125 -0.020337643 -0.0025404837)
(0.075142113 -0.020410448 -0.0013040353)
(0.074131837 -0.020525842 -0.00015039755)
(0.095878114 -0.023665355 -0.0023373957)
(0.095404565 -0.023763463 -0.0010635769)
(0.094383287 -0.023964156 4.0522818e-05)
(0.11901211 -0.027245934 -0.0020668569)
(0.11850115 -0.027428654 -0.00080811514)
(0.11751166 -0.027709495 0.00033924249)
(0.14504068 -0.031050796 -0.0016289243)
(0.14454057 -0.031380366 -0.00040130473)
(0.14352023 -0.031669886 0.00069990332)
(0.173914 -0.035193822 -0.0011542682)
(0.17337227 -0.035483969 4.0163732e-05)
(0.17241326 -0.035868925 0.0010776662)
(0.20545137 -0.039358614 -0.00059928626)
(0.20501259 -0.03990501 0.00052469959)
(0.2040422 -0.040220082 0.0015051482)
(0.23963114 -0.043845068 0.0001458372)
(0.23906149 -0.044273824 0.001115997)
(0.23815472 -0.044694907 0.0019393425)
(0.27579923 -0.048214364 0.00081648746)
(0.27548174 -0.048737629 0.0016169158)
(0.27455895 -0.049180539 0.002384755)
(0.31393974 -0.052507578 0.001581893)
(0.31358192 -0.053173491 0.0022754202)
(0.31264102 -0.053599628 0.0028250295)
(0.35364687 -0.05679235 0.0025007657)
(0.35321317 -0.057401769 0.0028700081)
(0.3524217 -0.057740114 0.0032580292)
(0.3941137 -0.060669858 0.0032927996)
(0.39354782 -0.061115704 0.0034925706)
(0.39282927 -0.061760638 0.00354275)
)
;

boundaryField
{
    free
    {
        type            calculated;
    }
    bottom
    {
        type            calculated;
    }
    traction
    {
        type            calculated;
    }
}


// ************************************************************************* //
