/*--------------------------------*- C++ -*----------------------------------*\
  =========                 |
  \\      /  F ield         | OpenFOAM: The Open Source CFD Toolbox
   \\    /   O peration     | Website:  https://openfoam.org
    \\  /    A nd           | Version:  6
     \\/     M anipulation  |
\*---------------------------------------------------------------------------*/
FoamFile
{
    version     2.0;
    format      ascii;
    class       pointVectorField;
    location    "1.4";
    object      lm;
}
// * * * * * * * * * * * * * * * * * * * * * * * * * * * * * * * * * * * * * //

dimensions      [1 -2 -1 0 0 0 0];

internalField   nonuniform List<vector> 
28033
(
(-1.780536e-14 4.8656612e-16 1.3104288e-15)
(-5.4375576e-15 3.3318594e-15 9.9433006e-16)
(938.61556 317.4141 -84.394848)
(1012.9504 209.64805 -98.257398)
(-1.338461e-14 3.0090723e-15 -2.870051e-16)
(-1.2587315e-14 4.9008913e-15 -4.4266115e-15)
(1022.6496 212.65563 -87.470086)
(937.44553 328.40234 -96.220439)
(-5.6329745e-15 1.0535579e-15 6.7193838e-16)
(-2.4534443e-15 3.0423504e-16 5.8836893e-16)
(-5.4923298e-15 2.4302826e-15 8.9528572e-16)
(-2.6209443e-15 -1.1537891e-15 -6.7979696e-16)
(-7.2548563e-15 1.5542294e-15 1.0013199e-15)
(-4.7613589e-15 -9.2108094e-16 -7.3952737e-16)
(-1.132389e-15 -2.2256662e-17 -6.4484848e-16)
(-7.4239857e-16 -2.4218299e-16 -3.6669977e-16)
(-1.1196198e-15 4.5550132e-16 8.383863e-16)
(-2.3465882e-16 2.2667819e-16 1.4996246e-15)
(-4.0583243e-15 -8.7236639e-16 -1.3429605e-15)
(-5.8237189e-15 8.4462789e-16 7.5519031e-16)
(-5.1611762e-15 1.0100276e-15 9.7613867e-16)
(-1.7679952e-15 -8.1010255e-16 4.5192313e-16)
(-4.4158752e-15 1.0299569e-15 -9.452958e-16)
(923.27581 292.93494 -89.509033)
(897.83283 267.62681 -93.337788)
(878.25484 248.21149 -94.975095)
(868.54028 235.27088 -95.971115)
(870.94199 229.13892 -96.72554)
(885.85703 228.92294 -96.666025)
(910.60102 233.78804 -97.125055)
(942.79071 241.88201 -96.887252)
(977.25395 251.59094 -96.161196)
(1009.3217 259.77247 -95.004451)
(1035.4271 265.1432 -93.958063)
(1051.2523 264.84616 -93.656824)
(1055.5859 258.75505 -93.467277)
(1048.1932 245.88919 -94.287471)
(1031.2896 228.22264 -96.162729)
(-32.447721 -42.704152 -32.393491)
(-71.36081 -57.094617 -25.065609)
(-118.16667 -62.730235 -9.2862759)
(-163.38162 -65.231854 6.0444329)
(-204.74314 -63.727809 22.040927)
(-240.13809 -58.806849 34.188093)
(-268.01545 -52.103752 43.672908)
(-287.59362 -42.870424 48.221545)
(-298.72981 -32.598103 49.120294)
(-301.45747 -20.684092 45.535019)
(-296.19047 -9.0429657 37.99405)
(-284.16287 3.3086183 27.57784)
(-266.44771 14.459828 14.807217)
(-244.4262 24.970873 0.51376846)
(-219.81406 33.475655 -14.196116)
(-194.48074 40.747526 -27.976275)
(-169.32215 45.808291 -40.610564)
(-145.86074 49.068314 -51.1552)
(-125.13962 50.177421 -58.805736)
(-108.17992 49.817152 -63.286982)
(-95.034231 47.736578 -64.730109)
(-85.77483 45.086471 -62.68891)
(-80.50755 41.366227 -57.981384)
(-78.240736 38.150913 -50.598758)
(-78.514211 35.133334 -41.074685)
(-79.940854 33.185895 -30.569157)
(-81.542038 32.803908 -19.375436)
(-82.116421 34.526983 -8.3674939)
(-80.210534 38.188148 1.6888821)
(-74.710629 44.579489 10.133404)
(-64.771826 53.257858 16.443674)
(-49.259308 64.302844 20.301306)
(-28.274409 77.546814 21.533431)
(-1.1099197 91.969237 20.494427)
(31.90521 107.93779 16.328997)
(70.255189 124.10997 10.524086)
(113.25154 140.3703 3.1819711)
(160.13163 155.43758 -5.4571291)
(209.3616 169.05625 -14.365576)
(259.87955 180.62735 -22.738209)
(310.22318 189.41999 -30.252826)
(359.11009 195.38955 -36.080243)
(405.36982 198.00254 -39.81552)
(447.80624 197.39189 -40.99619)
(485.59398 193.71617 -39.557784)
(518.17694 187.30527 -35.417273)
(545.29141 178.68969 -28.765966)
(566.96645 168.48238 -19.969947)
(583.59195 157.48842 -9.5300046)
(595.77044 146.49059 1.9173771)
(604.4188 136.36049 13.646372)
(610.57793 127.8798 24.890453)
(615.45377 121.77412 34.887428)
(620.25622 118.62147 42.921983)
(626.19019 118.82199 48.3828)
(634.32645 122.58146 50.789403)
(645.57076 129.87216 49.83154)
(660.57927 140.44557 45.39507)
(679.73663 153.83894 37.563183)
(703.09065 169.40146 26.616102)
(730.39069 186.33173 13.03414)
(761.09259 203.70207 -2.5606863)
(794.2951 220.61469 -19.395416)
(828.90743 236.04931 -36.601688)
(863.86559 249.21915 -53.570419)
(897.50495 259.27701 -68.773105)
(928.6316 265.7 -82.085677)
(956.12663 268.20683 -92.698953)
(978.42762 266.36986 -100.05713)
(995.14671 260.62522 -103.31387)
(1005.4598 251.02675 -103.15492)
(1008.9811 238.27559 -99.316777)
(1005.8393 223.1686 -92.078933)
(996.43235 206.51883 -81.93777)
(981.481 189.29429 -69.51161)
(961.96333 172.60313 -55.592491)
(939.12141 157.33538 -40.993209)
(914.25062 144.49214 -26.573886)
(888.90623 134.82418 -13.122646)
(864.24771 128.90622 -1.4519999)
(841.96039 127.01713 7.9293045)
(822.9414 129.53941 14.417697)
(808.03327 136.0456 17.936989)
(798.13434 146.54431 18.139642)
(793.35426 160.15536 15.270759)
(793.83654 176.37142 9.6504461)
(799.03646 194.33776 1.6544945)
(808.69808 212.97551 -7.9825145)
(821.5021 231.67897 -18.905933)
(837.1114 249.20127 -30.107303)
(853.27397 265.28143 -41.21125)
(870.46589 278.73383 -51.498855)
(885.95951 290.09852 -60.606303)
(899.74608 298.9242 -68.412616)
(912.46593 305.72431 -75.354568)
(-36.634888 44.050326 53.047149)
(-90.044054 60.622707 37.059652)
(-138.85381 71.845094 30.423392)
(-177.80758 72.38447 20.057843)
(-216.39643 68.899912 9.4824582)
(-246.61721 61.527561 0.093447858)
(-270.15167 51.056846 -8.6692968)
(-286.50324 39.278021 -15.274794)
(-294.97607 26.413321 -20.257679)
(-296.13103 14.307657 -22.874011)
(-290.3613 2.9405042 -23.57955)
(-278.65025 -6.2051912 -22.458456)
(-261.91123 -13.197588 -19.543382)
(-241.52853 -17.582869 -15.707747)
(-218.69592 -19.133033 -10.833537)
(-194.82676 -18.359521 -5.8935808)
(-171.14094 -15.092375 -1.094197)
(-148.69307 -10.341612 3.1306079)
(-128.43508 -4.4131099 6.2445098)
(-110.79719 2.0945357 8.049673)
(-96.301191 8.2221491 8.3795949)
(-84.767633 13.645042 7.0772486)
(-76.050394 17.652652 4.1779395)
(-69.593951 19.915864 -0.072514896)
(-64.725441 20.204405 -5.5216588)
(-60.27886 18.364182 -11.659458)
(-55.416325 14.540754 -18.161601)
(-49.085565 9.09268 -24.492458)
(-40.230568 2.3232305 -30.199407)
(-28.009183 -5.0274191 -34.692378)
(-11.618201 -12.385585 -37.601521)
(9.2624167 -19.061678 -38.498206)
(35.010922 -24.293277 -37.148311)
(65.584407 -27.538799 -33.331009)
(100.70184 -28.098508 -26.968475)
(139.67697 -25.705771 -18.359528)
(181.65759 -19.797014 -7.5474953)
(225.98583 -10.787315 5.0448631)
(271.1141 1.6303426 18.859506)
(316.1827 16.9235 33.399191)
(359.79293 34.704069 47.96702)
(400.94767 54.322116 61.948876)
(438.58677 75.057608 74.655855)
(471.99961 96.122189 85.520619)
(500.58461 116.70921 93.990888)
(524.12266 136.05994 99.676271)
(542.59501 153.48632 102.27615)
(556.33239 168.44535 101.67267)
(565.88289 180.54457 97.878604)
(572.06698 189.59537 91.087649)
(575.84926 195.60717 81.622361)
(578.35255 198.80426 69.956409)
(580.72212 199.60057 56.653241)
(584.10872 198.58798 42.367424)
(589.55549 196.48528 27.77862)
(597.96114 194.10177 13.577358)
(609.99164 192.27715 0.40041008)
(626.06936 191.82421 -11.184379)
(646.30252 193.47289 -20.736583)
(670.51035 197.81365 -27.948886)
(698.20218 205.2581 -32.688595)
(728.62107 215.99379 -34.982299)
(760.77387 229.97682 -35.042647)
(793.50685 246.91964 -33.229772)
(825.55246 266.30367 -30.035451)
(855.65168 287.39651 -26.072154)
(882.59255 309.35293 -21.979914)
(905.26372 331.03944 -18.437681)
(922.9614 351.84872 -15.998127)
(935.05869 370.11453 -15.608909)
(940.72336 385.2292 -17.124557)
(941.07057 396.53779 -21.297315)
(935.69851 403.13858 -28.009875)
(925.6029 404.77114 -37.356125)
(911.68645 401.30969 -49.065565)
(895.14495 392.83127 -62.748453)
(877.30596 379.75557 -77.866592)
(859.52365 362.66897 -93.793235)
(843.15287 342.39532 -109.81992)
(829.40783 319.89067 -125.25178)
(819.31675 296.20453 -139.39522)
(813.67358 272.41349 -151.63774)
(812.95639 249.56942 -161.47909)
(817.34642 228.6175 -168.54344)
(826.66219 210.3737 -172.64446)
(840.4421 195.44432 -173.73165)
(857.90628 184.24577 -171.96185)
(878.07076 176.91371 -167.61184)
(899.76877 173.39304 -161.12031)
(921.74929 173.35133 -153.00004)
(942.78845 176.27126 -143.83847)
(961.75218 181.46004 -134.17898)
(977.79876 188.09434 -124.54707)
(990.48837 195.25452 -115.31855)
(1002.0185 202.64414 -106.6236)
(3.2927448e-15 -1.3239155e-15 2.3845803e-16)
(2.4470133e-15 -9.6672015e-16 3.215493e-17)
(-9.0574249e-15 9.0550918e-16 6.4029168e-16)
(-1.2642219e-16 -5.721845e-16 4.4370095e-16)
(-7.6811722e-15 -4.9270561e-16 4.1193361e-16)
(-7.3893964e-15 2.7533729e-15 -1.0951501e-15)
(-3.2915852e-15 -8.1743692e-16 3.8364228e-16)
(-1.9032499e-15 5.3200654e-16 -8.2319016e-17)
(-4.7409759e-15 -4.8623412e-16 4.3918642e-16)
(-1.2869644e-14 1.1845665e-15 6.4228907e-16)
(-9.6157521e-15 1.4157374e-15 5.9836601e-16)
(-9.4077204e-15 4.9518432e-16 1.1192419e-15)
(-5.982767e-15 2.6210694e-16 3.0473736e-16)
(-1.1478475e-14 -5.3386198e-16 1.6580808e-15)
(-5.257323e-15 3.6289085e-16 2.8600704e-16)
(-45.157106 22.696022 -40.859348)
(-95.970957 66.423586 -33.180372)
(-141.84107 68.49003 -16.442219)
(-187.9994 74.484156 -7.7711767)
(-225.67407 71.234804 4.2440413)
(-254.88316 64.252503 13.578077)
(-280.18511 55.720502 20.38322)
(-292.91916 43.657726 24.991964)
(-301.88077 32.547301 25.835218)
(-299.60464 19.39289 24.511147)
(-290.93222 8.7240643 20.658602)
(-278.00732 -0.69997673 14.729977)
(-257.5949 -9.3923685 7.3466034)
(-235.85265 -14.118612 -0.60146482)
(-210.27716 -18.434396 -8.9917184)
(-184.78629 -19.14709 -16.151157)
(-160.36476 -18.617961 -22.736815)
(-136.77375 -16.613766 -27.460597)
(-116.34012 -13.217824 -29.917026)
(-98.743816 -9.7164905 -30.335063)
(-84.573837 -6.8027467 -28.331238)
(-73.645453 -3.7288655 -23.987282)
(-65.567878 -2.1686991 -17.863243)
(-59.840212 -2.3104882 -9.9442121)
(-55.23105 -4.6050776 -0.85989808)
(-51.378182 -8.0863393 8.7349947)
(-46.242152 -13.982266 18.307633)
(-39.629777 -20.534675 27.686788)
(-30.161731 -28.890907 35.593631)
(-16.537455 -37.562802 42.469226)
(0.87387967 -46.333522 47.311453)
(23.358006 -54.078151 50.072638)
(50.664567 -60.760204 50.783122)
(82.600468 -65.062277 49.297665)
(119.09671 -67.088363 46.132147)
(158.25279 -65.561291 40.950952)
(200.87031 -62.014593 34.832648)
(244.67347 -53.852185 27.934628)
(288.62418 -42.817773 20.716471)
(331.67168 -28.510373 13.77114)
(372.52394 -11.505453 7.5936429)
(410.13578 7.7723706 2.5712354)
(443.65294 28.62948 -0.90800544)
(472.40525 50.404883 -2.6392484)
(496.05388 72.332947 -2.4780416)
(514.51545 93.723686 -0.46684697)
(528.04358 113.89422 3.2705315)
(537.15744 132.3022 8.4455003)
(542.64883 148.51136 14.690481)
(545.51617 162.26243 21.531184)
(546.90646 173.4668 28.442917)
(548.0543 182.21473 34.872129)
(550.18996 188.77863 40.258667)
(554.48497 193.56944 44.099857)
(561.94438 197.14184 45.941423)
(573.38313 200.1064 45.456545)
(589.32351 203.14139 42.420058)
(609.99863 206.88166 36.778269)
(635.3008 211.92729 28.612293)
(664.79708 218.74982 18.17902)
(697.74576 227.69105 5.8740579)
(733.13259 238.9022 -7.7645159)
(769.73583 252.35972 -22.106693)
(806.19369 267.82303 -36.421611)
(841.09588 284.89108 -50.013381)
(873.03101 302.9409 -62.113613)
(900.64001 321.53921 -72.021052)
(923.49242 338.98563 -79.353366)
(940.80074 355.33106 -83.193198)
(948.84281 370.11135 -84.001459)
(952.96618 381.38688 -81.37166)
(949.73118 389.31809 -75.107019)
(940.68184 393.1364 -66.097459)
(927.00978 392.73091 -54.472628)
(909.52819 387.94764 -41.034317)
(889.77497 378.96868 -26.503771)
(869.20241 366.18075 -11.683708)
(849.27025 350.12472 2.5691023)
(831.42467 331.53393 15.472223)
(816.90991 311.22899 26.314682)
(806.7512 290.11683 34.505256)
(801.68944 269.09824 39.619666)
(802.12741 249.05178 41.41239)
(808.12087 230.75101 39.828273)
(819.37754 214.85852 35.010865)
(835.27876 201.85027 27.280442)
(854.91779 192.04455 17.111953)
(877.17485 185.52697 5.1142956)
(900.76123 182.22493 -8.043989)
(924.35844 181.83356 -21.62926)
(946.63943 183.9301 -34.981743)
(966.50568 187.92549 -47.476982)
(983.00311 193.15138 -58.724227)
(995.97159 199.07028 -68.633871)
(1002.7578 204.2345 -77.023758)
(1043.5232 233.13277 -94.681467)
(1062.2086 252.03226 -101.51772)
(1064.8432 265.69294 -105.36461)
(1057.5084 271.94643 -106.1033)
(1040.0027 273.93842 -103.66918)
(1009.8821 268.0439 -98.899048)
(977.8863 261.45455 -92.251151)
(945.08327 253.13003 -85.667622)
(907.32076 243.96886 -78.981562)
(881.21613 238.90549 -73.932172)
(870.1138 240.36453 -71.523126)
(867.732 246.70483 -70.970089)
(878.89438 259.67582 -74.157794)
(899.21196 280.03481 -79.107384)
(929.81333 306.86173 -88.731002)
(914.717 317.89089 -100.44486)
(903.62249 312.55729 -105.08476)
(888.72826 304.51286 -110.78633)
(872.53845 294.41909 -116.35444)
(855.47574 281.79124 -122.20844)
(838.92236 266.90938 -127.96385)
(824.10054 250.27321 -132.79214)
(812.03714 232.44084 -136.46742)
(803.78992 214.23466 -138.41569)
(800.11686 196.39076 -138.21357)
(801.5085 179.86276 -135.69205)
(808.18393 165.29453 -130.60974)
(819.96969 153.50767 -123.04115)
(836.32022 144.95728 -113.11853)
(856.70609 140.10449 -101.07477)
(879.94223 139.09722 -87.350297)
(904.89344 141.93042 -72.528052)
(930.17547 148.35465 -57.188169)
(954.28566 157.95489 -42.067371)
(975.81137 170.08798 -27.803296)
(993.40425 184.04528 -15.088615)
(1005.8885 198.94147 -4.4564092)
(1012.382 213.92503 3.6697309)
(1012.2651 228.06333 8.9564472)
(1005.1489 240.55216 11.171977)
(991.29564 250.80145 10.647549)
(972.47349 257.86334 7.4099931)
(943.39297 262.11135 1.5573201)
(914.3761 261.8696 -6.1332875)
(879.79786 258.92114 -14.258202)
(843.74518 252.43148 -23.174886)
(806.97434 242.99932 -31.544192)
(771.06087 231.21523 -38.756982)
(737.30013 217.71513 -44.058202)
(706.8199 203.24136 -46.873697)
(680.49093 188.55791 -46.749333)
(658.85988 174.40192 -43.413125)
(642.14246 161.43622 -36.810216)
(630.17846 150.22467 -27.071646)
(622.47712 141.17939 -14.547372)
(618.21938 134.55591 0.23836414)
(616.33356 130.4368 16.602813)
(615.54737 128.73135 33.759393)
(614.48548 129.19321 50.849996)
(611.74143 131.43576 67.015503)
(605.98392 134.96961 81.431467)
(596.02828 139.22714 93.374732)
(580.91981 143.61304 102.25074)
(559.99366 147.54063 107.63728)
(532.90839 150.41845 109.33003)
(499.6766 151.87202 107.24332)
(460.68975 151.32268 101.69712)
(416.56224 148.77787 92.834576)
(368.42518 143.86744 81.473146)
(317.35073 136.70798 68.07731)
(264.88291 127.50493 53.436622)
(212.16524 116.6853 38.504689)
(161.93583 103.79768 24.113103)
(113.05437 90.468679 10.265344)
(68.327893 76.364729 -1.335462)
(29.248804 62.239406 -10.395796)
(-4.2701295 48.572622 -17.637041)
(-32.22704 36.818601 -20.916473)
(-53.286332 25.916225 -21.955661)
(-69.285833 16.606763 -19.530045)
(-78.680279 9.5930527 -15.643849)
(-85.230388 5.8233566 -8.781183)
(-86.925791 2.8642457 -1.4120569)
(-87.106364 3.3316044 7.1181738)
(-86.201749 4.9520239 15.588929)
(-85.657694 8.1700164 23.356144)
(-86.697542 13.530743 29.659846)
(-90.128643 18.351857 34.724179)
(-96.846266 23.993918 36.688602)
(-106.84562 29.705547 36.164757)
(-121.95997 34.282459 33.867894)
(-138.96202 37.314591 27.853467)
(-161.41323 39.806858 20.511957)
(-184.42584 38.787253 10.377725)
(-209.69196 37.22373 -0.40779897)
(-235.46217 32.849664 -12.185044)
(-259.44449 27.000077 -23.993976)
(-279.36328 17.512775 -34.06488)
(-296.8117 8.9595921 -43.989235)
(-307.69055 -1.956782 -50.552823)
(-310.58819 -13.958218 -53.241083)
(-307.22759 -25.727362 -54.778066)
(-294.94247 -35.869658 -50.705549)
(-273.4078 -46.097635 -43.654728)
(-243.39663 -53.992856 -31.728742)
(-208.00304 -60.003818 -18.940662)
(-165.37257 -62.791995 -2.7064269)
(-119.79996 -62.946769 13.39642)
(-72.51382 -54.570126 23.638213)
(-40.55991 -49.58832 28.69027)
(-6.8708141e-15 1.5083581e-15 1.9262289e-16)
(-1.2504183e-14 5.7375616e-16 8.4327435e-16)
(-8.3449101e-15 1.4891922e-15 5.3018253e-16)
(-4.9731758e-15 1.4991158e-15 6.2376313e-16)
(-3.4146159e-15 1.5624416e-15 3.1576894e-17)
(2.0582335e-15 9.3962624e-16 -5.746342e-16)
(2.2101935e-15 3.7457559e-17 -1.1841335e-16)
(2.4553765e-15 -8.5141669e-16 -9.3419562e-16)
(1.2987427e-15 1.0081898e-16 1.7950851e-15)
(-4.5074861e-15 9.063971e-16 1.0710522e-15)
(-5.2682467e-15 2.1856155e-15 1.0652666e-15)
(-7.4917339e-15 1.915055e-15 2.2418828e-16)
(-9.400838e-15 1.3708275e-15 6.2833768e-16)
(-6.2048683e-15 1.3247981e-15 5.4317906e-16)
(-6.971104e-15 1.5128103e-15 7.5678131e-16)
(-1.2693866e-14 6.2923345e-15 -2.1364834e-15)
(-5.2452578e-15 2.6791924e-15 -5.3037742e-16)
(-1.0752404e-15 9.8318743e-16 -1.0111087e-16)
(-2.7353382e-15 1.7746034e-15 7.3085398e-17)
(1.0178949e-15 -1.5450237e-16 -4.119182e-16)
(-1.4303492e-15 4.136346e-16 -3.3264033e-16)
(-1.0059749e-14 4.7133437e-15 -1.6449855e-15)
(2.9801421e-15 -1.9180379e-15 -8.3172098e-16)
(-4.79756e-15 2.8035442e-15 1.1420498e-15)
(-5.4778068e-15 3.5047253e-15 -3.934403e-16)
(-1.8117877e-15 1.1581936e-15 -9.1309836e-16)
(-3.9812639e-16 4.7407236e-16 -2.2932148e-16)
(-1.5272242e-15 1.100363e-15 -2.2557932e-16)
(-4.1024849e-15 1.9838802e-15 2.8069696e-17)
(-5.3424143e-16 2.551799e-16 -1.9455919e-16)
(1019.8974 203.81565 -98.913878)
(1026.6811 199.10477 -99.785478)
(1033.4615 194.97954 -99.950148)
(1040.0047 191.7021 -99.479795)
(1046.2226 189.21779 -98.19423)
(1051.5677 187.18199 -96.197467)
(1055.6608 185.84355 -93.819422)
(1058.2416 185.05126 -91.330172)
(1059.0953 185.02008 -88.970541)
(1058.2008 185.73146 -87.041049)
(1055.5692 187.47711 -85.785066)
(1051.2161 190.16709 -85.258533)
(1045.5691 194.10851 -85.527701)
(1038.8617 199.33779 -86.120602)
(1031.0733 205.56502 -87.350779)
(941.32052 327.70839 -84.268208)
(943.60199 337.05273 -83.611528)
(946.29366 345.57121 -82.959282)
(948.80642 352.74454 -82.832811)
(951.51752 358.75854 -83.394428)
(953.57633 362.99675 -84.641493)
(954.95381 365.44902 -86.444508)
(955.42006 366.11394 -88.620522)
(954.94017 365.04596 -90.945818)
(953.54934 362.42722 -93.160139)
(951.36074 358.56343 -94.982914)
(948.71755 353.57763 -96.294243)
(945.6767 348.07558 -96.843287)
(942.91767 341.91546 -96.861314)
(940.16943 335.59694 -96.423993)
(-20.578216 -13.526341 -25.76391)
(-63.616263 -14.513008 -13.074545)
(-108.72227 -19.368994 -6.9786159)
(-153.51987 -22.923588 5.2365271)
(-194.40362 -25.653608 16.243824)
(-230.38975 -27.163637 26.182693)
(-259.38985 -28.018461 33.677873)
(-280.81405 -27.133853 37.986712)
(-294.10419 -25.080786 39.307485)
(-299.60639 -21.911718 37.405916)
(-296.72622 -17.504778 32.272945)
(-287.42208 -12.057028 24.709858)
(-271.78618 -5.8951795 14.898437)
(-251.9058 0.69777568 3.7258612)
(-228.36067 7.6707984 -8.3243048)
(-203.56252 14.513319 -20.195064)
(-178.17901 20.709037 -31.3414)
(-154.05404 26.382062 -41.192629)
(-132.1554 30.974796 -49.117317)
(-113.58071 34.685037 -54.557887)
(-98.64932 36.920385 -57.439177)
(-87.893336 38.221128 -57.661342)
(-81.196927 38.249635 -55.152567)
(-77.924459 37.572106 -50.339487)
(-77.725366 36.196858 -43.453325)
(-79.266552 34.627498 -35.092952)
(-81.509416 33.231416 -25.813563)
(-82.972391 32.378283 -16.227104)
(-82.388591 32.545832 -7.0848649)
(-78.370081 34.107593 1.0151189)
(-69.576241 37.285611 7.7612837)
(-55.192511 42.454115 12.260382)
(-34.467765 49.557129 14.811491)
(-7.1028873 58.665372 15.000807)
(26.952844 69.417804 12.899277)
(67.387051 81.822259 8.7351352)
(113.14288 95.219078 3.3369934)
(163.39017 108.93166 -3.3574469)
(216.65153 122.82544 -10.516916)
(271.33882 135.97985 -17.327497)
(325.92024 147.68265 -23.368285)
(378.48909 157.55222 -28.073194)
(428.19828 165.22078 -30.773973)
(473.08161 170.09928 -31.28298)
(512.43165 172.21079 -29.381523)
(545.57793 171.50063 -25.050739)
(572.30838 168.17093 -18.508533)
(592.78385 162.58924 -10.123576)
(607.57142 155.31332 -0.40911687)
(617.56875 146.9942 9.9783916)
(623.97242 138.40312 20.333005)
(628.147 130.32982 29.900643)
(631.56837 123.55302 37.972845)
(635.68334 118.7777 43.896682)
(641.83689 116.57863 47.161149)
(651.15277 117.37116 47.391631)
(664.48031 121.3552 44.419481)
(682.31298 128.52471 38.258574)
(704.77785 138.6459 29.127903)
(731.60015 151.27736 17.421663)
(762.16584 165.80465 3.7287603)
(795.51585 181.4457 -11.31926)
(830.40841 197.4142 -26.874597)
(865.48418 212.76119 -42.311531)
(899.38047 226.62021 -56.549221)
(930.26077 238.39198 -69.16085)
(957.20588 247.14561 -79.687055)
(979.06244 252.37412 -87.065844)
(994.72432 254.11246 -91.732013)
(1003.6083 251.93509 -92.683223)
(1005.7884 246.20607 -90.84257)
(1001.1172 237.4038 -86.046486)
(990.17115 225.97022 -78.752226)
(973.7498 212.61097 -69.4726)
(952.90909 198.15465 -58.798918)
(928.89142 183.48627 -47.446468)
(903.08245 169.44441 -36.030123)
(876.8471 156.91942 -25.256029)
(851.61084 146.52031 -15.675043)
(828.55035 139.01417 -7.8215578)
(808.85461 134.62036 -2.0040976)
(793.22936 133.82992 1.411781)
(782.20171 136.48986 2.422039)
(776.30693 142.50895 1.0122208)
(775.47042 151.56114 -2.5182617)
(779.13964 163.26469 -7.952835)
(787.0754 177.01463 -15.002748)
(798.35351 192.0899 -23.146683)
(812.19023 207.83583 -31.986761)
(827.61637 223.51558 -41.117741)
(843.3072 238.33079 -49.930693)
(859.1023 252.0608 -58.497974)
(873.08744 263.6057 -66.188739)
(885.7883 273.56331 -73.596704)
(899.55326 281.75332 -80.818422)
(-20.759524 -6.1385771 -13.099129)
(-59.40978 -1.1889998 -8.2492802)
(-102.14778 -4.0257032 -4.2138384)
(-143.61005 -5.8939735 4.642409)
(-183.41397 -8.8590812 13.156813)
(-218.73529 -11.890868 20.740765)
(-248.06564 -14.9855 26.94756)
(-270.90512 -17.155795 30.729499)
(-286.33528 -18.932658 32.523651)
(-294.237 -19.350026 31.257216)
(-294.8272 -18.91974 27.989297)
(-288.50425 -17.030059 22.111686)
(-276.19617 -14.177886 14.531365)
(-258.74709 -10.041623 5.4278211)
(-237.66645 -5.2900072 -4.5151451)
(-214.08247 0.36807698 -14.781247)
(-189.6035 6.1540191 -24.822469)
(-165.39659 12.117198 -33.923486)
(-142.8114 17.653443 -41.666142)
(-122.7948 22.808667 -47.64653)
(-106.32872 26.85046 -51.497872)
(-93.659814 30.143112 -53.032417)
(-85.057965 32.070371 -52.261639)
(-80.200293 33.072953 -49.268769)
(-78.631315 32.850274 -44.265395)
(-79.376345 31.960034 -37.693892)
(-81.302017 30.322244 -29.943147)
(-83.024226 28.707999 -21.712289)
(-83.150435 27.161366 -13.406496)
(-79.992751 26.484029 -5.689717)
(-72.431188 26.872125 0.86934755)
(-58.972812 28.835846 5.9819671)
(-38.920718 32.715021 9.2630708)
(-11.720068 38.616759 10.515064)
(22.83243 46.584355 9.8501664)
(64.447826 56.66497 7.3343362)
(112.11094 68.469689 3.3595638)
(164.91086 81.555344 -1.6589889)
(221.31602 95.564834 -7.1560516)
(279.35712 109.63055 -12.610534)
(337.47325 123.2387 -17.196808)
(393.71616 135.69952 -21.025826)
(446.13642 146.24475 -22.492997)
(493.55458 154.43313 -22.320821)
(534.5989 159.92205 -19.972948)
(568.69675 162.43828 -15.520542)
(595.5811 161.98736 -9.1362019)
(615.51748 158.8103 -1.2432026)
(629.22187 153.34597 7.6612876)
(637.80774 146.20936 16.92402)
(642.69526 138.17115 25.877345)
(645.48129 130.07833 33.812632)
(647.84557 122.79854 40.090749)
(651.37757 117.16082 44.150393)
(657.5015 113.87265 45.575372)
(667.33257 113.48055 44.112311)
(681.63016 116.30819 39.698134)
(700.7195 122.4563 32.451086)
(724.50434 131.75387 22.680774)
(752.45087 143.81892 10.854893)
(783.67028 158.03731 -2.4453206)
(816.95151 173.65128 -16.539528)
(850.86214 189.79931 -30.717828)
(883.96954 205.54928 -44.30759)
(914.63634 219.88785 -56.430574)
(941.30859 232.53863 -67.202991)
(963.5749 241.96674 -74.883544)
(981.61613 248.86616 -80.922421)
(991.48229 251.75821 -83.88769)
(994.16968 250.79548 -84.051727)
(990.23376 246.15828 -81.762291)
(979.84362 238.43701 -77.23723)
(963.90717 227.92478 -70.841788)
(943.462 215.40372 -63.059387)
(919.67468 201.58647 -54.424595)
(893.8922 187.36322 -45.500135)
(867.47033 173.4847 -36.793864)
(841.72545 160.8113 -28.841671)
(817.91135 149.95797 -21.989498)
(796.99737 141.6226 -16.692559)
(779.90876 136.02561 -13.02886)
(767.15786 133.71543 -11.28853)
(759.17086 134.47866 -11.427927)
(753.41218 137.84654 -13.316028)
(752.70092 144.40433 -16.949002)
(758.05228 153.66409 -22.001887)
(767.09403 164.98719 -28.08662)
(779.12858 177.70972 -34.86871)
(793.07029 191.25474 -42.282893)
(808.50901 205.00068 -49.628118)
(823.7283 218.26879 -57.109638)
(839.3054 230.57676 -64.234087)
(853.16106 241.29503 -70.984536)
(865.64899 250.64807 -77.960862)
(879.38655 258.31986 -84.42211)
(-23.0807 -0.59118441 -7.3492593)
(-59.590762 3.154723 -2.7026124)
(-98.304723 4.1135091 -0.70872068)
(-138.043 3.1684249 6.2486477)
(-176.24872 1.0881124 11.795638)
(-210.82155 -2.015736 17.633938)
(-240.57863 -5.8089778 22.288814)
(-264.46951 -9.4574597 25.420212)
(-281.36864 -12.740877 26.543893)
(-291.61587 -15.412591 25.897986)
(-294.44795 -17.027682 23.117154)
(-290.87138 -17.653412 18.558967)
(-280.73791 -16.804899 12.319063)
(-265.81028 -14.9117 4.8601025)
(-246.30011 -11.695388 -3.5341571)
(-224.19453 -7.4338899 -12.372099)
(-200.23682 -2.4804311 -21.072028)
(-176.29282 3.1402674 -29.24351)
(-153.11573 8.7398727 -36.450751)
(-132.32088 14.392747 -42.254605)
(-114.43514 19.305154 -46.301806)
(-100.25881 23.635991 -48.510295)
(-90.017288 26.706632 -48.667386)
(-83.674318 28.759123 -46.892652)
(-80.735544 29.432011 -43.315711)
(-80.419994 29.07598 -38.218178)
(-81.641686 27.623195 -31.989374)
(-83.015255 25.599174 -25.052054)
(-83.004118 23.263193 -17.918818)
(-80.096175 21.164887 -11.105699)
(-72.724828 19.751688 -5.0216957)
(-59.571125 19.622876 -0.11777361)
(-39.672843 21.14379 3.301199)
(-12.243126 24.692941 5.1848173)
(22.862162 30.558457 5.3566581)
(65.317831 38.720382 4.0564662)
(114.45876 49.091725 1.5575996)
(169.032 61.30062 -1.7714591)
(227.34876 74.987152 -5.5981105)
(287.69602 89.714117 -9.1549983)
(347.99303 104.41175 -12.284065)
(406.1903 118.5217 -14.106346)
(460.30865 131.33996 -14.627146)
(508.86493 141.92641 -13.299398)
(550.59418 149.98819 -10.323766)
(584.76103 155.05765 -5.5601124)
(611.15961 156.9817 0.67090158)
(630.1468 155.88894 7.9989867)
(642.55121 152.12385 15.918905)
(649.64808 146.25845 23.838358)
(652.9982 139.04979 31.157613)
(654.36359 131.37272 37.250498)
(655.52039 124.15009 41.603235)
(658.14375 118.28687 43.756437)
(663.66473 114.57285 43.43596)
(673.16683 113.64204 40.494921)
(687.31163 115.90095 34.978808)
(706.29787 121.50341 27.088369)
(729.86827 130.33713 17.192479)
(757.32401 142.04017 5.7512308)
(787.6221 156.01676 -6.6422297)
(819.42743 171.50921 -19.398337)
(851.25184 187.62414 -31.88976)
(881.61603 203.43701 -43.470971)
(908.77742 217.98502 -53.816586)
(932.16867 230.8058 -62.255821)
(947.91316 239.77035 -68.547162)
(964.68762 247.59993 -73.533263)
(970.11162 251.22595 -75.032372)
(968.64757 250.52849 -74.744346)
(960.80713 246.43282 -72.473447)
(947.26063 239.09867 -68.536034)
(928.86129 229.04462 -63.289862)
(906.75079 216.9216 -57.201384)
(882.13306 203.49452 -50.649387)
(856.34462 189.5148 -44.160131)
(830.65422 175.78795 -38.022846)
(806.26674 163.06544 -32.662435)
(784.25583 151.9537 -28.31286)
(765.52591 143.07234 -25.207049)
(750.70237 136.73802 -23.437084)
(740.24941 133.32965 -23.158256)
(734.36876 132.79537 -24.107427)
(733.14984 135.16437 -26.507643)
(732.3924 139.50716 -29.805978)
(738.71106 147.0911 -34.252971)
(749.01566 156.56989 -39.255325)
(761.80322 167.50451 -44.948739)
(776.55979 179.37527 -50.832102)
(792.39739 191.6194 -56.954154)
(808.30754 203.55312 -62.955322)
(824.49545 214.95791 -69.054239)
(839.02051 224.89412 -74.805901)
(852.31492 233.83029 -81.063451)
(866.10964 241.14176 -87.11193)
(-26.328346 1.6510938 -1.9844992)
(-61.9363 5.5510173 0.95066896)
(-99.367988 6.9546321 2.8158946)
(-137.57698 6.8611074 7.3496403)
(-174.70314 5.5971351 11.550093)
(-209.11968 2.9181088 15.832345)
(-238.90667 -0.95396639 19.450379)
(-263.22662 -4.6829899 21.288275)
(-281.27561 -8.7434067 22.385695)
(-292.52775 -12.234297 21.294739)
(-296.9066 -15.02522 19.010223)
(-294.44679 -16.709114 14.875051)
(-286.02725 -17.244371 9.6122013)
(-271.94792 -16.450543 3.1033778)
(-253.67405 -14.32074 -4.121422)
(-232.02312 -10.987645 -11.742206)
(-208.66886 -6.7037415 -19.320566)
(-184.55468 -1.5263621 -26.569814)
(-161.3462 3.9033934 -32.927744)
(-139.90536 9.5983019 -38.178724)
(-121.35191 14.767603 -41.999464)
(-106.28399 19.499388 -44.252604)
(-95.109386 23.037447 -44.747396)
(-87.72181 25.629689 -43.641452)
(-83.804272 26.697902 -40.900567)
(-82.556784 26.661017 -36.884634)
(-82.912819 25.280426 -31.784814)
(-83.474243 23.163102 -26.078308)
(-82.791545 20.363036 -20.078278)
(-79.201524 17.642998 -14.271512)
(-71.221148 15.331951 -8.9963016)
(-57.464023 14.12133 -4.6110138)
(-36.860428 14.428454 -1.2899067)
(-8.7566126 16.803336 0.73811979)
(27.059648 21.478716 1.5577809)
(70.282642 28.668795 1.2381438)
(120.36254 38.37632 0.0028572566)
(175.64585 50.405893 -1.9223785)
(234.61335 64.220029 -3.9708419)
(295.43359 79.001391 -5.8593724)
(355.96125 94.32619 -7.0589461)
(414.12842 109.3208 -7.3609962)
(468.0487 123.10036 -6.363143)
(516.05812 135.00302 -4.0333473)
(557.02511 144.39851 -0.35357521)
(590.21247 150.87354 4.6079031)
(615.47752 154.18093 10.550238)
(633.23304 154.39057 17.12793)
(644.371 151.80369 23.864867)
(650.21675 146.95471 30.273955)
(652.38337 140.58372 35.825672)
(652.64756 133.55299 40.050374)
(652.79182 126.79434 42.535897)
(654.46958 121.21374 42.976969)
(659.06859 117.6265 41.205328)
(667.61547 116.68292 37.180338)
(680.70664 118.80906 31.020086)
(698.47574 124.18523 22.970663)
(720.60456 132.72274 13.387205)
(746.35848 144.0728 2.7239968)
(774.67359 157.68066 -8.5178343)
(804.23121 172.77511 -19.830371)
(833.59117 188.53411 -30.672132)
(861.24147 203.99459 -40.651471)
(885.84773 218.35765 -49.33486)
(906.1889 230.56068 -56.375465)
(921.33898 240.4181 -61.837037)
(930.0901 246.71947 -65.19308)
(933.2642 249.82717 -66.726349)
(930.05451 249.24246 -66.84459)
(920.78326 245.29365 -65.291512)
(906.57243 238.25028 -62.609894)
(888.16134 228.71501 -59.053608)
(866.5318 217.17675 -54.844832)
(842.90031 204.19195 -50.450682)