/*--------------------------------*- C++ -*----------------------------------*\
  =========                 |
  \\      /  F ield         | OpenFOAM: The Open Source CFD Toolbox
   \\    /   O peration     | Website:  https://openfoam.org
    \\  /    A nd           | Version:  6
     \\/     M anipulation  |
\*---------------------------------------------------------------------------*/
FoamFile
{
    version     2.0;
    format      ascii;
    class       pointScalarField;
    location    "1.4";
    object      p;
}
// * * * * * * * * * * * * * * * * * * * * * * * * * * * * * * * * * * * * * //

dimensions      [1 -1 -2 0 0 0 0];

internalField   nonuniform List<scalar> 
28033
(
-1523177.1
1999046.8
-62.119771
-78.692149
-2929005.6
2682527.1
-492.30579
266.63267
-1309715.7
-1148139.3
-979390.33
-801211.1
-568996.85
-382234.13
-190280.51
2204.4478
199960.3
363595.12
562673.74
662690
866456.21
1080051.4
1041574.5
830.93462
1526.6352
2305.0094
2211.1275
2355.3568
1800.2067
1314.7999
530.38748
-296.22404
-931.98735
-1835.2366
-2289.4547
-2485.8899
-1936.6429
-1044.3462
-331094.54
-388506.23
-338686.41
-380057.95
-364451.97
-381888.86
-380840.25
-385125.01
-383580.48
-387249.47
-382051.28
-381043.36
-378465.14
-376605.24
-371357.29
-367795.82
-364968.02
-359802.37
-355715.62
-351162.82
-348215.8
-342138.73
-339853.34
-334398.35
-330583.22
-326941.79
-323053.53
-318771.88
-314995.38
-311080.52
-307520.51
-303413.32
-300457.12
-296212.38
-292242.1
-289079.84
-285718.88
-282819.97
-278635.93
-275479.22
-271080.63
-267431.5
-263139.09
-259355.78
-254746.01
-250519.28
-245545.72
-240804.91
-235313.67
-229996.6
-224008
-218052.09
-211639.53
-205118.68
-198339.09
-191439.09
-184413.67
-177315.42
-170171.15
-163098.6
-156027.16
-149029.82
-142051.32
-135561.28
-128957.07
-122697.81
-117238.63
-110953.62
-104417.44
-98176.11
-92215.425
-86424.6
-80657.773
-75124.993
-69585.125
-64240.045
-58958.733
-53929.799
-48861.434
-44161.071
-39437.37
-35026.436
-30711.185
-26351.313
-22543.175
-18741.838
-15496.387
-12262.983
-9495.7667
-6784.7962
-4773.5863
-2655.0623
-1364.651
-567.9826
298.76004
404621.12
347113.43
378911.08
345217.54
379938.74
373447.87
383010.23
377990.48
384323.56
378441.54
380783.75
376306.57
374317.7
372038.76
368443.02
364892.4
361370.82
357357.75
353528.81
349548.74
344656.08
341172.54
335939.9
332239.79
327803.55
322839.14
319245.03
313781.32
310508.28
305088.45
301306.97
296899.24
293245.35
289466.24
286235.93
283346.8
279216.62
276642.1
272981.71
270212.36
266745
263472.88
259802.02
256068.78
251873.33
247526.49
242705.67
237614.5
232136.62
226316.52
220188.39
213772
207110.38
200278.95
193288.39
186251.98
179169.81
172140.74
165172.24
158343.75
151627.1
145112.66
138728.29
132525.2
126450.29
120546.52
114744.15
109125.38
103601.28
97179.733
92082.866
85930.073
80377.354
74517.462
68759.619
62934.922
57230.401
51596.488
46032.723
40752.709
35619.721
30799.467
26250.931
22092.825
18228.933
14820.419
11718.569
9058.7849
6726.6988
4751.9984
3123.7649
1848.6888
733.97019
149.68326
-132.95522
-2331998.5
-2266902.5
-1586018
-1624364.5
-1118050.7
-686021.26
-434681.78
-21939.755
301282.66
668194.82
954871.89
1289976.3
1646009.2
1857284.4
2015700.6
552410.65
470857.33
250194.97
436292.86
370867.21
397230.07
384618.19
400117.75
389121.49
399972.06
400001.41
388961.97
395798.8
382170.9
387487.37
377068.95
373556.13
368086.33
363085.17
360149.14
355348.34
347252.11
345111.84
343490.82
335617.59
336440.52
325801.66
327745.56
318367.52
317652.88
313479.64
310230.46
306072.76
302559.32
300089.03
292260.78
291361.04
288180.27
284325.5
280646.65
276832.76
272940.32
268909.55
264680.02
260340.08
255742.95
250918.13
245785.42
240414.55
234774.69
228873.49
222687.54
216289.6
209627.42
202786.2
195733.19
188588.22
181303.98
173974.98
166652.75
159299.93
152073.88
144860.28
137824.49
130853
124087.7
117763.72
111036.52
102777.16
98699.286
92537.406
86493.575
80785.529
75094.359
69551.739
64097.359
58796.69
53669.591
48613.819
43752.675
39021.639
34506.121
30134.507
26054.281
22122.164
18497.347
15050.713
11940.206
9034.0172
6486.922
4218.2492
2312.6462
877.78551
-231.52128
-569.16086
-1120.2372
-2288.193
-2271.8471
-2722.8716
-1934.6132
-1782.0377
-930.84692
116.54924
1018.9055
1904.1829
1653.9922
3291.9227
1763.8999
2031.434
722.52942
-320.45336
-490.9424
-1002.9597
-2089.0894
-3269.2073
-4980.2027
-7010.319
-9458.1748
-12088.015
-15452.351
-18892.33
-22780.865
-27192.454
-31925.484
-36956.312
-42295.185
-47959.413
-53701.968
-59741.897
-65795.109
-71994.475
-78236.206
-84521.912
-90616.314
-96765.352
-102144.91
-106793.37
-117812.82
-120636.36
-127913.76
-134022.97
-140496.67
-146831.93
-153433.82
-160131.65
-166952.96
-173978.93
-181046.43
-188276.86
-195509.51
-202776.57
-209945.01
-217052.82
-223913.34
-230590.92
-236938.51
-242965.13
-248598.71
-253894.3
-258698.9
-263197.95
-267238.43
-271161.72
-274561.53
-277529.54
-281053.12
-283413.5
-282995.77
-292169.32
-293265.73
-292543.46
-302207.13
-303032.84
-307227.98
-305707.54
-317867.18
-314870.76
-326111.5
-328564.82
-333224.85
-338232.76
-337661.55
-349567.34
-351440.09
-350854.2
-361956.83
-359657.69
-368963.27
-367511.85
-376351.35
-382421.21
-378249.42
-377707.62
-388401.78
-390616.03
-386307.49
-392283.56
-388453.44
-386808.04
-373715.95
-363465.28
-400585.11
-370277.63
-324873.14
-451371.67
-986130.18
-1122176.9
-1186283.5
-1266931
-1282276.9
-1342139
-1331405.8
-1361816.7
-1335649.6
-1289505.6
-1331225.1
-1229117.9
-1160187.9
-1251946.7
-871518.13
1696709.7
2098085.6
2053332
2196417.3
2115928.2
2023800.9
2314472.8
2443070.4
2299976.8
2307789.6
2223405.7
2159496.9
2036910.7
2015065.4
1876666.9
835.36115
1123.4172
1130.8641
1058.2873
748.66856
508.99784
284.27407
76.962408
-37.442311
-59.51215
-86.83413
-82.771854
72.47124
-92.232832
136.31181
169.93289
93.432411
99.159515
156.86573
242.52229
254.42674
155.26493
4.3104959
-223.67433
-443.02786
-753.74668
-885.10935
-1007.7243
-1013.4461
-150.52233
-335953.56
-345592.8
-303878.19
-314680.53
-324298.6
-332114.84
-338127.22
-342669.82
-345961.73
-346124.98
-346231.03
-347513.66
-344350.79
-341743.83
-339084.55
-337342.07
-332606.87
-329312.67
-326403.97
-321732.97
-319154.69
-314746.59
-311484.53
-307580.43
-304338.36
-300625.8
-296926.16
-293506.26
-290288.15
-286755.12
-282956.83
-279150.57
-276675.27
-272332.6
-269674.64
-265613.59
-262060.28
-257726.18
-254355.3
-250862.1
-247186.66
-243089.92
-239231.38
-234912.65
-230593.85
-226264.98
-221518.67
-216899.72
-211777.68
-206720.06
-201237.68
-195702.62
-189847.23
-183879.05
-177681.88
-171369.86
-164903.09
-158349
-151749.03
-145108.01
-138465.58
-131799.1
-125366.88
-118987.09
-112174.5
-106220.78
-99615.487
-93690.638
-87838.402
-82638.019
-77582.283
-72498.362
-67562.606
-62929.414
-58273.894
-53995.357
-49735.178
-45722.059
-41699.597
-38082.044
-34231.653
-30827.854
-27384.006
-24153.3
-20823.891
-17736.287
-14805.968
-11985.425
-9437.2881
-7134.8726
-5011.9677
-3160.0794
-1707.6216
-493.10844
667.88183
-321621.49
-293123.83
-250999.27
-270478.76
-272457.69
-280192.59
-283867.15
-291130.98
-293246.92
-297540.96
-297383.21
-299063.26
-297383.05
-297742.4
-294920.46
-292722.27
-289823.1
-287556.41
-284146.05
-280742.11
-277861.7
-273621.59
-271257
-267548.06
-264824.43
-261050.07
-258792.92
-255268.85
-252457.02
-249135.08
-246591.84
-243378.76
-240163.79
-236842.88
-233760.6
-230128.09
-226746.6
-223334.42
-219808.96
-216097.56
-212124.24
-208829.06
-204174.62
-200564.04
-196284.27
-192338.35
-187972.22
-183789.24
-179207.08
-174762.81
-169932.79
-165138.78
-160067.8
-154912.61
-149578.2
-144121.18
-138530.12
-132873.12
-127115.72
-121344.52
-115535.36
-109792.6
-104213.48
-98562.643
-93130.877
-89026.085
-84403.222
-79148.017
-75048.051
-70379.228
-65925.433
-61717.491
-57612.016
-53648.85
-49854.021
-46402.254
-42782.359
-39599.716
-36256.302
-33255.863
-30087.594
-27123.067
-24330.197
-20796.945
-17974.337
-15277.109
-12618.501
-10307.239
-8186.9955
-6075.977
-4413.5865
-2603.1715
-1451.9186
-258.80378
1199.03
-268560.03
-258744.34
-208047.61
-226661.92
-221980.91
-230891.34
-237121.87
-243544
-245374.22
-248988.19
-250745.91
-252064.52
-251713.54
-251108.05
-249988.78
-248526.96
-246587.51
-243617.19
-241784.62
-238426.55
-236613.28
-233235.73
-231273.43
-227967.04
-225710.69
-222746.67
-220549.42
-217464.69
-215456.83
-212418.18
-210114.31
-206983.1
-204646.17
-201562.45
-199020.3
-195805.76
-193207.89
-190223.68
-187140.84
-183555.6
-180109.34
-176493.27
-173344.1
-169752.97
-166286.95
-162587.91
-158870.51
-155116.38
-151239.18
-147325.63
-143219.1
-139095.41
-134737.38
-130319.8
-125712.02
-120986.7
-116142.85
-111187.31
-106139.32
-101057.36
-95948.172
-90871.155
-85853.205
-80781.798
-76268.143
-72023.511
-68283.45
-63311.874
-59800.029
-56362.452
-53073.964
-49580.58
-46233.13
-43289.554
-40344.921
-37588.896
-34992.745
-32394.975
-29938.024
-27501.675
-25043.777
-22825.376
-20241.781
-17940.213
-15903.716
-13317.393
-11030.457
-9109.3023
-7169.3283
-5330.1239
-3805.6133
-2114.3496
-1020.8666
495.14176
1726.2766
-206257.64
-212071.9
-161008.21
-185153.92
-173150.07
-184790.54
-188080.91
-193126.06
-195051.15
-200183.58
-201010.96
-203164.62
-202314.89
-203771.39
-201674.83
-201435.69
-198895.64
-198090.89
-195791.02
-193636.4
-191579.22
-189058.89
-187135.13
-184439.42
-182951.58
-180287.4
-178758.24
-176362.09
-174598.4
-172276.45
-170538.39
-168118.86
-166056.2
-163480.92
-161532.68
-158105.45
-155880.95
-151976.97
-148767.92
-145758.52
-143194.43
-140024.26
-136805
-133553.99
-130491.27
-127338.09
-124265.2
-121213.14
-118100.55
-115005.54
-111832.59
-108625.3
-105300.96
-101904.95
-98363.981
-94735.437
-90964.551
-87092.479
-83124.477
-79104.226
-75045.238
-70970.414
-66926.43
-63032.882
-59240.083
-55504.903
-52169.752
-48899.554
-45304.435
-42619.512
-40053.538
-37194.269
-35244.736
-33031.272
-30924.573
-28926.693
-27002.934
-25174.271
-23320.568
-21532.964
-19736.504
-17933.252
-16032.825
-14013.291
-12251.953
-10866.076
-9119.7423
-7614.6245
-5958.7877
-4516.0401
-3153.4843
-1809.6804
-749.26406
296.31776
1606.9336
-174200.79
-156818.2
-121044.39
-136451.85
-131141.99
-137921.01
-142227.37
-146018.76
-147822.96
-151357.92
-152653.3
-153368.65
-154358.94
-154074.22
-153702.68
-152664.37
-151768.73
-150012.8
-148672.43
-146514.13
-145609.46
-143223.62
-142178.88
-140150.35
-139144.22
-136962.95
-136088.23
-134016.72
-133075.11
-131194.65
-129963.96
-128020.69
-126596.47
-124749.4
-123014.13
-120724.88
-120876.97
-120261.86
-118468.34
-118165.01
-115108.88
-112617.82
-110316.24
-107725.84
-105256.9
-102660.89
-100181.99
-97671.638
-95214.824
-92763.365
-90271.841
-87772.774
-85179.149
-82504.494
-79731.093
-76834.197
-73808.299
-70673.929
-67442.534
-64119.888
-60779.083
-57316.808
-54075.533
-50768.174
-47377.767
-44657.023
-41637.342
-38924.162
-36131.82
-33840.384
-31732.009
-29674.643
-26790.503
-24971.534
-23357.263
-21866.695
-20622.845
-19295.757
-18035.68
-16793.114
-15457.085
-14248.831
-12827.169
-11654.663
-10138.089
-8811.4327
-7354.217
-6197.8255
-4735.9683
-3686.2388
-2485.1698
-1299.0373
-605.95941
477.9211
1478.4005
-104208.72
-109761.2
-78443.579
-95280.832
-87337.073
-91457.652
-95561.22
-98375.253
-98791.029
-103025.79
-102304.89
-104590.62
-103432.02
-104732.32
-102857.78
-103153.59
-101467.29
-100998.36
-99484.072
-98524.414
-97318.757
-95846.506
-95181.413
-93637.689
-93069.47
-91664.008
-91308.964
-90012.055
-89530.02
-88210.209
-87619.536
-86244.619
-85421.017
-83930.037
-82554.416
-81434.944
-80809.917
-80002.853
-80156.143
-79370.031
-78922.535
-76827.389
-74902.901
-72970.952
-71167.957
-69320.896
-67594.568
-65949.471
-64346.975
-62792.553
-61255.161
-59712.361
-58111.606
-56469.932
-54723.636
-52868.933
-50912.883
-48828.063
-46633.106
-44350.651
-41980.352
-39629.031
-37180.031
-34777.906
-32632.868
-30155.006
-28318.938
-26276.674
-24533.242
-23082.249
-21431.578
-20122.117
-19036.459
-17172.162
-15979.992
-15312.963
-14483.137
-13859.9
-13120.484
-12483.588
-11649.479
-10936.705
-9989.6035
-9182.5477
-8070.9141
-7328.7437
-6041.2027
-5158.1525
-3833.7097
-3010.4602
-1821.3996
-1046.1842
-268.81103
430.945
1135.9619
-52176.094
-49783.883
-34691.63
-48702.081
-40362.494
-45144.83
-47775.264
-49477.024
-49838.667
-51528.741
-52722.899
-51933.657
-53064.635
-52466.763
-52213.688
-51794.161
-51247.416
-50398.538
-49919.527
-49011.597
-48675.313
-47849.219
-47828.612
-46854.423
-47169.201
-46301.605
-46619.414
-45829.325
-46022.18
-45382.911
-45423.368
-44680.625
-44506.175
-43538.612
-43271.302
-42230.84
-41601.242
-40788.75
-38825.114
-37577.11
-36776.542
-35794.896
-34640.666
-33870.78
-33052.67
-32305.909
-31619.553
-31079.312
-30512.145
-30063.77
-29588.243
-29135.781
-28632.233
-28082.163
-27442.173
-26695.253
-25854.489
-24868.01
-23782.574
-22579.685
-21311.049
-19947.557
-18558.738
-17206.347
-15769.685
-14551.02
-13222.721
-12138.95
-11083.91
-10224.582
-9496.2922
-8936.2565
-8207.5632
-8210.7531
-8151.8207
-7993.1409
-7758.0522
-7655.4272
-7494.7178
-7299.8612
-7010.977
-6756.5568
-6246.0238
-5864.3283
-5142.4973
-4648.6292
-3730.8847
-3328.1428
-2335.0249
-2011.4923
-1034.6369
-736.5636
-102.54393
271.88045
515.03567
11090.228
77.229028
8902.0892
345.51964
2865.5419
914.80951
-205.86923
-1745.2985
552.79389
-2992.8324
-990.73801
-2077.706
-1413.6095
-1861.532
-800.78692
-1197.1958
-191.73335
-450.65536
185.28934
213.57619
265.64676
343.61575
318.57869
383.20393
-274.97064
-83.015872
-983.78535
-840.56991
-1697.3144
-1543.4107
-2157.8252
-1934.8338
-2220.4067
-2032.1845
-2036.225
-1499.8522
-1695.6008
-979.38457
-747.60894
49.640395
338.06399
636.14549
1097.09
1351.0021
1445.7224
1564.8343
1440.662
1247.9628
962.86735
591.76307
163.07484
-293.16099
-750.52592
-1175.3763
-1571.3476
-1855.5307
-2086.2549
-2181.094
-2175.653
-2068.6582
-1843.2996
-1542.76
-1183.5697
-763.95238
-363.8554
98.586495
423.6271
749.14357
982.06925
1079.6744
1126.5103
1043.3106
883.6014
525.07209
100.73432
-371.67736
-819.56602
-1353.8654
-1804.3874
-2242.0642
-2613.1042
-2883.9422
-3051.6906
-3126.0385
-3034.0908
-2940.6688
-2558.1821
-2357.3827
-1631.837
-1469.3965
-571.434
-553.26714
58.153335
-63.626432
30.200019
58686.041
54110.969
51288.88
46995.68
48836.104
49662.746
48329.082
49956.48
49398.646
50312.035
49255.883
50912.239
49769.208
50470.91
50276.211
50470.285
50150.991
50104.594
50024.765
49541.162
49160.049
48910.292
47783.301
47120.332
45853.976
45244.794
43876.689
43262.785
41895.791
41408.549
40135.54
39798.39
38708.787
38426.356
37817.682
37365.26
37120.287
36739.234
36409.713
36033.695
35598.89
35148.52
34697.301
34009.118
33252.584
32444.779
31475.778
30386.639
29248.676
27994.528
26692.437
25357.643
24037.269
22715.084
21459.104
20298.584
19193.104
18243.023
17389.615
16667.099
16063.305
15562.456
15156.904
14798.739
14542.292
14220.236
13940.018
13582.089
13206.196
12677.278
12168.364
11354.315
10606.598
9615.8149
9078.36
8150.4201
6995.9598
5911.3945
4872.4317
3855.434
2968.5198
2131.007
1505.1268
919.86301
590.74465
265.26645
258.57781
37.796497
392.38086
20.290984
597.11272
109.27675
422.0648
-45.672244
-364.33623
115090.82
109323.3
95482.596
95872.69
97922.599
98530.894
100371.71
99438.439
103079.62
101415.4
102617.59
103035.46
102495.06
102430.1
102592.37
101673.22
101371.71
100695.41
99795.749
98736.851
97782.931
95366.95
93762.861
92506.121
90840.722
89720.159
87735.954
86541.712
84645.006
83580.988
81896.641
80967.313
79561.284
78816.267
77445.611
76943.689
75719.188
75142.121
74109.096
73462.258
72480.186
71562.123
70440.281
69319.177
67939.518
66540.724
64909.032
63179.248
61342.94
59386.657
57335.629
55254.312
53113.439
50965.793
48846.066
46769.976
44732.913
42819.163
40976.863
39244.584
37634.238
36123.074
34706.055
33378.383
32118.74
30904.288
29707.715
28555.45
27314.777
26080.356
24704.675
23278.112
21810.38
19558.668
17182.026
15929.339
13988.96
12338.018
10647.276
9125.3973
7578.8656
6286.4691
5001.1088
3989.6719
3063.3911
2365.0657
1817.4666
1355.6663
1222.4738
696.72343
1004.3028
257.59967
419.86676
-170.39486
-625.94045
170614.56
141770.2
132023.64
134574.14
138182.59
139707.39
141139.81
143533.38
144991.25
145438.55
145571.89
146518.63
145338.23
145552.82
144655.31
143700.34
143093.69
141509.3
140535.46
139358.17
138362.81
139885.11
139410.18
138161.89
136288.16
134224.19
132012.48
130051.46
127648.61
125985.49
123682.05
122231.57
120310.11
118766.54
117120.1
115639.9
114128.7
112709.64
111152.18
109674.32
108008.87
106309.32
104497.89
102532.48
100420.59
98185.834
95804.785
93270.384
90636.558
87867.5
85022.392
82112.817
79161.213
76199.86
73263.668
70363.791
67530.562
64804.554
62157.017
59641.378
57246.953
54951.935
52804.623
50697.574
48758.755
46784.645
44881.686
42938.977
41040.487
39027.966
37013.341
35009.288
32746.437
30238.068
27821.759
25555.761
22629.221
20101.932
17726.011
15503.892
13395.239
11356.579
9539.9746
7853.835
6406.3876
5143.1675
4106.2379
3261.1246
2580.9214
2019.8792
1616.6246
1013.193
637.21099
-265.70086
-1299.9223
203510.41
197733.31
183586.36
182430.27
186960.91
186929.87
192466.32
192817.66
195083.23
195677.24
196210.56
195804.59
195625.18
194212.15
193519.97
192153.74
190279.34
188668.01
186994.39
184514.07
183349
180455.58
181853.93
180914.64
178183.73
176126.18
173426.69
170871.76
168154.65
165849.81
163304.41
161210.28
158939.05
157111.4
154899.48
153278.5
151157.06
149461.4
147442.68
145624.55
143500.19
141492.36
139207.35
136891.49
134347.64
131680.72
128830.4
125804.56
122627.33
119318.06
115856.87
112314.47
108682.74
104999.78
101293.48
97592.831
93920.08
90305.708
86755.519
83313.082
79948.628
76710.975
73564.037
70474.792
67550.567
64600.275
61800.886
59030.04
56199.784
53373.658
50567.958
47583.953
44580.899
41683.576
38429.006
35858.724
32548.598
29319.843
26123.392
23131.98
20149.295
17377.381
14754.712
12375.379
10196.543
8295.3555
6616.6565
5210.0038
4007.5721
2993.763
2248.8411
1279.4063
901.5923
-310.81698
-1431.6077
289735.95
266877.6
237495.79
247553.73
244776.55
252320.44
252333.34
256715.21
256144.53
258271.87
257083.38
257629
255280.06
254830.85
252067.66
250742.02
247839.39
245703.32
242765.52
239976.86
237160.27
234359.74
229802.91
226383.79
222799.14
220129.15
216962.01
213838.74
210565.3
207705.52
204526.45
201731.58
199129.02
196632.16
194147.77
191753.01
189155.99
186853.23
184343.11
181857.52
179256.48
176535.15
173640.89
170595.02
167349.3
163929.99
160315.47
156499.06
152523.9
148380
144078.17
139681.8
135180.98
130621.77
126036.68
121456.21
116898.37
112406.01
107987.7
103670.58
99459.342
95367.657
91398.529
87491.762
83807.685
80019.916
76491.468
72813.025
69289.503
65702.808
62078.601
58470.201
54839.325
51045.136
47301.822
43582.792
39854.157
36081.571
32343.208
28723.427
25230.559
21899.966
18777.436
15892.716
13251.483
10900.606
8826.0224
7032.9188
5502.1765
4217.3333
3118.6109
2095.8306
1287.0578
-96.688113
-1154.1615
325229.9
315018.02
277734.31
289623.95
293840.03
297020.57
300694.01
303423.25
304411.05
304572.8
305343.16
303059.83
302203.8
300552.66
296962.04
295543.1
292070.9
288684.77
285984.45
282198.79
278656.67
275381.4
271524.48
268867.1
264256.08
260954.78
256974.04
253341.27
250277.61
246597.12
243393.39
240012.43
236894.86
233735.87
231105.51
228598.46
225660.99
223257.61
220399.88
217794.83
214896.43
211976.57
208860.32
205551.04
202031.98
198260.6
194237.03
189971.65
185451.54
180710.92
175751.87
170625.36
165343.08
159951.81
154489.66
148992.51
143491.94
138036.62
132632.73
127335.06
122121.96
117052
112070.12
107213.36
102487.21
97678.053
93175.154
88607.36
84159.214
79619.586
75190.5
70640.752
66004.624
61493.922
56763.97
52155.012
47499.083
42941.88
38430.568
34104.121
29894.055
25912.086
22146.985
18679.786
15472.096
12621.617
10055.728
7845.8625
5915.7812
4295.1742
2952.6436
1743.4582
838.90875
-106.25663
-890.6159
439133.84
328527.25
338821.14
337388.4
346019.88
344418.09
350942.67
352124.76
352639.34
353625.21
351639.61
351858.28
348509.07
346880.91
342917.09
340850.93
336525.42
333290.4
329269.76
325597.38
321052.29
317463.9
313032.47
309419.17
305030.34
300387.76
296098.1
291666.28
288213.84
284456.3
280777.43
276997.11
273409.61
269553.18
266033.93
263503.13
260332.56
257396.25
254236.3
251158.38
247874.44
244526.86
240914.64
237107.52
233037.87
228676.95
224042.21
219105.87
213862.22
208365.59
202586.01
196602.08
190420.98
184095.82
177676.33
171199.32
164717.41
158267.83
151896.48
145618.35
139479.7
133474.27
127622.55
121918.98
116291.35
110703.21
105238.8
99837.265
95003.615
89774.241
84628.789
79283.302
74167.951
68825.211
63565.055
58300.117
53149.947
47929.798
42893.914
37934.979
33203.346
28674.314
24452.876
20505.53
16930.919
13681.188
10830.349
8322.8881
6183.949
4432.3264
2961.7512
1802.6168
1048.8519
221.14519
-462.18426
-677180.13
-772754.78
-722993.04
-755152.38
-757196.75
-766889.19
-797469.3
-776477.56
-767600.55
-776942.69
-761186.04
-732372.81
-724655.42
-783437.05
-584073.41
-710851.69
-772697.01
-704982.05
-758253.4
-740877.19
-775339.18
-745259.03
-779103.01
-771227.58
-772896.86
-757871.58
-754991.79
-752728.47
-774169.31
-635689.94
-512171.25
-633750.72
-522009.8
-558322.89
-561704.63
-547745.13
-563074.29
-552825.44
-558958.78
-551819.82
-551023.03
-558059.75
-517378.12
-597292.23
-519711
-460705.19
-493314.96
-483288.57
-473553.05
-497277.87
-485784.75
-500077.23
-497598.6
-495071.89
-495015.99
-498173.24
-479197.2
-479224.24
-537544.48
-339584.34
-318181.77
-378547.54
-311207.93
-354936.2
-327260.92
-353199.47
-340060.79
-346910.45
-342191.68
-346818.62
-339821.99
-342472.54
-346194.23
-359889.44
-319101.14
-241390.34
-260426.45
-234209.51
-247201.2
-246534.09
-250405.16
-247872.21
-249633.88
-252629.26
-253221.33
-242468.83
-258182.51
-236493.66
-266245.84
-245558.43
-117933.75
-118769.13
-123100.64
-112192.58
-121023.13
-118298.3
-121291.19
-116751.53
-119408.72
-116644.74
-121184.21
-112107.67
-127549.38
-127843.02
-123672.78
-10036.753
-10827.318
986.23722
-9833.7123
-4543.3014
-7464.554
-6773.04
-6797.9861
-7965.4951
-11594.3
-613.78425
-13821.998
-21238.316
1607.1138
-53363.346
100375.15
112608.75
99211.894
111257.93
106047.95
109732.85
107173.29
110347.47
107787.42
104254.28
111142.7
97929.155
96718.374
111489.7
26288.149
193020.51
230153.89
211736.09
215954.74
217265.51
219247.41
221053.06
220149.44
223536.51
213635.85
232785.91
206238.79
200948.27
237727.37
143701.49
317517.62
363034.79
320034
350065.04
334509.13
343512.21
339532.41
342944.89
340707.34
332397.73
333417.27
332265.78
310335.6
334637.76
236991.03
450506.02
427938.53
432318.53
421560.74
440704.76
439207.79
443125.62
444885.25
445725.04
442872.24
455931.4
404475.54
425847.93
449245
354497.69
537852.39
558467.09
519260.55
531217.5
513138.05
526817.96
523027.63
521356.23
519364.86
509947.53
516833.39
524735.32
477153.34
552693.02
344355.05
645463.7
732886.03
661123.62
695677.23
718620.3
708255.18
715229.91
741928.99
727167.57
751635.74
705515.75
693272.68
709073.98
682021.8
646930.35
782367.39
634559.29
600420.25
603837.67
626297.57
666065.1
641134.66
615083.16
596536.72
590359.67
605953.87
607481.18
606534.56
653577.91
596642.27
586308.82
553531.21
646883.62
664222.71
684558.25
736538.94
709837.24
662753.05
752101.42
738726.73
715737.25
679639.91
659793.43
625263.24
544236.82
469027.1
464548.16
504606.26
515883.28
529053.56
549382.28
560020.68
573421.25
586401.33
563809.29
555277.21
523327.18
532446.92
525950.4
526642.72
370235.1
410036.5
410603.34
437157.7
463844.35
448503.96
466784.96
461802.93
447663.8
466971.09
451056.4
459403.7
443976.8
404531.86
410754.85
388172.65
429561.1
434723.43
438775.73
446114.31
456047.72
456195
458781.97
458348.76
448581.11
449103.07
439635.11
427063.35
420811.6
401438.22
400841.32
426452.19
421421.63
444520.52
446717.51
453872.14
461923.75
460501.14
462739.77
464515.65
450936.27
444967.01
426512.47
417105.27
406144.28
396257.37
408004.33
413326.77
427998.84
432098.69
440988.58
438725.11
440651.43
440823.27
434019.86
433636.67
424379.42
416591.92
408223.87
392464.1
393526.93
412375.42
414765.45
422673.72
426047.38
433096.17
435143
436432.96
436190.62
433043.24
425436.14
422798.86
413729.9
403076.65
404288.43
396678.02
400723.6
409061.21
412969.69
421471.75
423022.22
425084.31
426350.68
424041.5
422086.46
417880.15
414074.04
406193.55
400543.28
392972.05
390611.79
403180.34
404808.97
411630.16
411987.37
418707
416248.61
418961.63
418380.55
413828.46
412158.41
406698.82
403577.37
397953.22
393877.22
392474.99
393666.38
398542.86
399729.01
404576.55
405352.29
408028.1
407375.24
405933.72
407159.57
402535.19
402275.35
397380.31
394583.49
392262.27
386764.04
393605.69
394213.52
398852.7
399990.49
403612.01
402223.53
405482.87
404672.41
402725.61
403195.18
400940.57
398063.9
396454.59
395562.45
386263.45
386472.27
389813.64
389575.63
392240.02
391972.2
394119.49
394944.16
394838.37
394473.85
393945.13
392011.96
391366.41
389366.51
389836.96
383554.36
384077.12
383587.78
387141.34
387305.1
389935.96
389530.88
390884.48
391121.26
390807.12
390202.34
390272.23
388303.97
388435.95
388061
378604.23
379196.19
381544.18
379622.8
382053
381854.17
382106.71
383246.42
383110.86
382387.97
382692
382778.73
381836.09
381738.7
383753.43
375966.81
375238.18
375974.7
376569.85
377920.11
377511.65
377283.03
378869.74
379145.49
379128.51
379748.93
379197.49
378857.71
379963.77
380540.83
371397.09
371160.66
373009.12
370873.19
371761.25
371239.15
373794.43
371695.45
371778.11
371846.14
370951.29
372284.98
370219.16
371530.64
372406.31
368036.31
366733.1
367734.31
366360.69
368240.79
368184.66
367325.55
368092.85
368158.94
368093.48
368884.34
369552.65
370034.53
369704.31
373029.65
364461.82
362997.82
363307.72
361548.88
363047.9
362167.42
363343.76
362681.27
362332.72
362966.31
361800.26
362960.82
360968.86
363507.53
363664.76
359096.1
358520.08
359631.08
358475.41
358386.56
357919.1
357000.91
358648.6
357578.55
358090.41
358591.57
359131.88
359040.22
360589.65
362420.56
355367.76
354266.43
354626.21
352965.24
354041.3
353785.34
353781.44
353318.11
353871.9
354039.29
352353.75
355188.04
353112.88
355621.92
355621.04
351581.72
349788.04
350230.54
348699.62
349482.11
348105.59
349469.01
349386.83
348296.37
349025.86
348288.31
350087.34
348420.46
351584.94
352434.42
345598.04
345872.05
345709.79
344515.86
344742.05
344217.98
344685.02
343942.11
344662.1
344500.32
344943.32
346266.3
345615.87
345742.18
348084.46
342408.68
340742.42
340898.64
340100.33
340303.59
339585.86
339930
340067.55
339093.87
340380.79
339478.5
340421.3
339983.65
342119.75
343351.8
337234.23
336058.32
336934.35
335299.67
335905.98
335519.87
335287.91
335159.73
335172.3
336043.39
334943.7
337670.36
336489.96
338199.78
338734.4
332621.7
331643.54
331298.8
331266.53
330943.41
330464.31
331303.1
330726.14
330644.7
331257.76
329583.41
331898.01
331740.29
332219.65
334238.34
329277.63
326246.69
327133.98
325587.75
326970.47
325888.06
326516.33
326080.36
326372.66
326904.38
327345.25
328169.27
326920.21
330443.29
329803.66
322987.78
322217.9
322188.54
322307.76
321000.21
322387.37
321636.42
322310.14
321615.82
322253.87
321999.39
323844.78
322023.88
323895.08
325852.22
319975.6
317218.05
317234.81
317433.88
318023.64
317568.33
317395.41
317484.55
317773.26
318135.48
318148.18
319149.7
318796.43
321662.24
320976.96
313618.46
314009.15
313695
312862.65
312962.74
313366.05
313044.39
313585.92
313120.63
313958.49
313345.15
314947.89
314422.31
315586.18
317734.8
311299.92
308377.88
309332.07
309067.5
309281.15
308785.08
309063.03
309282.55
309408.95
309593.41
309387.44
311116.55
310038.62
312735.78
313312.32
306448.04
304724.23
305095.65
304868.9
304746.1
305383.18
304836.21
305041.15
304583.29
305947.48
305382.86
306891.33
306127.47
308007.29
308958.32
303000.19
300355.86
301367.95
300989.25
300979.05
301493.69
301034.57
301490.07
301051.48
301912.39
301552.49
303091.26
302529.72
304586.26
305305.66
298799.81
296706.14
297344.63
297148.5
297271.07
297382.19
297258.33
297481.64
297456.99
298132.47
297822.54
299259.32
298683.71
300530.74
301338.81
295194.61
293007.13
293827.7
293684.67
293616.45
293924.92
293842.02
294083.03
293993.36
294594.21
294401.61
295688.55
295317.02
297145.4
297896.7
291177.14
289667.7
290194.06
289808.89
290118.82
290588.78
290108.51
290773.45
290363.2
291273.16
290709.03
292269.52
291349.69
293596.51
293314.21
287124.02
286963.78
286557.49
287854.99
286482.68
287462.44
287030.57
287402.08
287253.95
288014.99
287476.51
288812.44
288553.94
289770.61
291466.34
285366.43
282747.99
283772.76
283507.71
284039.15
283718.89
284124.55
283976.85
284278.56
284151.91
284399.44
285649.43
284960.63
286573.76
287125.21
281447.4
280103.38
280413.73
280782.75
280304.64
281113.52
280594.79
281259.05
280920.22
281487.82
281159.31
282362.28
281912.96
283085.82
283766.07
278782.65
276526.34
277492.89
277385.71
277536.78
277740.17
277739.92
277962.15
277792.09
278392.8
277973.76
279228.36
278472.8
279681.7
280249.27
275286.09
273589.58
274310.83
274435.18
274327.58
274836.49
274645.22
274907.77
274848.6
275280.84
274908.24
275913.99
275349.55
276284.7
276884.79
272163.57
270220.06
271142
271078.98
271173.83
271472.55
271398.11
271662.32
271530.46
272026.58
271532.33
272578.61
271893.19
272679.5
273242.96
268693.89
266944.88
267770
267853.72
267871.35
268267.87
268213.86
268368.77
268325.8
268679.67
268259.02
269171.99
268482.23
269050.35
269617.53
265177.02
263319.4
264280.82
264252.64
264343.12
264751.02
264642.84
264844.25
264740.27
265134.51
264627.94
265509.14
264758.79
265191.53
265744.99
261301.94
259576.93
260495.21
260483.29
260642.78
261035.31
260973.89
261077.5
261050.41
261332.75
260853.22
261653.21
260882
261170.96
261696.97
257228.91
255460.81
256455.66
256412.12
256561.5
257028.15
256900.09
257030.1
256979.19
257232.41
256754.19
257477.7
256711.63
256872.2
257357
252747.84
251052.08
252087.34
251973.92
252200.8
252657.51
252554.59
252649.21
252629.77
252837.81
252368.58
253008.83
252283.82
252281.25
252804.22
247947.28
246296.85
247340.08
247244.01
247463.58
247977.85
247839.43
247934.84
247905.73
248092.18
247601.31
248206.11