/*--------------------------------*- C++ -*----------------------------------*\
  =========                 |
  \\      /  F ield         | OpenFOAM: The Open Source CFD Toolbox
   \\    /   O peration     | Website:  https://openfoam.org
    \\  /    A nd           | Version:  6
     \\/     M anipulation  |
\*---------------------------------------------------------------------------*/
FoamFile
{
    version     2.0;
    format      ascii;
    class       pointVectorField;
    location    "1.4";
    object      u;
}
// * * * * * * * * * * * * * * * * * * * * * * * * * * * * * * * * * * * * * //

dimensions      [0 1 0 0 0 0 0];

internalField   nonuniform List<vector> 
28033
(
(0 6.2572125e-19 0)
(0 4.2402455e-18 0)
(-1.861318 -0.61022223 -0.0059620887)
(-1.9716021 -0.15362678 -0.00711795)
(0 3.8752634e-18 0)
(0 6.2370525e-18 0)
(-1.9714061 -0.15166295 -0.0070553269)
(-1.8610919 -0.60824368 -0.0060283382)
(0 1.376168e-18 0)
(0 4.0348361e-19 0)
(0 3.2491635e-18 0)
(0 -1.5428932e-18 0)
(0 2.0624984e-18 0)
(0 -1.2052496e-18 0)
(0 -2.8607146e-20 0)
(-9.3654881e-19 -3.0551809e-19 0)
(0 5.6509358e-19 0)
(0 2.7772349e-19 0)
(0 -1.0616348e-18 0)
(0 1.0276787e-18 0)
(0 1.2367758e-18 0)
(0 -1.0041576e-18 0)
(0 1.2962251e-18 0)
(-1.8682333 -0.58164519 -0.0060135579)
(-1.8751236 -0.55306631 -0.0060636569)
(-1.8820073 -0.52449737 -0.0061321736)
(-1.8888712 -0.49594476 -0.0062006802)
(-1.8957301 -0.46741226 -0.0062875821)
(-1.9025872 -0.43889063 -0.0063755158)
(-1.9094381 -0.41038787 -0.0064713445)
(-1.9163037 -0.38189199 -0.0065683667)
(-1.9231732 -0.35339992 -0.006663848)
(-1.9300585 -0.32490521 -0.0067568043)
(-1.9369603 -0.29640227 -0.0068413478)
(-1.9438733 -0.26788386 -0.006912283)
(-1.9508051 -0.23935067 -0.0069834744)
(-1.9577455 -0.21079275 -0.0070354954)
(-1.9646831 -0.18221322 -0.0070806291)
(-0.0035927331 -0.0074742518 -0.0076128545)
(-0.0037231722 -0.010837149 -0.011116631)
(-0.0043924659 -0.014733109 -0.013309016)
(-0.0060575896 -0.018683084 -0.014868459)
(-0.0079993495 -0.022842265 -0.015759972)
(-0.010861776 -0.027135239 -0.01635416)
(-0.014259467 -0.031610295 -0.016671541)
(-0.018345107 -0.036043241 -0.016807142)
(-0.023002906 -0.040707889 -0.016833495)
(-0.028284329 -0.045289859 -0.016788093)
(-0.034081991 -0.050004217 -0.016676394)
(-0.040464438 -0.054704692 -0.016514552)
(-0.047337236 -0.059491738 -0.016397765)
(-0.054794669 -0.064256137 -0.016196899)
(-0.062690562 -0.069090418 -0.01606649)
(-0.07115631 -0.073908534 -0.015849119)
(-0.08007976 -0.078832145 -0.015723389)
(-0.089520428 -0.083683787 -0.01553457)
(-0.099442517 -0.088670975 -0.015368482)
(-0.10984966 -0.093615555 -0.01518188)
(-0.12074355 -0.098670775 -0.015024986)
(-0.13209747 -0.10369362 -0.014821204)
(-0.14393291 -0.1088307 -0.014652365)
(-0.15621066 -0.11397119 -0.014462195)
(-0.16896504 -0.11918338 -0.014266822)
(-0.18214876 -0.12445648 -0.014078864)
(-0.19577646 -0.12976132 -0.013898437)
(-0.20982333 -0.13515464 -0.013719)
(-0.2243125 -0.14058656 -0.013539286)
(-0.23919149 -0.14609349 -0.013387145)
(-0.25449702 -0.15166337 -0.01323531)
(-0.27018136 -0.1572902 -0.013103118)
(-0.28627311 -0.16300569 -0.012992549)
(-0.30274496 -0.16875488 -0.012897665)
(-0.31960153 -0.1746154 -0.0128125)
(-0.33684401 -0.18052008 -0.012746872)
(-0.35445435 -0.18651898 -0.012702475)
(-0.37245271 -0.19258189 -0.01266678)
(-0.39082221 -0.19872243 -0.012624362)
(-0.40956681 -0.20496136 -0.012599261)
(-0.42869183 -0.21125529 -0.012566105)
(-0.44818642 -0.21766232 -0.012530766)
(-0.46806759 -0.22413745 -0.012478225)
(-0.48832267 -0.23071058 -0.012417992)
(-0.50895397 -0.23736084 -0.012335619)
(-0.52996115 -0.24410618 -0.012234988)
(-0.55133568 -0.25092811 -0.012112275)
(-0.57308054 -0.25784017 -0.011966616)
(-0.59518091 -0.26482532 -0.011799889)
(-0.61763809 -0.27189171 -0.011612415)
(-0.64043558 -0.27902521 -0.011407334)
(-0.66356989 -0.28622773 -0.011187668)
(-0.68702505 -0.29348881 -0.010957144)
(-0.71079313 -0.30080517 -0.010720105)
(-0.73485928 -0.30816928 -0.010480428)
(-0.75921265 -0.3155752 -0.010242614)
(-0.78383993 -0.32301676 -0.01001003)
(-0.80872927 -0.3304883 -0.009785782)
(-0.83386837 -0.33798426 -0.0095722518)
(-0.85924723 -0.34549942 -0.00937105)
(-0.8848534 -0.35303027 -0.0091824361)
(-0.91068017 -0.36057281 -0.0090057647)
(-0.9367121 -0.36812345 -0.008841492)
(-0.96295507 -0.37568137 -0.0086834116)
(-0.98937641 -0.38324181 -0.0085403439)
(-1.0159953 -0.39080815 -0.0083910211)
(-1.0427912 -0.39836829 -0.0082522827)
(-1.0697584 -0.40593297 -0.0081109082)
(-1.0968884 -0.41349959 -0.0079585168)
(-1.1241758 -0.42105969 -0.0078061846)
(-1.1516131 -0.42861781 -0.0076512434)
(-1.179193 -0.43617183 -0.0074859277)
(-1.2069062 -0.44372064 -0.0073136335)
(-1.2347447 -0.45125925 -0.0071376522)
(-1.2626981 -0.45878998 -0.0069562322)
(-1.2907604 -0.46630297 -0.006774967)
(-1.3189167 -0.47380395 -0.0065933757)
(-1.3471643 -0.48128071 -0.0064179936)
(-1.375485 -0.48873921 -0.0062477358)
(-1.4038782 -0.496166 -0.0060922232)
(-1.4323277 -0.5035696 -0.0059444763)
(-1.4608263 -0.51093486 -0.0058203827)
(-1.4893699 -0.51826997 -0.0057089166)
(-1.517941 -0.52556313 -0.0056220117)
(-1.5465411 -0.53282305 -0.0055553919)
(-1.5751562 -0.54003893 -0.0055105796)
(-1.6037945 -0.54721436 -0.0054886024)
(-1.6324249 -0.55435204 -0.0054852793)
(-1.6610765 -0.56144269 -0.0055044628)
(-1.6897016 -0.56850424 -0.0055360692)
(-1.7183481 -0.57551672 -0.0055906049)
(-1.7469523 -0.58250906 -0.0056483016)
(-1.7755762 -0.58945746 -0.0057271543)
(-1.8041583 -0.59639277 -0.0058026073)
(-1.8327385 -0.60330841 -0.0058894312)
(-0.0025582195 0.0067463518 0.0089957973)
(-0.0049495006 0.010281701 0.009751886)
(-0.006295588 0.014471329 0.012770218)
(-0.0080919013 0.018394485 0.013752141)
(-0.010956188 0.022645007 0.01482659)
(-0.014214916 0.027113436 0.015379313)
(-0.01825336 0.031281051 0.015793215)
(-0.022914087 0.035720216 0.015952963)
(-0.028314095 0.039963006 0.016047281)
(-0.034254117 0.044201794 0.016021758)
(-0.040931488 0.048367489 0.015937062)
(-0.048130609 0.052423124 0.015809258)
(-0.056004274 0.05640694 0.015633129)
(-0.064419161 0.060268491 0.015459024)
(-0.073453332 0.064020563 0.015238222)
(-0.08302057 0.067654556 0.015039843)
(-0.093182491 0.071155467 0.014802766)
(-0.10386161 0.074522 0.014586924)
(-0.11510417 0.077767354 0.014360867)
(-0.12686221 0.080841932 0.014141728)
(-0.13914953 0.08379454 0.013913273)
(-0.1519485 0.086587038 0.013708933)
(-0.16524912 0.089220141 0.013485785)
(-0.17904562 0.091703971 0.013283636)
(-0.19332989 0.09402035 0.013075345)
(-0.20809388 0.096175759 0.012866552)
(-0.22332752 0.098170063 0.012672046)
(-0.23901991 0.099989087 0.012460729)
(-0.25517488 0.10165299 0.012261868)
(-0.27176361 0.10313284 0.012047034)
(-0.28880333 0.10446463 0.011836734)
(-0.30626571 0.10561457 0.011622114)
(-0.32416522 0.10660946 0.01140099)
(-0.34247601 0.10742944 0.011176872)
(-0.36121086 0.10809309 0.010945092)
(-0.38034922 0.10858407 0.010715257)
(-0.3998946 0.10890977 0.010463135)
(-0.4198431 0.10907834 0.010223378)
(-0.4401849 0.10907313 0.0099692205)
(-0.46092535 0.10890334 0.0097153051)
(-0.48205181 0.10856217 0.0094541302)
(-0.50356455 0.10804732 0.0091909735)
(-0.52545717 0.10735594 0.0089212896)
(-0.54772519 0.10648353 0.0086488486)
(-0.57036121 0.10542616 0.0083699397)
(-0.59336079 0.10417917 0.0080858809)
(-0.61671328 0.102739 0.0077953325)
(-0.64041271 0.10110063 0.0074971721)
(-0.66444758 0.099261806 0.0071910968)
(-0.68880826 0.097218618 0.0068758047)
(-0.71348317 0.094969917 0.0065506852)
(-0.73846024 0.09251419 0.0062152078)
(-0.76372641 0.0898516 0.0058687742)
(-0.78926933 0.086983249 0.0055113897)
(-0.81507447 0.083911243 0.0051431112)
(-0.84112911 0.080638601 0.0047645813)
(-0.8674193 0.077169815 0.0043763495)
(-0.89393155 0.073509202 0.0039800097)
(-0.9206529 0.069662976 0.0035767445)
(-0.94757067 0.065636568 0.0031685649)
(-0.97467236 0.061436954 0.0027572609)
(-1.0019463 0.057069994 0.0023455948)
(-1.0293815 0.05254301 0.0019349437)
(-1.056967 0.047861289 0.0015284759)
(-1.084693 0.043032266 0.0011275371)
(-1.1125498 0.038059935 0.00073474698)
(-1.1405286 0.032951304 0.00035178367)
(-1.1686214 0.027710253 -2.2732925e-05)
(-1.1968122 0.022340436 -0.00037775173)
(-1.2251003 0.016846181 -0.00073298814)
(-1.2534871 0.011238506 -0.0010665999)
(-1.2819388 0.0055066981 -0.0013913383)
(-1.3104763 -0.00032955887 -0.0017044145)
(-1.3390704 -0.0062799743 -0.0020064893)
(-1.3677267 -0.012331279 -0.0022999008)
(-1.3964303 -0.018484489 -0.0025844249)
(-1.4251775 -0.024732732 -0.0028628844)
(-1.4539602 -0.031072499 -0.0031356647)
(-1.4827704 -0.037496916 -0.0034049034)
(-1.5116019 -0.044001896 -0.003669637)
(-1.5404488 -0.050579709 -0.0039332829)
(-1.569302 -0.057225699 -0.004193003)
(-1.5981598 -0.063931198 -0.0044526633)
(-1.6270114 -0.070691187 -0.0047072147)
(-1.6558568 -0.077496728 -0.0049608623)
(-1.684686 -0.084342856 -0.0052074457)
(-1.7134996 -0.091220471 -0.0054502496)
(-1.7422892 -0.098125214 -0.00568336)
(-1.7710554 -0.10504844 -0.0059084028)
(-1.7997922 -0.1119861 -0.0061210038)
(-1.8284997 -0.118931 -0.006321103)
(-1.857175 -0.12587965 -0.0065060914)
(-1.8858193 -0.13282585 -0.0066767205)
(-1.9144341 -0.1397669 -0.0068328806)
(-1.9430263 -0.14670308 -0.0069771615)
(0 -1.7263103e-18 0)
(0 -1.2818537e-18 0)
(0 1.2103714e-18 0)
(0 -7.6566273e-19 0)
(0 -6.5396943e-19 0)
(0 3.6060385e-18 0)
(0 -1.0510889e-18 0)
(-2.4033148e-18 6.7178734e-19 0)
(0 -6.0344629e-19 0)
(0 1.4520561e-18 0)
(0 1.7238968e-18 0)
(0 6.0219939e-19 0)
(0 3.2087768e-19 0)
(0 -6.6126054e-19 0)
(0 4.5715074e-19 0)
(-0.0043991844 0.0029586696 -0.0064442117)
(-0.0054422125 0.011596937 -0.0098882371)
(-0.0059591981 0.01282996 -0.011389516)
(-0.0085377051 0.019021551 -0.013328287)
(-0.010767544 0.022105655 -0.013970592)
(-0.014401226 0.027131543 -0.014504397)
(-0.018232883 0.031010229 -0.014792407)
(-0.023082225 0.035738241 -0.01495005)
(-0.028359956 0.039772685 -0.014977532)
(-0.034398921 0.044299444 -0.014974414)
(-0.041027059 0.048299744 -0.014924379)
(-0.048206975 0.052520827 -0.014831146)
(-0.056075516 0.05649138 -0.014752146)
(-0.064433317 0.060407208 -0.014627481)
(-0.073462643 0.064203617 -0.014542241)
(-0.082977027 0.067841011 -0.014403188)
(-0.093098886 0.071400525 -0.014332377)
(-0.1037477 0.074766859 -0.014181442)
(-0.11495567 0.078015125 -0.014089619)
(-0.12670243 0.081137953 -0.013953072)
(-0.13895008 0.084042114 -0.013843002)
(-0.15175392 0.086900271 -0.013709634)
(-0.16503573 0.089497738 -0.01357473)
(-0.17884971 0.092038979 -0.013456629)
(-0.19312645 0.094315676 -0.013301733)
(-0.20791997 0.096534895 -0.013183021)
(-0.2231542 0.098509164 -0.013038593)
(-0.23887635 0.10039789 -0.012921887)
(-0.25503792 0.10205754 -0.012793577)
(-0.27164832 0.10361797 -0.012694458)
(-0.28870013 0.10496471 -0.012587542)
(-0.30617931 0.1061802 -0.012508456)
(-0.32407503 0.10721512 -0.01243303)
(-0.34239285 0.10810002 -0.01237889)
(-0.36111524 0.10880884 -0.012331008)
(-0.3802355 0.10935183 -0.012303772)
(-0.39976277 0.10974874 -0.012285056)
(-0.41969096 0.10995138 -0.012271098)
(-0.44000388 0.10999538 -0.012264917)
(-0.46071392 0.10986124 -0.012256174)
(-0.48181095 0.10955314 -0.012247176)
(-0.50329394 0.10906335 -0.012230227)
(-0.52516057 0.10839191 -0.012203719)
(-0.54740593 0.1075319 -0.012162762)
(-0.5700258 0.10648365 -0.012106995)
(-0.59301385 0.10524026 -0.012031798)
(-0.61636326 0.10380203 -0.011938555)
(-0.64006511 0.10216365 -0.011824743)
(-0.66410935 0.10032575 -0.011693648)
(-0.68848486 0.098284706 -0.01154407)
(-0.71317902 0.096042101 -0.011381184)
(-0.73817842 0.09359579 -0.011204494)
(-0.7634692 0.090948867 -0.011020567)
(-0.7890357 0.088100585 -0.010829693)
(-0.81486398 0.085055706 -0.010638163)
(-0.84093774 0.081814417 -0.010446763)
(-0.86724278 0.078382808 -0.010260792)
(-0.89376441 0.074762501 -0.010080889)
(-0.92048817 0.070959264 -0.0099100904)
(-0.947402 0.06697679 -0.0097492714)
(-0.97449215 0.062820197 -0.0095987236)
(-1.0017486 0.05849385 -0.0094584306)
(-1.0291601 0.054003456 -0.0093275936)
(-1.056717 0.049352771 -0.00920437)
(-1.0844112 0.044547727 -0.009087064)
(-1.1122351 0.039593515 -0.0089730165)
(-1.1401776 0.034490738 -0.0088594593)
(-1.1682508 0.029258362 -0.0087462097)
(-1.1963912 0.023874474 -0.0086321872)
(-1.2246784 0.018380933 -0.0085079017)
(-1.253037 0.012748224 -0.0083811283)
(-1.2814865 0.0070023124 -0.0082469185)
(-1.3100178 0.0011409658 -0.0081042385)
(-1.338622 -0.0048267978 -0.0079569339)
(-1.3672914 -0.010896982 -0.0078041466)
(-1.396018 -0.017063337 -0.0076484961)
(-1.4247937 -0.023319473 -0.0074922661)
(-1.4536099 -0.029659498 -0.0073390851)
(-1.4824569 -0.036077191 -0.0071909319)
(-1.5113276 -0.04256671 -0.0070518071)
(-1.5402118 -0.049121268 -0.006924161)
(-1.5691032 -0.055735945 -0.0068112713)
(-1.5979921 -0.062403873 -0.0067148079)
(-1.6268739 -0.069120498 -0.0066375349)
(-1.6557398 -0.075879264 -0.0065797559)
(-1.6845867 -0.082676355 -0.0065429448)
(-1.7134077 -0.089505095 -0.006526417)
(-1.7422011 -0.096362662 -0.0065300849)
(-1.7709626 -0.103242 -0.0065525856)
(-1.7996909 -0.11014133 -0.0065921559)
(-1.8283851 -0.11705284 -0.0066475984)
(-1.8570439 -0.12397539 -0.0067154075)
(-1.8856715 -0.1309005 -0.0067947099)
(-1.9142665 -0.13782793 -0.0068804054)
(-1.9428413 -0.14474848 -0.0069702211)
(-1.9644955 -0.18023008 -0.006977238)
(-1.9575697 -0.20879581 -0.0068941483)
(-1.9506367 -0.23734059 -0.0068249808)
(-1.9437141 -0.26586067 -0.0067658326)
(-1.9368043 -0.29436696 -0.0067155264)
(-1.9298996 -0.32285794 -0.0066724887)
(-1.9230176 -0.35134184 -0.0066329881)
(-1.9161344 -0.37983284 -0.0065962065)
(-1.9092777 -0.4083255 -0.0065497464)
(-1.9023982 -0.43683228 -0.0065065702)
(-1.8955502 -0.46535438 -0.0064474669)
(-1.8886668 -0.49390187 -0.0063855372)
(-1.8818138 -0.52246395 -0.0063048449)
(-1.874905 -0.55105506 -0.0062217364)
(-1.8680152 -0.57964933 -0.0061237338)
(-1.8325001 -0.60132074 -0.0058680648)
(-1.8038994 -0.59439339 -0.0057173437)
(-1.7752882 -0.58745533 -0.0055528959)
(-1.7466503 -0.58049062 -0.0053771787)
(-1.7179964 -0.57350458 -0.0051804806)
(-1.6893272 -0.56648868 -0.0049749071)
(-1.6606488 -0.55944433 -0.0047524704)
(-1.631967 -0.55236877 -0.0045214351)
(-1.6032893 -0.54526015 -0.004281561)
(-1.5746224 -0.53811959 -0.004034353)
(-1.545973 -0.53094322 -0.003782796)
(-1.5173514 -0.52373299 -0.0035281824)
(-1.4887613 -0.51648601 -0.0032695144)
(-1.4602158 -0.50920302 -0.003008206)
(-1.4317215 -0.50188585 -0.0027456376)
(-1.4032863 -0.49453379 -0.0024810087)
(-1.37492 -0.48714807 -0.0022147575)
(-1.3466292 -0.47972951 -0.0019443407)
(-1.3184217 -0.47228176 -0.001669151)
(-1.2903066 -0.4648046 -0.0013882761)
(-1.2622889 -0.45730328 -0.0010993842)
(-1.2343781 -0.44977833 -0.00080117882)
(-1.2065773 -0.44223512 -0.0004919213)
(-1.1788998 -0.43467445 -0.00017188652)
(-1.1513417 -0.42710232 0.00016268157)
(-1.1239212 -0.41952507 0.0005076711)
(-1.0966229 -0.41192834 0.00087118073)
(-1.069556 -0.4043451 0.0012248173)
(-1.0425287 -0.39675348 0.0016209675)
(-1.0157342 -0.38916894 0.0020093817)
(-0.98908891 -0.38159047 0.0024173819)
(-0.96263023 -0.37402322 0.0028270198)
(-0.93636115 -0.36646604 0.0032441525)
(-0.91029334 -0.35892445 0.0036646323)
(-0.88443728 -0.35139935 0.004086234)
(-0.8588032 -0.34389428 0.0045072546)
(-0.83340424 -0.33641105 0.0049255919)
(-0.80825068 -0.32895366 0.0053388579)
(-0.78335615 -0.32152426 0.0057455442)
(-0.75873129 -0.31412734 0.0061440052)
(-0.73438951 -0.30676591 0.0065327797)
(-0.71034116 -0.29944505 0.0069108409)
(-0.68659866 -0.29216844 0.0072775409)
(-0.66317132 -0.28494174 0.0076322779)
(-0.64007012 -0.27776909 0.0079749546)
(-0.61730256 -0.27065652 0.0083058915)
(-0.59487784 -0.26360805 0.0086250943)
(-0.57280104 -0.25662988 0.0089336548)
(-0.55107997 -0.24972516 0.0092319579)
(-0.5297164 -0.24290032 0.009521208)
(-0.50871844 -0.23615598 0.0098016837)
(-0.48808229 -0.22950054 0.010075701)
(-0.46782105 -0.22292775 0.010341364)
(-0.44792006 -0.2164531 0.010606104)
(-0.42840377 -0.21005943 0.010857094)
(-0.40925013 -0.20376746 0.011112823)
(-0.39046889 -0.19756631 0.011359348)
(-0.37206705 -0.19143319 0.011601258)
(-0.35407708 -0.18540429 0.011833761)
(-0.33640832 -0.17948055 0.012078437)
(-0.31915386 -0.17358998 0.01230963)
(-0.30231063 -0.16781834 0.012532967)
(-0.2858221 -0.1621166 0.012754882)
(-0.26973714 -0.15647865 0.012978136)
(-0.25405474 -0.15088057 0.013200169)
(-0.23880324 -0.14539834 0.013417186)
(-0.22392645 -0.13993893 0.013622287)
(-0.20951007 -0.13455781 0.013834827)
(-0.19548079 -0.1292304 0.014055066)
(-0.18190087 -0.12394421 0.014263065)
(-0.16875405 -0.11872376 0.014479578)
(-0.15603799 -0.11351349 0.014696179)
(-0.14381396 -0.1083867 0.014913578)
(-0.13198574 -0.10331347 0.015140267)
(-0.12064309 -0.098229396 0.01537881)
(-0.10978776 -0.093242244 0.015595034)
(-0.099350999 -0.088266439 0.015865411)
(-0.089458405 -0.083329053 0.016071767)
(-0.07997505 -0.078468851 0.016355829)
(-0.071054389 -0.073560419 0.016574384)
(-0.062598292 -0.068808478 0.016837929)
(-0.054634887 -0.063968014 0.017027563)
(-0.04716615 -0.059284119 0.017301432)
(-0.040317664 -0.05445288 0.017438046)
(-0.033888642 -0.049962094 0.017663297)
(-0.028094703 -0.045189761 0.017711282)
(-0.022834616 -0.040692592 0.017778775)
(-0.018230294 -0.036093109 0.017650438)
(-0.014114655 -0.031713355 0.01748033)
(-0.010775562 -0.027286446 0.017031912)
(-0.008012897 -0.022925118 0.016256893)
(-0.0062104855 -0.018606388 0.01514914)
(-0.0048075812 -0.015095909 0.013610433)
(-0.0043496161 -0.010621933 0.010311284)
(-0.0061651898 -0.0072778902 0.0055658587)
(0 1.9441169e-18 0)
(0 7.3891553e-19 0)
(0 1.9178664e-18 0)
(0 1.9306465e-18 0)
(0 2.0122011e-18 0)
(0 1.2101041e-18 0)
(0 4.8239973e-20 0)
(0 -1.0965028e-18 -1.2031102e-18)
(0 1.2984041e-19 0)
(0 1.1673097e-18 0)
(0 2.8147598e-18 0)
(0 2.4663167e-18 0)
(0 1.7654295e-18 0)
(0 1.7061503e-18 0)
(0 1.9482853e-18 0)
(0 8.0078536e-18 0)
(0 3.4096376e-18 0)
(0 1.2512401e-18 0)
(0 2.2584248e-18 0)
(0 -1.9662534e-19 0)
(0 5.2640644e-19 0)
(0 5.9983726e-18 0)
(0 -2.4409648e-18 -1.0584784e-18)
(0 3.5678923e-18 0)
(0 4.4602409e-18 0)
(0 1.4739593e-18 0)
(0 6.0332172e-19 0)
(0 1.4003619e-18 0)
(0 2.5247581e-18 0)
(0 3.2475122e-19 0)
(-1.9716303 -0.15347796 -0.0071213202)
(-1.971651 -0.153323 -0.0071119899)
(-1.9716678 -0.15317625 -0.0070974364)
(-1.9716761 -0.153037 -0.0070849015)
(-1.9716795 -0.15290403 -0.0070730899)
(-1.971674 -0.15277826 -0.0070658451)
(-1.9716605 -0.15265717 -0.0070606149)
(-1.9716406 -0.15254054 -0.0070586876)
(-1.971615 -0.15242668 -0.0070582928)
(-1.971585 -0.15231552 -0.0070589079)
(-1.9715532 -0.15220554 -0.00706054)
(-1.9715191 -0.15209646 -0.0070599474)
(-1.9714875 -0.15198923 -0.0070595388)
(-1.9714572 -0.1518804 -0.0070565216)
(-1.9714337 -0.15177418 -0.007055975)
(-1.8613023 -0.61012739 -0.0059608756)
(-1.8612823 -0.61002657 -0.0059606358)
(-1.8612647 -0.6099311 -0.0059628895)
(-1.8612491 -0.6098355 -0.0059625567)
(-1.8612361 -0.60974257 -0.0059628848)
(-1.8612237 -0.60964659 -0.0059611618)
(-1.861211 -0.60954767 -0.0059613069)
(-1.8611978 -0.60944248 -0.0059615475)
(-1.8611839 -0.60933026 -0.0059644656)
(-1.8611689 -0.60920835 -0.0059699245)
(-1.8611542 -0.60907608 -0.0059779224)
(-1.861139 -0.60893101 -0.0059896989)
(-1.8611256 -0.60877517 -0.006002744)
(-1.8611143 -0.60860533 -0.0060153695)
(-1.8611029 -0.60842843 -0.0060264208)
(-0.001916787 -0.0086029178 -0.0076380409)
(-0.0028001693 -0.013645809 -0.0092859559)
(-0.0035949775 -0.019600603 -0.011511049)
(-0.0055558642 -0.025108091 -0.012547251)
(-0.0074509945 -0.030673344 -0.01358084)
(-0.010513981 -0.036316428 -0.014076408)
(-0.013838353 -0.041947402 -0.014459706)
(-0.018091092 -0.04775905 -0.014609005)
(-0.022634448 -0.05342551 -0.014717923)
(-0.027952381 -0.059264215 -0.014702521)
(-0.033680681 -0.064916148 -0.014637554)
(-0.04003667 -0.070718934 -0.014565782)
(-0.046815585 -0.076286093 -0.014437612)
(-0.054164537 -0.081969581 -0.014326261)
(-0.061949761 -0.087426756 -0.014186751)
(-0.070294366 -0.092944031 -0.014065784)
(-0.079081295 -0.098274292 -0.013910632)
(-0.088344809 -0.10358306 -0.013792659)
(-0.098127762 -0.10876524 -0.013642753)
(-0.1083705 -0.11388438 -0.01349991)
(-0.11909071 -0.11889609 -0.013355145)
(-0.13029069 -0.1238085 -0.013208072)
(-0.14197685 -0.12867256 -0.013040497)
(-0.15410215 -0.13340211 -0.012895193)
(-0.16673291 -0.13808091 -0.012723367)
(-0.17979558 -0.14266379 -0.012562851)
(-0.19333301 -0.14718423 -0.012396591)
(-0.20730511 -0.15161601 -0.012241667)
(-0.22174728 -0.15598576 -0.012086381)
(-0.23660995 -0.16029971 -0.011939053)
(-0.25191817 -0.16453642 -0.011806422)
(-0.26765642 -0.16873495 -0.011681459)
(-0.28382135 -0.17287803 -0.01157958)
(-0.30040113 -0.17697377 -0.011486683)
(-0.31740776 -0.18104384 -0.011414339)
(-0.33483293 -0.18506852 -0.011354956)
(-0.35266563 -0.18909292 -0.011306268)
(-0.37091549 -0.19307956 -0.011272537)
(-0.38959041 -0.19708941 -0.011240921)
(-0.40866961 -0.20108737 -0.011219799)
(-0.42817668 -0.20510854 -0.011199011)
(-0.44809537 -0.20914427 -0.011165033)
(-0.46842944 -0.21323259 -0.011130078)
(-0.48918856 -0.21735478 -0.011077763)
(-0.51035234 -0.2215407 -0.011009958)
(-0.53193162 -0.2257915 -0.010925337)
(-0.55391375 -0.23011685 -0.010818055)
(-0.57629401 -0.23452867 -0.010692864)
(-0.59906175 -0.23902974 -0.010545928)
(-0.62220753 -0.24363078 -0.010382167)
(-0.64571617 -0.24833422 -0.010201668)
(-0.66957557 -0.25314617 -0.010009871)
(-0.69376801 -0.25806962 -0.0098083785)
(-0.71827869 -0.26310733 -0.0096032069)
(-0.74308899 -0.26826152 -0.0093967414)
(-0.76818289 -0.27353342 -0.0091940578)
(-0.79354219 -0.27892491 -0.0089973637)
(-0.81915097 -0.28443648 -0.0088099992)
(-0.84499264 -0.29006962 -0.0086336531)
(-0.87105243 -0.2958256 -0.0084691772)
(-0.89731556 -0.30170601 -0.0083165048)
(-0.92376889 -0.30771286 -0.0081753961)
(-0.95039977 -0.31384781 -0.00804402)
(-0.97719943 -0.32011264 -0.0079224771)
(-1.0041457 -0.32651201 -0.0078018297)
(-1.0312541 -0.33304669 -0.0076876693)
(-1.0584875 -0.33972791 -0.0075749038)
(-1.0858392 -0.34653617 -0.0074621905)
(-1.1133122 -0.35348908 -0.0073456806)
(-1.1408909 -0.36058163 -0.0072259545)
(-1.1685639 -0.36782074 -0.0070992406)
(-1.1963264 -0.37520066 -0.0069665031)
(-1.2241644 -0.38272345 -0.0068284055)
(-1.2520696 -0.3903842 -0.006688065)
(-1.2800332 -0.39818129 -0.0065441986)
(-1.3080453 -0.40610851 -0.0064024074)
(-1.3360951 -0.41416477 -0.0062613101)
(-1.3641769 -0.42233842 -0.0061273753)
(-1.392277 -0.43063082 -0.005999319)
(-1.4203941 -0.43902536 -0.0058842426)
(-1.4485134 -0.44752584 -0.0057789493)
(-1.4766335 -0.456113 -0.0056926211)
(-1.5047475 -0.46478742 -0.0056186584)
(-1.5328446 -0.4735369 -0.00556659)
(-1.5609281 -0.48235194 -0.0055283612)
(-1.588993 -0.49123077 -0.0055113004)
(-1.6170351 -0.50016009 -0.0055104784)
(-1.6450499 -0.50913111 -0.0055266579)
(-1.6730404 -0.51814261 -0.0055574504)
(-1.7009977 -0.5271776 -0.0056029824)
(-1.7289349 -0.53623884 -0.00565845)
(-1.7568307 -0.54531194 -0.005723381)
(-1.7847191 -0.5543934 -0.00579587)
(-1.8125607 -0.56348029 -0.0058681235)
(-1.8404029 -0.57256236 -0.0059439344)
(-0.00031905239 -0.0097756242 -0.0064183771)
(-0.0011689385 -0.014879393 -0.0084331556)
(-0.0030857243 -0.023110013 -0.0096742931)
(-0.0046985687 -0.029365655 -0.011025443)
(-0.0071764188 -0.036619842 -0.011601359)
(-0.010072897 -0.043315152 -0.012119414)
(-0.013707622 -0.050346916 -0.012371618)
(-0.017724457 -0.057102817 -0.012579501)
(-0.022468262 -0.063934468 -0.012683078)
(-0.027670043 -0.070606061 -0.012655126)
(-0.033422521 -0.077249407 -0.012694597)
(-0.039672158 -0.083726628 -0.012564836)
(-0.046428239 -0.090140146 -0.012553046)
(-0.053669301 -0.09633043 -0.012403346)
(-0.061390681 -0.10244102 -0.01236804)
(-0.069621537 -0.10831505 -0.012187351)
(-0.078266453 -0.114067 -0.012151708)
(-0.087464805 -0.11957313 -0.011991385)
(-0.097080188 -0.1249414 -0.011912149)
(-0.10720822 -0.13004957 -0.011770974)
(-0.11779537 -0.13501111 -0.011675011)
(-0.12887723 -0.13972951 -0.011523809)
(-0.14042228 -0.14427037 -0.011417662)
(-0.15245785 -0.1485893 -0.011270921)
(-0.16496636 -0.15271885 -0.011144448)
(-0.17795456 -0.1566564 -0.010993278)
(-0.191417 -0.16039322 -0.010865334)
(-0.20534888 -0.16394795 -0.01072041)
(-0.21975118 -0.1673258 -0.0105883)
(-0.23461902 -0.17052816 -0.010456444)
(-0.24994916 -0.17356646 -0.010343518)
(-0.26573833 -0.17644648 -0.010231327)
(-0.28197919 -0.17918261 -0.010137706)
(-0.29867558 -0.18177459 -0.010056783)
(-0.31582321 -0.18424728 -0.0099892666)
(-0.33341682 -0.18660212 -0.0099374146)
(-0.3514718 -0.18885803 -0.0098999585)
(-0.36997074 -0.19102459 -0.0098747552)
(-0.38891235 -0.19311005 -0.0098559843)
(-0.40830719 -0.19515204 -0.0098447911)
(-0.42815663 -0.19713947 -0.0098255482)
(-0.4484493 -0.19912027 -0.0098166341)
(-0.46920989 -0.20108685 -0.009782093)
(-0.49040455 -0.20307254 -0.0097540744)
(-0.51205368 -0.20509343 -0.0096998173)
(-0.53414288 -0.20716599 -0.0096361525)
(-0.55666499 -0.20930802 -0.0095507141)
(-0.57961117 -0.21153976 -0.0094498056)
(-0.60296941 -0.21387351 -0.0093285316)
(-0.62672436 -0.21632829 -0.0091939492)
(-0.65085994 -0.21891471 -0.0090437447)
(-0.67535842 -0.22164785 -0.0088849112)
(-0.70019882 -0.22453758 -0.0087183112)
(-0.72536185 -0.22759445 -0.0085499376)
(-0.75082505 -0.23082772 -0.0083818531)
(-0.77656794 -0.23424538 -0.0082188278)
(-0.80256855 -0.23785522 -0.0080626321)
(-0.8288073 -0.24166391 -0.0079167093)
(-0.85526315 -0.24567891 -0.0077812265)
(-0.88191895 -0.24990622 -0.0076574939)
(-0.90875522 -0.2543528 -0.0075451386)
(-0.93575712 -0.25902557 -0.0074425916)
(-0.96290884 -0.26392853 -0.0073502545)
(-0.99019309 -0.26907338 -0.00726164)
(-1.0176005 -0.27446133 -0.0071787379)
(-1.0451165 -0.28010642 -0.0071019405)
(-1.0727119 -0.28599162 -0.0070242792)
(-1.1004111 -0.29214105 -0.006943249)
(-1.1281828 -0.29855985 -0.0068495015)
(-1.1560128 -0.30524367 -0.0067589384)
(-1.1838926 -0.31219895 -0.0066584247)
(-1.2118106 -0.31941884 -0.0065566692)
(-1.2397547 -0.32690914 -0.0064497824)
(-1.2677184 -0.33466127 -0.0063416555)
(-1.2956894 -0.34267649 -0.0062311009)
(-1.3236587 -0.35094386 -0.0061233904)
(-1.3516173 -0.35946297 -0.0060161827)
(-1.3795578 -0.36821805 -0.0059177882)
(-1.4074705 -0.37720973 -0.0058233298)
(-1.4353525 -0.38641511 -0.0057433899)
(-1.4631932 -0.39583913 -0.0056693245)
(-1.4909919 -0.40545077 -0.0056147355)
(-1.5187465 -0.41525586 -0.0055699305)
(-1.5464459 -0.42522198 -0.0055362366)
(-1.5740984 -0.43536288 -0.0055205584)
(-1.6016948 -0.44563413 -0.0055248795)
(-1.6292435 -0.45603762 -0.0055421057)
(-1.6567311 -0.46655709 -0.0055710604)
(-1.6841799 -0.47717437 -0.0056155581)
(-1.7115654 -0.48787872 -0.0056641709)
(-1.7389228 -0.49865173 -0.0057285443)
(-1.7662165 -0.5094809 -0.0057896267)
(-1.793498 -0.52034977 -0.0058656625)
(-1.8207177 -0.53124497 -0.0059305984)
(-1.8479399 -0.54215505 -0.0060047976)
(0.00049898823 -0.0096033649 -0.0057085771)
(-0.00061489376 -0.01625884 -0.0069505779)
(-0.0017551323 -0.024473307 -0.0083520581)
(-0.0039546757 -0.031961233 -0.0092458592)
(-0.0063765739 -0.039661677 -0.009701667)
(-0.0096544771 -0.047322494 -0.010067433)
(-0.013109205 -0.054784697 -0.010347543)
(-0.017453489 -0.062288673 -0.010498666)
(-0.02208764 -0.069488109 -0.010545081)
(-0.027362834 -0.076804143 -0.010615387)
(-0.033072338 -0.08372016 -0.010570942)
(-0.039353338 -0.090708972 -0.010572697)
(-0.04604583 -0.097289586 -0.010487014)
(-0.05327126 -0.10386643 -0.010465138)
(-0.060956342 -0.11007819 -0.010339785)
(-0.069096023 -0.11614222 -0.010327759)
(-0.077750924 -0.12191623 -0.010201405)
(-0.086838976 -0.12745298 -0.010147124)
(-0.096423992 -0.13272183 -0.010045952)
(-0.1064761 -0.13770603 -0.0099751102)
(-0.11702036 -0.14244156 -0.0098664652)
(-0.12803047 -0.14685629 -0.0097869454)
(-0.1395421 -0.15103577 -0.0096754619)
(-0.15152037 -0.15489345 -0.0095759842)
(-0.1640029 -0.15851474 -0.0094601257)
(-0.17695709 -0.16182704 -0.0093519507)
(-0.19041148 -0.16489936 -0.0092363289)
(-0.20433764 -0.16769477 -0.0091186556)
(-0.21876278 -0.1702477 -0.0090106717)
(-0.23365915 -0.17254442 -0.0089033666)
(-0.2490444 -0.17461642 -0.0088036198)
(-0.26490042 -0.17645873 -0.0087114081)
(-0.28124123 -0.17809166 -0.0086366737)
(-0.2980501 -0.17952173 -0.0085694351)
(-0.31533782 -0.18077055 -0.0085183664)
(-0.33309244 -0.18184436 -0.0084824474)
(-0.35131398 -0.18276385 -0.0084589314)
(-0.37000066 -0.18354166 -0.0084467991)
(-0.3891883 -0.1842199 -0.0084421634)
(-0.4088466 -0.18478203 -0.0084332659)
(-0.4289725 -0.1852909 -0.0084411142)
(-0.4495824 -0.18573494 -0.0084298932)
(-0.47066299 -0.18615576 -0.0084315447)
(-0.49221749 -0.18657404 -0.0084111512)
(-0.51424394 -0.18701263 -0.0083808517)
(-0.53672721 -0.18749742 -0.0083382784)
(-0.55966615 -0.18805234 -0.0082770377)
(-0.58304503 -0.18870175 -0.0082010573)
(-0.60685169 -0.1894661 -0.0081090429)
(-0.6310676 -0.19036831 -0.0080039916)
(-0.65567592 -0.19142691 -0.0078860568)
(-0.68065348 -0.19266071 -0.0077616295)
(-0.70597941 -0.19408587 -0.0076305862)
(-0.73162924 -0.19571788 -0.0074996104)
(-0.75757919 -0.1975707 -0.0073697888)
(-0.78380479 -0.19965668 -0.0072458412)
(-0.8102824 -0.20198808 -0.0071294178)
(-0.83698833 -0.20457566 -0.0070228727)
(-0.86390051 -0.20743039 -0.0069265409)
(-0.89099771 -0.21056188 -0.0068418519)
(-0.91825954 -0.21398074 -0.0067667615)
(-0.94566819 -0.21769542 -0.0067017091)
(-0.9732043 -0.22171679 -0.006643421)
(-1.000852 -0.22605361 -0.0065894101)
(-1.0285998 -0.2307129 -0.0065418754)
(-1.0564181 -0.23569995 -0.0064911023)
(-1.0843199 -0.24104753 -0.0064458401)
(-1.1122588 -0.24671022 -0.0063778598)
(-1.1402573 -0.25272185 -0.0063371824)
(-1.1682691 -0.25909967 -0.0062744702)
(-1.1963021 -0.2658259 -0.0062107781)
(-1.2243348 -0.2729105 -0.0061431259)
(-1.2523646 -0.28035202 -0.0060681498)
(-1.280376 -0.28814196 -0.0059933443)
(-1.3083614 -0.29627857 -0.0059152848)
(-1.3363105 -0.30475427 -0.0058403495)
(-1.3642142 -0.31356246 -0.0057670585)
(-1.3920669 -0.32268993 -0.0057007882)
(-1.4198598 -0.3321308 -0.0056400063)
(-1.4475889 -0.34186571 -0.0055900616)
(-1.4752495 -0.35188951 -0.0055483209)
(-1.5028396 -0.36217609 -0.0055224522)