/*--------------------------------*- C++ -*----------------------------------*\
  =========                 |
  \\      /  F ield         | OpenFOAM: The Open Source CFD Toolbox
   \\    /   O peration     | Website:  https://openfoam.org
    \\  /    A nd           | Version:  6
     \\/     M anipulation  |
\*---------------------------------------------------------------------------*/
FoamFile
{
    version     2.0;
    format      ascii;
    class       pointVectorField;
    location    "1.87";
    object      u;
}
// * * * * * * * * * * * * * * * * * * * * * * * * * * * * * * * * * * * * * //

dimensions      [0 1 0 0 0 0 0];

internalField   nonuniform List<vector> 
3969
(
(0 -8.2782124e-20 0)
(0 -4.4351317e-19 0)
(0.3421106 0.0304769 -0.056531666)
(0.33793985 -0.060885276 -0.051335609)
(0 4.5305199e-18 0)
(0 3.6536412e-18 0)
(0.3341295 -0.045694396 -0.051485807)
(0.33830109 0.045649034 -0.056638383)
(0 1.9380485e-19 0)
(0 1.1680039e-18 0)
(0 5.0843806e-19 0)
(-2.9229372e-18 -2.6318843e-19 0)
(0 1.4015696e-18 0)
(0 -8.0687714e-19 0)
(0 -7.8768115e-19 0)
(0.34157903 0.019024643 -0.055897666)
(0.34103525 0.0075920693 -0.055269213)
(0.34049319 -0.0038096866 -0.05461386)
(0.33996344 -0.015197175 -0.053956701)
(0.33944929 -0.02657956 -0.053289819)
(0.33894521 -0.037984702 -0.05262818)
(0.338452 -0.049408998 -0.051975596)
(0.00022448188 0.00078829985 0.0011275846)
(0.00011492919 0.0016541314 0.0013599644)
(0.00058885465 0.0021964638 0.0014947855)
(0.0011537459 0.0033895931 0.0012346782)
(0.0022195827 0.0041064603 0.0010676307)
(0.0033813799 0.0053638285 0.00063211364)
(0.0050315739 0.0062581493 0.00029472529)
(0.0067881352 0.0075622554 -0.00021861619)
(0.0090107039 0.0085724042 -0.00068420198)
(0.011430953 0.0099425303 -0.0012594064)
(0.014249273 0.01103967 -0.0018179081)
(0.017365261 0.012473219 -0.002467693)
(0.020856533 0.013657905 -0.0031071446)
(0.024694467 0.015099926 -0.0038296067)
(0.02890577 0.016381125 -0.0045627359)
(0.033512897 0.017810533 -0.0053561904)
(0.038488562 0.019137419 -0.0061784296)
(0.043889642 0.020547659 -0.0070543865)
(0.049672622 0.021875989 -0.0079762619)
(0.055892434 0.023232026 -0.008954456)
(0.062498983 0.024516992 -0.0099834168)
(0.069540161 0.025789382 -0.011077202)
(0.076968361 0.026983552 -0.012225995)
(0.084817522 0.028130263 -0.013444689)
(0.093036402 0.029205691 -0.014723507)
(0.10165302 0.030191534 -0.01607375)
(0.11061278 0.0310908 -0.017485394)
(0.1199272 0.031911195 -0.018967713)
(0.12955745 0.032612893 -0.020513858)
(0.13949274 0.033233782 -0.022122949)
(0.14969922 0.033737627 -0.023793705)
(0.16015779 0.034150343 -0.025522019)
(0.17084011 0.034454513 -0.027302878)
(0.18172289 0.034664979 -0.029132207)
(0.19277298 0.034783726 -0.031010991)
(0.20397647 0.034801633 -0.032911165)
(0.21529725 0.034745917 -0.034868387)
(0.22671679 0.034605152 -0.036836129)
(0.23820017 0.03439775 -0.038818217)
(0.2497559 0.034123024 -0.040823711)
(0.26132504 0.033797074 -0.042825215)
(0.2729319 0.033410678 -0.044836691)
(0.28451836 0.032998395 -0.046828358)
(0.29610855 0.032528748 -0.048817985)
(0.30765997 0.032051127 -0.050779326)
(0.31918029 0.031536861 -0.052718371)
(0.33065709 0.031013991 -0.054629432)
(0.00015393444 -0.0010249191 -0.0012015791)
(0.00043840242 -0.0018561275 -0.0014671591)
(0.00083124792 -0.0029871286 -0.0017335073)
(0.0014128739 -0.0039608115 -0.0021450778)
(0.002384997 -0.0052501545 -0.0023745108)
(0.0035514545 -0.0063229282 -0.0028302198)
(0.0050624854 -0.0076692078 -0.0031776751)
(0.0068300636 -0.0088281066 -0.0036911456)
(0.008916557 -0.010209501 -0.0041628434)
(0.011299088 -0.011457512 -0.0047331468)
(0.01402179 -0.01290942 -0.0053154504)
(0.017057628 -0.014240434 -0.0059437966)
(0.020462494 -0.015759634 -0.0066154178)
(0.02419304 -0.01720293 -0.0072932571)
(0.028329057 -0.018786226 -0.0080146663)
(0.032788081 -0.020314006 -0.0087608031)
(0.037715123 -0.021991726 -0.0095262162)
(0.042927483 -0.023571298 -0.010328282)
(0.048680644 -0.025335435 -0.011135054)
(0.054675005 -0.026960152 -0.011996304)
(0.061243027 -0.028775642 -0.012849126)
(0.068062879 -0.030445331 -0.013763699)
(0.07541419 -0.03225646 -0.01467538)
(0.083058717 -0.033970333 -0.015643048)
(0.091166163 -0.03573874 -0.016627327)
(0.099566585 -0.037430739 -0.017672024)
(0.10838721 -0.039151963 -0.018735179)
(0.11751223 -0.040788969 -0.01984916)
(0.12698672 -0.042411616 -0.021012223)
(0.13675409 -0.043969449 -0.022213474)
(0.14679515 -0.045473805 -0.023470594)
(0.15709888 -0.046917329 -0.024769657)
(0.16762461 -0.048292138 -0.026125375)
(0.17836156 -0.049594715 -0.02752717)
(0.18927481 -0.050826791 -0.028983897)
(0.2003488 -0.051978999 -0.030482296)
(0.21154373 -0.053055134 -0.032045166)
(0.22286029 -0.054056002 -0.033629313)
(0.23425537 -0.054985642 -0.035279317)
(0.24571985 -0.055844328 -0.036952991)
(0.25722937 -0.056631393 -0.038673201)
(0.26877634 -0.057366637 -0.040413638)
(0.28032827 -0.058037189 -0.042193511)
(0.291891 -0.058668061 -0.043986971)
(0.3034357 -0.059252979 -0.045807124)
(0.31496382 -0.059807875 -0.04764021)
(0.32646222 -0.060343423 -0.049485528)
(0 -5.0524302e-20 0)
(0 5.96184e-19 0)
(0 -7.0646172e-19 0)
(1.4401872e-18 -1.4659736e-19 0)
(0 -1.2119298e-18 0)
(0 -5.615556e-19 0)
(0 -4.7242856e-19 0)
(-0.00016325446 -0.00025440926 0.00071164951)
(-0.000431203 -0.0010031998 0.0011668386)
(-0.00030569779 -0.001456546 0.0012096061)
(0.00025686326 -0.0021451553 0.0012194565)
(0.0010566246 -0.0028944215 0.0010295461)
(0.002185353 -0.0035825465 0.00082251601)
(0.0035920975 -0.0044780577 0.0005246888)
(0.0053114956 -0.0052736718 0.00019328314)
(0.0072908343 -0.0062237175 -0.00018044336)
(0.0095937528 -0.0071554605 -0.00060995027)
(0.012283028 -0.0082798348 -0.0010155673)
(0.015081888 -0.0091602119 -0.001543956)
(0.018546331 -0.010521069 -0.0020272789)
(0.022049454 -0.011384251 -0.0026684184)
(0.02619791 -0.012902007 -0.003204875)
(0.030484507 -0.013843925 -0.0039372173)
(0.035344883 -0.015389431 -0.0045685995)
(0.04044912 -0.016483126 -0.0053662695)
(0.046068184 -0.017990323 -0.0061196569)
(0.052004069 -0.019213931 -0.0069959232)
(0.058413652 -0.020677919 -0.0078769408)
(0.065180912 -0.021975021 -0.0088544272)
(0.072388459 -0.023395329 -0.0098660254)
(0.079970413 -0.024712442 -0.010962942)
(0.087968313 -0.026086867 -0.012118012)
(0.096362016 -0.027387288 -0.013364114)
(0.10508606 -0.028693707 -0.014653134)
(0.11414964 -0.029949656 -0.015996839)
(0.12354839 -0.031164376 -0.017409911)
(0.13324864 -0.032323915 -0.018889772)
(0.14323898 -0.0334455 -0.020425683)
(0.15348782 -0.034507898 -0.022022673)
(0.16397146 -0.035516686 -0.023672582)
(0.17466831 -0.036476119 -0.025373784)
(0.18555029 -0.03737875 -0.027117154)
(0.19659909 -0.038237777 -0.028907961)
(0.20776888 -0.039014766 -0.030723506)
(0.21906743 -0.039792408 -0.03258158)
(0.23045426 -0.04049942 -0.034452841)
(0.24190624 -0.041168598 -0.036350142)
(0.25341632 -0.041806068 -0.03825596)
(0.26495209 -0.042412031 -0.040167504)
(0.27651161 -0.042991435 -0.042082181)
(0.28806831 -0.04355076 -0.043988271)
(0.29961874 -0.044093339 -0.045886958)
(0.3111459 -0.04462708 -0.047767719)
(0.32264121 -0.045154129 -0.049628714)
(0.33464233 -0.034219028 -0.052148794)
(0.33515113 -0.022782304 -0.052798771)
(0.33565002 -0.011365067 -0.05344364)
(0.33617347 1.929928e-05 -0.054069477)
(0.33669978 0.011412922 -0.054702987)
(0.33723936 0.022806056 -0.055335786)
(0.33777588 0.034225241 -0.05598544)
(0.32687478 0.046185695 -0.054819923)
(0.31543283 0.046698608 -0.052987253)
(0.30396244 0.047187352 -0.051157359)
(0.29247929 0.047618997 -0.04932718)
(0.28097852 0.048001819 -0.047505379)
(0.26947796 0.04831414 -0.045694964)
(0.25798604 0.048555376 -0.043900387)
(0.24651593 0.048713209 -0.042126933)
(0.23508522 0.048782249 -0.040381489)
(0.22371221 0.048762485 -0.038660306)
(0.21240014 0.048629204 -0.036980247)
(0.20122397 0.048397399 -0.03532163)
(0.19011767 0.048051211 -0.033731169)
(0.17918576 0.047593496 -0.032161203)
(0.16840768 0.047025015 -0.030647352)
(0.15782893 0.046340096 -0.02917644)
(0.14746594 0.045541431 -0.027752716)
(0.13735032 0.04463197 -0.026376096)
(0.12750153 0.043615749 -0.025046529)
(0.11794845 0.042496386 -0.023762998)
(0.10871026 0.041278293 -0.022519869)
(0.099815689 0.039976403 -0.021326164)
(0.09127874 0.038582037 -0.020157671)
(0.083112921 0.037137971 -0.019044643)
(0.075334921 0.035596796 -0.017947141)
(0.067962687 0.034048411 -0.016905307)
(0.060996526 0.032401465 -0.015861609)
(0.054442566 0.030788908 -0.014887413)
(0.0483106 0.029077362 -0.013891723)
(0.042584299 0.027433426 -0.012975092)
(0.037286162 0.025699705 -0.012027348)
(0.032374366 0.024046194 -0.011159805)
(0.027870434 0.022345027 -0.010280991)
(0.023765844 0.020688605 -0.0094234812)
(0.020069892 0.018969409 -0.0086117998)
(0.01667092 0.01742685 -0.0078405407)
(0.013710449 0.015703967 -0.0070530907)
(0.010993859 0.014200813 -0.006392613)
(0.0087008644 0.012557073 -0.0056915771)
(0.0066362438 0.011110609 -0.0050573809)
(0.0050182316 0.0094042618 -0.0044576286)
(0.0035268146 0.0081046177 -0.0039599112)
(0.0024986447 0.0064635452 -0.0034124105)
(0.0016363347 0.0051803816 -0.002965733)
(0.0010986523 0.0037740231 -0.0024895269)
(0.00080817272 0.0024673795 -0.0019128529)
(0.0011837293 0.0013801552 -0.0010647543)
(0 6.1257519e-19 0)
(0 4.7889485e-19 0)
(0 -2.4816325e-19 0)
(0 -1.6306431e-18 8.1605202e-19)
(0 -1.431719e-18 0)
(0 -3.1478491e-19 0)
(0 1.5053339e-18 0)
(0 2.0855305e-18 0)
(0 1.988038e-18 0)
(0 1.8889749e-18 0)
(0 1.6314284e-18 -2.0041413e-19)
(0 4.4071864e-18 0)
(0 1.9320496e-18 0)
(0 -3.5598425e-19 0)
(0.33746441 -0.058982938 -0.051352938)
(0.33699508 -0.057091912 -0.051375553)
(0.33653162 -0.055200003 -0.051385541)
(0.33606048 -0.053312861 -0.051404614)
(0.33558757 -0.05141782 -0.051419824)
(0.33510606 -0.049518358 -0.051440643)
(0.33461845 -0.04760992 -0.051465946)
(0.34165471 0.03242831 -0.056538994)
(0.34118938 0.034354102 -0.056541135)
(0.34071822 0.036260818 -0.056549501)
(0.34023682 0.038149895 -0.056561956)
(0.33975185 0.040029794 -0.056581963)
(0.33926386 0.041902144 -0.056602191)
(0.33878094 0.04377773 -0.056623559)
(-0.00017701214 -0.00071245261 0.00093232152)
(-0.00030393716 -0.0016749882 0.0009478231)
(2.2872039e-05 -0.0024846793 0.00096156871)
(0.00048122604 -0.0031161826 0.00078579667)
(0.0014095123 -0.0036997309 0.00054942206)
(0.0024548099 -0.0040253971 0.00021301399)
(0.0040217003 -0.004201471 -0.00020739984)
(0.0056308487 -0.0042082436 -0.00062871446)
(0.0078005553 -0.0039729435 -0.0011467371)
(0.010094239 -0.003551573 -0.0016805338)
(0.012880326 -0.0029253037 -0.0022719351)
(0.015888791 -0.0020584061 -0.0028800039)
(0.019376265 -0.0010305823 -0.0035581886)
(0.023146848 0.00027290438 -0.0042585715)
(0.027369336 0.0016954279 -0.0049908255)
(0.031971664 0.0033659 -0.0057882887)
(0.036981633 0.0051441326 -0.0066075797)
(0.042413986 0.0071132071 -0.0074789302)
(0.048278288 0.0091551541 -0.0083999894)
(0.054568282 0.011324221 -0.009365203)
(0.06129609 0.013531507 -0.010393542)
(0.068450456 0.015782859 -0.011467511)
(0.076030547 0.018024412 -0.012608182)
(0.084027667 0.020244829 -0.013804812)
(0.092422049 0.022389584 -0.015070089)
(0.10120752 0.024447292 -0.016387821)
(0.11035717 0.026381937 -0.017781411)
(0.11984684 0.028166573 -0.019233506)
(0.12965709 0.029779713 -0.020743906)
(0.13975944 0.031193639 -0.022318923)
(0.1501202 0.032393675 -0.023947953)
(0.16071667 0.033364337 -0.02563192)
(0.17151745 0.034092228 -0.027365449)
(0.18249151 0.034574507 -0.029148789)
(0.19361243 0.034798599 -0.030965229)
(0.20485083 0.034770176 -0.032824318)
(0.21618307 0.034499263 -0.034715451)
(0.22758341 0.033974957 -0.036621844)
(0.23902706 0.033225965 -0.038553282)
(0.25050493 0.032255494 -0.04049728)
(0.26197733 0.031082705 -0.042445363)
(0.2734581 0.029727677 -0.044397845)
(0.28490155 0.028211015 -0.046343301)
(0.29633003 0.026553716 -0.04828365)
(0.30770538 0.024786395 -0.050205222)
(0.31904103 0.022927789 -0.052114768)
(0.33032728 0.020996639 -0.054006946)
(-0.00049729295 -0.0016513832 0.0006233665)
(-0.00063459127 -0.0033368384 0.00052271396)
(-0.00034658108 -0.0050109428 0.00056550664)
(8.1546617e-05 -0.0063221274 0.00025878444)
(0.0009026764 -0.0077507832 0.00010076688)
(0.0020142682 -0.0086782215 -0.00036038661)
(0.0033691483 -0.0096761587 -0.00064898652)
(0.0050729562 -0.010173674 -0.0011572676)
(0.0070948324 -0.010622053 -0.0016311052)
(0.0094292731 -0.010617171 -0.0021750628)
(0.012100124 -0.010524218 -0.0027246148)
(0.01514892 -0.0099503426 -0.003373857)
(0.018543734 -0.0092771596 -0.0040081245)
(0.02232686 -0.0081712071 -0.0046999936)
(0.026519787 -0.0069356405 -0.0054400298)
(0.031111212 -0.0053400936 -0.0062151557)
(0.036117346 -0.0036072797 -0.0070296895)
(0.04157427 -0.0016064686 -0.0078991628)
(0.047437062 0.00050944341 -0.0088001326)
(0.053775731 0.0028044047 -0.0097630816)
(0.060523161 0.0051716104 -0.010768692)
(0.067741822 0.0076205844 -0.011827918)
(0.075365641 0.010088658 -0.012948768)
(0.083430496 0.012540588 -0.014118688)
(0.091883833 0.014942214 -0.015349224)
(0.10074787 0.017253166 -0.016644956)
(0.1099592 0.019428589 -0.017996087)
(0.11952207 0.021448247 -0.019404924)
(0.12940542 0.023257936 -0.020879407)
(0.13956937 0.024854377 -0.022404363)
(0.14999229 0.026191486 -0.023987157)
(0.16064575 0.027260643 -0.025622935)
(0.1714895 0.028043114 -0.027309263)
(0.18250248 0.028518628 -0.029034302)
(0.19364818 0.028691265 -0.030806837)
(0.20490514 0.028554233 -0.032613053)
(0.21623915 0.028104115 -0.034448464)
(0.22763278 0.027355824 -0.036309491)
(0.23905311 0.026317844 -0.038194415)
(0.25049949 0.025003039 -0.040088278)
(0.26192903 0.023437888 -0.041996389)
(0.27336047 0.021636162 -0.043906382)
(0.28474287 0.019637907 -0.045818545)
(0.29610477 0.017454151 -0.047720967)
(0.30740655 0.015132555 -0.049619412)
(0.3186652 0.012693365 -0.051505447)
(0.32988281 0.010162303 -0.053381911)
(-0.00065835623 -0.0012669863 0.00030931797)
(-0.00075325383 -0.0026304796 0.00023580346)
(-0.00043325765 -0.0038706675 0.00010010618)
(1.7584994e-05 -0.0049862432 -0.00010801648)
(0.00097590293 -0.0060289511 -0.00042366834)
(0.0019494732 -0.0069384252 -0.00072258939)
(0.0034917814 -0.0076496042 -0.0011524806)
(0.0050880067 -0.0082686793 -0.0016095483)
(0.0072281355 -0.0086108465 -0.0021023451)
(0.0094620359 -0.0088713439 -0.0026171469)
(0.012247546 -0.0088535429 -0.0032291266)
(0.015206525 -0.0086709718 -0.0038395297)
(0.018647328 -0.0083216222 -0.0044819531)
(0.022390058 -0.0077315428 -0.0051976216)
(0.026585438 -0.0070122064 -0.0059198659)
(0.031134493 -0.0060757464 -0.0066901419)
(0.036134586 -0.0050375224 -0.0075142497)
(0.041520333 -0.0038175299 -0.0083521637)
(0.047366246 -0.0025312309 -0.0092594117)
(0.053618532 -0.0011173413 -0.010185178)
(0.060324167 0.00033071198 -0.011176302)
(0.067444962 0.0018384106 -0.012199827)
(0.075001345 0.0033354294 -0.013285292)
(0.082971394 0.0048382921 -0.01441167)
(0.091350728 0.0062814063 -0.015609365)
(0.10011718 0.0076648775 -0.016848958)
(0.10924508 0.0089480638 -0.018146593)
(0.11873462 0.010117232 -0.019511266)
(0.12852689 0.011147024 -0.020920839)
(0.13861781 0.012017506 -0.022386875)
(0.14897275 0.012713624 -0.023912502)
(0.15956394 0.013220851 -0.02548505)
(0.17035576 0.013529933 -0.027107557)
(0.18133084 0.013625517 -0.028776073)
(0.1924473 0.013521964 -0.03049199)
(0.20368751 0.013190434 -0.032238317)
(0.21502074 0.01266107 -0.034025578)
(0.22642191 0.011917681 -0.03584051)
(0.23787562 0.010983151 -0.037681427)
(0.24935143 0.0098610657 -0.039541185)
(0.2608378 0.0085659087 -0.041415482)
(0.27231977 0.007113322 -0.043301065)
(0.28377681 0.0055254862 -0.045188455)
(0.29521189 0.0038113874 -0.047081167)
(0.30660491 0.00200537 -0.04896891)
(0.31795783 0.00011639936 -0.050853186)
(0.32927021 -0.001833849 -0.052729769)
(-0.00059925697 -8.3652046e-05 -7.6749212e-06)
(-0.00063410327 -0.00014848806 -0.00024334083)
(-0.00023822026 -0.00034261112 -0.00028655653)
(0.00035474639 -0.00029507961 -0.00066660489)
(0.0012658351 -0.0005447746 -0.00080999402)
(0.0024748566 -0.00046747419 -0.0013016852)
(0.0039373451 -0.00064906894 -0.0016074825)
(0.0057559302 -0.0006246586 -0.0021342584)
(0.007791244 -0.00074507583 -0.0025611069)
(0.010223679 -0.00075245855 -0.0031603856)
(0.012922422 -0.00084060359 -0.0037092303)
(0.015982956 -0.00087195839 -0.0043279552)
(0.01940191 -0.00098427056 -0.0049954123)
(0.023166286 -0.00099938737 -0.0056998591)
(0.027313063 -0.0011419552 -0.0064079438)
(0.03183883 -0.001183498 -0.0071911579)
(0.036757525 -0.0013390298 -0.0079773277)
(0.042091952 -0.001440917 -0.0088266269)
(0.047813156 -0.00162158 -0.0096958761)
(0.053976717 -0.0017941927 -0.010610482)
(0.060532143 -0.0020075564 -0.011576581)
(0.067540442 -0.0022521203 -0.012560913)
(0.074916218 -0.0025264045 -0.013617531)
(0.082724629 -0.0028247129 -0.014706725)
(0.090911257 -0.0031675918 -0.01585497)
(0.099482288 -0.0035261609 -0.017036501)
(0.10841761 -0.0039314902 -0.018289991)
(0.11769933 -0.004351048 -0.019579051)
(0.1273048 -0.0048118194 -0.020927146)
(0.13721705 -0.0052893769 -0.022331938)
(0.14740656 -0.005789981 -0.023788549)
(0.15785182 -0.0063176249 -0.025291451)
(0.16852257 -0.0068503063 -0.026854766)
(0.17940096 -0.0074079105 -0.028458499)
(0.19044705 -0.0079665761 -0.030113264)
(0.2016508 -0.0085387555 -0.031805622)
(0.21297135 -0.0091093989 -0.03354425)
(0.22439758 -0.009684979 -0.035309769)
(0.23589335 -0.010254908 -0.03711262)
(0.2474573 -0.010828103 -0.038935002)
(0.25904798 -0.01139056 -0.040787595)
(0.27066639 -0.011950429 -0.042645844)
(0.28227778 -0.012496753 -0.044530284)
(0.29389027 -0.013048362 -0.046406143)
(0.30547086 -0.013580679 -0.048300592)
(0.31701972 -0.014122972 -0.05017905)
(0.32854163 -0.01466211 -0.052067669)
(-0.00055562149 0.0011133594 -0.00036043978)
(-0.00041699537 0.0022693424 -0.0005243029)
(6.8597439e-05 0.0032539718 -0.0007378863)
(0.00067773866 0.0042422508 -0.00096772759)
(0.0018039518 0.0050731974 -0.0013028557)
(0.0029496529 0.0058142387 -0.0016568452)
(0.004637031 0.0064502244 -0.002085046)
(0.0063495235 0.0068327457 -0.0025148243)
(0.0086080288 0.0071870815 -0.0030617601)
(0.010979375 0.0072166243 -0.0035905087)
(0.01380993 0.0071578189 -0.0041840585)
(0.016849704 0.0068294313 -0.0048206445)
(0.02030871 0.0063545146 -0.0054854204)
(0.024051129 0.0056418958 -0.006161749)
(0.028200392 0.0047178026 -0.0068990135)
(0.032670427 0.0036485964 -0.0076477307)
(0.037562029 0.0023242315 -0.008452047)
(0.042784949 0.00090657372 -0.0092613036)
(0.04844797 -0.00074869661 -0.010126644)
(0.05445582 -0.002474878 -0.011010517)
(0.060908149 -0.0043668099 -0.01194382)
(0.067690461 -0.0063508822 -0.012886606)
(0.074904093 -0.0083772516 -0.013910074)
(0.082517351 -0.01048814 -0.014943141)
(0.09050386 -0.012596103 -0.016033213)
(0.098880949 -0.014719019 -0.01716712)
(0.10761497 -0.016793965 -0.018358509)
(0.11670345 -0.018817471 -0.019586026)
(0.12611995 -0.020758444 -0.020880906)
(0.13585241 -0.022586582 -0.022216473)
(0.14587902 -0.024290675 -0.023609433)
(0.15617778 -0.025847524 -0.025050589)
(0.1667274 -0.027227695 -0.026552905)
(0.17750606 -0.028447248 -0.028090454)
(0.18848321 -0.029453704 -0.029693713)
(0.19964368 -0.030278029 -0.031332146)
(0.2109573 -0.030888271 -0.033020431)
(0.22239861 -0.031301253 -0.034747886)
(0.23395259 -0.031508577 -0.036516068)
(0.24558523 -0.031524193 -0.038310105)
(0.25728414 -0.031355534 -0.040130735)
(0.2690244 -0.031015869 -0.041983518)
(0.2807932 -0.030525976 -0.043845584)
(0.29256908 -0.029904985 -0.045726004)
(0.30433542 -0.029169861 -0.047614727)
(0.31609019 -0.028358278 -0.049503951)
(0.3278176 -0.027482743 -0.051401107)
(-0.00034790139 0.0014911709 -0.00065998507)
(-8.8097356e-05 0.0030495442 -0.00096149162)
(0.00038063744 0.0042581773 -0.0010619484)
(0.0011283987 0.0056555807 -0.0014955145)
(0.0021635849 0.0065629716 -0.0016645486)
(0.0034737878 0.0076357889 -0.0021684334)
(0.0050600712 0.0082019309 -0.0024736356)
(0.0069485211 0.0087767474 -0.0030219289)
(0.009119772 0.0089516627 -0.0034909144)
(0.011589249 0.0089435338 -0.0040415726)
(0.014367123 0.0086130903 -0.00463455)
(0.017460703 0.0080377233 -0.0052674462)
(0.020898126 0.0071104315 -0.005913737)
(0.024647534 0.0059687021 -0.0066138186)
(0.028773103 0.0044673876 -0.0073286883)
(0.033227294 0.0027749064 -0.0080870679)
(0.038072393 0.00074542898 -0.0088597673)
(0.043274038 -0.0014415452 -0.0096717962)
(0.048864917 -0.0039187637 -0.010516398)
(0.054833365 -0.0065059591 -0.011378015)
(0.061194717 -0.009329256 -0.012291041)
(0.067945366 -0.012179947 -0.01320724)
(0.075094901 -0.015179867 -0.01421881)
(0.082598758 -0.018233692 -0.015187776)
(0.09051037 -0.021312978 -0.016267115)
(0.098770767 -0.024318183 -0.017351551)
(0.10740319 -0.027285511 -0.018491897)
(0.11637932 -0.03013294 -0.019671262)
(0.12568995 -0.032849685 -0.020908646)
(0.13531816 -0.035389811 -0.022187464)
(0.14524735 -0.037731601 -0.023525082)
(0.15545788 -0.039843552 -0.024908784)
(0.16592751 -0.041702234 -0.026350261)
(0.17663614 -0.043294416 -0.027835061)
(0.1875559 -0.044589187 -0.029385572)
(0.19867703 -0.045603791 -0.03096704)
(0.20995248 -0.046304103 -0.032612444)
(0.22138615 -0.046715454 -0.034288482)
(0.23293188 -0.04682694 -0.036016065)
(0.24457826 -0.046660152 -0.037769219)
(0.256306 -0.046218455 -0.039573296)
(0.26809004 -0.04554127 -0.041388016)
(0.27990767 -0.044638759 -0.04323708)
(0.29174487 -0.04355346 -0.045095361)
(0.30358504 -0.042301477 -0.046977375)
(0.31541352 -0.040937555 -0.048856774)
(0.32721135 -0.039477334 -0.050746328)
(-0.0001533185 0.00060937699 -0.00094024437)
(0.00014216666 0.0013270865 -0.0011452686)
(0.00057391002 0.001881367 -0.0014680107)
(0.0012626752 0.0023226849 -0.0017369891)
(0.002316752 0.0026544888 -0.0020617844)
(0.0035196783 0.0028223415 -0.002455141)
(0.0051555663 0.0028495251 -0.0028404124)
(0.0069342208 0.0026732383 -0.0033448655)
(0.0091342229 0.0023553454 -0.0038194591)
(0.011528187 0.0017682441 -0.0043862557)
(0.014319179 0.0010690084 -0.0049820293)
(0.017381414 4.3427018e-05 -0.0055937631)
(0.020811261 -0.0011241064 -0.0062598551)
(0.024541589 -0.0025422414 -0.0069581876)
(0.028677608 -0.0041721088 -0.0076560475)
(0.033116109 -0.0059951747 -0.0084243939)
(0.037991239 -0.0080227778 -0.0091767544)
(0.043179785 -0.010220587 -0.010000405)
(0.048814984 -0.012578004 -0.010806427)
(0.054789724 -0.015087664 -0.01167659)
(0.06119179 -0.01768503 -0.012552359)
(0.067959017 -0.020407519 -0.013470655)
(0.075152165 -0.02316045 -0.014418394)
(0.082700761 -0.025965715 -0.015403931)
(0.09064923 -0.028766135 -0.016429551)
(0.098943657 -0.031536521 -0.017478593)
(0.10761209 -0.0342502 -0.018583629)
(0.11663452 -0.03686743 -0.019728888)
(0.12597857 -0.039372383 -0.020926123)
(0.13564206 -0.041734808 -0.022169592)
(0.14559791 -0.043936952 -0.023460299)
(0.1558244 -0.045948994 -0.024804573)
(0.16630627 -0.047758985 -0.026198668)
(0.17701046 -0.049350086 -0.027644524)
(0.18792633 -0.050702632 -0.0291453)
(0.19901892 -0.05183276 -0.030685972)
(0.21026799 -0.052700795 -0.032288302)
(0.22165893 -0.053345065 -0.033924949)
(0.23315337 -0.053742379 -0.035610628)
(0.24473881 -0.05391701 -0.037333469)
(0.25639984 -0.053878699 -0.039088761)
(0.26810339 -0.053638709 -0.040877331)
(0.2798419 -0.053229102 -0.042688773)
(0.29159133 -0.052659361 -0.044526856)
(0.30334141 -0.051967231 -0.046377124)
(0.31507345 -0.051175218 -0.048239752)
(0.32677677 -0.050308614 -0.050112212)
(0 -1.8502578e-19 0)
(0 1.0351209e-18 0)
(0 8.9513145e-19 0)
(0 7.8993782e-19 -2.7078045e-19)
(0 3.1206723e-19 0)
(0 -1.0960248e-20 0)
(0 1.51699e-19 0)
(0 5.684484e-20 0)
(0 -3.6935786e-19 0)
(0 -9.1057806e-19 0)
(0 -1.1312149e-18 -1.8783361e-19)
(0 -1.8545244e-19 0)
(0 2.2844385e-19 0)
(0 4.4126664e-19 0)
(0 3.5544163e-19 0)
(0 5.5986987e-19 0)
(0 1.0225297e-18 0)
(0 1.0252753e-18 5.1643337e-19)
(0 8.8349695e-19 0)
(0 1.0287363e-18 0)
(0 3.4836989e-19 0)
(-5.9702462e-18 2.8125605e-19 0)
(2.5427992e-18 -6.3677026e-19 0)
(-1.4789426e-19 -2.5589034e-19 0)
(4.590946e-19 -4.5075668e-19 -3.4206401e-19)
(-8.5753187e-19 -6.2930624e-19 0)
(-2.1948721e-18 -8.9956653e-19 0)
(3.3544027e-19 -7.4277975e-19 0)
(0 5.5285767e-19 0)
(0 1.9768565e-19 0)
(0 -3.8358307e-19 0)
(0 3.7394429e-20 9.7859608e-19)
(0 4.2179077e-19 0)
(0 6.1431835e-19 0)
(0 -1.7067812e-19 0)
(0 -4.454232e-19 0)
(0 -3.6415368e-19 0)
(0 8.565546e-20 0)
(0 4.2737378e-19 -9.7384254e-20)
(0 3.162079e-19 0)
(0 -1.1460577e-19 0)
(0 2.9590403e-19 0)
(0 5.4732457e-20 0)
(0 -3.2271289e-19 0)
(0 4.7246441e-19 0)
(0 3.0086754e-20 3.4583849e-19)
(0 4.6808412e-19 0)
(0 7.4024754e-19 0)
(0 6.7041539e-19 0)
(0.00044768767 -0.00033131894 -0.00056167373)
(0.00044788787 -0.00036282174 -0.00026895935)
(0.00046916041 -0.00033598625 -5.5727657e-05)
(0.00040863581 -0.00032767601 0.00011651805)
(0.00031807608 -0.00024969361 0.0002629424)
(0.0001919617 -0.000206849 0.00040151168)
(7.2687342e-06 -6.3061837e-05 0.0004992607)
(0.00070134771 -0.001673646 -0.0010673223)
(0.00084419037 -0.0015840789 -0.00057179788)
(0.00082328227 -0.001373577 -0.00017236649)
(0.00071048109 -0.0012050518 5.9846297e-05)
(0.00059599292 -0.0011274761 0.00033012101)
(0.0003325241 -0.00096949577 0.00057990497)
(6.4639451e-05 -0.00080379212 0.00086664845)
(0.0010290325 -0.0025962289 -0.001227861)
(0.0011324392 -0.0023827463 -0.00080101256)
(0.001180508 -0.0022256463 -0.00039086237)
(0.0010643463 -0.0020398785 -9.7467312e-06)
(0.00089873154 -0.0018326455 0.000313985)
(0.00059204097 -0.0017078729 0.00058964733)
(0.00025876309 -0.0014765111 0.00095515389)
(0.0017143915 -0.0037148572 -0.0016077632)
(0.0018938489 -0.0034637386 -0.0011250913)
(0.0018861261 -0.003182364 -0.00063661825)
(0.0018028387 -0.0029325388 -0.00024079054)
(0.0015766154 -0.0027256617 0.00013992584)
(0.0012897414 -0.0024529798 0.00052480134)
(0.00081815817 -0.0022552233 0.00087366681)
(0.0026787105 -0.0049046773 -0.0018384097)
(0.0027914898 -0.0045526867 -0.0013488122)
(0.0028277655 -0.004291262 -0.00088984616)
(0.0027118014 -0.0039841336 -0.00046231887)
(0.0025055535 -0.0036616964 -3.2801557e-05)
(0.0021351117 -0.003413637 0.00031171792)
(0.001710309 -0.003082156 0.00072056561)
(0.0038497122 -0.0059483866 -0.0022720963)
(0.003988571 -0.0055675902 -0.001744595)
(0.0039926985 -0.0051933618 -0.0012535544)
(0.0038961786 -0.0048351831 -0.00077216129)
(0.0036353698 -0.0045159133 -0.00034861829)
(0.0033086082 -0.0041479421 8.7308684e-05)
(0.0027893425 -0.0038377595 0.00046623702)
(0.0053810278 -0.0072525264 -0.0026107272)
(0.0055187489 -0.0068679888 -0.0021054349)
(0.0055643727 -0.0064367926 -0.0015858479)
(0.0054198523 -0.0060867751 -0.0011438599)
(0.0052007185 -0.0056461751 -0.00067580594)
(0.0047905022 -0.0052761797 -0.00026120015)
(0.004286022 -0.0048050565 0.00017295208)
(0.007132471 -0.0083498921 -0.003119042)
(0.0072552771 -0.0078401815 -0.0025459505)
(0.0072321952 -0.0073703087 -0.0020461498)
(0.0071518772 -0.0069130772 -0.0015385905)
(0.0068531582 -0.0064896002 -0.0010493418)
(0.0064841049 -0.0060328214 -0.00062267634)
(0.005954875 -0.0056338081 -0.00020282104)
(0.0092319358 -0.0096920099 -0.003558283)
(0.0093808931 -0.0092255746 -0.0030360555)
(0.0094394355 -0.0087888531 -0.0025031949)
(0.0092758703 -0.0082352669 -0.0019770648)
(0.0090344528 -0.0077247489 -0.0015083446)
(0.0085842353 -0.007217289 -0.0010312447)
(0.0080391123 -0.0066480051 -0.00055932751)
(0.011626686 -0.010929877 -0.004134381)
(0.011743427 -0.010294109 -0.0035544732)
(0.011723006 -0.0097309499 -0.0029708553)
(0.011604826 -0.0091967536 -0.0024975177)
(0.011274271 -0.0086433555 -0.0019461679)
(0.010871779 -0.0081090957 -0.0014924326)
(0.010285468 -0.0076242714 -0.0010409905)
(0.014330419 -0.012287327 -0.0046924656)
(0.01447994 -0.011731693 -0.0041096903)
(0.014530646 -0.011196224 -0.0035873382)
(0.014366698 -0.010615979 -0.0030046172)
(0.014116426 -0.010009169 -0.0024735654)
(0.013641617 -0.0094407134 -0.0020151582)
(0.013073645 -0.0087769945 -0.0014536583)
(0.017413074 -0.013667995 -0.0053051489)
(0.017529285 -0.012995055 -0.0046961306)
(0.017488893 -0.012306144 -0.0041121608)
(0.017337608 -0.011615765 -0.0035273342)
(0.016991734 -0.010968127 -0.0030358875)
(0.016517928 -0.010318545 -0.002496379)
(0.015921836 -0.0097210118 -0.001980134)
(0.020800849 -0.015078237 -0.005959615)
(0.020930277 -0.014413468 -0.0053497861)
(0.020964137 -0.013792543 -0.004754964)
(0.020799098 -0.013161494 -0.004190188)
(0.020478972 -0.0124755 -0.0035811331)
(0.020008926 -0.01183806 -0.0030968195)
(0.019365353 -0.011082046 -0.0025095317)
(0.024546006 -0.016539687 -0.0066296944)
(0.024648642 -0.015795049 -0.0059738633)
(0.024648009 -0.015061601 -0.0053898622)
(0.024414524 -0.014249665 -0.0047474273)
(0.02411166 -0.013524932 -0.0042309689)
(0.023554317 -0.012750343 -0.003678303)
(0.022939772 -0.012073344 -0.0031211385)
(0.028669865 -0.018058377 -0.0073219627)
(0.028795175 -0.017315484 -0.0067072418)
(0.028776348 -0.016554614 -0.0060621569)
(0.02862463 -0.015859156 -0.0054856556)
(0.028245164 -0.015071977 -0.0048705672)
(0.027763031 -0.014371994 -0.0043281524)
(0.027073259 -0.013520531 -0.0037200567)
(0.033158107 -0.019594964 -0.0080770147)
(0.033222003 -0.018751892 -0.0073919488)
(0.033262511 -0.017990642 -0.0067838497)
(0.032971767 -0.017088554 -0.0061294437)
(0.032671772 -0.016288714 -0.0055530507)
(0.032070208 -0.015399597 -0.0049946573)
(0.031415369 -0.014641488 -0.0044101577)
(0.03802348 -0.021185576 -0.0088058814)
(0.038165108 -0.020388354 -0.0081706033)
(0.038092997 -0.0195048 -0.0075161155)
(0.037926968 -0.018712744 -0.0068960318)
(0.037515744 -0.017818358 -0.0062919808)
(0.036990467 -0.017044826 -0.0057209796)
(0.036269391 -0.016102281 -0.0050962573)
(0.04331736 -0.022814411 -0.0096214178)
(0.043336073 -0.021873541 -0.0089354383)
(0.043376356 -0.021041447 -0.0082893689)
(0.043063954 -0.020073008 -0.0076463324)
(0.042732576 -0.019199493 -0.0070344471)
(0.042112102 -0.018222322 -0.0064649787)
(0.041417561 -0.017364476 -0.0058584374)
(0.048946903 -0.024454386 -0.01041059)
(0.049076366 -0.023580806 -0.0097440028)
(0.048980709 -0.022615343 -0.0091055727)
(0.048774958 -0.021720392 -0.0084540377)
(0.048351091 -0.020726016 -0.0078527552)
(0.047779098 -0.019846461 -0.0072737176)