/*--------------------------------*- C++ -*----------------------------------*\
  =========                 |
  \\      /  F ield         | OpenFOAM: The Open Source CFD Toolbox
   \\    /   O peration     | Website:  https://openfoam.org
    \\  /    A nd           | Version:  6
     \\/     M anipulation  |
\*---------------------------------------------------------------------------*/
FoamFile
{
    version     2.0;
    format      ascii;
    class       pointVectorField;
    location    "1.95";
    object      u;
}
// * * * * * * * * * * * * * * * * * * * * * * * * * * * * * * * * * * * * * //

dimensions      [0 1 0 0 0 0 0];

internalField   nonuniform List<vector> 
28033
(
(0 0 0)
(0 0 0)
(0.40022595 0.040229025 -0.0063887432)
(0.39434232 -0.067326379 -0.0076951681)
(0 0 0)
(0 0 0)
(0.39549127 -0.066654465 -0.0075822606)
(0.4014024 0.040845804 -0.0066763607)
(0 0 0)
(0 0 0)
(0 0 0)
(0 0 0)
(0 0 0)
(0 0 0)
(0 0 0)
(0 0 0)
(0 0 0)
(0 0 0)
(0 0 0)
(0 0 0)
(0 0 0)
(0 0 0)
(0 0 0)
(0.39973563 0.032935825 -0.0067266102)
(0.39917327 0.026070559 -0.0068050974)
(0.39862428 0.019337967 -0.0069276136)
(0.39815277 0.012679158 -0.0069719055)
(0.39769984 0.0060975367 -0.0070133629)
(0.39727385 -0.00043932849 -0.007035084)
(0.39688825 -0.0069445812 -0.0070425132)
(0.39652927 -0.01343956 -0.0070415206)
(0.39619916 -0.019934449 -0.0070489527)
(0.39589264 -0.026460816 -0.0070514414)
(0.39561344 -0.03300788 -0.0070781319)
(0.39534443 -0.03962989 -0.0071289714)
(0.39511629 -0.046305396 -0.0071938221)
(0.39485406 -0.053104366 -0.0072804243)
(0.39466846 -0.060036161 -0.0074487081)
(0.00074481744 0.0013342774 0.0014387961)
(0.00078417371 0.0020357773 0.0020730834)
(0.0009452157 0.0027792856 0.0025153196)
(0.0012527815 0.0036032639 0.0028076936)
(0.0016553273 0.0044210304 0.0029927191)
(0.0022104438 0.0052855713 0.0031230819)
(0.002888474 0.0061731174 0.0031813543)
(0.0037054163 0.007052975 0.0032238298)
(0.0046429267 0.0079667264 0.0032254164)
(0.0057205639 0.0088621268 0.0032200451)
(0.0069077187 0.0097784526 0.0031840122)
(0.0082294242 0.010675282 0.0031563589)
(0.0096638621 0.011586877 0.0031036268)
(0.011227298 0.012475906 0.0030589613)
(0.012900486 0.013373665 0.0029945412)
(0.01469955 0.014246639 0.0029369446)
(0.016607556 0.015125443 0.002865706)
(0.018640543 0.015976902 0.0028017937)
(0.020780256 0.016831271 0.0027167098)
(0.023040891 0.017656867 0.0026408815)
(0.025406037 0.018483673 0.0025540082)
(0.027890113 0.019277512 0.0024618943)
(0.030477623 0.020070407 0.0023673307)
(0.033177682 0.020834421 0.0022680891)
(0.035979706 0.021588734 0.0021581644)
(0.038888024 0.022315823 0.0020499274)
(0.041895485 0.023031431 0.0019339356)
(0.045003834 0.02372071 0.0018141371)
(0.048208669 0.024393488 0.0016868008)
(0.051506996 0.025040277 0.0015609557)
(0.054896373 0.025673402 0.0014262915)
(0.058373934 0.026274344 0.001289154)
(0.06193487 0.026865264 0.0011521289)
(0.065583251 0.027420931 0.0010092831)
(0.069308882 0.027967667 0.00086477584)
(0.07311201 0.02848065 0.00071544131)
(0.076988074 0.028980282 0.00056918136)
(0.080938493 0.029454394 0.00041849074)
(0.084955072 0.029906019 0.00026301919)
(0.089040467 0.030340569 0.00010939992)
(0.09318776 0.030751065 -4.7236344e-05)
(0.097395676 0.031144571 -0.00020380122)
(0.10166499 0.031518049 -0.00036370478)
(0.10599106 0.031874344 -0.00052360481)
(0.11037094 0.032211515 -0.00068486146)
(0.11480505 0.032533672 -0.00084721557)
(0.11928803 0.032840005 -0.001009221)
(0.12382181 0.033131534 -0.0011723002)
(0.12840025 0.033410568 -0.0013340508)
(0.13302593 0.033676506 -0.0014954371)
(0.13769289 0.033932722 -0.0016547979)
(0.14240326 0.034177543 -0.0018120076)
(0.14715244 0.034416066 -0.0019659341)
(0.15194144 0.034644764 -0.0021159356)
(0.15676741 0.034870417 -0.0022612894)
(0.16163053 0.035088697 -0.0024008338)
(0.16652935 0.035305973 -0.0025343732)
(0.17146407 0.035519366 -0.00266068)
(0.17643398 0.035733549 -0.0027797459)
(0.18144 0.03594644 -0.0028905959)
(0.1864822 0.036162362 -0.0029935246)
(0.19156234 0.036379676 -0.0030881539)
(0.19668029 0.036601448 -0.0031742898)
(0.20184121 0.036825387 -0.0032534362)
(0.2070423 0.037057222 -0.0033236476)
(0.21229084 0.037291708 -0.0033893086)
(0.2175875 0.037531008 -0.0034480506)
(0.22293379 0.037777819 -0.0035017126)
(0.22833447 0.038027472 -0.003551213)
(0.23379272 0.03828408 -0.0035961627)
(0.23931257 0.038543596 -0.003642199)
(0.24489444 0.038800982 -0.0036835717)
(0.25054531 0.039070952 -0.0037310791)
(0.25626501 0.039321365 -0.0037730762)
(0.26205705 0.039598563 -0.003827577)
(0.26792696 0.039830777 -0.0038732486)
(0.27386641 0.040107646 -0.0039391366)
(0.2798953 0.040313835 -0.0039927082)
(0.28598643 0.040575925 -0.0040719659)
(0.2921753 0.040753117 -0.0041367277)
(0.29842408 0.040978721 -0.0042324846)
(0.30476331 0.041125878 -0.0043092484)
(0.31117094 0.04129742 -0.0044207573)
(0.31765044 0.041402718 -0.0045125431)
(0.32420526 0.041510571 -0.0046361171)
(0.33082078 0.041570263 -0.0047499686)
(0.33750944 0.041592081 -0.0048832346)
(0.34424113 0.041593056 -0.0050113394)
(0.35104376 0.041539768 -0.0051632449)
(0.35787408 0.041473664 -0.005303404)
(0.36476935 0.041315197 -0.0054466683)
(0.37168294 0.041237026 -0.0056302394)
(0.37864595 0.040978862 -0.005732282)
(0.38567483 0.040828122 -0.0059234953)
(0.39269212 0.040630511 -0.0060264616)
(0.00039126436 -0.0013450064 -0.0016762237)
(0.00068370298 -0.0019454596 -0.0019440845)
(0.00085574051 -0.002771932 -0.0025328663)
(0.001041887 -0.0034548615 -0.002801522)
(0.0014866856 -0.0043194112 -0.0030344996)
(0.0019864047 -0.0051611294 -0.0032028407)
(0.0026349391 -0.0060129267 -0.003320852)
(0.003417544 -0.0068988306 -0.0034086947)
(0.0043305691 -0.0077841583 -0.0034750221)
(0.0053611818 -0.0086749758 -0.0035242216)
(0.0065211308 -0.009572886 -0.0035658776)
(0.0077989149 -0.010469974 -0.0035962395)
(0.0091982446 -0.011367142 -0.0036230512)
(0.01071554 -0.012268782 -0.0036479463)
(0.012347042 -0.013159169 -0.0036675424)
(0.014098955 -0.014058651 -0.0036882897)
(0.015958264 -0.014942034 -0.0037064486)
(0.017940297 -0.015832257 -0.0037209854)
(0.020028688 -0.016712368 -0.0037411943)
(0.022229839 -0.017586401 -0.0037558744)
(0.024543946 -0.018455771 -0.0037703054)
(0.026964812 -0.019321438 -0.0037896376)
(0.029490136 -0.020169904 -0.0038026878)
(0.032129009 -0.021023597 -0.0038195131)
(0.034862058 -0.021857022 -0.003837267)
(0.037705398 -0.022686875 -0.0038507066)
(0.040643839 -0.02350612 -0.0038721434)
(0.043682807 -0.024311942 -0.0038860713)
(0.046816559 -0.025111063 -0.0039086201)
(0.050042938 -0.025892671 -0.0039251178)
(0.053362345 -0.026670564 -0.0039477992)
(0.056767231 -0.027428172 -0.003970167)
(0.060260796 -0.028180235 -0.003995005)
(0.063834543 -0.028913825 -0.0040218108)
(0.067492646 -0.029640556 -0.0040502652)
(0.071221931 -0.030347226 -0.0040852453)
(0.075032595 -0.031046959 -0.0041163733)
(0.078910918 -0.031731169 -0.0041576375)
(0.082861168 -0.032404076 -0.0041991254)
(0.086875451 -0.033062266 -0.0042468899)
(0.090957493 -0.033711101 -0.0042977776)
(0.0950967 -0.03434421 -0.0043550558)
(0.099299353 -0.034968667 -0.0044161069)
(0.10355473 -0.03557853 -0.0044838777)
(0.10786785 -0.036179383 -0.0045561886)
(0.11223056 -0.036767414 -0.0046348799)
(0.11664557 -0.03734618 -0.004718752)
(0.121107 -0.037913817 -0.0048086058)
(0.12561645 -0.038472885 -0.0049036653)
(0.13016895 -0.039022068 -0.0050043641)
(0.13476596 -0.039564068 -0.0051098933)
(0.13940317 -0.04009802 -0.0052205846)
(0.14408166 -0.040626111 -0.005335614)
(0.14879833 -0.041148661 -0.0054550854)
(0.15355365 -0.041667393 -0.0055783881)
(0.1583455 -0.04218294 -0.0057053967)
(0.16317461 -0.04269763 -0.0058355735)
(0.16803935 -0.043211948 -0.0059686626)
(0.17294052 -0.043728137 -0.0061045067)
(0.17787814 -0.044247775 -0.0062420556)
(0.1828522 -0.044771851 -0.0063820895)
(0.18786446 -0.04530312 -0.006522644)
(0.19291516 -0.045841713 -0.006665069)
(0.19800682 -0.046391042 -0.0068067481)
(0.20313994 -0.046949756 -0.0069497743)
(0.20831879 -0.04752337 -0.0070901188)
(0.21354361 -0.048107136 -0.0072310638)
(0.21881823 -0.048708453 -0.0073681421)
(0.2241461 -0.049321626 -0.0075044247)
(0.22952878 -0.049951222 -0.007632649)
(0.23497175 -0.05059765 -0.0077593969)
(0.24047534 -0.051256232 -0.0078789109)
(0.24604672 -0.051932707 -0.007991566)
(0.25168288 -0.052619514 -0.0080975369)
(0.25739505 -0.053322803 -0.0081919381)
(0.26317584 -0.054033496 -0.0082806827)
(0.26903724 -0.054758245 -0.0083540232)
(0.27497294 -0.055486 -0.008420768)
(0.28099036 -0.056224615 -0.0084713626)
(0.28708546 -0.056961131 -0.0085130095)
(0.29326237 -0.057703837 -0.0085391515)
(0.29951799 -0.058439963 -0.0085545395)
(0.30585164 -0.059175216 -0.0085557759)
(0.31226408 -0.059900544 -0.0085452243)
(0.31874751 -0.060616116 -0.0085233298)
(0.32530612 -0.061319794 -0.0084887983)
(0.33192857 -0.06200444 -0.0084457443)
(0.33861702 -0.062672647 -0.0083937876)
(0.34536181 -0.06332026 -0.0083318665)
(0.3521633 -0.06394268 -0.0082673404)
(0.3590075 -0.06454124 -0.00819685)
(0.36590723 -0.065122087 -0.0081244926)
(0.37283937 -0.065682162 -0.0080409804)
(0.37984921 -0.066210538 -0.0079793072)
(0.3869258 -0.066796092 -0.0078642082)
(0 0 0)
(0 0 0)
(0 0 0)
(0 0 0)
(0 0 0)
(0 0 0)
(0 0 0)
(0 0 0)
(0 0 0)
(0 0 0)
(0 0 0)
(0 0 0)
(0 0 0)
(0 0 0)
(0 0 0)
(0.00071783594 -0.00053162813 0.0011571363)
(0.00071627955 -0.0020874365 0.0018849189)
(0.00069718667 -0.0023031513 0.00220614)
(0.0010461464 -0.003388479 0.0026107514)
(0.0013663234 -0.0040052718 0.0027458991)
(0.0019355646 -0.004864087 0.0028559052)
(0.0025794193 -0.0056694809 0.0028990243)
(0.0033992404 -0.0065187766 0.0029318944)
(0.0043136387 -0.0073510576 0.0029052609)
(0.0053712377 -0.008218951 0.0028877204)
(0.0065613632 -0.0090848271 0.0028447226)
(0.0078299197 -0.0099213583 0.0027958083)
(0.0092707745 -0.010814101 0.0027350503)
(0.010776943 -0.011647989 0.0026732512)
(0.012448676 -0.012534678 0.0025966985)
(0.014194103 -0.013369874 0.0025290133)
(0.016074973 -0.014231856 0.0024452889)
(0.018068658 -0.015084392 0.0023609218)
(0.020164469 -0.015918744 0.0022731032)
(0.022389778 -0.016771808 0.0021743417)
(0.024705396 -0.017588698 0.0020836478)
(0.027138729 -0.018416105 0.0019745591)
(0.029681584 -0.019237082 0.0018679968)
(0.032332162 -0.02004603 0.0017529383)
(0.035078623 -0.020839143 0.0016349985)
(0.037941537 -0.021640059 0.00151047)
(0.040882671 -0.022398652 0.0013824081)
(0.043949663 -0.023193851 0.0012491173)
(0.047085583 -0.023925078 0.0011107982)
(0.05033708 -0.024696247 0.00097126968)
(0.053664563 -0.025413721 0.00082325547)
(0.057091024 -0.026150224 0.00067715936)
(0.060593461 -0.026849225 0.00052276437)
(0.064188854 -0.027558069 0.00036951399)
(0.067856558 -0.028238019 0.00021209233)
(0.071605334 -0.028908097 5.2393392e-05)
(0.075426775 -0.029572793 -0.00011047167)
(0.079326449 -0.030223558 -0.00027231484)
(0.083288449 -0.030854253 -0.00043902272)
(0.087324331 -0.031483265 -0.00060488479)
(0.091420247 -0.032091251 -0.00077474185)
(0.095582329 -0.032696678 -0.00094337388)
(0.099801976 -0.033283887 -0.0011162053)
(0.10408198 -0.033868073 -0.0012872413)
(0.10841558 -0.034436667 -0.0014621195)
(0.11280505 -0.035002629 -0.0016349683)
(0.11724422 -0.035555596 -0.0018106574)
(0.12173446 -0.036106346 -0.0019840178)
(0.12627116 -0.03664736 -0.0021587936)
(0.13085426 -0.037186603 -0.0023304556)
(0.13548029 -0.037719257 -0.0025017476)
(0.14014903 -0.038251314 -0.0026691334)
(0.14485728 -0.038779684 -0.002833843)
(0.14960474 -0.039308817 -0.0029936336)
(0.15438923 -0.039837557 -0.0031485808)
(0.15921006 -0.040368483 -0.0032973215)
(0.16406598 -0.040902103 -0.0034393173)
(0.16895675 -0.041440099 -0.0035739325)
(0.17388162 -0.04198337 -0.0037004323)
(0.17884111 -0.042533533 -0.0038186257)
(0.18383526 -0.043091606 -0.0039280865)
(0.18886526 -0.043658913 -0.0040289605)
(0.19393203 -0.0442367 -0.0041210985)
(0.19903749 -0.044825963 -0.0042052062)
(0.20418356 -0.045427829 -0.004281485)
(0.20937242 -0.046043034 -0.0043508228)
(0.21460791 -0.046673917 -0.0044139997)
(0.21989076 -0.047316383 -0.0044718645)
(0.22522543 -0.047974557 -0.0045280638)
(0.23061822 -0.048652459 -0.0045779481)
(0.23606661 -0.049340537 -0.0046277237)
(0.24157837 -0.050045921 -0.0046773938)
(0.24715522 -0.05076426 -0.0047284472)
(0.25280079 -0.051496978 -0.0047808943)
(0.2585173 -0.05224037 -0.0048375789)
(0.26430829 -0.052995448 -0.0048978979)
(0.27017473 -0.053758117 -0.0049642281)
(0.27611938 -0.054527984 -0.0050359213)
(0.28214253 -0.055301969 -0.0051150362)
(0.28824519 -0.056077158 -0.005200459)
(0.2944272 -0.056852139 -0.0052946042)
(0.30068848 -0.057622298 -0.0053953415)
(0.30702694 -0.058386238 -0.0055052784)
(0.31344207 -0.059139745 -0.0056220133)
(0.31993008 -0.059880086 -0.0057477243)
(0.32648925 -0.060605165 -0.0058792602)
(0.33311395 -0.061308904 -0.0060199536)
(0.33980327 -0.061994986 -0.0061641713)
(0.34654739 -0.062651085 -0.0063172796)
(0.35334874 -0.063289492 -0.006470606)
(0.36019195 -0.063890962 -0.0066335734)
(0.36709045 -0.06448151 -0.0067903982)
(0.37401679 -0.065033853 -0.0069622122)
(0.38103422 -0.065584501 -0.0071232289)
(0.38806331 -0.06617024 -0.0073195195)
(0.39586132 -0.059364768 -0.0076748778)
(0.39605227 -0.052493134 -0.0077046398)
(0.39627455 -0.04565884 -0.0076553928)
(0.39652461 -0.039007819 -0.0076049777)
(0.39678207 -0.032381441 -0.0074927438)
(0.39705876 -0.025841842 -0.0073940074)
(0.39736283 -0.019322318 -0.007252377)
(0.39768476 -0.01282261 -0.0071238014)
(0.39805922 -0.0063407 -0.0069919549)
(0.39842504 0.00017156816 -0.0068586684)
(0.39886001 0.0067026477 -0.0067507693)
(0.39930483 0.013283759 -0.0066546098)
(0.39979851 0.019930955 -0.0065736103)
(0.40026964 0.026688679 -0.0065398132)
(0.40091934 0.033511562 -0.0065341945)
(0.39391501 0.04125487 -0.0069314954)
(0.38679559 0.041398074 -0.0069907295)
(0.37978973 0.041630587 -0.0070792814)
(0.37280808 0.041817789 -0.0071423012)
(0.36587044 0.04197986 -0.0072294625)
(0.35896908 0.042107555 -0.0073051842)
(0.35211039 0.042201442 -0.0073805349)
(0.34529681 0.042262303 -0.0074532158)
(0.33853749 0.042285976 -0.0075158943)
(0.33183481 0.042281166 -0.0075746776)
(0.32519514 0.042241538 -0.0076206697)
(0.31862235 0.042175875 -0.0076585395)
(0.31211961 0.042081468 -0.007684149)
(0.305689 0.041964994 -0.0077010668)
(0.29933623 0.041825401 -0.0077035979)
(0.2930617 0.041668052 -0.0076942559)
(0.28686712 0.041494192 -0.0076710611)
(0.28075143 0.041306276 -0.0076363127)
(0.27471544 0.041108807 -0.0075895683)
(0.2687584 0.040901004 -0.0075311104)
(0.26287795 0.040689636 -0.0074623617)
(0.25707401 0.040471854 -0.0073832658)
(0.25134193 0.040255454 -0.007295736)
(0.24568217 0.040035654 -0.0071994232)
(0.2400881 0.039820951 -0.0070964102)
(0.23456046 0.039606192 -0.0069881289)
(0.22909095 0.039399184 -0.006873244)
(0.22368981 0.039185156 -0.0067509763)
(0.21833402 0.038991374 -0.0066305577)
(0.21303389 0.038791826 -0.0065058322)
(0.20778272 0.038600273 -0.0063793204)
(0.20257805 0.038411308 -0.0062517015)
(0.19741705 0.038226031 -0.0061237232)
(0.19229833 0.038041859 -0.005996058)
(0.18721946 0.037859216 -0.0058691962)
(0.18217923 0.037675468 -0.0057434402)
(0.1771764 0.037490271 -0.0056197238)
(0.17221021 0.037301209 -0.0054977511)
(0.16728022 0.037107805 -0.0053786647)
(0.16238612 0.036907449 -0.0052620772)
(0.15752827 0.036699933 -0.0051491557)
(0.15270685 0.036482508 -0.0050392165)
(0.14792269 0.036255337 -0.0049338802)
(0.14317649 0.036015485 -0.004831917)
(0.13846952 0.035763783 -0.0047353419)
(0.13380284 0.035496848 -0.004642523)
(0.1291781 0.035216398 -0.004555756)
(0.12459663 0.034918544 -0.004472988)
(0.12006046 0.034605815 -0.0043967927)
(0.11557115 0.034273856 -0.0043245399)
(0.11113098 0.033925917 -0.0042592204)
(0.10674171 0.033557345 -0.0041977274)
(0.10240588 0.033171557 -0.0041428568)
(0.098126407 0.032763804 -0.0040916121)
(0.09390359 0.032339048 -0.0040472034)
(0.089743088 0.031889767 -0.0040048509)
(0.08564356 0.031425263 -0.0039695717)
(0.081609868 0.030932727 -0.0039357988)
(0.077654401 0.030420183 -0.0039052846)
(0.073755743 0.029889412 -0.003880231)
(0.069935623 0.0293352 -0.0038593078)
(0.066206721 0.028750707 -0.0038342359)
(0.062539199 0.028157841 -0.0038185046)
(0.058963129 0.027533183 -0.0038009963)
(0.055467025 0.026890338 -0.0037883568)
(0.052074255 0.026218378 -0.0037739966)
(0.048750913 0.025537533 -0.0037611623)
(0.045547585 0.0248178 -0.0037480433)
(0.042416228 0.024097014 -0.0037425821)
(0.039397861 0.02334321 -0.0037309574)
(0.036473199 0.022576796 -0.0037246982)
(0.033652905 0.021787455 -0.003716426)
(0.030950085 0.020975787 -0.0037062522)
(0.028337287 0.020157992 -0.0037022713)
(0.025837065 0.019320731 -0.0036954838)
(0.023464514 0.018454503 -0.0036859017)
(0.02117583 0.017599509 -0.0036830378)
(0.019034256 0.016701885 -0.0036712541)
(0.016973327 0.015822797 -0.0036677326)
(0.015059889 0.014903318 -0.0036564912)
(0.013250636 0.013988811 -0.0036452142)
(0.011553223 0.013071915 -0.0036386408)
(0.0099777767 0.012138715 -0.0036217004)
(0.0085395121 0.011192497 -0.0036038027)
(0.0072035122 0.010258251 -0.0035801409)
(0.0059952667 0.0093191268 -0.0035522166)
(0.0049293196 0.0083561132 -0.0035033561)
(0.0039688978 0.0074397942 -0.0034521307)
(0.0031492695 0.0064931425 -0.003363204)
(0.0024497767 0.0055866684 -0.0032579937)
(0.001901228 0.0046509418 -0.0030825011)
(0.0014897157 0.0037759678 -0.0028492996)
(0.0011992472 0.0029606555 -0.0025461978)
(0.0010094497 0.0020889588 -0.0019811736)
(0.0012458015 0.0013434924 -0.0011246902)
(0 0 0)
(0 0 0)
(0 0 0)
(0 0 0)
(0 0 0)
(0 0 0)
(0 0 0)
(0 0 0)
(0 0 0)
(0 0 0)
(0 0 0)
(0 0 0)
(0 0 0)
(0 0 0)
(0 0 0)
(0 0 0)
(0 0 0)
(0 0 0)
(0 0 0)
(0 0 0)
(0 0 0)
(0 0 0)
(0 0 0)
(0 0 0)
(0 0 0)
(0 0 0)
(0 0 0)
(0 0 0)
(0 0 0)
(0 0 0)
(0.39450063 -0.067445232 -0.0077092754)
(0.39461094 -0.067489502 -0.0077204808)
(0.3947033 -0.067493076 -0.0077296206)
(0.39480075 -0.067491009 -0.007725916)
(0.39489337 -0.067474841 -0.0077166567)
(0.39498231 -0.067449918 -0.0076947238)
(0.39506365 -0.06741598 -0.0076724572)
(0.3951394 -0.067375784 -0.0076412111)
(0.39520947 -0.067331642 -0.0076144594)
(0.39526936 -0.067280091 -0.0075892488)
(0.39533705 -0.067231712 -0.0075650783)
(0.39538146 -0.067157518 -0.0075542787)
(0.39543801 -0.067091045 -0.0075486508)
(0.39548291 -0.066996307 -0.0075527496)
(0.39553909 -0.066905267 -0.0075712191)
(0.40045251 0.040451422 -0.0064015764)
(0.40056021 0.040526608 -0.0063825193)
(0.4006587 0.040608224 -0.0064044686)
(0.4007687 0.040680272 -0.0064228307)
(0.40085588 0.040733845 -0.0064450631)
(0.40094903 0.040785704 -0.006482916)
(0.40103362 0.040837565 -0.0065166316)
(0.40111249 0.040881134 -0.0065575634)
(0.40118435 0.040923937 -0.006595129)
(0.40124795 0.040961527 -0.0066281682)
(0.40130668 0.040990004 -0.0066580851)
(0.40135585 0.041012836 -0.0066798891)
(0.40140622 0.041031371 -0.0066781129)
(0.40144362 0.041001431 -0.0067076586)
(0.40149855 0.041033085 -0.0066853015)
(0.00036547608 0.0011161427 0.0014819927)
(0.00047951042 0.0017827918 0.0017924042)
(0.00062394257 0.0025169262 0.0022123887)
(0.00092092199 0.003228169 0.0024154255)
(0.0012972559 0.0039430744 0.0026073178)
(0.0018476067 0.0046831384 0.0026939797)
(0.0025130242 0.0054422768 0.0027599797)
(0.0033203437 0.0062004095 0.0027919454)
(0.0042540447 0.0069928267 0.0027922572)
(0.0053211881 0.0077635775 0.0027819466)
(0.0065055394 0.0085597798 0.0027572468)
(0.0078271276 0.0093394136 0.0027200773)
(0.0092578374 0.010132307 0.0026769803)
(0.010816423 0.010903263 0.0026288773)
(0.012489825 0.011683847 0.0025728411)
(0.0142911 0.01244529 0.0025120255)
(0.016196806 0.013205912 0.002451129)
(0.01822795 0.013948896 0.0023803361)
(0.020368818 0.014684921 0.0023089423)
(0.022631705 0.015407348 0.0022310222)
(0.024995249 0.016116355 0.0021504181)
(0.027483453 0.016807448 0.0020644161)
(0.030069468 0.017492545 0.0019732075)
(0.032769994 0.018150456 0.0018783201)
(0.035574145 0.018801384 0.0017763669)
(0.038484633 0.019428971 0.0016739472)
(0.041492456 0.020045835 0.0015619287)
(0.044602512 0.020636049 0.0014505725)
(0.047809273 0.021215892 0.0013308898)
(0.05110891 0.021773354 0.0012105385)
(0.054499205 0.022310889 0.0010833988)
(0.057982189 0.022832073 0.00095542517)
(0.061546405 0.023332281 0.00082415706)
(0.065195494 0.02381188 0.00068956431)
(0.068922787 0.024275554 0.00055084361)
(0.072729145 0.024714455 0.00041319432)
(0.076609439 0.025140867 0.00027063415)
(0.08055898 0.025542181 0.00012590927)
(0.084581061 0.025928196 -1.8875864e-05)
(0.088667244 0.026296464 -0.00016675503)
(0.092818008 0.026644866 -0.00031477134)
(0.097029949 0.026973864 -0.0004662238)
(0.10130054 0.027291811 -0.00061863108)
(0.10562958 0.027588256 -0.00077239381)
(0.11001083 0.027873023 -0.00092783327)
(0.1144461 0.028142259 -0.0010830921)
(0.11893103 0.028397882 -0.0012407432)
(0.12346466 0.028641505 -0.0013969936)
(0.12804459 0.028873502 -0.0015543531)
(0.13266955 0.029094987 -0.0017102305)
(0.137337 0.02930759 -0.0018654609)
(0.14204621 0.029511454 -0.0020180031)
(0.14679473 0.029708849 -0.0021686815)
(0.15158205 0.029899592 -0.0023151166)
(0.15640628 0.030086348 -0.0024581863)
(0.161267 0.030268147 -0.0025955645)
(0.166163 0.03044842 -0.002728051)
(0.17109444 0.030625826 -0.0028538606)
(0.17606055 0.030803132 -0.0029732947)
(0.18106223 0.030979767 -0.003085284)
(0.1860997 0.03115775 -0.0031904606)
(0.19117405 0.03133683 -0.0032877979)
(0.19628679 0.03151767 -0.0033778378)
(0.20144017 0.031700474 -0.0034607578)
(0.20663413 0.031888378 -0.0035378382)
(0.2118758 0.032074573 -0.0036069057)
(0.2171655 0.032268331 -0.0036710601)
(0.22250217 0.032460514 -0.0037299032)
(0.22789543 0.032657218 -0.0037831459)
(0.23334422 0.032853474 -0.0038363168)
(0.23885614 0.03305189 -0.0038881575)
(0.24442887 0.033248282 -0.0039372797)
(0.25007312 0.033446926 -0.0039889001)
(0.25578329 0.033635464 -0.0040385411)
(0.26156983 0.033830372 -0.0040936477)
(0.26743072 0.03400222 -0.0041472076)
(0.27336642 0.034188824 -0.0042104717)
(0.27938632 0.034334286 -0.0042693223)
(0.28547622 0.034504019 -0.0043445478)
(0.29165846 0.034618834 -0.0044117367)
(0.29790418 0.034751755 -0.0044977731)
(0.30424453 0.034839465 -0.0045790991)
(0.31064832 0.03491893 -0.0046758082)
(0.31713178 0.034964971 -0.0047712244)
(0.32368339 0.034996639 -0.0048835863)
(0.33030797 0.034984755 -0.0049897165)
(0.33699741 0.034951236 -0.0051106495)
(0.3437392 0.034887629 -0.0052368534)
(0.35054437 0.034792221 -0.0053678884)
(0.35738657 0.034641223 -0.0054925468)
(0.36428393 0.034507705 -0.0056588887)
(0.37120636 0.034290337 -0.0057823444)
(0.37818603 0.034018559 -0.0059514197)
(0.38520182 0.033807231 -0.0061421418)
(0.39230709 0.033344886 -0.0063506757)
(9.2095542e-06 0.00098351151 0.0013044629)
(9.4185939e-05 0.001384086 0.0016145669)
(0.00031977678 0.0021185235 0.0019070711)
(0.00057210984 0.0027115839 0.0021148765)
(0.00098576825 0.0033564488 0.0022317121)
(0.0015168395 0.0040000424 0.0023118668)
(0.0021766825 0.0046580018 0.0023585445)
(0.0029852053 0.005318418 0.0023791519)
(0.0039154305 0.0059945376 0.0023672844)
(0.0049747239 0.0066556989 0.0023696817)
(0.0061645384 0.0073395386 0.0023252302)
(0.0074795097 0.0080070021 0.0023010497)
(0.0089076655 0.0086815132 0.0022509514)
(0.010467336 0.0093433438 0.0022116253)
(0.012144137 0.010010094 0.0021474699)
(0.013936477 0.010657142 0.0021017566)
(0.015847724 0.011308744 0.0020303489)
(0.017876609 0.011937565 0.0019735689)
(0.020020676 0.012569467 0.0018976388)
(0.022276987 0.013175706 0.0018295899)
(0.024647953 0.013783292 0.0017477977)
(0.027129249 0.014366796 0.0016684201)
(0.029719933 0.014947492 0.0015795497)
(0.032419348 0.015502385 0.0014923509)
(0.035226021 0.016053537 0.0013954171)
(0.038134655 0.016581209 0.0012965363)
(0.041145317 0.017100436 0.0011925346)
(0.044255888 0.0175959 0.0010873149)
(0.047463789 0.018084612 0.00097299846)
(0.050764124 0.018546446 0.00085986318)
(0.054158399 0.01900174 0.0007405073)
(0.057640154 0.019431385 0.00061891803)
(0.061204562 0.019851154 0.00049446194)
(0.064856742 0.020248709 0.00036537837)
(0.068585613 0.020632437 0.00023756128)
(0.072394185 0.020996843 0.00010314532)
(0.076275475 0.021346547 -3.1557095e-05)
(0.080230046 0.021676357 -0.00016740387)
(0.0842513 0.021992367 -0.000306859)
(0.08833954 0.022291949 -0.00044826267)
(0.09249007 0.022574079 -0.00059027164)
(0.096702724 0.022843428 -0.00073436577)
(0.10097639 0.023096062 -0.00088315194)
(0.10530308 0.023335429 -0.0010290761)
(0.10968589 0.023562693 -0.0011792248)
(0.11412131 0.023775805 -0.0013296327)
(0.11860559 0.023978405 -0.0014808086)
(0.1231391 0.024169667 -0.0016325593)
(0.12771812 0.024351656 -0.001784777)
(0.13234191 0.024524024 -0.0019361309)
(0.13700775 0.024689831 -0.0020867778)
(0.14171517 0.024846943 -0.0022357617)
(0.14646113 0.025000328 -0.0023825135)
(0.15124604 0.025146608 -0.0025263077)
(0.15606684 0.02529087 -0.0026664741)
(0.16092431 0.025430056 -0.0028021467)
(0.16581631 0.025569022 -0.0029333302)
(0.1707436 0.025704186 -0.0030583162)
(0.17570492 0.025840677 -0.0031778832)
(0.180702 0.025975062 -0.0032907395)
(0.18573369 0.026111209 -0.0033971177)
(0.19080286 0.026247113 -0.0034966863)
(0.19590972 0.026384002 -0.0035890521)
(0.20105587 0.026522881 -0.0036762552)
(0.20624532 0.026664036 -0.0037557511)
(0.21148007 0.026802746 -0.0038289854)
(0.21675637 0.026949176 -0.0039006534)
(0.22208729 0.027088919 -0.0039623953)
(0.22747131 0.027232399 -0.0040266458)
(0.23291516 0.027371897 -0.0040838668)
(0.23841904 0.027516395 -0.0041417999)
(0.24398648 0.027650874 -0.0041936326)
(0.24962222 0.02779213 -0.0042516084)
(0.25532713 0.02791286 -0.0043003729)
(0.26110782 0.028050385 -0.0043646148)
(0.26696139 0.028149388 -0.0044119981)
(0.27289469 0.028278165 -0.0044857115)
(0.27890689 0.028348243 -0.0045345103)
(0.28499763 0.028461885 -0.0046207106)
(0.29117145 0.028496199 -0.0046718748)
(0.29742249 0.02858165 -0.0047710466)
(0.30375569 0.028587547 -0.0048338445)
(0.31016412 0.028616888 -0.0049326738)
(0.31665084 0.028589863 -0.0050212551)
(0.32321537 0.028572922 -0.0051289651)
(0.32983756 0.028496358 -0.0052222691)
(0.3365351 0.028420537 -0.0053410768)
(0.34327589 0.028298733 -0.0054500424)
(0.35009906 0.028133308 -0.0055681624)
(0.35693756 0.027976995 -0.0057118422)
(0.3638599 0.027740733 -0.0058360818)
(0.37078386 0.027477702 -0.005986406)
(0.37778876 0.027200997 -0.006159155)
(0.38481712 0.026840415 -0.006337006)
(0.39195547 0.026435763 -0.0065475762)
(-0.00021738927 0.00078189901 0.0011476641)
(-0.00016103886 0.0011328418 0.0013853657)
(-2.307152e-05 0.001710608 0.0016551251)
(0.00027473205 0.002239824 0.0017799013)
(0.00067845731 0.0027726806 0.0018765993)
(0.0012089757 0.0033274842 0.0019270702)
(0.0018875153 0.0038851166 0.0019570296)
(0.0026886355 0.0044378469 0.0019581316)
(0.0036123729 0.0049995201 0.0019627743)
(0.0046786439 0.0055583585 0.0019337813)
(0.0058627041 0.0061285885 0.0019081006)
(0.0071712686 0.0066793537 0.0018744766)
(0.0086028767 0.0072455913 0.0018338077)
(0.010163166 0.0077959806 0.0017814797)
(0.011828711 0.0083469676 0.0017389364)
(0.013628205 0.008887658 0.0016781623)
(0.015533941 0.0094240066 0.0016238788)
(0.017566158 0.0099497327 0.0015595163)
(0.019702935 0.010466185 0.0014957793)
(0.021965823 0.010973156 0.0014249954)
(0.024330767 0.011470399 0.0013529172)
(0.02681684 0.011952364 0.0012755682)
(0.029403774 0.012427247 0.0011951861)
(0.032106652 0.012883231 0.0011105922)
(0.034908614 0.01333499 0.0010189045)
(0.037819516 0.013763741 0.00092869712)
(0.040829316 0.014187652 0.00083009476)
(0.043940868 0.014590845 0.00072936347)
(0.04714614 0.014985086 0.00062417034)
(0.050448814 0.015360475 0.00051807443)
(0.053841078 0.015725628 0.00040397194)
(0.057321272 0.016071932 0.00029226783)
(0.06088987 0.016407451 0.00017252481)
(0.064540077 0.016723947 5.4479631e-05)
(0.068269039 0.01702974 -6.9593293e-05)
(0.072076952 0.017317695 -0.00019428191)
(0.07595647 0.017593219 -0.00032014815)
(0.079906445 0.017852095 -0.00044903322)
(0.083930418 0.018099003 -0.00058137112)
(0.08801859 0.018327935 -0.00071493767)
(0.092170675 0.018547469 -0.00085062708)
(0.096384014 0.018751776 -0.00099121045)
(0.1006554 0.018944332 -0.0011279305)
(0.10498357 0.019124207 -0.0012698129)
(0.10936721 0.019292769 -0.0014140454)
(0.11380081 0.01945037 -0.0015575335)
(0.11828562 0.019598616 -0.0017042707)
(0.12281762 0.01973733 -0.0018506471)
(0.12739589 0.019868026 -0.0019983064)
(0.13201776 0.019990983 -0.0021448514)
(0.13668243 0.020107753 -0.0022923427)
(0.14138717 0.020218114 -0.002436981)
(0.14613145 0.020324651 -0.0025816595)
(0.1509132 0.020425582 -0.0027222338)
(0.15573146 0.020524799 -0.0028611747)
(0.16058562 0.020619839 -0.0029954219)
(0.16547423 0.020714238 -0.0031261982)
(0.17039775 0.020805772 -0.003251221)
(0.17535543 0.020897992 -0.0033722402)
(0.18034797 0.020987865 -0.0034862093)
(0.18537573 0.021079186 -0.0035956277)
(0.1904404 0.021169002 -0.0036980478)
(0.1955422 0.021259874 -0.0037950568)
(0.20068417 0.02135081 -0.0038867839)
(0.20587007 0.021441486 -0.0039709526)
(0.2110939 0.021529719 -0.004052894)
(0.2163758 0.021629037 -0.0041263188)
(0.22170449 0.021714141 -0.0041968913)
(0.2270847 0.021800464 -0.0042635314)
(0.23252186 0.021887079 -0.0043263045)
(0.23802026 0.021967975 -0.0043889603)
(0.24358226 0.02204765 -0.0044479459)
(0.24921453 0.022119647 -0.0045085724)
(0.25491291 0.022190034 -0.0045676473)
(0.26068947 0.022250452 -0.0046285266)
(0.26653715 0.022302765 -0.0046876441)
(0.27246903 0.022348772 -0.0047539852)
(0.27847378 0.022376502 -0.0048145856)
(0.28456539 0.022401494 -0.004887153)
(0.29073319 0.022399206 -0.0049520032)
(0.29698417 0.022401141 -0.0050346639)
(0.30331708 0.022353819 -0.0050989824)
(0.30972002 0.022328703 -0.0051961645)
(0.31621502 0.022240343 -0.0052680773)
(0.32276556 0.022161921 -0.0053666676)
(0.32940076 0.02203878 -0.0054516635)
(0.33608943 0.021913722 -0.0055647123)
(0.34285461 0.021722416 -0.0056523327)
(0.34966573 0.021557534 -0.0057866699)
(0.35652754 0.021308762 -0.0058841802)
(0.36344967 0.021049779 -0.006021366)
(0.37039278 0.020770337 -0.0061594398)
(0.37741387 0.020413074 -0.0063144135)
(0.38444961 0.020069689 -0.0064890344)