/*--------------------------------*- C++ -*----------------------------------*\
  =========                 |
  \\      /  F ield         | OpenFOAM: The Open Source CFD Toolbox
   \\    /   O peration     | Website:  https://openfoam.org
    \\  /    A nd           | Version:  6
     \\/     M anipulation  |
\*---------------------------------------------------------------------------*/
FoamFile
{
    version     2.0;
    format      ascii;
    class       pointScalarField;
    location    "0.11";
    object      E;
}
// * * * * * * * * * * * * * * * * * * * * * * * * * * * * * * * * * * * * * //

dimensions      [1 -1 -2 0 0 0 0];

internalField   nonuniform List<scalar> 
625
(
9108.0035
7547.4626
26954.994
27627.055
8753.072
6379.4984
27271.593
27346.808
2131.2763
215.91726
3686.508
26091.367
27477.089
26866.594
10428.859
7870.2582
6164.9043
4871.6671
3292.3034
2468.0999
1592.1951
1159.577
936.8032
811.75492
1072.7959
1541.5796
2275.7143
3181.8578
4300.5553
5621.099
7178.4918
8900.5665
11024.715
13546.649
15927.587
20247.723
22815.4
8966.4167
5432.1542
5722.9672
3920.9757
2898.4256
2653.5575
1489.8581
1488.3833
1221.7144
1157.9999
1531.3059
1961.1154
2735.4098
3648.2172
4761.1627
6048.0387
7507.3734
9200.3162
11078.985
13323.955
15757.318
18916.995
22429.374
2266.3267
-8.2527075
3269.2662
11808.74
12694.908
5201.5819
5783.8328
4255.0905
1065.6958
2195.9194
893.06872
604.9395
527.34969
593.27578
1086.5139
1726.9712
2616.3591
3720.6192
4996.0958
6573.8838
8365.5672
10426.219
12824.066
15764.718
19442.808
23445.541
26639.12
28515.887
26018.175
23001.936
20109.383
16677.834
14051.035
11706.438
9679.4012
7820.4508
6194.2998
4781.4783
3612.7362
2609.4255
1932.166
1365.4582
1349.5016
1085.3195
1321.8962
2324.6319
3026.1464
3992.7379
5447.9724
7578.514
9201.1677
12311.225
6726.8276
7358.3236
7528.286
6091.5008
5790.5071
5621.6005
28076.553
27392.421
27855.081
27484.895
27159.645
27499.452
4501.3597
3062.0412
2990.6905
2274.7813
1630.148
1405.6935
987.00386
870.61248
870.71043
1059.7937
1490.3619
2005.8084
2723.7092
3615.1688
4711.7542
6026.1425
7523.3629
9265.455
11278.378
13477.725
16111.533
20046.131
21669.634
1421.2162
1206.3462
1406.4657
1145.2828
1132.4562
1038.1914
825.29902
938.64335
881.16301
1061.214
1296.5259
1693.8907
2275.8007
3009.7991
3950.3435
5125.6486
6560.7643
8316.1398
10476.812
13339.653
16280.396
20241.633
21644.125
2635.5708
2121.6486
1573.532
1107.0305
668.06745
228.70547
111.7242
13.386296
150.33909
456.46743
932.78754
1628.4386
2481.2292
3542.1177
4828.4037
6316.1633
8022.8266
9866.5851
12061.529
14149.235
16957.242
19620.307
22129.676
1387.9884
1717.3495
1707.8516
135.78177
122.18176
219.52406
1739.3127
1941.074
1806.7263
10238.231
10584.558
10712.593
11331.815
10389.87
9895.0652
5770.7449
4657.3512
5951.1045
5148.6893
5422.4152
4814.3408
4118.6574
2834.8684
3974.0958
2791.1574
2713.9057
2515.6878
2421.4151
1481.6259
2300.1792
1533.4799
1064.0624
1409.7902
1244.7371
1157.021
1271.3458
1261.2167
887.22526
1101.5443
1188.7927
1238.0845
1139.3403
1529.9535
1615.4238
1469.4937
2063.9082
2350.2451
2043.0968
2831.5555
3234.188
2774.0142
3785.2923
4301.9304
3727.6126
4939.9276
5550.1066
4860.2893
6349.0675
7004.7876
6259.9264
8044.539
8694.4427
7947.4851
10057.094
10650.057
9940.565
12465.782
12968.051
12351.47
15407.057
15726.55
15367.142
18978.349
19352.236
19156.369
23030.408
23324.135
23042.113
26295.382
25874.678
26260.519
28069.535
27900.422
28373.095
27225.208
26491.084
26975.717
10565.061
9935.2056
10092.546
9275.3979
8700.3584
9118.8357
7431.4425
7000.2573
7685.6362
5217.7604
5006.6638
5524.1158
4060.5563
3892.1979
4296.4998
2775.0408
2345.6397
3251.8695
1904.9668
2009.2377
2518.253
1623.0236
1346.4809
1860.4754
1159.2868
1162.8968
1456.7607
953.20185
1007.6517
1619.7708
1189.54
1389.4174
1487.251
1630.5377
1794.6238
1925.346
2237.5341
2581.5087
2470.458
3099.0346
3513.4353
3219.1092
4095.3766
4630.9359
4167.9596
5280.3798
5939.9698
5305.9299
6669.8514
7437.4754
6685.7238
8351.7659
9154.0208
8380.6635
10394.952
11134.816
10459.775
12802.336
13469.312
12977.737
15515.297
15992.975
15964.543
19632.687
20280.73
20239.669
23001.216
23205.97
23327.211
7395.4814
6304.8804
4901.945
3987.5181
3185.2292
2003.023
1672.482
1113.5113
869.90534
918.62243
1214.4855
1809.8976
2481.8731
3550.7628
4842.6643
6423.4112
8203.4474
10120.998
12176.303
14341.632
16684.44
19648.116
21548.7
1132.3214
3152.1977
1491.43
2292.0621
1809.1032
1843.8909
1961.6057
1870.9826
2196.1956
2182.9132
2600.8433
2898.1651
3357.3844
3948.088
4662.9216
5554.0873
6665.3911
8054.4565
9767.6873
11952.518
14594.124
18611.24
20465.292
3801.9275
1077.4672
1930.7124
1011.3545
726.01645
646.33878
114.97552
495.89586
334.31256
959.35464
1463.9916
2261.1582
3223.1594
4392.3042
5784.6087
7359.4934
9077.5547
10890.847
12792.064
14745.253
16946.646
19450.992
22151.835
5902.5094
5480.0892
5604.0005
4939.039
5218.9153
5200.2448
4105.7634
4249.3708
4224.5675
3068.6985
3081.887
3122.3719
2535.2421
2546.5701
2722.166
1916.7685
1884.9843
1763.9542
1463.2504
1433.7882
1480.1272
1202.0846
1205.0386
1147.6213
1138.5123
1038.2342
991.42644
1193.9053
1256.2917
1046.6053
1453.6072
1497.7556
1198.7515
1886.7526
1992.5044
1723.4263
2556.6312
2704.4638
2332.236
3416.4401
3609.931
3207.4102
4520.6044
4769.698
4354.645
5862.4971
6170.5353
5761.1103
7444.778
7804.2253
7428.3908
9252.0361
9628.118
9350.9949
11245.023
11699.682
11481.601
13756.134
13777.919
14016.912
16539.711
16235.624
16652.674
19548.307
19993.209
20222.778
21934.771
22074.859
22140.512
1357.7993
1299.2427
1020.2296
2055.2659
2820.1748
2765.1964
1397.7797
1146.6131
1170.201
1356.9976
1710.7177
1732.2296
1410.3764
1237.2675
1174.0698
1276.0437
1185.5731
1168.2347
1240.0184
1194.0864
1136.7281
1401.3386
1182.3649
1005.7432
1407.1781
1298.1357
1195.0362
1694.6392
1495.0414
1311.9368
1968.653
1748.9095
1619.1214
2395.6002
2173.3531
2053.1691
2960.0207
2722.2552
2610.0072
3663.5245
3408.1371
3357.1212
4548.059
4292.97
4292.2273
5637.5311
5379.7272
5454.6227
6944.5777
6716.998
6870.0571
8561.8623
8368.4123
8587.7853
10498.38
10347.453
10619.99
12833.234
12878.124
13181.799
14969.394
16557.408
15835.907
19354.956
19691.969
20086.569
21569.545
21441.301
21624.107
2954.2649
3176.5324
3312.274
1868.7159
1688.984
2160.9805
1667.9973
2374.8183
2350.6793
1347.627
1233.2804
1483.6794
835.23803
1004.2629
1177.4283
633.97807
539.80977
855.88195
598.48231
324.17136
570.76794
506.89595
323.20395
786.58067
758.48797
450.7656
777.54855
1073.8656
759.09084
1110.6783
1545.52
1292.8165
1563.2091
2203.7167
1981.6687
2177.9167
2978.6102
2864.3373
2955.8611
3962.2939
3966.2888
3929.8531
5121.1685
5292.0554
5105.094
6474.8916
6813.7764
6505.3268
7994.6932
8533.2291
8086.5106
9727.0011
10363.103
9833.2341
11603.773
12370.903
11789.23
13856.882
14522.836
13893.163
16378.822
16920.922
16332.598
19408.213
19588.676
19112.417
22265.12
22583.575
22332.568
)
;

boundaryField
{
    free
    {
        type            zeroGradient;
    }
    fixed
    {
        type            zeroGradient;
    }
    freeTop
    {
        type            zeroGradient;
    }
}


// ************************************************************************* //
