/*--------------------------------*- C++ -*----------------------------------*\
  =========                 |
  \\      /  F ield         | OpenFOAM: The Open Source CFD Toolbox
   \\    /   O peration     | Website:  https://openfoam.org
    \\  /    A nd           | Version:  6
     \\/     M anipulation  |
\*---------------------------------------------------------------------------*/
FoamFile
{
    version     2.0;
    format      ascii;
    class       pointScalarField;
    location    "1.36";
    object      E;
}
// * * * * * * * * * * * * * * * * * * * * * * * * * * * * * * * * * * * * * //

dimensions      [1 -1 -2 0 0 0 0];

internalField   nonuniform List<scalar> 
3969
(
51569.666
39908.762
-681.51997
-1228.2783
51970.342
46284.457
-921.52443
-890.47296
25178.718
10630.422
3569.01
2055.0144
5528.1192
14724.613
32306.433
1157.0278
-596.19622
-1015.5464
-1488.103
-2123.0275
-1722.8262
-196.1414
47717.741
38321.85
38359.062
38395.239
37701.984
36921.962
34918.736
33841.324
31130.199
29596.484
27909.014
25841.274
24307.534
22140.378
20753.891
18359.382
17102.797
14978.358
13559.736
11588.496
10003.509
8397.1484
6917.1586
5763.3535
4408.0973
3616.7734
2480.38
1608.9098
1022.6279
286.77044
-277.51789
-654.09077
-1085.8176
-1326.2091
-1408.6884
-1350.6911
-1245.7069
-1065.0512
-841.39118
-945.88141
-278.01716
-690.2445
316.00495
-408.22131
762.18313
-394.93695
249.07477
45888.074
30543.489
42371.176
37074.121
41311.341
37611.599
38908.438
36457.365
35392.895
34096.64
31275.311
30729.122
28360.044
26853.229
24691.419
22856.124
21400.163
18706.348
17684.824
15360.431
13864.076
12450.52
10593.603
9767.9057
8286.1596
7893.9877
5845.764
5672.056
4725.8074
3615.5664
3508.8868
2512.9058
2433.5433
1939.5309
1935.3082
2054.1698
2159.4786
1957.9736
2291.3647
2199.2295
2629.0593
2113.4058
2375.945
1806.449
1988.2198
1491.4223
1088.0509
27364.454
11535.859
3843.3285
4827.541
6470.7925
14927.43
31467.465
68224.32
53865.616
31648.554
51047.593
42671.997
43784.907
43416.204
38123.758
41477.574
32527.577
37648.59
31532.321
31427.683
29627.637
25931.957
25996.129
21861.666
21173.302
18588.053
16809.094
15118.524
13301.259
11942.531
10155.767
9330.0769
7805.2512
6249.2458
4712.3621
4079.9206
3104.6551
2358.4396
1988.019
1518.2355
1325.0888
765.09328
349.3491
1786.8026
628.84822
523.22195
507.23769
116.20518
336.40873
-77.409199
-52.052686
-282.91709
-739.55121
-81.764425
984.93404
-2547.0876
458.93574
-3183.7579
-402.99698
-1900.7397
1366.3569
1167.9774
-444.3488
611.32159
150.13764
-12.124637
-162.50742
-319.58261
-503.08895
-474.92
-504.98516
-174.38892
-1601.5913
-897.06587
-917.49569
-710.00261
-438.81291
-22.184291
662.46059
1324.0589
2400.0302
3290.7354
4629.7368
5689.5879
7003.8583
8366.9945
9878.5034
11514.526
13164.521
15203.684
16783.358
19212.04
20830.926
23289.667
24008.165
26789.431
28395.958
31054.839
31889.764
33931.76
35271.789
37446.897
36927.06
40873.772
36564.151
38528.352
35388.532
55728.387
31558.475
33265.546
31626.708
32133.007
31232.523
30759.601
30948.051
26774.036
28650.692
30707.007
32088.32
32405.145
34663.331
29735.865
-1133.7784
-754.35846
-854.95657
-745.10139
-775.72508
-783.95568
-814.73843
-429.4044
-451.74143
-459.09216
-391.84966
-408.64658
-339.25571
-345.15176
31024.125
22116.678
23816.153
22692.402
22628.558
22645.81
21066.259
20897.831
19334.041
18948.545
17641.342
16563.732
15744.895
14600.888
13619.693
12781.777
12081.794
11064.002
10347.391
9419.6802
8606.5015
7706.3643
6974.9858
5879.7237
5055.2126
4246.973
3315.8476
2798.3983
2364.9154
1888.7272
1683.2126
1385.334
990.10581
781.3006
453.36351
173.17693
70.534428
-351.2824
-299.35519
-525.93048
-335.32402
-445.52661
-80.631224
-697.33877
272.25963
-948.76059
1391.0741
13289.074
9022.9158
10166.097
9123.5022
9421.3284
9471.9999
8496.4447
8789.891
7747.2029
7514.2965
6936.0282
6508.2068
6136.5147
5459.3457
5305.1281
4815.4995
4555.634
4039.5134
3795.1497
3464.4702
3181.4247
3065.9158
2545.9876
2448.9694
2148.8963
1779.048
1419.5657
1228.3261
730.63516
593.01709
404.35234
75.673636
-85.822869
-347.46731
-570.23472
-771.58663
-847.52088
-1248.9427
-955.80795
-1424.7509
-664.92851
-1376.6975
-98.858003
-1097.831
931.91627
-1205.3077
2464.8726
5386.7918
865.41289
3138.6838
1454.5747
2230.7968
2069.5272
2377.392
2520.163
2291.3512
3019.7981
2564.7768
2879.7615
2488.7786
2668.9867
2236.3524
2240.1304
2201.8394
2082.9188
2239.0933
1837.2727
1671.4986
1021.9446
981.57919
756.53353
506.79596
270.05197
493.11546
127.06844
320.86225
362.64044
207.38979
263.61144
119.79613
67.191622
20.703894
53.946263
104.58696
430.84353
802.70659
899.97592
921.94784
978.82966
1151.2229
455.05172
1068.0413
-1209.9506
3036.6202
3295.3293
177.18719
1391.2265
1186.0423
1234.4929
1690.2525
1201.6867
1445.8157
1328.6545
869.44094
888.46621
1065.9526
657.66937
1104.0895
538.82828
1204.2862
607.27513
1167.6975
656.98598
865.46139
1001.6746
1507.6114
1832.7804
1846.9907
1803.8102
2072.3182
1723.9919
1692.7818
1614.6984
1405.3735
1279.9302
1149.6906
898.55791
770.81956
525.54733
300.19948
215.62648
-293.97598
-717.40898
-1483.8096
-908.37371
-1654.2336
-882.01967
-1766.5213
-132.00438
-1395.6692
3170.6456
7806.3347
4133.0722
6172.1668
4780.6388
5181.3294
5178.9279
4555.4113
4926.4857
4505.7194
4274.3335
4724.2487
3909.522
3929.3659
3330.5506
3177.9092
2644.3649
2368.1514
2049.7689
1709.0498
1517.9052
1494.6225
852.441
149.07646
-113.30146
-132.03224
-662.51449
-885.95119
-917.67233
-1095.1443
-1151.5498
-1277.1418
-1229.6214
-1384.3516
-1313.8226
-1420.3976
-1289.0863
-1306.0473
-1028.4741
-1268.3462
-159.55232
-321.91059
157.10574
262.30141
582.96864
1100.33
-68.51228
3039.7945
17921.823
14453.622
16659.238
16394.385
17083.433
17009.631
16806.715
16180.763
16044.361
14723.95
14659.373
13688.237
13168.354
12414.542
11452.492
10992.492
9909.6438
9386.4817
8537.6119
7675.1726
7197.6607
6585.6638
5572.5244
5200.6486
4645.469
4308.7893
3967.394
3624.6674
3168.8619
2923.1959
2621.4917
2226.4718
2014.4887
1802.7287
1478.4613
1460.6517
1260.6143
873.24505
1259.7491
277.64879
154.58955
-315.24533
-263.20884
-651.35992
-704.78858
-763.30538
1663.7093
26827.57
23458.156
25864.952
25686.132
26055.409
25674.264
25003.222
23658.668
24109.31
21190.19
22650.734
19421.971
19455.944
17188.789
16606.762
14939.353
14020.525
12803.196
11537.026
10577.106
9234.0224
7952.1806
7095.5389
5464.0375
3991.8985
2984.5285
2107.8823
1345.1423
822.66226
434.16641
-57.085729
-291.67051
-774.52455
-1034.3232
-1582.8372
-1778.08
-2252.2406
-1912.6875
-2389.2872
-2015.5681
-1847.1326
-1130.8285
-867.72939
-214.49363
75.909857
995.40288
1393.9247
12684.95
13470.435
10269.175
10044.83
10290.512
11088.707
14798.365
5587.8126
5646.3949
3838.952
4226.4739
4224.8876
5008.4955
6505.8275
1619.2115
634.57558
-366.16228
-19.446974
-261.38
259.57874
1361.1943
789.58674
-0.7309657
-137.10346
-163.3399
140.84525
982.4749
2356.2986
2003.9048
1020.1482
801.04977
748.49179
1089.1093
1926.6737
3514.3913
8252.4258
5532.1835
5260.3917
4748.2612
5377.3061
6489.1955
9927.5424
16317.592
16098.368
13711.05
14087.22
14169.669
15446.306
20765.758
52266.403
48492.068
52238.232
56112.135
56392.533
59672.758
58416.923
45215.858
46441.988
41576.284
40000.406
46454.545
46790.214
51060.055
38544.606
40182.394
43441.229
42108.98
41533.332
41831.927
46399.232
43458.153
46489.253
43713.968
45147.167
45747.435
47796.739
44066.489
41002.356
41798.133
44432.685
43569.477
43640.302
43396.572
45759.537
43315.511
41296.451
40866.137
41954.81
41248.387
41534.54
41521.269
39942.768
39738.06
41713.896
41004.113
41753.873
42412.179
43577.81
40349.052
38565.91
38397.539
38050.791
36621.547
37028.909
37661.879
38237.487
36606.476
36959
36744.949
38422.717
38364.239
40822.754
36095.275
34781.44
33937.935
35858.841
33422.195
33398.034
34440.935
35863.376
33636.851
34687.902
31848.842
33768.16
33032.486
34945.627
32445.62
32037.9
30314.54
32195.775
31610.849
28968.006
32568.652
32800.303
29237.565
30616.048
28191.155
28554.189
29389.332
30104.682
28942.771
27775.216
28473.592
26842.749
29297.717
26236.931
29840.442
28434.762
26496.362
25883.129
25464.985
24830.273
24279.404
25900.294
25991.676
23085.531
25080.748
22723.851
24704.41
23066.193
25582.754
23446.556
22441.584
22487.575
20912.373
22046.613
20274.349
22378.999
22115.968
19598.797
21040.632
19266.564
20535.61
19071.936
20818.509
19717.325
17978.888
19328.159
16940.452
18649.81
16695.267
19010.424
17903.501
16295.66
17310.127
15741.41
16934.341
15441.099
17139.601
16277
14346.33
15927.221
13659.614
15181.208
13348.037
15479.096
14269.955
13005.989
14005.428
12278.754
13492.359
11910.776
13954.417
12980.858
11413.134
12530.042
10828.336
12066.194
10626.365
12783.73
11280.085
10403.445
11012.887
9775.2843
10553.661
9087.8088
11200.71
10076.073
9598.5211
9222.7808
8979.6988
9156.1164
8302.3398
10668.047
9018.967
8546.4209
8039.0021
8159.5756
7753.9568
7247.0159
9424.6806
8386.4161
7327.1069
7642.6
6535.9053
8237.8816
6356.6216
8654.6443
7922.8184
6252.0623
6957.9853
5663.8331
6388.897
4402.6186
7322.0631
6022.2164
5730.5166
5211.8215
5036.9209
5165.5018
4472.452
5978.538
5859.6867
4100.546
5039.3773
3949.7386
4662.6643
3294.961
5068.8417
4301.4996
3925.2903
3915.6477
3406.5762
3653.4108
2797.9866
4119.7514
4115.0692
3099.2615
3483.3653
2808.0818
3214.3774
2333.1331
3584.5992
3308.3821
2719.0618
2944.3205
2485.5376
2705.6893
1966.5562
3218.4633
3113.6015
2506.3826
2727.1345
2154.5843
2298.229
1740.0931
2970.7072
2798.0922
2267.0925
2249.8313
1950.8899
2004.4284
1579.2338
2636.2535
2861.7854
2237.908
2310.936
1843.0303
1793.0442
2272.2872
2865.9925
2658.6274
2012.4858
1928.6873
1708.255
2176.6841
482.25373
2698.001
2347.4314
1360.5586
1504.9453
1174.6571
1135.2452
1556.5464
2402.1321
2507.0872
1994.4923
1976.8107
1430.9559
1622.2081
944.06216
2604.2374
2685.393
1769.7219
1608.9945
1490.9209
1271.37
1012.0865
2572.1619
2289.1999
1502.5685
1571.6077
1127.2734
1199.2917
874.38479
2074.0969
2190.8568
1260.8283
1216.1112
1109.5682
996.26462
784.68304
1896.3613
1703.2312
987.20926
1166.2058
857.94902
783.58073
679.31976
1570.3808
1215.8276
861.95203
700.87378
683.11433
490.68372
661.13982
1161.0294
921.95959
540.95616
544.28196
455.60808
406.61352
514.97704
841.35074
305.12131
383.06113
96.709259
268.77293
25.2409
284.08047
337.69513
32.516862
102.6526
46.899564
22.977541
165.61707
136.96139
407.63784
1736.4874
1672.1274
1595.4692
1718.0495
1621.123
1593.7127
1522.2952
-3044.6568
-1493.3724
-1817.0411
-1734.7337
-1959.9395
-1657.2845
-2730.8466
-756.52893
-299.78999
33.612412
90.756567
39.486893
-62.484684
-1288.7255
-3239.3838
-2675.2061
-2827.6567
-2612.8275
-3099.3873
-2454.8502
-4094.1568
-2078.4422
-261.95089
-37.014714
-345.97607
210.90243
-172.89827
-1535.2403
-1274.3805
-1017.8495
-1517.9667
-1196.8514
-1832.8804
-1309.4435
-2667.2839
386.87165
759.41393
742.64633
777.84893
638.96605
744.89103
511.96013
45963.085
41018.32
38425.379
37001.208
37389.549
38765.546
37719.986
43591.328
39782.083
40304.136
39992.658
39629.461
39636.457
40919.132
44903.674
46150.728
44791.323
43813.853
45471.516
43423.481
43455.596
42323.888
43216.492
43327.239
44232.057
42713.243
40723.137
40749.507
43002.612
43531.181
44760.632
44070.375
44300.533
42271.829
41106.004
38711.211
39931.64
40026.937
40053.274
39587.081
37638.03
37778.039
39333.639
39229.991
40077.062
39774.474
39665.536
38878.632
38157.2
35139.864
35603.387
35858.469
35752.533
35406.752
34483.579
35043.288
34670.537
34705.544
35490.167
34759.499
35534.946
33495.633
35025.612
32135.221
31695.022
32198.264
31930.41
31971.146
31211.114
32092.835
30132.004
30192.876
30984.756
30524.529
30918.473
29616.266
30632.247
28456.262
28035.42
28201.326
28646.404
28488.75
28131.251
29035.5
26472.365
26297.011
27021.254
26405.728
26987.788
25676.354
27252.009
24717.725
24213.646
24489.353
24571.861
24823.235
25228.195
25744.384
22949.388
22402.881
22825.585
23010.129
23657.389
21768.028
24064.819
20782.86
20395.468
21049
20246.58
21178.348
20538.104
21446.706
18992.753
18910.203
19055.503
19189.407
19489.91
18481.403
20022.565
17216.729
16609.614
17396.105
16887.93
17256.273
16591.449
17627.105
15184.157
15099.223
15469.059
15049.609
15752.396
14805.336
15985.257
13499.452
13179.46
13551.619
13396.826
13657.168
12889.532
13961.609
11638.642
11334.215
11911.097
11406.325
11945.679
11238.841
12258.688
10012.781
9776.2894
10060.942
9792.73
10243.81
9425.6367
10528.32
8464.6471
7926.6778
8435.0668
8114.9067
8520.2849
7860.6363
9135.3506
7219.9689
6709.703
7076.8443
6750.4136
7167.5928
6587.5804
7910.4601
6089.8088
5449.7201
5799.6791
5548.3937
5925.863
5333.8098
6803.8046
5416.831
4332.627
4920.9624
4490.8271
4978.3922
4377.9265
6016.2098
4368.7676
3411.179
3879.4144
3515.1194
3970.8167
3342.9505
4990.4183
3649.2612
2537.0573
2989.4682
2706.6641
3261.7198
2551.2774
4244.7421
2720.327
1535.3284
2304.4371
1755.0354
2330.836
1615.4013
3147.7548
1816.333
1065.7835
1364.452
1013.4122
1652.8098
930.53915
2344.4766
1265.0475
206.97661
743.60044
412.74806
1028.752
243.96172
1577.8876
613.57466
-164.91313
253.328
-83.140398
417.43903
-212.00241
968.67601
243.74462
-539.16106
-172.31517
-505.06051
63.824912
-594.47215
522.6753
1.0741835
-741.40734
-491.38693
-654.10515
-312.46869
-726.79278
306.84988
-95.421979
-910.57989
-582.09379
-825.07883
-547.58966
-846.324
18.760929
-153.4978
-780.49986
-589.10777
-904.37149
-505.62372
-497.22625
67.155077
197.94039
-848.24127
-901.75782
-845.09004
-355.57879
-1569.663
682.52663
-163.08522
-716.04601
-546.42635
-771.10047
-470.45164
-172.06818
283.32161
400.76841
-109.82632
-254.98677
-282.97769
-92.166273
-523.79984
759.78846
612.27913
-224.3994
-309.33205
-30.437917
-236.79814
-129.37959
777.40641
787.01093
113.54888
204.4428
150.68236
152.6839
33.737417
656.45275
433.99302
-78.547197
-235.52064
-115.92113
-169.94522
-102.82362
634.56008
976.44643
554.6668
384.90901
630.7746
421.73128
522.03417
577.40406
140.91099
-377.80777
-362.0125
-340.15187
-528.70159
-338.61523
119.13481
891.87305
811.95256
638.54819
742.31226
568.3138
1055.3437
831.1051
-549.36413
-788.43688
-786.40639
-892.52633
-777.29788
-761.04541
-804.58039
649.67394
710.95058
597.05592
680.26004
658.18741
685.05341
683.03002
47910.016
30927.33
27976.081
27470.232
29052.209
28457.716
27779.476
27239.996
26235.284
25747.063
24880.551
22777.284
22051.125
20024.968
18671.566
18356.014
16354.713
15636.463
14005.921
13247.707
11797.263
10843.341
9453.4733
8132.0078
6571.4479
5291.2906
4023.6697
3107.8629
2342.3445
1794.7976
1421.0121
1115.5952
796.28856
440.66974
315.25523
-751.56075
-583.47819
-1029.799
-1083.4782
-1383.8219
-1026.9241
-831.29131
-373.05953
47.848018
668.78118
313.86941
2314.5163
20053.148
19031.062
12541.168
12783.138
15507.106
12114.028
14541.71
13722.508
13705.416
13542.861
12741.344
12406.526
12043.902
11386.091
10972.608
10323.746
9775.0221
8895.7873
8554.486
7778.1703
7209.5819
6574.812
5857.047
5306.6309
4656.0474
4090.8923
4003.5985
3833.9671
3587.829
3334.6057
3035.5831
2770.8645
2421.2918
2292.976
1943.6981
1629.9048
1569.3833
1553.7374
1688.7924
1462.2663
1662.914
1393.5625
1601.3526
804.27106
1675.2194
-1407.9796
3946.5124
6396.7548
5153.5118
3029.6872
3609.5621
3695.6942
2575.4586
4359.6493
2795.3892
4170.3985
3349.4966
3448.8282
4162.0707
3074.0621
3389.727
3123.9934
2892.2997
2823.967
2687.8999
2362.3474
2250.2274
1938.4701
1728.802
1502.2106
1112.7134
1026.3094
530.28322
767.82686
183.29306
264.03783
-2.6754571
-76.824317
-371.64016
-381.55092
-595.71316
-687.29455
-658.13934
-746.99388
-642.98933
-560.64505
-372.24599
-348.20628
107.75902
-11.849006
630.32488
832.34676
458.97686
4771.434
2623.3782
2724.0536
-944.81594
3489.296
-567.42817
3163.6157
-1188.8016
2205.3459
162.00698
687.82932
1466.4146
33.63294
895.32934
2608.8539
1757.6629
2315.1763
2079.2783
1954.7854
2064.9748
2019.9796
2002.5546
1988.0936
1877.5788
2137.2559
2192.4642
2483.4864
2299.9444
2459.4221
2384.0906
2311.1875
2195.6278
2124.0051
2066.0978
1864.587
1928.4262
1789.5433
1723.7265
1650.1436
1745.9204
1411.9849
1697.9873
1187.8986
1622.467
642.65069
1889.5131
-1273.6915
4940.9647
7647.2926
3057.7847
4757.9021
3686.2851
4139.4237
3276.5601
3656.4957
4423.2632
1892.5494
4826.3779
1581.7574
3820.9382
2648.6435
2715.7803
2460.9476
2513.2873
2318.6774
2443.6898
2259.4043
2239.5527
2098.3373
1895.0496
1992.0674
1504.5171
1019.4456
535.96784
305.80244
164.85521
90.629083
-65.573551
-119.67591
-279.22806
-414.97973
-430.18985
-412.10759
-610.75264
-492.52054
-399.30021
-638.53452
-83.791292
-430.82121
248.40861
-97.784859
728.88182
559.45837
822.82536
3493.4424
16012.526
15294.712
10988.877
16242.868
11031.461
14621.489
13553.421
11409.56
14281.018
11911.091
12352.384
13025.199
10032.653
11622.915
9658.1778
9689.2815
8722.3478
8209.3591
7547.6744
6888.8606
6261.6476
5635.5067
5288.9838
4412.3068
5043.6583
4809.4579
5039.2883
4632.6002
4445.663
4065.5171
3861.1394
3397.2007
3079.2657
2890.5182
2598.0678
2345.8551
2472.5059
1879.7678
2396.4831
1763.6581
1967.093
1460.0486
1642.9502
724.08871
1503.2024
-546.41709
2882.5578
39669.747
23824.575
30572.89
24060.276
29226.209
25511.678
26126.24
24013.028
24549.893
21730.617
20980.074
21589.708
17876.527
18792.963
15559.722
16041.045
14139.271
13480.97
12184.327
11076.698
9729.7131
8344.5915
6975.92
5254.8613
4518.1444
2896.1215
1534.6072
1185.3271
498.81569
351.93964
-100.73456
-576.9888
-939.07268
-1301.6453
-1886.4933
-2146.4244
-2222.8113
-1992.9195
-2290.1059
-1567.378
-1275.6515
-612.27836
-238.79426
464.64193
823.94186
1310.5636
1420.3826
37144.689
30893.774
29720.021
28625.068
28708.196
27758.917
28610.742
31732.376
33343.567
29926.997
29507.166
28536.99
28769.662
29318.367
29701.408
32164.863
32375.503
31513.226
31193.272
30705.678
30259.173
29059.897
30172.557
30409.353
30560.376
29725.243
29078.964
26791.584
27839.89
29724.658
31443.871
30505.992
30827.572
29431.319
28054.703
26966.887
27995.539
28099.393
29082.335
28105.335
27615.182
27017.337
25918.785
26578.404
28265.143
27234.245
27331.796
26861.049
25784.788
24592.756
25600.24
25668.985
26229.803
26174.28
25044.048
25173.851
23591.129
24360.032
24826.377
25328.48
24602.199
24827.383
24178.334
22237.488
22924.637
23341.881
23135.7
23266.456
22941.34
22838.75
20902.545
22119.093
22135.348
22741.595
22592.662
22514.115
22592.316
20135.963
20394.975
21093.249
20710.652
20829.941
20691.796
20688.846
18731.044
19617.756
19504.179
19906.621
20175.167
19724.4
20044.781
17724.984
18134.336
18777.358
18569.778
18975.896
18048.274
19021.302
16380.29
17234.891
16724.521
17430.945
16986.857
17720.066
17229.032
15668.504
16121.299
16170.092
16578.227
16428.806
16142.703
16243.058
14114.493
14647.381
14658.548
15104.641
14832.969
14946.706
15074.673
13180.658
13691.747
13757.167
14019.223
13955.159
14235.956
14069.399
12109.777
12459.605
12462.393
12767.98
12822.994
12699.842
12644.084
11043.441
11490.142
11441.081
11863.936
11635.379
11825.991
11814.752
10184.964
10392.613
10482.11
10644.706
10620.567
10692.924
10548.744
9170.9493
9358.3389
9465.6746
9704.8234
9632.8338
9762.5617
9630.8292
8385.54
8427.8171
8677.1086
8706.5058
8648.5232
8564.2215
8595.9468
7347.5383
7206.6622
7665.6245
7692.6492
7618.9929
7716.9377
7697.261
6556.279
6224.23
6649.596
6702.6493
6571.2647
6460.7927
6555.4802
5398.6237
5047.5796
5705.3945
5533.4267
5553.408
5428.5211
5646.5926
4622.2718
4103.3089
4707.4758
4583.3464
4492.8261
4560.4178
4559.4148
3874.3882
3335.9564
3646.4569
3710.1976
3704.5509
3428.6144
3707.5129
3045.2481
2200.6224
3291.2018
2970.6596
2909.6271
2802.9672
3025.0083
2468.8175
2152.9893
2495.3969
2282.9338
2392.1356
2183.4398
2381.0021
2090.8661
1349.5802
1990.5453
1957.7567
1917.7813
1641.0563
1879.7922
1484.9899
1098.569
1675.0199
1489.6072
1381.9004
1256.9213
1462.0518
1215.5806
838.2374
1275.5166
1188.8654
1159.2189
992.48988
1168.5918
899.17998
508.88646
948.50725
906.49411
782.81543
730.91466
756.65369
560.05042
347.67109
726.32712
707.9496
687.70695
395.11895
528.85916
486.99452
131.59617
358.01397
464.73779
197.61611
240.52182
447.33503
111.5016
-310.91327
162.93118
92.226306
281.00335
-170.16359
560.03135
50.990379
-355.8291
-167.39625
333.18176
-377.99657
176.47261
-563.10647
-305.6648
-299.69112
-318.10843
-25.850113
-304.3128
-613.85653
-186.45191
-292.44195
-667.05943
-830.53738
-174.27849
-858.08106
-358.03134
-609.85975
-384.13746
-601.88815
-647.13954
-183.21306
-654.1728
-480.51083
-645.04551
-261.5825
-560.03604
-755.00372
-217.35533
-795.34609
-388.23475
-590.70053
-91.56919
-200.64749
-428.68704
191.94358
-340.23567
27.677716
-507.38458
-217.61247
-512.5434
-537.88073
-106.98811
-675.4329
-285.91015
-410.88998
733.7343
743.23374
596.19197
993.87459
556.42047
1355.6957
450.38814
53.449924
-112.11237
-40.598721
190.3829
-0.71371696
74.837958
-557.74661
1950.1984
1834.7603
1768.4676
1854.2054
1715.6646
1737.0652
1821.8037
15958.346
12003.874
10670.825
10123.177
9565.0762
9849.3815
10327.022
15170.864
17233.098
15442.53
15871.292
15582.842
15716.117
15762.648
14020.309
14494.785
14573.609
13876.394
14028.374
12843.478
13105.039
13131.487
14601.758
15316.149
15571.214
14740.669
14579.592
12050.719
13353.693
13838.135
15243.814
14428.677
15156.408
13540.543
13359.774
12644.881
13359.428
12704.916
13245.912
12229.69
12287.322
11500.674
12397.387
12456.052
13743.185
13369.149
13567.345
13282.228
11854.243
11976.652
12516.871
11880.297
12261.737
11981.484
11638.404
11436.113
11658.262
11350.124
11951.656
12051.092
11431.741
11922.835
10926.69
11206.71
11096.965
11335.585
11142.794
11583.277
11276.71
11083.316
10863.819
10535.312
10726.13
11088.334
10443.313
10864.262
10007.024
10261.528
9933.9019
10067.807
10087.126
10211.5
10237.652
10113.779
9906.2573
9432.6056
9619.8697
10410.061
9677.0851
10415.182
9307.2192
9177.3794
8546.9208
9175.0167
8997.3793
8870.7084
9260.5208
9108.0293
8777.8514
8465.8519
8771.4385
8856.5433
9087.1586
8934.4687
8864.9201
8302.6815
7337.0576
8235.9699
7917.6961
8179.4839
8102.1737
8064.0214
7583.146
7433.3724
7640.078
7649.6102
7872.3476
7803.5279
7947.971
7346.0114
6682.423
7066.655
7118.2749
7158.3688
7240.1087
7097.3835
6624.0785
6269.4778
6594.8054
6546.0301
6772.406
6670.0988
6736.2468
6302.1294
5849.8008
6022.4768
6168.7351
6133.0608
6144.5724
6265.2218
5542.0498
5194.6162
5525.3504
5490.0072
5612.0481
5769.3862
5697.2679
5096.7759
5069.6112
5057.13
5116.9933
5259.6237
5114.2396
5279.741
4510.8197
4305.8557
4367.1941
4573.6169
4406.3023
4803.7315
4833.761
4175.9274
3990.5375
4089.4275
3935.5008
4114.9698
4619.3226
4506.776
3676.0733
3503.9863
3659.7607
3339.5321
3686.446
3855.5967
3732.783
3523.2611
3195.9569
3086.8678
3348.414
2925.0353
3756.5515
3747.1257
2925.1337
2924.4609
2990.9689
2397.4492
3247.7477
3288.4731
3461.7109
3023.3554
1841.2344
2554.4387
2514.8429
2554.4426
3049.3252
2955.3178
2377.47
2276.4746
2574.2502
1915.8192
2221.8008
2841.5137
2500.46
2284.3052
1941.4136
1976.4722
1666.6305
2110.4284
2490.1637
2173.3469
1889.5818
1421.7514
1715.5394
1542.7818
1650.5588
2145.0343
1931.946
1546.0415
1415.5961
1671.3765
1329.4
1460.4329
2118.1121
1728.2467
1435.1947
1133.9099
1279.4031
991.20976
1282.0921
1794.3775
1391.6047
1148.7782
958.40912
1158.5437
1053.7172
1097.3694
1567.3294
1256.2437
1086.2372
799.00557
1015.7764
775.2417
778.53945
1496.9981
1267.3636
901.71243
612.17547
827.85838
757.84353
755.72429
1437.6594
872.1088
1056.973
738.9974
757.84362
807.87558
343.73018
1493.2472
699.36491
1046.0194
166.72751
685.43964
495.32651
608.54303
1190.8815
754.06608
1245.1978
559.15386
919.84057
718.9308
509.46637
1158.9496
692.28988
1089.7076
-151.4282
709.68776
278.60081
449.36766
1113.3347
728.68065
1364.4731
531.17206
1206.2973
875.05337
802.12533
1249.3515
630.72375
937.34862
-245.32597
605.96417
69.883085
182.76535
662.51412
528.37365
1431.9599
740.1316
1329.0978
1120.8028
1132.3875
1465.0986
858.92755
568.60839
-356.37366
296.69945
-98.787245
-247.56119
-98.07024
6.2297689
1783.8343
1431.9481
1753.6748
1561.3315
1565.6284
2084.1201
1587.0661
-617.5461
-1347.6958
-941.55741
-1330.3469
-1198.1556
-1626.4232
-2088.285
2685.4471
3030.8909
2476.6493
2477.2541
2432.9684
2579.9699
2933.948
6226.2313
5023.0704
4088.952
3844.0331
3447.1878
3624.8205
3366.384
3353.8131
4234.0947
3460.8681
3663.4513
3511.6646
3176.2402
3544.8223
5084.3408
4827.3237
4664.1873
4409.9241
4022.1666
3710.4604
3647.876
3034.2364
3774.3137
4891.1037
5348.682
5022.6442
5039.5769
3657.1253
4825.7925
5070.3264
5352.3673
4230.7208
4360.4784
3092.0933
3986.6162
3461.6449
2422.9925
2921.4831
3459.1336
3292.6665
3339.5899
2918.3286
4107.7621
3841.6618
5085.4039
4881.11
5107.6321
4533.7334
4431.6675
3764.7931
2879.2822
2889.0637
2511.2318
2625.0695
2541.2243
2556.8683
3270.3101
3023.5913
3855.8716
4167.3015
4679.013
4197.4895
4127.5482
3668.2964
3030.6376
3083.7681
2887.9875
2809.9411
2735.9705
2829.8591
2942.3726
2609.7762
3119.3735
3040.2664
3632.5436
3084.9707
3387.6849
3394.2665
2694.4376
2900.0943
3012.6205
3278.9465
3179.7286
3359.4325
2933.9323
2044.736
3205.3741
2433.2109
3257.8922
2409.1651
3352.314
2987.2695
2562.0535
3176.2441
2579.1592
3294.1821
2580.0242
3186.662
3189.1615
2448.8552
2707.6466
2689.6446
2516.3455
2545.5358
2885.7443
2975.6619
2532.5457
2751.9504
2684.9574
2745.4177
2384.6164
3123.2517
3143.7788
2215.2732
2560.3034
2684.507
2278.6148
2335.4606
2785.3231
2856.7978
1927.905
2586.3271
2308.3563
2265.1017
2226.3413
2790.8266
2915.8427
2026.1204
2341.4751
2268.3757
2094.3293
2027.8553
2529.0578
2654.3301
1573.9803
2172.304
2026.0646
1859.1243
1978.7196
2441.7401
2701.8764
1725.2954
2125.4822
1917.3434
1871.4542
1733.2025
2234.6219
2616.3433
1328.2291
1851.3702
1777.056
1472.8654
1634.4347
2120.5355
2564.113
1316.0374
2006.1489
1316.8106
1659.2427
1467.4644
1987.9285
2534.6512
1167.9819
1719.5361
1445.4346
1691.5374
1044.9267
1506.372
2451.4997
875.16559
1697.5547
1412.125
1519.621
864.41601
1744.7734
2271.9001
753.5443
1806.7141
828.24485
1503.0083
729.05788
1031.117
2551.4231
597.05746
1480.7545
683.26045
1691.1869
343.80468
1318.9041
2064.6089
444.13661
1255.5321
985.0052
1102.4441
343.94249
959.84185
2162.2945
701.0222
1510.523
422.28355
1443.7803
238.57264
998.41617
2064.9695
234.91265
800.48226
442.95091
1112.7687
-122.67142
765.85623
1795.0794
168.60578
1093.7087
535.34005
1125.5068
21.046074
797.57181
1778.2662
124.4707
853.14456
136.66271
821.20287
-224.27495
441.09791
1588.7809
17.449339
631.38468
234.99625
813.50705
-309.22319
418.65102
1525.1454
-125.00171
633.61692
92.865322
505.61829
-310.0138
337.81834
1376.6694
-99.260763
542.25397
-1.9421774
527.13812
-313.9414
-13.626076
1413.4267
-92.128097
550.75114
-68.429863
425.12491
-428.3306
62.722162
1265.5257
-214.33408
416.30841
-92.247744
480.01912
-444.31677
-6.9051916
1196.8148
-175.41421
542.69942
-33.505707
289.22067
-353.93262
-294.27507
869.21914
97.10308
343.30279
53.730956
202.54264
-368.6774
-135.36817
934.08447
219.04559
231.00868
287.34818
201.45943
75.320332
-236.60436
645.81959
471.65428
179.04993
380.96119
82.702077
-184.17259
-426.0467
820.31453
404.24511
140.47003
443.52627
-16.44614
379.96969
-115.00346
559.597
767.90615
297.19352
711.0655
258.51978
540.71711
-443.99661
461.35045
381.08244
-51.123596
475.30043
-317.72487
301.9677
-240.44
791.85615
1026.9403
601.1974
1114.425
372.9674
1773.4554
250.47169
-350.24113
-286.55037
-427.41994
-64.050253
-562.39905
5.2088451
-1609.2842
2654.9503
2905.7647
2498.9039
2697.1783
2468.6029
3021.9854
2795.9274
2674.5157
2366.3855
1811.818
1797.8222
1585.8384
1628.3211
933.48202
931.51486
2170.2995
2344.7097
2872.4038
2805.0688
2851.1657
2817.7571
1281.7575
781.52083
341.73654
342.2684
245.31501
214.36153
-378.01986
1421.8825
2889.4148
3996.051
4536.2056
4694.9259
4415.5263
3751.2818
1253.1648
869.99616
142.83652
-612.01678
-866.50665
-813.57695
-335.76807
1938.9406
2313.7979
2555.9173
3142.2394
3527.0457
3526.9327
2857.6153
1225.5077
957.12589
426.86163
470.93756
49.556355
-366.54425
513.50116
1916.7861
1997.2395
1765.4246
2017.1115
1827.2171
2483.914
2012.0274
1801.3551
1448.2977
1599.2395
746.10013
1788.0133
576.41451
1563.464
1538.2278
1987.3579
1085.6747
1366.0378
993.13629
1468.6087
1437.0153
1806.0717
1116.3883
2376.9755
1062.607
2419.1956
1736.3315
1703.8715
1432.6172
1989.6476
1505.5307
635.03546
1540.9803
982.42457
1850.8102
1670.771
1239.7432
1792.9452
1221.9786
2235.0946
1494.2673
1085.9751
1389.5588
1858.1043
1084.569
1162.9686
1073.3143
1815.3301
1452.921
1227.3917
943.06517
1888.1635
825.55566
1749.3026
1498.5156
1145.828
1215.1593
1034.8049
1571.8272
1124.397
1158.3261
1717.9405
1177.1573
1058.7529
762.96628
1699.5862
924.82413
1345.8073
1715.7762
1187.3678
1213.0931
1145.4089
1702.5447
1031.0517
1217.3238
1685.2812
1213.9919
927.04036
812.93795
1618.9163
864.78324
1327.732
1767.8585
1191.0011
1156.7074
1109.2331
1626.1373
988.04396
1363.847
1515.2516
1228.148
1034.4754
733.80782
1538.8951
944.70499
1141.8535
1643.8084
1224.8249
1205.1835
978.10438
1632.6007
745.80074
1288.6231
1564.3393
1191.9896
1246.8452
959.15353
1058.2979
1116.2326
1165.3101
1484.0065
1029.9191
1305.4754
664.28691
1205.3587
1158.3892
769.74273
1518.0462
1463.284
1321.4025
569.41592
1532.0726
525.49768
507.29407
1669.6877
992.80738
1529.523
745.63777
1006.1351
792.28374
675.34476
1461.9912
1452.5457
1139.9631
425.61902
1113.8538
929.01401
370.04548
1465.4786
1072.4528
1235.5778
488.56382
1367.7964
546.16019
798.42539
1369.1766
1282.0971
1299.6257
385.3829
907.53988
719.51707
179.91559
1225.6494
1038.9765
961.99009
156.33774
987.98444
604.69009
507.29373
1374.625
1085.3749
923.21108
273.73456
915.08684
559.28106
268.8108
1036.1968
931.05912
826.75129
141.46003
780.53808
468.7175
161.09881
1045.1551
858.38169
655.70841
-48.784086
710.44858
311.64912
176.42875
1037.5017
835.6404
535.02347
-51.228442
656.41559
353.9653
91.771054
894.36543
532.60893
404.29904
-164.77232
544.85227
134.19793
-15.947014
762.01961
605.14357
202.30542
-262.34692
293.57235
147.50947
9.326831
668.57134
451.63038
161.57583
-292.81863
298.39805
184.35126
-312.90445
640.52568
282.63949
-88.833953
-442.54367
237.63188
-136.51591
-197.11601
458.79239
337.65596
73.373933
-254.15344
229.77557
-4.4837261