/*--------------------------------*- C++ -*----------------------------------*\
  =========                 |
  \\      /  F ield         | OpenFOAM: The Open Source CFD Toolbox
   \\    /   O peration     | Website:  https://openfoam.org
    \\  /    A nd           | Version:  6
     \\/     M anipulation  |
\*---------------------------------------------------------------------------*/
FoamFile
{
    version     2.0;
    format      ascii;
    class       pointVectorField;
    location    "1.36";
    object      u;
}
// * * * * * * * * * * * * * * * * * * * * * * * * * * * * * * * * * * * * * //

dimensions      [0 1 0 0 0 0 0];

internalField   nonuniform List<vector> 
3969
(
(0 -5.897741e-20 0)
(0 -3.2254856e-19 0)
(-1.8707308 -0.59178271 -0.0077221886)
(-1.9716492 -0.15397084 -0.0090971942)
(0 3.2168857e-18 0)
(0 2.6571403e-18 0)
(-1.9705113 -0.15328465 -0.0090426194)
(-1.869595 -0.59107821 -0.007782895)
(0 1.3437821e-19 0)
(0 8.0770257e-19 0)
(0 3.6174383e-19 0)
(-2.1632058e-18 -1.9478035e-19 0)
(0 1.0659019e-18 0)
(0 -6.1452446e-19 0)
(0 -5.8682191e-19 0)
(-1.8833683 -0.53700253 -0.0078748499)
(-1.8959524 -0.48224742 -0.0080255774)
(-1.9085445 -0.42752145 -0.008208157)
(-1.9211284 -0.37282632 -0.0083906904)
(-1.9337287 -0.31814708 -0.0085902405)
(-1.9463612 -0.26345384 -0.0087740258)
(-1.9590097 -0.20873071 -0.0089438822)
(-0.0035864426 -0.01166104 -0.012639902)
(-0.00486169 -0.019302786 -0.016334788)
(-0.0096037672 -0.028737154 -0.018217022)
(-0.01740863 -0.038125011 -0.019111782)
(-0.027374302 -0.047892107 -0.019403946)
(-0.040137421 -0.057957846 -0.019452764)
(-0.054775446 -0.067969625 -0.019509484)
(-0.072016792 -0.078402178 -0.019362619)
(-0.09115128 -0.088723111 -0.019386082)
(-0.11262889 -0.099310221 -0.01914008)
(-0.13602313 -0.11009432 -0.019161873)
(-0.16151204 -0.12101328 -0.018937345)
(-0.18899194 -0.13215694 -0.018776251)
(-0.21830595 -0.14358145 -0.018576412)
(-0.24961663 -0.15517023 -0.018298614)
(-0.28259115 -0.16702034 -0.017997777)
(-0.31736278 -0.17912994 -0.017694457)
(-0.35378528 -0.19146649 -0.017324427)
(-0.39184188 -0.20406841 -0.016938119)
(-0.43142076 -0.21687256 -0.016514719)
(-0.47248966 -0.22990462 -0.016081849)
(-0.51494212 -0.24313213 -0.015625708)
(-0.5587325 -0.25653229 -0.015161083)
(-0.60377686 -0.27009543 -0.014686655)
(-0.64999436 -0.28377019 -0.014207114)
(-0.6973023 -0.2975821 -0.013730932)
(-0.74562685 -0.31145157 -0.013260573)
(-0.79489627 -0.32538978 -0.012791113)
(-0.84503367 -0.33935512 -0.012331802)
(-0.89594014 -0.35331752 -0.011887111)
(-0.94755267 -0.36726998 -0.011452686)
(-0.99978851 -0.381179 -0.011037194)
(-1.052571 -0.39502956 -0.010639342)
(-1.1058301 -0.40880775 -0.010259754)
(-1.1594908 -0.42249715 -0.0099068362)
(-1.2135003 -0.43608587 -0.0095754983)
(-1.2677717 -0.44957644 -0.009260389)
(-1.3222788 -0.46294642 -0.0089876574)
(-1.3769412 -0.47622019 -0.0087270566)
(-1.4317324 -0.48937374 -0.0085077258)
(-1.4866057 -0.50244398 -0.0082992691)
(-1.5415125 -0.51540659 -0.008136223)
(-1.5964691 -0.52828095 -0.0079883778)
(-1.6513622 -0.54109907 -0.0078801648)
(-1.7062992 -0.5538176 -0.0078023816)
(-1.7611312 -0.56651204 -0.0077508861)
(-1.8159561 -0.57914529 -0.0077375965)
(-0.0014060922 0.010065989 0.014042548)
(-0.0077437185 0.018347424 0.013242496)
(-0.012806507 0.027149532 0.016300639)
(-0.021985473 0.036175907 0.015486147)
(-0.034178035 0.045352503 0.015505628)
(-0.048347166 0.054039539 0.014711509)
(-0.065810586 0.062549593 0.014035907)
(-0.085231881 0.070407061 0.013193146)
(-0.10740152 0.077828708 0.012418351)
(-0.13179851 0.084561773 0.011539706)
(-0.15847781 0.090705228 0.010751266)
(-0.18742851 0.096145422 0.0099570431)
(-0.21842793 0.10084356 0.0091451416)
(-0.25148682 0.1047818 0.0083557691)
(-0.28649517 0.10795648 0.007604879)
(-0.32337144 0.11028201 0.0068527479)
(-0.36206319 0.11179157 0.0061240918)
(-0.40239254 0.11242975 0.0054017466)
(-0.44437956 0.11223337 0.0046724043)
(-0.48783688 0.11115074 0.0039620642)
(-0.53271204 0.10926937 0.003229898)
(-0.57890599 0.10646179 0.0025238785)
(-0.62631761 0.10290596 0.0017736095)
(-0.67487024 0.098493257 0.0010504125)
(-0.72439033 0.093298813 0.00032391793)
(-0.774862 0.087343278 -0.00040284244)
(-0.82610526 0.08067515 -0.0011362356)
(-0.87817621 0.073304794 -0.0018537039)
(-0.93086216 0.065264456 -0.0025442134)
(-0.98410423 0.056620485 -0.0032405418)
(-1.0378475 0.047416437 -0.0039029807)
(-1.091972 0.03769196 -0.0045448225)
(-1.1464413 0.027495176 -0.0051527887)
(-1.201159 0.016871316 -0.0057234958)
(-1.2560832 0.0058686392 -0.0062521938)
(-1.3111513 -0.0054658451 -0.0067390201)
(-1.3663107 -0.017097347 -0.0071745207)
(-1.4215172 -0.028971967 -0.0075624433)
(-1.4767498 -0.04104601 -0.007903574)
(-1.5319612 -0.053301504 -0.0081878542)
(-1.5871517 -0.065680071 -0.0084372573)
(-1.6422749 -0.078171596 -0.0086269293)
(-1.6973485 -0.090734019 -0.0087881646)
(-1.7523373 -0.10335489 -0.0088968792)
(-1.8072665 -0.11600128 -0.0089848202)
(-1.8621143 -0.12866552 -0.0090367676)
(-1.916906 -0.14133148 -0.0090718876)
(0 -3.5090893e-20 0)
(0 4.1113296e-19 0)
(0 -5.024143e-19 0)
(1.0637893e-18 -1.0828363e-19 0)
(0 -9.1949752e-19 0)
(0 -4.286067e-19 0)
(0 -3.5045798e-19 0)
(-0.0052495198 0.0068984879 -0.011180365)
(-0.0089290219 0.022813605 -0.015417792)
(-0.012905987 0.02599608 -0.016121275)
(-0.023331462 0.039397929 -0.017622477)
(-0.034059182 0.046772883 -0.01814831)
(-0.049080348 0.056679983 -0.018080056)
(-0.065670866 0.064881214 -0.018646523)
(-0.085458905 0.073072707 -0.018345327)
(-0.10721881 0.080566914 -0.018818181)
(-0.13160225 0.087279696 -0.018572421)
(-0.15813595 0.093628657 -0.019001434)
(-0.18686598 0.098744354 -0.018794375)
(-0.21781663 0.1034479 -0.018860684)
(-0.25088409 0.10731751 -0.018764068)
(-0.28571602 0.11022212 -0.018592675)
(-0.32266392 0.11258348 -0.018471166)
(-0.36120369 0.1138573 -0.018204785)
(-0.40158444 0.11446752 -0.017955137)
(-0.44349843 0.1141477 -0.017647112)
(-0.4869586 0.11300743 -0.017300181)
(-0.53182808 0.11102444 -0.016938163)
(-0.57800702 0.1081976 -0.016546175)
(-0.62542174 0.10456001 -0.016138689)
(-0.67391895 0.10008948 -0.015712922)
(-0.72351692 0.094886453 -0.01525574)
(-0.77403286 0.088838942 -0.01475645)
(-0.82532447 0.082262729 -0.014382147)
(-0.87732793 0.074841506 -0.01393376)
(-0.93001508 0.066809619 -0.013522725)
(-0.9832461 0.058133715 -0.013098414)
(-1.0369565 0.048891829 -0.012680693)
(-1.0910686 0.039122402 -0.012282363)
(-1.1455011 0.028873571 -0.011895209)
(-1.2001973 0.01818985 -0.011526343)
(-1.2550789 0.0071167982 -0.011176509)
(-1.3101317 -0.0042662499 -0.010853967)
(-1.3652564 -0.015998266 -0.010545072)
(-1.4204272 -0.027903562 -0.010280676)
(-1.475637 -0.040064415 -0.01001967)
(-1.5308317 -0.052373091 -0.0098053359)
(-1.5859923 -0.064814633 -0.0096073074)
(-1.6411161 -0.077356515 -0.0094425388)
(-1.6961734 -0.089962138 -0.0093057808)
(-1.7511699 -0.10261771 -0.0091983358)
(-1.8060969 -0.11528755 -0.0091216777)
(-1.8609511 -0.12797113 -0.009074697)
(-1.9157531 -0.14063072 -0.0090541182)
(-1.9578817 -0.20804245 -0.0088624419)
(-1.9451985 -0.26278456 -0.0086967311)
(-1.932609 -0.31747061 -0.0085446787)
(-1.9199472 -0.37216703 -0.0084094801)
(-1.907419 -0.42683853 -0.0082687975)
(-1.8948021 -0.48157695 -0.0081205335)
(-1.8822283 -0.53631643 -0.0079575362)
(-1.8148413 -0.57845115 -0.0077456782)
(-1.760024 -0.5658174 -0.0077212716)
(-1.7052032 -0.5531268 -0.0076751307)
(-1.6503286 -0.54038064 -0.0076035619)
(-1.595442 -0.52754998 -0.0074966004)
(-1.5405486 -0.51463656 -0.0073512639)
(-1.4856788 -0.50162322 -0.0071650414)
(-1.4308499 -0.48850468 -0.0069306852)
(-1.3761092 -0.47527651 -0.0066438808)
(-1.3214716 -0.46194215 -0.0063119979)
(-1.2670207 -0.44846699 -0.0059199497)
(-1.2127977 -0.43492396 -0.0054938343)
(-1.1587985 -0.42122329 -0.0049883911)
(-1.1051603 -0.40745668 -0.0044568733)
(-1.051913 -0.39359719 -0.0038642162)
(-0.99913971 -0.37966606 -0.0032406993)
(-0.94690447 -0.36568081 -0.0025771151)
(-0.89529108 -0.35166334 -0.0018793104)
(-0.84437177 -0.33762971 -0.0011627815)
(-0.79423832 -0.32360987 -0.00041910722)
(-0.74494999 -0.30962806 0.00033832334)
(-0.69662529 -0.29569954 0.0010966341)
(-0.64929753 -0.28186851 0.0018694499)
(-0.60307874 -0.2681245 0.002641761)
(-0.55804242 -0.25452917 0.0034144566)
(-0.51426294 -0.24107727 0.0041767284)
(-0.47181637 -0.22780124 0.0049436509)
(-0.43077555 -0.21470814 0.0056958921)
(-0.39122169 -0.20183392 0.0064524041)
(-0.3532008 -0.18914808 0.0071955566)
(-0.31679704 -0.17673698 0.0079693158)
(-0.28205749 -0.16453319 0.0086974489)
(-0.24901028 -0.15262369 0.0094545044)
(-0.21802785 -0.14074468 0.010116121)
(-0.18874922 -0.12938235 0.011043269)
(-0.16119438 -0.11811815 0.011583862)
(-0.13579951 -0.10720293 0.01251462)
(-0.11230491 -0.096323959 0.013170656)
(-0.090748517 -0.085901248 0.014097731)
(-0.071722979 -0.075222598 0.014778864)
(-0.054530292 -0.065394702 0.015579518)
(-0.039322006 -0.055190654 0.016279938)
(-0.026943157 -0.045416139 0.017010744)
(-0.016687765 -0.035963389 0.017008566)
(-0.0091443177 -0.027041489 0.016662835)
(-0.0047708019 -0.017090131 0.014910018)
(-0.0071159671 -0.01068024 0.0089302968)
(0 4.3415721e-19 0)
(0 3.4004767e-19 0)
(0 -1.7621202e-19 0)
(0 -1.1578625e-18 5.7944992e-19)
(0 -1.0166134e-18 0)
(0 -2.235177e-19 0)
(0 1.0688718e-18 0)
(0 1.516719e-18 0)
(0 1.4458168e-18 0)
(0 1.3737724e-18 0)
(0 1.1864696e-18 -1.4575281e-19)
(0 3.2051622e-18 0)
(0 1.4050988e-18 0)
(0 -2.5889245e-19 0)
(-1.9715178 -0.15387332 -0.0090951197)
(-1.9713945 -0.15376788 -0.0090874488)
(-1.9712649 -0.15367094 -0.0090855749)
(-1.9711346 -0.15357698 -0.0090737566)
(-1.9709878 -0.15349242 -0.0090709886)
(-1.9708346 -0.1534167 -0.0090575503)
(-1.9706737 -0.15334653 -0.0090456051)
(-1.8705857 -0.59172803 -0.0077299826)
(-1.8704426 -0.59166476 -0.0077370156)
(-1.8702988 -0.59159298 -0.0077521277)
(-1.870158 -0.59150508 -0.0077593811)
(-1.8700158 -0.59140617 -0.0077653904)
(-1.8698734 -0.59129941 -0.0077737872)
(-1.8697339 -0.59118818 -0.0077800391)
(0.00015990758 -0.0097253843 -0.011383855)
(-0.0016939966 -0.014565168 -0.012002563)
(-0.0060809405 -0.021932497 -0.013844891)
(-0.013919411 -0.028481835 -0.014502956)
(-0.023979869 -0.035529426 -0.014857325)
(-0.037107606 -0.043130511 -0.015063191)
(-0.052125564 -0.050527935 -0.015115685)
(-0.069736652 -0.058661964 -0.015244716)
(-0.089514283 -0.066511468 -0.015169004)
(-0.11144249 -0.074996502 -0.015269388)
(-0.13541583 -0.083491923 -0.015235005)
(-0.16148448 -0.092270848 -0.015191253)
(-0.18954686 -0.10148843 -0.015122603)
(-0.21949069 -0.11085661 -0.015006469)
(-0.25138265 -0.12058636 -0.014905145)
(-0.28502111 -0.13064149 -0.014721432)
(-0.32042868 -0.14103473 -0.014549507)
(-0.35750278 -0.15170373 -0.014336596)
(-0.39619751 -0.16274362 -0.014090556)
(-0.43643074 -0.17407219 -0.013824954)
(-0.47812852 -0.18571948 -0.013544201)
(-0.52121181 -0.19764026 -0.013240276)
(-0.56561308 -0.20984367 -0.012935717)
(-0.61123376 -0.22227771 -0.01261706)
(-0.65801475 -0.23495377 -0.012308697)
(-0.70588108 -0.24781135 -0.011976931)
(-0.75471255 -0.26083965 -0.011661099)
(-0.80446487 -0.27402306 -0.011346123)
(-0.85504531 -0.28730809 -0.011042237)
(-0.90636044 -0.30068356 -0.010739952)
(-0.95834339 -0.31412492 -0.010450587)
(-1.010915 -0.32759268 -0.010170164)
(-1.0639918 -0.34107933 -0.0099019678)
(-1.1175134 -0.35455351 -0.0096465318)
(-1.1714003 -0.3680008 -0.0094060753)
(-1.2255926 -0.38140283 -0.009179585)
(-1.280031 -0.3947531 -0.0089669715)
(-1.3346586 -0.40802545 -0.0087782578)
(-1.3894267 -0.42124105 -0.0085983375)
(-1.4442921 -0.43436653 -0.0084476358)
(-1.499216 -0.44743395 -0.0082993893)
(-1.5541671 -0.46040266 -0.0081896944)
(-1.6091246 -0.47332774 -0.0080808662)
(-1.6640427 -0.48615999 -0.0080118476)
(-1.7189626 -0.49894593 -0.0079504142)
(-1.7737902 -0.51167717 -0.0079138285)
(-1.8286102 -0.5243544 -0.007891462)
(0.0034637132 -0.0062789918 -0.0075935094)
(0.0011007696 -0.0085258409 -0.008243514)
(-0.0040013959 -0.014751733 -0.0094170308)
(-0.011769456 -0.018419268 -0.010125073)
(-0.02256773 -0.023652047 -0.010432745)
(-0.035429404 -0.028555298 -0.010590462)
(-0.05095529 -0.033953058 -0.010969739)
(-0.068925658 -0.039497187 -0.010849975)
(-0.088985152 -0.045274544 -0.011298548)
(-0.11130974 -0.051467432 -0.011247561)
(-0.13582348 -0.057769969 -0.01147702)
(-0.16234257 -0.064632891 -0.011497976)
(-0.19092259 -0.071691307 -0.011638367)
(-0.22146971 -0.079171789 -0.011704676)
(-0.25392453 -0.08701531 -0.011749194)
(-0.28814381 -0.095315001 -0.011695282)
(-0.32411994 -0.10398232 -0.011663208)
(-0.36176659 -0.11306424 -0.011574728)
(-0.40103995 -0.12256151 -0.011470589)
(-0.44185321 -0.13244645 -0.011351959)
(-0.48412892 -0.14271933 -0.011206206)
(-0.52778893 -0.15337543 -0.011051385)
(-0.57271758 -0.16436106 -0.010885738)
(-0.61887999 -0.17571103 -0.010721091)
(-0.66616885 -0.18733558 -0.010538812)
(-0.71449148 -0.19925833 -0.010381459)
(-0.7637838 -0.21142724 -0.010211512)
(-0.81396628 -0.22380825 -0.010045203)
(-0.86492718 -0.23639212 -0.0098859823)
(-0.91661752 -0.24913697 -0.0097251799)
(-0.96893835 -0.26201486 -0.0095675379)
(-1.0218144 -0.2749954 -0.0094192221)
(-1.075173 -0.28805597 -0.009270246)
(-1.1289391 -0.30116515 -0.0091314742)
(-1.1830442 -0.31430556 -0.0089957966)
(-1.2374261 -0.32745065 -0.0088696179)
(-1.2920276 -0.34059145 -0.0087452827)
(-1.3467877 -0.35369807 -0.0086364631)
(-1.4016718 -0.36678483 -0.0085266142)
(-1.4566273 -0.37980742 -0.0084319887)
(-1.5116314 -0.39280754 -0.0083375937)
(-1.5666337 -0.40572518 -0.008265444)
(-1.6216441 -0.41861937 -0.0081919628)
(-1.6765933 -0.43143389 -0.0081394045)
(-1.731541 -0.44421693 -0.0080983861)
(-1.7863826 -0.45694135 -0.008063118)
(-1.8412205 -0.46961759 -0.0080538219)
(0.0054144286 -0.003293363 -0.0047088642)
(0.0025092203 -0.0047103326 -0.0048141422)
(-0.0021954495 -0.0074137501 -0.005359385)
(-0.010869855 -0.0096507553 -0.0058785577)
(-0.021319726 -0.012060732 -0.0060001551)
(-0.035086331 -0.01511997 -0.0064782767)
(-0.050984245 -0.017727882 -0.0063957333)
(-0.069254509 -0.021249652 -0.0069436094)
(-0.089831807 -0.024641593 -0.007070633)
(-0.11272466 -0.02858812 -0.0073074038)
(-0.13754485 -0.032922225 -0.0075827126)
(-0.16458713 -0.037552262 -0.0077678143)
(-0.19358105 -0.042699302 -0.007992934)
(-0.22457151 -0.048208223 -0.0081466963)
(-0.25743352 -0.054301011 -0.0083175582)
(-0.29215596 -0.060789916 -0.0083971435)
(-0.32863336 -0.067790422 -0.0085075047)
(-0.36681183 -0.075257549 -0.0085478209)
(-0.40661515 -0.083210068 -0.0086121119)
(-0.44791901 -0.091623776 -0.0086353228)
(-0.49067906 -0.10051157 -0.0086649284)
(-0.53478635 -0.10982158 -0.0086778763)
(-0.5802119 -0.11961459 -0.0086888015)
(-0.62683828 -0.12978124 -0.0086764311)
(-0.6745652 -0.14035492 -0.0086895981)
(-0.72333849 -0.15129523 -0.0086659635)
(-0.77306813 -0.16256947 -0.0086452424)
(-0.82364142 -0.17414218 -0.0086331992)
(-0.87499121 -0.18599394 -0.0086121231)
(-0.92703218 -0.19807068 -0.0085909268)
(-0.97966738 -0.21035983 -0.0085738565)
(-1.0328397 -0.22281811 -0.0085519185)
(-1.0864571 -0.23541778 -0.0085312371)
(-1.1404569 -0.24813215 -0.0085084266)
(-1.1947686 -0.26092733 -0.008485153)
(-1.2493297 -0.27378747 -0.0084578887)
(-1.3040846 -0.28668109 -0.0084313737)
(-1.358981 -0.29959871 -0.0084031573)
(-1.413974 -0.31251794 -0.0083676993)
(-1.4690181 -0.32541923 -0.0083466385)
(-1.5240819 -0.33831138 -0.0083083956)
(-1.5791476 -0.35115267 -0.008295504)
(-1.6341813 -0.36399343 -0.008254244)
(-1.6891702 -0.37675885 -0.0082552534)
(-1.7441188 -0.38952223 -0.0082249139)
(-1.7989823 -0.40221909 -0.0082282809)
(-1.8538315 -0.41489672 -0.0082141879)
(0.0056285083 -0.00056656156 -0.00080970092)
(0.002323777 2.8333069e-05 -0.00022474369)
(-0.0028479102 -0.00063828777 -0.00066663226)
(-0.011055714 -0.00030247716 -0.0012361681)
(-0.022397101 -0.00064728288 -0.0016228294)
(-0.035932202 -0.0010944495 -0.0018788448)
(-0.052039689 -0.001594343 -0.0026120367)
(-0.070497627 -0.0027880787 -0.0027789182)
(-0.091394336 -0.0039311714 -0.0033436764)
(-0.11439027 -0.005852368 -0.0037479908)
(-0.13969685 -0.007890162 -0.0041182779)
(-0.16717653 -0.010628777 -0.0044358915)
(-0.19662718 -0.013727849 -0.0047183263)
(-0.22816746 -0.017383349 -0.0050181791)
(-0.26153682 -0.021596373 -0.0052455581)
(-0.29680813 -0.02634851 -0.005491095)
(-0.33377682 -0.03166596 -0.0056810793)
(-0.37247387 -0.037530455 -0.005879307)
(-0.41274619 -0.043931326 -0.0060612254)
(-0.45455845 -0.050908465 -0.006214586)
(-0.49784736 -0.058420704 -0.006360128)
(-0.54252509 -0.066520109 -0.0064941259)
(-0.58841105 -0.075068453 -0.0066095714)
(-0.6354821 -0.084129561 -0.0067529607)
(-0.68364715 -0.093659164 -0.0068568974)
(-0.73282196 -0.10363414 -0.0069799871)
(-0.78289629 -0.114009 -0.0071229636)
(-0.83381519 -0.12475998 -0.0072583942)
(-0.88547634 -0.13585577 -0.0073825129)
(-0.93779935 -0.14725748 -0.0075183094)
(-0.99070397 -0.15894062 -0.0076342321)
(-1.044115 -0.17085505 -0.0077545026)
(-1.0979474 -0.18298104 -0.0078588437)
(-1.1521396 -0.19527733 -0.007959617)
(-1.2066193 -0.20771422 -0.0080473878)
(-1.2613239 -0.22026407 -0.0081268863)
(-1.3162038 -0.23290052 -0.0081948918)
(-1.3711954 -0.24559339 -0.0082520512)
(-1.4262691 -0.25832298 -0.0083043519)
(-1.4813783 -0.27108054 -0.008334179)
(-1.5365149 -0.2838625 -0.0083574377)
(-1.591614 -0.29662561 -0.0083717951)
(-1.6466949 -0.30939924 -0.0083788905)
(-1.7017056 -0.32212667 -0.0083858812)
(-1.7566824 -0.33486313 -0.008381419)
(-1.8115684 -0.34754697 -0.0083844965)
(-1.8664212 -0.3602217 -0.008388669)
(0.0054254971 0.0020391386 0.002754556)
(0.0013661562 0.0036364076 0.003283846)
(-0.0030381214 0.0060610018 0.0029812622)
(-0.012254379 0.0082250067 0.00277753)
(-0.023287652 0.010452774 0.0026479601)
(-0.037340464 0.012256882 0.0019126154)
(-0.05368373 0.013959732 0.0017202885)
(-0.072703209 0.015087469 0.0012103568)
(-0.093757242 0.016023019 0.00070515366)
(-0.11736877 0.016357799 0.00029768948)
(-0.14305213 0.016322102 -0.00010060355)
(-0.17083541 0.015583328 -0.00057192637)
(-0.20074201 0.014516195 -0.001037595)
(-0.23261505 0.012674354 -0.0014432602)
(-0.26641723 0.010369374 -0.0018811897)
(-0.30207254 0.0074016914 -0.0022712202)
(-0.33952574 0.0037959882 -0.0026199615)
(-0.3786481 -0.00042687454 -0.002959681)
(-0.41939837 -0.005305024 -0.0032837777)
(-0.46165182 -0.010807048 -0.003582265)
(-0.5053713 -0.016955025 -0.0038974131)
(-0.55034817 -0.023640233 -0.0042144073)
(-0.59661326 -0.030977953 -0.0045160297)
(-0.6440966 -0.038841597 -0.0048059312)
(-0.69265498 -0.047299631 -0.0050982723)
(-0.74219317 -0.056255871 -0.0053996435)
(-0.79265302 -0.065714727 -0.0056815492)
(-0.84392525 -0.075624345 -0.0059513126)
(-0.89591139 -0.085956239 -0.0062199706)
(-0.94853503 -0.096670737 -0.0064757402)
(-1.0017159 -0.10773028 -0.0067238053)
(-1.0553759 -0.11909247 -0.006962761)
(-1.1094321 -0.13072876 -0.0071837853)
(-1.1638259 -0.14259404 -0.0073942508)
(-1.2184774 -0.15465547 -0.007585622)
(-1.2733382 -0.16688676 -0.0077591311)
(-1.3283452 -0.17924626 -0.0079123559)
(-1.3834575 -0.19171157 -0.0080509916)
(-1.438624 -0.2042611 -0.0081485107)
(-1.4938309 -0.21688416 -0.0082511548)
(-1.549009 -0.22952793 -0.0083257298)
(-1.6041638 -0.24219267 -0.0083982507)
(-1.659264 -0.25488017 -0.0084355327)
(-1.7143089 -0.26754793 -0.0084872658)
(-1.7692843 -0.28023699 -0.0085012837)
(-1.824178 -0.29288236 -0.0085435775)
(-1.8790198 -0.30554297 -0.0085568974)
(0.004001588 0.0042791449 0.0066690741)
(-0.00084700089 0.0085058128 0.0069025919)
(-0.0057933559 0.013025761 0.0076116156)
(-0.015049525 0.017666078 0.0074520894)
(-0.026349336 0.022033466 0.0069294711)
(-0.040465527 0.026212704 0.0064862334)
(-0.057204931 0.030132672 0.0059078432)
(-0.076228411 0.033478889 0.0052529445)
(-0.097760925 0.036587027 0.0046521287)
(-0.12151622 0.038960879 0.0040227809)
(-0.14755805 0.040987186 0.0034025433)
(-0.17570744 0.042314831 0.0028385679)
(-0.20600421 0.043133118 0.0023092367)
(-0.23829056 0.043252283 0.0017541914)
(-0.27249638 0.042752228 0.0012513283)
(-0.30858991 0.041522195 0.00075140401)
(-0.34644411 0.03962318 0.00028991294)
(-0.38599734 0.036987973 -0.0001887804)
(-0.42716074 0.03367262 -0.0006323157)
(-0.46982727 0.029624399 -0.0010826233)
(-0.51394661 0.024935544 -0.0015223022)
(-0.55937278 0.019398861 -0.0019703681)
(-0.6060551 0.013320786 -0.0023616792)
(-0.65395598 0.0066581866 -0.0028336317)
(-0.70286155 -0.00071121156 -0.0032547019)
(-0.75273109 -0.00864438 -0.0036655752)
(-0.80348749 -0.017198566 -0.0040903012)
(-0.85501852 -0.026266827 -0.0045273054)
(-0.90724053 -0.035841163 -0.0049349553)
(-0.96009273 -0.045862697 -0.0053469061)
(-1.0134712 -0.056300559 -0.0057372566)
(-1.0673017 -0.067113457 -0.0061186357)
(-1.1215161 -0.078262383 -0.00647236)
(-1.1760377 -0.089698955 -0.0068116041)
(-1.2307987 -0.10140087 -0.0071165066)
(-1.2857502 -0.11331496 -0.0074007977)
(-1.3408288 -0.12541398 -0.0076538743)
(-1.3959863 -0.13766557 -0.0078750979)
(-1.4512055 -0.15003727 -0.0080772384)
(-1.5064075 -0.16250335 -0.0082386476)
(-1.5616147 -0.17504523 -0.0083765972)
(-1.6167708 -0.18763732 -0.0084785168)
(-1.6718869 -0.20025754 -0.0085671575)
(-1.7269248 -0.21289723 -0.0086278632)
(-1.7818981 -0.22554876 -0.0086743838)
(-1.8367948 -0.23819212 -0.0087105883)
(-1.8916265 -0.25084289 -0.0087347679)
(0.0016553337 0.0073509182 0.0095083148)
(-0.0034582133 0.012911273 0.010245026)
(-0.0084529713 0.01998015 0.01151637)
(-0.018102703 0.02655947 0.011240302)
(-0.029117633 0.033190543 0.011100493)
(-0.043871067 0.039702996 0.010384657)
(-0.060482223 0.045746804 0.0098931257)
(-0.07998243 0.05143942 0.0090892207)
(-0.10170644 0.056657791 0.0084894788)
(-0.12577887 0.061203835 0.0077212279)
(-0.15224462 0.065346052 0.0070157713)
(-0.18068817 0.068660681 0.0064265232)
(-0.21143448 0.071481685 0.0056862903)
(-0.24405928 0.073506228 0.0050442273)
(-0.27872208 0.074829955 0.004393099)
(-0.31519615 0.075385789 0.0037666346)
(-0.35348802 0.075178862 0.0031469766)
(-0.39345102 0.07419114 0.002553718)
(-0.43502434 0.072422237 0.001962584)
(-0.47811506 0.069872502 0.0013801351)
(-0.52261022 0.066514312 0.00081345903)
(-0.56842962 0.062461006 0.00021535484)
(-0.61552122 0.057559373 -0.00034209879)
(-0.66372901 0.052023296 -0.00093376056)
(-0.712959 0.045727223 -0.0014831787)
(-0.76313951 0.038773734 -0.0020710723)
(-0.8141902 0.031158386 -0.0026628988)
(-0.86599701 0.022927707 -0.0032212077)
(-0.91849155 0.014131449 -0.0037703057)
(-0.97157705 0.0048131735 -0.0043143767)
(-1.0251643 -0.0049935635 -0.0048370554)
(-1.079189 -0.015241124 -0.0053402989)
(-1.133563 -0.025888621 -0.0058170921)
(-1.1882258 -0.036891033 -0.0062659773)
(-1.2431054 -0.048213168 -0.0066780797)
(-1.2981541 -0.059802874 -0.0070609852)
(-1.3533088 -0.071629069 -0.0074007786)
(-1.408542 -0.083655271 -0.0077063683)
(-1.4637882 -0.095840542 -0.0079631486)
(-1.5190397 -0.10815886 -0.0081921461)
(-1.5742612 -0.12058423 -0.0083774106)
(-1.6294403 -0.1330845 -0.0085352298)
(-1.6845513 -0.145643 -0.0086519901)
(-1.7395924 -0.1582365 -0.0087477936)
(-1.7945565 -0.17085721 -0.0088093645)
(-1.8494463 -0.18347985 -0.0088641284)
(-1.9042586 -0.19610754 -0.0088974126)
(0 -1.2804393e-19 0)
(0 7.1825623e-19 0)
(0 6.2065361e-19 0)
(0 5.4771593e-19 -1.8774992e-19)
(0 2.1637677e-19 0)
(0 -7.5994599e-21 0)
(0 1.0518232e-19 0)
(0 3.9273271e-20 0)
(0 -2.5518391e-19 0)
(0 -6.2910498e-19 0)
(0 -7.8153975e-19 -1.2977148e-19)
(0 -1.2812637e-19 0)
(0 1.5782844e-19 0)
(0 3.0485686e-19 0)
(0 2.5237038e-19 0)
(0 3.9751828e-19 0)
(0 7.2601559e-19 0)
(0 7.2633497e-19 3.6585648e-19)
(0 6.2729967e-19 0)
(0 7.3042228e-19 0)
(0 2.4734236e-19 0)
(-4.4009182e-18 2.073256e-19 0)
(1.8815115e-18 -4.7116996e-19 0)
(-1.092432e-19 -1.8901531e-19 0)
(3.3871271e-19 -3.3256113e-19 -2.523694e-19)
(-6.3342231e-19 -4.6484175e-19 0)
(-1.6212587e-18 -6.6447156e-19 0)
(2.4777364e-19 -5.4865578e-19 0)
(0 4.1991566e-19 0)
(0 1.5030874e-19 0)
(0 -2.9148705e-19 0)
(0 2.8416248e-20 7.4364096e-19)
(0 3.2052131e-19 0)
(0 4.6682426e-19 0)
(0 -1.2969886e-19 0)
(0 -3.3948098e-19 0)
(0 -2.7754113e-19 0)
(0 6.5282639e-20 0)
(0 3.2572457e-19 -7.4221785e-20)
(0 2.4099907e-19 0)
(0 -8.7347245e-20 0)
(0 2.2551996e-19 0)
(0 4.0796023e-20 0)
(0 -2.401725e-19 0)
(0 3.5162202e-19 0)
(0 2.2391454e-20 2.5738326e-19)
(0 3.4836209e-19 0)
(0 5.5091417e-19 0)
(0 4.9894139e-19 0)
(-0.0053137118 0.0034541746 0.0071677846)
(-0.0065324937 0.0043526091 0.0048609111)
(-0.0078006279 0.0044832646 0.0024333451)
(-0.0082495379 0.0047667029 0.00049171959)
(-0.0081015334 0.0043926123 -0.0014613021)
(-0.0078381789 0.004599213 -0.0035644744)
(-0.0063556211 0.0032948975 -0.0058635756)
(-0.011422471 0.018515088 0.01049575)
(-0.01370714 0.019790339 0.0058637577)
(-0.014610155 0.018492104 0.0024599836)
(-0.01484008 0.017888448 -0.00033478149)
(-0.014998275 0.018904075 -0.0031395228)
(-0.013640452 0.018913912 -0.0065463285)
(-0.012231909 0.019111732 -0.010781506)
(-0.015645722 0.02498944 0.011422404)
(-0.018378487 0.023895963 0.0079847907)
(-0.020229926 0.024743537 0.0031810165)
(-0.020495078 0.024715304 -0.00015135805)
(-0.020246938 0.024279961 -0.0043616499)
(-0.018916367 0.024829325 -0.0074547707)
(-0.017135344 0.02627708 -0.012704301)
(-0.02656673 0.036719518 0.011205499)
(-0.028894049 0.037057052 0.0073018867)
(-0.030363954 0.03672014 0.0028739967)
(-0.030846189 0.036565854 -0.00073925572)
(-0.030535315 0.036832435 -0.004780679)
(-0.029200658 0.037713874 -0.0091401659)
(-0.026573393 0.037408886 -0.013159467)
(-0.037324744 0.044953209 0.011080489)
(-0.039950061 0.04453892 0.0072668581)
(-0.041740347 0.044609618 0.0028184099)
(-0.042086737 0.044618432 -0.0012732125)
(-0.041862404 0.044906787 -0.0054192208)
(-0.040388436 0.045433385 -0.0093444996)
(-0.038168693 0.046197485 -0.014108988)
(-0.052596301 0.054653798 0.01036572)
(-0.054747367 0.054409267 0.0065580371)
(-0.056473049 0.054346311 0.0021889655)
(-0.056854745 0.054538747 -0.0015265412)
(-0.056490799 0.054655521 -0.0059339018)
(-0.054871224 0.055030527 -0.010053546)
(-0.05246168 0.05562694 -0.014072542)
(-0.069179621 0.062435189 0.009796774)
(-0.071585523 0.06229473 0.0057891622)
(-0.073137036 0.06241041 0.001723845)
(-0.073550317 0.062452857 -0.0021659186)
(-0.073197347 0.062880206 -0.0063306466)
(-0.071812123 0.063632297 -0.010166511)
(-0.069441252 0.064139956 -0.01468782)
(-0.088998792 0.070736441 0.0090018714)
(-0.091223532 0.070665545 0.0053620038)
(-0.092837369 0.07067883 0.0011026818)
(-0.093225255 0.070904588 -0.0027189102)
(-0.092623848 0.070975094 -0.0066055543)
(-0.09130016 0.071566011 -0.010689371)
(-0.088760271 0.072126598 -0.014527024)
(-0.11085279 0.077847532 0.0083707551)
(-0.11308573 0.077707533 0.0043730041)
(-0.11449488 0.077796912 0.00058970814)
(-0.11482705 0.077934908 -0.0031202757)
(-0.11446308 0.078516011 -0.0070606859)
(-0.1130129 0.078958423 -0.010831157)
(-0.11078158 0.079809683 -0.015036159)
(-0.13522815 0.084684139 0.0075476654)
(-0.13734595 0.084618709 0.003963837)
(-0.13874629 0.084535763 4.0258175e-05)
(-0.13923959 0.085013832 -0.0037382478)
(-0.13871118 0.085229222 -0.0074608003)
(-0.13730239 0.085764031 -0.011243433)
(-0.13492838 0.086358955 -0.015036373)
(-0.16184141 0.090733017 0.0068460581)
(-0.16389099 0.090561644 0.0031896225)
(-0.16524414 0.090705036 -0.00068266906)
(-0.16547102 0.09075106 -0.0040313958)
(-0.16509565 0.09118768 -0.0078332059)
(-0.16360155 0.091730422 -0.011342885)
(-0.16146952 0.092721435 -0.01535328)
(-0.19064169 0.096036029 0.0062069569)
(-0.19261872 0.095956083 0.0024898297)
(-0.19385267 0.096003123 -0.00091112741)
(-0.19433251 0.09633545 -0.0045635584)
(-0.19380963 0.096679779 -0.008232689)
(-0.19233703 0.097327944 -0.011616956)
(-0.19029784 0.097931151 -0.015428714)
(-0.22164078 0.10081918 0.0054323334)
(-0.22339402 0.10058233 0.0018994159)
(-0.22469445 0.10068975 -0.0015250722)
(-0.22492498 0.10074667 -0.004983995)
(-0.22444267 0.10116959 -0.0084611206)
(-0.22305844 0.10181661 -0.011732351)
(-0.22099012 0.10249311 -0.015448231)
(-0.2545095 0.10464138 0.0048217218)
(-0.25624111 0.10446975 0.0013826484)
(-0.2575658 0.10449255 -0.0018802983)
(-0.25776823 0.10471598 -0.0052698436)
(-0.25741842 0.10515999 -0.0087011413)
(-0.25600749 0.10576542 -0.011860617)
(-0.25405547 0.10643227 -0.015538079)
(-0.28944598 0.10783899 0.0041762408)
(-0.29114846 0.10760134 0.00078763789)
(-0.29227952 0.10758391 -0.0023388174)
(-0.29251112 0.10773758 -0.0056947844)
(-0.29206727 0.10809975 -0.0088787922)
(-0.29070411 0.10867518 -0.012005538)
(-0.28879196 0.10936645 -0.015468547)
(-0.32622526 0.11009414 0.003538818)
(-0.32777775 0.10984958 0.00033145708)
(-0.32896899 0.1098367 -0.0027195084)
(-0.32916303 0.11001253 -0.0058670682)
(-0.32876512 0.11041235 -0.0090486874)
(-0.3274779 0.11102343 -0.012015213)
(-0.32560327 0.11168945 -0.015431063)
(-0.36475129 0.11159136 0.0029566379)
(-0.36630357 0.11134875 -0.00019046729)
(-0.36739822 0.11128978 -0.0030891132)
(-0.36751768 0.11143319 -0.0062037303)
(-0.36717299 0.11181523 -0.0091979334)
(-0.36586813 0.11236132 -0.012074268)
(-0.36409254 0.11305756 -0.015332203)
(-0.40501125 0.11221687 0.0023392657)
(-0.40646699 0.11195514 -0.00061909419)
(-0.40749976 0.11188106 -0.0034478732)
(-0.40765569 0.11206484 -0.006382845)
(-0.40729598 0.11241444 -0.0092547896)
(-0.40606478 0.11299841 -0.012050969)
(-0.40432507 0.11365431 -0.015169232)
(-0.44685957 0.11201356 0.0017747317)
(-0.44822317 0.1117463 -0.0010874301)
(-0.44923604 0.11166807 -0.0037948213)
(-0.44931949 0.11182403 -0.0066053978)
(-0.44900202 0.11216055 -0.0093694404)
(-0.44778283 0.11271514 -0.012037189)
(-0.44616518 0.11338675 -0.014994666)
(-0.4901875 0.11095185 0.0011824023)
(-0.49150227 0.11067207 -0.0015315843)
(-0.4924318 0.11059132 -0.0040908811)
(-0.49254058 0.11076606 -0.0067850979)
(-0.49221663 0.11107751 -0.0093926362)
(-0.49107894 0.11165302 -0.011956944)
(-0.48949849 0.11227539 -0.014767393)
(-0.53495857 0.10904167 0.00061023161)
(-0.53617814 0.10878464 -0.0019547521)
(-0.53707043 0.10870573 -0.0044169645)
(-0.5371403 0.10885045 -0.0069611731)
(-0.53684347 0.10916466 -0.0094473663)
(-0.53573394 0.10969988 -0.011880045)
(-0.5342495 0.11031756 -0.014539019)
(-0.58101507 0.10630133 3.9145475e-05)