/*--------------------------------*- C++ -*----------------------------------*\
  =========                 |
  \\      /  F ield         | OpenFOAM: The Open Source CFD Toolbox
   \\    /   O peration     | Website:  https://openfoam.org
    \\  /    A nd           | Version:  6
     \\/     M anipulation  |
\*---------------------------------------------------------------------------*/
FoamFile
{
    version     2.0;
    format      ascii;
    class       pointVectorField;
    location    "0.98";
    object      u;
}
// * * * * * * * * * * * * * * * * * * * * * * * * * * * * * * * * * * * * * //

dimensions      [0 1 0 0 0 0 0];

internalField   nonuniform List<vector> 
3969
(
(0 -4.2497216e-20 0)
(0 -2.3241807e-19 0)
(-0.42710813 -0.047754911 0.029140079)
(-0.43059221 0.035722367 0.028226596)
(0 2.3179839e-18 0)
(0 1.9146494e-18 0)
(-0.428904 0.026686567 0.028165755)
(-0.42542893 -0.056813895 0.029108945)
(0 9.6828597e-20 0)
(0 5.8200437e-19 0)
(0 2.6066091e-19 0)
(-1.5587362e-18 -1.4035243e-19 0)
(0 7.6805448e-19 0)
(0 -4.4280647e-19 0)
(0 -4.2284491e-19 0)
(-0.42754553 -0.037306102 0.029020993)
(-0.42799545 -0.026852036 0.028914906)
(-0.42843576 -0.016408074 0.028810435)
(-0.42888182 -0.0059553137 0.028707469)
(-0.42931941 0.0044894404 0.028601334)
(-0.42974469 0.014920567 0.028489482)
(-0.43016407 0.025330284 0.028359651)
(-0.00090026062 -0.002813728 -0.003147135)
(-0.0013037187 -0.0049594017 -0.0040405935)
(-0.0028342759 -0.0072260997 -0.0044820822)
(-0.0050804055 -0.0097370903 -0.0045553736)
(-0.0081362808 -0.012036905 -0.0045604922)
(-0.011850751 -0.01455361 -0.0043886964)
(-0.016318081 -0.016827263 -0.004241141)
(-0.021370784 -0.019246707 -0.0039768648)
(-0.027146488 -0.021413834 -0.0037272288)
(-0.033474874 -0.02368971 -0.0033913717)
(-0.040461621 -0.025722047 -0.0030496596)
(-0.047978792 -0.027825485 -0.0026189081)
(-0.056069999 -0.029676414 -0.002184887)
(-0.064648894 -0.031549627 -0.001662564)
(-0.07369692 -0.03319873 -0.0011179355)
(-0.083173885 -0.034809117 -0.00051339653)
(-0.093020397 -0.036225636 0.00011920289)
(-0.10321361 -0.037563871 0.00079890871)
(-0.11368452 -0.038725309 0.0015130943)
(-0.12440389 -0.03978155 0.0022524372)
(-0.13530581 -0.04068511 0.0030236125)
(-0.14636252 -0.041474401 0.0038058029)
(-0.15751821 -0.042132536 0.0046113977)
(-0.16874584 -0.042682118 0.0054225922)
(-0.18000015 -0.043135972 0.0062468445)
(-0.1912667 -0.043482245 0.0070764887)
(-0.20250379 -0.043757202 0.007912944)
(-0.21370577 -0.043967436 0.0087542371)
(-0.22485074 -0.044112457 0.009609104)
(-0.23593863 -0.044228738 0.010471194)
(-0.2469562 -0.044303984 0.011350459)
(-0.25790561 -0.044368264 0.012245556)
(-0.26878885 -0.044418919 0.01316102)
(-0.27960709 -0.044470709 0.014095652)
(-0.29036306 -0.044531831 0.015058296)
(-0.3010641 -0.044603961 0.016036974)
(-0.31171684 -0.044691052 0.017043434)
(-0.3223213 -0.044811091 0.018078127)
(-0.33288667 -0.044943184 0.019120143)
(-0.34341917 -0.04512498 0.020196882)
(-0.35391778 -0.045319655 0.021277329)
(-0.36440638 -0.045560251 0.02238552)
(-0.37485537 -0.045845874 0.023498363)
(-0.38533036 -0.046138784 0.02462399)
(-0.39575348 -0.046513462 0.025755429)
(-0.40621927 -0.046882489 0.026890404)
(-0.41666909 -0.047306207 0.028026943)
(-0.000554923 0.0032060815 0.0042608385)
(-0.0022871906 0.0055426541 0.0041630388)
(-0.0038260469 0.0083425303 0.0049740596)
(-0.0061930693 0.010862996 0.0049403707)
(-0.0095357837 0.013853991 0.0049427487)
(-0.01337787 0.016496461 0.0048731334)
(-0.018054581 0.0193203 0.0047683264)
(-0.023321196 0.021869544 0.0046815522)
(-0.029317408 0.024498925 0.0045893354)
(-0.035862609 0.026821113 0.0045044978)
(-0.043116071 0.029215973 0.0044460864)
(-0.05085641 0.031273562 0.0043748671)
(-0.059192009 0.033327242 0.0043512158)
(-0.068004719 0.035123207 0.0042954619)
(-0.077281098 0.036790149 0.0043119137)
(-0.086965683 0.03824542 0.004312397)
(-0.097029449 0.03954025 0.0043774328)
(-0.10738404 0.040622785 0.004450068)
(-0.11804295 0.041553399 0.0045789762)
(-0.12886322 0.042270431 0.004742292)
(-0.13991874 0.042864319 0.004955505)
(-0.15102955 0.043250985 0.0052179329)
(-0.16228697 0.043539364 0.0055328742)
(-0.1735365 0.04365976 0.0059036655)
(-0.18484803 0.043696354 0.0063264111)
(-0.19609405 0.043607491 0.006814777)
(-0.20735983 0.043471434 0.0073586732)
(-0.21853418 0.043233303 0.0079635026)
(-0.22965999 0.042966197 0.0086238803)
(-0.24071116 0.042652245 0.0093415712)
(-0.2516819 0.042311897 0.01011549)
(-0.26258216 0.041952487 0.010939736)
(-0.27340257 0.041578611 0.011815239)
(-0.28415687 0.041197959 0.01273378)
(-0.29484534 0.040813467 0.013694507)
(-0.30547482 0.040425589 0.014689036)
(-0.31604728 0.040040946 0.015723791)
(-0.32657785 0.03965618 0.016779335)
(-0.33706304 0.039271594 0.017869924)
(-0.347512 0.038894889 0.018979315)
(-0.35793144 0.038510904 0.020114937)
(-0.36832997 0.038132278 0.021260209)
(-0.37870697 0.037746835 0.022427224)
(-0.38907931 0.037361049 0.023592977)
(-0.39944261 0.036963249 0.024766698)
(-0.40981439 0.036559375 0.025932462)
(-0.42019343 0.036149642 0.027085362)
(0 -2.5285363e-20 0)
(0 2.9624913e-19 0)
(0 -3.6202351e-19 0)
(7.6653218e-19 -7.8025688e-20 0)
(0 -6.625602e-19 0)
(0 -3.0884014e-19 0)
(0 -2.525287e-19 0)
(-0.0015107286 0.0020808426 -0.0033108744)
(-0.0023570935 0.0065099012 -0.0046084708)
(-0.003427605 0.0074237756 -0.0047732806)
(-0.0061440597 0.011102917 -0.0051479626)
(-0.0090839869 0.01337289 -0.0051307885)
(-0.013024149 0.016122783 -0.0050062155)
(-0.017524944 0.018689465 -0.0048962245)
(-0.022830548 0.021186705 -0.0046791432)
(-0.028649132 0.023493216 -0.0044348926)
(-0.035223106 0.025818586 -0.0041908707)
(-0.042332333 0.027848432 -0.0038706564)
(-0.049977326 0.029749081 -0.003498429)
(-0.058356136 0.031565159 -0.0030614923)
(-0.066996722 0.033019544 -0.0025769551)
(-0.07633547 0.034559923 -0.0020731491)
(-0.085870013 0.035601362 -0.0014717027)
(-0.095953149 0.036758221 -0.00088555398)
(-0.10620772 0.037463216 -0.00020882353)
(-0.11683786 0.038197035 0.00046175209)
(-0.12760589 0.038593026 0.0011935627)
(-0.13860241 0.038942815 0.0019279373)
(-0.14968226 0.039048628 0.00269994)
(-0.1608746 0.039079268 0.0034733516)
(-0.17209584 0.038934992 0.0042713612)
(-0.18334432 0.038712861 0.0050712567)
(-0.19456761 0.038375394 0.0058770171)
(-0.20574463 0.03796576 0.0066864922)
(-0.21688341 0.037485806 0.0075075202)
(-0.22796048 0.036949243 0.0083448288)
(-0.2389686 0.036374333 0.009198188)
(-0.24990944 0.035775715 0.010067093)
(-0.26077911 0.035160483 0.010959223)
(-0.27158041 0.034534232 0.011875814)
(-0.28231992 0.03391433 0.012815133)
(-0.29299722 0.033294141 0.013781181)
(-0.30362414 0.032689736 0.014773804)
(-0.31418727 0.032091457 0.015782404)
(-0.32472363 0.031514085 0.016828479)
(-0.33521206 0.030952768 0.017886441)
(-0.3456656 0.030409844 0.018972458)
(-0.35609962 0.029886418 0.020075609)
(-0.36650715 0.029381987 0.021199995)
(-0.37690759 0.02889657 0.022341113)
(-0.38729926 0.028431823 0.023495675)
(-0.39768986 0.02797822 0.024662333)
(-0.40809016 0.027546876 0.025832649)
(-0.41849024 0.027114344 0.027004948)
(-0.42847062 0.016264278 0.028282943)
(-0.42805398 0.0058357974 0.028398479)
(-0.4276103 -0.0046120964 0.028525396)
(-0.42720547 -0.015051756 0.028647295)
(-0.42674599 -0.025521618 0.028774449)
(-0.42632211 -0.035947688 0.028887892)
(-0.42586351 -0.046393127 0.029005536)
(-0.41500226 -0.056370295 0.027909824)
(-0.40459667 -0.055949444 0.026703446)
(-0.39417892 -0.05554037 0.025492836)
(-0.38378348 -0.055135132 0.024273881)
(-0.37338309 -0.05475163 0.023057024)
(-0.36297708 -0.054376658 0.021846234)
(-0.35255415 -0.054017775 0.020652474)
(-0.34211023 -0.05367263 0.019476325)
(-0.33163736 -0.053340144 0.018321637)
(-0.32112807 -0.053016912 0.017194734)
(-0.3105763 -0.052711384 0.016101451)
(-0.29996803 -0.052421576 0.015035549)
(-0.28932553 -0.052110451 0.01400635)
(-0.27861854 -0.051819529 0.013014166)
(-0.26784613 -0.051521335 0.012062687)
(-0.25701185 -0.051215632 0.011158591)
(-0.24610921 -0.050892139 0.010299927)
(-0.2351373 -0.050549002 0.0094946575)
(-0.22410031 -0.050168576 0.0087414929)
(-0.21299973 -0.049750389 0.0080481969)
(-0.20184948 -0.049269381 0.0074071538)
(-0.19066368 -0.048729527 0.0068305147)
(-0.17945341 -0.048100399 0.006308565)
(-0.1682499 -0.047391634 0.0058520345)
(-0.15707976 -0.0465594 0.0054445129)
(-0.14597471 -0.045638474 0.0051061415)
(-0.13497724 -0.04456358 0.0048057199)
(-0.12411706 -0.043395182 0.0045820747)
(-0.11345435 -0.042058193 0.0043816049)
(-0.10301372 -0.040619727 0.0042542053)
(-0.092867615 -0.039026792 0.004151101)
(-0.08303197 -0.03732502 0.00409254)
(-0.073576177 -0.035492567 0.0040684108)
(-0.064589019 -0.033521919 0.0040366892)
(-0.056049442 -0.03145064 0.0040900255)
(-0.047939778 -0.029331444 0.004089226)
(-0.040476624 -0.027056043 0.0041362027)
(-0.033477773 -0.024768437 0.0042017122)
(-0.027143282 -0.022379305 0.0042636406)
(-0.021418656 -0.019940586 0.0043127936)
(-0.016418974 -0.017373569 0.0043708272)
(-0.011852689 -0.014976391 0.0044682965)
(-0.0082646493 -0.012285039 0.0044875416)
(-0.0051894582 -0.0098628189 0.0044575373)
(-0.0029351948 -0.0073850981 0.004282726)
(-0.0015916999 -0.0046982267 0.0037863155)
(-0.001870963 -0.0027899952 0.0023480065)
(0 3.1283966e-19 0)
(0 2.4502737e-19 0)
(0 -1.2697269e-19 0)
(0 -8.3431827e-19 4.1753289e-19)
(0 -7.3253878e-19 0)
(0 -1.6105963e-19 0)
(0 7.7019449e-19 0)
(0 1.0928987e-18 0)
(0 1.0418089e-18 0)
(0 9.8989601e-19 0)
(0 8.5493166e-19 -1.0502476e-19)
(0 2.3095363e-18 0)
(0 1.0124688e-18 0)
(0 -1.8654953e-19 0)
(-0.43036595 0.034594746 0.028219228)
(-0.43014933 0.033465497 0.02820783)
(-0.42994083 0.032346118 0.028196319)
(-0.42973486 0.031226008 0.028186331)
(-0.42953208 0.03010305 0.028181054)
(-0.42932815 0.02897708 0.028182485)
(-0.42911889 0.027834791 0.028174138)
(-0.42690708 -0.048860808 0.029138232)
(-0.42669636 -0.049982153 0.0291253)
(-0.42648583 -0.05109535 0.029113424)
(-0.42627015 -0.052210172 0.029105025)
(-0.42605514 -0.05333564 0.029099647)
(-0.4258422 -0.054471777 0.029099975)
(-0.42563388 -0.055627376 0.029112963)
(5.2770574e-05 -0.0022657039 -0.0027428748)
(-0.00052827946 -0.0035760524 -0.0028765965)
(-0.0019497056 -0.005374632 -0.0032207434)
(-0.0042063813 -0.0069971025 -0.0033293346)
(-0.0072247319 -0.0086682423 -0.0032936069)
(-0.011013118 -0.010381946 -0.0032132716)
(-0.015521762 -0.012065093 -0.0030231154)
(-0.020617643 -0.013712185 -0.0028764807)
(-0.026482435 -0.015330852 -0.0026085607)
(-0.032876368 -0.016922559 -0.0023542582)
(-0.039953206 -0.01842985 -0.0020218281)
(-0.047532139 -0.019910395 -0.0016928929)
(-0.055739287 -0.021297733 -0.0012682429)
(-0.064380311 -0.022654092 -0.00083626993)
(-0.073542748 -0.023899697 -0.00035584781)
(-0.083105673 -0.025100147 0.0001761394)
(-0.093051664 -0.026189047 0.00073490621)
(-0.10332119 -0.027215457 0.0013364012)
(-0.11388325 -0.028134897 0.0019705634)
(-0.1246702 -0.028978907 0.0026374431)
(-0.13564866 -0.029729724 0.0033318405)
(-0.14676739 -0.03039495 0.0040498956)
(-0.15797905 -0.030974365 0.0047874496)
(-0.16925992 -0.031485155 0.0055451545)
(-0.18055146 -0.031906853 0.0063152109)
(-0.19184647 -0.032276145 0.0070954333)
(-0.20311039 -0.032579255 0.0078935039)
(-0.21433094 -0.032827588 0.0087077245)
(-0.2254873 -0.033038588 0.0095311406)
(-0.23658261 -0.033211929 0.010377305)
(-0.24760028 -0.033356118 0.011239829)
(-0.25854819 -0.033487548 0.012125436)
(-0.26942576 -0.03360222 0.013031755)
(-0.28023325 -0.033719919 0.013965494)
(-0.29097893 -0.033835535 0.014919995)
(-0.30167031 -0.033962052 0.015900594)
(-0.31230417 -0.034101262 0.016904902)
(-0.32289572 -0.034260774 0.017935733)
(-0.33344286 -0.034436474 0.018982504)
(-0.343959 -0.034644385 0.020058836)
(-0.35444374 -0.034864054 0.021141572)
(-0.36491179 -0.035131292 0.022256287)
(-0.37535254 -0.035408387 0.023368573)
(-0.38580921 -0.035731634 0.024506959)
(-0.39621844 -0.036086108 0.025638919)
(-0.40668098 -0.036454798 0.026776784)
(-0.41710065 -0.036870841 0.0279084)
(0.0009098454 -0.0013801876 -0.0017624488)
(0.00023058545 -0.0020675126 -0.0018151562)
(-0.0013066349 -0.0034063358 -0.0020913781)
(-0.0035359346 -0.004343842 -0.0021286355)
(-0.0066855733 -0.0054252989 -0.0021071552)
(-0.010483685 -0.0065181775 -0.0019827311)
(-0.014979492 -0.0075233917 -0.0019240867)
(-0.020202942 -0.0086011322 -0.0017249303)
(-0.02607056 -0.0095896647 -0.0015553847)
(-0.032566409 -0.010633164 -0.0013199717)
(-0.039658772 -0.011546871 -0.0010967463)
(-0.047357139 -0.012562164 -0.00076657136)
(-0.055579912 -0.013423072 -0.0004593363)
(-0.06431984 -0.014358147 -9.1766841e-05)
(-0.073534609 -0.015166932 0.00032545417)
(-0.083167454 -0.016007622 0.00077592714)
(-0.093168108 -0.016750525 0.0012673761)
(-0.10351265 -0.017491534 0.0017988537)
(-0.11412211 -0.018142953 0.0023608902)
(-0.12497341 -0.018777951 0.0029599899)
(-0.13599943 -0.019341802 0.0035894786)
(-0.1471611 -0.019860332 0.0042378131)
(-0.15841934 -0.020336488 0.0049233163)
(-0.16972403 -0.020744552 0.0056184385)
(-0.18104807 -0.02112356 0.0063402316)
(-0.19237748 -0.021446106 0.0070870721)
(-0.20366032 -0.021734054 0.0078542415)
(-0.21489651 -0.021986118 0.0086309684)
(-0.22607566 -0.022202028 0.0094442608)
(-0.23717549 -0.022397286 0.010270337)
(-0.24820363 -0.022569144 0.011124515)
(-0.25915626 -0.02273019 0.012004398)
(-0.27003267 -0.022880801 0.012908818)
(-0.28084019 -0.023030458 0.013841448)
(-0.29158343 -0.023180366 0.014798122)
(-0.3022654 -0.023342596 0.015785371)
(-0.31289138 -0.023507813 0.01679089)
(-0.32347752 -0.023699337 0.017828493)
(-0.33401168 -0.023893723 0.018878547)
(-0.34452032 -0.024125115 0.019957506)
(-0.35498485 -0.024360051 0.02104502)
(-0.36544421 -0.024641424 0.02215875)
(-0.3758624 -0.024930352 0.023273309)
(-0.38630204 -0.025263133 0.024404759)
(-0.39669302 -0.025617774 0.025534731)
(-0.40714236 -0.025995172 0.02666669)
(-0.41754269 -0.026412061 0.027799766)
(0.0013232148 -0.000653452 -0.00087425703)
(0.00058642814 -0.00094341897 -0.00087064153)
(-0.00088731977 -0.0014817327 -0.00090515562)
(-0.0033022937 -0.0018927822 -0.00094523118)
(-0.0064289623 -0.0023127792 -0.00085509002)
(-0.010257626 -0.0027397894 -0.00088718289)
(-0.014894818 -0.0031494095 -0.00070513161)
(-0.020081095 -0.0035461772 -0.00064717025)
(-0.026046556 -0.0040045333 -0.00047028096)
(-0.032511906 -0.0043770185 -0.00034594285)
(-0.039725329 -0.0048455114 -9.6834894e-05)
(-0.047403129 -0.0052691448 0.00012398656)
(-0.055701054 -0.0056943558 0.00038520799)
(-0.064471194 -0.0061433435 0.00070724265)
(-0.073742029 -0.0065736286 0.0010423228)
(-0.083408749 -0.0070193657 0.0014196848)
(-0.093471953 -0.0074402224 0.0018515739)
(-0.1038477 -0.0078636697 0.0022926248)
(-0.11450561 -0.0082640289 0.0027932886)
(-0.12539264 -0.008663282 0.0033119293)
(-0.1364514 -0.0090289561 0.0038697682)
(-0.1476527 -0.0093936402 0.0044588682)
(-0.15893109 -0.0097176202 0.0050778049)
(-0.17026989 -0.01004704 0.0057219678)
(-0.18162773 -0.010340322 0.0064050369)
(-0.19296775 -0.01061972 0.0071028141)
(-0.20426308 -0.010876679 0.0078232308)
(-0.21551572 -0.011114302 0.008581498)
(-0.22669112 -0.011333215 0.0093572531)
(-0.23779621 -0.011541535 0.01016335)
(-0.24882308 -0.011735405 0.011002029)
(-0.25976901 -0.011925292 0.011865812)
(-0.27063916 -0.012109449 0.012761505)
(-0.2814387 -0.012294026 0.013685351)
(-0.29216764 -0.012485856 0.014640001)
(-0.30283808 -0.012679046 0.015618902)
(-0.31345253 -0.012887936 0.016626685)
(-0.32401638 -0.013103739 0.01765976)
(-0.33453582 -0.013335913 0.018711895)
(-0.34502522 -0.013589814 0.019794995)
(-0.35548241 -0.013851527 0.020884094)
(-0.36592199 -0.014154135 0.022008555)
(-0.37633676 -0.014453582 0.023121449)
(-0.38676297 -0.014806455 0.024274469)
(-0.39715456 -0.015161589 0.025402193)
(-0.40759449 -0.015555415 0.026555428)
(-0.41798138 -0.015972747 0.027683614)
(0.0014281773 0.00012027657 0.0001043261)
(0.00066077611 0.00032932085 0.00036013352)
(-0.00097732805 0.00040334585 0.00031594118)
(-0.0032663843 0.00064689491 0.00031454848)
(-0.0064760119 0.00088486705 0.00026182353)
(-0.01035953 0.001035633 0.00036360063)
(-0.014912778 0.0012942571 0.00032750928)
(-0.020215718 0.0014267986 0.00044056033)
(-0.026101013 0.0016246086 0.00048807945)
(-0.03270829 0.0017313482 0.00064414396)
(-0.039866773 0.0018307068 0.00078850489)
(-0.047637751 0.0019057322 0.00094397264)
(-0.055958812 0.0019586567 0.0011885498)
(-0.064772501 0.0019274769 0.0014257609)
(-0.074073439 0.0019393055 0.0016921873)
(-0.083772613 0.0018283502 0.0020195717)
(-0.093870285 0.0017756909 0.0023540478)
(-0.10427092 0.0016266698 0.0027452557)
(-0.1149624 0.0015020279 0.0031646736)
(-0.12586695 0.0013324733 0.003614383)
(-0.13695384 0.0011479803 0.0041154061)
(-0.14816967 0.00095297809 0.0046293226)
(-0.15946307 0.00073173224 0.0051938534)
(-0.17081131 0.00051860398 0.0057825497)
(-0.18216432 0.00030066693 0.0064051641)
(-0.19350267 8.0659917e-05 0.0070507576)
(-0.20481058 -0.00013528589 0.0077487025)
(-0.2160605 -0.00035550944 0.0084671182)
(-0.22724154 -0.00056669548 0.0092225491)
(-0.23834822 -0.00078123795 0.010017706)
(-0.24937315 -0.00098994431 0.010841087)
(-0.26031865 -0.0012014054 0.011702078)
(-0.27118755 -0.0014124769 0.012595205)
(-0.28198234 -0.0016275861 0.013522452)
(-0.29270954 -0.0018464856 0.01447861)
(-0.30337669 -0.0020745949 0.015466763)
(-0.31398438 -0.0023067036 0.01648069)
(-0.32454954 -0.0025553524 0.017522739)
(-0.33506944 -0.0028146336 0.018587992)
(-0.34556128 -0.0030868581 0.019673085)
(-0.35600446 -0.003369505 0.020775607)
(-0.36644282 -0.0036794104 0.021896293)
(-0.37684394 -0.003994807 0.023023971)
(-0.38725889 -0.0043517574 0.024167664)
(-0.39763295 -0.0047110828 0.025299839)
(-0.40805092 -0.0051080779 0.026445031)
(-0.41842586 -0.0055194418 0.027575488)
(0.0014072393 0.00082837698 0.0011074291)
(0.00034851472 0.00130312 0.0013850262)
(-0.0010917416 0.0022056777 0.0013966048)
(-0.00351402 0.0030097313 0.0013998066)
(-0.0067837602 0.003853351 0.0014951999)
(-0.010597402 0.0047465979 0.0013957257)
(-0.015300144 0.005491082 0.0015038131)
(-0.020506883 0.0063648311 0.0014688298)
(-0.026533242 0.007016891 0.0015795134)
(-0.033084886 0.0077694576 0.0016288168)
(-0.040327044 0.00836812 0.0017227979)
(-0.048088076 0.0089857721 0.0018574156)
(-0.05642935 0.0094536164 0.0020052234)
(-0.065271058 0.0099350204 0.0021636039)
(-0.0745803 0.010304582 0.0023809238)
(-0.084310293 0.010623395 0.0026089316)
(-0.094419159 0.010885189 0.002892269)
(-0.10484101 0.011055007 0.0031975554)
(-0.11554689 0.011205873 0.0035462551)
(-0.12645952 0.01125836 0.0039301332)
(-0.13756386 0.011295459 0.0043551325)
(-0.14877049 0.011267994 0.0048063628)
(-0.16006531 0.011207183 0.0053196964)
(-0.17142106 0.011107695 0.005852586)
(-0.18277859 0.01097297 0.0064307137)
(-0.19413275 0.010819263 0.0070507028)
(-0.20543894 0.010637518 0.0077089427)
(-0.21669025 0.010446171 0.0083966106)
(-0.22786941 0.010243469 0.0091339017)
(-0.23897187 0.010029189 0.0099015222)
(-0.24999221 0.009809564 0.010712551)
(-0.26093058 0.009580125 0.011559766)
(-0.27179131 0.0093440264 0.012445234)
(-0.28257737 0.0091033128 0.013362933)
(-0.29329484 0.0088503634 0.014317138)
(-0.30394968 0.0085946512 0.015300287)
(-0.31454907 0.0083281137 0.016312899)
(-0.32509783 0.0080487133 0.017355238)
(-0.33560602 0.0077647086 0.018414626)
(-0.34606846 0.0074748989 0.019501982)
(-0.35650647 0.007164831 0.020603761)
(-0.36692119 0.00683573 0.02173407)
(-0.37731605 0.0064975452 0.022861272)
(-0.3877079 0.0061247197 0.024017124)
(-0.3980831 0.0057520031 0.025153607)
(-0.4084912 0.0053403212 0.026318375)
(-0.41887012 0.0049270181 0.027454192)
(0.0010077119 0.0014777349 0.0021874507)
(-0.00027522247 0.0026521233 0.002422885)
(-0.0017812346 0.0042488144 0.0025698788)
(-0.0042860984 0.0055899592 0.0027453919)
(-0.0074699411 0.0072288042 0.002591493)
(-0.011358314 0.0085695445 0.0026647938)
(-0.015984211 0.010093766 0.0025844576)
(-0.021282941 0.011431043 0.0025842159)
(-0.027237111 0.012749964 0.0026012489)
(-0.033833682 0.014009851 0.0025702308)
(-0.041037397 0.015159982 0.0026397945)
(-0.048827174 0.016241778 0.0026952414)
(-0.057168308 0.017242086 0.0027774182)
(-0.065998901 0.018120683 0.0028906815)
(-0.075319522 0.018931648 0.0030187582)
(-0.085034115 0.019606976 0.0031950992)
(-0.09514522 0.020210273 0.0033864787)
(-0.10555705 0.020688609 0.0036252473)
(-0.11625432 0.021089604 0.003900319)
(-0.12715851 0.021381716 0.0042077868)
(-0.1382498 0.021603185 0.0045666435)
(-0.14945004 0.021730545 0.0049555399)
(-0.16075859 0.021781148 0.0054126177)
(-0.17207982 0.021775043 0.0058718418)
(-0.18344282 0.02172681 0.0064142518)
(-0.1947641 0.021603297 0.0069793377)
(-0.20605588 0.021460749 0.0075942887)
(-0.21729144 0.02127299 0.0082545)
(-0.22845779 0.02106625 0.0089610581)
(-0.23954448 0.020833905 0.0097137711)
(-0.25055091 0.020585042 0.010512239)
(-0.26147906 0.020324609 0.011352979)
(-0.27232687 0.020051242 0.01223543)
(-0.2831028 0.019770217 0.013155154)
(-0.29381037 0.019481181 0.014113334)
(-0.30445806 0.019186485 0.015101555)
(-0.31504715 0.018884541 0.016122856)
(-0.32559271 0.018578372 0.01717045)
(-0.3360858 0.018261516 0.018244638)
(-0.34655556 0.017939623 0.019338456)
(-0.35698739 0.017613866 0.020458641)
(-0.36740153 0.017275556 0.021589647)
(-0.37778975 0.016921639 0.022737016)
(-0.38817766 0.016553367 0.023890921)
(-0.39855313 0.016172361 0.025044612)
(-0.40894246 0.015769184 0.026201376)
(-0.41931801 0.015355664 0.0273404)
(0.00038721339 0.0023424767 0.0029906949)
(-0.0010346816 0.0039616497 0.0032714614)
(-0.0025267696 0.0061386151 0.0037243486)
(-0.0050639509 0.0081786494 0.0037257616)
(-0.00822322 0.010276173 0.003744699)
(-0.01212379 0.012382327 0.0037140705)
(-0.016790971 0.014427568 0.0036308451)
(-0.022048574 0.016441238 0.0036122942)
(-0.028045163 0.018315842 0.0035545198)
(-0.034628722 0.020194357 0.0035190435)
(-0.041844924 0.02182931 0.0035360732)
(-0.049661021 0.023511535 0.0034984305)
(-0.057968216 0.024934757 0.0035614591)
(-0.066833202 0.026325632 0.0035742189)
(-0.076127865 0.027521048 0.0036550061)
(-0.085855244 0.028609692 0.0037453475)
(-0.095950977 0.029541773 0.0038713166)
(-0.10635369 0.030340067 0.0040443731)
(-0.11704229 0.031000316 0.0042348269)
(-0.12793283 0.031534618 0.00448668)
(-0.13900195 0.031933847 0.0047688568)
(-0.15019571 0.032235144 0.0051020746)
(-0.16147244 0.032414177 0.0054844639)
(-0.17278708 0.032504431 0.0059162536)
(-0.18412125 0.032511153 0.0063940882)
(-0.19542569 0.03244707 0.0069157513)
(-0.20670394 0.032319351 0.0075018824)
(-0.21792626 0.032144886 0.0081314767)
(-0.22907194 0.031930591 0.0088170298)
(-0.24014588 0.031683363 0.0095529341)
(-0.25113993 0.031412917 0.010336695)
(-0.26205372 0.031123125 0.011168468)
(-0.27289193 0.030817845 0.012044871)
(-0.2836562 0.030503361 0.012961668)
(-0.29435557 0.030176444 0.01391913)
(-0.30499271 0.029849648 0.014906802)
(-0.31557576 0.029511512 0.015932008)
(-0.3261075 0.029172772 0.016984773)
(-0.33660112 0.028828492 0.018058958)
(-0.34705226 0.028480793 0.019162924)
(-0.35747904 0.02812803 0.020283856)
(-0.36787813 0.027764044 0.021426486)
(-0.37826137 0.027392782 0.022576643)
(-0.38863591 0.027007006 0.023740392)
(-0.39900382 0.026610619 0.024897997)
(-0.40937753 0.026193823 0.026061801)
(-0.41975848 0.02576404 0.02720983)
(0 -9.2264316e-20 0)
(0 5.1755223e-19 0)
(0 4.4722293e-19 0)
(0 3.946664e-19 -1.3528653e-19)
(0 1.5591411e-19 0)
(0 -5.4759253e-21 0)
(0 7.5790984e-20 0)
(0 2.829905e-20 0)
(0 -1.8387728e-19 0)
(0 -4.5331272e-19 0)
(0 -5.6315229e-19 -9.3509136e-20)
(0 -9.2323719e-20 0)
(0 1.1372608e-19 0)
(0 2.1967e-19 0)
(0 1.8184994e-19 0)
(0 2.8643883e-19 0)
(0 5.2314338e-19 0)
(0 5.2337351e-19 2.6362436e-19)
(0 4.5201187e-19 0)
(0 5.263187e-19 0)
(0 1.7822691e-19 0)
(-3.1711595e-18 1.4939213e-19 0)
(1.3557564e-18 -3.3950985e-19 0)
(-7.8717118e-20 -1.3619832e-19 0)
(2.4406543e-19 -2.396328e-19 -1.8184923e-19)
(-4.5642365e-19 -3.3494994e-19 0)
(-1.1682267e-18 -4.7879674e-19 0)
(1.7853768e-19 -3.9534363e-19 0)
(0 3.0257766e-19 0)
(0 1.0830762e-19 0)
(0 -2.1003615e-19 0)
(0 2.047583e-20 5.3584365e-19)
(0 2.309573e-19 0)
(0 3.3637848e-19 0)
(0 -9.3456806e-20 0)
(0 -2.4461903e-19 0)
(0 -1.9998717e-19 0)
(0 4.704056e-20 0)
(0 2.347066e-19 -5.348182e-20)
(0 1.7365614e-19 0)
(0 -6.2939602e-20 0)
(0 1.625024e-19 0)
(0 2.9396296e-20 0)
(0 -1.7306055e-19 0)
(0 2.5336747e-19 0)
(0 1.6134558e-20 1.8546206e-19)
(0 2.5101846e-19 0)
(0 3.9697095e-19 0)
(0 3.5952104e-19 0)
(-0.001715428 0.00108432 0.0021643772)
(-0.0020125412 0.0013433826 0.0014080601)
(-0.0023556273 0.0013797117 0.00069224217)
(-0.002452271 0.0014527467 8.2407737e-05)
(-0.0023788851 0.0013312804 -0.00048571416)
(-0.0022706876 0.0013667632 -0.0011278199)
(-0.0018387337 0.00095165268 -0.0017728384)
(-0.0033323563 0.0055116163 0.0032913196)
(-0.0039935384 0.0058424345 0.0018437974)
(-0.0042431875 0.0054190781 0.00075340773)
(-0.0042538522 0.0052032029 -9.7118534e-05)
(-0.0042795443 0.0054432884 -0.00097515686)
(-0.003822704 0.0053929537 -0.0019963497)
(-0.0033887477 0.0054211943 -0.0032506347)
(-0.0046000627 0.0076561168 0.0035532545)
(-0.0053563273 0.0073029683 0.0024345383)
(-0.0058406119 0.0074542481 0.001049771)
(-0.0058676314 0.0073782235 -8.0234644e-05)
(-0.0057363896 0.0071744404 -0.0012757926)
(-0.0052958018 0.007272186 -0.0022483605)
(-0.0047217783 0.0075433889 -0.0037947695)
(-0.0073885711 0.010983985 0.00361672)
(-0.0080904957 0.011002485 0.0024245129)
(-0.0084367706 0.010796204 0.00099685414)
(-0.0085421527 0.010686212 -9.1447382e-05)
(-0.0083911429 0.01069009 -0.0013220214)
(-0.0079706626 0.010803972 -0.0026857721)
(-0.0071149085 0.010661351 -0.003827098)
(-0.010478897 0.013806294 0.0036212817)
(-0.011160846 0.013567716 0.0024194407)
(-0.011620613 0.013545588 0.0010880671)
(-0.011667597 0.013424234 -0.00015502056)
(-0.011529681 0.013322608 -0.0014204795)
(-0.011025897 0.013362726 -0.0025875797)
(-0.0103411 0.013391117 -0.0039820503)
(-0.014423207 0.016563632 0.0035705717)
(-0.01502277 0.01641033 0.0023403413)
(-0.015406783 0.016265518 0.0010638018)
(-0.015508527 0.016196548 -0.00015600205)
(-0.015290178 0.016134964 -0.001413403)
(-0.014846895 0.016072855 -0.0026847581)
(-0.01403281 0.016048702 -0.0038530145)
(-0.019003904 0.019320734 0.0034837164)
(-0.019643447 0.019227762 0.0023104601)
(-0.020046534 0.019108269 0.0010215464)
(-0.02007281 0.01903179 -9.4256628e-05)
(-0.019922919 0.018897424 -0.0013728867)
(-0.019419536 0.018914264 -0.0024933113)
(-0.018684587 0.018786307 -0.0037797444)
(-0.024283588 0.021912483 0.0034502285)
(-0.024820516 0.021719664 0.0022463782)
(-0.02514809 0.021587924 0.0010644035)
(-0.025260767 0.021486503 -0.00012050465)
(-0.025005069 0.021372942 -0.0012885108)
(-0.024572715 0.021283836 -0.002456507)
(-0.023820148 0.021223166 -0.0035830005)
(-0.030168267 0.02443612 0.0033638499)
(-0.030753841 0.024351828 0.0022512511)
(-0.031123854 0.024256363 0.0011024165)
(-0.031114024 0.024045285 -2.2915372e-05)
(-0.030950661 0.023940049 -0.0011405233)
(-0.030437221 0.023796901 -0.0022405192)
(-0.029730373 0.023659864 -0.0034087394)
(-0.036766116 0.026881872 0.0033516019)
(-0.037235555 0.026628819 0.0022397641)
(-0.037516291 0.026455144 0.0010834306)
(-0.03756578 0.02632385 4.2651365e-05)
(-0.037338141 0.026197953 -0.0010716719)
(-0.036902278 0.0260394 -0.0021221249)
(-0.036180451 0.025946096 -0.0031878696)
(-0.043874334 0.029107229 0.0033229695)
(-0.044369975 0.0289539 0.0022626835)
(-0.044674565 0.028814297 0.0012244419)
(-0.044676036 0.028634856 0.00020809605)
(-0.044516447 0.028432276 -0.00084902528)
(-0.044013488 0.028260251 -0.001814701)
(-0.043346352 0.028098699 -0.0029332683)
(-0.051660374 0.031289859 0.0033005523)
(-0.052057271 0.031041113 0.0022749768)
(-0.052268346 0.030821744 0.0012796215)
(-0.052270427 0.030549142 0.00028190799)
(-0.052028036 0.030368592 -0.0006793599)
(-0.051567618 0.030183795 -0.0016363073)
(-0.050948057 0.02999212 -0.0026131827)
(-0.059874715 0.033214808 0.0033470621)
(-0.06026405 0.03297842 0.0023853533)
(-0.060511155 0.032779553 0.0014546777)
(-0.060501624 0.032569442 0.00053406725)
(-0.060298103 0.032368862 -0.00041117247)
(-0.05987408 0.032133589 -0.0012602231)
(-0.059242676 0.031884974 -0.0022211196)
(-0.068651545 0.035062971 0.0033522744)
(-0.068963443 0.034759661 0.0024429225)
(-0.069157293 0.034490236 0.001576523)
(-0.069071153 0.034170482 0.00069790247)
(-0.068898642 0.033906779 -0.00013234485)
(-0.068427058 0.033634496 -0.00095800495)
(-0.067872205 0.033387166 -0.001820056)
(-0.077843242 0.036652791 0.0034339241)
(-0.078145133 0.036351888 0.0026052233)
(-0.078305419 0.03607877 0.0018004605)
(-0.078288209 0.035805758 0.0010039982)
(-0.078067647 0.035538997 0.00020465793)
(-0.07768426 0.035262682 -0.00054465102)
(-0.07712019 0.034934832 -0.001355464)
(-0.087471233 0.038113706 0.0035105903)
(-0.087686735 0.037759885 0.0027401406)
(-0.087842425 0.037439895 0.0020073743)
(-0.08772039 0.037062446 0.0012547296)
(-0.087552787 0.036752078 0.00055810194)
(-0.087126987 0.03637887 -0.00013690853)
(-0.086633882 0.036086344 -0.00084703284)
(-0.097445561 0.039353432 0.0036369612)
(-0.097660731 0.03899458 0.0029539463)
(-0.097739773 0.038632065 0.002274339)
(-0.097683039 0.038302813 0.0016234914)
(-0.097471153 0.03794337 0.00097137912)
(-0.09712047 0.037624332 0.00034941023)
(-0.096621185 0.03721368 -0.00030509681)
(-0.10774993 0.040425533 0.0037964273)
(-0.10786481 0.039999518 0.0031631005)
(-0.10795819 0.039636605 0.0025730017)
(-0.10781643 0.039197576 0.0019647839)
(-0.10765165 0.038839486 0.0013982881)
(-0.10726957 0.038391569 0.00084191429)
(-0.10684554 0.038027405 0.00028374307)
(-0.1182995 0.041295032 0.0039835757)
(-0.11842387 0.04088626 0.0034446163)
(-0.11842917 0.040444489 0.0029096928)
(-0.11834159 0.040052604 0.0023854676)
(-0.11813033 0.039610979 0.0018908559)
(-0.11781739 0.039219998 0.0013966684)
(-0.11739268 0.03874778 0.00090337971)
(-0.12909251 0.042006391 0.0042306355)
(-0.12911414 0.04151429 0.0037461626)
(-0.12914003 0.041090151 0.0032813454)
(-0.12898013 0.040596108 0.0028256956)
(-0.128812 0.040170854 0.0023899117)
(-0.12847965 0.039669544 0.0019663405)