/*--------------------------------*- C++ -*----------------------------------*\
  =========                 |
  \\      /  F ield         | OpenFOAM: The Open Source CFD Toolbox
   \\    /   O peration     | Website:  https://openfoam.org
    \\  /    A nd           | Version:  6
     \\/     M anipulation  |
\*---------------------------------------------------------------------------*/
FoamFile
{
    version     2.0;
    format      ascii;
    class       pointScalarField;
    location    "0.22";
    object      p;
}
// * * * * * * * * * * * * * * * * * * * * * * * * * * * * * * * * * * * * * //

dimensions      [1 -1 -2 0 0 0 0];

internalField   nonuniform List<scalar> 
28033
(
136223.94
-205870.64
6097.243
1746.2158
278736.56
-275830.16
3074.1803
68.713132
132355.96
119894.57
104799.11
84537.209
61882.003
41218.171
18319.236
-5041.3395
-29012.313
-48989.122
-76128.369
-86898.752
-113830.24
-131641.7
-136968.79
-14589.768
-8336.9633
-9018.475
-5560.4552
-5091.1424
-2984.4507
-1157.6753
970.16946
2889.9559
5040.9342
7219.1079
8487.6462
10179.472
11376.857
10295.039
37233.213
42508.45
40684.965
45715.017
47291.948
50030.028
51791.995
53547.16
55389.496
56761.442
57962.672
59458.06
60531.595
61754.552
62698.448
63703.281
64673.574
65743.041
66288.046
67362.096
68180.741
68803.857
69754.179
70483.369
71014.909
71884.39
72643.469
73231.624
73945.518
74626.229
75379.211
76117.138
77115.892
77984.172
78944.787
80012.325
81406.764
82883.821
84088.732
85931.361
87415.769
89000.347
90708.664
92590.163
94232.096
96032.133
97596.558
99190.691
100512.44
101812.08
102820.3
103727.56
104371.42
104837.35
105051.63
105033.26
104773.54
104230.26
103404.95
102345.83
100974.24
99324.151
97377.635
95403.759
93062.601
90652.91
88434.55
85591.919
82562.573
79774.576
76985.17
74332.988
71509.33
68928.577
66022.526
63684.248
60593.098
58454.07
55249.285
53090.946
49989.39
47709.784
44553.566
41764.551
38863.021
35853.133
33156.368
30324.526
26411.163
23975.73
21283.962
16314.456
16502.769
14620.111
11585.043
-37021.817
-35593.726
-42617.876
-41632.048
-47833.923
-49812.619
-51296.417
-53593.237
-55177.81
-56519.923
-57933.375
-59215.153
-60267.295
-61562.789
-62335.173
-63475.685
-64156.895
-65149.884
-65867.846
-66698.77
-67367.507
-68244.118
-68766.337
-69681.139
-70387.866
-70865.55
-71867.849
-72171.05
-73184.591
-73481.057
-74384.506
-74909.008
-75743.632
-76557.425
-77526.605
-78676.055
-79498.935
-80954.21
-82095.928
-83674.137
-85106.929
-86770.169
-88367.381
-90067.591
-91685.07
-93314.216
-94821.454
-96250.933
-97535.097
-98669.723
-99635.395
-100412.12
-101000.64
-101379.37
-101546.22
-101496.34
-101210.2
-100685.26
-99916.061
-98889.214
-97602.77
-96060.452
-94277.186
-92235.692
-89995.479
-87533.925
-85071.288
-82405.747
-79955.427
-76772.077
-74187.46
-71275.842
-68734.719
-65918.188
-63389.31
-60737.897
-58169.581
-55631.991
-53036.431
-50451.647
-47876.647
-45224.305
-42488.491
-39861.891
-36991.972
-34165.67
-31251.456
-28333.515
-25057.322
-22156.197
-19086.32
-15644.587
-12864.757
-11140.56
-7849.1231
241675.15
232066.22
175965.7
170828.31
121765.32
69972.194
40112.793
-7466.7022
-49031.802
-92062.525
-128729.58
-168715.3
-210412.51
-229566.98
-245018.87
-59831.391
-50682.778
-26935.235
-54988.995
-45039.804
-52948.367
-52161.85
-56553.494
-55340.533
-59058.485
-60310.236
-60248.075
-63139.604
-62379.708
-65286.533
-65451.766
-65405.586
-67963.716
-67283.101
-69797.173
-69792.491
-69732.802
-71485.948
-72108.08
-73061.004
-73995.801
-73281.865
-75487.143
-74579.062
-76332.972
-77067.248
-77753.067
-78620.882
-79457.403
-80837.976
-80387.465
-82613.499
-83971.7
-85322.34
-86827.561
-88432.211
-90120.88
-91844.613
-93599.427
-95361.337
-97073.061
-98711.647
-100246.56
-101654.28
-102920.62
-104024.26
-104945.14
-105671.35
-106192.29
-106483.72
-106545.02
-106352.92
-105896.17
-105160.31
-104141.94
-102817.76
-101222.42
-99318.679
-97176.065
-94757.743
-92182.339
-89668.348
-86869.555
-82644.977
-80608.907
-78002.461
-74869.51
-72058.497
-69228.504
-66435.264
-63657.015
-60918.012
-58221.162
-55472.897
-52717.778
-49912.149
-47105.502
-44189.935
-41310.37
-38303.255
-35270.979
-32120.112
-28986.566
-25681.646
-22422.331
-19229.057
-15894.219
-13757.565
-10935.298
-9812.5749
13310.501
13593.568
9988.4487
10671.413
6212.3394
6437.5382
2247.1048
804.15582
-1782.4047
-4416.0183
-4081.6609
-7934.492
-7209.7087
-12396.361
-10494.79
20822.721
16343.557
16760.822
19674.907
21875.81
25216.083
28224.861
31413.724
34323.085
37480.205
40379.257
43077.641
46051.294
48833.43
51662.764
54312.872
57113.45
59716.797
62391.753
65039.096
67669.598
70367.717
73050.247
75705.615
78449.996
80979.529
82622.532
88439.29
89400.891
92573.14
95161.182
97672.208
99817.615
101829.81
103499.82
104885.53
105986.39
106759.22
107262.09
107486.93
107455.99
107183.33
106709.33
106010.74
105142.29
104084.04
102870.26
101494.33
100003.28
98386.576
96631.909
94972.147
92998.506
91463.092
89578.698
87777.841
85949.1
84188.509
83692.139
81766.113
80243.578
80447.559
78568.115
77861.194
76259.479
76925.716
74527.481
75394.278
74021.823
73507.26
72632.008
71289.173
71880.271
70371.822
68989.251
69560.92
67152.258
67953.594
65358.648
65483.471
64917.154
63399.77
61481.29
61786.069
59207.757
57662.211
57508.171
55036.506
53227.112
50552.397
48497.317
47512.686
46025.537
39527.081
46678.345
86135.313
97004.859
102150.27
106967.17
111124.43
113634.95
115593.78
115975.89
115661.27
112543.56
114149.89
106901.5
100502.26
109812.07
84240.666
-165883.15
-198153.54
-194282.36
-211380.22
-202639.12
-197182.82
-227084.41
-238159.63
-224252.24
-223212.84
-213007.49
-205561.79
-192051.3
-191327.05
-186789.4
1729.5872
2287.535
3633.417
4650.941
6232.473
7283.8356
7715.7146
7901.6365
7866.0105
7280.5757
6586.8852
5259.5077
4237.7216
3204.5712
2690.3174
-1556.0343
923.26722
-456.9317
-1632.9455
-2917.0687
-3388.8315
-4156.4765
-4135.5088
-3891.3241
-3466.9981
-2187.697
-1100.4083
-279.87919
3697.4281
-1033.3288
41289.382
39004.319
36919.25
39724.068
41727.95
43482.214
45529.353
47458.309
48876.374
50374.232
51812.774
53041.227
54184.038
55222.433
56283.383
57266.128
58187.852
59001.832
59953.718
60670.03
61547.058
62328.15
63078.817
63771.091
64414.899
65303.878
65806.766
66561.985
67221.858
68044.004
68635.536
69329.513
70319.803
70938.02
72000.554
73022.97
74033.789
75012.621
76449.157
77724.681
79341.352
80715.766
82206.021
83706.375
85154.841
86694.744
88048.604
89435.669
90618.295
91732.988
92640.782
93400.776
93944.704
94290.98
94406.654
94305.061
93965.463
93377.052
92585.217
91552.923
90289.723
88776.041
87175.805
85375.124
83121.972
81036.075
78445.371
76190.725
73790.351
71269.277
68731.789
66236.518
63613.356
61317.801
58667.511
56417.886
53865.588
51763.174
49095.858
47193.339
44599.335
42372.97
40021.787
37740.027
35082.092
32549.925
30019.921
26984.54
24489.055
22264.971
18462.58
16395.781
14094.919
7997.7826
2785.4211
38437.595
32496.459
30403.286
33428.78
33952.905
36038.194
38001.538
39365.383
40826.617
42273.996
43403.356
44518.835
45577.5
46586.708
47465.37
48323.579
49074.45
49981.183
50591.682
51372.333
52006.736
52568.506
53233.986
53855.017
54491.028
54981.934
55616.603
56254.518
56779.829
57379.077
58006.905
58695.707
59307.729
60051.061
60938.429
61624.476
62502.389
63511.178
64488.76
65530.926
66626.716
67922.748
68808.212
70159.48
71284.059
72527.311
73612.195
74746.056
75682.465
76603.558
77309.137
77919.422
78321.763
78560.806
78604.007
78453.169
78105.534
77580.547
76866.367
75991.1
74928.876
73744.135
72501.264
71027.945
69488.489
68556.138
67557.701
65828.456
64264.466
62285.83
60260.092
58317.127
56019.957
54060.127
51473.318
49891.89
47160.379
45776.208
42996.036
41761.725
39039.878
37339.267
35158.045
32348.66
29783.974
27569.04
24734.73
22775.312
20365.797
17469.317
14976.649
12723.51
8491.1451
4755.5815
-2188.0604
31135.863
28492.773
26010.6
27658.226
27754.855
29984.968
31277.221
32590.698
33835.179
35121.651
36077.398
37148.543
38024.295
38870.597
39657.299
40387.805
41083.026
41717.427
42361.367
42970.353
43564.322
44180.371
44708.933
45296.094
45704.675
46291.6
46741.617
47216.66
47712.521
48215.2
48745.638
49225.1
49864.693
50445.723
51122.627
51829.894
52702.254
53498.949
54384.511
55201.949
56090.07
56960.83
58161.449
59106.368
60174.131
61134.952
62112.087
63005.826
63841.478
64572.621
65178.031
65666.095
65980.714
66156.45
66154.035
65985.67
65667.837
65186.777
64556.294
63798.821
62902.109
61888.114
60788.891
59392.466
58231.119
57030.688
56080.093
54405.35
53118.564
51642.909
49995.837
48174.957
46243.025
44517.717
42815.36
41022.753
39462.451
37652.167
36177.666
34394.233
32702.661
31267.505
29000.599
27412.433
25499.221
23537.297
21168.213
19559.496
17206.3
15143.649
13170.341
9721.4176
7475.9031
1947.7461
-747.09283
25274.984
22814.558
20136.221
21652.869
21568.311
23311.994
24435.678
25324.737
26497.957
27440.231
28280.308
29079.528
29857.925
30523.89
31170.675
31794.237
32344.535
32954.57
33421.427
33936.751
34374.324
34796.391
35232.41
35613.844
36050.086
36436.506
36821.086
37255.602
37619.573
38032.549
38444.126
38884.226
39341.429
39756.872
40398.98
40749.789
41339.221
41745.728
42218.868
42817.761
43616.064
44342.065
44908.977
45562.229
46286.611
46974.502
47671.865
48336.24
48946.025
49486.491
49941.913
50293.199
50528.788
50646.047
50628.905
50500.214
50249.385
49885.504
49425.553
48882.293
48257.828
47548.384
46757.18
45939.95
45063.543
44056.275
43194.525
41817.216
40356.097
39224.111
38069.811
36625.702
35526.468
34184.953
32798.034
31518.362
30182.213
29052.619
27671.135
26524.81
25220.446
24016.67
22488.444
21056.239
19520.036
18579.146
16894.698
15265.488
13576.127
11902.327
9561.7562
7637.8995
4717.3357
1625.0518
-2434.1104
20523.587
16788.445
14216.928
16196.358
15783.99
17301.796
18075.32
18773.925
19623.224
20434.476
20944.991
21720.184
22221.69
22783.236
23267.761
23766.005
24165.729
24599.896
24970.985
25391.091
25741.777
26133.413
26426.387
26797.682
27065.196
27375.367
27648.603
27926.602
28214.455
28517.694
28834.219
29148.36
29474.804
29889.028
30275.751
30641.695
31610.388
32511.385
33011.48
34157.052
34480.508
34988.115
35686.748
36284.937
36916.097
37464.925
38054.955
38571.667
39082.63
39517.428
39892.384
40182.991
40382.49
40479.651
40486.24
40393.362
40209.594
39942.463
39609.248
39194.562
38758.131
38132.926
37667.639
36924.298
36128.824
35466.975
34547.293
33622.631
32556.763
31517.035
30491.701
29134.351
27273.85
25881.059
24661.776
23584.87
22756.329
21769.19
20901.527
20093.367
18989.988
18335.798
17048.754
16454.031
15015.953
14460.095
12756.695
11944.225
10342.931
8870.2784
7432.988
5695.2824
4064.56
972.40341
-1642.0346
12667.221
11175.448
9432.1218
10710.248
9962.1534
10927.358
11671.234
11853.177
12677.213
13020.875
13520.067
13907.42
14336.673
14634.699
15024.805
15331.775
15608.63
15938.963
16166.202
16418.322
16620.058
16829.223
17028.25
17232.972
17411.358
17608.411
17789.77
17995.69
18162.979
18355.446
18551.528
18739.814
18983.245
19190.008
19395.621
19715.322
20172.592
20530.864
21766.153
22269.382
22998.944
23267.011
23590.293
23953.98
24325.016
24670.111
25035.161
25382.562
25716.974
26015.519
26278.327
26487.515
26636.919
26726.957
26751.613
26710.755
26615.822
26467.876
26266.968
26030.714
25737.862
25458.085
25062.564
24661.68
24315.29
23681.237
23302.258
22676.696
22053.389
21434.137
20625.765
19710.982
18831.132
17331.493
16358.317
15833.88
15227.281
14696.452
14118.384
13732.621
12822.384
12725.643
11484.827
11445.645
10039.904
10065.001
8475.0932
8436.0435
6944.5431
6690.1358
5584.2446
4388.3173
3063.8803
859.82657
-356.23321
5617.8863
4703.7971
3942.6552
4854.3881
4142.9418
5004.765
5235.2984
5337.7326
5671.2991
5993.9154
6025.3268
6409.9632
6504.9247
6738.3384
6904.2761
7090.6
7213.1624
7418.3809
7522.0665
7705.4657
7820.889
7968.76
8075.6886
8190.2814
8264.1818
8368.608
8436.4127
8518.9273
8595.3813
8703.5144
8793.4807
8907.4907
9002.3558
9103.877
9250.8513
9357.0903
9493.2624
9658.2147
9573.7752
9719.5754
9880.2223
10051.745
10183.589
10420.461
10619.501
10816.383
11016.987
11211.726
11389.458
11554.601
11699.533
11811.703
11901.66
11955.674
11982.894
11979.277
11956.512
11909.024
11842.734
11759.717
11676.911
11542.947
11428.678
11272.141
11056.094
10902.589
10583.719
10328.346
10040.112
9696.661
9400.9064
9061.1121
8564.2427
8567.6414
8431.4402
8176.9429
7850.052
7590.975
7392.489
7074.8093
6803.6545
6666.6039
6013.3786
6212.1535
5238.9861
5577.9372
4535.2428
4892.2464
3892.0744
3867.9833
2826.4059
2258.7387
2043.8074
1056.0945
744.27585
-1303.0344
-1756.0838
-1670.0954
-1548.7944
-1588.78
-1572.0105
-1358.0013
-1720.7978
-1412.4188
-1613.3463
-1554.1932
-1579.3349
-1538.7871
-1583.9682
-1525.3678
-1509.3587
-1517.5429
-1454.4656
-1489.1671
-1466.9823
-1458.4862
-1412.709
-1482.7799
-1490.2692
-1491.7682
-1513.2435
-1524.3108
-1534.3861
-1549.0853
-1576.8248
-1592.3498
-1620.163
-1646.6177
-1645.9831
-1697.6195
-1755.1472
-1737.0013
-1848.0472
-1855.8086
-2014.8429
-2040.3106
-2076.6547
-2192.839
-2261.3332
-2315.344
-2370.0161
-2379.6241
-2388.2016
-2377.1975
-2361.8823
-2338.3015
-2313.411
-2284.3757
-2258.8312
-2218.9218
-2181.9352
-2128.0678
-2055.6692
-1983.9602
-1864.7611
-1760.734
-1617.6696
-1474.0155
-1325.4256
-1146.6082
-1048.1379
-868.85926
-761.66315
-678.85515
-552.0096
-540.77827
-467.94417
-512.50236
-397.52086
-262.44429
-75.934806
-29.569827
147.16134
247.23936
368.94153
536.63069
504.31437
718.94612
688.60363
642.07508
936.14949
450.79164
1160.4548
358.77135
1307.1478
1051.6058
1849.2905
2064.4558
1509.85
2182.2407
-8256.6705
-7682.2958
-6879.9182
-6687.768
-7218.1399
-7463.9818
-7651.4089
-8117.838
-8377.7313
-8563.5673
-8966.9871
-9028.4039
-9295.8897
-9457.415
-9580.6106
-9715.7849
-9885.563
-9951.3409
-10125.64
-10225.803
-10329.235
-10547.897
-10646.438
-10722.948
-10864.624
-10987.262
-11118.54
-11229.949
-11364.335
-11476.339
-11593.982
-11719.981
-11846.993
-11994.003
-12162.95
-12287.274
-12517.692
-12658
-12871.989
-13028.402
-13228.358
-13414.131
-13614.551
-13750.667
-13892.487
-14030.806
-14143.706
-14240.532
-14318.938
-14380.446
-14412.367
-14429.182
-14420.525
-14386.078
-14320.299
-14234.419
-14105.167
-13948.131
-13762.677
-13535.609
-13285.865
-13021.315
-12716.486
-12406.378
-12130.84
-11773.87
-11467.533
-11136.15
-10780.138
-10430.012
-10086.781
-9616.5437
-9284.0748
-8765.5072
-8415.2671
-8141.855
-7602.7591
-7200.1876
-6738.6396
-6374.2326
-5877.2291
-5601.3771
-5085.8891
-4748.9766
-4448.2859
-3649.1633
-3787.5978
-2329.0292
-2778.2022
-1117.2866
-1375.9526
-586.93587
-179.87798
1156.2479
3109.9587
-15577.352
-14847.353
-12550.682
-13652.51
-13943.619
-14502.12
-15052.624
-15834.539
-16217.55
-16796.677
-17259.116
-17612.659
-18024.206
-18348.241
-18626.838
-18903.791
-19182.765
-19398.011
-19632.528
-19892.844
-20064.166
-19971.953
-20055.062
-20335.465
-20530.787
-20772.866
-20935.93
-21158.372
-21341.418
-21556.938
-21774.232
-21999.619
-22268.761
-22516.601
-22785.269
-23124.214
-23422.714
-23814.344
-24164.834
-24595.665
-25006.005
-25422.86
-25835.028
-26258.174
-26638.684
-27016.136
-27337.679
-27632.171
-27888.927
-28101.905
-28265.774
-28391.48
-28459.214
-28476.851
-28435.593
-28336.567
-28168.762
-27931.961
-27641.304
-27254.379
-26832.188
-26331.524
-25767
-25189.376
-24534.946
-23875.384
-23178.894
-22494.596
-21775.977
-21090.294
-20313.257
-19580.584
-18882.246
-17549.495
-16181.446
-15306.173
-14477.886
-13823.867
-12937.41
-12475.401
-11344.251
-11196.543
-9886.6308
-9729.0969
-8652.7924
-7944.643
-7467.9224
-5778.625
-5975.9274
-3535.0361
-3530.2315
-1923.1561
-325.68495
1576.1642
3674.5244
-22182.48
-17257.936
-16628.026
-17786.057
-18157.638
-19487.841
-20146.259
-21236.357
-21912.848
-22679.317
-23370.836
-23957.776
-24462.185
-24998.981
-25389.196
-25809.835
-26217.35
-26534.126
-26888.381
-27365.888
-27948.079
-28714.423
-29078.079
-29651.096
-30034.888
-30374.388
-30704.68
-31030.261
-31328.728
-31670.282
-31988.812
-32358.476
-32737.567
-33115.645
-33553.642
-33977.134
-34473.869
-34938.801
-35463.874
-35978.671
-36515.72
-37030.797
-37567.506
-38064.396
-38551.862
-39014.157
-39443.425
-39836.225
-40184.391
-40480.364
-40717.863
-40895.711
-40998.057
-41030.484
-40976.483
-40845.276
-40618.754
-40314.223
-39918.506
-39441.331
-38887.674
-38263.893
-37578.926
-36833.143
-36078.612
-35247.601
-34376.493
-33462.622
-32528.932
-31499.845
-30477.806
-29515.097
-28307.689
-27049.249
-25702.709
-24387.449
-22811.392
-21571.469
-20433.336
-19330.268
-18358.042
-17152.396
-16231.189
-15062.098
-13956.244
-12946.598
-11531.927
-10547.566
-8952.5944
-7488.1558
-6014.8389
-3775.3294
-1646.9917
828.55688
5622.1596
-25115.851
-24503.375
-22654.594
-23716.689
-24476.113
-26055.226
-27006.844
-28346.826
-29215.92
-30311.446
-31052.522
-31829.326
-32496.548
-33143.941
-33680.703
-34248.4
-34724.878
-35154.653
-35671.891
-36076.456
-36699.67
-37225.697
-38308.79
-39054.693
-39450.731
-39992.046
-40362.729
-40771.669
-41141.29
-41528.271
-41958.699
-42338.488
-42849.188
-43323.684
-43852.061
-44440.517
-45022.594
-45692.983
-46373.738
-47120.479
-47856.85
-48655.573
-49428.297
-50219.214
-50971.454
-51698.789
-52376.451
-52993.028
-53542.858
-54017.455
-54402.086
-54699.717
-54895.97
-54990.949
-54975.198
-54849.416
-54605.619
-54239.427
-53759.083
-53147.786
-52418.735
-51586.861
-50604.622
-49566.125
-48414.549
-47203.727
-45909.982
-44625.393
-43241.871
-41831.707
-40490.238
-38963.692
-37551.117
-36143.828
-34664.244
-33755.308
-32136.692
-30567.477
-29072.792
-27655.816
-26082.651
-24661.076
-23095.736
-21606.925
-19933.404
-18553.265
-16493.874
-15227.761
-13063.12
-11153.649
-9447.4421
-6055.5015
-3189.0496
1620.9258
7021.6241
-35652.679
-32501.879
-28215.481
-30767.183
-31209.445
-33487.695
-34708.597
-36220.55
-37563.524
-38740.177
-39851.481
-40792.386
-41758.796
-42540.262
-43265.548
-44025.437
-44685.398
-45247.995
-45897.235
-46439.45
-46993.062
-47660.429
-47847.973
-48420.142
-48800.2
-49431.233
-49889.397
-50409.615
-50878.98
-51428.423
-51913.944
-52444.45
-53095.584
-53708.905
-54414.497
-55132.89
-55888.397
-56696.816
-57557.077
-58420.249
-59343.684
-60248.843
-61172.362
-62075.486
-62958.044
-63810.186
-64611.31
-65350.858
-66021.012
-66605.952
-67090.517
-67474.526
-67734.259
-67872.089
-67868.09
-67731.012
-67437.206
-67003.917
-66420.699
-65689.449
-64833.315
-63827.783
-62714.612
-61487.552
-60159.934
-58761.891
-57259.481
-55699.08
-54100.506
-52389.876
-50618.188
-48868.8
-47069.42
-45182.29
-43326.839
-41460.41
-39625.168
-37799.196
-35945.366
-34092.245
-32279.934
-30424.886
-28579.888
-26670.812
-24811.965
-22756.154
-20749.945
-18743.721
-16147.779
-14323.501
-11106.568
-8492.2096
-5117.9355
-774.73141
5059.1914
-37652.81
-37047.745
-32685.371
-36698.024
-37991.818
-40177.798
-41809.117
-43636.188
-45119.955
-46333.334
-47712.505
-48663.506
-49699.697
-50683.443
-51424.865
-52376.835
-53056.385
-53721.679
-54467.515
-55042.381
-55651.557
-56315.583
-56791.993
-57596.131
-57981.629
-58675.616
-59193.363
-59716.338
-60427.476
-60917.411
-61580.265
-62109.111
-62795.651
-63432.271
-64286.294
-65189.566
-66043.338
-67093.926
-68101.049
-69270.1
-70438.133
-71675.447
-72930.829
-74181.507
-75419.18
-76600.946
-77716.485
-78742.235
-79660.707
-80456.586
-81117.005
-81636.439
-82001.996
-82211.373
-82258.281
-82136.876
-81840.329
-81366.176
-80706.24
-79861.014
-78820.658
-77597.938
-76192.441
-74588.305
-72825.703
-70885.325
-68821.091
-66846.183
-64797.461
-62488.787
-60422.861
-58212.554
-55961.145
-53889.643
-51635.814
-49528.211
-47386.93
-45259.314
-43114.163
-41026.911
-38860.535
-36685.315
-34468.19
-32251.936
-29854.996
-27596.93
-25090.421
-22597.957
-19903.961
-17582.843
-13831.646
-11917.184
-7486.0218
-2893.047
4533.5346
-49427.691
-36811.084
-38326.294
-42247.201
-43363.787
-45864.082
-47974.5
-49949.817
-51321.631
-53069.032
-54325.95
-55501.457
-56627.548
-57637.576
-58623.594
-59611.011
-60424.304
-61219.696
-61997.49
-62743.48
-63340.483
-64165.809
-64734.357
-65548.643
-66168.174
-66824.667
-67420.128
-68027.679
-68840.206
-69496.812
-70232.687
-70905.996
-71666.388
-72349.178
-73256.449
-74433.406
-75462.32
-76638.907
-77861.9
-79222.884
-80603.43
-82064.937
-83532.586
-85015.599
-86470.845
-87875.1
-89206.71
-90438.518
-91543.563
-92513.773
-93320.496
-93965.104
-94420.954
-94694.248
-94765.146
-94632.15
-94283.745
-93720.714
-92929.498
-91910.191
-90670.052
-89214.402
-87536.661
-85660.379
-83603.412
-81260.412
-78808.182
-76346.514
-74079.863
-71521.985
-69124.72
-66425.172
-64010.553
-61474.361
-58992.968
-56535.545
-54198.143
-51707.916
-49345.657
-46876.152
-44390.231
-41862.63
-39370.679
-36666.332
-34080.821
-31387.839
-28499.264
-25779.417
-22888.33
-20008.908
-16818.314
-14925.172
-10780.355
-7327.9561
-101.58798
84026.296
83576.22
78014.978
81379.251
81388.382
82094.1
85542.042
83018.612
83693.241
82357.183
82348.943
80014.301
78376.823
84762.427
71596.244
79738.749
81310.286
75199.634
77632.926
78230.087
80037.844
77562.771
80520.368
79801.353
80449.798
78766.698
78669.092
78575.063
79739.821
70443.856
58823.868
70545.205
61002.867
64463.24
63118.566
63052.95
63986.691
63046.344
63502.847
62957.635
62561.832
64049.153
59610.982
67634.617
63916.662
55371.546
54707.629
54057.411
53254.535
54909.033
54190.169
54622.476
55198.294
54605.762
54800.296
54943.055
53822.42
53175.247
58982.323
44504.551
38351.989
43908.077
37306.355
40922.289
39845.329
40474.715
40566.108
39998.02
40847.786
40725.272
40401.644
40540.432
40284.54
41827.462
38878.112
26786.776
28358.013
26391.921
27110.339
26801.332
27097.665
27033.884
27222.365
27019.915
27281.621
26806.583
27504.85
26744.408
28205.315
27887.8
12993.633
13074.482
12691.634
12223.16
13434.609
12736.242
13317.443
13206.104
12971.928
13288.411
13438.01
12186.516
14153.661
13049.836
14937.874
-490.65297
-1380.3693
-1890.0247
-1133.1851
-1314.317
-1443.871
-980.29466
-1357.1119
-1097.3993
-1007.8658
-1440.4732
-1002.5391
439.80682
-2373.4523
4663.9113
-16060.032
-16760.178
-15789.241
-16075.924
-16065.27
-15957.979
-15973.721
-15420.858
-16310.742
-13997.527
-15539.094
-14966.725
-13085.9
-16442.021
-5449.7413
-26463.742
-31418.565
-28024.728
-28891.396
-28453.538
-29011.831
-28503.885
-29049.58
-28806.985
-28419.58
-29985.204
-28199.747
-26777.427
-31876.232
-21136.626
-42112.405
-47993.329
-41496.637
-44863.079
-43029.559
-43001.022
-43252.556
-42575.37
-43585.942
-40996.627
-41782.221
-43265.43
-38098.512
-43727.035
-30607.245
-58685.011
-56452.033
-54566.364
-54917.653
-55407.939
-56320.9
-55756.256
-56673.098
-56206.743
-55932.559
-57041.577
-51365.738
-53636.061
-57039.405
-46277.409
-67514.85
-70019.516
-65409.425
-64946.293
-63792.074
-64195.395
-64188.708
-64065.724
-63626.25
-61614.679
-63170.272
-65492.874
-58409.678
-70847.285
-40446.654
-72916.197
-87316.349
-71789.585
-79993.965
-79929.659
-79207.833
-79973.12
-82427.789
-80307.917
-84966.416
-79208.994
-77204.247
-80057.82
-76586.732
-78163.89
-89708.921
-75200.201
-72119.633
-71666.665
-73864.676
-78993.581
-74508.464
-70531.009
-70239.351
-68761.348
-71906.737
-72234.223
-71226.166
-79277.266
-71823.374
-56860.619
-52647.936
-60856.467
-62240.972
-66071.047
-69815.887
-68542.429
-64990.339
-72791.272
-71531.418
-69144.483
-64184.461
-61604.915
-60020.291
-48842.875
-51483.207
-49825.379
-54966.533
-56450.968
-58880.574
-61067.565
-62650.534
-62693.92
-64352.312
-62175.439
-61191.07
-57697.496
-57979.069
-58634.431
-58524.193
-41474.774
-44829.872
-43335.885
-46608.711
-48506.983
-46908.824
-48977.1
-48219.369
-47288.781
-49038.536
-47422.95
-48570.718
-47802.521
-43194.747
-46188.709
-48327.286
-53930.371
-53807.094
-55215.999
-55632.471
-57154.523
-57444.081
-57885.474
-58023.734
-56866.681
-56644.374
-54916.49
-54086.234
-53193.516
-50934.895
-51020.353
-53245.8
-51327.272
-54875.539
-54824.001
-55495.471
-57025.416
-56447.293
-57055.848
-57242.242
-55865.451
-55092.949
-53399.765
-51691.281
-51459.463
-51775.181
-53812.194
-55127.564
-56753.169
-56837.761
-58314.897
-58137.518
-58308.454
-58179.634
-57383.981
-57192.094
-56215.205
-55610.233
-54242.921
-52074.911
-53647.686
-55786.086
-56001.196
-57715.172
-57574.74
-58423.415
-58974.819
-59075.171
-59094.041
-58771.082
-57771.262
-57253.56
-56068.742
-54429.647
-54483.276
-55505.301
-56341.672
-57488.292
-58609.026
-59547.295
-60002.219
-60478.853
-60592.12
-60492.621
-60217.916
-59726.777
-58799.169
-58118.609
-56489.81
-55705.741
-56517.001
-57695.855
-58281.702
-59232.294
-59087.817
-59927.295
-59996.671
-60303.408
-60116.285
-59840.069
-59219.314
-58608.971
-58180.465
-57003.455
-57151.395
-58085.008
-58514.101
-59559.161
-60140.456
-60859.87
-61206.637
-61638.185
-61659.186
-61672.582
-61449.223
-61059.254
-60530.199
-59916.945
-58943.462
-58852.113
-59229.207
-59906.954
-60393.647
-60957.01
-61012.217
-61530.857
-61659.406
-61808.697
-61707.047
-61724.237
-61244.515
-60908.471
-60294.932
-59932.428
-59353.576
-60401.793
-60634.042
-61386.134
-61607.689
-62031.327
-62252.122
-62447.547
-62470.29
-62484.546
-62278.298
-61948.727
-61564.94
-61317.952
-60571.233
-60828.985
-61674.334
-61776.691
-62067.072
-62713.137
-62702.076
-63073.293
-63044.53
-63252.761
-63239.154
-63087.129
-62842.221
-62767.999
-62185.17
-62165.081
-61649.299
-62368.576
-62806.179
-63306.675
-63184.532
-63488.611
-63559.747
-63587.9
-63839.985
-63667.114
-63580.436
-63367.558
-63160.611
-62935.733
-62503.308
-62814.74
-63644.355
-63546.866
-63882.932
-64215.971
-64192.126
-64312.36
-64459.12
-64076.078
-64481.272
-64362.947
-64139.4
-64128.464
-63836.876
-63813.143
-63640.211
-64325.944
-64643.906
-64868.97
-64927.032
-64885.479
-65005.698
-65197.681
-65078.399
-64954.092
-65013.572
-64874.038
-64889.329
-64548.954
-64639.698
-64670.008
-65447.202
-65257.431
-65626.854
-65507.805
-65662.923
-65688.424
-65697.32
-65565.454
-65714.013
-65631.688
-65558.907
-65597.074
-65703.922
-65068.552
-65877.412
-66338.163
-66198.431
-66430.988
-66250.131
-66257.066
-66287.804
-66349.116
-66138.15
-66243.226
-66265.853
-66145.25
-66291.73
-66003.968
-66356.621
-66322.638
-66932.531
-66941.348
-67121.834
-67179.417
-67000.343
-66946.08
-66690.944
-66999.253
-66971.723
-67026.892
-66969.419
-67056.606
-67043.46
-67130.986
-67398.874
-67831.998
-67649.659
-67800.265
-67561.39
-67619.759
-67549.585
-67622.087
-67242.521
-67491.737
-67443.537
-67183.315
-67734.757
-67635.979
-67898.201
-67930.414
-68651.367
-68394.625
-68574.829
-68348.434
-68231.823
-68008.652
-68158.735
-68118.393
-68199.716
-68155.181
-68350.195
-68393.237
-68312.521
-68654.761
-68753.787
-69055.537
-69240.154
-69121.867
-69038.446
-68911.81
-68724.192
-68740.044
-68599.953
-68804.863
-68571.495
-68779.346
-69176.647
-69227.73
-69090.436
-69869.574
-70114.81
-69646.874
-69840.101
-69600.333
-69551.204
-69258.444
-69385.627
-69260.087
-69146.832
-69579.673
-69424.813
-69623.653
-69636.805
-70042.884
-70270.544
-70638.557
-70486.106
-70467.882
-70382.823
-70118.953
-70063.366
-69842.475
-69733.785
-69927.856
-69846.876
-69960.929
-70345.182
-70464.264
-70548.284
-70978.641
-71219.649
-71251.437
-70946.304
-70936.542
-70683.424
-70367.558
-70593.164
-70373.6
-70495.61
-70621.286
-70494.503
-70970.256
-71177.981
-71278.117
-71737.596
-72241.175
-71628.284
-71756.279
-71286.859
-71278.291
-71116.324
-71087.625
-70881.873
-71053.195
-71113.005
-71349.687
-71427.518
-71475.074
-72123.954
-72116.095
-72454.538
-72502.677
-72104.545
-72248.16
-71640.917
-71854.688
-71535.25
-71611.414
-71568.108
-71711.487
-71803.734
-72392.119
-72257.081
-72552.431
-73226.456
-73528.915
-72802.594
-72723.637
-72593.705
-72485.354
-72253.308
-72098.107
-72056.579
-72200.455
-72220.043
-72430.654
-72655.271
-72830.496
-73445.236
-73353.758
-73691.317
-73864.65
-73472.146
-73220.048
-72889.599
-72853.156
-72704.49
-72707.363
-72742.87
-72882.744
-72955.598
-73445.93
-73510.489
-73811.979
-74434.053
-74901.978
-73987.611
-74046.601
-73789.216
-73698.506
-73254.822
-73307.861
-73235.064
-73393.49
-73353.901
-73517.32
-73957.663
-74065.868
-74528.376
-74889.213
-75365.629
-74865.817
-74660.276
-74433.63
-74131.37
-74109.046
-73807.811
-73814.051
-73769.008
-74082.715
-74177.762
-74593.444
-74688.121
-75139.626
-75514.251
-76260.052
-75365.376
-75386.626
-75042.793
-74823.211
-74684.041
-74525.91
-74481.218
-74496.043
-74676.423
-74800.449
-75245.309
-75379.705
-75880.617
-76240.983
-76917.231
-76161.548
-76067.471
-75737.863
-75548.082
-75388.948
-75193.008
-75184.116
-75224.685
-75418.403
-75545.226
-75994.858
-76127.149
-76668.06
-76979.916
-77757.551
-76928.882
-76865.668
-76520.056
-76339.726
-76150.801
-76016.689
-75984.6
-76027.44
-76210.027
-76374.905
-76782.58
-76994.471
-77491.694
-77873.422
-78532.837
-77894.113
-77815.106
-77377.851
-77235.336
-77160.261
-76896.582
-76985.311
-76924.338
-77236.523
-77249.936
-77785.746
-77779.436
-78588.755
-78503.95
-79370.113
-79121.133
-78691.859
-78745.18
-78199.225
-78187.026
-77996.93
-77970.119
-78031.24
-78286.143
-78371.699
-78783.618
-79042.714
-79513.791
-80070.878
-80998.062
-79946.655
-80044.984
-79616.346
-79654.178
-79288.772
-79320.471
-79188.51
-79366.029
-79368.65
-79683.596
-80103.118
-80220.503
-80812.413
-81071.504
-82089.194
-81402.546
-81303.66
-81131.462
-80799.148
-80840.366
-80595.149
-80706.041
-80701.487
-80886.224
-81012.528
-81469.973
-81611.328
-82158.184
-82366.565
-83649.809
-82713.063
-82861.091
-82540.219
-82471.925
-82337.388
-82274.305
-82268.559
-82326.423
-82511.124
-82636.349
-83076.315
-83138.452
-83674.329
-83885.743
-85080.211
-84354.351
-84462.431
-84258.837
-84144.012
-84126.894
-84018.795
-84043.149
-84120.008
-84273.015
-84367.068
-84749.863
-84833.22
-85296.908
-85487.869
-86809.355
-86014.579
-86274.056
-86045.958
-86056.143
-85988.421
-85957.752
-85975.685
-86050.453
-86195.731
-86245.2
-86626.756
-86640.774
-87011.219
-87198.516
-88507.796
-87839.906
-88127.193
-88000.91
-88018.515
-88028.59
-88014.552
-88028.862
-88120.727
-88226.624
-88270.424
-88592.756
-88556.039
-88814.01
-89008.177
-90330.58
-89672.476