/*--------------------------------*- C++ -*----------------------------------*\
  =========                 |
  \\      /  F ield         | OpenFOAM: The Open Source CFD Toolbox
   \\    /   O peration     | Website:  https://openfoam.org
    \\  /    A nd           | Version:  6
     \\/     M anipulation  |
\*---------------------------------------------------------------------------*/
FoamFile
{
    version     2.0;
    format      ascii;
    class       pointScalarField;
    location    "1.71";
    object      E;
}
// * * * * * * * * * * * * * * * * * * * * * * * * * * * * * * * * * * * * * //

dimensions      [1 -1 -2 0 0 0 0];

internalField   nonuniform List<scalar> 
625
(
391.62093
-876.14591
-41017.633
-41050.29
-56.494103
-381.14287
-67024.311
-90614.984
-705.83019
697.10676
835.17099
-53657.807
-71427.24
9949.5681
2991.2025
1439.0568
3527.1851
8255.4006
9367.7018
15892.66
18474.091
20232.023
20140.063
14024.271
2879.7568
-13165.41
-34711.249
-59101.506
-83845.391
-107627.16
-124758.96
-136070.17
-132797.66
-120695.76
-99744.128
-72047.22
-23378.182
2987.6791
-2662.0978
4176.3495
-997.45876
-9318.5495
-9547.7394
-20442.969
-23479.626
-25611.259
-25095.676
-17716.555
-6137.9394
13303.589
38341.028
68988.806
102117.55
134463.08
160590.75
176590.7
178057.07
160892.57
129719.85
70968.572
326.28214
86.299206
-1130.2555
3793.4118
8798.2381
-6339.3916
-4314.574
835.16878
-18565.231
-16448.837
-20918.494
-21578.745
-17801.503
-12068.639
2473.2731
17607.786
38793.928
61705.585
85768.385
108930.52
127311.82
137535.34
136961.26
122009.08
95438.198
64630.205
-54302.598
-109941.3
-94628.975
-13102.917
-33445.775
-52377.704
-68154.214
-77521.812
-78943.043
-75121.484
-65692.673
-53203.388
-38763.94
-25054.712
-11680.253
-2016.946
6181.8221
10837.421
11948.913
11153.212
9621.198
8848.3474
3323.1675
7086.521
385.47403
3513.1247
489.94152
-504.87826
-1157.321
-1259.588
-2154.9016
-2835.1026
-49870.293
-48488.866
-53266.934
-52441.95
-54292.067
-54852.502
563.24932
-1019.2617
-3211.1473
-4417.3565
-9551.2837
-12005.542
-17416.112
-20278.84
-21841.405
-20604.157
-14297.379
-4074.026
11542.643
31540.519
54238.44
77727.329
98825.359
114711.07
123624.83
119067.31
109984.57
87394.033
39844.091
298.55887
-1703.6378
-1953.5562
-4754.9355
-4663.7492
-5444.394
-6906.0949
-4988.5819
-4560.7462
-898.21063
2361.7027
8185.8152
14675.901
22023.697
29470.631
35685.029
40327.437
41143.229
40033.506
30795.095
23565.836
5912.613
-13024.545
1821.7827
-23.707513
2735.4539
4676.0162
9631.3479
11898.177
19140.749
19934.435
21525.389
18514.533
11096.095
251.75345
-16118.509
-35712.89
-58493.669
-81975.587
-105055.33
-121887.59
-133872.11
-129989.46
-116340.05
-87860.933
-34712.629
-215.7421
-763.35068
-805.24303
119.11093
-91.933448
160.69707
142.98881
-582.03711
-961.80064
4984.0791
5628.9435
3090.4043
5003.6241
2249.3004
2770.2976
1624.4717
-1992.9111
1724.8771
-1819.483
-1690.586
-6189.5217
-2493.9784
-6323.207
-2442.2425
-12309.568
-11233.604
-12760.743
-14740.511
-16916.404
-15151.814
-19148.671
-23599.168
-21620.884
-22724.302
-22452.388
-24698.162
-19525.348
-20868.636
-20125.416
-14049.223
-12740.856
-15002.728
128.6902
-86.826747
-632.31517
17796.053
19272.47
17951.995
42960.757
43506.206
41843.689
72031.244
72254.494
70872.833
103297.18
102737.89
101039.56
133375.05
131858.39
130327.99
157132.03
154898.81
153777.89
170554.33
168213.02
167087.7
169438.77
166215.16
165600.38
151389.47
148940.76
149026.11
116541.52
118220.14
116608.27
69042.238
68346.773
71325.853
-66581.181
-66360.249
-65752.596
-72464.854
-80510.259
-83556.538
-19305.89
-15069.328
-16107.087
1569.3659
3455.9265
1458.4698
607.10157
328.21166
520.44568
6550.4749
4887.5885
6274.5427
6788.459
6224.1448
6549.7149
12289.096
11610.695
11210.684
16054.192
11917.296
13750.693
18644.674
17678.576
17219.929
20550.259
18036.834
19122.968
19921.217
15976.249
16282.763
12624.32
12119.291
13505.445
2998.4804
1654.04
4283.1118
-12026.955
-12379.034
-8076.094
-31321.396
-30978.904
-24778.931
-52777.645
-51983.354
-43631.406
-74743.209
-73624.443
-63120.371
-95212.765
-93707.497
-81856.019
-109873.82
-109315.58
-96323.406
-119145.97
-118224.13
-105170.16
-118062.97
-119326.61
-105498.73
-104339.59
-112584.53
-96953.817
-83100.652
-92256.291
-79086.202
-61195.849
-60421.819
-55371.994
-17533.783
-18263.112
-16929.762
-1000.358
-7.860011
-4570.1397
-3812.6468
-9875.2771
-12743.427
-16048.235
-21642.931
-20770.553
-19437.511
-13293.001
-2021.883
13289.416
32426.195
53787.29
74757.912
92932.696
105651.36
109853.28
105785.53
90938.591
67400.344
45678.25
409.49303
1668.0784
-690.93368
5067.0897
6548.9277
13027.113
16694.416
19867.895
22925.915
21855.32
18786.241
13675.082
4212.8608
-6004.04
-18886.307
-32437.145
-45144.556
-56669.994
-64648.511
-68786.954
-67616.183
-63213.482
-43163.625
1567.6268
785.36894
4177.8393
500.77249
8665.5783
10699.693
12354.618
17776.915
13529.091
11939.029
947.63249
-10949.847
-29134.914
-48609.041
-70692.828
-91796.265
-110061.86
-122623.13
-126674.13
-118602.94
-100072.5
-65975.237
-23115.402
-275.58799
-221.39197
-385.83596
-395.98435
-567.29626
-374.29963
-3215.3122
-4066.0021
-3367.7089
-4895.3066
-4260.2467
-3889.4882
-8699.6044
-9720.8367
-8551.8124
-13275.36
-12801.839
-13652.306
-18067.473
-18008.543
-16721.996
-20903.06
-20840.908
-21897.154
-22583.102
-22832.491
-23137.068
-20271.523
-19737.247
-20616.564
-12316.501
-13217.683
-14354.217
-1109.3424
-1269.4313
-2094.2259
17064.276
16244.974
14699.954
38639.62
37426.264
35822.56
62985.466
61543.555
59693.176
87642.97
86039.977
83629.808
108904.82
107349.66
105049.8
124848.5
123763.58
120738.97
131876.5
130491.83
128254.63
123185.78
130358.85
124544.87
111177.14
114721.07
110913.79
87817.858
87360.874
85340.185
45333.851
45522.487
46271.821
-182.68351
-137.17479
-17.726468
-147.72984
579.97573
610.71753
-1089.6362
-3632.8164
-1725.0928
-911.14162
1342.2811
1150.3664
2397.861
27.187747
488.51603
2061.1372
3128.345
4249.8078
4737.2336
5333.892
5974.7574
7686.0811
8126.4078
7694.0051
8323.862
9057.5164
10308.499
11199.599
11953.044
11928.505
11930.59
11597.478
11574.703
12893.555
12403.674
12169.447
13288.981
11787.393
10153.9
12442.567
9876.0787
8415.0416
11424.508
7839.3006
5270.22
8696.4136
3539.9247
1482.4739
5394.5776
-411.00715
-3423.5032
819.41169
-7166.0372
-8655.6715
-4912.8498
-12678.521
-14524.542
-12255.393
-18374.012
-20109.952
-31730.159
-2803.9537
-23124.634
-27139.183
-32459.625
-32556.272
-30813.564
-36304.045
-33812.51
3251.4489
3063.213
3026.243
886.06345
500.64454
1833.7578
3265.7272
4476.2213
6138.9203
7753.8545
3497.8387
5284.4562
8962.6936
8195.1578
10486.528
13925.916
11410.287
13541.68
19884.369
15576.629
17040.199
20138.459
17108.234
20420.597
22175.545
17614.678
19716.515
18208.571
14033.856
16386.155
10530.75
5223.5943
7933.7599
-1487.3158
-7039.4589
-4308.2611
-18765.754
-24711.479
-21522.444
-39091.938
-45019.662
-41837.327
-62542.328
-68116.511
-64482.747
-86165.01
-90436.163
-87011.848
-107572.72
-110822.06
-107445.66
-123796.92
-124962.32
-121692.15
-131629.69
-130387.06
-128350.91
-126374.74
-124614.6
-122734.67
-110416.51
-107019.14
-106931.03
-77374.006
-74050.795
-74790.615
-32441.622
-27153.841
-28811.257
)
;

boundaryField
{
    free
    {
        type            zeroGradient;
    }
    fixed
    {
        type            zeroGradient;
    }
    traction
    {
        type            zeroGradient;
    }
}


// ************************************************************************* //
