/*--------------------------------*- C++ -*----------------------------------*\
  =========                 |
  \\      /  F ield         | OpenFOAM: The Open Source CFD Toolbox
   \\    /   O peration     | Website:  https://openfoam.org
    \\  /    A nd           | Version:  6
     \\/     M anipulation  |
\*---------------------------------------------------------------------------*/
FoamFile
{
    version     2.0;
    format      ascii;
    class       pointScalarField;
    location    "0.62";
    object      p;
}
// * * * * * * * * * * * * * * * * * * * * * * * * * * * * * * * * * * * * * //

dimensions      [1 -1 -2 0 0 0 0];

internalField   nonuniform List<scalar> 
3969
(
774240.69
-1158984.1
-161.65257
498.34781
1527873.8
-2462858.8
1417.386
-559.32812
677538.73
467047.83
231317.26
-3804.4464
-202299.73
-460275.55
-535414.16
-1260.1737
-1638.1602
-1295.7928
148.38884
1383.2114
1634.8289
1362.3166
271094.11
309077.79
306667.33
327523.77
326906.33
332383.37
329646.3
328153.86
324245.42
316808.27
312956.41
305462.17
296183.41
289144.04
279792.45
268911.3
260476.52
248392.65
238682.52
226151.66
215415.09
203383.15
192190.5
181170.06
169389.9
158308.98
147171.09
137196.55
128048.7
117999.84
109138.65
100391.5
91620.268
82995.508
75073.845
66634.162
58287.249
50768.258
42536.469
35199.171
28237.144
21626.018
15565.61
10594.548
6043.2518
2880.6147
541.21819
-273062.25
-244025.57
-302524.77
-274463.7
-312878.21
-292317.3
-306247.41
-294886.83
-296623.71
-289896.81
-285772.34
-282677.93
-271707.54
-268598
-259221.99
-250706.74
-241865.42
-230433.84
-221008.42
-209793.4
-197622.32
-188332.78
-175353.15
-165907.44
-154246.68
-144115.27
-132811.36
-122387.13
-113106.05
-103165.43
-95435.509
-85875.066
-78061.554
-69386.327
-61999.463
-54082.116
-47143.93
-40340.01
-34123.326
-27924.74
-21804.166
-17153.747
-12212.297
-8346.3777
-4504.8316
-1820.801
88.360557
1162858.8
861419.39
378644.51
-76662.079
-437574.28
-909597.49
-763007.2
-323017.13
-386070.41
-253673.84
-361816.98
-324049.99
-337366.31
-333366.92
-330608.25
-326962.03
-307956.09
-329600.14
-304552.09
-309440.67
-298546.46
-288428.75
-281707.06
-267812.95
-258367.4
-245628.31
-232985.84
-222101.7
-210251.19
-198688.31
-187288.88
-177103.39
-168411.14
-156934.69
-144695.1
-134515.96
-123890.26
-112728.53
-102664.59
-92287.365
-81856.577
-72225.851
-63036.17
-52770.973
-43841.014
-36941.893
-29367.473
-22513.803
-16844.313
-11412.587
-7047.1823
-3304.7437
-611.43257
1485.626
1930.5685
1740.507
2114.9379
-974.92986
-533.36219
-1870.0569
-2139.8115
1571.357
3199.5559
6270.8066
11099.219
16099.952
21879.539
28022.677
33948.143
41272.604
47465.32
53668.566
66621.689
72794.797
81475.021
91331.07
100678.46
110088.91
120032.9
129735.79
139943.23
150883.92
161133.05
172616.99
184307.65
196553.57
208998.52
221621.58
233074.44
246303.68
257009.77
269591.54
278611.91
285123.24
296256.74
312036.88
310592.99
321243.75
320757.54
326417.14
337152.13
346552.98
330861.88
344895.65
322485.79
313986.03
316173.49
311635.76
676970.67
721637.99
762225.83
751522.88
745239.13
751002.92
585841.35
-878656.32
-1130213.1
-1315674.1
-1408288.6
-1345507.7
-1347411.8
-1001581.6
395.39215
242.15848
938.907
827.98943
869.59192
410.59688
771.40015
-584.21556
-855.20812
-1182.4009
-1525.0963
-1148.1514
-672.15622
-934.91012
231361.56
236941.26
242814.04
250683.44
254661.02
259125.2
257625.97
260186.31
253946.12
255388.29
249520.63
242289.28
241264.86
233409.93
227607.9
220234.87
212770.23
204010.55
195007.67
185839.63
176774.94
166703.6
157307.14
147759.96
139004.86
128868.83
119690.66
111380.84
102357.78
93992.014
86207.147
78183.288
70662.874
63462.791
56306.316
49260.027
42375.645
36086.911
29954.508
24748.564
19388.96
15284.124
11197.632
8486.6892
5366.4031
3006.0399
485.06109
145318.19
151414.87
148761.91
158734.71
163950.29
171946.95
169547.08
171453.08
169695.87
171110.05
166568.46
165406.94
160039.4
154529.74
151035.44
144862.99
140278
133670.93
128076.88
121568.48
114610.87
107600.4
100663.47
94143.139
87195.335
81471.956
75946.448
69446.569
64835.776
59741.424
55240.004
50819.55
46798.086
42628.741
38512.102
34349.173
30100.689
26421.567
22219.612
18667.813
15113.334
12278.605
9345.7663
7235.4069
4683.3588
2677.5345
839.8189
64777.8
76274.983
67121.847
76036.958
77568.213
82086.099
82351.784
84637.997
83974.22
83546.501
83530.709
81997.417
80091.412
75926.17
72974.953
70745.064
68864.805
65872.511
64064.173
61016.488
59155.265
56521.287
53832.813
50731.391
48098.79
44782.511
41616.814
39203.561
36577.633
33851.319
31404.893
28930.74
26498.309
23885.121
21585.382
18903.366
16252.219
13893.488
11122.559
9313.6104
7153.0367
5896.4672
4227.7834
3576.1325
2386.4412
1571.1331
752.11926
-10137.628
-6774.3851
-12762.6
-6285.6887
-11060.736
-8259.1598
-12734.763
-9878.1615
-11558.158
-5693.7939
-8781.1064
-6006.7836
-6705.0214
-5554.0809
-4864.8744
-4395.7209
-4070.0789
-3400.9744
-2915.2647
-2879.4773
-2303.4394
-2360.1468
-3514.6609
-3112.1681
-2118.5268
-1818.3076
-1013.4621
-441.74604
102.65877
792.74582
1533.7923
2118.117
2609.3503
3076.9629
3319.8326
3373.5713
2908.386
2583.1177
2653.0929
2670.1309
2171.5557
1956.5838
1568.0836
1746.668
1207.2351
1141.3672
849.35163
-94917.579
-81101.638
-89713.042
-92981.63
-98999.305
-98993.303
-100710.04
-97918.019
-98367.451
-91614.438
-94499.5
-86839.967
-88337.358
-81992.819
-80782.116
-75915.492
-72920.112
-68814.22
-64851.847
-61309.59
-55342.428
-48242.196
-44618.608
-38394.162
-36572.748
-35212.481
-31303.845
-28272.992
-25788.261
-23127.75
-20436.523
-18191.772
-15676.303
-13596.339
-11584.165
-9830.2236
-8850.4127
-7267.801
-8213.7988
-7130.3861
-6506.544
-5128.5856
-4082.8566
-2696.0913
-1702.3149
-740.37344
602.14136
-167103.58
-158229.68
-168372.92
-180668.35
-185018.19
-185948.85
-187711.88
-183330.54
-185216.41
-177923.26
-179190.95
-170953.68
-169361.34
-164646.05
-159495.71
-152523.11
-146733.47
-139360.23
-132370.19
-125580.17
-116582.21
-110036.99
-98824.87
-90623.252
-83065.521
-76403.451
-70731.087
-65041.1
-59471.351
-54131.413
-49654.593
-44538.883
-40126.579
-35777.081
-31666.25
-27716.172
-23954.335
-20921.283
-17834.545
-15479.622
-12649.766
-10029.948
-7424.8662
-4689.1283
-2763.7328
-936.30338
429.31932
-275896.09
-206321.97
-249862.41
-251177.28
-263858.3
-260312.84
-265230.32
-259151.54
-263139.37
-251253.18
-253353.87
-245635.44
-239913.37
-231685.37
-223396.21
-214576.35
-204657.82
-195803.14
-185987.13
-176135.85
-167028.26
-156714.39
-147072.36
-137838.14
-128532
-120031.17
-113129.04
-103792
-95454.353
-87396.644
-79876.272
-72031.311
-64720.706
-57667.631
-50879.823
-44465.912
-38448.654
-32668.401
-27911.811
-22405.46
-18153.278
-13882.547
-10312.639
-6802.0592
-4240.6303
-1757.9994
-572.37527
505640.95
483078.65
506073.05
504769.44
510434.73
499478.16
460339.24
334542.64
373731.17
352428.17
360547.22
362800.32
351942.56
343503.1
169765.77
201850.67
169433.69
183901.26
173471.27
171848.82
186967.42
30481.645
8088.7543
-3378.2063
13940.622
906.72337
-26286.876
47006.228
-113476.07
-114657.18
-123432.14
-113052.7
-118043.92
-121925.75
-73581.424
-347296.92
-352705.48
-353981.37
-361451.64
-372005.33
-364059.38
-341321.08
-440487.3
-402031.76
-341417.88
-348727.4
-334596.3
-307104
-354822.33
-421327.42
-440948.13
-502656.23
-522996.1
-532307.67
-527797.25
-406488.98
-346942.19
-392801.07
-394551.74
-404666.97
-420437.81
-407777.62
-372935.01
-309663.94
-349827.29
-365671.15
-367546.79
-367598.74
-346031.1
-359849.07
-318017.05
-341406.49
-335158.81
-354235.39
-341747.65
-339642.96
-322075.22
-323383.82
-339650.65
-352206.96
-353995.48
-353320.17
-340924.64
-342219.57
-322385.09
-317348.21
-323623.25
-330858.83
-331725.74
-323442.55
-321136.11
-314051.96
-323324.94
-327706.95
-334740.14
-331964.82
-331561.8
-331797.39
-316074.45
-313385.66
-313820.02
-319983.6
-317863.33
-319286.6
-316269.51
-308964.41
-312682.07
-314097.99
-319002.38
-319973.9
-322166.9
-323410.71
-307555.68
-305506.77
-305434.82
-310010.22
-308700.65
-305699.61
-309376.32
-301610.09
-302965.88
-300207.2
-305797.29
-304406.89
-304907.15
-310625.8
-292803.04
-294744.07
-293859.32
-300074.64
-298757.86
-292812.2
-301381.3
-289771.5
-284024.62
-291002.25
-288541.19
-292603.59
-288108.41
-295970.37
-277887.94
-277999.81
-283597.58
-282130.13
-286228.54
-279501.17
-286803.1
-272246.99
-269164.9
-275505.3
-271795.13
-276036.61
-270664.66
-278491.57
-261359.49
-258969.24
-265561.08
-262697
-268734.41
-262855.81
-270384.86
-250548.89
-250155.69
-255490.41
-252944.8
-258272.26
-252369.14
-258562.88
-239895.94
-239433.7
-245210.72
-241992.03
-248538.62
-242115.94
-249038.56
-228231.55
-228570.1
-234125.23
-230892.64
-237093.56
-231107.76
-237651.94
-216426.19
-217215.13
-222757.15
-219500.39
-226122.89
-220482.15
-226844.64
-205415.58
-205195.39
-211029.69
-207481.33
-214021.67
-208937.05
-214732.23
-193365.13
-193709.54
-199059.08
-196205.66
-202544.01
-197775.13
-203845.9
-182358.05
-181570.92
-187842.36
-184533.3
-189944
-186619.15
-191896.11
-170188.53
-171141
-175756.04
-172239.84
-178885.54
-175761.96
-181325.73
-159065.58
-160578.1
-162669.39
-162361.39
-166746.64
-164985.84
-169920.76
-146886.68
-149991.29
-149896.82
-151936.91
-155356.35
-155887.07
-160102.16
-138715.61
-139146.89
-140192.01
-141128.92
-143088.79
-144063.56
-147989.96
-128787.33
-128892.1
-129523.45
-130909.75
-132615.6
-133930.64
-135764.76
-118506.69
-118659.43
-119233.18
-119803.6
-120957.22
-123454.67
-124524.82
-109124.28
-108890.19
-109646.44
-109759.2
-111487.85
-113456.53
-114116.35
-99081.753
-100095.58
-99510.919
-99960.318
-100776.01
-102764.53
-103345.05
-90405.82
-90538.394
-90048.932
-90157.278
-90867.778
-92954.511
-93483.095
-80782.151
-81745.206
-80577.285
-80786.639
-81129.982
-83371.941
-83715.894
-72429.983
-73073.224
-71775.783
-71810.306
-71953.57
-74004.496
-73835.618
-63878.602
-64687.241
-62992.036
-62879.966
-62683.787
-65270.461
-64862.343
-55966.043
-56589.512
-54708.186
-54817.322
-54398.487
-55168.114
-56327.478
-48969.959
-48381.465
-47797.071
-45918.759
-47026.781
-49395.444
-48046.314
-41824.121
-42480.893
-39763.642
-40231.1
-38764.18
-40598.763
-40538.891
-34964.093
-34992.547
-32969.208
-32849.688
-32105.298
-33692.409
-33370.419
-28588.048
-28520.48
-26975.891
-26362.394
-25704.532
-27265.441
-27120.027
-22686.323
-22588.047
-20809.325
-20185.006
-19813.077
-21030.443
-20915.916
-17471.186
-17218.491
-15485.932
-15214.644
-14585.136
-15655.285
-15698.296
-12292.6
-11661.889
-10229.586
-9839.5183
-9241.927
-10329.537
-10406.684
-8159.3287
-7358.448
-6295.8137
-5838.6668
-5383.03
-6285.16
-6267.8707
-4153.598
-3186.5932
-2337.5925
-1828.3574
-1513.895
-2332.5742
-2218.6521
-1474.2471
-626.05737
-160.71599
282.30455
361.04538
-234.15084
-230.79559
223.70927
1190.3774
1168.0784
1664.034
1360.9975
1063.5895
1097.8388
-1606.9237
-1776.0417
-1976.2333
-2254.3134
-2095.0674
-2224.2601
-2021.0147
-3362.0175
-2846.6658
-2701.6746
-3188.5666
-2894.067
-2735.0591
-2757.4696
-1368.9748
-1494.6802
-1381.2854
-1691.6689
-1605.8648
-1924.3057
-1713.7861
197.83903
319.53851
151.43403
-73.930135
93.62843
-400.7352
216.59789
2126.6982
1963.4758
2585.418
2200.0147
2431.6127
2097.7908
2068.3868
2749.8949
3030.7092
2740.9435
2678.3791
2781.0273
2193.0545
2711.7853
1993.8723
2435.107
2318.5837
2404.2372
2217.9822
1790.9118
2427.6753
321366.74
319120.67
361348.67
351701.25
362854.19
345667.31
338398.15
346712.73
356068.04
371512.56
370838.66
372985.93
351772.67
342425.87
343716.73
349263.11
358025.21
358907.52
359686.8
343992.5
338944.26
332742.53
344191.53
350931.11
354353.82
352330.54
342166.3
342453.35
340750.05
343558.95
346619.03
349388.61
347452.56
344345.7
335006.31
331150.64
333295.35
339827.98
335849.77
337959.74
327943.87
329283.49
335612.34
335628.81
337638.04
336248.85
342493.9
333743.85
339909.46
325442.78
323109.46
330439.03
319352.85
326388.02
321486.79
322405.77
325467.27
327870.85
328628.19
325140.7
331133.91
323764
329794.22
320741.07
316188.04
317899.33
312755.36
319425.75
311614.95
318211.43
315146.07
311562.46
319079.52
310745.12
318206.63
310295.24
316669.7
305701.45
306663.09
308353.58
301590.15
307934.62
302357.98
308118.16
303180.69
297334.31
300981.64
295493.27
300747.29
294960.44
294085.48
292638.89
290641.63
291962.04
288762.71
292266.06
288413.27
294053.48
284517.62
282228.76
280861.76
280725.85
282061.91
279189.58
282275.18
277648.94
271434.15
273018.05
269422.94
273901.36
268692.27
271191.17
265703.29
261664.8
262335.03
260712.01
262438.02
258715.39
261178.56
255327.92
249911.51
252123.11
248657.21
251077.33
247717.22
249366.19
243568.5
239446.95
240756.14
237283.04
240091.19
236505.37
238569.44
232513.81
226971.38
228702.4
225414.55
227900.68
224311.93
226060.39
220997.97
214903.87
217305.73
213537.1
216129.65
212649.57
214356.78
209055.25
202902.21
205477.67
201673.7
203837.5
200088.86
202057.65
197612.85
191182.98
194190.36
189932.86
191840.53
188518.23
190626.86
185786
179750.91
182251.73
177988.75
179578.69
176380.72
178592.29
174810.21
167513.57
171022.99
166200.77
167827.28
164944.23
167552.85
163598.76
156354.94
159877.98
154948.85
156322.68
153940.28
156122.43
152302.82
146147.3
148615.13
144382.72
144950.96
143008.87
145667.13
142325.57
136036.45
137709.09
134240.27
134481.47
132995.36
135516.57
131076.5
125371.63
127908.27
123923.57
123724.32
122533.28
125157.81
120946.89
116844.32
117421.01
114327.95
113870.42
113149.79
115586.85
111205.23
107211.99
107855.19
105228.82
104231.27
103547.65
105961.39
101139.77
98374.742
98157.961
95922.108
94546.327
94142.164
96699.381
91597.643
89659.743
89032.907
87243.941
85418.217
85629.193
87936.655
82399.211
81090.551
80072.373
78660.693
77030.302
77119.247
78926.039
73266.643
72719.895
71311.521
70436.292
68050.733
68948.226
70122.816
64378.626
64395.111
63183.313
62255.573
60698.489
61622.23
62668.002
56586.104
57330.139
54766.885
55014.211
52802.167
52253.097
55096.242
47644.918
48743.109
47459.414
46723.197
45829.785
45609.879
47942.35
39943.557
41420.489
38947.257
39911.464
38038.302
38555.043
40560.592
32968.548
34372.784
32509.821
33400.615
31510.43
32353.387
33792.404
25929.229
27305.865
25542.389
26491.713
24916.205
26142.6
27089.391
19800.401
21084.311
19516.317
20428.006
19224.508
20241.333
21254.664
14075.648
14671.286
13415.108
14284.699
13396.045
14576.391
15481.328
9324.318
9762.4644
8828.3689
9534.1641
9041.9744
10013.575
10561.467
4727.8724
4720.97
4125.6799
4577.1989
4330.3647
5033.5107
5813.4244
2205.6468
2413.7772
1869.6003
2243.2196
2063.971
2711.9016
3128.8616
387.01991
365.62141
94.391185
340.03956
196.0141
904.86456
1009.2489
331059.11
260009.27
258972.09
258244.21
272833.52
280007.56
271441.86
277050.82
273640.3
273605.54
266950.59
262725.79
256458.67
248596.78
241579.62
235171.13
224534.12
215815.3
205408.36
194957.59
184022.74
172767.81
161915.88
151372.01
140867.03
130940.14
120514.19
111322.06
102098.07
93172.835
84554.375
76330.994
68320.043
60836.681
54857.545
46503.628
41137.125
35995.895
29994.845
25504.169
21036.892
16550.581
12635.091
8983.765
5715.6905
3089.6424
55.236681
199023.5
192709.94
149641.25
172805.39
200207.5
189253.03
202851.27
192225.7
199576.15
191341.47
191211.06
187915.46
179852.14
177827.28
172929.8
167166.16
160569.65
152124.93
146162.71
137284.57
129488.69
121422.85
113593.09
105420.5
97944.926
89152.768
84482.67
76940.895
70996.27
65032.18
59289.252
53876.583
48537.399
44185.364
38787.195
35107.6
31053.897
26899.611
23301.515
20186.083
16431.803
13211.476
10059.358
7175.4609
4379.7358
1970.3114
21.557671
91355.579
111359.78
65683.868
99374.591
87627.027
82112.615
88777.602
85248.937
86896.008
82362.399
88829.855
84991.55
89653.451
86784.969
85877.04
85148.038
81378.332
78515.112
75504.31
70196.383
66441.522
62042.295
57620.776
53529.397
49647.399
45794.625
42588.692
38017.682
34649.859
30969.103
27523.989
24251.764
21400.342
18575.163
16170.958
14458.793
12801.33
11576.201
10104.237
9416.9632
7833.1594
6646.7456
5341.2549
3880.3978
2526.4648
1694.0039
-528.13849
-17094.39
16175.796
-8897.1324
9309.6546
-2982.4803
4991.4852
2784.4553
-5995.0046
23.784374
403.80458
-709.13861
2117.094
813.17944
6443.4208
7476.7381
8081.9661
8032.6889
8382.0461
8135.6818
7365.58
7617.5718
7149.8441
6850.5337
6820.9619
6022.7867
5713.2972
5253.8196
5327.0447
4808.4097
4655.8131
4273.7795
4605.9651
4334.2344
4527.444
4708.6428
5037.9274
5102.8167
5389.9913
5365.9693
5535.4161
4986.1115
4493.7261
3812.5329
2783.8219
2273.1463
1041.314
194.51504
-144505.26
-72002.137
-85141.67
-65979.388
-82263.163
-71677.263
-84508.268
-81490.425
-75727.475
-81277.637
-71320.489
-77333.693
-70445.852
-73013.915
-67901.189
-65921.536
-63013.533
-60334.838
-57463.755
-54935.063
-51836.882
-49450.575
-46462.984
-43901.893
-40786.887
-38525.68
-35196.615
-32476.727
-30346.818
-28133.505
-26045.227
-23927.38
-21806.661
-19362.067
-17235.274
-14900.603
-12435.811
-9952.7278
-7968.8554
-5627.6522
-3968.8568
-2430.1469
-1481.5502
-550.44453
-241.6227
427.61718
-229.14152
-216345.53
-167121.79
-150807.75
-155052.09
-168048.03
-166031.96
-175634.94
-163152.67
-177447.98
-173082.69
-176468.47
-173391.13
-167265.78
-165626.42
-157480.52
-152995.18
-145184.61
-137969.92
-130882.5
-124197.55
-117796.29
-110829.03
-104221.58
-95184.024
-87689.386
-79891.231
-74890.798
-68805.4
-63340.681
-57719.982
-53086.396
-47843.717
-42983.032
-38232.937
-33614.484
-29091.513
-24474.456
-20224.441
-16393.931
-12526.646
-9363.7535
-6754.3979
-4262.563
-2806.7251
-1249.2081
-390.66605
627.57712
-279732.98
-229289.11
-236165.69
-241108.41
-262965.95
-260290.62
-265181.88
-263065.49
-265461.66
-259021.6
-255650.98
-252757.82
-244306.39
-237499.24
-229607.56
-221575.41
-214682.07
-205626.11
-198596.44
-189071.35
-180353.43
-170557.93
-161494.59
-151175.14
-142604.04
-127744.89
-120626.81
-112580.66
-105108.29
-98079.491
-91069.857
-83694.392
-77061.239
-70080.403
-62752.145
-56065.07
-48699.157
-41906.135
-35002.668
-28404.486
-22878.029
-17186.407
-13044.56
-8970.0124
-6021.5647
-2905.5653
-1315.9082
395695.23
434451.77
420512.45
437904.01
431756.86
408357.4
381285.05
290045.38
328037.99
324131.46
331983.78
324142.92
313605.99
283368.12
275209.76
299419.61
307911.29
312183.06
305555.79
301463.82
288504.02
272686.49
280091.58
283567.51
292807.51
278834.62
281943.72
258694.91
268189.21
275035.42
283399.68
279825.41
276193.07
274460.41
254570.86
268495.22
280431.86
270240.37
281897.07
273326.05
270752
270678.19
269401.01
268691.44
268042.8
272302.82
259364.98
269208.51
261220
264369.94
278372.07
268222.84
273518.71
271078.32
267938.82
264415.38
268537.78
267852.37
254765.24
268970.08
256617.65
261600.4
257840.8
262333.22
263947.44
263373.52
268717.84
257916.26
263525.28
259454.8
256993.44
264658.14
252689.59
259533.66
251227.57
257090.59
252655.8
258520.79
255739.24
250644.1
254964.03
251185.88
250084.53
248153.44
250161.36
252012.46
245385.21
252106.44
243738.89
246962.1
246919.76
244700.32
242709.31
241394.31
243675.74
236794.61
239531.89
237196.38
238952.34
237027.5
235218.7
234908.19
231354.51
233525.19
230426.23
229395.49
228610.23
227788.54
228414.95
223735.89
223241.37
223544.3
220272.98
220987.98
218032.68
220218.1
214108.72
216287.69
215143.06
211905.75
212053.07
210476.36
209905.49
206178.33
206795.13
205923.13
201429.59
203153.47
199111.81
200915.59
196232.06
196535.57
195313.8
192191.32
192775.84
190164.83
190764
186494.69
186531.28
185986.36
179992.28
183528.56
179273.57
180319.57
175900.62
175972.05
174899.21
170134.3
173669.94
168931.8
169533.32
165686.28
165409.25
164966.29
158913.69
163413.7
157543.25
158747.22
154860.54
155427.98
153740.86
148405.11
153051.68
147283.97
148244.49
145311.96
144916.2
143385.18
137067.73
143984.26
136865.87
138867.22
135179.95
135875.73
133455.82
128546.96
133934.67
128135.3
128110.69
126908.62
125597.95
123937.18
119940.84
123826.73
118494.17
119172.36
117996.2
116801.7
114689.85
110278.29
113320.73
111041.5
109637.08
108800.73
107854.51
105226.11
101511.41
106395.6
100975.57
100947.47
100829.56
99752.072
96980.106
94272.451
95960.526
93441.719
92820.014
92763.38
91482.251
88554.271
85834.728
87623.896
85031.586
84153.016
84449.566
83398.57
80496.4
78336.265
78973.089
77468.891
76345.613
76931.501
76115.293
73051.403
70995.407
70790.452
69725.64
68439.11
69553.242
68734.341
65555.283
63681.685
62711.768
62227.316
60896.202
61967.401
61276.14
58169.738
56517.398
54911.008
55110.081
53623.234
55242.496
54557.27
51945.526
49574.852
47785.992
48150.255
46716.712
48091.263
48390.189
45584.666
43357.369
40828.952
41503.299
39798.269
41838.918
41004.855
40009.084
36777.184
33929.903
34814.406
34097.421
34661.006
36164.519
34476.945
31073.116
27724.452
29768.933
27747.029
30121.804
30174.44
29108.574
25419.363
22782.541
24173.402
22838.945
24183.65
24824.175
24036.666
20464.687
17426.176
19190.357
17265.192
19315.682
19584.014
19557.707
15815.949
13552.808
14661.289
13435.184
14974.867
15212.114
15404.843
11841.25
9324.2936
10590.122
9152.7867
10560.142
10826.234
11342.555
8146.788
6581.3014
7279.4853
6157.3607
7326.4772
7351.91
7840.2883
4826.8883
3552.1696
3844.4966
3109.733
3854.0524
3820.4997
4624.6557
2524.2324
1617.0988
1764.9302
1271.5167
1614.2645
1949.8094
1969.0008
185.98326
-509.84711
-710.376
-1115.3183
-688.076
-877.80814
-193.13579
267780.06
275995.56
297449.83
293237.6
300183.85
273615.94
274576.54
205728.75
239301.26
248019.79
253577.23
252309.86
234756.81
224650.37
202881.13
189293.85
212217.69
204424.98
212412.69
191377.54
192673.96
178448.12
184338.78
194303.26
190833.24
193183.29
187029.25
172127.74
189026.99
186752.69
195259.57
188674.34
196927.93
186742.72
185755.11
182135.2
178756.32
182579.48
178314.88
176932.53
181789.3
176919.08
183942.23
183579.45
192535.94
182313.4
189692.71
188505.5
182986.45
183813.66
178202.02
178984.43
174063.63
180083.98
175194.75
178841
183191.03
175420.58
185564.02
178707.68
179033.48
180789.72
181065.06
177093.24
176098.52
180731.86
169145.28
176033.3
175471.83
177689.01
178386.57
174049.44
174837.59
169361.92
173860.15
173280.9
173202.61
175620.03
166817.96
175469.96
166462.72
172621.39
168520.12
174607.58
169789.75
165286.31
172057.31
160619.4
167092.52
163459.56
167392.92
166387.13
162170.96
165872.72
156885.09
163050.31
161253.77
160185.75
161145.51
158835.99
159556.39
152673.73
158530.29
154958.87
155627.09
156202.15
152607.08
153421.09
148510.87
150990.39
150242.28
149179.82
150558.46
147694.41
148811.11
142255.54
145799.81
145535.58
145709.55
143698.78
141277
140727.89
136576.7
138957.56
138382.03
137026.96
138234.06
134445.31
135023.57
130456.71
132481.75
131790.67
131586.19
130451.65
127417.62
127875
123640.03
125043.15
124472.36
124111.92
124542
120812.84
121046.44
116761.1
118019.81
117549.27
117234.91
118002.36
113549.18
113388.66
109892.47
110815.44
110365.96
109406.55
111736.42
106213.42
106672.08
103475.51
104292.96
102887.56
102518.55
105052.33
99509.097
100166.46
97287.344
97260.497
95930.528
95675.671
98567.295
93062.27
93473.701
90535.585
90731.905
88914.896
88798.283
92079.449
86999.727
85658.386
85891.981
83161.226
82015.392
83140.223
84764.369
80772.016
79889.834
78134.8
77733.402
75238.644
75812.423
79421.19
75096.491
73865.053
72674.606
71588.759
69538.124
70056.74
73240.312
68935.138
68733.357
67023.904
66350.82
63437.96
64039.416
67462.732
64103.963
62675.867
61833.967
60155.33
57984.935
58257.024
61814.381
59155.771
57784.327
56895.024
55275.841
53083.037
52956.484
56496.271
54608.224
52600.76
52262.081
50305.813
48279.773
47748.954
51276.04
50024.258
47759.576
47535.805
45534.18
43438.728
42407.146
46042.854
45527.1
42972.721
43247.705
40937.481
38983.809
38199.066
40947.648
41219.272
38533.529
38761.026
36711.041
35239.378
34185.276
36039.232
36884.028
33733.851
34666.964
32258.517
30879.26
29225.796
31318.032
32422.454
29693.707
30299.171
28434.257
27123.805
25671.009
26351.847
28387.343
25102.472
26357.116
24304.328
23736.524
22708.065
22095.745
24328.48
21265.513
22527.71
20650.486
20617.03
18727.538
18051.796
20557.735
17100.895
18670.618
16959.884
16756.531
15742.39
14618.05
16574.983
13711.907
15374.596
13734
14023.907
13084.703
11142.267
13287.45
10435.695
12157.413
10589.697
11031.747
10249.516
8507.8081
9695.2918
7442.8398
8823.7204
7587.519
8078.5906
7652.0874
5811.6745
7053.5277
4961.1181
6329.0837
5314.6459
5759.5404
5506.953
3561.3682
3943.272
2419.5606
3379.9983
2568.1645
3067.0889
3228.2661
1781.6029
2044.6565
831.59266
1465.4812
1022.1259
1346.6138
1479.0841
16.945434
-207.46073
-1062.6622
-687.15325
-829.89664
-981.61097
-443.04044
149929.7
153995.28
143631.5
159126.66
146627.8
138321.84
132578.46
106912.43
150681.92
142232.49
152590.49
132916.85
141850.04
113049.64
101524.76
97775.364
103316.23
103531.47
99206.712
91549.595
87057.565
86812.787
101859.09
104491.76
111315.69
96988.039
104970.51
86901.043
97082.278
89826.446
93938.817
87882.977
86723.499
84335.675
80063.641
86915.628
96072.358
88180.497
90309.098
91100.764
86625.337
85829.118
94458.712
95466.189
83162.637
88337.529
87064.925
84063.324
85618.09
90445.176
96121.1
82756.094
88509.635
84534.404
81882.628
86033.548
92622.744
98555.062
83073.92
88026.802
85295.414
85693.226
86563.998
93371.386
96450.166
79921.888
84292.09
85225.613
81818.864
85311.41
91561.216
96577.659
78824.759
88039.441
84020.108
84406.523
83792.064
87571.241
93437.226
77783.827
84033.724
82412.371
80091.007
84370.746
84647.641
95766.019
75462.702
83909.928
80021.45
80810.143
81782.514
84282.592
89469.385
76832.53
81609.053
82330.656
75464.816
84313.219
82518.029
86153.831
74066.452
80732.88
77957.27
74319.766
80199.15
79940.946
81771.018
74452.946
75963.226
76525.757
72123.953
78915.326
74929.304
80050.616
70488.786
74524.035
73106.313
70076.317
74026.743
73456.731
75554.678
68625.856
71302.444
70335.509
67040.054
70545.444
68494.94
73162.431
65418.9
68671.232
66467.408
64093.373
66534.148
66021.708
69750.054
62580.423
64952.433
63108.63
60863.522
63122.326
61856.758
66372.167
58909.145
61549.368
59275.645
57813.723
58160.178
58610.728
62396.135
55908.498
58084.872
56205.952
53684.79
54603.859
55026.391
58716.979
52520.129
55054.567
51340.538
50523.435
50385.678
51586.475
54592.858
49516.918
50435.637
47436.177
47023.335
46122.029
48469.476
50852.217
45924.803
46936.277
43683.734
43917.615
42366.165
45620.951
45926.127
43330.4
42766.584
40145.804
40643.66
38472.587
42613.461
43374.728
39847.679
40527.399
36170.383
38202.443
34480.22
39893.268
40755.33
36704.465
37025.342
33827.057
34506.946
32315.091
37048.234
36730.329
33461.156
33475.163
30580.181
31279.629
29463.381
34718.54
33484.422
30967.193
30560.418
27979.548
28480.54
26884.945
32266.592
30275.057
27879.433
27588.708
24946.272
25660.368
24437.737
29826.818
27134.542
25116.838
24610.645
22213.274
22810.417
21636.371
27359.429
23994.993
22232.186
21625.49
19482.372
19896.925
19912.536
24753.662
21134.18
19549.809
19053.498
16971.614
17934.359
17775.338
22334.64
18303.781
16948.93
16222.938
14659.241
15049.279
15676.235
19562.277
15774.179
14359.412
14069.262
12374.984
13414.855
14215.598
17286.462
13187.315
12312.462
11637.685
10677.195
11099.446
12759.361
14630.972
11287.359
10004.21
10051.313
8716.2296
9840.3048
11348.915
12735.825
8882.8372
8441.8543
8092.2409
7370.5005
8550.4823
9717.323
10756.357
7474.8587
7044.1003
7067.7032
6223.2345
7198.7596
8474.6674
8635.3666
5129.4103
5700.7741
5029.3629
4927.3135
5838.9893
7463.7045
6847.9759
4616.611
4748.6327
4316.6645
4234.341
4854.3938
5972.0884
5180.2318
2661.952
3190.1512
2619.6482
2823.8381
3232.6127
4871.0433
3682.5118
2408.5537
2811.7078
2487.8042
2428.5665
2951.9796
3805.5676
2203.7498
1058.9416
1307.0844
747.10686
978.95524
1145.354
1926.0171
1448.379
1221.6062
1146.0683
1295.3121
1140.7622
1343.0818
1744.7042
-57.66911
-766.3609
-652.74155
-765.87413
-915.02271
-690.95575
-141.72315
1842.8961
-8542.0589
-5778.8807
-2396.1288
-6641.6166
-9069.6404
2422.8637
-3761.5634
-3725.4969
-4103.0142
-1636.45
-6466.0341
-4351.2344
-6413.996
10640.621
-13515.482
-9794.7346
-17576.491
-10282.818
-19355.593
-3559.6906
-2177.8196
-10258.924
-2421.1949
-7344.521
-8748.3179
-1376.1273
-10465.433
667.02057
-5176.6439
-3143.4927
-18247.856
-1516.6346
-20777.486
-1347.7053
-1126.181
-7796.7762
-9076.4209
-6916.7859
-8459.56
-5776.9794
-3957.2512
76.281626
-6179.5216
2015.3833
-12358.037
-3649.284
-9906.2889
-3863.2993
1077.0877
-2802.7068
-7183.4543
-5883.8644
-6141.1071
-4759.6826
-2887.0032
2356.654
-7639.5739
-2134.0412
-8825.4705
-4331.5421
-6237.3429
-6404.8919
-2375.261
-3597.1334
-3479.0547
-8533.4993
-5793.4358
-6342.5143
-4097.2378
-565.8577
-3891.861
-4387.9415
-8471.9887
-5987.4402
-5935.1229
-4110.5202
-729.75712
-3768.4876
-5684.6444
-6916.1162
-6791.8733
-4247.1576
-3836.642
656.16207
-4701.4153
-4115.3695
-7323.6641
-4732.6516
-5202.3242
-4289.1665
82.197019
-5484.1915
314.09742
-5965.0188
-7314.6328
-4135.7076
-6850.0411
1947.437
-800.02213
-5761.366
-4807.1658
-7481.9141
-4248.7628
-3826.2986
218.20835
-1862.5196
-5418.3609
-3912.6868
-8144.8765
-3508.1525
-4248.7753
2146.1436
-1830.1047
-3897.3381
-2148.6601
-7225.5548
-3445.7883
-2928.1441
1591.5446
-1518.747
-3175.4327
-1938.8677
-7386.9644
-3228.1497
-3302.4464
2796.4648
167.69146
-2084.7891
-1352.5816
-6333.1402
-2867.2219
-2496.9974
3574.672
372.29723
-2216.714
-1275.1136
-6162.6528
-2436.0548
-3317.2212
4426.5279
1467.0014
-1281.7741
-381.42257
-4729.9183
-2526.7615
-3082.1033
5499.1675
2608.6894
-973.07466
375.52342
-4982.9304
-2137.8744
-2940.391
5842.28
3241.8964
157.13171
-83.296944
-4177.2464
-1673.5741
-3010.1066
6935.5448
3731.9554
884.03359
281.84015
-2626.0239
-910.95001
-2669.8532
7035.2475
4089.0891
1817.6122
495.18841
-1170.0202
-1016.2856
-2621.1487
6861.5011
5770.4595
2265.0303
1279.2737
-238.55204
-970.38652
-1980.9485
8058.1669
5437.9371
2787.6037
1277.5305
78.12651
-673.72201
-2345.3449
7705.4336
5233.2529
3083.3918
1526.297
16.087195
-79.142867
-2488.9277
7839.1343
5435.8502
3707.1281
2163.5902
845.22141
416.57237
-2158.887
7480.4702
5787.4413
3912.4567
2502.876
750.61303
831.10247
-2135.6503
7408.0125
5735.0752
4189.9409
2792.5091
1133.5422
1386.7325
-2281.8426