/*--------------------------------*- C++ -*----------------------------------*\
  =========                 |
  \\      /  F ield         | OpenFOAM: The Open Source CFD Toolbox
   \\    /   O peration     | Website:  https://openfoam.org
    \\  /    A nd           | Version:  6
     \\/     M anipulation  |
\*---------------------------------------------------------------------------*/
FoamFile
{
    version     2.0;
    format      ascii;
    class       pointVectorField;
    location    "0.62";
    object      u;
}
// * * * * * * * * * * * * * * * * * * * * * * * * * * * * * * * * * * * * * //

dimensions      [0 1 0 0 0 0 0];

internalField   nonuniform List<vector> 
3969
(
(0 -2.7427873e-20 0)
(0 -1.4703129e-19 0)
(1.6904551 -0.076707068 0.021691337)
(1.6113642 -0.46642515 0.015698892)
(0 1.5022291e-18 0)
(0 1.2112371e-18 0)
(1.614701 -0.47392857 0.015627955)
(1.6937185 -0.084286877 0.021703471)
(0 6.4543678e-20 0)
(0 3.8969936e-19 0)
(0 1.6928548e-19 0)
(-9.6901331e-19 -8.7252333e-20 0)
(0 4.6283497e-19 0)
(0 -2.6602943e-19 0)
(0 -2.599456e-19 0)
(1.6805233 -0.1254951 0.020898195)
(1.6705598 -0.17416943 0.020124474)
(1.6606661 -0.22284113 0.019399498)
(1.6508037 -0.27148393 0.018683084)
(1.6409656 -0.32013857 0.017977308)
(1.6311538 -0.36885719 0.017252083)
(1.6212888 -0.41764406 0.016484256)
(0.0031270403 0.0083224112 0.0094730763)
(0.004579943 0.014852793 0.011910636)
(0.0086362023 0.022382091 0.013618014)
(0.015251191 0.029777428 0.014247652)
(0.023726116 0.037562671 0.014798724)
(0.034795936 0.04497351 0.014824045)
(0.047631775 0.052429514 0.01515495)
(0.062985689 0.059468457 0.015045418)
(0.080129231 0.066266624 0.015276533)
(0.099520608 0.072577087 0.015148997)
(0.12086274 0.07860624 0.015267078)
(0.14413496 0.083995718 0.015240838)
(0.16938897 0.088969581 0.015188003)
(0.19644862 0.093368775 0.015177277)
(0.22535981 0.097122152 0.015074656)
(0.2558977 0.10029519 0.014968558)
(0.28814958 0.10283523 0.014859243)
(0.32190281 0.10469824 0.01471081)
(0.3571812 0.10590959 0.014567508)
(0.39379996 0.10643885 0.014403474)
(0.43174649 0.10629812 0.014261014)
(0.47086945 0.10550429 0.014123435)
(0.51112646 0.10404916 0.014015988)
(0.55240607 0.10196989 0.013935914)
(0.59462836 0.099237048 0.013890833)
(0.63773134 0.095981896 0.013892004)
(0.68162441 0.092109389 0.013934355)
(0.72626662 0.087704918 0.014005394)
(0.77159319 0.082780464 0.014124756)
(0.81751017 0.077347134 0.014274127)
(0.86399809 0.071455836 0.014461788)
(0.91097824 0.065104938 0.014684809)
(0.95839958 0.058326955 0.014940569)
(1.0062065 0.051160221 0.015223081)
(1.0543472 0.043587647 0.015555251)
(1.1027653 0.035676124 0.015893965)
(1.1514149 0.027443472 0.016276074)
(1.2002341 0.018871226 0.0166809)
(1.2492153 0.010067006 0.017087388)
(1.2982529 0.00098776251 0.017546116)
(1.3474009 -0.0082950628 0.017982466)
(1.3965185 -0.017739311 0.018464232)
(1.4456919 -0.027405202 0.01893033)
(1.4947687 -0.037081312 0.019437691)
(1.5438439 -0.046980799 0.019955545)
(1.5927858 -0.056827238 0.020512778)
(1.6416573 -0.06678806 0.021102539)
(7.7132243e-05 -0.008359893 -0.011137612)
(0.0029530773 -0.014195181 -0.011791233)
(0.0056954655 -0.020930082 -0.014912249)
(0.011136706 -0.028266996 -0.014676997)
(0.01905406 -0.035964484 -0.015389139)
(0.028464374 -0.043920038 -0.015116336)
(0.040208895 -0.051885385 -0.015177497)
(0.053583065 -0.060210213 -0.014909623)
(0.06895846 -0.068457825 -0.014742487)
(0.086235822 -0.077121358 -0.014418088)
(0.10520115 -0.085667653 -0.014151611)
(0.12614323 -0.094620986 -0.013769268)
(0.14868127 -0.10358174 -0.013408041)
(0.17309196 -0.11277938 -0.012928362)
(0.1991017 -0.12216422 -0.012450028)
(0.22681751 -0.1316544 -0.011900199)
(0.25612044 -0.14136691 -0.011318449)
(0.28693709 -0.15115566 -0.010697626)
(0.3192515 -0.16113462 -0.01003255)
(0.35296307 -0.17119913 -0.0093464634)
(0.38797357 -0.18141808 -0.0086118895)
(0.42431366 -0.19169357 -0.0078718294)
(0.46177504 -0.20212163 -0.0070605619)
(0.50041829 -0.21263052 -0.0062590071)
(0.54004398 -0.22318076 -0.0054338675)
(0.58069988 -0.23382959 -0.0045762424)
(0.6221829 -0.24449182 -0.0037034462)
(0.66462545 -0.25529929 -0.0028026087)
(0.70784845 -0.26610114 -0.0019198722)
(0.75179197 -0.27693901 -0.00098990817)
(0.79644836 -0.28782277 -6.3738799e-05)
(0.84172278 -0.2987129 0.00089491682)
(0.88759659 -0.309617 0.001866406)
(0.93399367 -0.32050172 0.0028616077)
(0.98087522 -0.33136954 0.0038661569)
(1.0281837 -0.34221376 0.0048949306)
(1.0758637 -0.35299284 0.0059227566)
(1.123852 -0.36371998 0.0069383399)
(1.172116 -0.37439202 0.0079580327)
(1.2205974 -0.38496311 0.0089393598)
(1.2692457 -0.39548146 0.0099172443)
(1.3180245 -0.40589621 0.010838395)
(1.3668976 -0.41621842 0.011745763)
(1.4158153 -0.42643823 0.012595662)
(1.4647599 -0.43657251 0.013421412)
(1.5136825 -0.44660755 0.014212026)
(1.5625739 -0.45655262 0.014963279)
(0 -1.682476e-20 0)
(0 1.9890625e-19 0)
(0 -2.350172e-19 0)
(4.7744117e-19 -4.8598972e-20 0)
(0 -4.0016872e-19 0)
(0 -1.8513525e-19 0)
(0 -1.56084e-19 0)
(0.0031468111 -0.0054327767 0.0084919976)
(0.004240513 -0.017278838 0.012248311)
(0.0066956782 -0.019468435 0.013029676)
(0.012771691 -0.029987057 0.013896062)
(0.020679172 -0.036569636 0.014183213)
(0.030359804 -0.044759419 0.013797324)
(0.04238642 -0.053389086 0.013949584)
(0.055925725 -0.061130733 0.013417395)
(0.071581164 -0.070378287 0.013474708)
(0.088932222 -0.078511667 0.012894663)
(0.10809027 -0.088005236 0.013117476)
(0.12907309 -0.096505848 0.012624324)
(0.15187006 -0.10593681 0.01242244)
(0.1764332 -0.11531476 0.012105275)
(0.20262196 -0.1247092 0.011769697)
(0.23041505 -0.13459515 0.011506739)
(0.25986192 -0.1443048 0.011129817)
(0.29073662 -0.15443852 0.010832459)
(0.32314589 -0.16454812 0.010474488)
(0.35689378 -0.17489342 0.010153618)
(0.39198614 -0.18530665 0.0098405037)
(0.42830377 -0.19586904 0.0095625866)
(0.46581188 -0.20650461 0.0093109878)
(0.50439522 -0.21721743 0.0091095009)
(0.54405246 -0.22808507 0.008919021)
(0.5847681 -0.23896577 0.0087226605)
(0.62615772 -0.24998703 0.008743668)
(0.66852076 -0.26094446 0.0086846939)
(0.71164926 -0.2720033 0.008727271)
(0.75555006 -0.28306609 0.0087723011)
(0.80013277 -0.29414258 0.0088463342)
(0.84536047 -0.30524388 0.0089688589)
(0.89117119 -0.31632908 0.0091210398)
(0.93751892 -0.32738704 0.0093109353)
(0.98434709 -0.33840297 0.0095311826)
(1.0315922 -0.34939357 0.0098256974)
(1.0792439 -0.36026264 0.01010585)
(1.1271519 -0.37109996 0.010495444)
(1.1753859 -0.38180185 0.010866225)
(1.223837 -0.39243538 0.011304191)
(1.2724632 -0.40294691 0.011750386)
(1.3212498 -0.41336905 0.01222532)
(1.3701237 -0.42368966 0.012721913)
(1.4190707 -0.43390392 0.013236615)
(1.468032 -0.4440409 0.013786218)
(1.516975 -0.45406159 0.014366495)
(1.565874 -0.46403441 0.01499199)
(1.6246061 -0.4251207 0.016354092)
(1.6344472 -0.37632952 0.017088358)
(1.644285 -0.32765535 0.017862169)
(1.6540769 -0.2789549 0.01866629)
(1.6639748 -0.23041356 0.019462958)
(1.673853 -0.18170063 0.020242607)
(1.6838084 -0.1330557 0.020992702)
(1.6449669 -0.074377752 0.020893784)
(1.5960965 -0.064431444 0.020093943)
(1.5471629 -0.054566284 0.019265319)
(1.4981074 -0.044731355 0.018390985)
(1.4489848 -0.035004412 0.01747604)
(1.3998143 -0.025382669 0.016522205)
(1.3506267 -0.01590076 0.015529971)
(1.301457 -0.0065833964 0.014510219)
(1.2523411 0.0025498345 0.013454628)
(1.2033329 0.011480671 0.012384396)
(1.1544234 0.020163436 0.011315352)
(1.1058395 0.028449349 0.010281605)
(1.0573048 0.036633103 0.0091625592)
(1.009175 0.044354352 0.0081335671)
(0.96135142 0.05174838 0.0070828437)
(0.91393104 0.05873835 0.0060731918)
(0.86695269 0.06531285 0.005078017)
(0.8204821 0.071436917 0.0040990299)
(0.7745655 0.07709869 0.0031429033)
(0.72926747 0.082255561 0.0022005901)
(0.68464372 0.08691354 0.0012666962)
(0.64075482 0.091013118 0.00035719108)
(0.59767275 0.094560766 -0.00054221487)
(0.55544751 0.097507135 -0.0014253116)
(0.51418585 0.099846151 -0.0022929415)
(0.47393762 0.10153787 -0.0031275526)
(0.43480253 0.10258697 -0.0039566936)
(0.3968496 0.10294786 -0.0047411595)
(0.36019393 0.10264677 -0.0055195771)
(0.32487713 0.10164848 -0.0062564499)
(0.29104249 0.099992383 -0.0069873791)
(0.25870971 0.097680824 -0.0076794231)
(0.22803311 0.094694133 -0.0083464294)
(0.19905183 0.091036178 -0.0089267629)
(0.17192576 0.086853165 -0.0095830237)
(0.14649991 0.082130654 -0.01002555)
(0.12310991 0.07683953 -0.010611716)
(0.1015539 0.071023015 -0.010969113)
(0.082033333 0.064895222 -0.011570575)
(0.064659589 0.058115513 -0.011778846)
(0.049373544 0.051455821 -0.01221959)
(0.035954937 0.043906626 -0.012373813)
(0.025058364 0.036806675 -0.012700855)
(0.015978893 0.028964065 -0.012477138)
(0.00966904 0.02195544 -0.012091516)
(0.0049478395 0.013870751 -0.010857805)
(0.006114057 0.008005073 -0.0067798103)
(0 2.0321088e-19 0)
(0 1.5879552e-19 0)
(0 -8.2287573e-20 0)
(0 -5.4069916e-19 2.705918e-19)
(0 -4.7473862e-19 0)
(0 -1.043784e-19 0)
(0 4.9914331e-19 0)
(0 6.9138475e-19 0)
(0 6.5906452e-19 0)
(0 6.2622363e-19 0)
(0 5.4084308e-19 -6.6440301e-20)
(0 1.4610487e-18 0)
(0 6.4050353e-19 0)
(0 -1.1801414e-19 0)
(1.611794 -0.46741211 0.015688544)
(1.6122246 -0.46839567 0.015688997)
(1.6126462 -0.46937332 0.01568585)
(1.6130674 -0.47032262 0.015688299)
(1.613473 -0.47126117 0.015685708)
(1.6138773 -0.4721604 0.015680777)
(1.6142745 -0.47305538 0.015645577)
(1.6909394 -0.077572037 0.021708331)
(1.6914038 -0.078475259 0.021706852)
(1.6918424 -0.07939272 0.021711339)
(1.6922592 -0.080334872 0.021696855)
(1.6926468 -0.08129426 0.021689634)
(1.6930166 -0.082270449 0.021686335)
(1.6933743 -0.08326317 0.02170086)
(-0.00097762842 -0.001678288 0.0083343879)
(-0.0007950193 -0.004812961 0.008423579)
(0.0010911924 -0.0068760222 0.010167408)
(0.0054940344 -0.0086588754 0.010759935)
(0.011686107 -0.0099812257 0.011122278)
(0.020556539 -0.010342736 0.011494447)
(0.031061209 -0.010399942 0.011555965)
(0.044171007 -0.0094227295 0.011818633)
(0.059269765 -0.0080418663 0.011759899)
(0.076729917 -0.0058129389 0.011942873)
(0.096386795 -0.0029797513 0.011957932)
(0.11833887 0.00047983483 0.011955498)
(0.14258533 0.0046189709 0.012015786)
(0.16907085 0.0091824419 0.011977271)
(0.19780959 0.014253866 0.011987083)
(0.22874145 0.019652543 0.011947552)
(0.26184307 0.025320006 0.011890073)
(0.29692671 0.031106849 0.011836262)
(0.33402309 0.036954343 0.011749334)
(0.37291695 0.042697829 0.011669486)
(0.41353389 0.048252875 0.011598229)
(0.45568541 0.053489644 0.011536361)
(0.49926423 0.058302747 0.011507761)
(0.54404818 0.062573668 0.011510758)
(0.58995767 0.066213778 0.011566627)
(0.63678019 0.06909213 0.011626057)
(0.68436303 0.071145287 0.011758119)
(0.73258651 0.072289255 0.011924532)
(0.78129031 0.072411733 0.01212362)
(0.83032978 0.071493656 0.012362051)
(0.87959868 0.069456486 0.012638729)
(0.92896123 0.066246794 0.012946538)
(0.97831223 0.061864247 0.013288038)
(1.027552 0.056254598 0.013670361)
(1.0765943 0.049443647 0.014077025)
(1.1253514 0.041443563 0.014516981)
(1.1737772 0.032245091 0.014984933)
(1.2218137 0.021928337 0.015469268)
(1.2694436 0.010547185 0.015973695)
(1.3166219 -0.0018631048 0.016502995)
(1.3633862 -0.01517353 0.0170168)
(1.4096982 -0.029344479 0.017563294)
(1.4556416 -0.044226384 0.018089423)
(1.501159 -0.059723557 0.018648495)
(1.5464029 -0.075756002 0.019193953)
(1.5912989 -0.092105977 0.019765482)
(1.6360104 -0.10876389 0.020328932)
(-0.0040591368 -0.007082737 0.0056126357)
(-0.004577189 -0.015694108 0.005684876)
(-0.0031082404 -0.021824971 0.0070249412)
(0.00023166105 -0.028714106 0.0071527025)
(0.0058613015 -0.034082426 0.0076860641)
(0.013246593 -0.038876965 0.007668503)
(0.022987855 -0.042607938 0.0080722353)
(0.034967961 -0.04528817 0.0079077424)
(0.049082704 -0.047027941 0.0082765659)
(0.065586119 -0.04750925 0.0082653639)
(0.084465374 -0.047019913 0.0083611858)
(0.10567002 -0.045343938 0.0084704643)
(0.12934821 -0.042683808 0.0085509822)
(0.15545111 -0.039068504 0.0086160424)
(0.18399113 -0.034543133 0.0086930029)
(0.21490244 -0.029262448 0.0086890356)
(0.24810276 -0.02331117 0.0087245005)
(0.28357364 -0.016872304 0.0087313801)
(0.32119792 -0.010076639 0.0087301488)
(0.36085015 -0.003099029 0.0087490662)
(0.40237868 0.0039086582 0.0087665418)
(0.44563003 0.010798584 0.0088020976)
(0.49036445 0.017387402 0.008879886)
(0.53648816 0.02355693 0.0089917069)
(0.5837315 0.029087879 0.0091267273)
(0.63192146 0.033916521 0.0093502996)
(0.68088699 0.037817536 0.0096003623)
(0.73044272 0.040703152 0.0098758531)
(0.78039435 0.042471185 0.010218353)
(0.83060356 0.042980889 0.010581146)
(0.88090168 0.042162098 0.01097939)
(0.93113972 0.039939468 0.011413763)
(0.98119054 0.036250273 0.011876894)
(1.0309366 0.031064222 0.012366199)
(1.0802688 0.024370937 0.012877632)
(1.1290992 0.016138405 0.013420369)
(1.1773887 0.0064382814 0.013956572)
(1.2250359 -0.0047339298 0.01452929)
(1.2720917 -0.017274137 0.015083901)
(1.3184493 -0.031148053 0.015654726)
(1.3642435 -0.04620705 0.016207034)
(1.4093561 -0.062378445 0.016776083)
(1.4539803 -0.079506176 0.017323122)
(1.4980207 -0.097443016 0.01788111)
(1.5416859 -0.1160727 0.018439025)
(1.5849071 -0.13514854 0.018996972)
(1.6278832 -0.15461577 0.019574786)
(-0.0055126479 -0.0057407097 0.0034901277)
(-0.0052036146 -0.011824224 0.0033419532)
(-0.0036403032 -0.01714921 0.0037761631)
(0.0008124004 -0.022070303 0.0039616466)
(0.0067172508 -0.026717961 0.004053823)
(0.015352202 -0.030478781 0.0042459542)
(0.025738065 -0.034094419 0.0041138603)
(0.038399344 -0.036709928 0.0043941079)
(0.053145052 -0.038927294 0.0044572376)
(0.07025982 -0.040314367 0.0044759027)
(0.089358959 -0.041022027 0.004689612)
(0.11084069 -0.041144885 0.0047743069)
(0.13450674 -0.040541116 0.0048776973)
(0.16040168 -0.039434933 0.0050280151)
(0.18855112 -0.037733584 0.0051826443)
(0.21886407 -0.035646691 0.005281092)
(0.25133035 -0.033195108 0.0054264212)
(0.28582753 -0.03050868 0.0055074213)
(0.3222962 -0.027679357 0.0056581938)
(0.36056019 -0.024803772 0.0057882218)
(0.40054478 -0.021985914 0.005955241)
(0.44205319 -0.019355175 0.006142358)
(0.48505541 -0.016976104 0.0063615603)
(0.52926961 -0.015035872 0.0065901089)
(0.57459745 -0.013543226 0.006898665)
(0.62089412 -0.012673489 0.0071934863)
(0.66801737 -0.012491519 0.0075138721)
(0.71577475 -0.013073015 0.0078950427)
(0.76406272 -0.014512314 0.0082883678)
(0.81272333 -0.016884216 0.0087087001)
(0.86163798 -0.020220449 0.0091682632)
(0.91068717 -0.024603068 0.0096514542)
(0.95976274 -0.030044196 0.010164261)
(1.0087596 -0.036565967 0.010702955)
(1.057585 -0.044206858 0.011278696)
(1.1061731 -0.0529155 0.011863973)
(1.1544404 -0.062719671 0.012480936)
(1.2023632 -0.073550384 0.013108011)
(1.2498887 -0.085379416 0.013732627)
(1.2969928 -0.098147306 0.014391227)
(1.3436928 -0.11175503 0.015012254)
(1.389951 -0.12617302 0.015677304)
(1.4358751 -0.14122636 0.016276843)
(1.4813666 -0.15688806 0.016942598)
(1.5266073 -0.17298847 0.017539752)
(1.5714983 -0.18942885 0.01818807)
(1.6162237 -0.20612298 0.018791039)
(-0.0048893427 0.00039996432 0.00048013089)
(-0.0030481358 0.00050900656 -0.0003514812)
(0.00025843866 0.0012754801 -2.8917343e-05)
(0.0061102505 0.0015167302 -8.994407e-05)
(0.014469977 0.0016772099 0.00012094508)
(0.024573011 0.001920192 1.6340072e-05)
(0.03697936 0.0014782564 0.00041722533)
(0.05123638 0.0013128356 0.00039887414)
(0.067709203 0.00044871521 0.0005943299)
(0.085974795 -0.00038632111 0.00085325405)
(0.10630992 -0.0017972929 0.0010026298)
(0.12859256 -0.0034091931 0.001122063)
(0.15264463 -0.0053715007 0.0012989623)
(0.17862015 -0.0078560563 0.0015095845)
(0.20627229 -0.010551184 0.0016415452)
(0.23572134 -0.013799064 0.0018594414)
(0.26669754 -0.017353577 0.0020296375)
(0.29929402 -0.021407816 0.0022671579)
(0.33330364 -0.025854444 0.0025058143)
(0.36875165 -0.030722066 0.0027495298)
(0.40550637 -0.036011309 0.0030138142)
(0.44356642 -0.04165693 0.0032901808)
(0.48266453 -0.047720003 0.003597102)
(0.52285676 -0.054114043 0.0039617622)
(0.56404788 -0.060856545 0.0043087181)
(0.60616677 -0.067921338 0.0047043808)
(0.64910717 -0.075292626 0.0051694682)
(0.69283904 -0.082966175 0.0056485185)
(0.73730374 -0.090913676 0.0061466235)
(0.78243163 -0.099127495 0.0066948775)
(0.82818424 -0.10757676 0.007248258)
(0.87449523 -0.11626502 0.007840089)
(0.9213138 -0.12514615 0.0084465896)
(0.9685875 -0.1342328 0.0090884489)
(1.0162609 -0.14348345 0.0097415499)
(1.0642714 -0.15289605 0.010424799)
(1.1125907 -0.16244496 0.011116076)
(1.1611239 -0.17211514 0.01182146)
(1.2098583 -0.18189089 0.012538424)
(1.2587292 -0.1917393 0.013242155)
(1.3077553 -0.20166687 0.013948641)
(1.3568032 -0.21163042 0.014643742)
(1.4059445 -0.22162625 0.015328345)
(1.4550116 -0.23163173 0.016015687)
(1.5041407 -0.24164365 0.016674392)
(1.5531284 -0.25162192 0.017350502)
(1.6020974 -0.26160115 0.018016975)
(-0.0041053163 0.0061088339 -0.0025109424)
(-0.00027679191 0.012887595 -0.0031823246)
(0.0042140236 0.018759176 -0.0033812283)
(0.01251065 0.024217498 -0.0035928931)
(0.022345312 0.028740594 -0.0036729699)
(0.034753965 0.032672132 -0.003551567)
(0.048944368 0.035283876 -0.0035003447)
(0.065303105 0.037252607 -0.0035266949)
(0.083269058 0.037633203 -0.0032280042)
(0.10317524 0.03714188 -0.0031816348)
(0.12464015 0.035148437 -0.0030553837)
(0.14764636 0.032123853 -0.0028120525)
(0.17209349 0.027518314 -0.0025318294)
(0.19794121 0.02181513 -0.0022815811)
(0.22505406 0.014737585 -0.0019578878)
(0.25338841 0.0064579285 -0.0016310468)
(0.28285359 -0.0029485237 -0.0013057947)
(0.31337961 -0.013460932 -0.00094866048)
(0.34493126 -0.024900258 -0.00059171673)
(0.37743981 -0.037241717 -0.00020779584)
(0.41091106 -0.05027025 0.00019272757)
(0.44519903 -0.063987243 0.00064973372)
(0.48043224 -0.078143743 0.0011070966)
(0.51653073 -0.092713351 0.0015705795)
(0.5535642 -0.10749115 0.0020617901)
(0.59145035 -0.12236907 0.0025917281)
(0.63027164 -0.1372381 0.0031268644)
(0.67001846 -0.15195095 0.0036563639)
(0.71070419 -0.16639329 0.0042234866)
(0.75234278 -0.18045778 0.0047961028)
(0.79496385 -0.19404495 0.0053923994)
(0.83856046 -0.20708204 0.0060153178)
(0.88314534 -0.21947424 0.0066577479)
(0.92870797 -0.23117467 0.007326894)
(0.97521979 -0.2421333 0.0080264429)
(1.0226731 -0.25230589 0.0087480389)
(1.0710044 -0.26168933 0.0094942712)
(1.1201706 -0.27027981 0.010270962)
(1.1701228 -0.27806972 0.011024591)
(1.2208363 -0.28508171 0.011820341)
(1.2721052 -0.29136216 0.012602176)
(1.3239298 -0.29696204 0.013407711)
(1.3762177 -0.30192154 0.014169041)
(1.4288434 -0.30634585 0.014961132)
(1.4817793 -0.31027299 0.015696923)
(1.5348042 -0.31381828 0.016480468)
(1.5879756 -0.31708786 0.017218127)
(-0.0027273664 0.0073987524 -0.0057615879)
(0.0022766983 0.015093663 -0.0065294106)
(0.0075299057 0.022123923 -0.0074862427)
(0.016330934 0.028232774 -0.0077248059)
(0.027092758 0.033435335 -0.0077617448)
(0.040059462 0.037538008 -0.0077220054)
(0.055085879 0.0402176 -0.0076772165)
(0.071920889 0.041755607 -0.0074497471)
(0.090519177 0.041543822 -0.0072866797)
(0.11074391 0.040073519 -0.0070673711)
(0.13244774 0.0367411 -0.0067920407)
(0.15551318 0.031922891 -0.0064745886)
(0.17988821 0.025352987 -0.0062028274)
(0.20542143 0.017243857 -0.0058200268)
(0.23201541 0.0075358448 -0.005460919)
(0.2596486 -0.0036559228 -0.0050427593)
(0.2881726 -0.016256344 -0.0046470568)
(0.31760892 -0.030122857 -0.0041848015)
(0.34784412 -0.045182368 -0.0037318588)
(0.37890078 -0.061216003 -0.0032416735)
(0.41070478 -0.078161317 -0.0027427158)
(0.44340709 -0.095671194 -0.0021956941)
(0.47675487 -0.11378848 -0.0016946906)
(0.51099804 -0.13233442 -0.0011043353)
(0.54607211 -0.15092022 -0.0005315243)
(0.58202098 -0.16953401 5.8870999e-05)
(0.61895508 -0.18790534 0.00067440597)
(0.65684954 -0.20592452 0.0013223494)
(0.6957817 -0.22339314 0.001970607)
(0.73581145 -0.24023001 0.0026516235)
(0.77695786 -0.25626127 0.003344317)
(0.81926886 -0.27138584 0.004071161)
(0.86276998 -0.28549992 0.0048091442)
(0.90746193 -0.29854455 0.0055876538)
(0.95335417 -0.31041628 0.0063786243)
(1.0004207 -0.3211252 0.0072058644)
(1.048636 -0.33062356 0.0080523096)
(1.0979283 -0.3389054 0.0089134086)
(1.1482804 -0.34603761 0.0097971118)
(1.1995413 -0.35199126 0.010674433)
(1.2516981 -0.35684571 0.011554013)
(1.3045991 -0.36069711 0.012409814)
(1.3581568 -0.3636473 0.013259278)
(1.4122267 -0.36577513 0.014084629)
(1.4667056 -0.36721896 0.014891265)
(1.5214307 -0.36811602 0.015686693)
(1.5763342 -0.36862329 0.016455511)
(-0.0013145974 0.0010944251 -0.0081851292)
(0.0028393459 0.0046377161 -0.0093308363)
(0.0070755107 0.0064857979 -0.01089595)
(0.015172808 0.0080758992 -0.011201779)
(0.024601868 0.0086366346 -0.011390484)
(0.036759568 0.0083082207 -0.011377298)
(0.050494544 0.0069904576 -0.011283482)
(0.066307751 0.0048275955 -0.011115195)
(0.083788198 0.0013782907 -0.010942769)
(0.10297716 -0.0028674399 -0.010659159)
(0.12380941 -0.0086453272 -0.010361892)
(0.14602919 -0.015189941 -0.010108472)
(0.16980804 -0.02325038 -0.0096494738)
(0.19479236 -0.032247346 -0.0092707748)
(0.22114804 -0.042473318 -0.0088038526)
(0.24862268 -0.053710667 -0.0083338145)
(0.27727902 -0.06597383 -0.0078136315)
(0.30697702 -0.079150041 -0.0072808592)
(0.33769802 -0.09315726 -0.0067168956)
(0.36940112 -0.10788336 -0.0061336381)
(0.40206223 -0.12320731 -0.0055284414)
(0.43559396 -0.13904403 -0.004887338)
(0.47013632 -0.15522625 -0.0042409758)
(0.50551063 -0.17170518 -0.0035530957)
(0.5418051 -0.18823413 -0.0028935226)
(0.57901128 -0.20479034 -0.0021717953)
(0.61715907 -0.22119235 -0.0014400518)
(0.65627173 -0.23734551 -0.00070437075)
(0.69635684 -0.25313762 4.393001e-05)
(0.73742986 -0.2684884 0.00082655501)
(0.77949422 -0.28325433 0.0016117726)
(0.82258584 -0.29739218 0.002431475)
(0.86668393 -0.31080539 0.0032642877)
(0.91179587 -0.32344729 0.0041291537)
(0.95789893 -0.33525383 0.0050082153)
(1.0049686 -0.34620773 0.005916393)
(1.0529518 -0.35628472 0.0068437905)
(1.1018228 -0.3654788 0.0077857409)
(1.1514892 -0.37379871 0.0087169589)
(1.2018917 -0.38125829 0.0096624604)
(1.2529723 -0.38790713 0.010590332)
(1.3046262 -0.39380828 0.011509116)
(1.3567725 -0.39900535 0.012392469)
(1.4092987 -0.40358404 0.013262407)
(1.4621285 -0.40762904 0.014086792)
(1.5151346 -0.4112558 0.014904768)
(1.5682293 -0.41455825 0.015686906)
(0 -6.1635904e-20 0)
(0 3.4468006e-19 0)
(0 2.9810853e-19 0)
(0 2.6307555e-19 -9.0178891e-20)
(0 1.0392876e-19 0)
(0 -3.6501259e-21 0)
(0 5.0520571e-20 0)
(0 1.8965776e-20 0)
(0 -1.2323295e-19 0)
(0 -3.0380623e-19 0)
(0 -3.7741975e-19 -6.2669006e-20)
(0 -6.187455e-20 0)
(0 7.6218223e-20 0)
(0 1.472216e-19 0)
(0 1.1834658e-19 0)
(0 1.8641224e-19 0)
(0 3.4045779e-19 0)
(0 3.4151014e-19 1.7201939e-19)
(0 2.9416594e-19 0)
(0 3.4252426e-19 0)
(0 1.1598932e-19 0)
(-1.9800154e-18 9.327778e-20 0)
(8.4270358e-19 -2.1103065e-19 0)
(-4.9029508e-20 -8.4832078e-20 0)
(1.5219743e-19 -1.4943327e-19 -1.1339986e-19)
(-2.8428667e-19 -2.0862592e-19 0)
(-7.2763816e-19 -2.982219e-19 0)
(1.1120359e-19 -2.4624287e-19 0)
(0 1.8255768e-19 0)
(0 6.5280349e-20 0)
(0 -1.2666471e-19 0)
(0 1.2348184e-20 3.2314666e-19)
(0 1.3928145e-19 0)
(0 2.028569e-19 0)
(0 -5.6360239e-20 0)
(0 -1.4685393e-19 0)
(0 -1.2005977e-19 0)
(0 2.8240204e-20 0)
(0 1.4090314e-19 -3.2107133e-20)
(0 1.0425227e-19 0)
(0 -3.7784993e-20 0)
(0 9.7556577e-20 0)
(0 1.8073544e-20 0)
(0 -1.0656193e-19 0)
(0 1.5601087e-19 0)
(0 9.9348449e-21 1.1419816e-19)
(0 1.5456447e-19 0)
(0 2.4443463e-19 0)
(0 2.21375e-19 0)
(0.0032843591 -0.002380445 -0.0058668467)
(0.0042009478 -0.0031596963 -0.0041693737)
(0.005158689 -0.0033345713 -0.0022122877)
(0.0055522519 -0.0035201286 -0.00064290655)
(0.0053948007 -0.0032752426 0.00097483789)
(0.0051122582 -0.0034657362 0.0027049394)
(0.0041053313 -0.002196647 0.0045185255)
(0.006179507 -0.013520858 -0.009799295)
(0.0081419268 -0.015045622 -0.0056286673)
(0.0090460459 -0.01413278 -0.0027310297)
(0.0093162461 -0.013774789 -0.00028109701)
(0.0094051496 -0.014567487 0.0020707454)
(0.0084007869 -0.014410654 0.0049683417)
(0.0072303953 -0.014305398 0.0084849997)
(0.0087518472 -0.018974513 -0.010906358)
(0.011427891 -0.018058861 -0.007847871)
(0.013064536 -0.018980972 -0.0037079274)
(0.013369243 -0.01900883 -0.00077091392)
(0.013307456 -0.018603885 0.0029193708)
(0.012091248 -0.018777567 0.0056443106)
(0.010383357 -0.019754682 0.010312971)
(0.015048927 -0.02845909 -0.011127704)
(0.017177709 -0.029054259 -0.0078780718)
(0.018672189 -0.02882072 -0.0038609649)
(0.019258273 -0.028802772 -0.00075603818)
(0.019098045 -0.0288935 0.002899788)
(0.01788049 -0.029525169 0.006699879)
(0.015790663 -0.029011423 0.01016447)
(0.02241935 -0.036052663 -0.011777636)
(0.025098231 -0.035923266 -0.0083324359)
(0.026997171 -0.036233591 -0.0043733348)
(0.027505126 -0.036242777 -0.000634787)
(0.027377087 -0.036529354 0.0031280914)
(0.026187605 -0.036458593 0.0066059933)
(0.024193517 -0.03684706 0.01082115)
(0.032142686 -0.044372712 -0.011501983)
(0.034502331 -0.04456626 -0.0082288735)
(0.03619811 -0.044545623 -0.0041907331)
(0.036814135 -0.044895764 -0.00090661238)
(0.03667879 -0.044769466 0.003132684)
(0.035430421 -0.045034631 0.0068360831)
(0.033342955 -0.044888544 0.01041764)
(0.043712115 -0.052428133 -0.011667441)
(0.046227394 -0.052652786 -0.0080639785)
(0.04799987 -0.053162538 -0.0043671845)
(0.048687626 -0.053294714 -0.00081842141)
(0.048588087 -0.053611205 0.0030846349)
(0.047422708 -0.053924248 0.0065177076)
(0.045528473 -0.053837014 0.010541447)
(0.057081479 -0.060786965 -0.011356711)
(0.059598704 -0.061352115 -0.008173769)
(0.06133669 -0.061542841 -0.0042014408)
(0.06203371 -0.061773251 -0.00074840975)
(0.061816581 -0.061777983 0.0028819373)
(0.060847704 -0.061757053 0.0066246643)
(0.058758586 -0.061536637 0.010123051)
(0.072533786 -0.06935123 -0.01133837)
(0.074980423 -0.069684022 -0.0077823836)
(0.076701661 -0.070153162 -0.0042164033)
(0.077359498 -0.070519434 -0.00081157151)
(0.077332502 -0.070917533 0.0028957466)
(0.076276469 -0.070926448 0.0063651905)
(0.074421224 -0.071000787 0.010143818)
(0.089600318 -0.07778586 -0.011019582)
(0.092085498 -0.07850296 -0.0077864898)
(0.093764723 -0.078877786 -0.0042463824)
(0.094615066 -0.079375268 -0.00063517209)
(0.094428202 -0.079303561 0.0028229447)
(0.093494286 -0.079298198 0.0063328496)
(0.091647498 -0.079087526 0.0097737702)
(0.1086918 -0.086685239 -0.010782756)
(0.11105291 -0.087278976 -0.0075736024)
(0.11283421 -0.087831835 -0.0038746541)
(0.11348856 -0.087997836 -0.00074249494)
(0.11349594 -0.088411223 0.0028718829)
(0.11252431 -0.088421774 0.0061044906)
(0.11075598 -0.088486449 0.0098029323)
(0.12941552 -0.095473946 -0.010583523)
(0.13190826 -0.096242965 -0.0072306415)
(0.13348511 -0.096779099 -0.0040222142)
(0.13429838 -0.097383374 -0.00061908179)
(0.1342764 -0.097527577 0.002795227)
(0.13333635 -0.097415553 0.0060021732)
(0.13178674 -0.097392017 0.009623015)
(0.15209894 -0.10473773 -0.010200375)
(0.15432316 -0.10538502 -0.0070080294)
(0.15600282 -0.10607366 -0.0037682574)
(0.15681218 -0.10628635 -0.00051344683)
(0.15680882 -0.10656104 0.0028075356)
(0.15588349 -0.1066906 0.005945269)
(0.15435204 -0.10653088 0.0093299896)
(0.17634401 -0.11386638 -0.0098815407)
(0.17854612 -0.11466173 -0.0067129349)
(0.18031619 -0.11535229 -0.0036607527)
(0.18096989 -0.11579752 -0.00046234673)
(0.18105324 -0.11622311 0.0027773288)
(0.18020697 -0.11615894 0.0057335014)
(0.17883123 -0.11610001 0.0091695004)
(0.20227393 -0.1234002 -0.0094881165)
(0.20450874 -0.12418619 -0.0063795561)
(0.20612684 -0.12483682 -0.0034858611)
(0.20687539 -0.12526133 -0.0002738728)
(0.20700909 -0.12552281 0.0026958633)
(0.20621939 -0.12553793 0.0057236667)
(0.20489417 -0.12544157 0.0089225066)
(0.22992764 -0.13293475 -0.0090412235)
(0.2320379 -0.13373131 -0.0060747288)
(0.23366842 -0.13448445 -0.0032486332)
(0.23442083 -0.13496037 -0.00025812929)
(0.23452702 -0.13535117 0.0027362375)
(0.23381096 -0.13540645 0.0055553095)
(0.2325748 -0.13530697 0.0087204888)
(0.25906246 -0.14267339 -0.0085915139)
(0.26117156 -0.14353038 -0.0056890336)
(0.26275375 -0.14427951 -0.0030522514)
(0.26348638 -0.14471067 -6.4300271e-05)
(0.26366963 -0.14510737 0.0027158989)
(0.26301382 -0.14510578 0.0054774371)
(0.26186242 -0.14506095 0.0084980805)
(0.28980959 -0.15254165 -0.0080582673)
(0.29183588 -0.15341998 -0.0053563013)
(0.29337243 -0.15418284 -0.0027499648)
(0.29411919 -0.15471153 3.9813791e-05)
(0.29429085 -0.15511498 0.002718277)
(0.29369673 -0.15520424 0.0053815574)
(0.2926292 -0.15512744 0.0082710528)
(0.32197987 -0.16255281 -0.0075483844)
(0.32392957 -0.16341504 -0.0049286147)
(0.32545826 -0.16423843 -0.0024725354)
(0.32615429 -0.16472515 0.00020037778)
(0.32639319 -0.1651755 0.0027660379)
(0.32585377 -0.16523886 0.0052968014)
(0.32487569 -0.1652527 0.0080410953)
(0.3555563 -0.17265865 -0.0069575123)
(0.35746183 -0.17356721 -0.0044989715)
(0.358909 -0.17438925 -0.0021703396)
(0.3596234 -0.17496316 0.00038597414)
(0.35987237 -0.17540353 0.0027956061)
(0.35937922 -0.17556393 0.0052215844)
(0.3585063 -0.17553481 0.0078279733)
(0.39048135 -0.18290007 -0.0063707113)
(0.39227889 -0.18379629 -0.0040475336)
(0.39370439 -0.18467483 -0.0018200669)
(0.39440021 -0.18521194 0.00058131391)
(0.39466888 -0.18571594 0.0028766037)
(0.39425415 -0.18585413 0.0051705847)
(0.3934537 -0.18590526 0.0076338884)
(0.42664895 -0.19322181 -0.0057359396)
(0.42838617 -0.1941548 -0.003542355)
(0.42975581 -0.19501916 -0.0014544441)
(0.43043289 -0.19563278 0.00081086603)
(0.43073435 -0.19612435 0.0029789007)
(0.4303489 -0.19634522 0.0051448387)
(0.42964867 -0.19640291 0.0074724499)
(0.46401297 -0.20365917 -0.0050646139)
(0.46566818 -0.20456779 -0.0030171303)
(0.46698095 -0.2054809 -0.0010577013)
(0.46766044 -0.20608418 0.0010718357)
(0.46795495 -0.2066513 0.0031183681)
(0.46765007 -0.20688618 0.0051418362)
(0.46702873 -0.20698629 0.0073415133)
(0.50250878 -0.21413514 -0.0043581593)
(0.5040811 -0.21511482 -0.0024602886)
(0.50534049 -0.21599579 -0.00063376221)
(0.50598871 -0.21668541 0.0013715978)
(0.50632835 -0.21721261 0.0032720316)
(0.5060626 -0.21748147 0.0051905508)
(0.50550609 -0.21761891 0.0072570763)
(0.54201661 -0.22471648 -0.0036733118)