/*--------------------------------*- C++ -*----------------------------------*\
  =========                 |
  \\      /  F ield         | OpenFOAM: The Open Source CFD Toolbox
   \\    /   O peration     | Website:  https://openfoam.org
    \\  /    A nd           | Version:  6
     \\/     M anipulation  |
\*---------------------------------------------------------------------------*/
FoamFile
{
    version     2.0;
    format      ascii;
    class       pointScalarField;
    location    "0.31";
    object      E;
}
// * * * * * * * * * * * * * * * * * * * * * * * * * * * * * * * * * * * * * //

dimensions      [1 -1 -2 0 0 0 0];

internalField   nonuniform List<scalar> 
625
(
21748.926
25949.063
3351.4207
2491.9293
21883.495
21293.989
2933.4607
3117.1584
5684.6626
2626.4749
15607.202
4194.9986
2330.3143
3412.2432
27263.625
24145.056
21886.737
20036.559
16998.188
14777.754
12563.086
10567.522
9029.2753
7211.7134
6375.6284
5157.647
4637.9251
3860.6184
3462.9722
2982.7967
2712.2173
2595.0734
2739.3209
2535.7635
3312.5996
2806.6142
3690.6386
30899.715
22779.828
24405.827
20664.155
18284.037
16238.068
12822.532
11363.658
9611.3134
7635.7009
7031.7075
5887.1721
5363.3708
4829.5343
4496.2509
4161.1174
3917.9814
3794.2822
3939.0707
3709.7062
4340.4913
3783.5828
4208.8804
6258.3818
1083.9511
11859.673
38330.874
41363.899
27115.757
30389.926
25346.014
17862.34
18771.45
14589.728
13262.274
11543.752
9574.948
8882.5312
7440.9905
6705.4806
5898.6176
4986.7921
4363.2457
3738.0724
3251.2066
2959.172
2749.048
2599.0159
2879.0329
3668.2427
1447.4335
4266.1419
4034.3164
2754.7455
2885.8213
2443.3563
2231.2874
2052.0852
1947.2766
2044.9723
2240.6935
2705.2058
3081.478
4117.675
5507.0987
6911.3728
7467.9595
9601.6399
13424.63
15340.183
18986.845
21835.951
25067.448
29412.863
32629.347
15979.737
17760.898
18805.876
19336.124
18314.927
18332.092
2132.0254
2743.4591
2427.8005
2949.9915
3391.6051
3051.3623
11167.561
8331.423
8781.5807
7489.9963
6608.4127
6012.5773
5117.091
4333.9923
4006.6436
3714.9735
3477.2115
3257.3832
3077.5232
2940.8731
2858.2745
2723.8557
2810.5614
2650.0893
2832.4221
2870.0702
3341.4467
2635.0281
4892.4229
4635.1589
3640.568
4480.3324
3991.673
4102.3138
4336.0252
3754.2611
4339.1647
4024.9612
4003.2114
4195.9595
4205.1076
4310.5119
4306.8245
4180.9451
4066.7014
3830.7615
3552.7928
3486.4945
2839.9221
3144.1591
2520.1898
5115.8109
11056.658
10290.072
9594.2657
8559.2134
7743.836
6795.4419
5794.627
5181.7166
4206.03
4053.6922
3328.2235
3015.6681
2576.5419
2278.3892
2022.3311
1911.0782
1786.1762
1933.3639
1803.5355
2552.9209
2517.8561
3491.8114
4659.0888
3444.8926
4254.7912
4461.7072
1276.236
1026.9269
1569.8461
7182.1008
7511.4208
7297.2273
34151.863
33601.866
34759.673
39166.389
36419.089
34951.567
27350.31
24574.362
26493.655
26198.6
26982.448
26435.385
22697.582
19640.5
22050.794
19499.885
18612.998
18696.009
17387.913
15352.289
17920.371
14866.24
11781.613
14239.577
12808.607
11222.116
13204.412
11953.364
8828.7748
11374.881
10173.029
7899.9036
9961.9841
9406.0431
6810.2324
9136.6428
8348.8006
6135.6521
8311.7274
7891.6444
5583.4902
7586.0655
7138.2296
4993.344
7010.2197
6510.7724
4631.0366
6313.9218
5904.3581
4185.7163
5638.7618
5323.152
3941.4032
5104.6538
4896.6142
3799.809
4587.7021
4402.0561
3648.4342
4146.233
4034.0328
3615.4869
3770.1784
3521.3826
3367.4807
3424.6769
3386.4432
3308.912
3401.7848
4059.6194
4573.9968
4212.3473
1710.4
2138.9324
1321.2403
3731.2839
4087.3579
3593.746
28079.648
25361.656
27059.215
28305.805
26207.697
27903.024
24725.465
24245.545
24873.356
21575.189
20228.524
21531.816
18715.46
18394.921
18773.248
15896.59
14580.236
15584.919
13324.118
12980.922
13551.66
11673.596
10363.606
11114.254
9470.1649
9275.7432
9368.1763
7847.0248
7051.0937
7891.6653
6727.6418
6084.1509
6693.0868
6001.2004
4782.5142
5956.0697
5048.5095
4233.6315
5276.8089
4701.6118
3620.9797
4780.1468
4158.5571
3159.0789
4429.6815
3787.3379
2898.8631
4098.8989
3551.8222
2696.0143
3877.5084
3334.9105
2652.9996
3691.4854
3319.2149
2816.4617
3637.8512
3246.5811
2901.9355
3463.5394
3749.8786
3566.2037
3618.3836
3215.7009
2784.2028
2885.8982
3918.256
3662.8059
3710.3915
19201.908
18171.979
15953.69
14050.79
13950.417
10439.457
10164.914
8458.1542
7177.986
5780.0564
5812.3233
4640.3544
3915.5666
3344.8413
2859.1512
2472.6962
2180.1683
2048.1979
1969.6378
2180.1517
2741.8298
2815.8809
5308.2673
2599.1443
7968.9925
3178.2597
5449.5916
4642.4291
4021.2985
4693.1282
4183.0015
4772.4183
4478.2844
4987.0775
5101.4893
5221.59
5616.7051
5772.5785
5919.1955
6018.1238
6027.319
5942.0915
5686.968
5573.5085
4063.4228
6632.6128
13940.569
7039.1638
9102.6653
9059.4476
7652.2589
7068.2252
6374.9761
5641.8878
4131.6259
3959.4163
3233.8984
2705.1524
2279.5854
1973.6828
1720.9622
1683.3241
1728.134
1889.2855
2227.6541
2752.0685
3272.2111
4060.4904
4666.204
14315.447
13482.19
13923.505
13124.254
13967.044
14090.557
12259.361
12999.446
12864.942
10475.053
10297.147
10402.496
9909.9772
10324.718
10456.932
8622.7169
8314.2211
8231.3737
7832.6757
7714.681
7607.6663
6851.3721
6662.898
6751.3886
6373.1813
5764.7738
5834.0974
5778.4828
5326.415
5394.8148
5360.4192
4761.6801
4791.1498
4871.7247
4385.1887
4587.9893
4567.4963
4021.9579
4128.664
4237.0902
3669.5899
3824.3446
3936.9112
3365.404
3539.0614
3682.1774
3172.6621
3300.4191
3481.5804
3001.6937
3065.8599
3269.8338
2888.5118
2846.7126
3182.0357
2804.8699
2833.2321
2721.5528
3067.5412
2517.3625
2751.0253
3609.3463
2848.7761
3019.1402
2654.2574
2301.9337
4707.7011
4670.3123
4748.1624
3626.5066
3306.9628
2607.4136
5598.1149
7550.5215
7351.2121
3769.7966
3101.3873
2975.2044
4001.3514
4823.1435
4960.4833
3928.1384
3801.6807
3839.046
4068.9592
3472.4173
3660.8945
3547.601
3682.3915
3865.2462
4130.8645
3357.3209
3316.3769
3738.4194
3532.2875
3824.3588
4096.6339
3681.286
3623.2437
4221.2819
3656.0743
3764.1064
4237.027
3924.9859
3945.7663
4484.3598
4108.5485
3928.4224
4529.1214
4176.9112
4022.0423
4615.8466
4301.8241
4070.8076
4624.6957
4322.4546
4005.7279
4580.0092
4288.2099
3929.8422
4472.1584
4183.0367
3823.6064
4434.6698
4202.1861
3777.373
4368.9063
3772.4265
3461.3202
4952.4629
2897.2695
3965.6113
3432.3354
3106.5389
2629.5054
5367.5724
5545.29
5511.2236
11940.749
11954.311
12549.653
9942.7366
9684.8099
10837.046
9546.1371
11555.252
11078.298
8722.7888
9594.2014
9931.9371
7686.1896
9152.3592
9024.2126
6296.809
7865.1621
8136.5955
5803.8729
6685.465
6775.5317
4491.1574
5949.5506
6878.2055
4048.6656
5270.6917
5729.8502
3631.6319
4511.0532
5315.5965
3094.6707
3909.4316
4889.7749
3054.1342
3436.5394
4486.839
2780.8992
2890.41
4164.9256
2681.3608
2524.0941
3905.0202
2644.3136
2252.4015
3718.6011
2669.7899
2062.9603
3578.1011
2725.0337
1953.5137
3516.8172
2813.3134
2043.5545
3527.0658
2989.8486
2040.5205
3471.924
3183.8598
2659.4138
3757.5234
3359.8409
2758.5718
3671.8578
3883.266
3938.0636
4560.4806
4609.9027
4102.5726
4456.181
)
;

boundaryField
{
    free
    {
        type            zeroGradient;
    }
    fixed
    {
        type            zeroGradient;
    }
    freeTop
    {
        type            zeroGradient;
    }
}


// ************************************************************************* //
