/*--------------------------------*- C++ -*----------------------------------*\
  =========                 |
  \\      /  F ield         | OpenFOAM: The Open Source CFD Toolbox
   \\    /   O peration     | Website:  https://openfoam.org
    \\  /    A nd           | Version:  6
     \\/     M anipulation  |
\*---------------------------------------------------------------------------*/
FoamFile
{
    version     2.0;
    format      ascii;
    class       pointScalarField;
    location    "1.77";
    object      E;
}
// * * * * * * * * * * * * * * * * * * * * * * * * * * * * * * * * * * * * * //

dimensions      [1 -1 -2 0 0 0 0];

internalField   nonuniform List<scalar> 
28033
(
586.94568
2539.8742
-93282.796
-83475.979
1285.6479
5817.2104
-106826.17
-152809.87
-1308.7171
-2520.7078
-2194.3241
-1158.3299
-566.64305
68.738554
186.83709
121.32226
348.6652
598.72018
1764.194
3294.8828
4604.994
4647.5131
2947.2879
-48106.816
-41603.419
-37940.771
-39148.86
-42942.826
-48958.617
-56438.595
-62977.072
-68798.393
-73603.338
-76364.634
-79378.428
-79118.51
-76960.538
-56640.996
1695.7504
875.8459
1378.7679
1604.31
2175.1857
2594.2427
3078.4589
3226.7516
3777.0703
4062.7566
4388.9038
4687.822
4862.0481
5270.0953
5390.5125
5565.5451
5479.7675
5935.1899
5681.3166
5847.8936
5737.7306
5804.0503
5511.8244
5627.2373
5236.4304
5270.6752
4912.1147
4811.3668
4509.7994
4300.8008
3946.1744
3666.5573
3279.2283
3015.5634
2349.9573
2310.1404
1940.0523
1274.4571
1030.8347
628.06717
93.91911
-245.31139
-756.37735
-1136.5364
-1641.7384
-2013.6055
-2553.1302
-2893.2464
-3463.4106
-3820.256
-4376.6739
-4790.0775
-5314.4316
-5798.0565
-6312.0798
-6834.9834
-7384.1975
-7935.1062
-8515.7314
-9105.8797
-9735.4553
-10336.535
-11003.089
-11594.045
-12354.894
-13012.866
-13885.959
-14442.862
-15201.061
-15554.717
-16210.929
-16710.738
-17229.185
-17768.447
-17931.242
-18654.934
-18420.088
-19187.551
-18675.297
-19412.204
-18633.96
-19204.11
-18310.318
-18689.582
-17711.004
-17415.393
-16830.978
-16202.252
-15391.989
-14400.192
-14867.696
-11940.285
-13266.783
-11186.419
4311.0389
6387.1535
-350.05586
5017.2081
1680.9524
3819.7343
4364.9649
4078.5446
4515.6257
4975.2961
4599.3567
5016.3311
4584.0399
4893.4591
4289.2062
4230.3245
3746.0978
3471.2434
3148.9
2615.6617
2263.4084
1418.7691
1234.0654
228.3
301.84968
-588.16843
-593.84464
-1484.0238
-1628.2383
-2313.2229
-2493.9775
-3181.726
-3250.1246
-3771.0314
-3832.5454
-4201.4447
-4050.3328
-4431.5338
-4255.1173
-4386.2005
-4148.0691
-4073.1536
-3781.9773
-3531.5483
-3101.1482
-2732.1886
-2148.7153
-1632.5227
-930.95686
-247.70236
558.14656
1395.1216
2319.554
3264.5698
4313.9367
5352.8413
6475.9444
7607.8351
8773.1273
9939.9488
11140.779
12292.012
13475.642
14577.557
15703.594
16711.067
17692.811
18555.662
19506.612
20111.019
20812.766
21121.696
21576.204
21859.281
21875.692
21916.841
21699.696
21350.815
20953.032
20287.206
19600.347
18694.017
17696.482
16560.969
15315.003
13974.523
12485.642
10987.677
9366.131
7627.5833
5968.3069
4182.2732
2332.187
334.5803
-717.38109
-9323.2258
127.54265
-1115.4645
-1702.154
-393.91188
-523.58709
-87.387079
60.85322
5.0796906
108.15498
425.87337
898.47676
1761.4023
2163.8856
2764.2369
2559.7934
7199.8997
6418.1229
-3405.7592
3871.0876
3430.1704
2456.7799
4587.7402
4783.3759
4952.5433
4514.5367
5955.3938
3831.297
5805.5082
3033.8212
5284.3824
3427.3351
4554.8494
2033.578
3870.0456
1676.7
2331.2498
1300.0461
813.34307
605.3665
-344.5974
-414.09956
-1257.6026
-1347.9978
-2136.4519
-1888.2173
-2559.4475
-2777.5045
-3048.7559
-3141.7304
-3933.1176
-3682.3291
-3028.1678
-3282.5913
-3200.0939
-3030.6677
-2735.7088
-2439.1557
-2038.2177
-1605.9466
-1080.0248
-523.83941
106.7783
783.98655
1510.2695
2284.9171
3090.6614
3943.1584
4817.5114
5698.9417
6618.7975
7519.8948
8424.0133
9325.9871
10181.077
11035.348
11820.398
12581.191
13265.397
13905.543
14444.145
15001.467
15283.68
14873.421
17264.917
15482.685
16127.201
15760.737
15584.789
15262.803
14813.612
14249.59
13592.904
12833.983
11898.415
10976.884
9828.5287
8741.7071
7408.7267
6171.1041
4642.1553
3258.1376
1599.9051
30.898403
-1678.998
-3372.2189
-5119.1616
-6907.9864
-8682.3828
-10372.369
-7912.3759
-151111.34
-161389.32
-142831.41
-172374.25
-136392.75
-155413.76
-115859.85
-124065.78
-108733.66
-85023.29
-69223.026
-78246.12
-65903.464
-92032.836
-111024.59
3411.9792
-688.40686
1219.6633
381.46236
121.26909
-581.24448
-1100.8983
-1679.9544
-2384.449
-2843.3112
-3545.7503
-4081.1935
-4582.8254
-5269.4539
-5828.7283
-6349.3427
-6818.0686
-7281.6876
-7659.4131
-8090.5811
-8401.6488
-8778.6286
-9001.2033
-9345.6095
-9396.4883
-9672.8294
-8062.7227
-10340.432
-9722.6975
-10299.789
-10072.352
-10119.39
-10082.004
-10003.643
-9904.4602
-9769.9831
-9608.3161
-9419.4232
-9197.71
-8957.1831
-8682.6339
-8390.7171
-8068.6683
-7730.9019
-7363.1902
-6989.1641
-6574.6501
-6173.7633
-5723.2585
-5288.3651
-4811.9369
-4340.3433
-3838.5865
-3366.0057
-2839.642
-2318.7946
-2300.7301
-127.42967
-187.36221
-1195.9815
1295.2772
1102.0086
1053.7845
1389.8476
2724.1837
2707.3884
3066.2617
3624.6406
3599.2034
4494.571
4326.7938
5009.1561
4933.7832
5576.3679
5294.9751
5673.0015
5713.6068
5690.9554
5937.6683
5301.6975
5790.0286
5394.8134
5349.8132
4549.9963
5877.0774
3742.5522
4187.1419
3417.5716
3870.9296
2383.7523
2205.842
1865.4275
2900.5378
96.142305
3910.8043
774.66433
851.22626
659.60726
697.15924
640.68329
811.85835
574.1818
822.30115
747.12597
957.06231
591.26699
581.24383
510.12469
440.25034
-168.95562
776.32526
704.96641
-334.85801
104.25492
79.411759
-677.52366
-128.32681
211.91811
-463.08504
188.64919
111.10761
-131.64725
43.114398
140.77825
62.697012
-89460.557
-89680.559
-89088.213
-89208.043
-89120.071
-88997.84
-89005.004
-88930.428
-88860.694
-88850.683
-88948.244
-88633.731
-88737.778
-88601.385
-88739.064
-107069.63
-107655.18
-107507.18
-107396.22
-107355.57
-107256.92
-107122.29
-107061.15
-106923.56
-106774.85
-106676.2
-106658.92
-106080.56
-107270.93
-106467.66
927.83112
-994.54536
-32.347027
371.57403
530.05606
1068.4945
1096.1708
1723.5673
1722.5523
2489.3578
2327.0416
3123.5187
2944.1851
3759.3373
3391.5447
4149.1587
4022.1961
4358.8599
4296.4716
4577.087
4525.0808
4580.0764
4622.8861
4465.594
4431.6077
4265.3754
4118.5404
3844.5282
3598.6944
3303.5561
2880.2375
2637.7466
2287.5883
1845.4822
1423.3117
828.80764
460.61247
-175.32874
-606.0501
-1142.0951
-1607.9908
-2248.2221
-2713.4553
-3172.2197
-3748.3837
-4187.6644
-4712.2799
-5137.2286
-5611.5012
-5986.3669
-6401.8796
-6737.1636
-7074.2342
-7367.3939
-7629.2114
-7873.2731
-8067.2814
-8245.8399
-8392.2687
-8500.6055
-8588.4627
-8625.8599
-8676.7208
-8632.6932
-8729.627
-8379.3192
-7642.1871
-7073.4888
-6658.0274
-6903.3968
-6604.3518
-6507.8361
-6203.2334
-6027.0923
-5688.2973
-5536.7395
-5008.1974
-5002.7132
-4261.8733
-4242.7384
-3625.2727
-3248.226
-2635.6105
-2516.8872
-1782.8639
-1269.0074
-840.40451
-116.33928
624.0631
351.96078
2490.8989
2319.3695
2636.4815
6588.8951
8574.5087
-49.116187
-2052.6616
-757.38244
-1013.5468
-302.74468
-282.07856
153.75378
295.02972
629.72976
858.62959
1199.423
1516.797
1795.2382
2130.9986
2400.7292
2916.2741
2823.1477
3449.671
3487.5886
3908.2533
3881.5891
4245.5613
4160.8646
4468.9149
4429.9969
4562.1883
4435.6596
4511.2885
4393.5953
4317.8172
4180.0375
4018.2659
3664.5311
3396.5852
3079.9289
2793.3582
2436.2329
2120.2465
1600.185
1181.1909
639.36174
195.67882
-332.03432
-883.06336
-1416.4648
-1890.5605
-2450.9031
-2936.0744
-3439.1858
-3913.9209
-4390.2492
-4825.9037
-5248.1524
-5651.1986
-6017.4354
-6358.8105
-6671.4423
-6955.7299
-7199.3548
-7411.4143
-7602.8641
-7738.6586
-7878.3971
-7890.7232
-8069.8401
-7698.6221
-6356.0167
-650.62168
1379.3788
2271.2216
3020.6068
3471.2622
4066.4804
4365.8799
5146.842
5161.5506
6118.8496
5841.0709
7021.7358
6348.5782
7706.4083
7030.2171
7971.0387
4847.9738
1396.9759
905.43352
1966.9756
2135.0021
2356.8564
3416.3102
3572.235
3230.3655
5182.6803
4627.488
7368.3602
-38.746626
-1866.4441
-1026.9798
-1405.878
-965.11197
-919.05786
-789.55081
-420.89499
-354.67144
27.676584
66.566891
567.31215
578.43857
1107.6138
1171.3038
1595.6704
1798.9841
2199.4695
2281.4673
2672.3656
2844.2599
3176.3512
3368.7434
3610.1378
3692.2057
3890.344
3989.288
4072.6706
4081.906
4114.9216
4069.682
3967.9572
3927.9161
3799.0011
3579.7596
3414.0392
2999.8897
2583.1446
2321.3781
1914.4729
1543.5107
1143.4976
592.19079
214.39886
-254.84272
-734.96332
-1248.0826
-1702.223
-2194.3353
-2664.9846
-3094.5653
-3538.2843
-3915.6008
-4311.7182
-4619.4194
-4945.8583
-5196.9839
-5430.518
-5606.2281
-5761.1247
-5854.3137
-5906.5599
-5929.8637
-5847.1842
-5961.7586
-4805.6387
-10050.83
-2509.1368
-436.77942
101.02591
387.16607
421.36594
807.28521
1145.0484
1499.071
1770.5503
2159.8051
2385.0462
2729.5919
2902.7316
3396.7514
3205.3237
4015.2381
4075.2642
1332.5908
1216.8101
1634.4453
1759.2542
2994.9566
2914.1923
3288.463
4126.0634
3732.0648
4550.4482
4615.6739
-162.58392
-1168.6351
-851.49195
-1112.6094
-919.6921
-1026.7632
-791.7961
-752.6397
-696.64541
-558.32235
-362.6724
-222.36075
-130.96735
242.39939
191.98418
709.68295
586.93544
1119.7924
1084.2215
1596.7591
1538.5587
1991.4982
1925.1597
2298.7116
2324.5919
2626.8585
2622.6442
2862.176
2887.6247
3030.4664
2994.1095
3085.3331
3030.8927
2946.5771
2869.2134
2772.4765
2581.2636
2764.7504
2069.0382
1872.3363
1594.982
1352.5853
1068.2336
765.5222
393.52227
68.441598
-261.7525
-580.51618
-925.44677
-1225.5101
-1531.1396
-1825.5465
-2080.3511
-2336.2041
-2536.1572
-2740.5811
-2876.174
-3006.646
-3084.3026
-3130.9886
-3139.5545
-3101.4183
-3051.6169
-2925.0533
-2792.9827
-2678.6897
-1323.5939
-4873.8417
-4948.7907
-4683.1553
-3874.5985
-3184.1607
-3094.1716
-3058.5373
-2638.7252
-2395.5783
-1854.6612
-1728.8128
-995.33769
-955.61874
-160.27666
-184.53639
928.0263
429.75898
3776.5192
4378.5591
4981.5334
5298.0866
5554.9677
5170.2129
6131.407
4738.9592
5356.8078
3785.5722
2518.8128
69.721207
-855.97387
-434.44542
-940.69279
-673.93717
-892.03561
-737.47785
-799.36979
-719.68925
-589.59757
-633.63057
-483.76526
-430.96532
-267.46951
-246.93474
13.13405
5.9367627
299.39004
265.58772
565.14986
564.03949
900.76385
901.62012
1272.1229
1253.8071
1530.3253
1595.691
1752.6508
1817.8947
1935.2131
2008.7655
2097.2376
2094.3598
2169.5328
2097.9013
2114.5176
2408.9053
2476.7154
1431.3803
844.24667
972.23132
798.53875
760.14047
729.52808
714.08014
693.63141
699.58835
677.99138
708.56359
745.24965
813.87537
884.83009
1025.8483
1142.3878
1336.3725
1518.2272
1764.5815
2008.3942
2297.5927
2605.4216
2937.2431
3286.7906
3640.5582
4062.581
4421.818
4840.4136
5315.8244
5637.8775
5775.5136
6132.3649
6623.5575
6580.324
6861.3005
4369.5498
3553.2564
3783.0788
3826.8341
4300.2988
4343.6466
4668.5319
4805.8648
5084.1284
5052.3023
5289.6558
5454.1449
5360.3704
5877.6138
5320.2807
5457.4751
5403.7046
5094.9486
4429.0519
3879.3333
2606.9104
-1005.0833
-27.341613
-333.61035
-107.54449
-372.62541
-354.30544
-425.70015
-506.33861
-539.71764
-562.68204
-612.46634
-632.33577
-527.67924
-680.6487
-443.3385
-638.59077
-350.45398
-550.87827
-169.99968
-367.04524
39.849247
-149.31792
228.45761
70.038837
404.81006
235.14659
613.72653
447.97925
777.95829
722.60352
951.49027
937.28822
1050.0428
1103.1657
1157.1352
1160.2501
1298.3706
965.45135
3120.5174
2711.4511
2569.6072
2464.62
2444.2057
2265.8635
2228.3375
2051.7872
1907.5708
1710.7625
1551.4167
1352.1255
1174.0861
975.71129
797.68544
613.01262
441.89814
286.02482
140.70079
16.031074
-95.566274
-167.18878
-238.77229
-283.24503
-264.86636
-296.45438
-232.41906
-188.42441
-77.883865
-10.381359
79.547356
313.60235
360.23421
752.66415
403.34909
-170.92318
3265.5187
3785.7797
3627.8092
3909.0989
4008.3214
4294.7694
4258.0871
4737.1632
4251.5239
5017.1432
4375.8772
4928.3289
4528.9381
4951.2862
4424.3291
5142.2274
4202.8533
4492.7438
3077.6822
3454.5558
1138.0914
-3177.4078
149.2591
-328.72732
222.73296
-340.92601
-52.975536
-373.44916
-309.60685
-507.25375
-494.34525
-635.64483
-643.90067
-755.00208
-775.91827
-772.19061
-889.60343
-770.64599
-899.36744
-797.19616
-954.0226
-736.19539
-948.33923
-617.54481
-869.80639
-534.23747
-663.25951
-428.08799
-487.96268
-269.8571
-330.21081
-114.99694
-140.08295
70.054062
119.62956
209.7443
364.95899
372.87919
540.22294
321.34964
1048.4992
1028.8448
1048.4166
1122.3628
1138.3211
1176.2089
1185.7354
1188.7044
1238.9542
1223.4495
1251.2114
1238.6025
1269.149
1258.4304
1296.803
1304.9073
1358.8246
1386.0641
1465.5853
1528.3151
1631.6596
1718.3044
1877.1864
1995.2145
2155.8437
2362.8683
2527.2625
2768.23
2948.8385
3231.949
3423.4251
3621.9152
3920.1294
4129.7786
4055.2006
6265.9335
7494.2299
7629.2353
7564.8765
7749.2292
7619.3386
7786.4162
7481.7222
7521.9046
7418.3967
6820.1626
7189.4372
6065.0975
6424.6237
5255.2358
5234.2694
3824.6572
3817.2735
2715.4016
2550.1253
501.52792
-3993.501
165.18782
-107.17317
165.29469
-48.678172
-0.84811296
-164.29454
-182.28764
-394.38638
-398.15081
-577.07061
-674.71953
-721.60402
-877.92918
-893.30145
-1048.6273
-997.20403
-1187.2991
-1041.1804
-1209.0749
-1058.6163
-1321.7731
-1098.1467
-1349.4462
-942.76889
-1331.1203
-873.6649
-1146.5132
-789.59173
-927.36501
-630.88178
-689.32053
-439.42318
-470.52286
-227.10995
-184.89178
-19.746472
92.070842
277.03693
395.64255
605.26533
664.03109
865.74398
967.04246
1133.0279
1210.1709
1398.4621
1493.4307
1662.247
1787.6128
1964.672
2105.0553
2289.6187
2457.4358
2648.5324
2840.3515
3045.8726
3265.0447
3483.2854
3715.6483
3966.5523
4208.6818
4455.7977
4726.2968
4982.5743
5224.3215
5485.8813
5722.1956
5980.1175
6131.1561
6443.1271
6486.9056
6671.1081
6928.2171
6779.8608
6882.238
6803.2531
6836.0901
6700.9556
6671.3862
6355.4752
6294.72
5894.5775
5641.9026
5153.794
4960.0113
4026.3544
4208.1547
2842.284
3192.247
1948.7221
2538.2255
549.48151
1115.9408
-772.87892
-4369.0268
366.15371
-196.50592
329.45776
-225.62411
-59.221679
-430.41987
-350.96255
-760.60084
-737.82891
-1092.5793
-1160.6635
-1402.5312
-1539.4539
-1684.4368
-1842.3422
-1929.0529
-2057.8315
-2124.0712
-2261.8257
-2205.3016
-2300.618
-1972.8046
-2065.8178
-1993.6127
-2076.5694
-1864.7054
-2009.2939
-1741.5819
-1837.378
-1572.2383
-1581.4566
-1360.8731
-1247.064
-1044.6445
-938.24684
-670.66065
-554.65275
-301.73728
-132.75453
79.04316
327.645
531.06494
823.42348
1035.5476
1354.5525
1594.5802
1897.8057
2154.7213
2461.8516
2729.2766
3040.255
3321.659
3633.3968
3927.0483
4239.5634
4542.8057
4859.6838
5151.0988
5488.278
5769.9382
6082.1718
6383.3928
6674.4986
6948.0171
7216.8038
7505.1906
7719.6468
7937.5462
8184.7058
8305.0066
8468.5947
8668.2155
8671.3513
8787.7871
8067.7649
6982.6305
7000.5988
6856.5312
6566.9849
6522.4593
6020.6073
5933.9081
5423.2549
5100.942
4793.3596
3974.3496
4094.7109
2570.6564
2988.5396
1108.9828
775.22838
-641.09617
-102.41601
-1871.6223
-3449.0339
737.13936
78.681405
534.56488
-40.090104
232.42141
-52.522589
35.215477
-318.44623
-329.48857
-513.13313
-713.93894
-851.59089
-1012.6505
-1207.0725
-1293.5375
-1488.2738
-1559.3877
-1700.4948
-1717.3871
-1875.1078
-2030.2899
-2167.3591
-2509.9982
-2377.6899
-2541.2968
-2326.8723
-2474.4354
-2156.033
-2299.157
-1949.7546
-2047.2138
-1707.403
-1699.2654
-1458.8497
-1283.2611
-1087.6959
-891.72421
-632.99161
-471.34282
-148.08677
43.556245
343.9987
546.17417
852.69683
1054.4822
1354.5976
1592.5632
1887.3588
2143.3768
2440.1684
2708.7205
2994.5798
3276.8091
3558.0088
3834.658
4119.0341
4380.5917
4657.3729
4920.8084
5153.4066
5418.0409
5638.5022
5839.6444
6050.9438
6243.0131
6386.9094
6500.2952
6675.5203
6673.9378
6777.4178
6803.6725
6732.2575
6847.6668
6963.3984
1125.3825
-4707.159
-4547.0269
-4970.1124
-5204.0623
-5746.815
-5868.8131
-6269.1319
-6561.8962
-6615.4732
-7072.5252
-7026.4585
-7155.8633
-7601.5972
-6823.9001
-8134.5672
-6304.7633
-7366.1694
-6122.1013
-7005.8019
-3114.188
453.44503
300.74992
595.26403
-76.36845
375.01252
-221.8927
-25.606155
-489.21216
-362.83554
-748.09497
-836.49369
-1075.9036
-1161.92
-1464.9685
-1364.3372
-1839.9868
-1470.7638
-2082.6624
-1587.7696
-2191.73
-1687.8552
-2163.1871
-2590.8376
-3024.2554
-3013.9048
-3119.5904
-2984.7049
-3001.4983
-2911.0787
-2795.0712
-2731.0871
-2505.6168
-2449.5544
-2154.3852
-2077.0468
-1810.7981
-1616.8244
-1397.3893
-1112.7452
-913.54586
-599.62186
-398.2636
-53.751329
191.36532
529.13426
807.42434
1148.8631
1425.7199
1766.645
2061.101
2383.7419
2683.6877
3004.333
3290.786
3598.1046
3876.5686
4157.5809
4423.217
4673.1253
4908.2756
5146.6314
5321.9916
5522.3629
5694.3155
5804.7302
5938.4379
6053.6891
6090.3634
6155.5737
6205.0332
6128.4366
6190.392
6091.5092
6510.0496
10439.82
613.05161
1286.4518
1203.7335
805.41478
740.20809
410.89213
216.92722
57.662284
-190.33746
-357.30082
-386.35315
-652.35324
-675.37006
-610.2105
-1159.2806
-692.79725
-2422.5358
-1735.5845
-2624.9231
1554.6284
1702.1867
585.98959
1024.6339
710.09146
967.46063
674.70784
759.16357
438.71629
419.04252
155.08367
-58.020325
-318.86857
-412.56144
-865.9971
-933.84856
-1262.1435
-1411.3899
-1717.0975
-1786.8218
-2107.4073
-2102.8963
-2290.2135
-2198.7097
-2756.4394
-2925.9463
-3043.0538
-3082.7539
-3015.6994
-3057.6657
-2920.9168
-2923.2599
-2779.4783
-2710.5114
-2556.1885
-2435.804
-2198.0677
-2079.4705
-1796.7016
-1664.581
-1362.714
-1193.3726
-876.02421
-683.81229
-376.41596
-163.16208
122.62436
368.15338
630.64249
891.19591
1141.818
1389.6537
1628.7481
1861.2252
2074.6054
2283.6819
2471.0033
2649.3435
2798.7461
2941.5464
3060.6777
3147.9377
3226.0192
3281.9161
3294.6623
3273.3609
3307.6147
3187.3772
3172.8698
3071.3663
2897.2101
2808.8487
2574.3066
2401.8479
2158.1957
1621.1979
4668.181
5506.6279
5087.6955
4855.4262
4461.9602
4135.9075
3790.437
3291.5614
2982.6896
2353.6462
2187.4155
1224.4637
1289.944
354.45158
-306.87661
-356.9956
-1969.2687
-1221.9882
-3420.4548
1410.6899
2098.2324
1676.9268
1992.4952
1552.9253
1740.5993
1402.1667
1591.2367
1142.6516
1260.8947
874.89128
684.65494
475.41529
77.6834
-207.00258
-442.03068
-897.88739
-1054.8976
-1539.0595
-1639.3273
-2209.2146
-2118.5411
-2867.1346
-2323.5274
-2768.4314
-2495.6482
-3108.4196
-2854.9487
-3211.123
-3105.4382
-3218.7946
-3217.5166
-3175.7537
-3161.9663
-3080.4033
-3011.9842
-2927.9536
-2789.6059
-2704.9943
-2502.0897
-2415.991
-2178.7999
-2060.079
-1832.597
-1665.8012
-1444.4484
-1265.2668
-1032.6473
-863.21732
-639.17544
-466.59677
-267.14136
-102.35996
77.090683
220.64604
368.98767
496.31807
605.42507
696.94648
782.72062
826.30679
869.43535
891.69533
874.28024
868.56702
799.23114
790.84277
609.42505
584.01119
395.57202
330.31829
107.06294
56.840093
-240.50831
-328.30177
-528.34771
-539.71
-1046.9233
-1214.3765
-1537.8506
-1646.7271
-1858.7324
-2042.8052
-2145.9486
-2301.8743
-2328.6999
-2430.7136
-2475.3998
-2062.224
-2742.4242
-1553.6305
-2201.9433
-2096.5244
-2222.6039
-3808.0955
1412.8912
2781.2092
1653.7541
2396.623
2125.424
2743.6782
2720.7428
2939.787
3012.7724
3073.7692
3014.158
2903.7007
2678.8957
2620.6835
2237.7793
2161.1038
1668.0632
1557.0439
1057.4491
1000.1636
472.42926
443.31722
-154.00582
-231.50072
-799.73966
-823.60512
-1221.4738
-1266.964
-1576.1276
-1645.8894
-1839.3193
-1899.4304
-2015.6287
-2053.8832
-2077.7177
-2142.5121
-2118.6528
-2148.6686
-2057.6503
-2085.1293
-1954.4161
-1936.0824
-1813.3365
-1764.0598
-1653.4293
-1584.0653
-1496.4627
-1411.7798
-1352.8037
-1276.1199
-1233.4143
-1188.7011
-1174.3605
-1158.0611
-1188.0099
-1212.343
-1277.0373
-1360.135
-1464.6773
-1594.8878
-1752.6025
-1930.9554
-2128.3739
-2362.2071
-2594.6319
-2888.463
-3086.76
-3478.5045
-3622.5725
-4041.9937
-4379.1287
-4609.61
-5018.5471
-5254.1132
-5559.8388
-5853.3552
-6112.3788
-6301.2324
-6485.8631
-6657.5708
-6716.9951
-6890.1465
-6834.4369
-6915.1945
-6770.0357
-6772.9783
-6522.9296
-6318.5019
-6108.7384
-5860.116
-4930.2509
-5656.381
-3910.8628
-4301.4913
-4606.4443
2285.6065
3917.1558
470.19639
2586.1185
1275.7182
2570.4097
1864.1107
2644.6586
2623.1225
2807.225
2897.0673
2686.9093
2788.7736
2648.8873
2364.9381
2499.5684
1749.7611
2039.9902
1168.881
1554.8929
605.8807
1113.086
-55.89815
403.24631
-810.90555
-407.96876
-1333.8087
-1105.6798
-1809.0812
-1759.0409
-2152.8618
-2279.6752
-2572.778
-2696.0254
-2938.4928
-3152.667
-3322.8522
-3385.0074
-3593.0378
-3635.9818
-3790.2109
-3843.9112
-3954.1332
-3995.1927
-4072.1403
-4098.8345
-4158.2653
-4165.0073
-4215.0376
-4211.6206
-4236.7553
-4242.8439
-4246.9119
-4241.4584
-4246.1743
-4228.8303
-4218.1854
-4202.215
-4177.044
-4147.4131
-4120.4439
-4077.2367
-4030.9565
-3980.4505
-3929.0466
-3856.7464
-3753.4476
-3802.2659
-3595.3541
-3627.9385
-3241.8327
-3330.7557
-2944.9953
-2963.5603
-2628.2863
-2511.9623
-2180.6064
-2012.2191
-1665.8388
-1375.3972
-1015.2825
-645.2089
-200.50842
215.09249
741.96616
1205.9727
1880.3252
2296.0382
3092.4777
3694.2229
4340.1257
4936.7777
6330.4743
5943.0855
8214.9649
9969.782
-947.35864
-773.48902
-927.58928
-1089.7194
-974.21175
-1026.8262
-1016.4388
-975.36887
-911.86143
-746.71355
-951.06949
-948.30501
-869.55772
-1046.1784
-1348.4803
-1261.6931
-1172.7336
-1188.3934
-1130.1881
-1201.5359
-1240.9473
-1205.8206
-1290.0942
-1165.2373
-1262.0101
-1247.3198
-1202.426
-1392.3256
-1429.2943
-1739.2953
-1284.7684
-1441.4417
-1300.0653
-1312.6112
-1327.2176
-1307.0494
-1286.0591
-1335.2351
-1319.087
-1315.3935
-1279.1809
-1384.6349
-1467.8506
-1553.7857
-1553.7937
-757.36157
-633.91198
-615.12848
-664.29355
-655.2613
-665.4461
-667.69382
-690.8958
-644.19829
-671.15204
-670.38839
-708.19001
-729.85893
-848.08766
-961.12218
-326.88553
-348.92962
-376.14012
-396.62189
-429.89108
-435.92592
-445.67179
-415.66062
-472.28495
-472.16723
-480.21336
-484.08336
-521.14512
-631.8792
-551.3996
45.316573
13.640144
-14.35011
2.1095846
-28.716043
-42.904609
-59.666831
-57.587236
-61.907071
-62.241824
-46.727716
-81.446565
-80.178252
-113.10512
-137.87439
57.815704
56.414404
7.2046814
-23.539849
-21.514259
-47.077496
-48.996302
-76.776428
-75.211265
-66.739506
-88.883692
-54.66901
-59.214333
-23.975715
-101.52992
86.939654
40.052501
-14.433141
-1.1624407
-29.760507
-27.954626
-37.926503
-46.381295
-18.989825
-53.724222
-27.637728
-32.701519
-36.972122
-30.630288
-44.462314
-54.917861
-16.741987
-118.53453
-114.31812
-144.20614
-165.19048
-165.48874
-152.28484
-170.54527
-125.065
-147.50523
-93.660368
-118.179
11.803828
-19.623418
262.01877
170.66666
26.571002
27.611181
-36.882814
-34.750707
-29.783299
-43.059767
-29.07044
-58.843247
43.658406
-28.039651
87.499954
297.39614
70.363989
280.59258
342.93655
57.179649
48.912682
-69.46336
-18.298209
-84.024019
-33.333525
-77.745414
-13.153703
43.568985
100.8701
243.04199
653.31297
360.47569
1258.7548
828.28005
611.79212
333.59258
375.12042
231.49477
265.28312
213.19332
245.30568
308.20781
379.27722
350.15534
730.07907
1212.889
984.89548
1395.6925
1637.5416
833.87971
881.88101
588.94907
690.93765
488.08629
595.63577
633.52094
611.90329
773.27967
771.19584
1055.4741
1873.9969
1484.0138
2381.3582
1858.6229
1318.8795
1259.0337
1146.6666
1170.4735
1203.1179
1215.1267
1183.6201
1019.3089
1056.9044
997.61229
1088.0095
1657.4373
788.67131
983.19926
896.13577
349.10705
111.37158
-56.935877
67.808622
-21.24925
-14.958018
-176.48376
-183.08712
-183.93201
-28.684369
257.9095
804.31358
842.79328
5127.4542
6892.7207
5529.1456
6615.117
7125.1157
6704.242
7241.2093
7608.8342
6749.4472
7198.6808
7159.8813
6840.5299
6662.0471
7238.3137
5046.1104
4464.5742
1694.7257
3491.1262
2732.2671
2830.7899
3391.3308
3310.6083
3572.2918
3832.5712
2709.443
2953.1284
2242.6296
2334.4486
3730.5667
2997.8042
3498.9842
4037.5236
3178.4336
3734.2183
4735.2677
3150.3316
3204.4993
3330.8639
2212.295
3896.2948
3033.5073
4674.1305
3744.2254
2191.3901
3453.4706
2024.9506
2834.8013
2819.5524
1423.1453
1805.6166
2073.6974
1466.7812
1893.8847
1912.3765
1253.8166
1988.4906
1629.717
2003.0119
2999.704
1252.7041
5844.3347
5500.9227
4985.6069
6278.0013
5059.8482
5426.888
5898.0531
5572.7448
5945.2584
6528.4141
5667.0723
5993.2192
5211.4431
4760.9411
6258.9228
3314.1577
3822.5626
3565.3713
3286.042
3764.0586
3674.7843
3265.3314
3252.6932
3201.7535
2711.4082
3523.7083
3323.1899
3260.7555
4252.3822
2823.4371
4906.4721
5490.0347
5410.7813
5641.3277
5235.4072
5648.2054
5638.1415
5580.848
5660.5535
5694.3332
5154.3982
5498.664
5354.3633
4647.8565
5977.4837
5100.6434
4616.4172
4642.6182
4884.3858
5136.5491
4694.6795
4839.1724
4951.5327
4553.246
5138.7564
4997.2933
4908.5987
5023.5308
4354.7774
4842.7398
4998.1209
5518.3264
5642.0241
6153.9686
5681.3423
6092.8357
5957.3377
6009.1773
6262.4768
5728.0722
5848.3491
5483.8771
5579.9554
5271.1521
5452.3041
5429.8269
4796.0155
4886.8073
4822.4469
4947.1382
4735.9534
4870.9886
4870.868
4416.6036
5315.6304
4388.2287
5124.9564
4552.5237
4698.3238
5036.3802
4993.2207
5344.3799
5326.8231
5757.2721
5737.7932
6078.3712
5960.2291
5968.968
6179.4678
5561.8223
6313.3031
5678.7004
5861.7961
5602.5087
5935.3092
5052.0807
4664.5084
5139.6973
4997.552
4962.3284
4907.3717
4848.5148
4794.8556
4432.1111
4788.1571
4347.0222
4529.3892
4363.2799
4199.0315
4759.4525
4952.9374
4983.8273
4512.7333
5145.5933
5050.7432
5241.7021
5364.6199
5227.9107
5545.8797
5340.9708
5575.4012
5254.5409
5334.3195
5284.7991
5304.9152
4516.0377
4544.3647
4642.5437
4489.8041
4605.6431
4781.4755
4376.7442
4612.5217
4035.7249
4055.1113
3717.1621
3887.0674
3708.3491
3536.5843
4246.6838
4543.7801
4223.8053
4276.9891
4654.3797
4690.6058
4362.6533
4405.5388
4560.0042
4957.9154
4849.6232
5277.9926
4968.5743
5144.5287
5143.787
5081.0658
3827.2209
4037.5443
3841.0018
4305.0332
3558.5159
4343.023
4020.9654
3861.68
3372.6977
3511.8009
2975.4264
3122.8134
2644.4172
2829.6539
3604.2877
3664.6162
3378.9691
3545.7284
3449.2917
4068.6574
3579.8082
3803.5633
3549.6567
4049.1098
3846.1738
4357.5471
4057.8278
4629.741
4018.7454
4663.5076
3261.5828
3230.6921
2902.3181
2954.4771
2898.325
3307.1392
3244.4033
3324.2516
2828.1252
3021.4637
2553.9458
2588.0442
2325.1594
2216.1102
2627.2896
2930.6125
2639.1556
2878.1807
2943.9181
2893.39
2566.7256
2722.1691
2596.714
2913.1429
2697.5563
3123.6082
2878.761
3235.6543
3253.6945
3812.4375
2039.4644
2127.2023
1947.0797
2239.562
2077.8987
2623.0771
2055.7474
2292.1892
2154.4089
2267.441
1748.3074
2164.3764
1834.3077
1720.0026
1971.3699
2303.9305
1677.0858
1895.6789
1630.2431
1909.705
1417.5586
2060.8891
1680.7647
1871.9091
1479.9671
1871.0508
1607.3146
2174.6095
2046.2527
2663.576
988.38513
1323.5388
929.45851
1431.5221
991.19121
1575.8984
930.66108
1469.5753
1010.0638
1506.111
1200.1138
1435.5452
1279.4891
740.00275
1502.533
1318.8602
508.25992
870.04446
550.9306
925.03939
545.68126
918.37117
603.01578
919.61337
637.05029
818.48072
470.89552
546.42902
696.51429
940.39443
184.65199
385.95127
0.49042213
467.27534
89.476753
352.85652
69.191506
215.49476
116.14088
222.74322
70.671973
373.62715
431.21548
144.67494
659.59733
223.79673
-334.17139
-329.53955
-429.69025
-83.7542
-559.96948
-42.910199
-329.86743
-175.52156
-349.06722
-312.17588
-366.40633
-410.86922
-475.48927
-109.42041
-762.50437
-641.51583
-821.82691
-686.89626
-959.66663
-571.45348
-965.57876
-725.00854
-906.91479
-812.43016
-592.5699
-740.19766
-543.90836
-615.98069
-298.55104
-997.38143
-1266.7081
-1080.7871
-1273.0555
-971.38053
-1305.5501
-1065.0695
-1206.3646
-1166.7505
-1195.507
-1163.4202
-1281.5473
-1184.982
-1511.0679
-909.91903
-1571.6884
-1564.9676
-1956.1882
-1578.8837
-1615.4076
-1702.7027
-1691.0549
-1738.4441
-1585.3408
-1734.1278
-1544.9653
-1871.1759
-1550.0018
-1512.8157
-1327.9423
-1971.908
-2040.4317
-1742.1981
-2155.8352
-2072.4426
-2137.854
-1987.8695
-2096.2768
-1970.2459
-2081.805
-1959.1403
-1954.0469
-2036.0071
-2335.9948
-1677.7717
-2234.4031
-2516.8363
-2619.79
-2379.5283
-2457.8858
-2403.1356
-2426.2499
-2508.439
-2525.8608
-2598.445
-2495.7894
-2606.9458
-2644.8271
-2467.0537
-2262.5983
-2735.7553
-2725.439
-2659.2939
-2718.1701
-2778.1314
-2627.011
-2747.1624
-2888.2294
-2984.0516
-2810.6462
-2747.2291
-2838.1048
-2665.0214
-2970.2998
-2522.7762
-2971.2755
-2981.2803
-3133.3345
-3070.0605
-3085.1885
-3185.8118
-3147.7592
-3109.3693
-3047.6553
-3137.8607
-3206.616
-3142.5324
-3151.5945
-3182.4703
-2778.9252
-3171.7504
-3338.1976
-3315.4346
-3289.4825
-3278.3018
-3389.6251
-3296.0107
-3435.0263
-3305.4279
-3418.327
-3286.85
-3398.03
-3311.4412
-3439.3153
-3065.3285
-3394.9352
-3491.0063
-3534.1276
-3532.2618
-3556.1666
-3532.4597
-3592.6508
-3541.0721
-3616.9611
-3575.0104
-3641.1849
-3569.1978
-3617.5973
-3631.9288
-3300.1236
-3575.1675
-3675.5752
-3567.882
-3419.2652
-3604.974
-3720.8304
-3645.9776
-3714.2439
-3661.0539
-3648.01
-3607.8725
-3674.0634
-3583.3428
-3640.3962
-3306.6283
-3477.1399
-3683.8797
-3844.8281
-3580.5084
-3889.1639
-3848.3528
-3798.5124
-3885.6804
-3678.9394
-4201.8237
-3783.3351
-3912.8364
-3736.7779
-4035.9475
-3411.1723
-3426.792
-4031.3847
-3874.4033
-4078.0841
-3755.4107
-4002.6758
-3805.2554
-4007.9636
-3896.2082
-4154.0708
-3984.7588
-3837.1192
-3974.4309
-3858.7986
-3641.4695
-3857.9464
-3688.5998
-3742.4234
-3648.9343
-3845.5347
-3735.5297
-3877.9585
-3796.1874
-3858.3209
-3743.9225
-3800.2824
-3943.0636
-3783.7159
-4009.2463
-3529.6028
-3457.3113
-3761.6629
-3674.3798
-3771.4377
-3627.2029
-3818.9388
-3675.4768
-3816.3726
-3752.9762
-3774.6733
-3796.8727
-3705.5661
-3787.93
-3851.3071
-3367.1576
-3452.5801
-3519.756
-3587.4231
-3459.9177
-3601.4957
-3555.8248
-3617.6482
-3641.5875
-3598.4052
-3687.4602
-3620.6989
-3675.1969
-3667.0479
-3701.6617
-3296.9324
-3134.3142
-3368.1104
-3271.2774
-3367.1903
-3283.9547
-3418.7423
-3353.7564
-3412.6253
-3409.2286
-3416.6915
-3428.7048
-3427.1131
-3396.9615
-3517.3502
-3045.4633
-2913.7306
-3027.806
-3090.0974
-2998.5036
-3070.1979
-3097.3083
-3085.8022
-3168.1921
-3118.0877
-3169.4217
-3183.7624
-3125.5784
-3188.9362
-3234.9908
-2759.5221
-2479.9009
-2754.2151
-2631.1161
-2698.1598
-2664.5425
-2755.8023
-2735.718
-2790.5653
-2764.5123
-2823.8974
-2790.6098
-2812.1696
-2816.0916
-2887.6403
-2399.3241
-2130.8287
-2274.7833
-2282.1628
-2264.0286
-2298.4892
-2367.3716
-2338.6398
-2395.3012
-2397.9117
-2391.5561
-2450.2167
-2385.9642
-2437.0065
-2496.0845
-1987.5441
-1559.9279
-1846.3237
-1729.4726
-1781.1338