/*--------------------------------*- C++ -*----------------------------------*\
  =========                 |
  \\      /  F ield         | OpenFOAM: The Open Source CFD Toolbox
   \\    /   O peration     | Website:  https://openfoam.org
    \\  /    A nd           | Version:  6
     \\/     M anipulation  |
\*---------------------------------------------------------------------------*/
FoamFile
{
    version     2.0;
    format      ascii;
    class       pointScalarField;
    location    "0.01";
    object      E;
}
// * * * * * * * * * * * * * * * * * * * * * * * * * * * * * * * * * * * * * //

dimensions      [1 -1 -2 0 0 0 0];

internalField   nonuniform List<scalar> 
3969
(
623.65173
807.00882
17291.47
17384.652
614.68205
805.83707
17434.659
17392.115
258.43211
129.08511
90.326935
88.218138
115.18854
186.02527
311.57738
17890.402
17590.187
17768.387
17791.538
17666.563
17566.615
17551.734
538.9256
286.55633
246.00919
290.97404
385.56628
507.81425
648.18992
802.69572
956.59753
1133.0535
1314.2299
1510.5931
1728.2618
1965.3461
2205.7931
2480.3212
2762.4646
3059.498
3381.0931
3716.2931
4068.8459
4438.5366
4824.7603
5228.2655
5649.4974
6088.4232
6544.4727
7017.2224
7508.2361
8015.946
8541.0534
9083.2331
9640.4931
10217.046
10800.001
11418.201
12037.86
12681.117
13350.866
13987.894
14589.865
15078.255
15494.526
15699.927
16312.561
16211.582
16757.618
649.28171
310.55801
368.67142
359.78474
430.30791
530.71472
652.96646
807.29888
969.2817
1143.823
1337.8002
1539.1826
1756.2228
2001.2023
2250.6342
2521.2996
2807.075
3110.1757
3430.7158
3769.1356
4123.2991
4501.1805
4893.9826
5293.3779
5721.3844
6160.0299
6609.6321
7090.2459
7570.3224
8080.8262
8610.1386
9153.1472
9715.3822
10288.537
10889.432
11497.989
12105.73
12748.203
13410.91
14023.871
14715.154
15345.089
15904.507
16278.536
16499.024
16561.07
16624.199
251.33413
127.88666
74.794109
71.260715
98.141992
151.63116
320.66797
1125.6464
671.74365
54.826803
335.90123
320.52708
439.7321
601.54927
726.45669
924.13973
1077.2896
1244.4743
1508.7108
1699.1808
1934.5373
2186.1909
2452.7057
2735.3413
3035.1246
3351.7585
3684.959
4035.1868
4402.8925
4789.0113
5192.2241
5617.8499
6082.6024
6456.4894
6964.1926
7442.1458
7946.0934
8469.5003
9008.7178
9565.7113
10142.041
10722.418
11336.78
11997.271
12562.42
13167.189
13808.63
14440.597
15046.779
15563.681
15880.173
15997.124
16124.523
16560.76
18010.099
17712.205
18165.72
17896.787
18033.881
17369.968
17884.614
17064.78
16619.017
16370.724
16055.35
15664.527
15178.507
14609.121
13957.356
13303.943
12660.665
12057.946
11395.654
10827.608
10207.023
9629.7135
9075.3353
8534.2554
8010.0081
7504.3508
7013.9059
6543.4406
6086.4799
5649.9913
5227.869
4823.6325
4436.4936
4066.2078
3712.468
3381.6233
3058.7042
2757.6133
2473.3961
2217.5388
1971.5006
1731.0165
1521.8353
1305.2348
1120.1551
953.88515
798.50458
635.9536
502.39178
362.55527
296.68132
249.80256
233.29551
720.5206
520.89301
571.91975
566.45234
562.52282
559.86021
539.86165
521.80111
720.71713
756.66406
815.07204
840.2842
829.00497
806.83081
704.08254
17556.607
17590.609
17630.709
17680.913
17696.117
17707.907
17574.879
17448.726
17296.625
17368.012
17427.71
17400.634
17518.638
17446.688
357.74682
207.16351
182.8585
222.17508
305.02899
427.97784
572.08479
728.46461
896.12889
1071.4974
1260.264
1463.5712
1682.2472
1915.1052
2165.8136
2434.2942
2715.7373
3017.3246
3337.883
3673.6565
4027.1768
4397.3169
4784.7001
5189.1367
5610.4969
6049.6888
6507.0372
6980.2327
7471.2772
7979.7524
8505.1801
9047.6972
9606.6103
10184.754
10774.114
11385.644
12018.293
12672.532
13340.999
14024.385
14697.458
15308.702
15772.95
16257.969
16481.275
16661.651
17203.307
209.5165
192.37627
199.43181
218.31106
280.09838
381.34538
513.08898
663.02794
825.1666
1001.8937
1189.965
1389.6165
1609.9591
1843.125
2092.0173
2359.4557
2643.5537
2944.848
3263.1952
3598.7366
3950.8245
4320.4297
4707.633
5111.6601
5532.8962
5971.4403
6427.7279
6900.5199
7391.9114
7899.92
8424.9575
8966.9259
9527.4186
10101.277
10699.534
11313.414
11945.216
12602.845
13292.343
13999.551
14692.314
15306.636
15808.228
16176.692
16582.655
16570.113
17610.898
158.2576
191.97573
203.77144
214.35106
261.15095
349.33686
470.12126
610.78783
769.59736
940.27013
1127.9321
1329.5361
1548.562
1782.1546
2032.0312
2300.5573
2584.2224
2885.5882
3204.4687
3541.186
3894.9851
4265.7541
4651.009
5055.8987
5478.8922
5915.4709
6371.2673
6845.7497
7336.6889
7845.3367
8370.0185
8913.507
9470.7133
10051.224
10643.158
11261.475
11899.14
12568.451
13269.699
13995.494
14712.493
15363.269
15853.808
16276.469
16629.422
16676.593
17999.009
143.01281
191.91379
206.95243
213.96094
255.15983
335.89756
449.11058
588.43325
743.80472
915.48672
1103.9905
1306.2716
1524.6057
1760.0515
2009.7551
2275.588
2558.832
2859.5291
3177.1089
3513.5507
3860.4696
4231.2042
4618.2339
5022.6768
5445.8888
5881.7302
6334.5924
6807.2232
7297.9466
7805.2998
8329.7657
8871.0402
9429.2117
10006.965
10600.249
11215.693
11852.398
12514.006
13208.476
13923.329
14627.64
15242.838
15725.563
16097.06
16531.426
16637.226
18007.243
151.46627
197.26394
202.48253
215.38584
258.32563
345.31901
463.36459
608.08847
766.56778
939.6936
1129.4391
1331.1802
1547.5724
1781.348
2030.4997
2296.9748
2580.6326
2881.5414
3199.8412
3538.0609
3884.0545
4273.0215
4633.9371
5034.5167
5460.1297
5892.3162
6347.9793
6821.88
7312.0073
7818.1214
8342.1195
8881.8339
9440.3755
10017.851
10606.99
11228.679
11860.546
12535.639
13203.728
13950.75
14671.65
15329.39
15855.234
16259.258
16698.388
16779.576
17772.99
207.91314
202.72585
208.38283
234.5464
291.78927
395.88026
523.63089
675.23491
835.35319
1002.1474
1195.9785
1391.0875
1613.9464
1846.9638
2097.2572
2363.8016
2647.1433
2947.7692
3265.4624
3602.8795
3939.197
4347.8022
4706.56
5094.0161
5533.2741
5956.5906
6415.6788
6887.7323
7375.4397
7882.0565
8404.5888
8944.983
9502.877
10076.284
10667.556
11281.319
11907.492
12560.295
13235.918
13923.964
14640.279
15230.288
15704.977
15988.63
16356.984
16517.411
17194.45
201.8855
115.08106
149.80835
189.16059
271.81609
394.26529
530.82852
691.19802
854.76425
1029.5977
1222.9587
1420.849
1640.9683
1873.6025
2124.2985
2390.878
2674.564
2975.0217
3293.4092
3624.5062
3988.1775
4338.8046
4748.1777
5138.6409
5578.1257
6005.2417
6471.4546
6937.4969
7429.0334
7932.5736
8455.0168
8995.0469
9552.5476
10124.439
10715.922
11339.752
11948.16
12603.052
13277.197
13954.563
14667.707
15319.717
15921.263
16345.498
16763.943
16930.27
17080.739
220.50128
233.81202
229.57205
227.95382
228.65971
222.85627
220.92146
137.79573
135.61359
133.06803
132.31474
133.36585
135.76608
122.78481
109.30735
108.49614
104.7863
102.75495
105.11076
106.09445
97.2216
106.15191
110.37247
105.92051
105.44259
105.5012
106.02509
88.193015
122.57811
120.36273
118.61751
116.99846
117.40233
120.44189
107.06469
181.52733
179.57147
180.16114
183.92318
184.48191
182.46561
172.6588
229.54781
227.92506
225.58554
224.14602
219.39054
221.44159
257.1264
841.88833
827.26433
907.56741
956.63973
943.70118
965.17322
850.21174
681.85852
769.97
641.30747
582.89952
695.46722
671.10225
721.37156
347.11064
274.76021
345.98446
344.86697
313.39055
302.10293
364.32449
391.85362
395.2433
381.09558
372.06459
383.1719
385.11991
372.63395
391.03384
377.1127
394.75924
388.19045
381.67299
384.16978
390.07301
491.74064
499.87357
498.79387
500.05924
489.62215
510.7614
493.35651
626.26544
628.25684
631.50316
632.34204
617.91442
615.59513
611.23678
770.62124
772.50157
775.76764
772.01805
792.45743
764.44877
773.74629
937.87854
939.45241
933.13002
932.71255
934.7697
931.20062
923.30835
1111.593
1108.8984
1116.7365
1113.2328
1107.5856
1117.4508
1112.6219
1308.0079
1298.5367
1313.9571
1301.1188
1303.5181
1289.1677
1281.3559
1505.7571
1492.3153
1494.0731
1495.6693
1488.6413
1490.1675
1495.4899
1724.7151
1709.4757
1719.6414
1718.2481
1721.6362
1723.8869
1712.5014
1958.376
1947.6205
1958.2916
1950.4836
1953.2805
1949.8398
1943.7544
2210.3883
2197.8632
2203.4704
2201.4693
2202.1856
2200.2881
2195.3765
2477.2044
2462.3498
2473.0959
2469.0049
2470.9966
2469.3998
2463.4858
2760.4382
2746.8626
2756.7896
2753.2526
2755.6143
2753.2755
2747.9861
3062.1886
3047.6339
3058.3761
3054.9411
3057.295
3055.0646
3049.1262
3380.6273
3365.4497
3376.9948
3373.6016
3376.2588
3373.2297
3367.3
3716.4353
3700.9121
3712.7476
3709.2553
3711.8255
3708.2378
3702.5608
4069.9698
4053.4329
4065.4694
4062.2198
4064.9565
4060.3932
4054.965
4441.8878
4423.1474
4435.3253
4432.3897
4434.0217
4428.8534
4424.4688
4828.5586
4808.9236
4821.3191
4820.4602
4820.4702
4816.3597
4811.7401
5229.337
5211.4989
5227.3031
5230.8183
5223.4107
5219.5771
5210.9886
5650.3536
5631.5573
5650.4651
5650.6151
5637.7699
5638.855
5631.0007
6085.4063
6069.7724
6093.3676
6070.3111
6063.7226
6081.1237
6091.028
6526.0139
6539.8621
6532.5676
6550.5147
6589.4394
6554.5038
6535.6806
7042.2624
7012.9971
7038.4678
7003.9851
6998.4843
6988.7684
7014.8339
7508.4323
7501.1343
7504.1117
7512.2125
7511.1537
7505.7562
7508.6662
8028.5074
8006.5325
8023.7189
8017.2998
8014.057
8007.7112
8009.978
8552.0502
8534.5585
8546.7262
8541.364
8539.3826
8531.8522
8534.216
9096.2172
9076.2465
9089.5488
9084.2609
9081.0219
9072.5745
9075.5406
9655.7882
9634.646
9647.9277
9639.0443
9635.9902
9632.6747
9635.4443
10230.559
10210.001
10221.819
10214.273
10220.522
10209.922
10210.573
10823.033
10800.177
10811.542
10809.695
10810.653
10793.456
10797.22
11430.509
11409.271
11416.14
11416.702
11399.109
11395.098
11400.363
12046.037
12009.714
12032.483
12019.102
12018.358
11992.078
11995.221
12657.784
12629.667
12639.992
12622.943
12624.839
12615.352
12642.233
13291.541
13283.945
13283.778
13279.825
13262.797
13266.834
13299.353
13964.649
13918.704
13920.977
13900.605
13907.004
13892.224
13914.446
14608.649
14544.695
14537.108
14525.608
14526.161
14494.369
14555.328
15196.647
15109.51
15105.171
15086.434
15087.894
15070.861
15146.755
15656.497
15549.349
15546.39
15531.05
15538.045
15531.414
15601.651
15884.261
15780.838
15782.346
15776.371
15783.696
15805.978
15849.527
15961.924
15911.802
15928.711
15940.995
15943.942
15995.782
15946.996
15972.166
16030.656
16055.051
16075.963
16082.908
16139.114
16084.147
16293.998
16484.007
16515.66
16576.015
16583.813
16643.258
16537.012
17894.208
17713.901
17711.164
17693.548
17672.876
17703.386
17774.127
16803.876
17064.512
16980.092
16984.563
17013.122
17171.105
17137.795
17715.286
17628.43
17666.098
17689.409
17761.965
17768.488
17722.809
17509.736
17477.727
17456.428
17465.234
17528.012
17583.562
17468.726
17570.968
17659.472
17607.513
17594.223
17670.809
17729.988
17667.743
17759.791
17892.127
17661.666
17708.993
17723.735
17836.571
17797.278
18040.54
17691.526
17699.449
17713.083
17644.419
17779.181
17808.414
554.41564
581.10555
566.05903
552.49476
566.3432
567.47068
506.07431
328.79484
302.85075
302.01178
295.29935
309.94675
277.65785
342.02424
296.87324
294.99813
296.1778
295.38727
293.07173
283.49727
298.6846
329.22856
335.86618
335.86931
328.42857
334.9773
333.74058
331.45155
395.04651
404.23912
400.21895
400.45476
399.53974
401.43319
413.78182
510.73124
525.87552
520.98295
526.25764
517.95998
524.16685
520.61702
642.61608
650.78478
653.82821
647.66415
656.60985
650.41618
649.06053
788.39854
804.82229
790.99448
790.79455
789.18726
807.00052
796.8612
944.19802
951.94813
949.60141
946.05264
951.54429
958.95782
953.06541
1118.9396
1123.8929
1121.0164
1118.3934
1123.3823
1127.0184
1126.2366
1300.0828
1306.0844
1299.9346
1300.2552
1304.3631
1307.2977
1311.1621
1500.0032
1502.4973
1495.8262
1498.6546
1492.7401
1511.8399
1504.3389
1706.0897
1711.0083
1712.5467
1708.0868
1714.2144
1721.0156
1727.6223
1940.1973
1953.3543
1943.4584
1945.076
1954.456
1947.507
1957.7941
2185.0118
2192.018
2196.8852
2195.8994
2189.4645
2195.9586
2199.1832
2454.2844
2462.0632
2457.655
2452.4396
2465.84
2470.1049
2477.2786
2745.3571
2751.1689
2742.5859
2747.8092
2743.4497
2758.1861
2757.1478
3048.0213
3050.841
3047.7076
3045.3088
3051.0866
3057.7948
3053.9235
3367.0138
3368.468
3362.456
3364.6235
3367.3394
3375.972
3375.1947
3702.6071
3704.3623
3700.1239
3700.073
3703.4636
3711.6295
3711.1585
4055.3725
4057.3471
4052.2445
4053.0463
4056.3725
4065.2095
4063.6673
4425.2183
4426.9943
4422.1846
4423.2455
4426.7565
4435.2467
4434.1483
4811.0315
4813.3902
4809.2378
4810.4449
4813.364
4823.3546
4822.1703
5215.1787
5217.6904
5213.5851
5214.1149
5218.0873
5228.0853
5225.662
5635.288
5638.6348
5635.0289
5636.4251
5641.2944
5652.0194
5649.7384
6075.2502
6078.3541
6072.9681
6074.5717
6078.9462
6088.6816
6084.9801
6531.2419
6532.7258
6528.756
6530.5716
6534.5855
6543.2724
6542.6228
7003.723
7006.841
7001.9311
7003.2137
7007.4055
7016.0308
7014.5975
7494.5666
7496.501
7491.8223
7493.0761
7497.605
7505.8826
7504.568
8001.8933
8003.9822
7998.686
8000.1735
8004.5887
8013.1943
8011.5679
8527.1116
8528.8846
8523.727
8525.0022
8529.2885
8537.0326
8535.0352
9068.4718
9070.343
9064.1617
9065.6788
9069.5472
9077.9476
9077.5032
9627.6899
9628.8278
9624.207
9626.1971
9628.4232
9639.8558
9635.8992
10202.875
10203.464
10196.799
10194.903
10201.102
10212.803
10199.134
10792.345
10791.685
10790.551
10789.747
10798.992
10789.315
10825.964
11390.079
11409.43
11389.426
11405.62
11391.59
11398.088
11391.157
11989.596
11990.648
11984.08
11984.899
11982.165
12021.43
12037.35
12653.008
12645.207
12645.731
12639.615
12659.883
12663.454
12680.068
13318.041
13318.346
13305.774
13300.048
13300.788
13306.224
13341.135
13972.071
13954.001
13933.37
13922.108
13945.857
13934.419
13974.964
14570.015
14528.515
14508.364
14495.632
14525.929
14509.354
14593.637
15040.151
14986.786
14961.758
14943.75
14986.14
14979.154
15087.755
15416.067
15358.791
15341.087
15332.059
15370.281
15373.142
15437.217
15553.051
15469.237
15452.745
15459.796
15480.336
15569.344
15632.807
16074.472
16095.237
16110.297
16145.01
16121.436
16242.268
16067.106
15987.491
15959.883
15955.137
16001.108
15999.502
16173.993
16068.68
16866.378
16992.07
17027.234
17037.829
17054.618
17074.835
16985.874
486.71934
175.12146
179.70765
206.22673
272.61783
403.19649
537.29903
701.73802
867.39694
1044.7037
1240.9079
1442.4
1669.8941
1906.5264
2155.0533
2419.7746
2702.7696
3003.1263
3327.985
3661.1126
4016.3613
4387.3149
4775.9062
5181.185
5605.9433
6040.9858
6501.59
6971.656
7465.4952
7972.6109
8498.2445
9040.5373
9599.3628
10178.593
10783.003
11362.919
12047.355
12661.565
13310.538
14005.996
14728.499
15423.799
16044.68
16538.753
16795.496
17123.144
17483.306
247.54814
330.36296
277.0703
271.07715
333.40623
417.96826
544.99091
693.34696
849.80793
1026.3885
1212.0571
1414.5255
1631.7808
1861.1713
2117.6092
2380.1507
2662.1944
2959.9588
3284.3907
3615.781
3970.5386
4340.2203
4727.9343
5132.4896
5555.9798
5981.3556
6435.9079
6921.1397
7408.1
7916.4609
8440.3056
8981.4045
9541.0603
10115.432
10708.246
11328.658
11949.884
12617.418
13289.421
14006.916
14760.622
15451.581
16004.255
16246.45
16391.009
16114.527
17328.038
145.84516
212.97147
200.62526
219.15222
270.76882
351.64459
465.97552
603.4984
762.28745
934.45299
1121.5886
1321.8653
1537.4918
1773.1102
2024.1723
2287.6173
2573.4023
2877.0755
3191.9258
3529.0767
3882.3375
4253.1964
4640.2568
5045.2039
5467.6503
5906.3473
6354.2546
6834.9233
7321.9116
7831.24
8355.5106
8897.8501
9456.5376
10032.652
10631.107
11239.601
11869.273
12535.555
13224.581
13969.283
14713.311
15435.6
15990.072
16343.968
16468.431
16682.251
17805.977
124.21828
208.58482
237.41845
251.79621
282.06749
332.84243
453.7016
586.06017
742.57514
911.65357
1096.6924
1298.5503
1511.1836
1747.1482
1996.8428
2262.6873
2545.9648
2846.5891
3163.8191
3501.3892
3853.0902
4223.591
4609.4194
5014.1728
5437.7407
5874.0403
6330.3393
6803.0203
7292.2037
7799.3775
8323.8704
8865.4736
9423.6882
10002.049
10592.526
11208.261
11846.944
12511.481
13204.768
13940.782
14698.4
15418.863
15994.889
16301.27
16511.244
16466.814
17764.295
135.45516
204.63123
222.3353
237.84956
267.23414
344.43095
456.74257
591.11982
746.07101
917.48967
1107.7222
1306.0464
1522.0196
1752.8607
2003.9778
2270.46
2553.9506
2855.0509
3171.9064
3507.1812
3859.0345
4230.1836
4615.6422
5019.8549
5437.7271
5870.7634
6322.9062
6798.9975
7287.7637
7794.6371
8318.6279
8859.7265
9418.0213
9994.5169
10588.509
11201.206
11833.02
12491.621
13188.802
13921.726
14672.609
15399.714
15966.102
16310.929
16467.615
16559.398
17413.279
199.81071
221.65354
231.44936
268.11736
299.91108
400.25463
510.87696
662.77179
820.67791
997.69152
1192.4906
1400.3491
1613.7841
1849.2365
2098.0186
2365.386
2648.5799
2949.4558
3266.9953
3602.3106
3954.6305
4324.2553
4707.1678
5103.71
5542.3972
5941.3221
6400.6642
6874.8626
7365.481
7871.8133
8396.3739
8937.7196
9495.0084
10076.037
10660.676
11278.135
11897.811
12557.59
13229.817
13933.541
14674.895
15365.616
15937.801
16259.626
16416.461
16488.764
16905.416
210.73119
127.55969
209.59908
208.37878
301.27292
407.38073
531.63774
689.23515
849.32792
1018.6626
1197.0611
1423.5707
1624.0935
1856.4563
2104.1593
2367.3109
2649.0596
2947.5133
3263.1031
3595.926
3945.8673
4313.0061
4700.3147
5094.8524
5545.6348
5966.6144
6392.216
6876.7158
7363.4826
7871.1223
8393.2798
8933.237
9490.134
10067.298
10650.473
11283.949
11889.377
12535.637
13195.514
13909.9
14624.926
15362.727
16025.062
16510.107
16774.891
16904.638
16809.994
400.81778
383.76991
389.23481
383.48864
383.89751
375.52429
381.23621
266.03153
264.62402
258.66323
251.97512
248.61275
239.149
257.95325
210.32652
216.39103
214.85564
215.89303
211.28976
215.2875
201.27598
253.12814
252.67957
250.70195
249.03988
246.88358
233.69212
240.08888
325.18105
325.05952
324.91594
321.98123
317.86551
310.71434
303.76907
440.08099
442.3408
442.0395
437.56969
436.68443
426.17968
416.67032
574.63365
577.16853
574.85317
572.14299
570.18316
556.82872
550.99502
727.38307
723.45483
723.8479
719.26032
720.46451
710.94646
706.11982
887.16515
886.16459
888.73519
882.71243
879.73399
871.69331
866.08468
1063.0364
1059.5834
1057.8578
1053.3326
1052.3788
1044.1608
1040.0284
1249.4014
1246.9071
1245.5048
1240.0782
1239.322
1233.6383
1227.361
1451.8994
1450.0288
1448.4695
1443.9869
1444.3265
1433.1349
1431.5976
1667.9764
1669.0857
1668.634
1664.8813
1665.0755
1658.683
1655.7146
1906.3173
1902.7266
1899.8133
1896.5465
1894.9191
1889.6104
1880.4614
2150.6996
2154.1603
2158.0469
2149.6775
2145.6152
2140.9082
2137.7716
2422.0675
2422.3517
2422.503
2419.1573
2418.4078
2417.2785
2406.3926
2705.1346
2705.9579
2704.2519
2699.1961
2699.8561
2691.0418
2689.5181
3005.2469
3007.1808
3005.9653
3003.0068
3003.1017
2995.7548
2988.4766
3325.8941
3325.9747
3323.9897
3321.3872
3320.4668
3313.9708
3309.3499
3661.4603
3662.3689
3661.3098
3658.6241
3657.6429
3651.066
3646.1548
4015.17
4016.0851
4014.5905
4011.913
4010.9039
4004.6896
3998.9219
4385.2461
4386.5012
4385.2233
4382.5743
4381.8315
4375.7513
4370.4432
4772.5679
4774.3465
4773.1953
4770.6365
4770.1633
4764.1941
4758.4787
5176.6026
5178.7271
5177.9351
5175.6791
5175.3048
5168.8492
5163.0031
5597.8378
5601.1667
5600.7727
5598.5599
5598.4241
5592.9009
5589.3326
6037.2311
6040.7193
6042.9648
6039.9864
6039.9997
6034.5887
6026.9334
6497.5383
6499.2777
6496.8613
6494.8278
6494.4506
6488.5228
6484.3
6967.9991
6970.9853
6970.277
6968.0391
6967.6103
6961.8245
6955.0406
7458.4828
7461.563
7461.9747
7459.1821
7459.0907
7452.4851
7446.5591
7967.1957
7970.4918
7969.5878
7967.0223
7966.8529
7960.3659
7953.7884
8492.5825
8495.893
8495.1856
8492.6168
8492.2234
8485.4394
8479.0182
9035.1956
9038.6656
9037.7593
9034.6564
9033.9313
9027.9135
9021.3998
9594.6092
9598.546
9596.917
9594.1933
9595.7702
9588.6646
9579.405
10172.236
10175.075
10173.58
10173.101
10168.576
10158.34
10157.294
10761.284
10767.07
10766.301
10764.264
10760.524
10768.364
10758.121
11378.634
11379.597
11377.924
11372.043
11374.972
11373.202
11361.449
12004.691
12012.331
12011.844
12008.953
12011.599
11988.733
12003.86
12637.863
12665.143
12671.592
12662.168
12668.488
12674.937
12637.654
13320.138
13316.459
13312.763
13306.127
13306.135
13299.312
13297.901
13991.273
13985.626
13978.497
13976.024
13976.417
13979.703
13971.164
14668.56
14651.303
14638.558
14638.175
14635.249
14648.295
14646.283
15284.212
15268.383
15255.827
15256.889
15252.948
15276.94
15272.679
15761.992
15746.729
15734.344
15736.354
15737.853
15783.496
15780.736
16201.167
16226.492
16227.208
16233.431
16241.723
16286.979
16239.45
16420.197
16445.817
16446.59
16452.701
16475.775
16534.876
16500.251
16734.946
16818.129
16826.414
16836.673
16862.533
16904.596
16894.763
17367.095
17381.827
17385.187
17383.308
17398.956
17431.026
17466.51
221.37248
216.04748
213.32592
212.29382
211.79434
215.79839
212.51187
264.74639
293.30798
296.87445
298.38953
299.82973
301.26363
293.29115
245.73476
255.40662
260.8312
261.49048
263.0985
263.62432
266.44767
264.83048
261.84061
265.54009
265.92034
264.32779
261.62359
264.68781
321.08785
324.56894
329.37778
334.58289
333.94279
335.4063
323.3086
416.22966
421.82639
424.41692
424.74456
424.24881
422.84947
414.17368
537.39127
544.55326
548.0073
549.09879
548.13484
549.12084
538.53869
679.19868
689.79286
688.8898
689.71938
687.2316
689.25852
678.29869
835.68628
844.68505
845.37281
845.74397
845.89307
845.78979
838.37431
1008.6781
1017.9009
1016.3535
1015.1664
1014.9037
1018.3371
1007.9848
1191.1709
1198.7398
1202.1504
1201.2884
1199.224
1199.4131
1196.1054
1393.9645
1401.7949
1398.9218
1400.5223
1398.7702
1406.3903
1395.8994
1610.6281
1616.3319
1618.6108
1617.3063
1615.3864
1616.4095
1608.1118
1839.2846
1849.6785
1849.7163
1850.7896
1850.1711
1851.131
1847.0638
2089.6462
2096.5773
2100.5723
2098.4742
2100.781
2098.5217
2093.0894
2355.8761
2366.7642
2365.9997
2364.7539
2365.1843
2368.1428
2362.7305
2639.7035
2648.9042
2654.1054
2652.5988
2650.2737
2651.3468
2641.8077
2941.4156
2948.2306
2951.6345
2951.45
2951.7384
2953.8151
2948.4077
3260.0069
3267.7142
3270.0016
3269.572
3269.2824
3271.3454
3266.1131
3595.6052
3603.1904
3606.3252
3605.9283
3605.7197
3607.6852
3601.944
3948.4898
3955.7823
3958.575
3957.9351
3957.8626
3960.3626
3954.5676
4318.0147
4325.3632
4328.6078
4328.336
4328.3173
4330.9354
4325.5138
4704.1948
4712.076
4715.3416
4715.3782
4715.4137
4718.603
4713.1739
5107.2507
5115.7922
5119.0301
5119.7126
5119.9264
5123.2612
5118.0701
5527.8564
5537.6107
5540.4694
5540.6794
5541.3592
5545.2759
5541.5071
5965.6216
5974.4384
5978.5003
5978.2684
5979.3216
5983.1265
5981.8122
6422.5507
6430.3481
6435.4022
6435.163
6435.8785
6440.7871
6433.0148
6898.7107
6905.8302
6904.0003
6908.0635
6909.0477
6912.2555
6907.4432
7385.7341
7394.4695
7396.8678
7398.13
7399.0588
7402.6843
7397.3331
7893.0967
7902.2806
7905.2835
7906.0938
7906.6836
7910.2854
7904.6198
8418.1901
8427.5844
8430.2956
8430.5191
8430.7648
8434.515
8429.1275
8959.8548
8969.2961
8971.7469
8972.5357
8973.845
8977.1502
8970.3392
9519.653
9528.6776
9531.5649
9531.9771
9530.3144
9532.6881
9529.6813
10093.461
10104.089
10107.484
10106.003
10109.362
10118.352
10107.8
10692.374
10700.063
10701.585
10700.595
10704.065
10694.28
10693.71
11294.352
11307.417
11310.348
11314.407
11310.378
11319.796
11313.127
11929.037
11938.068
11943.355
11942.564
11943.471
11945.747
11939.147
12583.702
12587.291
12593.365
12594.188
12595.175
12600.414
12602.206
13260.322
13274.881
13274.692
13277.595
13276.546
13282.832
13268.048
13966.068
13961.18
13967.659
13966.536
13969.758
13977.961
13978.509
14661.771
14655.054
14652.865
14651.278
14657.548
14670.727
14671.46
15277.108
15262.57
15258.171
15252.941
15262.109
15284.334
15292.892
15760.285
15740.127
15731.647
15723.238
15738.121
15769.308
15776.394
16021.304
15992.851
15970.095
15956.701
15974.075
16015.18
16036.694
16339.996
16296.844
16271.487
16256.22
16283.665
16330.256
16367.758
16272.791
16151.748
16114.483
16099.756
16132.81
16188.249
16289.579
17381.448
17352.455
17229.108
17197.281
17205.761
17263.793
17377.631
158.72645
164.11618
161.84105
159.61989
160.38251
158.1098
161.10654
212.73102
224.74445
226.99972
226.61087
226.99252
220.83116
232.29521
229.58442
222.56029
221.89682
222.18018
221.4505
215.29384
233.79161
246.26276
233.62579
238.25219
239.61482
238.35838
232.84292
242.07298
291.88611
283.44182
286.94234
287.55034
287.90469
283.72647
286.55987
373.43498
367.85286
369.59713
368.13
368.60621
365.04368
362.11476
484.37461
480.60519
482.33222
483.66006
483.06165
479.90733
478.80326
619.26317
618.24883
619.44791
617.52845
616.98873
614.68778
613.79844
772.99756
771.42659
772.02483
771.02348
771.10024
768.92923
768.51696
940.77572
942.02256
942.68118
941.00742
938.73074
937.83677
939.19565
1127.3148
1127.7289
1126.9539
1125.2535
1125.3084
1124.4992
1124.2156
1325.1487
1329.3757
1331.1964
1325.9847
1325.6558
1323.7902
1325.6795
1544.3303
1544.5821
1545.2876
1540.1492
1541.3023
1540.4802
1543.9664
1779.2445
1776.7817
1774.9939
1774.9642
1773.0895
1774.0769
1775.0704
2025.6559
2026.3523
2024.9874
2026.4448
2023.6639
2024.0268
2024.8
2290.6035
2293.7624
2294.3406
2293.2286
2290.7746
2291.512
2294.2495
2575.3794
2577.5076
2576.1655
2577.2669
2576.8587
2576.5195
2576.2007
2875.0515
2878.3874
2877.3526
2876.152
2875.8884
2877.2453
2879.8957
3193.4955
3197.3521
3197.2333
3196.512
3195.6144
3195.5532
3196.291
3529.0492
3532.5388
3531.6054
3531.6023
3531.119
3531.8715
3532.7625
3881.7188
3885.5074
3884.0796
3884.2505
3883.6917
3884.4539
3885.8954
4251.2367
4255.1082
4253.8384
4254.3455
4254.0282
4255.5427
4256.973
4637.8152
4641.2993
4641.3083
4641.5103
4641.1311
4642.8222
4644.173
5040.7594
5044.8285
5045.8336
5045.9512
5045.8106
5047.2011
5048.3206
5461.1433
5464.7579
5466.6963
5466.696
5468.2655
5468.9663
5472.4181
5898.3807
5902.9564
5904.7305
5905.5368
5907.2133
5908.4419
5911.4097
6354.3111
6357.6847
6360.6119
6360.6538
6362.4918
6363.1509
6367.0353
6828.2046
6831.4111
6832.6728
6834.0268
6836.3567
6836.0511
6838.8836
7318.1066
7322.8175
7323.3397
7324.4354
7326.3686
7326.6144
7328.0163
7825.885
7830.3245
7831.641
7832.0298
7833.5864
7833.927
7835.6222
8350.8204
8355.373
8356.8788
8357.6266
8358.6742
8358.6539
8359.8361
8892.6194
8897.0609
8898.1404
8898.083
8898.684
8899.2824
8901.6228
9450.903
9456.119
9457.6647
9458.0969
9460.0164
9461.3295
9461.6582
10029.538
10034.338
10034.185
10034.823
10034.141
10031.791
10034.168
10619.485
10625.453
10628.932
10631.027
10631.515
10634.779
10635.951
11237.229
11244.994
11245.115
11244.214
11244.847
11243.291
11243.787
11868.483
11877.585
11880.726
11880.958
11881.806
11880.61
11879.983
12526.789
12535.336
12539.243
12539.965
12541.032
12539.874
12537.466
13217.33
13226.641
13229.648
13229.403
13227.846
13227.561
13221.635
13929.032
13938.399
13936.25
13938.356
13938.224
13940.698
13936.128
14638.327
14647.939
14642.649
14640.447
14638.165
14644.594
14636.386
15280.584
15289.548
15276.987
15275.856
15274.428
15289.383
15279.421
15753.91
15759.191
15733.624
15728.94
15727.705
15759.124
15749.533
16090.589
16109.696
16072.675
16073.043
16073.763
16120.596
16085.578
16330.23
16300.687
16246.618
16246.105
16249.744
16341.015
16297.36
16435.112
16438.523
16389.82
16404.316
16425.692
16550.848
16457.311
17535.917
17507.417
17390.332
17372.973
17408.988
17506.14
17559.424
145.6554
154.7892
153.86271
152.24538
151.49378
151.00676
147.4283
204.22069
212.90962
217.00089
217.21577
215.01515
215.50059
215.06662
230.14112
227.60297
236.02774
237.84741
235.61102
234.41231
238.64765
247.80074
237.8223
246.26818
248.34183
246.49925
245.86542
248.25276
290.3221
281.37357
288.16262
292.58033
290.01016
286.22654
289.57148
365.20564
358.26473
363.19911
367.15498
361.11221
357.00184
366.20025
470.93549
470.11473
472.87629
470.42298
469.51309
467.41685
467.18889
601.62127
599.99321
602.64682
599.92853
598.10473
595.11484
598.14523
750.51788
749.48527
751.20275
749.17251
748.44797
748.0875
748.85414
919.41796
918.26433
917.98269
916.0153
915.58572
913.12105
912.37984
1102.3177
1100.1245
1100.7618
1099.0021
1098.67
1096.6117
1096.0743
1302.5412
1299.9813
1299.2694
1297.1156
1297.0414
1295.8153
1295.6692
1517.9817
1517.3124
1519.1238
1516.2204
1514.3231
1512.5738
1510.2618
1751.5196
1750.9099
1749.4231
1750.1195
1747.957
1747.1057
1744.5727
2001.3474
1999.2547
2000.4519
2000.1446
1999.3371
1997.4845
1995.5915
2266.7292
2266.0355
2268.1549
2267.1787
2266.0105
2264.5929
2263.3642
2549.9591
2549.7202
2551.26
2550.0868
2549.4744
2548.2483
2546.8035
2850.3495
2849.9498
2851.9126
2850.9901
2849.8713
2848.4438
2848.2646
3168.1775
3168.1187
3169.6907
3168.9714
3168.9094
3167.2687
3166.0896
3503.4128
3502.8112
3504.4692
3503.4294
3503.3843
3502.0454
3501.3891
3855.3868
3854.5859
3856.9287
3856.2008
3856.3649
3854.6188
3854.282
4222.9466
4224.0705
4226.0876
4225.9971
4226.6931
4225.1409
4224.4789
4609.9763
4611.532
4612.6999
4614.2424
4613.8962
4611.9303
4610.8521
5013.6696
5015.9738
5015.9993
5017.7107
5018.4825
5016.1132
5015.4689
5432.2468
5436.8838
5434.8249
5436.0404
5437.7309
5438.9293
5440.0931
5868.4956
5875.8724
5873.8456
5874.7673
5876.59
5876.7906
5880.6095
6324.3754
6331.176
6330.7469
6332.1049
6331.9272
6332.6918
6335.5053
6796.2547
6803.0495
6803.0776
6805.2176
6804.1923
6804.1315
6805.9148
7286.5969
7293.0084
7292.6221
7294.1263
7293.2599
7293.0622
7295.8399
7793.8048
7800.2099
7799.9879
7801.5575
7800.5629
7800.1646
7802.5598
8317.8981
8324.6474
8324.3255
8325.7138
8324.2879
8323.7107
8326.3788
8859.0518
8865.9074
8865.6703
8866.2949
8865.4143
8866.6033
8869.0867
9417.9911
9425.7647
9425.2334
9427.1366
9425.9935
9423.8386
9425.5593
9993.5903
10000.37
10000.855
10002.316
10001.216
10003.207
10006.03
10588.886
10596.849
10596.603
10597.197
10595.932
10593.912
10595.544
11200.644
11207.968
11208.825
11211.107
11208.387
11207.085
11209.65
11832.398
11841.869
11842.486
11844.613
11842.879
11843.091
11841.615
12491.819
12499.416
12502.768
12504.478
12503.361
12501.442
12501.293
13180.189
13182.156
13188.306
13189.171
13191.082
13190.424
13189.752
13887.868
13887.563
13889.528
13889.071
13891.149
13892.274
13895.252
14589.976
14583.121
14582.99
14580.42
14585.676
14595.857
14603.317
15217.838
15203.4
15193.119
15187
15196.125
15217.719
15234.318
15702.354
15675.919
15659.477
15650.807
15663.276
15700.349
15727.529
15999.51
15954.232
15922.148
15909.9
15926.157
15980.56
16007.329
16318.04
16256.261