/*--------------------------------*- C++ -*----------------------------------*\
  =========                 |
  \\      /  F ield         | OpenFOAM: The Open Source CFD Toolbox
   \\    /   O peration     | Website:  https://openfoam.org
    \\  /    A nd           | Version:  6
     \\/     M anipulation  |
\*---------------------------------------------------------------------------*/
FoamFile
{
    version     2.0;
    format      ascii;
    class       pointScalarField;
    location    "1.95";
    object      p;
}
// * * * * * * * * * * * * * * * * * * * * * * * * * * * * * * * * * * * * * //

dimensions      [1 -1 -2 0 0 0 0];

internalField   nonuniform List<scalar> 
625
(
53252.883
-334783.38
280.15687
1946.7497
415718.12
-97734.821
1655.357
-313.53566
44404.209
-105346.25
-104451.5
-568.29601
-23.854965
615.21752
28629.935
32939.346
44228.7
44568.619
51910.626
49883.676
56251.018
55349.02
58874.17
55794.512
56395.494
53729.2
51065.635
47372.441
42805.212
37797.753
32369.816
26402.46
20505.578
15208.294
9772.4114
4760.3967
1706.471
-101282.8
-95082.204
-105990.33
-96806.718
-95497.689
-94895.013
-89816.832
-86084.447
-84717.952
-79485.594
-74476.271
-70238.25
-63934.218
-57643.173
-50684.441
-43122.798
-35785.76
-27849.34
-20473.816
-13838.665
-7618.7104
-3033.3942
-246.23246
308308.42
164117.61
58084.109
-28697.899
-48542.253
-48278.08
-38511.767
-49726.778
-49049.93
-41513.309
-49919.447
-54674.6
-48021.745
-52630.175
-45928.485
-46565.549
-39951.989
-37106.119
-30569.309
-26149.21
-19849.598
-14741.034
-9529.0516
-5295.4473
-2032.7723
-218.05168
1059.443
-375.05289
-1181.0011
2034.2816
6185.4155
12386.513
20609.299
29614.226
39101.021
48013.488
58583.581
66443.904
75972.228
82726.491
91268.873
94407.467
99345.183
110209.85
109621.98
112065.99
115079.08
121869.95
117965.84
124805.73
121839.67
111320.41
83404.239
162812.35
169253.13
-261513.49
-181589.19
-174240.63
1669.657
1754.7095
2443.3971
-588.3289
-973.84856
-896.09241
6659.0236
10697.689
16332.833
21033.222
19821.579
26851.148
27741.857
29988.144
27803.576
31401.247
29893.557
29787.127
27522.771
26266.543
23012.575
20806.006
17288.094
14279.626
11354.317
8800.2262
5911.867
3480.8158
1799.4992
-43026.497
-46145.72
-39766.675
-34632.925
-33573.483
-29304.425
-27743.546
-25292.382
-22405.773
-19625.738
-18717.513
-15874.525
-14055.19
-11536.695
-9670.4388
-7307.7157
-5462.1703
-3245.3778
-1861.822
-217.50085
901.45653
1202.8972
1731.4899
-85264.015
-79799.449
-76343.93
-72907.1
-71520.968
-67510.181
-65746.972
-61712.057
-58842.944
-54128.5
-51591.459
-45786.163
-42076.76
-36644.392
-32044.594
-26591.588
-21340.071
-16322.81
-11558.762
-6935.9197
-3937.912
-1185.1385
510.43186
62853.329
105912.84
124952.28
-52045.319
-2407.2124
20335.154
-61599.491
-35171.587
8431.3042
-121089.15
-92705.893
-79010.186
-113662.26
-78550.214
-62330.317
-89234.745
-65633.678
-58945.82
-92562.036
-68769.749
-56278.808
-88200.961
-65764.996
-57576.955
-85855.523
-67468.41
-58084.749
-85677.984
-68322.994
-59525.325
-83868.282
-63789.833
-58240.214
-79851.592
-64152.319
-58511.768
-76464.278
-61125.148
-57316.986
-72319.771
-59647.687
-54757.378
-67898.747
-54669.723
-51409.357
-61587.104
-51086.137
-47604.172
-55735.99
-45417.697
-42914.243
-48522.09
-40312.36
-37409.256
-41570.941
-33656.747
-31494.065
-33803.751
-27678.34
-25539.256
-26362.924
-21019.108
-19200.985
-19050.805
-15011.036
-13372.93
-12546.77
-9475.3427
-7909.0055
-6476.4444
-4501.3316
-3061.7947
-2057.7352
-1075.5629
-9.252149
145.38113
701.55728
1039.4925
-1048.9933
-1462.354
-1988.4031
-581.5077
-927.61068
-1349.1856
1738.6158
1142.6123
1301.4362
67841.784
79639.682
98922.966
66349.862
74172.089
101412.5
68161.997
80911.062
107663.4
70485.792
77226.964
105561.46
68393.347
79358.206
101490.08
74356.561
77616.592
103278.3
74682.169
78976.688
100842.14
75891.634
76869.705
98463.78
70292.511
76708.398
94115.741
74232.479
74677.651
93401.648
70735.948
70548.519
86994.14
67586.34
67320.384
83369.045
63448.354
62495.004
76781.872
58059.011
57794.829
70498.041
52358.263
51386.479
62177.701
45624.949
45281.711
54529.273
38645.381
38072.328
45597.867
31176.418
31177.207
36759.178
23860.829
23611.116
27924.425
16780.054
16390.694
19860.268
10231.395
9313.3845
12038.858
4334.1447
4158.3776
5883.5227
1179.3507
1150.5554
1603.2747
101908.91
94637.556
79828.398
79763.499
79906.378
74905.768
73909.377
72245.319
65592.796
63453.047
62021.769
55783.419
51784.026
46393.962
41971.592
35954.34
30682.798
25164.307
19697.789
14297.496
9789.9869
5491.2948
1616.0791
53722.784
56723.282
36735.555
46126.904
40512.716
39045.114
36833.793
35475.591
31192.349
32789.286
27984.301
28229.186
24400.667
24138.467
20499.184
19023.354
15991.537
13832.14
10785.521
8267.6242
5738.4838
3220.216
1291.4922
26464.179
26321.132
4375.463
4142.855
-2108.5885
-5846.5263
-11420.586
-10819.693
-11945.532
-14613.304
-14564.926
-15126.594
-14294.391
-14154.369
-12899.665
-11622.49
-9920.825
-8306.6985
-6492.6249
-4933.2776
-3194.3343
-1418.1606
-1211.9684
29748.528
69681.052
86160.68
29990.833
64713.343
80257.171
28081.188
50732.583
75861.171
25867.148
56577.925
68739.906
32892.607
51331.777
70405.728
30537.827
54052.498
70132.822
31066.241
51190.181
64899.162
28978.242
51280.145
63889.91
35239.374
50298.12
64690.145
30041.316
47300.859
57426.646
29325.683
45770.764
56143.136
28043.629
43492.756
51973.893
26400.246
40040.38
48142.186
24071.805
35930.811
43018.84
21667.754
32154.362
38667.933
19054.257
27288.239
33233.23
15850.405
23031.894
27891.912
13485.506
18187.232
22275.285
10094.401
13401.872
17256.066
7437.2236
10047.02
12360.49
4403.4639
6849.3316
7542.7395
3340.4872
4101.4148
4937.8891
1210.8339
1486.8287
1511.673
-36950.794
515.61462
27794.321
-27415.527
7546.1649
16998.866
-15441.963
2569.8901
22238.548
-18559.036
6130.7887
14687.018
-11789.582
5026.9655
21734.031
-12046.751
6405.4831
15290.803
-11353.985
4915.9487
16568.988
-8665.1121
10010.335
16686.091
-6747.1118
6637.5149
12549.972
-7040.6366
8344.1655
14487.716
-4377.0868
8045.6986
13256.78
-4057.5655
9268.0022
12298.228
-1831.3863
8279.3325
11608.321
-1887.8661
9121.7401
11405.052
10.940615
8374.3907
10684.791
34.737782
8549.4891
10117.464
1481.0783
7819.5586
9373.5467
1679.0461
7387.9738
8557.1417
2349.802
6084.7487
7734.6506
2581.0761
5997.0902
6343.5121
2249.9686
3652.4097
4690.0952
2026.9285
2820.9437
3113.0845
1718.4981
1982.4006
2222.0115
-57796.111
-32161.223
-15066.192
-52798.158
-29618.769
-16100.126
-51459.27
-44474.469
-16943.749
-56581.655
-35343.665
-18227.189
-52135.333
-40715.133
-21499.343
-52198.651
-40577.928
-22590.449
-50390.565
-39038.995
-21179.029
-48111.932
-39425.159
-29306.224
-46132.942
-40940.719
-24530.32
-45470.573
-37122.7
-26571.027
-41458.616
-36153.945
-25816.644
-39041.789
-34281.36
-25683.346
-35842.156
-31703.809
-23567.103
-32052.075
-28753.886
-22053.382
-28324.422
-25349.896
-19843.805
-23830.848
-21830.896
-17327.16
-19840.068
-18011.395
-14610.736
-15651.686
-14203.394
-11921.687
-11480.582
-10342.048
-8966.9427
-7869.1224
-6803.1206
-6481.3494
-5086.1994
-3707.7886
-4479.7153
-1883.8444
-1046.5249
-1278.3478
-735.0277
-77.781289
-733.04389
)
;

boundaryField
{
    free
    {
        type            calculated;
    }
    fixed
    {
        type            calculated;
    }
    freeTop
    {
        type            calculated;
    }
}


// ************************************************************************* //
