/*--------------------------------*- C++ -*----------------------------------*\
  =========                 |
  \\      /  F ield         | OpenFOAM: The Open Source CFD Toolbox
   \\    /   O peration     | Website:  https://openfoam.org
    \\  /    A nd           | Version:  6
     \\/     M anipulation  |
\*---------------------------------------------------------------------------*/
FoamFile
{
    version     2.0;
    format      ascii;
    class       pointVectorField;
    location    "1.67";
    object      lm;
}
// * * * * * * * * * * * * * * * * * * * * * * * * * * * * * * * * * * * * * //

dimensions      [1 -2 -1 0 0 0 0];

internalField   nonuniform List<vector> 
28033
(
(-1.780536e-14 4.8656612e-16 1.3104288e-15)
(-5.4375576e-15 3.3318594e-15 9.9433006e-16)
(5030.5239 700.41722 -39.054765)
(5123.4641 663.45016 -21.083216)
(-1.338461e-14 3.0090723e-15 -2.870051e-16)
(-1.2587315e-14 4.9008913e-15 -4.4266115e-15)
(5106.2299 714.05277 -35.986708)
(5022.3306 752.87712 -24.180709)
(-5.6329745e-15 1.0535579e-15 6.7193838e-16)
(-2.4534443e-15 3.0423504e-16 5.8836893e-16)
(-5.4923298e-15 2.4302826e-15 8.9528572e-16)
(-2.6209443e-15 -1.1537891e-15 -6.7979696e-16)
(-7.2548563e-15 1.5542294e-15 1.0013199e-15)
(-4.7613589e-15 -9.2108094e-16 -7.3952737e-16)
(-1.132389e-15 -2.2256662e-17 -6.4484848e-16)
(-7.4239857e-16 -2.4218299e-16 -3.6669977e-16)
(-1.1196198e-15 4.5550132e-16 8.383863e-16)
(-2.3465882e-16 2.2667819e-16 1.4996246e-15)
(-4.0583243e-15 -8.7236639e-16 -1.3429605e-15)
(-5.8237189e-15 8.4462789e-16 7.5519031e-16)
(-5.1611762e-15 1.0100276e-15 9.7613867e-16)
(-1.7679952e-15 -8.1010255e-16 4.5192313e-16)
(-4.4158752e-15 1.0299569e-15 -9.452958e-16)
(4922.0061 688.81781 -32.659639)
(4790.2529 673.24347 -26.54903)
(4695.9881 661.30308 -21.985915)
(4653.647 654.37211 -19.149586)
(4669.3636 654.04359 -17.221252)
(4741.2615 660.02276 -16.887626)
(4858.5988 670.81368 -17.167514)
(5003.6253 684.33054 -18.114633)
(5154.3662 697.70157 -19.97759)
(5288.2556 708.45989 -21.845671)
(5384.7182 714.34664 -23.557786)
(5429.301 714.21636 -24.957646)
(5415.4941 707.31091 -24.976095)
(5344.9406 694.77007 -24.411798)
(5233.6898 678.34694 -22.755084)
(34.159661 53.464899 49.336088)
(54.821821 77.67502 58.756627)
(82.821415 101.2981 57.463753)
(115.87734 126.293 52.211255)
(149.6238 148.94334 44.930338)
(185.12735 172.97985 38.281269)
(220.77251 195.73361 33.231286)
(255.85883 218.28163 30.635629)
(290.51977 240.13743 30.894567)
(324.3621 261.27966 34.092062)
(357.71395 281.61995 40.205995)
(390.7751 301.38902 48.468862)
(424.26681 320.27027 58.802977)
(458.87889 338.68235 69.903982)
(495.18633 356.28911 81.572191)
(534.12305 373.45597 92.425106)
(576.40185 390.11968 102.0744)
(622.62776 406.52119 109.53161)
(672.9782 422.42508 114.54346)
(728.19218 438.18792 116.41656)
(788.24714 453.86775 115.08341)
(852.75807 469.24148 110.4379)
(921.89595 484.7713 102.75973)
(994.76446 500.17193 92.33409)
(1070.9571 515.42331 79.547864)
(1149.6631 530.93002 65.337329)
(1229.9251 546.09308 50.259568)
(1311.0984 561.35984 35.1465)
(1392.1431 576.3925 20.608515)
(1472.272 591.36826 7.8133341)
(1550.9784 606.08139 -3.0201883)
(1627.5221 620.74278 -11.162218)
(1701.8187 635.15848 -16.319618)
(1773.4485 649.47928 -18.448877)
(1842.8378 663.5972 -17.237593)
(1910.1503 677.83707 -13.210962)
(1975.761 692.03753 -6.8809927)
(2040.335 706.29479 1.5371227)
(2104.6645 720.97043 11.357432)
(2169.4994 735.85035 21.564092)
(2235.7916 751.12863 31.67119)
(2304.2212 766.99211 40.80343)
(2375.5827 783.33216 48.308821)
(2450.4567 800.30098 53.60044)
(2529.3547 817.82778 56.249998)
(2612.4964 835.88279 56.008622)
(2699.9392 854.33525 52.779227)
(2791.5156 873.08723 46.686934)
(2886.8272 891.90177 38.030146)
(2985.3172 910.59231 27.275226)
(3086.2295 928.85349 15.013804)
(3188.7219 946.42559 1.9384674)
(3291.837 962.97598 -11.217494)
(3394.6251 978.21821 -23.718099)
(3496.1214 991.84184 -34.882698)
(3595.4645 1003.5886 -44.118168)
(3691.8674 1013.2226 -50.979613)
(3784.7181 1020.5738 -55.180128)
(3873.5534 1025.5065 -56.605255)
(3958.0902 1027.9918 -55.372234)
(4038.2301 1028.0289 -51.717185)
(4114.0464 1025.7068 -46.118431)
(4185.789 1021.1608 -39.131707)
(4253.6746 1014.6683 -31.327471)
(4318.2626 1006.4603 -23.774527)
(4380.1323 996.6842 -16.63527)
(4439.1542 986.0255 -11.098482)
(4496.347 974.41447 -7.2686675)
(4552.1516 962.52989 -6.4026028)
(4606.2233 950.2889 -8.0550958)
(4659.2342 938.20238 -12.657823)
(4710.9264 926.45222 -20.243298)
(4761.2695 915.10288 -30.349727)
(4809.9686 904.19314 -42.766522)
(4856.6923 893.79316 -56.89528)
(4900.9468 883.80307 -72.069301)
(4942.2577 874.17471 -87.598674)
(4980.0401 864.66892 -102.66784)
(5013.806 855.20619 -116.59142)
(5043.0327 845.59825 -128.61323)
(5067.2339 835.6311 -138.17411)
(5086.2668 825.28489 -144.91293)
(5099.8417 814.40847 -148.33443)
(5107.8883 803.04364 -148.45834)
(5110.8207 791.14848 -145.39733)
(5108.6732 778.90099 -139.31344)
(5102.2047 766.49576 -130.65927)
(5091.8257 754.08631 -120.08757)
(5078.46 742.1113 -108.02544)
(5063.0091 730.70479 -95.69229)
(5046.3633 720.36994 -82.993271)
(5029.1465 711.44342 -71.830683)
(5013.1098 703.58872 -61.196067)
(4997.6565 698.22342 -53.113872)
(4981.6811 694.21855 -45.676503)
(37.881531 -64.467245 -81.946414)
(73.342892 -96.012208 -88.342203)
(104.22539 -125.72878 -107.52222)
(134.69609 -150.13661 -113.66097)
(170.14304 -173.1191 -118.50457)
(204.92034 -194.13059 -120.22515)
(242.31136 -212.54675 -119.20018)
(280.70187 -230.38803 -116.4528)
(320.93093 -247.08891 -111.63624)
(361.84295 -263.11855 -105.87219)
(404.70321 -279.36077 -98.453736)
(448.56749 -295.52703 -90.444456)
(494.26879 -312.32843 -81.764537)
(541.73218 -329.64821 -72.679638)
(591.3507 -347.59251 -63.548008)
(643.23836 -366.12276 -54.565354)
(697.54653 -384.87909 -46.034753)
(754.52806 -403.83713 -38.217904)
(814.19162 -422.43196 -31.311562)
(876.47655 -440.28308 -25.428763)
(941.39099 -457.10679 -20.642679)
(1008.6373 -472.25337 -17.295578)
(1078.1403 -485.54536 -14.854714)
(1149.4463 -496.55188 -13.77138)
(1222.2296 -504.9676 -13.761488)
(1296.1996 -510.77526 -14.467227)
(1370.8239 -513.71885 -16.079603)
(1445.8284 -514.09491 -18.02012)
(1520.8028 -511.8946 -20.383927)
(1595.4811 -507.52354 -22.760801)
(1669.605 -501.28218 -25.049597)
(1743.0627 -493.60025 -27.104459)
(1815.7666 -484.91475 -28.735427)
(1887.7864 -475.77802 -29.892555)
(1959.193 -466.51861 -30.560153)
(2030.3122 -457.70433 -30.543657)
(2101.1745 -449.51815 -30.284917)
(2172.3495 -442.40501 -29.485878)
(2244.0528 -436.29712 -28.413929)
(2316.813 -431.43162 -27.096523)
(2390.8542 -427.60753 -25.708049)
(2466.6427 -424.69914 -24.324032)
(2544.3966 -422.38035 -23.035723)
(2624.4422 -420.3016 -21.87781)
(2706.8737 -418.00691 -20.874435)
(2791.8398 -415.03393 -19.97519)
(2879.2731 -410.8896 -19.117566)
(2969.1201 -405.11 -18.16577)
(3061.1454 -397.27064 -16.978092)
(3155.105 -387.02061 -15.361371)
(3250.6169 -374.09364 -13.133035)
(3347.2905 -358.33524 -10.094142)
(3444.6392 -339.69803 -6.0809374)
(3542.1872 -318.25512 -0.95266933)
(3639.4012 -294.18928 5.36901)
(3735.7824 -267.78205 12.909421)
(3830.8146 -239.39896 21.60874)
(3924.0307 -209.46656 31.340592)
(4014.9863 -178.44676 41.89072)
(4103.2956 -146.80957 52.980205)
(4188.6181 -115.01197 64.264745)
(4270.6847 -83.463266 75.359582)
(4349.2825 -52.512985 85.854103)
(4424.2581 -22.42176 95.330189)
(4495.5365 6.6244487 103.41629)
(4563.0527 34.572192 109.74592)
(4626.8976 61.468429 114.05051)
(4687.0185 87.298226 116.19609)
(4743.5956 112.43423 116.01593)
(4796.7724 136.95117 113.50492)
(4846.2818 161.59639 108.88035)
(4892.9271 185.85214 102.37202)
(4936.0256 210.88087 94.141859)
(4976.0618 236.38262 84.660116)
(5012.9752 262.86373 74.395995)
(5046.745 290.29735 63.72658)
(5077.3422 318.76989 53.130764)
(5104.6905 348.20816 43.007738)
(5128.7619 378.42597 33.731173)
(5149.3861 409.14961 25.572443)
(5166.5483 439.99033 18.722943)
(5180.1254 470.51371 13.25067)
(5190.1095 500.21509 9.1548891)
(5196.4895 528.57772 6.3043195)
(5199.369 555.07675 4.5137158)
(5198.8761 579.24097 3.500914)
(5195.2864 600.63854 2.9710045)
(5188.9167 618.95571 2.582076)
(5180.2185 633.97379 2.0196532)
(5169.6993 645.62499 0.99428019)
(5157.9631 653.98356 -0.72169995)
(5145.6342 659.31917 -3.2982919)
(5133.3567 662.0054 -6.728446)
(5121.712 662.73336 -11.006986)
(5119.6171 663.19094 -15.952722)
(3.2927448e-15 -1.3239155e-15 2.3845803e-16)
(2.4470133e-15 -9.6672015e-16 3.215493e-17)
(-9.0574249e-15 9.0550918e-16 6.4029168e-16)
(-1.2642219e-16 -5.721845e-16 4.4370095e-16)
(-7.6811722e-15 -4.9270561e-16 4.1193361e-16)
(-7.3893964e-15 2.7533729e-15 -1.0951501e-15)
(-3.2915852e-15 -8.1743692e-16 3.8364228e-16)
(-1.9032499e-15 5.3200654e-16 -8.2319016e-17)
(-4.7409759e-15 -4.8623412e-16 4.3918642e-16)
(-1.2869644e-14 1.1845665e-15 6.4228907e-16)
(-9.6157521e-15 1.4157374e-15 5.9836601e-16)
(-9.4077204e-15 4.9518432e-16 1.1192419e-15)
(-5.982767e-15 2.6210694e-16 3.0473736e-16)
(-1.1478475e-14 -5.3386198e-16 1.6580808e-15)
(-5.257323e-15 3.6289085e-16 2.8600704e-16)
(42.564689 -25.301695 49.812967)
(70.880653 -87.721141 60.192403)
(99.291727 -99.390942 54.3363)
(138.87557 -137.51698 54.142945)
(174.41873 -154.68855 46.242114)
(212.8383 -182.36834 40.536662)
(251.92317 -202.67044 36.257535)
(289.53117 -225.15969 33.494094)
(329.06173 -245.31522 34.1913)
(366.0251 -264.58106 36.959767)
(403.44345 -281.35788 41.859402)
(442.67025 -300.23327 49.497447)
(480.09718 -313.95522 57.872939)
(521.29359 -330.48897 67.584642)
(561.91479 -341.80059 77.08263)
(606.768 -354.501 85.79779)
(655.02486 -366.24338 93.545317)
(705.13329 -373.78774 99.463947)
(761.2078 -382.91033 102.33668)
(819.74491 -388.01264 103.16757)
(883.92222 -392.99932 100.49237)
(951.92986 -396.25437 95.032536)
(1023.4165 -397.976 87.22724)
(1098.2953 -397.87075 76.73609)
(1176.2931 -396.77335 64.422623)
(1256.5967 -394.58802 51.086768)
(1337.3304 -390.12381 36.713784)
(1420.2903 -386.77595 22.725623)
(1500.8064 -380.54849 9.597339)
(1582.4941 -375.47389 -2.317013)
(1662.3916 -369.5928 -11.966533)
(1740.215 -363.44599 -19.308188)
(1816.1578 -357.58322 -23.870777)
(1890.037 -351.68262 -25.609859)
(1963.8146 -346.21957 -24.97371)
(2029.0675 -340.96157 -20.970631)
(2100.6155 -336.00244 -15.321394)
(2168.97 -331.40597 -7.9323467)
(2237.1669 -327.09574 0.5128452)
(2306.1114 -322.76943 9.3859477)
(2376.5423 -318.48354 18.019885)
(2449.1194 -313.89596 25.731151)
(2524.5 -308.95367 31.984559)
(2603.1509 -303.33391 36.253726)
(2685.4415 -296.94372 38.234879)
(2771.52 -289.49799 37.688182)
(2861.3875 -280.90856 34.619345)
(2954.8141 -270.95532 29.124945)
(3051.4223 -259.57919 21.518023)
(3150.64 -246.6447 12.193671)
(3251.7844 -232.13569 1.6960658)
(3354.0463 -215.99685 -9.397034)
(3456.5774 -198.25719 -20.44437)
(3558.4837 -178.92639 -30.840796)
(3658.9163 -158.0653 -40.012155)
(3757.0653 -135.72768 -47.483549)
(3852.2324 -111.9908 -52.891157)
(3943.8334 -86.932688 -56.015418)
(4031.4331 -60.634091 -56.794878)
(4114.7543 -33.187519 -55.320574)
(4193.676 -4.6719684 -51.851553)
(4268.2365 24.808957 -46.771476)
(4338.6136 55.171726 -40.593069)
(4405.0836 86.300526 -33.8982)
(4468.0621 118.09963 -27.328839)
(4527.9356 150.43059 -21.513038)
(4585.1922 183.1574 -17.190782)
(4642.5233 216.64648 -14.395848)
(4691.685 248.59449 -14.715684)
(4745.4076 282.53859 -16.395608)
(4796.0279 315.09814 -21.876961)
(4845.4287 347.55789 -29.396575)
(4893.4166 379.39533 -39.562898)
(4940.044 410.43738 -51.770746)
(4984.8571 440.50994 -65.421107)
(5027.4114 469.45829 -79.973467)
(5067.2373 497.11946 -94.696261)
(5103.7414 523.34904 -108.8416)
(5136.3375 548.01803 -121.69345)
(5164.4834 571.04269 -132.59152)
(5187.679 592.3283 -140.96357)
(5205.5608 611.82868 -146.37944)
(5217.8751 629.50734 -148.57378)
(5224.584 645.34864 -147.45398)
(5225.7928 659.36055 -143.12783)
(5221.8529 671.56431 -135.88043)
(5213.2755 681.99442 -126.17339)
(5200.7824 690.7104 -114.61262)
(5185.2286 697.76693 -101.90899)
(5167.5995 703.26269 -88.845276)
(5148.9255 707.26856 -76.196677)
(5130.2583 709.92161 -64.685677)
(5112.4858 711.30907 -54.909109)
(5096.433 711.50509 -47.081127)
(5074.0699 709.66245 -41.315644)
(5229.815 726.72656 -32.859916)
(5350.8132 741.4257 -30.323326)
(5404.8473 748.028 -28.323013)
(5414.7604 751.30718 -26.940091)
(5368.1407 748.06067 -26.561306)
(5262.9936 738.84009 -26.267099)
(5134.3657 726.60548 -26.949658)
(4997.8323 714.15562 -27.575798)
(4834.6023 697.49112 -28.054049)
(4714.057 686.83889 -28.803102)
(4660.0333 684.92815 -29.643551)
(4651.3146 688.6618 -29.770589)
(4696.0887 699.57242 -29.86189)
(4800.9185 717.79662 -28.926111)
(4950.5074 741.33408 -26.858534)
(4984.3207 747.02768 -17.984559)
(5001.8163 750.31783 -12.460211)
(5013.043 754.00831 -7.4939509)
(5024.3963 760.16328 -3.1255185)
(5034.9369 768.90382 -0.1556274)
(5044.2497 780.48136 2.1961606)
(5051.5185 794.80002 3.6976577)
(5056.2066 811.70645 4.7127151)
(5057.9484 830.90851 5.5677325)
(5056.419 852.03996 6.5235375)
(5051.4856 874.56564 8.0375806)
(5043.0785 898.1056 10.317021)
(5031.2864 921.983 13.712471)
(5016.0824 945.79338 18.273499)
(4997.5553 968.93524 24.183911)
(4976.0383 990.96964 31.423383)
(4951.6362 1011.5532 39.958878)
(4924.5665 1030.3561 49.606201)
(4894.9067 1047.1564 60.05023)
(4862.7508 1061.8639 70.955157)
(4828.1039 1074.427 81.904044)
(4790.921 1084.9453 92.470635)
(4751.1043 1093.5411 102.17941)
(4708.438 1100.4943 110.70365)
(4663.0046 1105.9375 117.57757)
(4613.9267 1110.2546 122.65389)
(4564.1757 1114.3413 125.31206)
(4503.4946 1117.3966 125.62704)
(4446.4483 1119.0306 124.8327)
(4382.3708 1121.9218 121.19051)
(4314.7748 1124.2572 116.00036)
(4243.1696 1126.6025 109.11963)
(4167.6226 1128.9338 101.15065)
(4088.2741 1131.0336 92.340675)
(4005.3816 1132.7249 83.114645)
(3919.2155 1133.7313 73.832426)
(3830.1369 1133.7522 64.816975)
(3738.5667 1132.4575 56.341181)
(3644.9732 1129.5237 48.611878)
(3549.8579 1124.6586 41.75425)
(3453.7534 1117.6113 35.826802)
(3357.1935 1108.213 30.805948)
(3260.7105 1096.3656 26.612503)
(3164.8087 1082.0854 23.106843)
(3069.96 1065.4717 20.123561)
(2976.5754 1046.7442 17.464365)
(2885.0138 1026.1942 14.948319)
(2795.5423 1004.2146 12.385847)
(2708.3699 981.23686 9.6466623)
(2623.5975 957.73784 6.6198287)
(2541.2494 934.23127 3.238379)
(2461.2944 911.13614 -0.44447876)
(2383.5523 888.93378 -4.459804)
(2307.873 867.96574 -8.6692772)
(2234.05 848.50582 -12.839865)
(2161.6519 830.79492 -16.975697)
(2090.338 814.84236 -20.753008)
(2024.6286 802.35542 -23.996388)
(1948.68 786.59185 -26.609265)
(1880.9804 776.21825 -28.444541)
(1815.1034 766.87301 -29.532052)
(1740.5868 754.56371 -29.78716)
(1672.2599 745.39058 -28.767686)
(1602.0873 734.96889 -27.416088)
(1533.6545 723.89166 -25.185778)
(1460.0982 710.65123 -22.720508)
(1391.6676 696.66697 -19.729672)
(1319.0103 680.37924 -16.992763)
(1249.416 662.03553 -14.391278)
(1180.0494 641.7191 -12.229757)
(1111.7586 619.31084 -10.77051)
(1044.6177 594.88977 -10.677261)
(979.31335 569.87801 -11.26583)
(915.597 542.06224 -13.203258)
(853.85746 514.01984 -16.715425)
(795.46105 486.5508 -21.068584)
(737.62317 457.49277 -27.149049)
(684.4957 430.40935 -33.799081)
(631.15614 403.07196 -41.721929)
(582.25607 377.63328 -50.453036)
(535.05599 353.34932 -59.462054)
(488.70395 330.51484 -68.551788)
(444.06642 309.19318 -77.965526)
(402.73451 289.29915 -86.99562)
(360.97723 271.43358 -95.322964)
(320.65048 253.02258 -102.48598)
(282.62819 236.2355 -109.34811)
(245.06037 219.72254 -114.10135)
(208.43095 202.57976 -117.52214)
(173.84296 183.67272 -118.34891)
(141.51596 164.05888 -116.94862)
(112.82078 142.89658 -112.0971)
(85.831357 123.75468 -103.84522)
(62.826989 92.973029 -82.055523)
(61.817227 67.357196 -48.735601)
(-6.8708141e-15 1.5083581e-15 1.9262289e-16)
(-1.2504183e-14 5.7375616e-16 8.4327435e-16)
(-8.3449101e-15 1.4891922e-15 5.3018253e-16)
(-4.9731758e-15 1.4991158e-15 6.2376313e-16)
(-3.4146159e-15 1.5624416e-15 3.1576894e-17)
(2.0582335e-15 9.3962624e-16 -5.746342e-16)
(2.2101935e-15 3.7457559e-17 -1.1841335e-16)
(2.4553765e-15 -8.5141669e-16 -9.3419562e-16)
(1.2987427e-15 1.0081898e-16 1.7950851e-15)
(-4.5074861e-15 9.063971e-16 1.0710522e-15)
(-5.2682467e-15 2.1856155e-15 1.0652666e-15)
(-7.4917339e-15 1.915055e-15 2.2418828e-16)
(-9.400838e-15 1.3708275e-15 6.2833768e-16)
(-6.2048683e-15 1.3247981e-15 5.4317906e-16)
(-6.971104e-15 1.5128103e-15 7.5678131e-16)
(-1.2693866e-14 6.2923345e-15 -2.1364834e-15)
(-5.2452578e-15 2.6791924e-15 -5.3037742e-16)
(-1.0752404e-15 9.8318743e-16 -1.0111087e-16)
(-2.7353382e-15 1.7746034e-15 7.3085398e-17)
(1.0178949e-15 -1.5450237e-16 -4.119182e-16)
(-1.4303492e-15 4.136346e-16 -3.3264033e-16)
(-1.0059749e-14 4.7133437e-15 -1.6449855e-15)
(2.9801421e-15 -1.9180379e-15 -8.3172098e-16)
(-4.79756e-15 2.8035442e-15 1.1420498e-15)
(-5.4778068e-15 3.5047253e-15 -3.934403e-16)
(-1.8117877e-15 1.1581936e-15 -9.1309836e-16)
(-3.9812639e-16 4.7407236e-16 -2.2932148e-16)
(-1.5272242e-15 1.100363e-15 -2.2557932e-16)
(-4.1024849e-15 1.9838802e-15 2.8069696e-17)
(-5.3424143e-16 2.551799e-16 -1.9455919e-16)
(5121.9825 667.9699 -20.547097)
(5119.691 671.67856 -21.206461)
(5116.8937 675.83002 -23.063337)
(5113.1123 680.63116 -25.599127)
(5108.8667 686.10171 -28.755989)
(5104.303 692.21603 -32.002524)
(5099.8443 698.7004 -35.149159)
(5095.893 705.18709 -37.831764)
(5092.7326 711.28569 -39.887935)
(5090.6697 716.59122 -41.11318)
(5089.9813 720.62091 -41.43255)
(5090.7109 723.06798 -40.943105)
(5092.9747 723.75376 -39.6914)
(5096.4028 721.99753 -38.245048)
(5101.3151 719.05653 -36.283515)
(5026.3443 692.40426 -39.835681)
(5022.056 686.12358 -41.263535)
(5018.0455 682.0865 -42.588411)
(5014.7236 680.6658 -43.559134)
(5011.934 681.62339 -43.922171)
(5010.1339 684.90649 -43.470986)
(5009.2882 690.11275 -42.236983)
(5009.3599 696.7984 -40.281458)
(5010.2664 704.43554 -37.744047)
(5011.8084 712.5078 -34.827645)
(5013.7989 720.49987 -31.792442)
(5015.9468 728.0615 -28.947967)
(5018.0102 734.79398 -26.504445)
(5019.7164 740.79315 -24.863392)
(5021.0093 746.35949 -24.068355)
(18.941654 34.07332 44.294582)
(42.345037 48.852118 43.489746)
(68.232829 70.128218 45.748195)
(100.47242 90.132711 39.847832)
(131.72431 110.0483 35.566967)
(166.62856 131.28406 29.355874)
(200.52322 151.99514 25.542617)
(235.60234 173.47432 22.859802)
(269.2987 193.98865 22.992916)
(303.13015 214.64498 25.248655)
(336.20195 234.08553 30.031345)
(369.39084 253.27801 36.933509)
(402.75729 270.90187 45.533347)
(437.22248 288.05658 55.314671)
(473.32941 303.8198 65.640172)
(511.8978 318.92856 75.733325)
(553.51272 332.91988 84.990089)
(598.93808 346.32767 92.841328)
(648.75937 359.26192 98.642216)
(703.21543 371.73875 101.86651)
(762.70916 384.14452 102.43372)
(827.04706 396.56741 100.00768)
(896.31053 409.35303 94.739784)
(969.8171 422.46766 86.846334)
(1047.2869 436.15113 76.614493)
(1127.8123 450.53779 64.610988)
(1210.6862 465.53511 51.481295)
(1294.8846 481.22238 37.838114)
(1379.6813 497.46639 24.525655)
(1464.0763 514.36024 12.160572)
(1547.3398 531.45349 1.4196757)
(1628.8328 548.88245 -7.0783704)
(1708.1668 566.3326 -12.998209)
(1785.0356 583.68638 -16.103367)
(1859.5002 600.76245 -16.203754)
(1931.6693 617.57001 -13.513351)
(2002.0581 633.84383 -8.4957527)
(2071.2668 649.68867 -1.3266695)
(2140.0196 665.16818 7.1946797)
(2209.1567 680.06481 16.471924)
(2279.6724 694.76854 25.719013)
(2352.3724 709.28829 34.317733)
(2428.0885 723.68053 41.334431)
(2507.3924 738.19676 46.446678)
(2590.8982 753.00323 49.065225)
(2678.8035 768.15491 48.998896)
(2771.1278 783.77479 46.12022)
(2867.6306 799.87446 40.570366)
(2967.8287 816.42851 32.639073)
(3071.0278 833.32413 22.800043)
(3176.346 850.38986 11.637961)
(3282.7892 867.37745 -0.15811065)
(3389.2693 883.99265 -11.881782)
(3494.7126 899.89205 -22.826501)
(3598.0636 914.71174 -32.360252)
(3698.3931 928.08749 -39.956512)
(3794.8904 939.67348 -45.242028)
(3886.9511 949.16349 -47.997949)
(3974.1343 956.30992 -48.213379)
(4056.2395 960.95812 -46.042803)
(4133.2232 963.00469 -41.815827)
(4205.2728 962.48381 -35.989762)
(4272.6599 959.4545 -29.177714)
(4335.7516 954.25937 -22.02061)
(4395.2172 946.87153 -15.163642)
(4451.3308 937.86552 -9.2442752)
(4504.4316 927.64067 -4.9815687)
(4555.5517 916.301 -2.6546614)
(4604.598 904.80608 -2.7633586)
(4651.7371 892.83465 -5.3442196)
(4697.3681 881.18801 -10.745036)
(4741.2258 869.96559 -18.458505)
(4783.3796 859.32245 -28.396966)
(4823.4753 849.40961 -40.144651)
(4861.2083 840.33492 -53.125207)
(4896.1579 831.99037 -66.774081)
(4927.904 824.3273 -80.4152)
(4955.9994 817.18731 -93.407603)
(4980.0086 810.38207 -105.12619)
(4999.5833 803.72756 -115.04105)
(5014.445 796.97437 -122.68857)
(5024.4859 789.9852 -127.75688)
(5029.5923 782.6213 -130.05139)
(5029.9233 774.77271 -129.55035)
(5025.831 766.42164 -126.34594)
(5017.4871 757.44694 -120.72405)
(5005.6765 748.02008 -113.11407)
(4990.9079 738.28103 -103.91054)
(4973.9498 728.36472 -93.719218)
(4955.9114 718.68895 -83.096532)
(4937.1099 709.25625 -72.598617)
(4918.9411 700.81476 -62.780453)
(4901.8998 693.18756 -53.786625)
(4886.1367 687.20643 -46.265199)
(4880.2565 684.21084 -39.319611)
(9.5816265 26.359 31.779245)
(29.13988 27.84969 35.432696)
(57.773193 48.667985 33.928422)
(85.102854 61.615118 31.407625)
(117.01133 79.928951 26.223573)
(149.0064 97.556052 21.379907)
(182.92198 116.72655 17.541132)
(216.07376 135.7775 15.280143)
(250.02386 154.91634 15.052352)
(283.3532 173.84181 16.616192)
(316.77848 192.15936 20.675781)
(350.13396 209.78768 26.248715)
(384.04486 226.43778 33.839596)
(419.02095 242.04051 42.226391)
(455.53729 256.50968 51.649912)
(494.44994 269.8568 60.884985)
(536.31866 282.18214 69.942333)
(581.93544 293.62017 77.690363)
(631.69396 304.27834 84.06776)
(686.26172 314.48924 88.246134)
(745.74614 324.48291 90.197582)
(810.42407 334.55962 89.460443)
(880.10638 344.96194 86.197988)
(954.55159 355.98551 80.310431)
(1033.3048 367.8295 72.211186)
(1115.7088 380.70132 62.174939)
(1200.965 394.62219 50.796045)
(1288.208 409.77823 38.654123)
(1376.5072 425.97326 26.408719)
(1464.9437 443.20786 14.761569)
(1552.6709 461.26122 4.3257899)
(1638.9846 479.94365 -4.2743789)
(1723.2964 498.94585 -10.644032)
(1805.301 518.02614 -14.407596)
(1884.8475 536.91696 -15.498572)
(1962.0507 555.34845 -13.83397)
(2037.4072 573.11538 -9.8224347)
(2111.3599 590.12194 -3.7511308)
(2184.6732 606.19721 3.8183364)
(2258.2215 621.42128 12.279747)
(2332.9667 635.75282 20.805281)
(2409.8136 649.58089 28.896829)
(2489.5715 662.75209 35.625645)
(2572.9432 675.77523 40.490772)
(2660.4208 688.8268 43.129854)
(2752.287 702.12183 43.242734)
(2848.4741 715.90664 40.70946)
(2948.7125 730.32878 35.67647)
(3052.4244 745.46611 28.424619)
(3158.8217 761.30124 19.437977)
(3266.9182 777.71875 9.2878977)
(3375.6094 794.50586 -1.3345009)
(3483.7134 811.3611 -11.75527)
(3590.0725 827.90976 -21.281086)
(3693.5739 843.73302 -29.339309)
(3793.2558 858.39182 -35.445222)
(3888.3062 871.44937 -39.289075)
(3978.1299 882.51735 -40.728874)
(4062.3424 891.26441 -39.811467)
(4140.7844 897.45369 -36.760142)
(4213.4901 900.93618 -31.942428)
(4280.7055 901.69008 -25.86049)
(4342.7254 899.82158 -19.180225)
(4400.1213 895.50156 -12.32888)
(4453.3112 888.94194 -6.2881605)
(4502.7235 880.60576 -1.1401267)
(4550.5446 871.43693 1.8729458)
(4596.0185 861.39094 3.1262561)
(4638.4619 850.21833 2.1267452)
(4678.8304 838.90098 -1.4271082)
(4717.2145 827.85379 -7.3461339)
(4753.5669 817.42359 -15.397927)
(4787.8432 807.6989 -25.304354)
(4819.7394 798.96737 -36.576406)
(4849.0086 791.23181 -48.735108)
(4875.342 784.4554 -61.192574)
(4898.3545 778.61464 -73.376731)
(4917.7196 773.48321 -84.721013)
(4933.1227 768.89457 -94.718717)
(4944.3617 764.64605 -102.95324)
(4951.2346 760.40094 -109.05866)
(4953.7751 756.11674 -112.90207)
(4951.9719 751.37492 -114.2488)
(4934.9172 744.48549 -112.98821)
(4918.7589 737.31998 -109.616)
(4905.6229 730.84332 -104.40155)
(4889.8912 723.67387 -97.574042)
(4872.1952 716.04679 -89.570441)
(4853.1676 708.07946 -80.742954)
(4833.8311 699.95694 -71.753074)
(4814.5747 692.06596 -62.67842)
(4796.3253 684.73333 -54.397862)
(4780.0335 678.05201 -46.448914)
(4765.2141 672.88387 -39.763071)
(4759.7677 670.32213 -33.227823)
(5.4076453 16.393869 24.884782)
(24.537636 18.664574 24.938197)
(46.963434 31.662576 24.869422)
(75.236642 43.246142 21.043603)
(104.75133 56.843454 16.617343)
(137.06564 72.577081 11.756291)
(169.38652 88.233 8.7094401)
(203.12671 105.11026 6.4416012)
(236.59276 121.45456 6.057664)
(270.32896 138.57633 7.6172829)
(304.16724 154.51637 10.956972)
(338.2393 170.526 16.175163)
(373.03606 185.09948 22.756522)
(408.80825 199.14586 30.701149)
(446.34944 211.77243 39.260173)
(486.10826 223.44371 48.16174)
(528.89112 233.94355 56.740414)
(575.16727 243.47942 64.554744)
(625.69489 252.28569 71.099663)
(680.80872 260.4591 75.888234)
(740.97546 268.45928 78.673098)
(806.23986 276.41761 79.070237)
(876.69027 284.81283 77.120166)
(952.02165 293.84718 72.719547)
(1031.9042 303.85661 66.177211)
(1115.6652 315.0335 57.663272)
(1202.641 327.57806 47.758905)
(1291.8906 341.52996 36.874488)
(1382.5672 356.88912 25.735495)
(1473.6622 373.5699 14.866852)
(1564.3694 391.35813 4.9781502)
(1653.8491 410.02538 -3.4143452)
(1741.51 429.26546 -9.8272933)
(1826.9299 448.69744 -13.911937)
(1909.98 468.01365 -15.499141)
(1990.6002 486.88949 -14.581624)
(2069.2402 504.95994 -11.359876)
(2146.3629 522.06998 -6.1055911)
(2222.7593 538.17798 0.58790786)
(2299.2554 553.01981 8.1565547)
(2376.7092 566.87292 16.016561)
(2456.1253 579.7035 23.412394)
(2538.2799 591.86341 29.725886)
(2623.9371 603.58394 34.29521)
(2713.5274 615.28736 36.829675)
(2807.2971 627.18045 37.055245)
(2905.2094 639.63569 34.844819)
(3006.9306 652.86763 30.345863)
(3111.8481 667.03605 23.839439)
(3219.1276 682.16986 15.78527)
(3327.7315 698.20738 6.7480813)
(3436.5113 714.93981 -2.6234537)
(3544.2482 732.07415 -11.680109)
(3649.7572 749.20923 -19.781563)
(3751.9123 765.89802 -26.403766)
(3849.7551 781.64559 -31.110241)
(3942.4795 795.97417 -33.657815)
(4029.5262 808.44092 -33.946997)
(4110.5323 818.66375 -32.078415)
(4185.3848 826.36823 -28.297026)
(4254.158 831.37758 -23.00761)
(4317.1094 833.66227 -16.732356)
(4374.6186 833.27378 -10.034605)
(4427.2637 830.40943 -3.4608337)
(4475.342 825.37336 2.1474772)
(4519.8641 818.55168 6.8537903)
(4560.2044 810.16493 8.9591452)
(4607.7407 801.91249 10.51611)
(4642.7475 792.53162 8.5403783)
(4676.7925 782.95723 4.7677888)
(4708.8107 773.96295 -1.4073293)
(4738.4564 765.50384 -9.4301551)
(4765.9031 757.85422 -18.99074)
(4790.9382 751.1803 -29.75102)
(4813.3577 745.54469 -41.173449)
(4832.8226 740.90465 -52.711086)
(4849.137 737.13356 -63.839216)
(4862.0087 734.08426 -74.070077)
(4871.2395 731.54139 -82.964779)
(4876.6975 729.28158 -90.173378)
(4878.3144 727.05914 -95.411766)
(4876.1391 724.66527 -98.587914)
(4870.3797 721.88291 -99.541626)
(4861.1638 718.55698 -98.553733)
(4833.0084 712.64014 -94.983039)
(4818.1499 707.97381 -90.370301)
(4801.5965 702.74792 -84.33332)
(4783.63 696.94534 -77.394224)
(4765.0112 690.66238 -69.766703)
(4746.6097 684.27295 -62.042993)
(4728.667 677.76895 -54.259305)
(4712.3182 671.89334 -47.096151)
(4698.1282 666.4366 -40.244199)
(4685.7834 662.33352 -34.176051)
(4681.3364 660.40958 -28.356312)
(3.9544311 12.190252 16.358572)
(20.063434 11.178817 16.734175)
(43.03767 20.946679 14.14759)
(68.693693 28.791182 11.288597)
(98.658971 39.682888 6.7122082)
(129.3356 52.064602 2.8123957)
(162.56297 65.486297 -0.1743275)
(195.77464 79.338307 -2.2718835)
(229.9536 93.83344 -2.224499)
(264.29157 108.19321 -1.0141692)
(299.05363 122.315 2.4572006)
(334.22141 135.83341 7.0355951)
(370.21174 148.63647 13.528509)
(407.43258 160.46014 20.728729)
(446.33512 171.12533 28.981806)
(487.64138 180.77981 37.247239)
(531.79314 189.23319 45.617864)
(579.62647 196.78354 53.075021)
(631.46076 203.43094 59.643809)
(687.96043 209.57972 64.499501)
(749.26413 215.38614 67.651572)
(815.72466 221.31598 68.564632)
(887.16415 227.5826 67.388381)
(963.53211 234.65543 63.891346)
(1044.3042 242.70323 58.411301)
(1129.0083 252.12363 51.056071)
(1216.8403 262.95565 42.354918)
(1307.0366 275.45004 32.663492)
(1398.5956 289.457 22.632373)
(1490.6927 305.03091 12.784009)
(1582.3792 321.84669 3.7223594)
(1672.9174 339.76008 -4.0343607)
(1761.6791 358.30272 -10.034069)
(1848.2468 377.22578 -13.96047)
(1932.4297 396.02343 -15.61815)
(2014.2155 414.41169 -15.029302)
(2094.1154 431.9796 -12.316988)
(2172.4034 448.51184 -7.7246795)
(2249.7517 463.68978 -1.8544792)
(2327.0838 477.86606 5.0615623)
(2405.3516 490.71706 12.038242)
(2485.3314 502.58919 18.727054)
(2567.8843 513.64321 24.385281)
(2653.6869 524.24483 28.5886)
(2743.1484 534.77071 30.93074)
(2836.5017 545.55463 31.207983)
(2933.6922 556.96647 29.315805)
(3034.3785 569.28908 25.412616)
(3137.9608 582.71306 19.74687)
(3243.6119 597.31754 12.766953)
(3350.3194 613.05845 4.9827717)
(3456.9607 629.75426 -3.0010214)
(3562.3552 647.12027 -10.600747)
(3665.3507 664.75682 -17.236344)
(3764.8658 682.20591 -22.447269)
(3859.9718 698.96019 -25.855737)
(3949.9031 714.52227 -27.272232)
(4034.1224 728.41921 -26.632803)
(4112.2919 740.24469 -24.063147)
(4184.3124 749.70156 -19.826032)
(4250.2599 756.58631 -14.322068)
(4310.3842 760.82675 -8.043812)
(4365.1537 762.47971 -1.4900162)
(4414.8421 761.74242 4.6316335)
(4460.3706 758.84163 10.053969)
(4501.6749 754.14873 13.903948)
(4540.0863 748.06056 16.331682)
(4575.1119 741.29524 16.483886)
(4607.8841 733.97569 14.495538)
(4638.2524 726.544 10.52148)
(4666.3919 719.36636 4.5174731)
(4692.5267 713.00502 -3.098051)
(4716.6708 707.48234 -12.190205)
(4738.4111 702.95404 -22.352821)
(4757.5736 699.49448 -32.926524)
(4774.0771 697.04961 -43.575456)
(4787.7226 695.55357 -53.764736)
(4798.2826 694.7974 -63.08532)
(4805.6282 694.60975 -71.138385)
(4809.6484 694.72155 -77.641836)
(4810.3278 694.89785 -82.375784)
(4807.76 694.92418 -85.219795)
(4802.0305 694.50929 -86.153994)
(4793.5491 693.63754 -85.257271)
(4782.5394 692.06527 -82.59709)
(4769.4491 689.6586 -78.59214)
(4754.8098 686.46024 -73.407283)