/*--------------------------------*- C++ -*----------------------------------*\
  =========                 |
  \\      /  F ield         | OpenFOAM: The Open Source CFD Toolbox
   \\    /   O peration     | Website:  https://openfoam.org
    \\  /    A nd           | Version:  6
     \\/     M anipulation  |
\*---------------------------------------------------------------------------*/
FoamFile
{
    version     2.0;
    format      ascii;
    class       pointScalarField;
    location    "1.29";
    object      p;
}
// * * * * * * * * * * * * * * * * * * * * * * * * * * * * * * * * * * * * * //

dimensions      [1 -1 -2 0 0 0 0];

internalField   nonuniform List<scalar> 
3969
(
-1334383.7
2003039.7
-43.154118
-577.20835
-2635802.6
3809107.9
-447.91567
372.59499
-1078815.9
-733665.89
-353203.41
10615.016
292523.04
699911.55
727436.8
658.04546
1265.2352
1136.535
296.8031
-575.57021
-1100.1058
-951.50171
-366021.71
-428572.72
-405932.9
-426491.58
-404848.76
-403084.91
-379179.84
-365122.69
-343878.37
-323239.8
-305317.68
-286951.34
-270154.79
-253397.62
-237360.4
-220681.35
-206512.49
-191621.06
-178505.91
-164898.29
-152902.94
-140997.38
-129739.52
-119578.1
-109204.49
-99879.484
-90956.599
-82688.215
-74897.739
-67352.639
-60346.457
-53715.215
-47444.073
-41591.281
-35972.768
-31012.331
-26035.346
-21619.88
-17382.287
-13715.467
-10408.872
-7560.7059
-4996.8115
-2901.1736
-1494.2052
28.456103
27.915136
475379.77
415912.13
454345.36
409759
440263.84
398983.89
401551.34
372431
362488.65
338158.37
322700.05
304719.33
285612.59
269787.84
251763.22
235508.48
220723.2
204603.55
191791.47
178181.59
165092.72
154865.06
143098.12
133514.28
123694.89
114593.78
105952.28
97942.219
90626.534
83211.78
77212.031
70332.868
64516.734
58375.011
52625.767
46951.955
41573.695
35889.284
30694.156
25391.809
20509.104
16035.12
11879.679
8200.3238
4859.6432
2247.229
499.76908
-1854861.9
-1367374
-530901.97
102804.51
667781.18
1303237.5
1077352.4
519201.58
607553
376564.35
513844.77
442245.07
449292.67
419513.56
405336.46
378384.77
353165.32
348905.26
318553.78
310153.03
288302
270358.03
254460.16
234033.4
218757.39
201662.08
185593.23
171705.13
158151.3
145464.81
133596.57
122766.25
113452.89
103559.92
92839.657
84905.61
76514.843
68511.679
61249.241
54248.499
47725.392
41845.247
36361.978
29464.495
25955.346
21213.234
17073.489
13310.488
10111.387
7100.3438
4612.7987
2572.4587
919.50994
-349.21317
-1562.4102
-858.14536
-999.9888
717.1904
923.2569
1229.9905
865.27968
-363.92869
-1094.4753
-3216.8103
-6244.7249
-9758.6411
-13810.745
-18386.969
-23145.75
-28305.786
-33623.037
-38806.037
-45879.211
-51074.968
-57470.628
-63753.614
-70141.453
-76892.208
-83957.929
-91004.481
-98779.879
-106908.86
-115227.37
-124649.12
-134627.27
-145186.79
-156803.51
-168686.62
-181074.8
-194867.44
-208474.24
-223903.46
-235889.37
-248735.77
-272134.68
-300177.07
-299754.47
-328876.81
-336773.86
-352837.43
-388292.27
-411405.68
-403643.65
-441247.29
-433808.36
-409481.43
-463083.79
-468615.64
-1098518.7
-1242106.3
-1309691.8
-1302791.4
-1272317.3
-1244521.6
-952355.43
1649706
2017919.5
2285039.2
2430813.9
2291743.2
2313137.9
1879940.7
-474.30092
-486.00759
-563.58918
-497.47812
-308.03101
211.80853
-148.36869
-362.59349
-125.44921
136.19339
419.60369
592.20042
410.76153
410.17307
-317110.43
-328763.99
-327793.55
-324930.87
-321132.7
-309033.8
-296282.99
-285727.13
-266545.34
-257582.45
-240415.76
-224860.18
-213443.38
-198638.98
-185918.66
-173650.05
-162432.5
-150748.78
-139599.64
-129252.08
-119434.5
-109657.96
-100771.51
-92285.576
-84555.874
-76671.763
-69470.793
-62998.713
-56451.688
-50497.981
-44859.196
-39491.65
-34593.996
-29856.052
-25678.769
-21659.287
-18095.287
-14649.547
-11938.909
-9387.6693
-7117.1491
-5285.6453
-3684.883
-2486.7271
-1548.1829
-475.70502
-23.437926
-201475.15
-198936.78
-194057.55
-207465.25
-203148.83
-207652.22
-195622.08
-187878.23
-177858.76
-168673.91
-158043.02
-149244.77
-139105.46
-130015.16
-122567.46
-113919.46
-106465.8
-98303.681
-91202.484
-84035.727
-76823.777
-70079.528
-63653.795
-57890.983
-52192.55
-47241.245
-42726.578
-37904.514
-33968.604
-29990.961
-26246.539
-22894.666
-19605.15
-16743.912
-14031.071
-11610.885
-9387.9699
-7578.598
-6088.2219
-4682.9207
-3479.7208
-2687.447
-1857.4403
-1319.67
-1034.5393
-74.916065
-191.11246
-88325.916
-103005.76
-88740.107
-99478.008
-93610.031
-98735.585
-92071.438
-92142.584
-85426.375
-79849.113
-76704.672
-70273.874
-66246.392
-59786.538
-54668.061
-50766.244
-46812.662
-43182.909
-39808.336
-36346.683
-33625.072
-30885.155
-27767.351
-24816.178
-22148.053
-19482.574
-17035.73
-14850.798
-12736.473
-10728.596
-8770.632
-7037.8021
-5397.0277
-3985.182
-2750.7842
-1638.9036
-845.78445
-42.057005
586.02032
810.53072
906.4262
811.80165
752.70739
416.86081
202.37932
350.7915
-145.1036
10257.04
9604.7314
23488.778
10031.574
19512.306
12738.129
20573.39
16001.17
17604.411
12564.306
16049.851
12315.832
14458.175
12005.637
11648.945
10496.449
10618.426
9936.366
10012.45
10332.447
10252.946
11382.19
12998.298
13046.736
13085.593
13057.272
12990.28
12704.411
12666.137
12465.76
12353.358
12009.273
11798.083
11327.92
10810.643
10172.132
9337.7419
8458.198
7131.7691
5825.3876
4851.3075
3748.1227
2842.2422
1846.0545
1130.1228
623.53903
-153.53857
136604.98
120526.36
128996.27
125498.96
129846.69
124155.88
121516.36
116608.3
112140.11
104459.12
100756.4
92374.105
90107.697
81814.551
78634.983
72586.998
68807.19
64203.717
60453.406
57156.323
52105.58
47281.562
43857.52
39937.995
38007.953
36709.182
34200.65
31992.09
30404.66
28517.602
26884.253
25192.39
23621.74
21826.779
20135.811
18342.1
16535.167
14579.742
13408.508
11211.478
9352.5829
7460.8073
5723.0058
4073.9
2576.5864
1372.4729
10.982282
263941.99
241210.13
244768.91
246361.2
246119.99
235868.69
230816.97
218394.59
211693.05
196801.02
190557.97
178352.51
169809.24
159753.29
150743.41
140324.19
131798.46
122838.11
115004.68
107440
99432.118
93711.849
83893.509
77273.411
71517.403
66784.366
62763.825
58236.83
54263.611
50404.893
46927.699
43319.384
39928.672
36484.021
33155.879
29793.286
26429.931
23101.643
19546.449
16460.215
13592.946
10613.304
7906.8703
5348.7821
3254.9345
1563.3629
109.54783
423410.09
320528.95
363533.05
351932.91
355235.4
339771.49
331943.29
315382.03
305409.96
286814.88
276696.87
259381.26
245436.24
229587.04
214980.61
200447.98
186582.25
174712.21
162347
151254.05
141344.47
130842.29
121602.76
113174.78
105143.11
97898.622
91597.458
84321.094
77877.229
71971.596
66165.9
60700.454
55315.475
50110.333
45019.515
40026.856
35197.268
30579.21
26118.067
21569.382
17494.099
13604.762
10119.833
6978.6099
4360.5521
2139.0238
406.88708
-745443.83
-734885.27
-768782.09
-760433.25
-765707.11
-736011.02
-684508.31
-510399.34
-596301.91
-545210.34
-569447.83
-565733.72
-545368.33
-532855.75
-246496.97
-286260.15
-231609.52
-258541.95
-233538.14
-230100.09
-257635.57
-28386.436
2852.8719
17241.838
-4828.0904
3967.3772
44406.379
-54485.31
193947.7
199740.8
222353.93
207942.04
211561.21
216541.24
135264.67
538132.17
575700.34
572280.12
584073.46
601223.24
591722.08
546664.2
707516.44
613949.44
557307.79
575174.04
547093.11
503292.1
562463.69
690011.3
696084.58
777253.71
797221.3
814324.65
809859.86
653365.35
556886.99
624357.67
618613.45
624791.22
653007.57
629661.73
583000.74
446199.96
494834.4
520643.2
522199.75
517371.18
492933.21
509300.69
462112.81
493486.24
485652.02
506996.73
490858.01
489792.36
462304.19
443437.45
464244.18
477997.9
478111.23
478290.93
463680.45
464145.26
435411.73
425905.85
433506.52
438753.08
436848.63
427624.23
427063.36
406402.05
413642.95
417876.62
419131.27
417209.47
418543.45
416808.25
396618.88
388053.44
391546.73
390866.98
382898.56
388957.57
387917.81
370954.25
370400.41
368680.05
368875.3
370362.77
371294.84
372815.96
357991.35
348779.11
344882.29
346805.12
345615.34
344711.01
343651.42
335809.3
331312.27
326511.55
327097.24
326439.32
324388.85
332348.5
316446.62
309479.58
307045.31
309373.53
306453.26
302003.84
309656.74
299790.94
287667.21
289512.97
286835.89
288519.09
286652.46
295875.76
278362.59
269550.66
273502.82
270657.15
272300.51
268816.47
274581.71
262556.25
252157.46
256096.75
251358.66
252999.05
250538.54
257141.61
244817.97
234984.54
240476.37
235766.44
238672.95
236200.1
241904.92
227950.4
220729.83
224370.36
219309.23
222231.93
218983.31
223086.51
212783.36
205802.22
209306.9
203988.47
208027.63
203756.21
208789.11
197823.44
191902.42
194903.25
189273.7
193201.49
188798.22
193925.37
183589.1
178549.68
181230.92
175851.36
180156.87
175496.83
180457.08
171159.06
165708.89
168177.7
162575.14
166633.19
161877.76
166672.6
158606.45
153778.87
155818.3
150780.83
154581.39
149793.72
154583.5
147456.22
142394.91
144514.05
139358.79
142518.33
138089.99
142406.65
136502.76
132444.58
133509.91
128538.27
131649.46
127357.71
131372.79
126155.95
123180.37
122002.41
119220.31
120995.78
117342.22
121100.49
116312.06
114300.61
111420.03
111389.68
110705.21
109258.74
111489.75
108847.35
105688
103543.9
102997
101799.14
99341.79
101689.66
100977.93
97415.191
95736.884
94083.497
92737.403
91320.197
91551.813
92962.289
89667.678
88011.745
85970.104
84327.646
83369.297
82825.94
85870.878
82080.062
80884.182
78401.826
77039.206
75750.929
74954.668
78457.573
75321.837
73654.234
71214.425
69639.333
68261.676
67383.906
72017.372
68490.272
67015.589
64456.51
62922.533
61401.399
60562.451
65285.953
62041.279
60489.235
57996.004
56456.337
54875.235
54010.857
59137.529
55890.775
54379.672
51810.251
50269.807
48613.552
47658.215
52887.496
49783.813
48285.982
45801.275
44324.5
42732.245
41853.3
46908.678
44057.728
42478.024
40247.207
38691.4
37378.581
36271.375
41414.841
38329.603
37162.133
34661.337
33498.923
31958.349
30902.5
35568.84
32900.641
31217.168
29479.291
27915.834
26505.5
25976.969
29969.301
27582.973
26379.262
24450.917
23341.022
22067.762
21601.629
24945.305
22618.825
21597.84
19752.387
18740.045
17742.257
17276.934
19830.976
17939.675
16867.444
15269.253
14456.126
13617.587
13261.552
15308.031
13559.37
12666.072
11379.461
10617.963
10091.726
9818.2048
11043.751
9474.2305
8730.4965
7630.1937
6997.9932
6809.3834
6573.4711
7387.3018
6095.3172
5461.6577
4588.705
4123.7633
4123.9273
3900.9617
4119.8808
2985.7715
2456.0142
1863.3312
1491.4235
1710.2648
1570.0202
1725.8939
1015.0214
657.46113
256.96835
104.65395
383.78475
330.11288
238.31708
-225.02084
-652.29082
-602.09472
-634.77024
-434.03326
-493.61976
517.9967
467.6371
706.80454
1007.9535
1241.4955
1332.1899
1476.6344
1897.9477
1830.719
1990.1306
2315.2471
2555.2518
2539.4511
2577.356
672.5491
890.79416
902.93692
1283.7475
1550.4662
1689.4154
1448.2952
-180.83393
-29.309883
118.23696
436.65028
583.60237
816.50837
526.44252
-1455.9169
-1361.767
-1529.9465
-1184.2365
-969.23202
-776.00434
-835.22752
-2006.7204
-2016.6963
-1883.9849
-1586.3689
-1493.7625
-1108.1778
-1514.1047
-1757.0584
-1871.8328
-1927.53
-1634.1572
-1280.6185
-1263.661
-1413.3208
-482864.93
-486713.78
-564664.89
-544318.77
-563345.85
-526684.31
-506157.75
-514436.89
-527876.24
-560802.02
-559053.09
-565078.95
-520665.08
-513263
-485974.58
-494035.2
-509374.55
-513614.3
-508769.84
-471953.71
-476533.44
-448255.19
-469948.58
-482093.14
-491503.14
-481087.19
-464208.35
-465016.12
-436713.36
-441525.35
-447459.9
-451643.46
-449687.04
-430593.59
-427526.8
-406673.6
-416066.22
-422927.39
-420801.91
-420891.53
-405855.9
-409122.19
-392409.84
-392948.94
-396703.77
-396012.11
-400940.32
-391146.2
-398226.76
-365599.22
-368771.58
-373878.03
-364211.93
-372964.98
-363031.52
-368566.58
-350071.7
-351734.49
-353042.01
-350317.24
-357121.2
-346324.24
-359825.56
-330360.76
-327378.7
-329594.11
-325857.11
-332023.93
-324504.01
-336213.33
-311356.98
-309201.81
-315076.97
-309128.23
-316760.9
-309304.97
-318153.26
-290960.96
-292598.27
-291665.64
-288276.33
-293501.16
-287412.66
-299166.66
-275266.91
-272218.79
-274937
-271541.82
-277635.11
-271053.04
-274058.25
-256561.12
-256551.19
-255709.2
-254382.25
-257897.51
-255095.17
-261685.17
-239701.39
-239877.19
-238297.67
-239412.94
-240782.22
-239122.88
-247372.24
-225884.21
-222590.38
-223041.99
-221957.34
-226139.61
-223153.77
-228467.61
-209292.67
-208542.82
-207277.37
-208604.44
-209586.28
-207745.45
-213080.29
-194791.52
-193469.12
-193559.83
-193367.89
-194671.35
-194068.7
-198134.32
-180103.36
-180029.55
-179564.73
-179717.33
-181204.94
-180799.96
-184780.25
-167251.44
-166496.76
-166494.49
-166816.9
-168175.07
-168102.92
-171752.12
-154783.39
-153881.18
-154509.26
-154526
-156053.89
-156162.6
-159738.23
-142792.2
-142065.99
-142901.56
-142919.24
-144405.49
-144617.82
-148517.31
-131816.61
-131176.27
-132677.78
-132345.66
-133995.92
-134315.82
-138124.34
-121184.15
-121016.46
-122180.46
-122154.02
-123788.72
-123999.75
-128268.34
-111326.99
-110830.56
-112650.59
-112574.04
-114263.65
-114744.29
-118970.58
-101950.73
-101683.66
-103700.39
-103756.73
-105516.15
-105974.12
-110248.3
-92945.79
-93155.618
-95310.962
-95188.778
-97375.333
-97668.68
-102265.27
-84940.845
-84941.879
-87081.15
-87185.963
-89600.22
-90081.928
-94517.599
-76572.26
-76951.033
-79401.075
-79857.868
-82059.803
-82599.612
-87003.385
-69256.632
-70075.865
-72170.337
-72832.858
-74957.167
-75849.542
-79984.946
-62182.23
-63049.66
-65204.521
-66096.179
-68239.602
-69148.766
-73235.933
-55402.042
-56523.51
-58568.13
-59663.124
-61746.778
-62820.209
-66790.995
-49170.014
-50393.176
-52463.97
-53629.457
-55692.642
-56835.879
-60529.082
-43135.105
-44504.034
-46430.833
-47668.503
-49588.497
-50615.545
-54372.488
-37454.943
-38761.234
-40620.013
-41928.764
-43816.843
-45692.224
-48910.901
-32286.2
-33793.765
-35532.986
-36768.538
-38778.697
-39830.927
-42361.671
-27335.135
-28436.705
-29942.223
-31334.364
-32782.134
-34167.308
-37200.158
-22517.201
-23586.651
-25039.967
-26155.521
-28071.233
-28903.365
-32109.317
-18383.987
-19394.398
-20538.537
-21656.793
-23264.43
-24061.435
-26782.642
-14437.282
-15141.837
-16150.556
-17132.421
-18494.138
-19283.3
-21792.111
-10828.131
-11315.335
-12259.066
-12953.698
-14259.108
-15017.841
-17150.696
-7658.7366
-7995.138
-8655.1105
-9249.71
-10426.498
-11026.727
-12865.31
-4863.4325
-4916.5421
-5470.1901
-5873.6094
-6870.2366
-7354.1002
-8892.2134
-2570.4224
-2470.5215
-2785.9843
-3024.9661
-3866.5717
-4269.5439
-5563.8156
-769.17459
-647.44082
-793.08997
-1038.7876
-1673.5077
-1947.1689
-2854.5584
285.44594
383.47174
413.83073
342.54119
96.471008
-94.435379
-725.91248
358.42017
341.43661
497.5875
524.38513
377.54052
265.05801
-20.520828
-511573.83
-341373.97
-337994.59
-328619.96
-335627.19
-336867.63
-315477.21
-306192.11
-294544.52
-280483.36
-262937.08
-250013.36
-232890.66
-218521.63
-205952.89
-192651.74
-179230.06
-167479.78
-156624.22
-146044.52
-136222.97
-126720.86
-118042.38
-110018.99
-102187.64
-95083.881
-87882.001
-81148.215
-74938.712
-68855.522
-63180.179
-57673.45
-52425.278
-47107.226
-42317.848
-36829.146
-32746.285
-28154.989
-23706.441
-19465.928
-15565.905
-12014.196
-8788.2804
-6007.9482
-3578.4205
-1806.7836
-200.08189
-286396
-272995.88
-200367.43
-235693.05
-271472.89
-236869.71
-248939.89
-226268.66
-223685.5
-204488.49
-199370.22
-182993.42
-171629.71
-160500.78
-150937.92
-142615.32
-132512.06
-122962.53
-115390.4
-107094.67
-99553.749
-92792.903
-86116.455
-80040.602
-73810.644
-67775.413
-64406.218
-59061.38
-54990.265
-50794.595
-46893.479
-43117.285
-39468.365
-35891.856
-32251.422
-28915.023
-25534.941
-21801.28
-18987.473
-15297.507
-12403.714
-9522.4144
-6840.2213
-4473.7878
-2464.7367
-619.86299
215.41372
-130533.31
-146712.84
-73179.431
-125366.86
-109400.11
-96965.135
-104580.13
-94889.347
-91868.473
-84682.474
-85438.51
-78595.683
-78614.675
-73591.301
-71510.541
-68470.449
-63678.141
-59886.163
-57095.421
-52412.109
-49467.882
-46347.005
-43402.919
-40733.194
-38483.132
-36233.312
-33980.521
-31360.502
-29741.799
-27541.264
-25766.108
-23942.821
-22121.144
-20266.932
-18467.227
-16571.13
-14695.618
-12829.271
-10966.156
-9008.7885
-7376.115
-5679.4327
-4043.412
-2834.8797
-1523.1375
-775.56766
417.55166
25585.413
-18614.326
16169.372
-15489.477
1487.73
-9009.9476
-8218.3907
6136.0717
-5569.0793
-870.99099
-1685.1075
-3334.9627
-5631.3283
-8984.4964
-10335.448
-9518.0568
-9545.3816
-9418.8177
-9050.8214
-8361.9009
-8614.5873
-8530.7716
-8316.9103
-8557.8156
-8201.1932
-7986.5919
-7915.1863
-8099.5704
-8013.4148
-7861.0415
-8043.2611
-7988.6866
-7895.5006
-7724.6769
-7404.435
-6992.1857
-6380.4243
-5830.2126
-5013.9534
-4240.8265
-3418.203
-2481.9738
-1639.4856
-943.65809
-278.93832
272.79516
509.21097
214642.85
117181.58
125040.12
88725.835
111464.05
86240.259
101487.36
89628.07
81407.012
83719.336
72476.678
74707.581
66182.675
67794.956
61536.271
59288.96
54045.406
51154.134
47056.512
43569.588
39884.533
36590.971
33304.188
30099.027
26837.097
24435.42
21466.791
18985.971
16767.193
14590.842
12518.349
10690.935
8788.5436
7202.8704
5827.3743
4648.0536
3604.5875
2795.9023
2182.8265
1606.4104
1220.4459
1004.7897
857.14379
671.935
746.06427
351.88933
646.46318
325979.18
259047.28
212651.43
215530.6
218309.24
209739.06
207750.73
186546.76
192501.75
182153.63
176019.07
167979.03
154631.35
149509.61
137549.88
128717.94
118117.06
109627.63
100793.66
93274.762
86299.509
79094.32
72602.867
65207.265
58328.303
51991.47
47641.287
42607.279
38291.145
34040.484
30354.59
26619.137
23185.143
20081.994
17205.02
14520.718
12215.671
10139.249
8300.9678
6699.1395
5363.8057
4244.528
3233.4089
2486.2434
1694.8538
1060.4368
152.72002
425459.83
360394.88
353053.36
337867.88
357080.47
336163.27
335511.03
316145.46
310367.01
287291.5
275716.73
257270.25
243271.14
228244.21
213705.75
201066.35
188950.12
175482.12
164285.38
152122.9
140785.09
129699.99
119573.36
109171.14
100573.83
87964.333
80492.567
73086.48
65991.118
59462.685
53128.123
47043.799
41584.256
36228.281
31296.826
26972.155
23355.14
19252.592
15894.663
13076.997
10364.644
8038.623
6168.1297
4409.8225
3058.2056
1607.2282
813.41092
-623798.39
-674476.84
-663060.6
-689949.71
-683002.08
-639480.76
-590788.24
-409096.23
-485168.16
-483264.07
-494916.62
-482253.67
-450098.98
-403140.9
-386978.55
-431164.61
-462894.91
-464369.06
-453298.72
-449482.66
-419065.95
-364630.62
-374212.8
-390479.02
-397728.49
-383280.79
-384999.49
-340459.97
-344111.05
-360592.99
-382618.25
-375134.46
-372627.13
-365319.46
-333480.38
-330427.89
-341890.19
-341036.66
-350445.99
-341245.47
-338683.28
-337318.46
-314604.95
-320191.38
-327050.91
-327895.98
-318021.76
-324120.87
-312482.55
-296928.58
-310199.13
-303556
-311965.16
-308397.48
-302283.99
-299057.96
-284937.74
-287354.79
-281514.35
-294791.89
-281572.19
-290154.44
-284823.87
-265581.27
-270405.75
-272680.46
-277281.77
-269785.33
-274569.87
-269179.82
-249942.38
-258060.17
-251743.71
-257844.88
-251506.64
-255906.47
-253720.6
-239975.11
-238240.56
-239667.37
-242909.24
-240256.35
-241677.96
-239110.7
-221737.02
-225121.25
-223859.98
-229540
-223097.12
-227212.83
-227932.59
-209246.96
-209163.17
-210441.87
-213751.29
-209611.62
-213120.04
-213841.07
-196221.51
-196203.4
-198035.55
-197886.94
-197213.79
-199374.81
-198054.34
-182103.61
-182559.13
-185132.03
-185577.47
-184496.72
-184825.42
-186496.03
-169551.51
-169383.78
-171923.74
-172188.58
-171531.44
-173132.76
-174410.76
-157590.49
-157766.34
-160502.95
-159756.2
-160091.76
-161028.11
-162587.33
-146077.09
-146711.51
-148241.07
-148688.97
-148902.08
-149736.64
-150859.74
-135367.12
-135647.98
-137754.73
-137768.43
-138329.56
-139056.92
-140701.13
-123956.14
-125950.72
-127201.02
-127679.35
-128200.38
-129262.49
-130578.61
-114350.05
-116527.27
-117463.75
-117949.84
-119016.36
-119982.33
-121612.04
-104697.7
-107397.14
-107680.63
-108959.39
-109958.09
-111677.32
-112531.33
-95898.545
-98563.566
-98820.358
-99945.541
-101595.11
-102972.72
-104146.22
-87015.659
-90667.687
-90516.953
-92677.133
-93664.249
-95993.543
-96962.014
-79820.873
-82759.106
-83369.206
-84347.799
-86554.342
-88414.466
-89616.432
-72623.21
-75306.161
-75653.307
-77497.075
-79383.148
-81588.902
-82814.478
-65205.31
-68082.343
-69071.608
-71007.931
-72645.709
-74884.855
-76473.37
-58855.423
-62228.984
-62776.956
-64398.112
-66625.108
-68865.257
-70688.616
-52938.73
-55467.728
-56757.724
-58408.231
-60734.569
-62817.069
-64975.92
-46942.532
-49658.964
-50993.032
-52633.042
-54971.925
-57284.022
-59466.779
-41647.161
-44190.964
-45792.605
-47341.981
-49810.862
-52003.029
-54266.77
-36471.333
-38960.36
-40472.309
-42104.199
-44405.465
-46646.729
-49043.339
-31645.921
-33893.895
-35622.331
-37116.684
-39594.802
-41968.826
-44371.843
-27276.529
-29535.295
-31086.782
-32593.124
-34972.036
-36977.473
-39272.068
-22952.026
-24803.294
-26553.133
-27976.473
-30258.627
-32441.271
-34745.796
-19124.566
-21250.634
-22523.943
-23782.766
-26099.196
-27607.869
-30762.762
-15802.223
-17384.058
-18853.623
-20117.44
-21848.884
-24148.207
-25675.267
-12693.085
-13664.044
-15155.151
-16165.3
-17994.836
-19558.75
-21891.125
-9737.9652
-10817.351
-12004.176
-12869.597
-14361.199
-15980.233
-17904.935
-7275.6274
-8059.2354
-9008.7174
-9711.5998
-11123.522
-12424.941
-14194.381
-5071.9538
-5726.7925
-6327.9821
-6985.1232
-8074.4222
-9119.5225
-10697.306
-3325.6566
-3697.1291
-4138.2127
-4590.2581
-5411.783
-6295.7195
-7719.7942
-1788.5014
-2098.1262
-2272.8542
-2619.7047
-3285.3982
-3975.3814
-5030.0501
-750.83167
-982.2156
-902.37587
-1186.0686
-1543.3363
-1891.9729
-2797.7742
-122.70465
-40.996877
30.511033
-91.935837
-221.58473
-623.53526
-1052.6776
494.74661
389.98955
571.96919
557.93662
518.67508
494.75209
64.994434
-387446.05
-395321.41
-435177.44
-423909.17
-436962.77
-393248.84
-390213.8
-281351.68
-359802.88
-374284.19
-387443.56
-384890.91
-351196.14
-325295.31
-291141
-271412.83
-308674
-293532.96
-305151.23
-271649.13
-270157.64
-237531.18
-259051.95
-279047.09
-272496.67
-280033.61
-263881.3
-229428.39
-244927.79
-253170.07
-270000.71
-258851.32
-271789.63
-249309.78
-239811.13
-225464.83
-232799.78
-242104.69
-235606.56
-237401.92
-237420.03
-225942.8
-217335.02
-228730.28
-241512.52
-231421.09
-240447.24
-234544.61
-217889.09
-206451.5
-209105.85
-214973.26
-209495.38
-217110.88
-208518.6
-208728.92
-195102.13
-199371.09
-213706.92
-205660.34
-208023.54
-207304.36
-200122.84
-181519.93
-188893.81
-194306.55
-183220.53
-192860.48
-187740.18
-188152.96
-172845.96
-178137.02
-182160.01
-178713.12
-184017.07
-181893.75
-176205.69
-161485.05
-164037.35
-172795.47
-164336.04
-172472.75
-165796.71
-170380.01
-149875.59
-155744.46
-162526.55
-153569.38
-161016.4
-157446.9
-155215.24
-140394.08
-145524.99
-150002.14
-142944.35
-149781.85
-146239.39
-143246.51
-130374.93
-137826.84
-138057.98
-134917.4
-139499.4
-137099.51
-134089.97
-121797.99
-127623.64
-127456
-126388.43
-128014.96
-127925.04
-123623.55
-112820.14
-119380.4
-118754.42
-117390.81
-119248.95
-120205.91
-117537.12
-104545.36
-111221.04
-109519.03
-109695.05
-110539.9
-111706.87
-107731.3
-97471.035
-102607.65
-101613.26
-101695.6
-102681.29
-103630.31
-101041.14
-89394.844
-94901.692
-93797.664
-94486.692
-94873.849
-96162.561
-94077.203
-83135.971
-87599.019
-86681.76
-87260.005
-87951.267
-89334.573
-87883.893
-76784.385
-80564.409
-79519.206
-80690.765
-81395.026
-82835.671
-81579.16
-71082.273
-73532.292
-73280.197
-74471.943
-75499.931
-76183.147
-76236.523
-65118.867
-67419.557
-67727.662
-69102.575
-69801.542
-70719.885
-71275.452
-59649.509
-61587.909
-62125.696
-63310.095
-64980.379
-65005.806
-66867.613
-54242.886
-56482.854
-56393.3
-59349.157
-58738.686
-60454.763
-61911.554
-48997.873
-51225.605
-51660.408
-53282.748
-55517.225
-55198.036
-57807.268
-44369.65
-46064.524
-47717.448
-48737.096
-50713.602
-51137.965
-53516.021
-39722.596
-41659.385
-43043.482
-44557.886
-46679.89
-47066.587
-49513.646
-35166.99
-37592.224
-38617.897
-40521.744
-42385.453
-43193.307
-45681.949
-31174.263
-33647.103
-34939.621
-36833.845
-38800.832
-39728.216
-42106.75
-27257.727
-29972.948
-30991.151
-33094.45
-34974.248
-35988.665
-38454.153
-23694.627
-26291.833
-27503.158
-29612.961
-31547.686
-32808.589
-35194.587
-20374.361
-23166.266
-24281.755
-26422.858
-28313.838
-29490.554
-31726.722
-17307.283
-19935.417
-21055.264
-23175.302
-25003.808
-26239.215
-28616.2
-14405.605
-17025.962
-18082.299
-20182.999
-21865.003
-23155.731
-25487.207
-11971.755
-14550.568
-15560.321
-17483.883
-19017.816
-20335.17
-22134.226
-9655.7119
-11897.467
-12600.011
-14541.318
-15995.33
-17179.737
-19143.783
-7437.9135
-9534.2678
-10334.795
-11849.207
-13253.492
-14406.228
-16043.003
-5588.9471
-7730.2633
-8343.2316
-9581.3275
-10974.156
-11810.142
-13382.462
-4107.5619
-5696.4252
-6072.2226
-7145.9862
-8362.6668
-9057.4353
-10431.395
-2859.3243
-4202.9523
-4507.8168
-5334.4564
-6360.1951
-6826.3734
-8142.1812
-1626.1526
-2621.6874
-2728.7376
-3354.4779
-4196.425
-4643.4207
-5785.1626
-923.75452
-1620.9429
-1598.8098
-1925.0761
-2666.7307
-2878.1178
-3805.273
-130.61028
-697.6834
-349.32656
-718.52561
-1213.8016
-1285.7331
-2158.3259
371.40799
281.84157
497.57961
388.00212
200.48055
112.89019
-637.1485
543.85184
127.1287
605.94935
604.54214
538.45628
630.80673
281.38366
-221951.73
-217977.97
-204506.44
-222723.78
-209393.54
-193954.35
-187805.69
-151122.33
-223341.62
-205714.83
-223319.31
-194041.35
-193912.3
-162482.18
-155533.16
-140637.15
-157660.22
-156238.7
-148192.47
-133429.07
-129709.48
-115539.21
-139974.06
-151497.63
-159605.35
-145448.03
-147981.33
-119203.06
-130577.39
-124477.2
-137413.04
-127756.54
-129351.75
-115242.77
-114601.36
-109631.69
-124617.82
-120274.74
-121765.82
-124931.61
-113621.63
-114666.95
-109873.06
-116659.94
-106252.39
-116351.76
-115388.8
-105999.3
-106327.19
-102260.81
-113876.35
-103263.28
-110253.73
-107354.52
-97330.338
-104159.01
-98178.105
-110535.78
-92460.17
-102936.28
-99048.674
-96702.37
-97977.697
-95727.958
-100054.49
-86806.779
-94220.475
-95855.184
-89070.878
-91905.885
-87987.17
-95890.633
-80613.25
-92568.06
-88893.239
-85379.757
-87226.193
-82093.687
-87894.747
-75045.303
-83278.86
-81786.852
-78196.361
-81616.983
-74616.34
-85785.675
-69518.405
-78749.298
-78017.537
-73494.784
-76233.297
-70389.554
-77109.922
-66117.745
-74108.88
-74631.29
-65557.356
-75432.488
-65968.611
-70094.876
-61230.177
-68349.749
-68100.369
-62660.699
-69696.645
-60052.691
-63634.958
-58972.173
-61847.687
-64331.89
-58024.844
-66249.24
-54647.732
-59534.237
-54338.523
-58344.74
-59289.922
-54928.958
-60928.299
-51038.144
-54117.163
-50536.364
-53595.536
-55163.62
-51031.858
-56312.008
-46085.939
-50100.25
-46460.886
-49765.911
-50745.256
-47397.575
-52463.048
-42556.714
-46080.64
-43016.801
-45956.267
-46913.423
-44461.622
-49340.256
-38483.448
-42190.452
-39415.733
-42258.1
-43259.913
-41700.124
-45325.896
-34827.83
-38357.553
-36112.765
-39115.241
-40226.73
-38521.831
-42564.186
-31401.358
-34798.465
-33202.783
-36540.743
-36590.516
-36444.22
-39782.268
-28127.836
-31323.809
-30458.571
-32937.187
-33517.66
-34074.122
-36978.439
-25299.168
-28326.29
-27608.802
-30177.863
-30622.933
-32090.551
-34353.447
-22588.46
-24639.675
-25188.471
-27320.917
-28280.227
-29668.336
-32037.867
-19762.001
-22608.81
-22981.86
-25281.522
-25480.737
-27724.571
-29703.87
-17360.966
-20337.014
-20368.71
-22701.476
-23719.366
-25447.468
-28254.624
-15040.226
-17533.466
-18111.821
-20422.669
-21854.253
-23483.553
-26602.195
-12757.427
-15535.751
-16405.511
-18582.562
-20005.697
-21670.179
-24902.49
-10794.082
-13454.3
-14220.941
-16630.83
-17982.421
-19891.49
-23088.134
-8876.2043
-11413.852
-12482.692
-14767.695
-16326.548
-18265.493
-21538.96
-7146.3459
-9719.0724
-10815.07
-13176.608
-14699.561
-16627.045
-19852.201
-5603.1629
-8003.1353
-9223.3585
-11429.097
-13028.652
-14946.747
-18237.628
-4126.2723
-6495.1015
-7689.0443
-9832.6305
-11426.909
-13335.273
-16554.555
-2982.3041
-5186.7168
-6436.7869
-8406.6192
-10018.412
-11889.583
-14929.657
-1949.0486
-3925.1448
-5077.5961
-6866.4649
-8530.3099
-10102.83
-13127.385
-1054.7266
-2886.1019
-3914.3173
-5661.0718
-7055.8735
-8676.093
-11449.259
-530.97399
-1940.9452
-2948.1182
-4498.2552
-5774.1703
-7316.5523
-9778.4185
-13.958616
-1289.7536
-2034.5195
-3396.8928
-4560.8425
-5807.7527
-8010.5944
266.19534
-637.21957
-1247.4278
-2380.2523
-3395.5031
-4452.3324
-6410.3787
598.68904
-247.08227
-679.3601
-1657.162
-2488.7994
-3309.4416
-4980.0499
669.82731
78.39148
-124.58349
-857.46104
-1447.6446
-2153.6238
-3448.0366
617.59266
64.915856
39.47971
-543.19295
-1035.3709
-1504.736
-2275.0337
727.14799
305.87015
580.98811
58.069482
-130.51507
-357.46058
-948.98599
416.62464
22.042273
288.97608
-92.858345
-6.3928185
-282.56905
-438.66752
430.82875
449.23565
730.89533
638.85444
865.04216
680.03145
742.23519
-3898.8233
20692.099
13211.545
16719.111
19812.884
23805.01
2560.1917
8700.1135
-815.02971
-598.68219
-11286.874
-325.10094
-4676.0177
4045.1672
-21265.745
15764.054
2832.3463
16017.543
10417.647
14621.146
3660.8666
1700.2219
2760.6915
-19133.318
-10546.731
-11989.424
-18596.151
10184.631
-9098.6551
-12442.972
-19412.01
-1129.8586
-17514.607
11678.36
-7109.1024
-6387.6522
1111.0181
-5870.1419
-11919.785
-9171.7344
-12282.799
692.25682
-8554.5967
-15451.121
-25127.243
-12792.349
-19615.458
-7644.0915
-8329.4103
-9479.9331
-7467.8376
-7018.9419
-11838.553
-8620.1811
-12580.403
-3700.0285
-5794.2615
-6494.8527
-18661.931
-11089.821
-18006.131
-11117.52
-1338.6104
-2547.9309
-8980.3876
-9556.4196
-7191.2292
-8937.706
-5714.5555
-5299.8643
-3294.6
-5816.4045
-10622.743
-7442.2235
-10492.488
-8644.7423
-3675.0043
668.40425
-5774.5049
-5490.5667
-5472.2792
-6453.4453
-6307.6018
-2013.4157
-1106.085
-3428.3368
-5408.0672
-5458.0917
-8486.0834
-6257.135
-2183.6634
2063.3001
-2184.2841
-5893.0218
-6339.5819
-1058.759
-5928.5164
2544.3947
1040.5546
-3851.8186
148.43964
-6317.9152
-937.69681
-6194.482
-622.51861
4265.1947
-2452.0539
1169.0935
-6359.4407
1095.6759
-5445.7249
533.47751
3147.8724
-1143.7085
948.98833
-6150.6868
1143.315
-5082.8515
-310.94697
4696.297
-662.00915
1370.0462
-5103.1759
1812.0916
-4328.8265
489.19521
4544.0846
-775.49592