/*--------------------------------*- C++ -*----------------------------------*\
  =========                 |
  \\      /  F ield         | OpenFOAM: The Open Source CFD Toolbox
   \\    /   O peration     | Website:  https://openfoam.org
    \\  /    A nd           | Version:  6
     \\/     M anipulation  |
\*---------------------------------------------------------------------------*/
FoamFile
{
    version     2.0;
    format      ascii;
    class       pointVectorField;
    location    "1.5";
    object      lm;
}
// * * * * * * * * * * * * * * * * * * * * * * * * * * * * * * * * * * * * * //

dimensions      [1 -2 -1 0 0 0 0];

internalField   nonuniform List<vector> 
625
(
(0 0 0)
(0 0 0)
(-4259.9798 282.45003 -168.69131)
(-4120.3443 897.43772 -85.5603)
(0 0 0)
(0 0 0)
(-4202.9663 849.18265 -87.679283)
(-4342.4203 232.93794 -169.67155)
(0 0 0)
(0 0 0)
(0 0 0)
(-4224.9879 434.9655 -148.53586)
(-4191.4819 589.8328 -127.54257)
(-4156.064 744.48194 -106.26114)
(-40.294158 -101.87593 -84.754641)
(-111.93406 -191.19643 -96.386831)
(-228.23448 -269.43937 -112.4375)
(-383.23553 -336.23558 -129.46437)
(-560.13062 -381.59341 -150.45077)
(-767.28375 -413.08789 -171.50501)
(-985.77293 -425.88779 -193.51214)
(-1217.0557 -423.31033 -213.51723)
(-1454.1209 -407.67674 -232.74681)
(-1691.9101 -378.2729 -248.1224)
(-1927.2479 -339.59069 -260.65336)
(-2156.6876 -292.68811 -269.45843)
(-2377.61 -239.89696 -274.66951)
(-2588.8724 -183.83141 -276.17172)
(-2789.3662 -126.20529 -274.39529)
(-2979.0418 -68.972442 -269.53001)
(-3158.7878 -13.531223 -262.12465)
(-3329.0727 38.807662 -252.42435)
(-3492.3395 87.89338 -241.06222)
(-3649.8031 132.66833 -228.42497)
(-3803.2935 173.73662 -214.39412)
(-3955.4908 212.3884 -200.09226)
(-4107.2033 247.02166 -184.43562)
(11.529606 55.52763 89.691159)
(-76.005839 115.9323 50.1669)
(-193.06867 186.79286 34.07578)
(-338.00585 243.10694 -1.8283546)
(-507.83486 291.56287 -35.864318)
(-707.66852 349.00335 -72.019209)
(-912.60637 390.27544 -104.66357)
(-1135.2539 434.52867 -138.07152)
(-1360.486 474.52996 -165.8558)
(-1589.6335 510.1927 -191.16595)
(-1816.4066 544.72665 -210.37076)
(-2038.7561 574.9082 -224.86277)
(-2254.6289 603.76746 -233.46324)
(-2461.5583 629.86697 -236.41728)
(-2659.2874 654.4372 -234.17432)
(-2847.0615 677.8931 -226.9732)
(-3025.3674 700.85047 -215.54492)
(-3194.9207 723.82425 -200.62378)
(-3357.1176 747.89691 -183.07901)
(-3513.4639 773.12458 -163.66768)
(-3666.0975 800.65546 -143.49998)
(-3816.8037 830.18568 -123.28817)
(-3967.4617 862.64832 -103.68966)
(0 0 0)
(0 0 0)
(0 0 0)
(-30.991096 53.878243 -72.040649)
(-105.64284 209.75671 -93.29768)
(-218.93751 244.06742 -88.711112)
(-356.39053 326.77023 -97.996053)
(-534.81329 402.20754 -120.08548)
(-721.31154 438.76706 -128.19446)
(-932.30555 491.57545 -147.96326)
(-1150.3865 525.63629 -162.3985)
(-1378.6969 556.80417 -176.58257)
(-1608.8647 581.14412 -189.03729)
(-1838.9951 599.55622 -197.58835)
(-2065.7398 616.02865 -203.86993)
(-2286.5339 628.24965 -206.46097)
(-2499.4705 639.67608 -205.83402)
(-2703.516 650.27643 -202.21636)
(-2897.813 661.1023 -195.53381)
(-3082.6311 673.74213 -186.58401)
(-3258.3505 688.26577 -175.3782)
(-3426.1697 706.02502 -162.65658)
(-3587.3907 727.2482 -148.62403)
(-3743.9807 752.22834 -133.78456)
(-3897.4289 781.24908 -118.42954)
(-4049.9978 813.61498 -102.6663)
(-4238.8732 695.93629 -108.09859)
(-4274.3011 540.03071 -128.34248)
(-4307.3228 385.21973 -148.59498)
(-4189.3244 197.93107 -187.03087)
(-4037.1287 162.75781 -205.26661)
(-3884.7451 126.50961 -223.95999)
(-3729.9997 88.279286 -242.3615)
(-3571.1554 48.248219 -259.77395)
(-3406.0465 6.2504563 -275.11542)
(-3232.8763 -37.406609 -287.72876)
(-3050.0529 -81.986636 -296.72203)
(-2856.5855 -126.73353 -301.32816)
(-2651.7824 -170.55262 -300.91827)
(-2435.8535 -211.86153 -295.03248)
(-2209.8143 -249.81752 -283.21198)
(-1974.8758 -281.74826 -265.72799)
(-1734.0226 -308.07382 -242.10347)
(-1490.0037 -324.9343 -213.43472)
(-1247.9897 -332.80753 -180.91499)
(-1009.5568 -330.71014 -142.96283)
(-782.42659 -315.3498 -105.2187)
(-574.59903 -288.86553 -63.674997)
(-384.02232 -247.66839 -26.641617)
(-223.66592 -205.09693 16.575697)
(-98.615159 -134.26588 38.980163)
(-39.311094 -70.617807 52.915691)
(0 0 0)
(0 0 0)
(0 0 0)
(0 0 0)
(0 0 0)
(0 0 0)
(-4140.817 883.83015 -86.655884)
(-4161.4065 871.95715 -87.177093)
(-4182.2779 860.34609 -87.143181)
(-4280.5886 270.7643 -168.63852)
(-4300.7014 258.43341 -169.275)
(-4321.6218 246.11502 -169.42727)
(0.060762049 -56.395711 -65.342234)
(-79.46815 -107.67203 -58.656177)
(-197.53581 -152.47345 -79.479252)
(-351.45557 -185.98573 -97.42625)
(-532.23355 -208.44038 -121.12268)
(-739.50161 -218.44783 -144.83617)
(-958.33967 -216.84143 -168.75561)
(-1190.7664 -205.01375 -192.32868)
(-1427.3878 -183.23807 -212.88682)
(-1665.0399 -152.68189 -230.64581)
(-1900.5603 -116.10946 -244.89482)
(-2129.5978 -73.719314 -255.2794)
(-2350.718 -27.966198 -261.42385)
(-2561.8028 19.843164 -263.65553)
(-2762.1524 68.391895 -262.05675)
(-2951.697 116.40985 -256.98603)
(-3130.7832 163.04407 -248.93999)
(-3300.6989 207.66546 -238.31124)
(-3462.9569 250.12591 -225.79258)
(-3619.0585 289.97461 -211.72722)
(-3771.5157 327.84804 -196.55345)
(-3922.2603 364.45086 -180.77594)
(-4072.0795 399.41563 -164.51045)
(17.455513 -20.091313 -15.373369)
(-66.304158 -31.375966 -21.249457)
(-181.10891 -44.801638 -44.560856)
(-333.57525 -51.307104 -68.767223)
(-516.02699 -45.894874 -94.591161)
(-718.63465 -37.472684 -122.20408)
(-937.5523 -21.266512 -149.29049)
(-1167.6695 2.1575139 -174.95871)
(-1402.1577 29.924187 -197.51552)
(-1639.3009 63.253691 -217.3794)
(-1872.7709 99.959235 -232.97537)
(-2101.0741 139.44448 -244.17645)
(-2321.0475 180.66649 -250.94071)
(-2531.3432 222.22075 -253.28847)
(-2731.0585 263.93293 -251.37975)
(-2919.9393 304.52764 -245.64324)
(-3098.5829 344.00312 -236.60359)
(-3268.0321 381.93239 -224.74906)
(-3429.7155 418.36159 -210.70754)
(-3585.5799 453.59337 -195.22385)
(-3737.7616 487.77159 -178.22194)
(-3887.8966 521.58116 -161.64166)
(-4037.8643 555.42479 -144.0577)
(30.243124 13.293822 21.139561)
(-61.591644 28.596597 10.549024)
(-170.81083 47.09545 -10.496566)
(-327.77569 75.85771 -36.674127)
(-505.79463 107.20535 -65.646446)
(-706.36539 133.89958 -96.465483)
(-923.68387 170.94854 -126.81204)
(-1149.5135 203.78718 -154.72672)
(-1382.5676 240.13866 -180.55879)
(-1616.072 277.75204 -202.56522)
(-1847.4083 314.57408 -219.88113)
(-2073.4788 352.46906 -232.72988)
(-2291.6091 388.96355 -240.45714)
(-2500.4784 424.91852 -243.2382)
(-2698.9701 459.62824 -241.3093)
(-2887.0079 492.91042 -235.04397)
(-3065.0279 525.16029 -225.0786)
(-3233.8758 556.28116 -211.8717)
(-3395.3 586.76911 -196.417)
(-3550.7397 617.00442 -179.07789)
(-3702.7398 647.421 -161.00501)
(-3852.6466 678.38087 -142.54436)
(-4003.187 710.49833 -124.19737)
(0 0 0)
(0 0 0)
(0 0 0)
(0 0 0)
(0 0 0)
(0 0 0)
(0 0 0)
(0 0 0)
(0 0 0)
(-29.497202 26.733276 41.376966)
(-45.150579 40.331769 9.3300025)
(-46.573595 30.802185 -20.90214)
(-124.02133 160.40801 20.106529)
(-127.55938 172.0735 -10.858035)
(-129.26153 174.3159 -52.420696)
(-221.09228 205.69447 3.706363)
(-234.80885 213.20185 -24.145647)
(-240.46895 244.49302 -61.69034)
(-361.67073 271.07837 -27.898462)
(-375.2426 295.69429 -50.9538)
(-371.46719 305.62621 -75.966157)
(-534.44042 332.03573 -56.025635)
(-541.9722 350.90516 -72.758448)
(-545.69402 378.81449 -97.968491)
(-719.90458 378.98811 -86.976221)
(-729.39373 400.46473 -102.58835)
(-730.76493 422.08743 -117.49981)
(-926.84636 424.56593 -117.7261)
(-934.0809 449.33898 -125.49674)
(-936.93332 473.15825 -139.19568)
(-1143.3932 464.69375 -145.62163)
(-1150.2076 484.6692 -151.7245)
(-1153.2047 507.9986 -159.26516)
(-1367.1305 501.14675 -171.20848)
(-1373.0313 521.96029 -174.05013)
(-1376.157 540.62139 -176.91815)
(-1593.922 533.73732 -192.85671)
(-1599.0392 549.701 -192.37989)
(-1604.5436 568.15161 -192.27783)
(-1819.0753 561.64473 -209.62268)
(-1825.1437 576.14657 -207.38553)
(-1831.0821 590.14891 -203.73469)
(-2041.4241 588.17847 -222.0086)
(-2047.3772 598.38595 -217.46734)
(-2055.1282 609.38834 -211.66865)
(-2257.0839 610.89625 -228.76364)
(-2264.181 617.80424 -223.0695)
(-2273.3415 625.60396 -215.64188)
(-2465.0648 632.35681 -230.74543)
(-2473.1522 635.88782 -224.21008)
(-2483.99 640.062 -215.56036)
(-2664.1836 652.37578 -227.81095)
(-2673.6836 652.6067 -220.81549)
(-2686.0927 653.82354 -211.93859)
(-2853.8249 671.85523 -220.41863)
(-2864.8137 669.19084 -213.6609)
(-2878.8176 667.41057 -204.81665)
(-3034.3307 691.56758 -209.35255)
(-3046.9642 686.40036 -203.05423)
(-3062.4008 682.16576 -194.84859)
(-3206.2561 712.1263 -195.05112)
(-3220.4733 704.97517 -189.59023)
(-3237.2934 698.62395 -182.39779)
(-3370.8046 734.45713 -178.45854)
(-3386.6682 725.68905 -174.08641)
(-3404.6157 717.51408 -168.15681)
(-3529.5189 758.89343 -160.18419)
(-3546.7423 749.02188 -157.0485)
(-3565.639 739.58348 -152.54498)
(-3684.0585 786.04381 -141.22174)
(-3702.5678 775.33602 -139.29849)
(-3722.2489 764.82856 -136.13607)
(-3836.261 816.03477 -122.24751)
(-3855.7862 804.96902 -121.24179)
(-3875.9092 793.71453 -119.4518)
(-3988.0043 848.83906 -103.69796)
(-4008.1466 837.08694 -103.38622)
(-4028.6732 825.66181 -102.79008)
(-4245.4294 423.13448 -148.29387)
(-4265.7035 410.82059 -148.55353)
(-4286.5991 398.40804 -148.54559)
(-4211.9776 577.27199 -127.54745)
(-4232.1629 564.94321 -128.08342)
(-4253.0427 552.60583 -128.0643)
(-4176.6444 731.33787 -106.99352)
(-4196.8019 719.29686 -107.66949)
(-4217.9329 707.21162 -107.70791)
(-76.639656 -79.469947 -40.212555)
(-69.191615 -82.742096 -13.406827)
(-69.573867 -77.150203 17.539737)
(-136.1052 -170.00779 -57.416938)
(-140.34269 -161.73238 -17.968284)
(-135.22255 -149.8068 14.163802)
(-259.54627 -251.97882 -75.754476)
(-256.77081 -235.58045 -49.557827)
(-253.20266 -226.41698 -11.771777)
(-401.51925 -309.32338 -98.683349)
(-407.8258 -291.40209 -71.91721)
(-404.26073 -279.1635 -46.005576)
(-582.75585 -358.05812 -126.39596)
(-590.6874 -337.36591 -104.75341)
(-587.99734 -319.01421 -83.535818)
(-784.24987 -385.67312 -152.42055)
(-789.95844 -362.22602 -137.04646)
(-792.48867 -345.37357 -119.80053)
(-1001.1196 -399.13 -179.84623)
(-1010.3089 -378.11976 -167.55909)
(-1013.2957 -358.25628 -154.95696)
(-1230.7846 -399.28689 -205.47235)
(-1240.4131 -376.97122 -196.98643)
(-1245.5602 -359.69036 -189.01921)
(-1466.1569 -384.92348 -228.21286)
(-1475.9982 -365.70863 -224.22176)
(-1483.8294 -348.61828 -219.72418)
(-1702.186 -359.50905 -248.7052)
(-1714.1517 -342.35543 -246.90022)
(-1723.3339 -327.46862 -245.33982)
(-1936.8144 -324.07189 -263.67905)
(-1949.138 -310.37219 -264.94828)
(-1960.2057 -298.08921 -266.66615)
(-2165.4835 -281.09654 -275.29537)
(-2178.9577 -270.76297 -278.87433)
(-2192.1007 -261.30177 -282.57085)
(-2386.6128 -232.38483 -282.2676)
(-2400.985 -225.68414 -287.38196)
(-2415.4983 -219.35243 -292.72978)
(-2598.192 -180.17728 -284.88775)
(-2613.3409 -177.12765 -291.18633)
(-2629.4074 -173.77884 -297.62954)
(-2799.4352 -126.1035 -283.57851)
(-2815.5331 -126.40626 -290.40474)
(-2832.7777 -126.09369 -297.32676)
(-2990.3027 -72.003254 -278.5009)
(-3007.0698 -75.493266 -285.4225)
(-3025.4193 -77.894833 -292.42397)
(-3171.1695 -19.272456 -270.3591)
(-3188.7484 -25.388246 -276.97856)
(-3207.9251 -30.246152 -283.49576)
(-3343.1367 31.089548 -259.60553)
(-3361.377 22.743527 -265.45819)
(-3381.2206 15.715194 -271.22058)
(-3507.8561 78.423961 -246.77909)
(-3526.5275 68.348639 -251.76947)
(-3546.9366 59.726937 -256.46916)
(-3666.6617 122.09404 -232.34691)
(-3685.8873 111.02805 -236.38013)
(-3706.5236 100.85935 -239.78732)
(-3821.8028 162.7849 -217.20741)
(-3841.3312 150.89357 -220.01201)
(-3862.2915 139.81452 -222.18529)
(-3974.64 200.49473 -201.55813)
(-3994.9269 188.21064 -203.05218)
(-4015.7199 176.29943 -204.19535)
(-4127.3759 235.68692 -184.97566)
(-4147.7178 223.25256 -185.73383)
(-4168.4224 211.07926 -186.42477)
(3.0066311 -17.124638 25.461822)
(-80.913166 -63.827646 7.3835081)
(-192.58271 -73.419016 -21.497711)
(-358.69997 -96.34419 -46.152389)
(-543.55214 -107.57655 -80.957305)
(-753.29834 -114.66128 -111.90723)
(-980.24523 -115.00413 -145.16324)
(-1215.1826 -107.4936 -175.53423)
(-1457.9603 -95.813195 -202.56163)
(-1701.1787 -76.793591 -227.13722)
(-1941.6176 -54.185564 -245.73956)
(-2176.3127 -26.810285 -260.42266)
(-2402.6235 3.3457937 -269.67734)
(-2618.7367 35.975291 -273.90561)
(-2823.9672 70.240631 -273.4726)
(-3017.8592 105.23049 -268.60406)
(-3200.9865 140.66496 -259.98907)
(-3374.2865 176.01264 -248.1823)
(-3539.3647 211.04515 -233.96368)
(-3697.783 245.83857 -217.88629)
(-3851.9268 280.47909 -200.88093)
(-4003.565 314.82406 -183.43898)
(-4154.3402 349.97792 -165.64816)
(14.728057 -6.7006683 -12.836631)
(-71.032986 7.714771 -21.904735)
(-192.57054 26.787397 -43.929678)
(-351.52752 31.350972 -64.313864)
(-531.83416 46.793593 -89.20309)
(-739.44753 58.514813 -117.26354)
(-960.18239 74.833674 -143.38061)
(-1192.4781 91.20363 -168.86058)
(-1431.3627 111.45176 -192.60412)
(-1671.0345 132.18701 -211.88631)
(-1908.9068 155.77102 -228.19867)
(-2141.7018 180.54822 -240.03345)
(-2366.2013 206.43003 -247.26217)
(-2581.614 233.61359 -250.16103)
(-2786.3054 261.27967 -248.84724)
(-2980.1065 289.66336 -243.64046)
(-3163.4924 318.48626 -235.07201)
(-3337.2329 347.68937 -223.64691)
(-3502.7562 377.65028 -210.0365)
(-3661.8801 408.02556 -194.71586)
(-3816.5355 439.65147 -178.54332)
(-3968.5876 471.91981 -161.61836)
(-4119.7777 505.96365 -144.71229)
(22.033753 34.813183 -39.895186)
(-84.228172 62.478298 -51.379428)
(-195.84421 135.59573 -78.311229)
(-345.27575 149.95985 -82.534829)
(-526.72955 201.80872 -108.73626)
(-726.99242 234.38178 -128.04754)
(-943.36606 263.65635 -147.25657)
(-1172.3666 296.97859 -168.69888)
(-1405.9126 320.68158 -185.58218)
(-1642.703 347.40175 -201.15804)
(-1877.5176 370.0703 -213.18301)
(-2107.8 392.39062 -221.42014)
(-2330.7782 413.59257 -226.17175)
(-2545.072 434.17764 -226.91705)
(-2749.1043 454.82362 -224.36871)
(-2942.8596 475.52559 -218.32299)
(-3126.4077 497.01797 -209.58258)
(-3300.5093 519.63833 -198.37584)
(-3466.5784 543.7779 -185.29857)
(-3626.1227 569.75253 -170.88661)
(-3781.1875 597.95691 -155.44554)
(-3933.626 628.25681 -139.75017)
(-4085.4374 660.86654 -123.43734)
(-21.329407 -22.270997 -29.139406)
(-19.487925 -24.07636 -14.688136)
(-26.448423 -16.479884 11.157651)
(-107.99988 -95.286433 -36.029813)
(-116.34453 -86.049858 -17.877048)
(-104.73359 -78.941687 -0.47004968)
(-224.16415 -128.68191 -57.070178)
(-223.18405 -113.23368 -44.213105)
(-220.96337 -97.27312 -30.794906)
(-372.76432 -162.41739 -80.980521)
(-380.47679 -145.31626 -68.879979)
(-376.87031 -125.00027 -55.726521)
(-553.84389 -181.41328 -105.57369)
(-560.44175 -159.3937 -97.570378)
(-559.78076 -137.53789 -88.441904)
(-755.75492 -189.86101 -134.44724)
(-762.87871 -168.68237 -128.13346)
(-761.58414 -145.00891 -119.82967)
(-973.12822 -189.19812 -161.53835)
(-981.27795 -167.56013 -157.16019)
(-984.60241 -144.36211 -151.61565)
(-1202.7773 -178.9977 -187.554)
(-1211.8545 -157.20459 -184.91848)
(-1215.1091 -134.99411 -180.90004)
(-1437.781 -158.73622 -211.46677)
(-1446.7182 -140.07273 -210.44664)
(-1452.9877 -120.21223 -207.88585)
(-1674.2637 -132.4621 -231.22125)
(-1684.4698 -115.8134 -231.41972)
(-1692.344 -97.873237 -230.12749)
(-1909.0375 -98.998855 -247.54827)
(-1919.3926 -85.475769 -248.99745)
(-1929.1783 -71.430353 -249.04196)
(-2137.6298 -60.802553 -259.4522)
(-2149.1045 -51.035722 -261.44835)
(-2160.8478 -39.649173 -262.2983)
(-2358.9759 -19.344771 -266.63179)
(-2371.2028 -12.891159 -269.31888)
(-2384.4835 -5.2454062 -271.02114)
(-2570.4871 24.59341 -269.51137)
(-2583.6238 27.322125 -272.53054)
(-2598.5536 31.717733 -274.62401)
(-2771.7249 69.284763 -268.06466)
(-2785.926 68.822564 -271.20646)
(-2802.1657 69.887822 -273.6307)
(-2962.4109 114.04039 -262.85128)
(-2977.5283 110.42725 -265.95686)
(-2994.9935 108.56142 -268.45432)
(-3142.8573 157.73534 -254.30786)
(-3159.0684 151.61568 -257.2047)
(-3177.5145 147.14634 -259.54519)
(-3314.2951 200.12613 -243.01937)
(-3331.3813 191.88539 -245.50529)
(-3350.6444 185.09225 -247.62267)
(-3478.0087 240.78789 -229.54252)
(-3496.0836 230.65826 -231.64029)
(-3515.9146 222.20494 -233.33674)
(-3635.887 279.23372 -214.53146)
(-3654.4056 268.40971 -216.00204)
(-3674.8482 258.33326 -217.3403)
(-3789.8264 316.44035 -198.56541)
(-3808.9794 305.02062 -199.303)
(-3829.6714 293.80621 -200.37759)
(-3941.4184 352.37466 -181.97468)
(-3961.3761 340.29791 -182.54782)
(-3982.0567 328.479 -182.98733)
(-4092.3901 387.60757 -164.87432)
(-4112.6183 375.19842 -165.23687)
(-4133.4243 363.08625 -165.42567)
(-2.4343593 -9.2511933 -5.0721784)
(-8.2169475 -9.4983251 0.82481918)
(-13.612709 -6.8588057 -3.5553795)
(-91.319969 -20.381654 -11.867368)
(-98.416575 -14.256607 -12.656066)
(-88.536992 -1.3621742 -14.262105)
(-209.10142 -25.610938 -38.654426)
(-211.9225 -9.4508691 -42.860724)
(-212.7767 6.1121586 -40.121239)
(-355.05816 -24.969021 -60.776203)
(-368.3477 -5.0221877 -62.698707)
(-362.81196 18.132615 -61.628465)
(-537.81896 -19.899825 -90.421034)
(-544.48819 3.5160379 -94.519186)
(-541.89591 23.461297 -88.50844)
(-735.55997 -9.170049 -119.40731)
(-743.71391 14.476655 -120.0493)
(-744.21444 38.429335 -117.91072)
(-952.03829 6.0237058 -146.45281)
(-960.31479 30.857425 -148.78355)
(-961.34884 54.084079 -144.01369)
(-1179.9182 28.598218 -174.72429)
(-1187.0115 50.691685 -175.20091)
(-1190.2717 71.62482 -171.90206)
(-1412.2185 53.294483 -197.41893)
(-1419.7009 73.713322 -197.70319)
(-1425.4244 94.206773 -194.76786)
(-1647.6944 83.480885 -218.44793)
(-1655.4098 100.82358 -218.66692)
(-1662.7295 117.96835 -215.77471)
(-1880.0229 116.3324 -234.65516)
(-1888.1451 130.32744 -234.03745)
(-1897.4184 144.56092 -231.64901)
(-2107.7362 151.54459 -246.17985)
(-2116.6459 161.61793 -245.59087)
(-2127.8414 172.72711 -243.7741)
(-2327.7309 188.36739 -253.32337)
(-2337.5276 194.84856 -252.59145)
(-2350.2156 202.46335 -250.92473)
(-2538.3958 225.88309 -255.67484)
(-2549.2562 228.64939 -254.69514)
(-2563.6758 232.79537 -253.5255)
(-2739.0615 263.58859 -253.74576)
(-2751.2021 262.83268 -252.85384)
(-2766.9249 263.87421 -251.93757)
(-2929.18 300.76735 -247.84791)
(-2942.5517 297.033 -246.90929)
(-2959.5821 295.04448 -246.27422)
(-3109.3692 337.29106 -238.52956)
(-3124.1528 330.92459 -237.68347)
(-3142.132 326.37846 -237.2334)
(-3280.5721 372.9075 -226.36458)
(-3296.5177 364.4196 -225.55532)
(-3315.4169 357.56642 -225.33561)
(-3443.9209 407.64045 -211.98395)
(-3461.229 397.52603 -211.41727)
(-3480.765 388.88754 -211.23252)
(-3601.6653 441.62495 -196.18161)
(-3620.0972 430.18028 -195.48755)
(-3639.8807 420.40818 -195.46619)
(-3755.166 475.34233 -178.66495)
(-3774.8814 463.20579 -179.1141)
(-3794.8248 452.29181 -178.94001)
(-3906.8036 508.85423 -162.00859)
(-3926.7107 496.72693 -161.66417)
(-3947.2251 484.80727 -161.78648)
(-4057.9532 542.73241 -144.37181)
(-4078.136 530.41668 -144.3793)
(-4098.9893 518.45917 -144.62248)
(-0.52734682 16.441829 9.9488248)
(1.3190192 15.762384 -3.5645022)
(-0.73264942 17.640297 -17.605516)
(-99.469375 41.622146 0.73795814)
(-107.44153 37.181959 -17.028462)
(-103.95724 53.463709 -32.90156)
(-203.38495 73.484316 -20.740847)
(-212.3255 101.01188 -36.848335)
(-216.60304 114.7101 -54.953073)
(-357.38589 110.07217 -44.525654)
(-362.31398 120.19089 -58.64235)
(-364.68596 140.62668 -70.122321)
(-528.98254 137.03902 -74.506118)
(-537.10979 162.73072 -85.686686)
(-540.26422 181.82937 -94.15565)
(-726.17178 170.53899 -101.69335)
(-732.22036 192.85356 -109.90063)
(-735.67704 215.31812 -116.7115)
(-939.03751 203.9366 -131.98534)
(-944.91973 226.14459 -138.42596)
(-949.41043 246.08209 -142.27328)
(-1161.3682 234.58748 -158.47149)
(-1167.426 257.08371 -161.55797)
(-1172.8426 277.75046 -163.89729)
(-1391.3214 268.3203 -183.06594)
(-1397.755 287.46528 -185.11212)
(-1403.7569 306.03683 -185.64327)
(-1622.489 300.88456 -204.34955)
(-1629.3067 318.46568 -204.08976)
(-1636.4078 333.76296 -202.61976)
(-1852.3189 333.35235 -220.67291)
(-1859.921 347.06706 -219.0916)
(-1868.0764 359.90563 -216.76723)
(-2077.5182 365.76393 -232.86867)
(-2085.9552 376.15028 -230.26039)
(-2095.3624 385.47522 -226.68835)
(-2295.4618 397.04686 -240.00151)
(-2305.0293 404.10992 -236.37776)
(-2315.7229 410.01908 -232.25218)
(-2504.9101 428.08106 -242.29281)
(-2515.6324 431.33044 -238.24293)
(-2527.7312 433.79809 -233.76389)
(-2704.4964 458.01388 -240.07731)
(-2716.548 458.09666 -235.82563)
(-2730.0685 457.54736 -231.24163)
(-2894.1376 487.35897 -233.64913)
(-2907.549 484.524 -229.40603)
(-2922.3398 480.97941 -225.01429)
(-3074.1045 516.26565 -223.60346)
(-3088.8272 510.74936 -219.67579)
(-3104.9664 504.77726 -215.72432)
(-3245.1319 544.82391 -210.54114)
(-3261.1773 537.35283 -207.13714)
(-3278.4202 529.27391 -203.71974)
(-3408.7765 573.55873 -195.2066)
(-3425.9772 564.29197 -192.39674)
(-3444.2991 554.70074 -189.65363)
(-3566.4533 602.81852 -178.20685)
(-3584.689 592.58433 -176.14472)
(-3603.8052 581.77313 -174.18944)
(-3720.169 632.89723 -160.29201)
(-3739.4107 621.67479 -158.91335)
(-3759.0994 610.16652 -157.6823)
(-3871.8248 664.1785 -142.24978)
(-3891.5059 652.64669 -141.59087)
(-3911.9155 640.76496 -140.85604)
(-4023.2719 696.74945 -124.12189)
(-4043.7734 684.83915 -124.01835)
(-4064.182 672.78468 -123.83385)
)
;

boundaryField
{
    free
    {
        type            zeroGradient;
    }
    fixed
    {
        type            fixedValue;
        value           uniform (0 0 0);
    }
    traction
    {
        type            zeroGradient;
    }
}


// ************************************************************************* //
