/*--------------------------------*- C++ -*----------------------------------*\
  =========                 |
  \\      /  F ield         | OpenFOAM: The Open Source CFD Toolbox
   \\    /   O peration     | Website:  https://openfoam.org
    \\  /    A nd           | Version:  6
     \\/     M anipulation  |
\*---------------------------------------------------------------------------*/
FoamFile
{
    version     2.0;
    format      ascii;
    class       pointVectorField;
    location    "1.72";
    object      u;
}
// * * * * * * * * * * * * * * * * * * * * * * * * * * * * * * * * * * * * * //

dimensions      [0 1 0 0 0 0 0];

internalField   nonuniform List<vector> 
625
(
(0 3.4031385e-19 0)
(0 2.9727833e-19 0)
(-0.98223496 -0.21956729 -0.14123619)
(-1.0071237 0.0002733813 -0.16776575)
(0 4.4348324e-19 0)
(0 2.3247256e-18 0)
(-0.98764085 0.034678579 -0.16859913)
(-0.96281741 -0.18505144 -0.14208983)
(0 -5.1996288e-20 0)
(2.250649e-19 -5.227859e-19 0)
(0 1.0605345e-18 0)
(-0.98840587 -0.16452598 -0.14787983)
(-0.99452097 -0.10975155 -0.15456363)
(-1.000981 -0.05480178 -0.16121399)
(-0.0038043179 -0.013003785 -0.010964127)
(-0.012635147 -0.024776592 -0.01112187)
(-0.026217949 -0.038391676 -0.013234351)
(-0.046096682 -0.050390168 -0.015648115)
(-0.06909484 -0.062086337 -0.018882145)
(-0.09798572 -0.07360428 -0.022914586)
(-0.12946745 -0.084581462 -0.027709805)
(-0.16535652 -0.094708615 -0.032979273)
(-0.20423443 -0.10531323 -0.038798202)
(-0.24596364 -0.11448306 -0.044991089)
(-0.29030555 -0.12416141 -0.051406863)
(-0.33697953 -0.13297633 -0.05814404)
(-0.38567998 -0.14173189 -0.064919149)
(-0.43604134 -0.15000946 -0.071823762)
(-0.48794104 -0.15806248 -0.078711092)
(-0.54095715 -0.16577458 -0.085612737)
(-0.59498812 -0.17321367 -0.09247747)
(-0.64965198 -0.18039434 -0.099339225)
(-0.70486279 -0.18732929 -0.10615748)
(-0.76031631 -0.19404764 -0.1130499)
(-0.81590831 -0.20062233 -0.1199509)
(-0.87151415 -0.20700663 -0.12694374)
(-0.92704139 -0.21325028 -0.13399151)
(0.0011803873 0.0071041814 0.011166423)
(-0.010658128 0.016419992 0.0050988121)
(-0.025841215 0.024705925 0.0032714661)
(-0.046810409 0.032802496 -0.0034980454)
(-0.071976004 0.038369093 -0.0091080703)
(-0.10292117 0.044899103 -0.016666813)
(-0.13653473 0.048404937 -0.024052113)
(-0.1747338 0.052100759 -0.032635212)
(-0.21581379 0.05423949 -0.041043792)
(-0.25962521 0.055272779 -0.050128845)
(-0.30629388 0.055590254 -0.059248708)
(-0.35477554 0.054916521 -0.068479972)
(-0.40529982 0.053325187 -0.077744601)
(-0.45717187 0.05110339 -0.086866321)
(-0.51038301 0.048047564 -0.095930742)
(-0.56441047 0.044426774 -0.10471789)
(-0.61924058 0.040189668 -0.11338413)
(-0.67444629 0.035460856 -0.12172053)
(-0.73000275 0.030261221 -0.12991502)
(-0.78554674 0.024723851 -0.13779411)
(-0.84123445 0.018876372 -0.14556605)
(-0.89664235 0.012794738 -0.15304629)
(-0.95209915 0.006568321 -0.16058445)
(0 3.1255322e-19 0)
(-4.0293111e-18 -8.6697208e-19 0)
(0 2.1733722e-18 0)
(-0.0038505072 0.0068952706 -0.0093399676)
(-0.013123374 0.029447268 -0.014119529)
(-0.027126485 0.034944463 -0.01548293)
(-0.045868673 0.049213748 -0.020278564)
(-0.07122487 0.058850622 -0.026032558)
(-0.099765689 0.067283941 -0.030984229)
(-0.13242793 0.073909883 -0.03832695)
(-0.16949595 0.08011317 -0.045197166)
(-0.20889689 0.083471772 -0.052584815)
(-0.2518603 0.086901154 -0.060633925)
(-0.2964983 0.087731949 -0.0684562)
(-0.34401115 0.088479952 -0.076770696)
(-0.39279534 0.087285434 -0.084813518)
(-0.44353941 0.085653924 -0.093027972)
(-0.4953958 0.082796789 -0.10102259)
(-0.54839507 0.079320496 -0.10898755)
(-0.6022114 0.075049388 -0.11674157)
(-0.65664735 0.070261295 -0.12442111)
(-0.71152801 0.064967741 -0.13193303)
(-0.76666849 0.059281392 -0.13934328)
(-0.82193543 0.053359642 -0.1467185)
(-0.87723405 0.047186594 -0.15397193)
(-0.93253402 0.040993251 -0.16127167)
(-0.98151552 -0.020290471 -0.16190246)
(-0.97510779 -0.075312412 -0.15531221)
(-0.96900445 -0.13010857 -0.14870606)
(-0.90770049 -0.17879448 -0.13473984)
(-0.85240341 -0.17253341 -0.12740399)
(-0.79724298 -0.16603843 -0.12011154)
(-0.74211967 -0.15941733 -0.11276975)
(-0.68727245 -0.15253254 -0.10537274)
(-0.63278038 -0.14546123 -0.097940571)
(-0.57886284 -0.13814144 -0.09041058)
(-0.52568518 -0.13059275 -0.082828584)
(-0.4734934 -0.12288105 -0.075153073)
(-0.42247479 -0.1149493 -0.067457451)
(-0.37290641 -0.10695371 -0.059678874)
(-0.32505433 -0.098754707 -0.052001239)
(-0.2790812 -0.09067807 -0.044225073)
(-0.23540915 -0.082308821 -0.036789241)
(-0.19439081 -0.074026952 -0.029345186)
(-0.1560347 -0.065629171 -0.022313349)
(-0.12084954 -0.057873801 -0.015314628)
(-0.089557292 -0.048956079 -0.009550008)
(-0.061662937 -0.041288728 -0.0031459257)
(-0.038613576 -0.032145215 0.00099082666)
(-0.019562801 -0.025120119 0.0056339349)
(-0.0061741036 -0.014388684 0.0086980098)
(-0.0019991222 -0.0085258258 0.0074932269)
(0 -5.5589753e-19 0)
(0 -5.7811033e-19 -1.1924103e-18)
(0 -1.704017e-18 0)
(0 9.6772722e-19 0)
(0 -1.0707716e-19 3.4141914e-19)
(0 7.370771e-19 0)
(-1.0022188 0.0088255799 -0.1680164)
(-0.99741017 0.017504068 -0.16817283)
(-0.99253541 0.026064154 -0.16839193)
(-0.97739174 -0.21097657 -0.14149476)
(-0.97253833 -0.20231145 -0.14169444)
(-0.96765797 -0.1936693 -0.1418774)
(0.00018443969 -0.022001294 -0.0070171841)
(-0.0093478783 -0.042705624 -0.0061979086)
(-0.022324627 -0.062444236 -0.0093629376)
(-0.041730794 -0.078468254 -0.011826518)
(-0.064110369 -0.091747512 -0.016050996)
(-0.092670854 -0.10106277 -0.020702677)
(-0.12395812 -0.10599407 -0.026259321)
(-0.16062474 -0.10745177 -0.032283121)
(-0.2002206 -0.10533053 -0.039000747)
(-0.24391601 -0.10012552 -0.046083505)
(-0.29051396 -0.093281351 -0.053478564)
(-0.33991705 -0.08498215 -0.061102814)
(-0.39143268 -0.076846167 -0.068811053)
(-0.44470751 -0.069579647 -0.076497945)
(-0.49915347 -0.064289462 -0.084170369)
(-0.55432262 -0.06174295 -0.091680902)
(-0.60981612 -0.062567754 -0.099091016)
(-0.66521831 -0.067226891 -0.10631182)
(-0.72039716 -0.075773616 -0.11343935)
(-0.77500723 -0.088160333 -0.12039345)
(-0.82915224 -0.10394169 -0.12727834)
(-0.88272419 -0.12249521 -0.13415786)
(-0.93580248 -0.14305374 -0.14099099)
(0.0040152031 -0.0029732626 -0.0016984344)
(-0.0068180191 -0.0045856918 -0.0034330173)
(-0.020616461 -0.0077975124 -0.0059995203)
(-0.041034006 -0.0098660689 -0.010368477)
(-0.066144079 -0.012705845 -0.014916456)
(-0.095672611 -0.01513607 -0.020545649)
(-0.12909422 -0.018622248 -0.026478084)
(-0.16663359 -0.021704842 -0.033366648)
(-0.20687347 -0.025657386 -0.040358472)
(-0.25046503 -0.029503193 -0.047824253)
(-0.29617206 -0.034082331 -0.055450281)
(-0.34426257 -0.038657282 -0.063309759)
(-0.3941584 -0.043762658 -0.071178465)
(-0.44560795 -0.049012395 -0.079099011)
(-0.49836219 -0.054568236 -0.087002172)
(-0.55209922 -0.060289458 -0.094783855)
(-0.60664236 -0.066194911 -0.10254023)
(-0.66170583 -0.072264945 -0.11012653)
(-0.71714631 -0.078344246 -0.11769454)
(-0.77273536 -0.084660641 -0.12507906)
(-0.82841933 -0.090835162 -0.13257241)
(-0.88395118 -0.097187582 -0.13984364)
(-0.93937815 -0.10350992 -0.1472326)
(0.0052061742 0.017592621 0.0034685509)
(-0.0072725261 0.034963018 0.00087709125)
(-0.021424255 0.04999247 -0.0025951653)
(-0.044566507 0.062261483 -0.0079438528)
(-0.07072316 0.070678636 -0.013637708)
(-0.10200241 0.07331076 -0.020169103)
(-0.13681292 0.072227367 -0.027414863)
(-0.17466786 0.065849941 -0.034802536)
(-0.21491081 0.055441931 -0.042419463)
(-0.25776809 0.041616489 -0.050310828)
(-0.3021776 0.02497487 -0.058170317)
(-0.34872052 0.0069652663 -0.066159401)
(-0.39658947 -0.011667225 -0.074088202)
(-0.44617949 -0.029655243 -0.08207059)
(-0.49710895 -0.046029959 -0.090015684)
(-0.5494977 -0.059972 -0.097960309)
(-0.60315058 -0.07075061 -0.1059033)
(-0.65797528 -0.077978228 -0.11382068)
(-0.71383957 -0.081456028 -0.12174392)
(-0.77048427 -0.081314202 -0.12964638)
(-0.82772789 -0.077846336 -0.13753498)
(-0.88536576 -0.07178642 -0.14541493)
(-0.94317016 -0.063698543 -0.1533121)
(0 -3.4910742e-19 0)
(0 5.8209986e-19 1.2209788e-18)
(0 1.2650775e-18 0)
(-5.9833993e-19 1.1947118e-20 0)
(2.4991292e-19 -3.7029456e-19 -1.8443236e-20)
(-1.5749504e-18 -1.4164108e-18 0)
(0 5.3350541e-19 0)
(0 1.4338091e-18 -3.8133011e-20)
(0 1.5755096e-18 0)
(-0.0034592007 0.0033365992 0.0050871728)
(-0.0054924347 0.0050976079 0.0010270949)
(-0.0054965094 0.0037619961 -0.0027748626)
(-0.016273347 0.021867048 0.0012576184)
(-0.016503137 0.023873748 -0.003120193)
(-0.016327818 0.023992834 -0.0081833078)
(-0.029254093 0.027008051 -0.0012786802)
(-0.030726224 0.028342742 -0.0053844167)
(-0.030677978 0.033017715 -0.011257716)
(-0.050082597 0.037119854 -0.0075495145)
(-0.050741588 0.041767199 -0.011463092)
(-0.049299231 0.0436911 -0.015846974)
(-0.075374247 0.044154863 -0.013053345)
(-0.075485885 0.047782535 -0.016415299)
(-0.07477671 0.053116722 -0.021523035)
(-0.10485452 0.050402521 -0.01999387)
(-0.10496297 0.05602733 -0.023808414)
(-0.10329504 0.060911786 -0.027502971)
(-0.13854194 0.055317739 -0.027680509)
(-0.13799534 0.06125535 -0.030405015)
(-0.13637547 0.066954137 -0.034719632)
(-0.17615318 0.059542721 -0.035628655)
(-0.17492823 0.065654517 -0.038407385)
(-0.17332776 0.072151742 -0.041947417)
(-0.21628966 0.061586325 -0.044057856)
(-0.2151308 0.068706537 -0.046564033)
(-0.21272156 0.075521608 -0.049812358)
(-0.26007277 0.06364559 -0.052774204)
(-0.25811632 0.070985025 -0.055005692)
(-0.25579759 0.078141935 -0.057960143)
(-0.30559035 0.063924885 -0.061643197)
(-0.30350315 0.0714414 -0.063700803)
(-0.30064223 0.079114577 -0.066286408)
(-0.35382818 0.063632522 -0.070719843)
(-0.35118291 0.07159463 -0.072435319)
(-0.34811467 0.079348768 -0.074730349)
(-0.40347175 0.062198477 -0.079644182)
(-0.40055689 0.07018225 -0.081131912)
(-0.39718905 0.078334799 -0.083191278)
(-0.45495153 0.060115631 -0.088581209)
(-0.45162532 0.068328108 -0.089885834)
(-0.4479128 0.076493043 -0.091600902)
(-0.50746353 0.057102925 -0.097355307)
(-0.50383394 0.065339473 -0.098372938)
(-0.49995686 0.073779895 -0.099867013)
(-0.56109009 0.053505432 -0.10590843)
(-0.55721298 0.061902312 -0.10679823)
(-0.55302468 0.070307258 -0.10804062)
(-0.61542619 0.049251537 -0.11432397)
(-0.61126937 0.057615651 -0.11499561)
(-0.60692247 0.066152741 -0.11600077)
(-0.67028905 0.044424441 -0.12244539)
(-0.66596011 0.052909499 -0.12299751)
(-0.6614263 0.061435856 -0.12382801)
(-0.72550579 0.0392016 -0.13043866)
(-0.72100063 0.047671637 -0.1308536)
(-0.71635233 0.056239784 -0.13148389)
(-0.78088965 0.033526255 -0.13816684)
(-0.7763045 0.042077187 -0.13848247)
(-0.77152795 0.050636298 -0.13899484)
(-0.83638057 0.027643918 -0.1457799)
(-0.83162279 0.036163168 -0.14606386)
(-0.82679785 0.044740391 -0.14645078)
(-0.89174548 0.021449019 -0.15325164)
(-0.88697126 0.030052165 -0.15348926)
(-0.88210802 0.038636425 -0.15374515)
(-0.94709379 0.015225925 -0.160683)
(-0.94230593 0.023865824 -0.16084955)
(-0.93739749 0.03243586 -0.16109072)
(-0.98357855 -0.15595138 -0.14810714)
(-0.97872843 -0.14733974 -0.14831412)
(-0.97384684 -0.13871636 -0.14850525)
(-0.98963246 -0.10115056 -0.15474878)
(-0.98482455 -0.092505367 -0.15493111)
(-0.97995649 -0.083907911 -0.15515809)
(-0.99618164 -0.046062624 -0.1614073)
(-0.99129555 -0.037453687 -0.16149641)
(-0.98642498 -0.02885039 -0.16173367)
(-0.0087250423 -0.010275025 -0.0042451932)
(-0.0071702971 -0.010307526 -0.00045613986)
(-0.0074474952 -0.0078640815 0.0039459719)
(-0.015459514 -0.022339567 -0.0046321235)
(-0.014902372 -0.019708172 0.00038098602)
(-0.012139028 -0.017136475 0.0051509232)
(-0.029547133 -0.036052788 -0.0071079335)
(-0.027782748 -0.032367452 -0.0033729409)
(-0.026027134 -0.029392265 0.0024735536)
(-0.047570474 -0.045587392 -0.010116445)
(-0.046982878 -0.041176907 -0.0062511757)
(-0.044123509 -0.0370351 -0.0016584075)
(-0.070917853 -0.058146694 -0.014245632)
(-0.069607743 -0.052858407 -0.010273943)
(-0.066802984 -0.047558847 -0.0060989898)
(-0.098648743 -0.067896854 -0.018724546)
(-0.097161327 -0.061151659 -0.01585985)
(-0.094639013 -0.055829211 -0.011856505)
(-0.12989145 -0.078412242 -0.024094655)
(-0.12839453 -0.072249773 -0.021114246)
(-0.12574219 -0.065207541 -0.017600119)
(-0.16541959 -0.088500125 -0.029973001)
(-0.16365808 -0.080715589 -0.027348637)
(-0.16081913 -0.073673353 -0.024200269)
(-0.20351237 -0.098000411 -0.036275365)
(-0.20176583 -0.090223208 -0.03360052)
(-0.19872584 -0.082523529 -0.031224775)
(-0.24516206 -0.10730058 -0.042763378)
(-0.24291475 -0.098968716 -0.041052395)
(-0.24008335 -0.090914216 -0.038314479)
(-0.28910973 -0.11638939 -0.049593159)
(-0.28671451 -0.10801455 -0.047652254)
(-0.2835612 -0.099518181 -0.045635012)
(-0.3355225 -0.12518167 -0.056543818)
(-0.33273366 -0.11638537 -0.055042475)
(-0.32959348 -0.10779919 -0.053220603)
(-0.38377758 -0.13364159 -0.063628864)
(-0.38083208 -0.12487623 -0.062246954)
(-0.37744939 -0.11602472 -0.060750357)
(-0.43389336 -0.14191491 -0.070685056)
(-0.43057813 -0.13297049 -0.069609969)
(-0.42709153 -0.12404221 -0.068345073)
(-0.48536556 -0.14984608 -0.077820459)
(-0.4818631 -0.14090761 -0.076907115)
(-0.47814111 -0.13192498 -0.075901241)
(-0.53809371 -0.15753861 -0.084856171)
(-0.53427774 -0.14858014 -0.084188702)
(-0.53040786 -0.13957268 -0.083390735)
(-0.59172602 -0.16494415 -0.091927604)
(-0.58771336 -0.15600958 -0.091410663)
(-0.58362533 -0.14704178 -0.090844918)
(-0.64607914 -0.17210148 -0.098909279)
(-0.64184092 -0.16321366 -0.098602906)
(-0.63760022 -0.15426123 -0.098205957)
(-0.70097269 -0.17899727 -0.1059142)
(-0.69655655 -0.17014491 -0.10573321)
(-0.69211359 -0.16127081 -0.105519)
(-0.75613776 -0.18567646 -0.1129129)
(-0.75153489 -0.17690519 -0.1128714)
(-0.74700107 -0.1680705 -0.11279505)
(-0.81147771 -0.19219482 -0.11992113)
(-0.80682249 -0.18343487 -0.11998533)
(-0.80212956 -0.17466049 -0.12004339)
(-0.86690953 -0.19852629 -0.12702364)
(-0.86210335 -0.18980719 -0.12716889)
(-0.85731598 -0.18111354 -0.1272739)
(-0.92221134 -0.20471237 -0.13416529)
(-0.91738603 -0.19604498 -0.1343583)
(-0.9125599 -0.18739714 -0.13456025)
(0.0017202517 -0.017329597 0.0033937288)
(-0.0049613108 -0.037848361 0.0025969032)
(-0.016707014 -0.048939725 -0.00077372051)
(-0.036228557 -0.062983197 -0.0039217271)
(-0.057769107 -0.07237135 -0.0081093293)
(-0.085692166 -0.077642306 -0.013892039)
(-0.11679875 -0.080750585 -0.019763954)
(-0.15240317 -0.07915767 -0.026797743)
(-0.19147282 -0.075438747 -0.033958618)
(-0.23427496 -0.068567901 -0.041946489)
(-0.27984673 -0.060540811 -0.049899301)
(-0.32826488 -0.05138281 -0.058299774)
(-0.37871878 -0.042700878 -0.066610098)
(-0.43091584 -0.035099896 -0.074943588)
(-0.48433905 -0.029652881 -0.083134036)
(-0.53852618 -0.027085128 -0.091134086)
(-0.59312223 -0.027962828 -0.098947333)
(-0.64778262 -0.032693186 -0.1065117)
(-0.70225619 -0.04133132 -0.11387484)
(-0.75639109 -0.053781065 -0.12106676)
(-0.81012604 -0.069587113 -0.12806907)
(-0.86339688 -0.088127732 -0.13501577)
(-0.91641314 -0.10865888 -0.14187972)
(0.004112165 -0.00086090859 -0.001300333)
(-0.0041737839 0.0033030853 -0.0028375332)
(-0.018904321 0.0055326033 -0.0065693475)
(-0.038063002 0.0068308185 -0.010099551)
(-0.061459311 0.0070815677 -0.014745575)
(-0.090992847 0.0087978609 -0.021354483)
(-0.12276446 0.0067621831 -0.0269814)
(-0.15950466 0.0067353708 -0.034256772)
(-0.19867998 0.004043002 -0.041254023)
(-0.2411325 0.0021311612 -0.049056368)
(-0.28569784 -0.0015979935 -0.056539051)
(-0.33284199 -0.0050356054 -0.064593707)
(-0.38147731 -0.0096743305 -0.072358031)
(-0.43193229 -0.014378241 -0.080385655)
(-0.48355857 -0.019825786 -0.088165307)
(-0.53633305 -0.025399007 -0.096024044)
(-0.58994749 -0.031388653 -0.10369333)
(-0.64423017 -0.037494202 -0.11129005)
(-0.69898041 -0.043753864 -0.11880477)
(-0.75405753 -0.050096607 -0.1261854)
(-0.80934107 -0.056407385 -0.13351424)
(-0.86461119 -0.062780283 -0.14081365)
(-0.91997026 -0.069065549 -0.14800919)
(0.0046656178 0.0217278 -0.0066853122)
(-0.0082673126 0.042690478 -0.0088076356)
(-0.022118571 0.06647869 -0.013844811)
(-0.042475792 0.078849322 -0.01640159)
(-0.068016925 0.092627675 -0.022881521)
(-0.098981411 0.098201919 -0.028247585)
(-0.13138445 0.099094743 -0.034487127)
(-0.16907301 0.095353426 -0.041534933)
(-0.2075314 0.086451863 -0.04846817)
(-0.24943692 0.073976201 -0.055753537)
(-0.29245856 0.058485724 -0.063137884)
(-0.3377057 0.041131689 -0.070632516)
(-0.38436034 0.02312207 -0.078169862)
(-0.43269502 0.0053826333 -0.085712348)
(-0.48254201 -0.010806349 -0.093272468)
(-0.53386679 -0.024704061 -0.1008402)
(-0.58661767 -0.035554138 -0.1083897)
(-0.6406193 -0.042887817 -0.11594722)
(-0.69582163 -0.046526945 -0.12353531)
(-0.75193088 -0.04651319 -0.13108577)
(-0.80880775 -0.043193738 -0.13876249)
(-0.86615917 -0.037223107 -0.14640272)
(-0.92381538 -0.029203694 -0.15413642)
(-0.0022648784 -0.017775355 -0.0025843634)
(-0.0019261511 -0.01800743 -0.00065189043)
(-0.0024159746 -0.016848759 0.0018896056)
(-0.011955465 -0.041924179 -0.0031661351)
(-0.012753082 -0.039748336 -0.00080382798)
(-0.009851511 -0.038683647 0.0018865117)
(-0.025221685 -0.058896495 -0.0061035737)
(-0.023290759 -0.055956358 -0.0039243106)
(-0.022249156 -0.053583326 -0.0017688405)
(-0.043261023 -0.075408733 -0.0091099599)
(-0.043557744 -0.07146695 -0.0066842377)
(-0.041167061 -0.067496617 -0.0050116721)
(-0.066128758 -0.087366095 -0.013067271)
(-0.065023667 -0.082356658 -0.011502551)
(-0.06294246 -0.077949794 -0.0091461248)
(-0.093647793 -0.095798598 -0.018366886)
(-0.09293609 -0.090149211 -0.016342849)
(-0.090329342 -0.084962852 -0.014724801)
(-0.12490034 -0.10014227 -0.023975292)
(-0.12362117 -0.094172615 -0.022207179)
(-0.12137309 -0.087669378 -0.020642379)
(-0.16087756 -0.10121971 -0.030290396)
(-0.1596932 -0.093820469 -0.02876755)
(-0.15697565 -0.087312849 -0.027540265)
(-0.20038238 -0.098079623 -0.037219693)
(-0.19853107 -0.091002506 -0.035943867)
(-0.1958435 -0.083557695 -0.034652926)
(-0.24351794 -0.092955252 -0.04462012)
(-0.24143028 -0.085123559 -0.043345868)
(-0.23876049 -0.077269812 -0.042458127)
(-0.2896492 -0.085524331 -0.052168046)
(-0.28728497 -0.077360072 -0.051129414)
(-0.28428155 -0.069184681 -0.050448363)
(-0.33859633 -0.077095052 -0.060040494)
(-0.33586547 -0.068731842 -0.059262152)
(-0.33277192 -0.060387011 -0.058657159)
(-0.38965198 -0.068793521 -0.067918822)
(-0.38662592 -0.060250264 -0.06725379)
(-0.38328218 -0.051613304 -0.066907556)
(-0.44249938 -0.061435444 -0.075815421)
(-0.43910809 -0.052760841 -0.075420979)
(-0.43558802 -0.044071737 -0.075149342)
(-0.49647258 -0.056073834 -0.083639064)
(-0.4928451 -0.047316024 -0.08336968)
(-0.4890607 -0.038559961 -0.083243225)
(-0.55126883 -0.053476271 -0.091319615)
(-0.54731787 -0.044719218 -0.091229558)
(-0.54333999 -0.035943098 -0.091173757)
(-0.60631885 -0.05430536 -0.098856434)
(-0.60218726 -0.045495937 -0.098879904)
(-0.59797598 -0.036761643 -0.098916501)
(-0.66142891 -0.058892868 -0.1062057)
(-0.65707188 -0.050153735 -0.10634575)
(-0.65267931 -0.041408438 -0.10641752)
(-0.71625046 -0.067467543 -0.11341767)
(-0.71174688 -0.05867424 -0.11360607)
(-0.70717639 -0.050020051 -0.11374656)
(-0.77061309 -0.079748103 -0.12047096)
(-0.76599967 -0.071088093 -0.12076306)
(-0.76132074 -0.062383158 -0.1208925)
(-0.824536 -0.095496001 -0.12742166)
(-0.81988154 -0.08683655 -0.12773654)
(-0.8150436 -0.078200192 -0.12786974)
(-0.87799424 -0.11402052 -0.1343263)
(-0.87320093 -0.1053264 -0.1346315)
(-0.86831124 -0.09673201 -0.13480759)
(-0.93095985 -0.13451555 -0.14119406)
(-0.92613812 -0.12586857 -0.14146587)
(-0.92125194 -0.11727408 -0.14163244)
(0.00095533215 -0.0013104047 -0.00021201274)
(0.0005074511 -0.0016069429 0.00038487998)
(-6.6139092e-05 -0.00079781325 0.00052659471)
(-0.0094016485 -0.002902172 -0.0017062306)
(-0.0096319368 -0.0015041316 -0.0011150692)
(-0.0074046685 0.00015590712 -0.0016284972)
(-0.023931407 -0.0048168935 -0.0048284234)
(-0.023478214 -0.0024306724 -0.0055741845)
(-0.022742661 0.001048212 -0.0052500045)
(-0.04319292 -0.0056052868 -0.0088459002)
(-0.043964008 -0.0016419907 -0.0091023754)
(-0.041951014 0.0030148335 -0.0089853405)
(-0.068377873 -0.0080339086 -0.013939413)
(-0.067737365 -0.003617282 -0.014558958)
(-0.065579355 0.0012336712 -0.013846947)
(-0.097021553 -0.0096700803 -0.019657966)
(-0.096680847 -0.0039753387 -0.019762953)
(-0.094505889 0.0019857966 -0.020012034)
(-0.13027099 -0.012509173 -0.025597914)
(-0.12927756 -0.0065196552 -0.026431249)
(-0.1271095 0.00042930212 -0.026253085)
(-0.16709438 -0.015053662 -0.032852953)
(-0.16607507 -0.0080137488 -0.033330764)
(-0.1632462 -0.0012271478 -0.0331893)
(-0.20693387 -0.018457395 -0.039896495)
(-0.20534155 -0.011434573 -0.040334678)
(-0.20277458 -0.0035680576 -0.040541787)
(-0.24987407 -0.022182867 -0.047502332)
(-0.24820532 -0.014160899 -0.048185272)
(-0.24515186 -0.0064061993 -0.0482814)
(-0.29523963 -0.026173107 -0.055281705)
(-0.29307767 -0.018190166 -0.055914737)
(-0.28995811 -0.0098718557 -0.055981007)
(-0.34278116 -0.030648679 -0.063233185)
(-0.34040463 -0.022176269 -0.063887751)
(-0.33697181 -0.01393824 -0.063999037)
(-0.39224473 -0.035505098 -0.071213143)
(-0.38944758 -0.027018936 -0.071859035)
(-0.38585687 -0.01840027 -0.071965705)
(-0.44317826 -0.040643463 -0.079194022)
(-0.4401431 -0.03183166 -0.079855193)
(-0.4362875 -0.023350471 -0.079968636)
(-0.49552605 -0.04608116 -0.087167423)
(-0.49210048 -0.037341919 -0.087765305)
(-0.48809174 -0.028709434 -0.087882401)
(-0.54882096 -0.051773181 -0.094981634)
(-0.54512875 -0.042911582 -0.095579146)
(-0.54092842 -0.034338079 -0.095725704)
(-0.60299797 -0.057655351 -0.10277354)
(-0.59899056 -0.048834664 -0.10330585)
(-0.59466615 -0.040224778 -0.10346296)
(-0.65771827 -0.063686373 -0.1103721)
(-0.65348384 -0.054875698 -0.110862)
(-0.64901444 -0.046304254 -0.11104766)
(-0.71287134 -0.069837808 -0.11794613)
(-0.70841606 -0.061048981 -0.11837976)
(-0.70384903 -0.052469268 -0.11859739)
(-0.76824849 -0.076061323 -0.12532143)
(-0.76359031 -0.067310896 -0.12574474)
(-0.75895878 -0.05875541 -0.12594755)
(-0.82363055 -0.082297055 -0.13279941)
(-0.81915187 -0.073591163 -0.1329984)
(-0.81425249 -0.065026618 -0.13331367)
(-0.87916937 -0.088605512 -0.1400734)
(-0.87428964 -0.079965847 -0.14039589)
(-0.86951282 -0.071299294 -0.14056274)
(-0.93450639 -0.094892013 -0.14739766)
(-0.92966419 -0.086231977 -0.14763225)
(-0.92484116 -0.077696421 -0.14782546)
(0.0016466093 0.018339066 0.0017897858)
(0.0016748289 0.018329629 -0.00020707801)
(0.0015832415 0.018817479 -0.0026221777)
(-0.012002522 0.036646718 -0.00070450768)
(-0.012756839 0.036660415 -0.003222352)
(-0.011288316 0.039899922 -0.0057627594)
(-0.025673863 0.053880951 -0.0043890215)
(-0.025825999 0.058617916 -0.0072742156)
(-0.025981942 0.061783023 -0.010014975)
(-0.048326188 0.067357777 -0.0095866719)
(-0.048185472 0.070221607 -0.011745454)
(-0.047078526 0.074930343 -0.013897445)
(-0.073761375 0.075683401 -0.015419962)
(-0.073317367 0.081519794 -0.01763159)
(-0.072103186 0.086216092 -0.019693871)
(-0.10465814 0.079973789 -0.021649073)
(-0.10415352 0.085544337 -0.023646901)
(-0.10261225 0.091723782 -0.02565199)
(-0.1387256 0.079092846 -0.02891994)
(-0.13747071 0.085651259 -0.030930177)
(-0.13590494 0.091874401 -0.03248728)
(-0.17590509 0.073259158 -0.036246056)
(-0.17486255 0.080387532 -0.037645163)
(-0.1726504 0.087426358 -0.039334857)
(-0.21576506 0.063405144 -0.043678373)
(-0.21385331 0.070880911 -0.045310866)
(-0.2118239 0.078233634 -0.046863419)
(-0.25781536 0.049864642 -0.051588164)
(-0.25598836 0.05760553 -0.052926416)
(-0.25337946 0.065467883 -0.054133891)
(-0.30173261 0.033545943 -0.059300364)
(-0.29934447 0.041702251 -0.060464262)
(-0.29674687 0.049726391 -0.061750555)
(-0.34761862 0.015724773 -0.06719723)
(-0.34500021 0.023909401 -0.068324913)
(-0.34196178 0.032208325 -0.069375578)
(-0.39494909 -0.0027950677 -0.075030606)
(-0.39190619 0.0056574045 -0.076008473)
(-0.38883633 0.014140381 -0.076989513)
(-0.44398015 -0.020649997 -0.082923119)
(-0.4406962 -0.012183599 -0.083824715)
(-0.43723222 -0.0035987259 -0.084695837)
(-0.4944371 -0.037017394 -0.090770703)
(-0.49078225 -0.02846221 -0.091586772)
(-0.48720639 -0.019808065 -0.092348598)
(-0.54634002 -0.050935448 -0.09863931)
(-0.54247652 -0.042372312 -0.099380565)
(-0.53858572 -0.033631296 -0.10003145)
(-0.59958927 -0.061754014 -0.10649256)
(-0.59544678 -0.053131826 -0.10714634)
(-0.5914128 -0.044424431 -0.10771084)
(-0.65404413 -0.069015819 -0.11433545)
(-0.64977107 -0.060407948 -0.11492735)
(-0.64545111 -0.051691466 -0.11536963)
(-0.70961169 -0.072564167 -0.12217819)
(-0.70508249 -0.063930979 -0.1226788)
(-0.70064793 -0.055255879 -0.1230749)
(-0.76595758 -0.072482324 -0.13002397)
(-0.76145471 -0.063839073 -0.13045871)
(-0.75681603 -0.055205894 -0.13070861)
(-0.82311744 -0.069108938 -0.13784788)
(-0.81838231 -0.060449626 -0.13819262)
(-0.81362203 -0.051839058 -0.13846799)
(-0.88061562 -0.063037431 -0.14566788)
(-0.87585253 -0.054423064 -0.1459611)
(-0.87098053 -0.045837531 -0.14618555)
(-0.93832083 -0.055049073 -0.15351215)
(-0.93352037 -0.04637183 -0.15376206)
(-0.92864993 -0.037846149 -0.15392382)
)
;

boundaryField
{
    free
    {
        type            calculated;
    }
    fixed
    {
        type            calculated;
    }
    freeTop
    {
        type            calculated;
    }
}


// ************************************************************************* //
