/*--------------------------------*- C++ -*----------------------------------*\
  =========                 |
  \\      /  F ield         | OpenFOAM: The Open Source CFD Toolbox
   \\    /   O peration     | Website:  https://openfoam.org
    \\  /    A nd           | Version:  6
     \\/     M anipulation  |
\*---------------------------------------------------------------------------*/
FoamFile
{
    version     2.0;
    format      ascii;
    class       pointScalarField;
    location    "0.59";
    object      E;
}
// * * * * * * * * * * * * * * * * * * * * * * * * * * * * * * * * * * * * * //

dimensions      [1 -1 -2 0 0 0 0];

internalField   nonuniform List<scalar> 
3969
(
34271.175
33290.031
5379.159
5007.1385
34484.233
37494.998
5040.6417
5240.9682
17138.252
6796.7558
2341.2999
1833.0342
5100.517
12967.465
28201.223
6211.0212
5593.9935
5347.5167
5155.5574
4957.237
5045.0367
5575.8827
34126.236
28087.889
28132.293
28294.124
27642.54
27075.45
25770.328
24922.791
23391.203
22346.412
21365.494
20347.132
19387.956
18456.2
17620.883
16640.463
15873.131
14964.273
14102.018
13097.252
12109.919
11092.255
10114.009
9192.2664
8277.4718
7471.7526
6504.3267
5675.5176
4888.493
4136.5818
3467.1491
2886.5982
2387.876
2039.0402
1883.1118
1821.473
1941.0256
2153.8453
2428.3184
2689.7185
3135.468
3426.1755
3987.8817
4301.1607
4974.6189
4997.1377
5836.2537
33400.267
23204.088
28954.686
27065.926
28046.772
26553.191
26202.554
24886.965
23906.887
22804.023
21367.409
20530.952
19438.061
18624.602
17500.526
16666.72
15797.162
14690.418
13970.529
12846.574
12014.551
11171.868
10055.517
9255.2576
8346.8204
7639.5756
6627.2771
5964.3995
5146.7713
4412.7757
3846.492
3172.7414
2822.1766
2491.1683
2419.1455
2519.7281
2669.6105
2871.1493
3242.7813
3532.5323
4011.0576
4234.1091
4625.4084
4797.6952
5229.0104
5452.7121
5697.6081
18039.843
7352.039
2371.0803
3360.012
5042.1368
12111.591
24854.192
51930.107
36289.749
24946.597
35124.43
30063.627
30488.159
29784.609
26628.921
27346.846
23251.454
25315.297
23063.409
23084.234
21844.521
20591.175
19902.557
18403.603
17729.592
16560.154
15619.065
14619.263
13651.78
12676.759
11653.338
10694.039
9442.1388
7479.4936
6183.6354
5198.8409
4199.9823
3454.7433
2947.8738
2508.513
2258.3989
1945.9109
1489.8867
2668.5724
2273.464
2300.2689
2587.1572
2813.7247
3215.3925
3521.5359
3926.0403
4311.6273
4518.7148
5201.0263
5797.7788
4799.7081
5470.7697
4660.6437
5028.2066
4919.9482
6185.9531
6152.3535
4972.2759
4867.2961
4321.2657
3807.7785
3352.4122
2967.1316
2629.8228
2400.1265
2338.7114
2425.5873
899.1301
1969.3821
1866.7377
2158.521
2516.8277
3027.3387
3748.337
4518.4599
5491.7534
6426.9264
7485.7221
8465.2321
9440.5179
10396.084
11297.987
12242.151
13131.331
14134.139
14990.527
16056.875
17068.488
18169.446
18458.136
19939.096
21100.005
22602.407
23446.172
24627.788
25593.834
27354.519
27484.015
29834.274
28219.582
28888.251
28145.243
37875.982
22925.295
23569.551
23156.779
23138.131
23003.387
22621.359
23918.997
21072.495
22709.134
24678.808
25656.786
25721
27079.02
22335.688
5050.8939
5240.7218
5158.4168
5201.2734
5168.6049
5223.0999
5184.7217
5554.4506
5533.7781
5539.026
5592.6773
5561.1655
5583.7604
5621.8648
21625.72
17787.034
18447.954
18107.15
18104.089
17817.5
17089.693
16607.688
15797.014
15348.707
14657.254
13907.915
13352.761
12658.655
12109.59
11671.297
11301.948
10847.369
10453.412
9983.2651
9525.0159
9008.8985
8465.7986
7838.1136
7101.0865
6409.9479
5674.5205
5209.297
4775.9364
4479.1479
4239.6297
3979.4519
3695.7271
3460.6541
3229.9682
3078.5896
3022.0239
2886.6299
3015.7418
3131.6544
3450.282
3785.7081
4159.8612
4441.12
4888.1675
4834.0779
6078.0028
9632.1301
8058.9098
8914.1802
8654.5016
8672.9212
8561.5519
7995.1394
7967.8159
7462.3499
7272.932
6906.9608
6628.452
6391.6212
6103.3651
5925.1092
5685.3462
5487.7848
5250.7999
5041.2629
4828.0032
4607.1497
4397.075
4149.9649
3948.9312
3727.0505
3537.0671
3311.6284
3193.6019
3015.4903
2947.2133
2876.6315
2766.1731
2701.8463
2617.5387
2606.2056
2599.0219
2695.7498
2759.3273
3027.7172
3155.1904
3545.6686
3727.4615
4220.1392
4358.3106
5020.2466
4685.5441
6576.5373
3631.8157
1706.151
2856.1596
2259.8056
2603.9812
2526.4624
2569.7042
2574.9255
2408.7711
2560.1004
2422.6389
2356.4944
2221.4203
2102.9881
2019.8706
1960.5102
1965.5753
1901.8038
1909.8052
1791.3319
1678.5263
1564.0136
1508.6178
1551.7219
1575.1996
1576.3073
1717.5249
1690.7076
1833.4517
1943.7768
2000.1409
2079.4264
2097.3622
2150.7796
2230.4022
2349.8163
2564.742
2805.6577
3152.8365
3415.9523
3746.9878
4080.0243
4383.5647
4609.5735
5000.2166
4736.2171
6788.8931
2062.8561
306.49097
821.31591
748.03763
851.48419
986.66058
797.5224
1040.363
833.86479
849.94958
761.91896
827.61016
719.41613
760.80078
634.43695
683.08867
625.92318
714.65648
662.31821
699.65884
842.89573
976.32385
1214.4782
1344.2512
1401.9687
1536.0605
1556.0935
1680.4897
1806.1325
1892.8675
2002.098
2102.2261
2166.0876
2264.2414
2338.1397
2445.9889
2603.3043
2712.2774
2883.5345
3006.705
3369.0522
3518.8845
3919.206
4126.3681
4710.3677
4714.3652
6788.122
5208.7947
2701.1506
3212.5818
2644.8265
2737.4004
2825.5058
2533.5482
2658.0163
2468.8703
2470.1391
2531.8802
2353.4679
2222.341
2057.8042
1967.5812
1794.276
1738.2058
1631.593
1581.2275
1507.5056
1715.2065
1493.189
1272.1396
1364.3877
1417.3156
1319.4157
1338.3553
1352.9093
1377.329
1434.8449
1493.1171
1596.1814
1635.6361
1763.0327
1850.8146
2030.8609
2192.6402
2437.9039
2518.6073
2922.2818
3181.2384
3585.515
3962.0886
4479.4252
4850.0935
5094.471
6709.4494
12626.663
10128.472
10496.262
10360.119
10772.716
10701.197
10554.681
10278.85
9981.054
9555.019
9282.9501
9040.5633
8497.518
8241.6855
7788.7952
7535.3143
7137.6781
6856.4451
6519.2965
6109.527
5808.6993
5575.8451
5048.2501
4560.4159
4352.1721
4103.1021
3883.149
3769.0524
3571.1881
3426.7953
3273.9028
3126.0759
3011.3056
2958.588
2906.1181
3002.9542
3097.6628
3161.9295
3405.996
3529.8176
3678.6293
3815.8748
4062.9314
4244.0841
4489.7562
4913.9607
6181.5458
19742.75
17123.301
17588.026
18070.91
18371.921
18226.767
17866.231
17199.049
17099.779
15955.001
16066.144
15043.369
14489.072
13689.492
13246.26
12735.74
12341.027
11950.091
11494.357
11088.521
10606.199
9836.6099
9400.4393
8279.7561
7592.0099
6688.103
6049.0821
5489.3092
5069.3627
4692.1084
4323.387
4001.0772
3576.499
3219.185
2796.2729
2522.2077
2235.5547
2250.3804
2194.9465
2445.4855
2776.043
3283.1033
3755.6883
4293.6618
4716.5475
5408.0122
6001.6706
10158.969
10542.592
8935.6088
8747.3872
8931.0884
9178.7656
11625.505
4035.2798
3781.6856
3044.6404
3019.4866
3142.892
3490.3403
4662.4025
1196.9585
540.4903
49.293444
223.708
106.09439
401.04897
1058.0278
691.78661
139.00823
-32.353679
-69.883175
105.90896
669.61451
1595.3289
1845.0927
1064.2019
706.71756
662.79478
854.45508
1453.2654
2505.8377
6777.1195
4714.5635
4129.4847
3827.8155
4093.2512
4993.6906
7551.5375
12769.599
13054.192
10527.148
10941.489
10847.096
11902.419
16123.453
38436.685
34481.421
37074.13
39737.374
39926.425
42489.129
41588.203
33990.337
34886.685
32033.789
31029.803
34743.666
35221.991
37260.581
30262.023
31145.133
32546.572
32110.638
31973.552
32209.059
33907.201
31365.838
34456.516
33600.163
34430.766
34672.971
35088.072
32500.32
30167.011
30974.391
32900.237
32658.736
32540.241
31628.033
31946.796
29821.792
30091.944
30514.382
31316.463
30922.42
30683.404
29674.427
28175.135
28586.731
30245.363
29930.335
30116.504
30068.435
29812.656
27475.929
27218.829
27516.348
27602.508
27356.321
26872.773
26712.021
26054.285
25671.262
26442.516
26541.682
26909.382
26758.257
27077.57
24725.856
24455.747
24567.583
25126.668
24300.268
23976.142
24449.993
23895.989
23429.937
24129.185
23311.738
23751.249
23508.017
24021.723
22545.208
22273.644
22052.223
22583.17
22378.719
21206.235
22950.232
21897.339
20932.694
21707.793
20960.646
21002.447
21160.172
22036.135
20281.025
19950.404
20401.444
19827.829
20688.716
19266.888
21201.469
19670.926
18998.622
19268.2
19083.738
18874.402
18637.798
19850.092
18431.771
17503.629
18598.154
17617.067
18454.149
17594.043
18977.321
17243.231
16973.839
17415.102
16859.807
17294.33
16541.008
17639.596
16392.474
15709.536
16710.882
15904.88
16545.766
15813.531
16746.519
15240.018
14984.932
15864.065
14965.548
15631.046
14853.348
15765.867
14297.243
14038.319
14942.929
14120.304
14776.867
14097.122
14868.536
13286.302
13112.55
14035.239
13128.708
13769.354
13083.956
13908.343
12211.444
12175.022
13005.536
12202.163
12772.648
12205.181
13040.314
11206.781
11255.716
11975.329
11267.404
11759.73
11333.431
12271.009
10246.016
10406.418
11020.515
10430.792
10778.516
10418.856
11387.313
9394.0891
9625.0807
9901.6603
9591.6752
9823.0134
9545.7878
10721.566
8625.2136
8778.0456
8901.7942
8865.6402
8953.9802
8583.2296
9686.8101
7968.3916
7872.2348
8091.1942
7686.3853
8538.3211
7436.5628
8516.6874
7271.9099
6844.93
7092.158
6747.2599
7006.7247
6303.4593
7219.3639
6109.2941
5876.6867
6032.0561
5780.9909
6031.9395
5633.939
6057.291
5308.4271
4823.0749
5302.4991
4837.0662
5223.9827
4635.3644
5030.9013
4299.5533
4198.9562
4479.9275
4152.6249
4410.0869
4007.1467
4207.2311
3745.4531
3567.9744
3938.469
3582.0993
3865.2471
3497.27
3639.1473
3209.8506
3192.287
3483.7233
3192.3002
3387.4504
3094.2973
3229.2959
2963.0405
2948.6962
3191.9665
2883.5411
3029.8545
2816.6875
3020.8625
2823.6147
2819.1078
2953.1558
2715.3816
2812.0161
2654.946
2887.4794
2891.3648
2808.5353
2938.166
2635.6822
2750.0425
3018.9431
2962.1387
3167.8044
2882.5507
2867.2373
2736.1528
2923.189
2180.9735
3165.152
3135.0132
2888.9088
2922.9067
2749.708
2733.7327
2856.6155
3267.7573
3499.1188
3245.0348
3241.7295
2985.3565
3063.068
2818.6751
3627.051
3885.5463
3406.0239
3387.1374
3218.4535
3236.2066
3044.0179
3785.9361
4021.6279
3591.9607
3627.37
3419.6444
3491.2311
3268.5883
3904.1306
4233.3928
3789.6271
3806.674
3715.5025
3716.6543
3572.5875
4115.9233
4380.5467
4068.7962
4156.0984
4048.1881
4031.4495
3950.4269
4358.2419
4579.2766
4396.4805
4398.0808
4352.0785
4304.9065
4323.5551
4591.5745
4885.1307
4760.6942
4766.374
4746.9763
4696.5229
4757.6611
4907.5725
5131.1088
5083.3717
5030.8664
5032.2788
4979.1142
5065.8129
5118.0547
5441.3807
5458.0235
5382.647
5370.4374
5375.0636
5366.2174
5446.572
6351.2648
6401.3943
6405.0313
6439.8509
6393.227
6372.3118
6340.7336
4323.0042
4966.9868
4889.7905
4899.4003
4837.7023
4970.1428
4498.4273
4916.284
5268.9315
5330.1561
5371.5004
5348.7505
5496.3495
4788.2343
4427.4631
4750.3702
4699.6829
4753.9415
4644.5796
4826.994
4114.3635
4700.2799
5420.1973
5364.4603
5292.1437
5408.7218
5310.2327
4742.9248
5021.8975
5156.5147
5061.2119
5147.9995
4943.6092
5170.4213
4579.4476
5486.6844
5806.608
5734.779
5770.5561
5796.5879
5770.3106
5674.1056
32423.575
29550.485
27879.224
27072.601
27417.733
28180.236
28683.161
30872.672
28480.855
28477.191
28324.135
28344.691
28732.247
29688.158
31022.315
31237.693
30641.128
30158.286
30829.014
30213.332
30458.709
29860.848
30126.014
29992.791
30262.819
29730.147
29125.529
29433.989
29575.499
29436.729
29820.395
29490.311
29471.131
28909.091
28823.024
27685.191
27815.821
27606.898
27500.33
27465.442
26779.615
27366.403
27270.691
26885.289
26869.028
26704.215
26720.608
26621.558
26862.626
25386.035
25086.952
24962.773
24787.853
24652.847
24491.767
25089.827
24510.578
24135.422
24170.524
23776.198
24084.135
23446.954
24562.352
23116.502
22626.76
22528.701
22282.183
22276.276
22084.813
22932.919
21988.346
21639.708
21705.316
21284.517
21504.389
21059.856
21912.978
21178.934
20569.841
20301.993
20390.048
20186.335
20185.115
20770.24
20009.887
19592.982
19575.264
19178.809
19214.905
18896.664
20146.105
19305.258
18710.901
18381.202
18359.859
18385.695
18712.862
19157.305
18401.23
17617.158
17698.418
17488.329
17678.677
16787.222
18307.304
17263.907
16883.717
16807.505
16433.389
16490.427
16439.028
17122.23
16426.285
16097.771
15867.133
15812.219
15671.428
15444.036
16242.168
15568.417
15151.179
15104.492
14865.205
14740.244
14623.609
15181.527
14580.836
14351.48
14198.997
14021.804
13926.989
13739.204
14234.824
13651.27
13437.561
13279.872
13164.836
12961.255
12833.406
13218.804
12606.293
12440.502
12320.844
12151.376
11964.214
11870.854
12175.395
11528.863
11407.668
11244.389
11144.862
10942.786
10850.808
11133.613
10520.893
10314.688
10199.375
10115.728
9858.293
9829.9727
10203.013
9593.642
9351.7769
9256.003
9156.1536
8916.8307
8917.6212
9373.3456
8777.2742
8459.5579
8356.9271
8283.9183
7996.5913
8027.2897
8601.5357
8036.731
7596.9886
7548.8277
7464.2178
7217.5759
7250.0286
7951.508
7158.1284
6749.4612
6691.771
6639.724
6381.1121
6385.0747
7069.0257
6335.6145
5873.161
5849.7241
5779.6298
5638.9784
5578.2292
6242.6847
5343.8498
4931.6897
5004.8547
4927.6006
4765.7374
4691.34
5229.2395
4414.2081
4189.436
4163.2957
4089.6091
3998.5319
3921.6399
4329.0104
3633.9961
3383.4141
3417.9429
3389.6361
3297.2537
3197.5601
3500.072
2931.6687
2810.1217
2836.9783
2780.864
2678.4474
2630.6436
2853.0319
2441.2225
2354.1117
2360.0389
2310.8142
2255.7678
2195.4932
2375.3388
2106.036
2028.1437
2015.9853
1992.2224
1889.5167
1890.6857
2069.1675
1948.6826
1844.494
1843.4764
1794.5064
1721.4992
1670.6834
1994.2067
1893.0017
1813.1663
1804.8737
1757.8835
1678.5699
2092.1791
2023.6779
2420.0121
1841.1647
1849.8043
1761.4636
1891.0419
1309.1247
2489.5164
2256.9484
2172.2022
2136.7297
2115.6555
1937.932
2300.1282
2561.9582
2751.1616
2576.2066
2503.0897
2488.7416
2413.468
2444.4
3030.9159
3138.7399
2830.3512
2784.7727
2862.1415
2713.8607
2785.0109
3310.6737
3467.1564
3193.7745
3226.1005
3182.7397
3149.7145
3125.8343
3571.9773
3690.7909
3497.0734
3463.944
3460.1532
3441.5782
3412.374
3843.8548
4157.7792
3984.1134
3956.9719
3962.5871
3932.4278
3905.6199
4148.553
4333.88
4144.0212
4149.5544
4108.2452
4108.2783
4118.3939
4432.712
4986.0076
4944.6683
4883.8603
4890.26
4865.5025
4974.2539
5017.1518
4943.6706
4767.9726
4781.1834
4746.1996
4755.1523
4771.4082
4830.0844
6034.864
5987.9282
5932.7226
5938.4034
5931.2594
5980.479
5940.5509
33425.27
24304.632
22422.221
22273.854
23046.941
22109.461
21860.681
20887.857
20355.279
19547.853
18940.306
17654.657
16982.392
15965.692
15114.703
14901.035
14077.707
13564.613
13072.526
12579.61
12048.782
11432.719
10657.908
9715.6556
8666.1208
7614.1113
6725.6188
5922.3123
5393.7162
4983.9614
4686.2179
4425.0142
4169.9089
3895.728
3614.7558
3171.7674
2863.9138
2750.9073
2582.2194
2616.3097
2921.6617
3310.7757
3808.222
4329.783
4870.2878
5226.4953
6374.4672
14619.077
14868.033
11397.469
11980.92
12472.794
11222.943
11758.082
11150.342
11126.925
10504.879
10238.626
9666.6288
9498.8028
9083.5411
8755.2901
8567.7326
8135.724
7796.4899
7570.4589
7173.6644
6810.4021
6402.6762
5910.2139
5502.448
5028.3136
4755.1659
4603.7203
4432.4146
4239.7356
4016.0406
3788.0531
3586.7829
3370.5942
3241.3097
3078.5014
3000.1541
3047.2521
3222.6675
3470.3775
3708.1019
4084.179
4314.6105
4637.6694
4744.5737
5150.8561
4625.1249
6998.3855
4748.6926
4920.6698
3738.6354
4411.9584
4032.3831
3054.47
4149.2291
2991.6237
3691.2075
3062.3585
3151.083
3155.5991
2758.5964
2912.0113
2778.1778
2596.5189
2486.9751
2276.6801
2207.0616
1976.6511
1914.7174
1762.1187
1689.3285
1532.323
1528.4213
1445.7805
1554.756
1471.6405
1535.572
1506.2999
1525.3653
1483.6754
1541.6374
1572.6627
1667.606
1827.5645
1947.5687
2229.9959
2491.18
2827.4092
3120.5359
3485.8531
3774.6818
4209.8766
4630.9478
4861.4129
7106.771
1729.4316
1865.7542
-49.990721
2518.7159
147.9066
1994.004
74.880763
1019.381
926.44962
376.41107
1247.2092
245.79034
963.38211
1154.8901
1164.7413
1329.8103
1231.4596
1279.2424
1299.0879
1314.8361
1317.3527
1377.0071
1343.2346
1531.8787
1614.6266
1814.6115
1869.001
2030.7531
2115.656
2215.6331
2260.4097
2328.2196
2420.2966
2472.3301
2623.3359
2739.7018
2923.8889
3140.4168
3392.7549
3574.4062
3911.8405
4069.6474
4431.0907
4526.3877
5108.0945
4645.7474
7227.0942
5005.3995
1368.5865
2210.1039
1693.4834
1752.462
1965.8089
1787.6187
2280.9687
1293.2027
2317.1978
1331.9315
1950.7671
1710.4202
1582.4323
1797.4628
1642.6278
1764.5058
1686.9694
1753.4273
1704.6938
1802.9217
1777.6638
1903.2412
1792.1862
1692.4107
1664.8376
1647.1805
1744.4656
1802.3841
1813.1629
1850.0384
1886.4654
1924.9166
2013.6589
2131.2903
2220.5691
2399.7778
2608.6311
2761.594
3152.5299
3348.738
3749.573
3988.2031
4455.0767
4758.9702
5094.9625
6702.3885
10784.347
9447.2102
6391.0736
9390.2794
6691.9507
8887.027
7986.0324
7424.819
8687.1969
7591.8791
8714.8734
8139.362
7869.4287
7808.5409
7357.8633
7185.8246
6765.0086
6512.8653
6121.4104
5840.4322
5479.6646
5238.262
5020.4618
4681.9041
4763.6688
4505.6338
4446.5596
4299.4153
4162.8528
3978.6021
3808.5438
3562.525
3385.6891
3275.828
3202.1543
3219.7715
3374.9268
3412.1873
3783.5936
3848.686
4138.0537
4235.8942
4486.6909
4499.2715
4958.2547
4713.7597
6348.3976
29264.765
16996.819
20551.08
17548.998
19717.15
18934.228
18260.278
18810.917
17439.327
17305.564
16264.674
16692.939
15187.395
14967.803
14483.459
14225.638
14111.086
13745.725
13462.478
12941.799
12369.412
11498.869
10618.399
9410.7525
8901.1687
7199.4203
6579.0199
6217.2208
5818.6582
5496.1641
5023.3855
4510.2238
3959.6804
3433.3853
2867.3469
2438.933
2288.495
2263.5259
2270.5548
2724.817
3129.716
3643.5371
4090.4719
4588.1934
4974.5
5453.9305
5781.7273
26331.387
22388.085
21622.893
21081.695
21262.105
21065.846
21829.379
23330.431
23999.948
22317.492
22125.395
21752.761
22204.284
22655.449
21859.018
22965.437
22980.995
22614.028
22576.463
22476.513
22363.135
21594.319
22124.231
22182.334
22239.529
21900.023
21758.043
20985.425
20845.854
21614.544
22050.57
21814.143
21874.564
21575.923
21241.343
20186.574
20396.507
20330.497
20584.526
20212.516
20178.624
20117.436
19638.875
19781.96
20090.896
19739.494
19774.099
19838.304
19751.923
18620.534
18725.331
18604.868
18717.747
18623.67
18450.029
18659.057
18131.481
18286.717
18137.362
18225.682
17972.962
18255.594
18323.744
17210.143
17212.91
17154.501
17010.231
16948.922
17097.918
17203.392
16559.737
16746.436
16597.941
16600.32
16635.949
16665.046
16961.81
15892.544
15780.142
15785.459
15692.415
15579.715
15747.594
15920.197
15287.519
15265.78
15124.353
15076.499
15160.278
15065.721
15261.998
14587.761
14511.577
14525.627
14436.114
14435.613
14333.96
14744.075
14021.906
14077.16
13710.298
13871.286
13675.338
14016.704
13811.235
13519.345
13509.437
13361.744
13425.019
13261.162
13237.037
13266.411
12916.142
12915.874
12794.079
12794.495
12707.588
12791.707
12819.869
12393.353
12425.943
12316.861
12308.785
12231.11
12342.061
12169.705
11880.124
11904.423
11797.187
11788.254
11755.238
11755.181
11625.614
11338.428
11431.13
11300.733
11319.445
11189.703
11256.403
11088.242
10827.886
10909.067
10811.245
10772.719
10699.533
10768.095
10530.829
10267.766
10408.56
10292.698
10271.82
10180.25
10234.34
9974.7108
9701.6526
9824.5268
9752.2168
9714.3001
9589.2255
9623.2863
9418.3574
9040.7461
9120.5167
9137.8067
9059.7167
8949.0526
9021.746
8771.6326
8315.6368
8331.1289
8337.7102
8314.2774
8191.5542
8203.7723
8018.7006
7531.0881
7504.9121
7578.4022
7514.4718
7423.2579
7438.5689
7212.8553
6802.6963
6710.9794
6728.7741
6755.8914
6601.4703
6699.2789
6465.0782
6153.7027
6015.3171
6045.2612
6020.733
5970.9882
5904.9622
5750.5068
5526.5655
5328.494
5525.6299
5436.97
5351.9828
5353.6055
5161.4955
5007.2801
4951.222
5001.2541
4925.6984
4903.3968
4861.0882
4660.5223
4584.3018
4489.477
4601.7454
4567.218
4505.4016
4457.5601
4258.2646
4158.229
4193.742
4291.2194
4220.4238
4144.5595
4150.8072
3920.3996
3848.6511
3940.856
3991.7792
3955.1588
3913.7698
3898.1034
3669.0204
3597.2359
3711.7302
3758.0674
3751.6218
3668.0326
3701.4904
3467.3773
3367.3102
3540.9251
3569.7873
3586.2763
3553.8244
3553.7726
3315.815
3297.8122
3394.8042
3412.2225
3437.782
3359.3337
3352.6189
3254.7711
3119.1609
3214.5588
3232.2304
3299.5471
3293.4755
3285.0021
3228.6089
3165.4858
3106.6075
3157.585
3303.8542
3163.7221
3264.9161
2991.1414
3105.1962
3109.9171
3117.5635
3214.5066
3189.5029
3081.6461
3105.9397
3269.356
3129.061
3109.0842
3264.2173
3138.5938
3223.8091
3084.2675
3449.9743
3297.7851
3315.4709
3407.3545
3349.6547
3346.3327
3253.6462
3766.6808
3611.8758
3591.0092
3704.8963
3602.9497
3637.9226
3535.763
4089.7597
3968.3859
3939.6223
4059.3953
3953.3541
4017.1153
3858.4131
4452.5026
4340.5155
4353.9262
4439.4518
4340.5983
4410.1814
4285.8052
4987.2933
4967.4799
4946.9003
5034.4715
4929.7207
5087.169
4814.5554
5230.9419
5171.6859
5207.1478
5267.5087
5220.9808
5228.8664
5009.8555
6299.3078
6253.525
6231.9717
6241.4139
6190.6789
6215.1184
6233.3046
11851.901
9282.7234
8456.8526
8162.8612
7933.6844
8096.5928
8625.1708
12023.98
12904.618
12129.58
12204.456
12165.662
12333.317
12538.544
11260.069
11443.596
11509.174
11260.395
11348.399
10812.985
10934.072
11125.056
11790.15
12073.181
12201.791
11774.989
11736.035
10826.834
10782.277
10852.788
11252.147
10909.639
11194.407
10646.774
10677.147
10521.422
10688.069
10278.618
10455.47
10137.867
10142.031
10013.053
9995.0587
9988.4844
10266.678
10068.909
10147.224
10066.064
9840.1298
9809.8585
9857.2669
9441.1314
9465.4279
9382.4527
9323.5284
9403.0239
9417.2714
9306.9923
9274.6573
9186.8612
9076.1345
9235.1005
9151.1762
9166.836
8969.2784
8852.0398
8670.9994
8837.1513
8766.5957
8781.2576
8808.679
8695.997
8520.0304
8494.8752
8390.8559
8532.7931
8434.1093
8570.6101
8317.8012
8158.8929
8056.0614
8021.533
8069.7792
8053.3673
8248.572
8027.9272
7893.9608
8014.7422
7744.7412
8076.8406
7813.9621
7972.5011
7669.2278
7632.6916
7496.6828
7421.2064
7546.256
7529.0135
7725.7785
7446.0708
7416.7306
7308.4673
7302.9317
7281.9109
7257.071
7457.3786
7056.8041
7122.3251
6984.4367
6960.8615
6974.7017
6944.7063
7119.2727
6914.774
6830.6886
6760.9399
6676.2932
6780.0861
6740.9306
6854.7683
6605.3709
6544.0962
6520.2369
6409.8821
6513.2697
6354.2334
6537.6391
6358.0784
6297.8939
6252.3018
6143.9391
6216.9588
6132.6614
6236.719
6087.5893
6011.0323
5997.8703
5845.3391
5973.378
5872.0036
5883.2756
5788.2038
5727.8784
5677.0697
5556.7402
5717.6261
5542.2766
5547.9041
5533.1793
5430.3578
5398.1607
5296.5813
5397.3183
5299.5804
5232.1662
5166.9817
5079.8116
5066.003
4897.1803
5150.6945
5009.5591
4940.4917
4843.2245
4804.7753
4695.086
4650.6846
4943.1783
4792.2673
4684.0676
4539.9859
4556.6863
4367.1448
4366.82
4541.1273
4411.3449
4531.8189
4275.4813
4265.083
4158.1079
4041.9452
4316.7422
4240.7999
4227.553
4061.2816
4044.0964
3856.9853
3921.4127
4170.9013
4100.5567
4097.987
3623.7077
3657.8985
3700.6547
3635.1388
3897.6706
3810.4359
3771.562
3552.2553
3621.8581
3436.4404
3399.4965
3717.1219
3538.8196
3565.791
3349.8449
3334.4195
3219.8512
3246.4034
3483.673
3350.1053
3306.2216
3101.851
3152.8576
3078.0574
3026.4625
3297.825
3182.9025
3080.9554
3000.3536
3042.0228
2923.9169
2909.0535
3185.5437
3064.73
2955.4467
2879.4031
2882.9903
2786.9279
2807.5691
3051.8073
2946.9447
2838.8313
2804.007
2827.1391
2751.705
2753.2264
2974.3383
2907.1172
2842.1146
2794.9946
2801.9943
2701.6324
2700.1095
2953.5357
2931.1773
2847.6175
2787.1225
2808.0155
2742.0379
2754.6327
3029.1924
2932.8312
3031.6238
2941.9205
2919.3117
2868.7533
2804.312
3081.8699
2940.5
3194.8749
2960.5802
3041.3243
2964.1004
2994.6577
3191.9505
3154.3986
3455.0547
3244.5184
3289.2128
3237.209
3184.6844
3390.2724
3335.2867
3684.0382
3360.4006
3496.0526
3397.9432
3403.3895
3606.4138
3551.5712
3992.0705
3729.4772
3831.304
3757.4237
3729.4064
3878.664
3776.6824
4186.4317
3895.7706
4034.8364
3921.886
3912.6443
4049.5106
4016.6225
4529.9667
4332.8565
4416.4096
4369.9872
4339.0018
4462.5411
4345.0335
4664.6983
4463.7825
4567.1659
4490.8803
4432.0976
4495.5774
4480.458
5188.8042
5091.3747
5122.0143
5083.8434
5050.1796
5198.8731
5068.3392
4927.5797
4721.885
4773.7244
4706.5418
4692.6274
4596.5208
4392.9892
6539.1899
6613.7241
6397.418
6373.0269
6333.2657
6389.991
6508.9377
4454.4975
3558.705
3003.7339
2846.434
2612.2278
2801.868
2708.6147
3588.0864
4004.7277
3665.9303
3729.8741
3700.8134
3519.3854
3717.3141
4210.1574
3996.0438
3938.3054
3951.3712
3760.8319
3659.3042
3644.3745
3514.9747
3953.3596
4509.2492
4668.866
4421.5362
4479.2211
3791.9681
4085.7437
4111.695
4074.7075
3684.8312
3771.035
3281.9983
3801.1959
3474.8455
2952.4798
3065.0502
3451.0889
3225.38
3216.9214
3163.4186
3876.3962
3395.139
3852.6338
3757.6078
3772.4089
3859.6195
3769.4734
3636.6506
2964.9441
2850.475
2682.1688
2759.141
2732.7341
2779.8263
3396.2767
2910.5942
3207.4884
3313.1198
3400.6506
3441.239
3435.9601
3390.0978
2774.8378
2773.5538
2636.3077
2668.5778
2707.8727
2835.774
3129.9407
2644.7847
2782.5751
2735.5634
2852.2125
2783.3051
2880.3562
3154.4963
2442.8225
2539.1491
2517.3116
2709.4919
2669.6326
2932.3164
2892.422
2242.8924
2615.6613
2388.0044
2585.0451
2404.3176
2684.0933
2824.8847
2343.8214
2521.6362
2283.7768
2480.8881
2342.8465
2473.9582
2647.1968
2403.8662
2400.0669
2314.1169
2242.0373
2286.0171
2424.3261
2541.79
2310.8348
2336.5589
2270.4415
2202.7402
2188.9573
2346.4931
2516.2514
2212.4074
2290.8856
2179.789
2075.7488
2137.454
2271.4162
2388.3719
2113.6461
2187.9762
2074.8435
2004.4992
2031.4136
2114.1247
2330.1376
2044.6008
2105.2355
1997.8167
1915.4512
1950.4828
2094.2189
2200.5658
1933.3214
1998.9448
1897.805
1808.9501
1888.436
1946.2815
2150.4481
1907.6254
1941.5191
1828.6174
1796.9165
1819.0237
1899.9331
2089.6575
1846.9892
1863.8305
1779.6484
1681.106
1756.9897
1820.3079
2043.5436
1828.4146
1878.5096
1664.3077
1720.2705
1717.492
1801.6413
2060.9645
1830.1931
1842.3721
1721.5683
1731.578
1592.9498
1622.3044
2049.8188
1756.0369
1839.9299
1700.2094
1705.2835
1563.4419
1701.967
2007.8609
1754.7485
1850.6523
1614.1674
1712.5031
1571.3252
1549.4594
2104.6346
1734.2079
1824.1551
1569.3223
1772.6344
1489.4206
1593.8759
2024.5712
1731.1974
1810.6423
1692.9474
1694.1267
1543.5001
1579.2144
2101.4435
1817.7843
1919.5234
1612.4025
1829.09
1579.5226
1637.9634
2098.1057
1764.9109
1786.9158
1674.0065
1801.1778
1565.2047
1641.3966
2065.4201
1771.2704
1905.2253
1728.0989
1869.3464
1658.4869
1721.7771
2089.0043
1823.2859
1903.8015
1705.8681
1863.566
1671.7529
1721.2862
2104.5457
1864.6967
1924.7024
1790.058
1934.9854
1727.9851
1801.109
2185.9029
1939.7899
2019.0119
1858.4175
1978.1318
1824.7556
1900.9668
2278.9137
2063.764
2114.1844
1960.3737
2099.7656
1939.9975
1953.1471
2453.5813
2225.2439
2287.0859
2101.9505
2250.6689
2059.289
2154.9903
2637.8904
2387.6934
2423.8637
2284.4131
2418.5009
2227.3791
2307.3738
2848.0877
2571.1366
2663.3784
2504.4826
2594.6782
2461.693
2480.0124
3066.5064
2883.4498
2873.1238
2783.782
2820.7521
2700.1259
2737.1493
3352.066
3140.7602
3093.4219
3092.2606
3065.7043
3057.0076
2978.5736
3598.7779
3475.2399
3371.0482
3416.4986
3343.1836
3301.7268
3227.0991
3927.4182
3759.4703
3667.9317
3742.4881
3625.3535
3720.9027
3591.0429
4161.598
4101.3281
3970.9398
4073.1891
3958.555
4058.3857
3840.385
4504.2661
4392.4783
4283.5215
4408.4919
4232.4943
4395.0075
4221.1898
4876.3924
4833.668
4733.9266
4844.4687
4666.4237
5003.3159
4643.2536
4963.8782
4902.5287
4848.6161
4937.839
4816.7389
4948.238
4449.4731
6469.1854
6536.284
6340.4567
6362.6351
6303.4941
6448.2971
6427.4857
1723.4287
1437.1619
1118.0101
1086.0211
964.88195
967.20531
520.28615
1045.7985
1804.4182
1889.8959
2161.5889
2081.7995
1979.0048
1784.0467
921.54299
745.28321
533.71999
598.03673
546.44373
500.28861
89.067393
1177.3898
2160.3621
2822.7019
3152.0759
3151.5513
2928.4774
2363.0081
989.27293
800.40068
234.72463
-49.757486
-154.46037
-197.89344
92.720438
1243.051
1573.5853
1756.6019
2076.4173
2211.731
2300.0837
1805.8361
999.15975
820.47649
627.33439
595.19387
507.77294
232.57538
765.2866
1348.9169
1254.5658
1096.606
1240.2445
1057.3261
1310.6401
1112.1029
1175.0296
1048.7722
1121.0205
896.36892
1282.6811
883.4696
1301.2268
1258.4333
1274.8991
784.58747
864.94569
648.21695
704.57213
666.0901
1170.5262
951.3879
1283.3609
983.95971
1425.7211
1229.6806
1353.4085
1164.8807
1243.9834
922.24244
693.15318
857.2331
680.19899
833.91523
1180.9467
1003.386
997.49875
996.26583
1227.6067
996.43546
968.43969
1153.5186
1278.7415
767.25496
861.91471
864.07562
1065.1904
787.85236
1014.3994
945.727
1185.1019
809.42085
1060.7126
966.46903
805.14336
1022.0998
918.50818
1037.1304
802.04156
914.97214
1067.0743
783.90666
966.95124
874.79234
1103.4778
806.05432
992.62121
1030.4612
778.6927
1000.2733
907.03747
1081.8938
829.66737
966.36241
1090.4843
823.09053
957.95223
862.59683
1120.1946
831.78727
1020.1751
1093.2353
825.29234
1031.5894
938.92469
1110.178
869.03833
1037.8314
1093.3707
879.84626
1088.3827
881.90988
1141.6757
893.20972
1026.0576
1122.8802
883.12989
1148.0432
976.32057
1171.9041
892.8156
1089.7393
1145.0194
961.53852
1252.5725
1036.6039
1083.6118
1013.3879
1082.5571
1170.2715
955.74372
1342.261
998.38562
1154.8776
1032.3394
1049.3392
1254.2276
1218.8305
1412.8801
1045.2802
1294.7897
962.45955
1049.4454
1343.786
1226.3559
1532.1159
1172.7251
1273.1173
1085.8599
1164.8373
1369.4521
1411.7924
1549.691
1207.0784
1352.8356
1224.9335
1221.3449
1444.6589
1463.5351
1672.5012
1344.8239
1515.9392
1238.1607
1415.7875
1534.1224
1636.1959
1785.8729
1431.8636
1490.3013
1394.242
1368.9614
1596.1378
1663.9906
1813.3018
1503.6197
1607.2558
1466.9161
1554.6944
1735.4186
1792.183
1921.4503
1654.2694
1712.465
1589.7593
1617.4889
1779.7974
1868.4922
2012.9681
1755.4403
1813.0909
1676.3382
1718.1263
1886.6409
1958.1018
2107.4742
1854.2428
1923.4132
1786.0341
1856.6259
2010.7441
2088.7244
2215.5196
1985.8997
2057.2573
1931.529
1975.5306
2102.6885
2161.9577
2328.1713
2124.8332
2184.7666
2055.9742
2103.547
2229.9088
2331.8372
2446.6165
2268.7302
2307.677
2227.0181
2281.1327
2371.3406
2462.2912
2619.7044
2454.7552
2498.0543
2445.8227
2412.4878
2570.9165
2622.4411
2772.7273
2635.2324
2724.179
2611.8815
2662.9871
2748.6443
2852.831
3040.5698
2914.9304
2951.359
2887.0352
2912.6572
3027.023
3087.9984
3255.109
3040.8689
3181.0931
3072.4121
3130.1194
3198.4033
3262.0523
3586.0357
3379.6655
3520.7674
3428.4047
3444.6004
3545.8124
3590.76
3829.5601
3562.5089
3731.1455
3586.5198
3651.4111
3737.6066
3762.9002
4176.8007
3965.1752
4117.5121
4024.4965
4081.7542
4120.4592
4122.7508
4449.2587
4175.1724
4331.6713
4190.6391
4223.0878
4250.0638
4261.9497
4956.8608
4816.9239
4943.8802