/*--------------------------------*- C++ -*----------------------------------*\
  =========                 |
  \\      /  F ield         | OpenFOAM: The Open Source CFD Toolbox
   \\    /   O peration     | Website:  https://openfoam.org
    \\  /    A nd           | Version:  6
     \\/     M anipulation  |
\*---------------------------------------------------------------------------*/
FoamFile
{
    version     2.0;
    format      ascii;
    class       pointVectorField;
    location    "0.1";
    object      lm;
}
// * * * * * * * * * * * * * * * * * * * * * * * * * * * * * * * * * * * * * //

dimensions      [1 -2 -1 0 0 0 0];

internalField   nonuniform List<vector> 
28033
(
(-1.780536e-14 4.8656612e-16 1.3104288e-15)
(-5.4375576e-15 3.3318594e-15 9.9433006e-16)
(7529.9056 547.94719 91.467715)
(7269.7404 -2236.0912 -105.32164)
(-1.338461e-14 3.0090723e-15 -2.870051e-16)
(-1.2587315e-14 4.9008913e-15 -4.4266115e-15)
(7272.5019 -2209.1437 73.00082)
(7537.3294 551.21653 -92.187863)
(-5.6329745e-15 1.0535579e-15 6.7193838e-16)
(-2.4534443e-15 3.0423504e-16 5.8836893e-16)
(-5.4923298e-15 2.4302826e-15 8.9528572e-16)
(-2.6209443e-15 -1.1537891e-15 -6.7979696e-16)
(-7.2548563e-15 1.5542294e-15 1.0013199e-15)
(-4.7613589e-15 -9.2108094e-16 -7.3952737e-16)
(-1.132389e-15 -2.2256662e-17 -6.4484848e-16)
(-7.4239857e-16 -2.4218299e-16 -3.6669977e-16)
(-1.1196198e-15 4.5550132e-16 8.383863e-16)
(-2.3465882e-16 2.2667819e-16 1.4996246e-15)
(-4.0583243e-15 -8.7236639e-16 -1.3429605e-15)
(-5.8237189e-15 8.4462789e-16 7.5519031e-16)
(-5.1611762e-15 1.0100276e-15 9.7613867e-16)
(-1.7679952e-15 -8.1010255e-16 4.5192313e-16)
(-4.4158752e-15 1.0299569e-15 -9.452958e-16)
(7513.6631 378.10471 69.876107)
(7501.9852 206.8443 52.323273)
(7491.8441 35.766211 36.493472)
(7484.3306 -137.00888 23.445532)
(7476.6137 -313.24597 12.441631)
(7467.6533 -492.01859 2.8395078)
(7456.4323 -673.58673 -5.8257623)
(7441.1634 -855.92797 -14.487834)
(7423.0408 -1037.4677 -21.966009)
(7400.9073 -1216.7179 -29.619764)
(7377.2627 -1391.9512 -37.917121)
(7352.6595 -1564.416 -46.34676)
(7327.9425 -1732.7661 -57.938867)
(7305.72 -1899.8741 -70.631646)
(7286.4907 -2066.5374 -86.220283)
(-37.854424 -1.6144244 22.811095)
(-96.494857 2.6131679 56.317542)
(-150.41726 21.144042 89.322224)
(-195.05081 48.410821 115.71998)
(-224.47031 82.348522 131.90418)
(-236.56122 120.08836 140.04713)
(-230.83494 159.0026 138.60571)
(-208.07321 197.18344 129.52887)
(-169.83535 233.43322 114.17761)
(-118.97945 265.52861 94.33473)
(-58.902198 292.80148 71.623018)
(7.8396951 314.73883 48.504295)
(77.853112 330.91591 26.321591)
(148.79754 341.1625 6.3129825)
(218.25014 345.80012 -10.828659)
(285.29077 345.36973 -25.142556)
(348.80388 340.50101 -36.315597)
(408.27208 331.41013 -44.902717)
(463.8322 319.45955 -51.407893)
(514.89091 305.13054 -55.984385)
(561.44437 289.61686 -58.487995)
(603.28506 273.61659 -59.14579)
(639.95462 258.29333 -57.222395)
(671.86063 244.62852 -52.643355)
(698.99766 233.59476 -44.962022)
(721.83936 225.76898 -34.244598)
(741.3625 221.76212 -20.508696)
(759.34007 222.18576 -4.524964)
(777.37505 226.94689 13.293065)
(797.19735 235.67962 31.639255)
(821.33747 248.7781 49.580796)
(851.11165 264.83901 66.467802)
(888.19568 283.06511 81.254076)
(933.91556 303.05111 93.449744)
(988.55036 323.62815 102.322)
(1052.4462 343.67998 107.84518)
(1125.6079 362.31457 110.14733)
(1207.5252 379.07791 109.0092)
(1296.9007 392.47499 104.5005)
(1393.3242 402.88552 97.266692)
(1495.0265 409.54412 87.459755)
(1600.9456 412.51251 75.601957)
(1709.6839 411.85702 62.301743)
(1819.7963 407.76305 48.148578)
(1929.9383 400.70926 33.899506)
(2038.7882 391.13799 20.27787)
(2145.1799 379.68585 7.974436)
(2248.1048 367.0612 -2.3141067)
(2346.7542 354.03463 -10.024681)
(2440.6049 341.44542 -14.662323)
(2529.4357 330.11302 -15.889277)
(2613.3841 320.81189 -13.512317)
(2692.949 314.19164 -7.5223146)
(2768.9931 310.7287 1.8937946)
(2842.7017 310.67727 14.342254)
(2915.5207 314.0516 29.225596)
(2989.0636 320.63231 45.765898)
(3065.0108 329.99319 63.054171)
(3144.9853 341.5487 80.101729)
(3230.4601 354.61601 95.925555)
(3322.6534 368.43464 109.59548)
(3422.4588 382.24054 120.3496)
(3530.3959 395.24891 127.53636)
(3646.5692 406.74046 130.79498)
(3770.5923 415.98422 129.97786)
(3901.8147 422.28172 125.08299)
(4038.7235 425.30196 116.46242)
(4179.8276 424.20943 104.9223)
(4322.943 419.74924 90.685834)
(4465.7189 411.33606 75.597375)
(4605.6919 400.10707 60.778255)
(4740.8795 386.47145 47.07114)
(4869.1932 371.54039 35.977016)
(4989.3373 356.44527 28.431926)
(5100.5591 342.2746 25.171405)
(5202.7925 330.09017 26.518534)
(5296.6822 320.78069 32.504256)
(5383.3169 315.0703 42.711301)
(5464.2259 313.52177 56.565578)
(5541.2602 316.30028 73.26095)
(5616.2651 323.75044 91.944989)
(5691.3865 335.82749 111.58429)
(5768.6625 352.35728 131.16881)
(5850.3681 372.817 149.80234)
(5938.2796 396.82203 166.3745)
(6034.6882 423.62436 180.0819)
(6141.0097 451.87364 189.90154)
(6258.941 480.35582 195.39505)
(6388.3202 507.4865 196.00715)
(6530.151 531.68778 192.17872)
(6681.5889 551.63009 182.82806)
(6844.6906 564.80773 170.72012)
(7011.4587 572.99591 152.77475)
(7186.0759 571.42592 135.22503)
(7360.0283 563.07652 110.90946)
(-37.934778 5.6721187 -7.2334131)
(-94.668787 7.98393 -28.126203)
(-162.48737 -11.801852 -72.528409)
(-220.13258 -26.816251 -97.905522)
(-257.72986 -58.500095 -120.81169)
(-276.85199 -92.261998 -129.63215)
(-277.09537 -127.78231 -131.82329)
(-258.91741 -165.42501 -123.37188)
(-223.94702 -201.62452 -110.36028)
(-176.51045 -235.43226 -91.054932)
(-118.05333 -265.91628 -70.44869)
(-53.11073 -291.80085 -48.169545)
(16.34255 -313.22613 -26.686043)
(86.926975 -329.55961 -7.6198522)
(157.19109 -340.77801 9.4835076)
(225.64087 -347.74741 23.373922)
(291.46234 -350.15358 34.905612)
(353.45348 -349.55421 43.680975)
(411.88593 -345.78625 50.551253)
(466.357 -339.86829 55.406039)
(515.71407 -333.05172 58.169099)
(560.51441 -325.25983 59.050341)
(599.56739 -318.00813 57.051807)
(632.95471 -311.78947 52.568652)
(661.0508 -307.3325 45.160633)
(683.96422 -305.82462 34.272203)
(702.75984 -307.29933 21.088847)
(719.14538 -312.95132 5.3101112)
(734.41023 -322.75517 -11.730552)
(750.81796 -337.27454 -29.614864)
(770.18341 -356.14932 -47.270915)
(793.98675 -379.74842 -64.041778)
(823.89301 -407.16543 -79.288209)
(861.08998 -438.03112 -92.364055)
(906.53279 -471.52558 -102.701)
(960.66977 -507.00952 -110.20178)
(1024.1132 -543.12914 -113.69465)
(1096.764 -579.75348 -113.97061)
(1177.5871 -615.5048 -110.51884)
(1266.4215 -649.93169 -103.69773)
(1361.9594 -682.49684 -93.796297)
(1462.861 -712.69248 -81.469027)
(1567.5541 -740.21184 -67.526061)
(1674.4192 -764.85014 -52.8023)
(1781.8445 -786.56149 -38.168932)
(1888.3783 -805.44283 -24.398734)
(1992.7544 -821.75311 -12.139359)
(2093.9655 -835.91179 -1.8960107)
(2191.2427 -848.48826 5.9414232)
(2284.0582 -860.16636 11.063825)
(2372.1242 -871.71084 13.207271)
(2455.3986 -883.90604 12.147276)
(2534.1287 -897.50322 7.7284866)
(2608.8923 -913.17147 -0.072930165)
(2680.6309 -931.45474 -11.08001)
(2750.6512 -952.75036 -24.85327)
(2820.5658 -977.29487 -40.6806)
(2892.1885 -1005.1648 -57.611449)
(2967.3754 -1036.2731 -74.555749)
(3047.8601 -1070.3834 -90.400566)
(3135.0992 -1107.0954 -104.14678)
(3230.1521 -1145.863 -115.00054)
(3333.6231 -1185.9916 -122.42984)
(3445.6468 -1226.661 -126.16548)
(3565.8938 -1266.9534 -126.17053)
(3693.6392 -1305.9398 -122.58364)
(3827.6632 -1342.7079 -115.71385)
(3966.4919 -1376.4268 -106.0394)
(4108.3581 -1406.5355 -94.01264)
(4250.7431 -1432.6881 -80.684248)
(4391.4913 -1455.1505 -66.952218)
(4528.4091 -1473.9538 -53.912377)
(4659.3474 -1489.8752 -42.819144)
(4782.6654 -1503.7656 -34.751241)
(4897.3312 -1516.5755 -30.62887)
(5003.1151 -1529.396 -30.934637)
(5100.3975 -1543.2463 -35.759582)
(5190.1754 -1559.0808 -44.824184)
(5273.8879 -1577.7196 -57.523597)
(5353.1543 -1599.7953 -73.032197)
(5429.7785 -1625.8453 -90.461661)
(5505.5564 -1656.2005 -108.88482)
(5582.3288 -1691.0198 -127.44205)
(5662.0152 -1730.2973 -145.25055)
(5746.5645 -1773.7605 -161.48997)
(5837.9492 -1820.9252 -175.30455)
(5938.0105 -1870.9907 -185.90874)
(6048.2901 -1922.8998 -192.64039)
(6169.8083 -1975.3432 -194.95792)
(6302.9604 -2026.828 -192.65471)
(6447.3225 -2075.6655 -185.82187)
(6601.6575 -2120.4544 -174.61869)
(6764.1312 -2159.6838 -159.95984)
(6932.0356 -2191.9808 -142.51945)
(7101.3006 -2217.419 -122.92556)
(3.2927448e-15 -1.3239155e-15 2.3845803e-16)
(2.4470133e-15 -9.6672015e-16 3.215493e-17)
(-9.0574249e-15 9.0550918e-16 6.4029168e-16)
(-1.2642219e-16 -5.721845e-16 4.4370095e-16)
(-7.6811722e-15 -4.9270561e-16 4.1193361e-16)
(-7.3893964e-15 2.7533729e-15 -1.0951501e-15)
(-3.2915852e-15 -8.1743692e-16 3.8364228e-16)
(-1.9032499e-15 5.3200654e-16 -8.2319016e-17)
(-4.7409759e-15 -4.8623412e-16 4.3918642e-16)
(-1.2869644e-14 1.1845665e-15 6.4228907e-16)
(-9.6157521e-15 1.4157374e-15 5.9836601e-16)
(-9.4077204e-15 4.9518432e-16 1.1192419e-15)
(-5.982767e-15 2.6210694e-16 3.0473736e-16)
(-1.1478475e-14 -5.3386198e-16 1.6580808e-15)
(-5.257323e-15 3.6289085e-16 2.8600704e-16)
(-33.282077 10.45957 -0.85651438)
(-92.308967 -4.6660516 40.095976)
(-170.52152 1.2347285 85.191502)
(-224.22538 -32.639681 117.73288)
(-268.04962 -62.359887 141.46569)
(-282.41519 -95.592085 152.15854)
(-286.19574 -131.6819 152.95846)
(-262.69131 -171.52397 146.63041)
(-229.79614 -202.49779 129.04961)
(-178.23304 -239.67432 108.92502)
(-118.40269 -270.81772 84.052519)
(-51.662268 -292.39016 59.449375)
(18.952668 -319.36351 33.689058)
(91.515179 -331.69708 12.531279)
(162.24432 -348.5467 -8.1930093)
(231.4548 -354.11492 -23.149619)
(298.25952 -358.52069 -35.931916)
(359.93742 -359.21202 -47.271768)
(419.99747 -356.47358 -54.268999)
(473.03296 -351.65779 -60.662835)
(523.04526 -345.46647 -63.607564)
(567.25386 -339.73356 -64.517629)
(605.1825 -332.23393 -62.75991)
(637.65914 -327.35428 -57.428743)
(663.95441 -324.02822 -48.317203)
(685.13513 -322.58219 -36.152671)
(701.68978 -327.93955 -20.216354)
(716.91322 -331.20337 -2.3865146)
(729.89596 -344.61709 16.655966)
(746.24502 -357.59056 36.610963)
(764.35644 -377.73743 55.302163)
(787.89782 -401.39834 72.946333)
(817.65766 -429.2072 88.174262)
(854.98397 -460.66345 100.93765)
(901.08297 -494.81488 110.95795)
(954.83301 -529.30252 116.71059)
(1020.2558 -567.67243 119.84846)
(1092.9227 -604.38666 118.84743)
(1175.1719 -640.66028 114.00476)
(1265.2839 -675.47961 105.52177)
(1362.1227 -708.15707 93.935369)
(1464.2307 -738.3229 79.995331)
(1569.8274 -765.63213 64.660283)
(1677.1767 -789.98011 48.952514)
(1784.6214 -811.36807 33.840866)
(1890.7603 -829.95879 20.099339)
(1994.4833 -846.04122 8.2785927)
(2094.9792 -860.05446 -1.2795537)
(2191.6713 -872.54606 -8.3778548)
(2284.1742 -884.18875 -12.859816)
(2372.2367 -895.71909 -14.540465)
(2455.7683 -907.92082 -13.184975)
(2534.8879 -921.55437 -8.5535437)
(2610.0239 -937.31179 -0.50936465)
(2681.9928 -955.76005 10.865643)
(2752.0355 -977.30117 25.167738)
(2821.7746 -1002.149 41.645364)
(2893.09 -1030.3227 59.247107)
(2967.9344 -1061.6561 76.74923)
(3048.1282 -1095.8198 92.921146)
(3135.1791 -1132.3401 106.68672)
(3230.1564 -1170.6251 117.23745)
(3333.6418 -1209.9756 124.08432)
(3445.7413 -1249.6063 127.02116)
(3566.0889 -1288.6476 126.10582)
(3693.9292 -1326.2306 121.51042)
(3828.1699 -1361.3963 113.6168)
(3967.0727 -1394.3429 103.23059)
(4109.7222 -1421.0786 90.294693)
(4251.7876 -1447.3832 76.177951)
(4393.2642 -1467.5846 62.07483)
(4529.995 -1484.8428 49.169149)
(4660.7766 -1498.9916 38.669727)
(4783.3905 -1511.1482 31.818185)
(4897.0066 -1522.2774 29.374928)
(5001.3364 -1533.4818 31.769165)
(5096.8731 -1545.776 38.90875)
(5184.7513 -1560.0728 50.281656)
(5266.5158 -1577.1454 65.067697)
(5343.9424 -1597.6213 82.278343)
(5418.9003 -1621.9962 100.8888)
(5493.2773 -1650.6402 119.91249)
(5568.9968 -1683.7752 138.42811)
(5648.0296 -1721.4454 155.55481)
(5732.4092 -1763.4438 170.44138)
(5824.1425 -1809.283 182.25052)
(5925.0865 -1858.1309 190.22279)
(6036.7179 -1908.864 193.73281)
(6159.9682 -1960.0727 192.38657)
(6295.036 -2010.2004 186.09553)
(6441.3402 -2057.6398 175.02755)
(6597.6024 -2100.799 159.75189)
(6761.6291 -2138.3791 140.88837)
(6931.1543 -2169.1278 119.27511)
(7102.2844 -2192.9632 97.015299)
(7288.62 -2038.157 54.31455)
(7306.9036 -1870.6401 37.470603)
(7331.2659 -1702.9835 24.041445)
(7351.984 -1533.9818 12.127642)
(7380.4197 -1362.7742 3.4703573)
(7401.274 -1188.7426 -4.8876797)
(7426.6518 -1011.7028 -9.6637623)
(7444.7138 -833.30111 -16.193935)
(7458.953 -653.42438 -20.324032)
(7472.5725 -476.87265 -24.933349)
(7484.0638 -300.83471 -30.305616)
(7489.7219 -128.52157 -36.617105)
(7499.5801 42.508406 -45.144729)
(7508.7696 209.35691 -56.786509)
(7521.2093 380.18177 -72.292731)
(7366.8328 567.39052 -111.84085)
(7195.2435 574.87216 -131.82846)
(7021.792 577.26073 -149.47924)
(6853.3677 570.97192 -166.23395)
(6691.9906 557.68117 -177.86588)
(6539.6207 538.28708 -185.91131)
(6398.2396 514.04945 -189.08078)
(6268.5544 486.65494 -187.41163)
(6150.6563 457.6926 -181.31892)
(6043.7606 428.61043 -170.96998)
(5946.8282 401.02789 -157.40465)
(5857.9071 375.66672 -141.11882)
(5775.4758 353.83774 -123.257)
(5697.2878 335.79175 -104.43256)
(5621.882 322.05295 -85.659473)
(5546.625 313.13288 -67.867406)
(5469.5715 308.91381 -52.183899)
(5388.7737 309.39149 -39.339208)
(5302.3073 314.41035 -30.184484)
(5208.5415 323.43965 -25.262042)
(5106.2814 335.78157 -24.887926)
(4994.861 350.42593 -28.970044)
(4874.4045 366.18165 -37.006045)
(4745.5835 381.67786 -48.262944)
(4610.1223 395.9702 -61.614669)
(4469.7394 407.41725 -75.593313)
(4326.7121 414.58411 -89.583116)
(4184.2668 419.47168 -102.40276)
(4042.7765 419.60571 -112.23863)
(3906.1938 415.45909 -119.34227)
(3775.0102 407.91862 -123.10266)
(3650.8155 397.25376 -123.09547)
(3534.3339 384.16742 -119.35041)
(3426.0115 369.45432 -111.94622)
(3325.7961 353.93001 -101.2422)
(3233.242 338.46015 -87.78537)
(3147.4613 323.9207 -72.34634)
(3067.2003 311.15099 -55.857299)
(2990.912 300.90957 -39.339845)
(2916.8884 293.79971 -23.803271)
(2843.402 290.22527 -10.145304)
(2768.8504 290.34098 0.92894445)
(2691.871 294.05272 8.9452562)
(2611.4148 301.02469 13.662673)
(2526.7678 310.73409 15.038373)
(2437.5481 322.5151 13.176918)
(2343.6498 335.62396 8.288491)
(2245.2465 349.2803 0.66015257)
(2142.7104 362.68882 -9.3542035)
(2036.6491 375.11176 -21.30392)
(1927.9659 385.76563 -34.646678)
(1817.5588 393.98769 -48.678009)
(1707.0223 399.22553 -62.737553)
(1597.4499 400.85446 -75.884886)
(1490.6758 398.64166 -87.444419)
(1388.4088 392.45237 -96.447485)
(1292.0579 382.37376 -102.72326)
(1201.8999 367.94688 -105.40207)
(1121.8752 351.61986 -105.0671)
(1049.5048 332.8618 -100.8317)
(986.23106 312.493 -92.701102)
(934.22679 290.92789 -81.809745)
(889.71975 271.28621 -68.111301)
(853.97795 251.8752 -52.310215)
(824.62349 236.67069 -35.161088)
(801.57243 222.10424 -16.237223)
(781.99837 214.78512 0.62344447)
(763.91089 208.51651 18.169712)
(746.25371 208.74426 32.228177)
(726.11005 213.01066 43.956983)
(702.65378 221.6589 52.929195)
(675.40046 234.29164 58.255202)
(642.2472 248.75975 61.766807)
(604.48883 265.83538 61.616796)
(561.52344 283.21183 59.538206)
(513.22983 300.7627 56.176752)
(460.85133 316.07155 50.427974)
(403.76591 330.25864 43.901684)
(342.77369 339.65556 34.394563)
(278.42464 345.97843 23.405169)
(210.51907 348.24123 9.3098362)
(140.01235 343.76269 -7.4564428)
(68.528847 332.70467 -27.30532)
(-1.3048954 319.20092 -49.179174)
(-69.134187 296.63007 -71.774879)
(-130.35646 268.04283 -93.314372)
(-180.03339 237.21126 -113.4019)
(-219.45829 199.76124 -127.37883)
(-241.61332 160.58874 -135.81325)
(-247.61078 121.17541 -135.69506)
(-233.30497 81.021367 -126.95939)
(-201.61185 45.277149 -109.23851)
(-154.09811 15.695247 -82.690461)
(-91.221977 -0.7411297 -48.079875)
(-35.098306 -9.7771763 -8.4690536)
(-6.8708141e-15 1.5083581e-15 1.9262289e-16)
(-1.2504183e-14 5.7375616e-16 8.4327435e-16)
(-8.3449101e-15 1.4891922e-15 5.3018253e-16)
(-4.9731758e-15 1.4991158e-15 6.2376313e-16)
(-3.4146159e-15 1.5624416e-15 3.1576894e-17)
(2.0582335e-15 9.3962624e-16 -5.746342e-16)
(2.2101935e-15 3.7457559e-17 -1.1841335e-16)
(2.4553765e-15 -8.5141669e-16 -9.3419562e-16)
(1.2987427e-15 1.0081898e-16 1.7950851e-15)
(-4.5074861e-15 9.063971e-16 1.0710522e-15)
(-5.2682467e-15 2.1856155e-15 1.0652666e-15)
(-7.4917339e-15 1.915055e-15 2.2418828e-16)
(-9.400838e-15 1.3708275e-15 6.2833768e-16)
(-6.2048683e-15 1.3247981e-15 5.4317906e-16)
(-6.971104e-15 1.5128103e-15 7.5678131e-16)
(-1.2693866e-14 6.2923345e-15 -2.1364834e-15)
(-5.2452578e-15 2.6791924e-15 -5.3037742e-16)
(-1.0752404e-15 9.8318743e-16 -1.0111087e-16)
(-2.7353382e-15 1.7746034e-15 7.3085398e-17)
(1.0178949e-15 -1.5450237e-16 -4.119182e-16)
(-1.4303492e-15 4.136346e-16 -3.3264033e-16)
(-1.0059749e-14 4.7133437e-15 -1.6449855e-15)
(2.9801421e-15 -1.9180379e-15 -8.3172098e-16)
(-4.79756e-15 2.8035442e-15 1.1420498e-15)
(-5.4778068e-15 3.5047253e-15 -3.934403e-16)
(-1.8117877e-15 1.1581936e-15 -9.1309836e-16)
(-3.9812639e-16 4.7407236e-16 -2.2932148e-16)
(-1.5272242e-15 1.100363e-15 -2.2557932e-16)
(-4.1024849e-15 1.9838802e-15 2.8069696e-17)
(-5.3424143e-16 2.551799e-16 -1.9455919e-16)
(7287.6732 -2254.4682 -106.01948)
(7308.4555 -2271.2912 -101.71652)
(7328.5739 -2286.2955 -92.833167)
(7348.167 -2299.9763 -81.124985)
(7364.682 -2310.9072 -66.389393)
(7377.2801 -2318.832 -49.880796)
(7385.1623 -2323.398 -32.007603)
(7387.8776 -2324.0988 -13.679556)
(7385.3123 -2321.0174 4.5918342)
(7377.7461 -2314.0451 22.172546)
(7365.1917 -2303.3364 38.030933)
(7349.1122 -2289.7851 52.174245)
(7330.0636 -2273.4905 63.112448)
(7309.9701 -2254.5794 70.481001)
(7289.4975 -2234.1238 73.58899)
(7553.2022 566.31875 91.174094)
(7578.1234 581.92413 87.322499)
(7602.6331 595.54644 78.882842)
(7624.9044 606.83761 66.603817)
(7643.4138 615.87449 51.490589)
(7657.1601 622.42266 34.32811)
(7665.3781 626.25125 15.774694)
(7667.8532 627.40549 -3.2560179)
(7664.5616 625.86994 -22.162854)
(7655.7854 621.7582 -40.284789)
(7641.8863 615.28158 -56.729266)
(7623.7492 606.47237 -70.888584)
(7602.906 596.15372 -82.111579)
(7580.0469 583.44155 -88.965364)
(7557.868 569.2821 -92.156435)
(-37.628538 23.358432 29.823302)
(-97.643281 36.74742 50.810623)
(-156.47498 54.886343 78.592788)
(-203.06442 74.266092 96.748667)
(-235.80738 96.838506 111.36344)
(-249.26128 121.27271 117.54236)
(-245.38608 146.7619 117.03886)
(-223.07148 172.86124 109.91238)
(-185.72497 197.6224 97.719042)
(-134.83617 221.04644 81.536058)
(-73.853334 241.50208 62.991309)
(-5.9039595 259.13257 43.932292)
(65.627699 272.61241 25.082573)
(138.20972 282.3337 7.9185263)
(209.76055 287.43126 -7.234441)
(278.89028 288.57392 -19.703722)
(344.38285 285.56553 -29.938451)
(405.54677 279.38644 -37.845433)
(462.42998 270.07912 -43.745959)
(514.59193 259.25551 -47.706267)
(561.76277 247.14081 -49.896924)
(603.94001 235.02255 -50.140814)
(640.73602 223.94185 -48.221049)
(672.21676 214.25078 -44.03618)
(698.59868 207.03079 -37.268433)
(720.5219 202.37995 -27.969959)
(738.99149 200.84521 -16.35848)
(755.56189 202.14348 -2.8103389)
(771.88905 206.51934 12.00835)
(790.10641 213.42615 27.350355)
(812.21798 222.56674 42.48363)
(840.0454 233.52931 56.505168)
(875.24653 245.61892 68.80325)
(918.94977 258.5982 78.855087)
(972.10887 271.24587 86.453003)
(1035.0405 283.37467 91.130115)
(1107.2843 294.28169 92.888653)
(1188.4957 303.31894 91.875686)
(1277.9629 310.20062 88.040817)
(1374.4269 314.68837 81.78439)
(1476.5356 316.48893 73.443701)
(1583.0555 315.66673 63.295373)
(1692.5297 312.39234 52.020364)
(1803.4902 306.9339 40.15681)
(1914.4704 299.59202 28.282114)
(2024.1551 290.87436 17.024033)
(2131.3066 281.27304 6.9648039)
(2234.877 271.36828 -1.3741082)
(2334.0124 261.7459 -7.5387438)
(2428.1493 252.99947 -11.162583)
(2517.0364 245.66403 -11.984515)
(2600.7906 240.19761 -9.8539627)
(2679.9081 236.92129 -4.7598477)
(2755.2663 235.99854 3.1557604)
(2828.0827 237.4092 13.578486)
(2899.8494 240.9603 26.018143)
(2972.2387 246.30548 39.828014)
(3046.9878 252.98934 54.238292)
(3125.785 260.49657 68.409915)
(3210.155 268.29529 81.509088)
(3301.3727 275.86725 92.762213)
(3400.3709 282.74005 101.52888)
(3507.7236 288.48638 107.29058)
(3623.5542 292.72535 109.81617)
(3747.5592 295.14747 108.90206)
(3879.0572 295.50553 104.70036)
(4016.6468 293.77874 97.589693)
(4158.811 290.07977 87.960925)
(4302.994 284.06166 76.43129)
(4447.0303 276.49164 64.141136)
(4588.5189 267.82467 52.025059)
(4725.0803 258.53287 40.931929)
(4854.6677 249.45455 31.989889)
(4975.8804 241.20616 25.97541)
(5087.8398 234.35636 23.498212)
(5190.4892 229.44511 24.89841)
(5284.4018 226.82633 30.095297)
(5370.6694 226.84538 38.826906)
(5450.9083 229.6212 50.581098)
(5526.8811 235.30935 64.707611)
(5600.6329 243.96571 80.309052)
(5674.1424 255.38975 96.796918)
(5749.6873 269.58893 113.08591)
(5829.7052 285.77793 128.33081)
(5915.8873 303.8154 141.76151)
(6010.6648 322.65415 152.51115)
(6115.7139 341.86226 160.22928)
(6232.577 360.22048 164.19712)
(6361.7075 376.89234 164.26696)
(6503.2995 390.85871 160.20032)
(6656.1795 401.24147 152.40718)
(6819.793 406.72592 141.06762)
(6989.3271 408.1259 126.28554)
(7166.0133 402.53712 110.19698)
(7342.5067 392.48631 89.911135)
(-49.745596 26.99808 33.549144)
(-106.59114 41.767534 49.159917)
(-162.16382 63.974182 68.493453)
(-209.95199 78.901986 83.664113)
(-241.55975 97.366131 94.019507)
(-256.55391 114.28659 98.835303)
(-252.91797 132.55913 97.912491)
(-232.20796 150.16895 92.069412)
(-195.31269 167.66175 81.961183)
(-145.0436 183.96698 68.548443)
(-84.432244 199.00361 53.537085)
(-16.497813 211.93233 37.438326)
(55.554338 222.5355 22.005542)
(129.22961 230.09074 7.5662088)
(202.04542 234.60805 -4.9948012)
(272.62281 235.83237 -15.863125)
(339.36183 233.94406 -24.531441)
(402.15232 229.08271 -31.412923)
(460.04267 222.15829 -36.463884)
(512.90529 213.46143 -39.918264)
(560.44691 204.04612 -41.686475)
(602.51966 194.73437 -41.838394)
(638.91027 186.11122 -40.056991)
(669.86703 178.96414 -36.363152)
(695.53397 173.63944 -30.50977)
(716.58813 170.54749 -22.660972)
(734.19214 169.5366 -12.868058)
(749.84011 170.72282 -1.6414271)
(765.2506 173.80362 10.632916)
(782.45328 178.51765 23.268755)
(803.53614 184.52534 35.705342)
(830.36715 191.41836 47.263134)
(864.55648 198.83253 57.385509)
(907.36255 206.30642 65.848586)
(959.63701 213.47589 71.99553)
(1021.6002 219.96047 75.867152)
(1093.2745 225.32148 77.297889)
(1174.084 229.34871 76.37754)
(1263.1701 231.63909 73.177029)
(1359.506 232.18741 67.885603)
(1461.7346 230.80625 60.826504)
(1568.4167 227.60197 52.324641)
(1678.0719 222.60238 42.932745)
(1789.23 216.20366 33.069996)
(1900.4079 208.62233 23.270215)
(2010.1958 200.2496 14.025389)
(2117.3673 191.51379 5.8190932)
(2220.8327 182.8744 -0.93156158)
(2319.7626 174.80035 -5.8781969)
(2413.5961 167.73659 -8.7370598)
(2502.1078 162.0582 -9.308759)
(2585.4359 158.04444 -7.4745929)
(2664.1026 155.83182 -3.2229871)
(2739.0071 155.40615 3.3388175)
(2811.3846 156.59563 11.963274)
(2882.7427 159.09724 22.258435)
(2954.7607 162.51442 33.694858)
(3029.1804 166.41166 45.631923)
(3107.6913 170.3534 57.370831)
(3191.8139 173.95551 68.207361)
(3282.8205 176.88631 77.488456)
(3381.6444 178.8961 84.677133)
(3488.8605 179.7835 89.363798)
(3604.5956 179.41463 91.345994)
(3728.5471 177.67996 90.480116)
(3859.9528 174.60658 87.073045)
(3997.2986 170.11536 81.201276)
(4139.1734 164.14178 73.321775)
(4283.7332 157.53375 64.128614)
(4428.1573 150.52547 54.114383)
(4570.0048 143.42732 44.23052)
(4706.9376 136.68773 35.147551)
(4836.9411 130.9426 27.771952)
(4958.4478 126.41738 22.773882)
(5070.6895 123.42538 20.690592)
(5173.5016 122.11871 21.734634)
(5267.3945 122.62851 25.955212)
(5353.5262 124.98707 33.138283)
(5433.4134 129.22278 42.846957)
(5508.8335 135.33268 54.521985)
(5581.9919 143.2101 67.491509)
(5654.7444 152.68974 81.110117)
(5729.6402 163.84854 94.202386)
(5808.8424 175.66028 107.44818)
(5894.5637 187.80467 118.19082)
(5988.8788 200.97108 127.07478)
(6093.6116 213.60469 132.90841)
(6210.3074 225.01518 135.8767)
(6339.5405 234.84669 135.36178)
(6481.6249 242.17698 131.82778)
(6635.0391 246.48108 124.70151)
(6800.1014 246.92828 115.38856)
(6970.9424 244.1956 102.11049)
(7150.075 235.32706 88.546891)
(7328.9271 223.53347 69.820261)
(-58.584882 23.75467 33.574225)
(-114.39733 39.460615 44.022546)
(-171.61774 58.105683 60.636305)
(-216.3486 72.970826 71.320278)
(-247.64026 87.491588 79.038568)
(-261.66218 101.35687 82.293941)
(-258.97806 114.41357 81.547217)
(-238.27278 127.51352 76.667602)
(-202.34314 139.76017 68.179876)
(-152.80363 151.9466 57.572504)
(-92.757726 162.56628 44.990572)
(-25.018307 172.37385 32.17023)
(47.181358 179.93402 19.235602)
(121.24999 185.79572 7.4756607)
(194.97614 188.848 -3.3159833)
(266.42421 189.62024 -12.221004)
(334.58364 187.6249 -19.75954)
(398.25943 183.62622 -25.533776)
(457.02803 177.53822 -29.946249)
(510.48956 170.40002 -32.836766)
(558.2894 162.60279 -34.36223)
(600.31848 154.87587 -34.351335)
(636.43716 147.92319 -32.837165)
(666.8005 142.0884 -29.613882)
(691.79696 137.89438 -24.744765)
(712.23988 135.26561 -18.149402)
(729.2204 134.33479 -10.111349)
(744.24256 134.9131 -0.88586576)
(759.11194 136.77676 9.1006216)
(775.84142 139.57883 19.416658)
(796.3632 143.05905 29.450649)
(822.56706 146.92746 38.750162)
(856.16144 150.81813 46.955075)
(898.29259 154.53625 53.592782)
(949.81697 157.7089 58.502372)
(1011.1762 160.13001 61.544567)
(1082.2081 161.6078 62.561693)
(1162.4335 161.84118 61.643116)
(1251.1919 160.76409 58.804324)
(1347.2516 158.17865 54.293011)
(1449.2884 154.24825 48.353661)
(1555.9089 148.89718 41.308201)
(1665.5617 142.33644 33.511677)
(1776.6959 134.80449 25.479053)
(1887.7823 126.48119 17.547999)
(1997.4234 117.78304 10.149918)
(2104.3425 109.0348 3.6508794)
(2207.4665 100.62924 -1.6276169)
(2305.9667 92.935882 -5.4319934)
(2399.3181 86.299208 -7.5565223)
(2487.327 80.982435 -7.857321)
(2570.1741 77.149417 -6.2451793)
(2648.4178 74.824999 -2.7090759)
(2722.9839 73.895477 2.6742434)
(2795.1236 74.110369 9.7154627)
(2866.3417 75.11854 18.105983)
(2938.3017 76.51308 27.414368)
(3012.7206 77.883234 37.11853)
(3091.2527 78.85686 46.637465)
(3175.3902 79.148893 55.382613)
(3266.3774 78.539887 62.822063)
(3365.136 76.927929 68.512081)
(3472.2281 74.228939 72.136578)
(3587.7812 70.477811 73.53227)
(3711.5066 65.659512 72.654337)
(3842.6366 59.952751 69.651683)
(3979.9331 53.286399 64.696395)
(4121.4859 46.915421 57.955239)
(4265.3561 39.208521 50.401619)
(4409.3701 31.792057 42.311728)
(4550.7661 24.785959 34.331703)
(4687.3505 18.60122 27.097699)
(4817.028 13.647174 21.337219)
(4938.4372 10.034933 17.546787)
(5050.6878 7.8597399 16.055154)
(5153.5631 7.2988392 17.250928)
(5247.6121 8.2440776 20.974123)
(5333.8582 10.687205 27.141468)
(5413.8223 14.547748 35.320584)
(5489.3135 19.723243 45.082919)
(5562.3471 26.107619 55.774954)
(5635.1311 33.565881 66.872685)
(5709.8543 41.839181 77.594192)
(5788.7368 50.962472 87.643656)
(5873.83 60.090214 95.776343)
(5968.5069 68.592906 102.47427)
(6073.3854 76.398075 106.57801)
(6190.472 82.726021 108.53445)
(6320.1527 87.472015 107.48268)
(6462.9024 89.754343 104.14863)
(6617.237 89.65085 97.923992)
(6783.4177 86.009823 89.718946)
(6955.6366 79.887019 78.811934)
(7136.7975 68.306086 67.046912)
(7317.0037 54.206583 51.7706)
(-66.120068 22.472605 30.828828)
(-124.96452 33.551759 40.519672)
(-179.12009 50.056685 51.854871)
(-222.58581 61.810953 59.302587)
(-252.13746 74.349761 64.427714)
(-266.39373 84.812072 66.726156)
(-262.85185 95.116535 65.479014)
(-242.95799 104.35969 61.137389)
(-207.51172 113.5801 54.673963)
(-158.64188 121.81553 45.822009)
(-99.128716 129.58107 36.242656)
(-31.853143 136.14314 25.785119)
(40.223227 141.49632 15.879734)
(114.65037 145.13135 6.272689)
(188.72531 146.88768 -1.9686465)
(261.11365 146.70092 -9.30339)
(329.85987 144.52668 -15.180336)
(394.40765 140.59469 -19.924981)
(453.76621 135.26411 -23.398057)
(507.6313 129.04034 -25.733827)
(555.52092 122.35946 -26.869711)
(597.41463 115.9175 -26.855189)
(633.15662 110.03354 -25.529597)
(663.09026 105.22334 -22.920413)
(687.59127 101.5456 -18.933636)
(707.5366 99.2087 -13.682532)
(724.06436 98.061995 -7.3206747)
(738.76666 97.956884 -0.067455324)
(753.36863 98.619379 7.7497111)
(769.8201 99.835638 15.695384)
(790.09523 101.27618 23.431053)
(816.06795 102.69432 30.601972)
(849.26126 103.87906 36.80185)
(890.95905 104.59467 41.851696)
(942.02124 104.68438 45.515093)
(1002.835 103.9736 47.664221)
(1073.3939 102.27661 48.265264)
(1153.3101 99.589698 47.344353)
(1241.6825 95.746436 44.989427)
(1337.3662 90.79124 41.32139)
(1439.1566 84.668948 36.525502)
(1545.5278 77.520303 30.903704)
(1654.9481 69.493221 24.795643)
(1765.8021 60.778502 18.500278)
(1876.5717 51.613485 12.388837)
(1985.823 42.297863 6.7594232)
(2092.2734 33.132641 1.887064)
(2194.846 24.431234 -2.004416)
(2292.7457 16.49807 -4.7494299)
(2385.4766 9.5937361 -6.208289)
(2472.8936 3.9003855 -6.2883205)
(2555.2214 -0.49817361 -4.9236817)
(2633.0572 -3.6451985 -2.0991709)
(2707.3541 -5.7081271 2.1397134)
(2779.3713 -6.9679474 7.6620284)
(2850.603 -7.7807884 14.23614)
(2922.6871 -8.534195 21.529706)
(2997.297 -9.5966126 29.125967)
(3076.0419 -11.276059 36.553658)
(3160.3666 -13.790125 43.338148)
(3251.4771 -17.269039 49.046904)
(3350.2642 -21.753633 53.332397)
(3457.2755 -27.220733 55.953444)
(3572.6208 -33.589086 56.807654)
(3696.0646 -40.776817 55.893859)
(3826.714 -48.570371 53.326557)
(3963.429 -56.815467 49.341198)
(4104.5632 -65.325082 44.271773)
(4247.9985 -73.948963 38.319381)
(4391.2831 -82.177494 32.206695)
(4532.1945 -89.590115 25.973397)
(4668.1752 -96.060406 20.435311)
(4797.4374 -101.36017 15.876886)
(4918.6996 -105.28089 12.83132)
(5030.7242 -107.67633 11.738284)
(5133.5973 -108.72552 12.580778)
(5227.6025 -108.42242 15.493569)
(5313.872 -106.9099 20.294057)
(5393.8284 -104.30968 26.688368)
(5469.3055 -100.83015 34.316836)
(5542.3109 -96.562488 42.6652)
(5615.0843 -91.727917 51.232386)
(5689.8357 -86.62665 59.56701)