/*--------------------------------*- C++ -*----------------------------------*\
  =========                 |
  \\      /  F ield         | OpenFOAM: The Open Source CFD Toolbox
   \\    /   O peration     | Website:  https://openfoam.org
    \\  /    A nd           | Version:  6
     \\/     M anipulation  |
\*---------------------------------------------------------------------------*/
FoamFile
{
    version     2.0;
    format      ascii;
    class       pointScalarField;
    location    "0.08";
    object      E;
}
// * * * * * * * * * * * * * * * * * * * * * * * * * * * * * * * * * * * * * //

dimensions      [1 -1 -2 0 0 0 0];

internalField   nonuniform List<scalar> 
3969
(
9.3611706
9.3489824
-71048.198
-32836.034
8.6164916
9.1810145
-50409.551
-106939.29
21.456266
26.652074
30.705973
31.084783
28.637611
25.692074
11.613787
-37588.801
-37362.942
-37284.902
-37144.816
-37122.478
-37375.874
-27715.119
8.0377826
13.727044
25.490766
39.487236
52.076696
64.874516
73.263491
83.636935
87.495244
93.833012
99.155708
108.56235
116.66785
137.66244
160.79556
192.97787
233.48986
280.0659
332.76919
389.67094
448.36633
510.06111
572.08641
633.842
699.02759
765.77472
831.37316
896.1308
956.78112
1015.6964
1069.1137
1119.197
1158.9088
1196.9941
1237.0636
1254.6351
1308.2726
1309.7479
1385.3429
1375.882
1487.1526
1507.9332
1590.0168
1713.6153
1783.3199
1954.1798
1838.5269
13.502378
21.414109
35.568679
52.540638
68.625369
82.487277
97.185375
102.56028
114.09248
112.64044
121.90286
120.94624
135.57435
149.08393
175.33872
205.35072
245.56096
289.46887
339.75738
391.97069
448.89731
505.20818
561.25835
624.81454
683.8766
748.27588
805.22222
868.53217
922.68519
978.91502
1031.3144
1082.2736
1126.3751
1172.0458
1213.0861
1254.4036
1291.9085
1319.3131
1369.6224
1400.6771
1463.7145
1541.5899
1532.774
1709.0373
1780.2971
1892.6029
2105.4081
20.527256
27.702992
34.826258
36.34072
34.601212
32.356066
13.412329
19.297659
22.514374
33.427802
60.199886
72.634402
111.23494
101.48127
145.45388
117.65572
141.73777
110.75441
126.94999
100.01162
112.38373
120.89668
147.99333
186.13142
236.11669
296.58081
365.56045
440.93638
520.81785
601.93822
685.17889
769.8921
865.6392
939.77034
1051.1423
1136.6826
1218.6937
1294.7789
1358.2907
1413.4839
1455.9403
1490.3127
1503.8349
1501.1616
1508.7187
1510.3306
1499.8129
1479.5094
1497.5646
1462.4288
1524.5234
1567.6913
1722.3723
1523.3459
-81754.417
-67741.732
-81651.241
-76498.873
-77142.545
-69024.291
-84083.331
1215.695
1504.2513
1748.2073
1615.022
1540.5916
1468.929
1424.2597
1375.2632
1353.4668
1342.3944
1302.8233
1225.3102
1265.1588
1215.907
1192.2865
1154.8678
1110.9467
1059.2938
1005.5267
942.165
879.16301
814.10233
746.31692
682.48322
617.27574
551.80707
488.02213
422.36055
361.72142
298.4947
248.40289
205.62185
181.36371
130.299
106.44956
102.8223
100.11324
104.61252
92.851005
80.418257
86.573721
69.067284
63.506317
46.793442
29.390128
12.308109
8.4088169
8.6146846
8.3999658
7.3635501
7.2109032
7.8146486
8.6240117
7.4974177
10.358192
9.413907
9.1033547
8.9954821
9.9589636
10.868718
11.444559
-37283.292
-37268.505
-37329.797
-37302.679
-37291.764
-37309.051
-37141.247
-80190.417
-80276.051
-80340.817
-80371.598
-80346.722
-80487.139
-80387.026
25.341664
24.437835
26.452073
29.371335
32.836287
37.299501
44.879751
54.965474
68.993745
86.240805
104.70171
122.67356
144.4699
168.63445
191.86036
218.35967
247.16361
274.60668
302.19881
330.5709
360.60195
392.16942
425.83934
462.623
500.31927
535.40637
570.40115
612.28918
648.71133
691.55803
734.80192
781.65823
830.75778
883.54992
939.79282
985.70386
1069.8062
1102.2706
1213.2073
1280.8381
1361.0551
1471.4768
1625.1828
1705.5296
2049.5627
2072.7812
2375.3019
28.366513
27.514522
22.480281
16.697247
13.396751
15.108263
24.187727
41.500384
65.909902
93.751026
122.47114
150.76693
173.3336
190.17677
202.15573
208.53975
209.39016
205.77682
201.47885
196.34941
191.10656
189.92698
193.66406
200.08074
207.12656
224.85376
242.3265
266.58814
295.83717
331.382
376.29854
430.04038
489.82423
563.25188
635.03002
724.9788
820.79737
885.47541
1035.6694
1072.8176
1292.0034
1360.4574
1603.8405
1625.4708
1947.6591
1932.4157
2592.3307
30.609558
29.56701
24.242627
16.598075
10.194866
9.6476482
18.966927
38.727443
68.410162
104.42724
141.89842
174.58952
201.26458
221.27804
230.84462
231.27839
223.92833
210.65759
192.9032
173.57976
158.79008
148.2329
136.34646
127.61951
127.4754
123.51083
123.22851
126.58805
136.34418
154.89007
184.04992
223.30872
276.07827
338.07748
414.63116
500.54555
597.15271
719.44605
862.15313
995.23147
1149.1578
1307.8429
1485.1757
1670.6355
2147.5088
2177.2976
2709.3133
30.51704
28.524618
23.362868
15.421582
9.36203
10.012526
20.815771
42.36967
73.266766
108.24294
143.35932
177.63725
203.10581
218.79568
226.57216
223.41982
211.12856
191.11325
166.51962
139.80096
109.559
78.492736
61.731756
51.640304
38.342018
38.548391
43.993023
59.776965
82.844092
117.43115
163.25591
223.85615
294.42972
381.54168
473.24399
582.52111
692.6747
812.90527
936.1304
1031.944
1240.6612
1354.4388
1579.1969
1790.3697
1975.8288
1964.3622
2554.4455
31.136168
30.930051
26.526563
20.450765
15.076827
14.455002
21.799333
38.719245
63.912016
95.242914
129.40579
160.17129
186.42591
207.53622
220.57237
225.01139
223.18761
214.85408
203.16433
188.77849
173.75224
166.92323
147.33907
133.72662
125.46817
122.79101
120.65215
123.2026
130.99747
147.38326
174.85697
210.42938
262.78161
318.88973
395.78296
480.63342
561.99991
700.30094
793.26153
938.13496
1060.5959
1210.4551
1413.0735
1584.6941
1787.5447
2123.5754
2694.7096
30.314512
30.22148
28.495821
25.717979
24.924963
28.345045
38.126725
54.456276
76.159084
99.738412
123.68974
144.57729
164.31404
179.0959
190.85339
198.02682
201.9621
203.09557
203.69578
202.85387
207.91289
216.38146
203.50192
212.52988
231.02234
243.85079
260.74783
286.76629
317.24467
354.93974
399.19728
452.93826
513.06184
586.36706
661.34651
748.30174
850.16556
925.97537
1069.6319
1231.6526
1336.7469
1506.282
1631.3918
1805.2365
1920.2486
2198.6884
2517.4735
22.443117
29.085617
36.050447
41.055985
44.769415
47.873965
49.555586
56.803996
62.668443
77.495759
92.487677
110.6047
131.82287
158.97241
187.92331
219.32071
251.30205
283.91851
313.53614
345.84332
372.9202
410.95763
437.27655
470.63392
507.08896
538.81501
574.45334
604.66583
642.74088
677.78989
715.89961
755.00995
799.70109
842.49619
895.00817
949.07814
996.98696
1080.1138
1124.9634
1185.8274
1268.5223
1370.9446
1499.895
1614.3354
1783.7331
2100.605
1982.6671
16.571728
14.540501
13.423182
13.325235
14.150717
15.568415
18.572304
22.410497
19.813074
18.615615
18.616973
19.538234
22.057166
25.163192
26.885993
24.050571
22.852596
22.522305
23.734596
26.020797
30.145679
27.919329
24.919657
23.55804
23.551339
24.955795
27.858823
32.185997
24.892811
21.817463
20.829716
20.689628
21.864819
24.244559
28.77257
21.405738
18.912554
17.780326
17.763066
18.7387
21.215053
25.618129
9.8751321
8.0773977
7.1422452
7.1161588
7.5329411
8.962577
10.38966
14.578895
13.28145
12.57135
12.298234
12.976389
14.416585
17.436029
19.856786
15.693247
14.798089
15.86279
16.137675
18.098097
19.981276
30.538226
30.88476
30.312287
30.46285
31.186713
33.205974
32.946666
49.237223
53.558428
52.602547
53.104585
54.023115
55.355557
54.497287
74.187541
77.866864
77.454318
78.609895
80.200776
82.786858
77.314494
100.60988
101.53092
101.52975
102.55444
103.35213
94.890202
101.55821
112.20525
117.56602
115.28667
118.84598
118.34919
127.34107
119.99333
134.04014
125.03819
124.16447
126.87759
122.92145
127.48606
132.95644
130.89372
126.44909
129.85767
126.22119
130.76984
127.98627
141.50674
138.02143
117.09742
113.11223
121.19071
116.7943
123.54739
133.34188
131.76254
117.81866
120.3654
112.3415
117.98249
110.94687
130.22618
133.08341
110.38761
104.10944
107.36203
97.69415
101.31467
126.41493
132.06754
109.50059
109.63668
100.91609
106.09288
104.80681
117.40108
141.70389
118.93373
118.2593
111.33884
109.00222
109.75089
120.24629
158.01398
136.98179
134.13692
128.29727
125.44638
128.08058
135.37454
184.68827
164.21988
164.34248
157.01233
154.10552
157.73643
157.20371
219.71967
205.28194
203.22836
197.66992
192.83728
197.98761
192.37541
264.87099
253.57106
252.47865
247.42644
242.14784
249.23078
237.05766
316.5977
310.69013
308.38203
304.79039
298.82003
307.35121
291.39419
375.43875
371.97588
370.07496
366.95348
361.12767
371.11642
353.71122
437.31059
437.07229
434.59113
432.21084
427.9264
437.46842
421.67419
503.86747
504.22907
501.05535
498.64791
494.54322
503.17623
493.0827
572.37276
570.24886
566.49643
566.64922
566.11872
573.67936
569.0699
644.85456
639.422
636.38756
637.13618
632.77827
638.85638
639.29285
722.11564
710.24797
704.08556
706.54788
707.70863
708.77732
723.34568
795.29698
779.92185
778.12095
777.34984
779.06764
785.16629
817.72306
865.16755
860.64917
857.52304
858.01672
875.57115
866.15888
899.3685
944.98172
940.64574
933.61968
942.53471
940.35705
943.9228
983.87712
1019.891
1010.0854
1013.0764
1019.4733
1030.3582
1029.9824
1070.6459
1095.4281
1087.6335
1092.9539
1099.5609
1111.7438
1108.3949
1148.1974
1169.5688
1160.5946
1167.3089
1170.609
1185.3185
1173.8556
1223.1838
1237.3882
1224.7296
1233.1216
1234.0498
1250.6472
1236.16
1291.3238
1298.0733
1280.5169
1290.4417
1286.8295
1304.9655
1287.2301
1349.43
1349.1892
1327.4171
1337.1972
1331.7909
1350.7109
1328.4892
1396.7833
1394.9033
1368.0312
1376.4448
1367.7771
1380.3146
1361.6661
1435.8288
1428.1276
1399.2406
1409.4172
1394.4366
1412.546
1404.8944
1457.1449
1451.6413
1419.6497
1435.7727
1419.0736
1445.4866
1419.6843
1498.0353
1491.8943
1424.8904
1433.0201
1432.2415
1430.3251
1401.5561
1496.0551
1512.0473
1477.0188
1503.0073
1459.4783
1488.3413
1451.4955
1543.8404
1561.5492
1496.6438
1515.3319
1487.2421
1496.186
1459.8088
1549.9971
1570.908
1512.358
1555.4766
1498.2482
1539.1111
1481.231
1566.9311
1647.6781
1577.4013
1596.2461
1581.7465
1578.0652
1529.0758
1610.4606
1645.7392
1555.6067
1632.0061
1571.152
1598.8998
1552.1733
1628.4911
1748.8851
1689.4863
1716.336
1686.727
1700.5873
1644.6861
1697.7248
1868.8033
1783.8766
1854.7734
1793.8038
1839.8662
1770.5369
1833.9282
2001.9819
1930.2724
1976.0482
1942.4649
1971.7679
1924.9492
1990.8024
2046.6344
1966.9322
2010.821
1974.0617
2011.2871
1957.9151
1999.598
-46605.15
-51543.047
-51654.537
-51617.001
-51614.367
-51661.659
-51429.714
-51466.99
-51148.822
-51262.658
-51283.97
-51262.912
-55313.33
-51331.079
-54852.011
-50840.644
-50807.477
-50791.242
-50851.184
-45728.226
-50734.092
-50516.031
-50290.172
-50372.224
-50433.198
-50366.422
-50280.289
-50468.777
-50361.723
-45542.618
-50449.199
-50413.854
-50367.358
-50388.301
-50332.306
-45626.034
-54283.585
-50373.851
-50328.799
-54466.118
-50220.044
-50319.425
-54161.028
-50280.474
-50231.798
-50291.233
-45414.267
-50259.303
-50223.711
8.3901198
7.9135462
7.3595397
6.5763416
7.402221
8.3621623
7.9036872
11.837184
9.8222306
9.7438958
10.768233
10.380024
12.087175
10.709223
25.702656
25.429475
25.604994
25.970548
25.885109
27.600569
25.807617
40.291916
42.716005
43.158415
42.891801
42.988911
43.908041
41.259239
58.06342
61.07677
61.371017
62.331444
61.102111
59.841105
58.311491
71.627944
75.767761
76.649717
75.483497
76.110696
75.805923
73.077878
87.138016
88.20731
88.074496
84.362391
86.966958
85.606983
84.749188
94.167555
94.640036
91.867766
97.114903
91.779133
91.268184
92.53459
102.63768
97.158409
94.772801
90.685331
95.762759
87.931727
98.290933
104.5034
98.59621
95.482639
95.114836
92.720985
94.241969
94.806148
108.86117
100.95769
96.309213
94.314794
93.211502
94.216816
97.661811
116.0398
98.972856
93.924192
97.453459
95.100928
105.59432
97.257169
115.98193
111.50296
104.5856
108.80599
105.58324
112.89052
117.53817
132.83845
125.17236
115.15182
130.92734
114.48154
135.13154
128.65263
155.21915
137.25151
148.96528
141.2324
148.44971
154.21372
147.99069
183.41915
190.92053
180.71032
193.79522
169.49723
206.02092
172.12834
228.05932
229.2366
218.69892
235.7398
213.10662
246.39174
217.45752
277.83713
280.1603
268.9472
285.73546
261.17314
296.25865
263.88676
331.45199
336.05781
323.23146
341.88859
315.99976
350.3611
318.28604
389.65371
395.25789
382.35415
400.9788
373.5925
408.26184
376.75998
450.27168
457.29857
443.04006
461.50842
434.15742
466.02846
437.12019
514.41376
518.94438
503.84254
521.37178
494.1758
525.0506
499.40584
577.30044
581.83365
566.92317
581.40661
556.50422
580.91956
560.41358
647.15117
644.32185
629.95238
642.05817
618.94277
640.84438
628.56414
712.63932
706.76479
697.33988
702.69519
684.24404
699.35088
689.09929
782.36283
777.40682
764.0705
767.21355
752.12794
760.98458
758.92003
851.72062
844.93288
833.76081
834.5755
819.73451
826.11764
826.03034
922.82809
915.52969
905.26987
901.37496
893.88641
892.2136
896.19706
993.13661
981.96475
976.01356
967.53364
962.20779
954.653
962.07412
1060.4603
1050.1762
1042.8031
1032.4329
1031.4891
1017.5175
1026.909
1123.7644
1107.4623
1106.2434
1090.1157
1093.9104
1071.4557
1084.4494
1179.8032
1162.3821
1161.0652
1142.2129
1149.5856
1122.8871
1137.4822
1228.8804
1206.3069
1209.6523
1188.7433
1198.2477
1166.0194
1183.2604
1272.8937
1245.8548
1251.1411
1227.2911
1239.3821
1208.6563
1213.7996
1311.9343
1277.3076
1286.0503
1259.6106
1267.1142
1227.9164
1257.6432
1332.2503
1306.7911
1317.3556
1288.4313
1305.125
1301.5081
1309.5311
1370.9885
1349.2473
1341.7996
1323.9549
1351.3307
1269.2539
1313.6627
1388.3139
1354.1489
1360.5613
1337.207
1348.7422
1333.2462
1339.0815
1439.3143
1413.3077
1425.1933
1392.0648
1406.6692
1364.0921
1385.3886
1479.5471
1439.7047
1434.0688
1429.5032
1429.9152
1402.338
1423.2504
1533.8406
1476.9343
1514.3087
1480.2008
1493.3992
1458.3312
1477.103
1573.8996
1582.6528
1550.9303
1548.5839
1550.6446
1517.0292
1545.6339
1709.8158
1598.3408
1628.0779
1643.1493
1652.991
1636.7053
1639.8728
1682.3979
1675.4041
1686.6312
1687.3917
1667.2659
1646.4887
1668.439
1942.7801
1841.7271
1901.281
1863.7826
1879.2349
1901.3693
1884.5358
1627.5629
1667.6273
1667.0637
1627.7541
1673.3069
1605.2732
1643.9278
1796.1243
1601.8292
1637.6683
1646.8464
1604.6919
1646.7301
1631.9662
25.733491
27.763156
30.582513
39.762571
48.011151
51.905294
61.449508
64.631203
73.469737
88.444081
100.65124
116.93313
134.31078
157.80426
182.90094
227.37353
261.81465
301.63594
345.36899
386.94448
431.18642
474.48999
519.8271
565.58299
611.56043
661.3057
707.81795
761.39154
806.99897
858.67082
905.5145
955.38855
1002.0157
1053.5815
1100.3434
1147.5939
1204.3319
1268.9339
1303.2806
1354.0557
1414.3527
1493.4986
1555.2487
1706.6322
1881.4264
2090.6491
2505.9113
29.670094
37.914645
27.585679
22.355048
16.698695
15.817166
22.652769
40.457244
65.686154
96.387577
125.25325
152.49857
175.22248
192.89261
206.32234
209.91409
206.91204
204.75698
198.70385
193.99016
191.20717
192.64326
198.56508
209.26213
221.97476
250.65542
280.18924
286.10513
321.60003
355.67135
401.78767
455.0461
519.4804
587.99238
669.43862
748.59597
841.24684
941.46897
1050.2018
1161.4945
1307.9862
1415.2076
1634.538
1712.4822
2078.4698
1812.1238
3160.0832
32.548754
35.131552
26.344609
20.730694
11.649583
9.3269703
17.634636
34.798156
61.874799
94.629284
128.6814
162.53571
180.59811
200.2215
207.95753
212.26864
209.66616
202.32252
186.58358
173.31068
159.4174
148.90582
142.99193
139.54836
141.39102
145.90662
158.22568
163.63803
187.25249
211.01888
245.91786
291.45858
345.85768
411.04925
485.56945
569.43112
663.04186
766.76709
868.34195
1009.401
1108.54
1315.8285
1414.1053
1669.175
1827.3077
2103.3362
2644.7209
34.12956
35.145053
30.283116
22.055496
12.274062
8.8236268
14.386508
35.473193
66.85318
106.77479
147.13165
186.02716
217.21854
239.89744
250.18199
249.69017
237.09289
214.93048
185.12561
155.46188
124.78586
98.650732
77.550959
63.92255
54.725485
49.353467
45.363318
49.415457
63.774111
85.202678
120.20823
169.37957
231.69862
306.34649
397.43734
498.65531
610.84926
732.91392
880.73498
1006.2964
1212.6748
1326.937
1586.1334
1706.6899
2096.8553
1937.2662
2696.8521
35.165907
35.002351
29.29237
22.442687
12.786689
9.5335889
15.037822
33.49572
60.592363
91.346425
128.94425
159.9657
188.28137
208.01251
225.24502
221.88592
213.47693
196.48013
175.09801
152.19545
129.98103
110.54468
96.981811
82.027031
67.131608
65.145537
66.757046
74.293417
90.147071
110.61027
143.77785
187.00595
241.34934
309.13361
389.3339
473.65806
574.8027
686.21119
784.38199
951.46372
1042.5472
1245.5118
1388.9771
1620.8993
1734.216
2035.5834
2639.8489
35.138118
35.560863
31.044485
25.65194
19.27705
18.06643
25.567381
44.991507
71.713674
103.97555
124.04848
150.83487
168.08878
183.95177
190.49642
195.79954
196.31419
193.18875
188.16415
184.64695
184.20586
187.86531
195.42711
205.09131
198.88269
216.10745
226.31568
248.55918
276.07132
313.09684
359.94786
416.33024
483.8652
559.66453
645.50182
733.80944
840.26851
932.01878
1082.7705
1166.1248
1338.2318
1464.5514
1650.6349
1788.5262
2031.2755
2390.0077
2348.0362
23.989909
33.525703
40.4608
45.004707
46.824837
42.357598
46.390492
44.3069
57.142527
68.799378
68.669022
102.49739
128.24915
154.19785
189.25329
224.98571
261.8609
297.89318
332.28208
365.01629
396.92659
429.18497
463.24443
495.73691
532.76854
510.34743
526.94879
551.36107
577.60734
604.45025
634.7594
666.89974
703.23822
740.88189
788.7805
814.41195
908.03406
952.9896
987.52092
1089.6688
1152.7256
1262.0477
1373.9547
1525.7973
1689.6856
1917.4584
1610.6588
18.345379
18.07462
16.386235
16.202213
16.865879
18.498388
21.655565
18.819632
15.904522
14.628382
14.518708
14.711645
16.538947
17.901761
23.440793
23.47314
22.475221
22.281103
22.606452
23.884419
24.699493
29.72416
32.347646
31.76822
32.028615
31.820933
32.965963
33.310204
38.410701
42.599448
41.474252
41.396146
41.908853
41.822248
40.412092
44.939504
50.486319
50.256001
51.941976
50.95574
50.887751
49.53794
54.532907
58.877999
57.76824
57.491817
58.288095
58.347385
58.43901
62.505904
64.209765
64.466759
65.981151
65.969146
64.609805
65.626298
74.162637
72.350213
70.99575
71.420203
70.639201
72.531738
73.905551
84.710282
77.657562
77.777407
77.914239
78.485677
80.484927
84.103103
96.692535
85.866209
86.723292
85.135214
88.186417
91.909731
97.311237
110.89956
98.855502
99.594502
97.085682
99.392375
103.4696
109.75994
129.86633
116.24396
115.12553
112.93841
114.15016
119.57615
126.65599
148.0234
135.68817
136.5858
133.59742
135.87107
144.30725
146.27035
171.27642
166.86014
162.3693
160.94335
159.67472
172.79954
166.27684
200.76574
196.47737
192.36244
193.29624
192.99863
200.34292
197.09768
229.18233
227.53039
226.64275
224.75492
227.57481
236.6988
231.30267
262.93164
264.85876
262.47791
262.57714
265.24151
276.45319
264.23902
298.36055
303.94998
301.22082
302.47701
304.12933
314.53026
300.40454
334.2852
344.94635
340.91921
343.33309
343.90637
354.70177
338.45063
372.05799
385.91759
379.89497
383.40448
382.97517
393.92268
376.45956
410.46755
427.50824
419.58601
424.24352
422.14692
432.12073
415.65394
451.30531
469.18793
459.27023
464.87136
461.19577
471.60177
456.14719
492.52814
511.41932
499.31044
505.08622
501.937
511.05002
497.96063
536.59476
552.82368
542.88285
546.88915
544.37512
551.44918
540.31929
582.03977
596.74867
588.47511
590.16309
590.23685
595.36177
586.30095
629.47415
642.71222
632.11262
638.33923
633.37994
643.05841
632.25036
676.2874
690.7449
681.79875
684.55516
684.86031
685.60802
683.46196
725.41404
735.46669
732.97492
735.15408
732.41485
734.83431
729.61713
775.78968
785.83128
785.91497
784.40761
785.78233
782.74403
783.49698
827.20631
831.8841
837.64986
834.80634
836.59517
831.35457
832.78888
878.7035
880.60268
890.45448
884.95347
889.34788
879.87807
886.23118
931.95579
927.01845
942.05701
933.78829
939.59248
929.02726
935.64356
984.61231
972.03624
994.01019
981.04883
992.11273
976.69456
990.5186
1035.2958
1022.2473
1049.2941
1029.6829
1045.2919
1027.1378
1041.4432
1096.2616
1069.9871
1090.812
1079.2299
1092.8762
1074.1056
1083.9427
1154.1329
1090.1621
1181.6687
1118.8866
1166.4125
1116.6804
1176.6335
1198.3595
1182.5983
1183.2995
1216.7596
1179.6759
1208.8039
1193.6941
1257.7613
1244.2867
1283.0332
1254.0057
1276.2266
1250.1933
1280.2436
1343.1533
1322.7818
1335.8226
1330.4359
1330.2152
1325.081
1335.227
1382.3287
1355.6064
1397.3324
1376.079
1410.8538
1395.8204
1418.5759
1511.8782
1524.0368
1511.8311
1531.7105
1513.6719
1507.1327
1504.8999
1635.4209
1539.8748
1586.7363
1584.5065
1598.457
1588.7733
1596.5818
1637.5647
1708.3321
1717.5242
1759.2623
1678.5503
1691.3091
1703.0456
1999.0739
1971.4405
1978.5361
1966.8692
1957.907
2034.0614
1950.1442
2023.6564
2171.1552
2081.5641
2170.4542
2160.4738
2118.1426
2147.0006
2474.8227
2213.6046
2359.9778
2353.7549
2323.2382
2336.8929
2417.8195
24.351814
20.798101
19.334718
19.174324
19.912458
22.540758
26.086466
25.549734
22.37428
20.799619
20.673873
21.475176
24.567516
27.296585
20.323676
18.023609
17.523221
17.289633
17.911191
19.912462
22.984557
16.439077
15.801932
15.450452
15.454133
15.599914
17.557802
18.064248
13.897916
15.15545
15.274663
15.474504
15.391281
15.630163
16.010693
16.336061
18.686048
18.696075
18.651311
18.337676
18.291287
16.7345
24.555587
26.961868
26.615355
26.805496
26.459889
26.097113
23.647758
40.604709
42.016618
39.771605
39.780942
38.865081
40.886573
37.927379
62.831511
60.935846
57.666874
57.095733
57.290215
59.581425
58.995965
88.78815
83.148937
78.773435
77.672715
78.544043
83.752594
83.007941
115.72822
106.1497
101.28688
99.150589
100.35864
106.5805
106.94635
140.80421
127.14724
120.4598
119.87482
120.40854
132.01044
132.22671
160.22495
143.17285
139.16181
138.9191
139.63345
155.39703
150.77254
174.01901
156.23102
152.003
153.43624
152.75071
170.44102
168.23669
185.4636
165.21874
161.26851
163.54644
163.39112
181.37949
178.81431
188.23334
169.7808
168.34258
171.33457
168.55554
188.98874
185.76591
190.00887
173.9385
171.2763
176.39533
170.76384
191.97469
187.99337
188.48447
174.29062
171.24032
177.37296
171.62902
191.49644
188.03166
185.57845
174.79363
172.2227
178.82763
171.09689
189.4126
184.27463
184.4682
174.08741
172.2762
179.12358
171.17879
188.07995
182.73296
186.15985
175.24288
174.58396
181.54226
173.05445
187.51601
182.38376
191.54618
180.24821
179.21591
186.34716
177.40645
190.62228
185.48167
200.12754
187.63418
185.94065
193.27922
184.14152
196.77963
192.08731
213.2253
198.89216
196.84446
203.8457
194.82709
206.78141
202.36213
228.35341
213.74714
211.21244
218.80411
207.55822
217.18017
214.38769
247.4978
233.13299
233.55943
231.90008
230.07395
232.43219
233.78302
270.15399
252.70791
247.02015
257.76361
247.71934
251.42027
250.51568
286.52016
291.28403
284.87105
285.02635
276.91622
275.94202
276.41645
325.4635
321.39537
318.66223
315.85307
312.48935
307.4713
307.70955
363.34674
362.29796
354.70062
357.38465
351.86185
345.773
344.37815
408.25895
411.3186
404.56325
403.75749
400.83581
392.17619
388.61778
460.9691
468.11187
457.92837
458.66102
455.53942
446.49667
440.32705
520.87083
530.44215
519.34427
520.30199
519.02462
509.18559
500.5028
589.82744
602.73547
587.85889
589.45183
587.49758
576.77061
567.22061
661.61522
676.05309
657.12541
661.4103
659.91729
653.84079
643.94011
743.80301
757.49576
740.26178
747.73622
742.78868
741.67817
726.80941
827.42545
861.05432
821.52864
831.28197
819.88864
830.76268
798.88871
926.81557
928.64383
906.99112
919.93749
919.19831
930.58559
904.90032
1054.3
1062.5756
1037.7548
1038.5202
1029.1089
1038.1481
1010.8142
1139.2052
1112.5979
1102.1282
1114.2951
1109.8821
1146.4347
1115.1591
1305.5172
1306.1365
1302.2049
1305.6503
1304.5614
1306.2137
1261.029
1413.1321
1377.2193
1353.6342
1367.5398
1329.6898
1376.9201
1356.0799
1585.9574
1593.5113
1610.3398
1619.6097
1628.4085
1661.1306
1592.5826
1684.5074
1630.5543
1636.9187
1637.8552
1584.3915
1640.1951
1618.5687
2049.5728
2014.5213
2028.6391
2003.8614
2024.0821
2169.0463
2096.0394
1970.917
1675.8747
1834.3556
1772.3449
1759.5509
1814.5474
1622.9339
2738.1708
2905.8491
2854.5556
2790.5646
2818.8218
2880.4396
2851.6655
26.781096
23.745687
22.423344
22.096679
23.086251
24.953896
28.780123
26.265771
22.926438
21.598
21.45868
22.470138
24.376339
28.585338
21.343526
18.135259
16.792104
16.562904
17.307668
18.812629
22.592757
14.540397
13.256552
12.453955
12.504403
12.906981
14.1718
15.762562
8.5031342
8.6686539
7.8620807
7.7545994
8.0836034
8.4045055
10.004161
7.7675047
8.5731131
8.1502688
8.5649652
8.7830317
8.6658577
9.8513095
15.994043
15.414773
14.905149
15.037434
15.5894
15.707777
17.702036
34.005488
30.147392
29.405434
29.364455
30.846831
30.903337
35.08998
60.174643
52.348596
50.78951
50.517901
52.649484
54.403731
61.309381
91.804026
79.177705
76.066972
76.016453
78.089745
80.664849
92.825058
124.48982
106.12976
102.20451
102.75048
105.07565
107.85643
126.99263
153.46084
131.82563
128.35591
127.22273
131.10846
135.4439
156.69889
178.27453
153.02264
153.99408
146.84031
155.21324
155.91579
182.29271
197.39154
170.94307
168.48645
163.19025
169.641
174.56446
193.94481
205.70376
180.38358
181.67221
172.39292
180.47615
184.10407
204.40148
206.9622
186.60157
184.02639
175.41739
182.9086
188.49521
203.62943
200.14323
182.98925
181.25458
173.28784
180.52626
185.45254
194.49848
187.14854
174.90185
172.59701
164.64059
170.67758
177.81269
181.6606
169.71295
163.97513
161.15952
154.55413
159.45843
166.56284
164.3258
151.05789
151.34586
147.47964
141.99599
145.52307
153.73583
146.34038
132.16429
140.08727
135.32272
130.86303
133.13522
141.47381
130.06559
116.95069
130.30455
124.4792
121.52978
121.17163
130.83691
115.83358
105.48496
123.17681
117.33742
115.23641
113.57924
122.8664
105.68972
97.392371
119.86238
113.14042
113.15374
109.38659
118.0297
98.004964
96.87776
119.42844
113.39887
111.62244
109.75555
117.22886
98.290235
98.33973
121.26167
111.75685
117.83234
110.53343
122.14577
102.31291
105.18396
129.03285
121.56144
124.04222
120.18255
129.28324
110.74367
118.75729
139.48161
135.39308
137.32466
135.90433
139.59287
125.91899
141.69857
158.83233
157.28615
157.03579
158.25513
158.08081
151.69695
172.85009
184.48522
183.91263
186.75577
189.90346
184.64963
184.14383
214.96683
220.68094
225.25137
225.75337
230.15795
220.43145
225.94303
267.49149
266.123
274.05385
273.6824
282.06496
266.49782
279.17865
333.926
321.97521
334.95002
332.16933
342.75437
320.25702
342.68162
407.50535
385.01991
402.60755
398.69529
411.18181
388.02998
418.02037
495.50565
459.64914
486.65955
476.40308
495.06088
462.87287
497.80408
588.37877
545.19224
572.40369
557.68121
579.12728
543.49947
588.92633
694.02619
630.1514
670.6254
652.5963
683.73406
637.07729
693.27286
803.59233
730.57459
787.53341
754.5042
792.74637
738.4068
796.4638
906.67552
857.05513
881.92193
872.39266
891.90468
844.46504
915.78342
1061.286
965.20358
1044.3288
1004.577
1049.8545
995.91673
1047.94
1159.6765
1111.4696
1137.5055
1103.1539
1139.3112
1073.5457
1167.6448
1354.5618
1280.8732
1345.2336
1314.7034
1341.5865
1312.0283
1357.4193
1466.633
1404.7963
1415.7546
1387.7555
1436.2173
1391.657
1475.868
1700.6923
1652.4143
1696.1606
1684.8889
1665.8588
1650.5581
1698.9857
1953.8353
1904.542
1889.2001
1864.1516
1882.239
1906.923
1869.7719
2070.8094
2108.3312
2158.1893
2118.4419
2205.5354
2131.9969
2081.7431
2528.4427
2491.8234
2425.2187
2392.328
2496.9661
2334.9129
2470.0687
27.371941
24.205452
22.60327
22.358924
23.281555
25.926013
29.188647
25.523446
22.263691
21.000249
21.006777
21.785668
24.950623
27.803716
21.385594
17.962677
16.961567
16.805547
17.579095
20.236799
22.705095
14.573343
12.560544
11.974821
11.865494
12.104339
14.311836
14.769911
8.5890637
7.7025445
7.4280112
7.4465227
7.3759466
8.8839758
8.6031806
7.582136
7.878813
7.6508163
7.9690964
8.2319019
8.9263521
7.4187445
15.76575
16.806693
16.233703
17.074865
16.209083
16.943077
15.404393
34.695339
34.966283
33.044687
33.272891
33.305864
35.288248
35.301461
62.090034
59.891659
57.038249
57.182547
57.435265
61.721868
65.220698
94.564618
90.518279
85.98069
86.286803
87.939901
93.231323
99.384006
128.40173
121.96426
116.01495
115.68621
119.37754
125.68122
133.19478
160.59411
150.20278
143.71399
142.46539
148.93265
157.07888
166.18257
183.69637
173.59014
167.21974
164.90803
170.1533
180.55273
186.41127
202.30504
188.88469
171.53905
178.30359
176.3158
199.54153
193.64707
208.27036
188.45613
184.08392
184.49916
181.93267
206.08045
200.13428
206.13659
182.6377
179.39463
180.80342
177.94921
203.94235
194.56789
193.71344
170.56619
168.74856
168.67453
166.08096
192.12833
180.25661
174.02322
151.68492
151.58212
151.73983
147.87705
173.00528
160.09141
149.78873
128.50485
130.9075
130.27407
126.63906
150.02184
134.42078
124.26878
105.15112
108.06508
107.5078
103.66322
124.37849
108.48768
100.73162
81.552173
86.192436
85.017641
81.926049
100.09906
84.184782
78.131079
62.563557
67.470129
65.761961
63.367855
78.362745
63.094735
58.251999
47.950725
51.430641
48.33552
47.246298
61.162292
46.434197
49.117715
38.017391
38.088642
35.824881
34.107203
48.459702
38.005423
37.999185
28.830221
30.059612
28.444527
23.667319
39.277875
28.430592
33.872681
29.016653
32.011907
25.289632
26.122395
33.516895
25.563336
38.368746
32.218023
34.182156
30.101216
30.136469
35.219139
26.930675
49.22859
43.692381
46.847202
43.403214
40.293901
46.108478
36.44082
69.521594
62.580938
68.00386
66.463422
60.147081
66.20403
53.622324
99.983878
91.871107
98.485052
97.837291
89.778105
97.118398
80.978197
141.42961
132.67535
141.4937
141.15133
130.47876
139.19362
119.21595
197.02291
184.18522
195.49731
194.99007
181.94854
193.58015
170.84498
260.80357
246.6881
260.05506
260.91305
245.74099
262.39118
234.2731
341.47053
323.10423
339.47577
337.84021
321.23816
339.7737
307.78239
427.25565
405.24716
423.57497
421.72748
403.12863
431.07824
393.76554
526.62107
504.41072
521.0474
519.45681
502.50303
528.3043
493.34001
634.81423
607.64741
624.29015
630.56258
596.16069
644.90264
594.42638
740.70683
720.36066
741.55325
727.11007
712.30094
754.6008
711.94188
878.15411
874.01033
873.20393
887.8623
847.22924
907.58694
846.90532
976.15895
959.68116
979.07989
962.99052
936.47717
1009.7649
957.02418
1156.8028
1191.8398
1179.2603
1198.1416
1156.8966
1228.9563
1155.671
1318.4416
1269.4393
1281.1788
1273.1606
1239.0673
1330.1071
1260.3748
1485.094
1504.6921
1513.6158
1527.0248
1501.5251