/*--------------------------------*- C++ -*----------------------------------*\
  =========                 |
  \\      /  F ield         | OpenFOAM: The Open Source CFD Toolbox
   \\    /   O peration     | Website:  https://openfoam.org
    \\  /    A nd           | Version:  6
     \\/     M anipulation  |
\*---------------------------------------------------------------------------*/
FoamFile
{
    version     2.0;
    format      ascii;
    class       pointScalarField;
    location    "0.08";
    object      p;
}
// * * * * * * * * * * * * * * * * * * * * * * * * * * * * * * * * * * * * * //

dimensions      [1 -1 -2 0 0 0 0];

internalField   nonuniform List<scalar> 
3969
(
6418.4657
-13555.654
6017.9004
1522.7841
155.58623
-11819.404
2109.8859
165.70981
-10539.832
-7555.9602
-4226.7639
1895.7964
7949.9046
12535.342
12721.276
-15563.684
-6964.7839
-5632.0811
-434.79921
3972.3469
8588.425
8307.5371
-2132.7141
-6246.1562
-10418.1
-13153.499
-14842.754
-16014.063
-15583.091
-14566.414
-12110.467
-9209.8676
-5424.0921
-1270.6414
3530.9536
8318.45
13507.163
18590.481
23562.928
28253.621
32566.664
36556.704
40194.568
43497.616
46560.777
49493.43
51795.319
54002.349
55786.399
57503.31
58848.824
59671.845
60128.656
60026.886
59511.585
58357.333
56805.705
55199.387
52483.177
50162.813
46099.53
44126.591
38478.474
35244.741
31614.063
24429.183
22260.266
16384.884
11166.562
1567.4027
6199.7818
10312.065
13644.462
15370.219
16496.237
16771.808
15458.501
13872.687
10818.022
7408.6135
3310.0733
-1071.9594
-5924.4887
-10908.606
-15922.832
-20783.674
-25497.09
-29801.621
-33837.051
-37259.932
-40745.38
-43118.961
-46070.237
-48222.91
-50155.072
-51917.88
-53084.06
-54289.29
-55075.404
-55616.791
-55638.811
-55266.364
-54351.224
-53205.759
-51443.771
-49579.795
-46665.747
-44387.706
-40713.146
-37173.501
-33384.331
-29313.72
-24005.381
-19330.381
-14821.646
-9060.4897
-19636.128
-10206.102
-5315.0208
6080.9956
13808.723
22803.971
15863.901
233.69051
6575.9094
11857.785
16293.749
15452.026
19195.951
16834.401
17850.53
13551.525
12132.823
7579.4274
4068.2417
-1179.878
-6053.53
-11364.246
-16702.935
-21921.409
-26989.888
-31724.341
-36066.903
-40010.065
-43456.26
-46789.187
-49375.038
-52298.48
-54725.437
-57137.541
-58876.658
-60712.423
-61653.877
-62172.66
-62122.416
-61570.981
-60503.646
-59219.95
-57690.668
-52677.718
-51987.646
-48487.224
-44869.426
-40768.814
-36551.351
-31433.779
-26091.631
-21172.764
-15226.636
-10240.901
13598.612
7391.5456
4013.5489
2841.6182
-7527.2421
-7193.5037
-15915.269
23325.523
18946.869
21025.88
26789.674
31833.791
36309.906
40955.377
44823.39
48528.249
51305.46
52864.814
58755.451
58732.051
60400.744
61750.181
62468.049
62527.385
62225.334
61478.961
60011.295
58380.961
56348.645
54050.625
51557.213
48707.076
45717.237
42326.437
38565.846
34483.405
29824.176
25019.37
19770.053
14422.908
9760.9565
3647.2475
-709.29961
-5006.651
-9145.2061
-10701.163
-15164.791
-17439.167
-15395.176
-17429.429
-13138.737
-11849.966
-7670.0929
-1569.7008
12574.636
11690.057
12083.155
11850.556
13123.962
13385.394
13257.388
-19531.913
-22524.461
-22593.127
-23022.138
-22937.112
-23693.226
-26467.012
3468.0898
4758.1786
5274.9263
6502.6411
5789.3703
4200.5398
3929.113
-3263.0998
-1376.2463
-2320.8926
-3308.0024
-2393.6355
2246.1549
-1903.8192
-3950.9455
-5688.0043
-7401.4868
-9086.0358
-10150.806
-10618.052
-10557.238
-9715.5209
-8316.4777
-6337.9101
-3757.5207
-459.74281
3183.5101
6916.9926
11058.726
15009.216
18743.758
22445.789
25887.393
29110.234
32084.863
34787.099
37288.522
39588.169
41666.837
43395.013
44893.252
46082.626
47020.521
47599.947
47887.239
47835.393
47401.061
46555.704
45496.637
43806.338
41657.313
39721.355
37123.551
34741.311
30808.26
28865.814
23284.958
19999.334
16832.095
9263.8756
4539.1929
-2845.7561
-3066.5358
-4080.0609
-4773.8559
-5557.1152
-6121.7055
-6132.9407
-5704.8708
-4865.6
-3580.2172
-1888.8048
113.8267
2226.5006
4535.5068
6911.7192
9296.9689
11654.423
13950.432
16075.2
18040.369
19863.099
21530.849
23154.262
24598.193
25691.661
26870.495
27858.743
28242.359
28998.902
29247.056
29490.382
29493.894
29247.724
28858.984
28293.649
27407.832
26516.873
25487.689
23456.493
22443.516
19694.253
18481.94
14802.816
14097.018
10404.833
5947.3745
438.86792
-1355.9653
-1613.6925
-1945.5997
-2356.6842
-2663.2976
-3036.8801
-3109.1073
-2795.0856
-2249.8158
-1445.2806
-510.74167
563.37208
1726.2897
2738.8216
3913.9643
5134.8709
6290.7656
7413.5329
8469.8664
9509.257
10652.058
11715.233
12606.436
13456.279
14380.487
14859.43
15195.627
15724.642
15877.378
16008.234
16081.957
16005.577
15842.937
15554.891
15204.438
14494.766
14049.818
12989.535
12302.499
11742.686
9965.6316
10191.599
7496.9101
7343.6529
4788.384
1640.1191
819.02627
634.68474
1322.0138
1269.3591
1721.9954
1801.1207
1896.4999
1844.8134
1703.7379
1461.3413
1160.0405
979.95074
807.23615
630.70128
501.7842
249.00385
-27.536656
-231.77918
-436.87786
-617.20525
-766.57154
-1106.6448
-1757.9207
-1952.1829
-1654.8288
-1871.3489
-2143.1787
-2184.4195
-2368.837
-2530.9419
-2568.7405
-2605.5457
-2569.0219
-2519.1472
-2396.8272
-2307.2597
-1939.8613
-1921.424
-1705.8583
-1032.3506
-1066.2369
-486.46794
-11.570873
-801.03077
1048.441
504.35139
1649.2282
2607.7481
2486.8492
2362.0324
3106.9028
3692.2225
4206.5544
4413.9996
4512.9227
4187.1015
3657.2662
2858.4043
1984.0164
943.12918
-329.66025
-1643.4981
-2973.6882
-4333.4391
-5692.9993
-6999.054
-8251.809
-9406.7747
-10190.675
-10974.388
-11640.856
-11874.006
-12696.888
-13518.199
-13911.342
-14284.783
-14605.897
-14812.526
-14865.038
-14864.444
-14590.062
-14456.866
-13865.78
-13468.244
-13039.758
-12058.719
-12067.132
-10976.6
-9987.9697
-9292.8508
-7522.7817
-5857.5286
-4706.3955
-2188.5494
1032.3909
3254.0266
5342.7657
6673.3913
8185.0062
9228.1977
9750.9134
9694.7732
8935.9448
7717.9599
5802.1279
4074.4369
1625.5769
-1051.4068
-3805.0538
-6658.9837
-9573.4458
-12401.584
-15134.772
-17687.909
-20068.914
-21679.299
-23613.555
-24581.96
-25724.44
-26722.808
-27721.829
-28871.969
-29581.305
-30254.637
-30711.475
-30976.196
-30939.019
-30704.205
-30114.279
-29503.607
-28388.961
-27142.812
-25938.524
-24248.438
-23118.12
-21205.578
-19155.659
-15650.863
-13539.643
-9428.1482
-4880.4156
2313.904
5042.9571
6898.0879
8682.0185
10904.013
12324.818
13052.714
12990.594
12187.371
10409.668
8254.6497
5271.7362
1705.0773
-1989.5148
-5953.2966
-10065.555
-14154.278
-18176.495
-22017.899
-25563.394
-28896.743
-31794.531
-34447.345
-37136.264
-39499.481
-41488.538
-43161.774
-45200.854
-46189.601
-47127.872
-47725.853
-48055.435
-47976.353
-47476.301
-46668.1
-45418.039
-43820.427
-42009.039
-39838.867
-37387.41
-34042.371
-30744.847
-27133.583
-23168.265
-19985.742
-14871.851
-10243.51
-2201.5806
-7378.8618
-5785.3822
-5142.2808
-4875.264
-4757.7473
-5788.3517
-5525.5138
-4534.2052
-3300.6575
-3210.0749
-2787.6565
-3258.9178
-3373.6581
-4796.8721
-3331.1117
-3235.8219
-2940.7156
-2981.4293
-3062.4609
-2828.5381
-3699.2697
1169.594
2210.4868
1748.3289
2079.9017
1409.2326
2249.7001
890.84653
6243.7409
5127.9033
5210.4543
5074.2463
4629.5165
5507.3352
4385.3207
9102.7124
8461.031
7666.0916
7571.2879
7708.2034
8508.5007
8408.6228
10306.853
8225.3859
7151.9499
6727.6026
6988.0596
6454.5781
8753.6
-3783.1234
-3504.0305
-3700.4954
-3141.4295
-3799.6269
-2359.8945
-2934.5588
6218.2576
6271.41
6507.8385
6781.6461
6644.9903
7366.7609
7163.6357
12261.688
12528.209
12712.132
12840.684
13359.494
12888.996
12974.107
15932.673
16839.223
17290.01
17753.177
17568.427
17527.794
17341.858
17745.277
18058.202
18804.307
19301.513
19629.772
18439.852
18600.482
18777.187
19642.627
20172.186
20535.495
20642.488
19565.8
19694.572
18312.364
19213.664
19728.803
20431.59
20044.992
19110.881
18679.016
17319.291
17898.236
18531.115
18933.858
18581.172
17814.158
17357.008
14800.195
15846.941
16423.526
16759.969
16463.825
15000.44
14635.496
12095.366
12643.558
12992.183
13258.907
12870.807
12207.837
11221.752
8080.9224
8761.8895
9569.4061
9552.7864
9227.5054
7999.4336
7105.956
4119.3747
4260.3174
5071.2477
5124.0316
4639.6595
4390.8865
2878.3742
-755.90951
-589.13331
314.56844
-31.84521
-88.478697
-193.28693
-1727.5257
-5765.6102
-5793.3491
-5045.007
-5253.9559
-5391.2275
-5211.9866
-6714.6848
-10992.681
-11211.451
-10524.286
-10813.879
-10898.111
-10425.815
-11752.097
-16261.457
-16710.089
-16146.041
-16358.129
-16457.623
-15652.092
-16983.519
-21439.094
-22043.035
-21650.799
-21796.272
-21916.959
-20882.091
-22170.112
-26318.584
-27077.303
-26889.169
-26972.028
-27166.864
-25835.292
-27110.633
-30833.883
-31658.23
-31705.605
-31694.857
-31963.964
-30423.669
-31650.05
-34945.862
-35862.286
-36058.763
-35933.832
-36282.164
-34577.558
-35716.977
-38669.958
-39482.557
-39951.718
-39733.887
-40160.435
-38387.289
-39372.75
-41924.907
-42822.003
-43483.23
-43135.326
-43654.547
-41806.885
-42576.973
-45064.93
-45884.69
-46733.128
-46161.728
-46630.591
-44848.281
-45512.239
-47962.364
-48796.271
-49394.26
-48959.262
-49805.123
-47915.993
-48628.849
-50646.408
-51533.413
-51733.265
-52109.703
-51889.986
-50572.939
-50836.033
-52797.764
-53774.838
-53620.704
-54883.466
-54889.558
-53610.147
-53654.179
-55266.854
-55739.981
-56116.945
-56412.151
-56797.91
-55765.453
-56409.69
-57194.218
-57316.603
-58010.992
-58384.83
-58485.408
-57740.118
-58193.213
-58492.221
-58586.315
-59380.591
-59564.705
-59715.883
-59131.705
-59497.052
-59337.416
-59426.039
-60248.668
-60333.627
-60722.671
-59964.119
-60355.981
-59812.108
-59917.518
-60515.878
-60606.455
-60939.641
-60105.55
-60677.642
-59727.844
-59715.938
-60230.601
-60288.183
-60622.606
-59842.816
-60490.581
-59150.177
-59117.411
-59507.314
-59485.724
-59815.342
-59069.977
-59760.738
-58099.401
-58002.196
-58284.301
-58244.944
-58480.193
-57851.999
-58486.099
-56554.017
-56436.852
-56611.291
-56471.672
-56703.616
-56159.115
-56791.922
-54584.198
-54607.84
-54583.873
-54629.732
-54619.469
-54297.203
-54628.749
-52350.356
-52092.754
-52332.235
-51812.594
-52294.518
-52176.413
-52317.236
-49969.757
-49726.312
-49362.716
-49553.379
-49385.227
-48867.9
-49479.1
-46713.024
-46540.012
-46402.311
-46306.417
-46215.99
-46076.402
-46319.208
-43487.393
-43196.224
-43319.522
-42939.55
-42946.154
-42793.542
-43037.301
-39442.07
-39473.978
-39267.172
-39046.691
-39081.648
-38860.135
-38952.041
-35512.348
-35511.176
-35230.371
-35376.585
-34998.4
-34905.878
-34902.15
-30785.07
-31273.918
-30910.598
-31126.732
-30453.664
-30456.264
-30208.217
-25898.759
-25904.004
-25705.762
-25714.502
-25141.404
-25302.209
-24812.896
-21604.507
-22470.736
-22121.153
-22312.068
-21731.869
-21249.565
-20338.278
-17728.739
-17711.144
-17723.147
-17625.689
-16944.777
-17181.182
-16202.487
-13571.266
-14221.2
-13903.344
-13170.986
-14075.323
-13608.069
-12044.11
-24007.474
-26740.878
-29992.644
-30094.611
-28926.986
-27414.909
-24682.106
-13073.934
-14715.601
-15746.027
-16254.742
-15763.787
-13772.064
-11711.345
-9494.5678
-11041.942
-12039.656
-11880.207
-11574.628
-9308.2532
-8202.3601
631.28453
1295.8528
963.37499
1123.9621
1850.5288
1342.8396
2358.0762
6927.827
7232.7493
6931.6591
8366.8892
7174.3532
7031.0553
6640.9399
12235.789
15469.796
16461.488
16744.105
17978.555
14723.512
13993.327
16094.727
16787.349
18770.757
18796.36
17953.019
16682.738
14582.318
-1303.4925
412.16471
-238.535
-106.40254
-126.3593
-1800.7233
-1292.6576
-6390.5837
-5295.2414
-6378.7396
-6373.217
-6439.4903
-6856.2585
-5981.0507
-11848.816
-12079.722
-12433.421
-12425.942
-13052.21
-12069.544
-12538.686
-14047.875
-14791.865
-15297.59
-15517.71
-15641.228
-14839.676
-15881.509
-16735.066
-17349.867
-18063.397
-17896.869
-18568.506
-16798.426
-16992.11
-17147.36
-17921.082
-18722.928
-19181.407
-19071.887
-17381.272
-17990.45
-17408.774
-18133.581
-18795.179
-18354.36
-19196.262
-17715.044
-17335.756
-15797.099
-16397.208
-17404.153
-17610.22
-17460.942
-15911.937
-16076.621
-13756.623
-14395.886
-14983.686
-15081.022
-15240.438
-12987.968
-13694.977
-10539.027
-11007.279
-11733.901
-11769.932
-11505.316
-10110.056
-9686.238
-6435.1955
-6868.4306
-7620.7203
-7582.31
-7304.8981
-6150.2858
-5597.822
-2057.6575
-2308.0642
-2815.0173
-2734.1325
-2502.7613
-1760.5975
-825.76006
3059.7218
2455.7601
2393.7139
2095.1669
2913.6324
3457.4961
4193.4932
8316.109
7857.8908
8200.7913
7483.8445
8201.212
8061.0767
8905.7766
13436.284
13223.908
13302.462
13470.602
13518.543
13872.334
14459.046
19101.302
18418.741
18856.088
18469.602
19442.757
18920.747
19838.521
24464.77
23782.676
24294.974
23793.626
24688.422
23887.82
25135.001
29385.532
28591.357
29368.945
28834.54
29780.468
28800.241
29965.22
34006.065
33086.565
34052.025
33410.563
34397.342
33280.122
34458.088
38216.791
37220.46
38326.807
37604.897
38604.048
37348.121
38465.341
42025.99
40828.315
42100.325
41326.404
42352.033
41019.493
41991.751
45334.381
44104.844
45502.293
44711.842
45731.53
44288.32
45141.123
48414.815
47027.905
48520.747
47730.986
48704.83
47375.397
48024.895
51062.51
49759.377
51371.931
50453.563
51460.113
50065.952
50539.839
53789.843
52167.978
54090.755
52944.266
54099.109
52529.332
53074.666
56154.837
54318.954
56584.014
55221.027
56415.286
54858.852
55326.244
58285.894
56431.703
58636.287
57423.437
58473.307
56948.072
57562.015
60065.98
58259.758
60472.997
59274.707
60298.713
58631.944
59197.261
61420.945
59580.83
61992.12
60493.766
61650.379
59831.84
60653.159
62347.95
60530.789
62816.928
61357.118
62547.723
60660.12
61597.618
62772.694
60912.962
63225.209
61662.287
62871.144
60906.394
61912.36
62656.345
60784.813
62978.782
61407.158
62554.117
60575.298
61670.521
62017.118
60083.999
62211.452
60588.237
61627.125
59879.489
61064.739
60822.694
58975.724
60984.042
59365.995
60358.567
58782.196
59713.354
59264.813
57373.208
59191.027
57678.416
58406.904
57166.295
57820.229
57013.421
55453.419
57036.672
55480.553
56251.522
55139.348
55570.589
54268.627
53186.15
54032.063
53390.829
53567.858
52791.45
53430.883
51796.691
51199.057
51118.464
50733.851
50870.686
49632.337
50744.723
48209.347
46952.247
47851.826
47023.123
47591.595
46468.247
47510.177
45324.651
44739.864
45278.197
44248.197
44501.447
42990.109
44146.34
40278.648
39447.615
39939.087
39271.944
39718.607
39061.568
40085.755
37100.724
36366.473
36922.326
36008.609
36446.324
34996.014
35902.912
32191.515
32367.85
32336.672
32102.009
31777.236
30494.359
30798.299
25813.668
25504.241
25859.783
25384.31
25489.478
24233.617
25893.235
23484.892
25456.824
25837.141
25941.702
25264.527
23665.544
22560.5
18828.764
19000.118
18715.502
18230.64
18740.141
18525.214
17067.49
22574.136
25478.987
26187.325
27037.015
27134.766
27052.14
25268.27
-5306.826
-9202.5067
-6339.9045
-8679.6044
-8749.6939
-10177.498
-10097.603
-8637.6103
-8471.7334
-6486.7239
-3653.2767
-818.69001
3051.2252
6434.995
10976.814
14765.384
18617.281
22462.569
25978.806
29417.965
32566.998
35431.684
38076.913
40478.038
42631.941
44447.122
45968.383
47412.981
48320.729
48998.333
49353.868
49379.934
48903.373
48168.224
47518.289
45072.694
43767.542
42076.294
39190.589
36265.566
33174.18
29448.035
26070.81
21374.308
17111.988
11214.157
2853.3909
-2019.3617
-3861.4047
-2946.0715
-6417.0624
-7710.7498
-8544.7287
-8923.1343
-8707.5599
-7819.5879
-6258.5859
-4055.1618
-1528.3412
1179.3363
3854.6731
7090.9907
10054.368
13339.317
16306.466
18885.65
21648.431
23869.826
25922.153
27721.78
29215.274
30735.798
31598.084
33205.47
33808.391
34548.865
35112.767
35396.84
35466.7
35152.016
34857.901
33741.006
32789.725
31496.365
29995.885
28340.171
26332.423
24131.517
21499.776
18959.168
15439.432
12517.802
8029.413
2136.6532
-1333.1034
-3741.6348
-1844.0991
-3400.5198
-2552.1905
-2888.478
-2430.5946
-1964.3373
-1225.9378
-380.37455
621.36964
1389.9278
2817.7415
3822.2049
4865.665
6226.5188
7491.9738
8674.505
9711.0517
10914.389
11787.416
12718.275
13537.604
14413.191
14998.436
15822.656
16390.153
16805.961
17292.4
17410.588
17459.354
17379.635
17223.391
16886.045
16407.962
15989.282
15277.33
14587.049
13676.306
12898.094
11696.433
10461.085
9075.996
7280.5979
5900.5699
4022.4684
-2081.6223
1606.4062
484.70021
1471.9276
363.80405
567.37213
229.81671
494.76196
498.54387
484.32608
582.55272
460.05367
532.47218
352.98512
180.08245
503.41752
876.73447
1163.5958
1466.6185
1734.5529
2046.9976
2215.3136
2417.651
2662.9592
2793.1738
2951.4505
3009.4218
3064.8835
3149.9396
3177.0619
3287.3536
3214.0185
3301.6832
3184.8738
3171.6585
3090.3371
3089.0806
2914.3801
2818.8363
2674.6706
2560.5195
2290.9496
2190.3472
1998.2223
1487.1009
2052.74
545.32031
-1228.124
3724.6781
2773.5988
3161.3067
2692.7376
3905.1736
3583.3478
4022.8735
3909.2046
3945.417
3619.2019
3027.3769
2127.4764
1178.5028
-116.88082
-1410.914
-2338.2771
-3548.2348
-4615.512
-5762.134
-6837.0685
-7912.9373
-8829.334
-9681.9429
-10497.24
-11556.548
-12541.406
-12623.491
-13024.246
-13196.861
-13462.699
-13645.487
-13712.36
-13751.488
-13560.605
-13331.723
-12944.501
-12503.771
-11702.648
-11166.117
-10115.323
-9386.7021
-8083.5236
-7178.4785
-5779.8045
-4197.3091
-2142.175
-582.63239
4679.3239
6790.1279
5221.9932
6449.6248
7428.2225
7492.2379
7574.5828
7126.8659
6462.9444
5593.0344
3254.4509
1103.2472
-1680.2562
-4217.7429
-6875.4329
-9643.7277
-12359.823
-14912.213
-17297.748
-19492.126
-21427.988
-23145.465
-24653.459
-25612.048
-26214.005
-26113.696
-26802.243
-27347.837
-27953.42
-28329.314
-28626.991
-28647.658
-28503.893
-28083.077
-27402.242
-26552.176
-25273.354
-24120.054
-22482.828
-20623.621
-18924.389
-16421.116
-14293.29
-11461.546
-8277.9661
-3934.8199
-191.9145
6802.1807
6684.5331
5715.9032
8251.1947
10418.091
10035.282
12120.95
10704.111
10813.566
8375.04
6357.1722
3822.6876
361.75045
-3728.0516
-7799.7428
-11923.838
-15966.702
-19926.749
-23785.288
-27448.813
-30876.163
-34051.973
-36572.425
-38939.566
-40840.389
-42057.131
-42925.391
-43912.842
-44907.291
-45771.979
-46351.663
-46524.924
-46466.042
-45918.57
-44840.656
-43643.67
-42441.331
-39877.068
-37600.918
-34896.95
-31935.689
-28325.537
-25141.335
-20846.917
-15817.496
-11372.642
-4534.6402
-2120.0991
-1816.4772
-1178.515
-825.06749
-1314.336
-1296.8163
-1371.4129
-6456.3129
-7443.0538
-7246.2502
-7365.6114
-7597.0252
-6962.7007
-6199.6273
-7436.812
-7510.5748
-7555.8176
-7592.3131
-7591.0638
-6809.8537
-8819.0616
-9609.5946
-10311.388
-10376.07
-10638.49
-10234.394
-10297.172
-9271.0224
-10262.569
-11390.871
-11515.287
-12090.02
-11630.393
-11037.059
-11629.625
-11365.719
-12435.706
-12513.528
-12400.11
-11995.234
-11908.921
-11909.819
-10805.8
-12248.239
-12193.106
-13032.993
-12062.027
-11707.336
-11460.131
-10401.409
-11573.551
-11541.492
-11834.741
-11294.919
-10623.525
-10862.568
-8894.7488
-10137.041
-9854.5225
-10299.576
-9071.2502
-9866.4777
-8664.799
-6738.0312
-7647.4439
-7618.4534
-7996.759
-7059.9575
-7303.4959
-6576.4759
-4059.1319
-5026.291
-4822.9165
-5056.1411
-4371.3542
-4566.3637
-3975.6887
-879.96847
-1743.7774
-1689.8449
-1731.728
-1228.8631
-1133.8353
-351.92909
2432.8191
1940.5375
2236.6894
1876.0524
2457.6238
2252.094
2911.2456
6499.3732
6147.3272
5905.9424
6006.0056
6402.1415
6274.5125
7244.1418
10496.608
9898.1123
10514.503
10054.848
10390.224
10250.944
10576.889
14171.016
14352.433
14399.848
14299.216
14373.285
14756.294
14975.094
18237.844
18662.46
18533.656
18793.494
18415.241
18619.481
18729.178
21925.516
22568.296
22332.12
22638.8
22259.541
22581.883
22718.29
25462.782
26435.958
26086.116
26465.754
25881.913
26248.655
26167.192
28770.948
29872.358
29446.198
29859.426
29246.241
29617.469
29366.579
31705.846
33076.499
32536.61
33020.157
32278.385
32609.332
32332.993
34467.624
36011.876
35417.978
35874.824
35013.363
35379.744
35004.219
36931.769
38760.903
38000.347
38427.101
37495.154
37761.412
37392.324
39096.844
41175.843
40364.079
40829.372
39896.199
40073.738
39577.295
40853.524
43701.373
42270.174
43046.069
41933.215
42128.142
41679.618
42802.3
45600.09
44266.935
44853.279
44009.509
43879.338
43544.64
44414.101
47325.56
46047.048
46492.092
45698.046
45546.374
44860.528
45781.256
48563.849
47513.389
47690.399
47042.043
46839.03
46368.724
46689.806
49804.362
48304.684
48853.771
48055.158
47944.455
47382.758
47397.158
50498.94
49025.945
49551.892
48739.95
48657.202
48022.332
47732.376
50805.544
49242.733
49853.654
49006.35
48922.831
48321.691
47651.573
50670.656
49125.329
49745.565
48851.523
48908.409
48270.134
47221.376
50183.296
48688.564
49209.941
48487.993
48495.269
47904.27
46443.396
49293.493
47755.546
48305.644
47638.074
47671.368
46712.197
45409.115
47880.628
46577.181
46906.582
46549.661
46081.234
45828.603
43818.909
46163.861
45090.188
45435.078
45028.548
45149.934
44274.583
42609.483
44244.997
43428.76
43071.461
43495.596
42426.615
42773.362
40300.784
41310.648
41319.945
41128.65
40465.036
41110.035
39966.152
38062.594
39105.616
38551.495
38968.341
38331.819
38622.475
37676.183
34686.629
36402.901
35509.248
36039.944
35226.994
35680.506
34907.241
32534.967
32812.874
32565.427
32635.388
32235.965
32529.132
31834.828
28828.337
30189.47
30107.284
30167.724
29924.869
29464.719
28649.808
24404.384
24415.971
24265.893
24384.872
24014.822
24421.504
24581.477
22152.702
22317.291
23420.136
22912.991
23148.685
22999.158
21883.295
16317.307
16611.049
16493.574
16402.264
16381.027
16674.086
16117.062
10813.665
10164.792
11599.348
10561.993
11370.869
11221.16
10237.244
3570.9225
1067.3575
1363.9523
1378.4793
1554.7362
1166.6731
3618.6586
-2009.9479
-1676.2346
-1438.4556
-1310.4506
-1759.5625
-1547.3089
-3177.2086
-3335.3791
-3019.5083
-2820.7334
-2931.0127
-3024.0761
-3086.1907
-4147.1235
-4270.712
-3927.0033
-3966.6577
-3756.945
-4025.1217
-3813.0374
-5294.9227
-5588.2301
-5803.4258
-6339.7634
-6486.2647
-6547.3091
-6764.5178
-6321.2704
-6830.6016
-7061.2273
-7557.9947
-7415.1283
-7376.7286
-7384.6161
-7379.5629
-7273.0623
-7548.1989
-8321.6088
-8474.6407
-8323.4794
-8577.6273
-7636.1905
-7632.9344
-7924.4209
-8769.4852
-8551.9258
-8727.4784
-8736.0034
-7752.6987
-7221.1458
-7491.8386
-8498.3498
-8328.7217
-8398.4283
-8497.589
-7004.092
-6432.2415
-6710.6958
-7750.7238
-7385.2868
-7771.7842
-7428.0438
-6141.0155
-5013.3732
-5368.5758
-6397.3555
-5971.9517
-6461.5261
-6042.6457
-4773.1438
-3267.2458
-3856.2453
-4627.9976
-4268.0986
-4513.5416
-4204.3945
-2631.2737
-1125.5311
-1733.2719
-2128.1133
-2019.8916
-2152.3806
-1913.3909
-676.47471
1341.8435
685.10382
406.45805
465.84609
715.74343
625.20746
2287.8956
3905.2074
3309.0397
3461.4162
3327.6804
3572.8131
3288.5953
4941.4227
6557.1097
6038.7659
6268.2423
6127.5902
6510.7817
6410.1527
7776.4101
9314.3478
8964.1952
9382.1534
8887.5843
9676.3958
9116.3197
10473.675
12095.573
11695.26
12248.535
11714.529
12591.339
11949.005
12932.906
14654.222
14340.634
15083.078
14357.922
15304.994
14642.274
15704.21
17171.426
16976.988
17751.633
16978.722
18016.221
17251.035
18010.911
19551.947
19271.519
20142.044
19277.895
20394.077
19551.656
20149.441
21820.434
21416.682
22460.284
21473.889
22632.697
21701.282
22234.66
23933.118
23368.69
24501.559
23372.622
24582.744
23651.211
24007.106
25773.599
25062.21
26291.941
25080.694
26422.175
25437.165
25698.01
27416.625
26659.501
27829.47
26694.091
27943.698
27003.694
27257.512
28961.594
28170.977
29279.479
28093.081
29263.578
28392.871
28478.032
30339.144
29473.998
29870.178
29957.918
30211.918
29651.039
29907.748
31001.772
30552.173
31640.422
30092.226
31853.524
30250.834
31095.84
32562.543
31235.197
32155.198
31752.883
32409.029
31527.375
31905.764
33011.037
32089.431
33257.782
32120.923
33448.144
32040.887
32705.091
33688.941
32646.952
33601.433
32824.989
33893.993
32565.553
33192.533
33972.863
32842.628
33964.074
33113.606
34197.994
32799.121
33432.144
33979.628
32977.06
34030.681
33192.837
34200.855
32882.029
33418.973
33768.846
32810.487
33724.429
32976.73
33971.852
32591.362
32912.799
33312.356
32325.886
33161.449
32515.52
33299.978
31858.905
32413.74
32346.934
31676.834
32376.52
31855.788
32506.097
31348.561
31828.069
31345.103
30868.796
31311.584
30856.453
31369.298
30075.708
30398.933
29820.469
29674.555
29826.709
29566.802
29881.989
28890.765
29178.366
28361.125
28586.79
28568.727
28321.27
28542.658
27528.293
27783.438
26477.036
26115.453
26907.479
25969.55
26822.716
25942.875
25840.388
24730.127
25319.564
25110.828
24713.346
24891.863
23952.899
23868.62
22917.027
22328.043
23097.461
22344.126
22946.735
22144.273
21854.362
19791.318
20719.544
20338.404
20003.202
20207.372
19261.295
19481.892
18225.413
17849.01
18174.391
17804.168
17865.319
17398.476
17216.174
15168.043
15653.743
15639.292
15055.568
15413.784
14630.525
14395.868
10703.774
11648.57
11174.931
11124.189
11140.934
10493.483
9935.103
6662.256
6778.4611
6151.7368
6115.5541
6310.7225
6132.0117
5649.5556
1233.4854
-625.60362
-1968.6542
-1958.9306
-1569.7941
-1217.7151
-274.70637
-1321.1564
-1031.0033
-1060.8509
-842.69629
-977.2591
-1022.3765
-1049.7617
-2069.3243
-3500.2224
-3158.5628
-3230.4163
-3220.014
-3376.6206
-2319.8807
-1797.3327
-2323.3514
-2197.138
-2355.254
-2548.5711
-2135.3966
-2454.5025
-2496.5293
-3641.0946
-3589.4953
-3893.08
-3632.7031
-3663.3787
-3018.6809
-2657.6184
-3432.0756
-3309.2164
-3250.0596
-3433.595
-3080.2034
-3291.189
-2624.952
-3957.1904
-3673.8525
-3680.4975
-3888.6435
-3670.5966
-3693.5597
-2119.0291
-3771.7015
-3265.6266
-3583.8531
-3594.2349
-2996.3883
-3400.4067
-2165.6135
-3654.6733
-2944.7839
-3121.6813
-3085.4832
-2404.4701
-3128.2294
-1742.3376
-2992.8929
-2201.3568
-2362.6066
-2357.5756
-1671.1984
-2515.0629
-1380.8113
-2209.0497
-1410.4745
-1488.0299
-1435.494
-619.40865
-1501.7094
-739.21224
-1055.7356
-344.82514
-380.34219
-364.12936
352.64512
-620.45478
133.92802
162.19245
723.77414
928.88091
839.66838
1633.2548
1095.2668
1030.1319
1406.0311
2042.4441
1889.8922
2022.3453
2633.1729
1914.6245
2429.2275
2933.548
3440.8293
3008.1495
3545.6497
3710.079
3594.5978
3970.4786
4153.8555
4816.2968
4454.2245
4792.3007
4905.9498
4823.3008
5118.7786
5716.2972
6067.5184
5673.3374
6150.8114
6037.8753
6193.0169
6346.8361
7138.1893
7184.4841
7119.3995
7424.0489
7130.6681
7693.8475
7449.3879
8506.6792
8350.0227
8353.0472
8617.1571
8244.4854
9035.2874
8547.0364
9851.3041
9362.3813
9569.7949
9775.9614
9306.676
10154.871
9601.2473
10975.141
10290.662
10633.98
10733.983
10164.045
11204.787
10473.306
12086.881
11211.821
11638.866
11666.792
11031.831
12195.852
11249.522
12999.372
11985.64
12459.47
12469.946
11777.633
12951.474
12054.83
13795.074
12787.691
13264.14
13179.208
12440.207
13647.451
12661.081
14610.67
13664.238
13891.054
13959.708
13007.092
14104.517
13290.912
15305.387
14169.283
14576.013
14591.285
13544.246
14795.274
13777.343
15810.889
15142.169
14964.37
15255.04
14263.887
15227.373
14502.573
16451.682
15296.542
15878.701
15485.236
14946.105
15586.137
14622.794
17114.288
15705.049
16383.919
15891.304
15404.717
16016.658
15035.241
17395.412
16118.917
16683.051
16095.268
15721.981
16240.836
15269.329
17595.85
16127.877
16967.438
16246.964
15938.775
16470.02
15417.716
17593.2
16298.096
17026.812
16209.483
16028.158
16524.92
15386.394
17569.453
16157.775
16923.731
16100.56
15950.715
16324.678
15393.069
17296.772
15926.211
16684.035
15807.962
15592.457
16209.1
15139.181
16886.802
15650.873
16391.044
15424.484
15509.531
15886.145
14908.191
16496.305
15281.055
15817.572
15009.153
14881.293
15342.112
14476.498
15758.078
14565.761
15262.357
14309.755
14542.069
14777.273
14242.794
15240.912
14278.102
14603.596
13984.883
13716.095
14374.356
13228.724
14311.62
13027.222
13881.03
12886.583
13215.084
13548.133
12965.886
13614.373
12607.247
12915.015
12412.22
12254.53
12653.94
11874.081
13258.048
11416.884
12649.371
11524.281
11544.584
11781.148
11055.895
10749.476
10057.651
10364.931
9913.1865
10081.743
10731.129
10125.633
11512.03
10154.538
10949.878
10147.808
9849.129
9732.2164
9054.5444
7917.2674
7462.1676
7563.1865
7341.1553
7323.115
8386.9729
7635.524
7971.1438
7700.8002
7979.3258
7651.8815
7496.5925
7295.4044
5266.8782
3988.9972
3895.5842
3268.6066
3591.1747
3319.8764
3957.3086
3682.2478
3097.9283
2457.9679
2397.3542
2986.2204
2518.4692
3917.1467
717.00906
-3106.6276
-3098.8936
-3602.2643
-3777.9696
-3803.3652
-2397.2445
1713.6341
1611.4511
1762.0207
1965.9728
1511.5196
2166.4262
689.70316
1126.9864
1281.5023
1681.453
1661.3677
1375.9919
1683.8483
453.97613
1126.7701
1647.0182
2056.8039
2002.4965
1830.3623
2235.3416
556.15929
1252.6024
1404.1407
1516.4565
1438.3158
1453.6622
1419.485
701.66162
1065.6315
1439.5563
1657.9266
1644.6881
1460.6182
1535.4503
601.96494
1120.2479
1410.7311
1334.0727
1225.5535
1014.7312
1458.861
361.23546
1055.8304
1496.5854
962.39237
1142.8754
871.41785
1086.1909
145.85614
866.99523
1289.3645
745.51836
1019.3418
336.51891
965.46861
151.27638
598.63667
1054.7522
351.06256
811.45819
242.74226
875.12281
70.597289
464.18666
672.55164
120.97008
563.76933
-44.14527
535.24986
96.605866
177.98813
345.6524
-19.031055
301.84868
-61.65797
593.48437
55.702816
45.625606
130.08897
-236.26517
-60.243966
-89.248491
258.79893
180.40183
-27.68684
-249.98132
-343.41048
-204.89108
173.65226
-80.211765
542.89183
-185.71432
-378.11353
233.72213
-414.14171
590.72378
-578.7155
1511.0243
-168.87254
-99.41839
-543.97947
-462.69821
188.98021
-380.11493
779.91638
-133.38737
-207.20526
-204.91967
-518.59596
322.63042
-483.58351
865.32145
-131.9879
-155.81421
-336.86865
-404.08832
187.79895
-315.91153
701.8066
-121.8461
-219.95947
-267.70019
-349.74197
121.28792
-200.5603
595.29044
-20.516734
-188.44585
-255.77865
-237.57824
94.486602
-58.409474
505.34943
19.356554
-188.30525
-204.86609
-121.28535
51.670553
38.109422
420.07448
153.76174
-116.73818
-104.96779
31.87908
72.89555
227.15105
415.37604
298.67144
-19.313765
-12.574443
98.248889
66.076156
325.33355
330.37983
191.09891
216.1009
229.45434
116.66922
243.22372
421.55441
363.65954
359.61481
381.66321
180.43492
82.023718
364.06345
460.34663
534.70459
182.67601
657.83151
223.97213
157.76356
448.02456
405.00244
674.32661
326.42465
1055.6659
-11.931724
438.55474
448.38233
354.25625
688.62815
516.35808
918.907
202.46452
201.31943
499.95796
210.94419
734.66531
576.28338
929.37669
193.89429
147.36393
453.58612
237.07066
838.88303
627.53151