/*--------------------------------*- C++ -*----------------------------------*\
  =========                 |
  \\      /  F ield         | OpenFOAM: The Open Source CFD Toolbox
   \\    /   O peration     | Website:  https://openfoam.org
    \\  /    A nd           | Version:  6
     \\/     M anipulation  |
\*---------------------------------------------------------------------------*/
FoamFile
{
    version     2.0;
    format      ascii;
    class       pointScalarField;
    location    "1.37";
    object      E;
}
// * * * * * * * * * * * * * * * * * * * * * * * * * * * * * * * * * * * * * //

dimensions      [1 -1 -2 0 0 0 0];

internalField   nonuniform List<scalar> 
3969
(
47782.852
37120.579
-871.11959
-1432.5792
49181.24
42691.318
-1113.5911
-1100.1772
23740.788
10038.118
3449.6075
2084.5692
5369.4686
14108.963
30607.836
975.94399
-789.48591
-1213.4036
-1689.2548
-2327.685
-1929.3503
-394.71511
44730.233
36519.884
36893.362
37309.212
36985.265
36559.65
34906.226
34118.039
31656.023
30310.562
28773.039
26790.072
25310.855
23148.425
21737.816
19298.053
17980.46
15781.791
14287.68
12241.581
10589.338
8925.2567
7397.1148
6205.1678
4821.9951
4010.4343
2855.2987
1967.295
1364.4144
608.35523
20.016616
-385.7477
-851.02892
-1129.4179
-1251.6435
-1237.1251
-1171.4644
-1034.6258
-846.34596
-986.65259
-349.35389
-787.18287
196.0149
-547.92474
608.90099
-565.99326
71.275744
43613.94
29124.301
40949.141
35992.816
40492.063
37056.512
38605.994
36377.839
35505.627
34361.433
31663.375
31197.96
28886.234
27397.998
25245.41
23400.614
21931.84
19219.597
18186.509
15845.403
14344.92
12924.308
11066.697
10239.956
8763.1838
8369.4639
6326.4381
6147.8452
5198.6229
4081.5836
3956.2946
2936.102
2821.0617
2283.9649
2227.9495
2292.701
2338.1144
2076.1588
2354.5808
2207.7257
2595.2075
2039.0958
2273.3724
1675.6095
1840.4693
1324.0967
907.69228
26504.21
11180.756
3923.5131
4794.8088
6151.9594
14036.285
29345.817
63575.651
51152.931
29799.509
49389.766
41530.801
42996.058
43038.292
38106.335
41766.92
33036.109
38358.112
32361.013
32365.119
30640.411
26971.781
27036.408
22890.6
22159.114
19529.301
17696.498
15955.341
14089.424
12688.681
10866.176
10009.655
8460.2728
6864.3034
5296.8282
4630.7522
3618.0418
2828.5843
2408.0909
1883.0073
1631.0598
1006.7065
512.19214
1912.6118
698.76298
533.62827
475.11034
45.834046
233.63221
-205.92756
-203.03056
-449.30412
-920.86997
-269.36578
807.03532
-2742.0335
268.99499
-3376.2394
-607.73253
-2100.8454
1172.3414
971.03307
-626.69864
443.43097
0.454707
-139.19918
-259.0611
-378.22562
-516.41036
-438.88279
-411.01077
-14.251936
-1434.7215
-647.03521
-629.28464
-390.17146
-100.29524
325.06284
1009.6488
1661.7098
2725.6671
3602.3603
4926.2807
5979.4996
7288.5679
8655.4407
10177.692
11834.879
13510.771
15588.664
17208.065
19683.461
21345.636
23794.124
24581.349
27430.038
28986.593
31581.491
32341.263
34200.128
35483.041
37435.247
36612.504
40322.078
35649.716
37499.81
33896.041
52840.92
29126.327
30686.274
29145.682
29718.401
28899.464
28550.538
28806.561
24604.936
26238.007
27967.887
29165.92
29437.166
31511.331
26751.148
-1340.9807
-956.77138
-1055.0189
-941.13587
-969.2485
-971.96392
-1006.1155
-619.3765
-646.1385
-654.29542
-589.40612
-607.31652
-540.78116
-550.98994
29522.166
21147.227
22953.243
22022.147
22101.065
22332.22
20930.073
20942.376
19541.541
19278.515
18083.992
17075.956
16311.465
15191.326
14216.21
13360.853
12632.943
11574.669
10816.893
9843.4865
8990.856
8053.6733
7292.9356
6173.9995
5332.1754
4509.8081
3569.7389
3044.1674
2601.6709
2116.6906
1898.8747
1586.0638
1172.0161
941.1
587.11015
278.14457
144.48792
-312.24106
-291.13209
-553.55038
-393.01128
-535.32841
-195.6725
-836.13418
114.87335
-1123.2836
1216.6373
12758.031
8682.9086
9785.3822
8797.2392
9155.1225
9271.9142
8378.5124
8744.3082
7770.7918
7596.7472
7071.3494
6678.4196
6335.5695
5669.5513
5520.9015
5033.2936
4767.1892
4239.6663
3980.0044
3632.1033
3330.6857
3198.6224
2666.4284
2559.2535
2251.3944
1878.5998
1518.0171
1324.7017
828.05722
690.06317
501.0041
170.25153
5.2383212
-262.89743
-494.49541
-709.18652
-800.84115
-1223.3659
-952.47462
-1448.7736
-715.63105
-1455.1559
-204.1866
-1228.4389
780.21795
-1383.8349
2294.0278
5269.0706
844.49817
3036.5479
1361.7625
2109.1141
1953.9836
2273.6185
2432.4134
2228.0393
2966.7688
2529.2227
2859.6336
2479.8447
2669.5405
2246.786
2253.966
2219.7259
2099.0052
2254.6292
1849.8758
1682.8762
1032.4399
988.63553
761.56655
512.12761
275.40065
498.83105
136.2071
334.16699
380.77153
231.74645
293.80423
154.8109
105.03675
58.097848
86.821859
128.69668
441.33883
796.08986
870.85381
869.19355
898.80815
1045.1604
323.69066
914.83788
-1388.506
2870.5249
3270.7855
170.42318
1323.4025
1061.5746
1106.2168
1540.8769
1052.1513
1286.0935
1177.7052
725.46031
756.273
945.52871
545.17989
1005.2063
447.64183
1126.4438
541.24471
1112.1991
613.16975
830.55835
975.17109
1484.5237
1816.6224
1835.5112
1797.3548
2069.3145
1727.4278
1702.9063
1632.9049
1432.203
1315.7794
1193.8502
949.27082
825.45573
580.42045
350.26076
256.14965
-269.30434
-712.43553
-1503.9692
-956.18525
-1731.3687
-987.66826
-1897.8891
-287.12853
-1575.0803
3001.8453
7627.8714
3966.0257
5961.4956
4549.6884
4974.9912
4977.0791
4387.431
4779.8056
4383.6068
4165.0074
4632.6902
3830.8414
3865.7137
3276.5954
3136.6672
2617.0807
2353.6953
2048.9479
1723.2289
1543.6269
1533.6103
890.51781
193.22525
-62.39122
-77.611519
-602.61776
-821.84862
-849.72896
-1022.7435
-1073.9264
-1195.398
-1144.8331
-1299.2043
-1231.2513
-1345.004
-1225.141
-1258.1844
-1000.9698
-1264.0079
-182.12927
-374.31855
75.572265
153.62343
449.52644
942.82587
-246.20043
2868.6367
17271.432
13893.698
16094.747
15888.325
16648.766
16657.168
16541.525
15992.446
15927.922
14661.652
14655.346
13717.845
13227.222
12491.833
11547.122
11101.581
10032.007
9524.3272
8688.4652
7841.3855
7374.6641
6778.864
5748.31
5376.4301
4829.6142
4497.0806
4158.9776
3822.1336
3370.4252
3125.6492
2823.138
2423.9777
2202.6366
1977.3587
1633.6296
1591.5263
1363.3372
941.96922
1291.7668
277.3858
117.43406
-389.64963
-369.95061
-788.52565
-867.74168
-944.77874
1482.2369
25788.359
22357.663
24928.813
24833.443
25364.403
25147.227
24647.743
23451.162
24042.383
21227.912
22787.067
19622.881
19705.602
17470.577
16911.752
15255.209
14350.056
13136.089
11880.438
10924.777
9589.7736
8312.4233
7464.544
5839.2888
4375.6874
3371.5952
2496.4349
1737.5545
1211.6415
816.66615
313.57957
59.88278
-450.31203
-744.85341
-1336.1352
-1580.0423
-2106.4671
-1818.4292
-2347.1634
-2022.5053
-1898.6367
-1221.2214
-989.37318
-360.39764
-89.580477
820.11066
1207.3454
11994.502
12705.431
9699.6124
9498.4754
9805.4408
10642.147
14292.655
5249.6474
5285.3467
3544.3072
3930.34
3962.5858
4775.4546
6307.8693
1583.5567
595.21129
-377.16338
-25.117186
-251.29526
312.18451
1439.67
825.3839
0.81630504
-149.00541
-182.67853
124.65399
988.59428
2385.5168
1929.6408
921.68065
687.85286
621.67505
944.08438
1778.1744
3328.0225
7815.5218
5109.4842
4818.6924
4269.4557
4847.8605
5895.2906
9183.5868
15370.579
15071.484
12729.25
12989.815
13072.143
14263.721
19269.176
49216.11
45619.713
49000.211
52600.1
52766.176
55661.011
54455.563
43129.72
44272.36
39420.212
37823.519
44025.458
44187.445
48470.078
37016.299
38525.021
41704.831
40320.15
39705.484
39933.058
44427.657
42232.252
45116.092
42292.831
43653.537
44210.571
46223.753
42541.154
40032.516
40803.316
43365.586
42474.472
42517.983
42296.288
44627.967
42659.923
40638.27
40146.578
41217.225
40478.358
40805.178
40780.183
39560.245
39372.819
41338.535
40622.408
41392.46
42022.321
43213.013
40221.752
38477.281
38285.024
37964.771
36529.574
36957.717
37608.468
38313.911
36732.744
37111.494
36919.439
38622.715
38591.43
41083.701
36349.077
35093.258
34266.756
36233.515
33824.902
33831.155
34926.709
36261.122
34098.604
35182.471
32386.228
34333.311
33645.13
35600.741
32932.956
32590.954
30906.374
32833.398
32294.095
29712.437
33349.955
33357.762
29855.073
31283.922
28903.311
29312.846
30211.435
30980.219
29533.648
28434.998
29175.803
27589.32
30096.451
27099.9
30769.681
29040.542
27170.226
26600.702
26237.676
25650.914
25170.378
26854.303
26593.504
23748.889
25793.686
23481.267
25516.392
23939.871
26530.846
24034.501
23093.503
23181.385
21660.609
22841.922
21138.455
23306.528
22688.375
20221.29
21714.402
19979.995
21303.508
19893.641
21712.046
20267.517
18583.859
19971.866
17630.399
19383.747
17486.264
19861.405
18439.784
16871.914
17931.178
16394.668
17637.207
16185.953
17947.742
16797.085
14908.094
16521.887
14290.054
15850.494
14059.095
16242.929
14783.01
13548.433
14583.057
12880.987
14134.88
12583.883
14678.643
13484.81
11948.018
13089.735
11414.52
12682.878
11270.584
13471.904
11784.313
10928.203
11563.824
10343.661
11149.934
9706.3706
11859.088
10583.891
10119.28
9767.1454
9535.3062
9737.0892
8898.0728
11299.101
9526.8788
9065.422
8578.5634
8704.6356
8322.5712
7822.1996
10034.813
8896.9062
7849.1616
8173.5121
7076.0615
8795.4187
6909.8228
9237.702
8433.4379
6771.428
7480.2728
6192.5332
6925.6167
4940.9404
7876.5937
6531.6671
6237.0169
5728.4943
5546.6841
5682.3953
4987.1531
6504.2077
6355.1391
4595.3886
5536.4275
4438.2658
5153.9278
3781.9956
5560.9739
4779.8127
4395.9059
4389.1102
3866.5729
4114.1809
3250.9572
4573.9702
4563.7146
3539.5817
3923.1388
3232.5988
3637.0167
2745.3796
3994.6543
3720.2556
3119.4071
3342.7058
2866.9202
3083.4381
2331.9709
3578.6931
3478.8272
2858.5959
3076.1601
2485.7171
2625.1626
2053.5073
3278.3129
3109.4645
2564.9413
2543.993
2227.6873
2276.9428
1837.6358
2886.2633
3115.8589
2477.6083
2547.8117
2061.2504
2009.0459
2484.0421
3061.0189
2859.0503
2194.1053
2104.428
1871.929
2335.2633
616.13293
2833.6681
2474.6829
1476.4145
1616.6617
1274.452
1232.6157
1645.1496
2490.6052
2579.7894
2058.123
2039.293
1481.4146
1673.5018
982.39128
2648.9034
2706.681
1781.011
1620.7873
1492.3779
1275.5155
1004.7677
2571.7174
2262.8779
1470.1018
1539.5562
1087.9326
1162.9213
827.93271
2037.9495
2123.2823
1188.7113
1145.6038
1033.5098
924.04611
705.60471
1827.5006
1603.0329
884.29375
1064.4794
753.86704
682.58858
573.61222
1473.6396
1085.7669
729.79473
571.5824
552.56297
362.29156
532.02059
1038.3449
770.10366
390.29436
394.98709
306.57326
259.44345
369.66856
698.32997
133.10729
211.04133
-72.986254
100.71649
-140.93277
120.97993
174.52197
-157.79762
-83.700716
-137.56062
-160.1815
-15.725377
-41.14481
230.57779
1558.7368
1493.256
1416.5349
1536.376
1437.7359
1407.9481
1333.4494
-3247.8872
-1691.7142
-2014.9151
-1932.7986
-2157.9186
-1855.0697
-2933.1543
-959.76209
-496.48197
-163.44457
-105.58428
-157.8356
-256.59674
-1496.6081
-3446.6666
-2875.432
-3027.7865
-2811.6961
-3299.8785
-2653.1763
-4300.8337
-2286.1441
-457.74475
-233.66208
-542.12948
15.883431
-367.63984
-1736.9349
-1479.2678
-1215.6087
-1717.8911
-1394.736
-2032.3695
-1505.2921
-2869.9092
191.54197
569.24543
553.16411
592.04199
450.06438
559.55162
325.56745
43043.572
38496.257
36140.578
34857.216
35294.608
36652.6
35812.077
41304.205
37759.556
38348.153
38167.202
37802.669
37851.741
39180.533
43126.297
44342.896
43073.018
42158.867
43863.149
41897.761
42156.135
41012.892
41923.513
42034.02
42986.172
41526.664
39631.985
39853.093
42175.221
42675.982
43908.038
43241.041
43516.315
41560.428
40530.094
38283.068
39504.737
39571.883
39630.519
39168.472
37251.759
37471.614
39296.324
39179.327
40024.001
39700.341
39616.329
38822.909
38137.517
35397.768
35863.558
36100.129
35962.674
35627.756
34683.908
35230.601
35203.516
35218.751
35990.091
35211.635
35970.171
33895.881
35385.664
32872.547
32408.534
32878.541
32571.137
32585.873
31760.816
32595.592
31009.174
31042.631
31795.841
31295.022
31634.223
30269.502
31205.565
29416.707
28972.2
29101.074
29489.085
29283.13
28846.31
29665.829
27488.481
27269.706
27941.452
27279.188
27792.192
26405.382
27853.359
25730.533
25197.466
25416.048
25438.253
25622.693
25938.013
26369.084
23949.985
23342.275
23708.283
23847.361
24427.406
22471.564
24642.869
21734.44
21282.647
21873.356
21024.377
21878.656
21156.141
21989.229
19871.282
19735.837
19823.395
19905.058
20141.512
19055.893
20512.886
18015.712
17360.387
18086.785
17533.147
17835.456
17102.226
18064.872
15904.289
15772.791
16089.985
15625.037
16269.091
15260.654
16378.719
14143.502
13781.811
14104.786
13909.595
14115.95
13294.132
14315.633
12214.546
11872.155
12406.966
11864.226
12357.414
11602.587
12583.267
10529.717
10261.238
10508.12
10207.398
10617.728
9758.8966
10830.994
8934.1018
8368.4608
8846.1246
8496.5811
8869.6388
8174.5928
9425.7608
7653.9421
7118.651
7460.863
7110.3191
7500.2132
6889.5349
8196.4558
6495.6191
5834.7659
6167.9555
5895.7522
6251.7014
5637.5969
7094.2309
5801.892
4703.9698
5277.063
4832.1381
5304.7377
4684.3756
6312.4493
4738.0235
3770.0118
4229.8101
3855.3069
4300.2473
3656.9514
5300.8548
4004.1954
2887.2943
3337.3292
3045.9829
3597.0949
2875.2283
4566.7621
3062.7909
1876.7387
2645.929
2093.6129
2668.0114
1945.2621
3480.0293
2140.8113
1393.3972
1698.1382
1346.4136
1988.8558
1262.7368
2682.6529
1568.3515
517.56836
1062.7637
734.05725
1355.5817
570.12142
1914.3377
889.72994
121.73154
551.24233
218.55147
727.55757
99.84662
1293.8046
487.44712
-282.89864
96.399935
-230.26398
347.7363
-307.37921
827.03952
206.99813
-522.44991
-258.35772
-414.99271
-63.09367
-471.1313
582.1939
70.950001
-730.81539
-389.45291
-626.07498
-339.0443
-633.35324
253.12587
-32.686428
-649.49678
-444.2155
-753.94733
-345.37057
-319.26901
250.05622
285.85264
-760.61887
-803.81768
-742.85306
-243.6136
-1460.4329
826.48219
-123.45392
-669.15392
-491.01695
-712.56396
-405.48436
-100.00862
370.3629
400.09169
-107.13949
-246.36296
-270.44549
-76.742083
-501.36695
796.17669
578.38034
-260.30329
-340.28415
-58.871071
-264.77329
-151.61678
766.51144
722.43316
43.995556
139.17189
84.50372
87.077065
-27.334762
604.29649
344.60066
-174.77485
-330.10918
-211.43257
-266.47659
-196.73698
546.2917
864.49487
433.12588
265.2176
508.15413
298.05808
399.55189
458.94364
9.4193848
-518.66953
-502.32854
-484.14089
-673.92323
-484.16838
-23.767722
741.90487
654.22018
479.26009
581.03553
406.26731
891.93815
668.23949
-716.01787
-963.04816
-960.61958
-1069.2691
-956.42961
-942.31873
-986.67306
468.8995
526.45985
409.27347
490.40466
467.65025
492.08077
489.16685
45860.799
29896.701
26997.186
26710.495
28387.79
28022.235
27468.579
27114.156
26228.616
25870.138
25065.629
23027.733
22334.217
20319.528
18975.766
18648.841
16626.352
15897.361
14252.237
13482.412
12023.471
11065.754
9675.3834
8359.1346
6807.3163
5537.3908
4287.1068
3385.4554
2636.1196
2099.8171
1731.1868
1424.081
1093.0835
714.9348
557.96002
-553.5481
-430.8717
-926.17707
-1032.8473
-1384.7006
-1075.574
-921.0401
-497.37295
-102.51339
498.54537
132.10369
2128.3182
19522.073
18561.945
12293.416
12580.771
15247.489
11963.352
14395.468
13613.067
13644.467
13503.204
12724.385
12402.421
12050.315
11398.312
10981.675
10332.317
9783.9906
8904.592
8570.4462
7797.9011
7237.4888
6610.1906
5902.5464
5362.5797
4723.2422
4169.4971
4107.8971
3948.1778
3719.1352
3480.8194
3196.0219
2941.3133
2595.7001
2465.625
2107.5581
1776.3896
1694.202
1647.211
1752.0266
1488.3941
1653.7854
1348.6768
1522.7441
695.61641
1538.2519
-1571.6933
3773.1684
6389.5439
5107.378
2988.0384
3543.1177
3511.7262
2490.7384
4177.2166
2654.9713
4043.8225
3208.9186
3341.7273
4037.0767
2981.947
3285.5536
3038.3161
2811.3375
2755.0747
2624.9387
2311.7658
2206.5745
1904.0685
1702.9132
1483.3054
1102.1681
1023.0549
537.05397
783.99808
209.51988
300.61047
46.6546
-16.48885
-301.78929
-304.67519
-515.72295
-609.75996
-587.9761
-691.73151
-605.34447
-547.07476
-385.9409
-391.10042
35.275299
-112.68872
503.31559
682.86707
287.17626
4601.9739
2656.1859
2733.7499
-991.20672
3368.1441
-673.64295
3068.4247
-1312.4276
2133.1688
47.106815
586.66954
1373.0631
-66.914506
805.84044
2490.9826
1658.7114
2214.7008
1989.65
1869.8213
1991.0299
1952.0146
1944.4585
1937.3663
1835.4301
2101.4745
2166.2715
2462.4222
2286.4178
2457.1971
2390.8445
2331.3494
2226.6575
2166.4192
2118.3514
1923.7389
1991.2082
1850.6237
1777.9563
1691.9736
1768.9662
1412.0174
1672.59
1133.3752
1539.8378
532.30476
1753.9628
-1436.6886
4776.0535
7320.0978
2876.6382
4457.5665
3457.557
3887.0408
3110.2336
3447.5054
4333.9372
1783.8416
4774.4352
1559.6628
3806.8598
2672.963
2741.1606
2514.5331
2566.6675
2387.7281
2513.9088
2336.9277
2317.7947
2178.9551
1977.3984
2072.263
1588.5488
1100.4904
618.48235
388.25904
245.86545
169.08052
12.65516
-43.493694
-204.24079
-342.47853
-361.17394
-349.01333
-556.5475
-450.11929
-372.78066
-631.70612
-98.808336
-470.7322
182.07346
-189.47233
611.99814
419.13437
659.95701
3322.7823
15051.576
14554.534
10316.145
15625.132
10557.486
14262.706
13321.741
11314.214
14259.577
12004.577
12517.643
13252.699
10317.325
11929.79
9997.7504
10029.919
9072.1665
8547.4567
7879.193
7205.8978
6566.9729
5927.2758
5568.2733
4679.9471
5290.1521
5024.3216
5242.6081
4829.8523
4634.2522
4246.3401
4031.0894
3556.0901
3225.4638
3022.2862
2713.6306
2443.1928
2548.6571
1933.1975
2424.5063
1763.4902
1939.269
1401.591
1557.5631
609.40845
1366.2795
-710.52817
2707.6286
37437.059
22551.566
29159.396
23086.799
28391.159
24986.883
25817.748
23932.54
24682.333
22047.801
21537.794
22243.802
18613.558
19574.196
16365.707
16844.116
14928.634
14243.48
12914.366
11770.658
10387.677
8969.5355
7570.2433
5824.2831
5064.1784
3395.1257
2006.1241
1637.2338
928.41412
754.94685
270.72582
-240.79362
-643.83693
-1049.6686
-1681.9566
-1988.8245
-2107.9707
-1926.8603
-2266.3143
-1581.9823
-1324.6045
-690.79655
-340.91663
342.42858
685.53773
1158.8342
1243.4835
34868.783
29099.718
27966.606
26968.918
27120.745
26294.321
27310.809
30057.012
31653.149
28400.02
28039.733
27153.611
27497.339
28198.276
28447.92
30728.541
30975.738
30179.061
29918.142
29504.432
29239.762
28093.358
29136.272
29375.688
29540.264
28762.56
28222.398
26075.641
27174.256
28977.098
30681.237
29745.654
30114.017
28733.366
27467.912
26571.911
27563.397
27640.273
28625.859
27664.053
27212.528
26640.832
25749.241
26385.813
28072.384
27038.448
27140.782
26656.678
25562.984
24659.229
25658.098
25700.541
26255.686
26181.883
25029.386
25120.573
23829.16
24586.473
25043.643
25533.871
24776.262
24960.695
24235.143
22634.335
23308.968
23709.345
23470.9
23568.506
23188.64
23010.489
21414.077
22618.225
22610.426
23189.528
22991.655
22856.238
22830.138
20734.727
20975.471
21633.416
21220.979
21278.33
21078.859
20968.875
19381.725
20240.491
20093.888
20459.799
20661.491
20149.652
20361.664
18403.563
18776.137
19377.852
19127.115
19470.584
18478.195
19342.37
17053.01
17876.128
17314.801
17984.152
17469.27
18134.483
17547.158
16322.032
16736.963
16738.445
17103.848
16889.322
16539.975
16547.918
14735.88
15227.195
15192.288
15594.49
15263.534
15318.673
15360.755
13758.429
14228.301
14245.436
14468.044
14343.632
14573.059
14331.093
12639.109
12948.726
12907.31
13175.084
13177.052
13007.191
12885.54
11523.138
11933.694
11842.782
12232.37
11953.466
12105.001
12038.945
10618.33
10793.738
10846.309
10977.579
10910.438
10949.444
10758.418
9563.1888
9724.9697
9797.5093
10010.82
9900.7453
10002.605
9832.5929
8744.7414
8764.7154
8984.4055
8991.3931
8901.5269
8794.6068
8793.4963
7680.3107
7522.5277
7954.8382
7964.4919
7864.1306
7943.103
7897.0159
6870.7753
6523.5489
6930.7126
6967.2531
6815.0612
6691.1882
6763.1874
5700.8925
5338.9936
5980.5012
5796.5083
5801.4891
5665.5179
5861.1103
4913.4619
4388.1785
4979.6991
4849.3666
4745.9377
4805.0036
4790.2725
4158.8266
3617.5739
3920.9644
3978.3221
3966.9467
3686.0587
3951.9451
3322.168
2479.1906
3565.0744
3243.7974
3179.2313
3070.1303
3283.2966
2736.0218
2425.3448
2768.3174
2556.0833
2665.69
2457.4345
2649.158
2345.1139
1613.687
2257.0557
2226.9457
2190.1721
1916.4407
2152.6574
1722.2638
1348.2763
1930.0882
1748.9023
1647.0885
1526.7199
1732.2715
1430.5343
1068.2877
1512.4494
1431.3983
1408.9793
1248.8486
1428.5767
1088.2003
714.01541
1161.4303
1125.3067
1009.4133
965.4161
996.01192
717.27236
520.77901
907.46663
895.02488
883.81191
599.82576
738.91145
611.29661
269.73105
503.7796
616.20391
357.08391
406.80475
619.814
197.76429
-211.93355
268.04359
201.25322
397.4507
-42.150127
695.68527
105.99996
-296.43077
-102.11269
403.50455
-301.8302
256.38249
-477.95567
-293.71751
-283.82269
-297.43718
-1.4441538
-275.75436
-579.64612
-147.55416
-315.17677
-688.59137
-848.17585
-190.18837
-871.36952
-365.80167
-617.82872
-439.21343
-659.40582
-701.66149
-237.26893
-706.65075
-530.12748
-696.32015
-347.95905
-651.04599
-844.12466
-305.85098
-883.87434
-474.45145
-680.25506
-202.40165
-318.46825
-544.78849
75.445955
-457.16803
-88.813129
-628.86245
-351.10428
-653.39799
-677.05962
-246.62233
-815.96245
-426.89682
-557.92436
581.64126
584.56938
438.46522
835.73717
396.43736
1194.7223
283.63575
-114.08816
-283.95299
-210.59276
18.324608
-174.14248
-100.41264
-738.7283
1776.9704
1657.9049
1589.8119
1673.5092
1533.9529
1553.2862
1636.8234
15099.252
11421.236
10142.644
9646.6157
9131.6772
9483.1137
10055.817
14433.318
16333.698
14622.327
15078.949
14841.822
15079.652
15243.234
13439.668
13830.266
13895.802
13232.824
13445.428
12341.59
12766.921
12658.843
14079.572
14780.273
15066.168
14273.327
14196.179
11792.343
13027.493
13471.512
14859.683
14025.444
14799.617
13213.335
13099.387
12407.392
13104.711
12459.279
13006.47
12009.32
12091.332
11333.685
12294.51
12332.223
13624.052
13235.453
13444.136
13153.165
11728.996
11952.043
12484.252
11852.154
12221.613
11929.569
11576.237
11356.159
11720.584
11404.126
12007.326
12092.555
11460.066
11923.707
10887.448
11334.64
11219.422
11455.739
11238.577
11653.692
11309.648
11076.611
11046.738
10710.891
10891.848
11231.244
10558.212
10936.334
10026.208
10484.042
10140.429
10265.19
10253.816
10344.206
10323.052
10144.682
10155.287
9668.4255
9835.3409
10597.656
9826.5746
10519.637
9348.8968
9438.339
8790.3288
9397.2695
9187.5511
9020.22
9364.7972
9152.7106
9044.1246
8710.1262
8996.4742
9044.9894
9237.8352
9041.3381
8909.5088
8567.4382
7575.0183
8449.7316
8096.9308
8316.7028
8194.3796
8103.0904
7835.8234
7658.1816
7840.3223
7816.6933
8000.009
7892.6346
7990.5331
7582.2645
6891.8826
7248.7088
7269.1789
7272.7436
7315.5848
7132.5317
6843.2003
6459.0552
6760.9838
6681.7969
6875.786
6738.8079
6773.5797
6500.2035
6020.7179
6171.7687
6290.3102
6224.8524
6205.8513
6300.2867
5723.2789
5349.0596
5661.501
5599.6651
5697.3717
5826.7652
5735.0901
5261.4768
5208.731
5180.9893
5217.8659
5338.9776
5169.7778
5319.9417
4661.6434
4434.5541
4484.0479
4668.539
4485.0745
4860.604
4879.3568
4316.2625
4112.5229
4201.5424
4029.9778
4195.4284
4679.9955
4559.3318
3808.63
3622.0932
3771.1469
3436.0534
3770.3607
3923.6612
3795.2463
3651.8432
3314.1431
3200.2785
3443.2294
3014.9005
3833.2404
3812.915
3051.5702
3039.6861
3103.9529
2505.8127
3348.462
3379.1585
3549.5744
3146.5329
1965.8375
2675.1546
2628.2257
2665.4134
3152.2337
3054.5999
2501.2774
2400.7028
2699.3946
2035.9259
2342.2695
2955.1572
2613.2164
2405.9074
2067.6302
2105.5411
1792.5455
2238.9289
2614.9445
2299.3984
2009.1014
1548.8704
1847.5516
1672.4575
1785.4512
2278.6665
2068.3594
1661.1074
1540.4272
1801.9463
1459.5185
1597.6044
2256.4874
1872.1018
1544.2024
1254.1686
1406.1975
1118.3609
1417.03
1932.859
1537.1749
1248.1768
1069.0231
1275.901
1172.0077
1224.7476
1700.7077
1398.6655
1174.0132
897.47828
1120.6474
881.51897
893.787
1619.1137
1399.3933
973.79194
693.34711
914.82927
846.1995
852.61273
1543.0831
989.3863
1110.9276
799.80058
823.42563
874.46971
418.44986
1576.3889
792.70065
1078.9168
204.20186
726.74603
537.1366
657.37921
1248
820.37124
1255.0703
569.22636
932.92736
732.5983
528.09868
1186.1981
727.89159
1074.535
-167.95831
696.69826
263.69999
438.89451
1110.0429
731.20262
1323.2522
485.89275
1162.5046
829.63785
759.76413
1212.6003
598.76355
870.00017
-318.30123
535.1911
-3.5614041
111.34162
595.45286
463.62314
1338.9656
640.44827
1230.7156
1019.6921
1032.0585
1367.4246
762.19692
450.64963
-480.87533
173.97898
-224.70439
-373.39038
-222.60089
-118.93969
1643.066
1284.6933
1607.1198
1411.573
1415.8021
1934.6858
1436.6019
-783.55016
-1518.452
-1111.416
-1502.9757
-1370.7725
-1800.7571
-2266.2317
2517.493
2857.6315
2300.4839
2297.95
2252.7948
2397.8872
2753.5678
5961.5137
4833.3998
3909.1394
3681.6003
3311.4114
3537.0685
3359.2011
3195.1378
3966.5683
3192.9897
3391.1596
3279.5608
3003.9487
3459.5517
4857.9405
4556.5002
4390.4484
4145.2722
3778.6868
3520.823
3554.5093
2880.3249
3562.943
4655.7501
5108.1483
4813.5098
4868.7564
3557.1738
4670.558
4881.599
5155.8896
4027.4102
4183.5181
2917.6918
3850.6006
3347.1334
2294.4503
2782.8915
3319.334
3170.359
3226.0022
2823.33
4001.0364
3742.0909
4987.5256
4771.8719
5003.9783
4397.9823
4314.4017
3688.476
2804.904
2802.6997
2424.5379
2533.7781
2437.9503
2446.0971
3224.0345
2982.5741
3810.7467
4128.6233
4633.456
4125.151
4038.9701
3648.0421
3011.2238
3051.7575
2848.0112
2751.7381
2650.5972
2727.8749
2942.8589
2613.4058
3111.4565
3034.0508
3612.6168
3045.4915
3311.3821
3414.9978
2712.8464
2903.3428
3001.8052
3249.8609
3116.4394
3269.3735
2966.4395
2077.8852
3216.7774
2446.2339
3243.3382
2377.579
3274.2937
3027.3256
2599.2239
3194.9356
2585.466
3276.6024
2545.8981
3101.0639
3232.2471
2498.671
2734.782
2708.3504
2507.2908
2520.0459
2809.0558
3020.582
2580.1387
2778.6721
2699.6076
2732.2511
2361.8725
3047.9099
3189.0549
2264.3147
2588.8107
2699.7558
2269.1169
2318.3894
2716.9461
2900.1022
1973.6946
2612.0174
2321.8187
2252.9387
2209.2591
2725.7357
2955.5676
2067.7526
2365.7686
2281.3694
2083.7566
2015.4188
2472.2701
2689.1581
1611.9123
2193.9161
2036.9896
1848.6397
1967.5693
2390.6631
2731.5914
1758.3839
2145.3301
1927.199
1861.9758
1724.6441
2189.7344
2639.9607
1358.1135
1869.1021
1786.6611
1465.7495
1629.3361
2083.1743
2584.1573
1342.7851
2022.7737
1328.5655
1654.6061
1465.8506
1956.6331
2550.5977
1193.5562
1737.066
1458.7362
1690.8007
1048.5982
1484.3742
2466.9725
901.30657
1716.1485
1425.8607
1524.4645
873.61187
1727.5843
2287.6689
779.84901
1827.444
849.57879
1517.0602
742.66056
1029.4594
2566.2477
627.8501
1508.2677
709.99391
1712.6754
366.22044
1324.018
2085.5541
478.26643
1288.8285
1017.9526
1132.8506
375.81999
976.77659
2186.3442
738.62299
1548.1892
461.83123
1481.792
277.46466
1024.9308
2092.7167
277.84512
844.88459
489.4702
1160.1923
-74.295733
805.21509
1827.3256
214.90463
1142.9603
586.554
1180.3111
76.177515
847.72696
1814.0046
174.25778
906.41235
191.8247
882.33204
-163.54895
501.03614
1626.9192
67.878489
685.56576
290.99791
877.05483
-245.73778
484.91338
1563.7304
-75.8604
686.42542
147.37307
568.71327
-247.2194
406.99973
1412.9742
-55.1825
589.69855
46.48653
584.65515
-255.75109
53.308631
1443.8442
-56.864917
588.6814
-29.78195
472.96965
-379.4925
121.79768
1286.6803
-191.41096
441.31219
-67.158009
513.42477
-409.26433
38.971567
1204.4897
-169.17822
550.1594
-26.632427
303.98124
-337.53505
-266.32435
859.8821
83.546028
329.8643
40.101512
194.5212
-373.83146
-131.20184
904.03547
182.73552
195.02581
250.05686
168.92327
45.396436
-258.84797
593.48224
411.79157
117.80197
319.10503
23.979574
-240.56539
-476.89135
743.10676
318.56138
54.478203
356.5579
-101.78481
297.05817
-194.88589
458.79435
658.45333
186.34027
599.56783
147.73175
432.04724
-551.87211
336.20409
248.01592
-184.58378
340.88096
-451.79123
169.40293
-374.06814
645.29823
873.45281
447.08432
959.545
218.12371
1620.0134
94.883363
-519.51887
-460.04169
-600.86914
-238.50947
-736.95391
-170.25599
-1789.644
2484.5991
2732.338
2322.8475
2519.375
2291.2447
2843.5228
2618.6932
2600.7032
2271.2904
1699.4248
1687.0828
1484.7267
1556.2429
945.03104
881.28998
1985.8262
2122.8792
2631.0298
2570.3376
2667.8706
2708.7055
1158.9066
582.24752
123.79607
110.81658
24.352699
27.569726
-510.70802
1311.2945
2706.6873
3770.3621
4272.9219
4440.9112
4189.8453
3570.1702
1134.3413
715.12824
-3.7089034
-775.29351
-1013.407
-955.9115
-456.83068
1820.5602
2177.5587
2431.8236
3016.5398
3402.2593
3405.5207
2764.1347
1113.0612
847.07176
311.05288
351.33824
-77.420173
-475.32974
363.83261
1796.5053
1889.0484
1674.3857
1924.5059
1735.4804
2400.0144
1905.5518
1688.635
1345.7487
1508.614
650.03193
1691.2759
487.37066
1440.4906
1429.9482
1883.5183
1004.2589
1275.2245
909.46378
1384.2849
1320.9644
1705.2182
1020.8984
2295.9055
980.0298
2335.3566
1657.6184
1597.406
1337.7966
1893.3094
1426.201
549.20737
1453.3615
897.55343
1742.2062
1583.9933
1149.2972
1716.0097
1143.8901
2156.3292
1420.8802
987.48989
1310.5645
1768.7355
1013.5498
1085.4893
1002.1952
1734.2037
1370.8114
1157.7558
867.74417
1825.4477
758.9648
1685.2762
1434.6162
1076.8307
1156.9435
967.68523
1512.9429
1056.4351
1099.2809
1649.3686
1112.8807
1009.2392
705.08741
1644.8446
866.40657
1292.6796
1655.8352
1131.4974
1173.186
1093.598
1654.2904
975.87871
1171.2407
1627.1849
1164.5251
895.26495
769.95572
1576.5514
817.74661
1288.3025
1717.3075
1150.2319
1133.6701
1071.5877
1591.7627
945.58751
1330.6491
1469.5812
1193.012
1017.1239
704.82117
1511.1639
909.16609
1117.5691
1604.9866
1197.3131
1194.9497
954.1397
1611.1406
717.23357
1270.2435
1531.4117
1170.7049
1240.2756
941.2108
1047.8647
1093.3543
1155.8379
1459.236
1015.629
1304.0703
655.81567
1198.9932
1141.9495
767.56054
1499.0648
1452.3736
1324.5379
567.1969
1531.1411
522.71061
513.22751
1657.9544
992.87953
1534.891
750.8854
1015.0171
795.49077
686.41505
1459.2901
1453.9964
1152.8395
437.96376
1128.2384
938.55458
388.29957
1468.6268
1082.0329
1252.6797
507.43076
1387.9124
565.10586
823.59997
1381.7643
1298.7413
1322.26
411.96661
936.62794
745.74621
213.63839
1245.6507
1062.7828
991.43792
190.62688
1022.9548
638.9759
546.05672
1404.0325
1116.6874
959.65814
314.2963
956.87063
600.42757
314.68104
1073.8772
970.43532
868.4138
187.90165
826.91091
515.27871
211.30057
1089.7868
904.63833
702.25511
1.3863204
760.04746
361.65218
229.90688
1086.9112
887.99823
583.33176
-0.27870253
706.04888
404.19888
144.95124
946.00556
588.58275
451.65668
-116.37993
591.31699
181.22167
34.221151
812.52301
661.03709
244.39023
-220.55445
333.07793
187.45642
52.288659
713.18219
503.2088
194.9147
-261.9755
326.85268
212.61084
-281.37379
674.87081
324.97577
-70.243666
-427.52709
250.4708
-124.13458
-181.48156
478.02682
365.57529
73.800164
-258.04964