/*--------------------------------*- C++ -*----------------------------------*\
  =========                 |
  \\      /  F ield         | OpenFOAM: The Open Source CFD Toolbox
   \\    /   O peration     | Website:  https://openfoam.org
    \\  /    A nd           | Version:  6
     \\/     M anipulation  |
\*---------------------------------------------------------------------------*/
FoamFile
{
    version     2.0;
    format      ascii;
    class       pointScalarField;
    location    "0.71";
    object      E;
}
// * * * * * * * * * * * * * * * * * * * * * * * * * * * * * * * * * * * * * //

dimensions      [1 -1 -2 0 0 0 0];

internalField   nonuniform List<scalar> 
3969
(
99767.468
103697.22
-1668222.8
-771351.58
111859.3
112768.38
-1158768.4
-2499189.7
52795.14
22307.255
7683.9397
5169.8668
14322.218
37020.172
83887.978
-920614.3
-909451.4
-900637.76
-892009.67
-885130.69
-878071.8
-661827.35
103930.32
84781.871
83856.406
81866.558
78595.609
74710.785
69419.948
64581.827
59219.369
54273.701
49754.708
45444.657
41371.386
37621.377
34154.58
30833.994
27910.219
24949.096
22305.72
19730.76
17406.016
15199.843
13213.599
11368.187
9874.4029
8469.2569
7040.6714
6049.027
5056.9792
4201.6906
3521.912
2963.1973
2470.0902
2122.2553
2109.9505
1603.047
2102.7624
1459.3575
2316.8023
1623.7997
2499.8947
2521.9216
2473.793
3660.5026
3567.0531
2414.8871
3516.2558
92569.861
65870.879
74692.084
70297.375
67950.123
63160.189
59388.28
54363.196
50278.282
45751.311
41469.051
37784.177
34059.424
31004.709
27457.849
24792.814
22078.657
19511.14
17552.681
15179.069
13392.951
12005.225
9642.2158
8415.8752
6901.7788
6010.1436
4128.1652
3286.5333
2232.779
1697.4718
1202.5932
659.52574
376.26282
78.948712
51.091701
-93.511327
165.37498
-78.792254
336.21232
326.93102
845.3619
1157.1815
1350.2954
1818.021
2480.0206
2937.2151
3779.5367
56304.165
25389.075
7918.9294
8482.9455
13382.675
34108.806
72606.151
149765.93
95273.406
75886.07
91925.296
76136.378
76193.924
69540.538
62007.362
58297.274
51123.963
49964.297
46122.269
43820.517
39369.104
35893.562
32894.02
28851.371
26260.322
22963.919
20210.242
17664.286
15452.506
13437.824
11644.295
9697.8812
8530.0636
4700.7722
3100.716
2141.1023
984.33758
121.61852
-533.00521
-1127.5371
-1476.1209
-1870.0339
-3060.1805
140.5238
-2424.7287
-2263.8511
-2323.5235
-2384.1578
-2096.724
-2239.3798
-1934.6117
-1647.4313
-529.25867
-3286.0254
-1863341.5
-1565499.3
-1893866.2
-1793810.2
-1811974.2
-1627723.1
-1979790
-4534.2912
-28.65341
2330.276
1877.3319
1474.4993
844.65948
669.84613
246.90423
116.8538
636.83681
1576.331
-1659.3559
439.81171
520.99191
944.05795
1552.6514
2063.0551
2948.6445
3750.9758
4843.636
5895.4148
7238.7569
8729.4908
10297.748
12020.52
13821.722
15921.467
18124.047
20654.028
23294.539
26275.784
29807.223
33319.974
36159.315
40887.228
44779.638
50684.376
54972.683
59986.08
65129.672
72214.328
75307.972
83332.523
83750.819
83970.799
89929.2
114486.88
81649.366
80072.72
79368.419
79202.993
78965.443
78299.649
83505.445
67983.805
73117.039
80642.978
83747.924
83365.145
86232.096
72370.829
-867876.9
-868489.04
-868226.32
-868664.37
-868675.43
-868713.28
-869485.3
-1875853.5
-1876437.3
-1876784.4
-1876943.2
-1877107.2
-1878042.9
-1878633.9
65483.703
56570.968
56886.877
54625.228
53868.004
50833.604
48034.014
44592.055
41124.701
38079
34924.285
31806.944
29092.997
26365.871
23937.184
21797.743
19752.017
17841.494
16188.446
14625.005
13211.544
11817.597
10625.34
9469.7331
8371.9435
7499.0911
6437.1242
5981.3049
5120.409
4681.428
4234.4674
3870.5052
3584.5174
3391.7819
3251.8904
3061.8685
3300.3557
3221.9728
3349.3914
3506.4087
3893.2038
3519.6916
4794.6151
4034.549
5350.1249
6500.9859
7000.738
29292.636
27398.079
29255.123
28613.66
27892.456
26565.755
24478.729
23183.483
21155.584
19664.042
17879.106
16370.041
15267.637
14226.435
13228.91
11996.845
10971.389
9922.459
8959.0237
8108.3302
7375.2557
6673.0424
5978.4049
5419.6854
4967.8442
4545.8562
3966.9805
3811.0983
3393.7406
3285.4007
3108.8563
3021.1095
2984.7359
3047.1776
3174.2712
3188.3243
3667.2935
3054.3875
4279.0559
3605.055
4619.1362
4526.894
5170.765
4826.0029
6864.0925
5369.6999
7555.8762
10652.797
7700.2378
10707.578
9587.6297
10363.298
9691.5929
9588.768
8929.5985
8224.4292
7896.5027
7280.1893
6507.4642
5988.4409
5266.2239
4878.6514
4402.5662
4104.677
3638.0843
3397.2917
2939.3714
2434.6319
1941.6004
1572.7189
1399.4963
1082.48
862.97464
1061.632
894.94609
872.40619
941.36603
902.5335
1091.4237
1129.1132
1376.6755
1464.8885
1878.0925
1944.6196
2803.3661
3058.2853
3199.9693
4060.8564
3741.8368
4737.9062
4833.3116
6258.0338
5512.3525
7975.9094
4587.0566
1231.3806
2908.335
3271.0125
3876.227
4039.6248
3921.5768
4295.8309
3868.7256
3726.0719
3418.8512
3187.4566
3136.8744
2805.8279
2581.2136
2221.4731
2062.4625
1950.2448
1766.32
1664.152
1820.8463
2084.295
2418.6454
2564.4421
2478.7096
2465.4709
2206.8553
2218.5049
2239.484
2278.3075
2287.7783
2449.9856
2470.4452
2641.6115
2929.9051
2847.9905
3404.9919
3293.3155
3536.1578
3700.8959
4202.7675
4235.6929
5108.9825
4880.4966
6191.4767
5146.0891
8011.745
12092.184
6359.8055
7102.4506
6364.3387
6517.0679
6643.3655
6116.5364
5977.1512
5540.9663
5351.1533
5080.9198
4543.6442
4048.7042
3636.8038
3439.1247
3010.0906
2820.7137
2457.5966
2262.021
1900.502
2469.7893
1315.8927
1054.7082
1149.141
1002.4023
725.27818
848.75929
882.16946
813.01154
851.09128
899.58424
1035.6406
1157.3694
1358.3278
1463.1482
1963.3575
1833.4751
2608.1291
2674.5332
3104.535
3106.4465
3783.91
4116.5799
4764.5192
5066.281
5803.9837
8576.5265
31844.471
25070.143
25331.454
24531.291
25157.911
24353.108
23500.809
22316.617
20840.992
19599.598
17966.267
17013.263
15159.926
14263.481
12886.935
11961.196
10834.682
10015.421
9184.8438
8386.2605
7478.3794
7621.1623
5901.3971
4724.8771
4248.6352
3820.1239
3324.8428
3181.6922
2860.0498
2725.3552
2536.0521
2514.3062
2448.6098
2466.4652
2640.5948
2581.0064
3078.3156
2859.5203
3312.5024
3849.3939
4268.1718
4879.382
4811.9505
5430.8071
5509.2722
5402.419
7684.6298
51304.327
46288.493
44843.056
46007.413
45459.419
44139.504
41559.074
39204.219
36605.965
33667.072
31615.096
29121.626
26752.551
24163.076
22299.076
20212.924
18496.16
16806.191
15276.302
13879.423
12950.223
10959.401
11095.763
9097.1
9014.5413
8042.0617
7372.2723
6838.395
6262.5019
5718.6809
5157.3268
4925.4999
4485.0115
4372.7768
4044.8836
4079.3546
3890.0095
4247.5519
4134.6308
4312.9815
4399.0943
4595.7229
4840.7952
5638.1578
5202.8979
6985.3174
7245.4113
33320.296
34641.474
29908.241
29992.058
30335.388
31118.3
38438.585
14686.133
13279.38
12244.549
12168.376
12503.553
13119.962
16738.895
4400.3111
3293.1604
2161.5232
2529.3102
2243.9829
2621.8874
4571.343
2279.5093
1184.6945
841.95011
811.15492
1149.5056
2014.5044
4272.622
5445.4919
3547.938
2689.675
2448.8365
2948.1791
3901.2348
6663.2816
19607.972
14617.505
12739.636
12241.738
12880.05
15155.702
22003.324
37750.878
38837.568
32262.16
33583.995
32844.031
35841.004
47361.92
111603.03
98559.378
106894.55
114172.62
114408.11
122005.64
118524.37
95573.277
98823.538
92847.11
90800.014
99114.294
101491.1
102818.34
84415.434
87609.638
89038.664
89466.879
89264.124
90080.589
91281.769
82570.41
92073.328
91687.042
93638.453
94434.102
94022.141
87359.51
77198.137
79709.743
84138.468
84683.743
84364.25
81080.152
79912.741
72447.292
74497.664
77219.94
78910.123
78475.527
75904.681
73447.349
65898.464
67708.491
71236.63
71661.245
71433.052
71691.012
69305.921
61998.94
61923.864
63505.991
63811.307
63748.818
62097.353
61019.089
56255.248
56100.676
58365.697
58717.53
58972.438
58288.001
57992.302
52326.214
51456.391
51820.576
52646.722
51780.303
50942.509
51418.764
47491.018
46882.379
48299.922
47378.096
47901.486
47748.207
47647.651
43563.68
42288.378
42576.908
43213.119
43250.375
40740.112
43622.832
39799.486
38246.788
39542.679
38460.889
38465.482
38251.226
39932.895
35315.652
34500.992
35382.16
34693.121
36023.825
33396.283
36189.002
32745.003
31047.857
32111.556
31507.3
31277.381
30638.991
32627.547
29182.617
27315.118
29393.592
27711.892
29115.825
27520.658
29603.112
26340.867
25195.843
26245.285
25087.084
25808.271
24268.056
26178.088
23763.536
22041.561
23904.473
22270.762
23325.225
21917.989
23602.345
21142.923
19919.296
21546.792
19609.488
20762.008
19107.766
20912.93
18935.421
17579.754
19234.732
17379.343
18529.319
17009.342
18718.435
16883.81
15462.03
17159.521
15106.675
16335.557
14706.452
16457.372
14889.296
13563.972
15142.581
13197.418
14338.299
12748.416
14537.307
12971.575
11811.14
13146.859
11378.411
12377.193
11035.93
12800.918
11212.987
10253.908
11429.69
9720.6505
10618.455
9429.1877
10980.604
9508.2523
8844.4634
9622.8925
8652.5335
9108.8005
7748.216
9208.1384
8064.764
7705.9142
7952.1627
7245.3374
7699.6451
6566.6612
8164.2323
7258.951
6505.4829
6933.5502
6036.6301
7549.6527
5276.3921
6245.809
6585.1561
5322.8199
5960.9755
4784.3946
5418.0048
4092.6455
4832.0796
5327.0922
4462.6074
4919.0248
3902.2615
4378.0141
3485.3487
3785.9041
4715.1026
3459.9061
4335.3545
2872.5999
3672.2675
2374.5044
2862.984
3721.918
2875.2521
3455.4356
2170.0721
2834.7664
1674.4544
2163.7397
3182.7525
2242.229
2865.1538
1584.0716
2332.7969
1125.07
1613.1918
2619.05
1786.2486
2371.5139
1171.1096
1802.9465
606.91298
1082.0125
2123.262
1374.1989
1933.126
748.78985
1416.3421
301.28163
743.25418
1820.106
1223.1478
1659.1833
604.03115
1093.1179
12.201656
455.15882
1572.7658
882.83765
1485.6447
286.8627
1040.2435
682.63536
189.37286
1599.513
1026.3352
1164.0134
488.31235
902.95089
-990.47842
171.24053
681.4231
829.24879
952.98449
400.86861
487.0999
504.51896
35.988589
1277.1836
871.54852
1257.6314
295.81239
862.17667
-167.56466
92.153042
1504.1754
853.21042
1349.5914
409.58662
885.31863
-128.31827
118.91949
1351.9325
877.687
1337.081
399.72619
899.04772
-9.9550429
174.09405
1630.7177
1185.0591
1675.2607
866.68681
1233.9255
323.01606
296.77067
1535.6849
998.46299
1509.2388
707.55387
1105.4092
291.59938
403.97341
1850.8563
1427.3716
1905.8521
1260.2433
1483.5821
756.94157
569.10012
2290.6791
1988.2443
2390.1262
1758.3797
2082.7318
1376.9054
1136.8776
3051.2987
2589.318
3125.9579
2565.3129
2803.8717
2216.3576
2120.5296
1398.8843
1664.9132
1794.4336
1572.9131
1627.5328
1231.596
1033.4012
-1122434.1
-1234242.1
-1234215.6
-1234452.8
-1234622.7
-1234559.8
-1234308.7
-1220215.8
-1219123.6
-1218957.1
-1219292.7
-1219207.5
-1312727.9
-1219318.6
-1299111.9
-1204125.3
-1204386.3
-1204346.5
-1204277.2
-1092803.4
-1204228.6
-1194129.6
-1193197.2
-1194173.6
-1193995.2
-1194366.2
-1193853
-1193994
-1183286.1
-1074800.4
-1182869.2
-1182800.4
-1182488.7
-1182441.5
-1182511.6
-1066691.4
-1263906.8
-1173716.8
-1173506.6
-1264412.2
-1173316.3
-1173246
-1252907.8
-1162414.6
-1163192.7
-1162883.2
-1056273.3
-1163009.7
-1163124.2
100782.81
91792.424
86324.468
83578.62
85402.98
87623.994
90233.046
94973.589
89025.277
88367.947
87009.784
88261.783
89905.101
91708.672
90781.922
90883.708
89898.624
89018.074
89796.652
89078.327
88120.198
86118.66
86854.466
87049.153
87024.937
86434.919
85076.667
85289.447
82339.492
82044.311
82489.237
82086.693
81619.82
80308.01
79501.983
75947.867
75978.577
75743.149
75578.678
75450.591
74503.863
74646.31
71468.803
70528.355
70108.222
69224.373
69668.881
69404.398
69701.65
65171.147
64412.809
64052.334
64071.071
63312.363
63204.021
63610.623
60600.647
59560.471
59152.159
58807.071
58951.526
58115.602
59418.693
55025.048
53982.043
53675.398
53142.307
53149.171
52712.609
53606.133
50474.488
49640.03
49759.353
48827.859
49331.109
48420.394
49263.891
46162.537
45260.852
44646.15
44668.686
44155.389
44184.518
44551.15
41870.018
41088.545
41025.794
40456.785
40224.946
39823.117
40849.589
38075.946
37286.253
37130.497
36608.035
36862.579
36997.529
36953.667
34664.555
33744.035
33682.634
33313.554
33466.949
32210.303
33039.067
31047.517
30650.002
30627.437
29981.74
29961.442
29608.833
29883.712
27963.193
27613.142
27420.016
27231.791
27141.459
26676.707
26794.86
25262.088
24780.216
24833.026
24386.638
24361.913
23919.146
23958.554
22500.357
22271.253
22174.438
21898.529
21868.641
21332.131
21412.846
20097.672
19881.157
19772.782
19592.472
19475.402
19048.408
19081.798
17821.863
17647.359
17586.252
17361.49
17285.408
16875.831
16914.243
15707.541
15511.858
15480.792
15359.3
15332.952
14923.613
14877.416
13796.699
13545.565
13612.556
13492.089
13496.875
13047.733
13084.612
12020.75
11837.992
11914.138
11808.056
11895.941
11360.172
11383.099
10536.417
10231.103
10341.312
10309.049
10296.254
9846.9336
9859.8385
9102.9631
8791.0801
8982.4915
8895.0206
8948.3602
8467.6465
8593.2756
7664.1784
7501.0539
7754.3717
7582.3227
7683.2963
7211.1638
7190.7191
6734.9894
6358.861
6570.102
6472.8637
6571.0321
6067.6463
6112.5976
5597.6601
5237.1552
5600.9291
5504.7346
5489.5094
5065.4273
5093.9995
4697.5642
4565.0173
4723.9512
4576.0731
4677.9442
4247.8048
4235.172
4032.926
3685.9874
3938.2941
3919.0222
3899.1207
3436.471
3458.3257
3317.981
3125.6636
3352.3374
3235.2493
3216.368
2875.6222
2846.4916
2829.5825
2645.1033
2808.2926
2786.2021
2784.0064
2337.8132
2344.8341
2446.1461
2194.2812
2413.02
2399.4592
2322.4238
2004.1527
1973.6374
2155.3196
1989.4682
2158.8108
2093.496
1985.1238
1533.8319
1771.7643
1883.9437
1673.2337
1927.4703
1859.7908
1872.6372
2406.4435
1648.1639
2474.7368
1643.882
1981.4234
1682.38
1932.5736
226.11367
1468.7955
1379.124
1555.9429
1701.5736
1609.5356
1551.8062
1686.1712
1522.1134
1901.2915
2033.1467
1975.5455
2017.0953
1790.111
1582.0646
1632.4123
2073.9176
1651.6239
1860.021
1889.5007
1742.0062
1583.5193
1732.541
2260.1226
2210.8221
2371.9536
2242.7239
2141.9504
1824.0805
2064.5513
2708.6934
2539.3963
2472.2537
2695.004
2423.0595
2229.4682
2374.2246
2681.3515
2100.5523
2538.7769
2458.8745
2405.2685
2430.4969
2820.3713
3408.9377
3612.1884
3497.7465
3615.429
3373.491
3402.9901
3185.0896
3956.8765
3022.7896
3400.6044
3199.4508
3173.1603
3173.632
3240.2191
1085.9078
1669.3451
1596.2565
1732.9091
1462.9311
1291.5897
1408.9458
792.12498
-710.13333
-808.38476
-911.14667
-1133.1777
-857.61246
-1021.5629
106361.05
76406.133
70153.414
67773.52
67816.722
62739.076
60483.819
55337.395
51973.409
48013.253
44063.153
40461.077
36880.491
34039.585
30551.453
28968.289
25877.719
23527.168
21468.636
19446.367
17590.481
15900.709
14264.083
12768.009
11465.157
10076.434
9188.8477
7941.6375
7114.0801
6310.8549
5594.2383
5020.0017
4478.603
4104.3437
3738.8368
3674.2605
2475.1308
3618.6216
2931.1812
2883.6941
2980.1477
2910.4376
3078.106
3209.9616
4177.011
5983.2715
8358.645
46653.581
46858.128
37375.619
38438.833
37192.157
33711.083
32745.265
30039.437
28535.966
25570.754
24185.263
21527.25
20068.268
18094.412
16274.15
15315.398
13624.952
12437.077
11456.99
10313.636
9367.6624
8576.9048
7707.7051
7105.0449
6342.0411
5732.0691
5398.6224
4851.931
4509.5901
4139.8511
3886.1169
3735.629
3599.4238
3575.109
3607.9873
3629.5497
3842.0353
4010.7093
4306.0623
4558.7173
5211.6736
5342.6706
6043.7061
6166.1926
7251.2786
5410.6518
9176.0933
16121.353
17742.91
15380.192
16838.539
15401.96
11709.112
13842.588
10764.989
11227.343
9912.0778
9299.9581
9003.2342
7626.6682
8346.0568
7505.3946
6996.485
6396.7079
5807.0696
5547.5747
4892.3242
4606.9408
4199.8357
3875.2907
3501.9313
3235.2824
2829.8299
2847.6137
2396.606
2349.5674
2205.9853
2154.2261
2089.4019
2096.8675
2128.7032
2185.3318
2287.8652
2335.3182
2660.5273
2686.5382
3070.2274
3188.9655
3581.7361
3743.3916
4442.9083
4239.3199
5146.1279
7531.0001
4856.2228
5295.0283
2824.0338
7929.714
3504.3524
5870.8675
2570.3255
2983.6042
3925.0087
2078.209
3583.8521
1670.6638
2632.6119
2341.9538
2413.2059
2528.0692
2099.5231
2062.2648
1928.3723
1764.8924
1620.9063
1602.1274
1357.0787
1473.6697
1309.8764
1472.4033
1380.148
1485.9203
1504.7614
1584.3719
1617.2211
1755.9011
1949.192
2024.32
2353.6583
2497.0264
2909.2367
3147.1762
3617.4155
3738.5764
4548.642
4494.6482
5505.9021
5204.5868
6612.6203
5118.1539
8071.5815
11079.616
2576.2287
5299.4043
4239.4566
4859.0928
5134.7362
5336.904
5263.339
3900.8837
4716.8197
3271.0205
3925.3298
3364.8696
3008.6308
3260.5363
2803.5697
2838.2969
2533.1525
2487.5537
2184.1993
2126.1211
1890.8423
1970.7797
1715.2029
1600.9112
1537.7098
1304.9091
1366.8967
1276.5336
1325.6057
1363.6176
1511.5339
1575.2112
1731.1772
1994.3294
2100.1297
2442.4707
2729.7245
2814.5904
3470.4492
3549.5352
4131.7964
4341.5204
5034.0853
4978.1821
5485.9635
6876.0731
27156.166
21435.184
15886.977
21309.87
16451.724
19948.098
17644.472
16300.745
17737.218
16078.638
17836.749
15476.305
15015.544
13655.516
12512.794
11465.077
10167.796
9249.2035
8197.1972
7470.8176
6616.8892
6004.3322
5403.7346
4575.2568
3973.0471
3608.9967
3374.6613
3054.8206
2896.3749
2761.8655
2692.9213
2622.7782
2693.4483
2721.3126
2917.2259
2879.0649
3327.872
3161.6898
3887.4728
3785.2361
4337.4426
4438.7683
5050.1699
5134.1103
5936.3912
6029.9814
6825.3167
80196.517
44879.973
52149.083
44219.089
47306.032
45217.635
42048.615
42329.872
36749.844
36007.578
30684.895
30328.462
26340.465
23817.787
21600.23
19044.163
17555.585
15601.463
14140.816
12615.842
11222.582
9762.2001
8678.3811
7017.808
7787.5032
5622.2367
5103.5329
4690.3443
4159.3229
3815.0199
3486.8767
3290.5644
3107.4477
3035.2131
2907.1779
2791.1228
3266.4215
3391.4742
3468.8962
3754.8099
4111.147
4461.9288
4916.8415
5569.209
5783.3272
7194.0103
5487.2299
83266.808
70812.364
69499.761
68326.766
68944.197
68822.469
70653.798
72940.739
74760.054
70322.383
70019.397
69247.361
70586.647
71104
66726.923
70600.456
70396.17
69675.22
69509.702
69252.172
68192.233
63953.127
65675.545
65822.31
66079.985
65285.556
64899.319
63132.306
60466.33
62504.984
63099.558
63109.014
62753.107
62679.039
61391.838
56688.479
57117.386
56968.469
57232.381
56655.733
56464.304
56523.49
53539.288
53949.982
53863.669
53535.757
53326.935
53750.138
53863.248
49093.191
48967.849
48643.678
48667.596
48437.34
48454.713
49083.566
45869.367
46021.297
45225.876
45231.18
44821.626
45522.456
46257.163
41932.917
41673.024
41286.742
41119.744
40865.344
41462.047
42109.107
38643.706
38658.356
38066.758
37813.517
37958.398
38142.787
39226.464
35443.741
35003.517
34849.588
34655.459
34576.472
34984.903
35910.611
32552.034
32335.599
31839.225
31557.244
31921.612
31897.762
32561.264
29523.097
29395.026
29249.265
29036.422
29212.574
29322.615
30382.817
26977.712
27008.314
26375.547
26439.4
26434.173
27112.641
27281.326
24589.133
24636.892
24226.783
24274.076
24295.09
24396.576
25052.181
22270.671
22345.961
22044.375
21869.868
22136.4
22478.148
23075.443
20132.422
20259.264
20035.49
19907.377
20170.006
20450.562
20802.457
18206.71
18296.266
18159.806
18076.62
18378.097
18568.002
19052.79
16444.542
16511.896
16428.617
16419.398
16589.337
16873.204
17313.344
14845.138
14791.499
14858.214
14809.398
15051.954
15326.117
15697.866
13411.351
13302.937
13404.083
13389.221
13612.962
13854.587
14187.567
12097.845
11865.477
12114.48
12084.917
12222.819
12428.983
12840.322
10904.854
10601.68
11000.332
10841.561
10957.735
11261.531
11539.59
9706.1259
9421.2309
9671.3473
9755.0649
9742.3009
9999.8647
10378.897
8550.5113
8363.28
8772.488
8711.0253
8663.9082
9059.592
9105.3898
7695.8367
7419.532
7663.484
7768.4859
7675.036
8081.2368
8213.0798
6897.0078
6614.7423
6854.377
6956.3708
6900.1428
7196.452
7324.0121
6059.0414
5799.9056
6217.7621
6149.9036
6155.4995
6449.1572
6516.6305
5445.9404
5210.3822
5536.9601
5534.8852
5517.8028
5801.5543
5823.9885
4912.8526
4668.1992
4982.6497
5018.9608
4962.5665
5254.6804
5228.4107
4452.4012
4212.6671
4578.3419
4559.1073
4512.0664
4803.8322
4699.1261
4101.4227
3940.8634
4169.9745
4221.1518
4150.5987
4396.8764
4336.0106
3850.132
3584.129
3928.9181
3929.3654
3870.7365
4170.044
3999.6922
3578.5326
3551.8925
3714.8523
3768.1034
3748.0309
3861.7559
3721.2761
3613.3152
3337.6789
3580.2528
3630.7476
3483.3083
3563.3539
3510.2073
3173.258
3248.7431
3539.2177
3431.7123
3576.3149
3717.9979
3783.9947
3687.9336
3246.773
3612.4734
3702.5125
3426.5297
3640.8714
3334.2033
3074.0283
3328.0398
3380.3087
3485.9496
3610.137
3629.8778
3598.8963
3800.9716
3514.6616
3693.2813
3739.4858
3543.0145
3743.2186
3322.9504
3381.0989
3476.1683
3598.4079
3704.4988
3760.3764
3820.9282
3529.0122
3747.8327
3693.3319
3739.6236
3897.5078
3610.919
3878.6757
3559.8276
4416.4297
4155.1028
4363.9972
4345.3224
4418.158
4428.1266
3824.3004
3802.6992
4015.2467
3907.1952
4312.4008
3888.1991
3972.854
3684.6814
5164.3657
4648.7203
5295.2554
5173.3678
5187.013
5331.606
4766.9118
6112.3169
6946.5259
6705.9254
6974.9781
6797.0349
6876.7896
6658.078
7862.0667
6866.3396
7840.635
7562.0965
7752.258
7558.0751
7814.26
37176.816
29751.069
27507.129
26612.42
26529.003
26725.916
28863.455
39167.177
42105.424
40242.726
40191.273
40194.514
40166.9
40946.527
36191.274
37240.463
37901.786
37239.011
37330.305
36026.961
35479.822
35354.853
36844.976
37662.804
37539.814
37047.281
36278.491
34810.017
32832.299
33349.205
33914.939
33597.813
33668.827
32859.693
32382.503
31270.223
31488.166
30805.326
30681.814
30372.804
29978.463
29953.606
28484.786
28826.145
28746.881
28544.276
28467.166
28386.384
28194.304
26906.275
26844.314
26025.068
25758.94
25774.647
25484.809
25909.615
24804.677
24812.191
24349.634
24059.295
23960.29
24122.154
24334.923
23085.318
22652.599
22155.238
21733.695
22070.892
21883.799
22058.557
21172.3
21081.864
20516.312
20319.837
20292.156
20416.406
20478.121
19576.578
19260.013
18732.845
18392.476
18449.272
18368.74
18438.796
17977.032
17663.405
17283.602
17193.571
16989.892
17142.787
17060.465
16605.461
16123.984
15841.838
15455.825
15535.5
15336.135
15659.272
15389.692
14898.596
14497.532
14250.051
14387.683
13911.858
14200.085
14058.721
13423.084
13224.595
13064.165
13094.734
12788.481
12958.448
12831.721
12400.483
11978.979
11932.136
11897.336
11713.759
11941.162
11732.771
11251.616
10863.835
11011.531
10853.385
10682.854
10666.844
10692.363
10270.529
9944.0529
9964.3485
9912.0474
9677.5965
9857.8671
9702.7561
9357.2383
8993.148
9104.6751
8963.036
8830.3446
8954.0963
8723.3461
8453.2924
8210.0937
8234.0113
8144.5789
8058.1143
8062.2481
7839.1695
7721.3408
7452.6222
7511.1221
7431.8445
7269.1805
7354.279
7090.2299
6873.0792
6699.8137
6765.548
6594.8224
6623.4203
6641.2657
6378.3647
6160.394
6102.8343
5979.0615
6056.4723
6159.9305
6073.2689
5760.0371
5552.169
5503.1615
5319.2734
5503.0833
5426.7497
5367.4866
5278.2354
4989.6719
4925.6199
5020.3454
4753.9847
5153.0326
5039.1444
4536.0242
4801.4978
4618.6968
4365.7618
4686.978
4709.6086
4639.5705
4453.9289
4185.0563
3991.9014
4036.8633
4144.4705
4293.8686
4194.9169
4059.0072
3728.9684
4000.6305
3666.2802
3823.7356
4017.0543
3792.6785
3859.2102
3630.8495
3625.3517
3417.2814
3596.0289
3724.3926
3544.7397
3631.0322
3293.5912
3468.403
3255.498
3371.2759
3537.3998
3321.5819
3503.0254
3255.6645
3366.7497
3129.7473
3215.968
3416.7737
3187.2614
3441.0571
3138.8909
3259.6044
3028.5912
3171.5044
3358.054
3116.3718
3420.5787
3165.2868
3271.3326
3087.9829
3166.9643
3313.5263
3066.7516
3534.0782
3223.0944
3292.4461
3137.2429
3123.2318
3328.2786
3184.6632
3475.8773
3180.456
3391.4696
3185.5061
3266.2763
3562.5511
3348.1456
3908.121
3771.9562
3608.1952
3520.8821
3426.5393
3636.9722
3318.5484
3912.8468
3191.9532
3753.3812
3360.133
3647.5018
3784.9096
3664.1169
4498.2491
4289.8474
4248.4181
4038.5913
3937.8433
4182.4042
3953.1191
4471.0606
3738.2219
4221.0796
3910.0677
4075.8421
4320.9361
4073.875
4884.2839
4803.8009
4838.6383
4682.365
4626.9716
4769.1123
4649.1035
5376.0858
4667.5423
5035.8539
4701.0756
4729.5177
4994.9216
4792.5816
5389.9954
5275.5737
5431.4148
5305.809
5437.1433
5597.8632
5385.8643
5575.5179
5176.4775
5495.6964
5274.7287
5105.1701
5307.2437
5255.8266
6997.8251
6798.7231
6865.0182
6562.2505
6701.179
7229.3468
7107.6743
5367.9026
5036.0697
5344.0565
5079.9458
4984.3314
5146.5331
4457.6787
9122.7557
8203.1564
8250.361
7896.8804
8032.7919
7819.6949
8378.186
13977.196
11113.789
9843.3063
9514.606
9011.7362
9302.8776
9376.7904
13035.384
14892.923
14374.619
14558.667
14320.427
13930.835
14117.58
14824.132
15155.029
14991.115
15306.82
14876.002
14523.109
13894.608
13158.662
14525.062
15605.699
16032.821
15382.85
15387.873
14112.37
13645.042
14011.492
13826.724
13797.776
13488.114
13056.035
13576.229
12259.796
11217.188
11333.036
12265.963
11496.358
11323.966
11417.07
12965.958
11391.66
11783.89
11846.291
11589.056
12397.836
11949.116
11852.772
10181.63
9752.81
9483.9621
9461.663
9724.4453
9620.9032
10980.922
9357.0026
9549.4279
9562.5189
9470.1146
10116.382
9948.0038
10159.633
8537.2602
8349.4333
8202.2744
8138.0282
8644.8943
8730.0746
9391.1404
7835.2613
7858.4928
7657.0392
7572.6781
7906.3957
7933.015
8707.659
6851.5566
6949.4566
6943.388
7177.4123
7480.3472
7958.8771
7775.6923
6199.4738
6585.1903
6283.0857
6454.945
6556.5059
7021.2676
6923.3598
6040.3333
5870.618
5735.6585
6038.6719
6119.6279
6503.4278
5676.7334
5388.0367
5510.0716
5363.6897
5208.1389
5717.1873
6159.0605
5113.0412
4839.8296
5010.73
4844.9026
4948.1908
5127.0674
5688.8348
4732.6616
4389.2442
4659.8701
4460.9525
4393.37
4758.5932
5336.6706
4230.1578
3934.9993
4258.4002
4030.0846
4073.1563
4377.3168
4755.138
3925.3262
3622.6567
3917.6318
3719.4313
3721.6807
4003.659
4594.4856
3505.4202
3190.1262
3516.4407
3372.4824
3360.7864
3702.9266
4126.9677
3265.2218
2975.207
3257.4814
3125.8917
3202.4048
3416.6891
3903.7675
2970.0137
2684.3233
2923.5239
2824.5899
2811.6322
3118.2015
3574.6127
2748.6408
2485.7082
2767.6512
2503.692
2722.8776
2935.8988
3402.7815
2659.0249
2324.4623
2582.1958
2440.5236
2589.8205
2610.169
2953.6634
2504.6272
2069.2516
2458.8714
2296.5901
2473.7213
2353.1458
2948.7451
2317.9886
1998.8567
2383.1003
2043.8741
2418.4361
2183.8756
2571.5632
2294.9304
1844.2346
2091.7271
1924.0195
2317.2069
1924.649
2443.7811
2003.6601
1762.2397
2108.3915
1926.526
2101.38
1894.641
2243.4823
2076.1055
1703.065
2035.8867
1734.5068
2168.6037
1815.8437
2134.0412
2001.6962
1704.6065
1847.554
1778.8073
2041.9112
1695.7627
2068.6941
1954.3849
1596.3655
1964.116
1774.341
2052.5626
1772.9685
2034.2968
2024.9351
1713.7089
1987.8005
1734.0583
2079.7253
1740.068
2014.2549
2048.4328
1750.5459
2009.2787
1847.5803
2158.4969
1813.047
2037.7567
2230.687
1875.9022
2154.7185
1947.3481
2216.5333
1869.3932
2192.4786
2265.293
1927.9775
2273.6204
2049.7104
2356.8946
2139.9531
2232.9813
2596.2338
2334.8042
2575.9279
2251.0582
2660.4879
2155.3342
2432.7739
2605.4599
2236.8012
2503.4906
2431.8534
2688.4222
2397.4175
2582.7407
3038.2575
2748.5652
3118.8625
2738.0831
3110.2069
2641.3071
2866.7225
2929.4527
3006.5909
2934.8403
2939.7455
3155.7138
2853.4628
3090.7276
3562.9477
3098.8872
3486.0728
3235.7034
3621.5958
3251.2715
3391.4732
3665.5152
3838.1314
3684.9143
3697.0915
3745.1369
3434.5002
3566.0445
4018.397
3599.7797
3862.7803
3731.8937
3987.5165
3867.4137
4041.8722
4342.3485
4458.9179
4323.1208
4352.8486
4391.2496
4190.3056
4072.7299
4954.56
4759.0744
4788.7018
4784.3503
4796.4165
4652.4815
4849.1448
5424.7165
5222.332
5115.0162
5203.2461
5154.3118
5351.3303
4938.2804
5515.9213
5566.9421
5874.9127
5870.6821
6014.6333
5893.4959
5270.1445
7938.8952
7074.3312
7095.7268
6682.3023
7088.7322
6533.5668
6871.3379
4574.5126
3945.7869
3474.8911
3379.4885
3025.5742
2760.4418
1650.5898
3673.2211
6153.9937
6622.3652
7067.5561
6873.0613
6014.8818
5235.6597
4242.0414
4692.9008
4527.5861
4771.9953
4589.7014
4042.3234
2860.2106
4537.5509
7010.1316
8602.0078
9353.0781
9228.2489
8404.2728
7152.4221
4341.5357
4479.9783
3380.9427
3034.0906
2825.415
2749.564
2836.1553
4406.0658
5307.667
5335.5687
5997.9598
6140.8177
6360.5895
5450.2507
4152.6845
3895.3549
3601.1276
3713.8988
3525.8558
3014.2696
3999.7089
4627.6029
4042.5076
3456.8173
3706.0941
3327.1556
3583.9241
3729.4628
4085.3728
3869.8472
3608.4883
3601.9376
4009.4511
3537.5949
4527.4144
4138.7271
3969.8535
2623.1219
2917.8078
2460.6594
2348.8487
2722.5877
3570.542
3377.5732
3292.5989
3125.5352
3761.2147
3446.9421
4185.6397
3517.3821
3670.6939
2520.2812
2457.0099
2646.509
2293.8427
2691.9443
3326.3757
3238.0729
2397.8173
2744.6886
3007.8724
2429.2829
2929.6064
3205.6258
3603.0461
2095.7525
2425.6186
2416.4555
2538.4192
2432.8334
2752.8757
3041.4437
2706.1479
2118.7454
2516.9159
2144.7015
2292.6424
2619.5358
2817.8528
2293.9291
1974.3119
2249.1976
2215.5795
2161.6393
2298.7923
2570.8006
2290.7808
1828.8816
2217.5535
1925.557
2050.6897
2194.0733
2461.5724
2056.8309
1709.9912
2023.1286
1933.4647
1932.8777
1955.8833
2193.4074
1974.3628
1547.5119
1976.4971
1728.2843
1803.5237
1940.0694
2171.7034
1790.9732
1479.1273
1825.6631
1631.1838
1731.4591
1957.292
1860.0056
1750.015
1411.7884
1680.8929
1543.7513
1583.8874
1979.1483
1847.2426
1639.6934
1260.7259
1601.5256
1445.9047
1550.1568
2094.5134
1709.6506
1373.6462
1380.9716
1538.6532
1374.8659
1354.4123
2054.4941
1410.2152
1376.5759
1218.5509
1366.7221
1306.1553
1517.6536
2005.2542
1344.4589
1399.8754
982.23667
1218.758
1293.565
1352.7052
2081.0057
1204.561
1204.8232
1004.8867
1094.6514
1217.6139
1370.6278
1967.9066
1095.033
1204.6088
1042.1288
993.08111
1208.7656
1297.4549
1997.2424
1113.8224
1346.7914
948.23523
1163.9357
1182.9092
1422.4687
1971.4017
1148.4923
1142.0551
1082.3919
976.26843
1188.7944
1385.0646
1948.3833
1186.7607
1337.9181
1122.8359
1134.5572
1309.0746
1453.2614
2020.8298
1300.887
1331.4272
1223.3414
1179.4998
1358.12
1540.3823
2121.9035
1454.9437
1507.6823
1368.7776
1276.4216
1487.8948
1577.6762
2209.2016
1557.987
1590.7543
1467.4838
1469.0506
1654.813
1838.7117
2362.5118
1758.7972
1805.7095
1746.4581
1641.7557
1849.447
1930.6733
2590.0805
2032.3349
2059.9221
1920.2879
1881.7491
2052.4242
2186.287
2654.921
2168.9275
2119.0759
2160.8778
2089.9147
2234.3469
2419.5853
3174.0574
2602.395
2617.9357
2606.1453
2338.6764
2665.7846
2699.3256
3038.3052
2672.6422
2771.9258
2594.3991
2648.1074
2771.4689
2986.3127
3683.7415
3292.6262
3199.8348
3287.1416
3048.6594
3372.1575
3423.7676
3757.7756
3263.5435
3533.936
3297.5502
3302.3455
3404.4605
3506.1983
4169.872
4051.36
3977.7306
4054.7326
3799.9313
4129.0263
4186.5757
4615.9483
3898.5152
4257.3045
3936.7254
4018.1635
4182.4149
4248.7518
5049.742
5039.7263
5050.1067
5094.5861
4975.2952
5198.5549
5065.8581
5280.5127