/*--------------------------------*- C++ -*----------------------------------*\
  =========                 |
  \\      /  F ield         | OpenFOAM: The Open Source CFD Toolbox
   \\    /   O peration     | Website:  https://openfoam.org
    \\  /    A nd           | Version:  6
     \\/     M anipulation  |
\*---------------------------------------------------------------------------*/
FoamFile
{
    version     2.0;
    format      ascii;
    class       pointVectorField;
    location    "0.57";
    object      u;
}
// * * * * * * * * * * * * * * * * * * * * * * * * * * * * * * * * * * * * * //

dimensions      [0 1 0 0 0 0 0];

internalField   nonuniform List<vector> 
28033
(
(0 2.5208548e-19 0)
(0 1.7262061e-18 0)
(1.8380626 -0.1158699 0.0058173242)
(1.7402107 -0.54722918 0.0044710775)
(0 1.558973e-18 0)
(0 2.5391073e-18 0)
(1.7405901 -0.54874017 0.0046965766)
(1.8383363 -0.11758028 0.0055800982)
(0 5.4583878e-19 0)
(0 1.5762141e-19 0)
(0 1.2591073e-18 0)
(0 -5.9776762e-19 0)
(0 8.0523215e-19 0)
(0 -4.7720366e-19 0)
(0 -1.1530974e-20 0)
(-3.8462995e-19 -1.254728e-19 0)
(0 2.3599109e-19 0)
(0 1.1743991e-19 0)
(0 -4.5196509e-19 0)
(0 4.3759403e-19 0)
(0 5.2328611e-19 0)
(0 -4.1970677e-19 0)
(0 5.3361133e-19 0)
(1.8319228 -0.14288145 0.0057028543)
(1.8257693 -0.16987214 0.0055915577)
(1.8196236 -0.19685103 0.0055022334)
(1.8134817 -0.22380515 0.005412938)
(1.8073513 -0.25074618 0.0053441725)
(1.8012278 -0.27768432 0.0052727867)
(1.7951125 -0.30460582 0.0052113631)
(1.7890099 -0.33153575 0.0051480636)
(1.7829104 -0.35846307 0.0050858426)
(1.776818 -0.38539806 0.0050210235)
(1.7707295 -0.41234417 0.0049503941)
(1.7646376 -0.43929937 0.0048690562)
(1.7585494 -0.46626855 0.0047895857)
(1.7524511 -0.49325512 0.0046920073)
(1.7463386 -0.52024919 0.0045875507)
(0.0039658214 0.0062255239 0.0069615958)
(0.0046547649 0.0098863932 0.0096260535)
(0.005985051 0.013643254 0.011603306)
(0.0080009974 0.017540809 0.012864402)
(0.01043792 0.02152652 0.01363923)
(0.013653973 0.025569878 0.014165456)
(0.017431717 0.02968441 0.014469889)
(0.021888765 0.033667345 0.014599252)
(0.026917155 0.037755361 0.014650883)
(0.032592077 0.04165216 0.014627324)
(0.038788667 0.045564469 0.014544599)
(0.045588818 0.049319046 0.014406874)
(0.052898491 0.053035849 0.014311817)
(0.060809593 0.056597183 0.014124382)
(0.069159588 0.060069247 0.014000978)
(0.078077726 0.063398439 0.013801364)
(0.08746345 0.066644947 0.013678164)
(0.097368888 0.069713114 0.01349925)
(0.10771418 0.072701999 0.013357955)
(0.11856143 0.07552999 0.013190074)
(0.12983995 0.078253605 0.013072248)
(0.14159543 0.080831122 0.012909476)
(0.15377577 0.083289613 0.012807789)
(0.16641509 0.085628714 0.012678172)
(0.17946331 0.087825902 0.012575109)
(0.19295469 0.089915868 0.012475711)
(0.20685165 0.091859059 0.012402578)
(0.22118211 0.093711029 0.012322221)
(0.23591677 0.095403612 0.012260272)
(0.25105922 0.096987981 0.012216837)
(0.26662862 0.098456525 0.012169785)
(0.2825834 0.099779808 0.012134069)
(0.2989539 0.10098447 0.012115847)
(0.31573041 0.1020364 0.012093204)
(0.33290969 0.10297602 0.012070665)
(0.35049748 0.10375748 0.012049645)
(0.36846979 0.10439802 0.012034058)
(0.38685968 0.10489142 0.012007308)
(0.40562634 0.10522108 0.01196311)
(0.42479265 0.10540056 0.011921714)
(0.44433629 0.1054029 0.011859358)
(0.4642621 0.10525294 0.011789086)
(0.48455871 0.10491799 0.011695686)
(0.50522048 0.10441719 0.011593813)
(0.52623052 0.10373213 0.011471237)
(0.54758875 0.10287501 0.011336577)
(0.56927229 0.10183617 0.011187946)
(0.59128264 0.10062139 0.011027368)
(0.61359455 0.099229417 0.010858628)
(0.63620911 0.097662945 0.010682833)
(0.65910342 0.095924289 0.010503428)
(0.68227568 0.094014926 0.01032257)
(0.70570848 0.091939117 0.010142593)
(0.72939663 0.089696809 0.0099651355)
(0.75332852 0.087292712 0.0097913413)
(0.77749689 0.08472596 0.0096221382)
(0.80189379 0.081999834 0.0094569479)
(0.82651186 0.079113388 0.0092956703)
(0.85134397 0.076068436 0.0091367543)
(0.87638332 0.072863197 0.0089789207)
(0.9016222 0.069499325 0.0088202144)
(0.92705383 0.065974856 0.0086584753)
(0.95266727 0.062292452 0.00849313)
(0.97845952 0.058446525 0.0083189549)
(1.0044095 0.054450841 0.0081432043)
(1.0305211 0.050291222 0.0079519605)
(1.0567644 0.045980239 0.0077624127)
(1.0831412 0.041521945 0.0075622214)
(1.1096312 0.036921452 0.0073503897)
(1.1362269 0.032183811 0.0071430091)
(1.162905 0.027317605 0.0069367457)
(1.1896621 0.022331814 0.0067315887)
(1.2164803 0.017236422 0.006534266)
(1.2433495 0.012037215 0.0063477516)
(1.2702604 0.0067494454 0.0061745438)
(1.2972009 0.001374594 0.0060193512)
(1.3241667 -0.004069332 0.0058825202)
(1.3511503 -0.0095837478 0.0057672481)
(1.3781475 -0.015150886 0.0056726254)
(1.4051559 -0.020777349 0.0056019475)
(1.432176 -0.026445195 0.0055462715)
(1.4592013 -0.032160558 0.0055165662)
(1.4862408 -0.037917249 0.005497756)
(1.5132822 -0.043710737 0.0054979343)
(1.5403424 -0.049541796 0.0055060408)
(1.5674071 -0.055412356 0.0055228867)
(1.5944857 -0.061324992 0.0055461326)
(1.6215686 -0.067262274 0.0055704025)
(1.6486592 -0.073254841 0.0055996315)
(1.6757488 -0.079254202 0.0056239805)
(1.7028377 -0.085320183 0.0056564484)
(1.729915 -0.09137425 0.0056801167)
(1.7569814 -0.097493176 0.0057160933)
(1.7840232 -0.10359652 0.0057481603)
(1.8110497 -0.10972912 0.0057851859)
(0.0018729507 -0.0074217035 -0.0087044093)
(0.0034486424 -0.010148654 -0.010115982)
(0.0043989057 -0.014115032 -0.013146205)
(0.0055306247 -0.017367435 -0.014177526)
(0.0078341469 -0.021389535 -0.015273469)
(0.010474837 -0.025560258 -0.015782565)
(0.013764426 -0.029447906 -0.016160719)
(0.017665701 -0.033777051 -0.016233747)
(0.022208524 -0.037984106 -0.016267429)
(0.027187955 -0.042244847 -0.016154556)
(0.032813477 -0.046593621 -0.01600077)
(0.038844814 -0.050895656 -0.015800876)
(0.045468484 -0.055291669 -0.015550012)
(0.05250121 -0.059671433 -0.015335259)
(0.060046906 -0.064061495 -0.015055156)
(0.068022437 -0.068515737 -0.014832799)
(0.076448262 -0.072909657 -0.014568622)
(0.085323587 -0.077412893 -0.014331256)
(0.094607703 -0.081874577 -0.014109446)
(0.10433532 -0.086390628 -0.013894798)
(0.11445261 -0.090913381 -0.01367589)
(0.12500036 -0.095501409 -0.013509967)
(0.13590515 -0.1000503 -0.013319426)
(0.14725805 -0.10472376 -0.013161568)
(0.15894038 -0.10935249 -0.013019931)
(0.17107478 -0.11408785 -0.012859448)
(0.18352989 -0.11882952 -0.012759472)
(0.19642538 -0.12364014 -0.012607588)
(0.20964946 -0.12850021 -0.012519417)
(0.22329532 -0.1334087 -0.012374411)
(0.23728791 -0.1384038 -0.012275388)
(0.25168551 -0.14343932 -0.012142601)
(0.26644301 -0.14856357 -0.012022671)
(0.28160126 -0.15375002 -0.011877115)
(0.29712821 -0.15902033 -0.011731857)
(0.31304479 -0.16435783 -0.011571175)
(0.32933988 -0.16977349 -0.011378516)
(0.34602458 -0.17528734 -0.011187036)
(0.36308254 -0.18085844 -0.010969058)
(0.38052892 -0.18652422 -0.010736685)
(0.39834614 -0.19226106 -0.010486742)
(0.41653822 -0.1980741 -0.010223396)
(0.43509558 -0.2039605 -0.0099456819)
(0.45401437 -0.20991502 -0.0096593914)
(0.47328441 -0.21593554 -0.0093648435)
(0.49290143 -0.22201725 -0.00906567)
(0.5128522 -0.22815667 -0.0087655225)
(0.53313228 -0.23434939 -0.0084652427)
(0.55372897 -0.24059287 -0.0081688344)
(0.57463564 -0.24688211 -0.0078766292)
(0.59584254 -0.25321652 -0.0075903697)
(0.61734207 -0.25959189 -0.0073102201)
(0.63912651 -0.26600759 -0.0070356652)
(0.66118963 -0.27246207 -0.0067657858)
(0.6835249 -0.27895429 -0.0064986187)
(0.70612764 -0.28548347 -0.006232107)
(0.72899292 -0.29204997 -0.0059631205)
(0.75211654 -0.29865176 -0.0056892971)
(0.77549431 -0.30528954 -0.0054072053)
(0.79912227 -0.31196095 -0.0051146112)
(0.82299535 -0.31866498 -0.0048088826)
(0.84710851 -0.32539817 -0.0044891155)
(0.87145521 -0.33215865 -0.0041536941)
(0.89602819 -0.33894048 -0.0038037714)
(0.92081805 -0.34574057 -0.0034398403)
(0.94581576 -0.35255215 -0.0030641421)
(0.97100863 -0.35937034 -0.0026802244)
(0.99638595 -0.36618916 -0.0022896127)
(1.0219336 -0.37299749 -0.0019008042)
(1.0476347 -0.37979018 -0.0015096667)
(1.0734758 -0.38657325 -0.0011312527)
(1.0994466 -0.39332212 -0.00076117999)
(1.1255296 -0.40005271 -0.00040607056)
(1.1517122 -0.40674411 -6.92492e-05)
(1.1779829 -0.41340754 0.00024912122)
(1.2043297 -0.42003351 0.00054554798)
(1.2307443 -0.42662666 0.00082230667)
(1.257219 -0.43318645 0.0010785223)
(1.2837458 -0.43971456 0.0013168111)
(1.3103223 -0.44621374 0.0015379253)
(1.3369431 -0.45268736 0.0017466142)
(1.3636066 -0.45913528 0.0019431442)
(1.3903119 -0.46556481 0.002134097)
(1.4170565 -0.47197225 0.0023180974)
(1.4438411 -0.47836486 0.0025023625)
(1.4706634 -0.48473786 0.0026842515)
(1.4975228 -0.49109646 0.0028696602)
(1.5244164 -0.49743443 0.0030549307)
(1.5513414 -0.50375513 0.0032436647)
(1.5782929 -0.51005161 0.0034316247)
(1.6052659 -0.51632461 0.0036196448)
(1.6322536 -0.5225682 0.0038032023)
(1.6592487 -0.52878209 0.0039821077)
(1.6862436 -0.53496351 0.0041525524)
(1.7132348 -0.54111069 0.0043154744)
(0 -6.8590858e-19 0)
(0 -5.0084892e-19 0)
(0 4.6913607e-19 0)
(0 -2.9644359e-19 0)
(0 -2.552663e-19 0)
(0 1.4264974e-18 0)
(0 -4.2350664e-19 0)
(-9.8605648e-19 2.7562775e-19 0)
(0 -2.5191348e-19 0)
(0 6.1371313e-19 0)
(0 7.3348067e-19 0)
(0 2.5655049e-19 0)
(0 1.3579522e-19 0)
(0 -2.7658904e-19 0)
(0 1.8801045e-19 0)
(0.0041331593 -0.0031142609 0.0063263343)
(0.0044121581 -0.011833871 0.010022194)
(0.0043222369 -0.012458594 0.011988502)
(0.0061530555 -0.018338819 0.01402866)
(0.007875355 -0.02116957 0.014898499)
(0.010837655 -0.025719894 0.015376022)
(0.013976708 -0.029490861 0.015711436)
(0.018097279 -0.034056277 0.01585128)
(0.022485262 -0.038000963 0.01584871)
(0.027584653 -0.042566892 0.015758607)
(0.033202335 -0.046787721 0.015708186)
(0.039162348 -0.051087318 0.015485499)
(0.04585251 -0.055636286 0.015397499)
(0.052748359 -0.059797127 0.015136904)
(0.060412144 -0.064529904 0.015039167)
(0.068248127 -0.068640273 0.014808677)
(0.07672448 -0.073340223 0.014695579)
(0.085532128 -0.077566622 0.014442363)
(0.094833228 -0.082248384 0.014338071)
(0.10455998 -0.08662825 0.014121143)
(0.11464739 -0.0912263 0.014015846)
(0.12522903 -0.095769224 0.01382626)
(0.13614127 -0.10039009 0.013715275)
(0.14751866 -0.10504497 0.013571313)
(0.15923148 -0.10969152 0.0134419)
(0.17139143 -0.11447892 0.013333711)
(0.1838823 -0.11918737 0.013207642)
(0.19680811 -0.12410595 0.013118889)
(0.2100691 -0.12892382 0.013014955)
(0.22373851 -0.13394793 0.012937906)
(0.23777126 -0.13893628 0.012859856)
(0.25218268 -0.14404003 0.012790254)
(0.26696825 -0.14919024 0.012724242)
(0.2821311 -0.15442911 0.012661652)
(0.29767606 -0.1597276 0.012604978)
(0.31357437 -0.16507678 0.012538215)
(0.32987244 -0.17056637 0.012480272)
(0.34654445 -0.17607351 0.012414994)
(0.36358644 -0.18166987 0.012339315)
(0.38101212 -0.18734076 0.01225276)
(0.39880797 -0.19308034 0.012156948)
(0.41697734 -0.19889141 0.012046047)
(0.43551499 -0.20476923 0.011920957)
(0.45441585 -0.21071396 0.011781043)
(0.47367379 -0.21672143 0.011625917)
(0.49328273 -0.22279156 0.011456571)
(0.51323369 -0.22891963 0.011273722)
(0.53351913 -0.23510591 0.011079519)
(0.55412885 -0.24134584 0.010875989)
(0.57505432 -0.24763933 0.010665316)
(0.59628518 -0.25398291 0.010450594)
(0.61781324 -0.26037563 0.010232926)
(0.63962882 -0.26681563 0.010016292)
(0.66172431 -0.27330045 0.0098004782)
(0.68409164 -0.27983013 0.0095890106)
(0.70672466 -0.28640052 0.0093805599)
(0.72961633 -0.29301226 0.009177662)
(0.75276217 -0.29966106 0.0089780026)
(0.77615604 -0.30634579 0.0087825196)
(0.79979397 -0.31306297 0.0085890713)
(0.82367005 -0.31980932 0.0083969465)
(0.84777988 -0.32658096 0.008204409)
(0.87211647 -0.33337395 0.0080106516)
(0.89667393 -0.34018244 0.0078142832)
(0.92144342 -0.34700243 0.0076150081)
(0.94641682 -0.35382837 0.0074125861)
(0.97158327 -0.3606501 0.0072068353)
(0.9969328 -0.36748033 0.0070025742)
(1.022453 -0.37427477 0.0067962499)
(1.0481161 -0.38107857 0.0065915043)
(1.0739403 -0.38784849 0.0063921335)
(1.0998814 -0.39459633 0.0062024924)
(1.125944 -0.40131746 0.0060180541)
(1.1521069 -0.40801058 0.0058484228)
(1.1783611 -0.41467275 0.0056910616)
(1.2046949 -0.42130469 0.0055493836)
(1.2310992 -0.42790656 0.0054233893)
(1.2575659 -0.43447979 0.0053142079)
(1.2840881 -0.44102501 0.0052205431)
(1.3106615 -0.44754524 0.0051422437)
(1.3372814 -0.45404112 0.0050769373)
(1.3639465 -0.46051592 0.0050234995)
(1.3906537 -0.46696948 0.0049787507)
(1.4174034 -0.4734047 0.0049414056)
(1.4441927 -0.47982015 0.0049082551)
(1.4710222 -0.48621728 0.004878366)
(1.4978883 -0.49259367 0.0048493485)
(1.52479 -0.49894875 0.0048212705)
(1.5517219 -0.5052797 0.0047931564)
(1.5786809 -0.51158364 0.0047660478)
(1.6056588 -0.51785868 0.0047411045)
(1.63265 -0.52410004 0.0047197925)
(1.6596452 -0.53030897 0.0047048049)
(1.6866373 -0.53647952 0.0046964894)
(1.7136164 -0.54262261 0.0046974073)
(1.7467108 -0.52176438 0.0047232691)
(1.7528164 -0.4947828 0.004751136)
(1.7589099 -0.46781354 0.0047972466)
(1.7649872 -0.44086252 0.0048570735)
(1.7710705 -0.41393423 0.004928221)
(1.7771402 -0.38700805 0.0050068018)
(1.7832221 -0.36010655 0.0050927177)
(1.7893054 -0.33319082 0.0051813598)
(1.7954043 -0.30629571 0.0052595345)
(1.8014963 -0.27937463 0.0053452898)
(1.8076209 -0.25246726 0.0054120521)
(1.8137375 -0.22551681 0.0054771714)
(1.8198906 -0.19858495 0.0055187374)
(1.8260296 -0.17158779 0.0055545333)
(1.8321925 -0.14460025 0.0055688029)
(1.8113202 -0.11143838 0.0054174671)
(1.784282 -0.10530474 0.0052609933)
(1.7572293 -0.099180006 0.0050916865)
(1.7301428 -0.093063668 0.0049131339)
(1.7030427 -0.086966925 0.0047203731)
(1.6759292 -0.080892169 0.0045277509)
(1.6488117 -0.074844813 0.0043281955)
(1.6216971 -0.068827574 0.0041313249)
(1.5945889 -0.062844788 0.0039361217)
(1.5674944 -0.05689747 0.0037437114)
(1.5404129 -0.050987579 0.0035548219)
(1.5133493 -0.045119277 0.0033699458)
(1.4863023 -0.039290427 0.0031846741)
(1.4592689 -0.033504854 0.0029965171)
(1.4322555 -0.027768178 0.0028058951)
(1.405258 -0.022079495 0.0026092206)
(1.3782763 -0.016445159 0.0024032654)
(1.3513098 -0.010869141 0.002184537)
(1.3243614 -0.0053556028 0.0019504749)
(1.2974318 8.7145479e-05 0.0016996732)
(1.2705269 0.0054548759 0.0014299854)
(1.2436508 0.010738003 0.0011412295)
(1.2168128 0.015931094 0.00083356376)
(1.1900189 0.021023822 0.00050799297)
(1.1632853 0.026010853 0.00016638186)
(1.1366165 0.030886148 -0.00018656173)
(1.1100257 0.035631176 -0.00055637156)
(1.0835579 0.040231999 -0.00091922207)
(1.0571665 0.044724858 -0.0012941507)
(1.0309161 0.049062267 -0.0016670017)
(1.0048004 0.053255567 -0.0020378227)
(0.97883813 0.057297691 -0.0023991986)
(0.95303806 0.061185865 -0.0027522791)
(0.9274134 0.064917392 -0.0030944293)
(0.90197395 0.068489842 -0.0034247695)
(0.87672898 0.071902413 -0.0037430325)
(0.85168709 0.075152563 -0.0040497969)
(0.82685584 0.078240138 -0.0043456062)
(0.80224261 0.081162833 -0.0046321963)
(0.77785399 0.083920355 -0.0049109888)
(0.75369715 0.086510424 -0.0051840708)
(0.72977892 0.08893234 -0.0054529197)
(0.70610696 0.091183971 -0.0057197799)
(0.68268923 0.093264116 -0.0059853777)
(0.65953456 0.095171087 -0.0062514163)
(0.63665244 0.096903568 -0.0065179114)
(0.61405296 0.098460541 -0.0067853723)
(0.59174696 0.09984118 -0.0070530035)
(0.56974558 0.10104525 -0.00732059)
(0.54806005 0.10207373 -0.0075861854)
(0.52670217 0.10292506 -0.0078486773)
(0.50568199 0.10360663 -0.0081077194)
(0.48501207 0.10410969 -0.0083577204)
(0.46469976 0.10445204 -0.008604699)
(0.44475776 0.1046204 -0.008836466)
(0.42519283 0.1046316 -0.0090614267)
(0.40600311 0.10449052 -0.0092773315)
(0.38720195 0.10419165 -0.0094786684)
(0.36883283 0.10369335 -0.0096497308)
(0.35080941 0.10313453 -0.0098473841)
(0.33319806 0.10238886 -0.010013487)
(0.31604483 0.10145711 -0.010152244)
(0.29923294 0.10046958 -0.010308128)
(0.28285316 0.099306262 -0.010457179)
(0.2668637 0.098020752 -0.010596341)
(0.25133303 0.096565769 -0.010730253)
(0.23615086 0.09504921 -0.010855241)
(0.22145204 0.093322221 -0.010988168)
(0.20710836 0.091537209 -0.011135681)
(0.19321272 0.089595482 -0.011280618)
(0.17972751 0.087523273 -0.011430342)
(0.16665791 0.085342626 -0.011595346)
(0.15407841 0.082965296 -0.011738584)
(0.14185669 0.080557296 -0.011934311)
(0.13011812 0.077968639 -0.012118975)
(0.11884715 0.075221114 -0.012289822)
(0.10798896 0.072431874 -0.01252481)
(0.097654165 0.069402176 -0.012689594)
(0.087737983 0.066381423 -0.012943978)
(0.078365275 0.063096807 -0.013124091)
(0.06948702 0.059787667 -0.01335621)
(0.061056757 0.056309894 -0.013540005)
(0.053177846 0.052817646 -0.013791093)
(0.045881952 0.049017993 -0.013912229)
(0.039059059 0.045391537 -0.014141781)
(0.032828781 0.041449509 -0.014221472)
(0.027205647 0.037540375 -0.014300456)
(0.022142969 0.033530023 -0.014274042)
(0.017677932 0.02953703 -0.014172285)
(0.01386311 0.025478506 -0.013891465)
(0.010702515 0.02138309 -0.013339594)
(0.008241565 0.01728564 -0.012514745)
(0.006436442 0.013648967 -0.01131577)
(0.0049427201 0.0095572743 -0.0090264485)
(0.0057834648 0.0059692422 -0.0052853437)
(0 7.8146662e-19 0)
(0 2.9725785e-19 0)
(0 7.7153695e-19 0)
(0 7.7667826e-19 0)
(0 8.0948679e-19 0)
(0 4.8681181e-19 0)
(0 1.9406421e-20 0)
(0 -4.4111125e-19 -4.8399826e-19)
(0 5.2233396e-20 0)
(0 4.695961e-19 0)
(0 1.1323475e-18 0)
(0 9.9217261e-19 0)
(0 7.1021324e-19 0)
(0 6.8636584e-19 0)
(0 7.8377324e-19 0)
(0 3.2600013e-18 0)
(0 1.3880652e-18 0)
(0 5.0938047e-19 0)
(0 9.1940587e-19 0)
(0 -8.0046275e-20 0)
(0 2.1430033e-19 0)
(0 2.4419405e-18 0)
(0 -9.9371801e-19 -4.3090708e-19)
(0 1.4524907e-18 0)
(0 1.8157663e-18 0)
(0 6.0004958e-19 0)
(0 2.4561258e-19 0)
(0 5.7008804e-19 0)
(0 1.0278303e-18 0)
(0 1.3220638e-19 0)
(1.7402421 -0.54741522 0.0044723944)
(1.7402714 -0.54759229 0.0044706484)
(1.7403054 -0.54775516 0.0044731021)
(1.7403407 -0.54790249 0.0044843511)
(1.7403756 -0.54803798 0.0045019124)
(1.7404084 -0.54815788 0.0045269896)
(1.7404359 -0.54826434 0.0045561581)
(1.7404594 -0.5483577 0.0045876365)
(1.7404777 -0.54843914 0.004619319)
(1.7404924 -0.54850951 0.0046480384)
(1.7405041 -0.54857007 0.0046731678)
(1.7405142 -0.54862108 0.0046898444)
(1.7405269 -0.5486641 0.0047006185)
(1.7405424 -0.54869858 0.0047012973)
(1.740564 -0.54872728 0.0046981217)
(1.8381447 -0.11594959 0.0058164432)
(1.8382134 -0.11603857 0.0058122271)
(1.8382817 -0.11613088 0.0058019769)
(1.8383436 -0.11622741 0.00578213)
(1.8384026 -0.11632502 0.0057578467)
(1.838452 -0.11642396 0.0057268385)
(1.8384921 -0.1165228 0.0056952051)
(1.8385204 -0.11662255 0.0056621512)
(1.8385369 -0.11672307 0.0056320218)
(1.8385404 -0.1168257 0.0056060828)
(1.8385324 -0.11693202 0.0055856946)
(1.838511 -0.11704381 0.0055739649)
(1.8384819 -0.11716174 0.0055688116)
(1.8384411 -0.11729215 0.0055708428)
(1.8383934 -0.11742906 0.0055784472)
(0.00219699 0.0050708051 0.0070478069)
(0.0031296865 0.0084274858 0.0082736396)
(0.0043440763 0.012037768 0.010251385)
(0.0063836391 0.01549246 0.011046082)
(0.0086785519 0.018958293 0.011897111)
(0.011900076 0.022475063 0.012306208)
(0.015568786 0.025930218 0.012582401)
(0.020059906 0.029491581 0.01270725)
(0.024977236 0.032897041 0.012767293)
(0.030627515 0.036371751 0.012757513)
(0.03678376 0.039661368 0.012654269)
(0.043557282 0.043008924 0.012612849)
(0.050832892 0.046117358 0.012451759)
(0.058671522 0.049275909 0.012357873)
(0.066998076 0.052187433 0.012196802)
(0.075882679 0.055124561 0.012089889)
(0.085233092 0.057825025 0.011919826)
(0.09505143 0.060510123 0.011815182)
(0.10538122 0.062996855 0.011661216)
(0.11616667 0.065425814 0.011545888)
(0.1273965 0.067690504 0.011419674)
(0.13909495 0.069849532 0.011313257)
(0.15122511 0.071900723 0.011194279)
(0.16377651 0.073807685 0.011107034)
(0.17678057 0.075612283 0.011007102)
(0.1901916 0.077283387 0.010937359)
(0.20402647 0.078854033 0.01085715)
(0.21826776 0.08027974 0.010804446)
(0.23293446 0.081593089 0.010751865)
(0.24799931 0.082800135 0.01071133)
(0.26347121 0.083850522 0.010676578)
(0.27935556 0.084795143 0.010654324)
(0.29564105 0.085602535 0.010637515)
(0.31232073 0.086284503 0.010622142)
(0.32941047 0.08682339 0.010613378)
(0.34690206 0.087215135 0.010601419)
(0.36478557 0.087481327 0.0105884)
(0.3830636 0.087578434 0.010570445)
(0.40174746 0.087537339 0.010543764)
(0.42080895 0.087333602 0.010515086)
(0.44026311 0.086971016 0.010473572)
(0.46008887 0.086438637 0.010415713)
(0.4802911 0.085751581 0.010350834)
(0.50085709 0.084884655 0.010267337)
(0.52177278 0.083857306 0.010172553)
(0.54303622 0.082657654 0.010065292)
(0.56463036 0.081288334 0.0099441369)
(0.5865483 0.079752077 0.0098153286)
(0.60877458 0.078047855 0.0096763564)
(0.63130125 0.076178836 0.0095323454)
(0.65411336 0.074146782 0.0093835772)
(0.67720235 0.071952951 0.0092339836)
(0.70055609 0.069600565 0.0090833192)
(0.72416562 0.067089793 0.008935377)
(0.74802133 0.064423649 0.0087893733)
(0.77211501 0.061601519 0.0086473707)
(0.7964391 0.05862574 0.008508357)
(0.82098591 0.0554951 0.008372819)
(0.84574897 0.052211078 0.0082392265)
(0.87072114 0.048772596 0.0081069422)
(0.89589533 0.045180519 0.0079739686)
(0.9212647 0.041435249 0.0078393097)
(0.94681954 0.03753667 0.0077011829)
(0.97255496 0.033486402 0.0075590224)
(0.99845226 0.02929098 0.0074100265)
(1.0245185 0.024941112 0.0072565394)
(1.0507315 0.020459982 0.007096436)
(1.0770632 0.015836704 0.0069345639)
(1.103524 0.011085461 0.0067664454)
(1.1300843 0.0062061739 0.00659906)
(1.1567425 0.0012163793 0.0064294119)
(1.1834796 -0.0038824598 0.0062639476)
(1.2102847 -0.0090776805 0.0061023176)
(1.2371438 -0.014361905 0.0059521101)
(1.264047 -0.019727152 0.0058124165)
(1.2909844 -0.025165832 0.0056884901)
(1.3179482 -0.03066704 0.0055793744)
(1.3449305 -0.036230015 0.0054896985)
(1.3719296 -0.04184158 0.0054165221)
(1.3989379 -0.047506362 0.0053640715)
(1.4259588 -0.053209996 0.0053260075)
(1.452986 -0.058958975 0.0053093677)
(1.4800235 -0.064748146 0.0053018317)
(1.5070684 -0.070569755 0.0053101749)
(1.5341233 -0.076434591 0.0053253463)
(1.5611928 -0.082334649 0.0053516295)
(1.588271 -0.08827134 0.0053811843)
(1.6153554 -0.094241727 0.0054154288)
(1.6424522 -0.1002441 0.0054499383)
(1.6695437 -0.10627462 0.0054875717)
(1.6966448 -0.11233637 0.0055231409)
(1.7237272 -0.11840943 0.0055604007)
(1.7508109 -0.12451877 0.0055982588)
(1.7778624 -0.1306178 0.0056351943)
(1.8049052 -0.1367509 0.0056719856)
(0.00039150314 0.0044865368 0.0062386176)
(0.0012830775 0.0064471381 0.0074927555)
(0.0030019112 0.010161136 0.0087451439)
(0.0046889758 0.012828323 0.0096726616)
(0.0071681375 0.016093815 0.010218596)
(0.010228711 0.019001168 0.010543031)
(0.014003766 0.022174452 0.010752948)
(0.01828759 0.025110696 0.010869987)
(0.023287705 0.028148755 0.010937078)
(0.028870878 0.031020985 0.010856235)
(0.034996907 0.03392034 0.010884063)
(0.041723544 0.036662833 0.010725326)
(0.048962719 0.039392626 0.010696612)
(0.056769554 0.041964761 0.010537571)
(0.065056745 0.044484718 0.010488062)
(0.073911008 0.046870359 0.01029737)
(0.083157354 0.049175312 0.010255533)
(0.093001348 0.051342446 0.01009585)
(0.10323185 0.053421233 0.010014311)
(0.11397717 0.055366078 0.0098893428)
(0.12513805 0.057210713 0.0098079422)
(0.13678274 0.058939049 0.0096872087)
(0.14882493 0.060550148 0.0096204918)
(0.16134011 0.062046583 0.0095282035)
(0.17425375 0.063421216 0.0094634214)
(0.1876028 0.064698985 0.0093869428)
(0.20135482 0.065839987 0.009339641)
(0.21553185 0.066872561 0.0092935974)
(0.23010997 0.06779319 0.0092502137)
(0.24509635 0.068583505 0.0092209813)
(0.26048802 0.069257176 0.0092052518)
(0.27628682 0.06980865 0.0091864001)
(0.2924764 0.070234996 0.0091776302)
(0.30907556 0.070522293 0.0091760224)
(0.32607662 0.070680371 0.0091715696)
(0.34347283 0.070705014 0.009173277)
(0.36127526 0.070578963 0.0091703747)
(0.37947047 0.070312957 0.0091682189)
(0.39804757 0.069892249 0.009159893)
(0.41702266 0.069328798 0.0091448746)
(0.43637425 0.068595707 0.0091149167)
(0.45610832 0.067719626 0.0090852715)
(0.47621713 0.066666619 0.0090306476)
(0.49668231 0.065463434 0.008977868)
(0.51750753 0.06409483 0.0089036401)
(0.53867674 0.062563049 0.0088234695)
(0.56017871 0.060869931 0.0087304699)
(0.58200502 0.059017102 0.0086305052)
(0.60414223 0.057004191 0.0085202013)
(0.62657994 0.054835501 0.0084071016)
(0.64930577 0.052511257 0.0082879191)
(0.67231015 0.05003388 0.008168207)
(0.69558138 0.047405883 0.0080471624)
(0.71911056 0.044627168 0.0079281424)
(0.74288839 0.041700759 0.0078104225)
(0.76690663 0.038625668 0.0076962523)
(0.79115762 0.035404064 0.0075844211)
(0.81563419 0.032034362 0.0074760124)
(0.8403295 0.028518751 0.0073692116)
(0.8652367 0.024854946 0.0072640635)
(0.89034887 0.021045527 0.0071589841)
(0.91565873 0.017089638 0.0070523665)
(0.94115786 0.012987611 0.006944783)
(0.96683883 0.0087452371 0.0068317043)
(0.99268859 0.0043618002 0.0067161883)
(1.0187113 -0.00015709514 0.0065962392)
(1.0448488 -0.0048032553 0.0064767007)
(1.0711467 -0.0095897999 0.0063500329)
(1.0975709 -0.014492282 0.006210461)
(1.1241043 -0.01950811 0.0060778756)
(1.150736 -0.024624005 0.0059412669)
(1.1774464 -0.029839026 0.0058116082)
(1.2042289 -0.035138577 0.0056853173)
(1.2310682 -0.04052014 0.0055687575)
(1.2579562 -0.045971977 0.0054601755)
(1.2848785 -0.051488617 0.0053656188)
(1.3118313 -0.0570614 0.0052825575)
(1.3388037 -0.062687971 0.0052170602)
(1.3657956 -0.06835784 0.0051639088)
(1.3927961 -0.074075731 0.0051308355)
(1.4198146 -0.07982744 0.0051070612)
(1.4468339 -0.085622864 0.0051043591)
(1.473873 -0.091453673 0.0051088114)
(1.5009116 -0.097322576 0.0051229529)
(1.5279778 -0.10321984 0.0051470797)
(1.5550398 -0.10915664 0.0051830445)
(1.5821191 -0.11512585 0.0052220845)
(1.6092026 -0.12111981 0.0052627573)
(1.6362998 -0.12715345 0.0053092191)
(1.663393 -0.13319887 0.0053495755)
(1.690496 -0.13928615 0.0053989546)
(1.7175803 -0.14536961 0.0054365876)
(1.7446687 -0.15149584 0.0054874379)
(1.7717184 -0.15760343 0.0055226457)
(1.7987693 -0.16374786 0.0055665012)
(-0.00065428819 0.0035036378 0.0054612552)
(0.00017947936 0.0053363455 0.0062911609)
(0.0011819225 0.0081421733 0.0076223647)
(0.0031099018 0.010637803 0.0082315527)
(0.0055295067 0.013255635 0.0085721229)
(0.0087436356 0.015913383 0.0088275857)
(0.01232598 0.018424155 0.0089974198)
(0.016792395 0.021014376 0.0090935699)
(0.021700506 0.023411431 0.0090338735)
(0.027258044 0.025936262 0.0091092063)
(0.033359996 0.028191089 0.0089728615)
(0.040073445 0.030574704 0.0089796392)
(0.04726832 0.032678843 0.0088377783)
(0.055029711 0.034875687 0.0088175361)
(0.063305266 0.036829131 0.008646536)
(0.072048605 0.038802083 0.0086373763)
(0.08133575 0.040577289 0.0084844331)
(0.091063088 0.042328174 0.0084266233)
(0.10127188 0.043913884 0.0083176423)
(0.11194635 0.045430499 0.0082527754)
(0.12307099 0.046824845 0.0081488211)
(0.13463359 0.048102254 0.0080962624)
(0.14664181 0.049288748 0.0080100756)
(0.15906624 0.050341697 0.0079555857)
(0.17192148 0.051315614 0.007885014)
(0.18518913 0.052148173 0.0078455552)
(0.19887659 0.052888539 0.0077983908)
(0.21296486 0.053512581 0.0077599359)
(0.22746819 0.054020106 0.0077327195)
(0.24237019 0.054411981 0.0077187136)
(0.25768096 0.054687991 0.0076996378)
(0.27338542 0.054843567 0.0076948605)
(0.28949874 0.054870837 0.0076978605)
(0.30600831 0.054774918 0.0077006618)
(0.32291533 0.054549454 0.0077102655)
(0.34022172 0.054186522 0.0077198944)
(0.3579148 0.053691249 0.0077331859)
(0.37599531 0.053050651 0.0077442548)
(0.39449582 0.052266225 0.0077479798)
(0.41336985 0.051322845 0.007740741)
(0.43263246 0.050243803 0.0077397124)
(0.45227374 0.049001465 0.0077139366)
(0.47228362 0.047607397 0.007697311)
(0.49266019 0.046059124 0.0076586571)
(0.51339156 0.044351276 0.0076123921)
(0.5344658 0.042491184 0.0075585113)
(0.55587582 0.040475276 0.0074927601)
(0.57761 0.038307534 0.0074196685)
(0.59965621 0.035987513 0.0073395266)
(0.62200375 0.033519329 0.0072546011)
(0.64464206 0.030902852 0.0071642158)
(0.66755918 0.028141693 0.0070736468)
(0.69074609 0.025236439 0.0069805372)
(0.71419234 0.022188782 0.0068894395)
(0.73788991 0.019000202 0.0067989582)
(0.76182971 0.015670574 0.0067116004)
(0.78600529 0.0122013 0.0066263052)
(0.81040855 0.0085917195 0.0065442783)
(0.83503354 0.0048428289 0.0064638365)
(0.85987312 0.00095393815 0.0063858612)
(0.88492048 -0.0030735019 0.0063077892)
(0.91016857 -0.0072398434 0.0062301335)
(0.93560905 -0.011542692 0.0061513779)
(0.96123361 -0.015978746 0.0060685756)
(0.98703372 -0.020549191 0.0059860383)
(1.0129921 -0.02524636 0.0058971619)
(1.0391186 -0.030050456 0.0058112675)
(1.065369 -0.034995856 0.005704609)
(1.0917499 -0.040058141 0.0056226045)
(1.1182422 -0.045200336 0.0055255409)
(1.1448337 -0.050447316 0.005431618)
(1.1715107 -0.055776492 0.0053400111)
(1.1982655 -0.06118421 0.0052483737)
(1.2250786 -0.066662395 0.0051656687)
(1.2519405 -0.072204849 0.0050891437)
(1.2788424 -0.077803842 0.0050239198)
(1.305775 -0.083451983 0.0049683419)
(1.332731 -0.089147727 0.0049263985)
(1.3597067 -0.094881993 0.0048962183)
(1.3866958 -0.10065649 0.0048802369)
(1.4137008 -0.106464 0.0048751957)
(1.4407137 -0.11230992 0.0048864836)
(1.4677405 -0.11818168 0.0049014877)
(1.4947812 -0.12409425 0.004933823)
(1.5218327 -0.13002672 0.0049701358)
(1.5488896 -0.13599421 0.0050175073)
(1.5759655 -0.14198687 0.0050610456)
(1.6030478 -0.14801513 0.0051160661)
(1.6301442 -0.15406333 0.0051648243)
(1.6572371 -0.16013772 0.0052213374)
(1.6843424 -0.16623331 0.0052720308)
(1.7114275 -0.17233641 0.0053252382)
(1.7385205 -0.17847038 0.0053764038)
(1.7655737 -0.18458658 0.0054212993)
(1.7926316 -0.19073416 0.0054656079)
(-0.0013343442 0.0030786789 0.0044583598)
(-0.00098714467 0.0041311047 0.0052938196)
(0.00012655772 0.0064677606 0.0060831826)
(0.0019350384 0.0083192429 0.006510381)
(0.0044144718 0.010579847 0.0067931683)
(0.0073672278 0.012580221 0.0070319146)
(0.011173699 0.014763756 0.007134785)
(0.015471676 0.01672199 0.0071133974)
(0.02037107 0.018793667 0.0072430906)
(0.025916047 0.020665102 0.0071185318)
(0.032009046 0.022566331 0.0071736203)
(0.038641797 0.024332675 0.0070428092)
(0.045810826 0.026051739 0.0070725745)