/*--------------------------------*- C++ -*----------------------------------*\
  =========                 |
  \\      /  F ield         | OpenFOAM: The Open Source CFD Toolbox
   \\    /   O peration     | Website:  https://openfoam.org
    \\  /    A nd           | Version:  6
     \\/     M anipulation  |
\*---------------------------------------------------------------------------*/
FoamFile
{
    version     2.0;
    format      ascii;
    class       pointVectorField;
    location    "0.39";
    object      u;
}
// * * * * * * * * * * * * * * * * * * * * * * * * * * * * * * * * * * * * * //

dimensions      [0 1 0 0 0 0 0];

internalField   nonuniform List<vector> 
28033
(
(0 0 0)
(0 0 0)
(1.1949757 0.010315261 0.00064468696)
(1.1547948 -0.26960858 0.00034659577)
(0 0 0)
(0 0 0)
(1.1548929 -0.26959057 0.00028521454)
(1.1951056 0.01028453 0.00025050367)
(0 0 0)
(0 0 0)
(0 0 0)
(0 0 0)
(0 0 0)
(0 0 0)
(0 0 0)
(0 0 0)
(0 0 0)
(0 0 0)
(0 0 0)
(0 0 0)
(0 0 0)
(0 0 0)
(0 0 0)
(1.1922558 -0.0076828141 0.00038869103)
(1.1895475 -0.025277275 0.00037713956)
(1.1868662 -0.042749548 0.00031669539)
(1.1842767 -0.060166377 0.00033459117)
(1.1817149 -0.077520923 0.00035039893)
(1.1791811 -0.094833203 0.0003879756)
(1.1766908 -0.11212754 0.00043478717)
(1.1742227 -0.12941347 0.00049340154)
(1.1717807 -0.14670423 0.00054183754)
(1.1693547 -0.16402682 0.0005982935)
(1.1669493 -0.18137097 0.00063185055)
(1.1645432 -0.19878756 0.00064332429)
(1.1621638 -0.2162587 0.00064104611)
(1.1597352 -0.23384098 0.0006202778)
(1.15736 -0.25155848 0.00052127302)
(0.0026731429 0.0044882148 0.0047384519)
(0.0031486315 0.0067842188 0.0066324517)
(0.0039345093 0.0092991282 0.0079938135)
(0.0052002352 0.01194771 0.0088832064)
(0.0067256209 0.014619217 0.0094501732)
(0.0087349283 0.017403704 0.0098369858)
(0.011135958 0.020203278 0.010064504)
(0.013946799 0.022999955 0.010192069)
(0.017160713 0.025822564 0.010250787)
(0.020776765 0.028607942 0.010259585)
(0.024758633 0.031374341 0.010230088)
(0.029136047 0.034106257 0.01016824)
(0.033866507 0.036797771 0.010112819)
(0.038986195 0.039440226 0.010019389)
(0.044433897 0.042025844 0.0099409032)
(0.050261153 0.044556671 0.0098328217)
(0.05641696 0.047029925 0.0097458637)
(0.062931827 0.049430431 0.0096408853)
(0.069768468 0.051770846 0.0095361654)
(0.076948981 0.05403518 0.0094263849)
(0.084448792 0.056236776 0.0093260419)
(0.09227349 0.058350464 0.0092074661)
(0.10041044 0.060400135 0.00910428)
(0.10886208 0.06236964 0.0089907447)
(0.11761113 0.064253336 0.0088765448)
(0.12666716 0.066070876 0.0087629456)
(0.13600429 0.067791598 0.00865287)
(0.14563778 0.069448517 0.0085383325)
(0.15554652 0.071006241 0.0084218398)
(0.16573138 0.072495754 0.0083120915)
(0.17618666 0.073894555 0.0081969017)
(0.18689922 0.075212114 0.0080841425)
(0.19787442 0.076452832 0.0079753628)
(0.2090979 0.077599364 0.0078649357)
(0.22056984 0.078680896 0.0077539121)
(0.23228626 0.079665699 0.0076440729)
(0.24423369 0.080579968 0.0075402903)
(0.2564205 0.08140755 0.0074338044)
(0.26882977 0.082155551 0.0073214176)
(0.28146895 0.082827185 0.0072156627)
(0.29432427 0.083411946 0.0071038463)
(0.30739982 0.083925601 0.0069930166)
(0.32069039 0.084352257 0.0068753094)
(0.3341923 0.084701586 0.0067571777)
(0.34789824 0.084967347 0.0066334887)
(0.36180978 0.085153876 0.0065057351)
(0.37591614 0.085256632 0.0063738607)
(0.39021899 0.085278272 0.0062369514)
(0.40470694 0.085216097 0.006096333)
(0.41938042 0.085071538 0.0059515795)
(0.43422885 0.084843225 0.0058034683)
(0.44925042 0.084531585 0.0056523723)
(0.46443637 0.084136763 0.0054986165)
(0.47978275 0.083658045 0.0053426877)
(0.49528248 0.083096775 0.0051845248)
(0.51093013 0.082451853 0.005024573)
(0.52671956 0.081724525 0.0048625666)
(0.54264472 0.080914729 0.0046985317)
(0.55869926 0.080023061 0.0045324104)
(0.57487689 0.079049722 0.0043643485)
(0.59117056 0.077996309 0.004194313)
(0.60757387 0.076863374 0.0040223495)
(0.62407728 0.075653087 0.0038504322)
(0.6406781 0.074364378 0.0036764213)
(0.65735917 0.073006558 0.003506856)
(0.67412249 0.071573729 0.0033365961)
(0.69095358 0.07007326 0.0031717255)
(0.7078434 0.068508447 0.00301347)
(0.72479007 0.066886245 0.0028585968)
(0.7417763 0.065207012 0.0027186918)
(0.75880793 0.063475386 0.0025874458)
(0.77586671 0.061697338 0.0024691829)
(0.79296411 0.059882345 0.0023586138)
(0.81007797 0.058018054 0.0022681422)
(0.82722505 0.056141736 0.0021802052)
(0.84439043 0.05420102 0.0021172542)
(0.86158027 0.052279996 0.0020472148)
(0.87880104 0.050274389 0.0020067388)
(0.89603705 0.048313831 0.0019491893)
(0.913318 0.046258741 0.0019217555)
(0.93061575 0.044249564 0.0018683476)
(0.94795806 0.042159872 0.0018454504)
(0.96533323 0.04009481 0.0017889579)
(0.98274428 0.037963846 0.0017587729)
(1.0001978 0.035840849 0.001699358)
(1.0176844 0.033676784 0.001649819)
(1.0352226 0.031475877 0.0015829308)
(1.0527797 0.029264912 0.0015210082)
(1.0703961 0.027004994 0.0014322321)
(1.0880215 0.024735192 0.0013606464)
(1.1056989 0.022389845 0.0012768995)
(1.1233998 0.020117615 0.0011618149)
(1.1411242 0.017686397 0.0011170297)
(1.1589318 0.01534397 0.00099007777)
(1.176725 0.012964043 0.00094218356)
(0.001149939 -0.0044305833 -0.0053486785)
(0.0021064048 -0.0062083026 -0.0062031735)
(0.0026869172 -0.0087002321 -0.0080540559)
(0.0034072494 -0.010830874 -0.0087280419)
(0.0049004564 -0.013427634 -0.009390998)
(0.0065964898 -0.016047785 -0.0097373777)
(0.0087621605 -0.01859631 -0.0099763785)
(0.011308665 -0.021320677 -0.010062965)
(0.014289138 -0.024016653 -0.010099705)
(0.017582064 -0.026723531 -0.010073889)
(0.021291536 -0.029481094 -0.010008935)
(0.025317336 -0.032213187 -0.0099229244)
(0.029712733 -0.034978621 -0.0098120155)
(0.034434082 -0.037739493 -0.0097044807)
(0.039496914 -0.040499759 -0.0095722228)
(0.044884073 -0.043278817 -0.0094513468)
(0.050598876 -0.046040299 -0.0093118452)
(0.056632979 -0.048817331 -0.0091759158)
(0.062981596 -0.051598938 -0.0090420489)
(0.069648729 -0.054368892 -0.0088985253)
(0.076617067 -0.057154689 -0.0087549553)
(0.083897233 -0.059941162 -0.0086161115)
(0.091468381 -0.062719771 -0.0084658777)
(0.099342383 -0.065516554 -0.0083223349)
(0.10750459 -0.068305139 -0.0081734298)
(0.11595509 -0.071102753 -0.0080201292)
(0.12468478 -0.073906687 -0.0078757914)
(0.13369264 -0.076707857 -0.0077192366)
(0.14297244 -0.079523838 -0.0075723202)
(0.15251744 -0.082332767 -0.0074145379)
(0.16232318 -0.085160553 -0.0072662086)
(0.17238567 -0.087985662 -0.0071150053)
(0.18269928 -0.090824104 -0.0069670653)
(0.1932595 -0.093666014 -0.0068199006)
(0.20406078 -0.09652047 -0.006676526)
(0.21510099 -0.099380997 -0.0065368257)
(0.22637155 -0.10224812 -0.0063924991)
(0.23787421 -0.10513393 -0.0062585551)
(0.24960099 -0.10802382 -0.0061224804)
(0.26155514 -0.11092958 -0.0059893379)
(0.27372757 -0.11384575 -0.005856658)
(0.28612019 -0.11677403 -0.0057248925)
(0.29872768 -0.11971483 -0.0055923983)
(0.31154915 -0.12266691 -0.0054596843)
(0.32458023 -0.1256305 -0.0053254896)
(0.3378193 -0.12860426 -0.0051898148)
(0.35126136 -0.1315877 -0.005052637)
(0.36490389 -0.13457907 -0.0049135102)
(0.37874187 -0.13757778 -0.0047729783)
(0.39277126 -0.14058153 -0.0046308874)
(0.40698739 -0.14358972 -0.0044875999)
(0.42138525 -0.14660005 -0.0043433189)
(0.43596016 -0.14961143 -0.0041980705)
(0.45070709 -0.15262213 -0.0040519683)
(0.46562108 -0.15563066 -0.0039048079)
(0.48069735 -0.15863531 -0.0037564193)
(0.49593096 -0.16163496 -0.0036062817)
(0.51131687 -0.16462749 -0.0034540724)
(0.52684994 -0.16761177 -0.0032993974)
(0.54252514 -0.17058613 -0.0031415204)
(0.55833591 -0.17354857 -0.002980911)
(0.57427711 -0.1764981 -0.0028168181)
(0.5903409 -0.17943219 -0.0026505654)
(0.60652106 -0.18235044 -0.0024817764)
(0.62280836 -0.18524965 -0.0023132028)
(0.63919651 -0.18813105 -0.0021442786)
(0.65567478 -0.1909903 -0.001979587)
(0.67223574 -0.19383074 -0.0018171924)
(0.68886882 -0.19664352 -0.0016675696)
(0.70556703 -0.19943889 -0.0015177107)
(0.72232259 -0.20221652 -0.0013863299)
(0.73912706 -0.20496639 -0.0012640321)
(0.7559782 -0.20770605 -0.0011559102)
(0.77286544 -0.21042321 -0.0010621951)
(0.78979239 -0.21313107 -0.00098055772)
(0.80674901 -0.21582401 -0.0009146737)
(0.82374192 -0.21851169 -0.00085719009)
(0.84076613 -0.22119131 -0.00081199287)
(0.85782498 -0.22386995 -0.00077260041)
(0.87491994 -0.22654594 -0.00073962184)
(0.89205316 -0.22922511 -0.00070862125)
(0.90922745 -0.23190504 -0.00067838764)
(0.92644317 -0.23458933 -0.00064668621)
(0.94370658 -0.23727695 -0.00061079719)
(0.96101179 -0.23996542 -0.00057273387)
(0.97836884 -0.24265957 -0.00052568631)
(0.99576832 -0.24534886 -0.00047621018)
(1.0132181 -0.24804046 -0.00041929628)
(1.0307097 -0.25072784 -0.00035532995)
(1.0482504 -0.25341015 -0.0002874163)
(1.0658258 -0.2560837 -0.0002152641)
(1.0834543 -0.25875995 -0.00013736907)
(1.1011135 -0.26143505 -4.5238881e-05)
(1.118855 -0.26409709 2.7096231e-05)
(1.1366517 -0.26684347 0.00016009055)
(0 0 0)
(0 0 0)
(0 0 0)
(0 0 0)
(0 0 0)
(0 0 0)
(0 0 0)
(0 0 0)
(0 0 0)
(0 0 0)
(0 0 0)
(0 0 0)
(0 0 0)
(0 0 0)
(0 0 0)
(0.0025014297 -0.0018728851 0.0038918203)
(0.0026644348 -0.0072266112 0.006228854)
(0.0026020246 -0.0077097436 0.0074109887)
(0.0037590006 -0.011441677 0.0087231199)
(0.0049024579 -0.013268225 0.009231649)
(0.0067568763 -0.016162134 0.0096022818)
(0.0088652219 -0.018632324 0.0098105321)
(0.011488354 -0.021444748 0.0099431631)
(0.014431041 -0.024053303 0.0099500544)
(0.017746855 -0.026863828 0.009943983)
(0.021491954 -0.029588572 0.0099051627)
(0.025473824 -0.032310222 0.0098182922)
(0.029915909 -0.035144101 0.0097429389)
(0.034595568 -0.037836559 0.0096326944)
(0.039697669 -0.04070097 0.0095339671)
(0.045063649 -0.043382971 0.0094184338)
(0.050776305 -0.046245186 0.0093130947)
(0.056821278 -0.048956854 0.0091781007)
(0.063160403 -0.051793207 0.0090715049)
(0.06984211 -0.05454451 0.0089378388)
(0.076806069 -0.057338814 0.0088268255)
(0.084081842 -0.060131742 0.0086948274)
(0.09165875 -0.062928713 0.008577982)
(0.099536463 -0.065715406 0.0084494055)
(0.10769636 -0.068514082 0.0083260211)
(0.11615752 -0.071307393 0.0081987332)
(0.12487334 -0.074109631 0.0080724298)
(0.13389098 -0.076923145 0.0079483233)
(0.14316151 -0.07972314 0.0078213725)
(0.1527022 -0.082551603 0.0077013835)
(0.1625114 -0.085364258 0.007577412)
(0.17256776 -0.088189676 0.0074586307)
(0.18287802 -0.091019888 0.0073380319)
(0.1934314 -0.093859418 0.0072231072)
(0.20423385 -0.096702699 0.0071064068)
(0.2152582 -0.099548963 0.0069948706)
(0.22652499 -0.10242438 0.006883933)
(0.23802626 -0.10529142 0.0067738773)
(0.24974785 -0.10817405 0.0066640756)
(0.26169817 -0.11106835 0.0065519343)
(0.27386888 -0.11397425 0.0064394282)
(0.28625984 -0.11689221 0.006323562)
(0.29886815 -0.1198221 0.0062042539)
(0.3116914 -0.12276415 0.0060805294)
(0.32472637 -0.12571747 0.0059521116)
(0.33797046 -0.12868201 0.0058182617)
(0.35141964 -0.1316563 0.0056791865)
(0.3650704 -0.13464001 0.0055348736)
(0.37891796 -0.13763124 0.0053858399)
(0.39295817 -0.14062936 0.0052323651)
(0.40718566 -0.1436324 0.0050753697)
(0.42159596 -0.14663941 0.004914908)
(0.43618349 -0.14964845 0.0047521563)
(0.45094342 -0.15265834 0.0045869974)
(0.46587028 -0.15566734 0.0044203735)
(0.48095925 -0.15867384 0.0042519858)
(0.49620466 -0.16167621 0.0040826122)
(0.51160169 -0.16467285 0.0039118902)
(0.52714444 -0.16766158 0.0037402214)
(0.54282756 -0.17064109 0.0035677745)
(0.55864466 -0.17360894 0.0033947991)
(0.57458955 -0.17656347 0.0032217755)
(0.59065514 -0.17950286 0.0030496934)
(0.60683383 -0.18242472 0.0028791623)
(0.62311841 -0.18532805 0.0027117318)
(0.63949962 -0.18821133 0.002548175)
(0.65597115 -0.19107071 0.002391129)
(0.67252069 -0.1939189 0.0022417903)
(0.68914535 -0.19672299 0.0021042471)
(0.70582722 -0.1995267 0.0019729333)
(0.72257404 -0.20229765 0.0018564295)
(0.73936515 -0.20505119 0.0017536603)
(0.75620306 -0.20778521 0.0016626525)
(0.77308053 -0.21050417 0.0015864889)
(0.78999457 -0.21320861 0.0015226991)
(0.80694381 -0.21590207 0.0014706901)
(0.82392665 -0.21858724 0.0014290602)
(0.84094394 -0.22126661 0.0013957588)
(0.8579962 -0.22394312 0.0013687937)
(0.87508504 -0.2266178 0.0013455257)
(0.89221334 -0.22929424 0.0013236324)
(0.90938216 -0.2319717 0.0013012435)
(0.92659476 -0.23465237 0.0012757284)
(0.94385197 -0.23733563 0.0012459871)
(0.96115642 -0.24002101 0.0012100486)
(0.97850693 -0.24270865 0.0011685862)
(0.99590589 -0.24539456 0.0011180699)
(1.0133513 -0.24808246 0.0010630819)
(1.0308415 -0.25076237 0.00099843776)
(1.0483783 -0.25344482 0.00093085484)
(1.0659536 -0.25611294 0.0008530277)
(1.0835786 -0.25879019 0.00077752348)
(1.1012352 -0.26145201 0.00068481553)
(1.1189805 -0.26413733 0.00059928437)
(1.1367338 -0.26687177 0.00047684286)
(1.1575018 -0.25155017 0.00014102724)
(1.1598796 -0.23389287 5.6181253e-05)
(1.1622733 -0.21626607 5.2998852e-05)
(1.1646735 -0.19882486 4.286926e-05)
(1.1670694 -0.18139833 9.7623226e-05)
(1.1694759 -0.16406213 0.00013344389)
(1.1718999 -0.146741 0.000212157)
(1.1743383 -0.12944546 0.00027490726)
(1.1768186 -0.1121666 0.00034087748)
(1.1792966 -0.094864012 0.00040686624)
(1.1818377 -0.077549017 0.00045006862)
(1.1843931 -0.060196402 0.00047962194)
(1.1869989 -0.0427864 0.00050387581)
(1.1896072 -0.025289404 0.00047787421)
(1.1923871 -0.0077502587 0.00043595438)
(1.1769016 0.012932257 -2.1146809e-05)
(1.1590112 0.015275209 -0.00010865101)
(1.1412437 0.017683289 -0.00021183774)
(1.1235033 0.020048895 -0.00028825541)
(1.105806 0.022388814 -0.0003779975)
(1.0881378 0.024697791 -0.00045607678)
(1.0705041 0.026975835 -0.00052936972)
(1.0529018 0.029224982 -0.00059965454)
(1.035338 0.031439267 -0.00066017514)
(1.01781 0.033629294 -0.00071844614)
(1.0003217 0.035786068 -0.00076742848)
(0.98287163 0.037920325 -0.0008144589)
(0.96545962 0.040025992 -0.00085536675)
(0.94808648 0.042109869 -0.00089529781)
(0.93075111 0.044168349 -0.00093141316)
(0.9134506 0.046206226 -0.00096896465)
(0.89618331 0.048220988 -0.0010072258)
(0.87894553 0.050213278 -0.0010512407)
(0.86173581 0.052183537 -0.0011011501)
(0.84455232 0.054126711 -0.0011597039)
(0.82739253 0.05604594 -0.0012286604)
(0.81025795 0.0579319 -0.0013090528)
(0.79314636 0.059789036 -0.0014023963)
(0.7760633 0.061604075 -0.001507269)
(0.75900611 0.063383923 -0.0016267841)
(0.74198753 0.065115009 -0.0017551261)
(0.72499556 0.066797089 -0.0018964573)
(0.70808358 0.068404091 -0.0020393955)
(0.69117981 0.06998686 -0.0022017909)
(0.67436377 0.071481779 -0.0023594411)
(0.65760583 0.072919742 -0.0025275879)
(0.64092773 0.074283592 -0.0026937787)
(0.62433296 0.075574812 -0.0028617518)
(0.60783173 0.076789425 -0.0030290898)
(0.59143094 0.077926251 -0.0031947376)
(0.57513835 0.07898332 -0.0033586337)
(0.5589612 0.07995925 -0.0035203425)
(0.54290624 0.080853437 -0.0036797873)
(0.52698016 0.081664621 -0.0038369987)
(0.51118912 0.082392743 -0.0039924237)
(0.49553954 0.083036839 -0.0041458771)
(0.48003731 0.083597126 -0.0042977232)
(0.46468864 0.084072794 -0.0044479657)
(0.44949936 0.084464272 -0.004596474)
(0.43447569 0.084770966 -0.0047431497)
(0.41962325 0.084993409 -0.0048878101)
(0.40494814 0.085131341 -0.0050301402)
(0.39045569 0.085185401 -0.0051698841)
(0.37615166 0.085155656 -0.0053071758)
(0.36204069 0.085043098 -0.0054414399)
(0.34812829 0.084847146 -0.0055733082)
(0.33441776 0.084571144 -0.0057030094)
(0.32091506 0.084210446 -0.0058300688)
(0.30762115 0.083774093 -0.0059577041)
(0.29454425 0.083251077 -0.0060814962)
(0.28168474 0.082654373 -0.0062076028)
(0.2690425 0.081978858 -0.0063342828)
(0.25662382 0.081216694 -0.0064636507)
(0.24445271 0.08037266 -0.0065850156)
(0.2324889 0.079469811 -0.0067232704)
(0.22076844 0.078462205 -0.0068580876)
(0.20930816 0.077385743 -0.0069878333)
(0.19807658 0.076231202 -0.0071259055)
(0.18709458 0.074995284 -0.0072679819)
(0.17636904 0.073666833 -0.0074135882)
(0.16592518 0.072270597 -0.0075540749)
(0.15572492 0.070785104 -0.0076951579)
(0.14582405 0.069218411 -0.007837314)
(0.13618207 0.067578338 -0.0079862094)
(0.12683684 0.065849374 -0.0081284863)
(0.11777847 0.064047469 -0.0082717418)
(0.10901427 0.062152419 -0.0084180644)
(0.10057658 0.06018785 -0.0085493516)
(0.092421682 0.058159235 -0.0086950526)
(0.084588965 0.056026481 -0.0088347888)
(0.077093509 0.053844808 -0.0089609198)
(0.069899085 0.051577619 -0.0091066569)
(0.063064008 0.049245468 -0.009221708)
(0.056539471 0.046853331 -0.0093642261)
(0.050379405 0.044375279 -0.0094762418)
(0.04456954 0.041858279 -0.0095962414)
(0.039087997 0.039277408 -0.0097019446)
(0.033975728 0.036649667 -0.0098216895)
(0.029247045 0.033941222 -0.0098888)
(0.02486421 0.031259842 -0.0099813198)
(0.020864846 0.028474725 -0.010018801)
(0.01726256 0.025692607 -0.010028025)
(0.014053713 0.022899486 -0.0099819081)
(0.011216918 0.020107649 -0.0098691978)
(0.0088200314 0.017318105 -0.0096504941)
(0.0068253855 0.014518978 -0.0092442164)
(0.0053111083 0.011741397 -0.0086583379)
(0.0041942476 0.0093131473 -0.0078071356)
(0.0032957791 0.0065172893 -0.006194697)
(0.003951046 0.0041814414 -0.0036118171)
(0 0 0)
(0 0 0)
(0 0 0)
(0 0 0)
(0 0 0)
(0 0 0)
(0 0 0)
(0 0 0)
(0 0 0)
(0 0 0)
(0 0 0)
(0 0 0)
(0 0 0)
(0 0 0)
(0 0 0)
(0 0 0)
(0 0 0)
(0 0 0)
(0 0 0)
(0 0 0)
(0 0 0)
(0 0 0)
(0 0 0)
(0 0 0)
(0 0 0)
(0 0 0)
(0 0 0)
(0 0 0)
(0 0 0)
(0 0 0)
(1.1548554 -0.26975177 0.0003252516)
(1.1548861 -0.26982334 0.00030536842)
(1.1549061 -0.26985846 0.00028998958)
(1.1549322 -0.2698952 0.00028487797)
(1.1549563 -0.26992083 0.0002841581)
(1.1549772 -0.26994059 0.00029471793)
(1.1549928 -0.26995092 0.0003029405)
(1.1550029 -0.26995467 0.00032123663)
(1.1550075 -0.26995387 0.00033247898)
(1.1550033 -0.26994315 0.00034378115)
(1.1550055 -0.269938 0.00035292857)
(1.1549893 -0.26990311 0.00035166049)
(1.1549832 -0.26988199 0.00034479091)
(1.154972 -0.26983438 0.00033093496)
(1.1549688 -0.26979455 0.00030588762)
(1.195153 0.010458237 0.00062630129)
(1.1951988 0.01048513 0.00063641251)
(1.1952385 0.01052062 0.00060987056)
(1.1952865 0.010544346 0.00058769644)
(1.1953103 0.010554447 0.00056199905)
(1.1953386 0.01056059 0.00052219308)
(1.1953579 0.010566815 0.00048558998)
(1.1953694 0.010564866 0.0004415407)
(1.1953731 0.010562632 0.00039985355)
(1.1953682 0.01055649 0.00036078314)
(1.1953571 0.010543605 0.00032425076)
(1.1953381 0.010528279 0.0002930053)
(1.1953211 0.010511313 0.00028320741)
(1.1952873 0.010456213 0.00024457925)
(1.1952839 0.010457718 0.00025168814)
(0.0012301886 0.0012113061 0.0047921026)
(0.0017649834 0.001198564 0.0056115577)
(0.0022542207 0.0013902133 0.0069953473)
(0.0033052232 0.0015153144 0.007583823)
(0.0044471586 0.0016568665 0.0082265373)
(0.0061865648 0.0019197219 0.0085296262)
(0.0081810667 0.0022238481 0.0087940357)
(0.010690478 0.0026622773 0.0089138212)
(0.013492738 0.0031396114 0.0090021204)
(0.016742254 0.0037313127 0.0090315911)
(0.020339372 0.0043636412 0.0090135932)
(0.024336827 0.0051137444 0.0089968044)
(0.028680301 0.0058935779 0.0089350682)
(0.033404371 0.0067899958 0.0088853231)
(0.038482721 0.0077262998 0.0088077202)
(0.043937147 0.0087687515 0.0087387426)
(0.049738722 0.0098628938 0.0086502494)
(0.055893539 0.011055982 0.0085745127)
(0.062409797 0.01230789 0.0084841118)
(0.069280346 0.013655796 0.0083940991)
(0.076491271 0.015070404 0.0083053366)
(0.084053594 0.016563655 0.0082124656)
(0.091961492 0.018143982 0.0081142338)
(0.10019988 0.019789282 0.0080236503)
(0.10878512 0.021514027 0.0079219818)
(0.11769933 0.023311324 0.0078255966)
(0.12694208 0.025178504 0.007724566)
(0.13650694 0.027110928 0.0076271297)
(0.14639678 0.029105707 0.0075258177)
(0.15660003 0.031164339 0.0074253575)
(0.16711016 0.033271424 0.0073245273)
(0.17793096 0.035434372 0.0072233358)
(0.18904839 0.03764044 0.0071256055)
(0.20045681 0.039884591 0.0070255541)
(0.2121582 0.042166553 0.0069273314)
(0.22413923 0.044467168 0.0068299154)
(0.23639967 0.046800327 0.0067310744)
(0.24892572 0.049136781 0.0066339003)
(0.26172717 0.051486487 0.0065340103)
(0.27478393 0.053830856 0.0064363105)
(0.28809857 0.05616504 0.0063368873)
(0.30166132 0.058476475 0.0062324609)
(0.315471 0.060765655 0.0061279527)
(0.32952005 0.063010636 0.006018486)
(0.34379894 0.06521365 0.0059050045)
(0.35830552 0.067357657 0.0057885168)
(0.37302935 0.069435929 0.005666488)
(0.38796471 0.071438615 0.0055414563)
(0.40310163 0.073355894 0.0054118325)
(0.41843295 0.075178568 0.0052790395)
(0.43394804 0.076897803 0.0051428203)
(0.44963874 0.078503916 0.0050042477)
(0.46549456 0.079989117 0.0048629838)
(0.48150658 0.081343957 0.0047200646)
(0.49766454 0.082561363 0.0045750732)
(0.51395916 0.083632424 0.0044287495)
(0.53038047 0.084551061 0.0042805716)
(0.54691894 0.085309425 0.0041309062)
(0.56356443 0.085901874 0.0039799009)
(0.58030717 0.086322571 0.0038274512)
(0.59713685 0.086566956 0.0036737294)
(0.6140428 0.086631078 0.0035196931)
(0.63101473 0.086510887 0.0033657993)
(0.64804169 0.086204595 0.0032131264)
(0.66511032 0.085713653 0.0030616464)
(0.68221835 0.085029579 0.0029146938)
(0.69934714 0.084163472 0.0027719439)
(0.71648333 0.083108911 0.0026388725)
(0.73362579 0.081868565 0.002511418)
(0.75076026 0.08044333 0.0023947369)
(0.76788604 0.078842066 0.0022847162)
(0.78499052 0.077062268 0.0021867101)
(0.80207703 0.07511286 0.002098421)
(0.81913201 0.072988295 0.0020227094)
(0.83616726 0.07070728 0.0019551746)
(0.85316981 0.068249255 0.0018994037)
(0.87015065 0.065655523 0.0018476401)
(0.8871075 0.06287653 0.0018090313)
(0.90404089 0.059986573 0.0017646717)
(0.92096485 0.056906922 0.0017365441)
(0.93786553 0.05372525 0.0016956009)
(0.95476902 0.050377538 0.00166535)
(0.9716585 0.046912618 0.0016242612)
(0.98855073 0.043310071 0.001587692)
(1.0054389 0.039600834 0.0015347168)
(1.0223384 0.035756863 0.0014898636)
(1.0392422 0.031812488 0.0014321069)
(1.0561488 0.027769304 0.0013665244)
(1.0730726 0.023625767 0.0013005904)
(1.0899912 0.019378284 0.0012365963)
(1.1069361 0.015097505 0.0011343466)
(1.1238765 0.010693702 0.0010719575)
(1.1408463 0.0062093227 0.00096358004)
(1.1578534 0.0017459559 0.00083527716)
(1.1749051 -0.0029675446 0.00068571954)
(-6.3079356e-05 -0.0010257845 0.0041971522)
(0.00011245032 -0.003979031 0.0050757839)
(0.00083876465 -0.0055822738 0.0060035401)
(0.0014206008 -0.0078610252 0.0066814842)
(0.0025221314 -0.0096946796 0.0070961609)
(0.0038747414 -0.011597189 0.0073916008)
(0.0056965589 -0.013270488 0.0075844278)
(0.0078157054 -0.014886377 0.0077185114)
(0.01037404 -0.01633145 0.0078025961)
(0.013287551 -0.01765017 0.0078148591)
(0.016575498 -0.018799524 0.0078428162)
(0.020240933 -0.01980029 0.0078008889)
(0.024264919 -0.020621306 0.0077867539)
(0.028673936 -0.021276392 0.0077253177)
(0.033430364 -0.021745198 0.0076864485)
(0.038575701 -0.022030577 0.0076097213)
(0.044062679 -0.022118971 0.0075592839)
(0.049942894 -0.022016278 0.0074822514)
(0.056167657 -0.02170944 0.0074157513)
(0.062777128 -0.021203595 0.0073390938)
(0.069739565 -0.020489126 0.0072657317)
(0.077080712 -0.019569027 0.0071834755)
(0.084779185 -0.018443247 0.0071075572)
(0.092848801 -0.0171114 0.0070250797)
(0.10127709 -0.015579535 0.0069437795)
(0.11007236 -0.013840513 0.0068577082)
(0.11922161 -0.011911968 0.0067747858)
(0.12873004 -0.0097865524 0.0066892174)
(0.13859025 -0.0074785922 0.006601988)
(0.14880005 -0.0049892164 0.0065146129)
(0.15935484 -0.0023300782 0.0064291567)
(0.17025016 0.00049155232 0.0063417547)
(0.18147748 0.0034681343 0.0062539551)
(0.19303567 0.0065853897 0.0061676781)
(0.20491733 0.0098367604 0.0060804674)
(0.21711676 0.013206685 0.0059942486)
(0.22963052 0.016683922 0.0059075218)
(0.24244756 0.020253669 0.0058227811)
(0.25555916 0.02390215 0.005735799)
(0.26896494 0.027619028 0.005649017)
(0.28265492 0.031379113 0.0055575547)
(0.29662236 0.03517932 0.0054688023)
(0.31086511 0.038988038 0.0053701946)
(0.32536559 0.042802806 0.0052758643)
(0.34012436 0.046598382 0.005172696)
(0.3551287 0.050359529 0.0050688441)
(0.37036862 0.054069039 0.0049593827)
(0.38583502 0.057710062 0.0048476864)
(0.40151603 0.061264584 0.0047309001)
(0.41740041 0.064716714 0.0046123868)
(0.43347566 0.068049098 0.004489987)
(0.44972985 0.071245376 0.0043660729)
(0.46614968 0.074290167 0.0042395603)
(0.4827228 0.077166896 0.0041119195)
(0.49943589 0.079861642 0.00398252)
(0.51627639 0.082359071 0.0038521656)
(0.5332311 0.084646476 0.0037202894)
(0.55028721 0.086709974 0.0035878695)
(0.56743143 0.08853882 0.0034541849)
(0.58465112 0.090121333 0.0033197596)
(0.60193208 0.091448417 0.0031853355)
(0.61926196 0.092511225 0.0030506855)
(0.63662611 0.093301633 0.0029179238)
(0.65401132 0.093816599 0.0027852639)
(0.67140533 0.094048408 0.0026570533)
(0.68879598 0.09399467 0.0025335902)
(0.70615579 0.09365413 0.0024169774)
(0.72349591 0.093016713 0.0023050826)
(0.74080115 0.092090992 0.0021958074)
(0.75805538 0.090877011 0.0020985741)
(0.77525583 0.089375412 0.0020080364)
(0.79239163 0.087581635 0.0019303164)
(0.80946365 0.08551189 0.0018569093)
(0.82646523 0.08314596 0.0018001818)
(0.84340002 0.080524322 0.0017392161)
(0.86026274 0.077598879 0.0017028437)
(0.87706157 0.074443645 0.0016504566)
(0.89379508 0.070977667 0.0016291396)
(0.91046922 0.067312765 0.0015791544)
(0.92708891 0.063331339 0.0015690958)
(0.94365805 0.059179543 0.0015161305)
(0.96018288 0.054729753 0.0015042215)
(0.97666737 0.050103853 0.0014584419)
(0.99311753 0.045228934 0.0014261826)
(1.0095433 0.040183643 0.0013766669)
(1.0259331 0.034915697 0.0013411668)
(1.0423093 0.029498534 0.0012799132)
(1.0586524 0.023898223 0.0012309713)
(1.0750027 0.018130061 0.0011716414)
(1.0913144 0.012269191 0.001087445)
(1.1076492 0.0062317514 0.0010216825)
(1.1239489 9.4347024e-05 0.00093228217)
(1.1402911 -0.0061159666 0.00081691498)
(1.1566331 -0.012459914 0.0007035747)
(1.1730516 -0.018873283 0.00055606795)
(-0.00084639675 -0.0029959824 0.0036468059)
(-0.00079032851 -0.0072185052 0.0042704533)
(-0.00069065706 -0.010746713 0.0052554601)
(-4.518415e-05 -0.014364407 0.0056845604)
(0.00081556084 -0.017829988 0.0060303424)
(0.002127562 -0.021112152 0.0062293491)
(0.0036854841 -0.024321723 0.0064183777)
(0.0057014924 -0.027329832 0.0065191835)
(0.0080253445 -0.03021449 0.0065618885)
(0.010744044 -0.032841657 0.0066182151)
(0.013816593 -0.035337116 0.0066037189)
(0.017268229 -0.037551678 0.0066142372)
(0.021079898 -0.039590971 0.0065717103)
(0.025259227 -0.041342425 0.0065569865)
(0.029812783 -0.042881257 0.0064981061)
(0.03472821 -0.044130796 0.0064705618)
(0.04002826 -0.045133744 0.0064058123)
(0.045688499 -0.045844404 0.0063612538)
(0.051734598 -0.046284909 0.0062994676)
(0.058151566 -0.046431719 0.0062447212)
(0.064952698 -0.046292392 0.0061807981)
(0.072130027 -0.045861431 0.0061217185)
(0.079690079 -0.045136189 0.0060551559)
(0.087627409 -0.044121152 0.005991097)
(0.095949453 -0.042812563 0.0059215984)
(0.10464806 -0.04122103 0.0058545793)
(0.11372761 -0.039345376 0.0057849684)
(0.12318245 -0.037193496 0.0057129362)
(0.13301265 -0.034773817 0.0056425129)
(0.14321334 -0.032095363 0.0055714532)
(0.15378219 -0.029165687 0.0054981804)
(0.16471236 -0.025997326 0.0054253711)
(0.17600321 -0.022603152 0.0053536299)
(0.18764506 -0.018995927 0.005281125)
(0.19963524 -0.015190468 0.005208465)
(0.21196339 -0.011201485 0.0051369988)
(0.22462176 -0.0070461679 0.0050665255)
(0.23760389 -0.0027432329 0.0049957434)
(0.25091804 0.0016910156 0.0049225882)
(0.26454161 0.0062295177 0.0048453741)
(0.27846895 0.010867398 0.0047727621)
(0.29269565 0.015568649 0.004689986)
(0.30720905 0.020321049 0.0046146696)
(0.32200389 0.025099189 0.0045300792)
(0.33706916 0.02988101 0.0044431848)
(0.3523926 0.034646128 0.0043539246)
(0.3679653 0.039370856 0.0042601005)
(0.3837744 0.044033516 0.0041631964)
(0.39980704 0.048611564 0.004063128)
(0.41604968 0.053083401 0.0039604597)
(0.43248865 0.05742706 0.003854758)
(0.44910887 0.06162153 0.0037477546)
(0.46589604 0.06564603 0.0036382926)
(0.48283481 0.069479995 0.0035281418)
(0.49991039 0.073104642 0.0034163159)
(0.51710755 0.076500421 0.0033037895)
(0.53441116 0.079650266 0.0031903979)
(0.55180611 0.082536776 0.0030764282)
(0.56927724 0.085145213 0.0029615009)
(0.586809 0.087460186 0.0028469649)
(0.60438622 0.089469669 0.0027319419)
(0.62199345 0.091161081 0.0026178401)
(0.63961459 0.092525398 0.0025049595)
(0.65723545 0.093553572 0.0023929109)
(0.67484134 0.09423628 0.0022860818)
(0.69241182 0.09457099 0.0021803236)
(0.70995139 0.094556447 0.0020824674)
(0.72742225 0.094177687 0.0019802588)
(0.7448278 0.093436387 0.0019007079)
(0.76215733 0.092338073 0.0018216168)
(0.77940116 0.090876612 0.0017499617)
(0.79655407 0.089057703 0.0016873672)
(0.81361597 0.086878788 0.0016296536)
(0.83057384 0.084348113 0.001580908)
(0.84744125 0.081462097 0.0015377194)
(0.86420412 0.078229408 0.0015020867)
(0.8808831 0.074658757 0.001466404)
(0.89746021 0.070746911 0.0014409886)
(0.91396408 0.066517486 0.0014095813)
(0.93037567 0.061958513 0.0013885878)
(0.94672258 0.057111293 0.0013542561)
(0.96299435 0.051935679 0.0013399715)
(0.97920232 0.046519681 0.001294528)
(0.99536207 0.040787244 0.001276459)
(1.0114592 0.034833864 0.0012312777)
(1.027521 0.028615675 0.0011998245)
(1.0435312 0.022198031 0.0011430755)
(1.0595183 0.015533702 0.0011087509)
(1.0754691 0.0087324552 0.0010316458)
(1.0913908 0.0017104701 0.00098633885)
(1.1073061 -0.0054505025 0.00090883941)
(1.1231965 -0.01272635 0.00082395806)
(1.1391066 -0.020161801 0.00072907666)
(1.1550154 -0.027645635 0.00061636635)
(1.1709555 -0.03522763 0.000486908)
(-0.0012659029 -0.0036928854 0.0030211747)
(-0.0016380549 -0.0088282199 0.0036698786)
(-0.0015253258 -0.013087877 0.004284109)
(-0.00107148 -0.017536072 0.0046578812)
(-0.00020711085 -0.021681616 0.0049136143)
(0.00092523809 -0.025741234 0.0051092068)
(0.0025130089 -0.029603109 0.0052356278)
(0.0043985435 -0.03334884 0.005287067)
(0.006672897 -0.0368531 0.0053711591)
(0.0093111192 -0.040202597 0.0053638081)
(0.012309287 -0.043306589 0.0053983483)
(0.015674827 -0.046190074 0.0053653908)
(0.019398041 -0.048815742 0.0053722937)
(0.023505411 -0.051181861 0.0053249201)
(0.027956864 -0.053277803 0.0053162833)
(0.032806601 -0.055078867 0.0052637248)
(0.038002616 -0.056594129 0.0052374282)