/*--------------------------------*- C++ -*----------------------------------*\
  =========                 |
  \\      /  F ield         | OpenFOAM: The Open Source CFD Toolbox
   \\    /   O peration     | Website:  https://openfoam.org
    \\  /    A nd           | Version:  6
     \\/     M anipulation  |
\*---------------------------------------------------------------------------*/
FoamFile
{
    version     2.0;
    format      ascii;
    class       pointVectorField;
    location    "0.95";
    object      u;
}
// * * * * * * * * * * * * * * * * * * * * * * * * * * * * * * * * * * * * * //

dimensions      [0 1 0 0 0 0 0];

internalField   nonuniform List<vector> 
625
(
(0 0 0)
(0 0 0)
(2.9685315 -0.51239689 0.11925146)
(2.725059 -1.1647678 0.084451934)
(0 0 0)
(0 0 0)
(2.7342437 -1.207696 0.082339362)
(2.9774823 -0.55573311 0.11791761)
(0 0 0)
(0 0 0)
(0 0 0)
(2.9069543 -0.67595827 0.1097877)
(2.8461773 -0.83793833 0.10176909)
(2.7861575 -1.0007439 0.093083755)
(0.0085269499 0.02952606 0.027231203)
(0.031119879 0.061224978 0.028918309)
(0.07251606 0.090112037 0.031916978)
(0.13262885 0.11576867 0.032834583)
(0.20476024 0.13509766 0.034823512)
(0.29427332 0.14891779 0.036270245)
(0.39400961 0.15609285 0.038674759)
(0.50564312 0.15617832 0.040921661)
(0.62728344 0.15023465 0.044087048)
(0.75695119 0.13700067 0.046717001)
(0.8943082 0.11786894 0.050359441)
(1.037899 0.09242413 0.054072688)
(1.1866193 0.061372958 0.058109435)
(1.3397674 0.02514819 0.062518948)
(1.496364 -0.015740831 0.067217396)
(1.6556862 -0.060896473 0.072268961)
(1.817206 -0.10943793 0.077462137)
(1.9801137 -0.16149333 0.083154483)
(2.1443238 -0.21576264 0.088677034)
(2.3088841 -0.27230202 0.094730627)
(2.4740334 -0.33077598 0.10082392)
(2.6391176 -0.39004003 0.10691201)
(2.8036417 -0.45070622 0.11351417)
(-0.0069631625 -0.02377335 -0.036523123)
(0.0152118 -0.048911132 -0.029681141)
(0.050139124 -0.082438358 -0.033646313)
(0.097670043 -0.11348229 -0.029994778)
(0.15699818 -0.14418658 -0.028005156)
(0.23201227 -0.18308915 -0.024385551)
(0.31418789 -0.21828955 -0.021977658)
(0.40946214 -0.25912664 -0.017471554)
(0.51317151 -0.30254359 -0.013824669)
(0.62618761 -0.34750046 -0.008974182)
(0.74694091 -0.39639522 -0.004080585)
(0.87501288 -0.44706008 0.0014362078)
(1.0094871 -0.50044093 0.0071688568)
(1.1495455 -0.55578168 0.013323078)
(1.2946477 -0.61298713 0.019787764)
(1.4439283 -0.67177098 0.02647208)
(1.5968734 -0.7317989 0.0334505)
(1.7528393 -0.79274733 0.040499437)
(1.911268 -0.85449119 0.047829788)
(2.0717011 -0.9164908 0.055026004)
(2.2336983 -0.97892102 0.0625027)
(2.3966914 -1.0410347 0.069732484)
(2.560565 -1.103035 0.07701219)
(0 0 0)
(0 0 0)
(0 0 0)
(0.0044946455 -0.016166391 0.024298795)
(0.022578427 -0.066991995 0.030273175)
(0.061310236 -0.085839589 0.024440815)
(0.10760704 -0.12118563 0.021644489)
(0.17218787 -0.16433383 0.023275329)
(0.24534679 -0.19505509 0.019437945)
(0.32918542 -0.2386259 0.020884417)
(0.42451871 -0.28119805 0.01994234)
(0.52839383 -0.32702755 0.02103949)
(0.64113371 -0.37559525 0.022257131)
(0.76166072 -0.42576819 0.023572736)
(0.88913651 -0.47956588 0.02589257)
(1.0229895 -0.53448443 0.028389795)
(1.1624413 -0.59188609 0.031441228)
(1.3067913 -0.65072074 0.035030602)
(1.4554386 -0.71082443 0.039002091)
(1.6077335 -0.77206895 0.043443656)
(1.7631568 -0.83397957 0.048272278)
(1.9211116 -0.89636116 0.053421601)
(2.0812302 -0.95901536 0.058889883)
(2.2428599 -1.0215464 0.064587588)
(2.4058652 -1.0840729 0.070506523)
(2.5695722 -1.1459685 0.076567969)
(2.7955471 -1.0435795 0.091227312)
(2.8548582 -0.88089727 0.10026073)
(2.9157709 -0.71955755 0.10954977)
(2.8127414 -0.49408369 0.11037494)
(2.6476436 -0.43311413 0.10301511)
(2.4825153 -0.37314398 0.095505578)
(2.3174878 -0.31410025 0.087802112)
(2.1527748 -0.25662764 0.080086332)
(1.9888341 -0.20111434 0.072327423)
(1.8260315 -0.14793627 0.064620212)
(1.6648303 -0.097772453 0.056988945)
(1.5058131 -0.050955185 0.0494915)
(1.3495719 -0.0081647968 0.042146152)
(1.1967534 0.030073678 0.035060482)
(1.0484078 0.063381041 0.028131545)
(0.90490468 0.090930225 0.021562311)
(0.76795503 0.11311582 0.015039717)
(0.6376677 0.12835884 0.0095501091)
(0.516633 0.13644466 0.0035311449)
(0.40427718 0.13993321 -0.0021788803)
(0.30277201 0.13502495 -0.0066527706)
(0.21483396 0.1234484 -0.01181515)
(0.13856185 0.10588376 -0.015052655)
(0.078445158 0.085760372 -0.021196439)
(0.033451264 0.0560839 -0.021390063)
(0.015704025 0.026251299 -0.018517703)
(0 0 0)
(0 0 0)
(0 0 0)
(0 0 0)
(0 0 0)
(0 0 0)
(2.7270385 -1.1758216 0.083694982)
(2.7294813 -1.1866647 0.083473529)
(2.7315309 -1.1973306 0.082905632)
(2.9712735 -0.52290944 0.11896046)
(2.9735508 -0.53389595 0.11845341)
(2.975815 -0.54454031 0.11821947)
(-0.005212999 0.017269066 0.019157346)
(0.017285802 0.035056724 0.015529689)
(0.057941529 0.049870173 0.017824584)
(0.11402411 0.06108309 0.018315965)
(0.18454446 0.06808069 0.020253329)
(0.2707037 0.069423204 0.022203421)
(0.36671814 0.065140838 0.024366151)
(0.47518619 0.055613428 0.027268325)
(0.5924743 0.039931621 0.030170404)
(0.71885231 0.018403617 0.033461646)
(0.85265452 -0.0081976294 0.037302141)
(0.99271916 -0.040374232 0.041279717)
(1.138413 -0.077179159 0.045699833)
(1.2887571 -0.1184675 0.050443794)
(1.4428557 -0.16377479 0.055512212)
(1.6001301 -0.21248372 0.060844992)
(1.7598212 -0.26435116 0.066508791)
(1.9213745 -0.31869254 0.072403649)
(2.0844627 -0.37508249 0.078395178)
(2.2482505 -0.43335556 0.084837038)
(2.4129005 -0.49290362 0.090931833)
(2.5776039 -0.55311802 0.097539325)
(2.7423339 -0.61468681 0.1039)
(-0.01180744 0.0038138613 0.00038328788)
(0.012784123 0.0050813074 -0.001968988)
(0.049104262 0.0063760623 0.0001547033)
(0.10295779 0.0048617751 0.0020240834)
(0.17140553 -0.0023661111 0.0039052631)
(0.25223998 -0.012560958 0.0063208213)
(0.3452414 -0.027293691 0.0089736728)
(0.44931503 -0.047640117 0.012305544)
(0.56251576 -0.072013206 0.015478867)
(0.68501282 -0.10155924 0.01953596)
(0.81459877 -0.13549086 0.02362548)
(0.95120279 -0.17391031 0.028204638)
(1.0934682 -0.21634622 0.033128706)
(1.2407183 -0.2624475 0.038371681)
(1.3921015 -0.3118632 0.043899508)
(1.5469863 -0.36411343 0.049740959)
(1.704647 -0.41883083 0.055822806)
(1.8645829 -0.47550169 0.06207093)
(2.0262676 -0.53394399 0.068569498)
(2.1890827 -0.59347104 0.075081798)
(2.3530376 -0.65408672 0.081757399)
(2.5172812 -0.71517612 0.088483927)
(2.6822074 -0.77686188 0.095111893)
(-0.01534375 -0.01117179 -0.012848891)
(0.0093309939 -0.021223191 -0.013812949)
(0.042629558 -0.032489964 -0.013743517)
(0.096031527 -0.04955217 -0.012285548)
(0.16019017 -0.070045534 -0.010605219)
(0.23798983 -0.090876159 -0.008275519)
(0.32749608 -0.11894035 -0.0050253639)
(0.42684183 -0.14836337 -0.0020281477)
(0.53635437 -0.18227543 0.0017545221)
(0.65428249 -0.22032592 0.0059589391)
(0.78000926 -0.26149016 0.010333128)
(0.91271646 -0.30662623 0.015352409)
(1.0513096 -0.35469021 0.020567285)
(1.195269 -0.40576098 0.026163982)
(1.3436343 -0.45942188 0.032100267)
(1.4959199 -0.51521048 0.038278432)
(1.6512633 -0.57289666 0.044721256)
(1.8093405 -0.63208573 0.051373463)
(1.9693564 -0.692317 0.05812038)
(2.1311133 -0.75356351 0.065126163)
(2.2939573 -0.81519303 0.071940097)
(2.4576857 -0.87714975 0.079023669)
(2.6219051 -0.93915216 0.085969718)
(0 0 0)
(0 0 0)
(0 0 0)
(0 0 0)
(0 0 0)
(0 0 0)
(0 0 0)
(0 0 0)
(0 0 0)
(0.0082682747 -0.0098537088 -0.016751329)
(0.012814794 -0.013667341 -0.004265682)
(0.012036247 -0.0098217925 0.0073435189)
(0.033837448 -0.059214949 -0.016783875)
(0.034656159 -0.061350809 -0.0030434211)
(0.034011581 -0.05989035 0.014847168)
(0.06395694 -0.083896001 -0.019199678)
(0.069498309 -0.084070314 -0.0054740157)
(0.071027704 -0.091887286 0.012012986)
(0.11046387 -0.11765916 -0.016252633)
(0.11673141 -0.12306418 -0.003833214)
(0.11543005 -0.12183219 0.010212167)
(0.17212258 -0.15435982 -0.015651204)
(0.17682129 -0.15729287 -0.0046878526)
(0.17816712 -0.16299702 0.010399748)
(0.24267387 -0.18908264 -0.013714042)
(0.24895742 -0.1936837 -0.0021049238)
(0.25009929 -0.19694125 0.0098737945)
(0.32635646 -0.22790938 -0.010899368)
(0.33201548 -0.23477388 -0.0022459893)
(0.33357883 -0.23924964 0.011106752)
(0.42014529 -0.26943534 -0.0083585153)
(0.42584325 -0.27388774 0.00055276127)
(0.42763064 -0.2801067 0.011172957)
(0.52321798 -0.3122203 -0.0049376652)
(0.5284662 -0.3198934 0.0027561727)
(0.53047903 -0.32519438 0.012944613)
(0.63532924 -0.35911307 -0.0013483647)
(0.64052659 -0.3660608 0.0057396164)
(0.64281662 -0.37297583 0.014806427)
(0.75526234 -0.4073604 0.0028753138)
(0.76022374 -0.41556414 0.0091128069)
(0.76242775 -0.42251598 0.017097868)
(0.88254098 -0.4590185 0.0075050037)
(0.8871354 -0.46739501 0.012892222)
(0.8895775 -0.47504116 0.020027655)
(1.0161715 -0.51224338 0.01242682)
(1.0206093 -0.52113764 0.017135826)
(1.0229221 -0.52947361 0.023367708)
(1.1555554 -0.56787361 0.01784986)
(1.1596176 -0.57722469 0.021854583)
(1.1619824 -0.58584289 0.027104558)
(1.2999225 -0.62512583 0.023574382)
(1.3037319 -0.63475214 0.026869334)
(1.3060554 -0.64396061 0.031368256)
(1.4485974 -0.68389815 0.029586829)
(1.4521449 -0.69388194 0.032323664)
(1.4544192 -0.70337355 0.036020769)
(1.6009825 -0.74387301 0.035936471)
(1.6042548 -0.75405356 0.038093691)
(1.606502 -0.76391032 0.04104263)
(1.7564593 -0.8047583 0.042458353)
(1.7595327 -0.81517815 0.0440965)
(1.7617284 -0.82529182 0.046440423)
(1.9144687 -0.8663099 0.049203705)
(1.9173188 -0.87683215 0.050412875)
(1.9194966 -0.88715176 0.052103561)
(2.0745837 -0.92823804 0.05603779)
(2.0772846 -0.93891594 0.056845722)
(2.0794392 -0.94939318 0.058020298)
(2.2361937 -0.99034048 0.063029344)
(2.2387412 -1.0009857 0.06344251)
(2.2409227 -1.0115859 0.064132239)
(2.3990843 -1.0523687 0.069942816)
(2.4015445 -1.0631862 0.070098339)
(2.4037247 -1.0739027 0.070365982)
(2.5627376 -1.1142827 0.076895633)
(2.5650496 -1.1249552 0.076708728)
(2.567412 -1.1356227 0.076695331)
(2.9097167 -0.6866666 0.11001789)
(2.9120484 -0.69753016 0.1097255)
(2.9141212 -0.70830287 0.10964339)
(2.8485036 -0.84867497 0.10155493)
(2.8508264 -0.85965873 0.10101209)
(2.8528465 -0.87013407 0.10065525)
(2.7883759 -1.0118712 0.092508115)
(2.790801 -1.0226625 0.09214554)
(2.7929513 -1.0332295 0.091727177)
(0.021496748 0.023576225 0.013606134)
(0.021561841 0.026362686 0.0048645218)
(0.023413209 0.025700921 -0.0055144399)
(0.041352423 0.056610098 0.016249218)
(0.04511327 0.056745456 0.0014263712)
(0.044567199 0.054844466 -0.010432854)
(0.086891644 0.087002633 0.017690481)
(0.087599869 0.085450697 0.0071793841)
(0.089031833 0.085189545 -0.0085850082)
(0.14239818 0.10980822 0.01962977)
(0.14656867 0.10815761 0.0077289295)
(0.14703537 0.10771598 -0.0051795973)
(0.21717053 0.13055261 0.022618017)
(0.22174166 0.12731615 0.010318684)
(0.22195264 0.12531061 -0.00093759433)
(0.30524742 0.14215088 0.024120606)
(0.30795783 0.13825029 0.014959)
(0.30994763 0.13625016 0.0025055018)
(0.40445093 0.14866524 0.027496176)
(0.40865932 0.14459895 0.017720523)
(0.41026463 0.14135808 0.006761622)
(0.51600393 0.14834423 0.030545141)
(0.51983845 0.14348632 0.021591935)
(0.5211782 0.14028953 0.011638395)
(0.63644154 0.14220839 0.034323053)
(0.64012425 0.13549414 0.025833667)
(0.64236629 0.13126105 0.016753213)
(0.76599582 0.12782392 0.037836345)
(0.76949478 0.12176088 0.030835834)
(0.77153402 0.11641187 0.021815598)
(0.90252466 0.1082227 0.042177238)
(0.90588291 0.10143353 0.035155935)
(0.9079702 0.095720604 0.027480732)
(1.0453556 0.082505862 0.046627795)
(1.0486597 0.074996424 0.040507128)
(1.0508716 0.068606128 0.033570367)
(1.1934652 0.051151408 0.051469795)
(1.1966363 0.043064358 0.045960518)
(1.1987527 0.036142748 0.039750726)
(1.3459677 0.014687019 0.056584859)
(1.3489273 0.0061099084 0.051763162)
(1.3510449 -0.0013754146 0.046296462)
(1.5019287 -0.026422147 0.062068718)
(1.5047506 -0.035463926 0.057811634)
(1.5068797 -0.043473321 0.053072468)
(1.660699 -0.071666509 0.067712701)
(1.6634049 -0.081106939 0.064109172)
(1.6654615 -0.089561804 0.060033425)
(1.8216677 -0.12042501 0.073746977)
(1.8241986 -0.13021694 0.070622955)
(1.8262808 -0.13917837 0.067208206)
(1.9841543 -0.17241074 0.0798572)
(1.986652 -0.18246612 0.077264596)
(1.9886896 -0.19173282 0.07445963)
(2.1478425 -0.22673692 0.086184883)
(2.1502125 -0.23710696 0.084147775)
(2.1522791 -0.24680659 0.081831245)
(2.3121405 -0.28338186 0.092856392)
(2.3146021 -0.29386487 0.090896023)
(2.3166265 -0.30386103 0.089206368)
(2.4769834 -0.34171051 0.099211919)
(2.4793042 -0.35244783 0.097861054)
(2.4813438 -0.36258944 0.096595121)
(2.6417561 -0.40118112 0.10566964)
(2.6440878 -0.41165234 0.10483523)
(2.6461998 -0.42222575 0.10387852)
(2.8067248 -0.46159314 0.11266284)
(2.8088953 -0.47236153 0.11184452)
(2.8110979 -0.48318205 0.11123521)
(-0.00092942845 0.0091755969 -0.011669383)
(0.024140715 0.035022161 -0.011998017)
(0.062678757 0.041394025 -0.0070940946)
(0.12259813 0.052016988 -0.0067828933)
(0.19447978 0.055495284 -0.0026755829)
(0.28003692 0.054379401 0.00035802215)
(0.37805913 0.047639223 0.0040874694)
(0.4858593 0.035082774 0.0084195373)
(0.6040151 0.016918869 0.012719063)
(0.73006915 -0.006879924 0.017759067)
(0.86351196 -0.035999678 0.022667131)
(1.0034274 -0.070515338 0.02834021)
(1.1487138 -0.1094371 0.034080646)
(1.2986068 -0.15273583 0.040138189)
(1.4523296 -0.19987543 0.046519182)
(1.6091884 -0.25025888 0.053043834)
(1.7685527 -0.30349201 0.05983869)
(1.9299137 -0.35909518 0.066725798)
(2.0927071 -0.41654883 0.073768175)
(2.2566177 -0.47553401 0.080834627)
(2.4211955 -0.53563623 0.087991684)
(2.5859508 -0.59637211 0.095058378)
(2.7510925 -0.65809308 0.10234627)
(-0.0095578398 0.0042387793 0.0023265491)
(0.015260392 0.0054826274 0.0013439351)
(0.056746959 -0.0012060485 0.0036387836)
(0.11290325 -0.0031841123 0.003247646)
(0.18147976 -0.014121476 0.0049734364)
(0.26458698 -0.027125389 0.0073051013)
(0.35781323 -0.044931865 0.009262658)
(0.46242493 -0.067595524 0.012309451)
(0.57607209 -0.095219609 0.015545506)
(0.69821966 -0.12691923 0.018987944)
(0.82780424 -0.16355357 0.023037058)
(0.9640329 -0.20440838 0.027381676)
(1.1057964 -0.2488574 0.032057418)
(1.252572 -0.29709779 0.037183721)
(1.4034427 -0.34819568 0.042558892)
(1.5577605 -0.40208145 0.04827956)
(1.7150053 -0.45809894 0.054289684)
(1.8744988 -0.51599503 0.060456903)
(2.0358449 -0.57523972 0.066934419)
(2.1985432 -0.63557049 0.07343501)
(2.3622574 -0.69665291 0.080089694)
(2.5263662 -0.75805293 0.086788943)
(2.6916489 -0.82014737 0.093473625)
(-0.013522438 -0.011157737 0.011272568)
(0.017287291 -0.017172373 0.011458459)
(0.05458008 -0.043838892 0.016149354)
(0.10618266 -0.053267697 0.01211739)
(0.17419257 -0.080652627 0.014971939)
(0.25216412 -0.10563323 0.015052352)
(0.34196637 -0.13384147 0.015688885)
(0.44222233 -0.16894327 0.017834961)
(0.55139399 -0.20420592 0.019245397)
(0.66941643 -0.24573337 0.021883704)
(0.79461432 -0.28943901 0.02457845)
(0.92685771 -0.33690528 0.027696419)
(1.0648075 -0.38738007 0.031402444)
(1.208137 -0.4404501 0.035322265)
(1.3558063 -0.49596504 0.039767575)
(1.5073759 -0.55337716 0.044524877)
(1.6621656 -0.61242595 0.049636561)
(1.8196134 -0.67271836 0.055049002)
(1.979248 -0.73392117 0.060768941)
(2.1406151 -0.79576386 0.066594817)
(2.3031955 -0.85783154 0.07278099)
(2.466864 -0.92013353 0.07880036)
(2.6309452 -0.98206794 0.085321764)
(0.0042531258 0.0085584775 0.0088857361)
(0.0041907456 0.0092329529 0.0036135426)
(0.0077368809 0.0077626632 -0.0047753103)
(0.030025346 0.033455761 0.00723745)
(0.034511688 0.032935021 0.00021663641)
(0.031925681 0.032688449 -0.0068897004)
(0.071009848 0.045058226 0.00924364)
(0.07214702 0.043520968 0.0036687136)
(0.073282544 0.041729823 -0.0026257335)
(0.12593184 0.056916012 0.010902071)
(0.13058473 0.055071893 0.0045024758)
(0.13046187 0.052330036 -0.0017398684)
(0.19753313 0.062231968 0.012105847)
(0.20158724 0.058906339 0.0071848863)
(0.20242891 0.056168557 0.0016518322)
(0.28184186 0.06248644 0.015196251)
(0.28600255 0.059262719 0.01012221)
(0.28622877 0.055529351 0.0045417556)
(0.37778474 0.057919449 0.017759983)
(0.38224645 0.053829856 0.012808804)
(0.38378677 0.049516487 0.0081876412)
(0.48531461 0.047737554 0.020772492)
(0.48978537 0.041988015 0.016571726)
(0.49072804 0.037125127 0.011663515)
(0.60207487 0.030743487 0.024456524)
(0.60639545 0.025468819 0.020269581)
(0.60794311 0.020236512 0.016397106)
(0.7276803 0.0094157683 0.028066487)
(0.73197667 0.0027804031 0.024297625)
(0.73340667 -0.0034093419 0.020483811)
(0.86075203 -0.017925161 0.032382393)
(0.86461494 -0.025121836 0.029071452)
(0.86627505 -0.031406239 0.025499836)
(1.0000561 -0.050410195 0.036838326)
(1.0039399 -0.058018223 0.033752924)
(1.0056774 -0.065241688 0.030664037)
(1.1451469 -0.087485671 0.041687326)
(1.148767 -0.095770966 0.038972798)
(1.1504692 -0.10339636 0.036251933)
(1.294774 -0.12911262 0.046902728)
(1.2981664 -0.13777259 0.044503545)
(1.2999098 -0.1459579 0.04205416)
(1.448262 -0.17453887 0.052365061)
(1.4514687 -0.18369605 0.050264779)
(1.4532409 -0.1923331 0.0481676)
(1.6049706 -0.22347664 0.058148133)
(1.6079697 -0.23297048 0.056365971)
(1.6097118 -0.24203997 0.054519491)
(1.7640985 -0.27535553 0.064185095)
(1.7669313 -0.28518865 0.062639499)
(1.7687305 -0.29467635 0.061101702)
(1.9252551 -0.32979826 0.07040801)
(1.9279474 -0.33993476 0.069158346)
(1.9297072 -0.34966771 0.067822723)
(2.0878849 -0.38617628 0.076829778)
(2.0903574 -0.39653334 0.075771089)
(2.0922442 -0.4067055 0.074720133)
(2.2512734 -0.44443074 0.083452774)
(2.2538979 -0.45505313 0.08259555)
(2.2556934 -0.4652555 0.081611196)
(2.41559 -0.50384712 0.089865484)
(2.418333 -0.51451366 0.08940439)
(2.4200482 -0.52496627 0.088648436)
(2.5802022 -0.5642067 0.096769494)
(2.582523 -0.57478366 0.096286553)
(2.5844063 -0.5855514 0.095570071)
(2.744964 -0.62534225 0.10343638)
(2.7471435 -0.63617693 0.10298429)
(2.7492921 -0.64698305 0.10259752)
(-0.0041041633 0.002582848 -0.00082736583)
(-0.0016327618 0.0029111717 -0.0018841135)
(0.0010904604 0.0035290004 0.00029679888)
(0.022700845 0.0045356839 -0.0042174678)
(0.026368933 0.0050025317 -0.002536295)
(0.023487216 0.0031515827 -0.001039786)
(0.061820557 0.0034372276 -0.00095362431)
(0.064690498 0.0010843844 0.0016248407)
(0.065332209 0.00018925756 0.001734403)
(0.11390837 -2.4269534e-05 -0.0006153371)
(0.12068608 -0.0032949619 0.0011359703)
(0.11935383 -0.0061558064 0.0017825794)
(0.18324517 -0.007401451 0.0021114263)
(0.18821316 -0.011794539 0.004863516)
(0.18730145 -0.013126145 0.0032741624)
(0.26328871 -0.019000303 0.0046024405)
(0.26861333 -0.023849356 0.0058702305)
(0.26902222 -0.02695908 0.0061000279)
(0.35584913 -0.034296839 0.0067756835)
(0.36132788 -0.040619721 0.008966999)
(0.36150581 -0.044266889 0.0076355729)
(0.45941897 -0.055835276 0.010657907)
(0.46455811 -0.062143398 0.012043902)
(0.46501917 -0.065429165 0.01132405)
(0.57196442 -0.080391913 0.0136231)
(0.57685179 -0.087675724 0.014901091)
(0.57799906 -0.092752199 0.014087374)
(0.69378722 -0.11071601 0.017802504)
(0.69857003 -0.1185932 0.019133801)
(0.69963526 -0.1236296 0.018208223)
(0.82274175 -0.1452731 0.02205033)
(0.82708826 -0.15343309 0.023020941)
(0.82848558 -0.15945389 0.02201898)
(0.9586085 -0.18399777 0.02661763)
(0.96285071 -0.1927956 0.027491941)
(0.96435346 -0.19934866 0.026600939)
(1.1002537 -0.22679004 0.031710536)
(1.1041799 -0.23600866 0.032454457)
(1.1056578 -0.24315748 0.031434563)
(1.2467818 -0.27318624 0.036999749)
(1.2504233 -0.28281002 0.037532217)
(1.2520686 -0.29047685 0.036619714)
(1.3976097 -0.32277545 0.042670761)
(1.4010192 -0.33267214 0.043117492)
(1.4026713 -0.340945 0.042187271)
(1.5518802 -0.3751936 0.048598605)
(1.5550333 -0.38540237 0.048894964)
(1.5567447 -0.39411235 0.04799813)
(1.7090493 -0.42996538 0.054799805)
(1.7119933 -0.4403745 0.054976854)
(1.7137208 -0.44957258 0.054135483)
(1.8685271 -0.48674089 0.061163837)
(1.8712417 -0.49737996 0.061250208)
(1.8730774 -0.50688477 0.060425196)
(2.0297574 -0.54510061 0.067762119)
(2.0323876 -0.5558066 0.067711542)
(2.0341866 -0.56574699 0.067011675)
(2.1923957 -0.60466086 0.07435638)
(2.1946935 -0.61566747 0.074313391)
(2.1967098 -0.62566113 0.073578879)
(2.3561529 -0.66521447 0.081307798)
(2.3580447 -0.6760293 0.080785776)
(2.3603721 -0.68644285 0.080395)
(2.5198705 -0.72626776 0.087895173)
(2.5222769 -0.73696513 0.087724385)
(2.5241751 -0.74761013 0.087043535)
(2.6847107 -0.78773021 0.094665307)
(2.6870742 -0.79874775 0.094307718)
(2.6893425 -0.80929318 0.093926633)
(-0.0043970819 -0.0075901901 -0.0059248117)
(-0.0046545254 -0.0070593979 -0.00059687473)
(-0.0045402086 -0.0065052114 0.0050616723)
(0.024007805 -0.020616236 -0.0081985017)
(0.027813413 -0.016663506 -0.00029790675)
(0.025743046 -0.019565411 0.0062270938)
(0.057143392 -0.035816881 -0.0076079424)
(0.06166241 -0.042393703 0.00043853579)
(0.062941275 -0.042719407 0.0081966526)
(0.11043934 -0.055988991 -0.0071357342)
(0.11386076 -0.054954227 0.00019446545)
(0.11480203 -0.057849981 0.0063057724)
(0.17371192 -0.074828653 -0.0048127228)
(0.17870827 -0.080008387 0.0018801191)
(0.18041711 -0.081606489 0.0080691487)
(0.25104044 -0.099259005 -0.0038487733)
(0.25550567 -0.10328928 0.0026379516)
(0.25730224 -0.10683401 0.0078672579)
(0.33957519 -0.12734695 -0.00061732084)
(0.34415994 -0.13185526 0.0053965246)
(0.34659619 -0.13494359 0.010047547)
(0.43833722 -0.15735827 0.0019359237)
(0.44265712 -0.16325617 0.0067183821)
(0.44538191 -0.16823435 0.011511335)
(0.54687632 -0.19244651 0.0051195723)
(0.55127038 -0.19850003 0.010134134)
(0.55416487 -0.2036276 0.014329052)
(0.66400689 -0.23084824 0.0091014778)
(0.66823731 -0.23773294 0.013208186)
(0.67117241 -0.24361021 0.016807473)
(0.78885569 -0.27253147 0.012990703)
(0.7928501 -0.28001803 0.016712053)
(0.79597115 -0.28668557 0.02011881)
(0.92072291 -0.31805405 0.017645222)
(0.9245829 -0.32600546 0.02095239)
(0.92761869 -0.33322807 0.023735362)
(1.0585073 -0.36635241 0.022516712)
(1.0620685 -0.37491635 0.025271085)
(1.06514 -0.38276082 0.027769924)
(1.2016784 -0.41770618 0.027760032)
(1.2050935 -0.4265846 0.030147415)
(1.208047 -0.43494945 0.032251602)
(1.3493507 -0.47141099 0.033395303)
(1.3525096 -0.48072145 0.035361472)
(1.3554225 -0.48963636 0.037083528)
(1.5009275 -0.5272928 0.03928295)
(1.5039236 -0.53697731 0.040884019)
(1.5066881 -0.54627138 0.042265006)
(1.6557226 -0.58498846 0.045480795)
(1.6584948 -0.59489205 0.046712452)
(1.6612173 -0.60459229 0.04781088)
(1.8132165 -0.64406035 0.051874554)
(1.8158889 -0.65430142 0.05282939)
(1.8184885 -0.6642779 0.053590845)
(1.9728175 -0.70429976 0.058462073)
(1.9753078 -0.71463383 0.059101845)
(1.9778304 -0.72485499 0.059654803)
(2.1341422 -0.76529548 0.065248745)
(2.1366118 -0.77588688 0.065597719)
(2.1390783 -0.78628345 0.065877001)
(2.2966573 -0.82676876 0.071903422)
(2.2989838 -0.83733951 0.072146122)
(2.3014105 -0.84784106 0.0722704)
(2.4601545 -0.88858061 0.078870955)
(2.4624965 -0.8993275 0.078918857)
(2.4649585 -0.90994717 0.078797816)
(2.6240972 -0.95037247 0.085676062)
(2.6264119 -0.96095898 0.085494933)
(2.6286821 -0.97177113 0.085174992)
)
;

boundaryField
{
    free
    {
        type            calculated;
    }
    fixed
    {
        type            calculated;
    }
    traction
    {
        type            calculated;
    }
}


// ************************************************************************* //
