/*--------------------------------*- C++ -*----------------------------------*\
  =========                 |
  \\      /  F ield         | OpenFOAM: The Open Source CFD Toolbox
   \\    /   O peration     | Website:  https://openfoam.org
    \\  /    A nd           | Version:  6
     \\/     M anipulation  |
\*---------------------------------------------------------------------------*/
FoamFile
{
    version     2.0;
    format      ascii;
    class       pointVectorField;
    location    "1.57";
    object      lm;
}
// * * * * * * * * * * * * * * * * * * * * * * * * * * * * * * * * * * * * * //

dimensions      [1 -2 -1 0 0 0 0];

internalField   nonuniform List<vector> 
28033
(
(-1.780536e-14 4.8656612e-16 1.3104288e-15)
(-5.4375576e-15 3.3318594e-15 9.9433006e-16)
(4783.7601 2190.4698 32.543721)
(5260.1478 573.36042 -12.22049)
(-1.338461e-14 3.0090723e-15 -2.870051e-16)
(-1.2587315e-14 4.9008913e-15 -4.4266115e-15)
(5248.7568 592.20885 26.917701)
(4786.8293 2195.7652 -8.4645182)
(-5.6329745e-15 1.0535579e-15 6.7193838e-16)
(-2.4534443e-15 3.0423504e-16 5.8836893e-16)
(-5.4923298e-15 2.4302826e-15 8.9528572e-16)
(-2.6209443e-15 -1.1537891e-15 -6.7979696e-16)
(-7.2548563e-15 1.5542294e-15 1.0013199e-15)
(-4.7613589e-15 -9.2108094e-16 -7.3952737e-16)
(-1.132389e-15 -2.2256662e-17 -6.4484848e-16)
(-7.4239857e-16 -2.4218299e-16 -3.6669977e-16)
(-1.1196198e-15 4.5550132e-16 8.383863e-16)
(-2.3465882e-16 2.2667819e-16 1.4996246e-15)
(-4.0583243e-15 -8.7236639e-16 -1.3429605e-15)
(-5.8237189e-15 8.4462789e-16 7.5519031e-16)
(-5.1611762e-15 1.0100276e-15 9.7613867e-16)
(-1.7679952e-15 -8.1010255e-16 4.5192313e-16)
(-4.4158752e-15 1.0299569e-15 -9.452958e-16)
(4811.1622 2096.3461 33.589624)
(4840.7802 2002.0599 35.161503)
(4872.0978 1905.8789 35.408044)
(4904.7319 1807.7786 34.449324)
(4938.242 1706.5077 32.448915)
(4971.9315 1602.5955 28.379844)
(5005.5628 1496.3267 23.77648)
(5038.078 1388.7435 18.004535)
(5069.4659 1280.4035 12.023243)
(5099.5866 1173.0041 6.0798309)
(5127.8493 1066.9813 0.84813723)
(5155.0822 963.52164 -3.1347804)
(5181.1944 862.63033 -6.3181528)
(5206.9558 764.49956 -8.6206541)
(5233.2084 668.55119 -10.033667)
(15.390601 33.582984 36.500547)
(16.157174 50.824802 50.220673)
(23.039357 67.382857 56.187804)
(33.154599 86.070803 57.830346)
(45.399975 104.81641 57.024054)
(59.317036 125.09592 55.30178)
(74.610198 145.7784 53.572568)
(90.694286 167.29081 52.36775)
(107.7878 188.91224 52.065441)
(125.72544 211.14332 52.556747)
(145.16044 233.16896 53.653413)
(166.13106 255.67438 55.097891)
(189.47174 277.79445 56.469644)
(215.49845 300.26195 57.199731)
(244.94384 322.26479 56.613772)
(277.97853 344.31739 54.445407)
(315.06671 365.98526 50.411287)
(356.39447 387.37163 44.182928)
(401.58829 408.05424 35.398735)
(450.48615 428.12014 24.625013)
(502.63146 447.48004 11.92322)
(557.05613 465.54919 -2.3856565)
(613.1069 482.6059 -17.466453)
(669.76744 498.36209 -32.98396)
(725.72512 512.36005 -47.949678)
(779.99638 525.15793 -61.593798)
(831.61058 536.04224 -73.372919)
(879.64363 545.60944 -82.525371)
(923.14769 553.57994 -88.393326)
(961.57576 560.12634 -90.825146)
(995.03875 566.05209 -89.261271)
(1023.015 571.01057 -84.151543)
(1046.164 575.3798 -75.293579)
(1064.7668 580.27763 -63.738602)
(1079.5973 585.22561 -48.753511)
(1092.0039 591.35714 -32.336256)
(1102.7542 598.55089 -15.023988)
(1113.2634 607.56711 2.769311)
(1124.8089 618.62087 19.929003)
(1138.4534 631.69299 35.383531)
(1155.4866 647.19963 48.727969)
(1176.574 665.07534 59.264908)
(1202.5645 685.39321 66.524053)
(1233.8351 707.91984 70.201298)
(1270.5692 732.49965 70.458376)
(1312.6548 758.83597 67.313065)
(1359.6719 786.55983 61.206765)
(1411.0422 815.38863 52.658668)
(1465.9292 844.88263 42.334327)
(1523.4589 874.76899 30.970381)
(1582.6177 904.6858 19.346083)
(1642.4689 934.43812 8.2114783)
(1702.0963 963.81396 -1.7409738)
(1760.7564 992.75362 -9.9356137)
(1817.8641 1021.226 -15.937686)
(1873.0703 1049.3167 -19.483312)
(1926.2588 1077.1561 -20.494609)
(1977.5671 1104.9463 -19.076299)
(2027.3657 1132.9092 -15.51038)
(2076.231 1161.2994 -10.235565)
(2124.9219 1190.3286 -3.7972469)
(2174.2659 1220.2426 3.155442)
(2225.2148 1251.1261 9.9429649)
(2278.6545 1283.1226 15.923379)
(2335.297 1316.2086 20.525804)
(2396.119 1350.3123 23.045774)
(2461.2699 1385.2295 23.343344)
(2531.203 1420.6235 21.117088)
(2605.9521 1456.382 16.380052)
(2685.1657 1491.9384 8.9797955)
(2768.3182 1527.0967 -0.21901644)
(2854.9465 1561.4173 -11.18197)
(2944.0074 1594.5026 -23.169736)
(3034.5805 1626.1294 -35.570501)
(3125.6112 1656.0667 -47.642494)
(3216.0649 1684.1676 -58.713644)
(3305.0022 1710.4305 -68.115329)
(3391.5827 1734.9376 -75.307501)
(3475.1881 1757.8191 -79.859197)
(3555.4719 1779.4492 -81.482615)
(3632.1726 1800.1011 -80.147898)
(3705.5477 1820.2073 -75.792912)
(3775.942 1840.2792 -68.83534)
(3843.9507 1860.5424 -59.426063)
(3910.3399 1881.6398 -48.330835)
(3976.2072 1903.8588 -36.051799)
(4042.5851 1927.4692 -23.396712)
(4110.6033 1952.8292 -11.073702)
(4181.2573 1979.6718 0.38454349)
(4255.3801 2008.4825 10.2117)
(4333.8586 2038.2148 18.10908)
(4416.6724 2069.7254 23.983649)
(4504.0024 2101.1337 27.334607)
(4595.5752 2132.3305 29.958092)
(4689.415 2162.746 30.29029)
(20.686473 -37.944398 -53.207304)
(34.760797 -60.046391 -62.529305)
(45.692045 -82.440983 -81.665257)
(53.905936 -101.45037 -95.374144)
(68.953929 -121.47785 -105.6521)
(84.228313 -140.29647 -114.86765)
(102.82413 -158.85291 -121.07652)
(124.24421 -176.69445 -126.29284)
(148.20082 -194.39749 -129.46115)
(175.02929 -211.58552 -131.49441)
(204.81797 -228.80267 -132.12656)
(237.45603 -245.60285 -131.69911)
(273.36302 -262.2406 -130.28127)
(312.4201 -278.42487 -128.11904)
(354.68662 -293.88916 -125.14235)
(400.30199 -308.47383 -121.75488)
(448.79086 -321.65168 -117.85493)
(500.34473 -333.23158 -113.65098)
(554.32046 -342.76282 -109.42522)
(610.31424 -349.75657 -105.0206)
(667.73868 -354.29335 -100.66806)
(726.00005 -355.75933 -96.62144)
(784.18802 -354.38151 -92.644071)
(841.59182 -350.13583 -89.130867)
(897.59916 -342.92698 -85.967819)
(951.27276 -333.50683 -83.365854)
(1001.9239 -321.81343 -81.178897)
(1049.269 -308.81604 -79.729579)
(1092.5916 -294.72791 -78.558104)
(1132.0096 -280.59788 -78.255395)
(1167.1193 -266.75505 -78.269164)
(1198.7259 -253.98603 -78.769067)
(1226.734 -242.85782 -79.599151)
(1251.9122 -233.89354 -80.682035)
(1275.061 -227.32246 -81.935643)
(1296.9914 -223.60964 -82.865334)
(1318.4372 -222.69965 -84.02889)
(1340.5197 -224.34963 -84.72131)
(1364.181 -228.55351 -84.945248)
(1390.1214 -234.84008 -84.659693)
(1419.0232 -242.71638 -83.791338)
(1451.5136 -251.61841 -82.28006)
(1487.8377 -260.91258 -80.145845)
(1528.2392 -269.96375 -77.41364)
(1572.5846 -278.15219 -74.175859)
(1620.708 -284.92621 -70.530252)
(1672.1401 -289.82299 -66.638745)
(1726.3933 -292.48885 -62.652357)
(1782.7929 -292.71137 -58.768114)
(1840.6942 -290.40594 -55.158468)
(1899.3948 -285.62974 -52.010571)
(1958.2951 -278.56136 -49.471314)
(2016.8514 -269.48432 -47.670506)
(2074.6908 -258.75867 -46.681897)
(2131.5765 -246.79438 -46.536836)
(2187.4766 -234.01097 -47.203863)
(2242.5252 -220.81306 -48.596696)
(2297.0485 -207.5495 -50.570875)
(2351.5122 -194.49917 -52.93657)
(2406.5129 -181.8358 -55.460716)
(2462.7141 -169.63371 -57.891535)
(2520.8145 -157.84567 -59.96485)
(2581.4845 -146.32455 -61.426337)
(2645.3198 -134.82108 -62.048058)
(2712.7991 -123.01485 -61.653036)
(2784.2454 -110.54599 -60.095095)
(2859.7712 -97.022095 -57.326725)
(2939.3765 -82.036707 -53.351906)
(3022.6823 -65.273726 -48.270025)
(3109.1753 -46.474611 -42.136873)
(3198.3407 -25.552612 -35.458811)
(3289.292 -2.2711312 -28.230309)
(3381.2803 23.134508 -20.868192)
(3473.2789 50.5771 -13.722378)
(3564.4658 79.715087 -7.1212707)
(3653.9901 110.16154 -1.3798516)
(3741.1868 141.44428 3.2408383)
(3825.5564 173.03098 6.5304781)
(3906.7614 204.38995 8.3685095)
(3984.7696 234.98331 8.7049538)
(4059.7391 264.35472 7.6161689)
(4132.0609 292.10237 5.2310645)
(4202.37 317.94594 1.806574)
(4271.4116 341.72527 -2.385471)
(4340.112 363.4246 -6.9625979)
(4409.4002 383.16632 -11.583599)
(4480.2534 401.21114 -15.837585)
(4553.5292 417.9566 -19.426314)
(4629.9988 433.88376 -22.015406)
(4710.1973 449.57526 -23.445215)
(4794.4184 465.68703 -23.603557)
(4882.6513 482.82122 -22.522607)
(4974.5004 501.67823 -20.405538)
(5069.0891 522.84875 -17.585928)
(5164.8236 546.70186 -14.494202)
(3.2927448e-15 -1.3239155e-15 2.3845803e-16)
(2.4470133e-15 -9.6672015e-16 3.215493e-17)
(-9.0574249e-15 9.0550918e-16 6.4029168e-16)
(-1.2642219e-16 -5.721845e-16 4.4370095e-16)
(-7.6811722e-15 -4.9270561e-16 4.1193361e-16)
(-7.3893964e-15 2.7533729e-15 -1.0951501e-15)
(-3.2915852e-15 -8.1743692e-16 3.8364228e-16)
(-1.9032499e-15 5.3200654e-16 -8.2319016e-17)
(-4.7409759e-15 -4.8623412e-16 4.3918642e-16)
(-1.2869644e-14 1.1845665e-15 6.4228907e-16)
(-9.6157521e-15 1.4157374e-15 5.9836601e-16)
(-9.4077204e-15 4.9518432e-16 1.1192419e-15)
(-5.982767e-15 2.6210694e-16 3.0473736e-16)
(-1.1478475e-14 -5.3386198e-16 1.6580808e-15)
(-5.257323e-15 3.6289085e-16 2.8600704e-16)
(19.525088 -11.561056 25.171492)
(29.275341 -44.405664 32.275782)
(42.091187 -56.069507 27.922442)
(60.339902 -78.482187 28.208534)
(76.866389 -95.164075 23.014967)
(97.326065 -115.03912 19.716464)
(118.02249 -133.65137 17.169421)
(140.24082 -152.26329 15.392516)
(163.61566 -171.18556 15.552509)
(188.44668 -189.03801 16.762003)
(214.71156 -207.06424 18.863249)
(242.87594 -224.03516 22.044901)
(273.8702 -240.24777 25.164953)
(307.07939 -255.25411 27.99038)
(344.37596 -269.1396 30.055834)
(384.48789 -280.84884 30.698628)
(428.62592 -291.13353 29.503417)
(476.95891 -299.34347 26.554489)
(528.41894 -304.5971 20.791228)
(583.87431 -308.32133 13.226762)
(641.75691 -308.57367 3.5696984)
(701.75192 -306.63563 -8.0240437)
(762.98045 -302.92245 -20.877478)
(824.64572 -296.06194 -34.494945)
(885.47759 -287.9289 -47.90875)
(944.38986 -278.08286 -60.813729)
(1001.3156 -267.11212 -72.02096)
(1052.9285 -255.55844 -81.653489)
(1102.298 -244.3223 -88.1338)
(1144.4556 -232.66623 -91.81104)
(1183.2687 -222.64239 -92.106027)
(1216.2349 -213.64498 -88.72483)
(1244.6604 -206.34994 -82.065565)
(1268.8178 -200.88565 -72.201429)
(1289.1797 -196.92078 -60.014417)
(1307.9605 -196.4355 -45.540457)
(1324.3322 -195.51785 -29.262364)
(1340.8557 -197.66132 -13.064238)
(1358.4506 -200.59771 3.1969407)
(1377.9275 -204.46527 18.326504)
(1400.577 -208.73483 31.724956)
(1427.0844 -212.90276 42.747972)
(1458.1265 -216.58428 50.949931)
(1494.0489 -219.27239 55.991526)
(1535.0135 -220.68699 57.798877)
(1580.8588 -220.47531 56.394598)
(1631.2643 -218.51377 52.05882)
(1685.6486 -214.67498 45.169244)
(1743.3238 -209.02354 36.280343)
(1803.4697 -201.658 26.004295)
(1865.25 -192.81392 15.035845)
(1927.8304 -182.75723 4.0513692)
(1990.4743 -171.82796 -6.2906975)
(2052.5617 -160.36506 -15.421505)
(2113.6582 -148.71133 -22.88153)
(2173.5231 -137.17004 -28.351339)
(2232.1378 -125.98636 -31.672166)
(2289.6921 -115.33066 -32.842657)
(2346.5754 -105.27864 -32.026919)
(2403.3377 -95.81333 -29.518656)
(2460.6477 -86.816818 -25.737974)
(2519.2433 -78.085698 -21.175344)
(2579.8672 -69.341554 -16.36875)
(2643.2148 -60.251332 -11.860363)
(2709.8739 -50.454362 -8.1356487)
(2780.2921 -39.569041 -5.6313885)
(2854.6823 -27.37486 -4.6531134)
(2933.2945 -13.058277 -5.4748169)
(3015.1985 2.9126267 -8.0097384)
(3101.2271 20.420141 -12.046764)
(3189.7153 40.726936 -17.686793)
(3280.3278 62.739684 -24.273325)
(3372.1693 86.635306 -31.440302)
(3464.2136 112.0464 -38.616221)
(3555.5962 138.63159 -45.270799)
(3645.4224 165.95718 -50.841036)
(3732.9566 193.56341 -54.845655)
(3817.6341 220.98888 -56.886384)
(3899.1036 247.78514 -56.690171)
(3977.2623 273.56597 -54.131707)
(4052.2561 298.01088 -49.243026)
(4124.4829 320.91081 -42.21459)
(4194.5554 342.1544 -33.389167)
(4263.2767 361.7711 -23.233312)
(4331.5704 379.89032 -12.314626)
(4400.4341 396.78172 -1.258499)
(4470.8588 412.78753 9.2953523)
(4543.7618 428.36148 18.731654)
(4619.9215 443.97718 26.52169)
(4699.8947 460.16967 32.244987)
(4783.9766 477.43181 35.665084)
(4872.103 496.23967 36.735874)
(4963.8603 517.00528 35.683518)
(5058.1512 539.98857 32.975047)
(5154.0157 564.94211 29.651653)
(5220.9151 687.02355 25.103204)
(5195.0805 781.30748 23.719389)
(5170.434 877.34771 22.31814)
(5145.1654 976.4396 20.019632)
(5119.8859 1077.1422 17.218254)
(5092.9843 1181.1928 13.657822)
(5064.8025 1285.8769 9.5093126)
(5035.0371 1392.015 5.2578355)
(5004.4321 1498.0311 0.75077825)
(4971.9963 1602.9717 -2.8175157)
(4939.5054 1706.366 -5.6878041)
(4907.3515 1807.2941 -8.0028581)
(4875.1962 1906.7149 -8.3740715)
(4844.8965 2003.0583 -8.9255885)
(4815.022 2099.3814 -7.9545057)
(4690.4769 2167.6625 -9.5311393)
(4595.9643 2135.2606 -12.205056)
(4502.8428 2102.566 -14.243963)
(4412.7972 2069.1134 -17.15121)
(4326.404 2036.1906 -19.348062)
(4243.6874 2004.5326 -20.941946)
(4164.3585 1974.6256 -21.911039)
(4088.1055 1946.9171 -22.078487)
(4014.2625 1921.5381 -21.628845)
(3942.1011 1898.5859 -20.676454)
(3870.8127 1877.9055 -19.49045)
(3799.6142 1859.1568 -18.187466)
(3727.738 1842.0629 -17.165796)
(3654.6571 1825.9037 -16.509517)
(3579.9437 1810.3912 -16.526131)
(3503.0332 1794.8101 -17.307756)
(3423.8374 1778.5296 -19.141129)
(3342.4117 1761.0505 -21.978322)
(3259.0146 1741.9265 -25.870125)
(3174.0668 1720.7893 -30.729572)
(3088.1352 1697.4342 -36.437548)
(3001.8994 1671.7409 -42.812681)
(2916.0847 1643.7841 -49.644093)
(2831.442 1613.7024 -56.671303)
(2748.7379 1581.9055 -63.645582)
(2668.4967 1548.5609 -70.174094)
(2591.1949 1514.3038 -76.449368)
(2518.0869 1479.4113 -82.032272)
(2447.5635 1444.8807 -86.050497)
(2381.2635 1410.6159 -89.601149)
(2318.225 1377.3429 -91.972798)
(2258.4639 1345.2319 -93.28243)
(2201.3912 1314.5293 -93.632427)
(2146.519 1285.3106 -93.128155)
(2093.2509 1257.5368 -91.935108)
(2040.9998 1231.0615 -90.239111)
(1989.221 1205.6286 -88.236155)
(1937.4477 1180.9136 -86.125297)
(1885.3422 1156.5279 -84.085525)
(1832.6993 1132.0773 -82.277764)
(1779.4863 1107.163 -80.821087)
(1725.8227 1081.4478 -79.802054)
(1671.9946 1054.6472 -79.254576)
(1618.4147 1026.5954 -79.180231)
(1565.6113 997.21577 -79.522753)
(1514.1779 966.58369 -80.210898)
(1464.7344 934.86992 -81.12107)
(1417.898 902.39115 -82.131641)
(1374.1788 869.5435 -83.10189)
(1334.0621 836.84401 -83.911519)
(1297.7862 804.73218 -84.365469)
(1265.4882 774.01156 -84.581703)
(1237.1586 744.82087 -84.109734)
(1212.4016 718.11451 -83.463092)
(1191.0439 694.03331 -82.124579)
(1172.0322 673.06172 -80.433306)
(1154.9787 654.88341 -78.490068)
(1138.7404 641.27839 -76.541173)
(1123.0612 628.69113 -73.913733)
(1106.3845 620.66677 -71.755109)
(1088.038 615.38799 -70.213146)
(1066.9727 610.87622 -68.406462)
(1043.4876 608.97397 -67.176246)
(1015.5796 607.6727 -67.018677)
(984.65886 606.98539 -67.479696)
(948.70286 605.3043 -68.266741)
(910.40817 602.91326 -70.192014)
(866.87851 599.07465 -72.550973)
(821.276 592.97493 -75.809957)
(772.79248 584.70684 -79.540695)
(722.5008 573.94093 -83.703328)
(671.42768 559.92856 -88.258761)
(619.81119 544.31858 -93.186038)
(568.43661 525.49159 -98.020785)
(518.76852 504.22679 -102.74966)
(470.76387 482.18207 -107.71185)
(424.66144 457.33824 -111.98341)
(382.14787 432.68095 -116.21555)
(341.48544 406.60515 -119.7017)
(304.98836 380.65703 -123.09165)
(271.09558 354.61151 -125.54522)
(239.76671 329.65462 -127.68179)
(211.41788 304.85707 -129.10579)
(186.03918 280.71525 -130.00497)
(162.14921 258.11235 -130.18683)
(140.50387 236.04859 -129.59926)
(120.99934 214.15392 -128.31048)
(102.53534 194.14757 -126.05915)
(86.143459 173.70924 -122.68139)
(71.072174 153.83878 -117.61725)
(58.999757 132.93036 -110.50562)
(48.127604 113.72464 -100.87255)
(41.443541 94.253439 -88.133724)
(36.591553 71.978547 -64.622127)
(43.925446 51.14514 -34.404678)
(-6.8708141e-15 1.5083581e-15 1.9262289e-16)
(-1.2504183e-14 5.7375616e-16 8.4327435e-16)
(-8.3449101e-15 1.4891922e-15 5.3018253e-16)
(-4.9731758e-15 1.4991158e-15 6.2376313e-16)
(-3.4146159e-15 1.5624416e-15 3.1576894e-17)
(2.0582335e-15 9.3962624e-16 -5.746342e-16)
(2.2101935e-15 3.7457559e-17 -1.1841335e-16)
(2.4553765e-15 -8.5141669e-16 -9.3419562e-16)
(1.2987427e-15 1.0081898e-16 1.7950851e-15)
(-4.5074861e-15 9.063971e-16 1.0710522e-15)
(-5.2682467e-15 2.1856155e-15 1.0652666e-15)
(-7.4917339e-15 1.915055e-15 2.2418828e-16)
(-9.400838e-15 1.3708275e-15 6.2833768e-16)
(-6.2048683e-15 1.3247981e-15 5.4317906e-16)
(-6.971104e-15 1.5128103e-15 7.5678131e-16)
(-1.2693866e-14 6.2923345e-15 -2.1364834e-15)
(-5.2452578e-15 2.6791924e-15 -5.3037742e-16)
(-1.0752404e-15 9.8318743e-16 -1.0111087e-16)
(-2.7353382e-15 1.7746034e-15 7.3085398e-17)
(1.0178949e-15 -1.5450237e-16 -4.119182e-16)
(-1.4303492e-15 4.136346e-16 -3.3264033e-16)
(-1.0059749e-14 4.7133437e-15 -1.6449855e-15)
(2.9801421e-15 -1.9180379e-15 -8.3172098e-16)
(-4.79756e-15 2.8035442e-15 1.1420498e-15)
(-5.4778068e-15 3.5047253e-15 -3.934403e-16)
(-1.8117877e-15 1.1581936e-15 -9.1309836e-16)
(-3.9812639e-16 4.7407236e-16 -2.2932148e-16)
(-1.5272242e-15 1.100363e-15 -2.2557932e-16)
(-4.1024849e-15 1.9838802e-15 2.8069696e-17)
(-5.3424143e-16 2.551799e-16 -1.9455919e-16)
(5263.2881 572.79363 -12.33668)
(5266.5148 573.03515 -11.294494)
(5268.7705 574.10913 -9.4933506)
(5270.1567 575.76348 -7.2140288)
(5270.4701 577.7408 -4.3860872)
(5269.9704 580.06976 -1.346753)
(5268.7278 582.36677 2.0657518)
(5266.9708 584.6353 5.659626)
(5264.8344 586.61083 9.4492752)
(5262.5526 588.23961 13.301991)
(5260.1337 589.3173 17.126388)
(5257.8722 589.91782 20.715273)
(5255.6115 590.02316 23.802941)
(5253.4679 590.06953 25.862025)
(5251.1971 590.12968 27.067197)
(4783.6297 2188.2733 32.598602)
(4784.5555 2185.092 31.222516)
(4785.3952 2182.0679 28.22505)
(4786.3679 2179.7872 24.336562)
(4786.9098 2178.3861 20.033841)
(4787.5095 2178.1666 15.561217)
(4787.9702 2179.0488 11.146911)
(4788.349 2180.8598 6.9677389)
(4788.6125 2183.4053 3.1492522)
(4788.7386 2186.4009 -0.23105187)
(4788.7132 2189.5291 -3.1560809)
(4788.4243 2192.4176 -5.448216)
(4788.0176 2194.9071 -7.2895646)
(4787.3939 2196.3141 -8.3033691)
(4786.6509 2196.6748 -8.4040879)
(5.757299 29.009932 34.653414)
(9.0382562 42.135584 40.471696)
(16.221866 57.409574 45.625855)
(25.671122 73.191687 46.384118)
(37.692985 89.892178 45.581566)
(51.430095 108.00412 43.849966)
(66.792648 126.98987 42.198668)
(83.021439 146.73285 41.046743)
(100.53794 166.89122 40.445532)
(118.88833 187.12882 40.658963)
(139.04789 207.35616 41.348005)
(160.79425 227.33329 42.297792)
(185.10689 246.95556 43.127106)
(212.1356 266.17253 43.376649)
(242.88012 284.89428 42.664008)
(277.30575 303.41295 40.499488)
(315.86398 321.41082 36.718864)
(358.38556 339.17672 31.004274)
(405.1882 356.63351 23.375222)
(455.50598 374.04122 13.828034)
(508.88554 391.0361 2.7317458)
(564.61465 407.79917 -9.7216492)
(621.62712 424.34754 -22.867087)
(678.93304 440.35149 -36.296302)
(735.43174 455.92689 -49.236703)
(789.92555 470.83663 -61.039756)
(841.51942 484.91654 -71.174274)
(889.12248 498.21842 -79.057885)
(932.05153 510.47255 -84.067195)
(969.89046 521.8457 -85.95868)
(1002.2557 532.01962 -84.728848)
(1029.2829 541.38537 -80.082082)
(1051.3563 549.9288 -72.41485)
(1069.0211 557.92465 -62.042291)
(1083.0553 565.42208 -49.035673)
(1094.7552 572.85314 -34.697875)
(1105.0641 580.47149 -19.537639)
(1115.387 588.66077 -3.8994049)
(1126.8904 597.79689 11.044226)
(1140.9248 607.95605 24.695616)
(1158.4138 619.83539 36.447339)
(1180.4558 633.41857 45.844187)
(1207.3122 648.84214 52.2756)
(1239.7065 666.37979 55.804697)
(1277.6397 686.00698 56.243397)
(1320.8997 707.61381 53.805189)
(1369.0465 731.1526 48.780116)
(1421.4032 756.40853 41.64319)
(1477.126 783.1312 32.943378)
(1535.2732 811.06216 23.327046)
(1594.8363 839.89011 13.452546)
(1654.8592 869.33016 3.969192)
(1714.4508 899.10278 -4.5301329)
(1772.8932 928.97443 -11.5493)
(1829.6484 958.75073 -16.710445)
(1884.4212 988.30469 -19.786539)
(1937.1588 1017.5663 -20.704672)
(1988.0656 1046.5276 -19.551366)
(2037.5702 1075.2402 -16.566267)
(2086.3181 1103.7998 -12.11204)
(2135.0918 1132.3309 -6.6706076)
(2184.7863 1161.0109 -0.77804261)
(2236.339 1189.9152 4.9847203)
(2290.637 1219.2821 10.077909)
(2348.4299 1249.1337 13.909459)
(2410.6028 1279.5373 16.083552)
(2477.2835 1310.6162 16.401444)
(2548.7948 1342.3576 14.503257)
(2624.985 1374.4312 10.553011)
(2705.7386 1406.7707 4.2974327)
(2790.3535 1439.3097 -3.5812755)
(2878.1557 1471.5988 -12.854339)
(2968.1969 1503.4939 -23.05755)
(3059.4536 1534.7745 -33.559114)
(3150.8827 1565.1694 -43.809063)
(3241.4462 1594.5247 -53.170652)
(3330.1882 1622.6955 -61.118247)
(3416.3465 1649.5978 -67.147334)
(3499.3145 1675.264 -70.933353)
(3578.7678 1699.7126 -72.170591)
(3654.5982 1723.1683 -70.883008)
(3727.0484 1745.6799 -66.888812)
(3796.5585 1767.6629 -60.754395)
(3863.9217 1789.3691 -52.583897)
(3929.7614 1811.0064 -42.914601)
(3995.507 1832.7923 -32.368487)
(4061.8898 1855.1428 -21.303394)
(4130.3655 1878.2509 -10.47482)
(4201.6189 1902.3379 -0.36918534)
(4276.7178 1927.5424 8.5744017)
(4356.2856 1953.9111 15.96005)
(4440.1251 1981.376 21.764843)
(4529.0278 2009.9501 25.916134)
(4621.2215 2038.8365 29.2454)
(4716.2953 2068.367 31.29885)
(-2.0163515 21.578629 27.855188)
(1.3692902 30.044606 33.018335)
(9.2848283 43.70402 36.560587)
(18.773922 58.244933 36.401979)
(30.773364 72.971629 34.958034)
(44.689723 89.607064 32.844177)
(59.965531 106.62563 31.067068)
(76.647561 124.66255 29.426699)
(94.457263 142.60866 28.717262)
(113.65798 161.04566 28.506711)
(134.51696 178.87466 28.887063)
(157.32597 196.74317 29.449443)
(182.70819 213.84898 30.028849)
(211.12879 230.65721 30.100607)
(243.02382 246.84969 29.355431)
(278.73376 262.7685 27.384986)
(318.46082 278.31565 24.033559)
(362.35524 293.76181 19.045589)
(410.07825 309.09641 12.364994)
(461.35802 324.58025 4.0442848)
(515.51127 340.09098 -5.6692462)
(571.79046 355.94734 -16.518928)
(629.20571 371.80297 -28.008385)
(686.77351 387.90158 -39.695688)
(743.35719 403.81743 -50.96161)
(797.75483 419.79107 -61.332651)
(849.12647 435.19697 -70.157066)
(896.47828 450.23488 -76.938989)
(939.09699 464.52096 -81.348433)
(976.4981 477.91548 -83.070875)
(1008.5838 490.35147 -81.841821)
(1035.3899 501.77177 -77.768419)
(1057.1914 512.07743 -71.030475)
(1074.8223 521.42719 -61.722998)
(1088.9407 529.99077 -50.566668)
(1100.7122 537.75635 -37.803844)
(1111.4652 545.29641 -24.344323)
(1122.2284 552.81259 -10.565443)
(1134.3341 560.49925 2.6914603)
(1149.0764 568.95904 14.912907)
(1167.3309 578.41933 25.325543)
(1189.9828 589.29013 34.005574)
(1217.8208 601.75866 39.715398)
(1250.909 616.20292 43.06151)
(1289.5097 632.6186 43.73576)
(1333.3472 651.16945 41.884318)
(1381.9394 671.83182 37.745286)
(1434.6186 694.50144 31.74927)
(1490.5389 718.99593 24.347149)
(1548.7543 745.09791 16.127267)
(1608.287 772.5012 7.6314997)
(1668.1922 800.9195 -0.54978122)
(1727.6199 830.02127 -7.9177075)
(1785.8789 859.51632 -14.022449)
(1842.4732 889.12619 -18.539904)
(1897.1401 918.63714 -21.259947)
(1949.8662 947.87472 -22.113982)
(2000.8774 976.74518 -21.168039)
(2050.6347 1005.2102 -18.620968)
(2099.7845 1033.2959 -14.784814)
(2149.1262 1061.0866 -10.06298)
(2199.5423 1088.708 -4.9222058)
(2251.9542 1116.2823 0.14819161)
(2307.2092 1144.0312 4.6729422)
(2366.0762 1172.0842 8.0816322)
(2429.2962 1200.4121 10.357993)
(2496.8244 1229.412 10.64825)
(2569.3267 1258.868 9.3812991)
(2646.5202 1288.8628 6.0942075)
(2728.2519 1319.4068 1.0389328)
(2813.6397 1350.4219 -5.5489435)
(2902.0473 1381.5414 -13.341883)
(2992.5352 1412.7353 -21.931865)
(3084.0602 1443.7343 -30.847923)
(3175.5834 1474.301 -39.562699)
(3266.0673 1504.2303 -47.555459)
(3354.6192 1533.3035 -54.356892)
(3440.4531 1561.3799 -59.541476)
(3523.0599 1588.3632 -62.812735)
(3602.09 1614.1418 -63.890835)
(3677.6083 1638.8828 -62.823268)
(3749.706 1662.3994 -59.430273)
(3819.0104 1685.2612 -54.247138)
(3886.3407 1707.2203 -46.787218)
(3952.5975 1728.5366 -38.524888)
(4018.5354 1749.9635 -28.970596)
(4085.4055 1771.4425 -19.257468)
(4154.2885 1793.3614 -9.5710829)
(4226.2152 1816.0229 -0.40339613)
(4301.7989 1839.6357 7.7784436)
(4382.1043 1864.2934 14.829795)
(4466.3744 1890.3609 20.615947)
(4555.8098 1917.587 25.092619)
(4648.519 1945.4501 29.110209)
(4744.2051 1974.5954 31.667098)
(-6.3821443 16.580853 23.051488)
(-4.7290811 22.190643 26.126972)
(2.6027286 33.32832 27.891157)
(12.051727 45.164652 26.541596)
(24.379697 57.98869 24.295285)
(38.274181 72.353434 21.907272)
(54.084893 87.349674 19.494032)
(71.026137 102.93049 17.822226)
(89.614448 118.86156 16.721901)
(109.47923 134.7069 16.293732)
(131.32827 150.41548 16.357061)
(155.14892 165.74153 16.734346)
(181.78846 180.57373 17.059186)
(211.27939 194.94158 17.049539)
(244.43194 208.86209 16.32946)
(281.26265 222.46161 14.648558)
(322.19057 235.83538 11.718199)
(366.93387 249.21168 7.397339)
(415.59743 262.70255 1.6125141)
(467.54363 276.51035 -5.5652926)
(522.26308 290.72427 -13.939068)
(578.95872 305.39047 -23.322149)
(636.65246 320.55605 -33.24726)
(694.33732 336.11413 -43.361744)
(750.8836 352.04604 -53.14846)
(805.27785 368.06812 -62.093041)
(856.54899 384.02415 -69.702629)
(903.69733 399.76877 -75.644233)
(946.23334 414.88837 -79.426544)
(983.60219 429.31079 -80.819181)
(1015.7042 442.71659 -79.754206)
(1042.5445 455.07259 -76.206465)
(1064.6694 466.20931 -70.178761)
(1082.5538 476.18784 -62.136355)
(1097.152 485.00179 -52.201175)
(1109.5108 492.9003 -41.036893)
(1120.8152 500.07391 -29.1177)
(1132.2805 506.84758 -16.976644)
(1145.2104 513.59796 -5.2103969)
(1160.7012 520.53624 5.5573942)
(1179.6908 528.3238 15.039035)
(1203.0845 537.14974 22.559284)
(1231.5021 547.37462 28.062113)
(1265.1855 559.46517 31.174693)
(1304.197 573.49923 32.079436)
(1348.3291 589.63253 30.746122)
(1397.1008 607.98275 27.432197)
(1449.8482 628.47114 22.465234)
(1505.7397 650.98638 16.27165)
(1563.848 675.32212 9.3191582)
(1623.2269 701.21232 2.1010745)
(1682.9571 728.35555 -4.888611)
(1742.224 756.41273 -11.20678)
(1800.3658 785.06194 -16.46938)
(1856.9165 813.98646 -20.385508)
(1911.6405 842.91736 -22.772657)
(1964.5414 871.63163 -23.558418)
(2015.8621 899.97899 -22.799275)
(2066.0644 927.867 -20.652086)
(2115.7986 955.28476 -17.381308)
(2165.8478 982.27782 -13.328337)
(2217.0814 1008.944 -8.8854389)
(2270.3945 1035.4382 -4.4656229)
(2326.579 1061.9254 -0.54234438)
(2386.5223 1088.5837 2.6183261)
(2450.5075 1115.4365 4.5813721)
(2519.2324 1143.1849 5.0290578)
(2592.7419 1171.1896 4.2683267)
(2670.5703 1199.5849 1.4183983)
(2752.7589 1228.9324 -2.5818029)
(2838.5969 1258.7725 -8.0155698)
(2927.2864 1289.0773 -14.442391)
(3017.9382 1319.6362 -21.587001)
(3109.4907 1350.2689 -28.963627)
(3200.9458 1380.686 -36.205489)
(3291.3113 1410.6986 -42.817736)
(3379.6737 1440.0529 -48.432452)
(3465.343 1468.5575 -52.679701)
(3547.7768 1496.061 -55.293833)
(3626.719 1522.4362 -56.081641)
(3702.1646 1547.6963 -55.015274)
(3774.3966 1571.7523 -51.983385)
(3843.8728 1594.8853 -47.441525)
(3911.3118 1617.0196 -41.145813)
(3977.366 1638.7699 -33.867769)
(4043.7929 1659.929 -25.640146)
(4111.0307 1681.0291 -17.277344)
(4180.5262 1702.3282 -8.6535051)
(4252.8329 1724.2215 -0.68250981)
(4329.0456 1746.8808 6.8581959)
(4409.6157 1770.7382 13.245707)
(4494.2372 1795.7777 18.985553)
(4584.0064 1822.3478 23.464522)
(4677.0361 1849.5506 27.893293)
(4773.2639 1878.3242 31.142517)
(-9.058381 11.239881 17.082572)
(-8.1051401 15.116587 17.732681)
(-1.7172855 23.364218 17.97218)
(7.3134204 32.720039 16.119763)
(19.475199 43.038792 13.539349)
(33.797542 55.085556 10.582684)
(49.69072 67.441536 8.1374468)
(67.311406 80.861086 6.0948089)
(86.407981 94.023876 4.8276756)
(107.1655 107.70438 4.1132147)
(129.85797 120.80058 4.0151649)
(154.82716 133.89813 4.122628)
(182.45445 146.29456 4.374003)
(213.19017 158.52394 4.2906475)
(247.4227 170.17317 3.7136849)
(285.37817 181.75763 2.2651701)
(327.17574 193.11408 -0.17479548)
(372.893 204.69877 -3.8517965)
(422.19284 216.43458 -8.7231315)
(474.70718 228.76469 -14.827448)
(529.82296 241.52487 -21.990951)
(586.73453 255.13187 -29.999152)
(644.53171 269.22566 -38.489871)
(702.19856 284.18275 -47.180076)
(758.71377 299.43463 -55.526215)
(813.00495 315.21845 -63.205944)
(864.09337 330.99705 -69.76578)
(911.24985 346.71948 -74.792558)
(953.74658 361.93883 -77.994516)
(991.21709 376.56153 -79.195473)
(1023.4945 390.20229 -78.208413)
(1050.7508 402.76517 -75.004422)
(1073.2843 414.04305 -69.782481)
(1091.8052 424.07198 -62.658291)
(1107.1842 432.7857 -53.990068)
(1120.3423 440.39923 -44.226924)
(1132.6531 446.99552 -33.759424)
(1145.1475 452.99414 -23.061296)
(1159.0297 458.59926 -12.728038)
(1175.3657 464.51295 -3.0715871)
(1195.2108 470.85867 5.2342195)
(1219.3713 478.12596 12.089615)
(1248.3594 486.71905 17.023056)
(1282.5191 496.95316 20.03313)
(1321.8272 509.09378 21.057307)
(1366.1068 523.28641 20.176091)
(1414.8921 539.68556 17.555977)
(1467.5334 558.25632 13.511917)
(1523.2257 578.91593 8.3725769)
(1581.0801 601.49166 2.5608936)
(1640.184 625.73804 -3.5156645)
(1699.6551 651.36213 -9.4201957)
(1758.7192 678.03557 -14.783758)
(1816.7414 705.43213 -19.261704)
(1873.2898 733.22223 -22.611078)
(1928.143 761.12629 -24.65959)
(1981.3208 788.89904 -25.34959)
(2033.0661 816.36687 -24.71237)
(2083.8387 843.41766 -22.880784)
(2134.2688 870.01921 -20.073514)
(2185.1221 896.18693 -16.569335)
(2237.2385 922.03624 -12.703581)
(2291.4582 947.66927 -8.8402367)
(2348.6204 973.2904 -5.3110695)
(2409.3847 999.03201 -2.4313392)
(2474.268 1025.2296 -0.60433999)
(2543.6578 1051.6966 0.25448744)
(2617.6884 1079.0237 -0.31081069)
(2696.1694 1106.8586 -2.3264011)
(2778.7189 1135.4003 -5.4140096)
(2864.8249 1164.6507 -9.744939)
(2953.626 1194.36 -14.887983)
(3044.1643 1224.3777 -20.57833)
(3135.6232 1254.5484 -26.596209)
(3226.9131 1284.7311 -32.45561)
(3317.0747 1314.5915 -37.870182)
(3405.2269 1343.9239 -42.468739)
(3490.6841 1372.5022 -45.951782)
(3572.9672 1400.1409 -48.098852)
(3651.8261 1426.7112 -48.726768)
(3727.2932 1452.1477 -47.77695)
(3799.5997 1476.4007 -45.270491)
(3869.3358 1499.6468 -41.2936)