/*--------------------------------*- C++ -*----------------------------------*\
  =========                 |
  \\      /  F ield         | OpenFOAM: The Open Source CFD Toolbox
   \\    /   O peration     | Website:  https://openfoam.org
    \\  /    A nd           | Version:  6
     \\/     M anipulation  |
\*---------------------------------------------------------------------------*/
FoamFile
{
    version     2.0;
    format      ascii;
    class       pointScalarField;
    location    "1.28";
    object      p;
}
// * * * * * * * * * * * * * * * * * * * * * * * * * * * * * * * * * * * * * //

dimensions      [1 -1 -2 0 0 0 0];

internalField   nonuniform List<scalar> 
28033
(
1276883.7
-1737018.3
7658.7521
3777.1821
2299267.4
-2513523.9
4722.9618
2202.16
1043093.3
935327.48
807872.59
659686.8
497695.48
348270.34
193319.61
27137.716
-140544.59
-290001.57
-472081.92
-572484.67
-779016.81
-961316.15
-946861.27
-11893.409
-5880.6679
-6559.2624
-3308.4683
-2718.3053
-717.93591
1101.7759
3196.7756
4991.0283
7134.5586
9305.1255
10426.43
12111.162
13132.763
11972.429
326447.33
352967.39
319974.72
341238.3
330447.05
339593.31
338855.63
338781.83
336566.13
336800.18
331955.07
327909.91
325221.77
320988.4
315732.52
309743.4
306417.29
300461.24
295410.69
289801.95
285239.1
279027.8
275245.96
269592.4
264509.59
260005.2
255202.63
250517.17
245995.9
241482.1
237255.34
232746.15
228806.81
224699.72
220097.08
216265.89
212599.77
209515.53
204370.87
201342.83
196619.39
192509.18
188272.22
184553.82
180004.94
176172.13
171653.83
167620.83
163022.72
158893.58
154217.92
149906.06
145270.97
140762.39
136154.94
131556.31
126970.74
122368.41
117798.24
113332.8
108867.56
104511.51
100184.79
96251.207
92218.211
88394.052
85391.949
81705.517
77990.206
74801.406
71675.668
68802.731
65899.457
63419.779
60586.578
58459.812
55623.887
53737.865
50921.744
48987.016
46273.07
44313.929
41534.124
38981.312
36501.309
33796.036
31377.672
28995.96
25350.918
23431.416
21101.941
16722.321
17332.896
15785.172
12988.445
-306095.36
-254325.22
-302467.02
-267770.55
-305490.03
-296885.86
-305925.41
-298107.46
-305074.78
-296221.21
-298872.95
-291886.42
-289677.78
-285663.99
-281446.94
-276480.65
-272474.12
-266751.25
-262526.59
-257991.46
-252346.32
-249266.89
-243093.56
-240370.96
-234494.5
-231288.53
-226559.04
-222482.82
-218677.7
-214336.3
-209918.54
-206581.68
-201821.38
-198730.15
-194491.32
-191582.48
-186512.85
-183389.27
-178820.77
-175374.37
-171141.33
-167282.64
-163110.71
-159195.07
-154915.16
-150953.46
-146668.68
-142576.81
-138326.74
-134169.81
-129909.31
-125732.15
-121474.69
-117328.04
-113087.48
-108977.97
-104832.62
-100773.24
-96740.15
-92816.544
-88910.966
-85151.431
-81454.449
-77863.019
-74372.517
-71020.681
-67882.234
-64841.427
-62168.807
-58996.549
-56511.53
-53871.45
-51649.785
-49249.259
-47172.535
-45056.921
-43007.49
-41141.738
-39117.603
-37244.723
-35269.194
-33330.75
-31202.999
-29252.823
-26952.484
-24779.668
-22420.509
-20138.296
-17476.307
-15254.049
-12850.272
-10238.05
-8193.8062
-7207.9396
-4738.4941
1876450
1770046.8
1271483.7
1296838.2
898262.81
545661.83
349343.74
-10401.095
-277970.55
-624025.57
-868069.6
-1197471.9
-1522613.5
-1778529.7
-1897770.5
-515071.74
-389142.32
-175139.85
-368500.04
-302170.31
-320824.77
-311417.44
-323870.05
-310781.04
-316440.32
-320140.43
-301375.43
-313306.41
-292891.01
-305200.57
-293294.04
-291743.43
-277286.14
-278221.86
-267483.76
-263696.19
-255951.7
-257582.63
-249993.91
-245366.93
-243082.83
-233895.63
-234517.46
-225032.18
-224541.41
-219321.19
-216243.19
-211486.48
-208263.35
-205144.02
-197226.19
-196499.76
-192572.68
-188856.55
-184923.68
-181213.48
-177290.99
-173544.76
-169547.72
-165662.83
-161736.37
-157623.01
-153552.82
-149329.31
-145134.2
-140831.79
-136511.22
-132117.69
-127721.02
-123265.94
-118740.03
-114304.24
-109758.12
-105276.86
-100841.82
-96404.984
-92091.205
-87812.129
-83673.326
-79620.362
-75707.159
-72109.29
-68551.889
-64340.866
-61472.146
-58888.335
-55873.406
-53156.79
-50583.224
-48155.016
-45855.952
-43627.19
-41611.996
-39517.92
-37503.053
-35448.503
-33456.207
-31246.901
-29234.118
-26937.648
-24744.344
-22302.908
-20051.668
-17469.013
-15147.935
-12742.477
-10399.197
-9045.5357
-7226.493
-6560.8694
14897.163
15001.11
11671.435
12452.817
8230.9068
8492.388
4713.6642
3425.8074
688.67363
-1902.1098
-1663.8826
-5065.2592
-4804.7792
-9634.6991
-7784.5961
21549.416
17468.444
17522.432
19945.406
21862.121
24828.661
27532.645
30457.516
33132.627
36053.344
38679.524
41124.803
43728.664
46214.541
48649.939
50980.743
53402.055
55677.179
58029.131
60420.872
62804.7
65369.595
67974.485
70625.808
73450.368
76120.008
78147.925
83788.274
85795.92
89725.184
93351.352
97311.353
101139.46
105250.28
109385.37
113606.72
117958.76
122287.07
126742.97
131203.9
135700.51
140203.84
144773.43
149274.88
153840.2
158368.59
162889.87
167412.14
171882.47
176357.52
180790.86
185104.47
189547.59
194158.45
198036.29
202462.17
206329.06
208558.58
216418.11
219223.59
221558.59
229695.13
231043.84
236568.74
237232.46
246776.68
245792.78
255462.96
256895.19
263613.11
266905.03
269606.76
278898.33
282415.78
285001.3
293490.94
295851.09
302651.7
306426.83
313558.28
321930.49
318175.76
324910.75
331147.27
338293.12
335184.79
342584.45
339604.27
340259.77
334189.6
331339.55
345506
336894.63
310802.78
397885.57
915236.3
990561.23
1045927.2
1084140
1104335.9
1135807.7
1133748.7
1148468.2
1134794.1
1109709.2
1127341.6
1056962.8
1020554.6
1069914.5
847410.09
-1409799.7
-1793010.5
-1782680.9
-1925877.2
-1884439.3
-1798874.5
-2068809.6
-2213606.2
-2073600.1
-2084440.5
-2002821.7
-1934512.5
-1820135
-1799091.3
-1689597.7
3297.5754
3375.1358
4100.0763
4413.5965
5493.0844
5980.0941
6188.8935
6252.0137
6232.6596
5912.3371
5676.8119
4672.7396
4291.717
3749.266
3912.8691
813.65473
3655.5871
2885.5764
2338.5264
1506.4182
1389.6381
852.86598
899.90104
1062.5945
1214.0892
2053.4771
2648.29
2902.3299
6198.6351
1272.5613
322855.7
326867.27
289341.3
292007.95
297013.33
300536.16
301619.17
303760.16
303598.34
302229.2
299533.97
299866.75
294436.63
291545.71
286505.2
285395.83
278430.23
275415.77
269730.21
266168.63
261475.27
257739.4
252197.1
248040.8
243220.96
239658.62
234552.85
230692.13
226236.59
222534.76
217881.73
213966.97
210551.32
206203.6
202596.73
198739.14
195002.69
190489.83
187154.33
183685
180102.94
176281.1
172588.66
168564.15
164654.29
160871.76
156703.49
152904.31
148691.27
144709.8
140476.76
136377
132094.79
127891.98
123608.79
119349.13
115077.76
110815.22
106622.16
102444.38
98324.263
94256.145
90393.257
86614.797
82558.277
79251.989
75426.798
72266.949
69067.205
66393.678
63485.965
61015.645
58337.069
56092.99
53560.13
51556.124
49155.632
47344.927
44888.389
43279.689
40944.144
39027.976
36949.717
35046.961
32732.557
30543.704
28466.383
25757.073
23733.637
21850.144
18512.232
16792.212
14883.984
9208.1128
4501.9191
304593.68
274547.25
241891.25
250972.56
250410.56
253236.53
254461.54
257508.41
257593.34
258922.85
257070.63
256503.61
253803.06
252781.02
248931.23
245978.47
242118.65
239712.81
235097.11
231889.98
227575.4
223152.15
219508.74
215849.17
211968.12
207667.14
204300.72
200426.89
196675.58
192852.26
189443.09
185820.05
182168.9
178643.02
175355.39
171676.07
168164.91
164895.36
161475.42
158024.82
154487.61
151557.77
147377.1
144165.1
140542.96
137174.54
133526.25
130147.94
126411.09
122954.64
119211.35
115655.64
111908.01
108279.39
104572.53
100899.18
97231.169
93620.105
90014.483
86497.441
83008.1
79663.639
76455.114
73217.344
70241.798
68088.637
65862.732
63045.997
61201.361
58446.04
56013.323
53918.345
51384.935
49511.818
47013.402
45593.08
42991.433
41801.138
39266.219
38182.302
35783.801
34228.312
32466.159
29986.034
27913.32
26071.042
23567.383
21998.297
19913.654
17462.285
15237.797
13371.197
9497.3625
5992.2009
-359.35514
237853.12
235554.83
200233.9
210772.72
206274.57
211232.99
213633.67
216741.23
216366.61
217499.52
216740.71
217063.82
214787.41
213295.84
210771.23
209351.38
205665.2
203470.06
199830.84
197453.43
193848.41
191222.73
187854.72
184752.39
180957.14
178227.55
174620.59
171375.76
168180.42
165030.6
161748.49
158601.33
155540.06
152456.19
149391.57
146406.35
143729.85
140896.28
138099.83
135120.78
131860.76
128876.66
126189.52
123312.35
120383.27
117349.8
114276.02
111224.4
108081.96
104976.47
101769.33
98638.742
95368.583
92213.806
88956.839
85751.445
82559.621
79388.126
76234.687
73158.297
70124.761
67172.152
64283.831
61377.613
58938.035
56582.899
54647.219
52438.724
50394.182
48727.856
46789.824
44913.066
43009.895
41307.351
39623.213
37960.635
36470.874
34793.786
33438.723
31796.192
30271.463
29020.022
27010.703
25687.688
24364.85
22551.862
20644.644
19234.203
17250.923
15459.91
13729.048
10632.377
8589.4537
3558.8011
1075.7269
194865.84
191624.24
156473.23
169153.37
161784.62
168452.12
169141.82
171894.13
171837.2
174552.82
173680.52
174482.29
172231.51
172991.64
170065.79
169473.68
166364.3
165645.54
162230.7
160640.42
157339.26
155276.58
152224.51
149601.54
147141.38
144346.99
141798.69
139223.33
136569.59
133841.07
131443.91
128695.71
126230.21
123523.79
121492.05
118310.14
116176.56
112789.75
110324.59
107703.92
105865.46
103395.9
100848.14
98238.613
95814.723
93385.751
90911.738
88523.664
86023.621
83582.782
81056.055
78600.406
76031.34
73566.799
70994.365
68518.332
65992.703
63527.131
61055.905
58678.056
56314.616
53999.234
51774.925
49678.406
47604.519
45589.865
44008.65
41955.713
39951.544
38587.606
37125.18
35308.16
33931.092
32404.979
31086.851
29808.794
28549.747
27469.8
26174.365
25135.367
23963.763
22892.265
21564.353
20430.007
19043.536
18391.377
16904.325
15614.569
14111.475
12761.887
10555.396
8976.2115
6203.8221
3398.3365
-460.70074
157971.56
143322.19
117135.68
127041.49
124060.96
127496.43
129214.82
131059.67
131063.21
132605.17
132329.92
132092.62
131945.64
131085.01
129701.19
129091.91
126706.22
126004.31
123461.88
122383.27
120179.9
118801.95
116338.5
115043.56
112665.36
110870.85
108739.71
106721.66
104665.27
102835.13
100732.97
98807.372
96843.367
95150.715
93082.012
91212.07
90768.326
90187.041
88467.685
88885.876
86123.469
84381.075
82773.768
80938.099
79166.743
77249.839
75280.689
73335.004
71366.529
69347.38
67328.808
65332.009
63241.547
61221.104
59136.695
57087.43
55018.871
52971.461
50953.152
48942.467
46996.9
44979.217
43274.782
41327.073
39461.163
38116.163
36143.15
34946.616
33249.401
31908.982
30646.153
29178.093
27076.95
25658.504
24425.088
23396.5
22517.517
21580.941
20707.708
19987.312
18918.23
18377.656
17269.461
16783.084
15599.634
15138.301
13693.679
12995.42
11572.448
10280.489
8910.6299
7469.9987
5778.883
2948.9393
491.88727
100258.39
101154.31
77637.59
88915.694
82977.09
85574.555
86781.174
88815.101
87606.233
90419.619
88513.376
90367.481
88241.836
89291.848
87301.543
87614.161
85613.599
86068.04
83424.787
83549.237
81343.542
80541.657
78937.017
77885.521
76276.998
75142.6
73785.191
72480.784
71267.654
69759.281
68576.603
67125.543
66067.619
64523.912
63352.835
62371.804
61809.128
61357.675
61728.188
61026.909
60988.784
59637.319
58336.528
57197.558
55970.331
54719.101
53422.352
52201.394
50877.845
49590.22
48259.094
46938.482
45539.322
44190.535
42783.264
41367.906
39962.11
38551.254
37120.568
35726.293
34330.522
33002.163
31613.581
30323.662
29172.876
27772.204
26794.505
25672.641
24617.3
23653.838
22625.047
21514.109
20413.003
19322.177
18212.397
17673.813
16876.718
16352.345
15573.47
15267.379
14202.646
14213.729
12925.691
12982.96
11693.086
11750.893
10353.064
10320.716
9011.2263
8801.0892
7714.4993
6650.616
5185.3837
3223.8221
1840.1269
56157.327
50813.248
40892.381
48511.264
43152.58
44789.895
46285.141
46392.793
45852.366
46228.099
46703.366
45740.721
46070.789
46013.199
44982.137
45450.311
44153.703
44358.516
42967.842
43627.652
41908.798
42499.023
41097.748
41134.68
40070.06
39885.731
38870.862
38551.778
37649.976
37228.431
36544.451
36095.901
35364.242
34888.116
34448.975
33886.232
33433.923
33354.734
32396.414
31479.779
31205.766
30897.894
30270.121
30102.778
29663.949
29341.037
28796.536
28460.382
27881.504
27433.634
26858.699
26325.814
25683.684
25116.785
24422.854
23773.081
23072.59
22374.565
21623.706
20919.623
20180.949
19415.618
18728.834
18017.469
17250.818
16666.663
15922.977
15281.383
14654.991
14104.078
13521.208
13053.722
12467.125
12183.085
11874.612
11505.85
11020.052
10650.988
10303.607
9956.9328
9536.2655
9423.2233
8715.0964
8913.6811
8004.9325
8306.4014
7380.5098
7647.4615
6758.7237
6556.9679
5549.8995
4920.8759
4548.5298
3558.4951
2993.559
2291.9434
8323.0597
412.70496
6999.8483
3701.0515
5391.2383
4541.185
5557.9504
2517.1624
5430.5716
2887.2297
4123.8509
3181.7994
3818.4149
2875.9774
4124.1112
2682.2501
4337.7693
3037.0008
4158.5298
3259.6362
4247.909
3190.0891
4093.7422
3523.0853
3976.8514
3853.3339
4053.4315
4061.177
4110.8214
4283.0949
4128.9701
4397.2146
4470.274
4639.7942
4602.3225
5248.6746
5036.5621
5632.8193
5511.8462
5901.2173
6311.5055
6364.0543
6582.4835
6873.5368
7031.9293
7231.969
7512.238
7666.7305
7861.7557
8007.9199
8156.0706
8228.4674
8320.7933
8347.6608
8357.159
8332.3848
8294.4411
8188.7361
8120.6046
7955.2465
7836.5942
7672.3898
7484.0237
7352.1011
7114.057
6968.1599
6793.9297
6599.31
6433.0922
6221.2293
6026.2383
5654.4633
5511.4576
5362.8872
5318.066
5078.1888
5039.896
4883.9315
4821.9431
4736.2759
4609.6495
4601.3775
4511.6876
4349.9113
4528.394
4033.6249
4592.6849
3793.0183
4593.3683
4234.1824
4942.528
4734.5046
4204.6557
4451.5514
-38653.883
-38343.315
-34669.383
-32056.858
-33678.893
-35737.878
-35522.721
-37616.465
-37769.564
-38957.683
-38540.802
-39336.455
-38991.557
-38472.906
-38486.499
-37630.914
-37770.822
-36032.532
-37212.468
-34659.896
-35675.955
-33710.29
-34152.908
-32097.657
-32550.425
-30648.808
-30892.717
-29378.92
-29210.661
-27992.608
-27611.086
-26584.6
-25864.298
-25039.423
-24304.393
-23222.476
-22664.866
-21539.177
-20697.888
-19693.197
-18864.348
-17775.998
-17033.69
-15879.464
-14974.567
-14010.977
-13171.283
-12176.995
-11408.533
-10549.632
-9778.5375
-8993.9759
-8344.3627
-7629.8297
-7033.9198
-6459.5251
-5926.7782
-5417.3151
-5004.3485
-4564.4791
-4194.0857
-3870.6111
-3547.7562
-3259.3911
-3054.4194
-2787.3946
-2563.9007
-2372.2364
-2170.3653
-1947.8954
-1814.9414
-1549.6328
-1395.3364
-1124.4016
-1219.6837
-1176.0363
-894.66574
-749.07597
-596.85631
-452.12903
-244.31778
-123.84677
114.74863
358.61257
407.53956
1098.395
812.81491
1991.295
1478.4943
2749.0037
2304.4416
2790.3515
2845.5886
3975.797
5472.0513
-87748.496
-84447.965
-72563.003
-72463.335
-75846.156
-76609.153
-79155.256
-78862.51
-82537.017
-81316.075
-82325.878
-82421.028
-81802.089
-80761.089
-80933.726
-78755.249
-78539.324
-76543.021
-76074.624
-73516.783
-73641.855
-69992.67
-69546.315
-66908.824
-66583.947
-64391.17
-63758.031
-61711.113
-60730.365
-59165.979
-57933.268
-56458.904
-55195.895
-53820.47
-52164.874
-51109.819
-49276.514
-48098.389
-46419.201
-45099.181
-43562.08
-42073.702
-40527.758
-39104.285
-37565.477
-36090.784
-34618.075
-33078.801
-31677.852
-30224.865
-28805.81
-27440.932
-26126.798
-24798.729
-23563.59
-22364.027
-21184.109
-20071.02
-19036.263
-17965.489
-17033.756
-16113.12
-15211.125
-14426.277
-13636.708
-12901.8
-12203.518
-11607.728
-10968.527
-10440.097
-9890.4079
-9358.6818
-8948.1615
-7987.2472
-7022.1686
-6771.3356
-6209.8353
-5999.6129
-5381.4721
-5324.471
-4444.3359
-4637.9904
-3576.0423
-3680.188
-2851.3954
-2351.0615
-2116.5821
-731.35828
-1083.8641
893.1991
644.03172
1881.6913
2999.6076
4551.2995
6150.9153
-136520.31
-109482.75
-100984.49
-102993.36
-107223.72
-108730.6
-111425.46
-113372.56
-115606.92
-115624.07
-116048.14
-116109.87
-114996.03
-113974.55
-113308.77
-110381.23
-110761.34
-106905.93
-107215.62
-104099.23
-104602.09
-103943.74
-104295.32
-101229.93
-101274.85
-97537.097
-97156.187
-93694.045
-92856.338
-89975.85
-88576.205
-86250.131
-84618.992
-82278.574
-80566.328
-78272.815
-76426.073
-74263.161
-72262.489
-70109.283
-68111.168
-65846.941
-63856.563
-61658.097
-59575.93
-57414.45
-55419.465
-53275.282
-51318.93
-49270.764
-47339.849
-45395.742
-43552.318
-41691.101
-39939.257
-38207.795
-36537.035
-34924.495
-33367.784
-31845.27
-30407.882
-28992.932
-27651.106
-26365.806
-25162.455
-23982.38
-22835.052
-21741.65
-20685.432
-19647.954
-18669.35
-17835.603
-16779.568
-15868.588
-14701.451
-13673.388
-12522.126
-11747.911
-11027.547
-10315.903
-9756.123
-8931.4256
-8371.1836
-7574.8009
-6805.954
-6150.9788
-5094.9036
-4464.3418
-3264.0126
-2225.4383
-1204.0113
555.62221
1996.6857
4090.4707
8045.4343
-164690.63
-157927.23
-144885.34
-142564.21
-147206.07
-147779.15
-153164.48
-153892.14
-155992.48
-156221.34
-157034.1
-155183.7
-155385.07
-152343.44
-151640.35
-148704.87
-147128.69
-143729.17
-142943.97
-138561.45
-138383.69
-133821.03
-135603.02
-133225.44
-131882.78
-128603.02
-127029.83
-123681.55
-121767.02
-118642.74
-116700.32
-113806.54
-111586.46
-109125.07
-106487.38
-104252.98
-101544.78
-99164.106
-96514.137
-94074.4
-91400.574
-88937.776
-86336.831
-83805.24
-81233.746
-78650.048
-76147.354
-73540.464
-71026.883
-68519.029
-66019.292
-63552.317
-61141.641
-58734.183
-56387.114
-54091.811
-51830.684
-49618.635
-47491.233
-45387.219
-43359.355
-41409.089
-39484.87
-37675.518
-35925.474
-34265.473
-32649.592
-31194.874
-29710.187
-28327.103
-27102.218
-25759.942
-24636.185
-23480.607
-22446.007
-21863.119
-20607.336
-19488.956
-18467.077
-17500.303
-16421.507
-15422.029
-14321.128
-13248.602
-12027.528
-11015.241
-9454.1811
-8549.322
-6930.5872
-5429.5563
-4347.1969
-1392.773
613.51311
4973.7709
9293.8186
-234318.01
-212412.86
-182701.45
-194381.57
-192430.43
-200197.52
-200711.96
-204547.47
-204443.1
-205659.96
-204214.21
-204001.4
-201155.78
-199561.3
-196557.93
-193444.67
-190728.56
-186689.19
-184494.46
-179992.81
-178327.83
-173507.92
-170967.59
-165952.67
-164269.66
-159710.61
-158460.87
-153784.91
-151937.95
-147962.83
-145630.9
-141886.54
-139617.47
-136225.44
-133609.71
-130447.81
-127484.36
-124437.67
-121523.36
-118382.7
-115464.62
-112331.13
-109293.68
-106165.37
-103112.21
-99976.115
-96973.114
-93820.539
-90833.388
-87783.234
-84782.719
-81797.967
-78887.816
-75962.442
-73123.001
-70321.928
-67558.279
-64866.038
-62240.355
-59645.608
-57155.773
-54694.709
-52330.024
-50009.815
-47801.708
-45676.156
-43593.14
-41608.854
-39707.855
-37861.239
-36068.95
-34427.933
-32759.468
-31231.091
-29696.1
-28273.833
-26897.46
-25581.294
-24210.031
-22884.157
-21571.84
-20218.85
-18856.53
-17464.624
-16052.323
-14516.559
-12990.48
-11498.105
-9452.0142
-8147.8758
-5611.0438
-3521.2
-1049.6142
2738.0896
7631.8469
-260484.95
-248195.04
-211986.61
-228764.22
-231455.38
-237142.39
-238788.05
-242850.41
-242755.99
-242217.14
-242809.2
-239241.03
-238058.85
-234743.59
-230966.34
-227552.47
-224167.17
-218856.56
-216565.77
-211108.13
-207904.36
-203661.97
-200626.23
-197114.62
-193635.51
-189767.38
-186264.31
-182430.14
-179645.53
-175556.94
-172522.95
-168864.89
-165412.31
-161985.13
-158668.91
-155593.31
-152051.19
-148929.45
-145360.24
-142072.35
-138594.01
-135166.84
-131734.24
-128252.34
-124803.08
-121292.39
-117795.61
-114276.95
-110774
-107264.26
-103755.1
-100274.61
-96810.825
-93360.867
-89948.191
-86575.101
-83234.722
-79950.06
-76717.768
-73556.482
-70450.835
-67442.098
-64504.691
-61612.626
-58859.753
-56113.212
-53481.446
-51160.78
-48918.352
-46618.388
-44605.084
-42595.107
-40590.706
-38879.78
-36985.317
-35331.689
-33654.826
-32059.997
-30404.912
-28891.506
-27262.932
-25662.904
-23999.232
-22345.45
-20493.385
-18779.764
-16817.7
-14876.515
-12744.895
-10995.215
-7936.3367
-6580.7723
-3060.9121
889.86955
7162.8941
-369094.91
-244000.06
-264514.17
-264398.08
-275600.43
-271408.31
-279504.59
-280030.53
-279508.11
-279649.45
-277141
-276173.72
-272080.89
-268446.7
-264312.87
-259871.72
-256777.56
-250862.66
-247989.33
-241042.85
-237895.07
-232023.77
-229717.02
-224590.67
-222708.83
-216179.05
-213832.64
-208018.12
-206048.42
-200853.9
-197975.87
-193576.41
-189983.27
-185786.9
-181700.21
-178593.61
-174950.31
-171260.09
-167442.3
-163677.52
-159832.41
-155995.8
-152110.28
-148153.21
-144272.35
-140243.4
-136325.96
-132320.66
-128336.38
-124343.01
-120350.47
-116365.19
-112401.52
-108434.14
-104518.23
-100627.01
-96768.518
-92970.083
-89238.784
-85551.868
-81970.416
-78479.603
-75065.378
-71759.105
-68573.589
-65325.578
-62260.551
-59412.893
-56994.369
-54322.265
-52050.986
-49551.213
-47394.543
-45256.584
-43211.29
-41240.166
-39458.896
-37512.974
-35743.114
-33886.635
-32045.798
-30135.829
-28280.009
-26199.652
-24223.561
-22125.247
-19855.635
-17723.593
-15457.175
-13235.79
-10718.891
-9499.8585
-6157.8217
-3465.9802
2705.4488
702361
690888.02
672607.94
690690.23
693821.23
698890.8
721745.55
707428.89
700335.32
699223.9
694633.31
670853.88
663741.34
699306.06
585937.5
639181.56
660484.23
625768.61
646839.58
647558.91
660741.91
642146.72
665213.33
658249.65
662467.03
649256.38
644491.59
644103.14
650569.71
550162.5
480404.33
547226.98
485193.93
505280.52
505997.45
500168.4
506198.76
501288.18
505831.36
497787.09
497165.23
499314.19
467622.49
514373.48
464504.21
419728.16
428462.59
425161.14
420034.83
432147.16
427666.35
434603.77
433301.89
429311.37
430959.4
429940.79
415268.25
415221.28
445098.32
308583.57
302446.75
340492.19
299155.88
322401.62
310794.3
322060.79
317308.74
317420.05
317634.01
317400.6
311837.53
311852.49
308124.07
315930.49
278026.65
227246.91
239364.83
221842.01
229211.63
228851.63
229263.37
227285.49
227258.31
227935.82
226228.68
218862.56
227617.77
211662.15
226061.76
211357.3
126786.97
127437.78
128923.69
121829.79
127616.85
127627.68
125307.82
124679.58
123104.53
123557.71
120517.89
114755.67
122416.27
114141.98
114561.42
29630.517
30887.04
20782.239
28325.133
22868.26
24595.349
22127.305
22523.843
19470.637
25133.579
9919.2182
23482.517
27714.958
2767.6261
55181.038
-58587.372
-70276.535
-59021.628
-69166.147
-66027.73
-68321.074
-69290.813
-69966.433
-72538.049
-67422.3
-79811.682
-66272.06
-69304.363
-91096.651
-8150.1709
-142840.81
-174757.29
-159175.57
-164110.15
-166772.68
-168861.71
-172749.89
-172309.08
-178565.77
-168024.63
-192898.48
-164560.78
-166369.35
-202442.29
-105149.65
-243149.54
-295504.36
-249977.63
-280496.89
-266926.53
-276867.22
-274220.38
-276315.32
-278286.29
-267353.1
-276140.44
-269544.18
-256327.57
-286381.38
-177338.74
-361601.98
-345123.4
-352234.2
-341168.92
-360663.41
-359785.96
-365484.29
-368842.56
-371349.12
-367211.56
-387259.64
-338902.44
-359496.81
-396165.51
-273357.24
-420958.94
-468086.16
-413029.03
-436563.83
-416967.26
-433875.66
-429333.83
-429828.13
-427678.12
-423708.59
-430334.91
-432954.78
-396514.22
-476169.47
-248048.55
-528941.62
-628058.22
-555605.85
-597043.02
-618599.7
-612064.85
-618226.94
-649534.87
-634838.96
-651521.7
-613032.2
-600605.18
-614154.53
-599139.5
-545028.39
-577396.45
-504419.26
-457384.17
-462104.08
-483013.79
-521484.01
-499020.87
-482436.65
-461203.65
-458519.73
-468473.59
-471904.3
-472217.05
-527094.63
-471805.69
-529175.67
-500309.35
-594831.05
-627990.52
-651791.06
-711362.62
-684169.02
-639848.47
-729037.45
-714827.71
-691933.97
-656662.31
-630610.25
-598268.53
-504599.98
-371872.89
-378864.17
-424646.11
-438350.81
-455628.41
-472010.98
-485802.66
-501752.25
-518338.18
-492523.55
-482378.27
-452243.14
-455904.08
-449315.62
-453259.18
-307145.93
-355382.96
-349024.43
-383360.88
-408784.78
-395923.76
-416803.2
-413242.13
-399903.15
-418748.08
-401860.73
-408159.09
-393339
-348006.47
-361238.78
-308188.41
-351579.28
-356640.93
-365699.64
-376600.83
-384927.87
-388160.53
-391581.22
-391085.88
-381850.35
-382350.97
-372744.38
-357076.37
-351001.87
-329853.96
-329077.78
-362218.08
-355291.33
-381604.61
-386282.2
-394654.06
-403136.2
-402131.79
-405111.29
-404493.74
-393198.1
-385577.39
-367631.37
-352789.02
-346407.46
-318482.72
-332970.19
-340849.4
-355293.55
-361385.86
-371443.46
-370932.73
-373161.69
-373656.13
-367327.65
-365620.58
-357592.09
-346334.83
-338069.47
-320108.53
-316052.09
-340574.07
-341865.14
-355755.49
-358488.03
-366952.78
-369696.73
-371159.41
-371209.77
-367484.69
-360133.51
-355819.65
-345944.54
-332054.55
-334319.48
-318260.53
-324248.81
-333940.71
-338100.33
-349334.55
-350617.72
-354639.55
-356296.17
-354663.15
-352849.13
-348442.93
-342604.23
-335726.02
-325948.05
-318378.08
-310962.93
-326030.22
-328709.79
-338863.81
-339160.14
-347903.14
-345818.2
-348995.42
-348386.46
-343959.46
-341366.89
-336104.71
-330672.41
-324357.58
-318616.4
-311579.12
-314340.75
-320443.51
-321991.98
-328092.22
-329126.92
-332675.87
-332596.26
-331302.64
-332545.36
-327654.52
-326077.31
-321099.25
-315996.77
-313009.92
-304004.89
-312905.99
-314595.43
-321522.67
-323212.07
-328449.38
-327327.95
-330883
-329740.13
-327810.41
-327357.58
-324608.48
-320134.09
-317637.94
-314782.34
-303396.54
-303823.42
-308683.82
-309668.8
-312863.31
-312917.39
-316070.47
-316654.73
-317348.88
-316833.7
-315757.83
-313788.42
-312255.36
-308985.37
-307723.24
-298846.88
-300582.13
-301558.57
-305654.27
-306570.59
-310697.92
-310536.06
-312684.01
-312255.08
-312439.95
-310283.05
-310639.87
-306470.81
-306507.97
-304463.56
-293140
-293749.78
-297359.11
-297006.71
-299817.14
-299769.06
-300953.9
-302220.69
-302661.48
-301707.58
-302169.01
-301372.6
-300208.49
-299329.63
-299029.39
-288971.32
-289002.91
-291335.07
-292370.48
-294633.19
-294796.07
-296227.08
-296967.03
-297996.68
-298761.88
-297584.55
-297945.44
-294765.8
-296722.58
-295793.29
-282962.97
-283466.33
-286216.06
-285574
-287148.11
-286895.26
-290411.16
-287889.71
-288549.08
-288167.05
-288082.52
-288407.33
-284848.12
-286322.32
-285095.84
-279178.59
-278188.97
-280455.75
-279155.61
-282457.37
-282460.32
-283055.62
-284379.06
-284307.93
-285489.17
-284599.77
-286118.62
-284805.05
-284527.66
-286476.33
-273994.09
-273452.71
-274992.55
-274009.83
-275787.98
-275775.25
-277662.69
-276528
-277250.35
-276960.01
-276742.25
-276464.62
-278049.64
-274727.5
-276276.88
-268734.3
-268130.08
-270197.07
-270081.21
-271061.02
-270602.76
-270527.11
-272389.01
-271860.03
-273143.5
-271505.46
-274110.67
-272349.48
-275897.81
-274689.78
-263320.23
-263456.2
-264209.62
-264133.92
-265082.98
-265283.61
-266859.32
-265446.2
-267263.08
-265864.98
-266060.43
-266984.03
-265473.44
-266886.22
-265997.39
-259846.72
-258264.33
-260189.07
-258669.31
-260427.11
-259068.38
-261167.54
-261624.48
-260850.42
-262040.77
-261734.33
-263438.66
-262691.25
-264448.56
-264503.51
-252101.07
-254381.36
-253855.75
-254451.07
-254797.73
-255049.47
-255558.15
-255605.06
-256478.49
-256387.91
-256421.56
-257358.64
-255968.06
-255797.38
-257383.39
-250276.63
-248593.82
-249993.62
-249421.46
-250446.17
-250163.58
-251120.4
-250954.3
-250882.17
-252044.95
-251520.53
-252411.77
-251006.08
-253889.63
-252921.43
-243741.29
-244060.82
-244438.8
-245098.63
-245205.71
-245137.23
-246569.32
-245448.78
-246909.4
-246602.55
-246384.92
-248169.56
-246891.59
-247836.14
-247769.03
-240854.66
-239786.81
-240448.75
-239899.31
-240919.83
-240420.52
-241829.4
-241556.41
-241791.48
-242537.18
-241051.73
-242839.29
-242139.77
-243082.25
-243328.18
-236035.47
-234100.16
-236109.83
-234946.57
-236301.94
-235874.22
-236812.94
-236455
-237325.67
-237497.08
-238336.71
-238490.37
-237062.56
-239552.22
-238120.73
-231751.94
-230013.38
-231438.88
-230884.02
-231817.53
-232137.33
-232642.28
-232896.45
-232850.27
-233303.82
-232845.47
-234362.27
-232593.07
-233802.14
-234681.28
-227552.53
-225483.3
-226387.93
-226995.22
-227680.03
-227457.19
-228139.01
-227946.8
-228948.4
-228763.37
-229134.13
-229539.43
-228609.78
-230852.05
-229262.9
-222696.87
-222243.42
-223360.9
-222405.53
-223637.65
-223432.58
-224103.26
-224301.3
-224400.52
-224957.41
-224354.53
-225367.65
-224601.18
-225062.59
-226181.36
-219462.75
-217030.47
-218931.44
-218236.28
-219688.93
-218880.81
-219807.22
-219897.74
-220537.19
-220247.46
-220363.56
-221242.88
-220059.54
-221887.86
-221575.87
-215153.37
-213661.71
-214833.39
-214666.62
-215355.13
-215858.16
-216160.82
-215928.43
-216109.75
-216952.15
-216533.65
-217503.05
-216360.14
-217179.09
-217456.61
-211207.19
-209239.21
-210965.08
-210390.14
-211351.77
-211633.82
-211860.75
-211996.22
-212134.29
-212482.95
-212344.91
-213264.65
-212310.73
-213515.57
-213389.98
-207402.67
-205530.88
-206984.81
-206652.2
-207766.22
-207563.89
-208224.33
-208129.28
-208627.82
-208892.11
-208702.09
-209456.53
-208576.32
-209428.45
-209331.8
-203168.1
-201561.05
-203052.25
-202711.71
-203617.18
-203645.48
-204264.41
-204218.91
-204651.46
-204810.09
-204643.12
-205473.69
-204673.6
-205604.76
-205513.33
-198998.27
-197847.61
-199257.09
-198722.78
-199819.01
-200049.37
-200310.66
-200814.91
-200704.34
-201491.21
-200806.45
-201986.73
-200676.41
-201968.76
-201124.12
-194383.63
-194534.57
-194881.39
-195910.85
-195603.05
-196213.75
-196429.14
-196623.73
-196924.32
-197127.94
-197134.55
-197627.46
-197281.95
-197512.22
-198488.78
-191832.62
-189793.13
-191386.86
-191046.92
-192457.19
-191951.55
-193091.07
-192641.2
-193533.24
-193160.22
-193280.01
-194241.27
-193201.21
-194277.37
-193913.37
-187273.99
-186385.89
-187492.87
-187640.23
-188101.03
-188579.94
-188764.64
-189179.21
-189394.24
-189510.15
-189482.12
-190123.96
-189567.1
-190055.52
-190185.35
-183878.72
-182020.59
-183705.33
-183359.5
-184480.48
-184335.91
-185143.05
-185110.8
-185463.9
-185785.2
-185616.41
-186511.7
-185590.31
-186409.63
-186264
-179555.95
-178299.06
-179760.89
-179672.7
-180509.54
-180716.41
-181297.55
-181253.11
-181830.55
-181886.66
-181873.65
-182463.99
-181859.92
-182487.33
-182532.56
-175696.97
-174171.75
-175805.93
-175483.11
-176561.15
-176543.81
-177201.46
-177296.97
-177747.03
-177976.81
-177856.93
-178631.44
-177920.35
-178680.26
-178577.7
-171542.14
-170278.34
-171754.15
-171641.76
-172630.54
-172673.65
-173437.47
-173353.78
-173950.24
-174002.84
-174042.91
-174677.37
-174095.7
-174710.35
-174729.13
-167570.84
-166102.83
-167712.68
-167458.81
-168477.16
-168607.92
-169251.67
-169300.66
-169826.93
-170012
-169998.18
-170740.27
-170077.83