/*--------------------------------*- C++ -*----------------------------------*\
  =========                 |
  \\      /  F ield         | OpenFOAM: The Open Source CFD Toolbox
   \\    /   O peration     | Website:  https://openfoam.org
    \\  /    A nd           | Version:  6
     \\/     M anipulation  |
\*---------------------------------------------------------------------------*/
FoamFile
{
    version     2.0;
    format      ascii;
    class       pointVectorField;
    location    "1.28";
    object      u;
}
// * * * * * * * * * * * * * * * * * * * * * * * * * * * * * * * * * * * * * //

dimensions      [0 1 0 0 0 0 0];

internalField   nonuniform List<vector> 
28033
(
(0 0 0)
(0 0 0)
(1.5418654 -0.037496838 0.013497264)
(1.476537 -0.39227451 0.011462041)
(0 0 0)
(0 0 0)
(1.4772112 -0.39569365 0.011323869)
(1.5425553 -0.040974748 0.013052934)
(0 0 0)
(0 0 0)
(0 0 0)
(0 0 0)
(0 0 0)
(0 0 0)
(0 0 0)
(0 0 0)
(0 0 0)
(0 0 0)
(0 0 0)
(0 0 0)
(0 0 0)
(0 0 0)
(0 0 0)
(1.5375344 -0.060158998 0.013128056)
(1.5332354 -0.082420178 0.013000578)
(1.5289811 -0.10456416 0.012831519)
(1.5248146 -0.12665394 0.012737126)
(1.520688 -0.14867946 0.012646158)
(1.516594 -0.17066593 0.012576169)
(1.5125484 -0.19263269 0.012520696)
(1.5085288 -0.21459615 0.012472752)
(1.5045384 -0.23656633 0.012419508)
(1.5005618 -0.25857174 0.012369806)
(1.4966047 -0.28060545 0.012298108)
(1.4926401 -0.30271097 0.012202222)
(1.4886965 -0.32487943 0.012091961)
(1.4846925 -0.347154 0.01195924)
(1.480721 -0.36956584 0.011749063)
(0.003934042 0.0062818884 0.0066948031)
(0.0048208244 0.0095930029 0.0092023793)
(0.0061493924 0.0131707 0.011081985)
(0.0081693887 0.016815448 0.012243895)
(0.010496514 0.020577051 0.012996236)
(0.013554256 0.024345558 0.013488736)
(0.017103387 0.028220793 0.013781249)
(0.021257477 0.031932606 0.013915188)
(0.025931759 0.035777659 0.013976884)
(0.031187939 0.039414516 0.013957934)
(0.036899312 0.043086177 0.013905042)
(0.043167509 0.046601966 0.013782394)
(0.049877166 0.050084837 0.01371402)
(0.057148937 0.053427363 0.013542449)
(0.06477171 0.056672615 0.013463046)
(0.072944477 0.059803158 0.013275591)
(0.081495876 0.06283708 0.013192184)
(0.090536816 0.06572418 0.01302881)
(0.099932182 0.068510539 0.012932575)
(0.10979988 0.071166754 0.012780255)
(0.12001487 0.07370457 0.012698516)
(0.13066522 0.076112164 0.012556695)
(0.14166683 0.078401387 0.01247869)
(0.15306958 0.080568393 0.012368398)
(0.16480761 0.082597986 0.012285957)
(0.17693201 0.084525225 0.012193305)
(0.18938001 0.086307148 0.012122912)
(0.20219241 0.087990384 0.012047318)
(0.21532795 0.089528308 0.011976524)
(0.2287979 0.09096257 0.011914878)
(0.24259337 0.09226989 0.011853754)
(0.25669934 0.093455483 0.011792875)
(0.27112237 0.094528536 0.011742231)
(0.28585138 0.095470022 0.011687408)
(0.30087618 0.096306977 0.01163586)
(0.31620552 0.097016472 0.011578922)
(0.33181355 0.097610929 0.011533742)
(0.3477185 0.098087328 0.011485446)
(0.36388488 0.098439842 0.011426298)
(0.38033908 0.098685159 0.011378272)
(0.39704508 0.098799104 0.011324786)
(0.41401762 0.09881259 0.011276677)
(0.43124327 0.098694613 0.011220829)
(0.4487202 0.098470369 0.011173442)
(0.4664299 0.098119512 0.011122132)
(0.48438192 0.097660175 0.011074663)
(0.50255194 0.0970803 0.011029254)
(0.52095062 0.096386712 0.010985346)
(0.53955338 0.095577726 0.010945669)
(0.55836969 0.094654118 0.010908918)
(0.57737749 0.093617503 0.010876065)
(0.5965816 0.092466536 0.010847833)
(0.61596553 0.09120603 0.010823883)
(0.63552799 0.089831433 0.010805136)
(0.65525801 0.08835076 0.010790987)
(0.67514954 0.086758682 0.010782876)
(0.69519488 0.085062416 0.010779522)
(0.71538645 0.08325991 0.010782308)
(0.73571667 0.081356258 0.010790513)
(0.75617856 0.079350124 0.010805245)
(0.77676444 0.077248918 0.010825368)
(0.79746867 0.075050109 0.010852013)
(0.8182801 0.072762831 0.010886055)
(0.83920166 0.070379584 0.010923435)
(0.86021275 0.067921962 0.010973586)
(0.88132091 0.065373499 0.011023712)
(0.90251408 0.062745764 0.011084956)
(0.92378725 0.060046569 0.011151295)
(0.94513659 0.057273428 0.011222103)
(0.96655717 0.054435552 0.01130255)
(0.98804903 0.051528693 0.011388428)
(1.0096008 0.048558934 0.01148152)
(1.0312234 0.045537875 0.011574087)
(1.0528967 0.042444546 0.011679671)
(1.0746396 0.039321911 0.011776359)
(1.0964288 0.036109422 0.011891271)
(1.1182823 0.032894598 0.01198837)
(1.1401847 0.029571187 0.012107921)
(1.1621417 0.026264966 0.012202804)
(1.1841506 0.022843609 0.012322597)
(1.2062106 0.019436867 0.012410494)
(1.2283143 0.015933105 0.0125277)
(1.2504745 0.012421286 0.01260933)
(1.2726632 0.0088339542 0.012716964)
(1.2949099 0.0052214366 0.01279748)
(1.3171811 0.0015607608 0.012888024)
(1.3395038 -0.0021672823 0.012965744)
(1.3618391 -0.0059046246 0.013050183)
(1.3842248 -0.0097233136 0.013113499)
(1.4066117 -0.013540247 0.01319487)
(1.4290353 -0.017466396 0.013273673)
(1.4514795 -0.021307637 0.013319228)
(1.4739239 -0.025326204 0.013444035)
(1.4964462 -0.029256798 0.013489293)
(1.5189477 -0.033230667 0.013612336)
(0.0015877987 -0.006478659 -0.0076844756)
(0.0030384248 -0.0089150501 -0.0088737541)
(0.0039435816 -0.012368321 -0.011515238)
(0.005103927 -0.015319891 -0.012343121)
(0.0072910052 -0.018817066 -0.01326539)
(0.0098224032 -0.022513445 -0.013630317)
(0.012946543 -0.025888314 -0.013922356)
(0.016625286 -0.029682424 -0.013910014)
(0.020883763 -0.033300479 -0.013892935)
(0.025548193 -0.037004986 -0.013730404)
(0.030798167 -0.040719474 -0.013541157)
(0.036420627 -0.0444193 -0.013305207)
(0.042572645 -0.048144967 -0.01303177)
(0.049106121 -0.05187004 -0.012774447)
(0.056107306 -0.055563453 -0.012468792)
(0.063496412 -0.059314452 -0.012195089)
(0.071308944 -0.062975204 -0.011888401)
(0.079512083 -0.066728249 -0.011595775)
(0.088103648 -0.070405141 -0.011303971)
(0.097103234 -0.07414815 -0.011009888)
(0.10644384 -0.077827411 -0.010712978)
(0.11618717 -0.081590121 -0.010434786)
(0.1262447 -0.085257366 -0.010146607)
(0.13670405 -0.089037636 -0.0098623171)
(0.14745189 -0.092727865 -0.0095944636)
(0.15861461 -0.096523065 -0.0092986608)
(0.17003764 -0.10025511 -0.009056186)
(0.1818603 -0.10406104 -0.0087629444)
(0.1939445 -0.10784121 -0.0085255154)
(0.20640046 -0.11166348 -0.0082431249)
(0.21912348 -0.11549929 -0.0080018163)
(0.23219488 -0.11935395 -0.0077377894)
(0.24553639 -0.12323674 -0.007493656)
(0.25920675 -0.12713571 -0.0072373467)
(0.27315095 -0.13106963 -0.0069910419)
(0.28740073 -0.13501295 -0.0067466836)
(0.30192747 -0.1389879 -0.0064886277)
(0.31674223 -0.14299163 -0.0062433255)
(0.33182995 -0.14701449 -0.005990332)
(0.34719696 -0.15106479 -0.0057378975)
(0.36282915 -0.15513969 -0.00548155)
(0.37872771 -0.15923637 -0.0052233767)
(0.39488522 -0.16335865 -0.0049596734)
(0.41129857 -0.16750204 -0.0046932844)
(0.42795999 -0.1716677 -0.0044209316)
(0.44486946 -0.175855 -0.0041429688)
(0.46201481 -0.18006116 -0.0038599236)
(0.47939839 -0.18428773 -0.0035690321)
(0.49700771 -0.18853173 -0.0032724904)
(0.51484268 -0.19279266 -0.0029678658)
(0.53289344 -0.19707006 -0.0026563922)
(0.55115699 -0.20136181 -0.0023372924)
(0.56962454 -0.20566673 -0.0020109656)
(0.58829256 -0.20998461 -0.0016774157)
(0.60715146 -0.21431263 -0.0013373752)
(0.62619719 -0.21864992 -0.00099109321)
(0.64542114 -0.22299625 -0.00063931396)
(0.6648171 -0.22734788 -0.00028310379)
(0.68437721 -0.2317055 7.6691921e-05)
(0.70409555 -0.23606699 0.00043926264)
(0.72396291 -0.24043069 0.00080286748)
(0.74397391 -0.24479589 0.0011668241)
(0.76412023 -0.24916188 0.0015297049)
(0.78439542 -0.25352679 0.0018904213)
(0.8047919 -0.25789054 0.0022473156)
(0.82530477 -0.26225366 0.0026009286)
(0.84592592 -0.26661284 0.0029471705)
(0.8666505 -0.27097231 0.0032898265)
(0.88747322 -0.27532506 0.0036217054)
(0.90838632 -0.27967547 0.0039526237)
(0.92938948 -0.28403181 0.0042712453)
(0.95047648 -0.28837571 0.004585079)
(0.97164605 -0.29273089 0.0048913481)
(0.99288936 -0.29707351 0.0051887397)
(1.014213 -0.30142692 0.0054840077)
(1.0356042 -0.30577212 0.005767596)
(1.0570703 -0.31012488 0.0060524906)
(1.078604 -0.31447303 0.0063277119)
(1.1002065 -0.31882748 0.0066047449)
(1.1218751 -0.32317681 0.0068749113)
(1.1436104 -0.32753291 0.0071482667)
(1.1654092 -0.33188194 0.0074169176)
(1.1872711 -0.33623556 0.0076901638)
(1.2091953 -0.34058121 0.0079605912)
(1.2311772 -0.34492628 0.0082353595)
(1.2532183 -0.34926314 0.0085101427)
(1.2753124 -0.35359312 0.0087885)
(1.2974594 -0.35791144 0.0090660308)
(1.3196531 -0.36222222 0.0093497182)
(1.3418951 -0.36651528 0.0096304014)
(1.3641728 -0.37079621 0.0099141479)
(1.3864984 -0.3750692 0.010197035)
(1.408851 -0.3793347 0.010490876)
(1.4312784 -0.38358711 0.010763268)
(1.453747 -0.38791168 0.011086947)
(0 0 0)
(0 0 0)
(0 0 0)
(0 0 0)
(0 0 0)
(0 0 0)
(0 0 0)
(0 0 0)
(0 0 0)
(0 0 0)
(0 0 0)
(0 0 0)
(0 0 0)
(0 0 0)
(0 0 0)
(0.0036380734 -0.002772269 0.0056600312)
(0.0040132336 -0.010572403 0.0088846653)
(0.0040487022 -0.011111627 0.010604464)
(0.0058094189 -0.01641832 0.012341987)
(0.0075578014 -0.018891978 0.0130805)
(0.010346849 -0.022989716 0.013451559)
(0.013405206 -0.026290077 0.013734229)
(0.017236866 -0.030317175 0.013791242)
(0.021462496 -0.033787847 0.013774455)
(0.026185896 -0.037754608 0.013642457)
(0.031510984 -0.041424368 0.013557837)
(0.037090291 -0.045169779 0.013311513)
(0.043345369 -0.0490793 0.013195866)
(0.049810838 -0.052658974 0.01291061)
(0.056928115 -0.056714836 0.012785092)
(0.064252835 -0.060184841 0.012534602)
(0.072139116 -0.064229858 0.012387074)
(0.080317794 -0.067720631 0.012115755)
(0.088949486 -0.071738467 0.011991439)
(0.097945249 -0.075295119 0.011752954)
(0.10728908 -0.079190641 0.01162177)
(0.11705754 -0.08290145 0.011423192)
(0.12712135 -0.08669801 0.011300755)
(0.13759044 -0.090472749 0.011136739)
(0.14836437 -0.0942252 0.011001682)
(0.15951717 -0.09807298 0.010874583)
(0.17097439 -0.10181444 0.01074528)
(0.18277633 -0.10570296 0.01063526)
(0.19490045 -0.1094767 0.01051919)
(0.20732923 -0.11338199 0.010423625)
(0.2200918 -0.11721959 0.010319158)
(0.23314888 -0.12113593 0.010229364)
(0.24651967 -0.12503574 0.010136278)
(0.26018469 -0.12898598 0.010047179)
(0.27415308 -0.13294812 0.0099649784)
(0.28840666 -0.13692012 0.009872856)
(0.30294521 -0.14095965 0.0097939437)
(0.31777418 -0.14499141 0.0097100739)
(0.33287414 -0.1490641 0.0096303555)
(0.34825206 -0.15315758 0.0095465356)
(0.3638969 -0.15728375 0.0094668066)
(0.37980491 -0.16143143 0.0093864143)
(0.39597254 -0.16560965 0.0093071036)
(0.41239298 -0.16980979 0.0092300765)
(0.42906124 -0.17403648 0.0091538624)
(0.44597288 -0.17828613 0.0090813225)
(0.4631211 -0.18255756 0.0090101768)
(0.48050154 -0.1868507 0.0089434839)
(0.49810753 -0.19116261 0.0088797673)
(0.515934 -0.19549276 0.0088209552)
(0.53397417 -0.19983875 0.0087668884)
(0.55222361 -0.20419926 0.008716994)
(0.57067481 -0.20857257 0.008673859)
(0.58932273 -0.2129554 0.0086345956)
(0.60816044 -0.21734914 0.008602922)
(0.62718233 -0.22174705 0.008575359)
(0.64638058 -0.22615256 0.0085560336)
(0.66575045 -0.23055951 0.008541378)
(0.68528305 -0.23496885 0.0085347157)
(0.70497364 -0.23937789 0.0085342877)
(0.72481346 -0.24378547 0.0085413526)
(0.74479744 -0.24818992 0.0085555184)
(0.76491699 -0.25259124 0.0085779102)
(0.78516695 -0.25698664 0.0086074222)
(0.80553972 -0.26137737 0.0086454407)
(0.8260291 -0.26576264 0.0086915248)
(0.84663121 -0.27013967 0.00874375)
(0.86733502 -0.27451696 0.0088098326)
(0.88814261 -0.2788755 0.0088748781)
(0.90903819 -0.28324494 0.0089551708)
(0.93003132 -0.28759821 0.0090389365)
(0.95110612 -0.29195128 0.009131875)
(0.97226571 -0.29629967 0.0092275155)
(0.99350446 -0.30064682 0.0093306337)
(1.01482 -0.30499148 0.0094362472)
(1.0362108 -0.3093355 0.0095462046)
(1.0576736 -0.31367872 0.0096569863)
(1.0792086 -0.31802246 0.0097702631)
(1.1008117 -0.32236622 0.0098826935)
(1.1224841 -0.32670975 0.0099952603)
(1.144222 -0.33105391 0.010104796)
(1.1660266 -0.33539735 0.010213576)
(1.1878931 -0.33973877 0.010317259)
(1.2098237 -0.34407908 0.010419194)
(1.2318121 -0.34841381 0.010515567)
(1.2538597 -0.35274526 0.010610239)
(1.2759603 -0.3570666 0.010698475)
(1.2981145 -0.36138307 0.010787034)
(1.3203138 -0.36568369 0.010869397)
(1.3425614 -0.36997887 0.010954149)
(1.3648445 -0.37425322 0.011033199)
(1.3871739 -0.37852861 0.011119197)
(1.4095291 -0.3827833 0.011194164)
(1.4319628 -0.38705602 0.011279935)
(1.4543958 -0.39137467 0.011332947)
(1.481438 -0.37299559 0.011290122)
(1.4853995 -0.35062562 0.011310653)
(1.4893788 -0.32830771 0.011410205)
(1.493336 -0.30615944 0.011507201)
(1.4972976 -0.28404883 0.011668473)
(1.501249 -0.26201335 0.011813397)
(1.5052286 -0.24001873 0.012003136)
(1.509212 -0.21803562 0.012177995)
(1.5132489 -0.19609562 0.012359719)
(1.5172756 -0.17411002 0.012539921)
(1.5213799 -0.15213926 0.012697722)
(1.5254971 -0.13011048 0.01284181)
(1.529679 -0.10804182 0.0129757)
(1.5338644 -0.085865238 0.013061719)
(1.538225 -0.063667818 0.013125583)
(1.5196898 -0.036712129 0.012587399)
(1.4970972 -0.032770944 0.012301332)
(1.4746233 -0.028778195 0.011996954)
(1.4521585 -0.024829693 0.011713333)
(1.4297252 -0.02091553 0.011411405)
(1.4073065 -0.017038616 0.011116655)
(1.3849117 -0.013204079 0.010821444)
(1.3625376 -0.0094090342 0.010524549)
(1.3401931 -0.0056635731 0.010233256)
(1.317879 -0.0019575297 0.0099392854)
(1.2955992 0.0016982058 0.0096508543)
(1.2733577 0.0053111463 0.0093616478)
(1.2511557 0.0088763003 0.009074932)
(1.2289961 0.012397711 0.0087858014)
(1.2068846 0.015870314 0.0085000364)
(1.1848198 0.019299297 0.008212097)
(1.162805 0.0226806 0.0079248915)
(1.1408403 0.02601481 0.0076341561)
(1.1189281 0.02930404 0.0073408268)
(1.0970695 0.032542076 0.0070438864)
(1.0752653 0.035734914 0.0067418455)
(1.0535182 0.038873495 0.0064346426)
(1.0318279 0.041965044 0.0061205072)
(1.010199 0.044997301 0.0058009399)
(0.9886307 0.047979823 0.0054732972)
(0.96712971 0.050901106 0.0051391691)
(0.94568885 0.053763425 0.0047970504)
(0.92435158 0.056535926 0.0044602151)
(0.90305205 0.059280994 0.0040998657)
(0.88185506 0.061930989 0.0037439687)
(0.86073912 0.064514292 0.0033786249)
(0.83971772 0.067018364 0.0030123794)
(0.81879364 0.069441176 0.0026430452)
(0.79797525 0.071779256 0.0022717288)
(0.77726869 0.074029007 0.0019005873)
(0.75668081 0.076187973 0.0015301473)
(0.73621915 0.078251856 0.0011612819)
(0.71589096 0.080218914 0.00079589837)
(0.69570376 0.082085297 0.00043430075)
(0.67566486 0.083849292 7.7614154e-05)
(0.6557819 0.085507752 -0.00027345175)
(0.6360623 0.087059178 -0.00061802383)
(0.61651323 0.088500922 -0.00095633082)
(0.59714221 0.089831768 -0.0012872114)
(0.57795616 0.091049685 -0.0016112923)
(0.55896239 0.092153493 -0.0019280937)
(0.54016759 0.093141925 -0.0022379982)
(0.52157886 0.094013832 -0.0025411542)
(0.50320271 0.094768368 -0.0028380738)
(0.48504607 0.095405111 -0.003128923)
(0.46711545 0.095922343 -0.0034143656)
(0.44941644 0.096322226 -0.003695384)
(0.43195797 0.096599464 -0.0039708429)
(0.41474283 0.096761139 -0.0042453064)
(0.39778025 0.096799286 -0.0045134593)
(0.38107705 0.096719332 -0.004780417)
(0.36463033 0.096526412 -0.0050472963)
(0.34845471 0.09619945 -0.0053114753)
(0.33257396 0.095755037 -0.0055672472)
(0.31694546 0.095212305 -0.0058380422)
(0.30161143 0.094526482 -0.0061022885)
(0.28659539 0.093725968 -0.0063602392)
(0.27184661 0.092816206 -0.0066235113)
(0.25741255 0.091789391 -0.006897999)
(0.24328011 0.090625207 -0.0071646041)
(0.22948915 0.089358225 -0.0074402947)
(0.21598686 0.087961632 -0.0077045592)
(0.20284895 0.086454953 -0.0079875208)
(0.19001085 0.084810697 -0.0082619398)
(0.1775395 0.083082042 -0.0085568133)
(0.1653997 0.081185957 -0.0088301423)
(0.15362454 0.079208518 -0.0091323453)
(0.14222844 0.077056396 -0.009404863)
(0.13117757 0.074856786 -0.0097141304)
(0.12052485 0.072464484 -0.010005457)
(0.11026811 0.069987826 -0.010288923)
(0.10039275 0.067381277 -0.01060964)
(0.090950143 0.064635931 -0.010870282)
(0.08190335 0.061820518 -0.011204667)
(0.073316011 0.058805662 -0.011456713)
(0.065169456 0.055767647 -0.011768471)
(0.057433231 0.052518869 -0.012003001)
(0.050196584 0.049301859 -0.012324512)
(0.043443432 0.045783222 -0.012505922)
(0.037160494 0.042434825 -0.01279453)
(0.031385963 0.038748961 -0.012925355)
(0.026149174 0.035169453 -0.013081974)
(0.021434743 0.031406198 -0.013103726)
(0.017245649 0.027736156 -0.013084844)
(0.01365156 0.023946603 -0.012873011)
(0.010632149 0.020166345 -0.01242718)
(0.0082491579 0.016339533 -0.011710316)
(0.0064592219 0.012985492 -0.010643428)
(0.0049234883 0.0091187868 -0.008528535)
(0.0056128437 0.0057923462 -0.0050661715)
(0 0 0)
(0 0 0)
(0 0 0)
(0 0 0)
(0 0 0)
(0 0 0)
(0 0 0)
(0 0 0)
(0 0 0)
(0 0 0)
(0 0 0)
(0 0 0)
(0 0 0)
(0 0 0)
(0 0 0)
(0 0 0)
(0 0 0)
(0 0 0)
(0 0 0)
(0 0 0)
(0 0 0)
(0 0 0)
(0 0 0)
(0 0 0)
(0 0 0)
(0 0 0)
(0 0 0)
(0 0 0)
(0 0 0)
(0 0 0)
(1.4766238 -0.39264213 0.011438622)
(1.4766817 -0.39293681 0.011416623)
(1.476732 -0.39319271 0.011393796)
(1.4767895 -0.39344715 0.011384655)
(1.4768445 -0.39369175 0.011376981)
(1.4768999 -0.39392697 0.0113831)
(1.4769486 -0.39415458 0.011386342)
(1.4769948 -0.39437388 0.01139964)
(1.4770358 -0.39458876 0.011405399)
(1.4770695 -0.39479286 0.011412857)
(1.477108 -0.39500153 0.01141532)
(1.4771335 -0.39517881 0.01140878)
(1.4771652 -0.39536698 0.011395793)
(1.4771951 -0.39552642 0.011376698)
(1.4772317 -0.39569222 0.011346475)
(1.5420943 -0.037577162 0.013473126)
(1.5421814 -0.037760067 0.013480731)
(1.5422621 -0.037936654 0.013451667)
(1.5423485 -0.038126861 0.013426527)
(1.5424087 -0.038330432 0.013398152)
(1.5424718 -0.038539357 0.01335474)
(1.5425261 -0.038748448 0.013314817)
(1.5425713 -0.038965707 0.013266943)
(1.5426094 -0.039183237 0.013221664)
(1.5426382 -0.039404482 0.013179293)
(1.5426611 -0.039633178 0.013139539)
(1.5426745 -0.039864561 0.013106108)
(1.5426906 -0.040099304 0.013093658)
(1.5426849 -0.040372874 0.013053572)
(1.5427131 -0.040594398 0.01305816)
(0.0017619493 0.0032715709 0.0067578123)
(0.0025166575 0.0049711557 0.0078504072)
(0.0033026942 0.0068750173 0.0097599308)
(0.0048809654 0.0086796642 0.010526014)
(0.0065723365 0.010458377 0.011393127)
(0.0091477479 0.012347061 0.011795022)
(0.012055701 0.014218101 0.012106391)
(0.015737765 0.016234325 0.012266299)
(0.019754789 0.01816287 0.012355569)
(0.024483195 0.020237035 0.01238293)
(0.029617287 0.022188005 0.012324613)
(0.035364547 0.024290767 0.012314559)
(0.041534285 0.026225188 0.012189891)
(0.048260702 0.028319006 0.012135828)
(0.055399811 0.030242902 0.012009491)
(0.063105569 0.032300207 0.011939181)
(0.071221432 0.03421003 0.011797996)
(0.079792805 0.036207418 0.011733414)
(0.088845412 0.038114269 0.011606966)
(0.098338937 0.040052539 0.011525605)
(0.10825461 0.041937717 0.011426661)
(0.11861637 0.043815598 0.011350676)
(0.12940511 0.045677975 0.011251937)
(0.14058354 0.047509705 0.011188505)
(0.1522054 0.049328508 0.01110445)
(0.1642107 0.051116667 0.011045173)
(0.17662642 0.052889197 0.010974828)
(0.18941901 0.054626272 0.010921591)
(0.20261298 0.056340693 0.010862736)
(0.21617773 0.058027508 0.010814664)
(0.23011558 0.059671969 0.01076313)
(0.24442668 0.061288709 0.010717355)
(0.25909716 0.0628638 0.010675694)
(0.27411504 0.064393376 0.010632519)
(0.28949207 0.065883757 0.010590189)
(0.30520435 0.067307961 0.010552006)
(0.32125565 0.068694048 0.010511109)
(0.33762604 0.070008351 0.010467009)
(0.35432774 0.071264274 0.010429017)
(0.37133501 0.072447977 0.010388624)
(0.38864981 0.073557516 0.010351175)
(0.40625282 0.074576422 0.010307944)
(0.4241476 0.075527588 0.010272001)
(0.44231833 0.076368735 0.010231427)
(0.46074961 0.077126783 0.010194965)
(0.47944163 0.077777687 0.010161304)
(0.49837572 0.078321611 0.010127036)
(0.51754621 0.078754357 0.010099847)
(0.53693878 0.079069272 0.01007313)
(0.55654554 0.079261267 0.01005248)
(0.57635187 0.079327849 0.010034827)
(0.59634914 0.079261183 0.010023857)
(0.61652387 0.079060968 0.010016008)
(0.63686597 0.078719414 0.010015605)
(0.65736272 0.078237213 0.010019278)
(0.67800322 0.077606626 0.010030148)
(0.69877599 0.07683008 0.010045817)
(0.71966927 0.075900555 0.010068476)
(0.74067195 0.074819889 0.010096875)
(0.76177341 0.073584482 0.010131845)
(0.7829626 0.07219534 0.010172481)
(0.80422885 0.070650546 0.010220378)
(0.8255628 0.068951095 0.010274009)
(0.84695565 0.067094927 0.010335362)
(0.86839349 0.065093346 0.010399817)
(0.88988028 0.062924229 0.010474902)
(0.91140083 0.06061925 0.010552483)
(0.93293754 0.058157156 0.010641229)
(0.95450023 0.055549952 0.010733719)
(0.97607304 0.052793405 0.010833236)
(0.99766118 0.049898354 0.010933863)
(1.0192517 0.046859528 0.011041842)
(1.0408517 0.043686342 0.011150528)
(1.0624458 0.040372022 0.011265731)
(1.0840475 0.036933449 0.011379716)
(1.1056393 0.033349754 0.011500353)
(1.1272362 0.029660852 0.011614965)
(1.1488239 0.025816398 0.011739144)
(1.1704133 0.021889047 0.011849984)
(1.1919982 0.017800709 0.011974188)
(1.2135793 0.013635886 0.012081569)
(1.2351621 0.0093326584 0.012198573)
(1.2567398 0.0049355527 0.012302374)
(1.2783143 0.00042719102 0.012412625)
(1.2998898 -0.0041696576 0.012505264)
(1.3214644 -0.0088761893 0.012607765)
(1.343042 -0.013665052 0.012700131)
(1.3646079 -0.018534211 0.012785803)
(1.3861861 -0.02348474 0.012874077)
(1.4077384 -0.028524089 0.012968005)
(1.4293169 -0.033587326 0.013025921)
(1.4508646 -0.03875296 0.013126178)
(1.4724323 -0.04399814 0.013186584)
(1.494026 -0.049212002 0.013226264)
(1.5156358 -0.054673476 0.013251339)
(-0.00022454408 0.0014935889 0.0059909153)
(-2.0882592e-05 0.00050422393 0.0070851936)
(0.00094701524 0.0012686949 0.0084058771)
(0.001722556 0.0010362067 0.0093102284)
(0.0032519077 0.0014338809 0.0098859789)
(0.0052038705 0.0015771606 0.010242097)
(0.0078004145 0.0020326902 0.010518274)
(0.010819034 0.002366856 0.010672531)
(0.014507738 0.0029190815 0.010791772)
(0.018691242 0.0034111372 0.010769404)
(0.023385369 0.0040788308 0.010843653)
(0.028641487 0.004726932 0.010726018)
(0.03437395 0.0055165425 0.010755021)
(0.040647616 0.0063062174 0.010627918)
(0.047386808 0.0072076371 0.01062922)
(0.054690019 0.0081529226 0.010465451)
(0.062363209 0.0091752724 0.010476726)
(0.07065588 0.010263233 0.010338672)
(0.079325816 0.011419032 0.010300654)
(0.088528215 0.012638182 0.010203456)
(0.098154857 0.013936417 0.010156652)
(0.10829416 0.015297206 0.010060247)
(0.11884061 0.016730866 0.010021197)
(0.12988941 0.018226452 0.0099504304)
(0.14135419 0.01978285 0.0099026628)
(0.15328444 0.021413111 0.0098422115)
(0.16563333 0.02309287 0.0098023062)
(0.17843074 0.024831801 0.0097576533)
(0.19164767 0.026624252 0.0097150241)
(0.20528762 0.028461253 0.009677712)
(0.21934274 0.030342043 0.0096450077)
(0.23381243 0.032257715 0.0096107795)
(0.24867392 0.034205092 0.0095795841)
(0.26394345 0.036172612 0.0095503619)
(0.27959467 0.038154837 0.0095214138)
(0.29563107 0.040147033 0.009493386)
(0.31204571 0.042134406 0.0094611468)
(0.32882214 0.044112703 0.0094395781)
(0.34594513 0.046068324 0.0094102173)
(0.36342367 0.048004918 0.0093837367)
(0.38122632 0.049890266 0.0093541603)
(0.39936057 0.051742541 0.009334571)
(0.41781198 0.053519674 0.009297213)
(0.43655226 0.055241097 0.0092825178)
(0.45558945 0.056882241 0.0092551777)
(0.4748997 0.058431668 0.0092378152)
(0.49446918 0.059885693 0.0092207687)
(0.51428863 0.061230549 0.0092098077)
(0.53433989 0.062457367 0.0091996387)
(0.55461045 0.063556847 0.0091981511)
(0.57508425 0.064520907 0.0091986762)
(0.59574801 0.065337211 0.009207017)
(0.61658492 0.06600296 0.0092193947)
(0.63758142 0.066503502 0.0092396027)
(0.65872115 0.066837786 0.0092644826)
(0.67999024 0.066993205 0.0092970881)
(0.70137278 0.066968797 0.0093347602)
(0.72285449 0.066752912 0.0093804699)
(0.74442076 0.066347117 0.0094311067)
(0.76605803 0.065740475 0.0094891519)
(0.7877508 0.064934791 0.0095532658)
(0.80948863 0.063922725 0.0096236796)
(0.8312564 0.062703286 0.0097013712)
(0.85304266 0.061277177 0.0097824658)
(0.87483981 0.059640493 0.0098720794)
(0.89663526 0.057788153 0.0099692979)
(0.91840734 0.055736973 0.010068508)
(0.94017029 0.053455628 0.010177907)
(0.9619051 0.050971427 0.010282477)
(0.9836081 0.048273513 0.010397492)
(1.0052742 0.045375438 0.010511565)
(1.0268927 0.042260666 0.010636839)
(1.0484694 0.038954376 0.010756837)
(1.0699913 0.035428991 0.010889898)
(1.091471 0.031727439 0.01101037)
(1.1128893 0.027800878 0.011149889)
(1.1342685 0.023719735 0.011266209)
(1.1555841 0.019406296 0.01140969)
(1.1768638 0.01496418 0.011519026)
(1.1980804 0.01028215 0.011665187)
(1.2192665 0.0054949342 0.011765491)
(1.2403929 0.00048314492 0.011904471)
(1.2614901 -0.0046477024 0.012010315)
(1.2825355 -0.0099589445 0.012124375)
(1.3035618 -0.015385225 0.012225558)
(1.3245315 -0.0209743 0.012342596)
(1.3454856 -0.026673215 0.012435735)
(1.3663881 -0.032493842 0.01254099)
(1.3872857 -0.038453706 0.01264047)
(1.4081328 -0.044458588 0.012714779)
(1.4289851 -0.050614868 0.012811931)
(1.4497846 -0.056834424 0.012885546)
(1.4706172 -0.063118027 0.012938556)
(1.4914236 -0.069507222 0.012991451)
(1.5122987 -0.075970622 0.013013231)
(-0.001430453 -0.00029855763 0.0051733751)
(-0.0014975728 -0.0021794237 0.0059888515)
(-0.0015423274 -0.0032444745 0.0074279461)
(-0.00073579383 -0.0043753788 0.0079754499)
(0.00041521707 -0.0054084568 0.0084279933)
(0.0022361117 -0.006264543 0.0087232883)
(0.0043550874 -0.007173139 0.0089620844)
(0.0072790338 -0.0078498981 0.0091042368)
(0.010544043 -0.0086083759 0.0091305314)
(0.01443227 -0.0090542596 0.0092511376)
(0.018808429 -0.0096133077 0.0091755513)
(0.02377101 -0.0098510378 0.0092405189)
(0.029172148 -0.010187436 0.0091474011)
(0.035151777 -0.010207597 0.0091740589)
(0.041623488 -0.010273275 0.0090489833)
(0.048568386 -0.010098363 0.009088672)
(0.056074562 -0.0098889846 0.0089707496)
(0.064040947 -0.0094815362 0.0089545023)
(0.07250777 -0.0090021774 0.0088851652)
(0.08147675 -0.0083569299 0.008857499)
(0.09094249 -0.0075983079 0.0087834122)
(0.10087139 -0.0067175622 0.0087680514)
(0.11130822 -0.0056909562 0.0087083222)
(0.12219891 -0.0045618667 0.0086811511)
(0.13357895 -0.0032778336 0.0086340538)
(0.14541439 -0.0019030732 0.0086146501)
(0.15772913 -0.00038883271 0.008578543)
(0.17049052 0.0012254612 0.008553349)
(0.18371487 0.0029560355 0.0085298129)
(0.19738314 0.0047768609 0.0085128561)
(0.21150221 0.0067012196 0.0084889202)
(0.22604646 0.0087045455 0.0084748264)
(0.24103601 0.010788726 0.0084587181)
(0.25643686 0.012937672 0.0084441712)
(0.27225963 0.015148436 0.0084304848)
(0.28848871 0.017405945 0.0084161332)
(0.30510891 0.019699276 0.0084101301)
(0.32211139 0.02202054 0.0083981467)
(0.33951992 0.024351766 0.0083861058)
(0.35728146 0.026675375 0.0083691043)
(0.37540541 0.029002065 0.008363917)
(0.39387316 0.031293663 0.0083409007)
(0.41266823 0.033551697 0.008344182)
(0.43178533 0.035759666 0.0083328311)
(0.45120592 0.037899307 0.00832594)
(0.47090986 0.039964827 0.0083266125)
(0.49088942 0.041940211 0.0083255509)
(0.51112457 0.043811398 0.008331173)
(0.53159964 0.045567394 0.0083404634)
(0.55229765 0.047194574 0.008356515)
(0.57320318 0.04868138 0.0083750927)
(0.59429642 0.050015098 0.0084034623)
(0.61556258 0.051186633 0.008434242)
(0.63698205 0.052181459 0.0084747826)
(0.65853922 0.052994524 0.0085191099)
(0.68021507 0.053610907 0.0085721505)
(0.70199349 0.054026665 0.0086302841)
(0.7238568 0.05422962 0.0086964067)
(0.74578902 0.054216532 0.008767144)
(0.76777256 0.053976153 0.0088465837)
(0.78979352 0.053507626 0.0089298891)
(0.81183563 0.052800942 0.0090210964)
(0.83388397 0.051856514 0.0091167026)
(0.85592724 0.05066812 0.0092174014)
(0.87795303 0.049230705 0.009326631)
(0.89993728 0.047546761 0.0094364918)
(0.92190657 0.045625714 0.0095560907)
(0.94379749 0.043431017 0.0096748124)
(0.96564348 0.040985042 0.0098067595)
(0.98741842 0.03830016 0.0099371179)
(1.0091231 0.035356736 0.010070723)
(1.030749 0.0321704 0.010209854)
(1.0523023 0.02873425 0.01034518)
(1.073767 0.025056745 0.010486684)
(1.0951564 0.02113555 0.01062383)
(1.1164542 0.016977297 0.010766953)
(1.1376785 0.01259004 0.010902369)
(1.158809 0.0079674367 0.011046457)
(1.1798717 0.003133198 0.011178327)
(1.2008429 -0.0019285999 0.011320152)
(1.2217523 -0.0071797799 0.011444398)
(1.2425767 -0.012663797 0.011589762)
(1.2633394 -0.018295209 0.011699909)
(1.2840387 -0.024158026 0.011839745)
(1.3046704 -0.030153616 0.01195242)
(1.3252463 -0.036342733 0.012079845)
(1.3457676 -0.042654082 0.012181493)
(1.3662407 -0.049151213 0.012307639)
(1.3866754 -0.055725214 0.01239113)
(1.4070532 -0.062465945 0.012509515)
(1.4274181 -0.069301085 0.012593496)
(1.4477362 -0.076213362 0.012676145)
(1.4680596 -0.083256576 0.012745454)
(1.4883656 -0.090323897 0.012799356)
(1.5086914 -0.097481017 0.012835205)
(-0.0020754688 -0.00094989737 0.0043067735)
(-0.0027612322 -0.0038587718 0.0051644633)
(-0.002782143 -0.0055811212 0.0060420921)
(-0.0022376259 -0.0075787178 0.006473227)
(-0.0011352536 -0.0092427884 0.0068958115)
(0.0003437849 -0.010935625 0.0071390361)
(0.0025990371 -0.012373654 0.0073242431)
(0.0052183389 -0.013886425 0.0073726062)
(0.0084135202 -0.015134393 0.0075566495)
(0.012184314 -0.016398836 0.0074820545)
(0.016461155 -0.017465003 0.0076054031)
(0.021236652 -0.018461528 0.0075167948)
(0.026551179 -0.019300256 0.007601661)
(0.032421056 -0.019993232 0.0074760617)
(0.03870604 -0.020607571 0.0075725101)
(0.045619411 -0.020998056 0.0074484201)
(0.052945919 -0.021312413 0.0074815057)
(0.060831482 -0.021429189 0.0074236757)
(0.069180064 -0.021432957 0.007425704)
(0.078072673 -0.021252203 0.007367414)
(0.08740048 -0.020947453 0.007375484)
(0.097277283 -0.02046426 0.0073332613)
(0.10759912 -0.019843973 0.0073235063)
(0.11843781 -0.019062814 0.0073019095)
(0.1297356 -0.018140721 0.0072951239)
(0.14153098 -0.017073504 0.0072809241)
(0.1537823 -0.01585501 0.0072698555)
(0.16651404 -0.014517226 0.0072699991)
(0.17970158 -0.013036307 0.0072631619)
(0.19335497 -0.011440378 0.0072602404)
(0.20744843 -0.0097238697 0.0072621357)
(0.22200461 -0.0079064528 0.0072640012)
(0.23698625 -0.0059865457 0.0072636182)
(0.25240788 -0.0039805923 0.0072702549)
(0.26825591 -0.0019041463 0.0072713742)