/*--------------------------------*- C++ -*----------------------------------*\
  =========                 |
  \\      /  F ield         | OpenFOAM: The Open Source CFD Toolbox
   \\    /   O peration     | Website:  https://openfoam.org
    \\  /    A nd           | Version:  6
     \\/     M anipulation  |
\*---------------------------------------------------------------------------*/
FoamFile
{
    version     2.0;
    format      ascii;
    class       pointScalarField;
    location    "0.49";
    object      p;
}
// * * * * * * * * * * * * * * * * * * * * * * * * * * * * * * * * * * * * * //

dimensions      [1 -1 -2 0 0 0 0];

internalField   nonuniform List<scalar> 
28033
(
1543978.4
-2320563.5
220.7203
-136.69035
2883996.1
-3293369.1
-71.113258
51.090747
1328223.7
1164546.9
1002048.3
815570.75
603947.49
404864.87
207230.52
-13953.31
-229661.52
-426569.62
-661417.56
-787084.29
-1058770.7
-1288656.4
-1296447.5
231.47074
844.03429
1064.7183
1110.6167
1130.9503
748.62679
583.31822
162.76877
-146.37119
-720.2574
-692.56987
-911.44961
-867.13027
-772.14686
-486.96395
431256.69
448570.61
411299.47
436403.17
425766.08
436621.03
437250.7
437866.15
435721.34
436271.97
431389.93
426840.54
423552.38
418441.51
412346.06
405593
400601.74
393603.51
386656.87
379459.58
373303.23
364829.05
358822.59
350790.93
343238.26
336246.79
328686.27
321276.92
313874.4
306719.02
299599.27
292517.49
285946.34
279224.74
271810.83
266384.72
259969.57
254512.98
247738.14
241888.52
235046.57
228698.16
221759.82
215093.65
207660.29
200335.39
192334.71
184344.64
175724.12
167184.83
158126.68
149178.78
140011.9
130961.5
121998.1
113263.72
104824.25
96746.262
89102.996
81925.857
75211.966
68958.938
63111.86
57817.064
52735.264
48145.44
44242.2
39652.401
35184.254
30980.851
26773.725
22735.087
18864.305
15232.442
11792.692
8711.5582
5948.6093
3660.5759
1655.1013
224.42473
-933.89726
-1617.4405
-1848.0486
-1765.8237
-1518.2962
-1126.6924
-629.19648
-143.85056
323.5154
736.42276
926.9844
1190.7807
795.73749
741.41055
49.563085
-389578.53
-328534.46
-395420.38
-352028.93
-403149.23
-394214.93
-405282.38
-398381.1
-406823.59
-398233.19
-400872.64
-395000.68
-391927.39
-388618.94
-383441.85
-378525.51
-373199.24
-366930.93
-361176.17
-355203.3
-347440.89
-342457.57
-333769.61
-328029.72
-320544.44
-313091.59
-306781.12
-298615.03
-292767.19
-284750.42
-278243.47
-271705.12
-265347.83
-259729.13
-253959.38
-249203.2
-242874.76
-238320.11
-232539.71
-227830.05
-222252.57
-216938.5
-211085.29
-205174.7
-198680.93
-192002.6
-184781.59
-177253.6
-169329.49
-161079.83
-152582.59
-143887.55
-135096.41
-126315.53
-117603.52
-109105.26
-100869.73
-92991.064
-85525.515
-78528.563
-71988.005
-65962.505
-60371.042
-55214.388
-50434.271
-46007.228
-41790.049
-37892.736
-34083.171
-29971.374
-26520.66
-22764.202
-19202.066
-15692.784
-12322.188
-9125.0761
-6150.6286
-3483.8489
-1116.2291
836.23043
2437.0117
3584.0097
4361.0996
4705.2352
4747.1895
4439.3028
3933.1962
3222.8457
2440.7245
1618.4062
854.13991
179.11839
-246.90465
-367.73529
-287.1273
2364896.1
2229374.5
1600314.1
1632189.3
1130214
675166.85
418981.19
-46511.658
-400357.69
-847980.18
-1174477.4
-1605879.7
-2036121.3
-2364492.5
-2535303.8
-675883.31
-505498.66
-217704.7
-484233.65
-394845.02
-422781.36
-410170.97
-429809.84
-410724.73
-418657.15
-427752.11
-404982.48
-420135.36
-397782.67
-408829.72
-396848.47
-388741.83
-379396.57
-372136.22
-366776.91
-358468.17
-346565.91
-345917.44
-338066.58
-330679.38
-326991.66
-312323.59
-312351.75
-298545.74
-296051.58
-289567.92
-283560.43
-276843.78
-271016.33
-266398.34
-255589.58
-252611.15
-247715.53
-241811.04
-235974.36
-229993.66
-223834.34
-217455.85
-210779.94
-203850.17
-196615.38
-188999.79
-181081.55
-172855.11
-164421.14
-155766.48
-147007.53
-138205.41
-129433.71
-120790.11
-112316.4
-104158.12
-96294.301
-88822.091
-81780
-75114.181
-68905.135
-63037.82
-57548.63
-52317.201
-47359.624
-42687.179
-37988.916
-33592.592
-29047.161
-25055.606
-20987.987
-17019.972
-13314.702
-9836.3306
-6660.7079
-3844.7274
-1462.5533
547.48351
2084.8252
3203.2647
3875.3053
4205.6985
4124.2039
3831.396
3280.5651
2646.33
1903.3097
1229.0042
582.45727
87.552013
-238.83896
-408.91675
-357.08337
-214.47094
-522.97434
-1123.1575
-1202.4592
-1485.5083
-984.2455
-1022.4339
-17.540782
-191.5325
395.37559
1057.348
1039.882
1222.4695
1205.2863
1164.3043
275.90071
192.40114
666.79881
576.14587
408.38444
11.86913
-537.56623
-1170.7867
-1861.8907
-2530.6773
-3095.1719
-3505.4055
-3738.3107
-3611.6343
-3222.6464
-2395.5274
-1137.3916
568.5985
2715.6321
5347.1966
8317.7662
11689.372
15367.061
19278.11
23287.746
27566.453
31297.894
35187.147
41661.118
44807.025
49927.498
54713.696
59931.438
65266.689
71053.861
77291.321
83998.235
91281.105
99033.525
107363.59
116099.58
125272.41
134688.56
144366.61
154038.02
163745.47
173248.8
182543.37
191458.51
200078.32
208102.55
215880.43
222989.22
229997.75
236456.45
242372.69
248524.58
253942
257252.41
267249.56
272011.23
275622.42
285936.3
290534.94
297968.64
300880.63
314126.42
316303.8
329164.98
334770.96
343802.8
351216.9
355554.42
368604.35
375103.71
378352.48
390717.73
393018.13
403066.3
406122.08
414686.9
424529.08
421778.38
427222.19
434711.61
441580.03
437616.67
445032.93
441704.03
441677.81
432632.24
427460.8
444645.24
434014.08
399631.78
508280.15
1162487.8
1232706.3
1299016.1
1349719.5
1375300.6
1415722.5
1412930.5
1431305.6
1415716.2
1383177.1
1406399.5
1320095.5
1273445.7
1340965
1057559
-1858065.4
-2355363.4
-2337672.8
-2522573.1
-2467880.8
-2356610.7
-2707876.7
-2896500.9
-2707520.8
-2719575.9
-2607594
-2511670.3
-2363587.4
-2329619.1
-2200215.7
-10.138068
233.02287
385.22945
469.80475
494.77427
464.08764
450.77696
440.79124
421.35804
386.71911
418.75107
345.89655
248.37547
123.00055
21.532863
-237.10195
-613.37395
-837.88572
-890.17966
-826.73722
-717.44669
-578.75085
-424.80214
-263.36447
-148.18891
-24.806585
51.422774
95.597945
176.24882
155.40352
405348.03
412710.79
368377.92
371746.7
378400.07
384022.36
386490.5
389191.7
390329.35
389476.72
386697.44
387044.19
381201.67
377970.41
372379.06
369743.5
362063.23
357693.24
351060.52
345519.03
339640.02
333458.68
326586.42
320533.55
313590.18
307711.96
300502.77
294268.79
287492.84
281325.15
274119.61
267690.47
262139.52
255299.21
249779.56
243077.76
237193.67
230560.01
224608.06
218849.41
212712.25
206276.59
199998.9
193164.39
186293.02
179266.68
171812.77
164383.99
156518.12
148685.1
140571.31
132526.38
124381.73
116379.56
108480.31
100807.28
93383.873
86279.229
79519.872
73103.161
67052.8
61319.01
55975.732
50890.46
45799.142
41353.273
36541.863
32294.225
28064.28
24402.379
20787.042
17389.96
14120.631
11243.184
8563.3282
6373.4602
4410.6063
2895.9289
1611.2388
825.96675
112.44852
-222.90132
-395.9608
-485.69848
-372.82386
-145.54213
68.367482
292.60715
506.85722
632.63215
726.33969
723.23196
558.2787
626.40796
469.29576
378974.46
349373
306943.85
316992.9
317737.7
321418.91
323338.64
327995.92
328788.62
330281.85
329080.16
328566.02
325547.46
324217.67
319679.65
316233.06
311442.4
307972.01
302379.51
297991.04
292350.62
286893.6
281838.25
276571.02
271102.79
265391.8
260209.3
254585.98
249041.12
243337.08
238091.84
232588.13
226798.38
221292.18
215809.11
210197.39
204615.08
199159.81
193652.02
187983.34
182083.58
176731.19
170130.22
164370.55
157995.22
151772.48
145186.35
138676.75
131846.24
125136.71
118198.85
111397.95
104533.68
97820.804
91208.113
84777.795
78554.885
72580.534
66842.934
61380.634
56180.033
51239.502
46591.895
42112.823
37918.167
34422.479
30760.045
26994.933
23937.656
20602.105
17532.054
14751.161
12116.948
9823.0714
7777.4802
6108.4314
4528.2254
3406.2362
2364.0332
1692.8991
1084.8447
727.43758
601.50198
445.6551
295.56272
348.31654
340.53438
389.03377
414.21038
437.32124
411.47338
439.35546
307.73198
613.23484
370.15099
303831.6
296369.14
251482.98
264427.61
259334.91
265173.49
269173.41
272949.37
272655.33
275049.18
274320.47
274848.86
272280.27
270965.44
267750.43
265918.09
261419.41
258552.87
254097.24
250558.84
246189.64
242294.93
237818.08
233523.94
228716.77
224491.73
219749.05
215105.05
210517.98
205850.46
201050.01
196197.85
191563.82
186701.51
182084.35
177089.75
172668.79
168114.63
163317.17
158258.12
153158.04
148002.05
143112.59
137936.55
132677.92
127223.83
121677.83
116072.78
110355.41
104625.04
98804.302
93058.614
87271.634
81618.251
76026.313
70590.533
65318.771
60228.381
55332.224
50656.772
46186.599
41920.12
37877.303
33954.474
30435.212
27109.836
24110.43
20886.435
18166.147
15618.926
13283.282
11083.749
9141.3754
7505.9025
6038.3327
4868.666
3929.836
3158.9317
2601.8363
2181.728
1831.9047
1719.7375
1465.1125
1091.5339
509.52903
554.34604
444.72766
447.16726
475.88743
399.58702
429.25225
402.45755
351.83575
586.34699
505.22526
240600.13
238918.79
194117.51
209598.99
200535.86
209499.58
210487.3
213514.43
214523.65
217532.65
216647.85
217754.75
215233.13
215913.57
212367.31
211504.16
207676.59
206343.21
202214.84
199879.9
195960.51
193028.86
189253.44
185940.36
182535.83
179055.69
175595.35
172068.94
168507.42
164832.98
161300.72
157544.66
153798.78
149940.85
146413.62
141872.18
138270.59
133148.9
128786.62
124702.95
120854.71
116526.7
112114.01
107626.58
103242.14
98780.358
94316.195
89877.632
85392.284
80963.585
76534.09
72185.613
67865.236
63651.128
59499.502
55472.276
51532.765
47715.121
44010.323
40428.659
36960.38
33611.382
30379.632
27289.217
24366.737
21509.114
18865.743
16537.098
13932.521
12050.525
10178.952
8309.8298
6933.4925
5637.3662
4633.1473
3734.896
3025.1179
2479.2755
2020.2145
1700.693
1457.9218
1277.4506
1115.9781
1063.5396
1070.0083
1025.6468
847.89114
771.78628
634.9515
506.05266
428.20773
346.76445
273.95085
628.79816
411.11967
192244.64
175247.31
142017.63
154644.25
151625.6
155986.05
157803.74
160787.86
160605.59
162581.45
162258.37
162196.49
161537.08
160815.63
158661.39
157907.14
154950.83
153733.97
150686.16
149054.81
146314.15
144231.14
141450.42
139373.77
136656.03
134177
131541.67
128954.2
126303.88
123711.21
120914.75
118132.69
115311.07
112563.79
109584.06
106534.67
105328.79
104013.2
101363.05
100070.27
96179.343
92855.777
89555.153
86069.901
82598.815
79053.529
75520.981
72013.299
68534.493
65091.943
61670.262
58322.941
54978.944
51705.633
48469.956
45291.373
42157.505
39094.63
36095.464
33157.899
30316.968
27525.018
24873.152
22352.931
19758.362
17664.627
15355.04
13469.106
11439.136
9801.4234
8344.3836
7084.4457
5242.6504
4269.3837
3536.3039
2879.8169
2439.3074
2042.5126
1756.4109
1553.1251
1365.1571
1277.9384
1127.9631
1085.6044
947.79505
871.66115
761.365
673.46237
550.00284
425.96283
366.59406
192.43622
268.34258
454.12918
303.83721
116762.81
118911.87
90881.763
105110.92
98227.001
101056.36
103694.79
105598.01
104275.12
107727.33
105264.64
107196.07
104659.06
105493
102878.12
103037.2
100322.96
100248.69
97422.871
96829.097
94429.451
93279.362
91406.583
90108.738
88322.728
86928.948
85469.143
83930.578
82429.045
80756.539
79169.03
77421.634
75738.264
73839.625
71766.135
70238.1
68874.812
67913.195
66886.856
65707.019
64476.763
61942.953
59435.929
56989.1
54554.82
52138.448
49769.789
47510.258
45278.914
43132.434
41038.257
39003.533
36991.985
35032.942
33086.503
31148.426
29233.99
27313.914
25396.63
23493.412
21589.179
19725.517
17868.611
16024.952
14374.472
12560.81
11084.588
9585.2837
8246.9382
7118.0812
5972.2188
5051.2853
4275.1754
3356.7202
2750.6172
2417.446
2084.2547
1912.6055
1731.366
1693.0549
1567.231
1581.3738
1483.4625
1475.6067
1333.34
1289.9338
1076.2923
917.85268
704.31323
497.78641
338.12883
171.73083
121.8423
298.92527
267.19356
58257.697
53189.679
43365.087
53221.53
46901.008
49689.219
51157.319
51072.257
50640.163
50978.064
50910.39
50050.721
49628.245
49637.89
47974.402
48394.511
46534.758
46842.934
45069.898
45467.421
43899.252
44136.335
43023.485
42832.647
42011.526
41788.866
41010.575
40590.988
39868.954
39362.661
38627.596
37937.73
37116.274
36131.086
35413.588
34326.609
33424.654
32552.276
30474.85
29103.776
28105.724
27018.833
25713.681
24778.475
23756.512
22816.87
21873.777
21077.025
20234.819
19501.159
18754.692
18045.456
17322.389
16603.418
15853.596
15072.789
14270.489
13412.335
12529.196
11604.057
10659.107
9687.3761
8700.4818
7747.7029
6756.0844
5877.7435
4958.4063
4155.8342
3390.4314
2782.1664
2236.1489
1772.3694
1457.6004
1275.9745
1149.2072
1105.8793
1059.421
1114.5915
1175.9363
1269.2594
1317.7344
1423.0612
1395.273
1431.1616
1340.9274
1288.6818
1128.383
993.33964
818.48539
599.96853
453.81418
192.03635
159.36997
152.36899
86.34865
-12395.287
-2810.9667
-9060.6745
-1440.0655
-3845.5015
-2661.6767
-3101.9621
-1923.6411
-5811.5592
-2572.5404
-5732.3702
-4746.0153
-5912.6073
-5428.1274
-6871.4094
-5702.0106
-7295.2221
-5961.4183
-7166.6936
-6036.3281
-6696.0425
-5623.6865
-6255.5591
-5327.1331
-5212.1334
-4588.8177
-4179.5192
-3649.027
-3197.4218
-2814.6632
-2474.8864
-2244.5391
-2115.5491
-1882.7565
-1917.0625
-2045.5228
-1844.1913
-2132.3899
-2322.0411
-2729.4319
-2880.3686
-2888.1779
-3194.9374
-3245.1507
-3229.1259
-3211.3533
-3052.9439
-2796.5716
-2509.8956
-2135.9588
-1722.3582
-1268.7527
-812.60015
-351.6213
99.780948
493.29863
864.94491
1162.7286
1393.1635
1557.0221
1643.6424
1653.2179
1598.3062
1478.1981
1323.8598
1088.0474
876.69161
641.65122
416.97758
205.96751
30.725687
-60.342002
-172.58337
-123.29677
30.379801
208.05416
339.97159
551.89763
758.62765
959.36422
1159.1826
1312.571
1433.4763
1490.9579
1502.2744
1431.3121
1320.985
1143.0755
936.50953
686.15604
444.98506
222.40538
114.54881
55.781126
-132.33208
-62224.859
-61982.525
-53058.325
-50427.113
-51609.053
-54860.712
-53471.454
-57362.957
-57243.211
-58682.112
-58968.116
-59626.195
-59693.795
-59173.828
-59662.425
-58210.962
-58890.855
-56699.325
-57603.779
-55081.552
-55551.745
-53417.162
-52929.199
-50467.226
-49776.752
-47658.43
-46715.038
-44890.548
-43795.88
-42306.624
-41182.908
-40029.398
-38912.325
-37951.57
-37160.408
-36133.478
-35566.326
-34664.925
-33996.899
-33121.411
-32365.57
-31462.257
-30688.703
-29627.229
-28579.286
-27463.105
-26259.239
-24925.433
-23598.824
-22167.531
-20714.146
-19238.68
-17791.204
-16341.417
-14955.225
-13652.379
-12397.048
-11270.802
-10239.536
-9314.2473
-8504.0776
-7806.362
-7207.5805
-6685.2336
-6272.8338
-5886.87
-5547.4697
-5208.101
-4920.8353
-4570.6386
-4217.171
-3814.5491
-3358.171
-2789.1521
-2506.3952
-1956.7844
-1361.4821
-725.71066
-187.47962
357.47741
800.84601
1203.5828
1461.935
1672.2339
1726.6182
1710.5509
1602.5298
1388.644
1144.1372
851.31119
559.22353
240.181
44.519821
-235.15009
-206.59865
-125814.82
-122581.8
-102837.34
-104517.78
-107362.66
-108622.02
-111818.68
-111697.93
-116115.56
-115067.74
-116285.22
-116559.91
-116051.72
-115007.27
-115092.89
-112748.19
-112483.92
-109917.83
-109131.06
-106077.14
-105197.35
-100712.78
-98698.137
-95359.485
-93736.777
-90919.9
-88909.271
-86242.215
-84166.045
-81817.704
-79866.603
-77748.362
-75936.745
-74149.225
-72269.067
-70799.479
-69003.584
-67522.155
-65877.39
-64390.606
-62750.243
-61068.439
-59302.545
-57489.267
-55506.016
-53482.016
-51312.864
-49034.765
-46721.721
-44302.805
-41838.536
-39361.208
-36870.642
-34385.554
-31954.955
-29586.107
-27272.415
-25090.768
-22998.38
-21029.992
-19202.334
-17504.451
-15941.481
-14507.024
-13203.205
-12008.04
-10903.674
-9932.5593
-9000.0333
-8105.2388
-7250.4824
-6428.4036
-5618.6809
-4570.1237
-3623.9891
-3457.0709
-2449.0233
-1705.1589
-904.47551
-259.42858
392.76547
844.74393
1281.2031
1522.7762
1695.5887
1724.8775
1666.9663
1498.7582
1281.2318
1049.252
695.94439
505.49793
104.35035
-59.270064
-29.054844
-187547.07
-150721.48
-139304.14
-142791.95
-147341.61
-150173.89
-153190.09
-155960.01
-159507.99
-158950.35
-160208.62
-160304.68
-159350.73
-157834.59
-157412.19
-153852.21
-153844.24
-149337.88
-148776.54
-144884.7
-143972.76
-143308.57
-141940.37
-138180.32
-136310.04
-131902.95
-129536.92
-125494.57
-122799.61
-119411.17
-116652.92
-113729.32
-111248.42
-108431.67
-106091.04
-103491.47
-101216.49
-98770.086
-96422.269
-93967.769
-91513.562
-88903.265
-86300.793
-83501.035
-80630.924
-77632.97
-74567.403
-71349.265
-68107.504
-64757.018
-61385.448
-57988.665
-54603.239
-51240.286
-47946.573
-44730.217
-41610.373
-38632.114
-35770.914
-33075.813
-30533.533
-28147.711
-25949.299
-23865.817
-21981.649
-20185.869
-18510.074
-16908.161
-15392.667
-13916.636
-12505.223
-11167.695
-9713.129
-8302.526
-7154.6567
-5523.6809
-4275.289
-3036.9282
-1908.9241
-905.95999
-32.209795
760.36283
1356.6192
1825.9971
2113.216
2237.4407
2223.3945
2036.5198
1817.2207
1399.2127
1065.5456
634.84852
298.64676
3.26135
-461.53609
-220247.49
-212729.26
-196450.57
-193387.94
-200289.25
-201116.61
-208104.72
-210076.41
-211936.1
-213483.56
-213768.69
-212403.06
-211977.01
-209081.3
-207663.82
-204392.43
-201827.21
-197764.3
-195633.49
-190482.58
-188639.83
-182938.7
-183867.29
-180637.53
-177273.65
-172986.65
-169504.24
-164890.26
-161402.25
-157143.13
-153763.72
-149909.8
-146677.07
-143239.22
-139983.41
-136928.02
-133689.78
-130635.94
-127464.92
-124362.03
-121070.82
-117824.13
-114389.04
-110882.67
-107218.07
-103415.66
-99495.665
-95399.725
-91221.392
-86936.744
-82565.441
-78161.496
-73742.381
-69332.258
-64980.337
-60710.639
-56545.048
-52522.113
-48648.017
-44956.16
-41428.689
-38109.04
-34976.526
-31976.715
-29237.871
-26584.908
-24140.024
-21845.011
-19633.977
-17531.371
-15552.689
-13585.921
-11704.871
-10038.386
-8341.4551
-6782.5093
-5212.2925
-3752.255
-2435.4886
-1309.3068
-285.17563
531.94338
1179.4355
1628.1111
1912.5774
2011.378
1975.5663
1792.3655
1551.7499
1165.5655
868.83571
444.72484
147.55091
-149.04455
-263.17626
-310574.57
-283314.61
-243328.56
-261427.96
-257388.92
-269447.92
-269606.4
-275403.99
-275533.01
-277274.73
-276264.9
-275356.94
-272760.17
-270346.92
-267005.56
-262808.28
-259396.63
-253987
-250477.51
-244617.35
-240775.54
-234840.76
-229606.91
-223231.51
-218804.16
-213311.08
-209247.42
-203565.9
-199225.5
-194062.06
-189803.73
-184958.86
-181199.76
-176821.39
-173071.41
-168981
-165081.84
-161191.01
-157350.56
-153335.55
-149370.19
-145188.82
-140920.49
-136469.52
-131886.59
-127125.5
-122248.59
-117190.59
-112058.25
-106814.45
-101496.79
-96164.537
-90824.546
-85513.917
-80278.135
-75141.66
-70125.501
-65271.342
-60588.166
-56099.239
-51811.276
-47748.348
-43900.96
-40217.714
-36879.509
-33559.253
-30556.253
-27627.302
-24892.781
-22272.009
-19748.773
-17351.982
-15079.124
-12783.256
-10699.79
-8605.14
-6704.2699
-4898.7435
-3261.1752
-1799.8571
-540.3224
513.10406
1333.5658
1927.055
2307.8413
2469.0491
2450.8575
2270.9753
1977.6399
1564.1246
1189.7085
635.06165
310.12343
3.7780402
-227.49429
-342099.26
-325615.46
-281344.06
-304449.14
-308756.87
-317331.25
-319559.08
-326734.2
-326323.62
-326691.64
-327720.63
-323997.42
-322501.27
-319235.95
-314275.63
-310808.19
-306180.8
-299736.39
-295999.98
-289016.11
-283833.08
-278248.44
-272274.93
-267161.1
-260446.81
-254766.12
-248695.65
-242662.19
-237760.08
-231676.78
-226761.81
-221106.32
-216408.72
-211117.53
-206721.05
-202355.84
-197773.39
-193553.97
-188994.59
-184606.85
-179987.67
-175276.2
-170390.8
-165271.29
-159941.78
-154343.15
-148505.35
-142432.74
-136149.05
-129693.82
-123097.29
-116432.5
-109733.05
-103064.35
-96481.084
-90039.231
-83770.723
-77734.793
-71940.162
-66429.355
-61189.366
-56256.003
-51578.915
-47173.102
-43087.676
-39042.19
-35398.964
-31887.743
-28528.193
-25303.144
-22251.06
-19316.81
-16407.316
-13720.45
-11103.883
-8658.0711
-6407.0374
-4379.3082
-2529.3762
-979.85832
337.39883
1361.0422
2119.9381
2594.2573
2840.4369
2835.5221
2661.6983
2324.4498
1894.9721
1394.3139
900.99425
404.85901
111.67605
-214.75821
-277.73891
-489086.13
-316307.34
-348959.17
-350302.38
-364654.41
-360637.75
-372628.79
-374733.96
-374385.36
-375838.08
-373695.75
-372887.49
-368345.03
-365026.78
-359580.52
-354940.7
-350476.92
-343595.41
-338317.76
-331121.2
-324830.19
-317992.79
-312476.04
-304952.17
-299400.3
-291118.71
-285256.14
-277534.34
-272497.87
-265906.66
-260292.48
-254041.66
-248535.16
-242461.2
-236720.63
-232190.15
-227120.15
-222042.75
-216930.08
-211748.01
-206415.41
-200951.58
-195229.66
-189259.6
-183032.69
-176495.45
-169697.32
-162625.1
-155293.35
-147781.12
-140084.54
-132307.36
-124483.7
-116682.62
-108985.56
-101438.07
-94103.963
-87037.275
-80280.607
-73851.175
-67792.325
-62088.343
-56748.96
-51763.932
-47075.982
-42607.829
-38456.931
-34486.499
-30969.882
-27392.173
-24071.616
-20744.625
-17568.578
-14544.02
-11659.777
-8934.2732
-6469.6673
-4162.3208
-2153.5874
-422.0652
978.86255
2085.452
2836.5347
3314.2385
3482.2751
3425.3567
3150.7745
2740.8031
2227.8344
1657.7725
1124.4811
618.1364
187.37905
-126.30949
-223.89187
850019.8
868432.01
848214.68
869080.1
874989.36
881458.18
909303
892394.4
883411.54
882035.44
876582.1
848715.09
837491.25
889842.36
741097.8
801845.97
823249.85
788468.2
812726.99
816185.51
831664.32
810019.18
838101.45
829950.63
835498.87
819647.62
814262.41
815899.88
827916.43
694689.4
601589.35
690648.76
610924.89
639303.58
639774.1
633350.09
641583.59
635633.14
641956.76
632272.6
631697.18
636296.09
596290.19
657785.86
587903.31
516535.15
534250.34
533208.8
525818.03
543838.04
536966.35
547297.02
545382.2
540501.61
543347.21
543500.06
525324.88
525477.3
567779.38
386666.15
368016.38
421403.03
370070.32
402738.5
387598.93
403779.9
396790.51
398567.64
398804.6
399143.39
392913.49
392784.32
388632.6
399810.1
349082.97
270247.75
283693.59
265952.59
275636.99
276296.93
277623.01
276099.89
276395.09
278155.98
276922.87
267924.25
280856.95
261196.65
280894.6
263359.78
139217.25
142792.6
147553.63
140527.67
147290.71
148485.11
146900.78
146475.3
144733.71
145734.07
142729.52
135390.4
146243.86
133081.45
140492.65
11951.188
11087.086
5044.0729
13292.321
8609.1111
11232.913
8890.254
10300.92
6362.2399
15977.543
-4212.8281
15890.493
20473.262
-8799.7139
60535.425
-102430.04
-116479.98
-98494.784
-109866.85
-105707.77
-107274.08
-107726.54
-108100.72
-110160.09
-102319.67
-117631.99
-99445.011
-102660.28
-131775.67
-21982.128
-210695.34
-255710.15
-227872.72
-235477.38
-236780.04
-239444.39
-243443.79
-241377.61
-249731.35
-234204.49
-267260.87
-226881.63
-230550.32
-274171.49
-151921.26
-342844.84
-405622.81
-343882.72
-382203.6
-363929.9
-375527.81
-370980.06
-373447.78
-375692.98
-360579.53
-370631.98
-362605.37
-343541.68
-381284.38
-244648.05
-493046.62
-469312.13
-474241.25
-458961.62
-483103.07
-481304.98
-487904.82
-491676.64
-494813.07
-486705.6
-515173.42
-445131.48
-475276.12
-522364.59
-370292.22
-568410.6
-628743.82
-549927.36
-581475.85
-553232.91
-575167.64
-567971.26
-569347.78
-563959.1
-560589.87
-566592.14
-571917.93
-522048.96
-629598.14
-329481.78
-705182.53
-833101.36
-730357.66
-785087.06
-810694.17
-802459.25
-808875.66
-849885.06
-829621.42
-850533.3
-799145.27
-780091.36
-800172.65
-778930.3
-714570.32
-773524.4
-680814.91
-616606.86
-618847.95
-645883.7
-695674.5
-665002.62
-643672.8
-617846.32
-611598.07
-624183.51
-629032.73
-628221.17
-704341.12
-633205.46
-697928.23
-658481.1
-781091.02
-825740.75
-858751.29
-934831.57
-899181.98
-842077.2
-956393.45
-936210.49
-905024.57
-857298.51
-819588.02
-779760.7
-652639.5
-489256.31
-496800.48
-557078.77
-576594.17
-597661.74
-619403.4
-637058.3
-657146.7
-680189.01
-644205.5
-630366.92
-589983.24
-593931.3
-586153.1
-593798.74
-401143.85
-465022.44
-454820.37
-502383.18
-534733.83
-517881.81
-544862.61
-540632.16
-521879.47
-546913.29
-523953.77
-531574.63
-513784.22
-450413.47
-471550.43
-405384.07
-464684.29
-469533
-482518.94
-496991.69
-507373.81
-511268.98
-515776.25
-514652.44
-502347.92
-503135.53
-490829.37
-467839.29
-460188.4
-431999.37
-434069.79
-476830.73
-465273.5
-500589.44
-506372.24
-517685.67
-527925.45
-526951.67
-529946.57
-529210.07
-514153.93
-503795.22
-479979.33
-459869.37
-452717.02
-420082.94
-441263.92
-452776.06
-471316.79
-479712.15
-492621.21
-491919.83
-494528.1
-494987.97
-485941.19
-483801.97
-472010.78
-457239.51
-445527.81
-420084.79
-419620.57
-453312.95
-453251.32
-471906.44
-474428.17
-485142.78
-488436.94
-490067.88
-489556.85
-484537.36
-474229.44
-468419.66
-455029.24
-435604.93
-439520.57
-422893.13
-431955.63
-444167.53
-450882.07
-465798.16
-467367.9
-472449.39
-474403.12
-471582.14
-469516.84
-462943.6
-455320.33
-444963.21
-431598.76
-420281.23
-415819.04
-435710.28
-438653.24
-452553.13
-452069.91
-463391.56
-460049.24
-464314.33
-461958.7
-457091.69
-453175.07
-445289.96
-438455.14
-429631.95
-422594.93
-416850.5
-421782.13
-429687.89
-432211.79
-440144.22
-441352.93
-445575.18
-445041.19
-444107.21
-444179.94
-436982.93
-434830.39
-427516.72
-420146.23
-415856.41
-409354.12
-421558.26
-422982.92
-432580.76
-434426.88
-441496.65
-439602.15
-444025.63
-441963.08
-439258.39
-438329.02
-433948.04
-427763.97
-423667.38
-418600.29
-409100.69
-411080.63
-417138.13
-418158.98
-422313.68
-422239.26
-425696.65
-425934.18
-426389.07
-425111.32
-423245.09
-420046.32
-417605.35
-413126.02
-411452.55
-404870.95
-407423.7
-408371.48
-414478.95
-415397.35
-420503.75
-420052.3
-422514.46
-421755.98
-421567.84
-418458.21
-417850.84
-412758.61
-411706.78
-408089.31
-398131.35
-400743.85
-404378.16
-404219.07
-408048.41
-407574.36
-408431.02
-410312.98
-410058.29
-408377.9
-408450.17
-407071.85
-405035.28
-402550.71
-403163.84
-394341.26
-394866.78
-397357.76
-399200.41
-401178.89
-401699.66
-403565.4
-403270.34
-404705.49
-404995.31
-403655.14
-402922.55
-399461.92
-400528.93
-399293.32
-387145.49
-389126.29
-391614.31
-391336.66
-392789.82
-392897.05
-396283.43
-392818.05
-393399.54
-392548.9
-391807.93
-391373.37
-387284.16
-387945.85
-387136.78
-382625.36
-382565.53
-385019.44
-383677.31
-387360.68
-387568.03
-387466.09
-388500.53
-388698.77
-389117.62
-388127.08
-389168.44
-387955.24
-385269.85
-388460.61
-377319.55
-376436.68
-378547.53
-376833.23
-379236.93
-378699.93
-380698
-378804.88
-379374.84
-378709.58
-378024.35
-377213.33
-377713.79
-375135.96
-375861.63
-369601.08
-369715.68
-371923.72
-371854.59
-372321.03
-372110.16
-371189.85
-373664.44
-372484.14
-373129.86
-371800.16
-373253.27
-371543.78
-373096.43
-373386.88
-363045.95
-363271.91
-364497.49
-363892.25
-364866.42
-365187.65
-365712.22
-364238.53
-366183.29
-364263.09
-363639.42
-365480.04
-362589.88
-364501.04
-362875.77
-357680.11
-356089.58
-357845.39
-356354.55
-358027.12
-356347.09
-358358.77
-358330.16
-357329.59
-358061.58
-357041.72
-358521.8
-356822.99
-358213.81
-358753.07
-347689.58
-349722.67
-349566.21
-349691.8
-349877.99
-349754.03
-350431.9
-349775.24
-350752.49
-349884.98
-349783.97
-350939.81
-349301.35
-347268.72
-350807.27
-343040.07
-341490.17
-342509.26
-342085.69
-342845.25
-341904.79
-342886.63
-342790.11
-342064.3
-343448.8
-342199.55
-342652.01
-341222.7
-343272.62
-343095.1
-334567.73
-333481.15
-334835.69
-334584.36
-334814.35
-334676.27
-335087.44
-333959.76
-335150.15
-334769.34
-334340.74
-335881.34
-334021.25
-334407.28
-334827.17
-327165.41
-326446.7
-326543.17
-326789.99
-326958.44
-326583
-327571.5
-327003.04
-326913.09
-327532.98
-325306.37
-327853.23
-326728.15
-326619.73
-327738.99
-320701.62
-317665.33
-319521.44
-317996.95
-319756.14
-318438.97
-319564.83
-318716.83
-319430.42
-319444.63
-320008.77
-319610.69
-318420.85
-320656.21
-319163.12
-311728.46
-310931.88
-311111.86
-311443.23
-310548.3
-311883.89
-311365.91
-311874.62
-311419.43
-311703.52
-311357.56
-312922.36
-310479.45
-311747.56
-313602.2
-305541.87
-302456.48
-302892.81
-303589.35
-304138.26
-303614.73
-303849.51
-303500.81
-304343.75
-304021.25
-304180.05
-304946.9
-303403.8
-305932.15
-303984.8
-296427.08
-296952.77
-296447.58
-295732.59
-296327.01
-296328.34
-296390.1
-296642.55
-296432.76
-297084.75
-296242.87
-297411.03
-296724.91
-296785.22
-299130.15
-291170.44
-287849.8
-289477.35
-288703.36
-289634.75
-288637.24
-289214.03
-289264.77
-289632.03
-289102.67
-289284.43
-290098.2
-288902.17
-290976.68
-290733.66
-283959.66
-281975.31
-282360.32
-282206
-282263.66
-282682.78
-282437.37
-282094.44
-282084.63
-283021.41
-282364.58
-283504.98
-282204.52
-283467.61
-283760.33
-277680.18
-274853.59
-275845.91
-275548.61
-275635.7
-276080.31
-275717.76
-275937.77
-275554.68
-276128.08
-275658.42
-276819.19
-275711.27
-277327.94
-277290.07
-271221.24
-268847.47
-269556.23
-269406.64
-269681.23
-269552.55
-269630.68
-269512.03
-269676.21
-269952.46
-269626.38
-270597.55
-269631.45
-270982.7
-270947.92
-265103.2
-262952.75
-263603.31
-263649.3
-263545.26
-263719.36
-263782.31
-263778.2
-263780.48
-264070.79
-263707.39
-264701.85
-263812.69
-265354.59
-265128.62
-259087.73
-257326.35
-258050.93
-257761.25
-258038.01
-258488.31
-258054.74
-258556.67
-258110.71
-258877.03
-257939.99
-259273.26
-257814.2
-259437.13
-258375.46
-252776.52
-253047.31
-252341.6
-253904.55
-252667.53
-253286.73
-253032.36
-253126.63
-253039.45
-253289.93
-252955.92
-253551.68
-253287.42
-253563.06
-255044.12
-249183.22
-246686.1
-247993.49
-247638.5
-248411.34
-247790.62
-248488.65
-247936.58
-248454.63
-247938.56
-248009.37
-248885.63
-247811.6
-248809.33
-248901.98
-243315.94
-242210.37
-242618.73
-243179.2
-242797.89
-243467.56
-243045.6
-243501.73
-243247.24
-243334.61
-243062
-243672.08
-243063.23
-243364.07
-243562.58
-238728.96
-236867.31
-238006.1
-238029.95
-238371.01
-238408.89
-238560.03
-238568.97
-238420.26
-238713.66
-238135.32
-238960.21
-237916.82
-238251.52
-238384.09
-233197.94
-232145.9
-232991.5
-233379.32
-233362.85
-233782.24
-233686.18
-233739.79
-233702.56
-233796.89
-233342.61
-233775.06
-233021.18
-232994.3
-233292.15
-228174.91
-226921.19
-228034.75
-228197.18
-228443.5
-228630.53
-228652.5
-228730.98
-228580.47
-228801.38
-228163.43
-228684.59
-227807.95
-227570.13
-227849.25
-222599.34
-221710.05
-222678.3
-223046.12
-223170.15
-223464.81
-223488.22
-223437.98
-223379.39
-223421.07
-222885.84
-223241.85
-222390.38
-221879.01
-222266.47
-216962.87
-215994.55
-217110.45
-217360.35
-217539.15
-217835.2
-217774.45
-217785.88
-217635.54
-217731.1
-217122.48
-217438.84
-216554.08