/*--------------------------------*- C++ -*----------------------------------*\
  =========                 |
  \\      /  F ield         | OpenFOAM: The Open Source CFD Toolbox
   \\    /   O peration     | Website:  https://openfoam.org
    \\  /    A nd           | Version:  6
     \\/     M anipulation  |
\*---------------------------------------------------------------------------*/
FoamFile
{
    version     2.0;
    format      ascii;
    class       pointVectorField;
    location    "0.92";
    object      lm;
}
// * * * * * * * * * * * * * * * * * * * * * * * * * * * * * * * * * * * * * //

dimensions      [1 -2 -1 0 0 0 0];

internalField   nonuniform List<vector> 
3969
(
(-4.0340813e-15 -4.7705825e-17 1.3312818e-16)
(9.2297575e-16 -2.6090405e-16 -6.0252577e-16)
(-7158.2881 -539.70788 53.463327)
(-7127.4021 753.7444 5.3132153)
(-7.1783695e-15 2.6020842e-15 -1.0366567e-15)
(-4.622429e-15 2.1493156e-15 -1.5432914e-15)
(-7071.7092 747.46233 3.4683912)
(-7103.3748 -549.41857 52.589504)
(-6.09887e-15 1.0869625e-16 -2.0095736e-16)
(-3.193382e-15 6.5333688e-16 6.3735029e-17)
(-2.9260211e-15 2.9260844e-16 -4.8432863e-17)
(-1.7497804e-15 -1.5755452e-16 -2.074758e-16)
(-4.3254872e-15 8.6218995e-16 7.3228779e-16)
(-2.4697388e-15 -4.9707839e-16 4.8086129e-16)
(5.2680668e-16 -4.7467027e-16 -5.3018058e-16)
(-7154.6357 -381.31738 45.846198)
(-7152.5585 -220.91548 38.681424)
(-7150.0185 -57.983683 33.573034)
(-7146.878 105.85838 28.822518)
(-7142.7394 270.07646 24.213287)
(-7137.791 433.13199 18.835916)
(-7132.089 594.49172 12.515558)
(-22.852155 -45.462084 -46.736525)
(-39.533284 -76.508242 -53.377601)
(-69.385854 -109.66163 -57.677766)
(-107.44608 -140.90206 -58.167847)
(-150.10797 -172.34502 -61.064682)
(-199.85533 -203.06194 -63.545054)
(-251.82402 -233.54308 -69.796451)
(-310.2939 -265.06358 -76.572801)
(-371.8687 -296.71724 -86.671257)
(-439.83525 -329.62213 -96.742746)
(-513.15989 -363.81787 -109.21309)
(-593.89591 -399.54207 -120.82303)
(-682.99141 -436.15973 -132.76995)
(-781.2394 -474.04804 -143.1202)
(-890.24837 -512.54035 -151.40445)
(-1010.2517 -551.62883 -157.35026)
(-1142.5141 -590.49864 -160.27185)
(-1287.2224 -629.01482 -159.95223)
(-1444.7552 -666.452 -156.28997)
(-1614.8819 -702.20493 -149.43513)
(-1797.1662 -735.56543 -139.87628)
(-1990.8003 -765.91242 -127.93223)
(-2194.6139 -792.4258 -114.38062)
(-2407.3524 -814.55423 -99.633353)
(-2627.4049 -831.88562 -84.273667)
(-2853.3024 -843.89079 -68.729795)
(-3083.2868 -850.61771 -53.256278)
(-3316.0533 -852.08488 -38.014226)
(-3550.1155 -848.48985 -23.015739)
(-3784.021 -840.34889 -8.3993279)
(-4016.6324 -828.17948 5.8365117)
(-4246.6866 -812.53057 19.459278)
(-4473.0658 -794.09605 32.337888)
(-4694.6811 -773.40697 44.054392)
(-4910.4366 -751.05535 54.228308)
(-5119.5609 -727.63455 62.653905)
(-5321.0749 -703.58591 68.937148)
(-5514.8343 -679.68124 72.570665)
(-5700.499 -656.10393 74.206639)
(-5878.4469 -633.72999 73.815976)
(-6049.4345 -613.11964 71.708967)
(-6214.139 -594.70331 68.564166)
(-6374.651 -578.52814 64.715982)
(-6531.2318 -566.20145 61.03841)
(-6687.1914 -555.40837 57.737607)
(-6842.9658 -548.29436 55.6514)
(-6999.5102 -543.74868 54.397703)
(-10.088683 43.523743 57.807967)
(-43.883346 70.904161 48.906847)
(-68.876534 98.401175 58.060649)
(-108.38404 125.20704 46.801434)
(-153.77954 151.9025 42.48791)
(-200.88023 176.32466 34.463289)
(-256.0146 200.98615 27.853304)
(-313.28163 224.99919 21.726858)
(-377.02467 249.53081 15.842785)
(-446.55074 275.58324 10.346135)
(-521.98914 302.28817 5.6716262)
(-606.29934 331.96429 0.58872195)
(-698.30789 363.38113 -3.5980056)
(-800.25671 397.18105 -7.7050534)
(-912.0232 433.46571 -10.683458)
(-1034.76 471.43111 -13.020294)
(-1169.0261 511.21545 -14.156681)
(-1314.5581 551.35131 -14.540178)
(-1472.5922 592.10783 -14.247282)
(-1641.9253 631.77685 -13.489299)
(-1823.0439 670.34677 -12.961777)
(-2014.999 706.49427 -12.720314)
(-2216.8432 740.17131 -13.440708)
(-2427.5048 770.63735 -15.043585)
(-2645.2049 797.5469 -17.55535)
(-2868.4282 820.97765 -20.550021)
(-3095.8076 840.64379 -24.055365)
(-3325.5533 856.63494 -27.317847)
(-3555.8964 868.69104 -30.199644)
(-3785.5011 876.88944 -32.428734)
(-4013.054 881.2483 -33.771072)
(-4237.5843 881.67771 -34.336751)
(-4458.1599 878.34356 -34.276646)
(-4674.1112 871.42682 -33.896668)
(-4884.6861 861.3053 -33.416301)
(-5089.3044 848.6255 -32.972914)
(-5287.7954 833.89748 -32.87976)
(-5479.3273 818.41268 -32.450167)
(-5663.77 802.51549 -32.007177)
(-5841.761 787.60825 -30.918817)
(-6013.1104 774.2368 -28.978051)
(-6178.873 763.10469 -25.791536)
(-6339.979 754.68212 -21.479057)
(-6497.9043 749.25286 -16.188625)
(-6654.1291 746.78568 -10.378673)
(-6810.3825 747.15463 -4.6571515)
(-6967.9186 749.7731 0.72120554)
(-3.9179893e-16 -2.8384427e-17 -1.6191597e-16)
(6.8869455e-16 3.3255846e-16 -2.9305012e-16)
(-3.0379221e-16 -4.0639439e-16 3.7376104e-16)
(8.6048107e-16 -8.7588792e-17 1.0515471e-16)
(5.0258192e-16 -7.4376592e-16 6.4035694e-16)
(-2.9679417e-15 -3.4669267e-16 7.3060073e-16)
(8.9003905e-16 -2.834795e-16 1.0120244e-16)
(-30.81977 33.208202 -49.069146)
(-55.657458 99.977964 -61.185155)
(-77.561048 105.61226 -61.081084)
(-120.61494 156.96791 -64.489569)
(-161.24454 179.14816 -66.811989)
(-209.45105 212.07952 -67.223918)
(-262.77932 241.30451 -72.777679)
(-318.94029 267.36612 -75.87238)
(-382.37364 298.70416 -84.685739)
(-449.33547 323.32408 -90.797737)
(-524.21825 355.94999 -102.95443)
(-604.71967 381.69278 -111.57244)
(-694.57046 413.20575 -123.43921)
(-793.24143 442.87275 -133.15298)
(-902.02758 473.64466 -142.39901)
(-1022.1647 505.73254 -149.98835)
(-1153.9796 537.20273 -155.00739)
(-1298.1917 569.93024 -157.53998)
(-1455.1631 602.34505 -157.07851)
(-1624.3778 634.63526 -153.66593)
(-1805.6903 666.40358 -147.66177)
(-1997.7928 696.97273 -139.39956)
(-2199.7197 725.97941 -129.43398)
(-2409.8005 752.68055 -118.28757)
(-2626.7291 776.97432 -106.24014)
(-2848.7607 797.88566 -93.986562)
(-3072.7611 815.60539 -82.199244)
(-3299.5496 829.45035 -70.019922)
(-3527.2149 839.45042 -57.376708)
(-3754.7557 845.93429 -44.352963)
(-3981.0782 849.08913 -31.002569)
(-4205.1045 849.10281 -17.508457)
(-4425.7562 846.31386 -4.3180449)
(-4641.8952 840.99502 8.0626078)
(-4852.54 833.33927 18.909565)
(-5056.0815 824.24159 27.648777)
(-5253.8494 813.60467 33.720047)
(-5441.9171 801.07445 37.237098)
(-5623.4359 788.90112 37.890984)
(-5797.2671 776.6 36.006751)
(-5964.5208 765.15737 32.217775)
(-6126.6711 755.16667 27.30247)
(-6284.9434 747.34156 21.867954)
(-6441.0783 742.10649 16.593753)
(-6596.6156 739.76463 12.006907)
(-6753.0071 740.31612 8.3405838)
(-6911.7506 743.11417 6.0389736)
(-7076.3102 587.27457 8.6219865)
(-7081.9191 425.29752 14.630315)
(-7087.7319 261.29194 21.711914)
(-7091.7651 96.348045 29.407743)
(-7095.5596 -67.982391 36.639477)
(-7097.9026 -230.77798 43.355699)
(-7099.7417 -391.17335 48.274)
(-6944.5085 -553.22138 49.278813)
(-6788.2022 -557.78977 45.398305)
(-6633.4891 -564.78613 39.89172)
(-6478.6258 -574.66843 33.607254)
(-6322.1509 -587.55396 27.161139)
(-6162.5814 -603.70466 20.602978)
(-5998.2563 -623.13449 14.475596)
(-5828.0546 -645.4557 8.7230635)
(-5650.9952 -670.28803 3.4823911)
(-5466.787 -696.79905 -1.6900439)
(-5275.514 -723.94317 -6.8947657)
(-5075.1986 -752.11939 -11.359668)
(-4869.6898 -778.20233 -16.47684)
(-4657.1376 -803.11247 -21.442876)
(-4439.1008 -825.24492 -26.065315)
(-4216.1536 -844.19139 -30.00692)
(-3989.3524 -859.40348 -33.073459)
(-3759.7735 -870.45564 -34.964792)
(-3528.5002 -876.98087 -35.662998)
(-3297.0079 -878.72734 -35.136737)
(-3066.7398 -875.29358 -33.765397)
(-2839.2665 -866.50108 -31.700711)
(-2616.2663 -852.22517 -29.322245)
(-2399.4073 -832.26794 -27.067293)
(-2190.249 -806.85226 -25.016064)
(-1990.2242 -776.10791 -23.46449)
(-1800.3901 -740.58575 -22.165086)
(-1621.5869 -700.91317 -21.00906)
(-1454.3099 -658.02262 -19.664328)
(-1298.7447 -612.81758 -17.895402)
(-1154.8835 -566.53387 -15.453656)
(-1022.2328 -519.95184 -12.148653)
(-900.36089 -475.02649 -8.0547236)
(-789.94896 -430.18959 -4.1939192)
(-688.9096 -388.33157 1.2948408)
(-595.96847 -349.88857 5.4070213)
(-512.32162 -313.81664 10.913475)
(-434.98688 -280.24237 15.056715)
(-364.89594 -250.58594 20.198332)
(-300.98951 -220.47255 23.798989)
(-242.18703 -194.89188 28.467327)
(-187.75946 -167.63462 32.937886)
(-139.17246 -142.74035 38.705856)
(-95.451255 -116.01982 42.699951)
(-59.629727 -91.008197 46.450519)
(-30.452139 -60.268778 46.943483)
(-29.54921 -39.397816 30.557454)
(-6.7652979e-16 3.5118239e-16 1.2802193e-16)
(-2.3129286e-15 2.7505878e-16 1.3239036e-16)
(-3.6393531e-15 -1.4253491e-16 -1.5464221e-16)
(-4.9195801e-15 -9.3657526e-16 4.6870719e-16)
(-4.0844143e-15 -8.2232132e-16 1.723462e-16)
(-2.0271537e-15 -1.8079967e-16 2.6438577e-16)
(-2.0670014e-15 8.6459225e-16 1.4474963e-15)
(-4.5036838e-15 1.2268482e-15 -2.065022e-16)
(-1.9919023e-15 1.1694967e-15 -1.6367101e-16)
(-2.9438013e-15 1.1112212e-15 -1.969436e-16)
(-2.4504202e-15 9.597151e-16 -1.1789697e-16)
(-5.2893259e-15 2.5926013e-15 -8.0820905e-16)
(-1.8775489e-15 1.1365606e-15 -5.8525306e-16)
(-7.4714327e-17 -2.094137e-16 9.7564992e-17)
(-7120.0452 749.61358 4.4839237)
(-7112.0879 746.69921 3.8927828)
(-7104.4103 744.61552 3.9316086)
(-7097.027 743.4327 4.1908788)
(-7090.2085 743.08692 4.3969815)
(-7083.7542 743.7663 4.4981883)
(-7077.9603 744.9582 3.7256688)
(-7150.0234 -539.17944 53.565611)
(-7142.3039 -539.43945 53.654977)
(-7134.6584 -539.95091 53.219881)
(-7127.4416 -540.7541 52.601648)
(-7120.732 -541.7059 52.185442)
(-7114.4556 -543.52273 52.075707)
(-7108.7542 -545.86448 52.431008)
(-8.3142289 -32.364299 -41.921837)
(-28.259765 -51.440263 -38.877588)
(-57.052417 -78.348955 -44.61321)
(-95.106367 -102.56414 -46.736871)
(-137.89035 -126.70888 -49.412249)
(-188.34702 -152.87629 -53.434656)
(-240.7884 -177.29831 -58.700702)
(-299.01296 -203.95422 -66.34374)
(-361.43164 -229.26493 -74.095156)
(-429.0583 -256.51327 -84.339998)
(-502.54276 -283.63953 -94.505847)
(-583.27557 -311.16505 -105.15855)
(-672.33442 -339.73171 -115.30636)
(-770.57319 -368.11584 -124.22042)
(-879.42175 -396.68373 -131.91761)
(-999.50857 -425.05244 -136.87902)
(-1131.7408 -452.98591 -139.57578)
(-1276.5108 -480.05661 -139.35288)
(-1434.289 -506.07339 -136.13926)
(-1604.7813 -530.54959 -130.31213)
(-1787.6128 -553.14425 -122.01971)
(-1981.9045 -573.39484 -111.84742)
(-2186.6089 -590.88317 -100.27377)
(-2400.2826 -605.19153 -87.830311)
(-2621.4505 -616.02278 -74.92089)
(-2848.4635 -622.99387 -61.960028)
(-3079.6287 -626.09137 -48.95227)
(-3313.6292 -625.39058 -36.137121)
(-3548.7004 -621.00383 -23.581441)
(-3783.6067 -613.26162 -11.165647)
(-4017.0369 -602.64942 0.92522614)
(-4247.7999 -589.63389 12.625746)
(-4474.7433 -574.83617 23.679499)
(-4696.8217 -558.69701 33.710556)
(-4912.9107 -541.84298 42.541926)
(-5122.2378 -524.51389 49.614104)
(-5323.9757 -507.4013 55.039963)
(-5517.5084 -490.46861 58.188681)
(-5703.0107 -474.00691 59.713161)
(-5880.6835 -458.48201 59.594688)
(-6051.0352 -443.91395 58.303766)
(-6215.2603 -430.52235 56.080001)
(-6374.7833 -418.5261 53.770398)
(-6530.6203 -408.00612 51.30382)
(-6685.803 -398.80501 49.443646)
(-6840.2177 -391.31577 48.151081)
(-6996.0101 -386.06312 47.197992)
(2.4358532 -20.062488 -27.415947)
(-18.587107 -29.152447 -25.816908)
(-48.271299 -52.355883 -31.97554)
(-85.145427 -65.66835 -33.735558)
(-130.48029 -85.412898 -37.729604)
(-178.3398 -103.24665 -41.183638)
(-231.66682 -122.14333 -48.174583)
(-290.31535 -141.20684 -53.360863)
(-352.32298 -160.21391 -62.812307)
(-420.08314 -180.32657 -71.03591)
(-493.93785 -199.56447 -80.723458)
(-574.72187 -220.23951 -90.084917)
(-663.93918 -239.98383 -99.422761)
(-762.37056 -259.79216 -107.77904)
(-871.48975 -279.0974 -114.39209)
(-991.9365 -298.12847 -118.93624)
(-1124.5046 -316.40827 -121.29437)
(-1269.7595 -333.80552 -121.02192)
(-1427.9442 -350.26265 -118.33217)
(-1598.9503 -365.42901 -113.31036)
(-1782.2679 -379.22551 -106.24785)
(-1977.2049 -391.34107 -97.645594)
(-2182.4401 -401.42258 -87.953266)
(-2396.8155 -409.23648 -77.531169)
(-2618.6276 -414.47326 -66.809617)
(-2846.4069 -416.95357 -56.013699)
(-3078.3387 -416.57364 -45.173687)
(-3312.8127 -413.29484 -34.704492)
(-3548.4906 -407.44235 -24.204116)
(-3783.8331 -399.25824 -13.883581)
(-4017.6115 -389.20971 -3.7471243)
(-4248.5603 -377.75626 6.0880149)
(-4475.6056 -365.37515 15.355354)
(-4697.5824 -352.56173 23.891495)
(-4913.5419 -339.63657 31.28474)
(-5122.5923 -326.92631 37.392173)
(-5323.9778 -314.53683 41.935436)
(-5517.2811 -302.65141 44.876773)
(-5702.4354 -291.19242 46.338381)
(-5879.679 -280.31673 46.628476)
(-6049.8297 -270.02663 45.859627)
(-6213.597 -260.348 44.735374)
(-6372.97 -251.28541 43.209759)
(-6528.5513 -243.35571 42.025283)
(-6683.275 -235.87765 41.049602)
(-6837.3939 -229.87937 40.418587)
(-6992.3161 -225.47296 40.193832)
(10.343839 -10.63261 -16.824136)
(-12.737266 -17.336505 -15.961162)
(-39.681944 -27.773626 -18.519492)
(-80.367072 -37.279981 -21.406413)
(-122.49006 -47.19764 -24.426568)
(-173.53215 -58.697627 -29.980066)
(-227.67865 -68.24147 -33.854611)
(-285.87965 -80.303272 -42.070186)
(-348.62643 -91.24095 -49.048197)
(-417.00656 -103.03145 -57.062101)
(-490.57073 -115.2247 -65.926093)
(-571.86119 -126.89658 -74.341366)
(-660.95101 -138.45697 -82.730315)
(-759.71061 -149.48089 -89.765453)
(-869.05949 -160.41808 -95.857337)
(-989.68895 -170.21017 -99.903113)
(-1122.5407 -179.39096 -102.0812)
(-1267.9811 -187.68226 -102.04051)
(-1426.4166 -195.06458 -99.917866)
(-1597.4694 -201.62686 -95.808639)
(-1780.9949 -207.16193 -90.092833)
(-1975.8933 -211.49536 -83.162305)
(-2181.3639 -214.58497 -75.297242)
(-2395.9456 -216.24635 -66.967132)
(-2618.02 -216.1348 -58.498463)
(-2845.998 -214.2797 -49.959373)
(-3078.1406 -210.47955 -41.588038)
(-3312.9355 -204.9314 -33.244286)
(-3548.7443 -197.6854 -25.024998)
(-3784.1529 -189.10888 -16.760813)
(-4017.8598 -179.62641 -8.569844)
(-4248.6522 -169.60211 -0.53577089)
(-4475.3998 -159.47792 7.1349074)
(-4697.0245 -149.60223 14.20639)
(-4912.5809 -140.1952 20.400654)
(-5121.2107 -131.37827 25.468172)
(-5322.2 -123.27266 29.313245)
(-5515.1951 -115.63649 31.839522)
(-5700.0644 -108.42074 33.258982)
(-5877.2231 -101.56025 33.721009)
(-6047.188 -94.9738 33.650801)
(-6211.0447 -88.562582 33.141641)
(-6370.2081 -82.502936 32.833998)
(-6525.7442 -76.714701 32.510644)
(-6680.1283 -71.265404 32.661362)
(-6833.8752 -66.405157 32.998069)
(-6988.647 -62.384105 33.703003)
(10.57467 -1.00009 -2.5110771)
(-13.629979 -0.73330754 1.156624)
(-41.476145 -4.4159019 -2.7721631)
(-78.283931 -5.1736963 -6.5434514)
(-123.65315 -7.0626198 -11.678506)
(-172.454 -10.614875 -15.739276)
(-225.77244 -12.193178 -24.022273)
(-283.54101 -17.110325 -29.515441)
(-346.19282 -19.81891 -37.18432)
(-413.93276 -25.007361 -45.215799)
(-488.00854 -28.310874 -52.780902)
(-569.70409 -32.566797 -60.541392)
(-659.28991 -35.679641 -67.595367)
(-758.94883 -38.299898 -73.986535)
(-868.43603 -40.362711 -79.15461)
(-989.79943 -41.386171 -82.864512)
(-1122.8833 -41.918581 -84.688105)
(-1268.7762 -41.493657 -84.728549)
(-1427.2812 -40.450776 -82.920953)
(-1598.6186 -38.95638 -79.512361)
(-1782.2975 -36.625961 -74.817726)
(-1977.6192 -34.047471 -69.168631)
(-2183.164 -30.70744 -62.922309)
(-2397.6735 -26.500555 -56.538745)
(-2619.7547 -21.377815 -50.065412)
(-2847.6368 -15.262095 -43.794079)
(-3079.7421 -8.1189389 -37.627149)
(-3314.3295 -0.010738621 -31.587018)
(-3549.845 8.7928387 -25.484594)
(-3784.8695 17.9875 -19.298646)
(-4018.0869 27.215373 -13.068331)
(-4248.2855 36.106726 -6.8312177)
(-4474.3592 44.341025 -0.8195742)
(-4695.28 51.654545 4.7966264)
(-4910.1707 57.992239 9.7097173)
(-5118.1797 63.342235 13.770324)
(-5318.6885 67.772941 16.915137)
(-5511.4282 71.665408 19.00329)
(-5696.1917 75.038782 20.255298)
(-5873.1905 78.214057 21.000765)
(-6043.1539 81.328428 21.338266)
(-6206.9501 84.533019 21.750613)
(-6366.1339 87.859549 22.230947)
(-6521.7348 91.206521 23.067318)
(-6676.1206 94.841514 24.235272)
(-6830.0104 98.366031 25.731391)
(-6984.9354 101.88511 27.530227)
(11.668246 7.6700491 10.708645)
(-15.389408 10.44615 12.18748)
(-38.761376 16.563697 8.7325889)
(-80.382435 22.261044 5.8964052)
(-123.10047 28.043029 1.8986129)
(-173.2539 33.101559 -4.8391217)
(-226.38083 38.251621 -10.039789)
(-285.48776 42.132943 -16.177707)
(-347.78895 46.47267 -23.34267)
(-416.55755 50.116427 -29.982412)
(-490.8624 54.809948 -36.791991)
(-572.66651 58.60382 -44.060728)
(-662.7887 64.553269 -50.599429)
(-762.4467 70.15468 -56.574269)
(-872.4621 77.551666 -61.44161)
(-993.8584 85.482989 -64.970827)
(-1127.3728 94.364058 -66.734597)
(-1273.2416 103.76099 -67.010136)
(-1432.0021 113.66532 -65.72478)
(-1603.2093 123.68373 -63.136856)
(-1786.8562 133.99099 -59.632983)
(-1981.2784 144.48972 -55.703735)
(-2186.1608 154.7018 -51.187913)
(-2400.6551 164.94065 -46.734035)
(-2622.4904 175.11571 -42.47412)
(-2850.2009 185.456 -38.405359)
(-3082.0736 195.84059 -34.501343)
(-3316.3948 206.21391 -30.615064)
(-3551.5032 216.34239 -26.6285)
(-3786.0243 225.92436 -22.44919)
(-4018.5915 234.65223 -18.060464)
(-4248.0616 242.15535 -13.498273)
(-4473.3302 248.27316 -9.0145686)
(-4693.4654 252.7634 -4.70768)
(-4907.5945 255.79433 -0.93701835)
(-5114.8905 257.40477 2.243329)
(-5314.872 257.95948 4.7005048)
(-5507.1271 257.76127 6.3353089)
(-5691.3169 257.34985 7.5954606)
(-5867.9676 256.8937 8.4444084)
(-6037.9464 256.68055 9.3507368)
(-6201.9004 256.95835 10.324056)
(-6361.1311 257.7075 11.775652)
(-6517.1148 259.00812 13.565058)
(-6671.5909 260.95573 15.837903)
(-6825.6863 263.38933 18.336587)
(-6981.0313 266.50348 21.225953)
(7.5938975 15.393297 26.293907)
(-21.949608 27.543994 25.147394)
(-47.549616 41.206643 25.943719)
(-88.400646 55.157001 21.758094)
(-131.76258 68.937107 15.47511)
(-180.88294 81.343567 9.7235965)
(-234.92395 94.604157 3.4124165)
(-292.6315 105.43005 -3.4407996)
(-355.59368 117.7486 -9.9332194)
(-423.7195 128.44704 -16.639134)
(-498.51823 140.85691 -23.365361)
(-580.44863 153.15185 -29.583554)
(-671.1062 167.19198 -35.3635)
(-771.16269 181.9621 -40.714263)
(-881.53907 198.24842 -44.765179)
(-1003.3044 215.36332 -47.871009)
(-1136.8453 233.55271 -49.376385)
(-1282.8332 252.09841 -49.782437)
(-1441.2607 271.10211 -48.742001)
(-1612.1346 289.76027 -46.92016)
(-1795.1334 308.34682 -44.326428)
(-1989.4565 325.69905 -41.682686)
(-2194.3471 342.50905 -38.282872)
(-2407.7547 359.02856 -36.135827)
(-2628.84 374.57706 -33.941925)
(-2855.418 389.01944 -32.147546)
(-3086.2356 402.57759 -30.654018)
(-3319.325 415.04091 -29.213268)
(-3553.181 426.21321 -27.53334)
(-3786.3285 435.88086 -25.490978)
(-4017.4834 443.73406 -23.049562)
(-4245.5281 449.57206 -20.266389)
(-4469.4264 453.28623 -17.332254)
(-4688.3201 454.77451 -14.374732)
(-4901.3788 454.34067 -11.799785)
(-5107.8837 452.14148 -9.5424985)
(-5307.3789 448.70048 -7.8866041)
(-5499.3253 444.49674 -6.5351973)
(-5683.7888 439.78882 -5.6761504)
(-5861.0835 435.50078 -4.3829736)
(-6031.3319 431.88015 -3.1721615)
(-6195.6863 429.11861 -1.3725597)
(-6355.304 427.14942 1.0041413)
(-6511.7026 426.18154 3.9531641)
(-6666.3817 426.34299 7.2354195)
(-6821.0691 427.38698 10.822777)
(-6977.0467 429.95853 14.752927)
(0.51185557 26.866197 37.429703)
(-29.93551 44.066412 37.53823)
(-55.092213 65.919624 39.677083)
(-97.968663 86.562264 33.73931)
(-138.67137 106.65917 28.662587)
(-189.93739 126.83246 21.771953)
(-242.19658 145.94262 15.594834)
(-300.6057 164.33653 8.9282211)
(-363.37846 183.61613 3.1207799)
(-431.51363 201.64497 -3.2239017)
(-507.10768 222.56955 -9.1921338)
(-589.18286 242.52145 -14.262341)
(-680.89587 265.88077 -19.95993)
(-781.11608 289.72699 -24.288707)
(-892.40967 315.75519 -28.23668)
(-1014.3041 342.88918 -30.847404)
(-1148.234 371.12952 -32.466318)
(-1294.087 399.93416 -32.82283)
(-1452.2834 428.64665 -32.29036)
(-1622.834 456.99794 -31.098138)
(-1805.0999 484.10725 -29.452461)
(-1998.6961 510.25938 -28.138281)
(-2202.7166 534.42212 -26.765794)
(-2415.3418 557.06979 -26.280443)
(-2635.4052 577.79467 -26.247804)
(-2860.9216 596.38578 -26.928077)
(-3090.7859 613.17762 -27.681093)
(-3322.7825 627.61287 -28.367737)
(-3555.4405 639.87245 -28.727044)
(-3787.2728 649.55473 -28.654869)
(-4017.0497 656.47532 -28.018)
(-4243.6819 660.47586 -26.863326)
(-4466.2044 661.47789 -25.355873)
(-4683.8559 659.58416 -23.714612)
(-4895.7903 655.18378 -22.217044)
(-5101.4712 648.52277 -20.903925)
(-5300.3197 640.52312 -19.968975)
(-5491.9311 631.51915 -19.115753)
(-5676.1839 622.4518 -18.319975)
(-5853.4679 613.80027 -17.206519)
(-6023.9067 606.15823 -15.56039)
(-6188.4995 599.86371 -13.155703)
(-6348.4007 594.95927 -9.9027213)
(-6505.0941 591.71934 -5.9974507)
(-6660.2104 590.02578 -1.6223455)
(-6815.4506 589.91239 2.9620787)
(-6972.4702 591.63156 7.4782754)
(-1.8726199e-15 -1.0357256e-16 4.2324109e-16)
(-4.3693994e-15 5.8098526e-16 1.0825799e-16)
(-1.86708e-15 5.0203615e-16 5.7484399e-16)
(-1.1298519e-15 4.4303811e-16 -1.5186772e-16)
(-1.5283164e-15 1.7502349e-16 4.7144117e-17)
(-3.9278597e-15 -6.147074e-18 -1.0233878e-17)
(-3.270765e-15 8.5080195e-17 2.8271762e-17)
(-1.444637e-15 3.1767481e-17 -1.0328492e-16)
(-1.9600489e-15 -2.0641393e-16 2.5996682e-17)
(-1.0758982e-15 -5.0887233e-16 -1.6282415e-16)
(-1.1902312e-15 -6.3217422e-16 -1.0496995e-16)
(-2.2455722e-15 -1.0363924e-16 3.7607835e-16)
(-1.7254929e-15 1.2766475e-16 7.9907906e-17)
(-6.542485e-16 2.4659353e-16 4.7610311e-16)
(-1.0183069e-15 2.0413811e-16 3.0876606e-16)
(-1.2825224e-16 3.2154578e-16 2.6910031e-16)
(-2.4669526e-15 5.8726168e-16 -3.2350189e-17)
(-1.9694108e-15 5.8752001e-16 2.9593509e-16)
(-1.9972486e-15 5.0741204e-16 1.6376266e-16)
(-5.0142844e-16 5.9082617e-16 -1.5096731e-17)
(2.8672985e-17 2.0007103e-16 -2.079567e-16)
(-3.5598279e-15 1.6770216e-16 6.1584209e-17)
(1.5219227e-15 -3.8112137e-16 -3.4960392e-16)
(-8.8364966e-17 -1.5289127e-16 1.7491834e-16)
(2.7397895e-16 -2.6900304e-16 -2.0413732e-16)
(-5.1236454e-16 -3.7600259e-16 -4.411389e-17)
(-1.3114086e-15 -5.3747975e-16 1.2489795e-16)
(2.0041989e-16 -4.4379834e-16 -1.4360784e-16)
(-1.3448657e-15 3.3966264e-16 -2.7012678e-16)
(-2.2010094e-15 1.2158219e-16 1.1470551e-16)
(-1.2722141e-15 -2.3577892e-16 -7.7366055e-17)
(-2.6936153e-15 2.298542e-17 6.0151854e-16)
(-1.8084585e-15 2.5926424e-16 8.2177642e-17)
(-1.0121806e-15 3.7760621e-16 1.5728837e-17)
(-3.5076342e-15 -1.049112e-16 -1.8966684e-16)
(-1.2388067e-16 -2.746004e-16 -1.3203227e-16)
(-1.1077126e-15 -2.2449831e-16 5.9960705e-17)
(-7.9462407e-16 5.2806017e-17 1.8160622e-16)
(-1.481116e-15 2.6347307e-16 -6.003674e-17)
(5.3541372e-16 1.9494005e-16 5.7756958e-17)
(-2.5861876e-15 -7.0653702e-17 -1.8824779e-16)
(-1.6152529e-15 1.8241927e-16 3.8488004e-16)
(-1.0389662e-15 3.299921e-17 2.9700946e-16)
(-3.8817577e-15 -1.9427146e-16 -1.2145786e-15)
(-1.6161979e-15 2.8442108e-16 -1.856842e-16)
(8.1577518e-16 1.8112067e-17 2.0819295e-16)
(-2.485062e-15 2.8178417e-16 -5.4749215e-16)
(-1.8307085e-15 4.4562511e-16 -1.4619564e-16)
(-1.4586292e-15 4.0358521e-16 -4.0281137e-16)
(-27.331383 14.841658 29.377059)
(-32.858802 19.513958 20.882436)
(-38.904192 20.387016 11.027742)
(-41.1188 21.846695 3.1465732)
(-41.375157 20.623794 -4.7667837)
(-40.869484 22.064418 -13.693341)
(-35.473493 16.876361 -24.791017)
(-59.125122 73.815107 41.268786)
(-67.863231 82.619695 22.335416)
(-72.122756 77.797171 10.252233)
(-74.007731 76.042337 -0.83055424)
(-75.706902 82.128849 -11.420851)
(-71.497608 82.995324 -25.523757)
(-67.595689 85.404611 -42.785054)
(-79.846886 93.078202 41.304254)
(-91.195978 89.408745 29.912666)
(-99.424805 96.042669 10.837726)
(-100.52216 97.264783 -0.33847475)
(-101.19075 96.436916 -16.951367)
(-97.386145 99.95332 -28.038455)
(-91.950557 108.97154 -49.092071)
(-125.00643 133.22143 33.671792)
(-132.20932 138.29832 21.917713)
(-138.35483 138.90626 6.5576167)
(-140.58872 140.40373 -5.1000751)
(-141.35035 143.69948 -19.820905)
(-137.17043 149.97281 -35.942078)
(-129.86069 148.98956 -49.229314)
(-162.77447 156.011 30.029834)
(-173.00866 157.57141 19.497378)
(-180.39396 162.0909 3.7847411)
(-182.12147 164.49892 -9.6185072)
(-182.69686 168.24668 -23.634962)
(-178.8573 172.07568 -36.970516)
(-172.60103 177.48896 -53.251095)
(-214.3748 184.91974 22.034211)
(-221.33538 187.74201 12.015759)
(-227.8197 191.15927 -1.8684225)
(-229.89236 196.18367 -13.065678)
(-229.73069 198.73792 -28.35875)
(-225.72952 203.96553 -41.641137)
(-218.91734 206.95799 -54.796732)
(-266.28934 206.94337 16.219193)
(-274.65369 210.77559 5.1543979)
(-280.87138 217.15303 -7.9578915)
(-283.17358 221.01284 -19.683895)
(-283.08369 226.36207 -33.499421)
(-279.40802 232.40347 -45.55295)
(-272.8595 236.40253 -59.910021)
(-325.11537 232.22375 9.5860265)
(-333.25339 237.34351 -0.21291205)
(-339.32799 242.37409 -13.943667)
(-341.19926 247.69993 -25.846533)
(-340.05094 251.46953 -38.44707)
(-336.2654 256.77408 -51.585549)
(-328.87215 261.01918 -63.90221)
(-389.18086 256.5382 3.7397095)
(-397.3029 260.89044 -8.3032508)
(-402.93431 267.38506 -20.790774)
(-404.95005 273.23756 -32.197483)
(-404.60382 280.05866 -45.493883)
(-400.25695 285.65101 -58.034278)
(-393.01722 291.32878 -71.955496)
(-458.52124 281.48349 -2.5244066)
(-467.22056 287.51676 -13.973317)
(-472.95243 293.14541 -27.45062)
(-475.45244 300.16798 -40.537503)
(-473.65233 304.53738 -53.561394)
(-468.87621 310.29763 -66.065844)
(-461.07422 315.55981 -78.974068)
(-535.71813 309.11304 -8.3406147)
(-544.23289 314.15018 -21.409771)
(-550.26124 321.04774 -36.026927)
(-551.36357 326.11638 -47.67034)
(-550.52791 332.63008 -61.696731)
(-545.09418 339.14028 -74.355357)
(-536.45217 345.70816 -89.193523)
(-619.82436 337.23745 -14.023849)
(-628.80636 342.8864 -28.858618)
(-634.11668 349.11554 -41.995059)
(-636.50528 355.6743 -56.612975)
(-634.33723 361.24329 -71.135753)
(-627.61563 366.97401 -84.193483)
(-619.25954 373.15176 -98.805093)
(-713.38529 369.31888 -20.018029)
(-721.51123 373.80755 -35.139937)
(-727.77705 380.15652 -50.243632)
(-728.77552 385.07232 -64.926828)
(-726.37596 390.60421 -79.711786)
(-719.91254 397.81729 -93.331341)
(-709.52637 402.73624 -109.14046)
(-815.00688 401.73355 -24.742356)
(-823.76996 406.35035 -41.273569)
(-829.99567 411.97737 -56.545272)
(-830.50401 417.0697 -72.271759)
(-828.42304 423.13503 -87.968424)
(-820.34293 428.292 -102.44302)
(-809.99581 434.02353 -118.99823)
(-927.48036 437.89394 -29.011585)
(-936.49511 441.50478 -46.457715)
(-941.94149 445.97688 -62.56831)
(-942.77471 450.83715 -79.402034)
(-939.55279 455.25024 -95.173123)
(-931.47423 460.9749 -110.73271)
(-919.7773 465.43191 -127.59318)
(-1050.5153 474.71057 -32.070671)
(-1059.0702 477.3077 -50.11242)
(-1065.0674 481.74721 -67.109697)
(-1065.0715 485.64427 -84.053752)
(-1062.0124 490.34766 -101.09095)
(-1052.9725 495.07754 -116.90921)
(-1040.974 498.88643 -134.75348)
(-1184.4693 513.46616 -33.802579)
(-1193.5973 515.57866 -52.708316)
(-1198.8361 518.58478 -69.845763)
(-1198.8777 521.98984 -87.899482)
(-1195.4056 525.75869 -104.94112)
(-1186.1273 529.80959 -121.44391)
(-1173.5367 532.55399 -139.69627)
(-1330.4384 553.0343 -34.546623)
(-1338.9561 553.9502 -53.36215)
(-1344.2934 556.36677 -71.277568)
(-1343.9498 559.2505 -89.147514)
(-1340.4518 562.38869 -106.64791)
(-1330.7417 565.73101 -123.47922)
(-1318.0524 567.31102 -141.97732)
(-1487.695 592.88017 -33.930025)
(-1496.2098 593.05892 -53.072184)
(-1501.1507 594.65083 -70.762717)
(-1500.723 596.75336 -88.84365)
(-1497.1125 599.14597 -106.36442)
(-1487.4638 601.64656 -123.13721)
(-1474.9462 602.35192 -141.62156)
(-1656.6743 632.26212 -32.88139)
(-1664.722 631.72549 -51.466461)
(-1669.3436 632.50675 -68.986617)
(-1668.7701 634.10588 -86.754352)
(-1665.1836 635.77324 -103.92342)
(-1655.7156 637.54332 -120.46263)
(-1643.5567 637.14079 -138.54108)
(-1836.8207 670.56311 -31.291636)
(-1844.3045 669.4445 -49.282856)
(-1848.4216 669.6072 -66.213421)
(-1847.8135 670.46291 -83.349646)
(-1844.2065 671.51042 -99.931691)
(-1835.2626 672.31251 -115.82094)
(-1823.7122 671.21824 -133.10913)
(-2027.4043 706.96783 -29.956016)
(-2034.1021 705.45642 -46.854172)
(-2037.685 704.90861 -62.843985)
(-2036.9193 705.30083 -79.006997)
(-2033.4196 705.65144 -94.635216)
(-2025.066 705.66814 -109.60862)
(-2014.3288 703.90763 -125.71996)
(-2227.5317 740.9338 -29.063404)
(-2233.3769 739.085 -44.567055)
(-2236.12 738.16518 -59.314157)
(-2235.2747 737.89709 -74.231264)
(-2231.7106 737.67291 -88.566037)
(-2224.172 736.83324 -102.35278)
(-2214.3755 734.52253 -116.86969)
(-2436.1885 771.88985 -28.904402)
(-2440.7178 769.85479 -42.689442)
(-2442.5954 768.41537 -55.936612)
(-2441.478 767.63752 -69.257536)
(-2437.9524 766.7757 -82.051291)
(-2431.2773 765.18855 -94.406711)
(-2422.4355 762.4062 -107.07317)
(-2651.567 799.29594 -29.393747)
(-2654.8617 797.052 -41.217337)
(-2655.7255 795.38395 -52.883538)
(-2654.2981 794.01396 -64.419178)
(-2650.6258 792.73845 -75.401847)
(-2644.7309 790.51945 -86.20847)
(-2636.9876 787.3721 -96.561019)
(-2872.6014 823.00834 -30.410816)
(-2874.2853 820.66661 -40.265946)
(-2874.1101 818.7351 -50.113952)
(-2872.1648 817.00298 -59.580244)
(-2868.4265 815.12052 -68.86802)
(-2863.337 812.12819 -77.794428)
(-2856.6879 808.4141 -85.868251)
(-3097.3929 842.73692 -31.798208)
(-3097.5523 840.33105 -39.613639)
(-3096.297 838.2318 -47.244341)
(-3094.0383 836.18775 -54.754332)
(-3090.458 833.63012 -62.306406)
(-3085.5839 830.34329 -69.475724)
(-3079.5075 825.84479 -75.914288)
(-3324.8012 858.35579 -32.974975)
(-3323.2535 855.98979 -38.752733)
(-3320.8691 853.72202 -44.246921)
(-3317.9099 851.23526 -49.996726)
(-3314.1474 848.72337 -55.411247)
(-3309.8979 844.82708 -60.906937)
(-3304.7816 839.89189 -65.533774)
(-3552.853 869.97941 -33.830946)
(-3549.7446 867.51453 -37.47694)
(-3546.3469 865.1541 -40.976373)
(-3542.9544 862.66567 -44.671426)
(-3539.1446 859.82808 -48.203369)
(-3535.389 855.66039 -51.857027)
(-3531.0848 850.22206 -54.685106)
(-3780.379 877.62272 -33.966875)
(-3775.9899 875.03879 -35.519482)
(-3771.6904 872.63717 -37.061052)
(-3767.798 870.09511 -38.831733)
(-3764.0052 867.11277 -40.480758)
(-3760.6627 862.85645 -42.30388)
(-3757.2262 856.91579 -43.391209)