/*--------------------------------*- C++ -*----------------------------------*\
  =========                 |
  \\      /  F ield         | OpenFOAM: The Open Source CFD Toolbox
   \\    /   O peration     | Website:  https://openfoam.org
    \\  /    A nd           | Version:  6
     \\/     M anipulation  |
\*---------------------------------------------------------------------------*/
FoamFile
{
    version     2.0;
    format      ascii;
    class       pointScalarField;
    location    "0.23";
    object      E;
}
// * * * * * * * * * * * * * * * * * * * * * * * * * * * * * * * * * * * * * //

dimensions      [1 -1 -2 0 0 0 0];

internalField   nonuniform List<scalar> 
3969
(
891.10458
799.581
-332351.78
-158652.27
1188.2419
938.31894
-239673.39
-498438.36
473.37184
306.59879
193.40612
198.37634
282.21056
465.83784
758.62385
-182146.56
-181059.84
-180272.05
-179627.29
-179293.13
-179256.51
-135147.6
1047.0391
833.17047
982.11979
1051.7094
1164.7794
1247.4017
1317.813
1414.7506
1463.1656
1564.0246
1620.3104
1748.8566
1833.2203
1956.4958
2091.8513
2241.0195
2424.1607
2613.0702
2836.6521
3074.0502
3336.0318
3615.7197
3902.0907
4185.3798
4467.2395
4726.8338
4935.0331
5142.0327
5273.7929
5356.2901
5373.3681
5359.0692
5269.2973
5145.8891
5057.1649
4841.8003
4752.0275
4494.7935
4457.7532
4134.0814
4195.6857
3838.6595
3893.1125
3653.0122
3627.6892
3207.8282
2824.9599
1274.7895
691.47945
1284.9086
1078.5324
1382.4224
1346.4192
1464.565
1506.4557
1584.6129
1633.2184
1711.3151
1760.6965
1874.9301
1951.1956
2056.8637
2182.2625
2332.2544
2487.5982
2699.4968
2883.6624
3140.5344
3380.5111
3604.2098
3863.3123
4088.1856
4382.525
4442.3046
4692.0749
4807.5485
4905.8053
4984.2541
4990.1758
4958.0639
4889.1644
4804.3944
4657.0315
4583.1974
4357.8659
4264.3558
4072.578
4016.0065
3886.3105
3630.0177
3676.538
3483.1713
3410.4898
3445.5501
540.90522
387.77615
216.07581
223.89833
254.16665
416.21031
524.2637
1271.0702
1530.1258
374.57204
1756.6753
1311.5302
1601.7335
1687.8741
1703.9359
1832.3116
1759.4375
1857.659
2013.1079
2034.3221
2129.314
2328.5472
2438.4331
2655.1627
2847.4685
3089.0529
3352.1922
3648.7355
3961.4503
4303.2517
4628.6543
4954.9762
5327.3656
5428.8977
5597.1935
5739.805
5769.4569
5718.9814
5630.3222
5464.1063
5276.3205
5048.2585
4664.6732
5010.4248
4197.0293
4108.1717
3867.9261
3573.2584
3430.2948
3081.5298
2926.5637
2676.6602
2683.2154
1630.6335
-384818
-320906.25
-386076.61
-363252.33
-365070.54
-326449.45
-395445.85
885.93456
2300.096
3329.512
3357.0385
3529.7716
3612.7057
3794.9299
3912.9255
4104.722
4356.7222
4670.8058
4267.4161
4827.1385
4884.515
5030.4455
5124.2656
5149.4058
5157.2307
5093.6249
4992.9615
4823.4629
4630.4915
4404.9929
4145.7339
3872.5173
3596.4711
3329.0151
3070.6009
2835.8803
2620.3254
2432.3044
2263.8279
2079.6028
1992.0942
1948.4686
1795.5918
1673.2659
1627.0804
1488.3683
1498.532
1464.0032
1291.0185
1306.0316
1126.0699
1056.3576
796.22317
1477.7471
684.60688
663.77889
646.74489
659.04442
666.0008
685.36087
727.34289
428.40853
448.40895
454.98746
504.39385
475.12403
579.08835
414.73604
-178879.66
-179006.35
-179024.48
-179058.33
-179065
-179110.54
-179025.85
-374008.45
-374160.9
-374302.03
-374365.08
-374375.76
-374664.83
-374741.76
738.22041
481.94511
573.92725
604.13889
626.88621
705.30542
734.07549
793.53308
845.96321
913.50774
997.02715
1070.5071
1157.8521
1279.9455
1398.3592
1539.7828
1702.3791
1877.3822
2069.5802
2285.9782
2511.5109
2748.2655
3003.5933
3252.3053
3529.6874
3815.1466
4034.1496
4295.4498
4511.0386
4689.7868
4840.072
4952.3102
5001.5057
5033.7793
5036.9352
4916.0014
4963.1759
4763.0951
4739.9586
4611.0856
4489.5747
4286.5571
4378.9376
3897.2785
4301.6881
3971.7354
4191.3382
350.45008
209.67438
286.33502
240.48792
279.17273
297.59408
314.19952
354.50217
382.26329
434.96278
478.99003
553.77902
643.13808
734.47874
832.79969
949.71444
1072.6444
1206.1819
1358.6145
1533.1947
1731.634
1949.5779
2193.8984
2476.251
2786.6264
3066.5253
3328.9009
3660.9676
3888.4437
4141.8088
4347.0876
4499.5205
4607.2632
4695.701
4686.6389
4699.6329
4687.7927
4458.2709
4590.8593
4243.0879
4452.2883
4117.2551
4357.7483
3887.0389
4387.0968
3752.2144
4536.6472
192.04499
59.931281
93.661767
78.708507
87.596606
107.50026
142.93156
162.64033
213.57652
253.06216
310.31984
354.43348
412.3514
488.45225
562.49092
655.62822
745.31666
858.18986
981.47825
1116.9845
1248.7282
1412.2658
1596.8967
1801.2003
1989.0181
2211.8436
2530.7663
2789.058
3061.2989
3345.5871
3567.088
3790.0335
3961.6367
4078.473
4189.9307
4245.4016
4259.8854
4362.2641
4386.8409
4373.016
4356.9105
4288.0627
4325.8931
4145.9029
4636.6808
4072.2576
4697.6342
149.86022
26.893453
32.473547
5.7007257
15.960308
17.031975
20.606333
34.375098
51.599574
87.552815
116.40616
174.90855
233.88028
285.36435
358.25214
444.00918
541.81248
659.77592
786.28187
932.57142
1109.5512
1330.3215
1604.2429
1886.1815
2181.1164
2530.213
2822.7832
3149.4202
3469.9864
3766.2094
4016.8938
4254.1845
4402.5775
4543.3918
4610.8599
4626.5344
4653.0795
4575.6244
4551.2941
4323.8978
4456.0515
4215.7833
4342.4677
4151.6975
4322.6811
3745.3051
4605.3266
245.96347
145.76768
164.5184
143.97852
168.91063
170.97317
211.15453
233.07073
276.29464
311.45558
355.33425
410.07118
468.07584
551.13303
635.97775
726.84802
826.70617
934.8414
1057.8124
1188.4357
1370.4287
1451.0621
1625.6575
1824.759
2073.3657
2285.8471
2569.6493
2853.8322
3123.9279
3381.2782
3620.8671
3822.1184
4003.805
4095.589
4198.7165
4251.5242
4175.8814
4331.7659
4116.2659
4199.6332
4050.9094
4093.0537
4055.975
4057.5092
4028.1786
4123.411
4804.5205
461.59145
324.90225
380.36524
396.41066
440.36463
450.74851
491.77623
516.61466
548.69696
591.11185
653.45072
714.55142
789.61552
864.60371
963.09266
1064.5103
1187.095
1327.7012
1488.7108
1668.4867
1841.8438
2164.0245
2178.2585
2424.0368
2650.5529
2949.9121
3220.2017
3504.3352
3761.9044
4013.5302
4214.8346
4394.319
4502.2505
4609.6211
4640.1817
4631.8969
4693.4624
4493.7015
4617.097
4578.9153
4531.1143
4522.4607
4383.7375
4357.7577
4164.6603
4090.9696
4449.2462
619.92152
492.05965
621.29888
641.36738
706.85196
760.31322
820.3535
881.89536
953.78987
1023.8454
1124.5099
1216.961
1323.0115
1455.0702
1592.4479
1741.6309
1906.5361
2076.9083
2267.4902
2451.482
2701.4335
2862.3831
3189.3484
3348.0737
3639.7611
3878.9554
4111.1278
4321.2335
4538.3714
4707.554
4839.5618
4956.4069
5018.5194
5041.3078
5019.2133
4986.0161
4836.4462
4860.122
4608.2218
4516.8969
4323.5259
4225.0634
4105.3469
4039.7959
3876.846
4162.814
3754.701
180.01162
176.2363
101.07848
105.38265
118.09126
153.28479
248.66596
176.22135
148.06292
118.40067
123.2716
126.37891
150.0997
209.41051
99.749298
61.049782
37.972347
30.964727
37.552825
49.465165
118.09932
117.6457
85.389684
72.420649
66.682159
76.423214
92.089983
145.32113
121.91022
73.641161
55.674674
39.327787
48.211122
62.759692
127.78164
214.11435
137.7418
108.7973
93.463201
106.00511
140.43089
222.70856
272.66356
240.0709
174.02082
137.47155
147.95564
159.55695
312.60388
1230.5896
1097.9031
1152.4663
1244.0059
1198.5581
1350.27
1204.4412
1293.4639
1412.7904
1113.9691
1025.5241
1309.0722
1228.8815
1437.8207
928.51254
832.92679
1067.6659
1012.2096
903.20053
909.69728
1223.8541
1359.2221
1477.9238
1307.072
1354.8557
1369.8861
1520.5064
1241.8837
1344.918
1282.744
1397.6224
1350.2922
1353.6215
1377.3073
1533.2457
1495.8344
1415.5443
1324.3954
1433.565
1348.2334
1387.4036
1379.7187
1494.3814
1485.7569
1552.0733
1534.2756
1598.7172
1615.5395
1700.9082
1621.1917
1527.535
1426.6186
1492.9841
1476.7182
1462.2595
1541.8752
1610.8276
1614.6369
1683.846
1614.6957
1652.6104
1688.1675
1787.2819
1747.6247
1635.9178
1597.3746
1672.3957
1583.899
1614.7035
1708.2948
1806.0615
1760.0773
1764.9264
1717.856
1741.0562
1782.0199
1739.2628
1891.4056
1823.6939
1747.0522
1792.7785
1768.3421
1708.8068
1855.2338
1981.9
1880.5894
1907.142
1867.275
1873.4476
1940.4601
1932.0071
2067.8119
2014.9552
1974.9886
1935.5768
1975.4726
1927.4704
1975.4942
2182.5273
2109.04
2086.3555
2101.7602
2071.6207
2105.8124
2125.1948
2312.6374
2243.4486
2250.6216
2193.9794
2224.8596
2226.9259
2247.6348
2456.2199
2422.024
2401.055
2387.8668
2399.2975
2413.231
2406.3015
2647.9614
2594.3622
2622.1412
2571.1681
2602.7004
2596.9595
2610.795
2846.7891
2837.0242
2838.2944
2801.4323
2826.1392
2832.5959
2836.9222
3105.453
3063.2511
3106.2607
3046.5894
3099.0039
3081.2471
3106.7556
3363.7689
3353.9709
3380.7147
3330.6038
3387.0226
3361.2586
3394.482
3666.9512
3628.4983
3692.6098
3614.4616
3684.7558
3635.8519
3710.4661
3957.089
3940.0124
3984.1329
3923.0945
4013.3642
3970.4322
4060.5318
4253.1728
4229.533
4279.6039
4202.5969
4305.1047
4236.5256
4369.7761
4556.645
4524.1489
4537.7762
4562.0541
4606.7421
4531.4291
4693.2776
4816.8929
4779.7231
4791.0996
4763.8208
4836.4597
4778.3895
5091.9888
5111.7656
4975.148
5058.5048
5002.8157
5192.2321
5039.0853
5288.4667
5346.5823
5144.351
5264.1835
5149.1433
5302.7035
5156.7291
5458.7569
5430.0513
5297.6094
5363.2226
5275.5915
5389.8501
5319.8938
5574.5056
5557.9515
5326.8161
5461.1766
5310.5659
5490.4476
5361.3862
5635.9522
5556.663
5374.064
5462.0729
5313.9112
5467.1242
5334.0866
5613.3071
5544.8979
5323.8041
5414.5964
5251.8461
5418.2611
5285.212
5553.1569
5451.3993
5235.9571
5330.7169
5163.2924
5312.6601
5170.1996
5427.435
5324.2873
5122.9868
5207.1854
5028.1581
5173.9443
5047.9335
5266.5975
5177.4834
4991.3167
5054.9531
4897.4604
4992.3307
4864.5881
5091.1627
4996.6746
4817.6898
4914.7901
4713.0547
4849.0453
4856.1902
4894.3894
4832.2345
4691.7407
4717.3895
4574.7198
4737.9961
4377.1333
4741.6185
4537.3911
4496.3118
4529.0243
4412.6057
4440.7255
4523.6527
4554.9875
4499.5918
4375.3063
4462.7967
4248.2432
4411.4177
4190.7772
4311.2229
4379.616
4178.3482
4296.0489
4115.035
4188.9123
4015.1246
4219.0102
4157.4646
3993.2723
4169.8182
3892.6002
4070.824
3858.8602
4014.1758
4079.1948
3919.6245
4015.5519
3858.9287
3936.6115
3727.8488
3878.1789
3844.3501
3571.1243
3815.2818
3548.7163
3709.4465
3481.9651
3673.8974
3712.4777
3576.3821
3678.7898
3520.3365
3590.5304
3398.7899
3505.8269
3621.4474
3416.7423
3591.9916
3370.0915
3528.9716
3294.9917
3415.2763
3556.4985
3360.0505
3500.9769
3373.6137
3439.9003
3285.0152
3402.2894
2977.2418
2913.4831
2983.2104
2853.2954
2916.6861
2787.9303
2840.4989
-222902.66
-245475.51
-245613.27
-245608.06
-245632.8
-245694.6
-245422.32
-244267.22
-243791.79
-243924.43
-243973.12
-243975.48
-262853.65
-244108.09
-261183.67
-242094.79
-242088.5
-242093.17
-242136.14
-219357.48
-242046.38
-241311.93
-240949.33
-241226.64
-241241.26
-241270.36
-241084.01
-241323.69
-240465.37
-218090.87
-240411.32
-240381.66
-240270.8
-240316.36
-240296.01
-217838.25
-258471.55
-240042.58
-239960.11
-258881.99
-239856.66
-239951.82
-257737.9
-239167.14
-239241.69
-239282.31
-217099.4
-239272.13
-239275.62
1087.1814
986.56717
989.16667
959.40176
1021.7671
1077.7261
958.55222
901.03319
784.58749
825.57341
865.95094
857.20811
826.87956
945.40506
1141.2072
1155.3147
1131.777
1104.8479
1206.657
1113.985
1172.8818
1138.2392
1121.5307
1137.5913
1176.8416
1139.0106
1163.2744
1177.5546
1290.095
1273.3429
1274.6507
1273.863
1303.618
1217.3673
1294.0628
1275.6494
1301.5259
1293.9284
1320.2685
1296.2176
1296.9437
1299.8008
1417.6886
1373.9392
1379.4046
1334.2644
1386.4419
1398.16
1387.1662
1408.6584
1448.2838
1418.9143
1468.0797
1415.7201
1434.3278
1455.2672
1553.5555
1500.8086
1494.2836
1492.6294
1496.4263
1488.1336
1496.843
1611.1485
1592.8418
1577.335
1590.5385
1553.1858
1588.9227
1548.3308
1687.6759
1661.5943
1661.3271
1637.8324
1632.18
1636.6036
1625.2634
1737.3823
1753.5047
1703.5506
1743.1958
1708.5591
1752.2677
1722.855
1876.6274
1858.6526
1834.2692
1835.2381
1784.3516
1816.5237
1735.5543
1911.3416
1955.9155
1953.5331
1949.2591
1919.8572
1925.2851
1956.9421
2095.1753
2072.1275
2029.9987
2047.2799
2049.585
2110.2069
1986.6385
2275.5974
2265.3208
2232.6613
2238.1946
2156.6461
2191.2846
2134.2511
2419.4926
2418.8947
2400.794
2402.0891
2358.1869
2397.4966
2301.4111
2624.8485
2616.5636
2607.248
2593.1295
2549.9191
2587.8079
2496.7521
2844.8923
2849.9799
2833.1279
2815.478
2781.9218
2806.2936
2712.5385
3101.7803
3098.7089
3084.948
3065.985
3032.876
3047.8124
2963.4832
3376.7449
3369.8454
3367.3207
3325.7286
3303.1264
3307.8674
3232.4441
3672.9405
3659.3283
3658.0243
3604.2457
3600.6734
3582.059
3520.0554
3975.4808
3947.835
3955.5687
3897.9491
3900.2714
3856.0237
3816.593
4273.037
4243.3136
4262.1721
4182.0087
4204.8334
4136.2886
4112.5938
4586.4673
4524.8864
4537.1264
4454.5142
4491.5862
4400.528
4393.8557
4869.7046
4756.4325
4814.7283
4696.9195
4758.0741
4637.0572
4652.1166
5084.1451
4998.819
5042.4489
4896.5522
4985.6202
4831.8735
4855.88
5315.6694
5166.8308
5195.9741
5083.2926
5156.8959
5008.3905
5037.2026
5445.9306
5250.4653
5358.2228
5185.588
5276.715
5117.5515
5148.4204
5512.0148
5376.2215
5392.8893
5248.3857
5348.9653
5192.6428
5211.9378
5565.3683
5337.5867
5412.8872
5271.5213
5355.952
5195.8948
5214.6548
5500.0451
5319.437
5369.5537
5225.488
5300.1365
5172.1908
5159.7322
5425.1469
5223.1953
5270.9535
5151.7293
5205.7913
5084.21
5083.3999
5290.4883
5092.5722
5145.0539
5042.8711
5081.9126
5030.6847
4938.9894
5153.854
4947.6298
5005.4523
4909.0595
4921.3639
4793.9989
4801.4645
4922.6242
4763.8855
4833.0224
4740.2391
4744.1389
4875.9405
4722.5799
4858.5946
4626.8412
4679.4871
4539.225
4704.0792
4328.0621
4512.0134
4540.228
4470.8806
4473.3426
4450.2405
4361.7013
4507.132
4354.8625
4419.1907
4363.8541
4380.4773
4331.5856
4321.1345
4274.6026
4208.5984
4315.3981
4171.2985
4139.5111
4204.6822
4086.9651
4117.9837
4089.8787
4148.3234
4034.9807
4136.2863
4080.389
4043.073
4012.9123
3980.8132
3993.0545
3981.1096
3895.2093
3936.8001
3860.2465
3837.9043
3886.1906
4008.5682
3769.5686
3830.5044
3901.1776
3862.5685
3877.8499
3844.8095
3649.031
3630.2177
3647.2747
3684.2524
3565.0943
3543.2084
3593.3722
3875.3108
3621.4422
3741.435
3673.5301
3637.0943
3741.0654
3666.1664
2693.3635
2789.9392
2786.6098
2734.4683
2784.036
2638.0143
2694.2576
2340.9481
1924.1905
1939.5896
1943.8336
1849.8588
1943.5468
1881.1117
1053.4809
691.32481
712.01052
802.67221
853.94847
972.5735
996.53347
1122.5703
1149.4472
1282.4942
1367.5104
1471.8757
1596.2147
1726.2407
1852.1893
2067.8305
2229.6207
2432.8523
2646.9046
2872.0914
3110.616
3359.4077
3613.5613
3859.4617
4117.7461
4331.0796
4597.1769
4774.0704
4951.3949
5099.8462
5203.4047
5277.3266
5298.4524
5281.1224
5258.5385
5132.5041
4963.0151
4955.8011
4693.7008
4508.1767
4325.3005
4122.587
3925.7694
3786.1898
3837.4017
3944.5808
4562.4943
487.83622
562.92351
360.74297
427.05477
489.38702
424.15256
499.22143
524.42979
526.99588
606.64055
599.78146
668.45549
713.3572
785.86221
861.14164
942.60248
1039.3546
1151.7594
1290.9796
1445.4401
1628.8969
1839.533
2069.9885
2336.4847
2623.7783
2922.0018
3288.1244
3532.0193
3821.6327
4077.4198
4295.1528
4471.43
4578.9771
4664.512
4675.7798
4647.9098
4625.0324
4555.7159
4489.7347
4415.4232
4433.7701
4280.1357
4447.3677
4142.8168
4607.8192
3489.8065
5364.0483
222.44817
197.53091
46.441087
184.67619
104.82446
202.46477
207.62125
240.54644
302.61104
347.13674
400.73924
499.02556
520.91129
668.28118
740.33322
862.86375
967.34885
1099.2294
1230.6478
1386.959
1554.8746
1746.3307
1962.269
2199.0298
2449.3174
2696.2241
2993.4849
3240.5913
3515.2773
3765.1698
3975.2502
4141.2692
4279.4264
4359.3665
4386.1574
4396.7254
4351.4453
4325.7564
4213.525
4232.4125
4031.7936
4162.3833
3904.7284
4084.9889
3865.6229
3966.9925
4660.1319
127.11775
96.858629
4.3686204
109.63334
15.314311
96.319147
-25.559423
108.33121
62.315848
101.18828
158.37346
174.14998
228.15513
298.31569
358.63788
427.05885
488.50633
581.08809
683.6292
809.15999
955.09392
1134.2753
1335.7349
1575.565
1832.5805
2147.0894
2480.3498
2805.2471
3143.1041
3457.0833
3733.214
3987.3772
4195.6151
4310.1071
4438.5413
4472.7019
4494.9046
4462.9728
4507.6956
4348.0226
4529.8683
4253.7907
4506.364
4143.7612
4628.3009
3662.1108
4737.4843
199.69277
75.050515
56.692236
85.633105
72.851041
104.7352
100.77719
192.4354
158.38984
275.40659
284.49786
356.4678
408.51879
500.52719
588.83655
664.89915
755.11378
864.29601
975.75465
1107.0076
1262.6193
1424.7601
1653.1841
1870.4807
2141.3749
2435.1574
2692.7823
2998.3709
3281.64
3541.7771
3773.5085
3967.3897
4087.6962
4184.6597
4248.641
4204.2768
4201.8452
4196.4506
4007.0831
4161.5387
3891.6006
4060.0989
3876.1286
4068.6486
3792.6641
3906.3083
4462.5586
385.56045
290.55348
140.37707
378.69613
212.98155
358.58513
363.81867
368.11927
477.69326
489.49806
549.4164
620.39368
692.99419
747.83331
852.77354
937.75334
1059.4981
1186.8368
1337.7282
1514.2463
1709.6403
1930.6884
2186.6445
2420.5019
2562.3149
2853.469
3191.0947
3496.7368
3803.4804
4084.8437
4335.5523
4526.8964
4688.2486
4780.8859
4848.4747
4803.9301
4880.8816
4670.0777
4825.1396
4566.0448
4649.3416
4479.952
4540.073
4336.3394
4401.4319
4477.7404
4187.7716
965.96856
401.07376
725.41597
422.50784
711.23572
644.53164
718.52302
818.09654
859.75494
1007.5297
1102.1715
1371.3948
1418.6505
1575.7134
1683.1019
1853.2199
1986.3458
2161.8332
2326.0149
2509.0217
2699.0302
2891.3495
3119.3664
3290.5234
3643.987
3670.1062
3863.2004
4092.2426
4282.7959
4473.2078
4625.8087
4733.159
4805.1274
4811.9604
4793.3541
4615.6418
4650.9539
4518.7353
4303.3725
4210.2703
4065.334
3977.4887
3883.9788
3878.0992
3812.1778
4017.8802
3055.1303
670.00852
584.95612
540.11708
536.8507
545.02744
552.9834
623.22316
645.56122
650.5387
592.46194
599.10489
595.53828
599.16574
669.48177
648.80964
687.11837
690.05545
690.84926
691.23133
711.24111
742.26668
735.36104
745.13782
760.87081
775.16838
762.45961
765.54007
760.0582
745.88922
751.34929
792.98244
768.79345
797.50362
780.84932
786.36234
822.30817
829.77219
848.13768
884.47035
865.70453
893.30059
890.64246
850.28711
848.197
894.35869
852.89124
895.85142
882.46119
882.23667
916.96539
932.79188
945.18286
966.85443
972.17989
967.5217
987.26666
974.25173
980.82868
1000.0058
986.0426
998.63811
1014.1558
1018.191
1037.3905
1055.8897
1066.9532
1063.3053
1080.0458
1095.9462
1102.8731
1120.0038
1131.7839
1138.8701
1126.1516
1163.2959
1166.9075
1191.5141
1210.0139
1212.4029
1226.2688
1229.2851
1233.5904
1255.4665
1280.9097
1325.643
1333.7861
1328.7736
1323.8413
1346.434
1370.4378
1374.0894
1434.8462
1454.5551
1454.5018
1438.0126
1469.1183
1473.128
1483.2525
1559.0454
1591.4523
1568.8975
1578.5431
1581.8813
1627.0445
1635.0905
1712.7013
1755.4308
1726.6974
1727.1541
1752.8024
1760.2316
1782.2708
1876.645
1908.8756
1903.4739
1877.6655
1921.8893
1932.5271
1957.0945
2047.5001
2097.4495
2086.6061
2064.2615
2110.8499
2124.0598
2145.0696
2257.1045
2301.278
2299.9237
2273.0808
2328.6956
2325.0916
2354.9852
2478.1346
2526.1164
2527.3972
2502.7823
2550.6562
2547.2605
2587.4918
2725.7321
2755.6399
2780.7796
2738.7028
2801.2226
2789.5557
2830.7431
2988.7388
3006.4924
3038.1836
2990.7691
3064.3233
3038.1085
3088.2344
3264.5172
3254.3036
3311.5372
3255.4438
3329.9644
3296.6461
3360.2511
3552.4016
3519.8575
3599.9508
3509.9371
3586.5028
3556.8917
3624.5136
3844.1219
3785.7268
3836.593
3785.5835
3845.4933
3813.1174
3897.309
4078.1979
4007.0737
4134.3842
4016.0068
4091.8418
4060.5612
4127.5133
4370.0402
4242.1946
4364.8064
4245.1244
4320.4312
4297.4348
4379.7166
4602.9042
4490.9975
4516.305
4492.8185
4522.7775
4489.9219
4595.1805
4786.8911
4597.3019
4794.3784
4622.0255
4705.2424
4663.9559
4778.3391
4945.2313
4803.2646
4895.6657
4762.6678
4858.3408
4806.9159
4921.7749
5079.3925
4864.6925
5013.3742
4885.4732
4960.2971
4907.0781
5028.7796
5134.2399
4952.2305
5090.3125
4938.4792
5013.9775
4977.3333
5093.0191
5173.0591
4983.2673
5103.5535
4973.4694
5054.1078
5016.9779
5137.9443
5161.2832
4960.9186
5109.8877
4972.7011
5046.2027
5028.1453
5096.3717
5094.1535
4959.7742
5076.1336
4922.3518
5029.1083
4935.9411
5075.9417
5032.1577
4882.9936
4959.7739
4896.6022
4913.3516
4926.3772
5001.4428
4908.1491
4739.1019
5009.8041
4721.8296
4946.6981
4783.1496
4984.2912
4815.3391
4700.4745
4726.2222
4825.7841
4647.5653
4834.8266
4744.7941
4601.8158
4611.3889
4677.9492
4583.9032
4676.354
4596.1573
4697.0435
4579.1673
4523.6548
4509.388
4538.4899
4457.9124
4531.2029
4497.1163
4286.5735
4303.5223
4354.9569
4334.6178
4371.9966
4373.6718
4375.4798
4274.3562
4292.664
4221.055
4285.9813
4178.7294
4253.6322
4212.2098
4204.8303
4099.6328
4115.7207
4177.7439
4157.011
4181.8174
4060.5614
3790.6406
3856.6436
3869.7801
3986.3535
3760.7062
3814.1027
3842.4167
4166.6833
4077.9461
4131.0924
4126.9691
4052.5085
4288.7992
4005.6058
3907.2094
4151.2312
4019.6942
4161.9114
4142.1518
4081.7629
4087.1503
4422.9906
3977.084
4303.7575
4249.9896
4221.5726
4221.4899
4347.6939
344.88493
267.79733
231.44826
222.42889
221.2828
235.79177
278.70311
349.58613
369.89493
343.59515
363.64658
369.43771
389.55995
414.33708
369.84607
350.24879
366.93833
346.44801
375.35924
338.17617
398.22425
342.68194
351.09051
368.79158
378.74524
365.17102
391.56733
334.41122
401.471
394.64515
419.57735
409.26042
432.47479
394.93681
418.06543
400.93688
392.05337
392.46741
396.38644
382.02489
399.58011
364.90168
432.6929
431.39592
430.42992
438.5712
437.71708
425.07047
401.19349
472.54687
468.10965
443.53569
471.53973
445.95475
460.16554
434.22658
507.87412
478.2957
472.48975
480.59559
474.27487
471.40981
447.96206
557.1004
538.75371
516.54826
546.54182
532.16511
541.67553
505.91984
602.49553
568.00104
559.30223
569.5897
557.04068
544.33738
526.76052
664.52072
642.055
615.06378
636.16803
626.05572
626.57086
591.88257
724.2501
679.38455
690.19837
700.25829
683.745
680.03078
641.88883
800.06005
754.73311
750.17568
776.74755
754.11175
760.46561
747.09061
892.15414
847.24483
843.15146
856.54016
850.06752
826.74867
808.90416
991.21247
934.76279
942.82862
962.41865
938.0281
932.49577
911.63246
1102.3823
1069.9662
1047.8256
1082.9297
1053.5802
1040.2032
1032.4376
1233.6405
1198.7755
1173.5514
1211.7794
1182.0865
1162.6579
1161.644
1386.0897
1364.8483
1330.9084
1366.1044
1339.6024
1310.3701
1312.351
1553.5002
1538.0078
1496.1012
1532.5509
1504.3445
1467.6742
1484.22
1739.5594
1740.6232
1694.5671
1726.2805
1696.7354
1666.1828
1673.7495
1949.7727
1968.7714
1916.5911
1935.4003
1920.5007
1862.7223
1886.3311
2195.8938
2213.8148
2158.5505
2182.817
2149.2177
2097.6456
2119.5719
2443.4379
2481.7248
2430.6747
2417.8494
2417.5944
2357.5965
2364.6001
2710.9805
2773.9592
2679.8149
2682.0753
2704.7618
2627.4097
2629.4714
2992.2136
3040.5852
2958.9704
3045.0881
2926.2735
2968.269
2907.9754
3223.6323
3442.4583
3238.1601
3196.6127
3327.3572
3153.7795
3192.3717
3572.7675
3560.3033
3608.9083
3505.3691
3535.7793
3487.7423
3462.3458
3814.6526
3896.1527
3830.3161
3727.2464
3817.0185
3753.5826
3710.1547
4078.5042
4124.6694
4023.8448
3978.576
4043.3036
3986.7908
3938.689
4273.6223
4289.3992
4231.7698
4161.8877
4224.2425
4189.2975
4137.1842
4423.6224
4461.0725
4384.1095
4311.9249
4375.3001
4367.6698
4302.8872
4545.6164
4551.2644
4478.751
4420.8529
4488.6671
4491.6664
4400.4104
4612.4395
4614.9387
4553.3871
4493.0378
4541.3669
4538.4176
4477.7645
4629.8879
4634.035
4548.7627
4525.1465
4547.4091
4605.7596
4549.31
4635.48
4584.6501
4564.7247
4529.7352
4547.461
4626.8177
4519.1186
4590.6436
4660.5344
4499.2597
4529.4719
4482.1567
4589.9281
4469.7977
4561.0986
4434.2918
4441.8431
4446.2791
4447.5268
4572.984
4460.1854
4586.2953
4504.0675
4510.1352
4454.6055
4425.6679
4520.636
4430.3272
4438.873
4237.6964
4319.2418
4278.8372
4288.7796
4445.0285
4344.861
4505.5969
4389.7632
4480.2154
4428.7685
4433.271
4472.9272
4378.9635
4341.7637
4112.3048
4206.5577
4117.0235
4086.9971
4226.4146
4194.7875
4388.0844
4318.432
4411.3126
4415.8372
4460.7428
4527.2776
4383.638
4114.6997
3862.91
4031.0859
3927.9934
3826.3854
3921.1179
3940.1054
4535.2294
4497.8323
4539.7685
4449.4708
4507.5294
4805.5297
4655.2889
3783.0493
3255.3955
3608.3836
3402.4167
3426.6008
3460.2074
3139.4762
4871.4626
5011.7692
4879.1269
4798.6586
4822.0892
4871.6137
4918.4156
156.90291
117.80585
93.323073
85.336065
86.234311
89.937676
123.62926
98.907075
87.822759
76.229089
76.959607
83.637621
87.336649
145.13827
117.70148
68.978601
53.339508
46.689066
52.912862
38.97576
103.99185
138.10189
119.85694
163.21106
179.99345
176.0343
183.0693
182.21513
161.39098
129.93353
130.55015
88.475874
113.37941
85.670186
143.22705
174.61341
124.63624
157.2114
166.82204
181.09807
172.51878
176.34944
198.3186
164.42837
201.72869
191.31231
194.0311
170.15709
195.20877
223.70524
183.72349
214.39385
192.19748
208.6274
196.54793
204.62702
249.81545
235.88419
257.48234
257.71967
255.40045
244.79567
242.04284
293.70096
272.2074
300.21402
287.47158
272.24162
267.53542
271.32326
338.70822
330.59662
351.8852
338.10498
332.44141
328.18539
323.98201
398.39779
375.39458
405.99034
404.6663
393.05545
393.14882
393.17244
451.18092
436.99582
486.26863
453.34084
447.48641
459.4308
440.47925
500.66973
552.02404
562.631
520.45343
540.42879
561.32249
504.89964
565.50447
609.7444
632.64533
611.51197
607.92239
637.38692
598.35613
640.30265
716.76663
726.36373
703.66365
710.52645
732.7677
700.10748
738.68306
800.81542
833.05999
807.35387
804.45328
841.39532
795.86211
844.70243
914.75774
954.19493
911.84728
920.96406
961.94924
912.49444
970.53875
1041.4767
1084.9236
1045.9623
1064.6638
1088.3293
1048.1912
1113.1301
1178.7326
1226.8124
1188.6941
1204.3682
1232.8432
1199.7845
1280.506
1340.758
1402.8788
1357.0815
1390.1307
1403.733
1378.5276
1477.791
1526.4882
1586.4388
1539.8244
1577.3015
1588.0044
1568.792
1688.0774
1727.2851
1796.5486
1731.2868
1801.8024
1796.455
1803.0723
1948.1444
1947.2286
2026.2198
1957.3684
2036.7031
2020.8006
2037.8033
2213.7009
2179.3836
2271.5053
2219.1473
2300.1463
2238.4382
2334.6201
2494.1134
2449.5674
2580.4103
2451.8879
2582.4449
2494.9669
2599.5352
2854.4302
2715.9558
2790.6213
2717.7317
2860.135
2726.976
2908.3813
3096.5398
2969.4736
3092.9643
3022.1825
3127.8816
3022.4922
3185.5563
3415.2249
3253.0945
3381.7343
3245.1565
3415.9072
3259.3268
3455.792
3694.9918
3498.561
3589.4927
3504.0141
3655.8121
3480.5317
3720.6381
3924.0965
3699.4803
3830.4987
3729.7959
3879.5379
3709.0054
3952.0715
4137.9134
3898.7684
4026.4908
3898.4602
4068.2757
3874.9026
4118.4223
4300.9944
4035.4005
4165.1904
4044.1642
4212.5216
3990.8196
4266.9808
4405.4264
4133.6896
4278.3338
4151.1002
4301.4143
4121.8448
4386.8546
4488.4596
4189.5454
4370.0843
4203.5411
4388.0177
4181.8122
4392.204
4498.1636
4252.9609
4404.0981
4233.3494
4414.6297
4185.1484
4435.2086
4508.2471
4196.5977
4402.0033
4232.9267
4422.8621
4197.4638
4425.9345
4485.186
4206.9305
4453.6688
4224.7757
4427.5434
4183.7299
4381.204
4332.6414
4220.4387
4304.4175
4187.3639
4315.5057
4119.5572
4331.9142
4414.5831
4186.8355
4385.6206
4222.8571
4383.4621
4200.9718
4305.6552
4171.6621
4150.3908
4176.9797
4081.4915
4152.6587
3972.2508
4147.7663
4275.8177
4159.4897
4278.7823
4168.4557
4245.3034
4186.6994
4253.1459
4101.8967
4095.2546
4030.3391
4021.7739
4063.4031
3968.8393
3994.6373
4123.6541
4084.4131
4151.5498
4121.7278
4047.1891
4021.6025
4133.9915
4200.1654
4169.7862
4070.3693
4080.0829
4031.995
4207.7524
3970.6979
3933.809
4051.8326
4115.8396
4050.8704
4213.2847
4067.3854
3900.2032
4503.0378
4357.1053
4308.2162
4199.8662
4377.0765
4122.3777
4316.0078
101.31484
78.409026
57.482424
58.23024
53.205263
60.934821
55.369579
25.974743
28.265972
39.695624
52.00028
41.621697
63.428344
73.995083
23.018579
-5.8920487
4.2046313
9.9760374
13.993469
12.895972
4.7988478
46.836944
44.209974
71.941536
74.335184
70.031395
84.153533
69.73354
33.659391
7.4506484
15.412248
14.423163
-12.879405
21.041529
3.4280081
61.749155
25.950231
46.819905
73.916708
83.204725
76.099864
83.674234
51.435897
36.944065
20.839168
22.221742
16.454556
33.793027
15.375779
84.915715
74.698229
74.204929
85.815182
94.780744
101.11625
62.450796
101.56315
69.800687
79.475828
64.351903
91.420454
89.643503
79.574927
127.7531
111.41502
115.44636
113.61201
147.63475
161.31637
95.106463
157.28777
133.87144
151.42401
141.90223
184.30653
187.05311
140.06519
207.99502
181.62009
187.56883
176.89251
218.44889
226.04326
180.12053
244.78856
236.07893
234.30936
232.39221
275.56835
260.69472
211.94001
318.77419
315.84613
263.58747
298.44135
298.87529
309.62365
265.40972
382.91844
384.14483
379.99873
366.9144
380.82961
365.87286
345.82812
466.85484
455.15204
443.4523
438.67684
449.44823
447.51224
425.93334
552.50488
568.5928
530.70797
529.03882
547.25083
527.7542
521.67401
656.9665
679.76746
630.07218
633.78233
648.66829
625.08683
626.1018
772.01336
812.80263
751.95056
760.23807
781.59941
745.17596
755.98059
911.82487
964.67511
889.73487
900.86431
915.01818
869.05506
897.79436
1079.7359
1136.4807
1057.8662
1077.5868
1082.1122
1041.8083
1072.1604
1283.5747
1331.7601
1248.8477
1249.3935
1268.6314
1209.695
1255.9795
1523.6372
1547.3722
1447.1988
1493.1477
1489.0165
1423.0391
1474.3275
1758.9263
1766.4964
1716.7477
1738.5571
1732.2237
1665.0954
1726.7719
2040.1941
2052.6923
2008.8233
1978.0749
1995.4794
1955.8055
1976.1141
2383.3098
2316.5681
2255.779
2282.9764
2256.2226
2245.8747
2258.1043
2648.2507
2601.6473
2585.2703
2583.2995
2540.8837
2583.1112
2550.1419
2980.4854
2872.1002
2900.6236
2867.0992
2863.9913
2878.9881
2854.1665
3285.9956
3184.9332
3180.3815
3156.452
3115.0654
3174.3667
3154.1316
3554.9589
3428.8194
3453.4368
3424.8229
3405.0945
3488.7909
3438.1398
3800.3468
3681.6525
3696.3738
3676.0309
3632.4288
3731.8299
3677.1974
4026.3465
3883.1657
3906.1454
3879.785
3816.0957
3946.5089
3885.8859
4159.4932
4032.3254
4053.7076
4029.753
3980.1053
4157.3813
4075.8379
4302.8077
4157.836
4190.4796
4167.6689
4103.2527
4265.9885
4163.3997
4346.6576
4225.5699
4260.7321
4224.6039
4161.9774
4359.6752
4264.2526
4377.9549
4272.9903
4274.0486
4276.4956
4221.8075
4386.0077
4316.0405
4402.6775
4295.5311
4311.5639
4333.3099
4181.2468
4450.3546
4309.3376
4291.0538
4250.5002
4271.479
4212.1532
4188.1048
4374.5073
4304.8032
4374.0756
4340.9778
4306.0263
4358.7569
4228.7642
4467.0684
4337.1286
4179.6042
4105.7361
4175.1476
4106.2868
4052.6498
4259.1488
4181.1047
4297.7073
4307.7005
4316.8532
4333.2554
4234.9551
4467.8671
4350.6488
4217.6501
4032.2542
4126.1699
4013.333
4013.08
4192.3616
4096.9373
4205.327
4209.6999
4255.7863
4279.8991