/*--------------------------------*- C++ -*----------------------------------*\
  =========                 |
  \\      /  F ield         | OpenFOAM: The Open Source CFD Toolbox
   \\    /   O peration     | Website:  https://openfoam.org
    \\  /    A nd           | Version:  6
     \\/     M anipulation  |
\*---------------------------------------------------------------------------*/
FoamFile
{
    version     2.0;
    format      ascii;
    class       pointScalarField;
    location    "1.89";
    object      E;
}
// * * * * * * * * * * * * * * * * * * * * * * * * * * * * * * * * * * * * * //

dimensions      [1 -1 -2 0 0 0 0];

internalField   nonuniform List<scalar> 
28033
(
786.52995
136.68691
-344409.88
-170143.6
961.11867
3847.5534
-253214
-514681.59
296.21951
229.57642
206.67664
426.89544
159.66866
346.66196
294.91748
257.62995
345.56488
186.10142
169.96749
212.34724
305.99161
49.902418
-488.66829
-194423.25
-190990.44
-189715.48
-189930.15
-189687.24
-189286.55
-189614.97
-189112.67
-188953.79
-189047.61
-188250.59
-188611.35
-187746.53
-187747.76
-140700.4
1276.3399
189.4212
389.67735
85.657524
319.93465
266.21205
345.40582
77.79618
365.84714
81.462018
255.96337
189.73104
209.30258
284.96722
251.84078
366.21712
182.82688
560.29434
255.79998
544.59248
449.61508
587.70774
440.07369
768.97141
486.70733
837.74905
600.31526
952.99744
756.1017
1004.0039
1013.5426
1029.0447
1085.7883
1066.2424
1212.5855
1284.5146
1230.4348
1457.6568
1347.1256
1524.9984
1461.5892
1625.2535
1610.3626
1749.4447
1763.8385
1917.1236
1909.2639
2103.1059
2083.7728
2269.9695
2278.5818
2426.3127
2476.2125
2574.6779
2647.5023
2722.6623
2781.6854
2843.5028
2887.4019
2928.4591
2947.0656
2984.7206
2971.7787
2995.4254
3011.7175
2977.4863
2905.7651
2912.1468
2858.2888
2994.7318
2872.7173
2834.402
2858.5195
2662.4691
2907.986
2476.9314
2921.8326
2348.7914
2921.0338
2239.784
2869.7236
2263.1186
2831.0426
2264.8449
2724.1731
2517.2971
2546.4345
2528.1183
2488.6125
2795.1823
1441.9787
3264.6467
1210.8166
1159.4892
4655.6876
4559.0332
-2732.9575
2720.7851
-955.7156
1242.2866
1201.7508
743.68769
998.79189
1491.6381
878.76615
1613.2113
1167.0842
1695.7263
1349.8757
1642.6845
1511.8876
1667.925
1768.8313
1710.3244
1813.3838
1423.9404
1746.9331
1296.4248
2088.0353
1601.5233
2436.9775
1694.7945
2368.3319
1791.7523
2325.4107
1819.0548
2280.2648
1990.6225
2301.0639
2198.637
2434.0379
2290.0333
2491.9409
2374.5063
2603.0969
2527.3635
2668.055
2660.5352
2783.4551
2764.2675
2892.716
2884.1669
2983.5317
3005.3721
3070.2414
3109.3371
3163.6061
3189.3982
3250.2271
3263.3824
3306.979
3326.1979
3347.9855
3353.2731
3374.3899
3354.2056
3368.3564
3333.7902
3336.3678
3279.9977
3268.5003
3193.0094
3211.5261
3193.7835
3093.2028
2993.0046
2919.4783
2921.0168
2775.3034
2766.4968
2662.6624
2560.9066
2550.3287
2384.864
2392.2922
2259.9997
2211.0713
2108.0853
2065.9359
1951.6482
1885.4493
1826.113
1736.8098
1609.1762
1633.0227
1497.0107
1334.2652
1226.9245
1580.0162
-614.49821
367.69307
322.82589
-26.529191
519.20217
77.329239
198.33517
232.69169
118.1867
202.8103
90.127139
121.87459
6.0424901
-167.66232
-707.41809
-68.575052
3158.7849
5180.5457
-5949.4646
2803.6597
482.9555
-16.532612
1610.2534
1352.1701
1559.6365
1304.4754
2056.3212
497.49238
2447.0868
54.717743
2548.0114
611.44068
3260.1583
-109.50813
3499.6971
722.82917
2461.0694
2394.5923
1676.8249
2207.7934
1643.3811
2380.6246
2362.4232
2149.4533
2530.5729
2091.9043
2185.9951
2306.7562
2278.2223
2317.879
2438.6266
3009.7223
2235.2895
2574.4677
2519.5164
2560.1982
2638.733
2676.9238
2728.8878
2772.0345
2836.304
2876.09
2933.8941
2982.8027
3033.0556
3082.4487
3125.4801
3172.22
3214.5794
3239.3241
3276.8104
3292.6057
3302.6232
3310.4205
3295.0335
3284.5658
3245.9311
3218.2448
3156.5497
3111.2023
3036.7106
2985.55
2859.2294
2856.72
3509.3413
2364.1446
2642.4177
2390.3015
2320.2756
2219.1561
2105.4061
1993.3788
1878.8887
1785.3989
1636.3807
1567.8114
1406.1447
1357.1006
1182.5706
1147.1721
949.97432
905.05642
706.44076
618.5939
451.66999
318.3027
202.22786
-0.66041585
-28.343587
-47.203028
-2518.8298
-399461.76
-377127.26
-334354.93
-402749.92
-335349.7
-403539.99
-336500.47
-379238.32
-404220.86
-380335.66
-337705.43
-407151.68
-338380.56
-407992.67
-387975.79
3689.1143
503.16262
2437.6667
2115.9012
2561.6954
2479.0332
2641.7606
2694.2012
2673.026
2794.0704
2778.556
2816.9526
2894.9955
2879.0049
2953.0463
2986.772
3052.9084
3080.1314
3160.8885
3178.3341
3255.6645
3267.7927
3358.1966
3316.4146
3472.3987
3500.7938
3388.9494
3013.359
3583.8458
3525.7534
3579.7089
3573.681
3568.8089
3564.0669
3543.1073
3522.8111
3490.7808
3451.6711
3407.8869
3354.4847
3296.8608
3231.8471
3165.3375
3087.7667
3017.0855
2928.8793
2856.8845
2759.2852
2686.2682
2585.7443
2510.8451
2420.353
2347.3116
2243.9859
2186.4883
2070.8803
2074.9178
1793.3591
1602.4281
1748.8587
1706.1824
1142.4594
1642.4812
1415.2537
1317.61
1092.0353
1126.674
967.15007
913.42665
1279.9745
751.48558
1066.5847
480.55594
1081.5385
553.68629
692.00006
602.47626
500.43693
728.16682
426.05769
339.31125
-52.257769
802.43716
-167.83517
1148.4753
-154.17033
397.91902
-266.27876
718.59407
-48.374051
57.389526
133.98143
1166.2485
-1205.2046
2782.5179
742.78117
744.81797
545.11677
546.95594
484.61399
584.48992
307.89746
594.4597
487.722
706.47986
374.32116
408.17063
459.00154
446.49591
-344.74382
-904.5987
-744.5456
-1803.9474
-1237.8775
-1275.3112
-2055.4306
-1542.8054
-1232.2117
-1883.2668
-1153.8335
-1236.4306
-1467.4689
-1323.9337
-1357.5048
-1552.8271
-190608.56
-190935.77
-190446.53
-190652.07
-190635.06
-190676.08
-190658.16
-190644.31
-190599.43
-190581.54
-190708.14
-190475.77
-190566.4
-190557.08
-191458.67
-386724.58
-387715.48
-387641.38
-387659
-387591.42
-387685.28
-387615.36
-387653.9
-387620.23
-387564.67
-387575.62
-387686.76
-387225.63
-388540.96
-385802.71
1598.2267
-268.06659
52.70141
61.317514
-182.35377
66.065823
-306.2132
48.218143
-355.86935
136.37735
-407.29387
137.89796
-368.16476
245.38895
-421.82638
191.85278
-132.25833
125.83206
-93.004612
188.08421
86.906623
170.91048
333.10168
246.88097
394.97568
381.00996
545.67989
493.90328
580.63817
684.38099
612.85994
747.89699
837.51032
871.81986
1020.7171
894.28268
1060.0074
993.82782
1098.7636
1135.1092
1277.2995
1233.5593
1354.6217
1420.6079
1419.1416
1533.7354
1549.721
1641.0031
1671.0131
1762.1506
1798.939
1874.3374
1923.1185
1978.4031
2031.1276
2069.0996
2114.525
2142.7009
2171.7651
2192.5144
2203.4908
2226.046
2203.4489
2223.4143
2158.5278
2118.2262
2323.2798
2119.6068
2277.8719
1967.5454
1991.0391
1855.8799
1873.3047
1768.1657
1778.9386
1606.2535
1732.0904
1418.6568
1667.0752
1306.7189
1458.6966
1339.5991
1301.4723
1167.9253
1077.2502
978.62041
923.8057
950.12625
1264.7041
376.96615
1951.5844
1279.5938
953.40899
4122.3582
1156.3978
1104.4854
-579.0697
335.50044
-290.67963
252.0487
-88.46014
141.70327
-42.73775
45.334192
-20.548053
7.3850269
35.430654
1.7296596
55.679795
-11.810765
309.48743
-138.28488
330.62549
69.035674
371.4567
117.34236
436.12257
159.3001
461.96436
294.36974
523.78833
385.9608
540.88654
527.83387
627.95296
618.56401
756.46016
682.95319
742.48783
740.06933
828.7063
920.98453
1027.5327
992.21783
1080.9849
1048.5902
1135.2965
1219.4723
1187.2697
1241.5993
1336.5481
1350.074
1428.9455
1484.8717
1548.8906
1601.6117
1668.6537
1725.4414
1777.9019
1834.757
1882.5357
1927.7941
1966.1135
2006.7315
2032.2437
2057.543
2087.2441
2078.3341
2127.383
2106.6272
2336.3765
2239.4497
2500.5167
2392.7604
2427.9979
2551.7856
2482.7184
2566.2579
2391.9325
2605.0119
2285.366
2655.8499
2156.1893
2754.7495
1966.9677
2802.8141
2004.0887
2570.4266
1788.7741
2741.0745
2175.3244
2706.485
2448.8177
2145.5794
2756.4827
2501.6147
1821.1622
3413.9255
1865.2735
1860.5461
984.14183
-494.83336
289.02066
-215.67047
51.615478
-104.16301
-129.05678
53.885378
-77.383374
94.705051
-87.272223
204.02912
-61.467561
267.44237
57.1393
251.88547
157.892
409.38974
163.44595
421.86786
327.83707
493.18716
472.89982
611.30988
565.00783
667.38343
679.56579
757.58645
762.56144
808.12565
853.78996
834.50224
923.04129
944.28731
1004.8739
1043.8209
958.66357
836.83927
971.76485
947.26939
1057.4621
1091.2918
1055.3177
1166.5092
1223.0212
1279.2095
1306.3335
1388.6279
1431.3958
1479.5843
1552.4248
1590.5821
1661.7811
1696.0616
1765.5119
1794.5447
1850.6117
1880.7181
1925.1013
1945.5178
1983.4602
2006.4387
2014.9955
2059.133
2059.1589
1974.4682
2446.8032
2054.342
2175.3355
2058.2489
2043.3212
1900.777
1905.6986
1903.1946
1872.8886
1848.6334
1844.4825
1816.6672
1797.5493
1729.4193
1887.8733
1540.2185
1831.0146
1749.8099
1728.4131
1470.3843
1666.4279
1098.0185
2008.1446
1303.6642
1467.5303
1966.4186
1367.1206
1786.6855
1580.8187
523.32586
-163.58288
169.58609
-23.0658
87.503589
-72.276643
78.449886
21.769802
-74.237199
-7.5346703
-1.038885
26.795351
-84.498524
185.63617
-151.22998
284.73707
-117.63443
300.00986
-29.36701
407.90703
22.792345
424.50739
76.397426
406.87608
159.6577
417.43277
242.15801
430.1793
306.7926
476.22057
356.53294
491.87099
456.98098
470.96853
503.97708
495.89603
521.67408
920.49369
810.47413
884.77092
869.74613
922.60435
972.86372
1005.135
1001.7971
1037.0389
1076.1633
1122.007
1149.1247
1202.2043
1243.8944
1278.6495
1331.2425
1359.2074
1408.4392
1431.8899
1476.7299
1494.5795
1529.9373
1547.0589
1570.4203
1589.6533
1591.7665
1619.3011
1604.4314
1650.8185
1581.1973
1610.1482
1748.465
1624.1393
1819.3539
1833.8766
1769.4884
1707.2182
1812.6139
1714.6792
1892.701
1668.5836
2008.9437
1672.1686
2098.2968
1573.9402
2447.4182
1412.5248
2239.9791
1637.4796
2108.5547
2158.4572
2259.5563
1716.8202
2843.546
1509.3083
2827.5809
1460.4649
2823.0117
558.15425
-303.47821
227.27089
-241.69888
64.555182
-165.66451
14.403681
-122.54265
-38.218886
34.964446
-56.672918
47.255207
25.090334
126.30157
41.500044
261.39658
77.674992
358.65216
124.54314
392.13219
182.72224
494.77348
276.87626
606.11109
391.09537
635.07696
527.052
641.85037
611.07348
670.62187
675.14913
733.85291
713.71773
777.13603
777.77415
791.85934
939.91833
678.89427
749.47861
710.54762
846.49479
801.91869
840.35339
886.86494
939.29194
987.11421
1049.6007
1075.1057
1136.299
1175.9179
1234.1008
1263.7005
1335.9931
1356.6263
1422.0051
1449.005
1502.7841
1528.4572
1575.1226
1600.4827
1636.1491
1663.3537
1681.5985
1738.2829
1712.0048
1755.7855
1855.1983
1688.8003
1809.1947
1753.2404
1884.7585
1704.7997
1899.8799
2220.1531
2061.0573
2233.3442
2045.4343
2274.4664
2110.7545
2206.7429
2167.2055
2297.7375
2076.8734
2259.4783
2355.0343
1965.286
2493.0187
1742.5381
2027.2016
1982.3557
2007.7196
1860.2468
2115.1288
1576.0207
2776.0272
283.39554
-74.374755
176.49391
-36.894446
39.03564
11.759229
-38.537331
0.09820172
-29.866656
-25.699161
-48.2387
75.30198
-79.009211
155.09407
-58.60028
209.06943
-37.323094
305.76621
20.208565
408.17185
106.22772
469.67419
165.841
483.20874
182.51912
522.46578
220.58204
520.16561
314.0534
507.61086
387.11911
462.78543
431.13163
462.86678
428.31465
521.37773
363.66275
897.00058
572.2373
707.41644
650.1254
716.42392
673.2073
758.48248
753.88631
788.21641
788.36566
832.85787
847.99545
887.2867
911.64112
947.8499
974.88229
1006.7046
1034.9088
1062.5692
1088.3811
1105.4266
1139.868
1147.1268
1159.9993
1199.6129
1188.2718
1190.8191
1236.9146
1224.4954
1215.2113
1243
1321.6255
1293.6452
1253.0667
1392.7468
1391.1158
813.11668
1035.5503
931.47455
1086.8263
972.49074
1162.2401
918.15821
1448.1166
687.03283
1676.3937
789.94356
1559.3357
1059.0188
1677.9941
1176.1954
2235.9038
1454.1736
2366.2171
1312.088
2646.464
1224.3722
3189.1274
294.82252
-215.42801
305.38116
-205.91947
104.06573
-157.67463
-18.363704
-132.75256
-66.535851
-104.71441
-43.531403
-73.230891
-29.899968
43.287547
-23.385288
153.34775
47.45938
220.02065
69.438486
319.27454
94.169985
417.03215
129.28901
469.31904
268.16739
479.06801
350.8861
516.29517
384.57164
536.88553
431.01534
557.25924
522.45524
551.01024
586.02337
566.11473
613.872
545.78837
560.21395
678.66665
664.23771
729.88871
738.27555
787.51631
815.22851
839.6685
921.09941
941.34093
1013.2454
1039.8968
1116.6197
1138.2978
1217.6027
1244.1341
1315.9339
1344.3503
1412.5515
1442.9413
1506.3513
1521.9763
1605.8753
1616.3793
1659.2618
1740.9849
1743.8048
1819.3485
1837.4134
1925.9351
1920.5288
1916.0008
2147.2211
1971.2971
2052.8241
2275.4401
2274.1563
2462.1645
2327.2127
2518.7094
2387.82
2648.0675
2396.8563
2657.7604
2711.3569
2360.6059
3091.6734
2223.7714
3081.0013
2255.3832
2825.8691
1828.8609
2495.8572
1948.672
2596.6887
1440.7403
3603.4231
155.32755
-77.454626
135.96385
-17.934487
56.738466
-23.029346
33.317924
-28.813387
45.853414
14.610462
43.892754
98.420078
75.689953
161.97976
108.11526
244.81008
141.61708
333.43784
230.54582
404.98851
229.84275
424.60774
240.26604
564.96345
219.84607
593.081
306.14393
577.33624
387.51044
577.46228
442.08173
574.73754
458.34347
551.94889
500.03339
536.94223
530.30389
576.43764
559.47126
625.33106
558.82875
609.87501
598.14496
631.90375
597.16499
651.04104
630.22038
665.65065
663.65677
701.56344
702.0853
733.60268
750.96231
764.82961
789.25179
799.29631
824.87971
826.04019
846.56021
856.16704
869.80183
857.26056
899.01647
875.10538
881.16783
889.46198
893.54357
899.71013
862.91049
988.94933
822.73526
902.81709
981.58965
794.1546
779.97266
649.12227
753.20919
689.80867
831.27882
649.82846
918.94768
701.35985
922.88146
698.80463
1098.9429
551.95046
1383.0131
579.40933
1588.7972
1022.5784
2398.4943
1065.5748
2437.5266
1121.8903
3426.2127
178.4603
-229.97904
259.43337
-181.65551
0.031812591
-228.38454
-90.819779
-285.44131
-152.96773
-299.42182
-184.30968
-257.16896
-200.29053
-184.88815
-170.6195
-114.53
-105.27628
-51.375731
-67.784661
38.502542
21.300797
267.41977
205.92975
295.79757
244.27405
401.48395
261.53197
436.99802
294.52642
450.63872
354.33523
455.38702
419.41068
502.52651
439.71087
547.14478
473.14838
560.70539
527.07021
532.11352
572.93111
581.16443
650.16567
644.12781
738.96722
740.79478
822.5817
833.79039
911.7248
930.28143
1005.6808
1033.1839
1101.6871
1135.0143
1200.6388
1235.8414
1300.0239
1323.5418
1403.2103
1418.3782
1476.9912
1522.8763
1565.3477
1598.8347
1655.5251
1721.9372
1734.2576
1787.103
1877.2001
1849.218
1945.3856
2048.6352
1974.1523
2162.6216
2304.8746
2408.8746
2446.6594
2535.6597
2442.6612
2704.8293
2472.4913
2752.5809
2631.6432
2678.0597
2938.9033
2460.5149
3290.0912
2244.4018
3340.406
2241.5718
2572.7216
1894.0011
2851.1257
1561.5374
3788.0371
342.03615
-179.06404
340.29702
-135.29573
186.87565
28.981491
195.23295
56.315632
180.14634
192.8387
200.43344
251.61504
287.99896
306.372
355.15675
370.59527
433.89987
429.17438
542.15494
509.64488
540.54399
480.18617
325.05353
503.51237
393.68271
552.17646
426.49995
619.41747
472.99116
653.90906
513.54117
649.79687
580.21815
613.55674
636.34357
630.42986
646.48169
689.11572
638.62028
746.17233
711.13459
778.46475
738.63092
810.52931
763.22046
823.89483
810.3626
857.47049
856.9604
901.61167
911.77956
937.56553
963.09329
981.17088
1001.5931
1022.5326
1034.9602
1050.2011
1075.8549
1057.2447
1101.8259
1087.5595
1091.5735
1102.8535
1113.6643
1086.9431
1082.8954
1141.135
1055.3722
1117.8747
1103.4681
1043.8277
1117.5721
1057.5094
1183.6413
1147.711
1181.7806
1087.8646
1270.09
1108.5851
1231.3725
1267.8999
1114.9373
1421.3263
1112.7187
1323.5957
1427.1508
966.43975
1946.8387
685.41704
2417.1494
1439.672
2401.8215
1515.9502
3653.3431
326.17241
-242.22404
178.37926
-399.96379
53.568941
-362.83014
-137.77904
-388.3896
-154.20732
-336.59212
-243.83442
-291.04246
-199.03416
-299.04231
-93.450913
-310.71286
44.834486
-310.33262
119.99952
-265.17604
203.30717
-306.90577
160.30343
181.02892
252.10213
230.83471
308.12537
303.66692
309.79789
368.68886
334.64411
449.14214
376.82678
528.44643
432.43923
548.81201
526.18895
560.20594
624.75931
604.23863
684.93787
653.18612
756.6792
746.26964
840.00345
849.43112
938.16199
943.83265
1027.9855
1053.008
1118.7179
1154.8262
1223.5969
1254.4897
1320.7461
1357.0756
1411.5368
1455.7717
1499.5554
1536.7746
1601.2642
1605.3247
1674.8671
1706.2932
1732.524
1782.6297
1851.7834
1839.2684
1894.8212
1963.1682
1926.1869
2077.056
2017.9092
2095.397
2391.0051
2291.8185
2231.3233
2452.3295
2272.5973
2484.1485
2432.8602
2479.1303
2572.6014
2570.8126
2591.4259
2767.5665
2674.3831
2779.3126
2997.95
2637.7788
3254.5259
2116.1516
2933.5177
2235.4951
3290.2627
489.04732
-532.05069
27.672697
-244.11024
75.723224
-106.01834
112.71552
-15.721815
112.6817
116.00772
132.1552
148.91428
304.81304
198.16834
322.89757
365.57508
371.33363
423.06052
467.23705
491.18205
470.19858
694.81899
629.78302
569.65866
625.5143
625.95581
657.41268
714.90466
732.20862
778.13409
802.67954
796.03505
850.91088
832.96161
874.53129
937.64255
895.25947
1016.841
943.76656
1066.4309
1012.7165
1132.1641
1081.5869
1183.2536
1151.3788
1220.1646
1226.5569
1270.1238
1299.3318
1333.7284
1364.6955
1397.32
1428.4546
1453.6591
1483.3174
1502.2018
1530.7467
1538.2935
1560.1224
1573.9763
1574.5963
1583.8911
1597.5988
1579.4188
1576.8833
1588.1719
1540.8142
1560.0449
1559.712
1520.1095
1543.9047
1475.0892
1491.3067
1463.8273
1337.8544
1273.9311
1288.7874
1231.3563
1258.5418
1211.6658
1174.6233
1215.4403
1083.5297
1188.6195
969.65735
1239.787
728.95429
1217.622
795.67962
704.13592
1237.6747
546.87853
2041.6166
1170.9137
3220.5087
617.33015
-359.90997
99.735934
-247.77815
-201.38482
-324.65516
-194.14847
-474.73406
-249.07212
-449.42104
-365.94429
-336.14181
-414.44144
-327.45855
-301.72037
-313.06347
-143.11283
-281.03448
18.030132
-279.1395
100.73665
-242.61422
87.5758
-247.16121
266.13161
-87.934803
266.50501
61.171647
248.18797
218.51361
276.43019
352.43087
367.02951
431.9217
461.28828
501.83851
574.98944
573.24236
685.82207
656.19094
783.13589
763.3547
870.65877
890.16767
977.54595
1010.7438
1102.9283
1131.1034
1218.8945
1258.2464
1333.5919
1378.5446
1449.6386
1493.8414
1554.717
1604.9914
1653.3772
1694.7424
1750.1788
1773.0174
1821.5034
1852.2944
1883.1297
1908.9686
1943.5148
1973.1207
1987.4277
2011.1406
2012.387
2069.2628
2010.7526
2135.3674
2038.5824
2148.7633
2123.3725
2255.752
2165.3881
2278.8584
2190.005
2266.9379
2280.0005
2271.2774
2342.6887
2323.0163
2430.4475
2389.1709
2423.4075
2775.1796
2162.9909
3149.5005
2539.5105
2691.4741
2969.2841
2192.1781
3106.1931
1010.6548
-735.56672
167.95598
-285.10658
307.54988
164.52873
257.47568
320.33922
395.60317
328.98345
452.14143
305.56648
551.59
404.33274
602.76601
485.6694
662.99016
506.13877
937.77833
603.28267
1077.2711
744.30258
1010.9109
734.82378
959.48905
788.23086
1086.2297
903.28152
1153.9702
1017.9003
1219.2616
1139.2975
1289.1684
1289.649
1348.6097
1410.8485
1382.6864
1520.8562
1467.656
1614.1635
1585.0296
1704.5862
1697.7787
1788.1793
1806.7579
1870.2456
1913.6676
1958.4021
2012.9882
2056.1049
2106.3976
2146.9013
2197.7731
2228.3075
2273.9538
2302.025
2332.0209
2358.1379
2375.7663
2391.4479
2398.9932
2408.7251
2398.2448
2405.9901
2379.9741
2401.9431
2350.3376
2377.0074
2322.8517
2257.8502
2280.2894
2177.8593
2185.5552
2125.2082
2084.8238
2018.0903
1977.9465
1948.9383
1864.8557
1903.9543
1757.8896
1811.0927
1668.1828
1721.7306
1546.8131
1590.9552
1511.6894
1391.3293
1268.7481
1651.7242
594.91649
1639.1338
921.77179
563.27706
2263.3257
2033.9339
-1716.7018
287.04593
-1122.985
-287.90183
-1157.4748
-685.70829
-903.28969
-888.35553
-825.40532
-1047.0191
-870.6335
-822.68495
-1011.9212
-542.35485
-1133.7551
-402.54271
-1148.3911
-125.09654
-964.07317
222.83303
-858.35402
217.61954
-875.56039
104.88177
-588.60646
143.84724
-223.33317
218.53599
168.83533
342.07671
379.85172
519.29073
523.05721
624.24607
659.95507
864.32296
838.13981
1029.6972
1024.7055
1173.9654
1206.2781
1326.9842
1392.4854
1500.2468
1572.2394
1683.1618
1753.1616
1860.8098
1939.3996
2029.9654
2113.5969
2199.5136
2270.3495
2352.3778
2417.8888
2485.9661
2543.1836
2605.0392
2644.4074
2701.029
2728.0587
2770.5109
2789.3192
2822.5929
2834.6488
2810.4394
2808.5955
2765.7976
2898.9611
2763.3095
2885.8099
2746.7247
2832.2463
2718.7251
2780.5412
2689.7998
2698.3036
2668.9227
2629.9765
2607.4323
2598.5762
2566.9647
2562.0613
2541.2761
2613.0493
2493.2465
2659.9855
2678.6954
2647.7971
2715.0655
3370.269
2519.7742
3731.249
4813.911
-291.6163
-160.42801
-371.11127
-568.62197
-493.29975
-563.76364
-478.09396
-525.56786
-473.74678
-320.18556
-477.59821
-435.16666
-249.25292
-256.6309
-725.83623
383.45152
182.3504
20.3143
5.8936686
-96.608324
-139.39597
-123.98123
-203.77605
-65.832128
-166.5788
-133.45509
-44.495241
-108.43506
36.545559
-216.47154
75.830785
-276.186
-326.76357
-378.99086
-452.36673
-476.35713
-456.81009
-514.07699
-479.04079
-472.33896
-393.22602
-483.43503
-423.65641
-238.8894
-400.55025
126.28108
106.61941
5.3327877
-112.08552
-114.48789
-147.60559
-141.33357
-172.9185
-112.86395
-128.46329
-90.332099
-89.032382
6.1650807
147.64703
-307.38705
46.286074
1.674896
-135.8641
-181.20247
-234.82514
-246.31902
-261.05311
-247.86103
-272.00602
-266.16581
-252.48951
-220.06174
-172.84437
-178.13715
-70.979915
228.4759
119.83908
64.814256
63.65081
24.46833
7.8491125
-10.57364
-8.1091345
-9.5908377
-4.0619975
27.260826
4.5733283
43.441161
59.96341
51.334717
116.64486
92.635692
27.788049
-15.494088
-14.682957
-45.862164
-49.169895
-76.636675
-73.813089
-62.569574
-81.360248
-37.401882
-22.560307
35.702837
6.116914
171.68755
125.39138
63.159393
70.29133
39.951641
37.790281
25.699683
17.783337
39.39893
16.347249
35.515479
33.522015
41.754361
32.422322
31.241223
49.873836
87.310178
-7.6348956
5.3998567
-26.769516
-42.145786
-45.454409
-32.230487
-53.220175
-10.783146
-39.944993
6.908786
-33.283758
49.492327
-21.153987
158.21276
124.93528
51.604769
69.8168
19.874935
28.031254
27.440669
18.576992
16.645452
-4.2768006
53.921026
-4.4746418
25.751181
86.298151
-61.243165
-191.55985
-46.919491
-186.81092
-168.82005
-217.1902
-153.40729
-208.71556
-160.79434
-211.17418
-104.52804
-140.4569
-143.089
-90.744535
-24.461603
-203.30602
-144.31699
-177.70814
-192.17873
-330.07444
-257.00094
-363.96385
-327.10061
-376.30621
-349.63648
-305.44641
-309.50026
-258.33015
-227.42106
-145.18471
-275.78631
-600.92337
1.174731
-532.33789
-366.1533
-540.72809
-449.61096
-609.15032
-502.60437
-468.67924
-443.55045
-390.20403
-451.32354
-391.24325
-127.88574
-218.25109
-271.61565
-396.20201
-596.20347
-626.96401
-728.82902
-717.91413
-635.36223
-613.60152
-628.65409
-799.92042
-751.28717
-846.00962
-859.37394
-676.23907
-1152.0924
-951.12989
-888.89266
-1272.3325
-1413.361
-1610.9921
-1492.9759
-1529.5798
-1400.5896
-1581.7557
-1567.9977
-1646.9313
-1530.8676
-1338.5754
-848.4744
-1163.4928
2216.6474
4671.1396
3028.0232
4127.1637
4714.5076
4207.8175
4712.7828
5047.9899
3951.14
4529.5535
4584.8616
4483.6655
4218.9067
4879.543
2483.9869
2426.5418
-531.23904
1321.0631
827.75194
550.83812
1672.644
1506.1065
1670.3856
2121.8763
660.74117
946.45166
28.268446
224.46948
1608.7431
902.51799
293.32781
774.87145
-255.3757
323.91841
1643.9254
-259.55148
-224.09864
-56.976676
-1326.397
681.88055
-248.44127
1577.8782
450.1623
-1045.8356
389.53412
-612.44723
619.42403
579.53533
-1158.6238
-827.05416
-353.28756
-892.15955
-321.55877
-316.51804
-1321.7072
-411.39034
-932.23557
-442.1177
686.7924
-768.71436
3030.3903
1908.7578
979.60277
2608.2821
1387.9323
1741.2682
2302.8859
1848.5226
2278.885
3000.8612
2032.6931
2528.0304
1902.9508
1513.2714
3277.7188
-165.26258
419.2304
129.58247
-182.12081
118.61014
98.510429
-422.69806
-383.76207
-475.87037
-1010.2328
-163.47683
-339.11371
-375.73192
965.48081
-113.51927
1555.7122
1867.0843
1501.6461
1786.6779
1096.0395
1569.6509
1642.2747
1578.3974
1726.045
1805.0406
1208.3726
1677.0898
1507.0766
993.69672
2697.9212
1483.046
688.9783
630.57115
815.67578
1137.9662
618.23883
740.77861
870.29438
444.806
1100.1536
1053.6192
948.76397
1369.3796
760.09568
1592.9332
1323.213
1685.6389
1611.8202
2033.5079
1278.9023
1731.7452
1568.1376
1627.9737
1699.6942
1426.108
1477.7012
1267.2174
1455.1957
1307.5721
2130.4416
1725.1356
791.28278
863.73488
760.15605
893.46414
602.54236
725.89529
712.96541
276.14521
1234.5602
391.20431
1316.805
773.03862
1070.177
1616.537
1389.9824
1650.1662
1554.3218
1926.9763
1658.9666
2065.3144
1874.3871
1901.7422
2295.7317
1545.3382
2428.3088
1715.8144
2069.0192
1926.3341
2494.0381
1778.2055
950.44445
1191.4168
1126.5238
1042.6737
940.43575
822.16444
740.1912
327.16061
812.83458
287.6168
636.5196
568.76166
469.62285
1397.5419
1503.8465
1614.5884
1243.5568
1752.2478
1509.9022
1758.3915
1804.1311
1716.3086
2112.9641
1868.817
2190.332
1892.9167
2044.0946
2141.2368
2214.6319
1621.396
1423.9176
1495.6871
1205.9731
1243.4507
1442.2592
1020.5774
1016.7676
424.74335
526.66943
137.38004
424.37376
245.6813
124.6914
1238.8607
1836.6447
1306.3673
1357.931
1838.2118
1853.5715
1505.427
1645.7335
1680.4896
2147.521
2096.9163
2618.6208
2326.0293
2560.4624
2754.7412
2687.8707
1522.3377
1670.9263
1659.2155
1798.9789
944.56536
1874.6662
1278.6657
1290.4176
572.86447
727.99497
55.3278
357.52546
-70.838568
33.062226
1111.9561
1877.4898
1275.3803
1481.1479
1479.9544
2096.5113
1582.8672
1697.724
1424.5837
2128.3713
1924.4551
2581.1425
2290.1468
2769.248
2289.4087
3190.142
1598.2006
1670.1191
1378.7338
1535.5011
1158.3465
1710.268
1353.146
1600.815
993.76347
1213.0584
572.55759
586.25198
432.44849
366.61096
1013.5564
2122.9685
1575.707
1955.6942
1717.7772
1830.4615
1384.8392
1932.7162
1472.3158
1912.854
1678.6815
2002.1991
2063.4915
2397.7585
2495.1305
3227.2978
1445.6567
1468.5397
1283.0786
1737.082
1356.3782
2071.3283
1274.486
1645.7984
1394.9285
1506.1476
1281.3441
1432.2456
1116.4846
884.64528
1432.5625
2415.8949
1506.7625
2019.9386
1525.4099
1864.8186
1360.2908
2029.4937
1582.4712
1873.2602
1425.3345
1720.0409
1630.2235
2360.3248
2250.7152
3020.445
1505.9611
1787.7908
1452.9383
2016.0551
1421.3485
2280.1524
1367.8264
1984.4909
1311.907
2137.2793
1582.917
1959.9995
1419.2284
986.45823
2291.8737
2554.8558
1334.5965
2020.0006
1468.3964
1943.8677
1505.9526
1952.2661
1542.9388
2193.9744
1476.0101
1679.3592
1459.4012
1677.5379
1825.8512
2192.1721
1685.1444
2008.7369
1575.3848
2131.8226
1599.8871
1745.2927
1448.6049
1678.7051
1539.0301
1721.3274
1771.5601
1965.7287
2018.3286
1728.7627
2587.0563
2671.3518
1487.8339
1729.0963
1575.6418
2049.6315
1689.863
2225.1736
1786.2104
1985.5677
1755.7462
1779.8178
1835.031
1634.2855
1672.7523
2238.8748
1617.7273
1955.9269
1733.7821
2192.6931
1628.6939
2152.4933
1547.6026
1919.6971
1647.8961
1815.825
1746.339
1783.074
2328.1616
2147.632
2553.8069
2318.4047
1931.7043
2210.3396
1866.0124
2238.9965
1859.008
2179.6974
1986.8019
2046.4447
1986.2178
2067.8774
1647.1124
1875.9031
1570.0158
2522.487
1859.3765
1927.0499
1468.9845
2312.7566
1701.6546
1828.5237
1802.1699
1773.0653
1959.3405
1792.8144
2027.9138
2088.821
2016.6435
2211.108
2462.068
2194.1585
2096.8015
2174.9725
1816.8288
2055.9564
1997.7769
2087.2628
1975.2037
2014.7423
1968.6984
2022.5488
2057.3679
2123.3166
1652.8621
2728.0025
2079.4542
1873.0931
1884.8177
2068.0679
1940.2511
1871.2295
1956.3505
1884.6632
1987.608
1764.1151
1891.6106
1777.4086
2089.3366
2131.9659
2488.3443
2406.2433
2245.8485
2403.0545
2243.9277
2232.4644
2034.1278
2138.5103
1966.6118
2211.5171
2189.9044
2164.0381
2104.8033
2114.7849
1891.0956
2527.7159
2403.6299
2321.1918
2110.5052
2233.5214
2170.2569
2195.8931
2126.8496
2160.9621
2069.4321
2043.7738
1992.7243
2088.8244
2103.0406
2072.0741
2725.0402
2537.1245
2181.1503
2339.7775
2284.4798
2373.3452
2170.6881
2341.642
2119.869
2293.8613
2139.1685
2297.5925
2173.3763
2224.3712
2150.0571
2674.7991
2510.6851
2382.2273
2344.6133
2403.9572
2255.7734
2303.7161
2215.6085
2281.1576
2175.7056
2244.0818
2135.0701
2221.5942
2193.4767
2170.6433
2637.609
2669.3698
2309.1011
2485.4216
2315.9383
2412.7191
2322.5194
2400.7414
2330.4388
2377.3008
2317.8865
2389.1028
2382.0983
2416.8234
2461.0366
2810.3774
2336.6618
2492.519
2300.2852
2270.1086
2220.3748
2256.9709
2283.6623
2225.7815
2380.0105
2175.1506
2304.5621
2180.3501
2375.4347
2042.6851
2980.2893
2594.7518
2151.7715
2435.9566
2282.9826
2501.0824
2204.8421
2451.0607
2195.0339
2352.719
2473.4359
2311.9413
2425.1838
2225.0472
2408.3017
2730.2615
2613.541
2733.2297
2577.6827
2699.8509
2443.2538
2581.2425
2413.9984
2490.1184
2451.2326
2316.865
2437.6963
2287.3344
2525.0662
2262.6706
2826.6101
2926.0584
2495.584
2636.2911
2481.4082
2677.1594
2424.8097
2617.8254
2450.5284
2498.7074
2483.6999
2445.2425
2560.095
2465.846
2373.0282
2994.5275
2745.4883
2676.0752
2590.0688
2739.6662
2561.0434
2611.5847
2566.9482
2501.9377
2583.8226
2430.4381
2554.3544
2443.6095
2485.1031
2451.6397
2941.4706
2952.7828
2653.2591
2783.7837
2637.7595
2746.5708
2584.065
2669.0984
2599.2717
2600.556
2584.0749
2576.0436
2554.9871
2624.7209
2470.2032
3003.8251
2896.634
2780.2926
2706.1607
2797.0543
2728.382
2674.2574
2727.5997
2597.217
2689.22
2575.653
2602.9198
2626.8001
2600.067
2525.2643
3069.4767
3057.4623
2753.4224
2886.1142
2793.2512
2831.3882
2723.5875
2772.7824
2700.4088
2741.0573
2648.5702
2722.5951
2653.4461
2698.0801
2595.7852
3117.9495
3016.9754
2877.0324
2866.4429
2872.1619
2854.7726
2757.1037
2832.6093
2729.1373
2766.9954
2722.1905
2705.6016
2722.3595
2728.7954
2628.4839
3166.8534
3160.4713
2878.286
2986.0959
2930.5874
2936.2473
2832.5148
2914.552
2794.6343
2879.523
2760.8635
2817.689
2788.1006
2798.2788
2702.3712
3231.7976
3154.3974
2961.4215
3014.8081
2981.0544
2964.3391
2875.8516
2936.706
2861.4541
2876.3791
2838.1852
2836.1483
2834.4242
2842.7939
2748.115
3285.2317
3250.1573
2995.4497
3092.1057
3040.6904
3059.9269
2936.868
3049.8783
2907.3544
2990.4052
2899.7185
2914.4949
2911.5718
2905.7561
2810.0415
3337.0355
3285.2443
3056.6992
3138.944
3110.1688
3073.3882
2980.3107
3040.0029
2960.7059
2995.0669
2939.6241
2945.7012
2955.9099
2945.0381
2866.5839
3398.0953
3341.7615
3093.8528
3206.7
3138.3477
3163.842
3034.1009
3164.8432
3034.1984
3094.6505
3024.1754
3029.9151
3027.9432
3011.7954
2929.098
3445.6597
3392.8649
3159.333
3242.2293
3223.9595
3197.5448
3087.8583
3161.5672
3052.6838
3099.1529
3047.8221
3049.0304
3062.8591
3051.925
2976.1637
3501.143
3443.8804
3182.128
3315.1463
3244.2186
3261.5416
3128.7618
3259.2707
3141.6995
3201.1146
3134.5684