/*--------------------------------*- C++ -*----------------------------------*\
  =========                 |
  \\      /  F ield         | OpenFOAM: The Open Source CFD Toolbox
   \\    /   O peration     | Website:  https://openfoam.org
    \\  /    A nd           | Version:  6
     \\/     M anipulation  |
\*---------------------------------------------------------------------------*/
FoamFile
{
    version     2.0;
    format      ascii;
    class       pointVectorField;
    location    "0.67";
    object      lm;
}
// * * * * * * * * * * * * * * * * * * * * * * * * * * * * * * * * * * * * * //

dimensions      [1 -2 -1 0 0 0 0];

internalField   nonuniform List<vector> 
28033
(
(0 0 0)
(0 0 0)
(3886.5814 -1418.2139 -3.6562747)
(3316.1208 -2475.1018 1.2353957)
(0 0 0)
(0 0 0)
(3317.9376 -2457.0123 3.6235789)
(3893.7946 -1398.4896 -7.4649248)
(0 0 0)
(0 0 0)
(0 0 0)
(0 0 0)
(0 0 0)
(0 0 0)
(0 0 0)
(0 0 0)
(0 0 0)
(0 0 0)
(0 0 0)
(0 0 0)
(0 0 0)
(0 0 0)
(0 0 0)
(3770.0305 -1451.7944 -3.6904555)
(3629.848 -1472.6838 -3.8744486)
(3518.5003 -1501.4457 -3.7444656)
(3446.2269 -1544.3686 -3.588738)
(3417.4256 -1605.9137 -3.1938362)
(3429.6112 -1687.8672 -2.7044818)
(3474.1861 -1788.545 -2.1590912)
(3537.8193 -1903.2944 -1.4786109)
(3604.4871 -2024.6195 -0.76781848)
(3658.0613 -2143.6386 -0.034093181)
(3684.9155 -2251.2899 0.60890022)
(3675.4662 -2339.7013 1.0527095)
(3626.2206 -2403.8421 1.4316128)
(3539.4824 -2442.2497 1.5023398)
(3427.1077 -2460.2244 1.3940577)
(7.5464822 12.258812 16.589915)
(8.3784137 21.91081 23.41145)
(11.257949 31.270304 28.626267)
(16.703511 40.707642 31.315082)
(24.559474 50.180341 32.33169)
(35.519469 58.883281 31.558688)
(48.97211 67.068607 29.716557)
(65.097026 73.832082 26.331099)
(83.3318 79.814678 22.277285)
(103.55276 84.047514 17.335673)
(124.97733 87.132428 12.006194)
(147.46184 88.641973 6.3311891)
(170.37789 88.967559 0.96505997)
(193.56626 87.904538 -4.4087089)
(216.12979 85.864129 -8.9604504)
(238.20266 82.929961 -12.995254)
(259.34728 79.416059 -15.962803)
(279.52333 75.372434 -18.118674)
(298.59209 71.321006 -19.101393)
(316.61993 67.227209 -19.090246)
(333.69193 63.374972 -18.035579)
(350.23623 60.046808 -16.064679)
(366.16014 57.050629 -13.167396)
(382.18041 54.852078 -9.6773613)
(398.3422 53.206564 -5.4205703)
(415.14862 52.123847 -0.8503501)
(432.97847 51.605266 4.0935824)
(452.17354 51.609337 9.1370061)
(473.02136 51.806363 14.33726)
(495.88425 52.135063 19.34994)
(521.17082 52.471367 24.197896)
(548.82501 52.409356 28.791444)
(579.12707 51.735066 33.017018)
(612.27648 50.274797 36.838072)
(648.31661 47.818917 40.065328)
(687.1877 43.981389 42.820554)
(728.91754 38.596866 44.924778)
(773.46705 31.443422 46.328433)
(820.54521 22.301149 47.078558)
(870.11432 11.070042 47.09714)
(921.85361 -2.4104103 46.38096)
(975.46767 -18.111265 45.000055)
(1030.6532 -36.119924 42.971324)
(1087.0084 -56.321495 40.350059)
(1144.1504 -78.555136 37.298254)
(1201.6807 -102.64267 33.892124)
(1259.2016 -128.30898 30.313986)
(1316.3404 -155.26092 26.709239)
(1372.7611 -183.13571 23.254924)
(1428.189 -211.58619 20.109467)
(1482.4071 -240.22515 17.419092)
(1535.2861 -268.71687 15.308806)
(1586.7722 -296.71965 13.866489)
(1636.8939 -323.97133 13.146296)
(1685.7616 -350.23743 13.163319)
(1733.5416 -375.37134 13.896863)
(1780.4641 -399.27152 15.284992)
(1826.7831 -421.92399 17.258333)
(1872.7758 -443.35517 19.709241)
(1918.7146 -463.64512 22.538365)
(1964.8652 -482.92831 25.637661)
(2011.4414 -501.34741 28.93227)
(2058.6567 -519.05716 32.299784)
(2106.6478 -536.26603 35.721346)
(2155.5401 -553.08549 39.158615)
(2205.4354 -569.72929 42.438402)
(2256.3155 -586.39614 45.699757)
(2308.3488 -603.14006 48.811495)
(2361.4291 -620.25593 51.77441)
(2415.699 -637.81037 54.375651)
(2471.0974 -655.9889 56.701051)
(2527.6074 -674.98451 58.663748)
(2585.2321 -694.9336 60.092626)
(2643.9588 -715.97328 60.944426)
(2703.6889 -738.26884 61.14036)
(2764.3206 -761.87687 60.594172)
(2825.7427 -786.95522 59.324596)
(2887.6737 -813.42095 57.269355)
(2950.0095 -841.3969 54.548601)
(3012.3247 -870.69334 51.146922)
(3074.4446 -901.31993 47.280489)
(3135.9691 -933.06367 42.959192)
(3196.6229 -965.79227 38.431028)
(3256.0809 -999.2313 33.764052)
(3314.1663 -1033.192 29.183981)
(3370.5697 -1067.6369 24.735195)
(3425.1052 -1102.0276 20.578463)
(3477.8263 -1136.6232 16.705176)
(3528.4521 -1170.7869 13.250147)
(3577.2786 -1204.9058 10.049869)
(3624.0555 -1238.3858 7.2994395)
(3669.2169 -1271.643 4.7374007)
(3712.5639 -1304.2583 2.4857933)
(3754.4886 -1336.4023 0.36450211)
(3796.3405 -1368.3276 -1.6025767)
(3.8213363 -26.982386 -28.909252)
(3.9283898 -34.829342 -37.251386)
(4.9271149 -47.205684 -48.957803)
(4.750569 -56.36383 -53.675657)
(9.7468541 -67.975299 -57.894274)
(16.802836 -80.37331 -59.230395)
(27.088515 -91.758282 -58.931264)
(40.169888 -104.04705 -57.052136)
(55.774873 -115.63031 -54.165282)
(73.212472 -126.85291 -50.160131)
(92.370659 -137.68096 -45.684605)
(112.32926 -147.59374 -40.824598)
(132.96814 -157.09263 -35.748182)
(153.49337 -165.71353 -31.084662)
(173.69858 -173.56996 -26.503714)
(193.00392 -180.94217 -22.711274)
(211.34116 -187.40059 -19.505205)
(228.24411 -193.78224 -17.098277)
(243.72516 -199.55277 -15.623444)
(257.96965 -205.36427 -14.961163)
(270.54837 -211.13807 -15.146273)
(282.15658 -217.23683 -16.1452)
(292.57593 -223.63518 -17.814326)
(302.31272 -230.84708 -20.039223)
(311.54267 -238.66496 -22.733002)
(320.82207 -247.77103 -25.639007)
(330.20175 -257.84052 -28.790537)
(340.37345 -269.37407 -31.79588)
(351.37326 -282.27852 -34.767843)
(363.83218 -296.76104 -37.269319)
(377.84139 -312.88449 -39.439039)
(393.85434 -330.64199 -40.961983)
(412.02623 -350.14565 -41.845619)
(432.63681 -371.33833 -41.925879)
(455.92933 -394.24985 -41.181149)
(481.94951 -418.79249 -39.488138)
(510.87551 -444.79876 -36.90163)
(542.70193 -472.36423 -33.435086)
(577.4269 -501.07935 -29.070619)
(614.97587 -530.96306 -23.932968)
(655.19942 -561.70614 -18.113346)
(697.88489 -593.09871 -11.770492)
(742.77189 -624.89784 -5.0682851)
(789.53792 -656.83954 1.7865788)
(837.81183 -688.67349 8.5835725)
(887.20148 -720.16268 15.098468)
(937.27798 -751.08954 21.105704)
(987.63137 -781.28325 26.402293)
(1037.8488 -810.61359 30.798088)
(1087.5686 -839.0084 34.148608)
(1136.4699 -866.4614 36.346036)
(1184.3057 -893.02224 37.338351)
(1230.9012 -918.80735 37.124541)
(1276.1673 -943.98725 35.76004)
(1320.0929 -968.77346 33.345927)
(1362.7469 -993.41487 30.028317)
(1404.2589 -1018.1743 25.978523)
(1444.8128 -1043.3175 21.387936)
(1484.6227 -1069.0976 16.447609)
(1523.9215 -1095.7467 11.341603)
(1562.9441 -1123.4562 6.2298298)
(1601.9084 -1152.3849 1.2462658)
(1641.0182 -1182.6485 -3.5060324)
(1680.4469 -1214.3211 -7.9604289)
(1720.3499 -1247.4436 -12.065531)
(1760.842 -1282.0216 -15.819749)
(1802.0414 -1318.0668 -19.172966)
(1844.073 -1355.4912 -22.191444)
(1886.9144 -1394.3519 -24.813515)
(1930.8566 -1434.4177 -26.97992)
(1975.913 -1476.002 -28.763459)
(2022.0554 -1518.4902 -30.115152)
(2069.5293 -1562.2515 -30.946011)
(2118.3522 -1606.9357 -31.25206)
(2168.5452 -1652.4796 -31.013783)
(2220.1687 -1698.6775 -30.2088)
(2273.1751 -1745.3578 -28.844)
(2327.4908 -1792.2652 -26.982528)
(2382.9965 -1839.1661 -24.653477)
(2439.5172 -1885.7831 -21.98379)
(2496.8296 -1931.847 -19.061087)
(2554.6938 -1977.0983 -16.017114)
(2612.8359 -2021.3024 -12.973265)
(2670.9745 -2064.2486 -10.04401)
(2728.8533 -2105.7775 -7.3358997)
(2786.199 -2145.769 -4.9258474)
(2842.8224 -2184.1505 -2.8662395)
(2898.5016 -2220.8939 -1.195022)
(2953.1247 -2256.0126 0.10540533)
(3006.5465 -2289.5362 1.0211753)
(3058.7247 -2321.5315 1.61495)
(3109.5559 -2352.0782 1.9054728)
(3159.053 -2381.2512 1.9559637)
(3207.1539 -2409.2091 1.8046816)
(3259.539 -2440.3276 1.5483641)
(0 0 0)
(0 0 0)
(0 0 0)
(0 0 0)
(0 0 0)
(0 0 0)
(0 0 0)
(0 0 0)
(0 0 0)
(0 0 0)
(0 0 0)
(0 0 0)
(0 0 0)
(0 0 0)
(0 0 0)
(12.328393 -10.356183 20.390057)
(6.7887606 -38.812162 36.261589)
(3.6018435 -40.361574 44.505597)
(6.0051328 -55.621541 52.662385)
(8.5417872 -64.519079 55.360818)
(18.104568 -77.169887 55.419507)
(28.146116 -87.268042 53.829247)
(42.467529 -100.26282 50.309385)
(58.609716 -110.46811 45.458606)
(76.53787 -122.70236 39.463752)
(96.007901 -133.90185 33.48184)
(116.32401 -143.49331 26.898987)
(136.33185 -155.00955 20.718946)
(156.91161 -163.00289 14.858262)
(175.75834 -173.61421 9.9654255)
(193.92308 -180.50508 5.9859006)
(211.76456 -189.64155 3.2916508)
(226.26683 -195.76374 1.1534309)
(241.15316 -204.14398 1.0049164)
(252.98215 -209.98886 1.3984168)
(264.13764 -217.56117 3.2291936)
(274.59473 -224.94099 5.8567768)
(283.60914 -232.19177 9.2860669)
(292.20126 -240.55611 13.25555)
(300.52702 -249.60454 17.712693)
(309.05495 -259.71566 22.380982)
(317.77786 -270.98862 27.101952)
(327.99548 -283.62208 31.961438)
(338.38046 -297.32899 36.391721)
(351.14122 -313.09838 40.850917)
(365.21379 -330.09951 44.759249)
(381.39849 -348.75968 48.319552)
(399.82367 -368.98264 51.336885)
(420.68984 -390.73003 53.828749)
(445.04634 -414.4043 55.785966)
(469.86921 -437.66742 56.796229)
(499.57792 -464.34723 57.515985)
(531.69137 -491.10476 57.350952)
(566.63134 -518.95029 56.481133)
(604.43178 -547.57679 54.903576)
(644.93217 -576.75232 52.662357)
(687.95526 -606.28815 49.802245)
(733.24712 -635.97308 46.418901)
(780.48654 -665.58214 42.62973)
(829.30677 -694.9201 38.580362)
(879.30265 -723.79705 34.434391)
(930.03696 -752.05841 30.372858)
(981.07374 -779.58867 26.577137)
(1031.9853 -806.31636 23.223573)
(1082.3839 -832.2271 20.464038)
(1131.9306 -857.36252 18.427382)
(1180.3634 -881.82031 17.192338)
(1227.4935 -905.75497 16.80808)
(1273.2273 -929.35827 17.260128)
(1317.5494 -952.87026 18.509079)
(1360.5329 -976.53367 20.459328)
(1402.309 -1000.6182 23.005666)
(1443.0714 -1025.3687 26.008115)
(1483.0392 -1051.0213 29.337437)
(1522.4557 -1077.7758 32.857375)
(1561.5604 -1105.7933 36.455406)
(1600.5826 -1135.1965 40.035532)
(1639.729 -1166.0604 43.5241)
(1679.1852 -1198.4264 46.876777)
(1719.0971 -1232.2912 50.056533)
(1759.6214 -1267.6348 53.052899)
(1800.7985 -1304.443 55.832049)
(1844.0026 -1343.2518 58.355088)
(1885.1875 -1381.4295 60.705487)
(1929.863 -1422.791 62.657214)
(1974.8226 -1464.3709 64.447793)
(2021.1272 -1507.1821 65.618598)
(2068.7077 -1550.9649 66.391462)
(2117.6283 -1595.5103 66.593784)
(2167.9757 -1640.7397 66.143233)
(2219.7538 -1686.4937 65.024838)
(2272.919 -1732.5786 63.212886)
(2327.4031 -1778.7914 60.716383)
(2383.0665 -1824.9186 57.589287)
(2439.7274 -1870.7204 53.92175)
(2497.1484 -1915.9583 49.820953)
(2555.0742 -1960.4062 45.431492)
(2613.2107 -2003.8416 40.896893)
(2671.2729 -2046.0787 36.36446)
(2728.9767 -2086.9564 31.969829)
(2786.0679 -2126.3602 27.821084)
(2842.3272 -2164.2045 24.001638)
(2897.569 -2200.4651 20.558055)
(2951.6764 -2235.1233 17.500596)
(3004.5349 -2268.234 14.820659)
(3056.1156 -2299.824 12.470504)
(3106.3606 -2330.0096 10.402391)
(3155.2874 -2358.83 8.5553357)
(3202.8452 -2386.5073 6.8458276)
(3242.4201 -2408.0803 5.2634454)
(3434.237 -2445.7367 2.5689549)
(3553.9273 -2432.2565 1.5227552)
(3630.0015 -2386.2413 0.55243043)
(3675.7162 -2319.7441 -0.18849627)
(3683.3533 -2230.2855 -0.85033986)
(3651.1906 -2119.8287 -1.3280549)
(3599.9618 -2002.5331 -1.7302849)
(3544.1944 -1887.2939 -2.042886)
(3467.6028 -1766.0029 -2.4364568)
(3420.3043 -1664.2071 -2.6953734)
(3420.8573 -1588.2812 -3.1722443)
(3454.3609 -1528.3806 -3.6167478)
(3529.1597 -1485.9514 -4.4047525)
(3647.4933 -1458.8017 -5.2354053)
(3802.5065 -1442.428 -6.4561029)
(3811.0246 -1351.4708 -7.1418193)
(3777.7241 -1322.3033 -6.8927169)
(3735.0026 -1289.9123 -6.7965026)
(3690.756 -1257.0798 -6.7813122)
(3644.7686 -1223.7795 -7.0725042)
(3597.0647 -1190.1234 -7.5720733)
(3547.469 -1156.1597 -8.3463714)
(3495.9965 -1121.9689 -9.4437488)
(3442.5925 -1087.7157 -10.79606)
(3387.3343 -1053.4954 -12.483607)
(3330.267 -1019.5315 -14.394605)
(3271.5647 -985.94801 -16.547661)
(3211.3768 -952.9818 -18.853867)
(3149.9492 -920.77937 -21.288253)
(3087.5269 -889.53903 -23.725488)
(3024.4512 -859.38342 -26.108037)
(2960.9788 -830.45058 -28.318147)
(2897.3978 -802.78492 -30.332336)
(2833.9988 -776.44139 -32.068432)
(2771.0119 -751.38541 -33.497267)
(2708.6731 -727.58914 -34.589673)
(2647.1335 -704.93936 -35.33716)
(2586.5703 -683.36136 -35.724668)
(2527.055 -662.69196 -35.784895)
(2468.6852 -642.82516 -35.456369)
(2411.5672 -623.5941 -34.837783)
(2356.5239 -604.93521 -33.806094)
(2300.7964 -586.96162 -32.049529)
(2247.9074 -568.63599 -30.260251)
(2195.8846 -550.95462 -27.826028)
(2145.2276 -533.23263 -24.883353)
(2095.8466 -515.47974 -21.349039)
(2047.6471 -497.61558 -17.270905)
(2000.529 -479.49253 -12.642217)
(1954.3221 -461.01014 -7.5347533)
(1908.8279 -442.0481 -2.0411543)
(1863.7886 -422.4931 3.7086629)
(1818.9192 -402.24935 9.5420278)
(1773.9044 -381.23509 15.269849)
(1728.422 -359.40526 20.683302)
(1682.1565 -336.75134 25.569857)
(1634.8254 -313.31233 29.73145)
(1586.1908 -289.17598 32.9902)
(1536.085 -264.4839 35.207509)
(1484.4163 -239.42211 36.285521)
(1431.1853 -214.22147 36.181002)
(1376.4805 -189.14117 34.898423)
(1320.4835 -164.46498 32.501938)
(1263.459 -140.47412 29.085485)
(1205.7244 -117.45851 24.814183)
(1147.6956 -95.659012 19.829814)
(1089.7433 -75.335216 14.374665)
(1032.3526 -56.624456 8.5864474)
(975.94271 -39.727546 2.7408608)
(920.93298 -24.720751 -3.0022961)
(867.72237 -11.549723 -8.498997)
(816.58797 -0.27241182 -13.555266)
(770.01795 9.1656668 -18.063452)
(721.48125 16.496203 -21.837245)
(678.63952 22.986871 -25.11088)
(639.87411 27.765536 -27.469193)
(600.70919 30.843805 -29.100657)
(566.76484 33.717594 -29.928794)
(535.2778 35.362469 -30.24857)
(507.41593 36.801204 -29.803669)
(480.30452 37.298285 -28.866846)
(457.40062 38.664197 -27.411575)
(435.06225 39.143269 -25.681703)
(415.44453 40.633019 -23.709753)
(397.12298 42.300531 -21.668261)
(379.9147 44.501756 -19.626084)
(363.60983 47.71124 -17.729948)
(347.53678 50.824115 -15.970938)
(331.66632 55.29222 -14.725222)
(315.49588 60.036193 -13.756644)
(299.0334 65.050479 -13.229911)
(281.64669 70.529925 -13.283544)
(263.85918 75.886577 -13.7023)
(244.65958 81.031729 -14.752787)
(225.18771 85.645642 -16.006645)
(205.16942 89.715905 -17.83757)
(184.07493 92.484146 -19.737063)
(162.67557 93.99437 -21.982735)
(142.15177 94.302666 -24.14208)
(121.42106 93.168687 -26.506587)
(101.41152 89.571443 -28.266802)
(83.356459 85.572148 -30.222208)
(66.283302 79.08507 -31.390323)
(51.31583 71.792924 -32.311282)
(38.394381 62.835694 -32.246642)
(28.156379 53.365777 -31.564846)
(20.239245 42.900998 -29.797691)
(15.160469 32.76567 -26.780617)
(11.227721 22.645607 -21.803852)
(12.604738 12.13785 -13.038805)
(0 0 0)
(0 0 0)
(0 0 0)
(0 0 0)
(0 0 0)
(0 0 0)
(0 0 0)
(0 0 0)
(0 0 0)
(0 0 0)
(0 0 0)
(0 0 0)
(0 0 0)
(0 0 0)
(0 0 0)
(0 0 0)
(0 0 0)
(0 0 0)
(0 0 0)
(0 0 0)
(0 0 0)
(0 0 0)
(0 0 0)
(0 0 0)
(0 0 0)
(0 0 0)
(0 0 0)
(0 0 0)
(0 0 0)
(0 0 0)
(3316.0987 -2474.9399 1.1635085)
(3316.2095 -2474.8513 0.99455363)
(3316.5032 -2474.8164 0.92437679)
(3316.829 -2474.6787 0.89495117)
(3317.2144 -2474.4018 1.0236875)
(3317.563 -2473.9204 1.2294475)
(3317.8645 -2473.1539 1.5590001)
(3318.0709 -2472.1166 1.9133719)
(3318.184 -2470.7592 2.3369451)
(3318.207 -2469.1602 2.7170466)
(3318.1348 -2467.3032 3.0855146)
(3318.0277 -2465.3058 3.3481634)
(3317.9188 -2463.1778 3.5672227)
(3317.7886 -2461.0946 3.6115728)
(3317.7862 -2458.9981 3.6991265)
(3887.8238 -1416.783 -3.6917548)
(3889.1206 -1415.1699 -3.7576772)
(3890.5292 -1413.6379 -3.843766)
(3891.9281 -1412.1557 -4.0437406)
(3893.3347 -1410.715 -4.3435948)
(3894.6051 -1409.3223 -4.7304972)
(3895.6807 -1407.9737 -5.1755462)
(3896.4986 -1406.6592 -5.6455076)
(3897.0227 -1405.3959 -6.1114592)
(3897.2355 -1404.1858 -6.5301768)
(3897.1421 -1403.0401 -6.8856617)
(3896.7756 -1401.9838 -7.1383546)
(3896.1957 -1401.0162 -7.3118215)
(3895.4227 -1400.1486 -7.3556086)
(3894.6356 -1399.4162 -7.4284275)
(3.8604561 10.071445 15.623778)
(4.4243434 18.59639 19.440647)
(6.9388241 26.380914 23.658492)
(11.590951 33.966522 25.666902)
(18.613018 41.153704 26.619859)
(28.49808 47.931707 26.280717)
(40.72974 53.888861 24.714996)
(55.841291 59.423463 22.138893)
(72.677089 63.654958 18.867002)
(91.771381 67.304545 14.860429)
(112.24239 69.539209 10.256023)
(134.01436 71.13254 5.7332933)
(156.4423 71.281311 0.77658486)
(179.24153 70.926779 -3.7142877)
(201.93202 69.366045 -8.0565234)
(224.36224 67.446475 -11.611733)
(246.13635 64.66171 -14.749482)
(266.95747 61.80083 -16.832683)
(286.94961 58.497821 -18.244541)
(305.88669 55.334413 -18.571871)
(323.95086 52.145615 -18.089858)
(341.2449 49.257194 -16.654859)
(357.97013 46.690398 -14.492357)
(374.4088 44.472743 -11.526744)
(390.94513 42.724449 -8.020849)
(407.85333 41.303683 -3.9784629)
(425.60333 40.310238 0.3879483)
(444.49607 39.44147 5.0384614)
(464.9846 38.780003 9.7606765)
(487.32616 38.002089 14.496367)
(511.89099 36.948046 19.15071)
(538.93766 35.445629 23.534004)
(568.71193 33.211363 27.695058)
(601.3476 30.095449 31.454953)
(636.99346 25.669547 34.835485)
(675.74599 19.811224 37.643341)
(717.5342 12.278841 39.925637)
(762.29393 2.809927 41.637716)
(809.99862 -8.6956548 42.632339)
(860.37478 -22.402328 43.02062)
(913.19852 -38.397503 42.725266)
(968.09794 -56.626329 41.779876)
(1024.8861 -77.122312 40.188218)
(1082.9273 -99.66305 38.114462)
(1141.9384 -124.07918 35.567048)
(1201.3685 -150.11314 32.722977)
(1260.795 -177.45017 29.694251)
(1319.7548 -205.73301 26.650946)
(1377.8478 -234.59191 23.735679)
(1434.7248 -263.65197 21.098881)
(1490.117 -292.55172 18.868728)
(1543.8404 -320.97479 17.149609)
(1595.8146 -348.63853 16.009083)
(1646.046 -375.33881 15.489369)
(1694.6414 -400.91931 15.590156)
(1741.7784 -425.3061 16.280571)
(1787.7058 -448.47726 17.509429)
(1832.6999 -470.4796 19.204022)
(1877.0745 -491.38967 21.273392)
(1921.1292 -511.33414 23.638046)
(1965.1535 -530.46071 26.2216)
(2009.3936 -548.91827 28.933515)
(2054.076 -566.86887 31.723551)
(2099.3583 -584.49983 34.554542)
(2145.3685 -601.91944 37.328963)
(2192.2652 -619.3762 40.0459)
(2239.8127 -636.93384 42.774045)
(2288.4822 -654.79495 45.21421)
(2338.1026 -673.12639 47.587661)
(2388.7632 -692.04585 49.545137)
(2440.3486 -711.70258 51.29162)
(2492.9132 -732.26957 52.587259)
(2546.4577 -753.82752 53.445899)
(2600.9471 -776.50255 53.767866)
(2656.3007 -800.3774 53.530052)
(2712.4475 -825.45791 52.676502)
(2769.2411 -851.78826 51.237013)
(2826.5016 -879.24461 49.187287)
(2884.0509 -907.86751 46.642888)
(2941.5906 -937.38769 43.589497)
(2998.9297 -967.80302 40.212643)
(3055.7511 -998.86488 36.531987)
(3111.6808 -1030.3676 32.713949)
(3166.4183 -1062.0957 28.869627)
(3220.5911 -1094.2765 25.072843)
(3272.9877 -1126.254 21.426942)
(3323.783 -1158.1067 17.960311)
(3373.0483 -1189.7643 14.755787)
(3420.5529 -1221.067 11.790411)
(3466.6158 -1252.0654 9.0751306)
(3511.0086 -1282.6798 6.6374536)
(3554.1058 -1312.9004 4.3343462)
(3595.8027 -1342.7505 2.2499234)
(3636.4288 -1372.2228 0.2374556)
(3684.1837 -1404.4829 -1.7253001)
(-0.35398673 7.6365939 13.595673)
(0.54196864 13.858093 16.068336)
(3.2316394 20.88497 19.01623)
(7.283506 26.763017 20.861749)
(13.690298 32.845592 21.581362)
(22.744283 37.917934 21.193099)
(34.359166 43.035781 20.012119)
(48.095899 46.97493 17.980474)
(64.307953 50.639518 15.463052)
(82.518325 53.149797 11.877317)
(102.26833 55.166026 8.5300061)
(123.48244 56.071024 4.2079525)
(145.56693 56.437622 0.36139516)
(168.37002 55.842251 -3.8453669)
(191.24678 54.697561 -7.4027254)
(214.23302 52.901789 -11.047299)
(236.4387 50.682142 -13.667154)
(258.38438 48.076061 -15.996839)
(279.23195 45.278734 -17.391315)
(299.34134 42.375363 -18.07184)
(318.42038 39.49336 -17.903695)
(336.7976 36.761547 -17.000349)
(354.416 34.186193 -15.252957)
(371.74523 31.902816 -12.876409)
(388.87543 29.831315 -9.8537368)
(406.29361 28.056396 -6.3603663)
(424.27667 26.413195 -2.4351872)
(443.3112 24.913109 1.7360967)
(463.70096 23.342708 6.0858238)
(485.91218 21.620185 10.488118)
(510.25961 19.497145 14.847672)
(537.08616 16.76479 19.086102)
(566.63691 13.223551 23.08367)
(599.11697 8.59633 26.808451)
(634.74804 2.6118441 30.124272)
(673.55921 -4.9416257 33.055079)
(715.64419 -14.312459 35.418181)
(760.87561 -25.682754 37.291776)
(809.19206 -39.249304 38.58032)
(860.33691 -55.086553 39.239921)
(914.06976 -73.259114 39.3125)
(970.13003 -93.708883 38.720601)
(1027.9146 -116.43313 37.641303)
(1087.122 -141.09673 36.021013)
(1147.1815 -167.54404 33.9932)
(1207.5749 -195.44208 31.649442)
(1267.7586 -224.41056 29.14076)
(1327.2303 -254.06943 26.585895)
(1385.5226 -284.00466 24.128913)
(1442.2451 -313.82916 21.902291)
(1497.0962 -343.1803 20.015616)
(1549.8777 -371.75776 18.558366)
(1600.5054 -399.30839 17.591386)
(1648.9986 -425.67405 17.14515)
(1695.4889 -450.74376 17.212134)
(1740.1844 -474.50537 17.771001)
(1783.363 -496.98645 18.768896)
(1825.3437 -518.28237 20.140341)
(1866.4675 -538.51665 21.81377)
(1907.0579 -557.85166 23.727336)
(1947.4308 -576.45245 25.799045)
(1987.8501 -594.49062 27.977331)
(2028.5541 -612.14498 30.214028)
(2069.7144 -629.60062 32.465783)
(2111.4524 -646.95471 34.666997)
(2153.8989 -664.45618 36.873207)
(2197.011 -682.03118 38.855171)
(2246.9816 -701.93357 40.937249)
(2293.8951 -721.31892 42.65847)
(2340.6156 -741.013 44.197652)
(2388.219 -761.51219 45.427925)
(2436.7356 -782.91296 46.31153)
(2486.2036 -805.33714 46.806349)
(2536.5706 -828.80966 46.823811)
(2587.7936 -853.40387 46.400996)
(2639.7698 -879.00793 45.434791)
(2692.3911 -905.70035 44.044254)
(2745.4806 -933.25107 42.127421)
(2798.8835 -961.72552 39.87755)
(2852.3507 -990.7589 37.185249)
(2905.7019 -1020.4801 34.329274)
(2958.6863 -1050.4443 31.193768)
(3011.3194 -1080.8573 28.030815)
(3052.9826 -1107.6339 24.630191)
(3095.9694 -1135.0668 21.422968)
(3144.8244 -1164.9554 18.396389)
(3193.2516 -1194.8839 15.529681)
(3240.6431 -1224.6916 12.843821)
(3286.8887 -1254.1228 10.326309)
(3332.2343 -1283.5229 8.0190473)
(3376.5133 -1312.5244 5.861425)
(3420.0426 -1341.4034 3.8033276)
(3462.8798 -1370.2096 1.9394753)
(3505.0468 -1398.6906 -0.0090401497)
(3553.5748 -1430.0394 -1.8144972)
(-3.04581 6.0921049 10.939852)
(-2.526679 10.86222 12.962609)
(-0.91057785 16.00404 15.624712)
(3.1346809 21.092337 16.882591)
(9.3382706 25.782722 17.051554)
(18.359728 30.286969 16.802799)
(28.997181 33.886763 15.774725)
(42.869518 37.327446 14.208324)
(58.479726 39.713474 11.663116)
(76.31329 41.935207 9.2290735)
(95.848275 42.911338 5.774145)
(117.03585 43.731714 2.5966817)
(139.21743 43.357323 -1.1501228)
(162.19648 42.770092 -4.4467325)
(185.69901 41.265898 -8.1060668)
(209.01984 39.470651 -10.850722)
(232.36653 37.086024 -13.700809)
(254.95325 34.505299 -15.651612)
(276.9257 31.608914 -17.188725)
(297.96397 28.672234 -17.880143)
(318.16085 25.672873 -18.0238)
(337.41201 22.728151 -17.26645)
(355.9907 19.936501 -15.970267)
(373.94126 17.24954 -13.92594)
(391.67637 14.783147 -11.396684)
(409.43342 12.399341 -8.3031167)
(427.65455 10.124643 -4.8754782)
(446.69063 7.8037593 -1.1356062)
(467.00113 5.3548955 2.7832671)
(488.9655 2.5586449 6.8011588)
(512.9679 -0.72445693 10.800791)
(539.37432 -4.7241297 14.710342)
(568.4963 -9.672936 18.4431)
(600.56095 -15.827005 21.94885)
(635.78804 -23.438953 25.143862)
(674.24717 -32.670303 27.961064)
(716.00738 -43.855233 30.395275)
(760.98819 -57.085079 32.400832)
(809.11779 -72.580879 33.840471)
(860.19731 -90.324054 34.798654)
(913.89732 -110.39382 35.194041)
(969.82277 -132.70557 35.085481)
(1027.5523 -157.08725 34.464904)
(1086.5659 -183.34413 33.408124)
(1146.2925 -211.17835 31.957485)
(1206.1536 -240.20866 30.239711)
(1265.573 -270.0558 28.327775)
(1323.9961 -300.30217 26.349797)
(1380.9261 -330.53278 24.417424)
(1435.9492 -360.36322 22.637469)
(1488.7573 -389.45199 21.09855)
(1539.1493 -417.52225 19.87998)
(1587.0592 -444.36727 19.026932)
(1632.5272 -469.86463 18.564021)
(1675.7167 -493.95905 18.49243)
(1716.8626 -516.68095 18.795048)
(1756.285 -538.10116 19.429352)
(1794.3303 -558.35511 20.35323)
(1831.366 -577.60303 21.519067)
(1867.7465 -596.02075 22.86604)
(1903.8075 -613.80061 24.353158)
(1939.8299 -631.1216 25.931985)
(1976.0786 -648.19148 27.57728)
(2012.7087 -665.13656 29.223927)
(2049.913 -682.15536 30.902952)
(2088.5429 -699.64287 32.463708)
(2121.5893 -715.21161 34.05934)
(2175.718 -738.20513 35.546365)
(2218.0556 -757.77616 36.985037)
(2260.4264 -777.62436 38.04222)
(2303.5843 -798.28025 38.899328)
(2347.7959 -819.87254 39.447401)
(2393.0653 -842.4553 39.656821)
(2439.3869 -866.04713 39.518952)
(2486.6365 -890.63762 39.014481)
(2534.8402 -916.19337 38.10975)
(2583.8291 -942.67147 36.84764)
(2633.5557 -969.93581 35.220561)
(2683.7803 -997.92839 33.298047)
(2734.4293 -1026.4763 31.110281)
(2785.2252 -1055.5046 28.739334)
(2836.0516 -1084.778 26.19677)
(2886.8482 -1114.414 23.66117)
(2937.3783 -1144.0629 20.975609)
(2971.7753 -1167.6445 18.487567)
(3018.7771 -1196.2009 15.925292)
(3067.8894 -1225.7474 13.590433)
(3116.6549 -1255.2481 11.318855)
(3164.9259 -1284.7291 9.2136929)
(3212.8917 -1314.1794 7.1940688)
(3260.3899 -1343.5793 5.3064066)
(3307.813 -1373.0883 3.4744849)
(3355.0187 -1402.7081 1.7282364)
(3402.1868 -1432.325 -0.055912649)
(3453.8073 -1464.1427 -1.837303)
(-4.6788729 4.9455994 8.4692427)
(-5.1563242 7.6053013 10.206198)
(-3.6692076 11.929125 11.707127)
(0.32154061 15.52264 12.185433)
(6.5172754 19.653482 12.436706)
(14.799337 22.583243 12.183679)
(26.119586 25.777062 11.218114)
(39.605367 27.897042 9.4719103)
(55.323799 29.924218 7.96715)
(73.405132 30.865717 5.157239)
(93.2735 31.536214 2.8150438)
(114.7405 31.33383 -0.4384245)
(137.34576 30.609495 -3.1480656)
(161.12893 29.322022 -6.5822456)
(184.97689 27.359073 -9.0959874)
(209.41704 25.118084 -12.037681)
(233.26128 22.312374 -14.188456)
(256.86836 19.357668 -16.047305)
(279.53595 16.079193 -17.310963)
(301.47962 12.790538 -18.024367)
(322.26629 9.380205 -18.053075)
(342.23892 6.0875603 -17.493527)
(361.22821 2.8133142 -16.321478)
(379.63928 -0.30994753 -14.564009)
(397.57785 -3.3798319 -12.311154)
(415.48323 -6.3673128 -9.6084997)
(433.64785 -9.3882258 -6.5908074)
(452.54042 -12.518865 -3.2654241)
(472.5523 -15.931346 0.19663165)
(494.11574 -19.734026 3.7565384)
(517.63088 -24.172391 7.3313018)
(543.48541 -29.423181 10.832884)
(571.96335 -35.744228 14.216625)
(603.35325 -43.317732 17.413401)
(637.84896 -52.446143 20.361208)
(675.51897 -63.215568 23.03716)
(716.5544 -76.087324 25.402371)
(760.78104 -90.922353 27.290959)
(808.03817 -107.94163 28.865308)
(858.10534 -127.16612 30.025308)
(910.67705 -148.62598 30.730973)
(965.36104 -172.1473 31.024772)
(1021.6635 -197.61375 30.91107)
(1079.0376 -224.7057 30.401212)
(1136.9083 -253.12989 29.57802)
(1194.6765 -282.50032 28.489798)
(1251.745 -312.42302 27.209359)
(1307.5587 -342.47458 25.834176)
(1361.6217 -372.25581 24.43732)
(1413.5366 -401.40054 23.104722)
(1463.0055 -429.59451 21.908012)
(1509.8575 -456.59848 20.906942)
(1554.0474 -482.2394 20.138492)
(1595.6478 -506.4383 19.632227)
(1634.8413 -529.17727 19.393267)
(1671.8967 -550.52175 19.414285)
(1707.1511 -570.57679 19.674496)
(1740.9702 -589.51056 20.154763)
(1773.7416 -607.49755 20.814535)
(1805.8373 -624.74065 21.627346)
(1837.6019 -641.44288 22.560882)
(1869.3452 -657.81342 23.591392)
(1901.328 -674.01331 24.672787)
(1933.7597 -690.25644 25.818967)
(1966.8516 -706.67542 26.937747)
(2000.6655 -723.42594 28.086995)
(2035.8051 -740.79939 29.194722)
(2070.0838 -758.09722 30.165759)
(2107.9207 -777.06266 31.158983)
(2146.1239 -796.54927 31.875149)
(2184.9934 -816.72455 32.441885)
(2225.2971 -837.94103 32.777608)
(2267.3588 -860.3491 32.887411)
(2310.9139 -883.90124 32.758627)
(2355.4497 -908.36463 32.312198)
(2401.2936 -933.82636 31.572744)
(2448.3486 -960.25101 30.574451)
(2496.5639 -987.52586 29.26706)
(2545.7887 -1015.6076 27.778075)
(2595.9274 -1044.3252 26.027285)
(2646.7966 -1073.6394 24.174178)
(2698.3183 -1103.382 22.163681)
(2750.27 -1133.5286 20.122633)
(2802.5705 -1163.9049 18.017561)
(2856.013 -1194.9301 15.949553)
(2908.1837 -1225.4624 13.897992)
(2961.0181 -1256.3681 11.945484)
(3014.1075 -1287.5338 10.061055)
(3067.2409 -1318.7494 8.233099)
(3120.6486 -1350.2877 6.5013569)
(3174.1802 -1381.9498 4.8207799)
(3228.0796 -1413.9553 3.1669749)
(3282.3303 -1446.31 1.5671722)
(3336.9862 -1478.8521 -0.11904398)
(3393.4038 -1512.532 -1.7550331)
(-6.6273223 3.172845 6.0140518)
(-7.5148509 5.2370916 6.815165)
(-6.6213577 8.375005 7.875041)
(-2.5403735 11.299491 8.4311757)
(3.220353 13.772106 8.4065424)
(12.744543 16.351798 7.8239312)
(24.001816 18.107414 6.494618)
(38.142561 19.753536 5.6406657)
(54.571442 20.259593 3.351038)
(73.428135 20.787689 1.5751815)
(93.910377 20.107638 -1.0576036)
(116.26595 19.293165 -3.3038966)
(139.93777 17.495593 -6.3124616)
(164.23876 15.412055 -8.5237247)
(189.30394 12.623162 -11.284355)
(214.25415 9.5702116 -13.360596)
(239.01486 6.0149899 -15.33497)
(263.12604 2.3299138 -16.749694)
(286.45615 -1.6113357 -17.878305)
(308.67749 -5.5900438 -18.253236)
(329.88082 -9.59862 -18.316684)
(349.94122 -13.572771 -17.669151)
(369.05487 -17.449155 -16.643155)
(387.3467 -21.276357 -15.024771)
(405.14216 -25.009892 -13.087085)
(422.73846 -28.766975 -10.724711)
(440.54547 -32.580136 -8.1165007)
(458.97575 -36.614887 -5.2652584)
(478.4586 -40.953897 -2.3139896)
(499.41719 -45.835126 0.7649009)
(522.26655 -51.388793 3.8091295)
(547.3545 -57.863808 6.8426996)
(575.00965 -65.429213 9.7763216)
(605.48406 -74.353574 12.583343)
(638.9519 -84.802048 15.228732)
(675.5237 -96.955323 17.662481)
(715.21723 -111.0703 19.856909)
(756.89953 -127.00485 21.867307)
(802.25116 -145.1519 23.612509)
(851.06384 -165.49565 24.926999)
(901.9075 -187.75508 25.998529)
(954.69749 -211.91093 26.702954)
(1008.873 -237.73021 27.089102)
(1063.9307 -264.94924 27.167135)
(1119.281 -293.24387 26.95564)
(1174.3157 -322.234 26.493932)
(1228.4713 -351.53732 25.830369)
(1281.2029 -380.75476 25.023567)
(1332.0528 -409.51711 24.12116)
(1380.6407 -437.49234 23.194892)
(1426.706 -464.40394 22.288234)
(1470.0992 -490.04483 21.455636)
(1510.803 -514.28159 20.729673)
(1548.905 -537.06189 20.145179)