/*--------------------------------*- C++ -*----------------------------------*\
  =========                 |
  \\      /  F ield         | OpenFOAM: The Open Source CFD Toolbox
   \\    /   O peration     | Website:  https://openfoam.org
    \\  /    A nd           | Version:  6
     \\/     M anipulation  |
\*---------------------------------------------------------------------------*/
FoamFile
{
    version     2.0;
    format      ascii;
    class       pointScalarField;
    location    "0.65";
    object      E;
}
// * * * * * * * * * * * * * * * * * * * * * * * * * * * * * * * * * * * * * //

dimensions      [1 -1 -2 0 0 0 0];

internalField   nonuniform List<scalar> 
3969
(
29443.52
27194.953
13740.001
13020.409
31648.472
28811.683
13274.229
13593.076
14785.391
5721.9257
1855.5098
1399.9537
4048.1902
10659.694
23272.557
14444.404
13469.603
13079.431
12827.293
12565.301
12832.212
13660.354
29468.938
24432.19
24548.773
24923.494
24428.46
24063.887
22942.473
22232.863
20768.209
19752.638
18699.294
17547.315
16390.887
15186.283
14046.586
12721.685
11628.819
10388.724
9263.5758
8059.1601
6973.7655
5977.9186
5123.1433
4459.8682
3863.5689
3511.1377
3058.4157
2775.2182
2591.3379
2447.1913
2394.9392
2434.4945
2539.8557
2791.7917
3176.3622
3719.9943
4350.001
5102.0606
5810.0109
6624.8413
7519.5036
8360.0441
9450.7697
10287.843
11656.102
12163.208
13726.877
28201.718
19286.393
24263.763
22284.788
23183.3
21579.444
21220.225
19876.814
18904.302
17844.409
16387.488
15562.543
14403.669
13484.665
12244.089
11218.132
10194.343
8869.3355
8040.2261
6840.8368
6035.6897
5299.3333
4502.2602
4054.8123
3612.1674
3425.0901
3008.6884
3016.4115
2827.8491
2667.2428
2733.245
2661.1717
2929.3682
3183.2161
3690.3946
4361.5159
5017.7785
5734.4391
6585.9302
7418.5292
8307.9309
9080.2556
9920.3202
10696.877
11676.133
12529.229
13307.608
16817.349
6920.8631
2217.1379
2493.2787
3451.6312
8912.6542
19287.606
40724.399
29951.274
19807.786
28848.418
24598.622
24822.094
24679.77
21550.958
22780.868
18579.792
20686.994
18220.221
18136.903
16735.091
15233.58
14331.132
12548.945
11631.385
10260.414
9173.5744
8134.9721
7213.3506
6421.7869
5684.0632
5165.1993
4483.9479
3401.9601
2903.728
2628.4529
2402.7046
2392.1526
2612.5596
2876.6079
3305.367
3630.0998
3970.2634
5075.018
5623.5509
6100.4588
6814.9428
7468.3416
8339.1526
9074.8435
10018.718
10884.664
11683.582
13002.039
13781.033
12521.362
13082.156
12040.298
12891.366
12659.357
14497.327
14136.37
12101.178
11489.231
10357.234
9285.6904
8339.8802
7440.7742
6625.4802
5923.0298
5310.7838
4695.946
3260.4947
3344.5096
2768.6615
2441.6105
2202.5487
2112.4275
2210.752
2377.9766
2736.791
3092.1784
3587.8575
4059.2955
4603.4549
5235.8764
5940.2834
6805.2332
7732.4006
8890.4361
9963.4754
11317.828
12606.792
13955.651
14336.204
16089.892
17456.267
19001.235
19959.226
21130.225
22106.572
23887.594
24135.645
26371.353
25144.022
25810.567
25030.727
34307.451
19852.436
20539.455
20335.938
20450.261
20486.879
20327.545
21704.919
17156.063
18311.652
19784.172
20455.05
20324.617
21162.379
17211.173
13094.527
13347.184
13317.652
13358.663
13366.413
13420.806
13379.35
13990.318
13955.983
13970.775
14006.888
13968.006
13982.55
14009.468
18780.952
15428.98
16131.5
15991.698
16048.265
15949.336
15318.235
14952.075
14204.991
13760.102
13028.93
12188.74
11492.109
10629.303
9875.7518
9205.3844
8622.0959
7952.7848
7379.3905
6762.255
6212.0453
5667.7687
5169.9806
4639.2597
4101.3134
3656.3896
3253.1522
3128.3227
3105.2905
3217.502
3406.616
3578.3792
3724.1241
3916.6605
4112.8967
4389.6385
4734.2977
5067.1786
5643.3886
6276.886
7055.4505
8001.1546
8896.191
9853.0618
10981.863
11583.299
13773.359
8401.0651
6998.6312
7889.9411
7722.3291
7832.3976
7817.9155
7364.5294
7385.3254
6920.1144
6723.1873
6325.4012
5989.8
5635.3398
5202.9471
4894.9794
4539.4897
4238.595
3900.4051
3614.8101
3338.8046
3073.4902
2866.7898
2633.6617
2505.4326
2373.8763
2328.7674
2284.6578
2363.8709
2435.8973
2623.171
2829.1398
3014.7049
3236.6868
3474.292
3758.6587
4113.6067
4548.2088
5013.3845
5645.7835
6249.596
7120.3324
7839.092
8957.8078
9686.1756
11154.591
11374.737
14317.72
3138.9935
1496.5955
2568.1056
2102.8246
2435.8168
2439.1382
2509.5548
2553.4649
2418.7214
2565.7105
2412.2879
2345.7875
2162.7991
2028.601
1884.0924
1789.9628
1741.6633
1644.9553
1615.7846
1467.6558
1341.7637
1192.7152
1153.5833
1191.6913
1241.525
1304.1514
1510.5289
1627.1133
1920.7236
2199.0832
2455.6405
2735.8929
2984.8999
3280.86
3623.8558
4045.9124
4569.399
5194.004
5964.5851
6682.257
7445.8358
8326.0787
9159.4489
9978.0718
11029.466
11314.762
14416.828
1770.1537
199.80277
681.08604
586.82805
655.86257
799.77822
599.77537
819.46243
630.71122
642.55795
558.88056
636.84746
495.96752
557.88714
405.16277
488.70871
400.11161
501.59946
422.5867
459.35027
575.79759
728.96737
946.16133
1070.3744
1188.585
1408.2364
1534.0793
1764.464
2017.3971
2259.7905
2539.2259
2829.933
3096.399
3430.1961
3738.277
4136.7286
4580.2092
5020.6723
5439.4819
5964.335
6793.9581
7460.4927
8461.149
9255.8737
10642.137
11256.223
14474.483
4384.0166
2101.3952
2535.0925
1918.191
1980.647
1996.9363
1691.1909
1803.7179
1605.7774
1581.6379
1663.4267
1478.9145
1372.4388
1202.606
1104.6451
926.87687
856.24972
746.37093
685.70991
632.40632
789.05107
663.65399
601.53932
698.69064
809.83525
794.3934
893.75018
1036.4079
1219.6414
1444.1848
1702.3028
2007.0545
2288.2638
2669.0348
3036.1142
3517.1513
4042.8032
4630.2301
5181.3957
6173.7526
6877.0112
7847.274
8766.7788
9912.2544
10952.997
11784.386
14356.13
10561.417
8300.7479
8504.6451
8299.5892
8524.3893
8367.5116
8144.5162
7811.5399
7505.2278
7016.8299
6797.5432
6479.656
5982.2783
5667.8281
5198.5787
4908.1193
4477.423
4168.7307
3810.3426
3416.3819
3164.8053
2917.1785
2818.7453
2594.1633
2562.3195
2532.4274
2584.579
2697.5376
2772.5954
2929.0283
3088.5303
3256.1286
3484.6104
3776.5134
4059.8007
4555.3341
4978.0517
5483.4655
6152.218
6616.2513
7198.1472
7892.2193
8678.4186
9504.6944
10405.534
11577.616
13778.402
16802.182
13940.016
14345.834
14491.631
14555.356
14283.153
13839.524
13127.147
13041.608
11853.065
12023.19
10884.571
10332.239
9444.6322
8916.0379
8272.2454
7762.4231
7246.9452
6706.3454
6256.7186
5766.6517
5137.0678
4780.1624
3957.8523
3447.8571
2922.269
2674.3869
2498.2739
2516.3418
2610.7117
2728.255
2887.6028
2976.4093
3120.9916
3210.785
3459.7112
3685.2114
4224.4694
4691.1792
5458.4313
6403.4642
7500.5519
8615.8317
9817.4079
10941.271
12417.397
13677.176
8879.8716
9300.7335
8025.05
7906.5292
8190.0412
8470.1681
10785.303
3408.9076
3233.0829
2621.1327
2635.6812
2791.6621
3128.884
4304.9653
949.52109
420.93651
18.831057
206.54061
119.51321
405.63184
1045.4117
468.7292
1.9481795
-133.33039
-166.0268
-40.326306
418.99851
1192.5578
1378.1005
707.84334
409.37329
355.97493
467.6136
945.69354
1744.3826
5482.647
3730.5222
3259.1976
2945.3482
3100.092
3726.2451
5625.5092
10625.053
10745.082
8678.8215
8873.6994
8753.9726
9464.9155
12662.742
31601.731
28417.935
30465.521
32603.866
32521.064
34146.107
32997.765
28527.733
29540.464
26693.647
25621.666
28848.767
28910.95
30724.188
25015.665
25473.081
26777.355
26303.101
26058.546
26032.618
27670.562
26019.59
28513.501
27576.225
28223.447
28366.99
28836.86
26581.983
24804
25332.544
26996.189
26711.826
26620.434
25846.06
26333.981
24386.595
24484.076
24718.361
25454.969
25043.16
25144.401
24243.994
22872.716
23157.976
24720.124
24397.58
24648.699
24723.174
24702.004
22093.835
21884.265
22156.178
22216.442
22065.249
21683.814
21731.7
20813.039
20460.405
21172.509
21385.206
21874.621
21882.328
22366.243
19384.813
19300.263
19473.482
20103.257
19348.854
19196.212
19765.656
18704.686
18332.288
19110.762
18353.255
18906.743
18827.994
19426.38
17237.253
17219.401
17005.015
17684.648
17559.485
16588.48
18314.243
16612.294
15769.504
16629.641
15994.19
16131.88
16539.24
17289.757
14886.057
14733.63
15231.528
14766.869
15729.794
14522.394
16387.424
14133.402
13658.445
13890.593
13883.35
13736.314
13703.137
14796.647
12727.886
11934.433
13019.012
12173.623
13078.078
12412.475
13731.897
11307.675
11184.705
11566.837
11164.86
11654.012
11092.554
12127.343
10282.557
9664.2447
10606.846
9950.0125
10623.673
10066.172
10964.759
8956.9412
8738.9214
9532.8938
8789.3346
9472.8124
8874.3804
9774.7702
7915.067
7664.7374
8460.4843
7801.7389
8455.2536
7940.073
8697.4525
6908.486
6719.4944
7518.7355
6772.0097
7389.1721
6863.6677
7693.6373
5955.3503
5883.8147
6578.364
5920.2059
6477.2787
6049.5614
6885.473
5217.605
5202.4616
5786.7239
5216.8284
5691.3546
5361.7164
6306.0563
4633.4322
4729.93
5188.5044
4728.1519
5054.0017
4767.7298
5737.919
4263.1127
4436.1273
4520.5348
4365.8264
4537.8324
4366.903
5521.6139
4052.8779
4112.0845
4101.9402
4144.7248
4142.114
3980.2933
5023.8615
3948.4912
3827.6809
3889.3927
3637.5819
4327.2458
3509.898
4538.1974
3929.7533
3446.5371
3631.5983
3304.2199
3523.5194
2938.7714
3953.7876
3388.8399
3197.0831
3134.5053
3084.7521
3213.4541
2934.5555
3461.3225
3282.894
2777.1605
3135.2193
2831.9095
3088.9438
2664.2742
3139.048
2929.8714
2858.5091
2976.1611
2838.1488
2970.6389
2714.78
2999.116
3067.056
2884.4389
3131.4291
2958.7329
3109.7053
2894.2339
3130.0151
3181.079
3172.7169
3337.196
3224.615
3300.3294
3163.1979
3410.0154
3584.0116
3561.6081
3707.4205
3578.7326
3605.9047
3528.4988
3864.645
4055.3084
4049.7374
4088.7367
4017.1858
4002.3354
4015.6973
4355.6588
4731.9848
4644.6705
4678.828
4554.0467
4529.2584
4877.8122
5029.1245
5461.3499
5203.4164
5199.6824
5143.4952
5302.8369
4785.8164
5768.5095
6114.6524
5669.5402
5692.7654
5650.5842
5550.5202
5731.6422
6327.0736
6883.082
6617.1132
6604.9367
6412.1166
6434.512
6279.2857
7240.8086
7759.7283
7294.7875
7188.4192
7164.3565
7058.3683
7003.3009
7840.7802
8367.8149
7905.7232
7922.1757
7786.7766
7796.2552
7679.5684
8378.5901
9097.6255
8625.6916
8603.9026
8604.1615
8526.0063
8465.2383
9088.1782
9688.2268
9370.3487
9443.3082
9389.6452
9304.6082
9337.0171
9789.7292
10443.983
10276.669
10243.632
10245.405
10167.86
10264.248
10556.034
11258.531
11132.964
11119.365
11149.784
11068.518
11203.895
11372.794
12095.808
12083.241
12021.006
12047.152
11999.824
12124.093
12191.115
12994.84
13033.598
12950.446
12979.605
13007.494
12993.064
13134.505
14707.445
14759.946
14761.385
14800.027
14734.939
14694.958
14620.194
12038.54
12872.844
12771.37
12780.238
12692.029
12783.153
12183.66
12761.137
13138.46
13299.548
13316.1
13277.569
13374.618
12538.99
11934.148
12377.701
12372.461
12406.457
12281.662
12463.713
11510.969
12281.861
13217.504
13164.549
13072.41
13241.392
13043.252
12302.312
12843.001
13057.257
13000.511
13126.417
12834.484
13113.18
12324.873
13545.281
13943.103
13907.128
13917.206
14014.797
13899.178
13748.336
28092.749
25896.121
24607.134
24030.473
24464.227
25215.586
25809.445
26950.491
25056.861
25081.349
25050.677
25110.799
25513.563
26517.351
27231.447
27609.847
27135.312
26750.884
27462.797
26904.657
27293.933
26353.141
26667.974
26582.257
26906.366
26432.636
25887.773
26210.905
26245.644
26127.225
26510.153
26220.5
26240.693
25705.873
25628.381
24615.495
24714.829
24492.308
24366.965
24322.194
23661.246
24166.429
24323.808
23881.106
23866.811
23712.358
23670.394
23499.865
23632.226
22588.268
22223.964
22030.487
21836.431
21634.364
21406.435
21864.2
21759.386
21288.717
21286.342
20814.089
21053.285
20353.034
21256.168
20393.923
19823.553
19653.232
19353.049
19248.604
18977.14
19605.733
19209.68
18778.13
18749.387
18295.98
18374.323
17876.171
18494.329
18342.902
17612.257
17273.06
17281.046
16995.374
16899.886
17220.419
16962.301
16472.778
16381.965
15910.716
15861.588
15430.523
16516.246
16062.662
15384.497
14911.904
14891.601
14783.512
15082.72
15314.878
14886.655
14009.132
14015.21
13753.738
13852.161
12841.968
14200.893
13367.895
12938.572
12803.574
12356.96
12351.822
12217.116
12749.339
12177.777
11816.354
11538.244
11432.69
11225.529
10922.871
11623.802
10978.301
10527.656
10449.042
10163.007
9992.4306
9801.49
10287.995
9699.7631
9440.0555
9268.7526
9043.79
8939.8449
8674.4748
9143.2751
8553.0232
8304.5824
8148.4273
7999.0366
7802.5667
7594.28
7987.0851
7389.1747
7195.4892
7099.7086
6888.039
6743.5031
6566.7285
6918.9784
6327.6996
6195.1433
6052.1874
5917.4062
5775.402
5592.6629
5971.2918
5446.555
5238.0486
5155.286
5038.459
4860.3675
4749.6423
5244.1013
4795.3427
4555.1501
4481.7171
4361.0246
4205.2526
4134.5865
4740.5263
4328.8043
4029.1045
3961.4416
3857.9156
3686.7638
3630.6431
4387.2228
4069.2852
3643.473
3616.531
3500.4314
3379.8846
3315.2138
4206.506
3729.3945
3315.3284
3276.6847
3193.1208
3073.1808
2960.3804
3898.2765
3466.7183
3017.1684
3018.1516
2908.8129
2903.4596
2743.6034
3650.4971
3103.8366
2698.5088
2756.283
2641.5244
2635.8509
2429.805
3239.014
2803.7942
2545.3187
2526.2712
2423.6229
2466.5888
2260.7014
2951.2092
2654.3858
2383.6562
2410.5186
2330.2371
2382.9722
2154.2495
2737.6219
2606.0241
2431.6412
2444.1984
2342.5204
2386.7643
2189.8418
2696.272
2746.2231
2595.1519
2584.059
2496.5084
2556.9246
2361.4968
2814.5906
3039.3558
2886.6171
2859.0722
2784.3609
2780.9397
2660.2063
3110.7574
3478.8134
3295.3473
3265.5124
3183.7573
3182.4669
3092.8071
3548.9374
4043.2405
3862.0692
3829.1384
3717.3884
3732.7512
3919.9031
4171.5007
4939.8832
4469.5246
4357.6564
4334.0639
4492.7387
3887.4952
5150.2253
5451.3754
5240.6302
5190.4254
5101.1713
5057.1358
5274.1204
5692.4333
6469.8222
6166.3394
6079.4107
6032.4189
6007.1417
5906.8705
6684.6625
7318.7082
6929.1466
6879.1061
6919.0354
6802.7114
6813.4733
7434.2759
8119.9823
7767.7525
7776.8651
7709.5431
7709.9204
7633.2363
8141.7141
8838.7668
8567.6975
8537.9159
8523.2256
8525.9902
8458.1919
8904.7161
9782.2646
9571.6061
9535.9507
9534.2414
9496.1139
9460.2302
9678.5742
10462.293
10232.102
10242.107
10177.607
10195.829
10224.318
10470.022
11697.995
11685.266
11589.227
11597.764
11583.983
11675.283
11649.295
12113.12
11963.275
11941.079
11918.259
11909.227
11928.541
11942.824
13921.254
13936.575
13868.92
13879.455
13866.83
13895.111
13844.454
30696.337
22074.94
20042.36
19881.017
20323.581
19456.16
19041.595
18081.563
17474.275
16649.02
15977.707
14598.222
13868.877
12675.3
11705.869
11241.062
10207.061
9507.4905
8814.3902
8212.1014
7611.99
7030.0985
6372.3221
5629.7687
4847.4978
4143.2226
3611.9532
3260.4559
3158.4941
3202.5088
3362.8935
3571.4362
3780.8425
3975.2611
4175.2689
4154.4306
4467.9122
4705.449
5124.2269
5644.3513
6534.8305
7519.3911
8647.4972
9876.4958
11117.455
12113.158
14155.294
13677.556
13749.115
10516.121
10926.757
11314.392
10094.152
10480.616
9864.6147
9706.2624
9123.4584
8708.5286
8141.2228
7878.2776
7390.6769
6976.7801
6640.627
6128.9827
5663.1633
5364.5835
4910.3265
4537.5111
4157.5922
3749.1591
3468.1522
3172.3911
3138.2234
3195.7769
3299.542
3410.8151
3494.1778
3596.7976
3724.5188
3865.8079
4095.4911
4318.2801
4602.717
5073.9137
5653.7781
6373.1941
7034.6756
7886.2569
8638.2199
9509.3389
10177.713
11295.06
11192.612
14879.186
4655.5524
4719.5299
3569.2969
4163.3131
3681.2595
2887.3956
3722.2206
2708.075
3317.9279
2698.3606
2766.3941
2739.3801
2358.574
2339.2092
2191.0331
1950.8792
1811.5129
1566.8191
1446.2465
1209.9038
1126.3373
986.73107
943.84924
838.54236
921.88877
928.84416
1152.8354
1213.1097
1438.3089
1579.6992
1785.8072
1952.7349
2239.1036
2515.476
2882.6167
3359.0788
3823.5904
4457.1309
5151.1178
5910.335
6722.2388
7666.2948
8522.4452
9695.7922
10770.758
11732.843
15048.246
1488.6235
1761.8014
78.574837
2292.7941
236.36082
1833.0619
53.037089
1080.4428
818.54337
425.31412
1171.5815
262.2475
910.49764
1139.6569
1097.3551
1235.2174
1149.5738
1166.6476
1184.0327
1191.8828
1192.2992
1245.0925
1231.7843
1429.0432
1560.9819
1810.6262
1958.1456
2228.5921
2448.4137
2691.3951
2913.9478
3169.6334
3463.0361
3750.7715
4154.9908
4552.7301
5046.3947
5598.8072
6237.5003
6850.7203
7628.8747
8294.85
9223.8171
9888.5943
11197.345
11207.599
15195.493
3581.3328
945.12037
1591.3073
1271.3953
1324.8541
1556.6298
1407.5329
1951.1906
1006.7814
2060.2342
1075.4812
1683.5593
1409.6318
1274.6284
1422.6932
1273.1404
1361.0975
1277.8769
1316.8793
1261.6078
1329.3194
1295.02
1404.9081
1327.1
1280.4235
1310.8052
1414.5034
1625.1239
1832.6906
2010.7016
2230.8227
2456.1169
2721.1884
3050.2535
3433.3354
3825.648
4341.5572
4896.1718
5487.0403
6294.1574
6973.5995
7952.1748
8740.7094
9907.1603
10873.382
11939.253
14605.763
7905.0724
7282.491
4764.5628
7447.0644
5221.1115
7184.2696
6602.0564
6034.4552
7307.8525
6116.8442
6952.9763
6469.717
6013.2566
5971.8781
5413.9804
5189.2241
4734.1499
4431.2199
4014.1123
3687.4353
3318.5867
3070.2309
2890.5651
2657.1732
2961.8872
2965.7906
3157.9377
3244.0271
3372.4781
3474.0345
3601.8959
3687.11
3825.2147
4072.8793
4339.4089
4741.6816
5265.927
5726.8535
6517.6979
7034.8823
7825.6316
8451.9613
9262.8409
9915.4627
11044.55
11465.466
14176.607
22869.152
13319.636
16286.023
13850.598
15885.767
15185.34
14795.405
15214.513
14238.079
13929.588
12929.265
13234.246
11602.518
11298.653
10505.054
10107.652
9692.4657
9122.2989
8636.9783
7969.336
7320.9748
6462.2996
5675.6114
4695.0692
4267.0856
3403.2996
3104.4061
3151.8425
3204.0848
3361.2083
3379.7113
3360.7331
3314.7339
3307.3661
3244.6035
3386.8156
3713.4922
4247.4131
4762.6998
5833.128
6774.4469
7917.5155
8990.8809
10186.27
11270.079
12477.967
13648.901
22821.056
19613.202
19048.699
18695.057
18971.933
18933.553
19809.173
20374.311
21133.254
19749.382
19643.393
19415.403
19939.072
20516.954
19188.452
20231.069
20338.717
20052.323
20094.633
20051.926
20123.703
19074.481
19603.678
19735.34
19830.897
19560.036
19482.875
18804.337
18530.54
19205.939
19642.841
19390.887
19494.478
19153.637
18865.568
18029.45
18195.091
18123.554
18393.865
18008.374
17972.488
17852.674
17587.704
17629.535
17936.502
17526.699
17548.477
17517.145
17332.178
16704.608
16739.649
16559.89
16649.391
16496.063
16237.707
16312.2
16250.67
16280.689
16114.425
16128.704
15821.527
15983.746
15869.617
15354.293
15274.81
15147.094
14926.107
14803.445
14815.821
14742.986
14669.182
14761.776
14550.137
14495.385
14435.345
14355.646
14440.894
13912.126
13729.865
13657.781
13478.109
13279.649
13319.235
13294.246
13163.553
13092.118
12870.909
12775.481
12764.172
12569.552
12587.567
12300.036
12161.271
12128.636
11960.862
11882.506
11637.276
11882.724
11491.469
11513.198
11091.3
11203.378
10916.861
11156.399
10823.189
10758.767
10711.596
10522.105
10539.253
10298.064
10185.981
10088.322
9902.602
9865.3134
9692.8247
9676.1333
9501.928
9512.671
9433.4194
9145.231
9137.9256
8986.2947
8965.9071
8808.9783
8865.2979
8611.8522
8417.8017
8395.0568
8246.1422
8235.1962
8137.099
8089.8503
7893.5723
7706.9377
7752.3357
7588.5055
7618.9796
7432.7872
7466.6061
7260.3143
7098.1846
7129.1037
7006.4129
6983.1535
6864.4893
6907.8811
6651.3538
6504.6328
6593.0076
6467.0646
6474.0255
6347.5938
6391.3786
6135.1276
5997.5473
6075.1826
6005.7439
5991.1979
5857.0145
5877.2282
5689.5244
5467.5633
5510.6374
5524.9039
5502.5923
5384.9559
5445.0259
5244.6526
4987.1981
4948.4272
5002.0275
4999.4561
4887.2312
4892.7528
4752.6392
4502.0412
4418.7643
4522.2275
4498.6871
4424.9433
4416.4388
4304.0858
4110.8026
3975.5769
4049.8573
4097.7443
3980.1069
4035.8031
3918.2551
3860.7764
3673.6105
3756.059
3762.7917
3730.0336
3642.8062
3600.7033
3662.624
3411.1806
3638.9242
3605.5417
3531.2515
3497.6565
3439.5785
3594.0335
3466.3853
3572.1478
3532.4239
3512.4754
3438.5785
3374.8691
3627.7871
3456.9881
3610.1172
3611.3938
3551.413
3469.1065
3405.2439
3666.8744
3607.7031
3752.7175
3714.1162
3644.7511
3596.4614
3513.9669
3827.1018
3807.5214
3911.3423
3904.4116
3846.0133
3788.7275
3696.995
4037.8608
4030.1372
4133.3437
4135.0622
4055.7699
4038.479
3937.039
4279.305
4312.0873
4406.1408
4431.0726
4390.6677
4340.8141
4210.5133
4681.1066
4632.681
4697.1251
4734.9557
4640.1489
4611.1968
4574.9481
5006.439
4800.9968
5013.2219
5012.722
5049.4096
4925.1612
5097.4078
5446.6424
5342.9234
5351.6275
5571.8156
5346.9453
5468.3621
5164.6972
5896.7192
5744.5549
5822.414
5932.3311
5846.6125
5713.86
5830.7671
6534.3399
6293.4742
6308.0419
6470.0454
6316.2509
6377.7544
6285.8611
7225.5334
6953.0017
7001.3006
7118.507
7030.9687
7014.8696
6974.169
8110.0094
7880.095
7881.2106
8027.3599
7885.9689
7895.8407
7819.1916
8977.8003
8784.8474
8785.132
8919.049
8776.2885
8843.9976
8727.137
9994.8736
9855.1411
9864.6212
9983.8384
9843.7147
9932.2563
9799.2154
11220.776
11182.367
11160.837
11275.406
11146.032
11317.349
11037.87
12096.144
12024.333
12048.099
12154.841
12050.473
12081.714
11802.397
14096.915
14045.701
14009.826
14041.57
13956.486
13985.562
13992.261
10254.032
8177.0379
7517.4531
7323.6376
7167.7895
7396.2698
7998.5833
10550.326
11421.713
10812.354
10956.123
10986.671
11245.578
11528.343
9998.3344
10269.376
10367.877
10197.297
10361.965
9906.7879
10178.59
9931.8197
10590.467
10886.747
11064.901
10702.064
10730.989
9888.7511
9765.4904
9849.8628
10246.811
9921.8845
10219.651
9686.8206
9728.4484
9576.1848
9708.3529
9336.088
9526.8009
9196.6246
9213.1511
9033.7256
9202.4011
9108.2604
9368.5117
9135.716
9189.9119
9078.7893
8784.4253
9043.237
9011.2826
8583.7819
8588.6283
8450.7271
8367.894
8351.6349
8696.6148
8453.6899
8398.331
8258.1456
8087.4126
8197.1949
7995.9687
8426.1646
8134.2499
7987.6287
7762.4119
7860.5836
7734.7395
7661.2356
8042.0328
7797.3503
7596.4086
7518.5422
7330.6834
7421.0871
7214.4139
7729.0494
7364.1714
7184.4965
7026.2959
6940.4911
6927.7751
6838.1103
7307.051
6984.8284
6822.0624
6920.4474
6573.6467
6860.869
6519.5179
6899.4841
6516.6146
6464.1651
6296.0433
6144.5166
6248.8542
6168.6678
6511.5443
6184.1381
6151.27
6002.7885
5940.007
5902.3568
5823.853
6122.1629
5653.7082
5726.5498
5536.777
5478.9707
5461.026
5404.0217
5647.8655
5394.5931
5319.9255
5204.5667
5094.6768
5165.8644
5124.2681
5273.5178
4961.7138
4917.9639
4839.9984
4727.5576
4794.767
4650.3408
4855.03
4610.0756
4569.5375
4481.2423
4377.6771
4418.9188
4360.8803
4486.2556
4263.1556
4214.3715
4163.5021
4025.8339
4118.8633
4058.1277
4089.6419
3921.2401
3892.1293
3806.5342
3715.8655
3842.3894
3723.3764
3752.4656
3677.376
3599.7552
3541.9621
3479.9223
3538.8624
3509.4802
3463.2877
3360.7982
3297.1623
3269.4466
3140.3581
3355.2904
3288.3051
3260.9753
3149.6393
3125.3221
3015.2006
3003.831
3245.7017
3181.2693
3115.2875
2989.2632
3011.3689
2840.456
2862.9531
3009.6278
2951.7054
3131.2822
2920.4849
2888.1654
2813.066
2733.1018
2965.7672
2964.1356
3042.8108
2881.8466
2905.5789
2732.1371
2831.4278
3025.6999
3017.6951
3160.8995
2720.6736
2814.8664
2839.6329
2800.6319
3018.1983
2986.0856
3105.7266
2964.9118
3013.7488
2843.0934
2836.2292
3105.7084
2982.268
3197.8787
3036.0568
3018.7641
2931.9887
2972.4522
3172.0212
3075.4597
3250.643
3117.4838
3151.9949
3098.8528
3055.8794
3294.7511
3200.6759
3361.8314
3341.402
3367.0717
3276.4403
3261.1682
3501.2332
3391.2217
3574.4629
3559.7825
3548.6198
3478.7291
3482.0327
3708.4752
3589.6895
3818.0581
3844.7883
3846.2501
3797.0377
3780.7807
3970.8915
3875.9216
4177.2024
4184.7766
4178.109
4110.5111
4072.3332
4317.4189
4252.5249
4569.3082
4570.1334
4555.4107
4534.1884
4497.2318
4749.1548
4590.6554
5130.8446
5080.3189
5052.966
5040.1727
4896.3436
5236.7202
4973.6646
5732
5532.1042
5565.6548
5548.0409
5517.1771
5711.7139
5574.7643
6413.4251
6175.9711
6240.8112
6201.472
6106.1614
6328.3121
6179.0434
7103.1639
6746.215
6914.6452
6834.7302
6800.8344
7010.3151
6849.0227
7876.5914
7556.1129
7718.0263
7646.763
7566.4171
7751.4995
7522.8165
8595.2655
8244.6553
8432.9329
8338.4758
8282.5728
8442.5992
8299.6235
9490.9285
9227.1769
9387.2198
9331.397
9267.024
9416.6439
9195.7194
10200.052
9958.2175
10090.304
10021.184
9934.9682
10019.209
9902.7229
11453.74
11313.671
11383.883
11346.692
11312.225
11458.85
11254.287
11674.22
11433.013
11489.066
11446.411
11390.085
11287.129
10983.821
14307.835
14444.364
14204.58
14171.461
14136.961
14210.042
14304.376
3861.1699
3146.4098
2677.8994
2576.4214
2393.7641
2603.7806
2620.8557
3232.6479
3625.9425
3357.5718
3445.6812
3464.8471
3355.8788
3629.9773
3796.53
3657.1901
3655.819
3683.0921
3540.1026
3470.0148
3554.6965
3276.3637
3664.07
4199.239
4360.5464
4173.6487
4234.6043
3625.9915
3826.6521
3838.222
3848.757
3482.417
3571.0858
3077.4121
3580.2533
3360.4752
2840.3797
2947.3909
3273.3566
3086.6099
3076.6709
2999.8073
3705.4692
3253.1151
3668.2906
3553.3127
3567.968
3555.2264
3488.0766
3518.1215
2851.712
2719.2399
2537.555
2599.713
2542.8616
2574.0916
3279.8964
2822.0566
3057.558
3145.9576
3222.0251
3174.9258
3154.2155
3283.0671
2684.4536
2628.4784
2466.4473
2467.2598
2441.7371
2547.7715
2986.7597
2537.1889
2613.7903
2547.7224
2647.7311
2523.653
2593.7936
2986.1932
2327.5018
2356.1631
2298.0347
2448.6192
2364.8484
2564.114
2681.9196
2078.8643
2389.9846
2133.9282
2310.1783
2090.3889
2336.2144
2580.7453
2116.7714
2276.2263
1979.3193
2155.2121
1979.2112
2085.8803
2405.8384
2122.5989
2057.7062
1961.558
1871.8781
1886.5393
1986.5385
2244.2092
1982.2185
1946.2808
1880.5949
1773.2922
1747.9919
1887.1987
2171.7243
1820.7904
1840.534
1736.2055
1597.9105
1657.9599
1768.0063
1999.6181
1670.5789
1689.5684
1587.9343
1483.9629
1512.1321
1599.5899
1903.6104
1554.7737
1558.434
1469.974
1353.9322
1396.146
1535.2675
1743.1068
1408.7817
1424.1398
1346.6694
1225.8749
1313.0074
1386.7311
1682.6784
1358.5485
1349.9154
1261.8163
1192.1624
1226.7724
1323.9505
1623.3928
1278.7844
1267.059
1220.4564
1084.145
1175.9374
1262.8809
1605.5525
1267.3474
1310.8349
1127.2663
1149.7382
1161.9863
1271.4481
1643.363
1298.2597
1306.6638
1220.3803
1217.3524
1088.667
1164.5173
1709.7443
1285.5013
1374.133
1277.5411
1258.9794
1136.229
1320.9914
1770.4127
1367.8794
1485.5497
1284.711
1372.041
1226.9314
1275.3138
1987.0527
1470.9252
1582.9408
1392.9143
1562.9792
1292.2244
1465.943
2081.1738
1623.9374
1711.5009
1651.0044
1635.5665
1461.7872
1601.0486
2322.3921
1879.3608
1990.9106
1754.7457
1929.2641
1673.3261
1830.1917
2525.3413
2001.4528
2055.5188
1996.4832
2101.83
1831.5589
2019.7922
2715.7357
2230.5162
2381.9182
2270.7782
2369.2386
2120.0826
2295.1527
2972.163
2494.868
2601.2512
2466.4613
2582.3314
2349.4723
2511.2062
3243.2948
2782.3536
2876.3344
2794.8463
2893.6193
2639.8922
2812.3006
3587.651
3109.0579
3223.0149
3118.3854
3182.5468
2984.0032
3156.2925
3970.0665
3512.9905
3612.1543
3496.1644
3580.6761
3373.0418
3464.4974
4450.5644
3977.4735
4082.1592
3943.3519
4017.0405
3803.2005
3943.4355
4963.596
4452.6613
4561.4521
4437.0644
4532.9047
4290.1353
4423.0938
5497.2876
5010.8302
5156.3741
5021.143
5041.1242
4880.1972
4904.4702
6084.8948
5706.9983
5751.5571
5708.4348
5660.2355
5521.8204
5564.6673
6763.764
6420.4404
6404.1464
6438.6956
6338.8086
6313.2033
6212.5557
7449.7666
7209.782
7136.6306
7197.6588
7067.8283
7026.9306
6923.299
8286.2774
8050.6231
7970.9585
8085.52
7907.7034
8009.871
7806.3764
9025.2186
8916.4401
8811.117
8933.1338
8755.5181
8882.3599
8598.268
9967.6529
9860.9376
9739.0908
9920.031
9663.292
9890.9717
9596.7308
10993.224
10937.861
10847.54
11005.836
10768.545
11175.36
10708.918
11653.782
11608.663
11570.277
11714.033
11497.67
11718.666
11011.997
14156.224
14257.047
14027.922
14086.196
14017.142
14187.075
14140.341
1455.3133
1220.4765
938.91774
913.93816
795.92504
793.27808
467.59184
878.53408
1513.6708
1594.622
1846.9393
1774.8843
1700.7782
1586.8871
791.32733
631.43157
462.63995
515.05098
460.36164
444.36577
121.68693
1031.2941
1851.4376
2436.3258
2700.8237
2728.1075
2544.2729
2072.5935
872.4163
679.11462
198.51081
-54.585733
-147.546
-176.98814
124.99398
1154.522
1406.5721
1574.4821
1887.4227
1988.9635
2060.9828
1673.6692
941.99647
700.94039
507.3568
461.36636
393.67129
150.89337
663.95846
1257.8814
1141.3285
1004.0449
1136.2393
977.22492
1252.1841
1058.2296
1107.8608
909.19218
988.18495
716.91556
1125.4258
735.10742
1138.4468
1159.2312
1130.9984
682.9239
748.62213
568.13378
677.66104
635.44425
1094.7292
793.32143
1156.0531
805.17036
1262.4865
1090.3363
1178.0739
1047.8071
1067.9413
783.96505
519.93478
721.59427
571.71895
775.2318
1056.8713
798.5679
851.31833
807.58437
1060.3976
877.50517
840.30942
991.0644
1043.4566
577.48081
664.23015
669.29344
904.08426
690.38585
842.45614
700.65146
985.10045
592.80778
860.52413
801.85268
695.16761
828.88622
661.6583
822.28303
578.25677
685.06998
874.31119
662.60323
769.62069
598.10109
871.88758
563.84361
749.50208
844.0375
658.26406
793.09588
629.27147
848.2734
578.09634
718.62506
880.09232
694.57362
741.60845
575.16569
871.73583
570.49112
759.10841
884.53573
693.214
812.53332
645.47708
871.0492
609.5796
784.5568
874.8549
742.90014
845.35678
592.15311
895.84697
628.33757
766.76418
906.16591
745.54227
903.92949
698.4297
947.00833
644.42701
855.10581
942.26043
822.60833
997.36615
783.17935
881.72451
797.07597
867.19616
987.20851
830.76833
1117.1391
800.37271
996.48845
877.08527
875.51987
1104.4456
1089.947
1238.5142
901.73507
1198.0622
878.72273
932.29821
1248.3788
1126.7285
1430.2067
1120.2169
1266.7169
1093.9388
1138.5673
1362.1678
1395.6609
1548.8875
1242.622
1451.706
1338.0664
1279.9223
1534.1667
1516.9372
1783.5437
1492.1322
1741.8572
1472.3002
1593.9051
1750.3561
1792.9458
2037.6339
1705.8023
1861.4676
1777.5016
1688.6201
1957.3338
1958.9493
2228.1617
1930.2109
2150.2493
2011.1717
2032.9679
2260.2563
2233.3456
2503.8766
2253.4664
2431.4714
2310.5813
2259.9558
2479.0931
2475.6045
2795.1659
2534.283
2729.0931
2588.0382
2556.0043
2795.3985
2754.1598
3094.8705
2838.3072
3056.2254
2915.7155
2901.0658
3118.9886
3071.7805
3438.3093
3197.5939
3424.881
3282.1137
3243.0346
3453.3025
3371.6311
3796.1483
3575.4897
3805.663
3654.7649
3629.0512
3838.1693
3779.6094
4206.4738
4003.6285
4204.6738
4102.1625
4080.7118
4249.9383
4182.2676
4665.2649
4460.521
4696.8769
4600.4786
4506.6505
4743.077
4640.3885
5182.7336
5022.5494
5259.9477
5122.0479
5110.4203
5269.5343
5216.0719
5829.1632
5619.5896
5847.6056
5715.8987
5708.3124
5889.1403
5812.7483
6463.7929
6201.8411
6481.3782
6337.9799
6339.8177
6493.5079
6419.4041
7268.7059
6959.4266
7269.5542
7124.9696
7120.9956
7270.6052
7200.6851
8022.9801
7667.3801
7969.2464
7792.6144
7827.3547
7965.6008
7888.2734
8944.2743
8625.3716
8932.1707
8773.0069
8838.0894
8898.4088
8824.1738
9819.8453
9445.0907
9709.6274
9520.3573
9565.017
9611.1138
9562.0863
11068.069
10841.055
11083.506
10926.533
11026.7