/*--------------------------------*- C++ -*----------------------------------*\
  =========                 |
  \\      /  F ield         | OpenFOAM: The Open Source CFD Toolbox
   \\    /   O peration     | Website:  https://openfoam.org
    \\  /    A nd           | Version:  6
     \\/     M anipulation  |
\*---------------------------------------------------------------------------*/
FoamFile
{
    version     2.0;
    format      ascii;
    class       pointScalarField;
    location    "0.48";
    object      E;
}
// * * * * * * * * * * * * * * * * * * * * * * * * * * * * * * * * * * * * * //

dimensions      [1 -1 -2 0 0 0 0];

internalField   nonuniform List<scalar> 
3969
(
59726.652
57940.728
2472.542
-6340.1507
60079.201
63782.504
-5719.5535
1394.8907
25921.46
10842.676
3602.3496
2994.2041
8818.5146
22959.685
49772.577
863.83595
-1658.6267
-1687.2068
-625.79419
533.23349
787.26377
223.91518
57082.709
45023.236
44800.742
44026.133
42838.214
41267.598
39041.851
37091.07
34698.314
32531.952
30622.556
28544.809
26538.488
24616.95
22586.71
20650.299
18756.889
16753.31
14876.887
12816.541
10855.353
8851.1637
6984.3475
5185.9226
3520.2131
1912.6533
199.87575
-1326.2366
-2819.1284
-4245.8406
-5568.8953
-6800.1216
-7885.3769
-8827.1749
-9461.2287
-9983.1207
-10193.843
-10343.822
-10182.672
-10044.574
-9380.8059
-9001.8871
-7812.2774
-7125.303
-5529.0034
-4516.3397
-549.81736
56342.104
39393.596
45254.468
42278.662
40513.962
37837.951
34951.619
32253.223
29003.747
26398.227
23257.604
20764.724
18090.489
15955.53
13688.679
11811.445
10070.221
8420.3632
7112.5819
5822.6663
4901.2255
4292.7703
3510.8865
3297.82
3136.341
3344.7567
3214.7522
3473.9839
3780.0861
4157.9806
4776.2792
5151.923
5830.7202
6314.386
6924.4508
7510.3529
7839.4735
8083.0287
8316.6191
8151.0712
7982.6968
7224.5428
6425.9209
5160.2664
3974.7353
2355.5474
-379.93824
27997.136
12440.022
3864.7414
5369.9743
8560.2594
21546.467
43490.215
87694.156
58498.034
41150.017
52953.571
45252.239
43146.03
40355.484
34612.695
33210.74
27932.759
26516.488
24535.539
22266.697
19645.357
17246.197
15369.785
13073.477
11632.302
9946.3449
8664.8956
7531.6262
6650.4606
5942.0041
5379.3454
4927.6681
4303.3633
3660.3519
3287.7482
3313.3502
3283.7614
3474.619
3911.6228
4235.7643
4643.7162
4829.3973
4754.3055
6514.3062
5353.7279
5249.4409
4989.804
4488.9684
4012.6997
3181.8994
2226.9327
1126.9165
-461.52791
13.709386
666.71498
753.33713
1365.938
571.03397
-999.42369
-2118.3712
672.38923
-413.7113
-1382.0131
-1718.3729
-2752.3125
-3629.9255
-4396.1418
-5020.1714
-5565.9389
-5953.1261
-6021.3789
-5909.6108
-7502.9895
-6690.6491
-6541.5736
-6195.1852
-5678.903
-5022.6391
-4077.4569
-3046.2554
-1759.0473
-429.97897
1149.7379
2749.7027
4380.0844
6107.4156
7822.8837
9683.0998
11549.316
13569.309
15524.512
17713.087
19822.094
22445.896
24085.055
26378.991
29046.509
31498.905
33778.127
35668.605
37446.399
41491.564
41435.852
45632.216
45240.736
44734.808
47240.018
64548.641
40040.399
41747.407
40980.635
41052.562
40775.979
40232.817
42868.923
37344.295
40536.301
44171.731
45812.841
45660.467
47738.211
39564.557
-6183.1022
-5933.7936
-5992.822
-5909.3471
-5948.3515
-5856.9677
-5817.1267
2453.6085
2393.4258
2382.2399
2429.5107
2409.5981
2448.2665
2281.1591
33408.926
27979.174
28735.738
28031.909
28271.535
27534.495
26758.329
25807.4
24629.081
23604.311
22473.441
20993.991
19743.394
18277.863
16786.183
15446.28
14151.79
12728.914
11409.007
9999.8587
8653.9622
7300.6448
6029.6153
4713.1065
3388.0709
2186.4359
1099.9576
222.22295
-361.5749
-839.81598
-1187.1887
-1480.9216
-1762.988
-1927.5576
-2020.9848
-2075.7185
-1983.689
-1933.7944
-1592.8445
-1220.3709
-768.07084
-156.5169
377.7424
786.50175
1505.0636
1562.789
2843.0975
14117.003
13013.179
14339.837
14544.582
14560.296
14691.542
14054.16
13966.738
13287.769
12881.694
12213.259
11571.598
11061.884
10451.114
9848.9665
9078.3342
8301.4925
7481.7726
6638.5593
5784.5356
4956.6318
4147.5287
3345.8763
2637.6136
1962.668
1300.9606
744.18127
262.01239
-78.687547
-279.29023
-378.32164
-437.94241
-376.15816
-240.22412
-36.428485
230.6534
623.39708
859.78405
1371.8987
1532.0078
2111.2243
2157.5252
2686.7848
2550.5012
3039.6209
2197.9555
2214.268
5527.2762
3306.7583
5373.3088
4627.2282
5358.0541
5084.929
5179.6861
5011.5185
4706.3276
4723.725
4509.0411
4261.4627
4067.0049
3560.1344
3382.2702
3061.1488
2858.9971
2492.7339
2206.6209
1753.2187
1294.5959
892.43673
618.45523
422.04375
214.63235
59.456378
133.62806
164.20181
424.46466
703.94442
1017.8822
1393.7298
1767.8822
2184.9559
2636.8083
3098.1131
3572.3962
4016.1546
4485.6764
4655.6515
4841.5595
4706.7929
4652.6692
3978.4881
3750.207
2150.661
1207.5582
2894.7223
779.45293
1291.8278
1616.0085
1548.7079
1731.8895
1547.5761
1853.6186
1627.394
1671.4346
1671.4181
1678.1283
1718.4298
1572.0619
1510.1885
1452.4894
1430.9684
1438.4666
1355.6868
1313.1002
1349.7297
1441.4736
1618.2673
1660.0693
1688.9382
1821.1363
1816.0885
1929.0512
2122.0302
2325.9026
2596.4032
2905.78
3134.5038
3470.8308
3655.049
3848.9809
4043.1614
4068.6488
4159.0766
4016.4227
3962.4626
3397.3731
3143.7832
2287.2562
2101.3657
524.76943
222.74604
8357.3194
4488.6709
5062.8052
4523.313
4474.074
4506.5381
4030.531
3898.8691
3579.9489
3484.87
3360.5846
3055.0095
2766.9947
2516.2101
2321.3928
2047.0845
1905.5455
1684.858
1534.5354
1359.7692
1579.3314
1482.84
1365.2484
1144.1405
969.1975
648.87083
437.11678
248.54992
78.623321
-94.903821
-236.77075
-349.29698
-559.28445
-645.17758
-901.70222
-991.45585
-1182.457
-1352.5697
-270.44272
1585.8102
1324.6535
982.76659
561.15013
123.71704
-422.50629
-1459.2561
-386.79855
21734.79
17230.76
17394.113
17011.478
16957.081
16327.789
15453.064
14513.644
13422.757
12489.008
11424.842
10505.032
9402.6631
8616.5753
7774.7175
7116.5134
6423.8313
5877.1164
5321.9788
4808.9447
4359.8238
4100.3184
3482.7164
2930.3421
2570.695
2318.3666
1948.7076
1707.7541
1326.7847
1022.9117
669.43908
292.89862
-107.49683
-452.50747
-947.04821
-1207.8065
-1595.4592
-2062.5205
-2303.3768
-2358.9235
-2952.7836
-3465.7729
-3721.1805
-3974.8198
-4073.8146
-3820.2841
-1236.4925
33987.895
30003.772
29294.769
29642.96
29135.462
27575.633
26024.381
23881.16
22404.546
20123.294
18691.793
16749.818
15027.497
13442.234
12121.681
10903.14
9884.0539
8926.2144
8044.1608
7217.8785
6523.5573
5435.5129
4824.6228
3609.5674
3065.9005
2396.501
1712.8955
1250.1794
913.0954
645.1851
262.85572
30.407117
-396.00867
-748.04047
-1238.6482
-1567.4006
-2060.2126
-2141.4521
-2396.1878
-3605.1825
-3931.9707
-3558.9871
-3020.7922
-2410.7347
-1795.4365
-736.08501
651.92719
15234.41
15939.901
13535.419
13442.233
13674.663
14036.282
18049.21
6562.0943
6392.5
5484.0228
5547.5416
5717.7209
6142.5877
7979.69
1873.2015
1106.4653
364.01421
655.39258
470.55481
752.20849
1956.9772
1248.2036
492.51831
268.26815
233.72091
460.06453
1169.9139
2628.0317
3408.4186
2152.1948
1617.6108
1491.6757
1812.4832
2654.6826
4414.8402
12595.147
8876.4478
7853.4032
7349.1071
7818.13
9377.9291
13920.515
23242.279
23265.771
19249.357
20063.51
19661.894
21631.012
28699.31
66540.026
59146.478
63793.294
68309.282
68084.913
72758.818
70884.02
57506.241
58557.307
54822.038
53571
58796.748
59820.029
60773.957
48847.913
51117.554
52549.752
52182.47
52079.455
52405.092
54203.713
48916.292
53554.397
52806.259
53969.765
54258.098
54191.934
50619.245
44773.164
46400.285
49128.849
49281.322
48769.073
47160.91
46908.093
42226.872
43324.707
44344.371
45060.473
44708.997
44055.236
42431.831
38656.183
39214.43
41235.405
41111.452
41098
40542.836
40196.757
35380.697
35724.694
36305.502
36447.647
36511.013
35751.31
35051.279
32254.667
31998.936
32887.369
33092.569
32938.648
32691.834
32941.676
28883.494
28922.139
29278.031
29643.221
29008.304
28663.185
28809.69
26207.906
25948.443
26441.795
25993.295
26190.662
25929.607
25716.404
23413.03
23007.296
23059.757
23339.531
23074.418
22058.441
23723.053
20824.456
20200.379
20850.088
20119.323
20259.345
19977.596
20999.807
18019.084
17680.101
18134.184
17607.79
18160.651
16914.62
18574.622
15982.596
15387.07
15853.876
15280.386
15370.707
14774.666
16127.146
13742.923
13012.323
13872.89
12962.575
13603.534
12678.555
14072.799
11777.367
11354.535
11917.597
11139.716
11610.288
10683.88
11901.847
10147.641
9563.5451
10403.734
9531.1257
10116.373
9257.9671
10327.957
8657.8594
8234.5408
9134.329
8076.7674
8735.5188
7791.1966
8816.9009
7454.802
7041.5903
7945.5919
6947.1324
7597.2123
6742.7058
7696.5592
6458.3199
6018.2839
7005.3422
5882.7302
6543.5949
5689.6036
6674.5222
5627.858
5245.0383
6159.1351
5111.6384
5726.0895
4945.2008
5981.4444
5030.2701
4650.6511
5487.3631
4526.4404
5062.9181
4462.1926
5576.5607
4668.6475
4416.9223
5136.0628
4241.8645
4650.5633
4063.923
5199.4668
4535.9614
4374.7161
4615.3683
4231.2691
4381.7543
3973.8015
5160.3161
4695.2264
4405.0671
4461.9977
4343.2011
4338.1901
3924.4189
4898.1983
5202.2585
4547.8546
4587.1069
4063.0439
4767.9514
3779.2712
4772.9875
5522.9017
4580.7245
4850.8238
4053.8922
4458.2936
3439.7176
4552.4078
5295.8076
4819.5645
4715.8133
4280.7306
4543.25
4000.8018
4540.1465
5684.8672
4760.0288
5232.1563
4388.4319
4906.2177
4029.0936
4593.4955
5654.4996
5327.9616
5454.0314
4836.6485
5121.8837
4474.9958
4853.5636
6163.1772
5635.7176
5933.9776
5243.5345
5605.6817
4989.3219
5309.7895
6417.4273
6177.1061
6389.6235
5812.3213
6049.2593
5500.9524
5806.8646
6917.0672
6685.7112
6868.1946
6262.5665
6447.6917
6008.8896
6353.6345
7263.7148
7111.5855
7186.4744
6707.2133
6827.5989
6459.0721
6807.8803
7706.8748
7451.4467
7592.3116
7042.3034
7200.0991
7285.139
7270.5685
7949.945
7577.8166
7665.9109
7296.7754
7493.238
6082.2762
7084.3309
7251.8226
7045.4338
6982.0761
6841.5624
6679.4268
7575.1944
7682.2875
7916.6626
7586.9691
7723.7937
7278.7602
7375.8511
7071.7844
7829.4088
7749.5582
7310.1551
7301.1155
7097.7798
7079.2314
6869.6045
7506.1079
7160.5143
6692.4962
6823.7149
6560.6183
6628.2897
6396.9792
6897.8983
6322.6564
5917.256
5978.701
5902.2918
5877.3232
5764.6868
6161.3512
5256.6119
5001.5535
5199.7336
5088.3417
5086.0918
5023.9715
5273.9014
3994.5446
3911.9903
3952.4182
3946.7544
3901.5588
3951.7893
4073.646
2711.1777
2675.811
2764.4049
2780.6899
2772.6811
2842.8624
2856.0614
1150.874
1203.7908
1185.7772
1234.8564
1192.9652
1273.5096
1217.9662
-360.20113
-286.45006
-314.7233
-314.57025
-275.9064
-288.04911
-174.7088
117.02873
609.89818
604.71501
663.72416
632.73134
590.81282
570.54166
-3220.9941
-2296.5531
-2397.9716
-2382.557
-2434.8621
-2137.4978
-2711.7415
-1524.9936
-1336.4653
-1264.7324
-1222.9724
-1232.3946
-1269.4035
-1672.5463
-635.46555
-387.09715
-400.51303
-311.36496
-421.49399
-200.75151
-826.26318
959.35767
2104.0109
1549.5134
1466.3023
1630.714
1508.6339
1084.1972
1339.637
1365.0018
1085.2203
1205.1982
754.87956
1286.7658
625.25081
47.876664
477.84987
481.60969
473.0233
796.15755
552.41001
521.34644
53874.887
48685.702
45831.39
44264.995
45083.023
46551.825
47840.028
50254.451
46621.78
46530.378
45825.916
46347.387
47133.138
48594.065
49050.424
49654.097
48537.835
48010.809
48667.513
48044.989
47945.017
46446.736
46792.956
46952.54
46987.408
46513.905
45625.787
45917.44
45533.73
45385.706
45707.19
45437.896
45296.404
44481.836
43813.753
41956.602
42050.93
42169.992
41779.208
41923.371
41142.731
41548.9
40870.806
40283.29
40264.898
39586.375
40057.194
39810.052
40058.305
37542.807
37072.173
37191.985
37031.997
36704.41
36471.74
37022.547
35947.503
35296.397
35322.015
34840.691
35292.375
34585.193
35836.99
33211.167
32651.5
32621.053
32190.329
32388.635
32075.099
32974.719
31109.373
30656.386
30931.897
30209.226
30799.91
30111.552
31161.376
29178.102
28539.863
28338.522
28288.914
28209.75
28295.833
28780.988
27010.299
26334.8
26466.802
25956.502
26199.49
25848.159
27073.642
25077.494
24435.743
24304.053
24065.123
24380.344
24407.653
25024.038
22908.686
22154.005
22446.455
22136.675
22404.044
21476.53
22889.479
20690.682
20227.316
20351.416
19864.546
20167.532
20167.666
20763.089
18782.095
18356.414
18297.269
18199.101
18204.653
17952.094
18672.316
16825.951
16292.812
16525.331
16120.871
16234.54
16023.361
16569.779
14699.39
14458.67
14528.916
14290.247
14361.614
14126.446
14604.011
12757.951
12533.882
12620.453
12409.828
12397.339
12206.357
12625.848
10695.857
10611.559
10672.641
10456.666
10437.496
10288.759
10645.076
8668.4843
8639.5083
8640.0848
8512.4533
8509.7834
8363.7591
8712.442
6733.3167
6689.7749
6685.3663
6623.9608
6558.0138
6482.0942
6930.6081
4941.7333
4952.3365
4905.0269
4845.6487
4853.2433
4764.2213
5290.6396
3363.5217
3358.2167
3201.2868
3267.5557
3178.5936
3112.7553
3772.1964
1951.0355
1777.2291
1746.1125
1722.9708
1728.1838
1637.8298
2461.1611
445.75121
334.13062
244.70004
264.62097
287.85173
134.26887
932.40101
-932.16219
-1176.523
-1190.4665
-1141.4612
-1069.9808
-1255.4864
-447.80756
-2461.4136
-2602.4725
-2535.6379
-2558.705
-2456.3884
-2680.5519
-1935.3599
-3842.402
-3843.1305
-3894.9845
-3884.2925
-3726.7014
-3939.175
-3271.5751
-5070.0829
-5154.1283
-5112.5028
-5062.1268
-4921.2284
-5159.089
-4511.5622
-6188.7333
-6176.0136
-6120.8444
-6117.3131
-6007.1613
-6178.6244
-5526.7422
-7062.0311
-7061.701
-7029.5761
-7034.6446
-6920.5535
-7061.1328
-6361.9282
-7762.4326
-7796.9567
-7764.7804
-7741.3464
-7661.1751
-7752.0665
-6983.6379
-8222.5682
-8339.114
-8299.4795
-8279.0941
-8331.9746
-8364.7932
-7487.4953
-8601.344
-8701.1246
-8610.5425
-8701.8616
-8663.2681
-8694.4808
-8140.7962
-8776.7376
-9318.4013
-9310.4153
-9361.9875
-9222.3092
-9338.7553
-7085.7619
-8562.0186
-8751.1072
-8748.1174
-8756.3253
-8874.7891
-8689.658
-7578.1585
-8286.7426
-8401.9295
-8483.2531
-8438.3711
-8568.6275
-8521.0543
-7154.0867
-7903.1954
-8190.7744
-8264.5509
-8120.6397
-8331.7586
-8218.4071
-6933.0345
-7431.949
-7621.2238
-7629.2845
-7562.2489
-7736.9415
-7728.5836
-6591.6337
-7067.0088
-7213.4609
-7275.1929
-7225.0665
-7357.1848
-7289.6341
-6158.0737
-6128.8312
-6192.3629
-6304.3056
-6175.0856
-6331.2396
-6295.7386
-5529.0644
-5587.7268
-5756.9042
-5760.6032
-5730.2165
-5844.9784
-5775.3452
-4888.5447
-4160.7542
-4130.1468
-4215.2243
-4165.7219
-4279.6311
-4088.664
-3622.8245
-3426.3835
-3565.2874
-3580.4488
-3597.3646
-3591.6162
-3567.3874
-3307.156
-390.44912
-415.63926
-517.82542
-499.38635
-534.54668
-474.32344
-500.25049
55467.935
39093.499
35609.819
34416.241
35173.655
32995.772
32549.327
30512.625
29172.687
27698.938
25909.573
24044.216
22091.025
20532.793
18424.389
17321.905
15625.742
14213.154
13053.205
11859.868
10780.147
9709.9859
8586.9285
7373.5102
6219.0056
5060.3348
4446.3425
3694.3059
3424.7017
3279.9067
3262.7146
3279.6462
3315.7935
3247.178
3217.342
3105.5559
3169.2113
2883.3812
2759.4571
2785.415
2965.6796
3113.2228
3244.3948
3272.5967
3193.2956
2750.7006
4073.2849
23091.002
22870.182
18484.441
19158.451
19672.221
18201.654
18805.847
18078.809
18018.367
17029.869
16835.958
15797.653
15272.759
14360.086
13440.702
12906.922
11932.579
10978.329
10229.909
9193.8211
8280.963
7301.9313
6263.2321
5341.5716
4455.8035
3460.6503
2904.6941
2925.2546
2413.1445
2064.8422
1760.82
1543.0671
1303.0744
1231.1425
1073.1444
990.0978
1063.2941
953.10034
1166.2516
1099.3138
1206.3416
1037.7357
991.54774
576.72875
570.10515
-541.58088
2057.1714
7900.8179
7745.0185
7478.5549
7709.2866
8087.2303
5770.5278
7914.4151
6052.3605
6933.6083
6384.6608
6308.5504
6269.9986
6186.8243
6743.3325
6589.2442
6234.9226
5921.3855
5353.4744
5002.2694
4301.6003
3767.112
3054.1491
2339.3662
1487.2025
787.7608
-37.208374
-612.25456
-1479.3573
-2142.3344
-2757.1647
-3274.0436
-3744.3219
-3995.9993
-4213.8051
-4330.8212
-4249.6341
-4176.7635
-3910.4518
-3659.0875
-3325.9173
-2984.9938
-2608.6473
-2334.9342
-1895.5173
-1525.7364
-1335.8956
529.98675
2798.7098
2860.0435
851.20726
4266.3065
1330.9667
3157.4882
944.00545
1527.3715
2487.2548
1295.6002
2886.0281
1812.7995
3007.5724
3803.0987
3883.2092
4095.675
3819.7157
3725.7929
3495.5934
3161.2002
2764.6171
2374.3328
1769.0509
1420.5597
817.79025
534.08236
-4.706813
-371.28651
-770.60081
-1124.15
-1476.0919
-1766.4091
-1977.1652
-2276.6974
-2353.7758
-2480.3755
-2573.8848
-2601.6535
-2519.6851
-2529.5747
-2331.4717
-2344.0034
-1990.0387
-2002.4254
-1326.5258
-1727.4797
-19.871533
7696.1649
2113.0456
3977.2702
2740.0518
3543.7394
3143.5281
3870.7802
3299.845
3038.9756
3578.3304
2827.14
3372.812
3134.7913
3010.2251
3286.7541
2875.1821
2878.4466
2548.5662
2388.5035
2046.5995
1844.4343
1456.6636
1215.9654
706.99077
308.55718
-122.72583
-648.47508
-973.29794
-1387.7603
-1794.2399
-2168.2962
-2471.3997
-2783.2837
-2986.6427
-3099.0015
-3308.0457
-3312.3653
-3305.4666
-3350.7759
-3118.8497
-3053.6217
-2686.1597
-2459.2183
-1952.4876
-1480.679
-946.09593
-351.89366
18401.56
15873.802
11605.843
15574.586
11611.812
14047.268
12142.924
11099.238
11607.481
9918.0024
11089.599
9465.5615
9035.2751
8232.1527
7388.5795
6743.8808
5939.6858
5354.1045
4704.7773
4199.8298
3683.4046
3325.581
3033.8644
2668.6552
2353.168
2113.9319
2228.3403
2092.2731
2021.1501
1890.4863
1832.8567
1647.0078
1514.4981
1430.0726
1299.8507
1225.7968
1278.3241
1081.1199
1270.2871
1070.2778
1133.8874
927.63344
882.11913
545.57502
684.35563
100.00725
339.44077
50568.769
29885.626
34189.649
29357.238
31359.613
29484.06
26918.964
26601.686
22685.891
21405.492
18729.733
18188.285
15527.193
13889.62
12521.175
11000.938
10044.523
8797.7656
7818.0523
6737.9038
5711.2591
4566.3758
3541.438
2253.4009
1737.701
918.56467
687.22019
578.47357
418.2474
444.09293
242.45315
-4.5619482
-298.1659
-630.94998
-1074.5696
-1118.0166
-1531.0284
-1591.8989
-1750.2539
-1358.7663
-1027.9661
-603.75076
-198.9683
239.68057
581.03231
983.74349
1375.0092
42336.773
35374.173
34757.757
33858.604
34193.254
33984.093
35013.704
37272.395
37931.365
35441.454
35278.989
34736.932
35458.547
35854.052
34501.189
36551.258
36346.288
35754.639
35709.733
35679.456
35117.496
33489.716
34289.446
34312.196
34461.393
33969.805
33611.108
32561.685
32179.568
33467.131
34003.776
33923.219
33660.825
33569.974
32522.024
30678.297
31047.637
31145.189
31337.372
31008.77
30678.424
30466.299
29778.363
30192.443
30206.776
30112.763
29838.742
30108.557
29760.054
27893.195
27917.295
27946.617
28132.473
28002.106
27804.037
27866.81
26876.667
27169.1
26691.467
26944.477
26540.035
26996.266
27003.297
25159.684
25048.305
25032.816
25027.727
24907.605
25166.223
25211.647
23745.351
23938.27
23606.16
23676.515
23678.5
23837.064
24107.337
22255.406
22038.358
22078.511
22141.623
21984.466
22318.216
22531.871
20810.614
20684.363
20519.653
20533.879
20579.846
20770.735
20814.135
19125.612
18923.751
19032.152
18973.657
19130.563
19171.881
19534.177
17606.226
17574.712
17290.263
17460.643
17389.517
17865.831
17712.12
16049.979
15910.282
15943.194
16011.386
16077.527
16212.956
16232.543
14515.979
14446.725
14413.045
14409.136
14612.407
14836.412
15002.489
13022.071
13010.011
13028.2
13002.305
13240.55
13447.419
13384.36
11621.303
11586.832
11621.801
11629.607
11924.901
12075.831
12129.531
10256.244
10279.144
10337.913
10337.683
10559.707
10767.475
10812.604
9052.6706
9019.8561
9132.2816
9077.3346
9369.9383
9579.9838
9605.7885
7912.7204
7876.9803
8028.8693
7967.5641
8242.9942
8417.6558
8456.7477
6886.9463
6791.1319
7051.2361
6937.7473
7168.9391
7279.9083
7422.2006
5898.5007
5715.9445
6114.3281
5900.9903
6123.6374
6243.1424
6387.4401
4938.0639
4623.9542
4998.2696
4909.6618
5039.7509
5086.4265
5355.7571
3930.9531
3657.7365
4160.7498
3908.4247
4043.0821
4093.8908
4270.1879
3209.2532
2771.5383
3165.8274
3106.3753
3144.0801
3223.1378
3540.2187
2552.4308
2218.7933
2558.5454
2444.1384
2493.3418
2399.1429
2768.8534
2044.6997
1593.3226
2209.3795
1923.6763
1965.3625
1889.5522
2274.902
1677.9197
1473.4005
1808.3389
1593.886
1676.1443
1525.0653
1897.2341
1465.9451
1225.8906
1634.5738
1491.2199
1464.552
1274.1725
1670.2164
1265.6446
1241.6171
1570.2165
1377.1078
1297.4032
1185.9023
1534.2399
1218.562
1281.1759
1516.1019
1399.2791
1359.2208
1204.1742
1560.104
1237.8988
1357.5376
1562.3659
1495.3223
1382.4394
1299.7134
1521.7193
1291.3646
1471.625
1627.3891
1580.0929
1494.5099
1276.5921
1640.32
1418.8379
1536.0495
1676.3728
1653.065
1530.4584
1575.0667
1722.1557
1405.3456
1609.8188
1673.2834
1761.3928
1771.4906
1505.4121
2501.7731
1702.3293
1981.0835
2114.1102
2234.493
2000.5753
2103.2735
1872.7712
1764.2141
1788.0726
1823.7513
1938.0212
1855.3928
1720.3441
2237.1329
2070.9333
1971.8556
1964.9309
2143.8917
1963.7131
2040.7693
2269.2149
2238.4258
2104.6603
2155.3156
2260.7363
2177.2564
2170.4605
2481.2291
2589.262
2458.6496
2447.2263
2567.5111
2448.6623
2491.1678
2710.5287
2767.2575
2660.1553
2636.9894
2786.0135
2677.5376
2737.0991
2873.5261
2922.4607
2771.2444
2830.3116
2904.6482
2797.7599
2875.5179
3057.027
3225.0721
3213.7218
3191.1805
3278.5672
3184.1489
3362.6191
3259.2533
3052.3592
2948.078
2988.8402
3054.5824
3041.1458
3031.1269
2944.2686
3747.9508
3699.6919
3679.9252
3695.2556
3640.0227
3658.2039
3702.3404
17533.717
13139.54
12060.043
11637.949
11501.726
11737.763
12846.485
19193.001
20431.139
19308.566
19386.946
19303.958
19411.183
19711.012
18124.221
18714.257
18921.234
18475.656
18541.943
17845.771
17794.961
18205.214
19173.398
19579.943
19486.132
19145.075
18696.404
17646.609
17374.669
17869.127
18460.728
18222.214
18315.951
17705.357
17344.284
17264.551
17643.547
17261.702
17168.332
17022.729
16653.769
16513.326
16352.518
16666.402
16809.742
16776.854
16715.382
16559.284
16261.547
16105.116
16303.987
15877.629
15721.834
15703.857
15457.461
15615.562
15450.061
15661.145
15392.474
15302.544
15178.394
15229.473
15365.507
14959.684
14929.075
14599.655
14397.298
14588.357
14475.903
14563.399
14205.2
14441.122
14041.672
14014.199
13918.196
14008.51
14218.249
13610.976
13733.165
13270.75
13174.845
13164.96
13249.993
13352.056
12859.674
12993.945
12722.207
12673.55
12559.237
12764.714
12784.175
12194.837
12150.925
12007.968
11732.039
11864.943
11811.659
12228.886
11530.208
11410.24
11234.02
11048.815
11204.053
11017.784
11342.697
10711.551
10472.907
10390.268
10289.163
10332.937
10269.042
10606.663
9797.6248
9757.439
9536.2699
9463.664
9481.3006
9498.8594
9885.6908
8963.9259
8854.724
8682.7561
8717.979
8681.8074
8684.0495
8918.004
8023.1687
8001.3225
7839.2873
7833.5148
7821.7889
7799.4113
8157.2348
7128.3561
7159.995
6989.7535
7040.1394
6971.5915
6995.4389
7315.4551
6187.4963
6299.3141
6153.1716
6153.7523
6118.6501
6193.1854
6413.846
5310.5172
5526.1931
5354.5017
5364.9019
5361.6324
5354.8313
5630.9805
4525.6022
4680.8774
4537.4967
4546.9019
4456.5671
4628.8074
4817.8126
3807.1369
3929.0499
3855.7534
3729.0722
3811.8406
4007.7645
4137.2013
3205.4441
3283.2566
3190.7185
3063.0364
3194.6285
3260.5965
3331.8838
2752.7903
2788.2359
2813.4193
2689.5023
2583.8347
2749.9958
2929.6157
2367.5448
2427.6832
2310.0353
2093.8844
2354.5259
2504.8458
2475.6138
2255.4878
1682.7484
1733.8543
1828.2519
1884.5744
2124.5794
1960.9539
1665.9399
1691.3629
1843.9724
1588.3092
1635.2468
1957.8312
1597.3138
1580.5151
1513.8764
1507.0995
1428.3112
1501.8957
1764.5326
1394.9191
1445.7689
1347.1802
1462.4294
1410.3537
1374.1755
1706.4128
1302.6828
1388.0697
1403.2182
1501.6359
1414.1848
1402.027
1776.7901
1343.49
1496.7796
1456.8945
1534.4174
1487.8708
1496.6702
1868.9016
1356.5409
1624.5167
1566.147
1673.2889
1649.8311
1606.5918
1888.6328
1544.6871
1835.4937
1733.4232
1827.3533
1802.3721
1709.9872
2223.852
1815.332
2084.6732
1881.4246
1989.9934
1975.5984
1979.3945
2263.0444
1943.3642
2430.46
2149.3419
2193.1727
2271.1856
1988.642
2571.7594
2068.1376
2648.3529
2150.5745
2348.8003
2363.603
2304.3658
2722.6652
2400.1827
2952.7068
2463.1967
2598.306
2573.8407
2462.6591
2772.461
2565.8624
3069.9081
2396.5393
2635.9376
2568.7959
2520.4468
2889.6275
2689.8566
3253.8645
2663.3977
2870.7527
2824.5386
2735.2316
2987.2414
2764.404
3102.8894
2454.2428
2678.4659
2581.9761
2525.6201
2782.059
2718.3309
3161.2355
2632.0402
2791.5843
2776.3138
2718.6132
2914.1435
2733.9262
2731.2851
2201.9972
2357.8069
2296.2688
2196.4572
2312.6403
2309.1227
2781.3239
2423.0764
2470.0454
2458.5851
2422.422
2619.9578
2429.3911
1718.5808
1229.3135
1295.7338
1241.2613
1226.4811
1126.6593
987.59259
2028.9577
1984.3569
1766.7263
1768.8091
1727.3536
1793.8237
1907.3703
6889.4864
5326.397
4621.0453
4422.8661
4119.7703
4322.9417
4335.9757
6102.8239
6818.6416
6361.0612
6493.3591
6286.0638
5997.1675
6091.4428
7627.4572
7778.6438
7739.5558
7781.1719
7548.4101
7326.275
7057.3623
6528.3931
7179.3859
7850.373
8035.8485
7656.0098
7592.0727
6613.2388
7459.4939
7781.8901
7831.7532
7608.6755
7515.8046
7079.3192
7362.5271
6529.7345
5888.0716
5958.2592
6488.3985
6059.1966
5848.9416
5804.8297
7370.4803
6550.3171
6977.6115
7093.9418
6883.9398
7319.7648
7012.0452
6943.0838
5819.2596
5617.6411
5393.2001
5432.5585
5500.3479
5439.5377
6718.673
5632.0371
5864.7502
5976.7166
5953.8204
6314.8517
6212.2751
6473.3562
5283.272
5335.5376
5141.142
5146.8089
5495.904
5643.727
6242.4963
5022.4749
5180.0489
4961.1481
5066.387
5306.5938
5398.7365
6078.2797
4609.015
4833.1864
4664.7662
5014.6327
5151.3805
5624.1783
5717.5003
4291.0694
4580.868
4538.435
4623.9844
4868.4578
5254.8802
5170.1038
4293.258
4312.76
4192.9015
4461.7299
4709.7184
4820.1446
4551.2254
4191.8794
4276.4208
4099.2313
4054.8501
4445.0199
4756.8425
4213.0169
3912.6945
3989.9458
3759.2718
3894.2607
4102.4091
4437.7625
3993.2875
3640.9029
3792.9879
3575.2939
3600.5166
3893.101
4250.5346
3617.7257
3276.8778
3459.596
3198.9687
3313.753
3534.9149
3818.2298
3299.7889
2974.3078
3141.9445
2926.3295
3006.0247
3178.1271
3595.4499
2903.6416
2540.744
2761.2824
2545.7364
2642.2486
2814.6672
3156.8947
2565.0959
2240.4346
2429.1321
2223.4121
2377.8567
2424.5175
2805.0128
2202.4826
1847.6162
2044.3477
1882.2219
1978.2455
2009.1683
2402.9905
1846.3061
1525.9417
1761.0373
1487.8524
1721.5805
1633.2669
2069.0735
1579.5196
1183.3224
1381.0021
1199.8629
1407.5335
1144.5025
1511.7315
1298.3279
782.08369
1090.0413
917.52344
1051.1863
733.14995
1313.0521
1024.3181
430.1874
825.65353
474.99102
699.61259
457.39947
675.40013
958.82783
179.20722
543.25114
230.83477
560.60274
0.77345568
547.2591
739.96309
-37.968628
237.08919
69.796757
286.13075
-283.77326
293.59043
696.61813
-140.75807
280.33609
-163.37225
232.96785
-493.60428
137.67161
720.38958
-276.0493
-15.579729
-241.81223
129.97615
-668.94891
37.938657
723.10693
-317.19818
60.832235
-215.48414
130.70468
-660.87695
53.654194
842.0019
-232.71995
90.073787
-249.68816
152.76787
-650.33275
23.836854
990.17152
-127.58963
152.36697
-110.23446
266.30583
-598.85485
146.65308
1194.1657
48.405558
358.01071
46.872079
396.3358
-324.06791
325.85591
1447.2394
303.82371
542.98497
226.28077
620.42296
-189.65913
368.04776
1721.8139
544.41322
808.65629
473.01133
820.43453
109.26697
625.62777
1940.3033
806.85613
1016.8099
693.54484
1103.0231
318.1534
836.13581
2146.0054
1002.7135
1290.7147
952.31077
1290.5067
631.82121
917.42298
2242.7514
1338.4853
1432.4439
1233.831
1427.4674
852.77859
1108.0379
2346.7106
1460.18
1512.7436
1418.683
1554.2764
1182.9759
1194.1899
2291.1251
1662.4194
1599.2106
1585.3344
1635.7689
1247.9361
1205.2698
2230.1855
1601.142
1536.4008
1582.6599
1541.1774
1453.5447
1261.3094
2028.1597
1644.29
1511.7704
1595.0053
1560.5874
1477.8834
1076.4938
1678.6108
1300.8218
1156.0108
1304.0328
1128.9692
1208.7594
919.14251
1517.2643
1259.5365
1116.7692
1245.8909
1072.7072
1423.8266
837.2507
580.988
352.45924
290.38745
389.21137
278.21722
404.52233
-111.03629
356.10698
358.10453
184.06738
230.94135
176.84913
304.686
306.28002
2656.8551
2349.5035
1962.802
1959.322
1726.3962
1647.3323
903.46141
2041.8862
3408.2354
3595.6125
3963.8643
3777.5185
3426.4366
2934.9369
1886.6047
2057.872
1880.3329
2030.3137
1923.4171
1702.1112
1018.6286
2356.5046
3956.1441
4797.4882
5279.1121
5151.5426
4736.202
3828.6044
1876.0618
1934.3217
1217.9709
1072.0807
928.55625
797.61609
969.44459
2219.6381
2970.366
2976.8805
3437.9797
3377.5978
3608.2757
2895.3667
2063.5773
1747.1364
1561.4825
1752.2599
1644.9224
1213.9294
1817.0599
2726.6142
2379.1565
1920.347
2139.9695
1754.4706
2033.1371
1944.6219
2597.2092
2307.1495
2101.7477
2096.3693
2369.4422
2104.6359
2618.3101
2916.6756
2670.7431
1757.027
1955.851
1611.2112
1585.7259
1654.6482
2921.7809
2538.6977
2450.4489
2356.4993
2727.0161
2493.691
2928.6444
3063.5389
3016.935
2271.5673
2134.3826
2249.2922
2053.7548
2231.7296
3198.255
2891.0901
2128.6465
2639.6251
2806.9549
2428.6586
2866.1311
3125.7036
3267.69
2149.4099
2377.5306
2686.181
2556.1362
2622.7285
2689.9608
2997.9484
2780.1552
2385.1839
2847.3116
2427.6281
2664.6343
2703.9244
2922.2895
2810.0606
2502.6327
2810.7044
2636.1325
2766.8341
2636.8634
2852.4981
2845.4613
2494.7864
2868.5248
2547.0981
2734.3273
2622.8253
2781.787
2798.1398
2490.1288
2775.0017
2576.1958
2703.3163
2492.575
2598.6947
2748.0916
2380.4248
2723.9167
2463.0405
2603.8241
2432.9283
2506.4177
2599.426
2299.5079
2578.5125
2346.2446
2471.8091
2332.1026
2216.7989
2468.5338
2157.1934
2357.0535
2174.8133
2236.9338
2176.6957
2052.8173
2295.325
1940.3245
2171.5378
2017.6228
2059.4556
2080.8115
1801.0144
1996.4527
1816.3883
1909.5717
1783.0486
1667.9487
1899.8924
1470.1046
1849.69
1601.8533
1649.0864
1630.1852
1600.9632
1721.8432
1268.1682
1710.6588
1282.4457
1387.7741
1480.2584
1203.7853
1573.4674
1128.1397
1430.9694
1180.9174
1250.6531
1303.8011
1127.0041
1288.4131
868.11738
1267.913
1077.4931
1036.4607
1228.203
855.15103
1200.544
643.95871
1202.7375
886.71449
911.52887
1157.4032
675.94328
1095.2929
536.19459
950.8743
882.56332
618.77313
1081.6606
454.02438
936.87529
388.06476
837.75603
752.59392
597.79113
1088.9756
334.46968
891.59617
362.0772
787.62928
746.0624
466.77053
1023.3574
208.10769
869.30447
309.94892
688.78767
651.60221
357.10921
996.79423
117.36495
858.88805
252.65966
641.29647
636.53135
366.94471
1063.7075
127.98366
901.30923
270.62379
609.62035
599.69671
318.05056
951.68073
30.959588
905.33196
250.37489
525.76748
564.27737
255.02657
967.35359
57.456907
916.19001
229.76912
460.91398
500.6091
291.10149
867.76134
77.635681
956.18978
253.33168
391.42045
535.40103
142.1295
867.67518
16.152314
860.13697
176.97564
356.13678
371.47454
179.41519
739.40345
71.995359
740.87275
244.4976
286.19193