/*--------------------------------*- C++ -*----------------------------------*\
  =========                 |
  \\      /  F ield         | OpenFOAM: The Open Source CFD Toolbox
   \\    /   O peration     | Website:  https://openfoam.org
    \\  /    A nd           | Version:  6
     \\/     M anipulation  |
\*---------------------------------------------------------------------------*/
FoamFile
{
    version     2.0;
    format      ascii;
    class       pointScalarField;
    location    "0.69";
    object      E;
}
// * * * * * * * * * * * * * * * * * * * * * * * * * * * * * * * * * * * * * //

dimensions      [1 -1 -2 0 0 0 0];

internalField   nonuniform List<scalar> 
28033
(
60043.918
53739.553
16991.529
16613.008
64503.028
64883.811
17391.177
17757.596
35569.12
24797.839
16759.947
11494.077
6678.9983
4007.4338
2398.2731
1971.2824
3077.802
5128.2929
8867.2935
14479.362
21611.942
30286.686
47552.894
17801.986
17401.202
17311.351
17216.969
16891.872
16969.075
16492.914
16723.552
16649.75
16557.127
16795.734
16692.71
16876.056
17097.827
17392.55
46691.647
29621.143
28218.111
27660.709
27911.015
27733.595
27493.302
26974.841
26340.64
25513.767
24622.403
23612.772
22501.191
21358.516
20119.888
18891.762
17672.923
16584.04
15507.207
14459.754
13586.166
12746.336
11939.594
11258.163
10466.549
9929.5236
9120.7953
8576.1493
7799.5334
7211.8689
6639.9582
5973.1636
5315.7686
4750.9679
4193.4971
3896.9268
3224.7096
2886.1808
2474.7229
1997.596
1624.5129
1299.2537
1003.2555
806.92098
692.11004
689.2336
725.00566
882.20643
1022.9881
1238.6259
1403.0103
1585.5737
1714.1215
1829.8655
1915.5413
1993.826
2068.0383
2152.737
2249.3802
2365.8355
2492.4014
2645.9724
2790.8253
2994.5245
3200.0289
3427.5246
3710.304
3975.6811
4345.5026
4828.5632
5210.9608
5750.5017
6229.6298
6798.8844
7338.5441
7890.2749
8414.7286
8970.3258
9431.2841
9915.5787
10399.592
10820.593
11282.017
11571.978
12032.89
12396.809
12866.635
13256.898
13829.396
14175.214
14958.651
15182.954
16206.267
16530.988
17268.894
43106.953
23296.673
28526.708
25555.993
26353.116
26194.74
25420.959
25178.437
24490.435
23615.317
22921.494
21828.184
21011.185
19882.366
18884.832
17749.662
16699.784
15478.891
14429.766
13563.8
12424.76
11710.808
10891.121
10386.508
9625.5274
9236.622
8486.3054
8005.5158
7197.632
6672.7706
5694.7523
5121.7828
4445.2859
3823.4768
3261.5446
2806.1505
2496.9026
2013.0201
1770.9716
1583.5299
1353.4943
1217.193
1088.9075
1019.5969
973.1551
1000.5895
1060.9618
1177.1863
1329.229
1492.5685
1666.7356
1810.9463
1924.6502
1990.9864
2009.3185
1988.9393
1949.083
1904.285
1886.6719
1909.5692
1993.1506
2142.837
2358.045
2641.5229
2969.0088
3341.2619
3764.9843
4204.1892
4715.5176
5159.951
5662.9872
6170.4141
6772.3493
7282.4236
7867.308
8406.5103
8903.1487
9443.9726
9849.3476
10323.588
10690.493
11082.889
11441.641
11825.07
12188.996
12612.257
13024.759
13492.969
13969.697
14489.299
15007.999
15540.215
16078.369
16580.964
16996.151
41890.828
27663.14
19240.827
14804.688
7939.3766
4826.4164
3222.7465
2786.7177
3999.9658
7355.8696
10674.359
17080.651
24729.243
36031.17
47748.231
82496.194
36967.791
19685.031
30556.067
26250.741
27089.575
26982.205
26200.937
26093.881
25048.945
24362.739
23017.602
22462.515
20692.163
19993.126
18358.315
18214.553
14804.752
15844.065
12804.809
13077.606
12556.321
11640.893
10843.387
9781.6178
9317.187
9078.9366
7511.0062
7980.2272
5409.1157
5149.9742
4404.2986
3848.9693
3598.052
2980.8332
4067.207
2334.6668
2805.647
2394.0263
2132.6271
1827.1744
1532.7846
1272.2542
1103.9985
1023.3623
1052.6652
1156.6315
1319.928
1480.5357
1616.4889
1675.3053
1657.7441
1557.5909
1403.4382
1239.1738
1103.2068
1044.2812
1089.0295
1248.6713
1519.2291
1871.2714
2280.5596
2704.3804
3119.6923
3512.6596
3863.5936
4275.0375
4316.356
5099.4971
5309.5369
5752.8823
6137.4006
6645.9158
7137.4574
7613.6282
8064.7452
8488.8311
8882.9897
9241.1208
9610.385
9969.2196
10371.051
10788.883
11260.026
11744.443
12275.559
12789.945
13335.626
13834.107
14357.574
14827.17
15331.087
15822.882
16255.497
17031.237
17534.294
17740.688
17036.608
17078.429
16860.111
16812.289
16657.095
16667.551
17225.095
16435.838
17175.606
16587.275
18001.354
16886.876
18180.255
17965.817
16592.369
16685.865
15906.166
15431.03
14874.612
14344.056
13852.814
13328.516
12875.04
12402.462
11970.423
11580.507
11142.906
10748.466
10335.891
9919.937
9487.3005
9035.9054
8571.8757
8095.5112
7610.068
7138.2789
6630.5223
6287.9815
5750.1159
5396.9733
4132.3729
4759.6539
4103.1015
3844.993
3491.3023
3182.478
2910.9535
2678.6551
2494.8611
2358.6097
2266.9383
2210.0596
2176.2774
2149.6472
2118.2392
2070.9397
2002.7223
1916.7529
1817.4556
1723.385
1632.377
1589.3367
1564.7979
1592.114
1679.8447
1794.0909
1975.6198
2146.0026
2436.0936
2580.4671
3170.7436
2893.0983
3676.8472
4546.2096
4205.7965
5249.7775
5844.2867
6744.388
7193.1186
7853.0532
8385.6011
9092.4004
10090.489
10922.319
11536.908
11508.201
13442.333
13750.102
14433.708
15945.561
16697.199
18242.083
19015.813
20619.66
21819.817
23154.051
23840.667
25896.393
25877.106
26928.495
27827.082
28464.414
27610.804
28237.797
29000.525
29756.261
25276.209
50286.965
38567.608
37972.949
36663.811
36751.869
37570.893
38107.386
37981.465
38322.657
38376.259
38219.88
36904.071
36167.609
36778.113
37409.747
41182.781
36923.432
38558.183
37238.575
39684.314
39582.835
39103.264
41939.7
44708.574
43181.059
43039.209
40896.459
39329.785
38580.798
37458.833
41975.698
17143.973
17123.455
17146.444
17110.317
17086.486
17063.326
17063.113
17065.121
17111.578
17140.665
17210.77
17219.113
17311.254
17146.197
17676.219
17556.073
17352.741
17513.598
17361.144
17455.07
17424.98
17435.4
17449.162
17492.868
17523.978
17614.592
17603.454
17702.471
17632.662
18015.723
34223.263
25477.071
23477.465
22904.239
22697.429
22675.426
22535.294
22297.556
21786.161
21347.934
20426.74
19714.811
18661.662
17920.005
16821.181
16133.839
15249.614
14564.45
13725.156
13106.434
12334.083
11575.595
10868.044
10033.836
9338.0412
8576.6114
7912.2802
7323.1964
6855.8336
6450.7165
6060.0732
5847.0066
5631.1353
5470.9898
5286.4145
4935.6043
4708.3969
4362.5239
4132.4256
3797.7074
3602.0502
3372.59
3243.381
3095.2596
2948.2221
2808.6773
2629.4358
2449.6485
2227.593
2032.013
1842.8304
1725.5307
1682.8648
1746.6577
1916.4374
2184.6762
2529.5756
2919.5321
3322.3301
3706.7983
4045.8942
4348.2967
4568.4964
4785.6791
4932.4107
5041.0463
5291.234
5455.6023
5741.9656
5821.6069
6131.0305
6373.1563
6659.6332
6971.3343
7289.163
7660.2305
8064.1313
8491.2464
9002.9745
9498.961
10099.497
10646.768
11263.618
11853.527
12401.47
12960.356
13405.445
13858.792
14281.008
14636.959
15138.875
15461.12
16140.291
16516.167
17303.071
22225.822
18181.27
18361.701
17407.131
17444.142
17131.151
16974.371
16750.187
16421.016
16021.387
15454.024
14980.211
14293.098
13690.258
12964.945
12452.603
11704.722
11193.979
10567.93
10068.443
9457.3884
8961.108
8382.9887
7857.5523
7312.5099
6831.4288
6336.3128
5914.2794
5514.0437
5186.9336
4902.6815
4673.7177
4392.1648
4141.8749
3914.101
3669.1832
3481.2442
3259.7772
3018.0905
2810.51
2625.444
2482.1976
2349.7302
2243.499
2163.9254
2126.5056
2077.8175
2048.8904
2014.8036
1988.0302
1964.4095
1965.7389
1989.2815
2053.5705
2158.4708
2307.5627
2492.3763
2707.5003
2937.9778
3170.7225
3403.5176
3622.8206
3830.4585
4042.548
4266.5321
4484.3121
4739.7283
5276.5061
5493.1985
5805.2884
6210.3387
6519.4242
6867.6681
7257.6954
7656.0274
8085.3739
8529.6897
9007.4956
9516.237
9985.7524
10564.916
10996.515
11589.828
11902.318
12574.187
13037.515
13534.92
13881.318
14442.757
14738.277
15337.467
15639.312
16383.106
16388.475
17666.063
14214.575
11639.25
12975.132
12452.57
12658.866
12255.131
12206.989
12027.008
11784.63
11527.613
11163.851
10828.122
10316.755
9940.6355
9442.8771
9039.8668
8580.96
8218.6899
7791.1821
7435.1267
7042.0083
6659.1047
6268.1995
5855.1403
5469.7222
5079.0743
4726.5917
4404.9025
4145.708
3905.4588
3711.6933
3533.6699
3407.3641
3277.7394
3147.986
2990.6348
2804.8153
2579.1841
2444.2254
2255.0216
2118.617
2011.7361
1880.4768
1853.4879
1825.8161
1796.6404
1768.1315
1745.7826
1707.2089
1667.0768
1640.8385
1626.0114
1651.0139
1713.3401
1828.4172
1985.8503
2186.4145
2411.5962
2650.5648
2891.8059
3121.0848
3342.4012
3545.7293
3756.9633
3956.7231
4164.8312
4445.5663
4648.4464
4993.8655
5279.5901
5651.4806
6009.6108
6469.5214
6905.0737
7346.2072
7812.7428
8279.6119
8778.219
9260.3029
9763.2167
10282.483
10752.313
11235.624
11857.622
12337.99
12673.165
13085.394
13541.538
13988.825
14323.973
14910.176
15173.059
15929.996
16025.957
17761.721
8909.5312
7093.0193
8032.8497
8272.1079
8391.0871
8345.7015
8297.9501
8245.8206
8023.9347
7962.3437
7671.7135
7526.7334
7161.2211
6999.2234
6566.7607
6409.9982
5996.1297
5810.0695
5451.4334
5248.5136
4914.3431
4688.835
4371.7428
4131.4775
3841.1445
3601.9754
3347.6819
3149.281
2940.8642
2799.9729
2658.7936
2564.7155
2464.3813
2361.5666
2287.2719
2138.0649
2066.1959
2047.1647
1935.1
1843.5611
1735.7207
1657.7795
1595.861
1550.4501
1513.4179
1501.585
1513.3064
1538.3904
1568.5761
1611.7618
1657.0835
1707.6919
1768.4096
1837.6828
1923.6665
2026.9338
2150.5017
2292.6995
2456.8891
2633.7756
2827.186
3036.2727
3244.8358
3487.9401
3718.3529
4004.5409
4271.1096
4593.4352
4970.0062
5250.5281
5738.419
6167.4073
6492.1493
6846.5626
7330.6425
7770.8775
8240.5388
8706.1244
9190.7387
9671.3385
10165.162
10618.644
11180.548
11549.59
12113.85
12523.819
13168.763
13505.175
14109.083
14399.446
15099.571
15295.026
16261.972
15997.262
18086.724
5481.0238
3630.5125
4702.8401
4648.4231
5141.5625
5053.5398
5222.8234
5105.0841
5128.704
5052.3405
4950.746
4836.9907
4663.9982
4524.4199
4314.7128
4197.136
3973.2186
3886.9304
3681.8189
3581.2043
3389.0005
3267.451
3063.2329
2914.9416
2698.5043
2541.0609
2372.0032
2230.3814
2129.6594
2046.0943
1991.8359
1955.9225
1918.1324
1896.8129
1843.4465
1771.2918
1789.383
1558.0269
1472.0657
1401.6782
1343.3936
1284.9807
1244.899
1236.3732
1240.9984
1250.0765
1264.4441
1272.7058
1285.7975
1298.8333
1321.1565
1351.9442
1407.5696
1478.0884
1580.0287
1700.1807
1845.296
2004.9902
2177.5683
2359.2112
2547.1515
2744.1097
2945.1284
3185.4527
3394.0567
3691.2795
3996.5707
4234.3497
4622.6098
4984.168
5463.7813
5803.7933
6328.4601
7020.7847
7420.7074
7911.016
8375.3717
8876.8207
9367.0773
9864.8447
10367.612
10871.425
11342.419
11856.397
12302.207
12759.427
13141.233
13547.801
13981.93
14346.963
14872.718
15227.662
16028.281
15871.681
18256.987
3089.9721
1687.1968
2223.5305
2284.8448
2581.7752
2734.3287
2772.6006
2911.9181
2890.0419
2989.0982
2899.7454
2969.5589
2820.2033
2862.4806
2671.6714
2687.4443
2499.1554
2494.2845
2317.753
2302.1015
2145.9542
2102.0306
1954.0945
1888.6095
1751.5082
1701.8119
1566.2049
1530.7852
1441.668
1411.8018
1371.5772
1352.1898
1339.4296
1325.6539
1295.392
1293.2369
1232.6807
1347.9966
1281.7943
1178.6575
1116.7573
1081.4659
1039.6126
1043.6807
1034.3238
1043.9587
1057.0972
1087.3657
1121.1724
1166.2447
1218.6756
1284.5453
1360.959
1453.2184
1558.2024
1678.4731
1810.9755
1952.6058
2109.8211
2271.1952
2442.4956
2639.4095
2838.6824
3045.7403
3333.5618
3572.5339
3886.9389
4220.3361
4611.4779
4984.1898
5373.7568
5825.1077
6247.4241
6552.7681
6993.8014
7480.809
7965.4051
8464.6603
8946.8185
9438.7436
9936.0294
10379.593
10910.105
11297.857
11841.632
12215.163
12807.225
13155.178
13820.547
14103.562
14900.747
15097.695
16115.652
15939.866
18368.774
1847.269
255.42464
756.27873
567.77157
972.71839
1032.9391
1298.7743
1371.5764
1545.406
1600.0672
1671.3175
1694.1183
1683.0579
1668.1304
1602.2249
1608.8718
1516.1934
1542.9389
1463.3382
1490.5717
1407.4053
1421.7596
1312.1603
1295.9489
1198.8281
1138.0809
1064.4943
1033.6191
986.79663
1000.9896
997.19346
1037.4865
1058.0182
1077.5248
1087.5599
1078.5635
1034.1861
957.95543
905.79051
849.05877
805.25164
788.33805
768.05927
788.33546
811.39167
857.5382
919.69104
970.85179
1029.5976
1074.3054
1125.8596
1168.636
1228.7476
1293.7777
1384.5828
1490.9054
1624.0809
1772.8423
1944.0681
2118.2616
2321.9699
2518.8567
2730.4981
2990.318
3216.1065
3525.1162
3822.0784
4179.2302
4550.3197
4933.9127
5426.2915
5811.4658
6333.3837
6824.9977
7376.0372
7857.6905
8370.9097
8841.6608
9359.1474
9840.976
10345.479
10843.617
11324.733
11808.274
12278.309
12722.031
13147.758
13575.641
14000.102
14357.077
14875.357
15168.035
16096.654
15865.623
18475.809
1474.4631
91.039587
242.52955
163.79421
317.10939
505.37972
616.90569
783.54705
887.83219
1034.4789
1079.917
1218.1208
1198.4214
1296.5912
1253.5119
1303.5413
1235.805
1270.2155
1185.6296
1199.0654
1107.3607
1095.3423
1028.664
1046.3731
940.29939
962.08941
885.224
883.7975
839.03428
843.45333
822.18392
838.138
828.74167
843.1732
856.65207
821.96337
832.52003
809.65931
771.71226
734.86427
689.08793
663.10233
646.57571
648.53078
650.14927
687.05933
714.18233
764.10114
808.81803
864.76229
914.5138
973.28303
1032.7477
1101.706
1183.1188
1276.9638
1392.5791
1521.34
1672.7362
1843.1578
2030.6146
2229.8743
2470.1828
2695.4239
2979.2412
3260.2979
3592.2321
3941.0109
4311.2352
4733.1484
5129.9658
5592.9557
6057.5292
6466.9725
6871.5702
7359.4629
7827.6426
8322.3069
8803.7292
9274.9241
9762.0308
10201.164
10691.996
11100.509
11608.984
11992.728
12546.776
12922.888
13524.102
13919.999
14660.027
15056.214
16022.358
15973.303
18358.453
1809.1623
203.22735
343.3806
114.90537
292.4884
430.31589
654.0337
782.55021
994.59824
1090.5647
1210.0117
1229.8914
1250.9575
1222.095
1168.7061
1142.8715
1084.519
1080.3177
1052.8967
1085.7463
1082.5444
1147.3048
1085.4931
1028.7626
959.3191
916.47616
821.03686
796.49032
740.88066
745.06518
740.04124
774.46077
786.1281
842.40849
799.1495
850.74873
781.87872
767.53486
678.09684
633.95305
564.85526
532.89353
519.47946
523.51055
571.90221
621.22184
698.40476
766.91117
844.60862
905.02284
967.72439
1018.3983
1076.5441
1139.5259
1220.3131
1319.5543
1445.0786
1584.8139
1757.2268
1932.5153
2127.5312
2342.0732
2551.6179
2800.9416
3052.2446
3353.0566
3658.473
4008.4161
4401.086
4811.024
5268.8391
5733.3248
6236.3372
6715.2251
7346.051
7787.2032
8325.1519
8807.0362
9309.9856
9793.269
10280.054
10763.882
11233.171
11713.302
12163.147
12628.954
13058.802
13511.15
13943.473
14384.4
14863.711
15228.441
16032.763
15977.714
18307.501
3553.827
1771.6728
1891.0267
1682.655
1853.9427
1932.6839
2033.253
2089.4519
2213.2956
2329.9156
2355.452
2459.3301
2458.4625
2462.0589
2430.1921
2368.0896
2289.4777
2204.2509
2097.1268
1984.8919
1903.5257
1780.7061
1647.8311
1583.347
1487.6176
1412.6988
1310.1007
1264.3092
1168.3741
1134.4797
1071.2348
1042.9746
1026.2325
975.45245
1005.0208
947.292
935.7901
894.60703
859.22424
832.0613
795.07659
781.6879
755.7897
769.5437
769.05326
805.24842
833.34503
881.16827
921.09476
970.20068
1012.1448
1058.7085
1107.9214
1163.9989
1232.4891
1317.3485
1419.6095
1543.4563
1693.4068
1852.9957
2053.7996
2254.8053
2491.8741
2742.3506
3026.1781
3314.8232
3649.4632
4011.2868
4393.7308
4794.5646
5220.8398
5666.5122
6107.9083
6561.5329
7104.4312
7500.8574
8008.335
8475.7913
8971.7032
9461.4479
9942.8717
10421.088
10893.365
11340.613
11808.628
12225.22
12709.62
13106.716
13638.069
14041.751
14651.442
15125.467
15912.9
16223.051
18259.9
3925.3739
2932.8631
2872.8648
2847.9295
3017.4644
3093.0068
3176.2759
3256.185
3398.8576
3431.305
3412.5479
3416.5658
3311.3732
3207.1157
3105.9388
2939.83
2894.0885
2712.4641
2685.0406
2531.6448
2529.2807
2369.7061
2258.3975
2123.8265
1967.3594
1773.0833
1608.3628
1416.9212
1254.5619
1127.8812
1013.2085
974.59108
868.53379
906.01067
806.84464
811.99266
749.03635
714.05977
646.0749
581.70821
533.19339
476.3738
474.39886
468.10219
510.45047
551.99413
618.30886
670.15409
727.30692
761.31167
787.21885
799.17118
810.63453
827.32637
864.13869
927.52958
1024.4577
1160.0078
1326.2997
1528.6134
1753.7672
2002.1629
2264.6311
2560.6194
2852.0608
3193.9608
3546.8647
3925.7913
4321.1666
4756.877
5215.1608
5667.9474
6158.8361
6672.2192
7180.3966
7724.6731
8151.2058
8657.6971
9124.5205
9608.538
10095.915
10577.164
11064.486
11551.319
12029.618
12524.021
12986.371
13493.291
13952.42
14459.611
14984.471
15445.196
16115.248
16424.751
17856.214
9923.6838
5973.4721
6475.07
6349.9337
6486.4037
6343.558
6442.7713
6416.4463
6420.7916
6394.7183
6322.9253
6203.9423
6064.1178
5827.1789
5644.7627
5376.0191
5155.936
4885.3593
4673.4329
4424.7743
4156.7371
3971.233
3864.0488
3702.6313
3465.7834
3250.3875
3028.2883
2828.6881
2656.5079
2494.6341
2398.3045
2248.5639
2212.1759
2118.5614
2076.907
2012.1459
1929.7856
1849.6622
1734.9942
1651.9099
1523.7741
1456.578
1361.3868
1327.8492
1290.5136
1300.9433
1319.3109
1362.5694
1411.9105
1467.7968
1524.821
1583.7896
1647.4547
1718.4247
1804.1431
1906.6362
2031.3283
2174.0955
2340.618
2518.8094
2713.7175
2915.5838
3128.9853
3348.4684
3579.1303
3836.3554
4104.4051
4401.3774
4745.0167
5117.1923
5498.6833
5918.6738
6386.787
6772.011
7282.3316
7702.96
8159.6396
8664.5162
9141.8666
9637.2388
10112.743
10580.534
11029.944
11470.353
11890.926
12298.762
12703.236
13099.953
13507.54
13960.361
14434.853
14967.71
15763.975
16255.146
17966.176
15297.882
11985.693
11746.74
11289.737
10946.485
10670.653
10671.761
10322.786
10359.344
10079.269
9841.8322
9564.1502
9122.8313
8740.3344
8288.1436
7778.4378
7404.9958
6877.8404
6571.9675
6101.9278
5810.5009
5409.3159
5081.2921
4677.1536
4345.412
3849.9378
3504.523
3056.9998
2684.2895
2377.7313
2055.5872
1878.1014
1649.194
1574.2685
1408.2921
1328.0413
1241.5277
1140.2715
1071.7308
956.40706
908.40915
826.25622
800.2327
773.98235
778.63496
785.01138
801.20725
799.41534
790.31242
756.06658
708.17248
650.986
598.03533
565.53514
567.63932
620.34098
723.71965
889.62955
1101.8038
1362.6111
1650.5075
1969.7774
2289.572
2637.9157
2973.3033
3348.4442
3689.2214
4094.0424
4486.4583
4884.3627
5293.1708
5754.5828
6114.2954
6611.9956
6986.091
7458.7926
7871.0212
8306.2858
8739.7233
9213.7618
9683.5512
10190.273
10705.142
11246.226
11779.739
12341.217
12881.444
13447.399
13999.954
14561.569
15136.898
15680.367
16308.443
16735.191
17686.034
23129.03
17921.689
17086.479
15974.15
16195.144
15833.068
15760.96
15644.072
15584.126
15218.241
14936.219
14400.001
13901.605
13227.464
12565.198
11826.082
11208.795
10456.078
9972.7567
9325.7535
8871.7186
8328.6616
7819.8304
7352.6932
6838.2535
6346.6276
5885.1617
5325.7406
4907.4191
4399.6056
4047.6073
3670.5619
3399.7663
3204.0543
2932.8255
2790.8534
2625.2849
2448.65
2262.8287
2111.0848
1925.4901
1795.7535
1671.1194
1604.984
1565.7261
1577.2782
1611.255
1666.246
1723.9592
1770.7739
1801.7456
1811.0176
1807.9651
1797.9722
1800.5726
1824.3086
1886.1618
1987.9747
2136.1605
2322.0253
2542.096
2784.7846
3045.5906
3315.5617
3599.6968
3894.3213
4211.6735
4566.0579
4903.0727
5282.0222
5719.3551
6112.7474
6596.5566
7020.5339
7483.5021
7923.2415
8370.5515
8814.6172
9244.9127
9700.7077
10122.739
10590.487
11026.065
11496.135
11942.684
12411.958
12861.904
13322.667
13775.249
14236.805
14707.692
15204.945
15780.375
16456.468
17394.099
28943.313
22136.489
21058.583
20392.299
21185.917
20689.992
20922.789
20734.689
20290.416
19775.428
18905.63
18152.868
17261.276
16303.389
15584.224
14626.665
14112.045
13189.647
12663.838
11703.126
11170.021
10032.615
9480.174
8398.8561
7759.0883
7031.9557
6479.6834
6121.4218
5836.2049
5757.3466
5602.3286
5573.3264
5442.5827
5347.9117
5050.9448
4874.8923
4533.7749
4222.5209
3919.6493
3585.7553
3339.4386
3090.5033
2885.8087
2683.1255
2480.9455
2262.9889
2031.8947
1798.73
1582.4306
1418.206
1326.8929
1346.8145
1482.0454
1741.112
2102.5986
2542.0722
3011.357
3481.4254
3903.5964
4262.6574
4538.0924
4743.9694
4880.4462
4977.3667
5062.598
5138.3966
5213.2287
5345.7953
5440.521
5706.662
5850.9462
6141.6973
6364.7813
6721.0467
7069.2785
7525.8625
8020.978
8583.1606
9216.6757
9861.2439
10530.986
11191.219
11803.756
12382.775
12884.086
13341.47
13729.072
14103.501
14454.691
14817.137
15245.215
15712.267
16234.774
16910.643
17468.737
21839.769
20834.368
17476.325
16930.736
16569.155
16628.312
16268.005
16509.063
16607.912
16690.663
16516.299
16463.102
17840.134
18972.488
23513.059
15020.586
12362.272
10560.623
10506.421
9743.0509
9700.5755
9363.6578
9529.4074
9715.2949
9591.9722
9730.3021
10055.903
10764.893
12404.753
15476.249
9779.5241
7459.6197
5387.907
5071.5622
4529.4384
4388.9404
4343.2175
4204.3228
4246.973
4315.9169
4547.0301
4743.1829
5481.9527
7218.4538
9697.8474
6222.2581
4778.9567
3620.3802
3055.0532
2894.716
2700.8021
2660.9767
2550.1266
2688.5819
2732.8443
2904.4639
3097.9653
3926.4077
5044.0732
6386.4592
3639.4173
2650.3229
1667.6547
1415.3461
1150.2873
1072.5057
1009.6494
986.51912
996.40309
1061.0371
1152.8889
1430.2183
1886.2917
2572.754
4011.7033
2630
1601.4653
1008.2729
818.61177
665.96027
614.58226
558.2899
565.46124
572.09398
593.13103
715.30565
789.37676
1083.0909
1678.5745
2654.3167
1281.3659
692.41717
368.45262
179.0653
111.27036
24.563333
8.383088
-19.458328
-0.72543038
30.274434
90.823859
237.19622
424.4191
886.11294
1689.7636
1238.3704
670.49632
332.32531
222.9648
121.62545
82.42775
50.9906
53.538829
69.008783
77.131676
155.54707
248.42093
406.46037
811.18157
1616.4546
1379.7247
742.54808
346.6529
188.062
68.004874
9.4697361
-20.382114
-10.467955
-4.5766151
81.451997
131.36663
282.14821
509.53166
1070.2341
1715.9693
2735.0439
1905.1857
1137.5292
930.18518
703.08793
642.72662
582.17519
575.38288
590.55568
597.22743
807.43369
846.38253
1329.7573
2123.9952
3235.6658
3737.9187
2767.5284
1629.5925
1398.6942
1022.9768
977.77706
860.59705
912.22434
921.21842
1019.0421
1230.4643
1549.5578
2177.7979
3272.8658
4512.5105
6886.9291
4680.744
3504.4316
2953.7188
2557.2411
2317.5271
2256.9582
2211.019
2280.498
2356.3214
2691.6066
2727.3224
3844.48
5253.4343
7298.5283
9541.9201
7740.9847
5689.4014
5089.4185
4408.3014
4360.6925
4078.003
4274.1195
4295.6985
4232.834
4730.8866
4982.7795
6063.7618
8273.9332
9672.1156
15834.554
12928.223
10365.53
9689.199
8903.5196
8612.4823
8824.8015
8995.1086
8814.6473
8844.6247
8957.7487
9427.4538
10558.191
12311.081
16970.879
21341.607
22402.875
17144.079
16751.707
15714.073
14706.637
15733.176
16579.412
15272.465
16326.126
15842.465
16429.902
17753.166
20301.612
24972.726
53564.338
46274.351
45445.507
47205.338
48136.164
47523.114
50157.496
53283.733
53574.948
53093.043
51463.622
48877.977
48492.032
49633.726
47685.753
40447.012
34950.401
34073.278
33426.947
31495.3
33423.39
32704.584
32758.472
35058.579
32753.922
33530.739
32545.636
34918.907
37260.716
42614.723
30880.604
31732.923
29834.811
28934.111
29972.601
26737.088
26600.907
26848.12
24966.644
28081.498
27733.168
31262.871
31472.5
31246.019
32708.373
28932.509
32205.955
31867.764
30245.536
29759.884
29490.266
29139.032
29461.99
29645.551
29469.217
30662.849
31374.721
32340.93
32747.647
30398.011
29580.873
31113.968
30818.429
32289.063
31058.927
30901.212
31030.542
30691.775
31102.351
32338.058
31810.08
32741.972
31908.5
31288.538
29890.982
27131.728
30063.395
30620.088
30736.725
30791.711
30641.905
30405.045
30371.96
30589.477
30390.46
31114.428
31151.14
30909.687
30367.735
28000.267
27301.314
29303.911
29984.215
30437.244
30661.996
30840.324
30988.801
30962.984
31181.444
31396.26
31074.606
31162.142
30432.331
29093.962
28075.018
26538.262
27834.388
28859.78
29529.495
30010.81
29920.037
29998.645
30217.305
29998.816
30313.353
30095.126
29828.741
29162.398
27653.397
26937.897
25628.276
27110.211
27928.334
28625.093
28626.933
29092.427
29139.945
29208.387
29289.455
29083.162
28962.941
28518.392
27905.875
27130.751
25869.968
25209.147
25817.323
26750.758
27112.421
27624.213
27676.587
27861.038
27900.038
27676.711
28014.609
27487.796
27548.962
26772.552
25958.115
25677.87
24170.672
24919.146
25524.204
26114.256
26356.469
26712.649
26814.542
26885.113
27100.448
26645.879
26948.49
26282.946
26027.419
25356.532
24723.636
23666.375
23602.42
24230.147
24545.948
24854.466
24942.166
25035.131
25054.821
24933.549
25004.333
24633.7
24575.58
24029.51
23540.597
23800.87
22353.911
22551.908
22877.968
23235.638
23458.543
23660.002
23869.737
23847.705
24088.756
23903.002
23936.185
23643.884
23370.173
23056.792
22812.277
21267.384
21047.453
21581.849
21595.896
21908.857
22023.837
22145.746
21926.073
21900.465
21830.646
21614.813
21536.48
21197.256
20798.894
21497.999
19891.307
19577.101
20022.859
20299.42
20538.213
20508.434
20704.197
20612.659
20849.694
20768.892
20867.641
20678.627
20449.868
20331.17
20391.013
18501.811
18300.705
18724.158
18636.148
18737.577
19037.492
19000.587
18962.267
18819.462
18726.104
18506.418
18452.235
18379.012
18117.293
18693.413
17056.676
16658.675
16951.68
17172.787
17527.736
17396.505
17576.021
17490.145
17773.596
17658.962
17831.354
17715.46
17305.509
17166.507
17874.911
15644.63
15741.215
15938.299
16053.447
15883.729
16170.877
15975.674
16256.006
16109.853
16093.4
15850.065
15702.952
15878.429
15508.115
15648.962
14758.814
14393.763
14823.723
14640.092
15089.021
14904.218
15505.01
14926.992
15156.783
15077.076
14818.731
15086.672
14974.467
14819.272
15580.044
13450.242
13512.276
13526.93
13855.45
13768.893
13895.737
13911.242
14038.513
14018.046
13897.945
14423.106
13835.64
13715.928
13558.845
13816.888
12794.965
12796.592
13047.625
12959.206
13036.302
13076.176
13192.975
13159.47
13157.927
13117.22
13007.059
13107.79
13541.396
12979.404
13613.236
12175.757
12074.227
12094.81
12254.584
12256.48
12443.818
12297.795
12405.092
12166.084
12735.581
12404.033
12512.962
11845.348
11856.826
13031.331
11794.081
11388.513
11668.417
11510.019
11669.889
11742.739
11754.416
11578.784
11902.308
11572.281
11382.099
11544.699
11702.729
11491.635
12722.016
11117.378
11014.582
10920.191
10991.597
10949.334
10762.904
10942.726
10899.709
10938.815
10882.363
11079.125
11093.624
11108.716
10732.791
12498.22
11047.944
10188.815
10240.16
10083.366
10321.675
10283.163
10403.179
10244.943
10336.216
10261.466
10507.623
10444.981
10212.251
10163.216
11825.811
10020.996
9516.9957
9723.6744
9614.3131
9641.5836
9623.845
9527.7769
9476.004
9528.6998
9496.8045
9385.0913
9677.9169
10002.561
9781.6821
10871.604
9569.5382
8788.6212
8904.4642
8705.8643
8987.9955
8678.7489
8806.2067
8750.0774
8829.8872
8784.7607
8934.668
8326.3161
8805.497
8379.32
10474.221
8427.1001
7897.6233
7912.6714
8161.3379
7596.1374
7831.0809
7852.6106
7815.4761
7919.7453
7893.6643
7977.4441
8366.3211
8037.3406
8033.9348
9049.5825
7746.534
7115.068
6869.903
6913.9643
7026.9255
7034.5074
7027.1802
7006.0871
7005.0961
7044.3929
7019.0436
7221.0858
6980.4893
6762.691
8579.3976
6334.832
6022.6537
6280.4497
6201.7954
6217.1339
6308.5776
6149.4531
6220.3731
6022.6153
6147.7512
6059.1569
6020.9948
6675.93
5871.722
6906.1957
5849.7636
5527.3712
5650.6771
5422.3141
5638.1936
5054.7505
5532.6897
5327.3651
5969.8417
5385.6874
5443.1622
5385.3615
5212.0562
5143.1087
5865.9094
4985.5691
4543.9233
4699.7202
4648.5183
4675.62
4778.1084
4788.7797
4799.0591
4649.9021
4671.1604
4737.0422
4704.8914
4717.4437
4602.0116
5031.4133
4051.7975
3885.1706
4093.5234
4056.3466
4185.8914
4119.4375
4247.1841
4083.7782
4255.4764
4142.5297
4267.5707
4120.0187
4177.6236
4050.3398
4153.0404
3458.9197
3409.8172
3612.2776
3591.0293
3710.2125
3669.0949
3740.7114
3733.1459
3787.2346
3764.5235
3770.3661
3755.0668
3738.7933
3606.8219
3595.9345
2935.7471
3013.8695
3206.4113
3452.4482
3288.6976
3315.3468
3416.6644
3366.4288
3445.8731
3422.8914
3501.9588
3400.3708
3448.9143
3369.6137
3334.2474
2723.9242
2734.1089
3033.1947
2725.6523
3107.2655
3039.725
3119.2069
3064.8476
3217.2176
2889.5126
3225.3961
3092.9678
3156.8597
3067.199
3003.7205
2171.8414
2583.6233
2785.0439
2818.2778
2850.2704
2783.3265
2887.4645
2816.2642
2844.3525
3114.8231
2878.1668
2883.2184
2831.8104
2807.0844
2713.1585
2261.407
2492.8515
2584.8728
2603.5363
2587.3103
2608.6142
2625.1245
2587.4083
2681.1498
2510.5691
2648.0945
2564.1544
2678.6108
2637.0115
2342.944
2182.2983
2199.692
2361.5582
2284.0707
2410.1324
2294.0457
2394.4881
2312.7663
2350.2641
2350.8133
2349.6654
2383.3899
2352.944
2286.2904
2254.9262
1934.3439
2039.1766
2102.9525
2118.6245
2099.9718
2062.9434
2102.0739
2020.8404
2109.554
2005.7287
2115.4033
2017.2864
2045.2591
2050.8036
1966.4319
1803.8083
1824.6531
1890.4068
1822.6806
1871.0904
1779.8435
1830.2208
1770.1059
1783.0309
1774.2087
1764.005
1754.4198
1750.1486
1716.6797
1737.0497
1588.9709
1623.4495
1597.8945
1590.9108
1593.603
1514.4919
1578.9713
1465.3692
1545.6105
1460.419
1493.1216
1483.694
1429.648
1450.6717
1537.655
1443.3552
1413.5823
1400.3879
1366.1867
1368.6997
1304.6963
1328.5849
1273.1397
1291.1252
1250.2707
1258.4329
1246.7072
1188.8361
1213.1812
1402.3653
1313.7905
1285.215
1226.9106
1197.8899
1212.1077
1122.1299
1185.5225
1091.4885
1131.9271
1091.0171
1076.5375
1101.74
1026.2243
1054.9445
1401.2232
1308.7832
1213.3405
1149.1702
1134.5208
1119.5768
1061.7551
1094.2202
1025.4788
1054.8499
1015.8562
1005.2117
1042.0322
965.54555
984.07362
1542.5811
1395.1776
1234.4502
1173.4392
1130.1101
1130.7934
1052.3133
1098.9104
1027.9393
1050.3447
1032.9339
1010.3102
1070.045
1013.3632
1003.2965
1833.1513
1597.9851
1349.5027
1266.8918
1234.3361
1212.745
1144.9136
1180.8438
1110.7412
1135.6274
1122.3168
1096.0567
1179.3639
1144.4802
1091.3275
2234.3008
1894.3222
1511.9935
1444.2743
1381.5099
1350.113
1267.6813
1298.3914
1234.5704
1253.6249
1250.3314
1230.1265
1327.015
1331.1706
1227.762
2699.0911
2216.8255
1717.3418
1633.0388
1554.2954
1508.9381
1428.5135
1455.1112
1389.061
1401.8993
1407.1966
1382.3505
1489.4671
1529.2077
1365.9357
3138.2064
2542.6417
1899.5917
1816.5146
1716.925
1659.535
1561.1811
1572.795
1503.9362
1516.3793
1522.4052
1505.3614
1614.1944
1693.5816
1474.7054
3489.997
2779.3667
2029.8993
1944.8741
1824.8793
1751.2274
1654.0827
1665.9187
1602.9406
1605.6861
1613.612
1591.8316
1694.4291
1792.6123
1528.6665
3678.9029
2904.7543
2081.0697
1998.2722
1861.286
1791.512
1687.8219
1687.8324
1613.3254
1614.3964
1616.3883
1600.9334
1688.1455
1802.6674
1512.4861
3675.8418
2878.5039
2034.8021
1962.0601
1825.5964
1752.4297
1649.2314
1649.1808
1589.0201
1586.304
1586.3581
1564.2956
1631.6325
1737.1078
1437.23
3473.4993
2709.6721
1908.2585
1861.1484
1722.7312
1664.949
1568.8992
1574.6543
1506.1224
1499.4761
1488.5568
1469.0888
1513.3222