/*--------------------------------*- C++ -*----------------------------------*\
  =========                 |
  \\      /  F ield         | OpenFOAM: The Open Source CFD Toolbox
   \\    /   O peration     | Website:  https://openfoam.org
    \\  /    A nd           | Version:  6
     \\/     M anipulation  |
\*---------------------------------------------------------------------------*/
FoamFile
{
    version     2.0;
    format      ascii;
    class       pointScalarField;
    location    "0.69";
    object      p;
}
// * * * * * * * * * * * * * * * * * * * * * * * * * * * * * * * * * * * * * //

dimensions      [1 -1 -2 0 0 0 0];

internalField   nonuniform List<scalar> 
28033
(
1239377.8
-1809258.5
235.22678
307.6292
2311817.9
-2593558.2
436.82328
-209.9452
1065024.3
920818.09
786757.23
640054.92
477507.78
328365.69
174657.2
7423.6438
-164156.01
-314436.34
-502323.51
-604792.65
-816169.2
-999878.73
-975404.28
-707.65486
-1734.5461
-2483.7512
-2335.7482
-2377.1282
-1635.4712
-1193.8482
-317.04754
369.77054
1306.1568
1770.8648
2228.9734
2288.0404
2002.2837
1220.9415
337900.85
351209.77
317380
337543.64
325152
332798.73
330020.65
328116.38
323802.57
321457.54
313833.39
307183.63
301487.34
294394.66
286014.68
277206.94
271104.67
262369.28
254617.71
246520.64
239877.4
231506.13
225732.94
218392.25
211464.33
205456.67
199071.1
192742.11
186547.84
180450.65
174353.66
167643.46
161872.57
155558.96
148864.91
142611.21
136423.53
131100.98
124061.73
119013.72
112850.09
107630.98
102556.55
98336.931
94046.721
90711.174
87437.291
85022.794
82659.527
81119.419
79553.273
78618.698
77703.545
77087.717
76510.779
75998.64
75434.885
74786.788
73988.853
73037.201
71856.025
70456.657
68815.408
67075.794
64981.089
62861.732
60974.433
58397.551
55646.478
53186.471
50631.292
48169.534
45803.799
43543.711
41269.309
39199.762
37103.811
35169.677
33144.364
31272.422
29289.343
27348.084
25176.932
22884.612
20675.338
18344.384
15973.023
13620.423
11101.598
8806.7615
6419.639
4391.0883
2587.5177
1253.0798
199.36672
-319809.66
-261274.2
-308823.47
-273033.79
-310842.34
-301540.04
-308729.34
-299722.4
-304949.65
-293774.82
-294390.15
-284279.15
-279700.92
-272737.53
-265240.04
-257836.84
-250294.26
-241787.39
-235404.81
-227378.11
-219722.18
-214006.19
-205491.07
-200616.51
-193039.31
-187204.27
-181118.11
-174626.92
-169182.68
-162273.16
-156314.95
-150224.73
-143766.06
-138015.35
-131786.24
-126242.9
-119309.93
-113936
-107546.84
-102458.13
-96893.12
-92064.89
-87328.444
-83262.435
-79358.536
-76164.198
-73217.735
-70841.743
-68822.316
-67205.775
-65909.554
-64899.082
-64087.515
-63456.031
-62863.649
-62338.442
-61744.911
-61086.322
-60287.449
-59362.244
-58233.078
-56975.172
-55509.234
-53928.833
-52180.994
-50379.921
-48497.006
-46650.795
-44837.356
-42792.425
-41132.251
-39289.105
-37736.741
-36135.568
-34665.798
-33242.03
-31824.108
-30465.157
-29001.871
-27596.05
-26012.458
-24412.345
-22612.372
-20775.115
-18706.991
-16623.76
-14353.27
-12089.458
-9751.2387
-7486.2829
-5287.6668
-3341.0657
-1623.8188
-363.11091
145.29933
1887081
1770376.8
1272519.5
1283819.4
885633.45
527447.49
329685.81
-28629.005
-298938.35
-648148.25
-894322.65
-1227868.6
-1558816.2
-1829903.9
-1944341.3
-536525.8
-394293.27
-178361.28
-374054.31
-302574.82
-324032.89
-310072.21
-325978.13
-304750.61
-315330.69
-311657.01
-293549.73
-299396.7
-279033.13
-285630.82
-270778.88
-265914.58
-251153.58
-247450.27
-237178.94
-229515.45
-221560.18
-217493.71
-210598.91
-203046.93
-198365.45
-188448.88
-186316.62
-175507.69
-172683.49
-165771.8
-160087.4
-153056.98
-147535.08
-140890.76
-132460.86
-127358.33
-121502.86
-115138.95
-109160.36
-103361.99
-98019.607
-92947.139
-88318.953
-84138.978
-80518.996
-77237.554
-74531.951
-72204.59
-70403.169
-68931.738
-67838.36
-67010.918
-66399.218
-65924.173
-65480.327
-65099.758
-64577.948
-63990.382
-63230.078
-62259.269
-61107.556
-59720.855
-58124.107
-56335.62
-54349.965
-52405.336
-50222.487
-47443.259
-45465.772
-43435.933
-41184.095
-39037.712
-37028.765
-35058.138
-33212.354
-31433.731
-29789.85
-28117.156
-26511.132
-24828.078
-23184.219
-21371.555
-19622.147
-17662.027
-15730.673
-13619.528
-11562.983
-9392.1447
-7311.3921
-5293.9746
-3405.0436
-1839.0633
-494.18293
299.5238
1659.0883
2534.9949
2519.1732
3192.7754
1930.3671
2176.0507
458.85394
164.33498
-1167.8239
-2314.1908
-1881.2343
-3312.1987
-2180.7807
-2631.179
-913.99414
606.69737
1235.1539
2652.4549
4575.5453
6852.159
9435.987
12124.744
14928.912
17632.639
20448.481
23029.183
25421.899
27800.926
30076.787
32142.202
34112.962
36026.625
37791.483
39589.694
41348.133
43136.031
45006.987
46954.171
48922.473
51003.172
53184.516
54549.325
58377.149
59956.615
62261.828
64477.389
66593.804
68517.224
70304.723
71896.553
73260.806
74488.12
75449.974
76337.685
77047.989
77743.85
78377.659
79149.8
79966.672
81062.94
82366.961
84048.769
86076.719
88562.647
91449.772
94905.034
98635.079
103049.96
107962.82
112747.86
118505.3
123864.13
128104.62
137649.68
142429.18
147031.54
157926.76
161400.19
168770.8
171567.87
183646.31
183539.16
196196.31
199758.18
207736.06
213493.57
217577.04
229877.2
234071.16
239410.91
251084.74
254831.91
266497.37
270938.02
283533.1
294770.82
294627.54
302851.42
315013.95
322144.5
322365.11
334437.87
333611.66
335126.1
331064.98
331753.22
345108.73
339495.07
313631.21
398264.05
936728.19
998587.84
1048898
1092241.1
1113430.7
1144884.3
1143315.5
1158593.5
1143615.2
1118989.2
1136529.6
1064892.3
1030357.2
1072004.5
863171.67
-1480013.8
-1879150.6
-1866226.3
-2014150
-1968184.3
-1878256
-2156580.4
-2303221.8
-2157521.3
-2164809.8
-2080954.4
-2008626.8
-1887832.5
-1866848.1
-1747541.1
18.139096
104.02074
527.83801
970.31198
1427.1563
1747.8033
1954.0935
1992.4745
1836.3495
1539.5836
1156.424
658.25029
214.54974
-72.37037
80.659248
332.92823
309.87296
73.420947
-448.39773
-956.71568
-1449.8416
-1824.7258
-2048.9554
-2065.7354
-1941.0604
-1599.6833
-1149.457
-672.76727
-87.532933
-149.42722
312558.42
321268.5
287132.27
286820.85
290951.4
292550.89
291846.81
291668.98
289438.55
285255.49
279934.85
277464.13
269680.05
263665
255821.79
251823.86
242821.21
236884.17
228828.77
223330.56
216267.98
210686.39
203724.44
197621.75
191442.69
186395.93
179932.58
174469.79
168787.32
163402.84
157148.05
151937.3
146947.24
141004.43
135648.42
129791.97
124520.14
118445.3
113442.91
108702.21
103826.83
99086.778
94832.362
90697.23
87019.398
83818.623
80783.325
78436.396
76173.692
74503.142
72966.15
71854.128
70846.27
70096.808
69412.194
68809.995
68193.636
67535.985
66789.487
65904.533
64857.714
63625.72
62254.999
60707.728
58840.767
57079.157
54712.902
52696.491
50520.966
48520.427
46201.894
44063.289
41812.931
39666.659
37509.557
35501.901
33474.299
31563.066
29627.496
27863.512
25938.007
24186.657
22341.205
20663.658
18770.87
16826.169
14838.646
12808.661
10831.501
8861.9082
6940.8459
5123.4249
3426.9311
1684.7173
117.34916
286933.47
267535.86
234886.54
243282.87
242020.54
243062.02
242666.08
243216.08
241102.57
239774.94
235730.17
232573.83
227174.88
223560.45
217522.88
212242.76
206112.75
201454.31
195165.38
189904.55
184136.02
178091.99
173167.03
168043.66
163136.43
157672.71
153229.62
148422.88
143598.78
138851.25
134457.16
129781.59
124936.39
120250.67
115596.59
111083.83
106552.53
102191.18
97873.323
93617.882
89392.356
85850.832
81817.134
78557.448
75395.161
72715.612
70163.767
68143.189
66168.592
64739.231
63341.208
62351.059
61416.767
60725.695
60084.162
59528.734
58973.602
58417.598
57769.596
57056.379
56203.345
55234.487
54153.013
52876.276
51522.633
50386.735
48958.86
47112.271
45788.149
43692.774
41725.674
39803.598
37742.797
35746.776
33796.496
32002.778
30019.297
28398.966
26551.653
24967.699
23228.333
21603.14
20037.544
18130
16658.281
14798.127
13079.814
11483.344
9806.8003
8225.2092
6552.7605
4996.486
3533.9348
1607.4215
-28.009205
227952.38
226266.34
193308.59
202924.99
197472.93
201081.64
201620.25
202629.35
200391.05
199289.37
196090.49
194020.71
189600.43
186009.66
181113.05
177659.59
172178.95
168121.47
162719.95
158765.46
153736.34
149816.79
145308.1
141159.03
136413.58
132804.65
128553.13
124398.54
120574.82
116673.57
112697.05
108751.92
105050.23
101189.11
97481.852
93596.761
90005.755
86340.451
82853.173
79324.397
75707.207
72496.305
69611.558
66811.877
64275.496
61900.737
59755.948
57919.03
56279.036
54941.144
53748.271
52844.943
52016.275
51406.809
50837.007
50359.412
49898.595
49431.042
48902.337
48323.956
47631.716
46829.696
45917.928
44789.079
43747.031
42650.535
41678.725
40229.765
38789.951
37455.694
35870.675
34188.29
32424.008
30744.607
29052.198
27402.608
25829.182
24217.333
22723.328
21240.709
19739.539
18421.109
16871.877
15703.324
14617.5
13052.893
11672.555
10322.856
8985.1441
7594.9259
6206.0127
4775.4685
3354.2852
1243.7273
-278.48861
181083.14
181138.75
149220.6
160487.47
152479.72
157851.05
157084.85
157819.21
156244.29
156810.03
154002.44
153009.02
148931.21
147695.1
143196.32
140952.67
136260.69
134130.42
129495.78
126692.17
122471.59
119357.25
115567.09
112195.39
109102.7
105795.73
102627.09
99688.586
96594.09
93478.414
90635.698
87540.243
84634.995
81524.418
78898.018
75492.654
72982.509
69485.172
66797.135
63883.051
61719.464
59118.066
56693.585
54333.148
52299.145
50408.261
48701.517
47254.534
45924.325
44836.918
43872.645
43123.263
42445.748
41948.202
41477.276
41115.743
40744.817
40406.21
40011.047
39601.517
39100.316
38513.29
37822.01
37080.065
36179.108
35189.96
34324.329
33020.347
31459.205
30211.805
28894.172
27258.767
25908.844
24496.929
23088.991
21742.293
20448.856
19205.565
17992.832
16837.879
15726.398
14639.817
13561.96
12375.432
11246.488
10453.885
9426.3492
8420.0493
7363.3942
6314.8242
5184.6963
4034.3638
2758.319
1016.2807
-275.67755
146735.53
133686.13
109430.77
119375.42
115246.78
118027.01
118260.9
118766.83
117490.26
117372.34
115610.43
114079.32
112155.36
110301.73
107310.59
105677.62
102078.5
100499.4
96752.477
95113.941
91859.082
90012.654
86803.43
85145.078
82191.936
80078.901
77639.687
75334.345
73000.709
70915.409
68622.733
66430.427
64274.831
62202.921
59991.418
57845.762
56675.84
55593.783
53493.212
53168.103
50454.153
48597.075
46886.987
45141.921
43543.046
41997.511
40576.222
39319.439
38207.563
37238.262
36409.574
35739.997
35145.394
34690.809
34288.042
33963.018
33654.703
33371.353
33063.782
32734.465
32347.299
31853.698
31372.069
30739.811
29879.214
29322.374
28216.197
27368.926
26161.639
25025.733
23931.111
22392.908
20756.952
19426.09
18204.993
17044.512
16033.111
15013.09
14051.599
13167.25
12255.557
11478.063
10634.458
9910.6896
9167.3714
8446.448
7681.2811
6895.9674
6108.1989
5278.446
4420.0877
3382.8424
2499.6036
848.4094
-68.433272
91520.6
92788.62
70920.497
81530.143
74627.187
76689.718
77272.293
77852.41
76080.606
77739.715
75149.985
75820.339
73123.722
73247.487
70459.633
70244.593
67440.49
67343.722
64132.525
63881.667
61023.774
60128.438
58000.585
56928.934
54919.022
53880.092
52220.04
50999.384
49619.19
48193.598
46895.075
45467.317
44265.545
42738.723
41453.965
40283.964
39325.945
38824.267
38015.364
36937.502
36424.931
34970.182
33617.272
32439.087
31296.513
30199.718
29190.586
28328.155
27514.036
26844.118
26248.471
25779.268
25351.961
25049.648
24777.735
24563.69
24383.457
24219.113
24038.895
23849.824
23611.88
23355.523
22987.979
22562.802
22156.433
21471.447
20951.934
20212.862
19432.88
18673.837
17657.902
16611.382
15637.153
14336.991
13257.815
12440.519
11572.35
10835.232
10092.615
9458.0051
8792.2053
8242.3708
7672.842
7169.1054
6665.6204
6185.4387
5693.4225
5155.6747
4677.7766
4058.0772
3518.1572
2730.1687
2114.3206
765.8404
-155.79106
50158.42
44098.616
35884.352
42164.28
36483.087
38387.753
39093.377
38397.165
37900.138
37659.835
37525.833
36406.584
36261.115
35875.013
34571.477
34807.72
33111.608
33322.221
31576.822
32246.262
30283.304
30987.47
29302.443
29533.697
28259.884
28237.185
27138.157
26953.676
26018.378
25728.783
25043.169
24602.668
23954.097
23433.115
22900.908
22271.719
21655.527
21293.173
20548.316
19244.054
18866.775
18241.125
17527.135
17098.547
16567.238
16102.72
15598.264
15265.339
14856.157
14600.571
14336.704
14168.8
14007.127
13940.42
13862.538
13837.888
13824.203
13819.107
13788.767
13766.321
13706.883
13587.537
13441.888
13275.428
12939.137
12693.876
12268.583
11806.599
11315.945
10758.914
10177.459
9608.3355
8888.9983
8514.558
7952.0365
7396.3972
6778.7561
6259.596
5776.9073
5345.6299
4946.0059
4637.9283
4307.2476
4078.6052
3814.001
3608.791
3400.4836
3175.0927
3009.8539
2653.6313
2469.8316
1905.4723
1673.4407
582.15293
409.2922
-3132.7248
1740.2708
-4240.2031
956.78274
-1618.2848
-222.80168
-950.26655
-216.60241
-2537.8407
-166.72388
-2174.0987
-913.2496
-1646.3698
-775.31386
-1518.4207
-64.166478
-1248.8908
662.1459
-557.27047
958.26765
87.087615
1489.5668
461.94928
1780.7936
1243.4665
2163.0362
2076.1177
2674.2301
2813.4585
3228.1951
3468.8
3684.8733
4052.8948
4259.8657
4554.7808
4626.8034
5141.7461
5041.7887
5506.1551
5298.8599
5440.0943
5517.0336
5346.7827
5251.4574
5207.7179
5015.2097
4907.459
4814.5731
4678.7443
4592.1305
4512.793
4472.1235
4440.6113
4465.2378
4503.6923
4577.765
4683.2893
4802.1865
4922.9865
5081.151
5176.8314
5304.9794
5391.1514
5414.7781
5444.0899
5379.8746
5274.9354
5152.2763
4925.5681
4717.5226
4372.5606
4017.8499
3603.983
3328.4026
3034.868
2726.8518
2353.0029
2114.8732
1860.6902
1691.7358
1554.6197
1454.715
1443.8705
1403.4199
1470.7799
1489.5312
1583.3302
1589.5856
1661.0709
1551.3469
1585.8763
1306.0304
1258.0417
718.64936
690.58465
-43247.185
-43753.242
-38048.133
-35421.576
-36646.382
-38290.457
-37447.086
-39341.931
-38791.669
-39668.336
-38625.474
-38965.587
-37913.864
-37041.785
-36358.727
-35043.485
-34557.451
-32481.438
-32912.611
-30098.577
-30447.02
-28204.835
-28076.224
-25747.848
-25654.568
-23481.899
-23286.218
-21370.798
-20859.801
-19305.651
-18577.956
-17247.801
-16337.367
-15251.183
-14336.206
-13247.219
-12532.546
-11561.199
-10732.729
-10022.271
-9392.1716
-8701.9749
-8260.8507
-7647.8015
-7223.1638
-6837.4303
-6522.7506
-6174.837
-5960.7423
-5703.6835
-5488.0226
-5262.8203
-5075.726
-4838.1065
-4622.9439
-4388.2904
-4131.6809
-3871.1006
-3599.4552
-3323.0194
-3043.673
-2781.3768
-2535.9892
-2298.7469
-2138.6574
-1965.0041
-1838.6625
-1781.2904
-1739.1275
-1742.8339
-1816.992
-1821.1156
-1969.263
-1962.9179
-2211.0508
-2482.2034
-2475.3556
-2573.8148
-2527.7054
-2485.5269
-2382.7994
-2200.0684
-2022.6219
-1744.7989
-1480.6458
-1170.899
-835.24215
-569.77566
-182.66722
-21.03887
410.2155
416.87917
810.03378
677.37399
945.91554
-93392.484
-91536.993
-75711.287
-76472.623
-78403.499
-78483.128
-79853.012
-79210.716
-81518.352
-79656.817
-79752.4
-78679.347
-77328.976
-75254.223
-74362.895
-71242.523
-70090.439
-67112.642
-65653.37
-62495.288
-61567.781
-57304.245
-55960.819
-52790.798
-51633.207
-48963.812
-47484.746
-45022.33
-43372.943
-41237.821
-39463.408
-37456.504
-35700.823
-33818.344
-31906.022
-30348.34
-28420.764
-26963.821
-25275.309
-23949.788
-22558.699
-21343.067
-20185.356
-19263.157
-18328.904
-17600.812
-16925.747
-16338.295
-15888.739
-15470.67
-15112.677
-14813.39
-14538.428
-14249.386
-13982.793
-13694.441
-13369.001
-13025.048
-12661.876
-12230.677
-11815.885
-11364.646
-10890.439
-10452.385
-10008.588
-9559.7965
-9180.9151
-8832.9559
-8511.725
-8245.0959
-8008.9393
-7809.3253
-7643.7853
-7245.6006
-6749.1443
-6604.0041
-6514.5433
-6301.2011
-6018.6717
-5838.3596
-5377.296
-5127.2168
-4566.2643
-4179.0285
-3584.0916
-3090.7963
-2483.7134
-1985.4881
-1388.0748
-938.80297
-415.05221
-43.785744
405.14136
717.71033
740.3872
-145398.24
-115007.6
-103124.86
-104625.93
-107776.2
-107751.74
-109899.01
-110521
-111720.04
-110716.06
-109932.14
-108928.94
-106593.69
-104421.86
-102386.71
-98575.701
-97410.659
-92840.109
-91529.476
-87891.402
-86544.212
-85355.032
-83706.305
-80577.503
-79136.166
-75061.521
-73439.452
-69527.463
-67586.615
-64179.285
-61920.519
-58986.004
-56619.149
-53807.351
-51427.593
-48787.51
-46498.687
-44121.465
-41927.127
-39795.78
-37854.246
-35905.104
-34265.8
-32647.079
-31228.495
-29933.124
-28831.368
-27795.672
-26950.981
-26158.356
-25490.166
-24882.731
-24340.564
-23816.266
-23334.652
-22846.677
-22342.677
-21841.457
-21294.021
-20729.426
-20137.786
-19513.111
-18884.74
-18241.823
-17621.831
-16990.976
-16385.004
-15788.558
-15216.985
-14674.746
-14187.15
-13745.022
-13265.509
-12854.236
-12471.908
-11742.839
-11042.057
-10641.221
-10124.987
-9601.278
-9095.8422
-8449.0002
-7813.877
-7099.634
-6342.5082
-5580.1605
-4763.4369
-4004.4487
-3165.4611
-2492.6561
-1662.1496
-1076.7029
-227.65727
361.25486
1595.6498
-174168.79
-165757.08
-148823.23
-145001.43
-147709.28
-147396.36
-150902.76
-151036.38
-151011.02
-150771.02
-149570.53
-146676.59
-144981.36
-140952.87
-138104.57
-134201.72
-130492.23
-126172.38
-123173.91
-118102.44
-115876
-110753.63
-110206.01
-106836.37
-103906.32
-100004.93
-96899.615
-92854.177
-89620.314
-85680.836
-82542.297
-78706.635
-75462.822
-71963.332
-68499.649
-65302.147
-61930.362
-58831.489
-55712.274
-52889.289
-50060.557
-47613.774
-45236.057
-43161.076
-41252.283
-39591.614
-38170.651
-36910.15
-35882.575
-35020.849
-34295.311
-33694.561
-33183.854
-32715.51
-32283.217
-31841.711
-31373.443
-30854.079
-30286.442
-29638.021
-28917.102
-28154.347
-27295.91
-26420.976
-25530.922
-24603.145
-23672.264
-22801.127
-21918.645
-21089.673
-20329.729
-19550.016
-18857.833
-18161.768
-17629.702
-17189.351
-16313.877
-15653.576
-14854.817
-14105.638
-13240.721
-12345.167
-11365.426
-10343.721
-9246.2283
-8128.1602
-6970.0446
-5820.0379
-4666.7774
-3614.7452
-2487.6326
-1664.2838
-622.01261
176.91992
1348.5133
-245862.58
-220802.44
-184559.25
-194971.35
-190999.54
-197686.04
-196842.83
-198997.39
-197840.91
-197688.1
-194486.1
-192874.32
-188178.53
-185017.67
-179883.85
-175306.76
-170460.67
-164938.26
-160596.55
-154915.25
-150826.58
-145146.77
-140833.37
-134812.97
-131333.99
-125787.85
-122675.68
-117069.7
-113582.42
-108546.8
-104726.01
-99961.97
-96201.948
-91757.155
-87849.669
-83705.1
-79734.035
-75883.74
-72240.297
-68642.19
-65374.562
-62195.954
-59295.492
-56618.022
-54211.574
-52049.303
-50180.43
-48494.032
-47100.044
-45879.774
-44834.236
-43947.255
-43172.309
-42466.273
-41811.941
-41175.446
-40509.358
-39823.591
-39074.754
-38253.821
-37375.389
-36415.727
-35378.775
-34301.497
-33191.499
-32035.67
-30884.702
-29754.248
-28609.45
-27489.076
-26422.326
-25394.818
-24391.977
-23457.43
-22491.574
-21594.583
-20658.309
-19730.984
-18730.326
-17704.279
-16630.97
-15489.99
-14276.875
-13037.077
-11697.504
-10374.658
-8983.507
-7639.3239
-6279.2188
-5021.9603
-3720.7696
-2692.4266
-1398.7526
-276.8019
984.52737
-272852.25
-258831.62
-215328.45
-232676.12
-233199.84
-238139.76
-237658.74
-240555.72
-239098.79
-236607.23
-234988.95
-229916.09
-225987.69
-220645.18
-214457.4
-208826.66
-202639.75
-195836.11
-190631.47
-183665.89
-178171.22
-172145.99
-167082.42
-161825.58
-156620.23
-151053.86
-146100.79
-140593.45
-136114.26
-130520.38
-125789.33
-120500.98
-115343.49
-110278.29
-105256.11
-100465.69
-95481.462
-90885.525
-86154.22
-81836.574
-77608.648
-73716.008
-70134.38
-66858.128
-63955.074
-61375.827
-59157.003
-57268.946
-55703.319
-54414.183
-53364.894
-52525.093
-51829.936
-51229.204
-50682.507
-50137.326
-49547.645
-48890.042
-48121.749
-47253.24
-46236.87
-45123.31
-43866.118
-42533.216
-41087.977
-39597.672
-38054.192
-36642.464
-35172.248
-33731.425
-32404.086
-31083.031
-29818.221
-28655.268
-27466.879
-26366.666
-25221.505
-24116.184
-22941.845
-21765.069
-20476.236
-19141.915
-17688.926
-16174.758
-14539.81
-12871.311
-11113.062
-9356.8818
-7583.9963
-5855.8495
-4224.3531
-2722.0476
-1315.8164
-204.20623
687.36156
-383153.28
-251608.89
-267989.16
-267680.55
-278234.02
-271835.97
-278832.33
-278336.49
-275408.91
-273756.47
-269251.31
-265976.33
-259066.93
-253244.51
-246222.69
-239370.58
-233448.58
-224994.32
-219428.8
-210965.08
-205068.01
-197630.18
-192911.62
-185539.57
-181259.41
-173255.71
-168856.31
-161530.96
-157460.25
-150625.81
-145693.27
-139345.8
-133668.92
-127562.66
-121481.6
-116362.38
-110811.64
-105441.8
-100098.69
-95084.378
-90226.041
-85778.006
-81602.044
-77817.749
-74457.955
-71462.429
-68919.633
-66750.471
-64936.682
-63473.372
-62268.631
-61313.896
-60518.979
-59836.395
-59217.926
-58595.217
-57920.044
-57163.049
-56289.658
-55264.268
-54103.533
-52795.398
-51344.456
-49778.772
-48118.398
-46332.736
-44508.041
-42702.962
-41058.71
-39366.031
-37776.837
-36152.877
-34690.117
-33251.616
-31878.803
-30555.761
-29287.561
-27942.012
-26616.633
-25184.915
-23713.669
-22122.22
-20448.53
-18646.253
-16769.632
-14787.491
-12759.683
-10701.116
-8644.9333
-6690.0464
-4825.7475
-3156.9317
-1742.8501
-545.87347
527.53503
673282.62
691797.15
675196.74
694655.98
698369.12
703489.66
727651.35
711871.99
705829.41
704430.24
698894.3
674651.72
668635.44
698621.14
597786.86
634671.7
648993.78
621674.29
640952.44
646064.26
658793.48
640516.35
664058.61
656978.71
661321.34
646891.08
642649.84
640782.67
644313.33
554705.45
474654.31
538761.87
477451.5
500313.24
500159.5
495752.38
502184.36
497560.6
501661.66
493773.77
492578.2
494713.33
462868.48
506650.74
469001.93
413288.75
417712.96
417099.57
412115.28
425504.89
421477.96
428156.71
427670.09
423748.46
424782.07
424242.08
408876
410135.15
435387.33
315687.41
293785.93
330589.56
290050.13
314321.24
303734.87
315396.6
311069.43
310752.42
312227.24
311339.8
306840.74
305986.18
302308.95
309995.9
278846.16
217624.27
227591.92
212543.67
219290.98
220021.15
220761.73
219494
219748.02
221189.36
219211.73
213261.31
221049.58
207256.09
219580.91
208815.54
117966.82
117486.71
119423.8
113595.52
119384.63
119650.21
117918.5
118456.98
115759.85
117870.31
114604.31
109175.01
117377.45
108330.64
112547.88
19223.926
19273.617
11119.962
18283.887
13341.331
15197.14
13175.965
14106.098
10606.973
17732.452
2534.2263
16413.983
21764.788
-2744.6483
51443.222
-70714.757
-83048.307
-71672.302
-80873.139
-78238.969
-79575.813
-80955.874
-79620.802
-83488.392
-75163.403
-88250.358
-74716.208
-74713.463
-99156.832
-10096.882
-153909.33
-190015.53
-170514.47
-177576.51
-178910.25
-181955.96
-184769.59
-184090.97
-190652.07
-178842.33
-203807.08
-175271.36
-175580.21
-212625.68
-106188.57
-253447.3
-315372.09
-263863.75
-296573.88
-282651.18
-291919.39
-289326.75
-289967.1
-292862
-279495.18
-288726.81
-281783.52
-264040.96
-300409.42
-174172.12
-379342.6
-365092.12
-370941.6
-362897.67
-380013.35
-380997.24
-385103.03
-389233.02
-391205.61
-385294.88
-405826.5
-356738.92
-376749.85
-414623.88
-272117.13
-431025.98
-489904.15
-430384.38
-455275.52
-436052.98
-452646.28
-448278.32
-448350.76
-444954.2
-441061.45
-446034.55
-448580.99
-409250.59
-492162.02
-241434.54
-542657.23
-659034.29
-576417.81
-626598.6
-644712.75
-638866.63
-644185.31
-675406
-660341.06
-676306.3
-638369.95
-623765.77
-637219.32
-619068.78
-558552.27
-580400.13
-514573.24
-463840.81
-469945.16
-491400.06
-528609.56
-506462.45
-488500.8
-464879.09
-463625.37
-473233.2
-475923.73
-475145.81
-530832.02
-470700.27
-559047.21
-523753.51
-626491.33
-659357.75
-684321.72
-746811.53
-715520.7
-668242.3
-761548.59
-746159.69
-721642.18
-685697.93
-656479.7
-624671.58
-521571.91
-383656.7
-391005.76
-440917.23
-453348.84
-473488.18
-488622.8
-502951.26
-518383.61
-534688.84
-508275.04
-497407.47
-466541.42
-468345.46
-461632.08
-462442.28
-316077.27
-366567.45
-358720.51
-394020.61
-419191.5
-406300.23
-428082.07
-423542.82
-411256.11
-429050.76
-411399.88
-417393.44
-401634.56
-355452.18
-369481.92
-315504.75
-360540.19
-366866.09
-376588.18
-387956.89
-396670.46
-400459.71
-404030.95
-403241
-393824.04
-393511.22
-382602.46
-366702.93
-359460.94
-336685.05
-336114.4
-371142.43
-362332.55
-391522.47
-395856.46
-404333.94
-413789.71
-412053.43
-415139.79
-414005.62
-402446.54
-394252.01
-375960.72
-358732.95
-353513.74
-323876.49
-339045.32
-348574.75
-363199.8
-369280.43
-380232.53
-379675.81
-381879.26
-381912.22
-375517.7
-372872.69
-364854.04
-352537.68
-343197.69
-323685.09
-319688.19
-345194.76
-346727.43
-362659.22
-364447.6
-373300.36
-376342.7
-377724.36
-377616.67
-373611.66
-365790.54
-360603.6
-350192.85
-334406.76
-336190
-320915.52
-327932.22
-338433.02
-343597.03
-355174.62
-356687.54
-361130.42
-362698.31
-361290.36
-358901.48
-354233.21
-347254.07
-339887.53
-328024.27
-319392.77
-311135.33
-326332.7
-329384.68
-340143.89
-340169.45
-349296.92
-347275.85
-350552.95
-349194.68
-345079.32
-341566.67
-335863.03
-329897.49
-322006.15
-316652.02
-309434.44
-313035.83
-319893.43
-322297.94
-328655.54
-329940.83
-333623.12
-333563.81
-332042.28
-332667.64
-327843.39
-325318.63
-319683.26
-313362.61
-309489.93
-299159.74
-308204.15
-310696.02
-318000.84
-319645.22
-325067.44
-324336.2
-327360.32
-326660.98
-324416.43
-323200.1
-319993.91
-314960.05
-310739.93
-307801.22
-296202.97
-296785.93
-301609.27
-303467.85
-306649.99
-307198.33
-310372.71
-310614.48
-311169.71
-310401.48
-308711.63
-305944.36
-303782.56
-299516.6
-297861.37
-287952
-290259.13
-291555.01
-295571.66
-297047.17
-301001.7
-300780.58
-302872.82
-302526.23
-302077.2
-299716.72
-299531.25
-295059.67
-294096.5
-291316.34
-279722.35
-279773.98
-284399.74
-284208.44
-287113.59
-287320.33
-288645.45
-289419.46
-289992.24
-288822.2
-288622.86
-287294.72
-285586.75
-283868.32
-283331.29
-271995.33
-272177.86
-274189.3
-275832.07
-277842.12
-278579.91
-280348.67
-280450.68
-281193.99
-281520.66
-280225.58
-280229.44
-276228.55
-278098.36
-275667.68
-263133.06
-263087.64
-266749.62
-265450.12
-267781.57
-267586.55
-270820.03
-268686.7
-268912.18
-268355.26
-267767.67
-267701.6
-264770.01
-264793.53
-263558.51
-256288.8
-254896.19
-257324.47
-256155.25
-259146.62
-259693.57
-260160.66
-261297.75
-261452.64
-262077.25
-261044.8
-261824.47
-260627.51
-260081.59
-260926.51
-247951.54
-247314.6
-248838.02
-248375.11
-249989.66
-250047.56
-251351.52
-250718.66
-251138.8
-250687.31
-250244.24
-249770.03
-249636.1
-248104.47
-248416.1
-239597.93
-238899.15
-241021.47
-240902.13
-242098.01
-241975.94
-241874.55
-243414.25
-243082.91
-244042.91
-242129.37
-244481
-242365.49
-245575.56
-243556.81
-232413.4
-231499.83
-232626.63
-231863.86
-233652.9
-233481.11
-235741.29
-234373.13
-235443.59
-234506.18
-234024.69
-234863.58
-232980.49
-234604.98
-233213.83
-225411.87
-224182.94
-225824.03
-224850.51
-225926.2
-225663.09
-226904.93
-227754.63
-227083.23
-227935.82
-227826.96
-228916.09
-227879.92
-229193.45
-228344.48
-216412.32
-217284.28
-217778.51
-217694.27
-218980.28
-218756.23
-219925.64
-219402.26
-220374.03
-220271.61
-219941.53
-220709.3
-219108.32
-219755.22
-220123.45
-211725.36
-209901.78
-211192.28
-211023.26
-211928.68
-212336.04
-213076.62
-213006.1
-212895.14
-213912.11
-213072.31
-213946.65
-212221.3
-215056.58
-213600.65
-203282.64
-203391.1
-204179.57
-204439.77
-205174.39
-205250.86
-206543.64
-205960.85
-206985.72
-206710.81
-205954.57
-207721.52
-206509.38
-207336.2
-206590.47
-197980.68
-197109.77
-198147.81
-197626.16
-198848.03
-198685.6
-200003.64
-200009.98
-200199.58
-200874.02
-199561.08
-201066.03
-199690.19
-201046.59
-200670.97
-191373.21
-189845.18
-191687.26
-190991.75
-192358.01
-192724.25
-193669.74
-193441.59
-194137.3
-194323.31
-194822.42
-194963.06
-193357.87
-195214.7
-194012.39
-184892.7
-183555.1
-185355.4
-185248.99
-186620.85
-186992.79
-187564.3
-187850.98
-187970.18
-188325.79
-187656.39
-189161.16
-187188.9
-188384.77
-188590.94
-179017.69
-177603.17
-178901.95
-178946
-180576.97
-180607.19
-181357.91
-181414.13
-182218.74
-182062.13
-182132.62
-182316.94
-181389.12
-183117.14
-181633.52
-172087.86
-171668.87
-173710.71
-173031.51
-174322.43
-174563.68
-175350.42
-175644.25
-175883.38
-176322.83
-175706.57
-176783.19
-175336.34
-176088.41
-176452.07
-166993.36
-165083.44
-166913.55
-166998.25
-168469.21
-168311.83
-169156.1
-169393.54
-169785.33
-169964.59
-169571.37
-170547.81
-169038.08
-170440.71
-169889.32
-160130.41
-159340.42
-160964.3
-160967.07
-162017.88
-162897.49
-163238.83
-163297.52
-163218.69
-163997.61
-163525.73
-164461.64
-163150.81
-163802.49
-163702.94
-154370.05
-152787.72
-154807.43
-154481.36
-155753.23
-156145.12
-156570.63
-156884.1
-157108.31
-157492.29
-157033.96
-158028.5
-156742.62
-157838.1
-157322.97
-147886.48
-146653.26
-148296.54
-148221.57
-149512.63
-149693.89
-150343.53
-150464.96
-150855.63
-151136.06
-150810.52
-151613.81
-150471.33
-151294.05
-150741.28
-141448.24
-140157.04
-141884.59
-141695.11
-142784.18
-143076.1
-143695.29
-143917.73
-144156.96
-144473.5
-144060.46
-145077.58
-143908.6
-145113.68
-144506.33
-134654.03
-133934.46
-135348.75
-135079.99
-136238.53
-136464.88
-137003.46
-137291.67
-137469.7
-137878.98
-137546.67
-138332.67
-137448.06
-138149.39
-137825.71
-128012.65
-127776.8
-128569.86
-129191.74
-129303.9
-129871.46
-130167.68
-130413.41
-130717.81
-130912.43
-130934.45
-131661.47
-131057.76
-131790.52
-132122.36
-122480.44
-121011.29
-122059.86
-121946.14
-123043.54
-123009.71
-123784.98
-123734.06
-124245.48
-124139.61
-124077.45
-125208.86
-124142.46
-125654.17
-125020.41
-115730.53
-114884.92
-115789.02
-115761.92
-116194.13
-116672.74
-116809.44
-117272.12
-117377.17
-117689.08
-117606.01
-118411.97
-117843.45
-119003.85
-118661.83
-110255.84
-108448.01
-109677.88
-109097.49
-110024.76
-109953.83
-110538.49
-110607.44
-110852.98
-111225.69
-111133.79
-112169.11
-111403.07
-112903.53
-112437.65
-104082.8
-102685.79
-103592.92
-103128.75
-103763.87
-103901.23
-104278.75
-104342.03
-104744.23
-104958.34
-105024.29
-105837.5
-105350.23
-106921.78
-106533.9
-98726.477
-96941.308
-97921.861
-97161.774
-97929.462
-97809.75
-98229.884
-98342.609
-98648.964
-98967.146
-99008.946
-99937.973
-99517.088
-101210.66
-100785.5
-93420.212
-91788.739
-92514.944
-91822.068
-92439.62
-92338.649
-92777.319
-92753.086
-93157.446
-93367.408
-93553.777
-94450.739
-94129.468
-95864.322
-95507.395
-88757.224
-86846.713
-87603.687
-86711.052
-87328.969
-87212.763
-87536.585
-87580.042