/*--------------------------------*- C++ -*----------------------------------*\
  =========                 |
  \\      /  F ield         | OpenFOAM: The Open Source CFD Toolbox
   \\    /   O peration     | Website:  https://openfoam.org
    \\  /    A nd           | Version:  6
     \\/     M anipulation  |
\*---------------------------------------------------------------------------*/
FoamFile
{
    version     2.0;
    format      ascii;
    class       pointVectorField;
    location    "1.66";
    object      lm;
}
// * * * * * * * * * * * * * * * * * * * * * * * * * * * * * * * * * * * * * //

dimensions      [1 -2 -1 0 0 0 0];

internalField   nonuniform List<vector> 
625
(
(0 0 0)
(0 0 0)
(-3271.922 -455.33307 -591.06772)
(-3181.0009 547.67163 -653.66965)
(0 0 0)
(0 0 0)
(-3081.0731 787.56651 -647.42744)
(-3171.7769 -213.66946 -587.42011)
(0 0 0)
(0 0 0)
(0 0 0)
(-3248.1908 -204.64143 -605.93688)
(-3225.138 44.317121 -622.20548)
(-3204.3575 295.12326 -638.20897)
(13.457263 12.188393 2.3068336)
(29.121759 11.719049 6.305734)
(44.592398 2.2708044 3.9214946)
(52.767288 -16.11292 5.010999)
(53.066974 -42.288285 6.0013776)
(36.330348 -77.225337 6.5791904)
(4.3485944 -117.93738 5.6487666)
(-49.179866 -163.42645 3.2935453)
(-124.94313 -213.21242 -1.8156436)
(-223.15015 -263.53536 -9.0289667)
(-345.75825 -314.60639 -21.437033)
(-491.33278 -363.23836 -37.555493)
(-659.15713 -408.26432 -58.855289)
(-847.04449 -448.34577 -85.46616)
(-1052.9541 -481.86097 -117.59878)
(-1274.0435 -508.21666 -155.31955)
(-1507.6514 -526.6362 -198.06823)
(-1750.7288 -536.58493 -246.03892)
(-2000.7965 -539.07168 -297.46241)
(-2254.3026 -533.39118 -352.9233)
(-2510.9829 -520.76274 -410.57305)
(-2766.1945 -503.75226 -469.88009)
(-3020.5815 -480.5278 -530.8568)
(10.981355 -9.5363964 -7.9280284)
(30.237294 -10.348675 -0.086004242)
(51.736717 -7.4504948 14.304589)
(60.983847 5.0675278 22.99144)
(64.55878 17.688465 33.97347)
(51.022282 41.854913 40.642743)
(22.88628 64.224389 45.949059)
(-26.088139 93.61807 45.63208)
(-97.142227 124.50206 42.040575)
(-189.81697 155.86511 31.996338)
(-306.81006 189.41341 16.26811)
(-445.84237 221.73068 -6.0651355)
(-607.27803 254.22425 -35.17922)
(-788.50477 285.38868 -70.86799)
(-988.07635 315.55076 -113.15351)
(-1203.2506 344.51981 -161.31258)
(-1431.4221 372.22467 -214.82623)
(-1669.9781 398.91558 -272.69143)
(-1916.0457 424.89599 -334.19082)
(-2167.2978 449.82272 -397.66375)
(-2421.3407 474.8764 -462.78087)
(-2675.6888 499.21105 -527.48226)
(-2929.9349 522.98095 -591.51988)
(0 0 0)
(0 0 0)
(0 0 0)
(18.018464 -11.473223 10.181017)
(40.87323 -23.513844 5.8998151)
(56.548933 -17.252425 0.40324117)
(74.456265 -9.1397314 -1.0909549)
(73.298171 15.022542 -5.5304544)
(64.152904 38.246765 -6.565156)
(38.840593 75.042618 -13.13233)
(-11.049526 115.15685 -16.964758)
(-77.200637 161.31305 -26.514562)
(-167.95607 211.32134 -37.902282)
(-279.70012 262.42824 -52.727714)
(-414.39872 317.01454 -72.711765)
(-569.48434 369.80166 -96.827735)
(-744.36882 422.96288 -126.36726)
(-936.7676 473.83107 -161.21461)
(-1144.2868 522.07782 -201.24073)
(-1364.8618 567.41522 -246.35327)
(-1595.7446 608.91875 -296.01737)
(-1834.746 646.83406 -349.58089)
(-2079.4999 680.84379 -406.37286)
(-2328.0729 711.4109 -465.4292)
(-2578.6393 738.8595 -526.0286)
(-2829.9908 763.3219 -587.27555)
(-3104.7033 536.06689 -632.72622)
(-3124.4398 285.69805 -617.71964)
(-3147.5787 37.946183 -602.73647)
(-2920.526 -239.04391 -525.06986)
(-2665.2154 -263.52269 -461.06136)
(-2409.3041 -285.2791 -396.81983)
(-2153.8062 -304.45192 -332.76364)
(-1900.7032 -319.71402 -270.38662)
(-1652.7184 -330.2766 -210.77664)
(-1412.4546 -335.58601 -155.00675)
(-1182.5687 -334.93979 -103.99018)
(-966.12937 -328.26348 -58.630861)
(-765.60506 -315.41233 -19.482719)
(-583.72889 -296.58625 13.061244)
(-422.5179 -272.65064 38.7517)
(-283.54862 -243.93798 57.789112)
(-168.14787 -212.82421 70.528459)
(-75.680047 -178.58453 75.520881)
(-8.6306594 -141.98941 77.646898)
(38.440259 -111.58574 74.229881)
(64.943765 -79.090726 65.495902)
(73.17664 -50.816016 55.287175)
(67.29499 -27.794097 41.426623)
(52.587236 -12.923889 29.208197)
(32.108893 -0.31612322 14.848964)
(8.3634975 5.1670123 -0.45987059)
(0 0 0)
(0 0 0)
(0 0 0)
(0 0 0)
(0 0 0)
(0 0 0)
(-3155.5865 608.5757 -651.48047)
(-3130.6086 668.54306 -650.13344)
(-3104.8541 727.69289 -648.86845)
(-3247.4815 -395.36105 -590.37743)
(-3222.7683 -335.20431 -588.7189)
(-3197.7066 -274.96079 -588.57766)
(12.674868 1.194906 2.2532412)
(32.161804 -1.2091263 3.6687142)
(49.788902 -7.7617672 4.5172913)
(62.337607 -18.107689 8.5674564)
(64.825745 -33.904933 10.644115)
(50.74799 -53.934506 12.155785)
(21.582517 -76.729691 12.278354)
(-30.083227 -103.56732 10.406755)
(-102.79288 -131.52777 5.3020258)
(-200.68886 -160.45885 -3.195937)
(-321.75581 -189.62458 -16.287942)
(-466.30872 -216.81137 -33.86669)
(-633.33482 -241.9823 -56.954668)
(-820.77242 -263.51989 -85.465005)
(-1026.3885 -280.76008 -119.72135)
(-1247.5174 -292.94612 -159.42424)
(-1481.341 -299.58112 -204.37119)
(-1724.5827 -300.55637 -254.05496)
(-1975.2117 -295.85882 -307.53628)
(-2229.3755 -285.40152 -364.67715)
(-2486.2844 -270.19661 -423.40485)
(-2741.8479 -251.33921 -484.46831)
(-2996.958 -228.3899 -545.56269)
(13.45022 -0.26351584 0.56734791)
(29.271459 0.12055503 5.3447741)
(51.245712 -2.6620461 9.7978825)
(63.944542 -6.6676283 15.275086)
(66.690695 -11.853454 19.228475)
(56.298658 -18.616126 22.728363)
(27.357632 -27.259896 24.392774)
(-22.412654 -35.347312 22.158323)
(-93.962677 -45.256063 17.496628)
(-189.69709 -54.439564 7.8699977)
(-308.80448 -63.807216 -6.2143817)
(-451.85943 -71.917293 -25.918746)
(-617.21902 -78.500088 -51.307161)
(-803.05341 -83.095048 -82.531652)
(-1007.3271 -84.860215 -119.64489)
(-1227.1382 -83.725833 -162.31541)
(-1459.8458 -79.091868 -210.12971)
(-1702.4226 -70.902588 -262.48916)
(-1952.325 -58.979645 -318.53323)
(-2206.0579 -43.640019 -377.25304)
(-2462.7755 -24.887873 -438.23491)
(-2718.5624 -3.7414363 -499.56118)
(-2974.8273 20.327322 -561.33703)
(11.648607 0.79869093 -0.72882276)
(29.964248 4.9494066 2.0929809)
(54.279701 3.2756943 10.913106)
(65.246868 6.5436659 17.139415)
(70.533387 11.550373 24.287015)
(59.975807 15.024062 30.260781)
(30.882411 23.736649 31.678302)
(-17.096549 30.661375 31.639343)
(-87.943688 39.567146 26.59307)
(-182.44784 49.2085 16.967367)
(-300.38864 58.836553 2.0179959)
(-442.21586 69.874683 -19.0073)
(-605.8679 81.058783 -45.914275)
(-790.37238 93.456083 -79.171684)
(-993.00646 106.81578 -118.45109)
(-1211.4651 121.43836 -163.48165)
(-1442.8245 137.6534 -213.729)
(-1684.3548 155.47833 -268.44413)
(-1932.9952 174.91492 -326.59423)
(-2186.6551 196.63518 -387.82417)
(-2442.2079 219.35103 -449.81319)
(-2698.3817 244.22 -513.25859)
(-2953.2265 270.09494 -575.90955)
(0 0 0)
(0 0 0)
(0 0 0)
(0 0 0)
(0 0 0)
(0 0 0)
(0 0 0)
(0 0 0)
(0 0 0)
(14.870902 -5.7832497 -2.6684448)
(17.103566 -8.076182 -0.61879619)
(17.537519 -8.0094446 3.2916762)
(33.193048 -15.649129 0.1204729)
(36.2762 -17.493937 2.9656331)
(37.809875 -20.85429 4.1973744)
(49.288622 -14.647117 11.928769)
(49.534943 -16.640852 9.1636233)
(51.743956 -17.301275 4.5145077)
(56.668636 -1.9216696 16.661788)
(60.001128 -1.9969203 11.685544)
(63.177711 -8.3136032 4.8852461)
(57.710206 14.69071 24.974101)
(58.223613 11.774163 16.807489)
(62.520472 12.680433 5.4449512)
(43.459949 36.904152 30.116252)
(44.514122 38.991777 18.290621)
(50.26962 37.788909 5.27405)
(13.220035 66.122689 31.860005)
(13.335394 70.071138 19.841996)
(20.219852 71.80903 1.5379366)
(-37.421236 98.7405 31.544928)
(-34.801494 102.67856 17.242386)
(-28.737673 108.70824 0.12171785)
(-107.17825 132.95402 26.338371)
(-105.92584 143.38974 11.575185)
(-97.634962 151.45585 -8.1392719)
(-200.51843 171.38428 16.624712)
(-197.91276 184.16728 1.2454508)
(-188.99273 197.63226 -18.690579)
(-315.29536 209.18302 1.0054365)
(-312.03509 227.44984 -14.107755)
(-301.68722 244.81756 -33.814467)
(-453.02906 248.80498 -20.576439)
(-448.26285 271.39789 -34.788171)
(-436.94111 293.80727 -54.029816)
(-611.49365 286.7752 -48.312255)
(-605.26361 314.33247 -61.438899)
(-592.62147 342.17506 -79.499434)
(-789.81998 324.37496 -82.573761)
(-781.75265 357.12942 -94.233197)
(-767.67774 389.65952 -110.48174)
(-985.9273 360.21816 -123.03073)
(-975.81436 397.65167 -132.82533)
(-960.40184 435.50997 -147.2503)
(-1197.329 394.31422 -169.30374)
(-1185.1048 436.51422 -177.33722)
(-1168.1582 478.81209 -189.50644)
(-1421.8415 426.561 -220.94596)
(-1407.3453 472.90355 -227.06493)
(-1388.9288 519.50876 -236.90165)
(-1656.5609 456.84608 -277.09962)
(-1639.9347 506.83123 -281.3308)
(-1620.0504 557.15575 -288.93686)
(-1899.3062 485.31738 -336.76407)
(-1880.5042 538.46565 -339.43417)
(-1859.2209 591.74654 -344.76545)
(-2147.3367 512.07832 -399.09404)
(-2126.6522 567.51393 -400.27394)
(-2104.169 623.31199 -403.57968)
(-2398.6159 537.43228 -462.82337)
(-2376.3707 594.81356 -462.68289)
(-2352.8429 652.25379 -464.4205)
(-2651.396 561.61903 -526.68153)
(-2627.85 620.17377 -525.90681)
(-2603.5652 678.9915 -526.30171)
(-2904.2359 584.87361 -590.06213)
(-2879.8156 644.31406 -588.86699)
(-2855.0818 703.47007 -588.36572)
(-3223.7362 -144.11582 -605.42387)
(-3199.0101 -83.752566 -604.29551)
(-3173.5473 -23.405442 -603.8591)
(-3200.1361 104.81866 -621.36346)
(-3175.2678 165.15456 -619.65282)
(-3149.6729 224.87681 -618.88364)
(-3179.4268 356.57799 -636.52576)
(-3154.8042 416.6236 -634.71418)
(-3129.2429 476.34151 -633.87488)
(13.834775 10.872786 0.25956525)
(13.264914 8.7434443 0.73511341)
(10.524317 10.64415 -0.0047862107)
(29.441423 9.3080688 6.3187735)
(29.376466 8.4357606 10.604182)
(31.848825 9.4624424 12.015253)
(41.826537 -1.5926396 10.44047)
(45.735885 -3.2484602 13.928156)
(45.197335 -3.7368964 22.640054)
(50.948578 -17.505382 14.173991)
(52.713005 -19.06023 22.829625)
(56.597428 -19.87277 33.830429)
(48.426044 -46.01049 18.486085)
(51.974229 -45.631377 32.12861)
(58.391702 -44.850318 44.343058)
(31.232374 -77.041179 23.337957)
(38.10141 -74.857308 35.557976)
(45.278435 -73.185308 53.637678)
(-0.79300301 -116.28204 24.339442)
(5.8380895 -113.03874 40.605682)
(14.756905 -108.85189 60.124339)
(-54.676102 -159.0688 24.450661)
(-45.976988 -153.13994 42.209166)
(-32.978059 -146.28872 62.541011)
(-127.38124 -206.40773 20.476554)
(-118.63413 -193.78026 39.902249)
(-105.4978 -183.92 61.236221)
(-226.78969 -251.45164 14.547246)
(-213.74778 -237.57502 32.377311)
(-199.30345 -222.74051 55.186366)
(-347.03856 -298.03638 2.1329049)
(-332.9809 -279.20888 21.634975)
(-316.23035 -260.39234 43.272553)
(-490.35847 -341.78151 -14.304674)
(-474.69025 -317.85526 4.1788201)
(-456.19659 -294.51419 24.98886)
(-655.52671 -381.57734 -36.584811)
(-638.19355 -352.44206 -18.931967)
(-618.00663 -324.42183 0.53107721)
(-840.58433 -416.1601 -64.55715)
(-821.62593 -381.9568 -48.424613)
(-800.04086 -349.11571 -30.709622)
(-1043.5556 -444.32294 -98.647526)
(-1023.1768 -405.13949 -84.044868)
(-1000.2689 -367.67882 -68.381031)
(-1261.684 -465.51567 -138.34956)
(-1240.0611 -421.70819 -125.66328)
(-1216.0664 -379.79385 -112.21475)
(-1492.5797 -479.18173 -183.77105)
(-1469.8127 -431.17132 -172.84321)
(-1445.0089 -385.16671 -161.82927)
(-1732.9851 -485.17812 -233.79586)
(-1709.5193 -433.59372 -225.0024)
(-1684.0892 -384.02629 -216.18572)
(-1980.5909 -484.21176 -288.32455)
(-1956.6247 -429.47305 -281.21884)
(-1930.7567 -376.74488 -274.61725)
(-2232.664 -475.69488 -346.33779)
(-2208.591 -419.03128 -340.40231)
(-2182.3916 -363.79474 -335.96886)
(-2487.2948 -461.65696 -405.79709)
(-2462.7766 -403.04308 -401.96747)
(-2436.5704 -346.10147 -399.12592)
(-2741.8474 -443.0308 -466.79945)
(-2717.069 -383.9707 -464.56864)
(-2691.2934 -325.13973 -462.89824)
(-2996.5716 -419.78352 -529.51363)
(-2971.3637 -359.93765 -527.93306)
(-2946.0629 -300.08104 -526.45059)
(7.2061693 -5.0926822 4.1303224)
(35.262542 -20.273289 16.821633)
(57.925419 -24.93163 22.013853)
(74.080099 -36.364046 32.014928)
(82.541364 -48.942407 40.211015)
(74.740007 -61.98944 46.166808)
(50.476048 -75.394709 50.708846)
(5.394922 -89.488849 50.682539)
(-62.311432 -102.31709 47.305107)
(-152.71265 -114.22323 39.261973)
(-267.31692 -123.3083 25.412541)
(-405.47831 -129.67296 5.9984296)
(-566.03819 -132.78834 -19.592182)
(-747.19942 -132.22265 -51.388883)
(-947.03787 -127.76719 -89.296281)
(-1162.7392 -119.60469 -132.94682)
(-1391.8508 -107.79308 -182.02862)
(-1631.3815 -92.769997 -235.56386)
(-1878.5693 -74.941304 -292.94875)
(-2131.0385 -54.845628 -353.1411)
(-2386.0965 -33.173401 -415.07164)
(-2641.3091 -10.072678 -477.64898)
(-2896.5551 13.545009 -540.77207)
(14.959994 -3.152942 5.7111389)
(41.700383 -11.271939 9.8100964)
(59.762775 -11.927287 12.453097)
(78.604832 -18.659189 20.165949)
(84.885272 -19.894145 23.972692)
(76.647916 -18.597338 26.210218)
(52.659386 -19.147959 28.926113)
(6.5396682 -14.584732 26.153626)
(-60.517783 -9.5932302 21.890396)
(-150.98675 -1.8618039 12.051288)
(-265.13616 8.012538 -1.7436223)
(-402.63748 20.493884 -21.146008)
(-561.92404 35.20775 -46.24691)
(-741.77496 52.236773 -77.220845)
(-939.87678 71.219594 -113.85064)
(-1153.6657 92.165586 -156.2862)
(-1380.7635 114.47706 -203.83643)
(-1618.0625 138.02818 -255.89056)
(-1863.2852 162.24444 -312.02413)
(-2113.507 187.04223 -370.84188)
(-2366.8567 211.97553 -431.7743)
(-2620.3874 236.64833 -493.81634)
(-2875.7837 262.13491 -556.21981)
(14.89677 -0.65040573 6.9036437)
(40.195887 -7.1314652 9.1693294)
(61.061792 -4.7200341 9.9426483)
(79.530814 -7.2052915 11.10116)
(84.150718 4.8114538 9.3957418)
(75.742174 14.726 10.232863)
(51.491503 30.228879 7.5186864)
(4.9200366 52.434962 2.9177953)
(-61.31451 74.139931 -4.0178835)
(-152.15407 102.18285 -15.421174)
(-265.08296 130.88765 -30.324186)
(-401.4616 162.52886 -50.263176)
(-559.28673 195.6998 -75.381105)
(-737.39768 229.57965 -105.59585)
(-933.4332 264.31579 -141.44896)
(-1145.0691 298.88181 -182.52346)
(-1369.8 332.97207 -228.56064)
(-1604.8485 366.25281 -279.11059)
(-1847.8344 398.23122 -333.49327)
(-2096.1662 428.96408 -390.66572)
(-2347.7696 457.72527 -450.47876)
(-2600.7433 485.72159 -510.65055)
(-2853.8141 511.57978 -572.76991)
(9.4062599 -1.7096344 0.59896807)
(11.090528 -1.1991565 1.8543745)
(8.890065 -1.8769546 2.0270616)
(31.311187 -5.7710582 6.1153572)
(30.567391 -6.5033107 9.5022131)
(33.503711 -9.7444852 11.677115)
(46.182838 -10.514905 8.6050165)
(51.466664 -13.008657 12.796653)
(50.352872 -15.493231 18.391933)
(58.782698 -22.804589 14.268795)
(60.221409 -24.208904 22.265996)
(63.75836 -26.518433 27.665117)
(58.710669 -37.012766 19.842638)
(62.803883 -37.705061 27.142699)
(67.62506 -39.399685 34.341819)
(45.182145 -55.400081 22.371286)
(49.706835 -54.932487 31.773775)
(56.937628 -55.060398 40.820598)
(15.320355 -76.833525 24.501355)
(20.876378 -74.61434 35.678267)
(29.003413 -71.794866 44.386163)
(-35.767603 -101.11508 24.261953)
(-29.695559 -94.070565 34.804373)
(-18.855326 -88.284058 45.467475)
(-108.47871 -124.28054 19.77312)
(-100.55956 -115.93595 31.594748)
(-88.306226 -106.91096 41.026953)
(-204.39168 -150.14574 12.117005)
(-195.45448 -136.33206 23.829707)
(-181.15878 -122.56782 33.918537)
(-323.71952 -174.09729 -0.81085302)
(-312.98809 -155.86154 10.361829)
(-297.06521 -137.97048 20.447986)
(-465.98678 -196.12498 -18.47055)
(-453.74559 -173.14498 -7.7028905)
(-436.33596 -150.0425 1.5624501)
(-630.51086 -215.75037 -42.070597)
(-616.59652 -187.58845 -32.105351)
(-597.51014 -159.48064 -23.559529)
(-815.07645 -231.4966 -71.492474)
(-799.3694 -198.30997 -62.559671)
(-778.91693 -164.98888 -54.804529)
(-1017.7367 -243.16262 -106.84202)
(-1000.4176 -204.82259 -98.930678)
(-978.66447 -166.64485 -92.171756)
(-1235.8602 -249.92088 -147.94599)
(-1216.9335 -207.03148 -141.27652)
(-1194.0285 -164.09126 -135.4369)
(-1466.7032 -251.84528 -194.43314)
(-1446.3532 -204.46612 -188.87912)
(-1422.5134 -157.31911 -184.13898)
(-1707.385 -248.47267 -245.62043)
(-1685.8547 -197.43537 -241.35259)
(-1661.2304 -146.63163 -237.41342)
(-1955.5444 -240.52816 -300.9997)
(-1932.7804 -186.04931 -297.61677)
(-1907.6601 -132.1682 -294.6681)
(-2207.5216 -227.29264 -359.35021)
(-2184.7101 -170.70124 -357.03055)
(-2158.7324 -114.57752 -354.65566)
(-2462.4676 -210.57561 -419.69588)
(-2439.3523 -152.72532 -418.4915)
(-2413.1557 -94.426529 -416.54662)
(-2717.6987 -190.32422 -481.87568)
(-2693.1236 -131.30533 -480.58176)
(-2667.18 -71.714878 -479.04933)
(-2972.401 -168.17089 -544.31393)
(-2947.3629 -108.19498 -542.93223)
(-2922.105 -48.059413 -541.91835)
(13.498287 -0.74554852 0.7882857)
(14.472352 -0.69285435 2.0957695)
(13.14223 -3.2210199 3.4114825)
(32.172277 -4.0783381 7.4122082)
(33.353609 -5.6556061 8.0441958)
(35.966915 -8.5233147 9.2118566)
(49.593019 -6.5734928 11.058787)
(51.762851 -8.2764837 11.554985)
(53.313144 -12.173447 12.656066)
(63.062063 -10.779409 18.564025)
(62.716327 -11.001857 19.382175)
(67.30828 -14.363432 19.978019)
(62.849564 -15.36499 22.723797)
(64.606471 -16.006473 22.275936)
(71.540514 -20.19342 24.900315)
(51.683655 -20.242986 26.827665)
(53.279535 -18.549445 27.780841)
(61.054803 -19.582395 27.951773)
(21.605732 -26.687238 29.635704)
(23.826599 -22.501553 28.801381)
(33.288384 -20.889331 30.942071)
(-28.348618 -31.233719 27.584532)
(-25.537553 -24.153939 27.447336)
(-13.346177 -20.998018 28.740281)
(-99.293992 -37.833846 23.779373)
(-95.380246 -26.876786 23.48895)
(-82.715042 -18.505083 25.099396)
(-194.49325 -42.460108 14.479213)
(-189.46502 -27.188221 13.678891)
(-174.65828 -15.201357 15.371919)
(-312.28598 -46.513105 0.62382677)
(-305.44641 -26.720346 0.012721841)
(-289.4069 -9.6330953 1.889099)
(-453.37716 -49.303761 -18.769502)
(-445.24029 -24.448587 -19.474902)
(-427.74605 -2.440591 -17.428791)
(-616.45228 -50.27094 -44.260964)
(-606.44375 -20.204988 -44.883122)
(-587.42222 7.0570646 -42.677977)
(-799.52631 -49.073429 -75.522886)
(-787.58679 -13.786408 -75.997147)
(-767.4472 18.743601 -73.757293)
(-1000.9363 -45.305491 -112.96858)
(-987.01388 -5.16498 -113.32873)
(-965.68848 32.458647 -110.8712)
(-1217.6596 -38.95192 -156.04588)
(-1201.7448 5.8624174 -156.19954)
(-1179.4316 48.379779 -153.69887)
(-1447.401 -29.628959 -204.47892)
(-1429.5725 19.339739 -204.38529)
(-1406.3613 66.207537 -201.87091)
(-1687.0539 -17.390476 -257.46583)
(-1667.4194 35.14319 -257.19958)
(-1643.5791 85.74663 -254.59148)
(-1934.3152 -2.4170356 -314.31524)
(-1913.1619 52.950835 -313.6859)
(-1888.5432 106.87628 -311.36745)
(-2186.0414 15.19988 -373.83887)
(-2162.9676 73.424941 -373.17454)
(-2138.5556 129.02725 -370.82412)
(-2441.2713 35.551192 -435.87774)
(-2416.0014 94.724519 -433.7903)
(-2392.0894 152.57846 -432.42466)
(-2694.9335 57.36636 -497.43703)
(-2670.6744 116.6246 -496.55864)
(-2645.2866 176.18166 -494.63788)
(-2950.3326 81.047896 -559.97819)
(-2925.3475 141.5153 -558.7971)
(-2900.4914 201.18865 -557.51841)
(13.202636 0.69096439 -0.15817318)
(13.535796 -0.85306959 1.8366227)
(14.295322 -0.21036632 3.2624346)
(32.753483 -1.7996306 2.0659072)
(33.499333 -4.7025965 4.8720319)
(37.146465 -4.6756346 5.3638476)
(52.600188 -3.1092554 9.0256443)
(54.116226 -2.7147373 7.5698948)
(55.857683 -4.7348213 7.3005536)
(61.704672 0.71990011 15.416402)
(64.167758 -4.6600671 14.320825)
(68.281174 -4.0839554 13.005923)
(64.912289 4.6830917 20.730508)
(66.800109 5.1301104 17.331613)
(71.827036 3.5768518 12.332655)
(51.954257 12.437497 26.602363)
(54.359165 11.65084 21.117711)
(60.632476 14.612624 16.625737)
(22.10302 23.024138 27.340561)
(25.418733 25.307002 20.84834)
(32.421609 28.236732 14.810365)
(-26.768975 33.661455 26.894554)
(-22.979058 39.492092 20.450728)
(-14.94702 46.852711 12.8105)
(-98.014612 47.501446 22.122174)
(-92.882311 56.305911 14.13269)
(-84.038162 66.706438 6.1225624)
(-191.70976 62.072128 12.410756)
(-185.85898 75.759938 4.6144754)
(-175.56801 89.989022 -3.5302499)
(-308.4835 77.606047 -1.9068716)
(-300.98226 95.763534 -9.7860265)
(-290.06733 114.76265 -18.153717)
(-448.3896 94.640425 -22.382347)
(-439.4648 117.8741 -30.124817)
(-427.34893 141.44835 -37.868938)
(-609.60656 112.14461 -48.591502)
(-598.94428 140.63777 -55.634489)
(-585.69393 169.37697 -63.050892)
(-791.18275 130.84442 -81.031088)
(-778.66507 164.29664 -87.487416)
(-764.16881 197.97753 -94.07989)
(-990.52406 150.08381 -119.58129)
(-976.18631 188.62546 -125.12373)
(-960.45575 227.31141 -130.74983)
(-1205.4761 170.24302 -163.86114)
(-1189.2222 213.43778 -168.43841)
(-1172.1188 256.71106 -173.07374)
(-1433.2784 191.2249 -213.50242)
(-1415.2232 238.58834 -217.02731)
(-1396.7994 286.13095 -220.58875)
(-1671.2492 212.89166 -267.6274)
(-1651.4938 264.02382 -270.20354)
(-1631.7506 315.12752 -272.66325)
(-1916.7262 235.52603 -325.59665)
(-1895.4532 289.49013 -327.1174)
(-1874.3575 343.65894 -328.6632)
(-2167.2546 258.82399 -386.3199)
(-2144.7283 315.16518 -386.93537)
(-2122.4732 371.63232 -387.5291)
(-2420.4751 282.53328 -448.4772)
(-2396.7862 340.51958 -448.65523)
(-2373.7107 398.42187 -448.59159)
(-2674.6204 307.24493 -511.81687)
(-2650.5121 366.26343 -511.20244)
(-2626.4473 425.44329 -510.6221)
(-2928.1749 331.98965 -574.72696)
(-2903.4485 391.69656 -573.73807)
(-2878.5749 451.4902 -572.80326)
)
;

boundaryField
{
    free
    {
        type            zeroGradient;
    }
    fixed
    {
        type            fixedValue;
        value           uniform (0 0 0);
    }
    traction
    {
        type            zeroGradient;
    }
}


// ************************************************************************* //
