/*--------------------------------*- C++ -*----------------------------------*\
  =========                 |
  \\      /  F ield         | OpenFOAM: The Open Source CFD Toolbox
   \\    /   O peration     | Website:  https://openfoam.org
    \\  /    A nd           | Version:  6
     \\/     M anipulation  |
\*---------------------------------------------------------------------------*/
FoamFile
{
    version     2.0;
    format      ascii;
    class       pointVectorField;
    location    "1.66";
    object      u;
}
// * * * * * * * * * * * * * * * * * * * * * * * * * * * * * * * * * * * * * //

dimensions      [0 1 0 0 0 0 0];

internalField   nonuniform List<vector> 
625
(
(0 0 0)
(0 0 0)
(0.24902613 0.045210598 0.055142465)
(0.2450416 -0.044742303 0.050149988)
(0 0 0)
(0 0 0)
(0.24868836 -0.060973777 0.049441328)
(0.25274645 0.028635158 0.054936345)
(0 0 0)
(0 0 0)
(0 0 0)
(0.24770221 0.02186186 0.053001086)
(0.24619855 0.00033936504 0.052565382)
(0.24561366 -0.021305793 0.051271622)
(-0.0003360024 9.4746477e-05 0.00053185438)
(-0.00077523738 0.0008908879 0.0005921705)
(-0.0008171885 0.0019164725 0.001196479)
(-0.00029875804 0.0032636701 0.0017029501)
(0.00063789141 0.0050642441 0.0023773598)
(0.0026251617 0.006905935 0.0032829016)
(0.0052037772 0.0093647844 0.0043664786)
(0.0090052476 0.011695302 0.0057031716)
(0.013746377 0.014585784 0.0073404384)
(0.019811295 0.017355048 0.0091378471)
(0.027084761 0.020479792 0.011308835)
(0.035798749 0.023526158 0.013708404)
(0.045883568 0.026707851 0.016379439)
(0.057493291 0.029773077 0.019303957)
(0.070558616 0.032858546 0.022446709)
(0.085186932 0.035628007 0.025838756)
(0.10124498 0.038481157 0.029270006)
(0.11883119 0.040656766 0.033059577)
(0.13780176 0.042883109 0.036643646)
(0.15791583 0.044519492 0.040503405)
(0.17939747 0.04560486 0.044413255)
(0.20170364 0.046443364 0.048079176)
(0.22449086 0.046273544 0.052155235)
(-0.0005941809 -7.0371362e-05 -0.00039220603)
(-0.0011221808 -0.00039531601 -0.00083285172)
(-0.0014479544 -0.00080125879 -0.0013955083)
(-0.00089399734 -0.0017759633 -0.0013769617)
(-0.00015271511 -0.0023946148 -0.0015606096)
(0.0017527373 -0.0038715834 -0.001183103)
(0.0041970146 -0.004886803 -0.00083121305)
(0.0078619968 -0.0065801613 -1.3716468e-05)
(0.012520372 -0.0082179146 0.00096390902)
(0.01836887 -0.010032758 0.0023211178)
(0.025565489 -0.0121442 0.0039787868)
(0.034018023 -0.014296227 0.0059494046)
(0.04398804 -0.016678681 0.0082730195)
(0.055321365 -0.019207653 0.010874419)
(0.06821074 -0.021827612 0.013823447)
(0.082548441 -0.024617541 0.016997942)
(0.098399186 -0.027447478 0.020500998)
(0.11568131 -0.030341851 0.02415786)
(0.13439006 -0.033231236 0.028120204)
(0.15436397 -0.036036509 0.032145899)
(0.1756383 -0.038725376 0.036463252)
(0.19783282 -0.041124424 0.040784327)
(0.2208304 -0.043188423 0.045243255)
(0 0 0)
(0 0 0)
(0 0 0)
(-0.00015407845 -3.2811206e-05 1.5075857e-05)
(-0.00037173818 -0.0009063997 0.00022245512)
(5.2171269e-06 -0.0018286517 0.00032281252)
(0.00045820442 -0.0030481719 0.00058823292)
(0.0019601292 -0.0050015352 0.0011399276)
(0.0038921686 -0.0066616844 0.0016030248)
(0.0066805776 -0.0090829978 0.0026554506)
(0.010675479 -0.011479896 0.0035464934)
(0.015435775 -0.014282423 0.0050011629)
(0.021645779 -0.017347526 0.006629461)
(0.028799638 -0.020323799 0.0084390809)
(0.037571012 -0.02391537 0.010704494)
(0.047455615 -0.027160912 0.013064728)
(0.058971296 -0.030907692 0.015783246)
(0.071821126 -0.034442994 0.018690334)
(0.086198168 -0.038151964 0.021810636)
(0.10202935 -0.041767335 0.02510491)
(0.11931527 -0.045340118 0.028546836)
(0.13795517 -0.048745454 0.032062932)
(0.15800795 -0.051997313 0.035661975)
(0.179091 -0.054883246 0.039251326)
(0.20147497 -0.057535144 0.042844149)
(0.22440864 -0.059591237 0.046371184)
(0.24945068 -0.037274661 0.050814191)
(0.24951532 -0.016234581 0.052283219)
(0.2514366 0.0049792303 0.054159553)
(0.2284538 0.029736061 0.049991492)
(0.20503803 0.029730565 0.04548593)
(0.18253045 0.029357532 0.041007629)
(0.16094208 0.028584372 0.036589711)
(0.14049462 0.027411473 0.032325977)
(0.1213727 0.025929786 0.028212163)
(0.10361404 0.024287682 0.024316744)
(0.087356159 0.022385159 0.020646024)
(0.072572664 0.02047167 0.017233845)
(0.059324881 0.01841341 0.014101844)
(0.047567418 0.016391848 0.01126607)
(0.037325927 0.01434964 0.0087609295)
(0.028463754 0.012378776 0.0065354041)
(0.021022216 0.010520243 0.0046570393)
(0.014848273 0.0086897212 0.0031936131)
(0.0099586386 0.006908525 0.0018340059)
(0.006062465 0.0055986681 0.00087150331)
(0.0032389365 0.0041118691 0.00023725513)
(0.0012773382 0.0029240209 -0.00027742755)
(8.1163116e-05 0.0019341543 -0.00048355618)
(-0.0005005723 0.0012035003 -0.00060135093)
(-0.00070978276 0.00048448698 -0.00050072284)
(-0.00016405763 5.7777724e-06 -0.00017442299)
(0 0 0)
(0 0 0)
(0 0 0)
(0 0 0)
(0 0 0)
(0 0 0)
(0.24588418 -0.049258869 0.049723035)
(0.24697641 -0.053276434 0.049882042)
(0.2476999 -0.057485332 0.049659623)
(0.25022483 0.041641062 0.055128543)
(0.25124015 0.037308059 0.054949207)
(0.25212449 0.033403501 0.054928224)
(-0.00059319008 0.00036217772 0.00030257048)
(-0.001223024 0.00094878866 0.00041296993)
(-0.0012602325 0.0016058888 0.00078409822)
(-0.0010057707 0.00247526 0.0010737365)
(-5.0357089e-05 0.0035739686 0.0016134165)
(0.0017622021 0.0047664432 0.0024217523)
(0.0042389476 0.0061726885 0.0033305096)
(0.007978468 0.0076676936 0.0045416913)
(0.012546582 0.0093329918 0.0060039493)
(0.018605606 0.010978788 0.0077213521)
(0.025762755 0.012781294 0.0097528253)
(0.034394064 0.014505617 0.012029052)
(0.044414169 0.016259687 0.014593544)
(0.055943939 0.017931567 0.017425095)
(0.068968621 0.019465533 0.020501159)
(0.083520702 0.020932304 0.023761866)
(0.099590925 0.02211622 0.027255567)
(0.1171168 0.023083365 0.030905532)
(0.13608242 0.023929265 0.034554924)
(0.15632637 0.024193742 0.038541784)
(0.17789838 0.02424709 0.042201605)
(0.20028307 0.024082482 0.046130444)
(0.22371874 0.022861538 0.049891588)
(-0.00088474836 0.00016135843 5.0128622e-05)
(-0.0011459925 0.00026969739 -9.6893923e-05)
(-0.0015240387 0.0005653811 8.6768841e-06)
(-0.0011448788 0.00089113335 0.00015048579)
(-0.00022184521 0.0012534407 0.00059160964)
(0.0014014971 0.0016382315 0.0011526219)
(0.0039598707 0.002250749 0.0018547706)
(0.0075568942 0.0025898094 0.0030391296)
(0.012160059 0.0032575789 0.0042434194)
(0.018111743 0.0036597574 0.0059134898)
(0.025204148 0.0042463772 0.0077793848)
(0.033806242 0.0046494156 0.009979288)
(0.043759738 0.0050561846 0.012473778)
(0.055239006 0.0053373262 0.015235958)
(0.068198847 0.0055384294 0.018253024)
(0.082709981 0.0055743543 0.021530383)
(0.098705489 0.005470494 0.02501703)
(0.11618615 0.005247736 0.028645335)
(0.13513674 0.0047809355 0.032501571)
(0.15528442 0.0041843366 0.036388574)
(0.17682904 0.003461503 0.04039191)
(0.19926072 0.0024557391 0.044512078)
(0.22285209 0.0014868742 0.048528479)
(-0.00076303434 -0.00026845739 -0.00030855304)
(-0.0012126992 -0.00061172182 -0.00037014602)
(-0.0016722803 -0.00052489172 -0.00061820479)
(-0.0012029184 -0.00080514915 -0.00045643097)
(-0.00040581943 -0.0011354203 -0.00029744791)
(0.0012129189 -0.0012142797 1.0029455e-05)
(0.0038560378 -0.0018114513 0.00081383224)
(0.0073208156 -0.0021224769 0.0016052728)
(0.011957487 -0.0026777826 0.0028212314)
(0.017850278 -0.003325954 0.0043132063)
(0.024918594 -0.0039586472 0.0060563419)
(0.033499212 -0.0048399979 0.0081866368)
(0.043374271 -0.0057249914 0.010551587)
(0.05482182 -0.0067614431 0.013240172)
(0.067714388 -0.0079495459 0.016216897)
(0.082173507 -0.0091971771 0.019430677)
(0.09807125 -0.010599872 0.022883335)
(0.11555664 -0.012092998 0.026567918)
(0.1343146 -0.013645857 0.030368869)
(0.15458433 -0.015264173 0.034415998)
(0.17594964 -0.016945141 0.038436758)
(0.19845744 -0.018451149 0.042637098)
(0.22181194 -0.019913277 0.046901667)
(0 0 0)
(0 0 0)
(0 0 0)
(0 0 0)
(0 0 0)
(0 0 0)
(0 0 0)
(0 0 0)
(0 0 0)
(-0.0004114981 8.8057946e-05 -0.00033231533)
(-0.0002670221 9.5671924e-06 -0.0002983236)
(-0.00015526112 -4.7845298e-05 -0.00016548724)
(-0.000694081 -0.00026802165 -0.00073833101)
(-0.00045579662 -0.00056007109 -0.00046854779)
(-0.00033068208 -0.00075480072 -0.00016520258)
(-0.00072532722 -0.00079779657 -0.0010621127)
(-0.00030034863 -0.0011805216 -0.00066635295)
(-3.1901335e-06 -0.0016588356 -0.00015654057)
(-0.00013337327 -0.0018696062 -0.00098570445)
(0.00030474592 -0.002410978 -0.0006052282)
(0.00058621947 -0.0027206254 5.7716714e-06)
(0.0009648128 -0.0029202782 -0.00099712055)
(0.001567293 -0.0034836123 -0.00041585536)
(0.001956825 -0.0043381943 0.00036901914)
(0.0028114736 -0.0042600063 -0.00062713025)
(0.0035228487 -0.0052301122 -1.2190966e-06)
(0.003945597 -0.0060278398 0.00085467967)
(0.0056241049 -0.0059441239 -7.0740707e-05)
(0.0063977423 -0.0070612164 0.00062667626)
(0.0068539309 -0.0081485232 0.0017433019)
(0.0093401455 -0.0077224619 0.00076687769)
(0.010119069 -0.0088486808 0.0014919364)
(0.01073936 -0.010273857 0.0025530742)
(0.014077664 -0.0095998144 0.0018733435)
(0.015019203 -0.011250068 0.0026716638)
(0.015573711 -0.012785986 0.0039185305)
(0.020161279 -0.01192182 0.0032675974)
(0.021083453 -0.013658032 0.0041555089)
(0.021770009 -0.015558897 0.0054593106)
(0.027277434 -0.0141107 0.0050133605)
(0.028319804 -0.016214075 0.0059146926)
(0.028971219 -0.018336962 0.0072685586)
(0.035971654 -0.016798644 0.007041561)
(0.036999872 -0.019152147 0.0080008295)
(0.03770598 -0.021502023 0.0094355601)
(0.045852074 -0.019358299 0.0093972585)
(0.046934714 -0.0219114 0.010371919)
(0.047663146 -0.024621158 0.011837039)
(0.057302895 -0.022248829 0.012042688)
(0.058406339 -0.025145818 0.013052953)
(0.059116497 -0.027993478 0.014511081)
(0.070152876 -0.025148428 0.014993376)
(0.071246762 -0.02818516 0.015983178)
(0.072006955 -0.031360097 0.017456522)
(0.084494026 -0.028175925 0.01817557)
(0.085619616 -0.031502001 0.01917795)
(0.086341512 -0.034822061 0.020609181)
(0.10029308 -0.031249728 0.021638891)
(0.10138231 -0.034716275 0.02259465)
(0.10214515 -0.038264581 0.023959753)
(0.11753626 -0.034342575 0.025262738)
(0.11865255 -0.038002193 0.026180441)
(0.11938944 -0.041683799 0.027489584)
(0.13612861 -0.037373793 0.02911865)
(0.13718667 -0.041132838 0.029970117)
(0.13794145 -0.044983339 0.031114457)
(0.15604867 -0.040319979 0.03307375)
(0.15712658 -0.044237934 0.033817429)
(0.15789112 -0.048159587 0.034846623)
(0.17708486 -0.043097118 0.03719231)
(0.17807639 -0.046987791 0.037805547)
(0.17886891 -0.051011758 0.038613788)
(0.19919343 -0.04553392 0.041353007)
(0.20022677 -0.049571936 0.041825137)
(0.20105491 -0.053695541 0.042369888)
(0.22207472 -0.047753296 0.045579375)
(0.22295836 -0.051705915 0.045770767)
(0.2238993 -0.055710324 0.046087759)
(0.24903049 0.018146069 0.053649154)
(0.25002318 0.014022918 0.053669556)
(0.25081215 0.0098422648 0.053890074)
(0.2471699 -0.0037146025 0.052674352)
(0.24824609 -0.0079862533 0.052447291)
(0.24884531 -0.012028447 0.052380641)
(0.24669308 -0.025623225 0.051019658)
(0.24775803 -0.029632421 0.051074842)
(0.24847425 -0.033651388 0.050985144)
(-0.00017908148 -3.980647e-05 0.00026451763)
(-0.00018247242 6.2007933e-05 0.00012791621)
(-8.9920738e-05 -9.7403972e-05 -3.1429095e-05)
(-0.00059186542 0.000675354 0.00031706136)
(-0.000402835 0.00054379719 -6.8161475e-05)
(-0.00047069515 0.0004179058 -0.00034303893)
(-0.00029390272 0.0016827983 0.00058668323)
(-0.00037618335 0.0015159695 0.00033114692)
(-0.00015887991 0.0012582851 -0.0002263829)
(0.00014909908 0.0028334431 0.0010507729)
(0.00041006521 0.0024801906 0.00056904206)
(0.00046366214 0.0021865609 -0.00014365887)
(0.0014185436 0.0044903844 0.0016072446)
(0.0016155207 0.0039796572 0.00079829513)
(0.0016884138 0.0034173513 0.00021390365)
(0.0034682198 0.0061628626 0.0022850443)
(0.0036166812 0.0053449806 0.0017595892)
(0.0037553791 0.0047543297 0.0007196308)
(0.0061785189 0.008332942 0.0033054975)
(0.0064278115 0.0073996108 0.0024845684)
(0.0066621944 0.0064656831 0.0015120849)
(0.01010762 0.010485501 0.0045056442)
(0.010417344 0.0093021723 0.0036679119)
(0.010497425 0.0082442273 0.00253179)
(0.014906247 0.013123203 0.0060840941)
(0.015277184 0.011522267 0.005004584)
(0.01553804 0.010154028 0.0038875776)
(0.021172308 0.015567594 0.007724365)
(0.02151 0.013795469 0.0068480404)
(0.021746143 0.012228377 0.0054828144)
(0.028501714 0.018401509 0.00987449)
(0.028891484 0.016378691 0.0087346648)
(0.029161714 0.014499938 0.0073916017)
(0.037280902 0.021189784 0.012197992)
(0.037748872 0.018852128 0.011052554)
(0.038043767 0.016743316 0.0096752051)
(0.047447729 0.024060701 0.014842311)
(0.047964966 0.021464275 0.013652239)
(0.048280289 0.019077982 0.012220391)
(0.05910131 0.026885257 0.017738514)
(0.059658798 0.024022061 0.016533458)
(0.059998515 0.021407079 0.015078882)
(0.072215337 0.029678635 0.020925969)
(0.07283192 0.026581047 0.019679834)
(0.073229655 0.023704963 0.018243467)
(0.086852079 0.032293731 0.024261212)
(0.087528926 0.028970047 0.023073872)
(0.087917939 0.025905716 0.021639214)
(0.10293138 0.034834809 0.027890287)
(0.10364235 0.03129812 0.026694229)
(0.10413544 0.027981445 0.025314451)
(0.12051151 0.036951233 0.031601193)
(0.12129111 0.033292552 0.030443401)
(0.12174994 0.029866968 0.029157579)
(0.13937158 0.038995544 0.035409503)
(0.14017919 0.03514521 0.034458261)
(0.14076627 0.031495239 0.033216439)
(0.15953103 0.040502314 0.039515784)
(0.16044237 0.036609804 0.038384911)
(0.16105273 0.032803906 0.0373958)
(0.18094838 0.041613257 0.043387442)
(0.18189245 0.037533956 0.042533493)
(0.18248274 0.033700835 0.041703794)
(0.20315929 0.042160326 0.047180519)
(0.20398287 0.038333572 0.0467083)
(0.20475667 0.034252291 0.046043844)
(0.2262925 0.042589422 0.051548103)
(0.2271278 0.038400363 0.050967611)
(0.22805533 0.034202839 0.050668438)
(-0.00024708523 0.00021307055 -0.00013667576)
(-0.00087936281 0.00080538825 -0.00040994079)
(-0.00076808764 0.0007876139 -0.00022503159)
(-0.00022562115 0.0011732891 -0.00013699681)
(0.00084266648 0.0015646237 0.00018272952)
(0.0027802352 0.0019163902 0.00074699157)
(0.005527953 0.0023914301 0.0014547826)
(0.0092840879 0.0028970079 0.0025157573)
(0.014180612 0.0034113364 0.003803908)
(0.020235907 0.0040409594 0.0053730937)
(0.027577646 0.0046155985 0.0072683311)
(0.036345362 0.0052035961 0.0094725146)
(0.046504844 0.0058374937 0.011969677)
(0.058151272 0.0064135484 0.01475318)
(0.071323773 0.00695343 0.017843018)
(0.086003538 0.0074400919 0.021151658)
(0.10218989 0.007835946 0.024734595)
(0.11988616 0.0080933567 0.028486609)
(0.13894087 0.0082174384 0.032450142)
(0.15939873 0.0081505907 0.036519449)
(0.18102443 0.0078215601 0.040757777)
(0.20357229 0.0072856002 0.045029158)
(0.2272757 0.0061153206 0.04957091)
(-0.00056992927 2.5073816e-05 -2.5722878e-05)
(-0.0010257553 -4.4132786e-05 -9.2630557e-05)
(-0.00064048473 -0.00057263199 0.00013615135)
(-0.00028047339 -0.00050764232 0.00013274165)
(0.00092492706 -0.0010541982 0.00056052273)
(0.0028837958 -0.0015081244 0.0012134222)
(0.0055665375 -0.001738388 0.0018201838)
(0.0094201973 -0.0024956536 0.0030411508)
(0.014215188 -0.0028381884 0.0041981658)
(0.020321515 -0.003585776 0.005896732)
(0.027587696 -0.0040969371 0.0077098223)
(0.036360369 -0.0048792827 0.009921217)
(0.046406128 -0.0054984847 0.012361221)
(0.058032065 -0.0063366641 0.015128477)
(0.071096652 -0.0070492472 0.018117166)
(0.085694515 -0.0079463122 0.021365865)
(0.10180456 -0.0087609672 0.024837519)
(0.11938674 -0.0097415098 0.028449069)
(0.13839515 -0.010651569 0.03228387)
(0.15874892 -0.011704852 0.036150065)
(0.18036235 -0.01271756 0.040141231)
(0.20286973 -0.013944435 0.04414952)
(0.2269561 -0.014954333 0.048212341)
(-0.00043326416 -0.00029503367 5.9691944e-05)
(-0.00069215663 -0.00062878106 5.6860945e-05)
(-0.00044815142 -0.0014418741 0.00023006313)
(-0.00012992061 -0.0018876052 0.00039187306)
(0.0011956134 -0.0031126688 0.0010157966)
(0.0030751625 -0.0040666903 0.0014860046)
(0.0057847398 -0.0053172059 0.002396568)
(0.0096649689 -0.0069701249 0.0034993744)
(0.014359403 -0.0083157758 0.0047861051)
(0.020520715 -0.010249609 0.0064742851)
(0.027707407 -0.011972731 0.0083203929)
(0.036424052 -0.013974014 0.010517361)
(0.046414753 -0.01602508 0.012982936)
(0.057961587 -0.018090619 0.015672479)
(0.070935092 -0.020297019 0.018646429)
(0.085435915 -0.022451726 0.021818769)
(0.10143682 -0.024670579 0.025183532)
(0.11890269 -0.026839641 0.028710303)
(0.13778288 -0.028967656 0.032374663)
(0.15806089 -0.031024744 0.03606454)
(0.17941453 -0.032935175 0.039897575)
(0.20210127 -0.034687256 0.043571892)
(0.22531669 -0.0361305 0.04747718)
(-0.0002899025 0.0002498776 0.00017099794)
(-0.00031684841 0.00017025191 4.8710436e-05)
(-0.00019995809 0.00012997094 -8.4558984e-05)
(-0.00088567478 0.00086356289 0.00014835962)
(-0.00063900571 0.0007499939 -0.00010989288)
(-0.00072926751 0.00062024324 -0.00026503637)
(-0.00068977016 0.0013341459 0.00046460594)
(-0.00074269714 0.0011441851 0.00020027478)
(-0.00047204602 0.0008510016 -0.00013990676)
(-0.00036933632 0.0021933591 0.0006928309)
(-6.9052157e-05 0.0017403421 0.00023460527)
(0.00010065105 0.0013224985 -2.9561189e-05)
(0.000816326 0.0029844084 0.0010559082)
(0.0010431213 0.0024697829 0.00070708423)
(0.0012448155 0.0019023486 0.00037356452)
(0.0026855429 0.004043294 0.0018525894)
(0.0029928628 0.0032883625 0.0013828542)
(0.0032148112 0.0025041541 0.00091485424)
(0.0053346432 0.005177755 0.0026712294)
(0.0056539837 0.0042835535 0.0020537751)
(0.0059990033 0.0032485187 0.0016955584)
(0.0091123864 0.0065145172 0.0037816838)
(0.0095914918 0.0051828386 0.0032586977)
(0.0098663276 0.0039261189 0.0027015176)
(0.013910136 0.0077295508 0.0052115152)
(0.014344568 0.0063676719 0.0045716683)
(0.014670514 0.0048838972 0.0041138775)
(0.019963493 0.0092348172 0.0068563247)
(0.020510912 0.0074641974 0.0061752922)
(0.020853609 0.005658513 0.0056700241)
(0.02724874 0.010681955 0.0088567083)
(0.027790941 0.0086730755 0.0081957871)
(0.028166415 0.0066421056 0.0075807245)
(0.035935929 0.012119717 0.01109349)
(0.036558084 0.0098407404 0.010377516)
(0.036959114 0.0075040285 0.0098194687)
(0.046021798 0.013587934 0.013632371)
(0.04668951 0.01104236 0.012937878)
(0.047101561 0.0084325341 0.012339714)
(0.05760905 0.014957907 0.016478261)
(0.058294782 0.012172069 0.015764271)
(0.058738378 0.0093107864 0.015153694)
(0.070638079 0.016271435 0.019528434)
(0.071394346 0.01324124 0.018824166)
(0.071866509 0.010109706 0.018238761)
(0.085244031 0.017461478 0.022849458)
(0.086011529 0.014196992 0.022185857)
(0.086490292 0.010867033 0.021578703)
(0.10125318 0.018459553 0.026364175)
(0.1020666 0.015040577 0.025695755)
(0.10262354 0.011465978 0.025143276)
(0.11881231 0.019283028 0.030040585)
(0.11967654 0.015654682 0.029450488)
(0.12017795 0.011964452 0.028894652)
(0.13769005 0.019968263 0.033842522)
(0.13850166 0.016208355 0.033290524)
(0.13918711 0.012249515 0.032837268)
(0.15782364 0.020151798 0.037838822)
(0.15883648 0.01625715 0.037349676)
(0.15941074 0.012295189 0.036844106)
(0.17923078 0.020178519 0.041595474)
(0.180339 0.016321658 0.041414438)
(0.18087543 0.012198099 0.0410353)
(0.20163282 0.019905567 0.045752752)
(0.2024913 0.015986628 0.045574482)
(0.20321911 0.011670832 0.045187254)
(0.22488881 0.01906612 0.049743961)
(0.2257303 0.014849331 0.049598634)
(0.22660064 0.010674334 0.049520616)
(-0.00063937622 7.3244871e-05 -3.6515011e-05)
(-0.00057731344 5.0154345e-05 -0.00011807661)
(-0.00041404015 5.1684183e-05 -0.0001036773)
(-0.00098930059 0.00030620053 -0.00029509209)
(-0.00083954227 0.00017253991 -0.00031272703)
(-0.00076541296 4.0462644e-05 -0.00027621575)
(-0.00096575219 0.00036007817 -0.00011609697)
(-0.00067427899 5.4588347e-05 -9.174164e-05)
(-0.00059191455 -0.00013029976 -2.0769073e-05)
(-0.00062685724 0.00057360292 -0.0001202018)
(-0.00019173947 7.9099877e-05 -8.1105243e-05)
(2.0251149e-05 -0.00030966291 -5.575182e-05)
(0.00053369628 0.00077396355 0.00034675748)
(0.0010761261 0.00013328028 0.00044806397)
(0.001092974 -0.00026798426 0.00032610105)
(0.0023066346 0.00095415028 0.0008623143)
(0.0028288727 5.8767592e-05 0.00087564882)
(0.0030603511 -0.00065246125 0.00095502616)
(0.0049637477 0.0013284382 0.0014932545)
(0.0056449151 0.00020333472 0.0016868368)
(0.00586284 -0.00077282824 0.0015291964)
(0.0087202215 0.0013926659 0.0026981457)
(0.0094844008 -2.4616069e-05 0.0028049612)
(0.0095944598 -0.00099403822 0.0027589429)
(0.013401463 0.0018097196 0.0038439204)
(0.014160778 0.00019424958 0.0039750414)
(0.014453705 -0.0013020633 0.0038589695)
(0.019467067 0.0019482549 0.0055040171)
(0.020356464 -3.7711482e-05 0.0057142963)
(0.020554766 -0.0016073698 0.0055841447)
(0.026664592 0.0021778212 0.0073732841)
(0.027534617 8.4210322e-06 0.0075446865)
(0.027809524 -0.0019564245 0.0073913883)
(0.035316512 0.0023248875 0.0095407048)
(0.036288367 -0.00020326057 0.0097388158)
(0.036567878 -0.0023614645 0.0095895861)
(0.045348989 0.0024303701 0.012072339)
(0.046333386 -0.00030974587 0.012277067)
(0.046615579 -0.0027819483 0.012083916)
(0.056851044 0.0024340011 0.01480323)
(0.057880884 -0.00060888858 0.014996123)
(0.058189123 -0.003312233 0.014818755)
(0.069861148 0.0023842147 0.01787266)
(0.070900513 -0.00086647909 0.018084253)
(0.071242405 -0.0038438312 0.017881786)
(0.084366029 0.002162843 0.021145824)
(0.085434288 -0.0013200205 0.021332686)
(0.085793985 -0.0044906454 0.021128195)
(0.10035873 0.0018919693 0.024663994)
(0.10142992 -0.0017510047 0.024852564)
(0.10182699 -0.0051822638 0.024651734)
(0.11784343 0.0014567949 0.028340438)
(0.11891158 -0.0024156822 0.028518251)
(0.11936141 -0.0059541051 0.028299167)
(0.13667627 0.00088405723 0.03221215)
(0.13776704 -0.003025812 0.032346895)
(0.13824456 -0.0068379197 0.032188275)
(0.15687481 0.00019112096 0.036117264)
(0.15793665 -0.0040605762 0.036318677)
(0.15846949 -0.0077763238 0.036075641)
(0.17839516 -0.0005561992 0.040351945)
(0.17919683 -0.0048188507 0.040176809)
(0.17998394 -0.0086926609 0.040168332)
(0.20057962 -0.0017468697 0.044293532)
(0.20155925 -0.0057583066 0.044413557)
(0.20218183 -0.0099391211 0.044147758)
(0.22401777 -0.0025956168 0.048429045)
(0.22519323 -0.0068581666 0.048391544)
(0.22597467 -0.010796229 0.048330498)
(-0.00059515868 -0.00017080589 -0.00019865773)
(-0.00042640005 -0.0001980402 -0.00018037944)
(-0.00041800574 -0.00022373003 -8.375007e-05)
(-0.00087704778 -0.00033378573 -0.00029727092)
(-0.00062537801 -0.00041738565 -0.00028087843)
(-0.00064635631 -0.00062584429 -7.5861115e-05)
(-0.0010457117 -0.00053021758 -0.00046370531)
(-0.00064615386 -0.00099100793 -0.00014592945)
(-0.00043306759 -0.0011440534 4.8962718e-05)
(-0.00042240825 -0.00095178357 -0.00032264989)
(-0.00012433354 -0.001144482 -0.00016714915)
(0.00013999689 -0.0017293707 1.8164076e-05)
(0.00049229716 -0.0013105971 -7.5890342e-05)
(0.001064153 -0.0020899163 0.00020909817)
(0.0013131301 -0.0024814404 0.00065363197)
(0.0023748005 -0.0018334552 0.0002105721)
(0.0028620492 -0.0024744305 0.00064835055)
(0.0032996575 -0.0034499123 0.00092806351)
(0.0050663684 -0.002528875 0.0010788032)
(0.0056943096 -0.0035511228 0.0014650598)
(0.0061180906 -0.0044503571 0.0018658067)
(0.0087208238 -0.0031654951 0.0018830229)
(0.0093760199 -0.0044074511 0.0023137066)
(0.0098935347 -0.0057361139 0.0028028825)
(0.013498684 -0.0040347625 0.0031109368)
(0.014142708 -0.0054295608 0.0036440186)
(0.014774397 -0.0069972219 0.0041387618)
(0.019464251 -0.0049586383 0.004654233)
(0.020270325 -0.0067287906 0.0051722867)
(0.020840945 -0.0085056337 0.0057003241)
(0.026667872 -0.0059429966 0.0063935143)
(0.027387366 -0.0079120284 0.0069688865)
(0.028121282 -0.010040593 0.0075395416)
(0.035303362 -0.0071246796 0.0085614607)
(0.036147416 -0.0093750646 0.0091652997)
(0.036836305 -0.011724981 0.0097076712)
(0.045252044 -0.0083207844 0.010930955)
(0.046063815 -0.010854322 0.01153117)
(0.046834496 -0.013508408 0.012133337)
(0.056745035 -0.0096938282 0.013641651)
(0.057610391 -0.012438532 0.014280641)
(0.058363891 -0.015333741 0.014851628)
(0.069658572 -0.011132712 0.016622887)
(0.070507972 -0.014136134 0.017231791)
(0.071330417 -0.017280959 0.017815495)
(0.084102758 -0.01266784 0.019833297)
(0.085010232 -0.015885168 0.020459414)
(0.085791984 -0.019240231 0.021011527)
(0.10001677 -0.014302989 0.023297271)
(0.10086687 -0.01770057 0.023877985)
(0.10172016 -0.021252249 0.02442374)
(0.11739508 -0.015981527 0.026941348)
(0.11833606 -0.019579343 0.027506307)
(0.11916399 -0.023293951 0.027987613)
(0.13615075 -0.017740553 0.030738939)
(0.13701343 -0.021466389 0.031243952)
(0.13785093 -0.025272666 0.031709168)
(0.15626452 -0.019465508 0.034738161)
(0.15720808 -0.023312911 0.035150773)
(0.15810148 -0.027254278 0.03551707)
(0.17747127 -0.021204132 0.038661052)
(0.17834426 -0.025128489 0.039043637)
(0.17920304 -0.029089356 0.039377671)
(0.19987352 -0.022820231 0.042822736)
(0.2007832 -0.026838667 0.043153354)
(0.20176374 -0.030835448 0.043333646)
(0.2229555 -0.02438611 0.046958029)
(0.22380048 -0.028221979 0.047084861)
(0.224756 -0.032459271 0.047084162)
)
;

boundaryField
{
    free
    {
        type            calculated;
    }
    fixed
    {
        type            calculated;
    }
    traction
    {
        type            calculated;
    }
}


// ************************************************************************* //
