/*--------------------------------*- C++ -*----------------------------------*\
  =========                 |
  \\      /  F ield         | OpenFOAM: The Open Source CFD Toolbox
   \\    /   O peration     | Website:  https://openfoam.org
    \\  /    A nd           | Version:  6
     \\/     M anipulation  |
\*---------------------------------------------------------------------------*/
FoamFile
{
    version     2.0;
    format      ascii;
    class       pointVectorField;
    location    "1.56";
    object      lm;
}
// * * * * * * * * * * * * * * * * * * * * * * * * * * * * * * * * * * * * * //

dimensions      [1 -2 -1 0 0 0 0];

internalField   nonuniform List<vector> 
28033
(
(-1.780536e-14 4.8656612e-16 1.3104288e-15)
(-5.4375576e-15 3.3318594e-15 9.9433006e-16)
(4885.109 2129.0158 -23.008121)
(5382.5313 902.5818 28.342014)
(-1.338461e-14 3.0090723e-15 -2.870051e-16)
(-1.2587315e-14 4.9008913e-15 -4.4266115e-15)
(5368.5722 900.60082 1.1856962)
(4874.3861 2142.2162 7.2311751)
(-5.6329745e-15 1.0535579e-15 6.7193838e-16)
(-2.4534443e-15 3.0423504e-16 5.8836893e-16)
(-5.4923298e-15 2.4302826e-15 8.9528572e-16)
(-2.6209443e-15 -1.1537891e-15 -6.7979696e-16)
(-7.2548563e-15 1.5542294e-15 1.0013199e-15)
(-4.7613589e-15 -9.2108094e-16 -7.3952737e-16)
(-1.132389e-15 -2.2256662e-17 -6.4484848e-16)
(-7.4239857e-16 -2.4218299e-16 -3.6669977e-16)
(-1.1196198e-15 4.5550132e-16 8.383863e-16)
(-2.3465882e-16 2.2667819e-16 1.4996246e-15)
(-4.0583243e-15 -8.7236639e-16 -1.3429605e-15)
(-5.8237189e-15 8.4462789e-16 7.5519031e-16)
(-5.1611762e-15 1.0100276e-15 9.7613867e-16)
(-1.7679952e-15 -8.1010255e-16 4.5192313e-16)
(-4.4158752e-15 1.0299569e-15 -9.452958e-16)
(4774.1314 1990.133 -22.610169)
(4627.034 1842.9469 -22.4927)
(4524.3474 1720.6736 -21.004118)
(4485.7101 1627.487 -19.4115)
(4521.0841 1564.5111 -16.775198)
(4629.7108 1526.5792 -13.178892)
(4798.5008 1506.3331 -8.8747152)
(5006.6695 1493.496 -3.4362535)
(5225.7522 1477.9885 2.4922653)
(5426.493 1449.9889 8.9407624)
(5582.1113 1403.1258 14.802566)
(5671.6169 1333.7876 19.417046)
(5685.0359 1242.9608 23.416497)
(5622.8011 1134.3973 25.804259)
(5503.6725 1016.4174 27.020282)
(-8.7915077 -4.487585 1.4915674)
(-22.443258 -3.5348673 9.5950764)
(-34.699211 -1.4959156 17.690146)
(-43.961325 2.2605578 23.697612)
(-49.868579 6.8885746 28.409171)
(-51.676419 12.780239 30.881181)
(-49.265087 19.366331 31.42019)
(-42.739338 27.04672 29.821103)
(-32.156373 35.230306 26.547732)
(-17.860546 44.466279 21.469935)
(-0.15797915 53.796453 14.942753)
(20.333023 64.202473 7.5760177)
(43.08493 74.511033 -0.4660611)
(67.565746 85.510198 -8.7021231)
(93.029323 96.409576 -16.6211)
(119.00143 107.93927 -23.837441)
(145.11011 119.5581 -30.117576)
(170.91604 131.60605 -35.169793)
(196.30128 144.03021 -38.799876)
(221.19071 157.12059 -40.997197)
(245.64061 170.81262 -41.688072)
(270.06225 185.4278 -41.187689)
(294.59949 200.92237 -39.584233)
(319.86906 217.71534 -37.066712)
(346.3721 235.45292 -34.11974)
(374.74455 254.71699 -31.055352)
(405.35537 274.87268 -28.088261)
(438.8901 296.53865 -25.575832)
(475.75933 318.90788 -23.942043)
(516.20672 342.41817 -23.137332)
(560.36712 366.06847 -23.458331)
(608.37656 390.15484 -24.814957)
(659.80296 414.43228 -27.243269)
(714.55905 437.65616 -30.31456)
(772.05096 460.50209 -34.420744)
(831.68582 481.89624 -38.463333)
(892.59777 502.14778 -42.62556)
(954.32312 520.3409 -46.552853)
(1015.6676 537.01024 -49.750397)
(1076.1777 551.74236 -51.816717)
(1134.9943 564.53717 -52.737605)
(1191.6037 575.93809 -52.110823)
(1245.607 585.65123 -49.976997)
(1296.6548 594.42733 -46.121099)
(1344.7355 602.43546 -40.86681)
(1389.9581 610.29025 -34.19027)
(1432.6048 618.37061 -26.45529)
(1473.2047 627.27257 -17.963972)
(1512.3143 637.39531 -9.0910637)
(1550.7013 649.25126 -0.24718359)
(1589.1088 663.15004 8.1670373)
(1628.3576 679.43607 15.765794)
(1669.1975 698.25291 22.219892)
(1712.3279 719.72812 27.258059)
(1758.3246 743.81566 30.700443)
(1807.6237 770.42016 32.461855)
(1860.4946 799.32508 32.558089)
(1917.0245 830.27822 31.10012)
(1977.1351 862.94626 28.308705)
(2040.5681 896.99934 24.46073)
(2106.9194 932.09752 19.922728)
(2175.7235 967.92163 15.060965)
(2246.3061 1004.2146 10.318939)
(2318.1965 1040.7287 6.0482553)
(2390.7044 1077.3743 2.5824281)
(2463.2145 1114.0823 0.35663184)
(2535.5076 1150.7486 -0.6036247)
(2607.1953 1187.6851 -0.13218788)
(2677.9274 1224.7043 1.8070579)
(2748.0868 1262.2114 5.2489581)
(2817.7183 1300.2109 9.7014843)
(2886.9939 1338.8614 15.086298)
(2956.4937 1378.4071 20.951757)
(3026.6454 1418.8033 27.032617)
(3098.005 1460.09 32.87297)
(3171.1134 1502.1452 38.109764)
(3246.3862 1544.8437 42.386539)
(3324.2329 1587.8663 45.432499)
(3404.8351 1630.9936 47.052867)
(3488.2356 1673.6808 47.10845)
(3574.4207 1715.5941 45.63037)
(3662.9807 1756.2942 42.600097)
(3753.5152 1795.2095 38.345168)
(3845.2311 1832.11 32.888346)
(3937.7059 1866.6445 26.740508)
(4029.9732 1898.2937 19.997053)
(4121.2517 1927.2473 13.279253)
(4210.5276 1953.1496 6.6459917)
(4297.3835 1976.3524 0.58528709)
(4380.7715 1996.8717 -4.9594955)
(4460.8479 2015.1473 -9.2398894)
(4536.3952 2031.7661 -13.308345)
(4608.9927 2046.7409 -15.485477)
(4677.1453 2062.243 -18.540022)
(4741.2774 2077.0117 -19.9132)
(5.6776287 -9.1698956 -13.41712)
(4.5946055 -18.824143 -18.341563)
(3.9557433 -29.699265 -21.080154)
(2.039942 -42.748001 -26.24797)
(3.1313413 -56.819727 -29.069888)
(5.8936765 -71.492992 -32.80296)
(11.542545 -86.867488 -35.741943)
(19.918391 -101.7562 -38.904326)
(30.951597 -116.19842 -41.912106)
(44.824925 -129.59228 -44.795851)
(60.974458 -141.7693 -47.77556)
(79.357672 -152.27844 -50.826171)
(99.422588 -161.17743 -53.846821)
(120.91239 -168.30752 -57.158509)
(143.40063 -173.68825 -60.563327)
(166.49658 -177.5298 -64.289642)
(190.05767 -179.87769 -68.32255)
(213.84298 -181.03521 -72.497556)
(237.67757 -181.33583 -77.022568)
(261.88771 -180.7781 -81.688652)
(286.37222 -179.90103 -86.338047)
(311.58126 -178.67017 -90.940346)
(337.79148 -177.292 -95.261334)
(365.47819 -175.85559 -99.083903)
(395.04774 -174.27751 -102.23271)
(427.06324 -172.50359 -104.42497)
(461.95684 -170.49208 -105.52769)
(499.97307 -167.79195 -105.33009)
(541.54877 -164.46818 -103.72935)
(586.60169 -159.91883 -100.61795)
(635.39373 -154.21776 -96.017665)
(687.53787 -146.87702 -89.953488)
(742.88349 -137.8595 -82.577715)
(800.95756 -126.97438 -74.083366)
(861.23866 -114.22649 -64.665597)
(922.94494 -99.553497 -54.840399)
(985.36959 -83.113848 -44.754435)
(1048.0196 -65.324925 -34.903818)
(1109.9052 -46.248819 -25.639541)
(1170.6177 -26.394051 -17.3354)
(1229.412 -6.1393264 -10.360679)
(1285.9999 14.061705 -4.9773144)
(1340.0231 33.748323 -1.4181041)
(1391.4729 52.48761 0.19659903)
(1440.3648 69.889621 -0.19345541)
(1487.0265 85.629865 -2.5272575)
(1531.8291 99.462414 -6.6831068)
(1575.3778 111.24877 -12.428314)
(1618.3079 120.93902 -19.485563)
(1661.3828 128.60185 -27.501044)
(1705.3402 134.39744 -36.106593)
(1750.9457 138.57941 -44.904458)
(1798.862 141.47226 -53.522732)
(1849.6878 143.45808 -61.608223)
(1903.862 144.94219 -68.870455)
(1961.6883 146.34388 -75.079987)
(2023.2843 148.05501 -80.091898)
(2088.6118 150.43482 -83.844066)
(2157.4544 153.77319 -86.366594)
(2229.4648 158.29455 -87.763503)
(2304.1744 164.1299 -88.217953)
(2381.0422 171.33291 -87.959491)
(2459.4897 179.86496 -87.256867)
(2538.9545 189.6263 -86.386966)
(2618.9177 200.44483 -85.610349)
(2698.9682 212.12319 -85.167697)
(2778.8055 224.44969 -85.213732)
(2858.246 237.16931 -85.856789)
(2937.3763 250.18072 -87.141036)
(3016.332 263.31242 -88.911832)
(3095.5082 276.30955 -91.010979)
(3175.0914 289.58425 -93.316661)
(3255.8874 302.77673 -95.391377)
(3338.2436 316.33642 -96.946266)
(3422.7595 330.3398 -97.651056)
(3509.8831 345.10452 -97.128743)
(3599.9801 360.91933 -95.112993)
(3693.2819 378.08841 -91.374657)
(3789.7668 396.90227 -85.768109)
(3889.3117 417.59606 -78.321072)
(3991.5083 440.35607 -69.106685)
(4095.7944 465.28205 -58.377411)
(4201.448 492.37134 -46.446196)
(4307.5732 521.52537 -33.768891)
(4413.2384 552.54204 -20.822708)
(4517.4329 585.11789 -8.1688902)
(4619.2073 618.87485 3.666715)
(4717.6714 653.35475 14.165064)
(4812.0889 688.07699 22.888149)
(4901.9031 722.50275 29.50433)
(4986.8248 756.14109 33.820165)
(5066.8305 788.4958 35.803553)
(5142.2913 819.06964 35.692895)
(5213.9448 847.65851 33.8225)
(5294.831 875.59099 31.012857)
(3.2927448e-15 -1.3239155e-15 2.3845803e-16)
(2.4470133e-15 -9.6672015e-16 3.215493e-17)
(-9.0574249e-15 9.0550918e-16 6.4029168e-16)
(-1.2642219e-16 -5.721845e-16 4.4370095e-16)
(-7.6811722e-15 -4.9270561e-16 4.1193361e-16)
(-7.3893964e-15 2.7533729e-15 -1.0951501e-15)
(-3.2915852e-15 -8.1743692e-16 3.8364228e-16)
(-1.9032499e-15 5.3200654e-16 -8.2319016e-17)
(-4.7409759e-15 -4.8623412e-16 4.3918642e-16)
(-1.2869644e-14 1.1845665e-15 6.4228907e-16)
(-9.6157521e-15 1.4157374e-15 5.9836601e-16)
(-9.4077204e-15 4.9518432e-16 1.1192419e-15)
(-5.982767e-15 2.6210694e-16 3.0473736e-16)
(-1.1478475e-14 -5.3386198e-16 1.6580808e-15)
(-5.257323e-15 3.6289085e-16 2.8600704e-16)
(1.2447819 -1.6517367 7.279276)
(-11.065032 -9.8069332 21.604743)
(-19.27568 -14.545802 29.946029)
(-25.569322 -21.932238 37.83061)
(-28.787928 -30.616624 41.426563)
(-27.182227 -39.329156 43.396946)
(-22.696585 -48.910892 42.363109)
(-13.437325 -57.713898 39.408466)
(-0.74482535 -66.852973 33.654431)
(15.874891 -75.140312 26.29395)
(35.794308 -82.423742 17.422219)
(58.262431 -89.102985 7.2365232)
(83.198508 -94.852025 -3.657418)
(109.93315 -99.376859 -14.918236)
(137.47373 -103.29789 -26.088853)
(165.98681 -106.26223 -36.375696)
(195.05429 -108.9397 -46.298113)
(223.08525 -110.84606 -54.611396)
(252.04037 -112.83132 -61.564712)
(279.49595 -114.4942 -66.955347)
(307.66031 -116.82297 -70.774951)
(335.71547 -118.77613 -73.04718)
(364.06398 -121.27773 -73.868745)
(393.07651 -123.84515 -73.531292)
(423.84763 -127.03635 -72.162901)
(456.19877 -129.39928 -70.464141)
(490.78336 -132.01784 -68.231143)
(528.8008 -133.67124 -66.113349)
(568.63505 -134.54481 -64.193624)
(613.15325 -134.46403 -62.705061)
(660.37828 -132.56278 -61.931687)
(710.974 -128.73796 -61.941732)
(764.58048 -123.10687 -62.571753)
(820.68394 -114.89533 -63.933712)
(880.32136 -104.7569 -65.802773)
(936.9146 -92.073904 -67.612304)
(998.95255 -77.792207 -69.811281)
(1059.4969 -60.938252 -71.557525)
(1119.2211 -42.818679 -72.784196)
(1177.7088 -23.275836 -73.202706)
(1234.3511 -3.0234976 -72.503404)
(1288.7364 17.682511 -70.578122)
(1340.6525 38.229562 -67.254695)
(1389.9979 58.265929 -62.532365)
(1436.9067 77.285344 -56.412363)
(1481.6408 94.999674 -49.0571)
(1524.6701 111.0611 -40.633293)
(1566.5556 125.3246 -31.435495)
(1608.0009 137.65387 -21.763384)
(1649.7461 148.08311 -11.990782)
(1692.5757 156.69264 -2.4752434)
(1737.2342 163.6882 6.4087778)
(1784.4178 169.32273 14.330639)
(1834.706 173.91975 21.002911)
(1888.5513 177.82867 26.203157)
(1946.2435 181.40748 29.796049)
(2007.9008 185.00736 31.725209)
(2073.4693 188.93636 32.038714)
(2142.7289 193.45949 30.857856)
(2215.3209 198.76815 28.402713)
(2290.7672 204.98568 24.939404)
(2368.5241 212.15725 20.79736)
(2448.0087 220.25298 16.320039)
(2528.6507 229.18594 11.860711)
(2609.9465 238.81648 7.7269168)
(2691.4634 248.95537 4.2169854)
(2772.9089 259.5129 1.5521432)
(2855.9513 270.19047 -0.15994466)
(2933.5716 280.53343 -0.88640739)
(3015.9613 291.55965 -0.54616909)
(3097.103 301.94965 0.60937303)
(3178.7528 312.56552 2.41512)
(3261.3795 323.08883 4.5942612)
(3345.5375 333.93348 6.9451108)
(3431.5881 345.28119 9.0830923)
(3519.9477 357.4248 10.795534)
(3610.8741 370.70421 11.83033)
(3704.4828 385.4394 12.010572)
(3800.7312 401.94335 11.239475)
(3899.39 420.48475 9.5021299)
(4000.0484 441.25886 6.8688288)
(4102.1377 464.39716 3.4916373)
(4204.9443 489.91072 -0.411397)
(4307.6687 517.73103 -4.5616555)
(4409.4425 547.65846 -8.6613362)
(4509.4171 579.41648 -12.394603)
(4606.7798 612.60646 -15.470447)
(4700.8305 646.78794 -17.635033)
(4791.0192 681.41712 -18.693639)
(4876.9803 715.96336 -18.537602)
(4958.5908 749.82984 -17.13634)
(5035.9694 782.47697 -14.583493)
(5109.5541 813.36957 -11.080841)
(5180.2199 841.95885 -6.857995)
(5237.3386 866.34794 -2.5384819)
(5506.4516 1016.7528 1.2156912)
(5636.8436 1138.054 0.52332825)
(5675.0293 1242.7775 0.14194736)
(5654.1271 1332.416 0.67142794)
(5560.8513 1402.5935 1.8401141)
(5392.4362 1446.7689 3.6458623)
(5198.7515 1478.2133 5.8655303)
(4997.6783 1500.5826 7.9727548)
(4765.676 1507.0645 9.7832434)
(4592.8517 1527.1468 11.132421)
(4508.144 1573.762 11.597301)
(4480.2746 1641.2212 12.245587)
(4523.2007 1736.1647 10.997612)
(4637.9081 1865.6974 10.489336)
(4808.375 2023.1816 8.4489102)
(4749.4539 2097.9407 5.3790247)
(4693.291 2086.2911 4.8137494)
(4625.9219 2069.9293 3.3576106)
(4555.1734 2052.9019 1.5769721)
(4480.4352 2034.5471 -2.1396794)
(4401.801 2014.2428 -7.1566512)
(4319.244 1991.7194 -13.927878)
(4233.1462 1966.6775 -22.160411)
(4144.0728 1938.9866 -31.603404)
(4052.6796 1908.7019 -42.024829)
(3959.7945 1875.7913 -52.840228)
(3866.1941 1840.6343 -63.79626)
(3772.638 1803.3216 -74.372967)
(3679.8758 1764.3265 -84.279777)
(3588.4882 1723.9171 -93.131604)
(3499.1337 1682.6363 -100.66226)
(3412.1733 1640.8604 -106.50778)
(3327.769 1598.9869 -110.73152)
(3245.9968 1557.3754 -113.22311)
(3166.7111 1516.3058 -114.12792)
(3089.642 1476.0176 -113.61506)
(3014.4363 1436.6217 -111.93224)
(2940.6398 1398.2013 -109.36136)
(2867.8819 1360.7052 -106.23476)
(2795.5136 1323.9907 -102.86064)
(2723.5314 1288.2002 -99.633233)
(2652.6093 1253.2443 -96.49708)
(2578.1988 1217.2779 -93.40129)
(2506.0446 1182.7801 -91.983606)
(2433.4588 1147.7841 -90.134488)
(2360.8365 1112.8348 -89.248609)
(2288.7964 1077.737 -88.571969)
(2217.8436 1042.5317 -88.118157)
(2148.4963 1007.3444 -87.584082)
(2081.3171 972.32858 -86.72309)
(2016.8437 937.71504 -85.273215)
(1955.5403 903.77086 -83.001325)
(1897.7486 870.80178 -79.720847)
(1843.6794 839.11022 -75.309027)
(1793.3612 808.99409 -69.730605)
(1746.6583 780.70934 -63.02987)
(1703.2384 754.46778 -55.347773)
(1662.6184 730.40007 -46.905942)
(1624.1562 708.57038 -38.005322)
(1587.1146 688.93916 -28.996823)
(1550.674 671.39555 -20.278107)
(1514.011 655.72494 -12.247706)
(1476.3038 641.66133 -5.3095217)
(1436.8404 628.85241 0.19200496)
(1394.9874 616.92361 3.9459111)
(1350.2895 605.48513 5.7283657)
(1302.4784 594.10323 5.4339354)
(1251.4293 582.42149 2.9747471)
(1197.3123 570.12567 -1.5261478)
(1140.3437 556.88933 -7.9038427)
(1081.132 542.48706 -15.984997)
(1020.042 527.09611 -25.274284)
(961.29049 511.44081 -35.559585)
(895.20727 491.77232 -46.128176)
(834.51556 472.86378 -56.909424)
(776.85016 453.78783 -67.358508)
(715.91349 431.86295 -77.131822)
(661.57927 411.31368 -85.327192)
(609.66493 390.55558 -92.432197)
(562.31027 370.04618 -97.818532)
(516.52694 349.43726 -101.89831)
(476.40956 330.91101 -103.52755)
(438.52051 312.25502 -104.15529)
(404.60558 295.88106 -102.80034)
(373.56729 280.33792 -100.29469)
(344.86233 266.20749 -96.707866)
(318.07633 253.19512 -92.131922)
(292.5609 241.26685 -87.286194)
(267.88165 230.77054 -82.196471)
(243.52954 220.2275 -77.052362)
(219.33165 211.05196 -72.232982)
(194.97734 201.04885 -67.871919)
(170.30493 192.42799 -64.119172)
(145.29373 181.84041 -61.052163)
(120.56582 172.37644 -58.412481)
(96.096917 161.99974 -56.496379)
(71.985683 150.68095 -55.098766)
(49.32707 137.81973 -53.35669)
(28.424678 126.59535 -52.508448)
(9.447885 113.14527 -51.025394)
(-6.5431559 99.098897 -48.883989)
(-19.292103 86.366177 -47.16662)
(-29.014757 72.63679 -44.095366)
(-34.210976 59.287952 -40.40642)
(-36.4475 46.618245 -35.714843)
(-34.248075 34.435184 -30.780097)
(-29.572606 24.397238 -24.846266)
(-20.720095 13.964697 -18.319674)
(-10.538688 7.9869725 -10.800042)
(-0.30715923 0.5078976 -3.56348)
(-6.8708141e-15 1.5083581e-15 1.9262289e-16)
(-1.2504183e-14 5.7375616e-16 8.4327435e-16)
(-8.3449101e-15 1.4891922e-15 5.3018253e-16)
(-4.9731758e-15 1.4991158e-15 6.2376313e-16)
(-3.4146159e-15 1.5624416e-15 3.1576894e-17)
(2.0582335e-15 9.3962624e-16 -5.746342e-16)
(2.2101935e-15 3.7457559e-17 -1.1841335e-16)
(2.4553765e-15 -8.5141669e-16 -9.3419562e-16)
(1.2987427e-15 1.0081898e-16 1.7950851e-15)
(-4.5074861e-15 9.063971e-16 1.0710522e-15)
(-5.2682467e-15 2.1856155e-15 1.0652666e-15)
(-7.4917339e-15 1.915055e-15 2.2418828e-16)
(-9.400838e-15 1.3708275e-15 6.2833768e-16)
(-6.2048683e-15 1.3247981e-15 5.4317906e-16)
(-6.971104e-15 1.5128103e-15 7.5678131e-16)
(-1.2693866e-14 6.2923345e-15 -2.1364834e-15)
(-5.2452578e-15 2.6791924e-15 -5.3037742e-16)
(-1.0752404e-15 9.8318743e-16 -1.0111087e-16)
(-2.7353382e-15 1.7746034e-15 7.3085398e-17)
(1.0178949e-15 -1.5450237e-16 -4.119182e-16)
(-1.4303492e-15 4.136346e-16 -3.3264033e-16)
(-1.0059749e-14 4.7133437e-15 -1.6449855e-15)
(2.9801421e-15 -1.9180379e-15 -8.3172098e-16)
(-4.79756e-15 2.8035442e-15 1.1420498e-15)
(-5.4778068e-15 3.5047253e-15 -3.934403e-16)
(-1.8117877e-15 1.1581936e-15 -9.1309836e-16)
(-3.9812639e-16 4.7407236e-16 -2.2932148e-16)
(-1.5272242e-15 1.100363e-15 -2.2557932e-16)
(-4.1024849e-15 1.9838802e-15 2.8069696e-17)
(-5.3424143e-16 2.551799e-16 -1.9455919e-16)
(5379.8918 903.8954 29.008519)
(5376.7723 903.6994 27.93819)
(5374.2972 903.44318 25.736404)
(5371.8431 903.26517 23.053394)
(5369.8336 903.33554 20.023721)
(5367.992 903.60745 17.024571)
(5366.3902 904.20147 14.038158)
(5365.1055 904.83694 11.300016)
(5364.1476 905.55897 8.7698119)
(5363.5538 906.14758 6.4898274)
(5363.4884 906.54665 4.5533162)
(5363.7091 906.66802 2.8326586)
(5364.5162 906.48294 1.6249798)
(5365.5736 905.32979 0.81028481)
(5367.1882 904.17557 1.0079784)
(4884.7072 2131.6122 -23.453398)
(4883.0611 2135.0993 -23.048288)
(4881.6435 2138.872 -21.45417)
(4880.2659 2142.6543 -19.468938)
(4879.3506 2146.4128 -17.107204)
(4878.517 2149.7163 -14.525338)
(4877.8744 2152.4445 -11.704449)
(4877.3228 2154.4188 -8.7841048)
(4876.8528 2155.4969 -5.7802511)
(4876.4229 2155.5802 -2.7849733)
(4876.0317 2154.6577 0.12986798)
(4875.7246 2152.8238 2.7840605)
(4875.4577 2150.2058 5.0520072)
(4875.2007 2147.0665 6.7735209)
(4875.0719 2144.2945 7.1674399)
(-7.8229008 3.5044686 1.7531574)
(-21.439142 6.2025705 7.9895277)
(-33.080458 6.8026983 12.713059)
(-42.86751 7.8672526 17.328167)
(-49.01387 9.1066523 20.716992)
(-51.78891 10.741176 22.786875)
(-50.456153 13.109989 23.291123)
(-45.421225 16.240147 22.349992)
(-36.294789 20.248776 19.779585)
(-23.829339 25.179539 16.010113)
(-7.6978855 30.97616 10.902275)
(11.104042 37.904747 4.94472)
(32.443523 45.554548 -1.7415556)
(55.602372 54.311767 -8.7006021)
(80.165592 63.776466 -15.760386)
(105.46682 74.178646 -22.400266)
(131.23192 85.089746 -28.510115)
(156.98303 96.893328 -33.776942)
(182.52981 109.1132 -37.978507)
(207.68745 122.12891 -41.023894)
(232.55251 135.64335 -42.876142)
(257.30091 149.77827 -43.526596)
(282.29809 164.6787 -43.169156)
(307.86309 180.23918 -41.844958)
(334.67253 196.56333 -39.915387)
(363.22476 213.82363 -37.554008)
(394.22903 231.93177 -35.103681)
(428.14377 250.98391 -32.761756)
(465.66645 270.8728 -30.921918)
(507.05549 291.7506 -29.692824)
(552.68939 313.25548 -29.237627)
(602.58877 335.52575 -29.760644)
(656.61788 358.07549 -31.026904)
(714.52459 380.7064 -33.108567)
(775.76776 403.46479 -35.948986)
(839.62006 425.65671 -39.095794)
(905.29785 447.29173 -42.217457)
(971.91798 467.88227 -45.365926)
(1038.4906 487.56723 -47.842461)
(1104.0033 505.70443 -49.437228)
(1167.7552 522.49607 -49.967573)
(1228.7801 537.74906 -49.229564)
(1286.8227 551.66795 -46.978834)
(1341.2749 564.2034 -43.333337)
(1392.0746 575.7738 -38.276824)
(1439.4567 586.60625 -31.979399)
(1483.7427 597.06242 -24.751267)
(1525.5482 607.58655 -16.865643)
(1565.6172 618.58055 -8.7348828)
(1604.8407 630.49891 -0.73828863)
(1644.1453 643.72343 6.7156374)
(1684.4746 658.61908 13.273231)
(1726.6887 675.45342 18.623474)
(1771.5411 694.44051 22.538039)
(1819.6113 715.67438 24.886375)
(1871.2801 739.18166 25.636693)
(1926.709 764.88813 24.859014)
(1985.8417 792.64881 22.729911)
(2048.4121 822.24937 19.509534)
(2113.9683 853.44479 15.509664)
(2181.9368 885.95428 11.121284)
(2251.6365 919.48904 6.6888123)
(2322.3501 953.80868 2.6521403)
(2393.4356 988.62889 -0.74114267)
(2464.1988 1023.7913 -3.1206295)
(2534.2043 1059.1476 -4.3458671)
(2603.1764 1094.5417 -4.2982656)
(2670.7706 1129.7788 -2.8305596)
(2737.2256 1165.2323 -0.21340747)
(2802.6384 1200.6876 3.5372559)
(2867.3483 1236.1794 8.0227113)
(2931.7921 1271.9206 13.018071)
(2996.5128 1307.9153 18.25167)
(3062.0594 1344.1409 23.382569)
(3128.9903 1380.6323 28.072842)
(3197.7674 1417.3311 32.040028)
(3268.7485 1454.1644 35.059752)
(3342.1989 1490.9729 36.955245)
(3418.1575 1527.5781 37.627714)
(3496.5985 1563.76 37.054095)
(3577.2326 1599.2635 35.292926)
(3659.6495 1633.8631 32.420649)
(3743.3223 1667.2396 28.663538)
(3827.4805 1699.1665 24.318997)
(3911.8695 1729.4178 19.384538)
(3995.3031 1758.1019 14.338715)
(4077.2969 1784.7668 9.1439577)
(4157.1108 1809.5301 4.1876417)
(4234.2757 1832.3934 -0.47197344)
(4308.4608 1853.4228 -4.6190202)
(4379.2215 1872.7455 -8.3216276)
(4446.8635 1890.8193 -11.547024)
(4511.4073 1907.4088 -14.266905)
(4573.2353 1923.8845 -17.26732)
(4643.8667 1944.0892 -19.821788)
(-9.2835766 2.8428899 2.3468623)
(-21.053633 5.6971973 5.40313)
(-31.714318 5.577598 9.1417403)
(-40.386108 6.5238592 12.053422)
(-46.685556 5.9971474 14.824845)
(-49.563561 6.1966507 16.25188)
(-49.264951 6.2606405 16.922531)
(-45.152057 7.2338356 16.068179)
(-37.695922 8.5214388 14.288763)
(-26.656662 11.071064 11.165835)
(-12.464244 14.165175 7.1280987)
(4.7093443 18.703923 2.102798)
(24.405742 24.012766 -3.5019784)
(46.242391 30.651135 -9.6601291)
(69.664993 38.15696 -15.889463)
(94.298891 46.919951 -22.16243)
(119.62859 56.475462 -28.006656)
(145.3759 67.037785 -33.357806)
(171.11574 78.360762 -37.869032)
(196.85076 90.554752 -41.575454)
(222.39816 103.30241 -44.146386)
(247.98763 116.89858 -45.799242)
(273.76961 130.97469 -46.351682)
(300.23994 145.90229 -46.066361)
(327.79373 161.30963 -44.964192)
(357.14472 177.70028 -43.380391)
(388.81666 194.62965 -41.392026)
(423.54991 212.59916 -39.423685)
(461.87165 231.30365 -37.556801)
(504.3972 251.01431 -36.121751)
(551.34237 271.49781 -35.22922)
(603.03199 292.83855 -35.028172)
(659.30154 314.87733 -35.516018)
(719.96882 337.48131 -36.764005)
(784.4757 360.34597 -38.521812)
(852.26214 383.39898 -40.704895)
(922.1749 406.18049 -43.031807)
(993.44948 428.44679 -45.258244)
(1064.7702 449.9677 -47.057018)
(1135.0423 470.41969 -48.182278)
(1203.398 489.57026 -48.277576)
(1268.8205 507.38863 -47.392782)
(1330.6391 523.64967 -44.980459)
(1388.412 538.44442 -41.379388)
(1441.9638 551.95149 -36.603355)
(1491.5101 564.29024 -30.686265)
(1537.421 575.77231 -23.974447)
(1580.4026 586.80447 -16.732542)
(1621.3271 597.76915 -9.365304)
(1661.2043 609.14819 -2.221696)
(1701.1027 621.35228 4.3005694)
(1742.0614 634.81878 9.8914363)
(1785.0259 649.88261 14.262156)
(1830.7735 666.84076 17.239602)
(1879.8697 685.86235 18.730757)
(1932.6255 707.057 18.746802)
(1989.1032 730.39711 17.405749)
(2049.1051 755.79421 14.915724)
(2112.2118 783.06006 11.545909)
(2177.8361 811.96082 7.636716)
(2245.2561 842.20398 3.5378132)
(2313.7102 873.50778 -0.39972889)
(2382.4267 905.53748 -3.8135912)
(2450.714 938.08402 -6.5296907)
(2518.0061 970.78105 -8.1234286)
(2583.8156 1003.746 -8.81)
(2649.0148 1036.8391 -8.0214489)
(2714.0347 1070.4009 -6.4196049)
(2776.2588 1103.1237 -3.7505116)
(2837.1399 1135.5705 -0.15614079)
(2897.3794 1167.8655 3.9789333)
(2957.3796 1200.1234 8.4863007)
(3017.7828 1232.3431 13.071533)
(3079.164 1264.5652 17.449716)
(3141.948 1296.8714 21.36602)
(3206.5701 1329.2241 24.623181)
(3273.2729 1361.6195 27.045445)
(3342.2218 1393.9511 28.530936)
(3413.3512 1426.1436 29.042354)
(3486.5293 1458.0368 28.557297)
(3561.3978 1489.4435 27.18211)
(3637.5249 1520.2496 24.956371)
(3714.6742 1550.1286 22.121967)
(3779.7655 1573.8141 18.312825)
(3848.6551 1598.4862 14.458302)
(3923.5432 1624.463 10.524699)
(3997.2398 1649.2007 6.5843677)
(4068.9627 1672.4613 2.733009)
(4138.5899 1694.2685 -0.88380646)
(4205.7173 1714.6141 -4.3877055)
(4270.3646 1733.6928 -7.3879235)
(4332.5706 1751.6411 -10.589899)
(4392.9457 1768.4507 -13.040223)
(4451.1023 1785.233 -16.471027)
(4517.7743 1804.9217 -18.862617)
(-10.340723 2.6038402 1.7180683)
(-21.622173 3.7427855 4.0895474)
(-30.748985 4.1144005 6.2627632)
(-38.935066 3.9249836 8.3067623)
(-44.437478 3.0682989 9.9466663)
(-47.512026 1.9596941 11.072184)
(-47.268527 0.93958201 11.170333)
(-44.066244 0.14471601 10.555964)
(-37.277477 -0.0099935688 8.8164061)
(-27.428741 0.4470856 6.2744039)
(-14.217427 1.8478941 2.6965465)
(1.7504405 4.2479006 -1.5498765)
(20.494368 7.7355813 -6.5868297)
(41.33026 12.432137 -11.952266)
(64.134295 18.273495 -17.705939)
(88.253701 25.326858 -23.456952)
(113.4567 33.433465 -29.075177)
(139.16676 42.701373 -34.296106)
(165.34375 52.867938 -38.999642)
(191.53548 64.003567 -42.950078)
(217.83379 75.892092 -46.087311)
(244.20809 88.576029 -48.335145)
(270.93913 101.91602 -49.67152)
(298.2557 115.93139 -50.143007)
(326.77593 130.60604 -49.869639)
(356.94242 145.95199 -48.953843)
(389.51834 162.00105 -47.620882)
(425.06744 178.86045 -46.029238)
(464.3431 196.51811 -44.42073)
(507.79848 215.06806 -42.953002)
(555.95105 234.53511 -41.847756)
(608.97915 254.94216 -41.16888)
(666.90936 276.19637 -41.041494)
(729.52561 298.18304 -41.387931)
(796.34849 320.86969 -42.218902)
(866.56518 343.85883 -43.353503)
(939.2618 367.01347 -44.585987)
(1013.3457 389.92906 -45.747421)
(1087.6583 412.53203 -46.589733)
(1160.9921 434.29937 -46.835227)
(1232.1009 455.01917 -46.316858)
(1300.073 474.3889 -44.827877)
(1364.0033 492.35461 -42.22328)
(1423.4966 508.59154 -38.570218)
(1478.388 523.39581 -34.007766)
(1528.7581 536.71699 -28.512346)
(1575.1249 548.82722 -22.451249)
(1618.2218 560.06066 -16.050638)
(1659.0259 570.80195 -9.6696071)
(1698.6293 581.50695 -3.6295342)
(1738.1908 592.63365 1.7395279)
(1778.8124 604.64573 6.1660061)
(1821.4823 617.94075 9.4298128)
(1866.9823 632.87083 11.407245)
(1915.8524 649.67802 12.051521)
(1968.3497 668.51889 11.418812)
(2024.457 689.42572 9.6569003)
(2083.8784 712.34641 6.9728651)
(2146.115 737.12187 3.650274)
(2210.4824 763.52772 -0.0058509796)
(2276.2094 791.29232 -3.6797249)
(2342.4921 820.08893 -7.0514168)
(2408.5496 849.6425 -9.889225)
(2473.7652 879.62811 -11.923115)
(2537.5664 909.80713 -13.051959)
(2599.7355 940.03205 -13.220507)
(2658.5794 969.65838 -12.241352)
(2726.5379 1002.5411 -10.662101)
(2783.7445 1032.2007 -7.6795489)
(2840.4363 1061.6683 -4.4331016)
(2896.6053 1090.8851 -0.7326614)
(2952.6907 1119.9697 3.1587758)
(3009.3287 1148.9504 6.9840035)
(3066.9443 1177.8535 10.581293)
(3126.0373 1206.7968 13.765036)
(3186.9532 1235.7844 16.349197)
(3249.8861 1264.838 18.278288)
(3314.919 1293.9048 19.476577)
(3381.9718 1322.9305 19.936816)
(3450.8533 1351.8084 19.67407)
(3521.2564 1380.4291 18.785509)
(3592.7386 1408.646 17.266155)
(3664.8653 1436.272 15.367086)
(3737.4476 1463.3924 13.019841)
(3791.5955 1482.8105 10.677775)
(3861.8299 1507.5463 7.85718)
(3931.6756 1531.7026 5.1033229)
(4000.0256 1554.6614 2.3213074)
(4066.725 1576.5603 -0.47349405)
(4131.6518 1597.3407 -3.1479129)
(4194.6986 1617.1168 -5.8061931)
(4256.2733 1636.069 -8.5909859)
(4316.5335 1654.0747 -11.179451)
(4375.3827 1672.2037 -14.472451)
(4440.5194 1692.2614 -17.4121)
(-11.231621 1.2115266 0.99038932)
(-21.715987 1.9812496 1.8931743)
(-30.401193 1.2821132 3.3207829)
(-37.681801 0.62050701 4.5255195)
(-42.909395 -1.1438944 5.7592268)
(-45.332238 -2.947551 6.1891445)
(-45.270885 -5.1764257 6.2672169)
(-41.841097 -6.7969392 5.3225425)
(-35.424643 -8.5553033 3.7982098)
(-25.723902 -9.2150022 1.2677471)
(-12.986225 -9.4602176 -1.9183552)
(2.7100533 -8.3759861 -5.9513948)
(21.008499 -6.5191201 -10.443896)
(41.652595 -3.1863968 -15.521473)
(64.226585 1.1125183 -20.818936)
(88.319195 6.8897015 -26.294659)
(113.52322 13.657539 -31.584283)
(139.55532 21.787314 -36.75916)
(165.98485 30.791037 -41.346801)
(192.7087 40.976294 -45.481747)
(219.57522 51.86919 -48.810469)
(246.66831 63.76949 -51.455434)
(274.11063 76.184812 -53.191296)
(302.30984 89.516474 -54.23026)
(331.64942 103.27697 -54.442392)
(362.753 117.90504 -54.09504)
(396.19202 133.05364 -53.185317)
(432.72604 149.09094 -51.995393)
(472.88735 165.80295 -50.584659)
(517.34675 183.51345 -49.217032)
(566.44301 202.07102 -47.959065)
(620.48923 221.63349 -46.964081)
(679.44028 242.10372 -46.274211)
(743.09923 263.52272 -45.945173)
(810.92683 285.62711 -45.869095)
(882.1565 308.36711 -46.050547)
(956.01635 331.4335 -46.286074)
(1031.0446 354.68589 -46.445716)
(1105.9806 377.43956 -46.265116)
(1179.851 399.56898 -45.56436)
(1251.3243 420.70574 -44.281531)
(1319.4601 440.56889 -42.185955)
(1383.3418 458.92409 -39.343144)
(1442.5719 475.62408 -35.69047)
(1496.9679 490.68285 -31.33196)
(1546.6873 504.12421 -26.37974)
(1592.2427 516.14204 -21.090373)
(1634.4071 527.03664 -15.667404)
(1674.1795 537.16954 -10.416909)
(1712.6817 546.98688 -5.5878781)
(1751.0852 556.94974 -1.4483946)
(1790.4967 567.52784 1.8045475)
(1831.9002 579.1409 4.0150154)
(1876.0551 592.17014 5.1089929)
(1923.4831 606.8785 5.0847681)
(1974.4063 623.46192 4.0236618)
(2028.777 641.97681 2.0698243)
(2086.2807 662.40419 -0.57228375)
(2146.3983 684.60522 -3.6522536)
(2208.443 708.38625 -6.9160108)
(2271.6606 733.47686 -10.080245)
(2335.2634 759.60293 -12.926214)
(2398.536 786.45897 -15.216629)
(2460.9008 813.75808 -16.800861)
(2521.8011 841.29226 -17.611693)
(2581.1828 868.77662 -17.521833)
(2638.7119 896.21847 -16.678767)
(2694.4772 923.36874 -14.94401)
(2749.3584 950.40139 -12.49814)
(2803.0852 977.20593 -9.8870736)
(2856.4283 1003.7978 -6.6780729)
(2910.0716 1030.4458 -3.4549641)
(2964.3606 1057.0785 -0.1873356)
(3019.9785 1083.8969 2.9538296)
(3077.2701 1110.8894 5.7520129)
(3136.5296 1138.0874 8.1928036)
(3197.9913 1165.5438 10.13992)
(3261.702 1193.203 11.570769)
(3327.5912 1221.0371 12.454592)
(3395.4867 1248.9451 12.820955)
(3465.0638 1276.8329 12.664916)
(3535.9992 1304.5346 12.096465)