/*--------------------------------*- C++ -*----------------------------------*\
  =========                 |
  \\      /  F ield         | OpenFOAM: The Open Source CFD Toolbox
   \\    /   O peration     | Website:  https://openfoam.org
    \\  /    A nd           | Version:  6
     \\/     M anipulation  |
\*---------------------------------------------------------------------------*/
FoamFile
{
    version     2.0;
    format      ascii;
    class       pointVectorField;
    location    "1.23";
    object      lm;
}
// * * * * * * * * * * * * * * * * * * * * * * * * * * * * * * * * * * * * * //

dimensions      [1 -2 -1 0 0 0 0];

internalField   nonuniform List<vector> 
625
(
(0 0 0)
(0 0 0)
(-5072.6517 1633.8919 202.92931)
(-4649.1569 2712.4377 -97.203441)
(0 0 0)
(0 0 0)
(-4350.0777 2535.4055 -102.65617)
(-4781.4768 1461.3082 197.88325)
(0 0 0)
(0 0 0)
(0 0 0)
(-4795.0199 1831.2154 125.30303)
(-4703.3756 2092.8382 54.059415)
(-4759.0461 2437.1871 -20.131451)
(-22.174093 -49.809295 -35.591881)
(-72.824052 -102.43426 -28.726114)
(-153.1042 -144.25911 -23.395936)
(-264.22972 -178.34196 -16.485666)
(-394.55958 -199.90244 -8.8122034)
(-558.00868 -209.63082 -1.2525854)
(-739.94975 -205.02885 7.3155876)
(-950.19637 -186.95588 17.226725)
(-1185.5322 -153.20445 28.051591)
(-1444.1452 -102.16165 41.791433)
(-1724.3962 -34.484955 56.136478)
(-2022.6236 51.108182 72.188913)
(-2331.6295 153.56186 89.449223)
(-2644.9906 270.72971 106.5969)
(-2954.8068 399.97398 123.6013)
(-3253.7638 537.68973 139.36642)
(-3536.0557 680.33915 153.41364)
(-3798.1741 823.95404 165.84718)
(-4034.8223 965.15104 175.50024)
(-4254.3019 1103.581 183.63461)
(-4452.0205 1235.9692 189.87261)
(-4630.0992 1361.1565 193.34898)
(-4805.656 1483.4219 196.75493)
(8.9190203 40.786109 62.830098)
(-47.3281 82.105696 28.514793)
(-118.42072 148.53538 19.559044)
(-205.36052 203.11333 0.03828004)
(-309.95381 261.36454 -17.449237)
(-440.56606 339.64855 -34.488489)
(-579.06022 411.88226 -47.119601)
(-740.98817 498.65186 -62.328033)
(-920.12367 597.61492 -73.461937)
(-1118.3124 703.80329 -84.938259)
(-1335.1684 823.97675 -94.051324)
(-1570.3199 953.77872 -102.15408)
(-1821.9905 1094.5323 -108.35984)
(-2088.6131 1244.2392 -113.40177)
(-2366.9435 1401.6528 -116.82247)
(-2653.1106 1564.2546 -119.08366)
(-2942.0964 1729.1839 -119.82926)
(-3228.3987 1893.1263 -119.60318)
(-3505.5876 2052.3087 -118.05891)
(-3768.2519 2203.6458 -115.53621)
(-4011.1401 2343.8003 -112.14998)
(-4231.2864 2470.4613 -107.68922)
(-4440.1893 2590.6654 -102.24253)
(0 0 0)
(0 0 0)
(0 0 0)
(0.78598499 31.003254 -54.887661)
(-13.061636 123.85775 -83.362934)
(-62.315874 145.62447 -87.200601)
(-119.9345 200.92997 -93.394715)
(-212.23414 275.19781 -109.40989)
(-312.58854 315.85892 -111.61938)
(-434.68421 390.50573 -121.84143)
(-578.12486 463.62212 -127.91461)
(-738.23183 546.96649 -134.63442)
(-919.98467 641.15785 -139.38512)
(-1122.2512 744.91207 -142.64689)
(-1342.4902 861.10349 -145.05321)
(-1582.0797 987.57986 -145.94023)
(-1836.3775 1123.4893 -145.55297)
(-2103.5274 1268.4112 -144.418)
(-2379.1401 1418.9407 -142.22472)
(-2658.2598 1573.2288 -139.2813)
(-2935.961 1728.0835 -135.65903)
(-3206.0666 1879.8618 -131.3874)
(-3463.5563 2025.7658 -126.47105)
(-3703.8482 2162.4354 -120.79377)
(-3923.6402 2288.6776 -114.97232)
(-4107.5474 2393.8413 -107.53413)
(-4485.1028 2273.9589 -25.310912)
(-4403.6076 1916.056 48.638876)
(-4555.2216 1678.2153 121.56038)
(-4523.4915 1314.8649 191.06093)
(-4373.8698 1198.3744 187.67106)
(-4187.7553 1069.9197 183.08313)
(-3984.6019 936.59569 177.26662)
(-3761.2263 799.30399 170.59407)
(-3516.8024 659.95304 162.84053)
(-3252.8889 521.94252 154.30047)
(-2971.9051 387.81051 145.00958)
(-2679.0017 261.59909 135.28406)
(-2380.0521 146.19905 125.43802)
(-2081.4813 44.813168 115.57735)
(-1791.0798 -41.191585 106.31516)
(-1513.241 -109.95081 97.28666)
(-1254.8808 -162.50886 89.612031)
(-1021.2049 -200.75075 82.860583)
(-804.12212 -217.71517 75.097721)
(-615.01816 -226.8172 71.549899)
(-448.35208 -222.59469 67.206582)
(-309.59227 -201.77109 62.95387)
(-193.03316 -175.52971 59.601947)
(-100.72305 -141.33807 60.254292)
(-37.338244 -94.19985 52.802403)
(-15.627263 -41.706171 37.541165)
(0 0 0)
(0 0 0)
(0 0 0)
(0 0 0)
(0 0 0)
(0 0 0)
(-4574.1574 2668.2338 -98.270557)
(-4499.0662 2624.0485 -99.408837)
(-4424.5921 2579.3313 -101.27746)
(-5000.6486 1590.8057 201.38721)
(-4927.3993 1548.3424 199.50864)
(-4854.2335 1505.6432 198.96713)
(6.435205 -26.065675 -32.331776)
(-43.362394 -58.933269 -19.426077)
(-122.7804 -83.445048 -19.596074)
(-230.2926 -101.1576 -15.260553)
(-367.12456 -108.12656 -12.537759)
(-534.70805 -100.27867 -8.8547449)
(-723.49405 -76.979234 -3.3751597)
(-936.14276 -37.947755 0.76828476)
(-1166.4189 20.339917 8.2072423)
(-1409.9465 94.639397 15.573604)
(-1663.0073 184.51182 23.383915)
(-1919.2151 288.27917 32.170815)
(-2175.3485 402.29257 40.765562)
(-2427.9052 524.17804 49.427796)
(-2674.4046 650.80165 57.831768)
(-2914.4537 780.2277 65.79945)
(-3148.1124 910.158 73.537333)
(-3377.6548 1040.2001 81.005038)
(-3603.5784 1169.5835 88.211602)
(-3833.5037 1299.8458 95.520436)
(-4066.3857 1431.1286 102.71823)
(-4304.5638 1562.8555 110.29843)
(-4561.1916 1701.7609 118.09242)
(8.0809871 -4.7421998 4.5039115)
(-51.005569 -4.8276193 6.4664588)
(-132.45977 -0.98638224 -0.16864463)
(-247.93426 9.9424151 -6.698023)
(-390.22098 36.265911 -9.9181214)
(-554.7351 70.143509 -14.855242)
(-735.74769 116.55014 -18.574539)
(-931.36736 174.52987 -20.216512)
(-1134.2135 242.23405 -20.673741)
(-1343.1149 319.2119 -20.539804)
(-1553.0902 404.78013 -17.945524)
(-1763.1497 497.01389 -14.974912)
(-1972.5389 595.66426 -10.683814)
(-2181.7353 699.93205 -5.8658273)
(-2392.7882 809.91818 -0.41464785)
(-2608.5538 925.85084 5.2857799)
(-2832.783 1048.6545 11.324213)
(-3069.4753 1179.5755 17.368791)
(-3321.5688 1319.3279 23.537043)
(-3592.1319 1469.2021 29.794008)
(-3881.2665 1628.5452 36.127966)
(-4188.3408 1797.6317 42.466867)
(-4488.15 1965.0168 48.583753)
(17.270005 15.13856 15.730973)
(-47.221673 34.530456 10.291594)
(-124.80472 62.436569 -0.30494347)
(-237.78279 104.85947 -10.533352)
(-366.49263 157.07773 -20.46222)
(-514.18289 210.09895 -31.333229)
(-676.26768 278.84483 -39.288185)
(-849.53729 349.2976 -45.406711)
(-1035.0096 427.90659 -50.847393)
(-1229.2877 514.32366 -53.915492)
(-1433.7983 606.74975 -55.653536)
(-1647.6153 707.00682 -56.269895)
(-1871.362 814.91525 -55.636208)
(-2105.0239 930.996 -54.198598)
(-2348.6663 1055.4851 -52.092917)
(-2601.8928 1188.5975 -49.497386)
(-2863.8864 1329.9585 -46.534164)
(-3133.1333 1478.997 -43.36192)
(-3407.8947 1634.5455 -39.937316)
(-3685.7258 1795.0998 -36.430467)
(-3963.8696 1958.4378 -32.657823)
(-4239.4927 2123.5716 -29.039896)
(-4495.57 2278.3699 -24.227897)
(0 0 0)
(0 0 0)
(0 0 0)
(0 0 0)
(0 0 0)
(0 0 0)
(0 0 0)
(0 0 0)
(0 0 0)
(-18.805747 21.305127 24.540261)
(-21.819434 26.181986 -5.1421382)
(-16.048899 13.362519 -23.376386)
(-71.790048 116.15404 -0.74321088)
(-56.939533 112.56597 -23.234836)
(-47.432797 98.041361 -56.420008)
(-121.7969 157.42626 -8.3005472)
(-114.06243 147.15326 -31.756818)
(-99.964596 153.10234 -65.422471)
(-203.18201 214.98801 -28.033637)
(-188.16731 215.02618 -50.824262)
(-162.00152 197.57329 -74.851569)
(-304.58045 284.16778 -42.375457)
(-281.22941 275.3865 -61.046523)
(-254.9335 270.77562 -88.572042)
(-419.76748 347.66202 -55.94418)
(-393.26771 336.64202 -77.225798)
(-360.58132 326.07533 -96.979497)
(-554.11286 420.63374 -70.107081)
(-523.7197 415.24527 -85.835809)
(-485.63228 399.57116 -108.75078)
(-709.5228 506.27527 -81.558723)
(-672.29299 490.02202 -97.643679)
(-631.37887 476.35068 -115.84198)
(-882.01645 598.39843 -92.024571)
(-841.07432 584.50477 -107.02725)
(-795.04498 563.58273 -124.06136)
(-1074.5638 702.78802 -101.41563)
(-1029.2375 683.16922 -114.92695)
(-978.50227 661.7231 -129.94271)
(-1286.442 816.87731 -108.89611)
(-1236.4807 795.4025 -121.49587)
(-1182.391 769.62971 -134.68279)
(-1516.444 942.63369 -115.31735)
(-1462.8641 917.4538 -126.63914)
(-1405.0042 889.02842 -137.97355)
(-1764.5898 1078.3412 -119.91213)
(-1707.0179 1050.4331 -130.19572)
(-1645.7687 1019.0007 -139.88272)
(-2027.3189 1223.4638 -123.36969)
(-1966.0902 1192.5202 -132.53954)
(-1902.1538 1158.0021 -140.44398)
(-2302.549 1376.3714 -125.38415)
(-2237.9836 1342.6544 -133.4706)
(-2171.165 1305.4021 -139.98807)
(-2585.6349 1534.6324 -126.24887)
(-2517.934 1498.196 -133.32947)
(-2448.961 1458.5712 -138.56009)
(-2871.977 1695.6383 -125.95894)
(-2801.66 1656.7605 -132.05542)
(-2730.3027 1614.9765 -136.20696)
(-3155.7531 1856.0378 -124.75285)
(-3082.9113 1815.0162 -129.82704)
(-3010.0153 1771.6016 -133.08604)
(-3430.8529 2012.4278 -122.43046)
(-3356.5656 1969.5782 -126.54251)
(-3282.1289 1924.8915 -129.27414)
(-3691.9711 2161.3825 -119.22938)
(-3616.2534 2117.1186 -122.67783)
(-3540.8354 2071.7569 -124.65974)
(-3933.8266 2299.5026 -115.34292)
(-3857.7223 2254.7143 -117.43866)
(-3781.8784 2209.0311 -119.28043)
(-4153.8136 2425.7696 -109.96474)
(-4077.7225 2380.8178 -111.85006)
(-4001.8619 2335.101 -113.70052)
(-4350.5621 2538.3683 -103.71397)
(-4275.4816 2493.5149 -105.51201)
(-4200.3188 2448.9997 -106.76051)
(-4739.9568 1795.0573 124.0316)
(-4668.9529 1753.5755 122.34926)
(-4598.2316 1711.2284 121.83165)
(-4610.0128 2040.2453 52.182589)
(-4547.525 2002.5327 50.489593)
(-4477.2176 1960.2169 50.112171)
(-4674.5784 2388.2882 -21.559686)
(-4608.8186 2349.4422 -22.844019)
(-4535.0438 2305.3096 -23.950293)
(-41.846975 -45.000528 -16.237459)
(-33.65776 -45.438755 0.29912228)
(-34.749657 -39.551164 16.491812)
(-80.802818 -98.110405 -11.733162)
(-75.519242 -94.824278 16.943378)
(-65.572994 -86.070619 33.236776)
(-162.84075 -143.20977 -3.5698448)
(-145.62629 -138.19123 12.262129)
(-134.23653 -133.5444 38.538874)
(-261.29854 -174.87348 1.5525892)
(-246.43326 -171.16635 22.133968)
(-226.59531 -168.99286 42.09097)
(-391.58286 -200.91236 7.0782793)
(-370.93853 -195.68867 26.809132)
(-346.82063 -194.89105 43.938366)
(-546.04196 -208.46247 15.042627)
(-518.46589 -207.91074 30.5611)
(-489.69106 -207.79131 49.62125)
(-723.2805 -206.44369 22.305652)
(-693.1367 -207.52356 37.380535)
(-660.94746 -210.82702 54.929409)
(-927.22457 -190.48642 30.620419)
(-892.44762 -194.81161 45.569073)
(-853.52858 -202.44651 60.60274)
(-1154.8869 -160.88979 41.583633)
(-1114.4396 -166.71191 53.203648)
(-1070.9669 -175.50126 67.552691)
(-1404.059 -112.13455 52.388644)
(-1364.379 -125.18947 63.74451)
(-1314.9919 -136.21892 76.971566)
(-1679.9391 -48.501563 65.946015)
(-1630.5949 -64.114526 75.179009)
(-1578.4421 -80.008112 86.176516)
(-1970.3664 32.387206 79.887468)
(-1916.7439 12.767216 87.042115)
(-1860.125 -7.0414527 96.736423)
(-2272.7902 129.96256 94.866852)
(-2215.1796 106.429 100.21968)
(-2153.9688 82.558435 108.07457)
(-2580.6102 242.41284 109.9285)
(-2519.2607 214.96312 113.4313)
(-2454.0927 187.40752 119.49853)
(-2886.185 367.30763 124.78181)
(-2821.509 336.43939 126.57628)
(-2753.2947 305.35166 131.10713)
(-3182.6712 501.42273 138.63989)
(-3115.4273 467.44907 139.15072)
(-3044.9576 433.27929 142.20124)
(-3464.4958 641.30459 151.41653)
(-3394.905 604.52586 150.83194)
(-3323.012 567.98334 152.67939)
(-3726.8084 782.68913 162.57055)
(-3655.56 744.28054 161.14939)
(-3583.511 706.046 162.06549)
(-3967.6363 923.97484 171.93269)
(-3896.8226 884.24156 170.388)
(-3823.2475 843.94997 170.4517)
(-4187.6671 1061.5155 180.01484)
(-4114.3444 1020.2442 177.67994)
(-4042.4815 979.80418 177.5266)
(-4386.2094 1194.1073 186.46234)
(-4312.2573 1151.849 184.11145)
(-4241.4766 1111.1423 183.52845)
(-4568.4067 1320.7559 190.4525)
(-4495.8582 1278.7655 189.1694)
(-4424.4282 1237.5169 188.1237)
(-4737.386 1442.1376 194.93981)
(-4665.3442 1399.9909 193.80768)
(-4592.6345 1357.9228 192.47891)
(11.682911 -16.361169 23.797861)
(-18.714783 -63.167752 28.824385)
(-67.129659 -77.400036 23.242064)
(-155.17585 -100.28765 29.019855)
(-264.56852 -108.73642 26.202824)
(-401.19649 -112.39073 27.509988)
(-564.44589 -99.922937 28.447853)
(-751.05196 -75.107201 29.812569)
(-962.28893 -35.28666 31.910396)
(-1192.2629 22.127686 35.058261)
(-1439.7629 95.376689 39.451471)
(-1700.0101 185.15831 44.301542)
(-1967.587 289.02735 50.32326)
(-2238.5098 404.85623 56.819258)
(-2507.3212 529.69123 63.783581)
(-2770.4505 660.32437 70.987809)
(-3024.5039 793.73883 78.047076)
(-3267.5651 927.23252 84.936843)
(-3498.8125 1058.8326 91.608937)
(-3718.3742 1187.1328 97.820983)
(-3927.8695 1311.5903 103.75864)
(-4130.7915 1432.5772 109.68751)
(-4309.3449 1544.0493 114.48748)
(31.201159 -7.6957939 -8.6652235)
(-3.706092 -6.4288003 -9.3093813)
(-66.532275 6.81297 -13.616502)
(-162.36344 10.831405 -14.030946)
(-277.29081 31.524717 -17.402765)
(-424.53104 56.254849 -20.590426)
(-588.34336 93.257594 -22.329836)
(-771.62337 137.35686 -24.114548)
(-965.88641 194.24925 -24.367484)
(-1167.4871 257.79604 -22.515739)
(-1373.4205 332.26189 -21.144563)
(-1578.6957 413.04287 -17.204116)
(-1782.7144 501.50692 -13.37466)
(-1984.6896 595.71518 -8.6372815)
(-2186.1592 696.00343 -3.4604244)
(-2389.613 802.2263 1.8483322)
(-2598.7049 915.05921 7.3111932)
(-2817.3234 1035.1747 12.905314)
(-3048.6955 1163.6729 18.577604)
(-3295.8687 1300.9442 24.118449)
(-3560.3586 1447.6312 30.215943)
(-3842.2612 1603.223 35.878425)
(-4171.067 1781.5478 42.553946)
(38.381233 28.658643 -25.679603)
(-9.383378 41.76729 -37.159308)
(-60.82176 96.012621 -56.022973)
(-142.52316 107.5627 -56.574131)
(-251.95908 160.39562 -71.475336)
(-377.60103 206.70553 -76.119763)
(-520.99502 256.15002 -81.560996)
(-678.65227 318.86516 -85.833686)
(-849.85525 381.64681 -86.584451)
(-1032.9191 455.57154 -87.250874)
(-1226.7136 534.89694 -85.072029)
(-1431.2368 622.42702 -81.753091)
(-1645.7462 718.55912 -77.672197)
(-1870.1976 823.10567 -72.460848)
(-2103.9919 936.37612 -67.043362)
(-2346.8928 1058.6543 -61.535924)
(-2597.9283 1189.2612 -56.011785)
(-2856.1756 1328.1369 -50.795707)
(-3119.9055 1473.9328 -45.962177)
(-3387.8309 1625.9047 -41.387828)
(-3657.0352 1781.8473 -37.099728)
(-3926.3601 1941.0283 -32.910393)
(-4199.1151 2103.598 -29.29132)
(-9.0190039 -13.394201 -12.350179)
(-1.7347225 -14.460338 -0.62272573)
(-8.3344521 -10.601211 14.4518)
(-59.666666 -57.350619 -3.3073714)
(-55.523806 -55.046595 8.99457)
(-41.584565 -56.80871 19.374384)
(-131.09027 -75.296973 -3.2542832)
(-113.90282 -74.304063 6.0919329)
(-102.52165 -72.500693 15.719099)
(-228.80421 -95.203086 -2.308008)
(-213.38613 -95.050461 8.4446755)
(-192.44228 -93.247416 18.77314)
(-358.06428 -101.35025 1.3078683)
(-335.3696 -99.601122 9.6150827)
(-311.13924 -101.84253 17.744516)
(-511.95077 -93.772685 2.5034917)
(-484.54916 -97.428146 10.064015)
(-452.91207 -99.952941 18.275182)
(-691.63114 -75.566289 5.9381089)
(-659.49992 -79.864457 12.467485)
(-624.58385 -86.081682 20.07123)
(-894.54761 -39.997846 9.5451405)
(-857.20733 -46.395136 15.214714)
(-815.92933 -55.899562 21.744475)
(-1117.5025 13.48043 14.199066)
(-1075.8644 2.395791 18.552757)
(-1031.1574 -10.914251 24.429568)
(-1357.9919 81.97848 20.145865)
(-1311.9324 68.381975 23.566607)
(-1261.8553 50.812409 29.021967)
(-1610.6279 167.52538 26.50642)
(-1560.2954 150.03776 28.824842)
(-1506.422 128.26962 33.386004)
(-1871.0801 267.35272 33.663833)
(-1817.1912 246.30877 35.35258)
(-1759.8847 220.52953 39.354202)
(-2135.4044 379.4261 41.23685)
(-2078.1998 354.94316 42.453888)
(-2017.6476 325.31118 45.72706)
(-2398.9178 501.01449 49.084648)
(-2338.8057 473.26071 49.972032)
(-2275.6185 440.37933 52.715418)
(-2658.2686 629.04244 57.057873)
(-2595.7382 598.46915 57.808083)
(-2530.6908 562.73104 60.054926)
(-2911.1131 760.87816 64.952464)
(-2846.7388 727.6387 65.774694)
(-2780.2068 689.79962 67.468405)
(-3156.0004 893.65666 72.884686)
(-3090.158 858.53441 73.638529)
(-3022.6408 819.22584 74.871303)
(-3392.8307 1026.3388 80.535295)
(-3325.681 989.56336 81.352371)
(-3258.0187 949.16371 82.042067)
(-3621.0938 1157.1051 88.16927)
(-3556.3136 1119.9675 88.934081)
(-3486.3106 1078.1459 89.148095)
(-3865.0583 1292.5142 96.047904)
(-3762.8226 1242.2948 95.77434)
(-3710.4172 1206.1634 95.903303)
(-4084.9386 1419.8178 103.2681)
(-3982.5005 1368.9971 102.81132)
(-3929.8056 1332.6241 102.46137)
(-4289.6868 1541.0906 110.24785)
(-4218.1363 1499.7891 110.19922)
(-4149.3819 1457.8711 109.033)
(-4511.0308 1666.9602 117.34613)
(-4441.0851 1626.089 116.6365)
(-4370.2872 1583.7845 115.19544)
(1.1761073 -4.5276911 4.2259532)
(2.7847843 -2.5040702 5.2233967)
(1.6682931 -7.850804 -2.2254608)
(-57.367605 -4.1753341 8.7744127)
(-52.152858 -4.4317212 2.0853315)
(-33.275595 -4.2880443 -4.3096713)
(-136.44972 3.5133379 -1.5827803)
(-120.88147 9.166937 -9.8685073)
(-105.53648 4.7497817 -11.273411)
(-241.93705 15.555501 -4.4665586)
(-229.62811 22.699266 -10.735943)
(-201.76097 19.13032 -13.022368)
(-379.92492 40.69075 -10.899261)
(-355.73744 46.064399 -19.888096)
(-323.19034 35.541326 -16.911192)
(-537.60385 74.027311 -16.420913)
(-508.95261 76.501647 -21.892541)
(-471.91554 66.225433 -21.831319)
(-714.337 117.76602 -19.413645)
(-680.12769 118.98066 -25.664996)
(-637.77305 105.25028 -22.898432)
(-907.09598 174.92063 -22.669511)
(-866.9477 170.26798 -27.975935)
(-820.84523 152.75497 -26.109743)
(-1108.041 239.1089 -22.890485)
(-1063.7115 231.58172 -27.398096)
(-1014.397 212.29945 -25.544999)
(-1315.5426 314.08961 -23.068763)
(-1267.0425 301.71325 -26.70142)
(-1214.5501 278.90507 -24.941859)
(-1524.5878 396.87362 -20.64908)
(-1472.2708 379.97388 -23.63624)
(-1418.3226 355.39932 -22.310716)
(-1733.362 486.31968 -17.472168)
(-1678.596 465.38386 -19.751224)
(-1622.6616 438.47588 -18.773071)
(-1940.7229 582.00176 -13.050588)
(-1883.3239 557.31148 -14.696683)
(-1826.2984 528.66298 -14.176039)
(-2146.665 683.01371 -8.0598138)
(-2087.3568 655.05215 -9.0667672)
(-2029.4092 624.96863 -9.2196475)
(-2353.2621 789.45445 -2.3612592)
(-2292.3901 758.63938 -2.9870367)
(-2233.4948 727.30948 -3.5888474)
(-2563.1377 901.39119 3.4581186)
(-2501.0248 868.35306 3.1103198)
(-2441.1362 835.93898 2.062543)
(-2780.1323 1019.9127 9.5812082)
(-2716.9437 985.18714 9.3344703)
(-2655.844 951.47379 7.8835221)
(-3007.9682 1146.0489 15.690361)
(-2943.9465 1109.7415 15.302774)
(-2881.4915 1074.827 13.728335)
(-3250.312 1280.4803 21.756096)
(-3185.2735 1243.1551 21.386196)
(-3121.2839 1206.6876 19.665441)
(-3508.0372 1424.0168 28.021601)
(-3444.9234 1386.0883 27.172932)
(-3378.398 1348.673 25.319693)
(-3777.1021 1574.0526 34.029805)
(-3737.0282 1545.1668 32.619165)
(-3652.1596 1499.5523 31.866125)
(-4083.6189 1741.0609 40.374798)
(-4013.9043 1700.6962 39.019321)
(-3944.5208 1659.403 37.567948)
(-4394.3769 1912.8146 46.694612)
(-4323.8288 1871.0731 45.457263)
(-4252.4966 1829.1024 43.907154)
(1.2330709 15.698165 4.4585738)
(9.8383842 11.173946 -4.80298)
(13.99976 13.645721 -15.365946)
(-60.39875 43.01273 -0.31435693)
(-55.535199 30.886767 -16.870077)
(-39.474911 38.671188 -30.621112)
(-128.0595 76.62666 -13.852178)
(-114.86045 87.603434 -28.929714)
(-99.335974 88.566435 -43.750471)
(-234.78632 124.83033 -21.609395)
(-212.89248 112.50079 -36.311932)
(-189.08077 115.21922 -47.82011)
(-353.97861 167.75375 -34.581753)
(-328.59631 167.61386 -48.228589)
(-300.77523 165.23594 -59.669945)
(-495.37653 225.13588 -42.008449)
(-463.54371 218.13673 -54.148999)
(-429.44668 214.50273 -64.019847)
(-651.32091 289.01618 -50.579717)
(-614.3005 277.77543 -63.175448)
(-576.56388 270.51189 -71.968701)
(-819.45172 355.00748 -56.298466)
(-778.03799 343.3833 -66.355091)
(-735.80649 334.70893 -75.43201)
(-999.96698 431.46394 -60.576829)
(-955.07599 415.60448 -70.95086)
(-908.20088 402.3504 -78.305545)
(-1190.7882 513.47865 -63.40185)
(-1141.7832 494.79794 -72.128382)
(-1091.996 478.95409 -78.859297)
(-1391.4853 601.95463 -64.285841)
(-1340.0435 580.8339 -72.14271)
(-1286.356 561.39806 -78.297974)
(-1602.0431 698.36765 -64.185499)
(-1547.648 674.54802 -71.022883)
(-1491.029 651.78845 -76.24914)
(-1822.2665 802.03146 -62.926501)
(-1765.4458 776.07724 -68.644637)
(-1705.92 749.88722 -73.266368)
(-2052.1572 913.95219 -60.769846)
(-1993.1469 885.83213 -65.481041)
(-1931.0539 856.47582 -69.563444)
(-2291.7399 1034.1097 -58.008005)
(-2230.5052 1004.0359 -61.832917)
(-2166.0129 971.63531 -65.223671)
(-2540.4955 1162.7518 -54.783234)
(-2477.0473 1130.8648 -57.668247)
(-2410.6069 1095.6691 -60.677873)
(-2797.6465 1299.6623 -51.125438)
(-2732.1305 1265.8287 -53.330432)
(-2663.8303 1228.1814 -55.894936)
(-3062.0583 1444.2593 -47.360809)
(-2994.2893 1408.5084 -48.897037)
(-2924.6566 1368.7793 -51.154066)
(-3331.8288 1595.4531 -43.340907)
(-3262.311 1557.6961 -44.403737)
(-3191.2821 1516.5796 -46.474086)
(-3605.3411 1752.0745 -39.268202)
(-3533.7862 1712.9133 -40.051344)
(-3461.821 1670.1741 -41.910475)
(-3879.6288 1912.384 -34.955611)
(-3806.5091 1870.9076 -35.771947)
(-3733.9712 1827.7842 -37.261656)
(-4152.3901 2074.0771 -30.982308)
(-4078.6349 2032.0117 -31.449553)
(-4005.2588 1987.9672 -32.717481)
(-4421.0458 2234.6942 -25.871793)
(-4346.668 2191.8167 -26.916587)
(-4272.7171 2147.04 -28.477694)
)
;

boundaryField
{
    free
    {
        type            zeroGradient;
    }
    fixed
    {
        type            fixedValue;
        value           uniform (0 0 0);
    }
    traction
    {
        type            zeroGradient;
    }
}


// ************************************************************************* //
