/*--------------------------------*- C++ -*----------------------------------*\
  =========                 |
  \\      /  F ield         | OpenFOAM: The Open Source CFD Toolbox
   \\    /   O peration     | Website:  https://openfoam.org
    \\  /    A nd           | Version:  6
     \\/     M anipulation  |
\*---------------------------------------------------------------------------*/
FoamFile
{
    version     2.0;
    format      ascii;
    class       pointVectorField;
    location    "1.28";
    object      u;
}
// * * * * * * * * * * * * * * * * * * * * * * * * * * * * * * * * * * * * * //

dimensions      [0 1 0 0 0 0 0];

internalField   nonuniform List<vector> 
3969
(
(0 0 0)
(0 0 0)
(1.6302132 -0.050535414 0.042510047)
(1.5546084 -0.43114474 0.036392406)
(0 0 0)
(0 0 0)
(1.5562056 -0.44304248 0.036022882)
(1.6317664 -0.062622263 0.042074309)
(0 0 0)
(0 0 0)
(0 0 0)
(0 0 0)
(0 0 0)
(0 0 0)
(0 0 0)
(1.6203503 -0.098810969 0.041310347)
(1.6106018 -0.14619185 0.040676763)
(1.6010507 -0.19338993 0.039969954)
(1.591701 -0.24049407 0.039445447)
(1.582475 -0.28767634 0.038825952)
(1.5732699 -0.33503016 0.038233725)
(1.5641644 -0.38274995 0.03740155)
(0.004556979 0.0097545392 0.010548094)
(0.007218933 0.017076797 0.012886752)
(0.012681368 0.025260847 0.014423185)
(0.020739616 0.033066288 0.014836247)
(0.030724251 0.041080367 0.015073973)
(0.043218292 0.04851426 0.014995298)
(0.057353637 0.055783999 0.015057657)
(0.07383582 0.062471698 0.01494445)
(0.091871467 0.068815779 0.015045959)
(0.11191463 0.074452444 0.014975561)
(0.13352432 0.079806215 0.015175064)
(0.15685235 0.084447894 0.015272239)
(0.18169 0.088670087 0.015459409)
(0.2080424 0.092330448 0.015734393)
(0.23587749 0.09546864 0.015986929)
(0.26497271 0.098053174 0.016343348)
(0.2954611 0.10017624 0.016731436)
(0.32715385 0.10173284 0.017164087)
(0.36008886 0.10281617 0.017651963)
(0.39414546 0.10336874 0.018157774)
(0.4293288 0.10342351 0.018733848)
(0.46555548 0.10298949 0.019312973)
(0.50279967 0.10204731 0.019948451)
(0.54101307 0.10063755 0.020593208)
(0.58012731 0.098696075 0.02127121)
(0.62012968 0.096358484 0.021973448)
(0.66094191 0.093510524 0.022698963)
(0.70254692 0.090212922 0.023434658)
(0.74489548 0.086480654 0.024196752)
(0.78790255 0.082296561 0.02497895)
(0.83156717 0.077708836 0.025778557)
(0.87581966 0.072698802 0.026602885)
(0.92061346 0.067304225 0.027446164)
(0.96590816 0.061522888 0.028313974)
(1.0116705 0.05538751 0.029204599)
(1.0578208 0.048869442 0.030128393)
(1.1043716 0.042101648 0.0310522)
(1.1512047 0.034876274 0.032050664)
(1.1983802 0.027543111 0.03299597)
(1.2457395 0.019696354 0.034068472)
(1.2933839 0.011814718 0.035036753)
(1.3411312 0.0035241797 0.036143026)
(1.3890756 -0.0050217477 0.037198356)
(1.437093 -0.013542718 0.038244066)
(1.4851841 -0.022692001 0.039417338)
(1.5333389 -0.03158098 0.040474941)
(1.581415 -0.040777251 0.0417296)
(0.00032293168 -0.0092747473 -0.012418741)
(0.0045004592 -0.015328674 -0.01258282)
(0.0084710777 -0.022594002 -0.015415458)
(0.015498631 -0.02980986 -0.014675463)
(0.024797434 -0.037501079 -0.014887949)
(0.035756643 -0.045224282 -0.014054729)
(0.048861116 -0.052869132 -0.013576698)
(0.063498382 -0.060656272 -0.012767227)
(0.079957157 -0.068275873 -0.012066588)
(0.09816045 -0.076212952 -0.011238849)
(0.11769817 -0.083791185 -0.010466465)
(0.13904119 -0.091826778 -0.0096639526)
(0.16164477 -0.099603572 -0.0087894735)
(0.18577427 -0.10760085 -0.0079447686)
(0.21122927 -0.11566797 -0.0070404327)
(0.23804357 -0.12379151 -0.0061358102)
(0.26617584 -0.13209224 -0.0051854727)
(0.29546737 -0.14038704 -0.0042303174)
(0.32605825 -0.14893802 -0.0032167279)
(0.35774101 -0.15750091 -0.0022115348)
(0.39054189 -0.16627545 -0.0011357347)
(0.42446924 -0.1751279 -7.8699722e-05)
(0.45937178 -0.1841545 0.0010632887)
(0.49533773 -0.19332536 0.0021931722)
(0.5321838 -0.20255614 0.003345913)
(0.57002339 -0.21197574 0.0045455099)
(0.60863169 -0.22141157 0.0057671757)
(0.64818985 -0.23108626 0.0070234162)
(0.68852709 -0.24077817 0.0082738711)
(0.72961368 -0.25057271 0.009578055)
(0.77144268 -0.26046605 0.010894466)
(0.81392941 -0.27041784 0.012242866)
(0.8570749 -0.28043603 0.013615843)
(0.90080345 -0.29050458 0.015010526)
(0.94510213 -0.30060555 0.016434877)
(0.98990609 -0.31074665 0.0178716)
(1.0352068 -0.32089561 0.019343804)
(1.0809236 -0.33104056 0.020827132)
(1.1270552 -0.34122146 0.022341606)
(1.1735485 -0.35134017 0.023857365)
(1.2203617 -0.36148791 0.025409285)
(1.2674645 -0.37156981 0.026949178)
(1.3148182 -0.3816143 0.028514463)
(1.362394 -0.39161788 0.030074808)
(1.4101256 -0.40154026 0.031638581)
(1.4580595 -0.41139214 0.033171355)
(1.5060574 -0.42125414 0.034739037)
(0 0 0)
(0 0 0)
(0 0 0)
(0 0 0)
(0 0 0)
(0 0 0)
(0 0 0)
(0.0039009188 -0.0062387811 0.0096150218)
(0.0059370842 -0.019282613 0.013300879)
(0.0094414324 -0.021449283 0.013722254)
(0.017350787 -0.032562932 0.014291254)
(0.026272033 -0.039081795 0.014428753)
(0.037599641 -0.047477968 0.013675745)
(0.050784719 -0.055791901 0.013838815)
(0.065471204 -0.063348675 0.013057295)
(0.082152447 -0.072144184 0.013308719)
(0.10010017 -0.079437609 0.01260538)
(0.1198713 -0.088577742 0.013176887)
(0.14115425 -0.095868871 0.012619953)
(0.16382249 -0.10454752 0.012896201)
(0.18812134 -0.11277769 0.012828031)
(0.21350119 -0.12096352 0.012947412)
(0.24045733 -0.12973721 0.013143422)
(0.26851576 -0.13802415 0.013309)
(0.29790413 -0.14691554 0.013591714)
(0.32843903 -0.15559032 0.013880998)
(0.36014833 -0.16458218 0.014222653)
(0.39295862 -0.1735773 0.014609027)
(0.4268419 -0.18277677 0.015037976)
(0.46177266 -0.19203728 0.015488463)
(0.49767473 -0.20143488 0.015985031)
(0.534579 -0.21100423 0.016477534)
(0.57245785 -0.22062446 0.016954589)
(0.61105111 -0.23047841 0.017596283)
(0.65056178 -0.24029108 0.018173257)
(0.69085911 -0.25027018 0.018824168)
(0.73193566 -0.26030787 0.019477166)
(0.77372377 -0.27041619 0.020151741)
(0.81619404 -0.28059647 0.020864792)
(0.85929601 -0.29083403 0.021605222)
(0.90300069 -0.30110087 0.022374122)
(0.94724856 -0.31140281 0.023176395)
(0.99202183 -0.32174096 0.024020214)
(1.037275 -0.33203755 0.024873039)
(1.0829221 -0.34239327 0.025799206)
(1.1290022 -0.35268243 0.026722073)
(1.1754405 -0.36296678 0.027700887)
(1.2221856 -0.37319687 0.02869016)
(1.2692511 -0.38339028 0.029716925)
(1.3165396 -0.39349891 0.030759422)
(1.3640821 -0.40355342 0.031824237)
(1.4117806 -0.41350165 0.032898472)
(1.4596835 -0.42336973 0.034002816)
(1.5076082 -0.43325292 0.035066504)
(1.5658471 -0.39472707 0.036574613)
(1.5748601 -0.34704441 0.037290946)
(1.5840841 -0.29970729 0.038177841)
(1.5932725 -0.25257526 0.039042619)
(1.6025719 -0.20547108 0.04004378)
(1.6120892 -0.1582804 0.040839239)
(1.6219454 -0.11095535 0.041665436)
(1.5831264 -0.052881984 0.040255586)
(1.5347676 -0.043703654 0.038745335)
(1.4866415 -0.034579723 0.037142545)
(1.4385236 -0.025585878 0.035583267)
(1.3904717 -0.016791059 0.033968248)
(1.3425357 -0.0081846841 0.032360352)
(1.2947488 0.00019244216 0.030764432)
(1.2471335 0.0083419027 0.029169164)
(1.1997436 0.016231521 0.027584337)
(1.1526053 0.023870841 0.026015534)
(1.1057411 0.031191193 0.024464151)
(1.0592802 0.038166015 0.022947085)
(1.0130966 0.044916647 0.021415411)
(0.96736652 0.051257765 0.019921874)
(0.92208697 0.057263661 0.018434156)
(0.87730587 0.062878819 0.016978827)
(0.83306301 0.068118153 0.015537319)
(0.78941245 0.072938356 0.014115688)
(0.74639011 0.077355503 0.012718022)
(0.70405724 0.081321864 0.011344688)
(0.66244554 0.084879129 0.0099805665)
(0.62161111 0.087952832 0.0086571471)
(0.58160074 0.090605529 0.0073435619)
(0.54244349 0.092757648 0.0060617231)
(0.5042181 0.094474194 0.0047928386)
(0.46693975 0.095677375 0.0035671141)
(0.43067445 0.096439413 0.0023388377)
(0.3954612 0.096665654 0.0011756298)
(0.36135541 0.09643967 2.5843819e-06)
(0.32839475 0.095679679 -0.0011156227)
(0.29663332 0.094433921 -0.0022212091)
(0.26612817 0.092694449 -0.0033109769)
(0.23689954 0.090443432 -0.0043310824)
(0.20916539 0.087493492 -0.0052964042)
(0.18281633 0.08419428 -0.0063700343)
(0.15782239 0.080369645 -0.0072038244)
(0.13452171 0.076020122 -0.00823575)
(0.11274517 0.071042192 -0.0090495395)
(0.092649322 0.065780689 -0.01004177)
(0.074523144 0.059560286 -0.010764916)
(0.058159826 0.053450813 -0.011592403)
(0.04349342 0.046398208 -0.012268206)
(0.031312274 0.039273401 -0.012928132)
(0.020857704 0.031607871 -0.013134763)
(0.013169111 0.024207227 -0.012979868)
(0.0073535011 0.015723228 -0.011907309)
(0.0075542311 0.0092424126 -0.007607768)
(0 0 0)
(0 0 0)
(0 0 0)
(0 0 0)
(0 0 0)
(0 0 0)
(0 0 0)
(0 0 0)
(0 0 0)
(0 0 0)
(0 0 0)
(0 0 0)
(0 0 0)
(0 0 0)
(1.5548203 -0.43288126 0.036282383)
(1.5550574 -0.43449139 0.036237594)
(1.5552653 -0.43600786 0.03620693)
(1.5554734 -0.43753199 0.036200233)
(1.555669 -0.43901517 0.036196571)
(1.5558564 -0.44043324 0.036197071)
(1.5560394 -0.44190174 0.036087227)
(1.6306888 -0.051802797 0.042473363)
(1.6309219 -0.053309819 0.042454425)
(1.6311493 -0.05477792 0.042348046)
(1.6313757 -0.056267555 0.04226613)
(1.6315712 -0.057770239 0.042179758)
(1.6317226 -0.05932391 0.042109323)
(1.6319333 -0.060826995 0.042104792)
(0.0013112627 0.0073518191 0.0096016579)
(0.0042181473 0.012926591 0.0095527018)
(0.0093179753 0.019245755 0.010993204)
(0.017081961 0.02525202 0.011328759)
(0.026953228 0.031021895 0.011459969)
(0.03933761 0.036773458 0.011586469)
(0.053382664 0.041953927 0.011562348)
(0.069680052 0.047055414 0.011726587)
(0.087679755 0.05144427 0.011675853)
(0.10756308 0.055592353 0.011921189)
(0.12901341 0.059231413 0.012063913)
(0.15216245 0.062335855 0.012246527)
(0.1768262 0.065146357 0.012545409)
(0.20299069 0.06733393 0.012826505)
(0.23056241 0.069106652 0.013203396)
(0.25950025 0.070391867 0.013598245)
(0.28974535 0.071237571 0.014058824)
(0.32122603 0.071558309 0.014562326)
(0.35391886 0.071460734 0.015095966)
(0.3877657 0.070869431 0.015677231)
(0.42271389 0.069828957 0.016295897)
(0.45871271 0.068329519 0.016942019)
(0.49574408 0.066382821 0.017627899)
(0.53369786 0.063977546 0.018337519)
(0.57263186 0.06116006 0.019085195)
(0.6124154 0.057870669 0.019821363)
(0.65302739 0.054181982 0.020606752)
(0.69443986 0.050085412 0.021409872)
(0.73658839 0.045560662 0.022229578)
(0.77941897 0.040662934 0.023072261)
(0.82291577 0.035387209 0.023935884)
(0.8670044 0.029730189 0.024820113)
(0.91164853 0.023737123 0.025727199)
(0.9568159 0.017395796 0.026658276)
(1.0024452 0.010729184 0.027611772)
(1.0484846 0.0037668461 0.028591072)
(1.0949416 -0.0034935735 0.029583867)
(1.1416879 -0.011053694 0.030632046)
(1.1887903 -0.018826451 0.031663063)
(1.2361095 -0.026921188 0.032764847)
(1.2836838 -0.035127952 0.033823094)
(1.3314084 -0.043734674 0.034993387)
(1.3793575 -0.05233083 0.036041838)
(1.4273229 -0.061261064 0.037244994)
(1.4754803 -0.070405032 0.038361556)
(1.5235681 -0.079452583 0.039474198)
(1.5717608 -0.089120849 0.040560918)
(-0.0014424626 0.0048966587 0.0066448845)
(0.0014072864 0.0080350781 0.0062554497)
(0.0067686895 0.013262963 0.007570347)
(0.014371832 0.017008728 0.0075692154)
(0.024423373 0.021233649 0.0079318462)
(0.036302076 0.025020993 0.0078981977)
(0.050342132 0.02859603 0.0082309218)
(0.066485617 0.031771186 0.008116036)
(0.084242444 0.034541522 0.0085525629)
(0.10387447 0.037030512 0.0086684912)
(0.12520483 0.038988441 0.0089332707)
(0.14810021 0.040638243 0.0092668296)
(0.17257289 0.041851007 0.0096158761)
(0.19852917 0.042557216 0.010034183)
(0.22590673 0.042938138 0.010490409)
(0.25459849 0.042871067 0.010955605)
(0.28461001 0.042424405 0.011474268)
(0.31583733 0.041515639 0.01203993)
(0.34830129 0.040233072 0.012629012)
(0.38190741 0.038485516 0.013272813)
(0.41662001 0.036340352 0.013939395)
(0.45241954 0.033784128 0.014630649)
(0.48916813 0.030804451 0.015368601)
(0.52696466 0.027466765 0.016122191)
(0.56563913 0.023675388 0.016890741)
(0.60518788 0.019554332 0.017730158)
(0.64558963 0.015020029 0.018571361)
(0.68678624 0.010105182 0.019420558)
(0.72870778 0.0048660682 0.020321309)
(0.77136058 -0.00075196182 0.021223879)
(0.81466325 -0.0066912621 0.022148918)
(0.85857321 -0.012967942 0.023110609)
(0.90306502 -0.019542819 0.024076559)
(0.94807526 -0.026426988 0.025080711)
(0.99356101 -0.033581954 0.026100141)
(1.0394902 -0.041019027 0.027151417)
(1.0858284 -0.048685857 0.028214186)
(1.1324552 -0.056650234 0.029334219)
(1.1795146 -0.064726127 0.030403794)
(1.2266943 -0.073169198 0.0315915)
(1.2742897 -0.081648718 0.032693871)
(1.3219257 -0.090453777 0.033899406)
(1.3698794 -0.099308757 0.035040327)
(1.4178049 -0.10843045 0.036267056)
(1.4659752 -0.11766694 0.037414883)
(1.5140824 -0.12703591 0.038561218)
(1.5624231 -0.1366868 0.039660537)
(-0.0037655439 0.0027562865 0.0040987676)
(-0.00062496799 0.0047948283 0.0037987246)
(0.0042292716 0.0074045509 0.0042908061)
(0.012168874 0.0097831881 0.0043064364)
(0.021762971 0.011894629 0.0044340328)
(0.034032833 0.014059461 0.0045944251)
(0.048048538 0.015484218 0.0045138826)
(0.064014606 0.017027627 0.0049377071)
(0.08169569 0.01793006 0.0051179375)
(0.10135443 0.018694286 0.0053248995)
(0.12233311 0.019083764 0.0057742749)
(0.14509394 0.019090059 0.0061178927)
(0.16927516 0.018814871 0.0065497617)
(0.19495353 0.018106677 0.0070483033)
(0.22201057 0.01714196 0.0075889366)
(0.25046426 0.015734868 0.0080904398)
(0.28019414 0.013988403 0.0087184212)
(0.31118919 0.011859948 0.0093050504)
(0.34339496 0.0093414026 0.0099962675)
(0.37670787 0.0064713251 0.010687907)
(0.41115086 0.0032314674 0.011438038)
(0.44659377 -0.00038662389 0.012218754)
(0.48315001 -0.0043314289 0.013030668)
(0.52061427 -0.0087007749 0.013850093)
(0.55902255 -0.013367918 0.014748982)
(0.59833045 -0.018409052 0.015612444)
(0.63851995 -0.023789622 0.016496234)
(0.67947155 -0.029491574 0.017437921)
(0.72121349 -0.035508867 0.018371208)
(0.7636568 -0.04184981 0.019328842)
(0.8067583 -0.048465098 0.02032677)
(0.85050002 -0.055379917 0.021329646)
(0.89481086 -0.062555798 0.022363267)
(0.93966023 -0.069987204 0.023421097)
(0.98500121 -0.077677459 0.024503101)
(1.0308024 -0.085563994 0.025598406)
(1.0769802 -0.093720932 0.02673868)
(1.1235832 -0.10200245 0.027870577)
(1.1704737 -0.11054035 0.029043954)
(1.2176449 -0.11924328 0.030270869)
(1.2651165 -0.12800902 0.031417192)
(1.3127038 -0.1371191 0.032745458)
(1.3606026 -0.14613736 0.033879142)
(1.4085092 -0.15549406 0.035226533)
(1.4567115 -0.1648692 0.036372791)
(1.5048281 -0.17432772 0.037643747)
(1.5531182 -0.18398155 0.038839906)
(-0.0042166635 0.00056260279 0.00074841228)
(-0.0010874111 0.00076401066 -0.00019469099)
(0.0035885088 0.0016752577 0.00017711867)
(0.011112496 0.0021057744 0.0002360119)
(0.021000354 0.0022427653 0.00057332381)
(0.032837026 0.0025880226 0.00058441276)
(0.046613932 0.0021312904 0.0012271466)
(0.062260061 0.0019736743 0.001384581)
(0.079813264 0.0011105355 0.0018139421)
(0.098929854 0.00032225526 0.0023660396)
(0.11976962 -0.0010754014 0.0027829532)
(0.14229607 -0.0025293448 0.0032216503)
(0.1662109 -0.0043698288 0.0037301718)
(0.19169943 -0.0065926369 0.0043039984)
(0.21850761 -0.0089357186 0.004801877)
(0.24675369 -0.011782518 0.0054628664)
(0.27619307 -0.014754068 0.0060647397)
(0.30695121 -0.018204797 0.0067762614)
(0.33882301 -0.021884001 0.0075000777)
(0.37191056 -0.025927122 0.0082474404)
(0.40607802 -0.030310961 0.0090411024)
(0.44140292 -0.034968592 0.0098333531)
(0.47762861 -0.040004329 0.010671455)
(0.51486773 -0.045300187 0.01156315)
(0.55303958 -0.050915377 0.012432812)
(0.59212448 -0.056825605 0.013342366)
(0.63202134 -0.063017457 0.014325446)
(0.67273602 -0.069515246 0.015311745)
(0.71422026 -0.07626709 0.016307561)
(0.75641327 -0.083303549 0.017367669)
(0.79929844 -0.090572932 0.018413096)
(0.8428144 -0.098103569 0.019506623)
(0.88691799 -0.10584966 0.020610209)
(0.9315774 -0.11381843 0.021747822)
(0.97673893 -0.12197863 0.022896167)
(1.0223512 -0.13035202 0.024089484)
(1.0684133 -0.13886055 0.025282113)
(1.1148129 -0.14756873 0.026517921)
(1.1615644 -0.1564334 0.027787012)
(1.2086083 -0.16537123 0.029020426)
(1.2559806 -0.17451633 0.030324414)
(1.303502 -0.18373819 0.031617945)
(1.3513513 -0.19300499 0.032882766)
(1.3992262 -0.20249296 0.034253803)
(1.4473838 -0.21190148 0.035499738)
(1.4954817 -0.22146938 0.036878376)
(1.5438182 -0.23108018 0.038130939)
(-0.0046799837 -0.0016016273 -0.002285189)
(-0.0013553097 -0.002487444 -0.003052329)
(0.0027174116 -0.0036649071 -0.0029954887)
(0.010641592 -0.0051704222 -0.0030987395)
(0.02000896 -0.0068393891 -0.0029652688)
(0.031980844 -0.0085105123 -0.0026145773)
(0.045472699 -0.010753681 -0.002287486)
(0.061292488 -0.012722331 -0.0020617039)
(0.078422052 -0.015395991 -0.0014563583)
(0.09759674 -0.017921609 -0.0010998395)
(0.1181988 -0.02095789 -0.00067127743)
(0.14042106 -0.023857873 -8.1173427e-05)
(0.16408445 -0.027421518 0.00054148024)
(0.18925625 -0.030856562 0.0011301268)
(0.21577962 -0.034811579 0.0018356883)
(0.24364791 -0.038892437 0.0025477579)
(0.27283268 -0.043290957 0.0032657638)
(0.30322982 -0.04794878 0.0040393122)
(0.33485964 -0.052844254 0.0048227945)
(0.36761122 -0.05806088 0.0056505527)
(0.40151001 -0.063479166 0.0065113503)
(0.43638174 -0.069231494 0.0074195482)
(0.47233555 -0.075204564 0.0083669338)
(0.50924829 -0.08150053 0.0093072279)
(0.54715336 -0.088037313 0.010285744)
(0.58590973 -0.094819478 0.011314062)
(0.62556114 -0.10188007 0.01234961)
(0.66602589 -0.10916706 0.013381283)
(0.70726359 -0.11668358 0.014464381)
(0.74922935 -0.1244199 0.015548019)
(0.79188792 -0.13236371 0.016663607)
(0.83519106 -0.14051568 0.017805151)
(0.87909485 -0.14885315 0.018968658)
(0.92356511 -0.15735049 0.020148715)
(0.96853585 -0.16604521 0.021371392)
(1.0140081 -0.17484756 0.022594405)
(1.0598805 -0.18381208 0.023853242)
(1.10618 -0.19292388 0.025148714)
(1.1527977 -0.20208831 0.026402311)
(1.1998199 -0.21139087 0.027746469)
(1.2470327 -0.22077944 0.029068916)
(1.2945361 -0.23022045 0.030433428)
(1.3422417 -0.23975052 0.031777834)
(1.3900911 -0.24934952 0.033200545)
(1.4381804 -0.25891101 0.034518372)
(1.4863127 -0.26857952 0.03596683)
(1.5345937 -0.27818289 0.037337777)
(-0.0039348716 -0.0037923906 -0.0058501035)
(-0.00011591921 -0.0066631822 -0.0064641586)
(0.0039890941 -0.0097737374 -0.0073445541)
(0.011608178 -0.01331043 -0.0072717022)
(0.02098309 -0.016753781 -0.0070611835)
(0.032539116 -0.020504308 -0.0066296943)
(0.046046385 -0.024466958 -0.0062432007)
(0.061344075 -0.028345549 -0.0056488742)
(0.078405565 -0.032721088 -0.0050741369)
(0.097161902 -0.036857145 -0.0045054414)
(0.11751525 -0.041505864 -0.0038264163)
(0.13939415 -0.046118238 -0.0031773289)
(0.1627899 -0.051047422 -0.0025501126)
(0.18762764 -0.05611563 -0.0017997974)
(0.21380376 -0.061385137 -0.0010991171)
(0.24137868 -0.066858958 -0.00030060456)
(0.27018939 -0.072543033 0.00045148361)
(0.3002965 -0.078417529 0.0013096014)
(0.33155696 -0.084561521 0.0021505848)
(0.36399768 -0.090864348 0.0030508065)
(0.39751087 -0.097482646 0.0039676526)
(0.43219459 -0.10416484 0.0049338024)
(0.46776874 -0.11120398 0.0058973023)
(0.50441112 -0.11853965 0.0069093421)
(0.54196616 -0.12596761 0.0079544826)
(0.58041988 -0.13367961 0.0089931326)
(0.61978476 -0.14152604 0.01006656)
(0.65994183 -0.14959104 0.011192433)
(0.7008885 -0.15781921 0.012317307)
(0.74258336 -0.1662537 0.013486581)
(0.78497142 -0.17484839 0.014672128)
(0.82801718 -0.18359916 0.015892289)
(0.87168182 -0.19249521 0.017125995)
(0.91591223 -0.20154084 0.018396828)
(0.96068197 -0.21068128 0.019678731)
(1.0059271 -0.21995434 0.020992637)
(1.0516379 -0.22931844 0.022330612)
(1.0977324 -0.238741 0.023675406)
(1.1442288 -0.24830205 0.025071349)
(1.1910187 -0.25786534 0.026451199)
(1.2381248 -0.26748425 0.027874185)
(1.2855127 -0.27712586 0.029277294)
(1.3330788 -0.2868599 0.030742181)
(1.380901 -0.29651626 0.032159541)
(1.4288474 -0.30621183 0.033623054)
(1.476952 -0.31588873 0.0351253)
(1.525201 -0.32545004 0.036619419)
(-0.0022928989 -0.0069165304 -0.0083526731)
(0.0013722966 -0.010534388 -0.0095751019)
(0.0053038784 -0.015890121 -0.010834788)
(0.013002366 -0.021013574 -0.010814542)
(0.021866466 -0.026391437 -0.010683344)
(0.033578074 -0.032133967 -0.010158185)
(0.046607309 -0.037871723 -0.0097310364)
(0.061812462 -0.043674775 -0.0090286724)
(0.078540175 -0.049796848 -0.0084775217)
(0.096980954 -0.055568546 -0.0077572558)
(0.11713318 -0.062107766 -0.0070024508)
(0.13858385 -0.068022262 -0.0064408276)
(0.16178378 -0.07472334 -0.0055146175)
(0.18615924 -0.081099 -0.0048309937)
(0.21211401 -0.087868395 -0.0039573457)
(0.23926714 -0.094648658 -0.0031516627)
(0.26779924 -0.10164666 -0.0022614183)
(0.29752241 -0.10879985 -0.0013632298)
(0.32845221 -0.11610574 -0.00044310903)
(0.36054538 -0.12360335 0.00051930624)
(0.39375174 -0.13125217 0.0014944252)
(0.4279827 -0.13910205 0.00252422)
(0.46333923 -0.14710693 0.0035552544)
(0.4996187 -0.15534628 0.0046421796)
(0.53685393 -0.16368771 0.0057084731)
(0.57500988 -0.17222851 0.0068308858)
(0.61404267 -0.18091586 0.0080081808)
(0.65390974 -0.18974844 0.0091738103)
(0.69458203 -0.19873483 0.010371078)
(0.73599563 -0.20786464 0.011602493)
(0.77811441 -0.21710681 0.01284938)
(0.8209114 -0.22647269 0.014127515)
(0.86432171 -0.23594488 0.01542972)
(0.90832963 -0.2454985 0.01675275)
(0.95286547 -0.25514578 0.018105196)
(0.99791929 -0.26485382 0.019475976)
(1.0434177 -0.27461576 0.020865085)
(1.089367 -0.28444887 0.022297016)
(1.1356684 -0.29428748 0.023708868)
(1.1823347 -0.30417792 0.025173701)
(1.2293037 -0.31405155 0.026632791)
(1.2765592 -0.32396843 0.028129923)
(1.3240264 -0.3338543 0.029620114)
(1.3717406 -0.3436979 0.031106827)
(1.4195572 -0.35355696 0.032646362)
(1.4675991 -0.36330702 0.034137958)
(1.5157057 -0.37295137 0.035710938)
(0 0 0)
(0 0 0)
(0 0 0)
(0 0 0)
(0 0 0)
(0 0 0)
(0 0 0)
(0 0 0)
(0 0 0)
(0 0 0)
(0 0 0)
(0 0 0)
(0 0 0)
(0 0 0)
(0 0 0)
(0 0 0)
(0 0 0)
(0 0 0)
(0 0 0)
(0 0 0)
(0 0 0)
(0 0 0)
(0 0 0)
(0 0 0)
(0 0 0)
(0 0 0)
(0 0 0)
(0 0 0)
(0 0 0)
(0 0 0)
(0 0 0)
(0 0 0)
(0 0 0)
(0 0 0)
(0 0 0)
(0 0 0)
(0 0 0)
(0 0 0)
(0 0 0)
(0 0 0)
(0 0 0)
(0 0 0)
(0 0 0)
(0 0 0)
(0 0 0)
(0 0 0)
(0 0 0)
(0 0 0)
(0 0 0)
(0.0040561048 -0.0028167183 -0.0065059001)
(0.0051109873 -0.0036830507 -0.0045724421)
(0.0062257111 -0.0038964689 -0.0024438836)
(0.0066671895 -0.0041272575 -0.0007208854)
(0.0065349767 -0.0038458265 0.0010445475)
(0.0062044155 -0.0040677756 0.0029540717)
(0.0051008506 -0.0026918769 0.0050514056)
(0.0081645996 -0.014921928 -0.010434226)
(0.010283118 -0.016676378 -0.0059658932)
(0.011246447 -0.015680496 -0.0029167039)
(0.01153622 -0.015250165 -0.00031814818)
(0.011677863 -0.016230509 0.0022261915)
(0.010537312 -0.016070542 0.0052872994)
(0.0093481633 -0.016039159 0.0092677213)
(0.011661666 -0.020894959 -0.011197717)
(0.014398828 -0.020023755 -0.0081290255)
(0.016208944 -0.021085833 -0.0037746334)
(0.016512958 -0.021126088 -0.0007526043)
(0.016448491 -0.020733239 0.0031205452)
(0.015179353 -0.021020589 0.0058817952)
(0.013410167 -0.022154763 0.010804621)
(0.019585097 -0.030494497 -0.01112346)
(0.021836719 -0.031235571 -0.0078512401)
(0.023321213 -0.03103421 -0.0038054978)
(0.023965213 -0.031144873 -0.0006373646)
(0.023755144 -0.03132814 0.003035894)
(0.022575237 -0.032041309 0.0069770025)
(0.020319022 -0.031418793 0.010483877)
(0.028041142 -0.038015823 -0.01130537)
(0.030719734 -0.038095752 -0.0080446327)
(0.032650232 -0.038610364 -0.0040616503)
(0.033132578 -0.038615731 -0.00037412653)
(0.03305274 -0.039046431 0.0033438962)
(0.031829413 -0.039136467 0.0068003257)
(0.029857611 -0.039627662 0.011044432)
(0.039418263 -0.046395731 -0.010604625)
(0.041630056 -0.046604546 -0.0075113003)
(0.04325096 -0.046708353 -0.003646082)
(0.04385821 -0.047248274 -0.00056479089)
(0.043663063 -0.047172297 0.0034217131)
(0.042421189 -0.047509496 0.0069352285)
(0.040386913 -0.047478257 0.010415491)
(0.052047588 -0.053757643 -0.010286721)
(0.054419564 -0.054228008 -0.0069713622)
(0.056125876 -0.055066077 -0.0035427432)
(0.056791238 -0.055264428 -0.00014375131)
(0.056677283 -0.055812461 0.0035142897)
(0.055664915 -0.056321024 0.0067718394)
(0.053756335 -0.05630051 0.010589992)
(0.066748136 -0.061919164 -0.0095433156)
(0.06903775 -0.06260674 -0.0067032468)
(0.07060073 -0.062854248 -0.0030667575)
(0.071175256 -0.063336253 6.9768054e-05)
(0.070959741 -0.063429126 0.0034036535)
(0.069973242 -0.063549812 0.0068339967)
(0.068001123 -0.063539528 0.010017963)
(0.083168341 -0.069633944 -0.0090575224)
(0.085295193 -0.07010832 -0.0058508095)
(0.086823263 -0.070971691 -0.0027251785)
(0.087444987 -0.071481017 0.00030162165)
(0.087394931 -0.07218698 0.0036459683)
(0.086474619 -0.072391619 0.006819501)
(0.084753454 -0.072658308 0.010274822)
(0.1010197 -0.077343213 -0.0082767836)
(0.10320066 -0.078290409 -0.0055290261)
(0.10466896 -0.078752392 -0.0024467194)
(0.1054215 -0.079561382 0.00077751394)
(0.10515719 -0.079621961 0.0038203519)
(0.10428784 -0.079831171 0.0068659666)
(0.10257205 -0.079856741 0.0099064809)
(0.12075866 -0.085351025 -0.0076053531)
(0.12274141 -0.086075055 -0.0048043925)
(0.12421262 -0.086909605 -0.0016411678)
(0.12468751 -0.087249775 0.001018791)
(0.12467963 -0.087944906 0.0040973601)
(0.12382897 -0.088319674 0.0069444125)
(0.12219496 -0.088612711 0.010242785)
(0.14174676 -0.092959193 -0.0070053498)
(0.14382964 -0.093986861 -0.0041021768)
(0.14509619 -0.094752463 -0.0015375468)
(0.14587389 -0.095666529 0.001434353)
(0.14574186 -0.096098378 0.0043810211)
(0.14480259 -0.096174086 0.0070652276)
(0.14351061 -0.096521327 0.010064052)
(0.16448846 -0.10121202 -0.0060859279)
(0.16624166 -0.10199619 -0.003471088)
(0.16764448 -0.10294569 -0.00077082446)
(0.16820786 -0.10341323 0.0019449504)
(0.16811474 -0.1038841 0.00471163)
(0.16734199 -0.10453745 0.0072996802)
(0.1659469 -0.10455388 0.010229914)
(0.18837071 -0.10893952 -0.0054635816)
(0.19021297 -0.1100087 -0.0028429099)
(0.19161855 -0.11097725 -0.00037587502)
(0.19215701 -0.11171066 0.002297803)
(0.19218974 -0.11254593 0.0050203994)
(0.19138852 -0.11273976 0.007457793)
(0.19019888 -0.11306135 0.010363107)
(0.21380273 -0.1172767 -0.0046128243)
(0.21559096 -0.11826361 -0.0020712806)
(0.21683143 -0.11911416 0.00028669833)
(0.21742464 -0.11990132 0.002952078)
(0.21739429 -0.12037491 0.0053799475)
(0.21669282 -0.12084974 0.0078854571)
(0.21548617 -0.12111083 0.010546171)
(0.2405503 -0.12532378 -0.0038159471)
(0.24222163 -0.12633655 -0.0014037127)
(0.24353854 -0.12745718 0.00090504583)
(0.24408797 -0.12823155 0.0033157308)
(0.24411314 -0.12900115 0.0058616842)
(0.24343615 -0.12949835 0.0081213468)
(0.24231972 -0.12976404 0.010803404)
(0.26850782 -0.13364223 -0.0029680238)
(0.27020326 -0.13479664 -0.00058094004)
(0.27142263 -0.13578208 0.001529108)
(0.27195688 -0.1365581 0.0040406728)
(0.27200989 -0.13730699 0.0063066958)
(0.27137163 -0.13772165 0.0085785108)
(0.27031654 -0.13813944 0.011109365)
(0.29781945 -0.14204791 -0.0020588954)
(0.29940938 -0.14318533 0.00011746633)
(0.30063567 -0.1442636 0.0022977576)
(0.30116074 -0.14519273 0.0045568712)
(0.3012148 -0.14593372 0.0068124158)
(0.30061537 -0.14653032 0.0089963777)
(0.29959714 -0.14685872 0.011436218)
(0.32825055 -0.15056461 -0.0011930261)
(0.32980177 -0.15172426 0.0010055315)
(0.33100096 -0.15287135 0.0030107263)
(0.3314696 -0.15369998 0.0052471387)
(0.33158511 -0.15455283 0.0074016044)
(0.33099115 -0.15506112 0.009497261)
(0.33006487 -0.15557388 0.011820979)
(0.35987076 -0.15918949 -0.0002069839)
(0.36139521 -0.16044436 0.0018316002)
(0.36252519 -0.16155957 0.0037899533)
(0.36302624 -0.16256884 0.0059293486)
(0.36312158 -0.16336464 0.00797132)
(0.36257757 -0.16404759 0.010007638)
(0.36168952 -0.164472 0.012238002)
(0.39262045 -0.16798926 0.0007395968)
(0.39405055 -0.16919975 0.0027197612)
(0.39518166 -0.17043505 0.0046086568)
(0.39564191 -0.1713536 0.0066429573)
(0.39577265 -0.17227404 0.0086222709)
(0.39525071 -0.17288431 0.010574531)
(0.39442325 -0.17343255 0.012703326)
(0.426418 -0.17685837 0.00175188)
(0.42783173 -0.17818813 0.0036482074)
(0.42890571 -0.17937126 0.005447175)
(0.42937117 -0.18043028 0.0074017641)
(0.42949873 -0.18129579 0.0092950476)
(0.4290067 -0.18203299 0.011163741)
(0.42823096 -0.18257358 0.013210432)
(0.46127799 -0.18593723 0.0027951326)
(0.46262064 -0.18721095 0.0046045066)
(0.46366727 -0.18848839 0.0063162564)
(0.46411998 -0.18950125 0.0081835476)
(0.46425538 -0.1904865 0.0099955708)
(0.4638065 -0.19121538 0.011779538)
(0.46308395 -0.1918088 0.013741428)
(0.49712592 -0.19504361 0.0038735198)
(0.49843249 -0.19644864 0.0055778976)
(0.49943169 -0.197677 0.0072054252)
(0.49987845 -0.19881924 0.0090065648)
(0.50002596 -0.19975083 0.010720514)
(0.49960819 -0.2005221 0.012440432)
(0.49891778 -0.20114692 0.014317245)
(0.53391402 -0.204364 0.0049284727)
(0.53520997 -0.20574731 0.0065980641)
(0.53613073 -0.20700252 0.0081205368)
(0.53661064 -0.20815959 0.0098649043)
(0.53672711 -0.2091283 0.011466842)
(0.5363441 -0.21000923 0.013127703)
(0.53571334 -0.21069081 0.014877951)
(0.5716189 -0.21375892 0.0060586884)
(0.57290132 -0.21515664 0.007610933)
(0.57374246 -0.2164698 0.0090686198)
(0.57424904 -0.21765366 0.01077126)
(0.5743127 -0.21863967 0.012214597)
(0.57405075 -0.2195488 0.013798211)
(0.57345985 -0.22023512 0.015424373)
(0.61023235 -0.22329252 0.0072008734)
(0.61143278 -0.2246909 0.008601305)
(0.61228161 -0.22606833 0.010125823)
(0.61277213 -0.22723598 0.011535867)
(0.61291087 -0.22829569 0.013090264)
(0.61262167 -0.22923912 0.014571477)
(0.61203162 -0.2299782 0.01614962)
(0.64971661 -0.23290438 0.0083597371)
(0.65081028 -0.23433749 0.0097138931)
(0.65168538 -0.23573591 0.011130186)
(0.65210533 -0.23692858 0.012446111)
(0.65227037 -0.2380326 0.013977071)
(0.65200066 -0.23894639 0.01528766)
(0.65147065 -0.2398119 0.016835191)
(0.68995736 -0.2426043 0.0095284317)
(0.69104808 -0.24409956 0.010856589)
(0.69182237 -0.24550199 0.012105545)
(0.69228437 -0.24671816 0.013456709)
(0.69240673 -0.24786037 0.014808536)
(0.69219268 -0.2488476 0.016090742)
(0.69169577 -0.24972242 0.017551415)
(0.73099959 -0.25242957 0.010780378)
(0.73198669 -0.25391094 0.01196839)
(0.73277445 -0.25534926 0.013209808)
(0.73319451 -0.25659968 0.014412805)
(0.73333683 -0.25779718 0.015718184)