/*--------------------------------*- C++ -*----------------------------------*\
  =========                 |
  \\      /  F ield         | OpenFOAM: The Open Source CFD Toolbox
   \\    /   O peration     | Website:  https://openfoam.org
    \\  /    A nd           | Version:  6
     \\/     M anipulation  |
\*---------------------------------------------------------------------------*/
FoamFile
{
    version     2.0;
    format      ascii;
    class       pointVectorField;
    location    "0.26";
    object      lm;
}
// * * * * * * * * * * * * * * * * * * * * * * * * * * * * * * * * * * * * * //

dimensions      [1 -2 -1 0 0 0 0];

internalField   nonuniform List<vector> 
3969
(
(0 0 0)
(0 0 0)
(3569.9371 -77.059549 -17.145867)
(3588.079 -420.34603 -7.7079372)
(0 0 0)
(0 0 0)
(3585.3947 -399.71676 -11.821213)
(3567.641 -58.148094 -12.925334)
(0 0 0)
(0 0 0)
(0 0 0)
(0 0 0)
(0 0 0)
(0 0 0)
(0 0 0)
(3462.0436 -112.56862 -13.393667)
(3376.2392 -148.86407 -11.040343)
(3396.371 -190.5239 -10.346133)
(3506.5102 -240.50265 -10.651854)
(3637.8343 -295.3346 -11.476815)
(3709.1792 -347.06274 -11.597257)
(3677.6638 -388.27113 -10.310178)
(-1.4275089 29.928619 38.944569)
(-12.934721 55.535941 56.699103)
(-14.113005 90.470681 70.896366)
(-2.392261 129.95728 80.013234)
(21.976014 173.02368 86.783072)
(62.484143 218.56446 90.025688)
(117.98139 264.83576 91.158931)
(190.85572 311.29957 89.162602)
(279.62165 355.38886 84.636991)
(385.06498 396.80845 77.194978)
(505.35905 433.43594 67.60473)
(639.29544 464.37837 55.759424)
(784.35497 487.8027 42.04747)
(938.11101 503.9476 27.911107)
(1096.6956 511.01743 13.505437)
(1257.0219 510.24607 0.40801812)
(1415.8932 501.62342 -11.029526)
(1570.2906 485.96636 -19.850214)
(1717.826 464.59719 -25.633331)
(1856.8213 438.86905 -28.308037)
(1986.5824 410.2057 -28.185012)
(2107.2275 379.95672 -25.926448)
(2219.4706 349.1783 -22.491307)
(2324.3311 318.76253 -18.701674)
(2423.0097 288.86829 -15.403731)
(2516.238 259.90271 -13.192068)
(2604.4439 231.67369 -12.080161)
(2687.3374 204.27765 -11.935778)
(2764.5629 177.71734 -12.24291)
(2835.4896 152.02954 -12.407366)
(2899.5727 127.50497 -11.905633)
(2956.589 104.4768 -10.408896)
(3007.0124 83.301758 -8.0314679)
(3051.6591 64.122173 -4.9892983)
(3092.0466 47.248065 -2.2172386)
(3129.3981 32.36079 -0.090963531)
(3165.6592 19.34868 0.51629159)
(3201.1222 7.6577366 -0.60525799)
(3236.8743 -3.0779128 -3.3103968)
(3272.327 -13.037604 -7.2219364)
(3307.1738 -23.057344 -11.560734)
(3340.6794 -32.562963 -15.442284)
(3371.7908 -41.254574 -18.333309)
(3401.6217 -50.522259 -19.858965)
(3428.9009 -57.226945 -19.793674)
(3456.2595 -64.064376 -19.247108)
(3482.1613 -69.696679 -17.967079)
(-14.23644 -18.926046 -30.596021)
(-20.466517 -41.521653 -36.236944)
(-28.345013 -71.86963 -53.725144)
(-20.675783 -106.60134 -59.071623)
(1.2416858 -147.54208 -67.194609)
(36.663617 -189.50619 -71.140347)
(88.16793 -234.27883 -75.04577)
(154.31891 -278.68515 -76.1318)
(236.64401 -323.00893 -75.881675)
(334.07775 -364.89753 -72.751341)
(445.25894 -404.12932 -67.713295)
(569.75417 -438.82566 -60.137316)
(704.20506 -468.4997 -50.265312)
(846.85961 -492.10603 -38.345975)
(994.69923 -509.80545 -25.040858)
(1144.7275 -521.05751 -10.87512)
(1294.0907 -526.645 3.2540977)
(1439.7856 -526.83464 16.74959)
(1579.9297 -523.02126 28.790245)
(1712.6542 -515.99587 38.916026)
(1837.4787 -507.13608 46.669818)
(1954.0516 -497.52259 52.119375)
(2063.2568 -487.5169 55.024657)
(2166.1151 -478.38233 56.272963)
(2263.7674 -469.43828 56.108927)
(2357.2361 -461.28565 55.430839)
(2447.3656 -453.44071 54.10388)
(2533.8173 -445.2243 53.020806)
(2616.774 -437.0862 52.136724)
(2695.768 -428.67825 51.281042)
(2769.9425 -420.30299 50.238222)
(2838.8537 -412.24011 48.58767)
(2902.2216 -404.97245 45.991757)
(2960.4638 -398.99294 42.311865)
(3014.3483 -394.59265 37.682688)
(3065.0855 -391.85798 32.358206)
(3113.9246 -390.89765 26.962712)
(3162.0717 -391.10541 22.358397)
(3210.2812 -392.24668 18.470917)
(3258.0058 -393.87392 15.894141)
(3305.2666 -395.4099 14.172036)
(3350.7584 -396.93489 13.168169)
(3393.6429 -398.45674 11.890832)
(3433.3589 -400.30488 10.062902)
(3469.6816 -402.86706 7.0933739)
(3503.4765 -406.54464 2.8491754)
(3543.372 -412.61246 -2.1777385)
(0 0 0)
(0 0 0)
(0 0 0)
(0 0 0)
(0 0 0)
(0 0 0)
(0 0 0)
(-6.9530315 -11.435181 25.405222)
(-22.488451 -49.766859 49.419687)
(-33.985074 -62.678818 63.333981)
(-26.16192 -106.36782 74.632492)
(-6.999087 -141.99026 82.863565)
(30.222725 -182.00848 85.095588)
(81.850997 -226.59674 86.172272)
(151.32414 -268.76421 81.95212)
(235.69671 -313.12917 76.127899)
(336.11117 -355.45156 66.185279)
(449.63979 -395.66377 56.133219)
(576.24301 -430.86275 42.102428)
(714.73337 -463.07196 26.632759)
(860.27394 -489.4508 11.099945)
(1010.0712 -510.20981 -3.9184155)
(1161.2587 -524.94296 -17.22558)
(1310.2739 -533.51741 -28.135623)
(1454.5988 -536.53086 -35.755869)
(1591.9861 -534.56574 -39.826926)
(1721.2539 -528.57932 -40.377914)
(1842.087 -519.71828 -37.957337)
(1955.0805 -508.9836 -33.509668)
(2061.3663 -497.4938 -28.150654)
(2162.5228 -485.82038 -23.094332)
(2259.7375 -474.5357 -18.975754)
(2353.4167 -463.65046 -16.344124)
(2445.572 -453.28468 -15.774798)
(2534.4127 -442.96294 -16.535729)
(2619.2896 -432.99277 -17.457169)
(2699.3666 -422.9211 -18.094918)
(2773.5958 -412.80964 -17.634237)
(2841.5573 -403.00331 -15.819469)
(2903.3224 -393.78272 -12.667636)
(2959.48 -385.66739 -8.5781606)
(3011.4203 -379.20515 -4.4405915)
(3061.2351 -374.16451 -1.0682484)
(3108.4265 -371.49325 0.70582914)
(3156.3682 -369.83738 0.41601371)
(3203.8862 -370.38332 -1.8387683)
(3251.6192 -371.45301 -5.5543227)
(3298.4292 -373.15996 -9.8269677)
(3342.9188 -374.96461 -13.651326)
(3384.3467 -376.83036 -16.140928)
(3422.0772 -378.90051 -16.965145)
(3456.4769 -381.37008 -16.340778)
(3488.6005 -384.96249 -14.75967)
(3512.0294 -388.72012 -13.303416)
(3681.0796 -369.2863 -10.409971)
(3702.1161 -328.17837 -9.7611381)
(3616.0835 -276.10775 -9.9593615)
(3470.7425 -222.07255 -11.29428)
(3379.3874 -172.98498 -12.776275)
(3377.787 -132.2757 -13.697909)
(3478.765 -95.62301 -14.293974)
(3492.6974 -51.291677 -8.6900512)
(3469.5959 -45.610093 -5.5800709)
(3440.0646 -38.440639 -2.8942366)
(3410.707 -29.781694 -0.67858054)
(3380.0102 -19.872337 1.2500492)
(3347.4125 -9.2900259 2.7457281)
(3313.3456 1.0907387 4.5344679)
(3278.1045 11.063637 6.8320981)
(3242.2873 20.219245 10.051238)
(3206.2063 29.086625 13.997606)
(3167.7959 38.547647 18.686417)
(3132.6415 49.222468 23.620238)
(3093.529 61.049746 28.802717)
(3050.9915 75.908336 32.872246)
(3003.9121 93.40123 36.202023)
(2951.1363 113.35409 38.310763)
(2891.9309 135.37126 39.400452)
(2826.0012 158.71334 39.750776)
(2753.782 182.79694 39.675166)
(2675.7024 207.05775 39.666784)
(2592.4018 231.41758 39.853387)
(2504.4696 255.90988 40.432819)
(2411.3947 281.11366 41.017748)
(2313.3381 307.05083 41.446258)
(2209.052 334.24987 41.036365)
(2097.4621 362.65504 39.152034)
(1977.6126 391.66393 35.381389)
(1848.7708 420.50318 29.342789)
(1710.983 447.68189 21.089141)
(1564.715 471.69246 10.67317)
(1411.9468 490.85056 -1.4882456)
(1254.4443 503.92054 -14.294263)
(1097.6124 509.11098 -27.782433)
(939.01332 504.27922 -40.618788)
(785.96231 492.82772 -53.491042)
(641.49531 472.01228 -63.124961)
(508.28448 443.49771 -71.781478)
(387.68147 408.01358 -77.942499)
(281.40475 365.90153 -82.096993)
(192.38721 321.14352 -83.870013)
(120.13647 274.09184 -83.436516)
(61.946626 224.68143 -80.799988)
(23.219713 176.88863 -76.74733)
(-2.3235204 130.77877 -69.788834)
(-12.721909 90.644174 -61.323554)
(-11.303324 49.887422 -48.524775)
(10.056065 25.42641 -25.706157)
(0 0 0)
(0 0 0)
(0 0 0)
(0 0 0)
(0 0 0)
(0 0 0)
(0 0 0)
(0 0 0)
(0 0 0)
(0 0 0)
(0 0 0)
(0 0 0)
(0 0 0)
(0 0 0)
(3586.3936 -414.78584 -7.2233159)
(3583.9312 -409.40754 -7.6366989)
(3581.7764 -404.31548 -9.0547553)
(3580.5589 -400.27146 -10.407054)
(3580.6013 -397.79315 -11.779442)
(3582.0813 -397.08735 -12.41894)
(3583.9449 -397.81345 -12.289939)
(3566.5091 -77.721922 -17.827686)
(3562.9662 -77.20033 -17.864111)
(3560.648 -75.63769 -17.245276)
(3559.9405 -72.997718 -15.995564)
(3560.9993 -69.468534 -14.352761)
(3563.384 -65.659049 -13.424054)
(3565.797 -61.949231 -12.688858)
(-11.161801 28.964332 35.616631)
(-22.399385 49.764356 41.401609)
(-27.62756 76.634398 53.100911)
(-20.128432 103.86911 60.059222)
(-1.2614902 132.98211 65.35638)
(33.547896 164.45039 68.660705)
(82.749529 196.111 69.426581)
(148.7981 228.45462 68.818007)
(232.10043 259.148 65.216381)
(332.47772 288.54403 60.233554)
(449.64277 314.52644 52.938441)
(582.36308 336.82212 44.057046)
(729.43336 354.17295 33.838778)
(887.49403 366.29921 22.825236)
(1053.67 372.39112 11.822764)
(1224.264 372.60775 1.5008464)
(1395.3124 366.96614 -7.3656842)
(1562.8685 355.90679 -14.160718)
(1723.8295 340.37647 -18.560126)
(1875.6085 321.01206 -20.348516)
(2016.8248 298.76224 -19.822951)
(2147.0659 274.55202 -17.574544)
(2266.7931 249.0713 -14.305948)
(2377.074 223.08598 -10.890929)
(2479.0015 196.89236 -7.96611)
(2573.5738 171.23013 -5.969023)
(2661.3148 146.11567 -4.9714514)
(2742.0332 122.00104 -4.7755322)
(2815.2408 99.05797 -4.8604654)
(2880.4813 77.601706 -4.8171107)
(2937.1702 57.692758 -4.1972104)
(2985.4123 39.505734 -2.8791861)
(3025.9284 22.92627 -0.91972081)
(3060.0163 7.965336 1.1991356)
(3089.3429 -5.5977862 3.0193178)
(3115.8528 -18.075926 4.0132346)
(3141.0761 -29.408639 3.7992329)
(3166.0656 -40.086927 2.1933762)
(3191.5082 -49.863574 -0.51015373)
(3217.2138 -59.076338 -3.9828471)
(3243.0296 -67.631863 -7.4299873)
(3268.2123 -75.247071 -10.764751)
(3292.3511 -82.44182 -12.912946)
(3316.4157 -88.760838 -14.456425)
(3339.1977 -94.370573 -14.89044)
(3363.7593 -100.01635 -14.863339)
(3397.2277 -105.44653 -14.265028)
(-22.928206 21.40356 27.05077)
(-34.597389 34.214755 30.628692)
(-38.732362 57.070687 38.945984)
(-33.747272 74.063372 43.255391)
(-15.151905 95.063705 46.979489)
(16.171985 115.85748 48.467211)
(63.142587 137.34643 49.62749)
(127.24847 158.64052 47.956254)
(208.27986 179.16411 45.951728)
(307.50082 198.59391 41.800451)
(424.17576 215.50231 36.601393)
(557.64844 230.09484 30.117719)
(706.12074 240.86267 22.922255)
(867.16207 247.96543 15.294345)
(1037.3449 250.59163 7.7282295)
(1212.5855 249.08526 0.77286479)
(1388.6691 243.26274 -4.9668497)
(1561.5851 233.54431 -9.0592021)
(1727.6369 220.33296 -11.234691)
(1883.926 204.17849 -11.422405)
(2028.6347 185.69886 -9.9674819)
(2161.1815 165.49221 -7.3013841)
(2281.9173 144.16325 -4.1330443)
(2391.9176 122.22444 -1.0484785)
(2492.3878 100.19771 1.5199968)
(2584.5405 78.445835 3.0429522)
(2668.8578 57.64324 3.7920578)
(2745.3905 37.843014 3.8173327)
(2813.7409 19.514984 3.5337645)
(2873.5316 2.7186499 3.3616635)
(2924.4193 -12.518601 3.5507812)
(2966.7003 -26.271941 4.2091609)
(3001.3796 -38.708908 5.1809502)
(3029.7717 -50.070044 6.1326011)
(3053.9783 -60.677434 6.8013064)
(3075.6926 -70.540802 6.6244469)
(3096.6693 -79.861376 5.693249)
(3118.0893 -88.775172 3.7160516)
(3140.5046 -96.908872 1.0168031)
(3163.8214 -104.62502 -1.8919063)
(3187.7184 -111.5466 -5.0108539)
(3212.1728 -117.74882 -7.4549257)
(3236.1573 -123.32253 -9.5308421)
(3261.2119 -128.61917 -10.738722)
(3286.0608 -133.22953 -11.417751)
(3313.7267 -138.41553 -11.620551)
(3347.2183 -143.41709 -11.669484)
(-32.502822 13.846963 19.120403)
(-43.686491 23.255535 21.142072)
(-50.006813 35.639684 25.731365)
(-42.187053 47.442343 28.170011)
(-24.0349 58.950463 29.829995)
(10.176596 71.723494 30.98198)
(60.018139 82.551999 29.698397)
(126.48258 94.227145 28.846961)
(211.15889 104.32426 26.148853)
(313.41976 113.43725 22.769125)
(432.95187 120.9509 18.703064)
(568.37461 126.28183 14.052966)
(717.71812 129.30849 9.277972)
(878.01402 129.73518 4.7842599)
(1045.9689 127.40935 0.64671574)
(1217.4603 122.29496 -2.8615764)
(1388.3697 114.62966 -5.2118758)
(1554.8113 104.5885 -6.2659147)
(1713.4772 92.543782 -5.9137773)
(1861.8017 78.899186 -4.3568955)
(1998.5581 63.943226 -1.8831899)
(2123.3969 48.163636 1.1349364)
(2236.9068 31.903785 4.1768452)
(2340.3386 15.593804 6.963073)
(2435.1357 -0.64279818 8.9198306)
(2522.1324 -16.320869 10.204723)
(2602.2329 -31.303854 10.799723)
(2675.5391 -45.45618 10.821695)
(2742.1943 -58.402548 10.512659)
(2801.6556 -70.16865 10.26562)
(2853.7497 -80.780012 10.225678)
(2898.7943 -90.268751 10.456565)
(2937.4612 -98.924967 10.86126)
(2971.1826 -106.9839 11.289682)
(3001.5348 -114.58075 11.347437)
(3030.3272 -121.98347 10.90271)
(3059.0839 -129.26537 9.7173009)
(3088.8496 -136.33466 7.7210794)
(3120.094 -143.21108 5.3366822)
(3152.8376 -149.77042 2.3783418)
(3186.8159 -155.78246 -0.35937105)
(3221.0939 -161.35235 -3.1307822)
(3255.4417 -166.70439 -5.1223935)
(3290.1723 -171.58235 -6.9806947)
(3324.7383 -176.62689 -8.1799902)
(3361.1728 -181.75153 -9.2791719)
(3396.6995 -186.72545 -10.018022)
(-38.254987 5.3736658 8.5620027)
(-50.696525 6.533662 7.9614439)
(-55.347134 11.726257 10.313603)
(-47.593681 14.204023 11.291112)
(-24.479864 17.237679 11.665444)
(13.734425 20.545653 10.252232)
(68.91283 21.84643 9.8910311)
(141.87533 24.019587 7.531624)
(232.5714 24.160955 5.5932115)
(340.31294 24.174571 3.3139814)
(463.96826 22.402884 0.86231576)
(601.5051 19.66738 -1.3630361)
(749.93386 15.49385 -3.370404)
(906.38905 10.037214 -4.5288108)
(1067.0327 3.2762555 -5.1783658)
(1228.2543 -4.5971307 -4.7934136)
(1386.2308 -13.484739 -3.5662851)
(1538.0425 -23.179159 -1.4417247)
(1681.1652 -33.435117 1.4265269)
(1814.0708 -44.012393 4.6916313)
(1936.18 -54.821709 8.3274262)
(2047.772 -65.420271 11.743052)
(2149.9675 -75.736219 14.773387)
(2244.1003 -86.130856 17.282823)
(2331.4526 -96.128514 19.111355)
(2413.6553 -105.83015 20.141403)
(2491.3787 -114.92542 20.306321)
(2565.0448 -123.39774 19.977793)
(2634.4729 -131.17689 19.402118)
(2699.3679 -138.38023 18.794553)
(2759.504 -144.96174 18.24878)
(2814.8022 -151.03283 17.796716)
(2865.7014 -156.8681 17.463029)
(2913.0002 -162.42586 16.940939)
(2957.9701 -168.05309 16.178274)
(3001.9821 -173.69668 14.888366)
(3046.3224 -179.49015 13.090816)
(3091.9984 -185.35867 10.737962)
(3139.3977 -191.28189 8.017305)
(3188.3012 -197.19391 5.1295344)
(3237.6562 -203.08862 2.3843408)
(3287.2884 -208.83021 -0.13803379)
(3335.5316 -214.51627 -2.2775887)
(3383.0294 -220.19059 -4.1056526)
(3428.3401 -225.82421 -5.8565549)
(3473.5031 -231.87185 -7.2189936)
(3511.9598 -237.37233 -9.2634432)
(-41.598609 -3.7377156 -3.0600918)
(-51.819807 -8.124586 -5.0439084)
(-58.917302 -15.200006 -4.6785448)
(-47.19437 -21.587902 -6.2625786)
(-21.506054 -29.406587 -8.4233234)
(21.264906 -37.131017 -9.481254)
(82.102641 -45.887546 -11.781941)
(160.66883 -54.462105 -13.526148)
(256.4796 -63.77986 -14.663163)
(368.68803 -72.777691 -15.693074)
(494.83799 -82.035676 -16.051964)
(632.12226 -90.799828 -15.539129)
(777.87809 -99.922952 -14.070081)
(928.63165 -108.62335 -11.828399)
(1080.8207 -117.34525 -8.8324716)
(1231.0398 -125.69127 -5.1164773)
(1376.4002 -133.78501 -1.0600194)
(1514.5345 -141.45183 3.3736961)
(1643.9608 -148.77703 7.8806539)
(1763.7934 -155.70264 12.185433)
(1874.3513 -162.37369 16.313739)
(1980.1562 -168.81483 19.442348)
(2079.3475 -175.29115 22.341089)
(2167.7164 -180.84633 24.405957)
(2251.5463 -186.12356 25.548669)
(2332.0442 -190.9974 26.044702)
(2409.9053 -195.56453 26.056655)
(2485.6243 -199.8819 25.863607)
(2559.2198 -203.95 25.406222)
(2630.3654 -207.75597 24.886679)
(2698.6207 -211.3486 24.3037)
(2763.7354 -214.83698 23.722897)
(2825.6487 -218.36829 23.036223)
(2884.8081 -221.97582 22.121852)
(2941.9735 -225.89545 20.919633)
(2998.2061 -230.0653 19.289753)
(3054.5632 -234.6262 17.290606)
(3112.1001 -239.34621 14.81729)
(3178.0219 -244.93319 12.366451)
(3242.1463 -250.72273 9.6393803)
(3303.733 -256.05752 7.0027983)
(3364.3682 -261.52813 4.3547329)
(3422.8514 -267.07453 2.1778071)
(3478.5126 -272.59611 -0.2669599)
(3530.5899 -278.52361 -2.4652596)
(3580.4908 -284.79547 -5.0868251)
(3621.3772 -290.71425 -8.3960917)
(-36.713154 -12.874247 -15.501373)
(-45.51299 -28.550607 -18.270155)
(-52.714198 -44.576098 -22.383237)
(-40.736911 -61.051848 -26.436647)
(-14.484156 -79.567104 -28.821166)
(29.633401 -97.63864 -32.038762)
(91.57837 -117.42621 -34.052186)
(170.98175 -136.1302 -35.197698)
(267.16053 -155.18985 -35.574759)
(378.62157 -172.73301 -34.43199)
(502.94033 -189.57535 -32.34914)
(637.752 -204.71159 -28.762343)
(780.01152 -218.58808 -24.280649)
(926.20689 -230.45923 -18.592938)
(1073.1151 -240.76479 -12.212895)
(1217.717 -249.20363 -5.2925116)
(1357.4239 -256.18498 1.7405294)
(1490.2738 -261.55203 8.719306)
(1614.9887 -265.79974 15.225701)
(1731.0426 -268.8614 21.035596)
(1838.9534 -271.12102 26.060146)
(1941.1181 -273.68062 29.761685)
(2034.3158 -274.28076 32.932295)
(2123.9787 -275.19319 34.647808)
(2209.4103 -275.79513 35.651135)
(2292.1639 -276.36152 35.962578)
(2373.4832 -276.9166 35.732774)
(2453.7125 -277.51438 35.191818)
(2532.589 -278.15781 34.518833)
(2609.6995 -278.79358 33.782592)
(2684.5375 -279.4841 32.995973)
(2756.6285 -280.33194 32.077552)
(2825.7218 -281.43096 30.901465)
(2891.977 -282.87356 29.32888)
(2955.98 -284.82142 27.292789)
(3018.508 -287.18826 24.690799)
(3080.6749 -290.10981 21.676542)
(3143.3083 -293.45136 18.40953)
(3206.5579 -297.31772 15.13009)
(3280.2392 -302.29282 12.069779)
(3343.439 -307.03365 9.4070745)
(3405.1593 -311.74508 7.0924354)
(3463.7817 -316.618 4.894513)
(3518.5473 -321.83831 2.7640501)
(3569.082 -327.27533 0.097643237)
(3615.8925 -333.30763 -2.9380951)
(3657.0273 -339.26779 -7.1669627)
(-26.10371 -22.806276 -24.090394)
(-35.535077 -42.600662 -28.621573)
(-44.458626 -66.887264 -37.796135)
(-33.526306 -92.77809 -42.970178)
(-10.468079 -121.06012 -48.014841)
(30.960893 -151.25145 -51.627181)
(88.31 -181.93958 -53.978846)
(162.75539 -212.33532 -55.046108)
(253.61539 -241.75698 -54.485955)
(359.59693 -269.2106 -52.037781)
(479.53592 -294.43363 -48.096406)
(610.31052 -316.44543 -42.249664)
(750.0308 -335.59667 -34.701486)
(894.97598 -351.12449 -25.971349)
(1042.5943 -363.20895 -16.375604)
(1189.4344 -372.03934 -6.3577033)
(1332.9901 -377.93957 3.6097757)
(1470.7925 -381.35938 13.038798)
(1601.3211 -382.71621 21.540373)
(1723.8117 -382.61713 28.846776)
(1838.0112 -381.43169 34.660582)
(1944.8001 -379.50229 38.98612)
(2044.6039 -377.33598 41.959958)
(2139.6803 -374.54601 43.520173)
(2230.7494 -371.90881 44.361286)
(2319 -369.02669 44.309185)
(2405.3311 -365.90709 43.982144)
(2489.5695 -362.99555 43.488251)
(2571.7502 -359.8014 42.870745)
(2651.2679 -356.64836 42.108596)
(2727.4854 -353.64084 41.153555)
(2799.7635 -351.01622 39.893192)
(2867.8076 -348.93057 38.126777)
(2931.7792 -347.46279 35.740746)
(2992.3203 -346.77902 32.729532)
(3050.4216 -346.77115 29.174541)
(3107.3537 -347.33873 25.277443)
(3163.9414 -348.5595 21.487173)
(3220.9105 -350.17781 18.079686)
(3278.0295 -352.21523 15.024212)
(3334.4442 -354.5515 12.635498)
(3389.1058 -357.14432 10.485886)
(3440.689 -360.26359 8.5753588)
(3488.4384 -363.85834 6.2446215)
(3531.9934 -368.20279 3.403284)
(3572.0678 -373.14086 -0.28306806)
(3607.1825 -378.48826 -4.8555769)
(0 0 0)
(0 0 0)
(0 0 0)
(0 0 0)
(0 0 0)
(0 0 0)
(0 0 0)
(0 0 0)
(0 0 0)
(0 0 0)
(0 0 0)
(0 0 0)
(0 0 0)
(0 0 0)
(0 0 0)
(0 0 0)
(0 0 0)
(0 0 0)
(0 0 0)
(0 0 0)
(0 0 0)
(0 0 0)
(0 0 0)
(0 0 0)
(0 0 0)
(0 0 0)
(0 0 0)
(0 0 0)
(0 0 0)
(0 0 0)
(0 0 0)
(0 0 0)
(0 0 0)
(0 0 0)
(0 0 0)
(0 0 0)
(0 0 0)
(0 0 0)
(0 0 0)
(0 0 0)
(0 0 0)
(0 0 0)
(0 0 0)
(0 0 0)
(0 0 0)
(0 0 0)
(0 0 0)
(0 0 0)
(0 0 0)
(-5.4522596 -3.2311196 -16.12442)
(-3.0265832 -5.1852393 -10.662613)
(-0.057856365 -5.3380238 -4.1455608)
(0.61915194 -5.5350107 1.4646413)
(-0.31270111 -4.8008661 6.607942)
(-1.5964272 -4.9094825 11.81977)
(-4.7966357 -0.2150901 15.784118)
(-10.361909 -39.091965 -27.402705)
(-3.5350389 -42.815798 -14.370528)
(-0.66692029 -39.445822 -3.8201949)
(-0.34252409 -37.746453 5.6534548)
(-0.92949524 -39.537065 14.697101)
(-5.9521875 -38.040775 24.87159)
(-11.649948 -36.375007 36.504219)
(-16.285487 -59.921306 -36.466199)
(-5.8844622 -56.707989 -23.425381)
(-0.0067175032 -60.105065 -6.1965882)
(0.20672556 -59.340835 6.3357998)
(-1.772785 -56.579568 20.89712)
(-7.9157292 -55.832676 32.644904)
(-17.204155 -58.934367 50.967982)
(-3.3853466 -103.54945 -41.218734)
(6.1819376 -104.3087 -25.218778)
(11.745407 -102.69384 -7.1794375)
(12.931587 -101.50067 7.3420131)
(10.422025 -100.77995 23.817378)
(3.0136601 -101.92749 41.576546)
(-9.6558516 -98.906302 57.493349)
(18.359664 -142.37493 -47.757527)
(30.628672 -141.08139 -29.486387)
(38.297386 -141.4343 -9.8769283)
(39.110527 -140.36287 8.6854534)
(36.401803 -139.65539 27.01649)
(28.020064 -138.34339 44.786445)
(15.259799 -138.36819 65.817227)
(56.291757 -187.05208 -50.973716)
(67.81215 -186.50285 -31.778529)
(75.173114 -185.27454 -11.264269)
(76.729022 -185.29927 7.2480636)
(73.586414 -183.78726 27.503328)
(64.310331 -183.64113 47.664759)
(50.280728 -181.27276 66.603698)
(107.25287 -232.49262 -54.668711)
(120.15751 -232.25512 -34.547993)
(128.33447 -232.24934 -14.079128)
(129.89788 -231.77309 5.1984641)
(127.33836 -230.94401 26.094921)
(118.27122 -230.98028 45.539562)
(104.67516 -228.30991 68.020602)
(174.28204 -278.75218 -56.226838)
(187.20304 -279.47134 -36.755788)
(194.95259 -279.03512 -15.744704)
(197.47502 -278.36913 3.6391892)
(193.78565 -277.15346 23.522853)
(185.96875 -275.49357 43.557612)
(171.56704 -272.72278 63.263652)
(256.12917 -324.7962 -56.875618)
(268.47648 -325.44717 -37.625615)
(276.50183 -325.4661 -18.725784)
(278.67148 -325.18221 0.090873058)
(276.91483 -324.80052 19.556496)
(268.38639 -323.2339 38.29218)
(256.43252 -320.41122 59.192907)
(352.17978 -368.74713 -55.565036)
(364.32451 -369.95888 -38.237277)
(372.00129 -369.71965 -20.169566)
(374.6747 -370.01123 -2.781522)
(372.29633 -368.80126 15.078245)
(365.497 -366.94781 32.210723)
(353.81344 -363.61665 50.330081)
(462.3125 -409.49091 -52.433844)
(473.11783 -411.22795 -37.167138)
(480.4844 -411.8154 -21.175841)
(482.76974 -411.31706 -6.5180474)
(482.09599 -410.92309 9.4707192)
(475.76581 -409.07623 24.307152)
(466.01059 -406.15778 42.138222)
(584.51367 -446.34558 -47.795657)
(593.88118 -448.16916 -34.539207)
(600.17009 -448.65837 -22.262906)
(603.05265 -448.82569 -9.3282186)
(602.01073 -448.00412 3.7414686)
(597.47549 -446.31595 16.118166)
(590.05154 -443.35718 30.850259)
(716.62436 -477.57664 -40.765623)
(723.82079 -479.46224 -30.956817)
(729.55677 -480.5235 -21.696884)
(732.05089 -480.29151 -11.896262)
(731.84252 -480.29707 -1.9772034)
(728.67846 -478.77391 7.1760515)
(723.32369 -476.04267 17.985207)
(856.09575 -502.72321 -32.437759)
(861.42804 -504.72346 -25.96889)
(866.4996 -505.82917 -20.216887)
(868.32059 -505.80838 -13.625468)
(869.10161 -506.19129 -7.2597437)
(867.35927 -504.3435 -1.5593097)
(864.73951 -502.29366 5.749963)
(1000.5605 -521.33931 -22.61467)
(1004.0458 -523.21751 -19.778313)
(1007.4678 -524.31861 -17.598961)
(1009.3808 -524.61538 -14.340892)
(1010.3511 -524.94418 -11.853163)
(1010.5129 -523.44493 -9.2209278)
(1009.915 -522.03013 -6.1975629)
(1147.3147 -532.99708 -11.9014)
(1148.4595 -534.59053 -12.686913)
(1150.8876 -536.08907 -13.778879)
(1152.2002 -536.19389 -14.091063)
(1153.7514 -536.97253 -14.834122)
(1155.1869 -535.50277 -15.638777)
(1156.7137 -534.93824 -16.402785)
(1293.2606 -538.20961 -0.86192649)
(1292.6167 -539.71836 -4.8402412)
(1293.4534 -541.14335 -9.0278367)
(1294.4059 -541.35531 -12.326232)
(1296.0502 -542.18368 -16.358822)
(1298.7158 -540.98478 -19.998712)
(1301.8969 -541.14537 -24.460025)
(1436.247 -537.69239 10.058211)
(1433.6026 -538.7767 3.1712022)
(1433.2787 -540.39079 -3.4076066)
(1433.5721 -540.55682 -9.4641315)
(1435.3389 -541.50788 -16.057061)
(1438.7222 -540.47318 -22.136317)
(1443.1272 -541.30329 -29.694516)
(1573.9473 -532.4461 20.084215)
(1569.87 -533.28188 11.147181)
(1568.2021 -534.8231 2.6161577)
(1567.9574 -534.99561 -5.4563364)
(1569.5357 -535.86506 -14.082615)
(1573.2924 -535.11993 -21.965333)
(1578.4482 -536.41434 -31.908637)
(1705.1541 -523.76165 28.904558)
(1699.7832 -524.24616 18.494823)
(1697.1011 -525.79448 8.7293809)
(1696.2241 -525.90193 -0.77493358)
(1697.552 -526.71505 -10.66924)
(1701.2727 -526.19783 -19.735044)
(1706.6411 -527.65201 -31.193596)
(1828.9589 -512.97839 36.017596)
(1822.8639 -513.23483 24.882493)
(1819.2444 -514.64746 14.470081)
(1817.8648 -514.71113 4.2359256)
(1818.8031 -515.36231 -6.3282864)
(1822.144 -515.06364 -15.917742)
(1827.3235 -516.50654 -28.096975)
(1945.4879 -501.25945 41.217306)
(1938.9067 -501.32541 29.98098)
(1934.6756 -502.6201 19.512564)
(1932.8325 -502.67535 9.0720839)
(1933.3256 -503.14968 -1.5620724)
(1936.0809 -503.09743 -11.28236)
(1940.8309 -504.23747 -23.461372)
(2055.0681 -489.67389 44.452605)
(2048.3795 -489.71435 33.695739)
(2043.7918 -490.86915 23.460194)
(2041.6622 -490.73807 13.262746)
(2041.7751 -490.94142 2.839541)
(2043.9174 -491.10204 -6.5241577)
(2048.048 -491.90307 -18.245901)
(2158.7046 -478.98534 46.106938)
(2152.1105 -478.81572 36.048394)
(2147.5561 -479.64166 26.212326)
(2145.098 -479.42446 16.573113)
(2144.8212 -479.72939 6.6485867)
(2146.3916 -480.08268 -2.4497587)
(2149.9155 -480.47741 -13.473059)
(2257.1981 -469.01382 46.66519)
(2250.9433 -468.98041 37.03884)
(2246.4259 -469.66583 27.946858)
(2243.6808 -469.38906 18.693994)
(2243.7049 -469.32087 9.1235753)
(2244.6438 -469.70333 0.52805266)
(2248.0555 -469.53846 -9.6979288)
(2351.5802 -460.14985 46.19302)
(2345.642 -460.24542 37.126155)
(2341.2557 -460.30705 28.685491)
(2338.9794 -460.02382 19.048329)
(2338.7429 -459.91721 10.938455)
(2339.4356 -460.27879 2.0962394)
(2342.4963 -460.15962 -7.2311322)
(2442.2933 -451.93664 45.293073)
(2436.5987 -451.95715 36.955967)
(2432.5917 -451.40914 28.407581)
(2429.8252 -450.95786 19.667749)
(2430.0171 -450.57669 11.107281)
(2430.6529 -451.2031 1.955366)
(2434.352 -450.90916 -6.6519094)
(2529.1042 -443.88237 44.430214)
(2523.9412 -443.30675 36.174393)
(2519.687 -442.67746 27.67435)
(2517.9166 -441.86797 19.202235)
(2517.6347 -441.55232 10.365891)
(2518.9719 -441.73109 1.6785527)
(2522.7426 -441.60068 -7.446706)
(2612.3044 -435.5586 43.678323)
(2606.9883 -434.8769 35.193352)
(2603.4144 -433.60634 27.211629)
(2601.4639 -432.80983 18.314138)
(2601.7216 -431.92438 9.8658512)
(2603.2981 -432.17803 0.83893247)
(2607.259 -431.87242 -8.4003431)
(2691.0264 -427.11491 42.856933)
(2685.9495 -425.90312 34.568202)
(2682.3887 -424.38813 26.46081)
(2680.7891 -423.08122 17.673459)
(2681.1322 -422.08032 9.2983331)
(2682.9499 -421.86115 0.21103967)
(2687.2375 -421.82353 -9.1608875)
(2764.9469 -418.33899 42.044379)
(2759.9229 -416.74003 33.803538)
(2756.6113 -414.85 25.872373)
(2755.1409 -413.27312 17.298095)
(2755.5668 -411.93998 9.186313)
(2757.634 -411.39927 0.23675107)
(2761.9091 -411.40043 -9.0131809)
(2833.6066 -409.73639 40.822592)
(2828.8337 -407.75077 32.905789)
(2825.6277 -405.58286 25.382042)
(2824.2618 -403.66865 17.257248)
(2824.6972 -402.07751 9.5451057)
(2826.7561 -401.10318 1.1182086)
(2830.8434 -401.0766 -7.8043401)
(2897.02 -401.80933 38.922959)
(2892.5762 -399.4738 31.628163)
(2889.5544 -397.13636 24.737966)
(2888.2794 -394.95686 17.300593)
(2888.6331 -393.03004 10.297144)
(2890.5171 -391.6448 2.6729648)
(2894.1858 -391.36833 -5.5281403)
(2955.577 -395.11123 36.20805)
(2951.6292 -392.59068 29.770806)
(2948.8085 -390.11205 23.797428)
(2947.5754 -387.65325 17.273996)
(2947.7782 -385.44605 11.183675)
(2949.3233 -383.73192 4.609072)
(2952.4371 -382.97058 -2.5549726)
(3010.0723 -390.17344 32.645581)
(3006.6991 -387.5725 27.313298)
(3004.1367 -384.99239 22.374572)
(3002.9604 -382.34386 16.833202)
(3003.0357 -379.92433 11.786411)
(3004.2476 -377.79974 6.2268835)
(3006.6547 -376.53242 0.4765762)
(3061.563 -387.16631 28.452194)
(3058.7901 -384.6719 24.190653)
(3056.5057 -382.01343 20.277057)
(3055.4131 -379.29591 15.689161)
(3055.4207 -376.59565 11.580576)
(3055.7426 -374.30316 7.1528355)
(3057.8664 -372.54374 2.8322946)
(3111.2435 -386.28527 24.043824)
(3108.9035 -383.87818 21.006443)
(3106.7909 -381.19477 17.684113)
(3106.0265 -378.23037 14.100634)
(3105.6895 -375.5604 10.625517)
(3106.4282 -372.9211 7.3586163)
(3107.883 -370.37042 4.0905427)
(3159.4343 -386.90802 20.020286)
(3157.7977 -384.84264 17.838843)
(3156.212 -381.97388 15.133345)
(3155.1764 -379.01681 11.75324)
(3155.4328 -376.14948 8.9757813)
(3155.8642 -374.13614 5.5596413)
(3157.0297 -370.76235 2.7337147)
(3207.6273 -388.90914 16.490123)
(3205.7872 -386.64708 14.273427)
(3204.2279 -383.63744 11.602861)
(3203.6419 -380.76243 8.5006949)
(3203.6987 -377.85539 5.5907081)
(3204.4762 -375.34975 2.6561509)
(3206.0126 -371.87992 0.45399222)
(3254.9687 -390.92394 13.867585)
(3252.9462 -388.73533 11.599016)
(3251.625 -385.70244 8.9034071)
(3251.0237 -382.78104 5.3912976)
(3251.4507 -379.79439 2.5848833)
(3252.2752 -377.49516 -0.84567925)
(3253.9938 -374.32188 -3.2516804)
(3301.135 -393.05206 11.9331)
(3298.9391 -390.6141 9.5430726)
(3297.563 -387.42816 6.1767577)
(3297.1732 -384.46893 2.5264817)
(3297.6716 -381.55813 -0.94178658)
(3298.975 -379.31979 -4.6774213)
(3301.1545 -376.44942 -7.4018697)
(3345.3743 -394.59656 10.601927)
(3342.9604 -391.93548 7.8590696)
(3341.5687 -388.68079 3.9986573)
(3341.2162 -385.59325 -0.042933665)
(3341.874 -382.81511 -3.9198656)
(3343.5979 -380.52251 -7.9398414)
(3345.9714 -378.21907 -11.164994)
(3387.1511 -395.78803 9.3651754)
(3384.5711 -392.66217 6.3372908)
(3383.119 -389.17011 2.1350196)
(3382.7988 -386.10873 -1.9792137)
(3383.548 -383.38644 -6.2279553)
(3385.4792 -381.16266 -10.36916)
(3388.0129 -379.47691 -13.849401)
(3426.003 -396.89815 7.69927)
(3423.4261 -393.38636 4.5874536)
(3421.9029 -389.87444 0.54679269)
(3421.555 -386.6901 -3.554396)
(3422.2898 -383.97447 -7.8621571)
(3424.2906 -381.85394 -11.699314)
(3426.7485 -380.68074 -15.111046)
(3462.0531 -398.60853 5.2495701)
(3459.6139 -394.66941 2.5517103)
(3458.0737 -390.88347 -1.0509974)
(3457.6833 -387.51777 -4.8486952)
(3458.333 -384.88592 -8.7907249)
(3460.2082 -382.97362 -12.197261)
(3462.4321 -382.25543 -15.163147)
(3495.9999 -401.48948 1.8084658)
(3493.819 -397.09781 -0.17467488)
(3492.3181 -393.09128 -3.0134935)