/*--------------------------------*- C++ -*----------------------------------*\
  =========                 |
  \\      /  F ield         | OpenFOAM: The Open Source CFD Toolbox
   \\    /   O peration     | Website:  https://openfoam.org
    \\  /    A nd           | Version:  6
     \\/     M anipulation  |
\*---------------------------------------------------------------------------*/
FoamFile
{
    version     2.0;
    format      ascii;
    class       pointScalarField;
    location    "0.26";
    object      p;
}
// * * * * * * * * * * * * * * * * * * * * * * * * * * * * * * * * * * * * * //

dimensions      [1 -1 -2 0 0 0 0];

internalField   nonuniform List<scalar> 
3969
(
255871.69
-352772.8
6482.345
2191.3509
492841.27
-686928.67
2955.4851
1520.1138
208472.06
152191.92
77309.217
2614.2969
-59922.575
-140663.01
-158446.38
-14375.055
-5034.3059
-4501.0614
64.807668
4540.0749
8673.9274
8908.1912
78581.11
93058.394
92655.011
99434.075
100480.78
102503
104243.58
104851.88
106130.41
106623.21
107400.55
108085.16
107199.61
106825.29
105629.99
103318.42
101285.54
98149.415
94883.132
90946.702
87077.531
82937.218
78919.856
75484.975
71388.266
67933.979
64383.113
61435.245
58930.741
55901.023
53508.251
51160.964
48788.138
46718.077
44750.453
43169.613
40829.723
39723.305
36611.187
35726.107
31753.223
29441.715
26881.39
21810.988
20462.563
16263.411
11806.645
-80119.694
-76381.012
-89848.708
-85963.962
-94095.842
-92772.16
-95327.36
-95449.994
-96890.727
-97077.557
-97813.316
-98140.901
-97584.176
-97296.481
-95874.424
-93770.727
-91456.124
-88393.696
-85235.381
-81911.845
-77813.146
-74800.721
-70523.423
-67587.646
-64071.121
-60706.017
-57262.209
-54142.855
-51817.348
-48979.788
-47236.858
-44767.19
-42983.462
-40874.762
-39433.156
-37538.387
-36289.95
-34071.593
-33010.703
-30440.591
-28104.408
-25445.501
-22768.376
-18842.242
-15104.9
-12252.709
-7304.9161
378328.45
285156.73
132401.51
-199.69768
-111982.58
-251649.46
-210074.62
-93425.019
-113171.44
-73125.299
-108042.9
-94045.288
-101844.88
-99233.479
-103431.98
-100203.73
-104031.95
-106221.89
-103644.66
-106336.67
-104380.01
-104139.96
-102034.75
-100059.2
-97120.556
-93682.016
-89840.769
-86398.927
-82324.755
-78680.132
-74765.761
-71697.432
-68746.537
-65370.758
-61629.298
-58982.159
-56070.041
-53132.867
-50601.782
-48062.142
-45666.839
-43616.365
-42063.451
-38289.614
-37447.146
-35689.74
-33384.809
-30689.946
-28027.502
-24184.142
-20360.222
-16806.712
-12313.745
-8494.3121
13917.333
7644.207
4073.2266
3956.2862
-6110.7602
-5255.347
-14416.28
23246.69
18682.219
19757.773
24091.284
27728.368
30791.261
34239.116
36503.275
39288.207
40624.1
42040.578
46114.22
46503.998
48570.342
50728.965
53372.119
55536.656
58504.994
61127.737
64153.617
67580.095
70614.987
74095.387
77859.432
81721.563
85959.999
90026.29
94033.985
98106.657
101855.59
105230.32
107698.2
108097.85
111935.37
115863.31
112518.71
113268.47
112603.78
109840.65
111602.42
111484.5
106763.15
107919.74
104153.94
96476.744
99612.806
97761.442
201376.5
228721.66
241399.98
239024.81
234533.15
237736.16
192969.35
-272661.12
-345258.01
-394053.12
-421987.71
-395079.43
-392493.69
-301073.35
3838.071
4567.0359
4922.9497
5918.6222
5454.1258
4088.5734
4227.7566
-2100.1725
398.72644
-542.1773
-949.3401
-422.19196
3648.6157
-764.01932
71808.808
70937.348
73194.073
76926.941
78197.244
80864.694
81154.556
83123.542
83212.644
84729.764
84732.934
85082.983
85711.131
85880.961
84967.727
84160.222
82696.445
80562.701
77976.061
75144.099
72142.435
68786.519
65683.678
62632.232
59896.911
56648.498
53875.966
51541.095
48841.442
46520.053
44436.033
42212.536
40271.861
38389.175
36571.91
34645.817
32405.333
31109.958
28813.308
27397.277
24477.361
23285.435
19193.882
17009.886
14646.045
8507.2314
4120.3185
47948.563
44002.315
46259.303
49469.725
50848.517
53428.045
54607.851
55020.556
55932.011
56613.048
57213.265
57533.653
57053.774
56686.573
56313.2
55449.142
54411.622
52964.79
51325.059
49357.366
47054.795
44693.608
42305.697
40107.653
37715.308
36017.246
34370.904
31927.236
30837.564
29124.505
27833.237
26536.266
25277.565
24103.397
23001.798
21812.172
20920.085
20133.268
18147.851
17867.319
15643.557
14967.893
12273.568
12115.359
9075.2698
5423.4846
343.6085
21052.477
22673.142
22796.836
25089.642
24724.165
27903.662
27894.451
29194.511
29042.649
29786.771
29822.773
30138.946
29742.101
29284.871
28307.81
28270.93
27872.617
27365.572
26714.271
25920.153
25228.28
24349.81
23152.353
21972.529
20926.997
19678.701
18473.59
18050.649
17171.154
16422.315
15774.062
15012.17
14311.51
13557.228
12985.943
12005.432
11529.692
10498.41
10160.273
9731.0054
8416.9124
8873.8907
6764.0827
6906.0933
4717.529
2047.9004
1102.2113
1673.0186
-139.71841
-1167.3749
55.196194
-1415.0369
-866.05999
-1326.2549
-986.50643
-773.42728
-567.21359
-321.21294
-424.39546
-443.00042
38.830024
49.213562
563.91254
673.21725
979.81969
1117.6081
1109.8363
1110.766
788.67614
42.96749
164.87354
374.6923
274.56766
453.61819
379.25126
330.7466
492.59531
539.16345
570.91217
568.45785
523.42736
450.24668
608.16718
217.4676
348.96938
436.11245
99.351545
664.93712
851.53061
176.45434
1862.8973
1265.5936
2662.8995
3255.4829
-24273.273
-23264.126
-23713.439
-25328.727
-27305.177
-27371.585
-28300.816
-28837.832
-29208.147
-28892.784
-29078.901
-28903.187
-28522.858
-27818.633
-27125.537
-26043.444
-25263.094
-24091.78
-23081.661
-22062.245
-20230.635
-17757.798
-16824.986
-14783.026
-14618.688
-14457.098
-13320.61
-12392.87
-11688.329
-11008.122
-10271.619
-9909.659
-9173.4998
-9177.4951
-8383.3803
-8417.7608
-8243.0541
-7411.4142
-7975.4638
-7306.6519
-6766.4335
-6369.8896
-4915.9326
-3713.2948
-2734.5554
-626.56132
1720.3918
-47447.037
-46830.953
-48837.957
-52660.703
-54588.465
-55965.362
-56805.87
-57502.534
-58169.089
-58170.438
-58748.197
-57972.614
-58304.756
-57643.143
-56631.554
-55126.988
-53579.823
-51610.801
-49660.999
-47577.276
-44756.476
-42492.914
-38522.766
-35929.064
-33708.309
-31642.083
-30208.368
-28563.443
-27188.816
-25761.096
-24743.748
-23442.345
-22459.089
-21377.782
-20637.885
-19648.717
-18864.363
-18311.136
-17343.155
-16865.969
-15821.132
-14457.633
-12069.107
-10325.221
-7255.1351
-3289.5184
3441.0903
-79270.228
-61070.518
-72212.08
-75346.646
-78488.861
-80056.486
-81438.472
-82691.047
-83324.081
-83785.585
-84486.974
-84379.189
-83781.52
-82754.501
-81102.188
-78986.72
-76386.352
-73899.616
-70885.886
-67986.961
-65094.01
-62099.353
-59080.813
-56539.987
-53790.48
-51628.351
-49833.474
-47095.005
-44858.982
-42641.516
-40785.193
-38777.942
-36900.233
-35346.149
-33613.127
-32108.189
-31027.118
-29139.938
-28128.392
-25808.216
-23578.754
-21093.538
-18137.677
-15917.967
-12007.981
-8067.5387
-843.48741
170461.89
156561.22
162667.22
162541.78
163417.2
160951.39
150150.95
110505.18
125111.02
116459.11
120287.81
119997.75
117750.85
114757.64
56091.865
64843.9
56701.911
61628.364
59427.729
59687.433
63159.896
11304.417
5350.7862
3578.278
8059.3865
7617.0126
1100.6364
19389.799
-36546.173
-35324.209
-37894.271
-32852.093
-33813.677
-33443.093
-19207.487
-102404.3
-111016.72
-107549.97
-109881.48
-111965.23
-111224.5
-104769.07
-137506.3
-119213.85
-108982.49
-110787.69
-104171.33
-97075.589
-106855.01
-121867.63
-124679.31
-139670.61
-145567.71
-148038.49
-147226.45
-114436.66
-107291.85
-123728.72
-122994.95
-124664.13
-130893.59
-124548.76
-114605.71
-88693.755
-96236.775
-101047.85
-102146.07
-100881.46
-94690.082
-101475.98
-97045.832
-104925.71
-102477.12
-107882.89
-104413.43
-104493.24
-97239.699
-97817.994
-100897.2
-102529.12
-102955.07
-102929.18
-99284.467
-100549.72
-98557.799
-97193.176
-97799.717
-99432.525
-98949.336
-97175.97
-96557.194
-98379.442
-99670.632
-100302.58
-101505.59
-100582.13
-100593.26
-100522.49
-100379.41
-98862.916
-98610.791
-99690.735
-98668.411
-99776.008
-99102.926
-100611.77
-100607.92
-100839.47
-100543.87
-100723.46
-100505.33
-101479.73
-102327.77
-101027.32
-100421.55
-101823.66
-100745.86
-100834.83
-101367.51
-102953.74
-102445.64
-101444
-102440.72
-101419.91
-100501.97
-103428.8
-102731.81
-102718.24
-101828.52
-103132.54
-102387.86
-99845.87
-102561.02
-102415.01
-101518.91
-102769.72
-101981.5
-102987.05
-100189.48
-102669.05
-101455.61
-101199.04
-102259.72
-101214.77
-102409.95
-99413.83
-101693.21
-100328.99
-99524.32
-101279.4
-99862.734
-101297.42
-98390.48
-100625.9
-98100.486
-97280.92
-99160.179
-97732.81
-99546.688
-96715.799
-98665.238
-95136.284
-94760.631
-96717.304
-95211.439
-97212.581
-94444.83
-96092.599
-91809.345
-91585.537
-93795.753
-92158.104
-94230.455
-91603.127
-93313.639
-88193.548
-88053.018
-90304.175
-88514.19
-90719.753
-88467.39
-90084.891
-84208.689
-84173.702
-86365.738
-84646.924
-86971.462
-84953.129
-86497.367
-80463.756
-80076.58
-82384.307
-80665.311
-83036.121
-81324.993
-82798.982
-76464.897
-76106.265
-78276.339
-76747.224
-79054.99
-77450.676
-79163.254
-72911.805
-72102.905
-74580.507
-72896.356
-74909.407
-73903.186
-75417.2
-68968.831
-68726.576
-70633.059
-68867.687
-71445.768
-70308.294
-72160.831
-65570.076
-65628.914
-66378.181
-65931.436
-67612.604
-67032.898
-68744.758
-61919.13
-62472.741
-62360.196
-63279.917
-64292.882
-64372.536
-65838.503
-60014.456
-59210.364
-59858.111
-59926.341
-60552.746
-60896.995
-62072.629
-57388.459
-56409.897
-56825.214
-57119.373
-57743.326
-58011.854
-58507.273
-54522.908
-53589.17
-54224.052
-54054.825
-54299.2
-55264.1
-55209.43
-51969.766
-51062.624
-51777.598
-51343.411
-51973.708
-52609.018
-52438.071
-49401.005
-48805.528
-49113.216
-48891.672
-49172.287
-49824.255
-49577.477
-47122.354
-46338.317
-46828.819
-46494.656
-46813.626
-47416.83
-47188.76
-44797.813
-44398.576
-44658.044
-44366.464
-44603.366
-45220.032
-44947.339
-42903.796
-42471.556
-42767.959
-42528.386
-42714.427
-43212.058
-42811.018
-40925.819
-40741.828
-40927.385
-40650.681
-40771.423
-41390.649
-41015.605
-39343.018
-39447.521
-39484.399
-39496.087
-39533.843
-39668.386
-39317.908
-37909.03
-37485.023
-37994.714
-37426.315
-37777.546
-38208.062
-37788.334
-36453.968
-36769.269
-36513.885
-36722.502
-36477.683
-36633.957
-36409.009
-34515.488
-34750
-34569.692
-34787.511
-34534.116
-34692.2
-34310.484
-32843.804
-32759.055
-33267.38
-32909.393
-32933.257
-32799.025
-32583.983
-30242.811
-30702.812
-30675.219
-30552.061
-30477.103
-30200.259
-29845.32
-27614.838
-28091.098
-28039.734
-28162.677
-27896.68
-27514.402
-27144.527
-24228.522
-25215.297
-25067.068
-25424.77
-24726.265
-24313.647
-23788.959
-20699.266
-21184.167
-21377.934
-21317.95
-20836.714
-20512.206
-19728.277
-17721.088
-19213.864
-19058.218
-19377.403
-18791.708
-17812.326
-16727.859
-15307.473
-15684.262
-16052.251
-16002.838
-15289.536
-15069.153
-13841.102
-11965.832
-12910.916
-13089.23
-12339.192
-13365.908
-12328.115
-10592.113
-21723.673
-24561.354
-27425.464
-27518.857
-26365.968
-25020.281
-22219.487
-10731.301
-11643.561
-12372.603
-12901.54
-12276.388
-10614.021
-8822.375
-8415.9311
-9768.7627
-10859.339
-10666.804
-10246.552
-8230.3894
-7256.2061
1176.0438
1796.8547
1679.8571
1656.1728
2370.8244
1740.4689
2773.8666
6739.8601
7051.1639
6622.9288
7827.186
6652.3177
6565.8248
6131.1375
11855.28
14901.588
15639.617
15848.162
16980.985
14032.819
13229.367
16268.888
16774.229
18563.231
18442.866
17623.868
16591.994
14494.528
99589.496
100168.96
111636.19
110119.84
113275.73
108990.52
103174.91
104598.97
107123.54
112897.52
112230.74
114702.93
107496.44
107222.21
104792.63
106643.99
109603.42
110328.25
111063.58
104538.11
105986.93
103323.56
105998.05
109206.16
110044.11
109160.59
107161.75
107805.4
104026.84
105068.27
106242.45
106886.67
107569.15
104887.99
105486.8
104454.67
104681.77
107340.98
106524.85
107449.53
105660.14
107203.17
105407.81
105595.73
106611.35
105783.48
108475.22
106719.64
108506.52
106098.5
105806.33
107793.24
106108.07
108001.72
106706.62
108959.63
107213.93
106948.83
108148.15
107740.79
109657.53
107105.85
111028.27
108576.06
107715.53
109761.99
107783.93
110418.92
108254.59
111829.79
109349.46
108298.65
110568.03
108520.64
111564.64
108947.25
112117.67
108869.9
109004.82
110736.35
109341.05
111215.55
109525.81
112453.79
109871.19
108692.44
110398.25
108940.69
111474.74
108738.62
109952.1
108973.93
108256.43
109758.91
108510.23
110254.35
108516.35
110720.19
107511.42
106967.12
107369.84
107766.17
108612.58
106968.8
109212.61
106716.63
105037.08
106056.54
104899.64
107062.62
104426.25
106362.42
103995.36
102480.26
103068.58
102787.82
103573.71
101684.24
103309.3
101118.88
98961.954
100346.95
99126.447
100257.92
98552.729
99898.556
97340.085
95552.794
96479.867
95403.11
96334.305
94811.757
95876.826
93764.951
91386.24
92504.867
91326.499
92155.341
90826.988
91745.173
89752.232
87084.762
88417.176
87133.185
87834.734
86769.24
87403.698
85664.557
82934.157
84362.381
82926.389
83559.997
82570.246
83242.567
81826.645
78890.396
80385.701
78878.358
79386.468
78636.151
79231.507
77945.404
75017.982
76529.661
74885.433
75318.787
74714.711
75373.415
74492.296
70933.053
73052.978
70945.322
71610.539
71025.405
71819.129
71114.844
67411.722
69772.638
67361.029
68188.111
67769.596
68232.98
67753.111
64396.622
66199.524
64433.977
64739.513
64536.113
65189.569
65006.587
61461.347
62979.058
61454.195
61693.48
61559.107
62256.897
61606.347
58139.391
60463.314
58344.385
58627.775
58563.161
59177.835
58829.486
56002.538
57296.552
55618.118
55947.957
55933.333
56482.738
56252.368
53085.787
54732.815
53118.565
53244.724
53192.871
53751.883
53425.147
50834.046
52085.063
50625.392
50562.431
50775.605
51175.585
51125.313
48590.913
49788.548
48352.454
48311.977
48549.413
49020.083
48843.078
46630.555
47511.094
46459.959
46200.787
46620.169
46700.672
46713.462
44624.819
45655.064
44525.42
44235.769
44653.048
44656.85
44552.939
43305.651
43788.271
42869.559
42524.849
42978.127
43028.909
42367.504
41611.87
41453.908
41517.356
40561.09
41257.911
41316.276
40823.99
40622.124
40194.058
40036.213
39486.569
39201.527
39913.974
38402.721
37807.093
38010.821
37678.183
37591.236
37208.852
37745.548
36773.472
36802.927
36667.078
36426.749
35817.426
35012.146
35824.196
33284.672
33027.439
33069.92
33021.537
32582.72
32626.481
32884.08
31209.954
31343.295
31415.616
31165.964
30838.269
29785.493
30159.165
27808.455
28219.447
28045.618
28262.689
27242.425
26483.326
26229.661
23240.484
23727.3
23830.202
23859.183
23318.472
22343.901
22965.049
21876.721
24116.931
24558.326
24919.833
23903.409
22260.842
20683.091
18790.879
19589.061
19470.91
19360.265
19354.837
19190.713
17133.353
22945.066
26009.165
27336.525
28021.986
27953.381
27710.346
25457.93
105665.33
81909.293
79408.902
80620.353
85517.937
88241.91
88346.844
89717.341
91160.729
91740.758
91751.241
92270.024
91179.433
90588.375
89823.728
88640.926
85917.731
83460.575
80801.284
77714.537
74519.612
71135.882
67922.118
64759.543
61632.864
58694.61
55578.48
53092.597
50571.418
48137.195
45894.097
43776.06
41716.634
39959.142
38384.054
36165.787
34330.295
32966.353
30681.898
28659.343
26565.581
23871.628
21612.106
18167.634
14875.337
10016.907
2550.1543
64334.943
65163.523
44549.388
57169.103
62817.176
61313.361
64992.36
64631.285
65229.406
66260.723
66350.326
66253.37
65108.017
64752.678
63820.716
63426.959
61466.007
59690.087
57990.508
55543.732
53200.622
50843.316
48449.031
45902.839
43659.186
41023.904
39723.653
37423.534
35767.643
34220.804
32620.647
31263.748
29821.845
28821.055
27210.078
26589.233
25111.874
24102.405
23042.957
21849.407
20407.142
18656.799
16799.105
14240.933
11771.649
8185.1671
2315.4094
33704.638
38456.104
19500.257
35205.459
29607.785
29697.583
30718.115
31121.097
31047.483
31727.497
31890.558
32496.69
33059.178
32350.188
32583.32
32359.742
31591.487
30864.918
30149.197
28823.888
27875.46
26791.719
25643.205
24642.7
23626.923
22658.357
21841.739
20474.081
19646.168
18637.314
17742.83
16964.63
16227.069
15581.686
14792.001
14470.908
13582.982
13084.768
12147.499
11496.948
10561.521
9388.0252
8252.7519
6843.6496
5447.6156
3946.895
-1400.0848
1688.0967
10420.897
-322.62214
8811.0385
2878.1161
7032.197
4219.6772
2707.4433
3994.0082
3466.7356
3511.0195
4213.362
3352.9389
5744.0413
5917.4743
6407.2721
6138.2605
6105.2971
5982.2424
5828.3802
5725.1346
5657.0233
5558.9744
5473.4175
5225.4078
5094.7681
4792.7805
4726.7049
4427.8462
4355.8341
4155.1785
4281.6913
4106.2472
4202.6434
4039.2746
4285.1669
3942.5108
4046.5137
3792.0874
3858.2178
3592.3646
3525.6754
3340.7713
2935.7257
3242.2014
2025.3159
207.73164
-36362.992
-17505.191
-23458.619
-13802.233
-22305.045
-16187.155
-21288.196
-19646.526
-19984.132
-20091.562
-19440.542
-20436.578
-20433.508
-21249.035
-20877.232
-20773.495
-20671.449
-20320.193
-19656.782
-19104.255
-18434.764
-17547.332
-16696.37
-15906.434
-14692.118
-14093.483
-13035.474
-12220.138
-11745.501
-11242.506
-10771
-10278.953
-9846.4565
-9249.4568
-8879.8862
-8243.6152
-8041.8852
-7217.7913
-7159.3244
-6406.3377
-6194.4327
-5215.4564
-4870.3346
-3687.5501
-2532.6596
-975.18718
908.65064
-58658.374
-47827.22
-40693.985
-42785.586
-46494.949
-45904.723
-49204.132
-47033.069
-50905.909
-52068.623
-54811.948
-54343.535
-55276.785
-54635.51
-54020.065
-52935.924
-51608.543
-49675.087
-47749.87
-45849.423
-43848.051
-41500.607
-39467.593
-36687.282
-34082.324
-31602.259
-30251.123
-28619.749
-27250.983
-25803.998
-24698.812
-23386.838
-22259.725
-21109.991
-19952.732
-19045.725
-17746.082
-16862.8
-15804.782
-14548.316
-13522.643
-11833.717
-10442.656
-8228.0211
-6040.4109
-2190.7222
1170.4004
-78904.3
-64292.182
-67834.797
-66356.109
-75886.704
-74113.814
-77709.641
-77886.888
-80444.21
-80718.489
-81947.908
-83904.61
-83500.532
-83685.966
-82819.605
-81993.892
-80473.959
-78656.674
-76625.45
-73835.027
-70904.143
-67821.388
-64548.709
-61145.373
-58239.605
-53373.09
-51303.28
-48943.953
-46830.664
-44876.568
-42994.331
-40912.485
-39247.054
-37356.381
-35396.483
-33800.69
-32199.991
-30030.739
-28574.432
-26468.485
-24859.777
-22193.186
-20250.397
-17000.114
-12913.985
-9267.0405
-3415.1109
122896.06
131460.44
130031.81
133600.24
134579.1
127847.5
118859.29
86486.92
101726.72
100529.76
104020.79
101875.07
96388.639
90986.705
86045.5
92890.861
97972.931
98835.931
96002.022
96837.839
92280.454
82406.526
85404.153
86970.304
89184.871
86964.219
88193.44
81062.441
82654.972
86148.013
89067.721
88631.716
89056.58
87527.429
83666.121
83350.068
87291.181
85496.54
88760.053
86230.831
87404.611
85981.943
84072.693
86520.629
86058.941
87453.055
86301.865
86760.861
85559.871
85031.492
88306.267
85897.687
89444.623
87612.27
87613.695
87517.734
86249.97
88451.7
86728.709
89225.617
86569.324
89309.426
88037.168
86804.015
89568.118
87202.576
90349.98
87898.771
89787.44
88063.915
87762.091
89973.992
87964.262
90814.109
88344.884
89935.231
89223.494
89056.81
90272.981
89217.708
90386.521
89487.225
89489.102
88809.683
88709.787
90500.793
88964.589
90896.784
89062.126
89693.135
90119.155
88656.053
89419.532
88715.303
90709.367
88323.991
89164.605
88672.878
88353.425
88757.575
89070.482
88588.672
87624.422
88185.687
87101.436
86296.707
87638.272
87000.077
88095.362
85661.131
86323.146
85255.574
84449.783
85508.044
84958.205
85903.572
83686.265
84629.598
83798.521
82000.56
83515.03
82670.081
83259.382
81147.081
81988.46
80512.246
79389.209
80809.379
79581.448
80346.77
78378.707
78865.693
77641.263
76304.204
77723.018
76486.098
77172.36
75150.044
75703.254
74437.617
72673.222
74852.514
73090.671
73736.802
71856.725
72288
71052.367
69321.202
71680.106
69522.624
70181.674
68439.615
68840.683
67758.604
65777.767
68537.803
65917.043
66694.833
65119.021
65613.2
64298.445
62229.836
65169.836
62381.243
63340.828
61996.399
62209.885
61092.396
58410.104
62610.952
59189.756
60451.604
58943.446
59603.23
58041.932
56008.017
59664.394
56329.616
57080.932
56659.558
56033.853
55412.757
53519.86
56556.377
53426.702
54428.434
53888.448
53389.211
52681.242
50422.087
53091.596
51836.873
51431.774
51152.704
50960.69
49724.153
47915
52010.936
48141.886
49161.686
48928.847
48558.486
47469.228
46102.221
48524.793
46374.027
47046.876
46555.565
46232.985
44992.273
43627.321
46555.075
44047.828
44638.629
44309.525
43997.613
42883.061
41780.192
44233.437
42206.009
42685.047
42389.712
42176.494
40924.599
39962.842
42158.339
40337.613
40654.09
40652.278
40280.965
38974.622
38190.082
40158.847
38584.724
38932.383
38810.355
38345.751
37121.24
36518.284
38053.525
37122.697
37163.364
37254.192
36919.582
35816.039
34983.09
36582.288
35610.357
35530.995
35847.357
35408.423
33814.533
34089.158
34123.693
34113.552
33701.38
34291.776
33687.772
32935.781
32075.262
32549.744
32813.614
32259.601
32417.164
32031.901
31127.149
30439.366
30513.107
30644.414
30656.57
30602.234
30709.065
29364.7
28100.099
28838.565
28916.033
28992.676
28671.389
28706.596
27620.711
26688.253
26375.01
27130.614
26419.591
26596.916
26542.595
25408.55
23934.103
24643.159
25163.842
24917.036
25107.219
24450.086
23411.64
21234.595
20644.165
21574.901
21008.258
21030.216
21121.594
20600.391
19061.076
19248.899
20677.626
19837.674
20536.601
20067.621
18679.818
14783.44
14820.846
15306.549
15028.763
15182.446
15192.936
14469.298
9682.545
9347.5588
10954.119
9688.7369
10499.242
10327.922
9008.9504
3570.4984
1399.2832
1478.9747
1412.0369
1900.9377
1072.2766
3338.4037
79622.668
82650.904
90585.7
89038.009
93216.826
86023.436
85858.941
62748.159
79979.348
80906.257
84239.748
84110.051
78122.831
73634.009
62676.917
58140.009
64461.475
62491.131
65976.704
59027.416
63438.268
54871.831
58196.247
61915.343
61567.675
62802.614
61693.434
54094.215
57938.884
58758.45
61749.719
60230.951
63239.443
58097.314
60309.157
57127.247
57114.735
58561.816
58081.593
57583.552
59279.351
58703.914
57805.861
57813.583
61131.046
58761.33
61160.001
60328.604
59509.437
58065.915
58155.277
59745.935
58503.817
59803.511
59250.378
60840.2
59059.853
58244.79
61018.089
58739.422
60269.84
60536.355
60705.524
59167.549
58827.642
60972.236
58777.904
61031.472
60501.958
61338.746
59779.968
59236.739
61222.101
59308.087
60852.602
60720.464
61407.285
60129.085
59080.557
61896.187
59092.39
61657.67
60647.551
62530.111
60304.639
59217.315
61725.794
58769.015
61606.623
59733.096
61464.834
59778.281
59618.892
61543.96
58880.987
60895.736
59773.644
60276.915
59192.691
59654.899
60013.885
57839.658
60107.487
58826.24
59099.813
58704.514
58677.081
59033.221
57384.426
59028.585
57871.924
57802.421
57536.376
57513.594
57857.745
55824.458
57295.248
56727.628
56509.121
56142.88
56220.397
56121.279
54442.342
55665.592
55023.996
54181.163
54670.094
54208.611
54286.995
52578.002
53657.741
53020.063
52320.197
52715.882
52228.311
52295.376
50662.512
51470.352
50881.341
50211.35
50982.653
49955.382
50055.114
48464.943
49104.464
48727.598
47962.517
49127.038
47681.852
47679.1
46354.625
46854.406
46530.681
45652.004
47234.377
45108.281
45397.502
44307.364
44645.032
44094.596
43518.712
45177.115
42917.443
43356.631
42404.503
42404.001
41893.763
41665.663
43221.169
40803.847
41258.872
40339.895
40228.539
39836.949
39580.809
41235.386
38914.364
38621.911
38870.661
37994.848
37487.954
37984.88
38466.026
36793.754
37043.586
36718.882
36215.433
35699.27
35975.835
37763.78
35318.715
35071.073
35018.219
34587.995
33889.494
34620.386
35574.435
33123.433
33908.866
33367.922
33113.423
32164.161
32917.137
34129.507
31783.383
32134.58
31933.625
31287.023
30713.609
31350.798
32482.589
30346.962
30869
30503.553
29960.225
29390.515
29994.409
30982.619
29088.458
29377.015
29237.788
28580.034
28240.93
28543.765
29567.314
27818.449
28086.648
27910.573
27392.226
26743.505
27157.51
28095.307
26562.159
26779.947
26866.633
26005.2
25745.96
26162.178
26640.291
25615.401
25774.415
25530.438
25152.964
24681.232
25152.528
25325.877
24527.134
24325.87
24682.171
23920.954
23658.673
23567.24
23751.563
23451.612
23503.823
23360.305
23142.881
22313.788
23104.681
22344.419
22851.087
22322.922
22636.848
21907.541
21751.955
21741.46
21325.009
21052.744
21420.931
21251.22
21103.187
20823.582
20669.876
19978.614
20672.297
20419.023
20387.409
19883.188
19622.366
19145.082
18824.644
18743.882
19117.715
18897.964
18949.203
18518.478
17841.013
16814.844
17813.503
17409.448
17645.92
17196.462
16792.466
16354.591
15580.29
15513.169
15936.586
15708.553
15482.897
15259.538
14434.899
13580.408
14473.921
14236.287
14201.984
14162.851
13620.504
12688.509
9675.4688
10684.454
10504.692
10630.717
10281.446
9872.8548
8744.8826
6541.1584
7146.4196
6411.3694
6593.9284
6655.7661
6625.2669
5424.4909
1458.231
-748.72596
-1849.5627
-1559.6838
-1331.1992
-1114.3788
-92.705104
48375.066
48061.192
47629.334
50687.975
50018.03
47342.576
45205.849
34454.555
50563.12
47442.098
51456.007
46876.082
46219.385
41131.487
34655.182
31073.323
33382.908
34861.942
32922.27
31197.7
32613.235
26814.649
33287.939
35731.871
38454.399
35080.227
37220.724
29187.319
30802.02
30763.163
31717.769
30701.472
31657.543
28417.833
31525.899
28796.884
32106.029
30234.943
32064.647
30972.028
32344.868
31170.033
28706.338
32452.77
29339.83
30926.073
31972.096
30278.567
31466.414
29215.625
33987.207
28675.494
32251.157
31007.605
30766.494
32211.314
30078.073
33780.758
28968.476
31409.755
31153.124
31079.495
32208.222
29968.425
34489.314
28881.244
31943.054
31587.631
31356.477
32213.062
30283.788
34532.261
29058.794
32021.696
31283.669
31359.405
32341.152
29865.613
34636.844
28490.304
31951.351
31131.04
31535.782
31841.526
29402.629
34979.56
29036.054
31881.041
31435.432
30690.425
31816.828
29661.702
34171.379
29198.995
31755.711
31248.46
29654.885
32320.677
30713.965
32935.413
29037.496
31148.534
30845.407
29472.913
31317.1
29874.556
32274.71
28737.812
30524.418
30210.411
28702.244
30659.33
29230.338
31674.092
28188.176
30060.425
29280.267
28031.865
29600.977
28560.543
30871.064
27369.213
29323.885
28425.181
27393.369
28320.579
27700.619
30127.724
26567.568
28502.579
27433.663
26338.936
27235.99
26840.294
29170.224
25600.957
27545.255
26226.721
25474.933
26078.449
25755.731
28122.484
24702.673
26423.195
25175.011
24599.648
24718.959
24574.55
26837.502
23708.796
25381.45
24140.727
23433.763
23560.179
23560.74
25628.272
22842.644
24464.065
22713.911
22560.274
22463.645
22408.233
24241.301
21973.406
23048.629
21406.35
21799.453
21152.035
21484.19
22984.921
21041.748
21868.052
20488.567
20911.479
20116.026
20469.652
21360.103
20388.041
20717.521
19373.581
20179.739
19069.561
19928.697
20737.398
19460.142
20321.189
18183.539
19742.277
17799.16
18762.388
20248.37
18448.104
19146.627
17620.017
18597.596
17241.166
17875.059
18916.148
17645.587
18271.207
16756.269
17853.331
16411.384
17300.412
18107.725
17144.964
17447.424
16067.883
17092.945
15614.331
16578.084
17165.252
16329.694
16629.491
15276.104
16471.901
14887.174
15926.29
16400.683
15653.346
15861.873
14664.945
15657.263
13960.34
15385.106
15492.205
15011.997
15138.726
13965.346
14912.167
13605.793
14729.051
14845.381
14470.351
14483.93
13433.513
14545.738
12940.411
14279.074
14083.192
13867.136
13781.082
13003.674
13669.212
12476.183
13616.694
13402.466
13256.28
13330.238
12434.104
13326.568
11985.452
13460.219
12790.076
12986.331
12641.018
12202.762
12458.955
11926.735
12548.335
12194.051
12015.385
12302.275
11479.373
12225.72
11299.318
12215.918
11495.957
11716.928
11195.528
11212.196
11133.421
10865.35
11312.353
11431.427
10712.516
11439.941
10543.847
10854.471
10153.925
10630.532
9256.6951
9813.9501
9295.9776
9380.779
9301.5314
9552.7162
9731.3498
10069.229
9682.8542
9967.1534
9484.2016
9210.3722
8848.684
9021.5948
7175.8173
7677.5556
7123.0353
7358.9546
6984.8705
7963.9253
7457.7773
7236.5293
7600.8545
7490.2586
7456.5356
7132.9626
7086.7912
5455.2714
3941.6956
4380.4841
3452.9396
4058.3343
3478.1887
4397.4251
3875.2025
2850.553
2486.2476
2199.5093
2798.5253
2380.1871
4048.5478
1088.2555
-2281.1693
-2024.0222
-2514.1982
-2462.8944
-2726.7259
-1027.1957
3710.3957
2276.3034
4410.6755
4132.2279
5107.0004
3307.54
7784.797
1138.7859
4854.7163
4422.3645
6401.0778
5686.7057
5553.0733
5140.7152
5182.7036
-1624.9817
409.78417
-1316.4024
725.41811
-520.57755
4817.7085
377.01849
629.38874
5009.6029
3311.4574
4176.4566
5675.1699
1733.5067
3058.7944
3272.7189
3093.0506
-512.40162
3464.3696
-1621.2172
5531.9544
1985.467
670.82113
608.72508
1788.6699
2500.8663
2543.3552
2356.8383
1918.7046
2596.1375
3931.7612
2430.8082
3835.9845
1456.9743
5004.735
1957.0842
1147.6064
1539.4239
1469.3119
1723.3262
2293.122
3283.7784
1264.1183
1405.6032
2787.7567
1014.6746
3316.7788
2181.1142
2642.4515
1337.5405
1494.6652
1932.9736
818.43751
2304.4103
1702.1723
3057.4865
1032.0376
993.34387
1446.7406
348.25039
1604.7724
1451.9434
2618.3835
974.57667
1206.2705
1149.9019
857.59797
1683.3907
1989.9819
2879.4687
1500.8559
405.06573
950.24693
381.19801
1568.3214
946.3378
2931.0156
1520.6927
496.92637
3131.396
1205.6067
391.84693
2206.8856
1349.0042
2175.0127
2386.9004
-50.212087
1273.2084
475.82784
1715.2978
1528.4477
1950.9793
2173.2551
514.45162
2018.7787
98.370794
1766.8312
1459.2045
2475.1806
2100.6512
1125.5324
2382.5138
143.29545
1898.2797
1687.2919
2603.9484
2550.0174
1588.0089
2593.8019
296.85007
2099.8036
1536.1474
3158.7317
2883.7443
1941.8546
2800.8243
487.00705
2118.0038
1536.4799
3458.8365
3146.7821
2162.6558
2993.5184
647.79712
2381.4829
1446.8114
3841.5749
3377.7419
2435.946
3165.5569
1027.3491
2379.5006
1503.4741
4226.3342
3865.6345
2578.2462
3452.6992
1012.0156
2568.8263
1510.1466
4407.0953
3920.949
2897.1502
3117.2777
1265.0436
2659.851
1552.5772
4765.9239
3947.145
3084.1269
3197.2689
1741.2539
2876.8548
1612.8094
4703.072
3922.1128
3427.5136
3037.3609
2242.5656
2751.5177
1527.2554
4838.2351
4590.9272
3346.2811
3246.1543
2530.7694
2538.7932
1712.203
5220.0726
3943.9662
3562.0667
2965.4442
2569.9007
2561.0506
1550.1414
5037.1958
3867.8067
3525.2701
2816.6417
2575.6295
2444.1646
1573.4367
5205.3734
3748.6292
3559.6699
3039.3302
2745.4979
2455.8354
1692.9473
4965.1303
3755.411
3657.6039
2788.7369
2651.6448
2397.21
1634.9366
4821.0888
3644.6779
3453.7653
2758.0637
2800.8873
2329.7688
1552.3104
4661.8488
3486.432
3519.044
2799.2616
2632.6843
2347.2936
1488.5286
4361.8775
3476.2049
3458.1595
2627.9223