/*--------------------------------*- C++ -*----------------------------------*\
  =========                 |
  \\      /  F ield         | OpenFOAM: The Open Source CFD Toolbox
   \\    /   O peration     | Website:  https://openfoam.org
    \\  /    A nd           | Version:  6
     \\/     M anipulation  |
\*---------------------------------------------------------------------------*/
FoamFile
{
    version     2.0;
    format      ascii;
    class       pointVectorField;
    location    "1.94";
    object      lm;
}
// * * * * * * * * * * * * * * * * * * * * * * * * * * * * * * * * * * * * * //

dimensions      [1 -2 -1 0 0 0 0];

internalField   nonuniform List<vector> 
625
(
(-3.6361799e-15 2.112754e-16 -3.2990721e-16)
(2.8178306e-17 1.9013092e-16 6.1994168e-17)
(7652.2792 537.92161 636.82142)
(7440.5259 -1449.3656 614.82136)
(6.5239771e-16 2.739523e-16 -5.5565719e-16)
(-3.7042918e-15 1.4868296e-15 -1.3023874e-15)
(7513.6492 -1786.596 625.64003)
(7725.2831 198.47104 651.8682)
(-1.9658614e-16 -3.2115893e-17 -1.1045223e-16)
(1.4766345e-16 -3.4299605e-16 -2.8648028e-16)
(-1.0135278e-15 7.0169807e-16 1.7538027e-16)
(7598.9436 40.01678 630.34885)
(7544.323 -454.58877 625.37903)
(7493.2577 -950.82402 620.13504)
(-6.7629929 32.063731 39.117846)
(26.230466 74.582874 24.970284)
(90.593719 126.42887 5.6899255)
(193.66683 180.97067 -22.591042)
(320.00534 237.95064 -49.86874)
(484.58246 299.18293 -78.170754)
(675.5362 360.43532 -100.36762)
(900.58192 422.23072 -119.45962)
(1156.308 483.53712 -129.59933)
(1441.4053 540.67975 -134.25531)
(1757.5924 596.11707 -127.80509)
(2102.2293 644.99178 -112.76212)
(2475.3021 687.65767 -87.722448)
(2873.1044 721.88016 -53.023615)
(3295.1618 747.01293 -9.1921175)
(3737.5792 761.90797 43.277517)
(4197.814 766.31269 102.77522)
(4673.2348 759.22343 169.63165)
(5159.4618 742.64989 240.19145)
(5653.0227 715.17533 316.14942)
(6153.5185 679.06687 394.39721)
(6653.2014 637.54839 474.03102)
(7154.265 587.84216 556.15479)
(0.055160673 -60.274482 -75.148411)
(37.571568 -125.87253 -82.117541)
(94.449467 -193.97019 -116.5158)
(181.58264 -261.80488 -140.66489)
(296.3021 -321.43296 -170.65411)
(445.93085 -387.3107 -195.96689)
(620.30131 -444.24037 -219.72778)
(828.92412 -504.72856 -235.25657)
(1067.9835 -564.84924 -245.58232)
(1336.0021 -622.41778 -245.80813)
(1635.6693 -683.32556 -236.59961)
(1964.4528 -744.28183 -216.99682)
(2321.6617 -805.77403 -186.84785)
(2705.8037 -868.49821 -146.03683)
(3115.1375 -931.58268 -95.167478)
(3546.9563 -995.00231 -35.173471)
(3998.8038 -1057.9793 33.147425)
(4467.3876 -1120.081 107.92827)
(4949.4796 -1180.9322 188.605)
(5441.4399 -1239.2984 272.19291)
(5940.2209 -1295.926 358.81646)
(6440.97 -1349.7462 445.18017)
(6942.9913 -1400.4854 530.96817)
(-4.8813632e-16 1.9183015e-16 -1.0607077e-16)
(-2.6214496e-15 -5.6404768e-16 7.244144e-16)
(-2.4010456e-15 1.4295629e-15 -1.6975308e-16)
(-5.1424418 -15.709569 34.600064)
(27.108621 -81.988425 25.632322)
(98.847579 -118.44119 -3.7814522)
(193.91068 -176.4526 -34.928913)
(324.65496 -245.29746 -59.650081)
(481.87326 -311.39389 -90.477647)
(665.0437 -387.00211 -110.0129)
(885.0406 -470.73419 -129.96421)
(1128.3393 -556.71896 -138.87368)
(1405.6273 -649.69929 -141.17156)
(1708.2923 -743.94487 -134.33069)
(2042.1732 -842.57998 -117.81455)
(2401.0782 -941.3702 -91.934141)
(2787.5385 -1040.4466 -56.883316)
(3197.2208 -1138.2043 -12.79532)
(3629.1929 -1232.7687 39.393188)
(4080.2642 -1323.5355 98.675441)
(4547.8041 -1408.7646 164.2886)
(5028.377 -1488.0902 234.80514)
(5518.8145 -1560.2922 309.33264)
(6015.4474 -1626.0464 386.65996)
(6515.4962 -1684.7064 465.9623)
(7015.6061 -1737.3809 546.34835)
(7566.0792 -1288.2167 632.17738)
(7615.6457 -793.70318 639.55133)
(7671.8558 -300.75354 646.68091)
(7226.7728 248.13591 568.02785)
(6722.5416 298.59316 481.47564)
(6217.1709 345.73034 393.63609)
(5712.2466 390.45313 305.21147)
(5211.1922 430.74214 218.67683)
(4717.9073 466.02661 135.46026)
(4235.7202 495.51597 57.404969)
(3768.6347 518.55211 -13.893346)
(3319.9034 534.83074 -76.896732)
(2892.6739 544.13421 -130.53232)
(2490.1534 545.84323 -173.46954)
(2113.9681 540.95519 -205.78892)
(1766.7294 529.23644 -227.48111)
(1448.604 509.60625 -236.0625)
(1165.1452 480.07435 -236.27778)
(908.87478 451.34741 -227.53462)
(686.61704 412.67114 -210.65606)
(495.88159 365.88678 -186.54416)
(338.80796 314.64958 -159.86726)
(211.94076 257.44078 -129.76477)
(114.83277 198.77013 -103.47525)
(53.20934 126.8412 -75.224509)
(39.137656 61.484604 -38.51895)
(-1.3028228e-15 -3.4252847e-16 3.3068324e-16)
(-2.0449562e-15 -3.5718549e-16 -7.3673077e-16)
(-1.4121951e-15 -1.0527101e-15 6.223458e-16)
(-1.2019486e-15 6.189313e-16 -3.4292956e-16)
(-1.2511779e-16 -6.848356e-17 2.1836215e-16)
(-3.8898857e-17 4.7141393e-16 -3.1043199e-16)
(7458.6445 -1535.5975 616.89513)
(7477.0876 -1619.8851 620.15666)
(7494.2424 -1703.631 623.06502)
(7670.91 453.74785 640.52952)
(7690.0218 369.49981 643.06303)
(7707.8124 285.20165 647.99956)
(-22.748499 13.512283 16.671024)
(7.9924933 28.748176 -4.0756036)
(70.63161 49.602028 -23.956542)
(168.46053 73.734546 -51.476602)
(291.66212 101.73398 -78.208352)
(453.17299 133.17755 -103.37243)
(640.1109 163.02844 -125.8653)
(861.43217 195.98362 -143.11443)
(1111.3111 226.71688 -153.72888)
(1394.696 255.59271 -155.66857)
(1707.0709 281.69725 -148.82532)
(2048.9923 302.40642 -132.79284)
(2418.7148 318.29324 -106.7755)
(2814.7239 327.42966 -71.326134)
(3234.9507 329.38659 -26.40552)
(3676.3123 323.63369 26.776754)
(4136.7865 309.82622 87.850043)
(4611.8895 288.28606 155.40826)
(5099.4742 259.68671 227.95008)
(5595.0143 223.75022 305.65414)
(6096.4298 182.61288 384.66565)
(6597.8458 137.67083 467.04173)
(7101.3151 88.636712 549.25746)
(-28.381933 -11.685031 -17.823047)
(10.44503 -27.182318 -36.382008)
(67.159021 -32.862855 -59.645967)
(160.69172 -38.616644 -83.548126)
(283.7336 -41.792364 -110.11931)
(437.48216 -41.759537 -135.31783)
(621.38193 -40.330542 -157.05961)
(838.63259 -38.701458 -172.87629)
(1085.2509 -37.834448 -181.73729)
(1363.7276 -38.031395 -183.28788)
(1671.4144 -40.427938 -175.28548)
(2009.5616 -46.077459 -157.64796)
(2375.7473 -55.558105 -129.92222)
(2768.7557 -69.716436 -92.493264)
(3186.1349 -88.957646 -45.529531)
(3625.6216 -113.30778 9.9453538)
(4084.1255 -143.04817 73.257142)
(4558.2667 -177.65705 142.95188)
(5045.3541 -216.88698 218.03933)
(5540.0852 -260.19793 296.67388)
(6041.7194 -306.51154 378.43687)
(6543.9032 -354.80034 460.61349)
(7048.2561 -405.17614 543.50352)
(-23.406492 -40.798446 -39.706633)
(15.429598 -78.451025 -58.256297)
(67.833863 -112.91555 -83.779432)
(162.27332 -148.8981 -108.94823)
(279.20909 -183.07813 -137.48366)
(430.14987 -210.43766 -163.26401)
(611.79272 -241.54902 -184.3463)
(823.6927 -268.85004 -200.75272)
(1065.7964 -296.87989 -210.62985)
(1340.2637 -325.61384 -211.19557)
(1644.2687 -355.49788 -202.74077)
(1978.6868 -387.72184 -184.11884)
(2340.9783 -422.42059 -155.55315)
(2730.4947 -459.81506 -116.84886)
(3144.7194 -500.37756 -68.458416)
(3581.4647 -543.68046 -11.295509)
(4037.5614 -590.07802 53.909634)
(4510.2382 -638.61593 125.70951)
(4995.3336 -689.17705 202.63623)
(5490.3551 -741.58411 284.20734)
(5990.5549 -794.07623 366.84364)
(6493.3218 -847.53969 451.89272)
(6995.7567 -900.56377 536.12158)
(-2.5953868e-15 -2.1703571e-16 4.2716933e-18)
(-3.8783653e-15 3.5858996e-16 7.5215743e-16)
(-9.8459492e-16 7.8127033e-16 2.7525688e-16)
(-3.9146975e-16 7.8165185e-18 1.2560621e-16)
(1.6350797e-16 -2.4226884e-16 -1.2066667e-17)
(-1.0304172e-15 -9.2669207e-16 -7.5672327e-16)
(-6.4481012e-16 3.525084e-16 2.7116342e-16)
(-3.5205005e-15 9.4737515e-16 -2.5196009e-17)
(-3.8147498e-15 1.043275e-15 1.2924308e-16)
(21.409684 -22.201804 -30.566767)
(22.826753 -24.091331 -7.6690862)
(14.581311 -15.120847 12.92421)
(65.695292 -115.47614 -53.760563)
(60.636917 -104.29944 -28.693018)
(54.232199 -91.463688 3.0964871)
(115.23023 -166.05366 -85.064759)
(122.12129 -149.68517 -55.725496)
(120.73706 -146.86161 -26.318205)
(209.22165 -236.73394 -110.30782)
(217.82511 -224.88674 -84.859243)
(213.81167 -204.08897 -56.852449)
(327.35069 -299.76914 -142.68695)
(337.25857 -280.83819 -117.40183)
(339.44325 -269.97089 -86.433932)
(475.9866 -364.32802 -170.59308)
(491.32785 -352.2822 -142.51102)
(494.29191 -336.91396 -114.92113)
(655.15738 -429.54715 -192.72096)
(671.66434 -420.48537 -170.70341)
(677.72704 -410.32589 -136.62812)
(866.15968 -498.28366 -212.00825)
(883.56792 -488.87339 -187.45254)
(892.65223 -484.83708 -158.01378)
(1104.1526 -561.79624 -221.60743)
(1124.8101 -564.41803 -199.13948)
(1134.605 -565.12835 -167.293)
(1374.9338 -632.36956 -223.90276)
(1396.7285 -640.63956 -201.18487)
(1409.2109 -648.85719 -170.27849)
(1674.0326 -701.74907 -215.09613)
(1697.2728 -718.42663 -193.48957)
(1710.3357 -734.7469 -162.89821)
(2003.2354 -772.87723 -196.36741)
(2026.811 -798.56302 -176.02461)
(2041.6655 -823.10095 -146.12639)
(2359.2244 -844.7124 -167.27825)
(2383.7014 -879.05977 -147.76621)
(2399.3289 -912.53976 -118.93675)
(2742.6521 -917.27423 -127.535)
(2767.0435 -960.09693 -109.2776)
(2783.2434 -1002.0459 -82.436632)
(3149.9757 -989.43138 -78.00544)
(3174.229 -1040.4038 -61.345493)
(3191.2847 -1090.6723 -36.416793)
(3579.9166 -1060.9104 -19.532412)
(3603.9591 -1119.2559 -4.3563207)
(3621.1587 -1177.0333 18.150129)
(4029.4377 -1130.8209 47.049118)
(4052.6655 -1195.747 60.470656)
(4070.3342 -1260.2521 80.071419)
(4495.4721 -1198.454 120.21994)
(4518.2431 -1268.8337 131.66857)
(4535.9244 -1339.2142 148.53022)
(4975.1189 -1263.2987 198.61947)
(4996.8022 -1338.36 208.32302)
(5014.6956 -1413.3065 222.02876)
(5464.6253 -1324.5495 280.76313)
(5485.6473 -1402.8578 288.61451)
(5503.5075 -1481.5695 299.37503)
(5960.7455 -1382.3246 365.26455)
(5980.7133 -1463.3752 371.18016)
(5998.7058 -1544.4839 379.36825)
(6460.2421 -1436.3609 450.07307)
(6479.7585 -1519.0068 454.79284)
(6497.8851 -1601.9214 460.84031)
(6961.0495 -1486.9164 534.48704)
(6979.5768 -1570.8294 538.19096)
(6997.7487 -1653.9203 542.68787)
(7617.8223 -44.601624 634.5048)
(7636.5853 -129.37363 637.92294)
(7654.1705 -214.09917 642.60688)
(7562.6252 -539.7376 629.23233)
(7581.2413 -624.37515 631.93348)
(7598.1614 -708.32157 635.8904)
(7511.8115 -1037.2096 622.99773)
(7530.4492 -1121.4955 625.57777)
(7547.8359 -1205.408 629.18186)
(21.598211 33.280036 21.671078)
(31.45347 42.698168 5.5445589)
(42.963286 44.109677 -10.976601)
(55.095001 85.585287 2.2803883)
(66.728516 100.55038 -21.355823)
(67.807791 104.66181 -49.610162)
(122.75679 149.92028 -19.549677)
(128.57571 163.3832 -42.645795)
(136.04528 174.30491 -76.661445)
(220.50628 198.86924 -50.721514)
(229.6181 217.81212 -72.444626)
(231.61428 230.09001 -105.95581)
(347.69171 262.99075 -77.740411)
(356.35775 277.9841 -107.33889)
(356.59354 292.12007 -135.26837)
(511.95899 317.0565 -109.45901)
(516.20775 329.55055 -130.29855)
(518.32014 343.05473 -165.07462)
(701.65951 374.46675 -132.6411)
(707.44351 385.75003 -158.11055)
(708.19186 395.27165 -189.17026)
(926.9895 429.88729 -152.42012)
(931.37871 435.1187 -176.45655)
(931.49703 440.48228 -208.3946)
(1178.3602 484.14116 -162.00287)
(1187.1246 480.10668 -191.92783)
(1183.998 480.38358 -216.61372)
(1467.5269 532.36712 -168.27261)
(1470.7171 521.13644 -187.99489)
(1471.8422 514.36494 -220.87036)
(1781.6795 577.4841 -160.1081)
(1787.6782 559.96916 -184.78698)
(1786.6246 545.52853 -211.61168)
(2127.2236 617.49905 -144.57967)
(2132.149 589.94085 -166.04806)
(2133.1622 567.89742 -192.16889)
(2498.7992 649.49891 -117.17658)
(2505.7075 614.18651 -138.27364)
(2506.7013 583.27282 -161.39709)
(2897.0664 674.78969 -80.494145)
(2904.4182 630.60903 -99.0428)
(2906.8593 591.25629 -120.19848)
(3318.3079 690.90269 -33.462498)
(3327.1369 638.77378 -50.368985)
(3330.7634 591.58852 -68.348388)
(3760.393 698.08894 21.88246)
(3770.6265 638.68613 7.8477343)
(3775.8376 583.77067 -7.3340847)
(4220.4405 695.69871 85.655226)
(4231.9994 629.69077 73.827191)
(4238.9863 568.05796 62.151953)
(4694.9322 683.5527 155.4281)
(4708.0111 612.24809 146.77187)
(4716.7803 544.61719 138.23977)
(5180.4028 662.68977 231.00711)
(5195.1973 586.51248 224.97561)
(5205.9622 513.8577 219.71393)
(5674.1041 632.22677 310.94814)
(5690.4482 553.25213 306.52522)
(5702.7196 476.55777 304.66881)
(6172.9468 594.85695 391.87781)
(6190.1287 512.96141 390.91827)
(6203.9896 433.4078 391.62187)
(6672.7613 551.83774 474.4958)
(6690.0144 469.06634 476.05636)
(6706.1584 386.69447 478.66339)
(7173.769 503.01938 559.02761)
(7191.6996 418.81424 561.74325)
(7209.2413 335.06373 564.64926)
(1.4666315 25.248566 -34.666675)
(30.538194 99.625325 -60.86411)
(88.849118 121.50943 -78.475801)
(187.8697 158.3024 -106.99843)
(311.48081 186.51052 -135.85159)
(471.29981 204.80589 -159.23589)
(659.05413 221.5458 -181.95274)
(880.69069 227.43162 -197.56357)
(1133.2112 231.82385 -205.63312)
(1416.581 225.52976 -205.25871)
(1730.7122 216.72938 -196.6668)
(2075.2287 198.27685 -174.7284)
(2448.3008 176.66474 -144.83806)
(2847.7183 148.49165 -103.49732)
(3272.2972 115.43631 -52.678584)
(3718.3379 77.868446 6.9737463)
(4183.4611 36.357125 74.563083)
(4664.0258 -8.3240814 148.45323)
(5156.2779 -55.4941 227.42642)
(5656.9536 -104.18522 309.77487)
(6162.1598 -153.5837 394.16172)
(6667.568 -203.51882 478.71693)
(7173.7905 -252.22863 563.67943)
(-21.103983 14.597838 -9.6962644)
(12.168354 41.399469 -35.00003)
(81.572457 36.138898 -52.518405)
(178.89092 46.174081 -83.987886)
(303.19526 41.921556 -110.79003)
(464.21869 27.6831 -133.44564)
(650.26499 17.035934 -157.99924)
(872.4266 -7.1941791 -172.26816)
(1122.0834 -34.043807 -181.9508)
(1404.3037 -67.123384 -181.75909)
(1715.0949 -104.40511 -173.09549)
(2057.6829 -148.20332 -153.91083)
(2426.3742 -194.59394 -125.67662)
(2822.984 -245.54505 -86.220214)
(3243.2425 -298.88563 -38.432344)
(3685.7463 -354.66304 18.582148)
(4147.079 -411.62873 83.022149)
(4624.0281 -469.34905 153.70413)
(5113.1292 -526.74617 229.80707)
(5610.5656 -583.35048 309.23325)
(6113.218 -638.74445 391.13387)
(6616.2546 -691.92612 474.29683)
(7122.0618 -743.84572 557.29333)
(-28.72621 -9.9970241 4.9905787)
(15.996323 -8.5334672 -12.152571)
(82.170276 -41.887986 -27.036447)
(177.09506 -55.20967 -59.526306)
(304.06304 -95.572229 -81.453797)
(463.9234 -131.9766 -108.81442)
(648.22135 -176.45735 -130.35263)
(869.43528 -229.85302 -145.70741)
(1115.4804 -284.72654 -155.04781)
(1395.7036 -347.04837 -155.72619)
(1703.3816 -412.89097 -147.54093)
(2041.2234 -482.51842 -130.02738)
(2406.3955 -555.22893 -102.23836)
(2798.3456 -629.45134 -65.51092)
(3214.5765 -705.04022 -19.671852)
(3652.7105 -780.42714 34.57242)
(4110.1502 -854.79922 95.919272)
(4583.3276 -927.26553 163.54012)
(5069.3163 -996.90631 236.23399)
(5564.1408 -1063.2744 312.31528)
(6064.4702 -1125.4481 391.68676)
(6566.9445 -1184.208 471.2286)
(7068.856 -1238.5908 553.18631)
(-1.4918802 12.062806 8.5844975)
(1.9879824 15.547768 -2.0224207)
(11.512913 18.38511 -12.96818)
(34.369489 47.701493 -15.099096)
(45.317322 59.166394 -28.054545)
(44.352938 65.693049 -46.262966)
(100.27761 69.343491 -36.85313)
(102.69303 83.469064 -51.313154)
(109.28693 99.705224 -65.614679)
(194.13565 98.985856 -66.112222)
(205.99178 115.88235 -82.320427)
(206.83046 128.85005 -94.99909)
(322.08287 126.13199 -95.89431)
(328.50229 141.49648 -108.43596)
(331.47927 158.16936 -124.81837)
(480.12166 152.66044 -121.46441)
(489.3401 168.11504 -136.66443)
(490.58905 182.17456 -150.31612)
(668.03593 179.93417 -145.38674)
(676.24856 191.42946 -160.79695)
(678.64448 200.92864 -173.77833)
(888.35228 206.63886 -163.87252)
(898.45148 209.51401 -177.63805)
(899.7472 215.79214 -190.81591)
(1140.211 227.05221 -174.7911)
(1149.0727 227.15524 -187.58833)
(1151.0504 226.46286 -201.02384)
(1422.1558 247.91189 -176.53115)
(1431.585 240.07188 -190.15086)
(1434.1497 229.85824 -201.06745)
(1733.9166 264.1492 -169.41521)
(1744.2251 246.80053 -182.32328)
(1746.7937 230.59193 -192.50968)
(2075.3523 274.79684 -152.70973)
(2086.2738 249.4069 -163.91421)
(2089.7485 223.7424 -173.57554)
(2444.7069 280.83307 -125.31174)
(2456.3534 246.30648 -135.85963)
(2460.5733 211.88846 -143.3969)
(2840.2098 280.31026 -88.259943)
(2852.5139 237.33848 -96.687916)
(2857.772 194.01433 -103.53522)
(3259.718 273.39569 -41.224601)
(3272.8367 222.04941 -48.39047)
(3279.2302 170.68167 -53.405383)
(3700.5835 259.681 14.332663)
(3714.4592 201.0398 9.2171119)
(3722.233 141.82016 5.4269309)
(4159.9959 239.23338 77.989301)
(4174.657 173.73291 74.480129)
(4183.8871 107.94608 72.430279)
(4634.4995 212.21234 148.011)
(4650.0529 141.12806 146.55154)
(4660.7014 69.532102 145.70517)
(5121.022 179.55222 223.5995)
(5137.1268 103.24299 223.59717)
(5149.7358 27.245169 224.38094)
(5615.4183 140.29644 303.14601)
(5633.4038 61.174598 304.78993)
(5646.3441 -18.29421 306.2963)
(6115.4118 97.697181 384.6148)
(6134.3366 17.016098 388.01213)
(6148.7319 -65.738918 390.52824)
(6617.4001 51.505803 468.76983)
(6634.9919 -31.475556 472.03747)
(6651.3194 -115.68707 475.13791)
(7120.09 3.7475418 552.5757)
(7138.3039 -80.655335 555.81616)
(7156.0297 -165.17377 559.5939)
(-13.875716 -0.38656582 -9.7643995)
(-8.1237746 4.406564 -7.5402568)
(-2.2387836 7.3676957 -5.5196067)
(29.072976 -7.5155145 -35.923449)
(35.708276 5.0214287 -33.371523)
(31.61308 13.940336 -33.785508)
(91.364974 -9.9806477 -58.807047)
(99.373902 2.8739802 -53.264501)
(99.705151 18.690941 -54.554415)
(184.6194 -16.446 -87.255017)
(198.23663 -0.40430041 -83.624191)
(195.73204 14.730353 -84.365538)
(309.2915 -17.001746 -114.20609)
(321.58218 -1.6413585 -109.26757)
(319.46819 17.850073 -113.85328)
(464.23388 -21.458487 -141.35287)
(478.37863 -9.333334 -138.94651)
(477.31786 6.8938163 -138.911)
(649.59383 -23.744414 -164.80735)
(663.77496 -15.104515 -159.57125)
(663.88645 -3.4177598 -162.63701)
(867.06305 -30.257199 -181.16624)
(882.9774 -27.01273 -177.34151)
(882.62731 -17.683733 -179.98952)
(1113.6779 -35.79034 -190.92856)
(1130.2977 -38.840201 -188.36511)
(1131.4735 -38.83188 -189.45009)
(1392.8113 -44.524991 -193.0141)
(1410.1429 -56.950605 -188.89227)
(1411.6429 -62.054867 -190.11916)
(1701.1926 -57.525164 -184.90915)
(1718.6188 -76.556326 -180.36424)
(1721.3164 -92.099777 -182.51769)
(2039.2102 -72.854863 -166.92687)
(2057.5139 -101.14256 -162.62382)
(2061.0935 -124.69119 -163.73292)
(2405.2521 -92.440427 -138.53677)
(2423.7488 -129.08988 -133.94688)
(2428.4079 -162.36212 -134.88561)
(2797.5612 -116.30608 -100.18249)
(2816.4597 -161.67999 -95.400818)
(2822.1606 -203.42508 -96.05521)
(3214.3678 -144.39436 -52.005324)
(3233.2803 -197.56526 -47.370927)
(3240.4733 -248.06429 -47.435738)
(3652.8144 -176.79687 4.7394281)
(3671.8832 -237.34333 9.6392095)
(3680.3373 -295.55652 9.8437597)
(4110.2554 -213.32743 69.572214)
(4129.189 -280.27587 74.230183)
(4139.2751 -345.54362 75.036064)
(4583.2273 -253.51141 140.67974)
(4602.1969 -326.11858 145.42549)
(4613.7685 -396.96312 146.48189)
(5068.8275 -297.03444 217.22381)
(5087.6418 -373.78918 221.64202)
(5100.6783 -449.77473 223.46932)
(5562.9081 -342.98639 297.25953)
(5581.2904 -424.17656 301.76548)
(5595.904 -502.54015 303.62583)
(6063.7798 -390.96515 380.58352)
(6079.8978 -474.63605 383.12512)
(6097.3165 -555.50786 386.59334)
(6563.8052 -440.66304 463.09971)
(6582.198 -523.58501 467.29479)
(6598.961 -607.65543 469.94331)
(7067.2545 -490.49547 546.79842)
(7085.7389 -575.07964 550.41217)
(7103.5535 -658.7824 553.85356)
(-8.0271617 -18.458192 -17.39936)
(-8.8949613 -15.93976 -7.8218844)
(-10.164251 -10.434399 2.4741707)
(38.934628 -54.341181 -41.367603)
(44.472518 -39.841077 -27.814124)
(35.711196 -31.228056 -17.060449)
(93.901071 -87.764447 -66.36426)
(100.39773 -80.430208 -51.862329)
(99.199804 -61.666017 -37.629611)
(190.74687 -123.69692 -94.409688)
(197.62144 -103.32734 -81.39111)
(197.86276 -86.767388 -69.560648)
(309.16867 -154.29062 -123.51973)
(319.02818 -142.10181 -110.14918)
(320.74238 -121.63851 -96.1897)
(462.87547 -188.80569 -151.99241)
(474.61565 -174.34092 -137.38865)
(477.99488 -158.10462 -124.64026)
(645.46844 -223.50002 -174.05949)
(656.63877 -213.07943 -159.19071)
(663.88678 -198.42224 -147.01399)
(858.63603 -256.84878 -191.68023)
(872.88175 -252.08427 -179.15175)
(880.71735 -245.1703 -165.19541)
(1103.0604 -294.03553 -203.03179)
(1116.9255 -295.68836 -187.97226)
(1127.3761 -293.15119 -174.14881)
(1377.7134 -332.46024 -203.95817)
(1393.2504 -340.06874 -189.84483)
(1404.3878 -347.16111 -176.73938)
(1681.8677 -372.13955 -196.28399)
(1697.967 -389.33254 -182.62106)
(1711.3899 -403.85963 -168.63468)
(2016.1767 -415.01163 -178.26381)
(2032.938 -440.14217 -164.61978)
(2047.0633 -463.7169 -151.27626)
(2377.8645 -460.06707 -150.00778)
(2394.9329 -494.26393 -136.7927)
(2410.5894 -526.8365 -123.76923)
(2766.3807 -507.68849 -111.54919)
(2783.8983 -550.1311 -98.950704)
(2800.1452 -591.62144 -86.243208)
(3179.2676 -557.5247 -63.365166)
(3196.9748 -608.25641 -51.370717)
(3214.179 -658.02629 -39.449116)
(3614.2043 -609.37625 -6.3143925)
(3632.0865 -667.43323 4.8601003)
(3649.7932 -725.07881 15.96941)
(4068.4124 -662.83651 58.790669)
(4086.3723 -727.6451 68.869356)
(4104.6354 -791.99943 79.099092)
(4538.7011 -717.19607 130.30751)
(4556.843 -787.68201 139.52318)
(4575.4053 -857.87279 148.54162)
(5021.8362 -772.37902 207.39194)
(5039.8889 -847.43046 215.27946)
(5058.5595 -922.28791 223.27359)
(5514.1937 -827.28661 288.32728)
(5532.5112 -905.86814 294.98075)
(5551.28 -984.36814 301.74945)
(6012.4155 -881.58547 371.07342)
(6030.4144 -962.72174 377.16662)
(6049.3124 -1043.4357 382.90411)
(6513.3582 -935.16153 455.81881)
(6531.8757 -1017.9446 460.73396)
(6550.6012 -1100.4387 465.40426)
(7014.4067 -987.43827 539.92646)
(7032.4697 -1071.2778 543.86958)
(7050.9002 -1154.9629 547.80779)
)
;

boundaryField
{
    free
    {
        type            zeroGradient;
    }
    fixed
    {
        type            fixedValue;
        value           nonuniform List<vector> 
25
(
(-2.5953868e-15 -2.1703571e-16 4.2716933e-18)
(-1.3028228e-15 -3.4252847e-16 3.3068324e-16)
(-1.9658614e-16 -3.2115893e-17 -1.1045223e-16)
(-3.6361799e-15 2.112754e-16 -3.2990721e-16)
(-3.8783653e-15 3.5858996e-16 7.5215743e-16)
(-2.0449562e-15 -3.5718549e-16 -7.3673077e-16)
(-9.8459492e-16 7.8127033e-16 2.7525688e-16)
(-1.4121951e-15 -1.0527101e-15 6.223458e-16)
(-4.8813632e-16 1.9183015e-16 -1.0607077e-16)
(6.5239771e-16 2.739523e-16 -5.5565719e-16)
(-3.9146975e-16 7.8165185e-18 1.2560621e-16)
(1.4766345e-16 -3.4299605e-16 -2.8648028e-16)
(1.6350797e-16 -2.4226884e-16 -1.2066667e-17)
(-1.0304172e-15 -9.2669207e-16 -7.5672327e-16)
(-2.6214496e-15 -5.6404768e-16 7.244144e-16)
(-6.4481012e-16 3.525084e-16 2.7116342e-16)
(-1.0135278e-15 7.0169807e-16 1.7538027e-16)
(-3.5205005e-15 9.4737515e-16 -2.5196009e-17)
(-3.8147498e-15 1.043275e-15 1.2924308e-16)
(-2.4010456e-15 1.4295629e-15 -1.6975308e-16)
(-1.2019486e-15 6.189313e-16 -3.4292956e-16)
(2.8178306e-17 1.9013092e-16 6.1994168e-17)
(-1.2511779e-16 -6.848356e-17 2.1836215e-16)
(-3.8898857e-17 4.7141393e-16 -3.1043199e-16)
(-3.7042918e-15 1.4868296e-15 -1.3023874e-15)
)
;
    }
    freeTop
    {
        type            zeroGradient;
    }
}


// ************************************************************************* //
