/*--------------------------------*- C++ -*----------------------------------*\
  =========                 |
  \\      /  F ield         | OpenFOAM: The Open Source CFD Toolbox
   \\    /   O peration     | Website:  https://openfoam.org
    \\  /    A nd           | Version:  6
     \\/     M anipulation  |
\*---------------------------------------------------------------------------*/
FoamFile
{
    version     2.0;
    format      ascii;
    class       pointVectorField;
    location    "0.69";
    object      u;
}
// * * * * * * * * * * * * * * * * * * * * * * * * * * * * * * * * * * * * * //

dimensions      [0 1 0 0 0 0 0];

internalField   nonuniform List<vector> 
28033
(
(0 0 0)
(0 0 0)
(2.5081385 -0.30664532 0.0043916521)
(2.3445646 -0.85396311 0.0032306201)
(0 0 0)
(0 0 0)
(2.3450606 -0.85493587 0.0029548296)
(2.5086317 -0.30769474 0.0037889524)
(0 0 0)
(0 0 0)
(0 0 0)
(0 0 0)
(0 0 0)
(0 0 0)
(0 0 0)
(0 0 0)
(0 0 0)
(0 0 0)
(0 0 0)
(0 0 0)
(0 0 0)
(0 0 0)
(0 0 0)
(2.497588 -0.34125669 0.0040858249)
(2.4871383 -0.37551016 0.0039965928)
(2.4767525 -0.40966046 0.0038798766)
(2.466458 -0.44377092 0.0038331075)
(2.456216 -0.47782053 0.0037982287)
(2.4460193 -0.51184247 0.0037840275)
(2.4358738 -0.54584896 0.0037873534)
(2.4257597 -0.57986225 0.0037988695)
(2.4156724 -0.61388843 0.0038051869)
(2.4055919 -0.64795613 0.0038136871)
(2.3955245 -0.68206085 0.0037976537)
(2.3854299 -0.71623647 0.0037549942)
(2.3753419 -0.75047932 0.0036982944)
(2.3651695 -0.78481429 0.0036142434)
(2.3549935 -0.81928173 0.0034570122)
(0.0070956808 0.010343582 0.011359921)
(0.0089929644 0.016359529 0.015479228)
(0.011679864 0.022611142 0.018512841)
(0.015479126 0.02899107 0.020425865)
(0.019927083 0.035466912 0.021559782)
(0.025568311 0.042013562 0.022330467)
(0.032126732 0.048560915 0.022715958)
(0.039718197 0.054930126 0.022874262)
(0.048258083 0.061304889 0.022881883)
(0.05778175 0.067407393 0.022783016)
(0.068171313 0.073395822 0.022589763)
(0.079487998 0.079119071 0.022326095)
(0.091642697 0.08465595 0.022092763)
(0.10470129 0.089905509 0.021754976)
(0.11850405 0.094912232 0.0214689)
(0.13315214 0.0996178 0.021106404)
(0.14855465 0.10407464 0.020810372)
(0.16474009 0.10818432 0.020458207)
(0.18162314 0.1120426 0.02012515)
(0.19924268 0.11555383 0.019771924)
(0.21753089 0.11878476 0.019457688)
(0.23650705 0.1216748 0.019088927)
(0.25611355 0.12425877 0.018782399)
(0.27637248 0.12653338 0.018434883)
(0.29720665 0.12846962 0.018107685)
(0.31864914 0.13010968 0.01778199)
(0.34063958 0.13140597 0.017476375)
(0.36320047 0.13242551 0.017153919)
(0.38627084 0.13308875 0.016847175)
(0.40985885 0.13346658 0.016556997)
(0.43395557 0.13353977 0.016257551)
(0.45850316 0.13329277 0.015967948)
(0.48352863 0.13276008 0.015697728)
(0.50900336 0.13189976 0.015420767)
(0.53491291 0.13077813 0.015144638)
(0.56124492 0.1293334 0.014879883)
(0.58796729 0.12761393 0.01462494)
(0.6151055 0.12560244 0.014366701)
(0.64259726 0.12330365 0.01409948)
(0.67046929 0.12073148 0.013850204)
(0.69868123 0.11787101 0.013590775)
(0.72723594 0.11475342 0.013340945)
(0.75611451 0.11135338 0.013081292)
(0.78530692 0.10769675 0.012830903)
(0.81478952 0.10377427 0.012575745)
(0.84456312 0.099602674 0.01232325)
(0.87459936 0.095179777 0.012071952)
(0.90490131 0.090514873 0.011820512)
(0.93544045 0.085613645 0.01157191)
(0.96621992 0.080481184 0.011324398)
(0.99721437 0.075126422 0.011079441)
(1.0284234 0.069552687 0.010836884)
(1.0598282 0.063771105 0.01059737)
(1.0914232 0.057783664 0.010361071)
(1.123196 0.051602479 0.010128181)
(1.1551375 0.045229818 0.0098997718)
(1.1872386 0.03867674 0.0096753313)
(1.2194906 0.031947491 0.0094562617)
(1.2518847 0.025051166 0.0092425307)
(1.2844136 0.017993184 0.0090351974)
(1.3170692 0.010782173 0.0088344898)
(1.3498459 0.0034234856 0.0086411898)
(1.3827344 -0.0040738883 0.0084568731)
(1.4157346 -0.011709608 0.0082786261)
(1.448833 -0.019464583 0.0081143134)
(1.4820344 -0.027349851 0.0079530762)
(1.5153242 -0.035350255 0.0078074392)
(1.5487074 -0.043460335 0.0076685601)
(1.5821766 -0.05168049 0.0075330559)
(1.6157346 -0.060002092 0.0074120845)
(1.6493723 -0.068427639 0.007295724)
(1.6830901 -0.076952874 0.0071874436)
(1.7168923 -0.085567223 0.0070794243)
(1.7507634 -0.094292374 0.0069807743)
(1.7847225 -0.10308675 0.0068747835)
(1.8187392 -0.11201037 0.0067810591)
(1.852843 -0.12097896 0.0066721168)
(1.8869974 -0.13009606 0.0065774032)
(1.9212306 -0.13923747 0.0064619803)
(1.955509 -0.1485369 0.0063634641)
(1.989856 -0.15785752 0.0062374903)
(2.0242376 -0.16731894 0.0061344659)
(2.058679 -0.17682055 0.0060010475)
(2.0931388 -0.18643286 0.0058913168)
(2.1276516 -0.19609905 0.005756038)
(2.1621762 -0.20585179 0.005635713)
(2.1967283 -0.21568167 0.0055036935)
(2.2312878 -0.22555845 0.0053827372)
(2.2658605 -0.23551974 0.0052493817)
(2.3004304 -0.24550665 0.005132694)
(2.3349916 -0.25559903 0.0050233665)
(2.3695767 -0.26563554 0.0048870289)
(2.4041083 -0.27583321 0.0048305037)
(2.4387116 -0.28596728 0.0047032064)
(2.4732723 -0.29613116 0.0046598431)
(0.0025672568 -0.011870782 -0.013447818)
(0.0046599911 -0.015937181 -0.016130689)
(0.0062385671 -0.022001647 -0.020705485)
(0.0079986124 -0.026839046 -0.022343674)
(0.011715462 -0.033023673 -0.023919199)
(0.015949954 -0.039305132 -0.024659109)
(0.021219964 -0.045268356 -0.025107526)
(0.027444158 -0.051841411 -0.025147431)
(0.034656783 -0.058307578 -0.025073793)
(0.042545935 -0.064826526 -0.024812532)
(0.051393834 -0.071528034 -0.024474984)
(0.060894887 -0.078166356 -0.024068233)
(0.071250115 -0.084974191 -0.023595809)
(0.082257033 -0.091777553 -0.023159841)
(0.094021965 -0.098630868 -0.022633373)
(0.10645416 -0.1055933 -0.022172361)
(0.1195681 -0.11251349 -0.021646337)
(0.1333648 -0.11959688 -0.021139754)
(0.14779131 -0.12667758 -0.020647538)
(0.16288051 -0.13382635 -0.020138542)
(0.1785771 -0.14105189 -0.019617334)
(0.19490391 -0.14835766 -0.019144698)
(0.21179271 -0.15566319 -0.018624504)
(0.22931609 -0.16314056 -0.018135658)
(0.2473567 -0.17059475 -0.01765264)
(0.26600842 -0.17818482 -0.017141902)
(0.28515167 -0.18582359 -0.016695687)
(0.30487581 -0.19354115 -0.016188049)
(0.3250732 -0.20134875 -0.015752795)
(0.34581279 -0.20921234 -0.015258483)
(0.36701508 -0.21719724 -0.014822904)
(0.38872383 -0.22522992 -0.014360827)
(0.41088573 -0.23337142 -0.013923735)
(0.43352454 -0.2415876 -0.013476597)
(0.45660207 -0.24989924 -0.013043883)
(0.48012616 -0.25828398 -0.012616532)
(0.50407548 -0.26675578 -0.012170185)
(0.52844749 -0.27533593 -0.01174927)
(0.5532257 -0.28397592 -0.011316926)
(0.57841019 -0.2927197 -0.010890696)
(0.60397894 -0.30153854 -0.010463514)
(0.62992959 -0.31044051 -0.010039815)
(0.65624642 -0.3194227 -0.0096159707)
(0.68292177 -0.32848063 -0.0091968255)
(0.70994118 -0.33761333 -0.0087801339)
(0.73729765 -0.34681687 -0.0083678483)
(0.76497514 -0.35608882 -0.007961589)
(0.7929672 -0.36542543 -0.0075605228)
(0.82125894 -0.374825 -0.0071673349)
(0.84984184 -0.38428233 -0.0067813707)
(0.87870395 -0.39379727 -0.0064040101)
(0.90783497 -0.40336441 -0.0060356715)
(0.93722454 -0.41298274 -0.0056765967)
(0.96686251 -0.42264904 -0.0053274761)
(0.99673853 -0.43236082 -0.0049883731)
(1.0268432 -0.44211548 -0.0046599059)
(1.0571665 -0.45191173 -0.0043419646)
(1.0876992 -0.46174586 -0.0040352997)
(1.1184317 -0.4716173 -0.0037400729)
(1.1493555 -0.48152366 -0.0034563006)
(1.1804608 -0.49146284 -0.0031850228)
(1.2117402 -0.50143442 -0.0029255694)
(1.2431847 -0.51143609 -0.0026791009)
(1.2747875 -0.52146833 -0.0024443335)
(1.3065406 -0.53152829 -0.0022230432)
(1.3384387 -0.54161948 -0.0020119132)
(1.3704749 -0.55173675 -0.0018142939)
(1.4026445 -0.56188657 -0.0016241851)
(1.434944 -0.57206094 -0.0014476424)
(1.4673675 -0.58226486 -0.0012715859)
(1.4999119 -0.59250502 -0.0011076849)
(1.5325765 -0.60276783 -0.00094563009)
(1.5653581 -0.61306916 -0.00078669119)
(1.5982529 -0.62339373 -0.00062995214)
(1.6312625 -0.63375535 -0.00047010528)
(1.66438 -0.64414011 -0.00031271497)
(1.6976081 -0.65455848 -0.00014774016)
(1.7309415 -0.66499786 1.6145652e-05)
(1.7643779 -0.67546622 0.00018811833)
(1.7979154 -0.68595013 0.00036027867)
(1.8315487 -0.69645757 0.00053958489)
(1.865276 -0.7069735 0.0007191597)
(1.8990901 -0.71750441 0.00090406644)
(1.93299 -0.72803813 0.0010885026)
(1.9669661 -0.73857494 0.0012749317)
(2.0010172 -0.74910987 0.0014606923)
(2.0351344 -0.75963639 0.0016454871)
(2.0693137 -0.77015303 0.0018261)
(2.1035466 -0.78065678 0.0020072394)
(2.1378314 -0.79114092 0.0021796252)
(2.1721543 -0.80160464 0.0023495204)
(2.2065199 -0.81205663 0.0025122291)
(2.2409095 -0.82248911 0.0026782174)
(2.27536 -0.83291221 0.0028197462)
(2.3098291 -0.84339545 0.0030032517)
(0 0 0)
(0 0 0)
(0 0 0)
(0 0 0)
(0 0 0)
(0 0 0)
(0 0 0)
(0 0 0)
(0 0 0)
(0 0 0)
(0 0 0)
(0 0 0)
(0 0 0)
(0 0 0)
(0 0 0)
(0.0062590749 -0.0049084824 0.0098123634)
(0.006284477 -0.018557425 0.015765844)
(0.0061115591 -0.019421463 0.018930808)
(0.0088779248 -0.028340989 0.022108797)
(0.011719041 -0.032705624 0.023370454)
(0.016400307 -0.039485248 0.024034118)
(0.021519268 -0.045369998 0.024391648)
(0.028044474 -0.05223688 0.024504771)
(0.035109297 -0.05835946 0.024300743)
(0.043140137 -0.065282105 0.024021578)
(0.052083233 -0.071921306 0.023765501)
(0.061477007 -0.078471598 0.023263347)
(0.071985677 -0.085606351 0.022924771)
(0.082848494 -0.092087211 0.022376991)
(0.094790788 -0.099467678 0.021991963)
(0.10709717 -0.10600248 0.021491108)
(0.12027572 -0.11333571 0.021074502)
(0.13403711 -0.12016512 0.020529246)
(0.14847504 -0.12748786 0.020126541)
(0.16358516 -0.13460102 0.019614444)
(0.17923615 -0.1418798 0.019228729)
(0.19558379 -0.14919716 0.018735735)
(0.21245884 -0.15662438 0.018334613)
(0.22997707 -0.16408564 0.017897533)
(0.24801616 -0.17159021 0.017485859)
(0.26665282 -0.179247 0.017091364)
(0.28579583 -0.18683671 0.016678483)
(0.30549134 -0.19469795 0.016313677)
(0.3256964 -0.20242918 0.015924883)
(0.34639433 -0.21042354 0.01557384)
(0.367611 -0.21838126 0.015221783)
(0.38928795 -0.22646429 0.014884349)
(0.4114486 -0.23461695 0.014548517)
(0.43406629 -0.24286027 0.014222051)
(0.45713815 -0.25119711 0.013910724)
(0.4806467 -0.2595615 0.013586725)
(0.50457567 -0.26810534 0.013282246)
(0.52894791 -0.27666783 0.012978585)
(0.55371232 -0.28532878 0.012678172)
(0.57888938 -0.29407441 0.012374617)
(0.60445074 -0.30289905 0.012077614)
(0.63039415 -0.31180386 0.011779742)
(0.65670656 -0.32078419 0.011483881)
(0.68337741 -0.32984007 0.011189774)
(0.71039491 -0.3389665 0.010897937)
(0.73774913 -0.34816325 0.010608403)
(0.76542759 -0.35742479 0.010321894)
(0.79342003 -0.36675109 0.010039023)
(0.8217142 -0.37613644 0.0097606499)
(0.85029978 -0.38558054 0.0094869705)
(0.87916487 -0.39507852 0.0092193823)
(0.90829971 -0.4046294 0.0089569466)
(0.93769279 -0.41422953 0.0087019084)
(0.96733439 -0.42387685 0.0084527122)
(0.99721364 -0.43356961 0.0082117044)
(1.0273214 -0.44330443 0.0079772064)
(1.0576468 -0.45308065 0.0077516583)
(1.0881814 -0.4628954 0.0075335636)
(1.118915 -0.47274726 0.0073246658)
(1.1498391 -0.48263502 0.0071246115)
(1.1809444 -0.49255661 0.0069341062)
(1.212223 -0.50251149 0.0067532206)
(1.2436664 -0.5124987 0.0065827171)
(1.2752675 -0.52251679 0.0064221634)
(1.307019 -0.5325664 0.0062720402)
(1.3389143 -0.5426468 0.0061321069)
(1.3709492 -0.55275697 0.0060014701)
(1.4031144 -0.56290448 0.0058818391)
(1.4354155 -0.57306424 0.0057687802)
(1.4678291 -0.5832794 0.0056632442)
(1.5003758 -0.59351199 0.0055654445)
(1.5330348 -0.60377883 0.0054727899)
(1.565814 -0.61407733 0.0053818157)
(1.5987062 -0.62440752 0.0052948228)
(1.6317115 -0.63476712 0.0052072363)
(1.6648277 -0.64515686 0.0051196177)
(1.6980526 -0.65557369 0.0050295168)
(1.7313845 -0.6660167 0.0049372651)
(1.7648199 -0.67648287 0.0048408922)
(1.798357 -0.68696897 0.0047413439)
(1.8319907 -0.69747291 0.0046367428)
(1.8657194 -0.70799004 0.0045292584)
(1.8995362 -0.71851712 0.0044170056)
(1.9334391 -0.72905043 0.0043027797)
(1.9674203 -0.73958483 0.0041852073)
(2.0014763 -0.75011829 0.0040678991)
(2.0355994 -0.7606426 0.0039485131)
(2.069785 -0.77116096 0.0038328022)
(2.1040249 -0.78165915 0.0037167781)
(2.1383143 -0.79214837 0.0036083293)
(2.1726439 -0.80260815 0.0035001052)
(2.2070128 -0.81306403 0.0034054331)
(2.2414063 -0.82348693 0.0033066207)
(2.275859 -0.8339299 0.0032239355)
(2.3102929 -0.84439435 0.0031177343)
(2.3555258 -0.82026956 0.0028625301)
(2.365686 -0.78584084 0.0028247844)
(2.3758467 -0.7514656 0.0028595693)
(2.385942 -0.71724261 0.0029018719)
(2.396035 -0.68306456 0.0030040846)
(2.4060948 -0.64895933 0.003098521)
(2.4161754 -0.61490378 0.0032362239)
(2.426258 -0.58086526 0.0033636422)
(2.4363805 -0.54687569 0.0034929007)
(2.4465115 -0.51285328 0.0036257282)
(2.4567132 -0.47884946 0.0037309976)
(2.4669441 -0.4447938 0.003823499)
(2.4772502 -0.41071211 0.003893781)
(2.4875818 -0.37651185 0.0039212811)
(2.4980768 -0.34233182 0.0039154716)
(2.4738132 -0.29719873 0.0034674923)
(2.4391606 -0.28704017 0.0033154628)
(2.4046148 -0.27685772 0.0031352571)
(2.3700482 -0.26671751 0.0029719675)
(2.3354847 -0.25661752 0.0027819155)
(2.3009132 -0.24656176 0.0025946015)
(2.2663391 -0.23655855 0.0024005677)
(2.2317656 -0.22660815 0.0021998768)
(2.1971985 -0.21672372 0.0020007877)
(2.1626459 -0.20690018 0.0017951794)
(2.1281105 -0.19715025 0.0015932911)
(2.0936026 -0.18747126 0.0013896599)
(2.0591251 -0.1778701 0.001188505)
(2.0246838 -0.16834482 0.00098554757)
(1.9902882 -0.15890539 0.00078820565)
(1.9559438 -0.1495492 0.00059419956)
(1.9216556 -0.14028077 0.00040619543)
(1.8874266 -0.1311012 0.0002219077)
(1.8532637 -0.1220107 4.2136663e-05)
(1.8191684 -0.11301378 -0.00013311495)
(1.7851458 -0.10410753 -0.00030514747)
(1.7511971 -0.095297811 -0.00047447623)
(1.7173261 -0.08658085 -0.00064254304)
(1.6835327 -0.077963395 -0.00081081738)
(1.6498216 -0.069442126 -0.00097976836)
(1.6161914 -0.061020614 -0.0011525485)
(1.5826391 -0.052704668 -0.0013321368)
(1.5491941 -0.044511594 -0.0015057437)
(1.515814 -0.036401269 -0.0016999118)
(1.4825347 -0.028420125 -0.0018968289)
(1.4493474 -0.020553393 -0.0021052323)
(1.4162587 -0.012811489 -0.0023222275)
(1.3832708 -0.0051979532 -0.0025502756)
(1.3503896 0.002280349 -0.0027897875)
(1.3176205 0.0096178585 -0.0030405104)
(1.2849696 0.016808367 -0.003302826)
(1.2524436 0.023844734 -0.0035767812)
(1.2200501 0.030721093 -0.0038619946)
(1.1877969 0.037429639 -0.0041583838)
(1.1556922 0.043964711 -0.0044657907)
(1.123745 0.050318153 -0.0047837641)
(1.0919647 0.056484337 -0.005111903)
(1.060361 0.062455311 -0.0054501961)
(1.0289443 0.068225143 -0.0057975859)
(0.99772517 0.073786395 -0.0061541645)
(0.9667148 0.079132869 -0.0065188819)
(0.93592492 0.084257662 -0.0068913629)
(0.90536735 0.089154543 -0.0072705306)
(0.87505489 0.093817045 -0.0076562522)
(0.84499976 0.098239688 -0.0080464877)
(0.81521583 0.10241485 -0.0084417424)
(0.78571506 0.10634149 -0.0088405088)
(0.75651296 0.11000537 -0.0092407764)
(0.72762084 0.11341502 -0.0096466848)
(0.69905596 0.11654901 -0.010047538)
(0.67082933 0.11942011 -0.010455575)
(0.64294816 0.1220241 -0.010863835)
(0.61542813 0.12434054 -0.01127201)
(0.58833265 0.12632659 -0.011658445)
(0.56156708 0.12812546 -0.012090001)
(0.53522551 0.12957854 -0.012497652)
(0.5093614 0.13069391 -0.012885791)
(0.48386079 0.13160352 -0.013306055)
(0.45883496 0.13217708 -0.01372507)
(0.4342545 0.13245503 -0.014143927)
(0.41021208 0.13238051 -0.014558983)
(0.38658259 0.13208842 -0.014969238)
(0.36356149 0.13137196 -0.015382876)
(0.34098315 0.13045567 -0.015826133)
(0.31899911 0.12917144 -0.016246922)
(0.29755879 0.12758386 -0.016678656)
(0.27669592 0.12569046 -0.017112782)
(0.25651131 0.1233895 -0.017511056)
(0.23684679 0.12091634 -0.017970326)
(0.2178824 0.1180475 -0.01839292)
(0.19960983 0.11481664 -0.018790982)
(0.18195605 0.11140604 -0.019254852)
(0.16509883 0.10752164 -0.019616553)
(0.14887917 0.10352562 -0.020079826)
(0.13350542 0.099042186 -0.020434356)
(0.11889198 0.094377055 -0.020838591)
(0.10499213 0.089427295 -0.021196063)
(0.091963442 0.084269901 -0.021595335)
(0.079836216 0.078652703 -0.02184524)
(0.068480648 0.073097904 -0.022198873)
(0.058055375 0.067100195 -0.022384152)
(0.048596883 0.060969854 -0.022509619)
(0.040031474 0.054714932 -0.022529617)
(0.032416015 0.048336062 -0.022375531)
(0.025830367 0.041858235 -0.02199836)
(0.020266367 0.035246065 -0.021170471)
(0.015793386 0.028590639 -0.019932387)
(0.012366684 0.022564738 -0.018069896)
(0.0092814138 0.015834151 -0.014640378)
(0.010014177 0.0097189624 -0.0087626655)
(0 0 0)
(0 0 0)
(0 0 0)
(0 0 0)
(0 0 0)
(0 0 0)
(0 0 0)
(0 0 0)
(0 0 0)
(0 0 0)
(0 0 0)
(0 0 0)
(0 0 0)
(0 0 0)
(0 0 0)
(0 0 0)
(0 0 0)
(0 0 0)
(0 0 0)
(0 0 0)
(0 0 0)
(0 0 0)
(0 0 0)
(0 0 0)
(0 0 0)
(0 0 0)
(0 0 0)
(0 0 0)
(0 0 0)
(0 0 0)
(2.3446025 -0.85419365 0.0031979549)
(2.3446287 -0.85435262 0.0031634637)
(2.3446597 -0.8544752 0.0031311746)
(2.344697 -0.85459437 0.0031098767)
(2.3447369 -0.85470031 0.0030954169)
(2.344777 -0.85479472 0.0030924004)
(2.3448137 -0.8548755 0.0030912085)
(2.3448474 -0.85494504 0.0030968936)
(2.3448773 -0.85500391 0.0030991965)
(2.344901 -0.85504837 0.0030982979)
(2.3449286 -0.85509222 0.0030956766)
(2.3449485 -0.85510328 0.0030790437)
(2.3449753 -0.85511978 0.0030581832)
(2.3450044 -0.85510822 0.0030267706)
(2.3450425 -0.85510175 0.0029868729)
(2.5083882 -0.30660849 0.0043597464)
(2.5084884 -0.30663859 0.0043564977)
(2.5085823 -0.30666381 0.0043204039)
(2.5086761 -0.30670504 0.0042856119)
(2.5087421 -0.30675566 0.0042465024)
(2.5088052 -0.30681368 0.0041913906)
(2.5088554 -0.30687135 0.0041388966)
(2.5088914 -0.30693615 0.0040783777)
(2.5089158 -0.30700103 0.0040206182)
(2.5089261 -0.30706906 0.0039665664)
(2.508925 -0.30714422 0.0039159414)
(2.5089106 -0.30722237 0.003873654)
(2.508894 -0.30730643 0.0038526174)
(2.5088475 -0.30742515 0.0038062612)
(2.5088389 -0.30750557 0.0038037325)
(0.0041784611 0.0079366739 0.011505327)
(0.0064784768 0.013735279 0.013366315)
(0.0089900045 0.019698433 0.016414973)
(0.012801915 0.025441285 0.017639605)
(0.017015398 0.031158496 0.018904973)
(0.02265476 0.036886563 0.019466517)
(0.029011955 0.042499704 0.019859966)
(0.036619623 0.048159105 0.019990501)
(0.044974689 0.053589331 0.020023067)
(0.054417714 0.058979059 0.019952284)
(0.064708054 0.064091399 0.019747982)
(0.07594459 0.069129391 0.019605316)
(0.087994263 0.073813044 0.01931775)
(0.10091463 0.078396879 0.019097753)
(0.11462341 0.08259839 0.018794127)
(0.12917802 0.086662792 0.018545964)
(0.14446955 0.090340576 0.018225586)
(0.16049582 0.093841144 0.017968383)
(0.17728483 0.096962728 0.017654692)
(0.19477869 0.099867706 0.017374856)
(0.21293843 0.10242315 0.017080932)
(0.23178898 0.10469435 0.016799281)
(0.2512725 0.10668434 0.01650006)
(0.27136474 0.1083408 0.0162293)
(0.29208987 0.10971335 0.015935744)
(0.31338262 0.11077164 0.015672633)
(0.33524404 0.11154806 0.015389436)
(0.35764343 0.11199788 0.015132293)
(0.38058842 0.1121581 0.01486895)
(0.40403425 0.11204023 0.014614896)
(0.42796902 0.11159262 0.014361482)
(0.45239825 0.11087641 0.014121233)
(0.47728406 0.10986037 0.013886517)
(0.50261144 0.10856474 0.013650827)
(0.52837988 0.10697948 0.013423396)
(0.55456666 0.10510043 0.013198514)
(0.58116024 0.10296796 0.012976404)
(0.60813829 0.10053533 0.012755587)
(0.63551365 0.097846237 0.01253421)
(0.66324188 0.09488072 0.012323369)
(0.69133168 0.091651469 0.012108992)
(0.71975119 0.088152956 0.011891521)
(0.74850697 0.084410395 0.011680772)
(0.77757344 0.080398977 0.011465643)
(0.8069364 0.076152658 0.011251964)
(0.8365896 0.07165823 0.011040422)
(0.86651399 0.066927579 0.010826613)
(0.89670174 0.06196607 0.010616585)
(0.92713612 0.056778969 0.010405858)
(0.95780923 0.051372303 0.01019745)
(0.98870549 0.045753917 0.0099900316)
(1.0198164 0.039927938 0.0097855646)
(1.0511292 0.033903831 0.0095821824)
(1.0826345 0.027685262 0.0093824462)
(1.1143215 0.021282065 0.009184795)
(1.1461808 0.014697924 0.008991075)
(1.1782032 0.0079428208 0.0088004158)
(1.2103794 0.0010206303 0.0086143378)
(1.2427013 -0.006059427 0.0084326203)
(1.2751609 -0.013292358 0.0082562029)
(1.3077503 -0.020670398 0.0080851598)
(1.340463 -0.02818736 0.0079206932)
(1.3732908 -0.035837769 0.0077629576)
(1.4062312 -0.04361573 0.0076125314)
(1.439272 -0.051510022 0.0074686889)
(1.4724191 -0.059531161 0.0073349778)
(1.5056658 -0.0676538 0.0072071778)
(1.5389909 -0.075888605 0.0070897143)
(1.5724133 -0.084225861 0.0069794889)
(1.6059149 -0.092666534 0.0068751864)
(1.6395061 -0.1012034 0.0067753797)
(1.6731755 -0.10983692 0.0066819294)
(1.7069306 -0.11856364 0.0065897219)
(1.7407578 -0.12738637 0.0065034279)
(1.7746687 -0.13629419 0.0064157109)
(1.8086466 -0.1453058 0.0063328192)
(1.8427041 -0.15438632 0.0062432826)
(1.8768225 -0.16358321 0.0061609392)
(1.9110147 -0.17283167 0.006065497)
(1.9452615 -0.18220477 0.0059805273)
(1.9795694 -0.19162292 0.0058789448)
(2.0139307 -0.20115159 0.0057867919)
(2.0483357 -0.2107411 0.0056808843)
(2.0827809 -0.22041315 0.0055814817)
(2.1172655 -0.23014907 0.0054688396)
(2.1517784 -0.2399663 0.0053682896)
(2.1863193 -0.24984146 0.0052575426)
(2.2208709 -0.25977312 0.0051492464)
(2.2554421 -0.26976278 0.005041807)
(2.2899994 -0.27981523 0.0049465696)
(2.3245852 -0.28988063 0.0048231174)
(2.3591354 -0.30001857 0.0047423587)
(2.3936873 -0.31022255 0.0046294185)
(2.4282675 -0.320388 0.0045037917)
(2.462801 -0.33078134 0.0043656919)
(0.0013990838 0.0070598885 0.010336907)
(0.0034152413 0.010597085 0.012111102)
(0.0066780033 0.016649124 0.014153247)
(0.0099546031 0.021209766 0.015549761)
(0.014440854 0.026551017 0.016322423)
(0.01980216 0.031389821 0.01681949)
(0.026281379 0.03650164 0.017081063)
(0.033609347 0.041275574 0.017212643)
(0.042011462 0.04607395 0.017252335)
(0.051340858 0.050613359 0.017105537)
(0.061554562 0.055069159 0.017054789)
(0.072682396 0.059257627 0.016801854)
(0.084642234 0.063301864 0.016666444)
(0.097476586 0.067060529 0.016397262)
(0.11108381 0.0706232 0.016226913)
(0.12553847 0.073904828 0.015918987)
(0.14066525 0.076961251 0.015744992)
(0.1566476 0.079711105 0.015460961)
(0.17327268 0.082220089 0.015242542)
(0.19065298 0.084426561 0.014981814)
(0.20867558 0.086364416 0.014756934)
(0.22739992 0.088019313 0.014491168)
(0.24672659 0.089381004 0.014273945)
(0.26671578 0.090456352 0.014027656)
(0.28728032 0.091233245 0.013803718)
(0.30844332 0.091747052 0.013562647)
(0.33015516 0.091944845 0.01334742)
(0.35242779 0.091869268 0.013130329)
(0.37521982 0.091510904 0.012908949)
(0.39852317 0.09086134 0.012699373)
(0.42232395 0.08993264 0.012502456)
(0.44660497 0.088725656 0.012298399)
(0.47133692 0.087247027 0.012102044)
(0.49652621 0.085481502 0.011913153)
(0.52215321 0.083450034 0.011723221)
(0.54819898 0.081150909 0.011541548)
(0.57465864 0.078576541 0.011358667)
(0.60151083 0.075740884 0.011182677)
(0.62873331 0.07264261 0.011006546)
(0.65633206 0.069294836 0.01083261)
(0.68427848 0.065679454 0.010652433)
(0.71257167 0.061830348 0.010484367)
(0.74119687 0.057715123 0.010301224)
(0.77012957 0.053373894 0.010134302)
(0.79937189 0.048791733 0.0099557663)
(0.82890289 0.043976794 0.009784191)
(0.85870922 0.038936681 0.009609576)
(0.88878146 0.033676546 0.009438814)
(0.91910485 0.028200704 0.0092647927)
(0.94966858 0.022517452 0.0090956244)
(0.9804599 0.016631744 0.0089246022)
(1.0114687 0.010549385 0.0087570031)
(1.042683 0.0042790048 0.0085894699)
(1.0740927 -0.0021762493 0.0084252322)
(1.1056876 -0.0088061586 0.0082618797)
(1.1374579 -0.015607686 0.0081021748)
(1.1693944 -0.022570931 0.007944174)
(1.2014879 -0.029692669 0.0077906265)
(1.2337301 -0.036962898 0.0076396924)
(1.2661129 -0.04437858 0.0074936108)
(1.298628 -0.051930448 0.0073519506)
(1.3312693 -0.059614291 0.0072153391)
(1.3640286 -0.067424878 0.0070852544)
(1.3969017 -0.075352559 0.0069590057)
(1.4298807 -0.083396224 0.0068416935)
(1.4629698 -0.091551984 0.00673006)
(1.4961324 -0.099802708 0.0066267892)
(1.5294025 -0.10817084 0.0065313102)
(1.562768 -0.11663484 0.0064314182)
(1.5962205 -0.12519768 0.0063456688)
(1.6297621 -0.1338484 0.006259816)
(1.6633812 -0.14259816 0.0061848978)
(1.697088 -0.15142996 0.0061066369)
(1.7308671 -0.16036425 0.0060404734)
(1.7647362 -0.16936992 0.0059628095)
(1.7986662 -0.17848668 0.0059027755)
(1.832688 -0.18765811 0.0058207727)
(1.8667607 -0.19695383 0.0057639865)
(1.9009237 -0.20628477 0.0056741549)
(1.9351256 -0.21575182 0.005618768)
(1.9694152 -0.2252396 0.0055201636)
(2.0037342 -0.23485628 0.0054586655)
(2.038123 -0.24451001 0.0053648585)
(2.0725416 -0.25426231 0.005280635)
(2.1070244 -0.2640546 0.0051852387)
(2.1415098 -0.2739355 0.0051068179)
(2.176043 -0.28385653 0.0050091292)
(2.2105751 -0.29383993 0.004925058)
(2.2451374 -0.3038964 0.0048369647)
(2.2796939 -0.31395502 0.0047327893)
(2.3142652 -0.3241117 0.0046508084)
(2.3488034 -0.33428571 0.004549843)
(2.3833782 -0.34450531 0.0044381898)
(2.4179131 -0.35478925 0.0043212889)
(2.4524975 -0.36515381 0.0041825737)
(-0.00039168156 0.0055877153 0.0089796291)
(0.0015331862 0.0088066081 0.010285862)
(0.0037580806 0.013435 0.012423334)
(0.0073474339 0.017644381 0.013289468)
(0.01168572 0.022020933 0.013835849)
(0.017235566 0.026403634 0.014180456)
(0.023471264 0.030570835 0.014390922)
(0.030958477 0.03473575 0.014491829)
(0.039226455 0.038637047 0.014383416)
(0.048495484 0.04256546 0.014411632)
(0.058626748 0.046123412 0.014198437)
(0.069694629 0.04968921 0.014129006)
(0.081559273 0.05286523 0.013892435)
(0.094284941 0.055996506 0.01378353)
(0.10781674 0.058753167 0.013512843)
(0.12210428 0.061391818 0.013403348)
(0.13720215 0.063680093 0.013145215)
(0.15300142 0.065802339 0.0129856)
(0.16953731 0.067598265 0.012763913)
(0.1867753 0.069174253 0.012589776)
(0.20469306 0.070462242 0.012372468)
(0.22326704 0.071476029 0.012202544)
(0.24248734 0.072230542 0.01199628)
(0.26231411 0.072692637 0.011819169)
(0.28275138 0.072907726 0.011619881)
(0.3037619 0.072821108 0.011450127)
(0.32534196 0.072476148 0.011269519)
(0.34745772 0.071859579 0.011091392)
(0.37010773 0.070964414 0.010922549)
(0.39326348 0.069802461 0.010764499)
(0.41691688 0.068371888 0.010596001)
(0.44104241 0.066678715 0.010440011)
(0.46563932 0.064713061 0.010290323)
(0.49068379 0.06249003 0.010140139)
(0.5161612 0.060007536 0.0099954844)
(0.54206069 0.05726529 0.0098526494)
(0.56835784 0.054274487 0.0097172644)
(0.59504374 0.051028646 0.0095832531)
(0.62214207 0.047531426 0.0094453027)
(0.64959547 0.043778115 0.009303539)
(0.677411 0.039798744 0.009176227)
(0.70557126 0.035569202 0.0090302806)
(0.7340581 0.031109939 0.008907896)
(0.76286829 0.026420187 0.0087704547)
(0.79198317 0.021501646 0.0086360107)
(0.82138807 0.016366294 0.008504051)
(0.85107387 0.011014832 0.0083697505)
(0.88102756 0.0054546592 0.0082360554)
(0.91123553 -0.0003098212 0.008103132)
(0.94168664 -0.0062712609 0.0079710676)
(0.97236977 -0.012425232 0.0078379829)
(1.0032722 -0.018764366 0.0077078337)
(1.0343845 -0.025282899 0.0075766391)
(1.0656948 -0.031975299 0.0074482302)
(1.097194 -0.038833443 0.0073199818)
(1.1288713 -0.045853552 0.0071943109)
(1.1607182 -0.053026634 0.0070699263)
(1.192725 -0.060348999 0.0069485623)
(1.2248836 -0.067811922 0.0068288463)
(1.2571854 -0.075411853 0.0067134596)
(1.2896228 -0.083140466 0.0066002978)
(1.3221887 -0.090994316 0.006491847)
(1.3548755 -0.098966166 0.0063874969)
(1.3876784 -0.10705044 0.0062861845)
(1.4205916 -0.11524677 0.0061930643)
(1.4536029 -0.12354503 0.006100573)
(1.4867328 -0.13193242 0.0060214944)
(1.5199431 -0.14043851 0.0059323856)
(1.5532472 -0.14904014 0.0058673659)
(1.5866412 -0.15771865 0.0057983569)
(1.6201217 -0.16649625 0.0057340417)
(1.6536875 -0.17535582 0.0056746083)
(1.6873414 -0.18430666 0.0056144472)
(1.7210745 -0.1933376 0.0055588403)
(1.7548899 -0.20245864 0.0055029335)
(1.7887804 -0.21165946 0.0054508987)
(1.8227526 -0.22094308 0.0053935801)
(1.8567901 -0.2303102 0.005342936)
(1.8909069 -0.23974981 0.0052822921)
(1.925081 -0.249276 0.0052302832)
(1.9593283 -0.25886067 0.0051627082)
(1.9936212 -0.26854524 0.0051141283)
(2.0279781 -0.27826055 0.0050352867)
(2.0623783 -0.28808504 0.0049826649)
(2.0968186 -0.29793694 0.0049088832)
(2.1312934 -0.3078719 0.0048499097)
(2.165802 -0.31783743 0.0047662479)
(2.2003269 -0.32789489 0.0047106188)
(2.2348822 -0.33795227 0.0046163543)
(2.2694242 -0.34809845 0.0045593691)
(2.30399 -0.35827526 0.0044707678)
(2.3385403 -0.36847407 0.0043866696)
(2.3730998 -0.3787642 0.0042911976)
(2.4076512 -0.38903981 0.0041796855)
(2.442217 -0.39939867 0.0040524054)
(-0.0014515815 0.0049668826 0.0074699002)
(-0.00038305573 0.0069183658 0.0087885459)
(0.0018706248 0.01079816 0.01006412)
(0.0052299811 0.014008711 0.0107243)
(0.0096130426 0.017788593 0.011132614)
(0.014842435 0.021217919 0.011447139)
(0.021273575 0.024797444 0.011571392)
(0.028552647 0.028068018 0.011528182)
(0.036787735 0.03139111 0.011626358)
(0.045992497 0.034400153 0.011452831)
(0.056072918 0.037346984 0.011446635)
(0.067018125 0.040046442 0.011248361)
(0.078796382 0.042585961 0.011204877)
(0.091459938 0.044908343 0.010970398)
(0.10482331 0.046993722 0.010925279)
(0.11908231 0.048883427 0.010699662)
(0.13399229 0.050512244 0.010600795)
(0.14972068 0.051919828 0.010427278)
(0.16610361 0.053060128 0.010301118)
(0.18323759 0.053971782 0.010133865)
(0.20098992 0.054605831 0.01000859)
(0.21945101 0.055007593 0.0098503515)
(0.23850102 0.055132361 0.009717689)
(0.25820874 0.055015884 0.0095722518)
(0.27848522 0.054619797 0.0094433276)
(0.29936184 0.053975643 0.0093100528)
(0.32078167 0.053075197 0.009175137)
(0.34275968 0.051903921 0.0090551206)
(0.36525117 0.050482966 0.0089336074)
(0.38826214 0.048805016 0.0088100309)
(0.41175629 0.046873038 0.0086973513)
(0.43573955 0.044682849 0.0085885229)
(0.46017971 0.042246273 0.0084773615)
(0.48506981 0.039561762 0.0083731655)
(0.51040016 0.036619681 0.0082696079)
(0.53614664 0.033448434 0.0081682451)
(0.56232038 0.030009765 0.0080679708)
(0.58891417 0.026349775 0.0079610626)
(0.61584487 0.022439216 0.0078668122)
(0.64315966 0.01831672 0.0077821159)
(0.67083005 0.013947942 0.0076807092)
(0.69884856 0.0093520706 0.0075953389)
(0.72719971 0.0045389165 0.0074967278)
(0.75587038 -0.00049681066 0.0074015)