/*--------------------------------*- C++ -*----------------------------------*\
  =========                 |
  \\      /  F ield         | OpenFOAM: The Open Source CFD Toolbox
   \\    /   O peration     | Website:  https://openfoam.org
    \\  /    A nd           | Version:  6
     \\/     M anipulation  |
\*---------------------------------------------------------------------------*/
FoamFile
{
    version     2.0;
    format      ascii;
    class       pointVectorField;
    location    "0.92";
    object      u;
}
// * * * * * * * * * * * * * * * * * * * * * * * * * * * * * * * * * * * * * //

dimensions      [0 1 0 0 0 0 0];

internalField   nonuniform List<vector> 
3969
(
(0 -4.0711714e-20 0)
(0 -2.1818694e-19 0)
(-0.0077475737 0.019981126 0.026776061)
(-0.0080056423 -0.0027148333 0.023535345)
(0 2.2284587e-18 0)
(0 1.797414e-18 0)
(-0.0048708759 -0.0085802701 0.023503094)
(-0.0046307083 0.014117276 0.026781656)
(0 9.5414394e-20 0)
(0 5.752854e-19 0)
(0 2.5036179e-19 0)
(-1.4381577e-18 -1.2949524e-19 0)
(0 6.8901038e-19 0)
(0 -3.9648888e-19 0)
(0 -3.8709933e-19 0)
(-0.0077844426 0.017133791 0.02636118)
(-0.0078373909 0.01430288 0.025945868)
(-0.0078772293 0.011475975 0.0255428)
(-0.0079140146 0.0086621507 0.025143544)
(-0.0079385189 0.0058443219 0.024750958)
(-0.0079540436 0.0030103982 0.024351648)
(-0.0079731913 0.00015646124 0.023947235)
(-0.0010457073 -0.0020215342 -0.0019626271)
(-0.0020591213 -0.0034095094 -0.0022376281)
(-0.0038791743 -0.0045222895 -0.0020763285)
(-0.0060249515 -0.0058071224 -0.0017266632)
(-0.0087088939 -0.0066458286 -0.0012662358)
(-0.011545833 -0.0075796576 -0.0007685384)
(-0.014814003 -0.0081186292 -0.00022524856)
(-0.018091678 -0.0086390861 0.00031806098)
(-0.021648246 -0.0087999293 0.00088832222)
(-0.025179058 -0.0089420206 0.0014456875)
(-0.028806712 -0.0087257936 0.0020429104)
(-0.032375257 -0.0084838981 0.0026379727)
(-0.03588213 -0.0079235199 0.0032181727)
(-0.039264166 -0.0072996199 0.0038493494)
(-0.04245444 -0.0064469884 0.0044436425)
(-0.045471038 -0.0055075915 0.0050693026)
(-0.048214439 -0.0044000392 0.0056932051)
(-0.050712494 -0.0032153903 0.0063229008)
(-0.05289019 -0.0019100111 0.0069673767)
(-0.05477021 -0.00054852997 0.0076131699)
(-0.056303475 0.00087789091 0.0082833903)
(-0.057509833 0.0023338789 0.008956441)
(-0.058358985 0.0038123217 0.0096505954)
(-0.058870103 0.005283218 0.01035296)
(-0.059029258 0.0067299939 0.011066531)
(-0.058856875 0.0081541855 0.011785952)
(-0.0583512 0.009524553 0.012509709)
(-0.05752777 0.010823819 0.013229616)
(-0.056400916 0.012063701 0.013947709)
(-0.055000522 0.013205648 0.014661734)
(-0.053337961 0.014270906 0.01536848)
(-0.051445729 0.015232926 0.016072525)
(-0.049347697 0.01610158 0.016771394)
(-0.047070619 0.016870247 0.017465652)
(-0.044641668 0.017539689 0.018161764)
(-0.04208211 0.018115403 0.018847437)
(-0.039418317 0.018600257 0.019532334)
(-0.036667337 0.018996122 0.02020981)
(-0.033846806 0.019318569 0.020874951)
(-0.030979553 0.019565566 0.021538208)
(-0.02806888 0.019757275 0.022183949)
(-0.025146292 0.019891493 0.022832713)
(-0.022202923 0.019974737 0.02346831)
(-0.019276726 0.020034449 0.024115118)
(-0.016355023 0.020046136 0.024762688)
(-0.013461908 0.020042822 0.02542589)
(-0.010595899 0.020013585 0.026098965)
(-0.00098303207 0.0026441603 0.003291566)
(-0.0029256039 0.0042828967 0.0030340057)
(-0.0049419029 0.006214688 0.0031332763)
(-0.0070660942 0.007494178 0.0030222943)
(-0.0098580502 0.0091550891 0.0027086766)
(-0.012794886 0.010330333 0.0024807893)
(-0.015994087 0.011522042 0.00219157)
(-0.019405089 0.012375281 0.0019492119)
(-0.022947156 0.013191896 0.0017144206)
(-0.026500616 0.013640166 0.0015223065)
(-0.030180627 0.014114596 0.0013609663)
(-0.033718088 0.014215428 0.0012250418)
(-0.037255469 0.014304126 0.0011588202)
(-0.040619182 0.014159308 0.0011194289)
(-0.043831554 0.013904824 0.0011500306)
(-0.046822999 0.013509881 0.0012235414)
(-0.049567582 0.013014756 0.0013758333)
(-0.052027712 0.012410036 0.0015773064)
(-0.054204749 0.011747357 0.0018591304)
(-0.056015713 0.010984431 0.0022033123)
(-0.057549154 0.010207628 0.0026197072)
(-0.05866788 0.009353376 0.0031041907)
(-0.0594941 0.008498899 0.0036591776)
(-0.059914892 0.0075972991 0.00427571)
(-0.060039636 0.0067190247 0.0049403129)
(-0.059782929 0.0058219337 0.0056638418)
(-0.059254001 0.0049652957 0.0064285714)
(-0.058359587 0.0041018138 0.007234219)
(-0.057188488 0.0032961344 0.0080614416)
(-0.055741789 0.0025282605 0.0089212897)
(-0.054034865 0.0018058647 0.0097966118)
(-0.052108589 0.0011418796 0.01068679)
(-0.049969043 0.00053211049 0.011585869)
(-0.047657784 -1.5773105e-05 0.012486345)
(-0.045190449 -0.00050366439 0.01338461)
(-0.042594913 -0.00093705585 0.014273387)
(-0.039893979 -0.0013085855 0.01515098)
(-0.037114019 -0.0016278052 0.01600575)
(-0.034267286 -0.001897795 0.01684524)
(-0.031375913 -0.0021162203 0.017653921)
(-0.028452491 -0.0022959217 0.018448006)
(-0.025514705 -0.0024292848 0.019210791)
(-0.022566093 -0.0025311947 0.019962854)
(-0.019626925 -0.0025968271 0.020689429)
(-0.016692365 -0.0026436901 0.021412112)
(-0.013779267 -0.0026697226 0.022120747)
(-0.010880394 -0.002688576 0.022828872)
(0 -2.4874016e-20 0)
(0 2.9363118e-19 0)
(0 -3.4779287e-19 0)
(7.0859236e-19 -7.2127964e-20 0)
(0 -5.9575576e-19 0)
(0 -2.7594007e-19 0)
(0 -2.3223543e-19 0)
(-0.001497834 0.0016490228 -0.0025124951)
(-0.0027543165 0.0046623581 -0.0030403828)
(-0.0042875872 0.0051882327 -0.0027457659)
(-0.0066819887 0.007092436 -0.0026603484)
(-0.009219752 0.0082724883 -0.0022311234)
(-0.012069166 0.009364233 -0.0018569531)
(-0.015197478 0.010322073 -0.0013561302)
(-0.018512063 0.011126848 -0.00098921535)
(-0.021886285 0.011536626 -0.00039812324)
(-0.025411137 0.012070885 -5.9973651e-05)
(-0.028907429 0.012046602 0.0005673506)
(-0.032378395 0.012102331 0.0010190566)
(-0.0358774 0.011929454 0.0015785891)
(-0.039038576 0.011444212 0.002112491)
(-0.042265177 0.011117844 0.0026292278)
(-0.045061949 0.010287774 0.0032079688)
(-0.047787814 0.0096919679 0.003729286)
(-0.050111082 0.0087061341 0.0043087779)
(-0.052220184 0.0078476799 0.004857868)
(-0.053958828 0.0067765197 0.0054431664)
(-0.055404804 0.0057544334 0.0060225702)
(-0.056489941 0.0046310282 0.0066304125)
(-0.057248185 0.0035416036 0.0072377898)
(-0.057659275 0.0024225385 0.0078678009)
(-0.057721249 0.001323447 0.0084908723)
(-0.057419081 0.00025764448 0.0091036564)
(-0.056833399 -0.00080620023 0.0097585849)
(-0.055928443 -0.0017877603 0.01039215)
(-0.054721386 -0.0027273203 0.011036232)
(-0.053237378 -0.0035919274 0.01167264)
(-0.051497566 -0.0043874546 0.012304683)
(-0.049529941 -0.0051056687 0.012940844)
(-0.047356736 -0.0057507609 0.013577686)
(-0.045008308 -0.0063094621 0.014217237)
(-0.042510785 -0.0067921842 0.014859459)
(-0.03987817 -0.0072105125 0.015511377)
(-0.037145401 -0.0075357776 0.016152728)
(-0.034337548 -0.0078191452 0.016812446)
(-0.031451781 -0.0080232907 0.017453398)
(-0.028519225 -0.0081906907 0.018105928)
(-0.025555493 -0.0083053102 0.01874839)
(-0.022565859 -0.008391198 0.01939486)
(-0.019576025 -0.008447645 0.020045406)
(-0.016588906 -0.0084844984 0.020703339)
(-0.013620319 -0.0085126884 0.021377426)
(-0.010677997 -0.0085289033 0.022067577)
(-0.0077626857 -0.0085570903 0.022780057)
(-0.0048380756 -0.0057004489 0.023898601)
(-0.0048366871 -0.0028207503 0.024303517)
(-0.00480765 1.9582707e-06 0.024714038)
(-0.0048042946 0.0028407303 0.025133787)
(-0.004752123 0.0056304571 0.025554848)
(-0.0047174306 0.0084598382 0.025970677)
(-0.0046647683 0.011278726 0.026379819)
(-0.0074656189 0.0141527 0.02602622)
(-0.010327517 0.014176003 0.025274554)
(-0.013207339 0.014166688 0.024520691)
(-0.016119928 0.014125909 0.023748937)
(-0.019048722 0.01403511 0.022963809)
(-0.021991963 0.013897417 0.022154468)
(-0.024938472 0.013703074 0.021321776)
(-0.027878412 0.013450697 0.020460363)
(-0.03079528 0.013134384 0.019569882)
(-0.033680963 0.012758434 0.018650467)
(-0.036505426 0.012303594 0.017706796)
(-0.039238988 0.011782959 0.016746283)
(-0.041906869 0.011182215 0.015759431)
(-0.044433828 0.010512285 0.014766407)
(-0.046815502 0.0097605435 0.01376379)
(-0.049021829 0.0089320272 0.012764913)
(-0.051026459 0.0080266902 0.011771708)
(-0.052803549 0.0070501552 0.010789486)
(-0.05432731 0.0060061666 0.0098286259)
(-0.05557343 0.0049029642 0.0088908954)
(-0.056522169 0.0037567301 0.0079828383)
(-0.057153981 0.0025640742 0.0071195246)
(-0.057452384 0.0013576267 0.0062948862)
(-0.057411894 0.00012350146 0.0055284194)
(-0.057017114 -0.0010918152 0.0048110173)
(-0.05626693 -0.002316155 0.0041705137)
(-0.055166252 -0.0034860199 0.0035792352)
(-0.053710596 -0.0046457901 0.0030805207)
(-0.051921578 -0.0057155088 0.0026281076)
(-0.049803518 -0.0067471635 0.0022711714)
(-0.047389165 -0.0076623198 0.0019624992)
(-0.044690412 -0.0084973713 0.0017312908)
(-0.041757736 -0.0091952458 0.0015647469)
(-0.038610398 -0.009794604 0.0014495207)
(-0.035289751 -0.010201293 0.0013884768)
(-0.031843276 -0.01047933 0.0013971048)
(-0.028350365 -0.010560859 0.0014096391)
(-0.024790425 -0.010537745 0.0015183322)
(-0.02131074 -0.010246982 0.0016023363)
(-0.017862009 -0.0098871821 0.0017552131)
(-0.014637067 -0.0091393363 0.0019031769)
(-0.011428494 -0.0084995799 0.0021444251)
(-0.0087039689 -0.0073389149 0.0022576835)
(-0.0061137433 -0.0063772019 0.0025012053)
(-0.0039522443 -0.0049969664 0.002502548)
(-0.0024189186 -0.0035032807 0.0023748732)
(-0.0017285626 -0.0022579404 0.0017238678)
(0 3.0134277e-19 0)
(0 2.3555894e-19 0)
(0 -1.220665e-19 0)
(0 -8.0208048e-19 4.0139955e-19)
(0 -7.0423372e-19 0)
(0 -1.5483635e-19 0)
(0 7.4044128e-19 0)
(0 1.0259797e-18 0)
(0 9.7801816e-19 0)
(0 9.2928394e-19 0)
(0 8.0258357e-19 -9.8594019e-20)
(0 2.1681217e-18 0)
(0 9.504746e-19 0)
(0 -1.7512697e-19 0)
(-0.0076115553 -0.0034336215 0.023534962)
(-0.0072152933 -0.0041644886 0.023534864)
(-0.0068170864 -0.0049019338 0.023534907)
(-0.0064181509 -0.0056439055 0.023531787)
(-0.0060260335 -0.006384634 0.023527516)
(-0.0056355487 -0.0071205559 0.02351651)
(-0.005252852 -0.0078516339 0.023508144)
(-0.0073476146 0.019292186 0.026780134)
(-0.0069488532 0.018587342 0.026784426)
(-0.0065559796 0.017867537 0.026789527)
(-0.0061678712 0.017133169 0.026788723)
(-0.0057835472 0.016388789 0.02678608)
(-0.0054021976 0.015635869 0.026784313)
(-0.0050176721 0.014880704 0.02678279)
(-0.0022353532 -0.0017584428 -0.0015978148)
(-0.0052536991 -0.0029940123 -0.0014436425)
(-0.008771464 -0.0044279194 -0.001371934)
(-0.012628875 -0.0056911873 -0.0011015407)
(-0.016823973 -0.0068645337 -0.00076908097)
(-0.021109794 -0.0078449667 -0.00037431063)
(-0.025630113 -0.0087349916 8.5189925e-05)
(-0.029972585 -0.0093089103 0.00051250323)
(-0.034398729 -0.0097778951 0.00098742308)
(-0.038571607 -0.0099835988 0.0014840837)
(-0.042632782 -0.0099559433 0.0019930643)
(-0.046351717 -0.0097532206 0.0024777066)
(-0.049827982 -0.0092677538 0.003037137)
(-0.052891967 -0.0086403487 0.0035584352)
(-0.055589835 -0.0077741223 0.0041128325)
(-0.05784547 -0.006745193 0.0046730976)
(-0.059645926 -0.0055333905 0.0052391836)
(-0.060986741 -0.0041943008 0.0058222295)
(-0.061848642 -0.0027116617 0.0064126823)
(-0.062244888 -0.0011433799 0.0070219863)
(-0.062181028 0.00050685517 0.0076478036)
(-0.061681834 0.0022051804 0.0082885584)
(-0.060757536 0.0039301885 0.0089494809)
(-0.05946126 0.0056434119 0.0096277809)
(-0.057795495 0.0073452719 0.010321697)
(-0.055818616 0.0089854888 0.011018668)
(-0.053569215 0.010564643 0.011732323)
(-0.051081898 0.012058933 0.012450319)
(-0.048408788 0.01344934 0.013168347)
(-0.045600184 0.0147297 0.013889802)
(-0.04269522 0.015890321 0.014610609)
(-0.03974724 0.016915757 0.015332007)
(-0.036799681 0.017810685 0.016052112)
(-0.033892227 0.018562431 0.016773558)
(-0.031064004 0.019175493 0.017490998)
(-0.028346119 0.019649876 0.018206008)
(-0.025762978 0.019981447 0.018918377)
(-0.02333516 0.020185459 0.019618855)
(-0.021071999 0.020264186 0.020314636)
(-0.018987788 0.020225656 0.021001989)
(-0.01707193 0.020087081 0.021673824)
(-0.015336926 0.0198464 0.022346135)
(-0.013755333 0.019534787 0.023005003)
(-0.012340575 0.019146524 0.023671299)
(-0.01104809 0.018701936 0.024332983)
(-0.0098817076 0.018214451 0.025007586)
(-0.0088020486 0.017684077 0.025681406)
(-0.0025676789 -0.0014426572 -0.00092148651)
(-0.0063292534 -0.0025267877 -0.00084244026)
(-0.010645812 -0.0038387355 -0.00075390057)
(-0.01518516 -0.0050469067 -0.00056624956)
(-0.020047338 -0.0060569234 -0.00027430465)
(-0.025049497 -0.0070640659 4.5165482e-05)
(-0.030001657 -0.007788102 0.00038612533)
(-0.034911566 -0.0084269315 0.00070483094)
(-0.039682967 -0.008833226 0.0011456022)
(-0.04421056 -0.0090691398 0.0015127201)
(-0.048403408 -0.0090441309 0.001903739)
(-0.052287817 -0.0088879512 0.0023647495)
(-0.055720071 -0.0084374075 0.0027960893)
(-0.058701746 -0.0078722728 0.003258086)
(-0.061180461 -0.0070403988 0.0037481757)
(-0.063141839 -0.0060796192 0.0042309553)
(-0.064556294 -0.0049165859 0.0047479713)
(-0.065434072 -0.0036334131 0.0052752622)
(-0.065748433 -0.002202739 0.0058228215)
(-0.065541859 -0.00068995752 0.0063969821)
(-0.064810232 0.00090993199 0.0069891139)
(-0.063596035 0.002562549 0.0076014378)
(-0.061945249 0.0042229562 0.0082484468)
(-0.059876985 0.0059059601 0.0089063706)
(-0.057450574 0.007541989 0.009585888)
(-0.054730316 0.0091386545 0.010292716)
(-0.05174388 0.01066446 0.011007417)
(-0.04856254 0.012092065 0.011729961)
(-0.045248013 0.013428654 0.01246537)
(-0.041845303 0.014639172 0.013202001)
(-0.038420071 0.015726745 0.013941884)
(-0.035030545 0.016674499 0.014686241)
(-0.031721759 0.017480026 0.015428962)
(-0.028548523 0.018138817 0.016171887)
(-0.025547766 0.018645997 0.01691249)
(-0.022758265 0.019002866 0.017651342)
(-0.020199479 0.019211704 0.018379718)
(-0.017899838 0.019277861 0.019103233)
(-0.015858031 0.019207101 0.019815468)
(-0.014092209 0.019008206 0.020515731)
(-0.012578286 0.018696581 0.02120556)
(-0.011332571 0.018275279 0.021890247)
(-0.010305893 0.01777004 0.022562385)
(-0.0095120083 0.017179241 0.023238508)
(-0.0088875239 0.016530071 0.023910177)
(-0.0084324444 0.015823673 0.02458926)
(-0.0080885924 0.015075168 0.02526995)
(-0.0017927785 -0.00075360733 -0.00025852731)
(-0.0047571724 -0.0013262888 -0.00014204695)
(-0.0083489296 -0.0020402144 -5.3624268e-05)
(-0.012250295 -0.0026431761 0.00010013428)
(-0.016625003 -0.0032094598 0.0003111565)
(-0.020932154 -0.0036442762 0.00048579403)
(-0.025551984 -0.0040867179 0.00072773162)
(-0.030001311 -0.0042962159 0.00099553164)
(-0.034525526 -0.0045293253 0.0012783363)
(-0.038731903 -0.0045223326 0.0015080896)
(-0.042922149 -0.0044572314 0.0018870486)
(-0.046708868 -0.004256565 0.0022042194)
(-0.050258125 -0.0038904831 0.0025514551)
(-0.053401003 -0.0034393158 0.0029474451)
(-0.056163562 -0.0028295914 0.003353523)
(-0.058471574 -0.0021277984 0.0037689429)
(-0.060325002 -0.0012997448 0.0042387036)
(-0.061697261 -0.00038814275 0.0046947144)
(-0.062584585 0.00061092721 0.0052157581)
(-0.063006683 0.0016687884 0.0057387337)
(-0.062950372 0.00278934 0.0063054923)
(-0.062466554 0.0039172871 0.0069031673)
(-0.061531936 0.0050881112 0.0075286927)
(-0.060214838 0.0062253988 0.0081743645)
(-0.05854116 0.00735352 0.0088660796)
(-0.056537412 0.0084408901 0.0095585749)
(-0.054243914 0.0094756272 0.010270314)
(-0.051727646 0.010447097 0.011006181)
(-0.049012491 0.011347061 0.011744514)
(-0.046161249 0.012160466 0.012493028)
(-0.043218922 0.012887091 0.013251954)
(-0.04023024 0.013517428 0.014011095)
(-0.037241051 0.014046987 0.014775551)
(-0.034295988 0.014477693 0.015538668)
(-0.031428445 0.01479653 0.016304613)
(-0.028672597 0.015019976 0.017060427)
(-0.026053669 0.015131836 0.017815239)
(-0.023590569 0.015152232 0.018558377)
(-0.021297368 0.015072764 0.019290683)
(-0.019184695 0.014908555 0.020014839)
(-0.017249003 0.014665277 0.020723234)
(-0.015492819 0.014347906 0.021427217)
(-0.013896438 0.013976563 0.0221134)
(-0.012465013 0.013543951 0.022808648)
(-0.011160406 0.013078129 0.023486308)
(-0.0099819003 0.012567268 0.024180246)
(-0.0088844667 0.01203089 0.024860197)
(9.6466368e-05 0.00027496114 0.00030733568)
(-0.0010444746 0.00047666796 0.00049183423)
(-0.003057689 0.00067649397 0.00060205088)
(-0.0053694245 0.00091453646 0.00071765347)
(-0.0081518001 0.0011953766 0.00077912784)
(-0.011297678 0.0014189283 0.00093042928)
(-0.014612118 0.0016718878 0.0010672064)
(-0.018218955 0.0019409826 0.0012059363)
(-0.021839459 0.0021696479 0.0013587876)
(-0.02565479 0.0024417131 0.0016093901)
(-0.029404585 0.0026571603 0.0018176364)
(-0.0331369 0.0029256026 0.0020313885)
(-0.036798556 0.0032066223 0.0023214805)
(-0.040283068 0.0034219837 0.0026212572)
(-0.043634392 0.0037478977 0.0029256159)
(-0.046713203 0.003987308 0.0032993357)
(-0.049578716 0.0043192342 0.0036691215)
(-0.052122857 0.0045991521 0.0041020634)
(-0.054376735 0.0049170554 0.0045623246)
(-0.056282351 0.0052324992 0.0050521573)
(-0.057839118 0.0055363998 0.0055978803)
(-0.059026118 0.0058612236 0.0061621402)
(-0.059864799 0.0061521721 0.0067708807)
(-0.060348766 0.0064489246 0.0074217734)
(-0.060465037 0.0067341127 0.008091674)
(-0.060235515 0.0070009533 0.008790059)
(-0.059675689 0.0072530397 0.0095300345)
(-0.058791456 0.0074787846 0.010279049)
(-0.057600924 0.007691963 0.011041441)
(-0.056130693 0.007878586 0.0118235)
(-0.054396829 0.0080496257 0.01260598)
(-0.052431169 0.0081998177 0.013396624)
(-0.050256628 0.0083285135 0.014189042)
(-0.04790546 0.0084420331 0.014981454)
(-0.045396903 0.0085318498 0.015770142)
(-0.04276516 0.0086078108 0.01655248)
(-0.040025271 0.0086618932 0.017328571)
(-0.037208794 0.0087041656 0.018090209)
(-0.034328853 0.0087248746 0.018843604)
(-0.031406005 0.0087408193 0.019576068)
(-0.028442212 0.0087488492 0.020297304)
(-0.025476242 0.0087479849 0.021004476)
(-0.022493236 0.0087481307 0.021703554)
(-0.019534921 0.0087389004 0.022395062)
(-0.016575822 0.0087332969 0.023081709)
(-0.013652176 0.008716918 0.023771181)
(-0.010750461 0.008697114 0.024459281)
(0.001874637 0.001243886 0.00093865484)
(0.0022764978 0.0021140881 0.0012601525)
(0.0020004184 0.0033212675 0.0013120639)
(0.0013794739 0.0044120675 0.0013103623)
(-0.0001055604 0.0054554357 0.0013870607)
(-0.0017002389 0.0065127043 0.0013512722)
(-0.0040064353 0.0072974121 0.00143542)
(-0.0064141607 0.0082012459 0.0013968103)
(-0.0093948363 0.0087370415 0.0015509057)
(-0.012489339 0.0093638602 0.0015841956)
(-0.015940521 0.0097184275 0.0016767634)
(-0.01952601 0.010094875 0.0018421556)
(-0.023284752 0.010204375 0.0020209235)
(-0.027136523 0.010320497 0.0022184836)
(-0.031034727 0.010270227 0.0024792446)
(-0.034927504 0.01013112 0.0027641476)
(-0.038767774 0.0099268036 0.0030981329)
(-0.042502212 0.009605783 0.0034697193)
(-0.046096386 0.0092661147 0.0038896862)
(-0.049495438 0.0088231388 0.0043547087)
(-0.052671639 0.0083807215 0.0048707659)
(-0.055594846 0.0078641839 0.0054284852)
(-0.058210505 0.0073404396 0.0060467766)
(-0.06050466 0.0067921816 0.0066848799)
(-0.062433785 0.0062376524 0.0073714524)
(-0.063997899 0.0056921811 0.0080907868)
(-0.065152739 0.005151568 0.0088358877)
(-0.065899186 0.0046413306 0.0095911673)
(-0.066222977 0.0041612298 0.01037508)
(-0.066121793 0.0037240172 0.011163895)
(-0.065591488 0.0033343539 0.011966369)
(-0.064639052 0.0029999334 0.01277292)
(-0.063272825 0.002720806 0.013586459)
(-0.061506226 0.002511996 0.014393912)
(-0.05935366 0.0023589477 0.015204966)
(-0.056837165 0.0022814061 0.016005137)
(-0.053975422 0.0022640188 0.016798712)
(-0.050794319 0.0023176598 0.017579372)
(-0.047317296 0.0024331941 0.018341335)
(-0.043565384 0.0026233647 0.019092278)
(-0.03959094 0.0028655014 0.019828413)
(-0.035409458 0.0031717907 0.020554659)
(-0.031056521 0.0035324187 0.021261179)
(-0.026567876 0.0039355851 0.021969182)
(-0.021969594 0.0043858485 0.022660472)
(-0.017312752 0.0048570663 0.023363707)
(-0.012612808 0.0053509513 0.024055317)
(0.002448414 0.0019475702 0.0016687058)
(0.0034305603 0.0034029493 0.0018851356)
(0.0038593518 0.0053144745 0.0018477756)
(0.0037587786 0.0068317541 0.0019796793)
(0.0030790894 0.0085721805 0.0017739691)
(0.0019325208 0.0098823645 0.0017964763)
(0.00029517487 0.011217451 0.001655138)
(-0.0018134136 0.012296405 0.0016311003)
(-0.0043164658 0.013159144 0.001603561)
(-0.007213272 0.013913063 0.0015422985)
(-0.010440425 0.014374543 0.0016030838)
(-0.013968343 0.014689505 0.001642385)
(-0.017736413 0.014793309 0.0017202532)
(-0.021687353 0.014707502 0.0018584323)
(-0.025806226 0.014462729 0.0020153992)
(-0.029983497 0.01403818 0.0022470269)
(-0.034222584 0.013487821 0.002497844)
(-0.038418971 0.012797216 0.0028269922)
(-0.042558382 0.012005433 0.003197437)
(-0.046562068 0.011114301 0.0036266268)
(-0.05040428 0.01015549 0.0041102023)
(-0.054000574 0.009162696 0.0046574089)
(-0.057360436 0.0081103064 0.0052416773)
(-0.060376785 0.0070112951 0.0058801452)
(-0.063067472 0.0059518599 0.0065676284)
(-0.065363782 0.0048789531 0.0072799552)
(-0.067238831 0.0038681308 0.0080336854)
(-0.068672502 0.0028922167 0.0088145227)
(-0.069639786 0.0019925227 0.0096140353)
(-0.070116146 0.0011580517 0.010431724)
(-0.070099101 0.00041351923 0.01126137)
(-0.069582242 -0.00023489865 0.01210032)
(-0.068562988 -0.0007823477 0.012941759)
(-0.067053682 -0.0012195857 0.013782668)
(-0.065060779 -0.0015482597 0.01462293)
(-0.062606309 -0.0017592204 0.015450926)
(-0.059703954 -0.0018633937 0.01627274)
(-0.056387952 -0.0018510583 0.017075716)
(-0.052673118 -0.0017345239 0.017867994)
(-0.048610133 -0.0015112465 0.018637569)
(-0.044216812 -0.0011867706 0.019392437)
(-0.039542789 -0.00076971795 0.020123226)
(-0.034620019 -0.00027545233 0.020846504)
(-0.029503578 0.00029630138 0.021553334)
(-0.02422809 0.0009243317 0.022256254)
(-0.018849108 0.001598747 0.022955386)
(-0.013402985 0.0023013429 0.02365279)
(0.001437612 0.0022052095 0.0022210864)
(0.0014796154 0.0037457308 0.002407567)
(0.0011638709 0.005785539 0.0025532543)
(0.00048811367 0.0075455856 0.002425924)
(-0.00087198811 0.0092101449 0.0022649627)
(-0.0024390612 0.010716367 0.0021381805)
(-0.004637696 0.012026422 0.0019150948)
(-0.0070379867 0.013182117 0.0018135585)
(-0.0098826748 0.014034167 0.0016427357)
(-0.01296455 0.014827632 0.0015477138)
(-0.016284503 0.015196286 0.0015011501)
(-0.019862693 0.0155815 0.0014022777)
(-0.023495033 0.015582558 0.0014641923)
(-0.027312598 0.015502917 0.0014811257)
(-0.031129697 0.015188149 0.0015964489)
(-0.034974602 0.014737306 0.0017430452)
(-0.038761366 0.014129888 0.0019522904)
(-0.042447918 0.013396494 0.0022284498)
(-0.046009722 0.012553768 0.0025487117)
(-0.04937377 0.011625721 0.0029485922)
(-0.052523839 0.010622406 0.0033972815)
(-0.05542424 0.0095690166 0.0039184287)
(-0.058010322 0.0084809297 0.0044897065)
(-0.060286509 0.0073601092 0.0051231893)
(-0.062216755 0.0062496953 0.0057927493)
(-0.063771746 0.0051459047 0.0065114812)
(-0.064936505 0.0040753768 0.0072755517)
(-0.065691877 0.0030533784 0.0080592943)
(-0.066023664 0.0020861072 0.0088725636)
(-0.065932858 0.0011820339 0.0097081485)
(-0.065419888 0.00036243982 0.010556658)
(-0.064481947 -0.000374991 0.011417553)
(-0.06313479 -0.0010163265 0.012282657)
(-0.061384277 -0.0015606442 0.013150189)
(-0.059250886 -0.0020056475 0.014014249)
(-0.056752166 -0.0023440117 0.014868354)
(-0.05390647 -0.0025897926 0.0157151)
(-0.050742919 -0.0027266457 0.016541366)
(-0.047285175 -0.0027731414 0.017351403)
(-0.04356277 -0.0027213173 0.018141413)
(-0.039602728 -0.0025793971 0.018910593)
(-0.035432816 -0.002358467 0.019663584)
(-0.031093074 -0.0020590852 0.020396321)
(-0.026613176 -0.0016965544 0.021119869)
(-0.022026405 -0.0012782746 0.021828914)
(-0.017371286 -0.0008209388 0.022538338)
(-0.012673885 -0.00033753421 0.023239982)
(0 -9.1096551e-20 0)
(0 5.0959738e-19 0)
(0 4.4069247e-19 0)
(0 3.8890338e-19 -1.3331104e-19)
(0 1.5363741e-19 0)
(0 -5.3959653e-21 0)
(0 7.4684576e-20 0)
(0 2.7997829e-20 0)
(0 -1.8192008e-19 0)
(0 -4.4848763e-19 0)
(0 -5.5715804e-19 -9.2513815e-20)
(0 -9.1341016e-20 0)
(0 1.1251559e-19 0)
(0 2.1733607e-19 0)
(0 1.7502143e-19 0)
(0 2.7568301e-19 0)
(0 5.0349927e-19 0)
(0 5.0489309e-19 2.5431573e-19)
(0 4.3503876e-19 0)
(0 5.0655541e-19 0)
(0 1.7153812e-19 0)
(-2.937716e-18 1.383947e-19 0)
(1.2510034e-18 -3.1327748e-19 0)
(-7.2766314e-20 -1.2590209e-19 0)
(2.2587945e-19 -2.2177711e-19 -1.6829915e-19)
(-4.2191924e-19 -3.0962862e-19 0)
(-1.0799118e-18 -4.4260096e-19 0)
(1.6504163e-19 -3.6545874e-19 0)
(0 2.7177748e-19 0)
(0 9.7181682e-20 0)
(0 -1.8856616e-19 0)
(0 1.8382782e-20 4.8106947e-19)
(0 2.0734874e-19 0)
(0 3.0199368e-19 0)
(0 -8.3903839e-20 0)
(0 -2.1887475e-19 0)
(0 -1.7894005e-19 0)
(0 4.2089899e-20 0)
(0 2.1000552e-19 -4.7853265e-20)
(0 1.5538016e-19 0)
(0 -5.6315682e-20 0)
(0 1.4540241e-19 0)
(0 2.6902433e-20 0)
(0 -1.5861876e-19 0)
(0 2.3222413e-19 0)
(0 1.4788141e-20 1.6998538e-19)
(0 2.3007114e-19 0)
(0 3.6384399e-19 0)
(0 3.2952008e-19 0)
(-0.001876023 0.001010398 0.0016198584)
(-0.0020518052 0.0011978553 0.00098532264)
(-0.0022774991 0.0012212002 0.00048739039)
(-0.0023400184 0.0012802395 3.8734358e-05)
(-0.0022559073 0.0011653487 -0.00037069166)
(-0.0021597116 0.0011716099 -0.00082126714)
(-0.0018299229 0.00089557118 -0.0013344842)
(-0.003659975 0.0043361674 0.002367615)
(-0.0040931938 0.0044834791 0.0013369857)
(-0.0042227897 0.0041494405 0.00056569687)
(-0.0041606675 0.003958809 1.4733933e-05)
(-0.0041866502 0.0040826298 -0.00057216489)
(-0.0038318941 0.0040336306 -0.0012342967)
(-0.0035419001 0.0040707334 -0.0021250181)
(-0.0053100897 0.0058982354 0.002277716)
(-0.0056899404 0.0056598025 0.0015393211)
(-0.0059256163 0.0056298084 0.00078737675)
(-0.0059179509 0.0055384028 -2.6409642e-05)
(-0.0057658939 0.0053881209 -0.00066590238)
(-0.0054830299 0.0054006852 -0.0012993978)
(-0.0051259996 0.005482605 -0.0021870432)
(-0.0076034492 0.0076397979 0.0022797044)
(-0.0080141418 0.007556292 0.001584359)
(-0.0081132193 0.0073655608 0.00073296469)
(-0.0081356608 0.007253714 0.00010980869)
(-0.0079895801 0.0072008378 -0.000552259)
(-0.0077737655 0.0071590123 -0.0013449456)
(-0.0072137379 0.0070916909 -0.0019400319)
(-0.010287586 0.0093167508 0.0020383661)
(-0.01050038 0.0091150887 0.0014242224)
(-0.010650788 0.0090368431 0.00079516104)
(-0.010624685 0.0088840285 0.00015326329)
(-0.010487534 0.0087132256 -0.00047309673)
(-0.010198573 0.0086690875 -0.0010573715)
(-0.0098469487 0.0085703718 -0.0016964786)
(-0.013069936 0.010399783 0.0019105458)
(-0.013270135 0.010274099 0.0013110951)
(-0.013317055 0.010108128 0.00077646567)
(-0.013332951 0.0099583154 0.0001655699)
(-0.013126694 0.0098847537 -0.00031304496)
(-0.012979499 0.0097195871 -0.0009124585)
(-0.012522157 0.0096107959 -0.0013893481)
(-0.016264516 0.011659256 0.0016844965)
(-0.016392016 0.011583936 0.0012589452)
(-0.01646122 0.011396875 0.00073353723)
(-0.016350175 0.011286152 0.00034012887)
(-0.016235721 0.011045287 -0.00015921352)
(-0.015955162 0.010900325 -0.00055968211)
(-0.015654927 0.010709842 -0.0009685436)
(-0.019538787 0.012467041 0.0015583477)
(-0.019551023 0.012263643 0.0011079106)
(-0.019502997 0.012098044 0.00079945277)
(-0.019488049 0.011934653 0.00040674746)
(-0.019324212 0.01180243 2.5681305e-05)
(-0.019126698 0.011599067 -0.00032567223)
(-0.018867618 0.011437885 -0.00066697219)
(-0.022949766 0.013198548 0.0013704867)
(-0.02296977 0.013136869 0.0011348529)
(-0.0229544 0.012972986 0.00082149389)
(-0.022814439 0.012702272 0.00052163446)
(-0.022670304 0.012462967 0.00028536065)
(-0.022440547 0.01221541 2.3908841e-05)
(-0.022191161 0.011945902 -0.00020178532)
(-0.026508873 0.013760634 0.0012880254)
(-0.02638516 0.013492968 0.0010539796)
(-0.026270037 0.013301336 0.00080380386)
(-0.026129861 0.01303569 0.00067103803)
(-0.025980599 0.01287361 0.00044234275)
(-0.025830885 0.012612058 0.00028114651)
(-0.025621441 0.012428255 0.00010934903)
(-0.029994607 0.014045399 0.0012087014)
(-0.029872129 0.013890031 0.0010581705)
(-0.029744985 0.013678482 0.0010081782)
(-0.029613083 0.013465499 0.00084491446)
(-0.029473955 0.013156897 0.00075065554)
(-0.029288074 0.012880049 0.00066922972)
(-0.0291114 0.01254373 0.00057734651)
(-0.033557603 0.01427878 0.0011211342)
(-0.033313944 0.01400389 0.0010922598)
(-0.033104651 0.013726408 0.0010091143)
(-0.032902461 0.013349362 0.00098888149)
(-0.032718885 0.013097365 0.0010055506)
(-0.032590791 0.012798483 0.00095027752)
(-0.032449217 0.012508414 0.0010146716)
(-0.036914406 0.014199021 0.0011775964)
(-0.036685902 0.013955106 0.0011908298)
(-0.03646565 0.013679521 0.0012355355)
(-0.036294396 0.013438535 0.0012808081)
(-0.036135468 0.013134199 0.0013124581)
(-0.036027473 0.012780033 0.0013862771)
(-0.035918075 0.012439447 0.0014756353)
(-0.040247558 0.01409403 0.0011782349)
(-0.039935106 0.013775581 0.0012681956)
(-0.039633589 0.01343669 0.0013587093)
(-0.039393671 0.013043829 0.0014554898)
(-0.039229076 0.012666733 0.0016284866)
(-0.0390999 0.012305005 0.0017218375)
(-0.03902839 0.011946988 0.0019400028)
(-0.043365678 0.013735749 0.0012835754)
(-0.043013245 0.013415168 0.0014604322)
(-0.042699731 0.013072584 0.0016044308)
(-0.042504883 0.012742762 0.0018143804)
(-0.042312147 0.012387344 0.0019817438)
(-0.042244887 0.012015554 0.0021743912)
(-0.042183624 0.011594324 0.0024175019)
(-0.046287139 0.013319474 0.0014193981)
(-0.045878701 0.012950027 0.0016298296)
(-0.045539246 0.012560988 0.0018468181)
(-0.045251051 0.012124687 0.0020644512)
(-0.045090074 0.011703714 0.0023407114)
(-0.044982985 0.011242837 0.0025676616)
(-0.044971126 0.010857209 0.0029103312)
(-0.048975036 0.012752262 0.0016083252)
(-0.048548576 0.012371226 0.0019034699)
(-0.048144704 0.011935532 0.0021409748)
(-0.047912979 0.01154369 0.0024608924)
(-0.047705233 0.011084653 0.0027539044)
(-0.047652177 0.010687449 0.0030418364)
(-0.047627286 0.010186645 0.0034147144)
(-0.051388379 0.012107843 0.0018749404)
(-0.05088623 0.011653778 0.0021751895)
(-0.050496601 0.011218221 0.0024871362)
(-0.050187976 0.010719951 0.0028160483)
(-0.050011407 0.010261164 0.0031615196)
(-0.049925117 0.009736975 0.0034972751)
(-0.049948717 0.0092893726 0.0039279192)
(-0.053494359 0.011358622 0.0021730784)