/*--------------------------------*- C++ -*----------------------------------*\
  =========                 |
  \\      /  F ield         | OpenFOAM: The Open Source CFD Toolbox
   \\    /   O peration     | Website:  https://openfoam.org
    \\  /    A nd           | Version:  6
     \\/     M anipulation  |
\*---------------------------------------------------------------------------*/
FoamFile
{
    version     2.0;
    format      ascii;
    class       pointScalarField;
    location    "0.42";
    object      E;
}
// * * * * * * * * * * * * * * * * * * * * * * * * * * * * * * * * * * * * * //

dimensions      [1 -1 -2 0 0 0 0];

internalField   nonuniform List<scalar> 
28033
(
28979.505
25982.662
-1747268.1
-824355.86
35235.343
30663.808
-1245539.7
-2624838.3
20055.968
14081.962
9798.7019
7069.4264
4428.0125
2920.3732
2042.956
1710.5697
2340.7185
3283.4822
5333.66
8116.0529
11708.268
15848.795
24052.705
-967432.32
-962974.39
-959627.81
-957173.8
-954579.07
-951848.06
-949599.75
-947116.05
-944662.68
-942242.06
-939975.3
-937538.18
-934972.58
-933031.65
-703798.32
24171.402
16051.327
15853.069
15906.77
16572.636
16849.254
17253.985
17390.944
17576.614
17631.608
17660.074
17628.031
17570.293
17495.668
17384.339
17248.559
17109.896
16963.095
16809.141
16601.097
16444.767
16228.62
16005.732
15795.825
15520.518
15311.389
14973.931
14727.683
14392.254
14067.32
13725.836
13355.283
12995.444
12529.743
12153.878
11733.217
11322.907
10932.245
10489.564
10112.924
9698.1237
9319.301
8963.0723
8616.9273
8297.1779
7997.8377
7715.9864
7459.0167
7218.6719
7005.7941
6805.8006
6633.618
6475.351
6339.1647
6220.8749
6120.0793
6036.4014
5969.0465
5920.234
5887.0151
5867.7236
5872.7795
5893.3025
5951.3554
5983.7749
6091.8812
6225.4863
6273.9404
6482.2779
6632.5761
6845.444
7023.1774
7329.6703
7545.3396
7935.2556
8203.6097
8658.2625
8999.7765
9498.3288
9908.5667
10462.975
10842.603
11483.237
11868.982
12541.152
13044.45
13805.791
14293.988
15127.899
16005.099
16294.234
17692.77
17685.951
17639.671
18729.666
20666.154
12744.378
14782.051
14065.196
14751.248
15104.571
15267.487
15545.14
15718.404
15706.805
15826.332
15728.404
15704.965
15636.018
15533.737
15462.935
15294.596
15169.817
15048.496
14876.447
14685.578
14552.876
14294.065
14153.012
13891.542
13679.016
13412.901
13095.534
12822.707
12419.406
12115.827
11730.618
11400.935
11044.359
10694.162
10321.571
9875.8642
9519.4883
9102.6962
8779.7943
8395.9514
8062.5815
7729.2586
7416.5223
7117.7751
6842.0473
6580.9202
6342.3653
6123.9619
5922.3055
5745.3421
5583.6451
5443.1098
5320.1289
5215.8211
5125.7823
5055.1099
5000.1686
4955.4428
4937.769
4920.0404
4936.156
4945.7265
5001.1962
5039.5022
5146.3876
5237.1883
5402.989
5540.5796
5672.738
5861.9871
6060.7599
6356.3865
6597.5273
6964.9675
7241.4002
7693.819
8030.0867
8511.4448
8946.742
9442.347
9961.1379
10468.422
11077.245
11568.974
12258.824
12807.227
13475.221
14095.491
14921.238
15340.852
16274.919
17032.473
17724.168
18238.475
23168.06
15914.433
11442.474
9062.0224
5321.0887
3509.7999
2613.3017
2254.7309
2835.2419
4514.9723
6194.8336
9409.8327
13202.344
18640.486
23737.925
39317.989
17433.324
11649.076
16547.613
14874.26
16356.973
15989.291
16708.073
16357.686
16733.131
16727.029
16450.747
16647.025
16283.54
16557.665
16213.715
16187.249
15721.835
15863.335
15449.465
15393.607
15155.202
14939.574
14801.482
14564.309
14308.369
14105.495
13687.049
13493.747
13111.398
12822.787
12459.357
12092.964
11714.674
11181.119
11010.888
10418.011
10065.095
9619.0368
9211.8107
8809.4994
8422.2689
8043.5086
7693.3368
7354.4556
7041.3984
6743.8372
6472.9129
6217.285
5989.3867
5778.2037
5592.3104
5423.8329
5276.9335
5147.6717
5035.8367
4941.2524
4862.9269
4798.4215
4750.8423
4717.168
4697.6343
4697.9918
4709.4655
4742.2602
4806.3756
4857.8721
4825.3167
5565.8626
5168.6247
5429.4531
5599.1111
5824.3455
6088.0061
6374.9178
6687.5559
7039.9841
7409.7643
7815.1576
8241.1853
8681.8532
9161.1887
9628.3958
10154.736
10648.096
11226.023
11750.321
12381.961
12975.679
13684.495
14324.582
15235.454
15957.402
17238
15842.535
-2007169.3
-1884880.2
-1677264.3
-2021518.8
-1685796
-2031832.3
-1694630.3
-1913552.9
-2047790.3
-1924762.5
-1712995.5
-2065352.5
-1722881.7
-2080095.9
-1959407.4
15138.306
17273.688
17977.457
17250.085
16373.056
15584.412
14826.634
14125.634
13446.996
12819.377
12246.915
11651.464
11129.035
10546.936
10053.794
9547.2174
9112.9054
8681.0441
8296.2783
7934.6921
7598.7076
7296.0388
7025.4161
6770.5101
6560.1181
6483.5437
6456.5331
5736.7165
5994.2278
5854.5895
5803.7707
5761.2169
5733.1355
5727.1875
5738.5189
5767.2851
5811.7165
5873.1689
5951.8662
6044.0427
6156.3313
6281.9758
6428.8855
6590.5788
6774.7104
6976.0025
7200.2973
7442.6775
7710.6309
7996.426
8305.5204
8632.9304
8992.3979
9349.357
9732.3241
10150.218
10632.792
11027.585
11353.992
11929.35
12303.068
12579.274
13202.566
13624.723
13891.612
14449.937
14614.231
15055.608
15393.729
15711.661
16015.259
16173.314
16527.872
16779.248
16829.208
17195.912
17251.299
17559.565
17578.919
17790.215
18055.748
18052.059
18045.106
18267.583
18332.124
17995.612
18251.885
17926.259
17685.133
16887.799
16886.952
16887.397
16403.148
13979.526
27009.432
20978.78
19520.089
18728.607
18747.864
19067.933
19363.965
19263.858
19471.838
19490.731
19409.353
18841.617
18499.671
18996.466
19659.991
21862.698
17890.039
18191.055
17550.822
18495.236
18419.89
18273.149
19495.426
20684.126
20111.19
19975.05
18978.702
18261.379
18019.442
17693.767
20165.936
-929463.06
-929883.39
-929671.03
-929751.09
-929754.63
-929753.04
-929775.22
-929770.14
-929757.94
-929821.63
-929785.51
-929873.25
-929793.54
-929950.31
-929973.59
-1967112.6
-1967410.8
-1967603.1
-1967609.4
-1967384.9
-1967430.9
-1967453.9
-1967454.8
-1967494.5
-1967479.3
-1967537.3
-1967655.9
-1967593.2
-1968198.4
-1967379.7
18472.938
14302.836
13420.778
13322.061
13506.893
13777.848
14009.036
14256.373
14373.142
14518.15
14521.377
14577.524
14504.166
14486.141
14358.025
14293.406
14156.038
14034.552
13879.815
13753.557
13593.486
13420.019
13267.313
13052.933
12875.378
12658.826
12424.224
12199.803
11944.325
11687.127
11375.481
11117.793
10806.21
10523.295
10242.021
9893.6927
9616.1244
9257.5056
8978.2894
8669.9537
8368.7461
8042.6524
7805.2386
7498.0714
7265.0255
7003.0706
6784.3147
6568.7004
6377.7094
6200.376
6045.7172
5904.2767
5784.7607
5680.7386
5596.0992
5527.5682
5478.3425
5446.0215
5431.372
5434.2896
5453.0131
5489.6982
5540.5663
5615.5755
5648.6011
5802.5421
5932.653
6156.1216
6334.9501
6463.8493
6753.568
6948.5921
7293.788
7555.7477
7917.5752
8277.6791
8652.4013
9121.7557
9484.8437
10081.219
10439.603
11090.374
11676.476
12136.85
12771.933
13267.641
14008.6
14497.949
15408.498
15673.755
16760.97
17319.639
17915.636
19990.01
20402.735
12450.514
10492.406
10634.883
10283.431
10510.336
10473.01
10644.17
10740.346
10841.207
10895.689
10927.301
10950.297
10917.039
10886.005
10809.475
10764.128
10652.117
10568.008
10448.783
10348.324
10204.896
10090.46
9954.0297
9807.2902
9660.3126
9512.9949
9347.6278
9168.9339
8996.2001
8817.4472
8624.3538
8441.4279
8235.4565
8014.2783
7797.7595
7564.846
7385.9304
7146.1092
6955.9225
6720.4329
6541.1518
6305.4536
6127.0844
5912.0212
5742.0854
5566.8784
5404.6248
5260.6397
5124.4313
5009.135
4904.2274
4818.9464
4748.3606
4695.0787
4657.7793
4638.1627
4634.7255
4648.726
4676.666
4726.7479
4784.4485
4869.0596
4963.9125
5075.5858
5179.525
5440.2875
5492.3686
5758.7738
5926.8723
6160.046
6398.2783
6614.664
6926.7195
7214.8151
7598.7742
7960.7602
8382.8474
8833.7945
9299.9967
9802.7029
10348.698
10838.3
11490.528
12037.206
12795.078
13310.193
14102.855
14618.64
15340.714
16075.617
16873.81
17309.773
18718.037
19027.249
19949.298
8072.8799
6897.3165
7614.7958
7501.1107
7676.9804
7560.0308
7652.6832
7684.0153
7704.3259
7751.3489
7753.6044
7770.3631
7730.4416
7715.7761
7662.3569
7609.8242
7537.8499
7468.5877
7388.063
7312.1665
7229.463
7131.4989
7046.5426
6927.0278
6840.7904
6723.5641
6607.0069
6495.7314
6386.6667
6262.5032
6134.5042
6020.658
5888.4784
5768.6857
5661.9245
5509.9379
5371.7268
5194.757
5091.6322
4965.1359
4799.0771
4695.714
4566.9151
4430.0408
4322.8064
4197.761
4092.5694
4001.5917
3912.3248
3844.506
3784.1162
3740.8825
3710.6709
3695.6667
3695.3699
3711.5471
3740.6307
3787.5744
3846.623
3923.1273
4012.4141
4117.4704
4237.3404
4367.035
4532.3841
4689.453
5008.0591
5205.0865
5379.0288
5582.6464
5859.6283
6133.5514
6474.576
6781.2204
7200.1849
7539.9375
8022.8167
8447.7543
8940.5876
9468.5581
9955.1963
10585.632
11056.49
11683.462
12276.408
13060.33
13689.953
14271.668
15170.468
15599.78
16487.075
17280.349
18094.535
18909.923
19641.677
5284.8207
4332.3477
4791.4224
4992.8189
5096.486
5099.1928
5142.9999
5145.3723
5138.5448
5166.9581
5141.1748
5157.3695
5116.7421
5121.7324
5054.2522
5049.677
4977.2162
4947.9277
4874.9653
4830.9611
4756.5779
4709.5251
4639.9547
4588.6704
4523.7437
4461.4542
4405.5105
4340.5961
4270.4383
4214.1898
4151.3045
4091.1989
4030.762
3967.9115
3916.9563
3803.0027
3817.2281
3768.575
3760.8461
3659.9737
3611.5146
3511.9146
3437.3793
3361.7141
3308.2788
3234.8141
3186.6203
3133.4565
3091.8696
3063.6403
3041.8872
3037.6627
3041.8995
3063.6916
3096.3803
3146.7694
3206.4458
3288.0279
3372.9496
3486.3254
3597.4463
3735.4375
3882.0687
4042.9425
4212.2359
4417.9304
4594.2904
4860.3306
5066.8148
5330.8176
5651.199
5954.3661
6256.2125
6616.0011
7025.4082
7414.893
7967.9251
8320.0568
8992.058
9360.2304
10096.18
10492.601
11294.064
11695.907
12438.833
12927.176
13695.587
14279.793
15090.698
15550.622
16787.494
16960.603
18464.213
18607.319
19833.638
3428.5398
2382.0405
2861.6504
2856.0825
3070.8871
3031.4641
3085.9834
3045.8997
3058.184
3052.6937
3047.0352
3045.1568
3030.3387
3016.2457
2995.1211
2973.6978
2938.2029
2919.5523
2882.328
2858.5869
2828.3288
2796.2435
2769.8019
2735.0456
2704.5159
2677.2357
2650.731
2621.8297
2613.6839
2591.2453
2575.9449
2566.4588
2548.7885
2544.3598
2526.5628
2492.3652
2589.6592
2430.2511
2552.3858
2561.9167
2511.7336
2471.9588
2453.4478
2405.5692
2370.4547
2324.9248
2303.0958
2273.7448
2263.2293
2256.7102
2263.1146
2280.1507
2309.0406
2351.5154
2405.8873
2474.8334
2554.9356
2651.9704
2756.2741
2880.194
3012.4544
3157.8527
3312.3448
3499.3522
3667.7681
3873.0737
4153.9677
4295.702
4599.5606
4817.6942
5155.6193
5465.697
5829.608
6263.9249
6653.1265
7117.9525
7565.2783
8063.1447
8588.1062
9125.8527
9659.0013
10337.2
10768.603
11577.397
12006.25
12837.322
13443.514
14132.278
14918.854
15674.322
16490.676
17048.573
18217.6
18512.104
19812.771
2092.1144
1199.7179
1350.8355
1343.5137
1460.1429
1488.4026
1494.4306
1518.8208
1502.4021
1522.7703
1494.7597
1515.6934
1482.4034
1502.5269
1464.7276
1479.6543
1446.4864
1453.6909
1421.0364
1429.7786
1402.909
1408.9691
1390.0298
1391.7324
1387.2708
1395.6028
1391.8737
1407.651
1411.2067
1424.2496
1447.0458
1463.6553
1490.4281
1518.5444
1534.328
1581.7488
1581.9732
1758.9249
1826.88
1758.1419
1780.8964
1760.2912
1765.0548
1759.6409
1751.2679
1746.4549
1745.9873
1751.7635
1763.0012
1783.7436
1811.4688
1851.8277
1901.5207
1964.2709
2037.6553
2125.9078
2223.1714
2338.4752
2458.9956
2602.3689
2742.5882
2915.6145
3083.3802
3270.5727
3473.3077
3697.6209
3908.9149
4171.6035
4458.434
4736.8714
5029.3677
5365.0065
5655.3665
6050.6283
6559.0328
6981.1342
7513.1629
7930.1996
8585.281
8962.5736
9760.2918
10096.83
10978.368
11386.806
12213.216
12815.639
13502.783
14188.023
14945.252
15453.595
16407.208
16870.981
18282.822
18318.642
19831.92
1474.5194
466.71759
548.40776
378.296
474.31572
445.68932
496.67714
475.33135
499.45855
494.73422
502.13819
505.09852
509.82931
504.52611
503.83719
503.79204
489.55927
495.29609
483.48576
488.29062
482.38621
488.63256
484.69563
498.40165
510.93812
519.386
545.26198
569.24855
600.39089
639.61342
675.70648
718.97685
767.57697
805.78718
863.70406
899.32555
960.45717
972.94051
1050.1932
1034.5945
1116.1913
1135.4027
1168.9991
1192.0163
1209.4323
1228.4227
1257.533
1281.867
1320.0609
1360.003
1413.2432
1471.6101
1543.8375
1623.7273
1717.205
1820.578
1935.2609
2064.9492
2199.4555
2353.0044
2512.6452
2688.258
2865.4385
3072.8721
3276.9234
3495.7877
3749.0111
3997.6386
4281.0104
4553.8333
4925.8317
5209.6793
5608.1136
5967.3776
6367.7326
6852.8843
7240.0602
7840.8868
8275.225
8920.5553
9408.5778
10092.24
10618.415
11321.742
11879.681
12580.323
13183.115
13931.44
14646.082
15390.263
16477.653
16996.289
18161.93
18265.539
19965.389
1185.4246
268.55787
171.09013
34.728356
31.969978
56.36909
54.985115
72.26227
87.71511
100.58836
99.207203
123.2819
110.08392
129.64735
124.40885
137.12635
130.50919
152.69378
139.80726
163.74383
153.58684
171.48262
181.46601
215.07751
222.95404
259.47479
286.39017
319.22518
358.86055
397.8054
446.73576
501.58263
547.23469
611.97201
666.85363
719.11404
773.4098
845.68077
865.69344
901.12838
935.45636
948.04305
970.74895
996.43618
1018.69
1051.8272
1078.8952
1113.3562
1151.5025
1197.7112
1250.5084
1314.5716
1386.3091
1470.8581
1565.4761
1671.5176
1789.423
1921.0146
2057.2076
2219.1251
2375.9413
2557.0629
2745.211
2951.1451
3153.1726
3399.0293
3631.9818
3892.4571
4163.321
4485.1772
4758.6242
5137.5062
5488.9042
5889.3437
6358.4572
6785.9654
7309.9218
7799.8553
8358.7421
8861.0982
9564.1313
9955.9025
10849.778
11195.957
12097.008
12667.915
13370.088
14238.359
14752.367
15641.262
16242.42
16617.968
18024.097
18213.042
19977.725
1476.3251
472.32657
387.41843
199.89402
187.04649
172.13016
174.95578
168.86134
177.64832
177.67579
186.48393
186.37467
195.3881
193.67289
195.34799
196.40839
192.02191
196.65238
194.86079
211.31212
240.07276
276.43808
273.27201
275.82619
288.30358
308.37741
325.79843
354.72749
390.15702
423.50344
472.22637
507.95936
560.88618
616.19074
651.16726
717.76609
755.69339
809.64371
844.87039
887.06737
917.53253
955.99345
987.60482
1012.799
1039.3654
1057.6999
1088.1887
1116.3679
1157.0465
1198.8555
1255.3895
1314.6901
1388.9004
1470.3932
1564.5374
1667.89
1784.9659
1910.1035
2049.2587
2199.9676
2355.6968
2535.2261
2713.5964
2911.4331
3121.1148
3349.0795
3580.4342
3839.2817
4132.5544
4395.5643
4748.2932
5078.4672
5398.5618
5843.2675
6204.823
6727.4016
7117.0622
7712.3252
8092.2205
8846.0432
9190.0899
9989.2521
10503.585
11081.464
11921.006
12293.669
13176.822
13724.061
14354.136
15312.771
15923.665
16943.306
18037.294
18203.877
19910.029
2245.7043
1259.2509
1170.3934
1044.5586
1047.7295
1054.6037
1064.0164
1048.7924
1081.5383
1098.0551
1096.1004
1126.5864
1129.9728
1133.8242
1147.1297
1142.9881
1140.0494
1148.6822
1125.0912
1126.4859
1136.2716
1090.4924
1051.3141
1052.4484
1069.4869
1069.2912
1079.2067
1094.9353
1108.2598
1126.9184
1149.1968
1175.0736
1209.9321
1226.5024
1278.7254
1298.2655
1331.5835
1361.5696
1377.9349
1404.9296
1414.3202
1431.3671
1425.2482
1437.8681
1437.8875
1449.8109
1459.1043
1476.0336
1495.2541
1525.4914
1561.5721
1608.4628
1666.1173
1734.3995
1813.8581
1906.2899
2008.4087
2125.7502
2250.8821
2391.3961
2541.8874
2709.3226
2877.0239
3079.0994
3266.2816
3494.043
3713.4451
3987.196
4225.3029
4543.8893
4847.2224
5172.5395
5556.9135
5977.2098
6340.727
6769.8603
7288.0414
7728.5352
8387.5872
8763.4317
9523.373
9959.6285
10672.442
11241.671
11924.901
12555.824
13224.968
14070.804
14533.502
15570.398
16079.875
16831.606
17606.732
18058.127
19987.243
2600.449
2076.4126
1967.2949
1977.4823
1972.4921
1991.1314
1952.1503
1947.4202
1966.9017
1962.2113
1957.0442
1980.8945
1964.4672
1964.9963
1959.5949
1937.7188
1933.3344
1909.1449
1897.5213
1877.3086
1910.9651
2104.263
2116.9473
2136.2089
2117.6852
2082.904
2075.866
2036.0269
2030.7171
2003.7959
2001.3845
1998.5103
1974.0193
1994.1924
1969.5583
1973.7941
1967.082
1962.4211
1956.7864
1942.6132
1933.9068
1911.0909
1903.405
1880.4814
1869.2752
1849.6883
1842.8049
1835.082
1840.439
1849.469
1872.1261
1901.2684
1945.1085
1996.4533
2063.601
2138.5412
2229.5288
2329.5534
2442.0305
2567.7039
2705.3667
2850.7734
3016.4509
3193.5126
3376.9557
3589.454
3811.5654
4036.9185
4303.3947
4577.128
4867.2888
5206.8904
5543.4463
5917.8036
6468.5815
6815.7215
7254.6822
7790.3085
8212.8517
8890.2818
9320.132
10044.794
10551.927
11252.456
11881.41
12497.132
13307.476
13811.338
14647.969
15378.631
15873.271
16959.374
17769.606
18637.751
19836.942
5614.6735
3716.5743
3985.6845
3938.375
4016.4287
3941.8777
3994.7847
3984.6382
4008.0611
4031.9049
4052.7259
4061.09
4073.621
4054.0792
4063.7033
4020.8894
4010.0599
3973.3794
3933.0395
3911.9389
3836.4446
3815.7625
4084.5713
4082.9612
4033.9807
3992.0867
3930.577
3874.2581
3819.6528
3748.9248
3711.9878
3631.4393
3595.9416
3529.5528
3487.2373
3436.7595
3382.4784
3333.542
3266.7748
3220.3525
3144.3062
3093.6628
3018.8112
2961.3451
2895.475
2841.0063
2786.6069
2743.8337
2704.8941
2679.3863
2662.6034
2658.2202
2666.3352
2686.9783
2720.9236
2767.6066
2828.3984
2901.1954
2986.716
3089.0748
3195.9554
3328.015
3460.4676
3624.3076
3776.5723
3977.5927
4157.3871
4398.2858
4626.5806
4895.721
5187.4264
5491.1625
5849.2028
6214.4216
6618.9412
7017.7618
7509.1115
7950.7708
8520.396
9019.498
9595.804
10194.93
10730.231
11450.911
11919.088
12755.91
13187.92
14046.056
14648.293
15420.759
16133.431
17091.037
17603.5
18291.998
19920.427
8481.5246
7024.1456
6981.5313
6897.1981
6767.6623
6797.0502
6807.5494
6804.5663
6889.3234
6904.3216
6925.6434
6956.8758
6925.5452
6923.8148
6888.8313
6817.5507
6796.8456
6696.4958
6654.9609
6565.561
6494.2699
6424.5154
6290.1278
6196.3169
6105.6627
5955.7612
5868.9887
5723.06
5590.7247
5477.9295
5331.4946
5230.2189
5086.5873
4981.1262
4842.4477
4708.717
4591.5564
4457.0793
4349.0286
4210.1912
4105.6508
3975.5591
3867.6276
3749.3006
3645.0897
3540.8662
3449.6434
3364.3633
3292.5711
3230.6341
3182.6926
3145.6782
3124.7933
3114.2325
3120.8537
3138.3979
3172.462
3217.4443
3279.9651
3351.42
3441.0788
3540.7788
3656.3526
3788.4688
3934.3207
4107.6879
4293.0511
4490.6283
4703.3107
4956.3021
5204.2511
5520.0792
5819.5933
6166.959
6561.2766
6929.5073
7360.8582
7838.2078
8298.935
8838.3981
9370.7141
9937.4593
10529.9
11138.796
11763.026
12435.255
13041.161
13877.216
14345.946
15314.887
15772.944
16784.988
17009.903
18696.121
19940.786
12246.425
10157.76
9948.1177
9606.171
9867.8343
9883.6711
10016.442
10180.692
10318.758
10382.93
10469.402
10473.659
10494.731
10460.906
10414.384
10353.679
10278.22
10183.357
10097.876
9975.8838
9871.6642
9731.0045
9597.9703
9484.5506
9320.7602
9166.3424
9021.7897
8817.2285
8658.2613
8437.4756
8265.9528
8032.4415
7832.6502
7631.7265
7414.1453
7213.1752
7002.1437
6807.6317
6579.2631
6390.746
6176.4036
5982.7679
5785.226
5600.2594
5419.4433
5252.6472
5092.735
4949.3283
4816.7045
4700.1024
4598.4574
4511.7283
4441.5629
4385.8172
4347.6583
4322.3809
4313.9786
4321.3535
4339.3342
4379.1427
4424.4726
4496.9661
4567.9463
4676.225
4767.8579
4914.5796
5047.5425
5230.9554
5425.7247
5633.8996
5897.2946
6143.6309
6465.6982
6771.5685
7173.2132
7516.696
7992.9206
8403.3677
8915.0959
9423.8057
9945.1261
10533.874
11066.49
11723.315
12252.788
12959.48
13515.665
14244.037
14760.544
15696.133
16068.573
17133.511
17596.515
18555.007
19728.038
14887.916
12509.877
11910.837
11848.602
12339.124
12369.451
12715.302
12937.233
13079.89
13239.205
13247.385
13332.784
13302.668
13240.119
13203.555
13078.796
13024.834
12896.433
12764.313
12634.059
12525.739
12299.042
12220.844
11965.21
11772.913
11585.325
11299.32
11156.012
10829.668
10681.299
10340.831
10082.32
9767.6988
9451.5823
9165.8841
8848.2082
8646.3772
8286.1617
8047.8967
7733.8774
7479.6303
7203.3846
6951.3989
6701.2918
6468.5783
6246.701
6041.1174
5851.5972
5676.9744
5520.8354
5380.0634
5256.0693
5149.9954
5059.6673
4986.5612
4928.9702
4890.9041
4863.0758
4858.6108
4862.8898
4891.7491
4927.6031
4993.4226
5062.5605
5157.5212
5254.5006
5373.8797
5532.9253
5688.4761
5970.569
6129.2943
6423.6397
6669.3572
6994.16
7306.6914
7694.002
8062.7202
8510.8089
8956.1293
9427.231
9942.7669
10471.172
11024.967
11589.847
12218.863
12797.988
13447.648
14161.269
14784.563
15565.753
16387.103
17301.842
17832.421
19166.767
19480.583
11481.608
10806.616
8849.0785
8533.6164
8248.7424
8277.9086
8074.8356
8201.0962
8247.3053
8338.2924
8293.7171
8327.7585
9175.387
9970.71
12586.402
8226.8525
6655.2608
5609.498
5538.7611
5089.6485
5056.5227
4867.7629
4954.3453
5057.7958
5007.9724
5123.9689
5353.2621
5842.1335
6854.8529
8701.2943
5569.7118
4262.8431
2971.0411
2764.7349
2417.2493
2324.846
2287.9969
2207.9114
2247.4585
2301.4932
2452.6173
2620.4393
3088.1609
4185.0839
5754.9047
3785.8675
2875.4698
2169.2967
1812.0611
1686.4819
1566.6109
1531.977
1481.0717
1551.9236
1594.4462
1732.3621
1868.8775
2413.3728
3125.2592
4056.3594
2469.8769
1808.3969
1181.7398
996.88431
821.96351
758.72961
714.51105
700.77131
711.88504
767.57891
842.78374
1029.2799
1353.3493
1831.1139
2795.3491
1958.6989
1262.5548
841.86773
699.19529
573.85101
532.84667
491.66254
495.561
507.04432
537.80059
629.05646
722.71986
943.53293
1380.4463
2090.6522
1238.4972
807.91133
560.49532
416.10853
343.95173
278.79369
260.09571
245.82927
258.11382
287.02578
342.8365
448.41089
605.34243
944.12926
1536.9997
1175.911
731.16076
480.70583
370.8072
288.66457
248.92657
223.66375
223.00035
236.26
263.61956
327.52454
422.21553
572.94061
884.3914
1474.9642
1273.3906
820.9377
559.68756
425.12677
339.82588
290.55374
264.68805
265.64665
273.32452
332.86289
366.06971
470.98212
631.01991
988.9771
1482.0733
1857.7169
1311.9874
831.71035
675.53655
529.13669
480.1521
436.20448
432.2997
444.79882
473.35656
592.94715
669.23044
975.98021
1495.0444
2269.4952
2457.2655
1830.1009
1173.2649
994.601
786.20612
736.89135
673.11293
690.98808
697.52232
757.30314
878.31491
1071.6527
1432.4205
2082.4211
2880.3589
3968.0134
2686.4543
1986.1085
1679.9447
1437.2848
1312.6573
1265.1548
1237.4697
1280.8294
1327.5853
1519.091
1564.0648
2182.1925
3020.9801
4259.3496
5351.7603
4212.5059
3133.8291
2757.6121
2415.5054
2362.168
2222.572
2300.1647
2304.3541
2289.957
2542.2735
2713.2068
3312.7363
4511.8519
5411.8626
8335.8698
6628.2687
5316.2646
4903.7949
4508.9284
4353.0721
4426.3492
4459.4209
4410.5435
4439.6267
4531.5508
4786.6639
5436.0824
6396.0449
8979.9477
11141.077
11390.267
8873.4243
8578.7106
8065.3672
7563.7386
8036.7433
8415.4976
7828.7197
8293.2212
8092.5295
8408.4139
9059.8407
10339.716
12819.913
26003.639
21570.894
21427.665
21918.529
22305.311
22132.491
23290.612
24426.63
24867.614
24559.653
23795.185
22589.34
22394.48
23073.683
22620.477
19232.498
16945.942
16190.316
15593.841
14890.714
15404.345
15159.665
15252.52
16208.669
15356.588
15677.912
15410.738
16565.085
17854.329
20330.41
16047.83
16568.556
15677.069
15089.039
15333.554
13907.675
13834.945
13975.113
13241.465
14513.032
14445.879
15951.208
16343.165
16438.825
17020.806
15920.975
17452.252
17127.88
16442.131
16123.177
16009.567
15752.677
15884.271
15914.44
15983.372
16515.473
16910.101
17216.031
17642.645
16441.616
16407.707
17163.912
17256.775
17673.212
17090.208
16908.403
16991.111
16795.588
17024.336
17482.909
17409.273
17908.449
17729.12
17326.663
16548.767
16256.544
17475.385
17558.752
17642.585
17717.923
17645.442
17467.137
17445.657
17542.399
17447.733
17850.18
17859.932
17773.695
17523.503
16406.057
16442.291
17305.124
17645.464
17928.379
17860.523
17910.686
17971.493
17937.427
18049.532
18145.969
18018.189
18082.99
17775.795
17105.517
16799.16
16687.863
17194.5
17638.824
17943.707
18165.224
18109.269
18134.051
18200.965
18133.26
18222.795
18176.822
17985.939
17774.023
17039.678
16334.743
16466.79
17067.145
17479.169
17765.074
17764.527
17963.652
17971.868
17996.775
18081.456
17939.759
17851.23
17638.931
17394.003
16877.665
16672.927
16668.85
16898.941
17344.927
17562.749
17800.567
17852.431
17945.983
17947.927
17821.074
17955.3
17729.997
17696.917
17301.382
16943.032
16637.361
16410.081
16785.933
17135.577
17383.625
17489.093
17668.251
17699.143
17742.245
17827.039
17646.817
17687.69
17385.489
17225.143
16840.73
16618.118
16515.063
16565.344
16975.896
17127.055
17314.313
17381.802
17456.736
17451.715
17397.015
17370.643
17190.338
17086.042
16807.555
16536.837
16513.22
16410.017
16522.552
16651.284
16947.01
17068.075
17189.44
17247.556
17295.079
17365.695
17269.048
17216.202
17071.581
16852.353
16665.813
16439.075
16243.382
16304.248
16741.435
16701.367
16899.097
16964.95
16961.854
17011.875
16950.955
16870.793
16735.682
16643.901
16406.325
16226.378
16315.275
16226.012
16177.113
16372.75
16588.278
16724.609
16732.081
16853.321
16727.892
16881.091
16823.735
16804.825
16704.121
16488.788
16430.753
16251.272
15995.447
16056.096
16367.944
16408.119
16455.445
16576.982
16686.862
16571.913
16528.076
16432.881
16308.178
16240.594
16012.582
15929.222
15980.936
15965.565
15871.562
16094.407
16087.128
16344.223
16351.676
16399.57
16351.837
16466.103
16392.042
16423.573
16306.503
16303.526
15924.192
16169.926
15840.288
15797.171
16033.682
15984.247
16081.067
16159.973
16207.955
16179.962
16148.343
16072.698
15950.364
15860.643
15692.524
15613.48
15606.085
15639.667
15594.334
15833.904
15941.842
15976.669
15968.467
15952.885
15977.52
16053.41
15973.284
15936.149
15895.377
15825.094
15768.131
15825.392
15514.484
15431.102
15611.065
15584.224
15732.544
15814.103
15895.999
15785.188
15807.089
15723.399
15611.326
15645.91
15494.284
15369.1
15330.327
15387.022
15304.283
15538.143
15515.173
15567.648
15517.957
15640.872
15602.343
15665.087
15517.183
15586.599
15461.655
15454.092
15327.812
15402.375
15111.647
15100.085
15272.709
15316.245
15379.193
15436.673
15450.117
15427.583
15428.537
15416.638
15333.618
15307.618
15182.916
14931.671
15191.285
15057.788
14884.651
15143.781
15096.395
15199.312
15147.804
15239.197
15185.194
15208.204
15189.553
15121.496
15025.736
14936.785
14860.305
14942.674
14778.152
14721.617
14894.267
14955.783
14958.81
15025.634
15008.582
14958.34
14992.353
14904.789
14844.258
14848.577
14854.61
14604.159
14781.402
14601.209
14535.248
14623.783
14666.791
14744.079
14651.733
14847.43
14729.163
14796.363
14729.578
14700.488
14650.954
14531.443
14393.54
14543.955
14347.382
14215.167
14461.65
14367.519
14501.685
14545.915
14573.126
14481.608
14555.559
14438.737
14494.098
14392.54
14347.039
14242.532
14256.666
14057.764
13992.737
14154.688
14187.793
14302.937
14221.84
14306.125
14248.467
14294.107
14228.468
14202.256
14133.102
14047.353
13893.5
14097.219
13843.475
13674.473
13855.619
13796.633
13987.785
13912.655
13999.457
13931.761
13999.788
13905.868
13930.8
13824.42
13794.661
13737.337
13691.867
13491.708
13416.496
13647.02
13546.005
13645.849
13638.29
13692.476
13650.43
13684.243
13623.023
13607.6
13592.295
13475.676
13284.513
13561.152
13277.363
12999.04
13254.139
13250.084
13384.353
13287.314
13374.424
13303.301
13339.049
13246.897
13256.18
13165.461
13141.783
13037.296
13165.088
12903.467
12741.514
13032.526
12910.763
13026.147
13021.563
13025.419
12938.933
12978.878
12912.6
12970.458
12845.089
12878.108
12638.819
12867.71
12642.355
12340.709
12608.934
12522.322
12698.676
12579.834
12695.696
12596.81
12684.11
12570.088
12579.815
12507.995
12489.131
12319.251
12523.82
12230.524
11962.496
12256.766
12158.861
12291.902
12214.589
12331.746
12185.915
12281.466
12147.003
12230.982
12094.777
12127.384
11938.367
12158.035
11849.713
11583.373
11846.962
11736.223
11897.206
11812.331
11909.749
11804.842
11876.762
11778.742
11800.701
11711.835
11733.643
11555.228
11780.95
11438.511
11188.579
11481.381
11371.093
11467.123
11396.473
11490.674
11394.308
11472.283
11387.17
11415.714
11338.506
11344.845
11235.677
11325.19
11018.871
10819.387
10949.866
10955.126
10982.22
10964.628
11026.539
10962.666
11012.163
10885.548
10955.833
10865.618
10896.78
10702.019
11042.675
10625.696
10339.848
10569.332
10475.137
10626.93
10514.802
10623.461
10504.017
10572.381
10474.107
10527.159
10453.506
10438.953
10341.134
10541.3
10236.897
9980.5947
10201.231
10136.536
10193.397
10141.719
10212.012
10111.808
10188.727
10071.431
10153.03
9990.8102
10112.527
9874.4113
10173.445
9934.2878
9527.1107
9802.6927
9644.5261
9822.9599
9684.5311
9820.2057
9670.4782
9771.1
9643.6068
9683.0551
9617.8413
9646.2275
9477.3327
9774.1945
9488.957
9132.8724
9384.9687
9270.2027
9382.2865
9283.3471
9396.944
9254.8379
9369.9363
9211.1742
9318.2608
9161.0763
9258.8328
9069.8992
9370.6703
9141.5415
8746.6593
9016.3848
8855.6493
9015.5155
8880.9201
9009.2643
8867.6077
8957.4144
8843.626
8900.5894
8787.9509
8869.8312
8669.0996
8987.2676
8762.4016
8381.5903
8628.7498
8494.3154
8627.5044
8500.9544
8638.9208
8468.942
8600.8487
8442.1637
8529.8585
8402.9036
8484.7153
8297.1263
8620.4406
8429.7351
8026.5924
8289.5058
8131.4996
8272.6969
8149.2061
8265.6066
8126.7644
8225.8886
8090.5357
8170.8008
8040.4468
8128.2155
7937.0741
8258.9577
8093.6088
7701.5989
7949.1481
7792.559
7938.4123
7800.4701
7940.9895
7776.9537
7891.5582
7752.5344
7828.0358
7705.7041
7791.4731
7600.2194
7924.2616
7791.2551
7388.3293
7640.4057
7482.0499
7615.6392
7496.6861
7618.899
7465.9318
7575.898
7436.3527
7511.8967
7390.8413
7470.2646
7282.7715
7604.0451
7499.2922
7101.0594
7354.7957
7180.6871
7326.5831
7197.09
7326.7454
7170.4362
7278.5266
7142.7172
7216.0784
7096.6393
7175.507
6989.6864
7305.9702
7231.2852
6836.9629
7082.1447
6915.7573
7054.1312
6932.8399
7060.8216
6901.5139
7009.9901
6875.2274
6942.8955
6827.3901
6900.2383
6716.1914
7025.8928
6986.171
6588.5687
6842.5287
6666.6143
6807.0132
6687.3302
6812.1847
6651.7341
6762.6538
6625.6155
6694.2943
6579.2062
6651.2373
6467.2778
6770.7913
6756.0688
6369.6256
6616.7309
6440.0719
6583.225
6466.141
6589.902
6430.7544
6539.1201
6403.0057
6468.0744
6354.1972
6421.544
6236.7035
6534.0219
6554.3801
6167.1212
6415.1394
6240.6917
6381.6126
6262.7773
6385.6756
6222.5394
6333.65
6196.3813
6262.1534
6147.7173
6216.5331
6029.5401
6322.6407
6367.3408
5985.3722
6235.3311
6057.6349
6196.0882
6082.9277
6204.0419
6043.7777
6155.3108
6017.3255
6079.2538
5967.501
6030.9533
5841.5029
6130.1584
6202.086
5826.058
6072.6607
5894.9235
6036.8141
5920.7312
6039.0752
5876.8103
5988.4811
5847.8494
5913.9598
5800.1738
5864.5728
5674.2993
5959.6628
6056.935
5682.4322
5928.5549
5754.7576
5890.9527
5775.9837
5895.0355
5735.2825
5846.6537
5709.0088
5770.2506
5657.3512
5719.6367
5525.7422
5808.4453
5927.0042
5556.1724
5803.5889
5626.9363