/*--------------------------------*- C++ -*----------------------------------*\
  =========                 |
  \\      /  F ield         | OpenFOAM: The Open Source CFD Toolbox
   \\    /   O peration     | Website:  https://openfoam.org
    \\  /    A nd           | Version:  6
     \\/     M anipulation  |
\*---------------------------------------------------------------------------*/
FoamFile
{
    version     2.0;
    format      ascii;
    class       pointVectorField;
    location    "1.93";
    object      lm;
}
// * * * * * * * * * * * * * * * * * * * * * * * * * * * * * * * * * * * * * //

dimensions      [1 -2 -1 0 0 0 0];

internalField   nonuniform List<vector> 
3969
(
(0 0 0)
(0 0 0)
(2375.5187 -33.996184 -130.5052)
(2369.297 -90.876837 -164.11663)
(0 0 0)
(0 0 0)
(2408.8264 -38.922023 -163.55877)
(2415.1682 18.950837 -130.84008)
(0 0 0)
(0 0 0)
(0 0 0)
(0 0 0)
(0 0 0)
(0 0 0)
(0 0 0)
(2374.9118 -39.935853 -134.19433)
(2374.9126 -46.734233 -137.97597)
(2374.6144 -54.363123 -142.50595)
(2373.9978 -62.345311 -147.14842)
(2372.9855 -70.399004 -151.89075)
(2371.6419 -77.873324 -156.35035)
(2370.1939 -84.658243 -160.43774)
(31.102669 61.836906 59.863588)
(49.35994 97.114651 77.453092)
(80.361093 133.02392 89.531928)
(120.34297 166.92729 98.171637)
(168.77031 196.42194 104.40892)
(224.98496 223.23229 109.28735)
(287.80512 245.1825 112.96702)
(356.80806 264.2191 114.94619)
(430.72865 278.63088 115.77897)
(509.16115 290.58994 114.58341)
(591.22173 298.99209 111.99783)
(676.26075 305.13816 107.51479)
(763.66367 308.5764 101.64897)
(852.819 310.27894 94.129188)
(942.96293 309.87012 85.485041)
(1033.7358 308.10305 75.803841)
(1124.4957 304.71885 65.410173)
(1214.7257 300.00912 54.561277)
(1303.8892 293.87819 43.468616)
(1391.5287 286.53157 32.422055)
(1477.052 277.79874 21.630488)
(1560.1001 267.85741 11.262521)
(1640.1177 256.5921 1.4761136)
(1716.7252 244.12328 -7.6170211)
(1789.5767 230.4295 -15.994165)
(1858.2602 215.66235 -23.589382)
(1922.5308 199.82646 -30.460542)
(1982.1133 183.17266 -36.60788)
(2036.8497 165.81107 -42.143411)
(2086.6173 147.98022 -47.121051)
(2131.3518 129.88611 -51.632194)
(2171.0975 111.80559 -55.782959)
(2205.931 93.96501 -59.674957)
(2236.0218 76.619992 -63.36008)
(2261.6731 60.092451 -67.038148)
(2282.9996 44.467914 -70.619596)
(2300.6495 30.114239 -74.332622)
(2314.8202 17.116197 -78.103288)
(2326.098 5.6009737 -82.166304)
(2334.8518 -4.3471813 -86.313176)
(2341.7137 -12.70159 -90.808522)
(2347.0451 -19.360798 -95.460451)
(2351.5643 -24.681029 -100.55495)
(2355.6047 -28.379097 -105.77515)
(2359.6055 -30.867629 -111.6034)
(2364.3418 -32.661758 -117.51746)
(2369.5595 -33.307286 -124.10648)
(1.7383635 -38.967356 -54.607431)
(36.424027 -65.1572 -41.077316)
(66.753931 -97.146824 -42.071156)
(109.73193 -122.73388 -27.122876)
(163.51837 -153.95226 -15.487786)
(222.00869 -180.49375 -1.6605126)
(287.85445 -206.9393 10.229669)
(357.83305 -231.0346 21.168844)
(432.48072 -253.42211 30.003589)
(510.38016 -273.43221 36.927591)
(591.07153 -291.54047 41.622221)
(674.07295 -306.97857 44.321103)
(758.60069 -320.2831 44.97301)
(844.56191 -331.04634 44.096492)
(931.06682 -339.25068 41.519512)
(1018.0977 -344.98512 37.865969)
(1105.0715 -348.301 33.167133)
(1191.5423 -349.14113 27.966314)
(1277.3781 -347.84816 22.362196)
(1361.7989 -344.27802 16.673802)
(1444.8433 -338.80689 11.077751)
(1525.632 -331.48106 5.7184377)
(1604.2004 -322.49653 0.63463809)
(1679.7256 -312.00182 -4.0453699)
(1752.2444 -300.38721 -8.3916507)
(1821.09 -287.76166 -12.355159)
(1886.3402 -274.29352 -16.192271)
(1947.1202 -260.25642 -19.876458)
(2003.5128 -245.84131 -23.485129)
(2055.2079 -231.25042 -27.278255)
(2102.1304 -216.63233 -31.336442)
(2144.2426 -202.19483 -35.777702)
(2181.5152 -188.08055 -40.707415)
(2214.0971 -174.49127 -46.185246)
(2242.122 -161.5315 -52.27463)
(2265.8335 -149.4 -59.000921)
(2285.6124 -138.1612 -66.267502)
(2301.7166 -128.05098 -74.285273)
(2314.6263 -118.90028 -82.683328)
(2324.8714 -111.05735 -91.54511)
(2332.8412 -104.4252 -100.71339)
(2339.0903 -99.057339 -110.19837)
(2344.192 -94.954678 -119.71842)
(2348.6247 -92.062471 -129.21867)
(2352.9139 -90.355671 -138.49734)
(2357.5806 -89.657162 -147.44935)
(2362.8867 -90.005736 -155.97709)
(0 0 0)
(0 0 0)
(0 0 0)
(0 0 0)
(0 0 0)
(0 0 0)
(0 0 0)
(31.005042 -37.229842 54.078923)
(55.962397 -108.9434 72.643315)
(80.637086 -112.8112 76.731293)
(127.20773 -162.23092 84.493393)
(175.82484 -184.96685 88.779831)
(233.38535 -211.30072 89.839388)
(298.22866 -233.96704 91.691028)
(367.28327 -251.38641 91.297825)
(442.63179 -267.04042 89.44259)
(520.56669 -278.66298 86.623864)
(603.37874 -288.15103 81.934323)
(688.69977 -294.46855 75.026503)
(776.50748 -299.71385 67.345326)
(865.50321 -302.17366 57.799363)
(955.97003 -304.13971 47.553217)
(1046.5139 -303.81576 36.162905)
(1137.3641 -302.91645 24.302778)
(1227.2861 -300.43247 12.077831)
(1316.3508 -297.25372 -0.15410445)
(1403.623 -292.75033 -12.23541)
(1488.976 -287.46297 -23.856411)
(1571.69 -280.98989 -34.909643)
(1651.5782 -273.6306 -45.204056)
(1728.07 -265.14741 -54.697224)
(1800.8914 -255.69031 -63.205699)
(1869.2447 -245.17387 -70.574953)
(1933.4743 -233.68425 -77.155499)
(1993.5119 -221.21536 -83.120295)
(2048.8409 -208.03006 -88.281598)
(2099.3952 -194.20146 -92.787609)
(2145.1365 -179.91271 -96.715402)
(2186.0607 -165.33173 -100.20466)
(2222.2463 -150.669 -103.35413)
(2253.8415 -136.141 -106.27294)
(2281.0661 -121.99262 -109.07777)
(2303.9529 -108.17171 -111.80836)
(2323.516 -95.877051 -114.73983)
(2339.1662 -83.574303 -117.56055)
(2351.9638 -73.022832 -120.77114)
(2362.2167 -63.59451 -124.14731)
(2370.2795 -55.615195 -127.79798)
(2376.8022 -49.064069 -131.82125)
(2382.1911 -44.058237 -136.17666)
(2386.9898 -40.518743 -140.93257)
(2391.6658 -38.428943 -146.08463)
(2396.6832 -37.653741 -151.64202)
(2402.4202 -37.962555 -157.60274)
(2409.8383 -32.484247 -159.16054)
(2411.1768 -25.457411 -154.87921)
(2412.6952 -17.770509 -150.98161)
(2413.7683 -9.567453 -147.41767)
(2414.3346 -1.2817189 -143.68497)
(2414.7313 6.1564176 -139.85382)
(2414.5292 13.111322 -135.46246)
(2409.0614 19.618248 -122.87234)
(2404.1008 20.148403 -114.82383)
(2399.958 21.355703 -106.04112)
(2396.3199 23.325445 -96.959261)
(2392.8361 26.229474 -87.58677)
(2388.9415 30.344823 -78.104468)
(2384.0874 35.750927 -68.706909)
(2377.7767 42.60422 -59.468907)
(2369.419 50.888372 -50.538587)
(2358.463 60.683313 -42.094073)
(2344.76 72.065978 -34.085022)
(2326.534 85.223471 -26.894519)
(2305.5229 99.054343 -19.966598)
(2279.6363 114.62348 -13.831452)
(2249.2395 131.14467 -8.2347397)
(2214.0002 148.57471 -3.2503246)
(2173.7791 166.70354 1.2824599)
(2128.5416 185.29858 5.3979186)
(2078.2444 204.04571 9.2745661)
(2023.0493 222.81348 12.926407)
(1963.076 241.11571 16.637212)
(1898.5212 258.91826 20.337661)
(1829.6841 275.71805 24.253889)
(1756.9477 291.40601 28.408099)
(1680.6128 305.62274 32.887318)
(1601.098 318.1946 37.633403)
(1518.8024 328.80573 42.65887)
(1434.1483 337.36594 47.793385)
(1347.5549 343.545 52.98006)
(1259.423 347.39221 57.878856)
(1170.2275 348.57471 62.42297)
(1080.2901 347.18856 66.224218)
(990.04483 342.99641 68.854089)
(900.22012 336.51802 70.439472)
(810.86062 326.58075 70.351376)
(722.24057 314.10071 68.336094)
(635.69002 299.27949 64.212575)
(550.88772 281.61479 58.344329)
(468.78335 262.11487 49.279197)
(390.99546 239.57759 39.228132)
(316.87784 214.78094 26.933139)
(246.53783 188.54231 12.255411)
(184.93368 159.34905 -2.3743105)
(127.93966 130.53532 -17.730341)
(81.352811 100.39605 -30.014387)
(44.89483 65.325139 -39.624471)
(32.007562 43.210262 -32.667311)
(0 0 0)
(0 0 0)
(0 0 0)
(0 0 0)
(0 0 0)
(0 0 0)
(0 0 0)
(0 0 0)
(0 0 0)
(0 0 0)
(0 0 0)
(0 0 0)
(0 0 0)
(0 0 0)
(2374.0407 -83.266507 -163.8526)
(2378.6839 -75.968722 -163.63874)
(2383.4724 -69.083562 -163.62908)
(2388.3759 -62.506779 -163.67269)
(2393.4132 -56.205901 -163.7971)
(2398.5942 -50.238581 -163.88968)
(2403.8033 -44.339694 -163.67105)
(2380.0764 -28.000374 -130.65602)
(2384.7167 -21.730413 -130.68682)
(2389.3727 -15.406749 -130.58895)
(2394.1565 -9.008916 -130.49563)
(2399.1421 -2.40993 -130.4509)
(2404.2816 4.3966061 -130.49938)
(2409.6903 11.523357 -130.80486)
(12.837287 42.761936 56.78449)
(36.604144 67.837116 60.268674)
(66.490358 97.882501 74.019511)
(107.69618 122.95263 81.528647)
(156.56248 144.84882 88.580012)
(214.44462 164.45366 94.202058)
(278.52998 180.39128 98.321928)
(348.56821 193.72722 101.69083)
(423.91683 203.85135 102.89305)
(503.23148 211.88083 102.90609)
(586.23375 217.157 101.06921)
(671.93403 220.76084 97.737714)
(759.96314 222.47903 92.615762)
(849.54599 222.91181 86.175104)
(940.16285 222.00458 78.582371)
(1031.2233 219.94483 69.921624)
(1122.2949 216.9242 60.593358)
(1212.7635 212.94111 50.722927)
(1302.2024 208.10404 40.611148)
(1390.0718 202.4104 30.480326)
(1475.9119 195.86228 20.53703)
(1559.2385 188.44585 10.960708)
(1639.592 180.13375 1.893362)
(1716.5824 170.95454 -6.5887575)
(1789.8011 160.89119 -14.430193)
(1858.8885 150.04959 -21.605102)
(1923.5546 138.39269 -28.106976)
(1983.5679 126.11516 -34.040746)
(2038.6942 113.29 -39.418955)
(2088.8233 100.07705 -44.347673)
(2133.8927 86.660793 -48.899385)
(2173.9049 73.195632 -53.190734)
(2208.9558 59.893499 -57.280654)
(2239.202 46.956225 -61.301605)
(2264.8855 34.539729 -65.306348)
(2286.286 22.843182 -69.34158)
(2303.8281 12.035792 -73.527758)
(2317.8069 2.1949177 -77.882575)
(2328.8202 -6.5597383 -82.443831)
(2337.2719 -14.191924 -87.2169)
(2343.7685 -20.626812 -92.268885)
(2348.6701 -26.004049 -97.542397)
(2352.8056 -30.242505 -103.14289)
(2356.2727 -33.559533 -108.95859)
(2359.9363 -36.01133 -115.08452)
(2364.1972 -37.904337 -121.37231)
(2368.9061 -38.914967 -127.87497)
(-1.1754292 31.420587 42.394903)
(21.909721 44.958203 47.743938)
(54.987475 71.060888 59.819948)
(96.19229 86.599933 67.524327)
(148.12556 102.45661 74.5516)
(206.33301 115.40848 80.281286)
(271.49732 125.61552 85.746868)
(342.90877 133.42361 89.100126)
(418.80463 138.91714 91.624955)
(498.99211 142.68875 92.290681)
(582.41128 144.54323 91.474674)
(668.62524 145.35545 88.843838)
(756.90699 144.76958 84.803443)
(846.63934 143.51617 79.316571)
(937.39113 141.34564 72.549823)
(1028.6849 138.77458 64.795072)
(1119.8159 135.63201 56.247362)
(1210.4255 132.12047 47.202868)
(1299.9207 128.16797 37.882481)
(1387.9191 123.85747 28.509241)
(1473.8394 119.05411 19.296382)
(1557.3022 113.78044 10.41827)
(1637.8684 108.00796 1.9529339)
(1715.1056 101.65462 -5.9755826)
(1788.5755 94.761859 -13.328387)
(1857.9895 87.322603 -20.078857)
(1922.9564 79.296763 -26.288554)
(1983.277 70.822747 -31.929738)
(2038.7096 61.925341 -37.170027)
(2089.1499 52.721835 -42.009477)
(2134.483 43.33175 -46.593232)
(2174.7355 33.87883 -50.962241)
(2209.9921 24.510092 -55.25828)
(2240.3829 15.368999 -59.527834)
(2266.1734 6.6066515 -63.863638)
(2287.614 -1.6728164 -68.32129)
(2305.1251 -9.3102637 -72.966185)
(2319.0587 -16.295652 -77.793404)
(2329.9962 -22.449978 -82.923554)
(2338.2598 -27.845295 -88.215085)
(2344.5991 -32.421886 -93.837062)
(2349.2859 -36.205222 -99.648371)
(2353.1575 -39.299438 -105.75189)
(2356.4673 -41.701043 -111.97211)
(2359.8534 -43.509355 -118.53281)
(2363.906 -45.015652 -124.98864)
(2368.2849 -45.753624 -131.76965)
(-8.3296988 20.650936 29.181144)
(15.770709 31.019168 33.819721)
(46.442301 44.534864 44.002738)
(90.920993 54.831336 51.222682)
(142.34387 62.507892 58.752841)
(202.08422 69.483667 66.119642)
(268.65479 72.695375 71.304914)
(339.98451 75.196089 76.682892)
(416.63485 75.797511 79.763336)
(496.79895 75.202574 81.711929)
(580.56677 73.645276 81.642854)
(666.76417 71.455173 80.074955)
(755.05323 68.627661 76.925434)
(844.83545 65.62815 72.189962)
(935.58501 62.523684 66.343097)
(1026.6139 59.26618 59.479136)
(1117.6042 56.055225 51.78001)
(1207.9918 52.910832 43.61487)
(1297.3496 49.798577 35.071302)
(1385.2284 46.72428 26.483666)
(1471.1048 43.570459 18.012871)
(1554.6178 40.406013 9.7816994)
(1635.2018 37.001336 1.929806)
(1712.4783 33.441044 -5.4006283)
(1786.0932 29.576594 -12.258399)
(1855.6272 25.382926 -18.579528)
(1920.7895 20.891691 -24.408214)
(1981.3065 16.074972 -29.783895)
(2037.0019 10.953818 -34.809996)
(2087.682 5.5999954 -39.553473)
(2133.2657 0.093543198 -44.102297)
(2173.7754 -5.5151393 -48.562367)
(2209.2537 -11.107326 -53.006254)
(2239.853 -16.573121 -57.52592)
(2265.8181 -21.867471 -62.181498)
(2287.4068 -26.840383 -67.028564)
(2305.0067 -31.448567 -72.125081)
(2319.0204 -35.646316 -77.455507)
(2329.9214 -39.345619 -83.083979)
(2338.2214 -42.604171 -88.938481)
(2344.4921 -45.294439 -95.149341)
(2349.1635 -47.586161 -101.47354)
(2352.9674 -49.378048 -108.13763)
(2356.1707 -50.83732 -114.87232)
(2359.4448 -51.936913 -121.82507)
(2363.3133 -52.882935 -128.73406)
(2367.5635 -53.44104 -135.77868)
(-11.783656 9.842343 15.028934)
(10.89917 13.210601 18.364849)
(43.727272 19.762713 27.403899)
(86.436463 22.131002 36.092449)
(139.63755 22.848757 45.035116)
(199.75616 23.200267 52.212025)
(265.96453 20.440118 60.159653)
(338.14647 17.723694 65.37136)
(414.65512 13.460772 69.818186)
(495.44645 8.9631579 72.287954)
(579.16363 3.9960113 73.076611)
(665.45973 -1.0285203 72.377372)
(753.58073 -6.0802514 69.811859)
(843.15496 -10.625247 65.970102)
(933.51601 -14.959141 60.896565)
(1024.3156 -18.71423 54.719222)
(1114.9907 -22.055138 47.76724)
(1205.0908 -24.777678 40.248042)
(1294.1704 -27.078701 32.37837)
(1381.7845 -28.901869 24.494296)
(1467.3816 -30.364728 16.638944)
(1550.6232 -31.566476 8.9955686)
(1631.0621 -32.538468 1.7947669)
(1708.3065 -33.535901 -5.003549)
(1781.8854 -34.529917 -11.341712)
(1851.5142 -35.611894 -17.200685)
(1916.8275 -36.813367 -22.681685)
(1977.5562 -38.202678 -27.76513)
(2033.4663 -39.745029 -32.592189)
(2084.3947 -41.459843 -37.189107)
(2130.2589 -43.31096 -41.710149)
(2171.0338 -45.257177 -46.208284)
(2206.7817 -47.254114 -50.783624)
(2237.6446 -49.233679 -55.529031)
(2263.857 -51.162857 -60.475952)
(2285.6614 -52.96251 -65.716224)
(2303.4867 -54.628494 -71.238343)
(2317.6921 -56.059149 -77.096885)
(2328.8548 -57.283502 -83.257719)
(2337.2661 -58.282207 -89.72384)
(2343.6238 -59.077799 -96.441397)
(2348.3507 -59.71073 -103.4131)
(2352.1633 -60.176957 -110.58083)
(2355.3683 -60.530273 -117.83295)
(2358.6361 -60.831845 -125.2034)
(2362.487 -61.19504 -132.52642)
(2366.7318 -61.562644 -139.93883)
(-13.801743 1.2199798 0.68377471)
(12.547443 2.5075283 2.2702975)
(41.710981 -1.2104085 12.078154)
(86.97608 -5.6585971 20.479846)
(140.30502 -12.432055 28.956462)
(200.48215 -19.842861 38.756394)
(267.72359 -28.260749 46.075841)
(339.80125 -37.248563 53.100313)
(416.69908 -46.074963 58.11447)
(497.02565 -55.229417 61.934037)
(580.48748 -64.061897 63.931561)
(666.23727 -72.332815 64.111985)
(753.88377 -79.784054 62.562493)
(842.85346 -86.38931 59.633749)
(932.66494 -92.039343 55.298348)
(1022.8272 -96.650356 49.950783)
(1112.9083 -100.24189 43.672869)
(1202.4131 -102.70837 36.868031)
(1290.9775 -104.32127 29.688734)
(1378.0866 -104.94707 22.460667)
(1463.3138 -104.90984 15.175529)
(1546.4443 -104.13034 8.2564766)
(1626.736 -102.96732 1.5344564)
(1703.8508 -101.27406 -4.7360678)
(1777.4523 -99.302439 -10.664797)
(1847.0889 -97.163855 -16.115989)
(1912.4594 -94.964304 -21.214767)
(1973.3157 -92.772653 -25.984589)
(2029.3975 -90.631707 -30.557604)
(2080.5451 -88.611649 -34.990855)
(2126.6405 -86.694308 -39.437772)
(2167.6726 -84.889103 -43.954252)
(2203.6779 -83.228327 -48.635561)
(2234.8181 -81.627602 -53.591997)
(2261.2665 -80.174137 -58.813284)
(2283.3422 -78.756273 -64.415027)
(2301.3442 -77.442333 -70.361169)
(2315.7933 -76.083568 -76.700526)
(2326.9324 -74.922492 -83.31693)
(2335.3343 -73.810259 -90.342465)
(2341.8573 -72.769351 -97.681032)
(2346.7611 -71.821255 -105.14375)
(2350.6579 -70.950513 -112.87024)
(2354.0154 -70.289654 -120.58703)
(2357.4514 -69.800011 -128.4605)
(2361.3458 -69.637231 -136.2228)
(2365.8056 -69.812952 -144.05511)
(-11.378076 -10.391419 -17.360971)
(16.244388 -17.797732 -11.941427)
(46.693273 -29.988159 -5.0979704)
(92.438106 -41.876663 3.5067659)
(145.00335 -56.418093 15.064222)
(205.30339 -69.65304 24.638936)
(272.00427 -84.424823 34.242985)
(343.76906 -98.112595 42.440307)
(420.0344 -111.74955 48.72456)
(499.73591 -124.57503 53.780557)
(582.62302 -136.46254 56.474239)
(667.5714 -147.15835 57.399149)
(754.42451 -156.61745 56.57676)
(842.56765 -164.59773 54.264034)
(931.53554 -171.20903 50.569691)
(1020.858 -176.21396 45.764646)
(1110.133 -179.78223 40.112049)
(1198.8906 -181.81093 33.858963)
(1286.7346 -182.51385 27.26417)
(1373.1634 -181.87076 20.552137)
(1457.9077 -180.07586 13.906452)
(1540.2678 -177.47264 7.4125409)
(1620.0626 -173.80927 1.3358303)
(1696.8096 -169.13747 -4.4438376)
(1770.0931 -164.15175 -9.7566327)
(1839.5477 -158.76296 -14.660805)
(1904.8718 -153.16032 -19.378542)
(1965.7665 -147.3515 -23.788968)
(2021.9944 -141.51379 -28.071523)
(2073.326 -135.66656 -32.33317)
(2119.6916 -129.889 -36.684995)
(2161.0441 -124.26443 -41.203108)
(2197.4291 -118.802 -46.006186)
(2228.9696 -113.56905 -51.152883)
(2255.8684 -108.59846 -56.674695)
(2278.3809 -103.87578 -62.669579)
(2296.8839 -99.502209 -69.080651)
(2311.7416 -95.421371 -75.987835)
(2323.427 -91.694275 -83.179563)
(2332.5992 -88.34653 -90.948818)
(2339.4242 -85.500264 -98.776866)
(2344.6347 -82.996993 -106.96065)
(2348.8149 -80.936449 -115.22697)
(2352.4548 -79.292583 -123.57605)
(2356.0948 -78.154713 -131.87961)
(2360.1535 -77.467178 -140.01522)
(2364.8765 -77.433024 -148.16444)
(-7.7127373 -21.384335 -30.265523)
(22.051332 -32.965099 -26.412436)
(52.691568 -55.047568 -22.26213)
(98.917195 -74.820109 -10.898325)
(150.80539 -95.906394 -0.092231863)
(211.52263 -117.07726 11.501873)
(277.7483 -137.66199 22.153928)
(349.07677 -157.31738 31.344921)
(424.86316 -175.91411 38.928548)
(503.81686 -192.92534 44.730743)
(586.11333 -208.53666 48.4765)
(670.14649 -222.30864 50.160844)
(756.08563 -234.08814 50.15029)
(843.29366 -244.02092 48.612281)
(931.3045 -251.81884 45.555796)
(1019.6189 -257.54928 41.393195)
(1107.9312 -261.22334 36.317503)
(1195.7165 -262.9225 30.607875)
(1282.6688 -262.71761 24.575972)
(1368.3155 -260.78051 18.392188)
(1452.2726 -257.26749 12.291612)
(1534.184 -252.28559 6.3797424)
(1613.3682 -246.14199 0.79883837)
(1689.7394 -238.83443 -4.3899205)
(1762.707 -230.68766 -9.2243536)
(1832.0518 -221.82742 -13.730722)
(1897.3894 -212.54305 -18.067536)
(1958.306 -202.92326 -22.107192)
(2014.6263 -193.15272 -26.106944)
(2066.1508 -183.28919 -30.147938)
(2112.7693 -173.48623 -34.365811)
(2154.4403 -163.84085 -38.855417)
(2191.187 -154.44915 -43.718078)
(2223.1382 -145.40513 -49.018045)
(2250.4551 -136.80268 -54.804818)
(2273.4339 -128.64633 -61.145406)
(2292.3847 -121.1354 -67.964692)
(2307.6459 -114.16484 -75.33347)
(2319.7673 -107.87802 -83.125306)
(2329.2675 -102.35808 -91.317293)
(2336.4436 -97.519742 -99.850608)
(2342.0227 -93.477768 -108.60111)
(2346.5012 -90.133383 -117.46473)
(2350.4125 -87.57454 -126.32043)
(2354.3004 -85.736252 -135.0482)
(2358.5751 -84.595505 -143.60704)
(2363.8242 -84.251206 -151.98901)
(0 0 0)
(0 0 0)
(0 0 0)
(0 0 0)
(0 0 0)
(0 0 0)
(0 0 0)
(0 0 0)
(0 0 0)
(0 0 0)
(0 0 0)
(0 0 0)
(0 0 0)
(0 0 0)
(0 0 0)
(0 0 0)
(0 0 0)
(0 0 0)
(0 0 0)
(0 0 0)
(0 0 0)
(0 0 0)
(0 0 0)
(0 0 0)
(0 0 0)
(0 0 0)
(0 0 0)
(0 0 0)
(0 0 0)
(0 0 0)
(0 0 0)
(0 0 0)
(0 0 0)
(0 0 0)
(0 0 0)
(0 0 0)
(0 0 0)
(0 0 0)
(0 0 0)
(0 0 0)
(0 0 0)
(0 0 0)
(0 0 0)
(0 0 0)
(0 0 0)
(0 0 0)
(0 0 0)
(0 0 0)
(0 0 0)
(21.512269 -14.087099 -27.401138)
(27.71827 -19.690516 -17.537028)
(35.169931 -20.836969 -7.4999436)
(38.663388 -22.560077 1.0744629)
(39.015676 -21.397271 8.8883931)
(39.589514 -23.094368 17.638715)
(35.600783 -16.889835 27.835673)
(53.988124 -75.167596 -31.243827)
(65.284797 -85.823217 -13.353785)
(70.459199 -80.592203 -0.6024635)
(72.84161 -78.58494 10.471725)
(76.052702 -84.998656 21.126454)
(72.026322 -86.10368 34.49581)
(68.954403 -89.240706 53.34226)
(79.169838 -96.490148 -24.726585)
(92.220911 -95.18813 -13.01035)
(101.25244 -101.84185 4.4627902)
(103.96332 -102.95429 17.90535)
(104.47773 -101.73497 32.415572)
(101.5899 -104.74149 43.725325)
(96.693195 -114.18264 65.066936)
(126.83175 -135.44611 -13.012312)
(137.26047 -141.35195 -0.95401789)
(143.37774 -141.88401 15.392593)
(147.03502 -143.29183 26.412805)
(147.74344 -145.64705 40.227681)
(145.12039 -151.31432 56.70493)
(136.49694 -151.74695 69.164146)
(175.4103 -163.83191 -1.955099)
(185.71974 -166.48713 9.2080535)
(193.83835 -170.64649 23.273326)
(196.2502 -171.8691 36.609398)
(197.04653 -174.20849 49.207972)
(193.81437 -177.10817 61.887558)
(188.22502 -182.5549 77.127817)
(234.64949 -191.39942 10.797493)
(242.51919 -194.92141 21.672512)
(248.28144 -196.79162 33.911499)
(251.62163 -199.78741 44.770542)
(251.16362 -201.4872 56.782091)
(248.83323 -204.72322 69.139633)
(242.0328 -207.55448 79.797679)
(297.93063 -216.12069 21.482434)
(305.73305 -219.7717 31.579977)
(311.85866 -223.44653 42.55934)
(313.85638 -225.194 52.032875)
(314.63098 -227.5019 63.345099)
(311.89263 -230.33104 72.667645)
(307.14518 -233.2529 83.158872)
(367.31239 -239.12599 31.412233)
(373.9318 -242.25693 40.153436)
(378.39308 -243.87164 49.539684)
(381.1716 -246.0814 58.200502)
(381.14085 -247.39021 67.100636)
(379.00763 -248.81234 76.150759)
(374.32285 -250.56087 84.18561)
(440.63013 -259.66821 38.962669)
(446.60622 -262.16422 47.224233)
(451.29201 -264.22069 55.200981)
(453.09429 -265.16694 62.402661)
(453.98768 -266.84394 69.894021)
(452.04053 -267.22013 77.025722)
(448.74222 -268.76736 84.172952)
(517.68028 -277.95437 44.873441)
(523.03539 -279.43979 51.571923)
(526.83876 -280.29973 58.53028)
(529.18745 -281.17498 64.955996)
(529.72879 -281.33773 71.369888)
(528.59741 -281.25046 77.007527)
(525.68493 -281.37359 82.743043)
(597.71049 -294.3755 48.330734)
(602.4462 -294.83018 54.52953)
(606.35061 -295.16017 60.002448)
(608.34213 -294.7575 64.789511)
(609.74259 -294.46755 69.77912)
(608.9068 -293.50987 74.381006)
(606.8923 -292.55764 79.068331)
(679.9071 -307.89756 49.937234)
(684.44543 -307.26448 54.970033)
(687.8656 -306.56255 58.975196)
(690.31984 -305.44799 63.215245)
(691.65547 -304.49696 67.088834)
(691.34206 -302.47177 70.510056)
(690.93615 -300.6653 73.167055)
(763.95336 -319.81198 49.369339)
(768.2603 -318.09225 53.140939)
(771.84474 -316.49623 56.521883)
(774.48415 -314.91393 59.381237)
(776.26076 -312.79532 62.194575)
(777.29938 -310.56163 64.315045)
(777.23518 -306.9702 66.354938)
(849.19937 -328.98476 47.276912)
(853.39653 -326.3119 50.06158)
(856.90442 -323.82097 52.085929)
(859.61676 -321.14928 54.091064)
(862.24664 -318.57828 55.651615)
(863.54412 -314.84611 57.031093)
(864.93016 -310.85051 57.72836)
(935.45317 -336.02743 43.501272)
(939.70768 -332.59787 45.134393)
(943.06515 -329.23142 46.26786)
(946.61583 -326.30469 47.27291)
(949.28933 -322.6641 47.85923)
(951.8891 -318.62916 48.287968)
(954.02067 -313.54201 48.111198)
(1022.138 -340.79116 38.634875)
(1026.0995 -336.55517 39.288633)
(1029.809 -332.68755 39.41947)
(1033.309 -328.70669 39.400205)
(1036.8209 -324.69035 39.064139)
(1040.0159 -319.67176 38.603522)
(1043.3036 -314.22568 37.456656)
(1108.7203 -343.31387 32.845336)
(1112.8731 -338.67862 32.45067)
(1116.4314 -334.05816 31.607218)
(1120.5824 -329.80063 30.678141)
(1124.4378 -325.1511 29.449106)
(1128.639 -319.85102 28.154844)
(1132.7305 -313.63304 26.206631)
(1195.0157 -343.79328 26.512545)
(1198.8583 -338.59418 25.10767)
(1202.7236 -333.66999 23.406128)
(1207.0011 -328.78481 21.551118)
(1211.4959 -323.82005 19.459641)
(1216.3288 -317.85217 17.386456)
(1221.4729 -311.5138 14.578671)
(1280.3501 -342.16878 19.861366)
(1284.2861 -336.80782 17.480252)
(1288.0733 -331.43407 14.883575)
(1292.8398 -326.37712 12.162952)
(1297.6523 -320.97371 9.2389095)
(1303.3786 -314.95311 6.448918)
(1309.2981 -308.25285 2.8802981)
(1364.5659 -338.65029 13.167938)
(1368.1976 -333.01382 9.8675842)
(1372.1817 -327.53103 6.4578662)
(1377.0582 -322.10106 2.8967436)
(1382.3987 -316.6024 -0.78146346)
(1388.7087 -310.26738 -4.3268695)
(1395.5042 -303.59995 -8.6388862)
(1447.0356 -333.25919 6.6489016)
(1450.6461 -327.64294 2.4638799)
(1454.5028 -321.95203 -1.7831628)
(1459.7299 -316.48963 -6.1000543)
(1465.3375 -310.79038 -10.560153)
(1472.3369 -304.52629 -14.756024)
(1479.8133 -297.82665 -19.749857)
(1527.5509 -326.17298 0.41839122)
(1530.8119 -320.49029 -4.5856887)
(1534.7433 -314.86522 -9.5469355)
(1540.0367 -309.25241 -14.623363)
(1545.9962 -303.60231 -19.740721)
(1553.4784 -297.3062 -24.625561)
(1561.6478 -290.82267 -30.275754)
(1605.5249 -317.47104 -5.433959)
(1608.6257 -311.93828 -11.152497)
(1612.4278 -306.33037 -16.831518)
(1617.874 -300.75341 -22.531978)
(1624.0398 -295.08298 -28.355114)
(1632.0054 -288.97909 -33.809562)
(1640.7219 -282.6968 -40.083257)
(1680.7281 -307.40764 -10.797441)
(1683.447 -301.91046 -17.191686)
(1687.2329 -296.4855 -23.413865)
(1692.6474 -290.83603 -29.814549)
(1699.0104 -285.3718 -36.134019)
(1707.3151 -279.40972 -42.235822)
(1716.5206 -273.46114 -49.074872)
(1752.7087 -296.03856 -15.664213)
(1755.0668 -290.73974 -22.670251)
(1758.8287 -285.47728 -29.443005)
(1764.0734 -279.89753 -36.384046)
(1770.7159 -274.52376 -43.187381)
(1779.1936 -268.67515 -49.831994)
(1788.8192 -263.04287 -57.131426)
(1821.1432 -283.61217 -20.114687)
(1823.1749 -278.52374 -27.630062)
(1826.8168 -273.27771 -34.775928)
(1832.0224 -267.83326 -42.451303)
(1838.7808 -262.52374 -49.271835)
(1847.1667 -256.969 -56.566398)
(1857.0682 -251.69709 -64.043353)
(1885.7693 -270.29952 -24.20734)
(1887.4778 -265.32286 -32.021593)
(1890.8677 -260.14864 -39.720784)
(1895.8367 -254.93682 -47.431825)
(1902.6376 -249.72959 -54.955938)
(1911.1679 -244.5004 -62.622997)
(1921.2454 -239.33848 -70.185535)
(1946.1409 -256.35199 -28.028264)
(1947.6488 -251.46059 -36.249362)
(1950.6436 -246.37759 -44.14937)
(1955.6975 -241.30217 -52.105764)
(1962.2743 -236.2576 -60.040377)
(1970.9025 -231.18082 -67.792989)
(1981.0331 -226.3138 -75.858488)
(2002.1438 -241.922 -31.786226)
(2003.3475 -237.0055 -40.228855)
(2006.2342 -232.0555 -48.218344)
(2011.0653 -227.00285 -56.506407)
(2017.6274 -221.97221 -64.518875)
(2026.1889 -217.14914 -72.52241)
(2036.3563 -212.47395 -80.766395)
(2053.5621 -227.13944 -35.597651)
(2054.617 -222.25509 -44.098813)
(2057.2552 -217.26063 -52.181776)
(2061.997 -212.28065 -60.52842)
(2068.4161 -207.35029 -68.654081)
(2076.8909 -202.67286 -76.736149)
(2086.9878 -198.13422 -85.121097)
(2100.3418 -212.26692 -39.574292)
(2101.1874 -207.26673 -48.027224)
(2103.7255 -202.31469 -56.081834)
(2108.3007 -197.33263 -64.432735)
(2114.6113 -192.40946 -72.514595)
(2122.94 -187.84245 -80.634468)
(2132.9083 -183.39336 -88.985181)
(2142.3615 -197.44522 -43.827724)
(2143.1544 -192.38142 -52.118147)
(2145.5665 -187.34632 -60.057986)
(2150.0274 -182.33048 -68.253213)
(2156.1899 -177.42716 -76.246333)
(2164.3294 -172.89591 -84.255684)
(2174.1102 -168.49698 -92.503743)
(2179.7177 -182.92273 -48.474557)
(2180.4697 -177.68998 -56.498738)
(2182.8356 -172.56568 -64.207316)
(2187.1723 -167.51365 -72.174769)
(2193.1872 -162.55855 -79.948196)
(2201.1143 -158.01987 -87.761072)
(2210.65 -153.62013 -95.795554)
(2212.4603 -168.84104 -53.581176)
(2213.2689 -163.44314 -61.236998)
(2215.6248 -158.1921 -68.624933)
(2219.8669 -153.04817 -76.253557)
(2225.7536 -148.02873 -83.711801)
(2233.4189 -143.44889 -91.240375)
(2242.6682 -138.98668 -98.957167)
(2240.7786 -155.40692 -59.216178)
(2241.7104 -149.79493 -66.401476)
(2244.1053 -144.4044 -73.389466)
(2248.2853 -139.15882 -80.584728)
(2254.0152 -134.04382 -87.656316)
(2261.4223 -129.33125 -94.819002)
(2270.3948 -124.81122 -102.06926)
(2264.901 -142.77484 -65.4122)
(2266.0132 -136.9577 -72.085688)
(2268.5084 -131.39703 -78.590899)
(2272.6453 -126.02801 -85.271441)
(2278.274 -120.73953 -91.844374)
(2285.4191 -116.02805 -98.550697)
(2293.949 -111.36849 -105.20475)
(2285.194 -131.14083 -72.134458)
(2286.5216 -125.00818 -78.1536)
(2289.1268 -119.31384 -84.051622)
(2293.277 -113.75542 -90.192793)
(2298.7151 -108.45777 -96.220424)
(2305.5241 -103.25419 -102.26146)
(2313.725 -98.511747 -108.70941)
(2301.7632 -120.26381 -79.420597)
(2303.5282 -114.20772 -84.799437)
(2306.317 -108.27798 -90.148168)
(2310.4282 -102.61534 -95.57086)
(2315.8116 -97.077784 -101.0411)
(2322.3739 -92.162776 -106.66388)
(2330.2953 -87.034115 -112.14997)
(2315.351 -111.0892 -87.243269)
(2317.3698 -104.66452 -91.943034)
(2320.3951 -98.568142 -96.63902)
(2324.5962 -92.766634 -101.44259)
(2329.8698 -87.092967 -106.23124)
(2336.2175 -81.70836 -111.02766)
(2343.6051 -76.456852 -115.98378)
(2326.2239 -102.86382 -95.39113)
(2328.6294 -96.315577 -99.434554)
(2331.901 -90.094849 -103.45127)
(2336.1528 -84.141951 -107.56171)
(2341.3613 -78.302445 -111.64378)
(2347.3993 -72.810901 -115.86421)
(2354.4382 -67.369255 -120.03764)
(2334.873 -96.051683 -103.97004)
(2337.6673 -89.372986 -107.24099)
(2341.2066 -83.033516 -110.62436)
(2345.5354 -76.937809 -114.02446)
(2350.6537 -70.983652 -117.45959)
(2356.4774 -65.297112 -120.94944)
(2363.1451 -59.683802 -124.40349)
(2341.7987 -90.584897 -112.78526)
(2345.0082 -83.814256 -115.32664)
(2348.8252 -77.380389 -118.07741)
(2353.2121 -71.159037 -120.75925)
(2358.3078 -65.091735 -123.55639)
(2363.9071 -59.249278 -126.36587)
(2370.1979 -53.47061 -129.11975)
(2347.5211 -86.512012 -121.67727)
(2351.1182 -79.670076 -123.56663)
(2355.1908 -73.134237 -125.69178)
(2359.6719 -66.815916 -127.74188)
(2364.7394 -60.651918 -129.93557)
(2370.1236 -54.676732 -132.08231)
(2376.1069 -48.763757 -134.1603)
(2352.5154 -83.754876 -130.55804)
(2356.4783 -76.856456 -131.8617)
(2360.789 -70.228409 -133.41596)
(2365.374 -63.840467 -134.89368)
(2370.4047 -57.598784 -136.52098)
(2375.6479 -51.530577 -138.08803)
(2381.3412 -45.541465 -139.55275)
(2357.2825 -82.247805 -139.30083)
(2361.5562 -75.292955 -140.11415)
(2366.0644 -68.593634 -141.14917)
(2370.741 -62.139289 -142.1524)
(2375.7607 -55.836359 -143.29787)
(2380.8873 -49.720953 -144.34308)
(2386.3614 -43.696089 -145.2775)
(2362.252 -81.832973 -147.78384)
(2366.7626 -74.808959 -148.19098)
(2371.417 -68.020532 -148.81399)
(2376.2002 -61.509297 -149.43814)