/*--------------------------------*- C++ -*----------------------------------*\
  =========                 |
  \\      /  F ield         | OpenFOAM: The Open Source CFD Toolbox
   \\    /   O peration     | Website:  https://openfoam.org
    \\  /    A nd           | Version:  6
     \\/     M anipulation  |
\*---------------------------------------------------------------------------*/
FoamFile
{
    version     2.0;
    format      ascii;
    class       pointVectorField;
    location    "0.66";
    object      lm;
}
// * * * * * * * * * * * * * * * * * * * * * * * * * * * * * * * * * * * * * //

dimensions      [1 -2 -1 0 0 0 0];

internalField   nonuniform List<vector> 
3969
(
(0 0 0)
(0 0 0)
(3720.1621 -1321.9819 -23.993287)
(3288.1706 -2024.3127 -5.5891525)
(0 0 0)
(0 0 0)
(3295.4256 -1973.9252 -5.7144568)
(3728.2142 -1271.2204 -24.295119)
(0 0 0)
(0 0 0)
(0 0 0)
(0 0 0)
(0 0 0)
(0 0 0)
(0 0 0)
(3665.9553 -1408.8377 -21.544963)
(3612.2565 -1496.5166 -19.544944)
(3558.6523 -1584.0437 -17.295971)
(3505.0041 -1671.9629 -15.04585)
(3451.2997 -1760.0883 -12.768938)
(3397.2174 -1848.168 -10.531221)
(3343.0013 -1936.2552 -8.0610394)
(-11.058435 3.4039233 14.409276)
(-31.566476 17.154985 25.25022)
(-45.299286 39.542379 38.648793)
(-50.147282 66.472779 47.545177)
(-45.576053 99.146341 57.07571)
(-26.997333 132.2338 63.5077)
(3.6909451 166.13042 69.14349)
(49.726302 197.20498 71.943257)
(108.46227 224.42849 73.358238)
(180.64092 245.37737 71.973113)
(263.862 259.78536 69.60791)
(356.77088 266.23065 65.162894)
(456.75731 264.60446 59.986761)
(562.32837 255.28161 54.393811)
(670.82603 238.32895 48.635683)
(780.47851 215.03295 43.742538)
(890.16297 186.02568 39.490477)
(998.37728 152.32474 36.44193)
(1104.4691 114.93938 34.6939)
(1207.7985 74.718726 34.230303)
(1308.261 32.486528 35.065404)
(1405.8732 -11.166844 36.94552)
(1500.8694 -55.721551 39.71063)
(1593.6077 -100.84307 43.106909)
(1684.4403 -146.37048 46.942411)
(1773.838 -192.2625 50.881805)
(1862.1165 -238.41764 54.796285)
(1949.6341 -284.97421 58.410294)
(2036.7343 -331.97151 61.476599)
(2123.685 -379.51523 63.897319)
(2210.7235 -427.70845 65.378468)
(2297.9858 -476.59878 65.85079)
(2385.6377 -526.19759 65.198355)
(2473.7069 -576.57894 63.427958)
(2562.3183 -627.52522 60.398808)
(2651.2449 -679.14716 56.495368)
(2740.761 -731.38359 51.489356)
(2830.4035 -783.91158 45.639935)
(2920.3715 -837.01193 39.4186)
(3010.3457 -890.11103 32.559486)
(3100.2057 -943.80664 25.587385)
(3190.0634 -997.61745 18.348626)
(3279.3116 -1051.0601 11.069558)
(3368.6895 -1106.0953 3.9356331)
(3457.043 -1158.9958 -3.33242)
(3545.5408 -1214.0167 -10.311839)
(3633.3881 -1267.7993 -17.389704)
(-15.487918 6.4943052 1.9040625)
(-45.481631 1.2490367 -15.363721)
(-77.937552 -5.3826933 -35.441776)
(-94.992888 -22.684561 -48.224532)
(-104.2521 -41.644576 -59.799925)
(-101.19628 -67.036352 -65.552605)
(-85.655129 -96.734924 -69.141856)
(-59.00421 -130.55795 -67.942628)
(-19.464622 -168.49467 -64.403836)
(31.794745 -210.07644 -57.386153)
(92.39666 -252.72471 -49.19977)
(163.28198 -298.16477 -38.82135)
(240.56172 -343.23422 -28.109374)
(324.54209 -388.74425 -16.852696)
(412.72109 -433.80158 -5.9150655)
(504.24995 -477.75364 4.6278912)
(597.641 -521.03715 14.269633)
(691.58137 -562.60854 23.070019)
(785.60953 -603.81838 30.830588)
(878.63484 -643.76739 37.604886)
(970.47058 -683.4364 43.432462)
(1060.8474 -722.97775 48.47384)
(1149.557 -762.52152 52.678568)
(1236.927 -802.9317 56.464489)
(1322.9557 -843.82168 59.711884)
(1407.8382 -885.94677 62.673085)
(1491.827 -929.31625 65.157507)
(1575.2177 -973.94007 67.410429)
(1658.1133 -1020.0183 69.232667)
(1740.8915 -1067.4559 70.629775)
(1823.5896 -1116.2958 71.451774)
(1906.408 -1166.2289 71.577583)
(1989.4753 -1217.2564 70.935638)
(2072.885 -1269.1183 69.422333)
(2156.7624 -1321.7223 67.070622)
(2241.1827 -1374.8221 63.904075)
(2326.0952 -1428.3192 59.849232)
(2411.765 -1482.068 55.393191)
(2498.0325 -1536.0719 50.238226)
(2584.7462 -1590.1235 44.755861)
(2672.1282 -1644.2453 38.934896)
(2759.87 -1698.3955 33.049902)
(2847.9254 -1752.5741 26.844305)
(2936.1226 -1806.746 20.652755)
(3024.37 -1860.8775 14.235192)
(3112.5602 -1915 7.6584098)
(3200.4636 -1969.3364 1.1131031)
(0 0 0)
(0 0 0)
(0 0 0)
(0 0 0)
(0 0 0)
(0 0 0)
(0 0 0)
(-12.297521 5.9272327 -5.6501239)
(-38.228849 0.038671466 10.379679)
(-65.026408 -9.1227959 24.6046)
(-79.983544 -30.78372 35.150346)
(-87.744063 -51.793077 44.83856)
(-81.518867 -78.629054 49.912062)
(-67.746863 -112.81213 55.542714)
(-39.501882 -146.0332 55.909458)
(-3.2812427 -187.53073 58.067941)
(45.685012 -226.55727 54.432509)
(102.38817 -273.16307 54.9374)
(170.71015 -314.67066 48.734342)
(245.5998 -361.47735 44.610912)
(327.05585 -406.58744 39.505406)
(412.3993 -450.9219 35.011375)
(501.16787 -495.73874 31.309586)
(591.75118 -538.21691 28.513348)
(683.00355 -580.62348 27.009398)
(774.39273 -621.41288 26.735609)
(865.06613 -661.54062 27.697796)
(954.77781 -700.8574 29.825733)
(1043.2893 -739.76933 32.902968)
(1130.5326 -778.47407 36.748925)
(1216.6656 -817.23261 41.135462)
(1301.6786 -856.43407 45.848417)
(1386.027 -896.13053 50.536691)
(1469.7521 -936.53508 55.246401)
(1553.41 -977.69816 59.37681)
(1636.8721 -1019.7973 63.150217)
(1720.4774 -1062.8239 66.211857)
(1804.4234 -1106.7959 68.438821)
(1888.8279 -1151.7675 69.68121)
(1973.8759 -1197.7318 69.810149)
(2059.5728 -1244.7162 68.821756)
(2145.9696 -1292.6819 66.675852)
(2233.1192 -1341.8216 63.451927)
(2320.6424 -1391.1671 59.426411)
(2409.0253 -1442.174 54.334721)
(2497.5835 -1493.5116 48.858732)
(2586.4259 -1545.4881 42.861302)
(2675.5546 -1598.0068 36.647011)
(2764.5708 -1650.8776 30.318934)
(2853.6561 -1704.0591 24.007262)
(2942.481 -1757.5121 17.766439)
(3031.2277 -1811.1275 11.637637)
(3119.6305 -1865.0956 5.6512588)
(3207.6983 -1919.0389 -0.10921553)
(3350.2751 -1886.077 -8.1844855)
(3404.9028 -1797.6505 -10.468658)
(3458.6943 -1709.2682 -12.874295)
(3513.018 -1621.5655 -15.137128)
(3566.5956 -1532.8552 -17.549461)
(3620.4161 -1445.6983 -19.660825)
(3673.9986 -1357.9196 -22.191368)
(3641.3691 -1217.0979 -18.167023)
(3554.0212 -1163.5132 -12.155158)
(3465.8136 -1109.734 -6.1016318)
(3377.2769 -1056.675 -0.2153391)
(3288.3883 -1003.9506 5.8791633)
(3198.9839 -951.70785 11.785376)
(3109.2338 -900.16112 17.670031)
(3019.1977 -849.3057 23.410518)
(2928.9189 -799.37447 29.034196)
(2838.4598 -750.2755 34.26839)
(2747.8034 -701.98525 39.005032)
(2657.3824 -654.50408 43.343732)
(2566.6636 -608.21774 46.799146)
(2476.2787 -562.40505 49.538522)
(2385.9699 -517.12506 51.375661)
(2295.9293 -472.37319 52.337346)
(2206.1672 -427.92047 52.462096)
(2116.6098 -383.6226 51.815596)
(2027.2735 -339.42633 50.515093)
(1937.9577 -295.1881 48.663385)
(1848.5362 -250.81539 46.32466)
(1758.7429 -206.38395 43.680677)
(1668.217 -161.65602 40.62204)
(1576.5966 -116.963 37.311304)
(1483.5441 -72.289985 33.620966)
(1388.619 -27.990875 29.586744)
(1291.5521 15.607849 25.114765)
(1192.1242 57.859406 20.243838)
(1090.2992 98.17038 14.904504)
(986.21318 135.61033 9.1167675)
(880.36626 169.29875 2.9036161)
(773.53017 198.44662 -3.6960222)
(666.53814 221.53834 -10.381393)
(561.35019 237.68437 -17.186447)
(459.06534 246.93427 -24.348504)
(361.34647 248.94807 -30.553275)
(271.24459 242.76307 -36.683456)
(189.42972 229.47334 -41.516712)
(118.50942 210.03436 -45.669001)
(60.076849 183.6995 -47.598184)
(14.943291 154.93034 -48.274148)
(-18.070395 124.26853 -46.740375)
(-36.232279 92.69755 -43.79969)
(-43.706411 62.506323 -37.515068)
(-39.267099 38.567778 -31.534976)
(-28.022161 15.434528 -21.678521)
(-5.9765714 2.4073645 -7.579899)
(0 0 0)
(0 0 0)
(0 0 0)
(0 0 0)
(0 0 0)
(0 0 0)
(0 0 0)
(0 0 0)
(0 0 0)
(0 0 0)
(0 0 0)
(0 0 0)
(0 0 0)
(0 0 0)
(3289.0591 -2017.5254 -5.5866967)
(3290.0487 -2011.0101 -5.6619458)
(3291.0805 -2004.6647 -5.7236644)
(3292.0462 -1998.4015 -5.6989194)
(3292.968 -1992.1794 -5.7478106)
(3293.8522 -1986.1411 -5.8915438)
(3294.6524 -1979.8901 -5.6852677)
(3721.5547 -1315.5494 -24.054368)
(3722.8049 -1308.8568 -23.941996)
(3723.9606 -1302.4456 -23.921651)
(3724.9309 -1296.1201 -23.954053)
(3725.8511 -1289.8287 -23.964508)
(3726.6036 -1283.7013 -24.072591)
(3727.3869 -1277.6044 -24.245198)
(-13.862329 13.68023 15.43714)
(-36.392128 29.784432 21.189031)
(-52.820766 48.227938 30.192788)
(-60.535076 70.145291 37.393551)
(-58.733161 93.454821 43.552179)
(-42.921927 118.15418 48.9494)
(-15.359159 141.28656 52.638551)
(27.182847 162.32697 55.836114)
(82.959905 178.57982 56.304395)
(151.97785 189.97962 56.628283)
(232.12468 195.12589 54.979576)
(322.14301 193.49326 52.379423)
(420.06527 185.54114 49.228711)
(523.4203 170.87241 45.584882)
(630.32659 150.2895 42.155826)
(739.01128 124.46201 38.963004)
(847.84393 94.075119 36.527005)
(955.4804 59.916224 34.940168)
(1061.1971 22.829334 34.275535)
(1164.2804 -16.606756 34.6604)
(1264.5635 -57.785721 35.959057)
(1361.9985 -100.20206 38.066899)
(1456.7958 -143.58334 40.873249)
(1549.2292 -187.62004 44.140297)
(1639.6271 -232.31456 47.752553)
(1728.4921 -277.43975 51.423343)
(1816.1647 -323.13165 55.052244)
(1903.0388 -369.47634 58.34279)
(1989.3681 -416.38761 61.232839)
(2075.5994 -464.05834 63.428229)
(2161.8431 -512.47548 64.834768)
(2248.3318 -561.66453 65.307706)
(2335.2187 -611.64502 64.77778)
(2422.5832 -662.31425 63.107084)
(2510.4444 -713.63803 60.442437)
(2598.8533 -765.62434 56.738829)
(2687.7407 -818.02749 52.127077)
(2776.9647 -870.86032 46.672508)
(2866.5259 -923.9888 40.719166)
(2956.1888 -977.3577 34.172081)
(3045.914 -1031.0943 27.506156)
(3135.5847 -1084.7512 20.335309)
(3224.8538 -1138.7745 13.439776)
(3314.3953 -1192.8963 6.1165298)
(3402.6321 -1246.4059 -0.91688231)
(3491.5331 -1300.9917 -7.8947174)
(3578.8752 -1354.5602 -14.827752)
(-21.532394 10.819307 13.396)
(-43.86379 23.510357 14.116479)
(-61.434627 40.353333 22.29362)
(-71.323445 55.670488 25.615572)
(-70.36725 74.659855 30.6619)
(-58.131183 92.664204 33.69554)
(-32.575386 109.19812 37.666087)
(7.8386197 122.82992 38.762078)
(60.927193 131.90911 41.044236)
(127.43314 136.459 41.278896)
(205.25171 134.50371 40.958607)
(293.04464 127.29497 40.156442)
(388.5517 113.66477 38.810482)
(489.85215 94.451535 37.325302)
(595.01012 70.243994 35.810375)
(701.93353 41.651735 34.557565)
(809.29211 9.3559163 33.802666)
(915.7051 -26.053052 33.645234)
(1020.3817 -63.810816 34.196692)
(1122.6212 -103.53348 35.502765)
(1222.1613 -144.54599 37.433958)
(1319.0206 -186.65593 39.981414)
(1413.1351 -229.5372 42.985744)
(1505.0262 -273.07255 46.295392)
(1594.8788 -317.20548 49.82543)
(1683.2239 -362.02776 53.250323)
(1770.4156 -407.36302 56.592557)
(1856.6971 -453.54092 59.670501)
(1942.5627 -500.41649 62.150616)
(2028.2049 -548.18278 64.092158)
(2113.8634 -596.78491 65.233614)
(2199.7392 -646.2968 65.520036)
(2286.0113 -696.6019 64.79805)
(2372.693 -747.69616 63.1021)
(2459.9616 -799.49937 60.415242)
(2547.7227 -851.80275 56.716499)
(2635.9922 -904.62457 52.249159)
(2724.7785 -957.75368 46.95494)
(2813.8855 -1011.2667 41.182156)
(2903.256 -1064.8326 34.90018)
(2992.5373 -1118.6958 28.367852)
(3082.1446 -1172.5418 21.606556)
(3171.0832 -1226.3456 14.749075)
(3260.4255 -1280.5627 7.9323195)
(3348.5512 -1333.9937 1.0040721)
(3437.2369 -1388.6172 -5.6749873)
(3524.6063 -1442.3637 -12.651762)
(-30.445014 8.7102839 11.42999)
(-51.160038 17.806072 11.855217)
(-70.829013 28.614068 14.871771)
(-80.336151 40.882747 16.383724)
(-83.158274 54.091648 18.24361)
(-71.345635 66.213892 20.599531)
(-47.556377 75.900765 21.203257)
(-9.5347845 83.096093 23.760367)
(41.596666 85.368218 24.892353)
(106.29077 82.923433 25.740169)
(181.682 75.318068 26.928032)
(267.27842 61.967158 27.394894)
(360.42595 43.429196 27.869036)
(459.67237 19.996022 28.275829)
(562.65916 -7.7637667 28.734795)
(667.80216 -39.361328 29.140215)
(773.46683 -73.975438 30.044491)
(878.38941 -111.09919 31.212497)
(981.72134 -150.15658 32.966127)
(1082.7033 -190.5231 35.081501)
(1181.2484 -231.97121 37.617164)
(1276.9902 -274.24165 40.539398)
(1370.4041 -317.09762 43.703039)
(1461.5637 -360.51083 47.023634)
(1550.8625 -404.52556 50.377019)
(1638.624 -449.0597 53.708799)
(1725.14 -494.29238 56.938189)
(1810.7953 -540.30859 59.796944)
(1896.0536 -587.13536 62.20049)
(1981.0325 -634.85232 64.083211)
(2066.0345 -683.51352 65.226667)
(2151.2622 -733.04926 65.550431)
(2236.8163 -783.44565 64.970841)
(2322.8583 -834.66806 63.463104)
(2409.42 -886.46016 60.948148)
(2496.5274 -938.91956 57.574744)
(2584.2207 -991.74211 53.34843)
(2672.3303 -1044.9974 48.375984)
(2760.8794 -1098.3948 42.886211)
(2849.7165 -1152.023 36.801696)
(2938.8421 -1205.8871 30.597241)
(3027.9966 -1259.5795 23.801269)
(3116.925 -1313.7021 17.343406)
(3206.1856 -1367.6628 10.207394)
(3294.4036 -1421.6226 3.5405694)
(3383.3483 -1476.05 -3.5225309)
(3470.8236 -1529.8185 -10.284708)
(-31.473448 3.5116403 5.0270425)
(-53.971412 6.0002642 2.2174202)
(-75.498917 13.092953 4.1863745)
(-88.814939 20.73204 3.4616155)
(-91.928747 28.225031 4.0824122)
(-82.946813 36.356855 3.7059937)
(-61.244153 39.918851 5.7833782)
(-25.287671 42.047508 6.7496372)
(24.040545 37.91566 8.5026616)
(86.181109 30.279696 11.246015)
(159.40804 16.091939 13.153966)
(242.86199 -2.5040289 15.459641)
(333.67977 -26.132988 17.582523)
(430.65214 -54.282684 19.963616)
(531.30315 -85.789803 22.079909)
(634.45996 -120.72149 24.570628)
(738.00241 -157.70026 27.006464)
(841.16817 -196.83501 29.754347)
(942.68438 -237.06992 32.661249)
(1042.2904 -278.2843 35.676586)
(1139.3867 -320.22608 38.966793)
(1234.2647 -362.5233 42.353575)
(1326.6467 -405.16714 45.757281)
(1416.8782 -448.28634 49.258045)
(1505.2694 -491.81445 52.753747)
(1592.2119 -536.0257 56.09571)
(1678.1116 -580.86975 59.118193)
(1763.3016 -626.56272 61.809258)
(1848.044 -673.11961 64.042747)
(1932.5544 -720.69589 65.70943)
(2017.1374 -769.24818 66.656154)
(2101.8995 -818.76701 66.807187)
(2187.0326 -869.24199 66.100535)
(2272.6102 -920.50039 64.4371)
(2358.7199 -972.50293 61.876063)
(2445.4167 -1025.0353 58.408624)
(2532.6271 -1078.106 54.176208)
(2620.4441 -1131.4151 49.201371)
(2708.7296 -1185.0355 43.684021)
(2797.4456 -1238.9318 37.764401)
(2886.113 -1292.84 31.511403)
(2975.1624 -1346.9423 25.081848)
(3063.8705 -1401.0374 18.513603)
(3152.8949 -1455.2841 11.81881)
(3240.9768 -1509.2518 5.2189787)
(3329.5925 -1563.6541 -1.4510846)
(3417.0204 -1617.6431 -8.1154576)
(-34.431324 -0.78561877 0.95350752)
(-57.901169 -2.2004915 -0.44542631)
(-82.688239 -0.57642607 -2.3451627)
(-96.454714 2.0645614 -5.8833115)
(-102.54067 5.4933116 -8.408289)
(-94.703915 7.26442 -9.2569037)
(-74.972255 5.5811465 -9.5205746)
(-39.758773 1.1061112 -9.0943308)
(7.3167489 -9.192357 -6.5279792)
(68.28798 -23.360222 -4.2278922)
(139.60074 -43.486849 -1.194097)
(221.00676 -66.953903 2.6706926)
(309.55007 -96.125961 6.6479921)
(404.36255 -127.94404 10.818684)
(502.78499 -163.59612 15.012228)
(603.54701 -201.19305 19.26455)
(705.06628 -240.80956 23.327715)
(806.13883 -281.50356 27.453646)
(906.02016 -323.02271 31.466535)
(1003.8581 -365.0735 35.406641)
(1099.7591 -407.32019 39.362629)
(1193.1695 -449.81735 43.025316)
(1284.309 -492.5406 46.747646)
(1373.5722 -535.51482 50.326814)
(1461.1719 -578.99485 53.65492)
(1547.5086 -622.97425 56.752893)
(1632.7687 -667.69563 59.608955)
(1717.3241 -713.29732 62.182459)
(1801.4434 -759.90731 64.284938)
(1885.4014 -807.54456 65.880853)
(1969.3799 -856.23519 66.791963)
(2053.5428 -905.95772 67.000769)
(2138.052 -956.59444 66.342797)
(2223.0006 -1008.1014 64.848058)
(2308.4787 -1060.2287 62.431979)
(2394.5344 -1112.9857 59.203441)
(2481.1646 -1166.1253 55.198244)
(2568.3814 -1219.5284 50.459194)
(2656.171 -1273.2535 45.28537)
(2744.1254 -1327.1692 39.609992)
(2832.5718 -1381.0687 33.697721)
(2921.1418 -1435.0073 27.32668)
(3009.7868 -1489.0517 21.036807)
(3098.4621 -1543.0495 14.331821)
(3186.7418 -1597.1368 7.8478593)
(3275.4347 -1651.4862 0.91981702)
(3363.1861 -1705.6777 -5.7695301)
(-29.57322 -3.6285451 -2.799049)
(-53.107172 -12.621878 -8.8151185)
(-81.694165 -14.789284 -15.077813)
(-98.854702 -16.24829 -21.033308)
(-106.48967 -18.414735 -25.5123)
(-101.13235 -22.570824 -28.0687)
(-82.534337 -30.901707 -29.620859)
(-49.946071 -42.354976 -28.029872)
(-4.6586804 -59.758531 -25.821955)
(53.638242 -80.495783 -21.641687)
(122.45601 -107.20154 -16.691445)
(200.80981 -137.1369 -10.924641)
(286.66926 -171.34415 -4.8941643)
(378.36056 -208.06464 1.6239527)
(473.85706 -247.1988 7.8399486)
(571.95694 -287.74559 14.18596)
(670.79839 -329.43297 20.006176)
(769.69469 -371.48526 25.771062)
(867.34183 -413.92954 30.994645)
(963.49837 -456.15361 35.98853)
(1057.6651 -498.44821 40.547886)
(1149.7959 -540.7063 44.794969)
(1240.0709 -582.7212 48.847046)
(1328.2849 -625.24376 52.462844)
(1415.3235 -668.10759 55.826446)
(1500.8198 -711.50468 58.914233)
(1585.562 -755.70178 61.753831)
(1669.7029 -800.9328 64.204585)
(1753.4596 -847.17154 66.235898)
(1837.0262 -894.56049 67.727424)
(1920.6346 -943.06292 68.595509)
(2004.4185 -992.63435 68.725613)
(2088.5363 -1043.2193 68.028062)
(2173.0283 -1094.6361 66.484781)
(2258.0739 -1146.7967 64.033068)
(2343.6427 -1199.5371 60.783526)
(2429.7846 -1252.6932 56.724937)
(2516.5848 -1306.1817 52.039796)
(2603.7519 -1359.8904 46.791518)
(2691.5955 -1413.7251 41.216224)
(2779.6225 -1467.8939 35.19762)
(2868.0183 -1522.0311 28.999204)
(2956.413 -1576.2144 22.624364)
(3044.9074 -1630.5334 16.14216)
(3133.282 -1684.8701 9.5352001)
(3221.5434 -1739.3329 2.9304287)
(3309.3591 -1793.6185 -3.6176788)
(-21.078587 -11.632634 -5.1849368)
(-51.03465 -21.379014 -11.866265)
(-83.658507 -24.511539 -22.600417)
(-102.13813 -29.58572 -32.356059)
(-111.96655 -36.783134 -39.498273)
(-107.17297 -48.182562 -44.368884)
(-90.256337 -63.780764 -46.375696)
(-59.279613 -83.706472 -45.487952)
(-15.917883 -109.24673 -42.900187)
(39.947641 -137.60687 -37.63177)
(106.49314 -172.5747 -31.230769)
(181.8129 -207.98803 -24.049593)
(264.90149 -248.61481 -15.448692)
(353.15582 -289.43756 -7.324694)
(446.05855 -332.3326 1.2341041)
(541.05606 -375.36795 9.2292745)
(637.54629 -418.70894 16.917312)
(733.92809 -461.77653 23.976972)
(829.62741 -504.34807 30.422769)
(924.02311 -546.56859 36.275394)
(1016.7102 -588.28931 41.465926)
(1107.6224 -629.76747 46.164096)
(1196.692 -671.29579 50.337787)
(1284.2727 -712.9447 53.993949)
(1370.4763 -755.15979 57.418575)
(1455.4204 -798.08802 60.403394)
(1539.694 -841.97833 63.126387)
(1623.2649 -887.07049 65.487159)
(1706.4862 -933.3075 67.442714)
(1789.5155 -980.82898 68.862298)
(1872.5931 -1029.5584 69.69707)
(1955.7895 -1079.4797 69.823036)
(2039.2798 -1130.3974 69.156303)
(2123.1388 -1182.1915 67.664667)
(2207.5405 -1234.642 65.275865)
(2292.4112 -1287.7039 62.149006)
(2378.0069 -1341.0295 58.162868)
(2464.1142 -1394.7051 53.589755)
(2550.9405 -1448.5453 48.561233)
(2638.1271 -1502.4421 43.015895)
(2725.9193 -1556.5132 37.200203)
(2813.9936 -1610.5629 31.094679)
(2902.2703 -1664.7247 24.905503)
(2990.6665 -1718.9026 18.448663)
(3078.9526 -1773.1593 12.036762)
(3167.1179 -1827.3269 5.4050688)
(3255.2708 -1881.5613 -1.2634092)
(0 0 0)
(0 0 0)
(0 0 0)
(0 0 0)
(0 0 0)
(0 0 0)
(0 0 0)
(0 0 0)
(0 0 0)
(0 0 0)
(0 0 0)
(0 0 0)
(0 0 0)
(0 0 0)
(0 0 0)
(0 0 0)
(0 0 0)
(0 0 0)
(0 0 0)
(0 0 0)
(0 0 0)
(0 0 0)
(0 0 0)
(0 0 0)
(0 0 0)
(0 0 0)
(0 0 0)
(0 0 0)
(0 0 0)
(0 0 0)
(0 0 0)
(0 0 0)
(0 0 0)
(0 0 0)
(0 0 0)
(0 0 0)
(0 0 0)
(0 0 0)
(0 0 0)
(0 0 0)
(0 0 0)
(0 0 0)
(0 0 0)
(0 0 0)
(0 0 0)
(0 0 0)
(0 0 0)
(0 0 0)
(0 0 0)
(-18.273608 6.8415011 -1.9727064)
(-17.343149 7.4459419 -4.4154936)
(-17.067608 6.9457371 -3.879973)
(-17.02101 7.0623903 -3.127591)
(-16.374852 6.5025975 -2.5467717)
(-16.47419 6.0856378 -1.1907074)
(-16.301409 7.527956 -2.9808365)
(-42.167943 11.545316 -13.346581)
(-39.177274 9.870521 -11.079126)
(-36.276967 7.5162334 -8.1778776)
(-34.427188 6.3541829 -4.0509391)
(-34.781344 5.4477851 -0.17938365)
(-35.019331 5.6204785 3.8068603)
(-36.959347 8.7015296 6.3490203)
(-66.158458 5.8057798 -29.222473)
(-58.307828 5.8952461 -22.515768)
(-53.29648 1.1491546 -12.25945)
(-51.851914 0.20672525 -7.785758)
(-50.545035 0.56254267 1.2412686)
(-52.872331 0.14769078 6.9652436)
(-57.09618 -0.13583205 17.548305)
(-78.008471 -16.369892 -37.931557)
(-71.16615 -19.753374 -27.491718)
(-64.475243 -20.579578 -17.655304)
(-61.701551 -22.107096 -8.3466991)
(-60.860311 -23.094077 2.2540996)
(-64.832964 -25.179686 12.888211)
(-69.312889 -21.951286 23.931819)
(-86.3657 -38.481046 -47.876893)
(-74.027519 -41.297554 -34.956465)
(-65.33826 -44.877104 -20.723234)
(-62.273385 -46.130286 -7.5442703)
(-61.518721 -47.724674 5.1838341)
(-65.091858 -47.281067 17.128325)
(-72.035982 -47.852724 33.357625)
(-80.363231 -69.237234 -52.256765)
(-69.012587 -71.367234 -38.129888)
(-60.234079 -73.035308 -22.533952)
(-56.836534 -76.319918 -9.27713)
(-55.813199 -75.726643 7.063016)
(-61.990018 -77.549813 21.011062)
(-68.470694 -75.204394 35.899435)
(-66.793949 -101.33727 -54.552131)
(-53.844544 -105.59874 -38.982625)
(-44.293955 -110.40292 -23.234339)
(-39.985354 -112.28418 -7.757956)
(-39.261422 -114.25714 8.6809517)
(-43.374805 -116.21297 23.600629)
(-51.636199 -113.90818 42.132827)
(-39.663563 -140.04611 -53.517539)
(-26.888946 -145.22099 -38.401308)
(-18.405421 -147.67436 -21.303542)
(-13.800008 -150.0492 -5.6475302)
(-14.374493 -149.82886 10.216083)
(-18.014132 -149.15685 26.204046)
(-27.130252 -147.33922 41.44791)
(-1.9720441 -180.43419 -50.079343)
(9.4517636 -185.38688 -34.686102)
(18.479365 -190.67995 -19.405735)
(22.037911 -192.77897 -4.1579206)
(22.759071 -195.31256 12.103238)
(18.25116 -194.68106 27.352602)
(10.663744 -193.17062 44.80316)
(46.221049 -223.24355 -44.24419)
(57.282492 -229.77641 -30.329858)
(64.500963 -233.00345 -15.780029)
(68.918632 -236.6733 -0.70930212)
(68.181336 -236.20908 14.086884)
(64.968083 -235.03851 28.038663)
(56.692014 -232.6737 42.458011)
(105.37774 -268.10153 -36.7989)
(114.14642 -274.25286 -24.238806)
(121.19268 -279.0844 -10.552462)
(123.76952 -280.50193 1.5867004)
(124.21218 -282.23339 15.201784)
(120.32032 -281.59837 27.67784)
(112.98388 -279.64125 43.084678)
(172.42501 -312.58105 -28.713102)
(180.53306 -319.53215 -16.966515)
(185.25717 -323.83335 -6.9582306)
(188.40472 -327.03868 5.0443504)
(187.58353 -327.54994 16.642962)
(184.52229 -325.55176 27.439618)
(178.97731 -324.46357 39.376672)
(247.69515 -358.88979 -19.067046)
(253.22285 -364.60223 -10.371586)
(257.64244 -369.35745 -1.138545)
(259.66115 -371.01733 8.1630848)
(259.06703 -371.86764 17.542815)
(256.39067 -371.89418 26.535519)
(251.25579 -368.89793 36.244423)
(328.58815 -402.78873 -10.311208)
(332.92517 -408.86971 -3.1359761)
(336.25135 -413.66783 3.6299441)
(337.33926 -415.61118 11.053561)
(336.82999 -417.65575 18.71647)
(334.56936 -415.85281 25.332998)
(331.01732 -414.46332 33.19389)
(414.43824 -447.5408 -1.0404343)
(417.38273 -452.93146 4.1011152)
(419.26876 -456.84827 8.848788)
(420.15175 -459.10682 14.675129)
(419.38384 -459.85016 19.547733)
(417.8351 -459.34354 25.018857)
(414.7828 -457.62448 30.229108)
(504.11237 -490.04356 7.6411887)
(505.3399 -494.62815 10.805941)
(506.53507 -499.35911 14.044778)
(506.55989 -500.98354 17.46534)
(505.816 -502.75388 21.282114)
(504.37311 -502.15105 24.416139)
(502.23985 -500.95367 28.043023)
(595.51183 -531.72582 15.729782)
(595.80082 -536.3683 17.599932)
(595.84873 -540.13281 18.832576)
(595.56106 -541.87141 21.3202)
(594.62304 -543.38863 22.920084)
(593.54836 -542.9849 24.885538)
(591.95916 -542.38061 26.721617)
(688.49877 -572.37355 23.379959)
(687.47995 -576.15013 23.510729)
(686.92969 -580.06472 24.004736)
(685.98093 -581.81747 24.648947)
(684.95431 -583.40768 25.213949)
(683.91188 -583.48176 25.882789)
(682.73671 -583.10876 26.306155)
(781.36158 -611.9492 30.009827)
(779.6256 -615.40231 29.504524)
(778.36643 -619.05899 28.713211)
(777.01005 -620.51491 28.537762)
(775.91201 -622.24212 28.00413)
(774.84488 -622.40592 27.6567)
(773.91611 -622.73967 26.983459)
(873.92207 -650.8521 36.263227)
(871.50276 -654.00107 34.810599)
(869.69544 -657.31409 33.457333)
(867.96937 -658.9453 32.458325)
(866.69012 -660.54908 31.150635)
(865.48812 -661.17108 30.123257)
(864.72686 -661.6193 28.669104)
(965.44835 -689.53829 41.624349)
(962.52371 -692.20625 39.84398)
(960.3498 -695.40495 38.067608)
(958.32197 -696.76728 36.561987)
(956.88996 -698.4545 34.798603)
(955.5901 -699.09842 33.272102)
(954.74854 -699.9626 31.29244)
(1055.6968 -728.06771 46.512991)
(1052.514 -730.57506 44.530841)
(1050.0445 -733.36927 42.536343)
(1047.7269 -734.83381 40.779275)
(1046.1883 -736.33633 38.740534)
(1044.6263 -737.20227 36.923728)
(1043.6996 -738.15943 34.699083)
(1144.5546 -767.04997 50.825925)
(1141.2121 -769.22928 48.891769)
(1138.4945 -771.85156 46.887632)
(1136.0857 -773.08175 45.055802)
(1134.3719 -774.43771 42.923459)
(1132.6217 -775.28395 41.05242)
(1131.4918 -776.3674 38.711862)
(1232.0496 -806.69754 54.764287)
(1228.6447 -808.65766 52.998927)
(1225.9235 -810.81473 51.032455)
(1223.3166 -811.98426 49.396179)
(1221.4472 -813.12629 47.283534)
(1219.5114 -813.97514 45.42833)
(1218.088 -814.96233 43.156918)
(1318.2385 -847.12355 58.374898)
(1315.0078 -848.8933 56.769513)
(1312.1017 -850.70293 55.203934)
(1309.3937 -851.69312 53.67905)
(1307.5592 -852.48796 51.555527)
(1305.2795 -853.20528 50.006647)
(1303.732 -854.06499 47.811481)
(1403.3892 -888.69317 61.566498)
(1400.2723 -890.29117 60.318417)
(1397.2582 -891.64482 59.054917)
(1394.772 -892.48743 57.55004)
(1392.6426 -892.90013 55.975568)
(1390.3994 -893.39394 54.491968)
(1388.4532 -894.13485 52.385862)
(1487.6198 -931.59106 64.441887)
(1484.7173 -932.95237 63.647991)
(1481.8132 -933.82826 62.653208)
(1479.2359 -934.24657 61.406733)
(1477.3208 -934.31822 60.139607)
(1474.612 -934.54542 58.605241)
(1472.6774 -934.89497 56.970136)
(1571.3171 -975.85836 67.02859)
(1568.6601 -976.59408 66.700487)
(1565.647 -977.21941 65.811618)
(1563.4267 -976.97819 65.002943)
(1561.0007 -976.80472 63.741366)
(1558.6821 -976.50375 62.585612)
(1556.4009 -976.5861 61.017699)
(1654.6421 -1021.3309 69.306552)
(1652.0003 -1021.7928 69.13335)
(1649.3483 -1021.6952 68.691462)
(1646.996 -1021.2727 67.959986)
(1644.8028 -1020.502 67.048873)
(1642.3795 -1019.8162 66.044966)
(1639.9843 -1019.2455 64.629905)
(1737.6918 -1068.3132 70.954812)
(1735.3389 -1068.0992 71.150599)
(1732.7812 -1067.6292 70.837448)
(1730.5998 -1066.5303 70.368867)
(1728.4086 -1065.2919 69.662502)
(1726.0056 -1064.0111 68.808089)
(1723.6083 -1062.9265 67.562205)
(1820.7718 -1116.3728 72.044412)
(1818.6331 -1115.6921 72.429318)
(1816.2955 -1114.5581 72.322853)
(1814.2288 -1112.9967 72.021067)
(1812.1555 -1111.2124 71.489956)
(1809.8311 -1109.4081 70.793701)
(1807.4806 -1107.6723 69.675794)
(1903.9914 -1165.6299 72.358581)
(1902.1071 -1164.3417 72.926821)
(1899.9858 -1162.6423 72.94142)
(1898.094 -1160.5469 72.776165)
(1896.1511 -1158.2256 72.3825)
(1893.9317 -1155.8581 71.807115)
(1891.7187 -1153.46 70.799589)
(1987.4894 -1215.8743 71.831836)
(1985.8765 -1213.9982 72.501856)
(1984.0104 -1211.7163 72.608941)
(1982.3103 -1209.1059 72.541746)
(1980.5514 -1206.2394 72.250909)
(1978.5099 -1203.33 71.764253)
(1976.4863 -1200.2563 70.842897)
(2071.3516 -1266.9657 70.38402)
(2070.0319 -1264.5226 71.108682)
(2068.4324 -1261.6869 71.273366)
(2066.9835 -1258.5551 71.246566)
(2065.4367 -1255.1912 71.027101)
(2063.6036 -1251.7615 70.61656)
(2061.8412 -1248.0461 69.763922)
(2155.6953 -1318.8091 68.025745)
(2154.6695 -1315.8157 68.744663)
(2153.3993 -1312.4245 68.948579)
(2152.1928 -1308.8066 68.928278)
(2150.8638 -1305.0298 68.831004)
(2149.297 -1301.0832 68.344858)
(2147.8239 -1296.7456 67.535629)
(2240.5232 -1371.2304 64.801295)
(2239.8036 -1367.7354 65.422666)
(2238.8202 -1363.8497 65.650024)
(2237.8752 -1359.8379 65.581177)
(2236.8436 -1355.5902 65.435967)
(2235.6168 -1350.9503 64.906685)
(2234.4561 -1346.3256 64.237903)
(2325.9365 -1423.9589 60.65876)
(2325.5563 -1420.1061 61.307571)
(2324.8651 -1415.7486 61.387294)
(2324.2983 -1411.3316 61.418307)
(2323.4379 -1406.6775 61.158029)
(2322.6233 -1402.0498 60.911851)
(2321.7737 -1396.7185 60.32398)
(2411.9894 -1477.4444 56.028944)
(2411.7823 -1473.0053 56.649818)
(2411.5004 -1468.2577 56.723846)
(2411.056 -1463.4996 56.620682)
(2410.6935 -1458.4889 56.450313)
(2409.7834 -1453.4507 55.848826)
(2409.3399 -1447.9193 54.982829)
(2498.3978 -1530.9981 50.780613)
(2498.526 -1526.2268 51.109997)
(2498.4596 -1521.0849 51.125379)
(2498.3729 -1516.0134 50.979878)
(2498.1284 -1510.7325 50.656807)
(2497.8589 -1505.3273 50.225281)
(2497.7822 -1499.5074 49.543853)
(2585.4852 -1584.6782 45.12226)
(2585.7781 -1579.5946 45.381509)
(2585.9656 -1574.1568 45.371093)
(2586.0786 -1568.8382 45.050385)
(2586.1785 -1563.2733 44.875254)
(2586.0984 -1557.6853 44.256559)
(2586.1175 -1551.7312 43.478903)
(2672.976 -1638.5728 39.160857)
(2673.4409 -1633.1329 39.37422)
(2673.8354 -1627.4091 39.161564)
(2674.2266 -1621.8626 38.921704)
(2674.4636 -1616.0797 38.553847)
(2674.6464 -1610.3448 37.95806)
(2674.9979 -1604.2811 37.243725)
(2760.7604 -1692.4588 33.052912)
(2761.3352 -1686.8014 33.186681)
(2761.9179 -1680.9287 32.844275)
(2762.4539 -1675.1056 32.56774)
(2762.8897 -1669.2124 32.174571)
(2763.3449 -1663.3104 31.611746)
(2763.8128 -1657.158 30.871649)
(2848.8531 -1746.4317 26.832941)
(2849.5712 -1740.5246 26.850729)
(2850.2796 -1734.3866 26.408766)
(2850.9912 -1728.4435 26.203944)
(2851.5582 -1722.431 25.738345)
(2852.1624 -1716.4098 25.206815)
(2852.7638 -1710.2674 24.511468)
(2937.0351 -1800.4167 20.511436)
(2937.7719 -1794.3086 20.378683)
(2938.6011 -1788.1076 19.984245)
(2939.3782 -1782.0198 19.749377)
(2940.0922 -1775.8814 19.276881)
(2940.8195 -1769.8196 18.842546)
(2941.5322 -1763.6307 18.219144)
(3025.2613 -1854.4247 14.083531)
(3026.0987 -1848.1629 13.907668)
(3026.9954 -1841.8239 13.556142)
(3027.8865 -1835.6251 13.31123)
(3028.6454 -1829.4649 12.92613)
(3029.4697 -1823.3277 12.559337)
(3030.2463 -1817.1666 11.995147)
(3113.397 -1908.5252 7.5465841)
(3114.2752 -1902.1078 7.3214836)
(3115.259 -1895.7508 7.0376686)
(3116.1321 -1889.5113 6.8629302)
(3117.0337 -1883.2754 6.5340092)
(3117.897 -1877.16 6.293122)
(3118.7218 -1871.0052 5.9263387)