/*--------------------------------*- C++ -*----------------------------------*\
  =========                 |
  \\      /  F ield         | OpenFOAM: The Open Source CFD Toolbox
   \\    /   O peration     | Website:  https://openfoam.org
    \\  /    A nd           | Version:  6
     \\/     M anipulation  |
\*---------------------------------------------------------------------------*/
FoamFile
{
    version     2.0;
    format      ascii;
    class       pointScalarField;
    location    "1.28";
    object      p;
}
// * * * * * * * * * * * * * * * * * * * * * * * * * * * * * * * * * * * * * //

dimensions      [1 -1 -2 0 0 0 0];

internalField   nonuniform List<scalar> 
28033
(
-1912902.8
2522493.8
-181.57852
-205.33489
-3584452.3
3472237.9
-135.37881
143.97553
-1616448.4
-1409673.1
-1187197.3
-965019.93
-682138.18
-456116.44
-224885.28
10285.8
246732.75
446212.23
685544.57
810890.29
1047887.9
1324117.7
1249878.6
611.84741
1428.6191
1963.8925
1907.1142
1937.0772
1466.9558
1114.4647
515.61694
8.5007949
-599.79964
-1006.7139
-1388.1211
-1438.5891
-1357.3051
-870.53936
-402067.84
-469397.02
-402887.07
-449374.78
-428162.1
-444124.09
-439219
-439487.34
-433770.23
-432802.37
-423242.95
-416750.3
-409317.99
-401617.69
-391724.19
-381717.08
-373204.51
-362450.12
-352393.9
-341594.23
-332588.95
-320719.66
-311824.98
-301062.88
-291065.78
-281645.45
-271981.98
-262613.63
-253340.87
-244574.49
-236009.68
-227076.95
-219131.47
-211155.18
-202829.95
-195673.18
-188139.35
-181896.05
-174149.98
-167930.27
-160820.02
-154792.49
-148481.52
-142927.42
-137144.3
-132004.23
-126787.57
-122149.15
-117426.91
-113284.33
-109083.03
-105338.74
-101641.71
-98222.883
-94910.733
-91775.497
-88710.208
-85752.419
-82833.909
-79967.919
-77078.326
-74221.865
-71269.073
-68434.49
-65478.989
-62613.299
-59984.32
-56929.183
-53659.4
-50434.016
-47312.974
-44276.16
-41239.222
-38315.063
-35396.426
-32588.283
-29848.553
-27233.035
-24670.82
-22292.589
-20005.481
-17825.282
-15711.994
-13604.883
-11785.515
-9939.6488
-8337.5907
-6794.6888
-5379.8516
-4055.4227
-2931.9853
-1838.298
-1147.2219
-456.33759
-109.39539
517171.92
437315.72
468070.76
423370.6
461685.57
451687.2
458879.97
450149.36
453529.89
443176.46
440873.96
431492.59
423829.47
416163.38
406165.61
397153.15
387055.97
376923.98
367269.68
356856.43
346287.89
337158.62
326081.31
317097.86
307257.88
297235.1
288680.91
278383.03
270281.59
260043.94
251513.57
242320.76
233812.63
225295.2
217054.2
209416.25
200489.26
193246.16
185106.02
178195.57
170817.73
164198.71
157527.88
151484.67
145486.17
140076.7
134802.66
130014.65
125456.31
121260.28
117316.85
113658.98
110199.16
106963.46
103849.22
100889.35
97983.008
95150.643
92322.004
89508.38
86648.346
83783.473
80839.906
77871.538
74845.729
71819.225
68702.373
65718.377
62647.495
59247.354
56537.341
53254.252
50390.362
47447.9
44566.47
41748.561
38958.914
36234.126
33502.286
30878.155
28219.532
25636.477
23037.464
20513.38
17980.857
15549.715
13139.691
10855.552
8657.4066
6620.6028
4732.1957
3115.8455
1714.1678
675.0067
79.176538
-2812242.8
-2707096.2
-1843581.6
-1877672.6
-1246582.1
-727011.62
-411006.54
76519.748
469934.72
906561.3
1250184.3
1654053.2
2081850
2341368.4
2519677.7
714323.71
601600.4
314051.11
539429.12
455542.09
480805.98
461356.66
477793.41
456623.66
468254.88
461186.52
446038.04
446537.77
428275.46
426373.24
410838.75
400901.05
389307.88
377681.8
368926.57
356432.55
343914.31
335483.75
326018.26
314423.72
306449.67
292026.06
286311.23
272049.25
265331.16
256503.42
247206.21
238512.35
229988.6
222096.42
210983.14
205406.16
197614.44
190139.66
182716.2
175764.62
168865.37
162341.42
155915.46
149910.12
144020.03
138491.09
133108.06
128058.94
123245.14
118716.45
114401.44
110365.56
106511.97
102871.48
99382.693
96056.394
92828.237
89695.91
86640.113
83594.619
80605.696
77581.908
74570.282
71518.289
68448.448
65645.101
62201.846
58010.382
56256.583
52883.186
49743.15
46707.741
43691.091
40713.567
37829.29
35014.246
32310.796
29667.167
27132.893
24660.152
22310.782
19997.286
17833.204
15692.584
13691.495
11713.33
9878.6856
8077.3648
6417.5251
4840.0464
3400.1111
2128.1084
1002.952
102.71896
-1046.1144
-1566.644
-1673.0685
-1999.9949
-1329.3263
-1324.479
-384.9502
-21.106574
716.5172
1373.254
1213.7313
2079.9572
1371.2882
1699.3403
632.86758
-121.15489
-91.52825
-633.46357
-1643.6635
-2882.4873
-4410.4204
-6153.6021
-8074.6042
-10076.15
-12316.874
-14536.206
-16832.926
-19269.159
-21819.361
-24390.529
-27022.634
-29744.862
-32477.277
-35307.209
-38212.817
-41161.57
-44192.361
-47351.719
-50446.798
-53594.587
-56632.039
-58826.093
-64831.276
-66331.734
-70236.08
-73336.15
-76546.724
-79620.295
-82653.98
-85586.52
-88449.036
-91268.937
-94017.415
-96767.216
-99520.946
-102315.41
-105192.29
-108201.48
-111358.47
-114722.32
-118347.55
-122200.04
-126402.53
-130914.85
-135729.05
-140964.41
-146431.51
-152464.65
-158624.55
-164955.8
-172121.83
-178912.14
-184066.05
-195631.75
-202230.42
-207893.89
-220177.36
-226459.13
-235325.4
-239947.17
-254832.8
-258048.22
-272597.74
-280255.9
-289364.58
-299057.71
-304672.23
-321196.84
-328369.32
-333340.76
-351086.66
-353689.51
-370462.65
-373791.72
-389477.15
-402377.94
-404377.89
-408939.47
-427242.57
-431199.75
-431804.38
-446030.57
-445312.25
-446263.38
-431921.44
-426716.64
-474437.32
-439477.9
-382495.67
-541109.81
-1239148.7
-1420832.4
-1501074.1
-1604462.8
-1626358.9
-1699258
-1685655.7
-1723850
-1689799.5
-1631736.7
-1681234.3
-1545872.1
-1467165.1
-1552185.6
-1089374.8
2180100.9
2712417.3
2653021.2
2836974.5
2730052.9
2610157.4
2983484.7
3148700.6
2972227.4
2983976.2
2887505
2813623.3
2664805.2
2651480.3
2454230.6
-211.76963
-288.71162
-507.98059
-708.84551
-813.59676
-858.09771
-818.07015
-719.04759
-496.92228
-300.42559
-39.736827
175.67562
371.45707
436.88282
55.999986
-369.38448
-494.20872
-535.36431
-333.61021
-128.66865
161.38253
410.295
615.2953
742.83723
796.00759
739.89734
600.70818
414.23593
164.83073
101.91602
-403787.29
-413763.52
-363232.33
-372660.97
-381256.5
-384534.93
-389262.48
-390156.7
-390374.72
-386428.72
-382248.08
-379528.79
-371893.26
-364684.54
-356691.72
-350557.56
-340884.55
-332483.29
-323280.26
-314474.84
-305779.76
-296336.95
-287302
-277905.46
-268826.57
-260236.83
-250779.24
-242144.09
-233631.97
-225282.85
-216380.51
-208699.8
-201765.09
-193733.36
-186968.05
-179212.1
-172652.96
-165328.57
-159079.47
-153274.07
-147240.91
-141323.15
-135822.34
-130227.85
-125006.93
-120026.29
-115125.08
-110621.35
-106123.6
-102026.17
-97981.163
-94245.746
-90618.353
-87222.839
-83954.002
-80849.001
-77852.225
-74976.398
-72180.232
-69445.383
-66762.294
-64100.506
-61476.495
-58905.049
-56115.773
-53492.686
-50462.478
-47783.883
-45079.94
-42560.458
-40016.035
-37362.018
-34739.615
-32175.986
-29637.102
-27191.588
-24816.221
-22539.186
-20356.364
-18341.917
-16345.732
-14567.646
-12919.874
-11554.031
-10093.115
-8734.6381
-7468.7057
-6262.1873
-5175.9655
-4170.7619
-3236.6012
-2336.6023
-1591.6892
-588.89216
175.01955
-384711.57
-346875.53
-297480.3
-318747.4
-318308.42
-324150.56
-326372.45
-331168.26
-330331.73
-331569.54
-328575.95
-326492.65
-321357.38
-317584.64
-311188.77
-304729.77
-297809.48
-290976.39
-283435.18
-275470.26
-267645.55
-258907.46
-251583.77
-243143.24
-235337.03
-226909.9
-219530.13
-211497.64
-203912.67
-196280.58
-189384.2
-182207.97
-175101.77
-168302.62
-161767.44
-155477.96
-149411.43
-143586.2
-137953.4
-132382.12
-126884.06
-122114.07
-116674.88
-111960.37
-107185.19
-102823.57
-98445.765
-94407.193
-90373.414
-86702.766
-83027.831
-79665.932
-76379.924
-73308.766
-70356.985
-67565.147
-64882.831
-62334.394
-59856.362
-57475.197
-55146.182
-52868.608
-50649.82
-48414.871
-46208.842
-44316.207
-42493.853
-40004.348
-38101.327
-35924.554
-33648.222
-31400.19
-29186.436
-26957.262
-24805.653
-22760.241
-20708.695
-18853.804
-17025.943
-15341.37
-13758.97
-12237.872
-10972.267
-9280.3677
-8400.4312
-7188.6545
-6185.9221
-5298.4883
-4482.0011
-3675.46
-2942.5323
-2108.2315
-1515.7732
-358.86854
437.80328
-319561.03
-305630.82
-245888.3
-266734.59
-258277.44
-266107.27
-271946.67
-275964.9
-275117.78
-277121.97
-275837.42
-274320.96
-271051.97
-267590.85
-262916.48
-258442.46
-252724.89
-246719.14
-240680.78
-233895.37
-227751.77
-220831.27
-214222.74
-207108.15
-200175.95
-193346.71
-186527.2
-179575.15
-173168.71
-166539.12
-160172.63
-153802.52
-147991.34
-142093.18
-136685.29
-131086.9
-126139.18
-121250.14
-116389.88
-111604.47
-106847.17
-102339.99
-98175.876
-94053.003
-90051.848
-86155.638
-82348.632
-78741.374
-75227.219
-71915.252
-68678.454
-65681.148
-62752.971
-60035.701
-57419.832
-54969.246
-52628.996
-50416.288
-48291.321
-46264.662
-44302.607
-42394.39
-40532.352
-38627.304
-36917.747
-35188.501
-33886.422
-31440.492
-29973.124
-28216.762
-26574.152
-24686.056
-22791.11
-21014.487
-19252.246
-17558.502
-15962.973
-14422.391
-13002.542
-11675.676
-10432.222
-9337.9251
-8242.259
-7472.458
-6906.0197
-5872.9158
-5187.4302
-4506.8387
-3905.8957
-3241.2228
-2656.268
-1915.8973
-1310.2552
-47.3115
705.86764
-245825.65
-247795.01
-189598.21
-216780.57
-199405.29
-212290.14
-214242.06
-217014.85
-217582.94
-221229.03
-219790.91
-219637.68
-217026.45
-215639.96
-211428.57
-208269.98
-203420.98
-199464.76
-194322.31
-189164.71
-183946.92
-178136.59
-172752.33
-166773.36
-161494.4
-155481.38
-150166.89
-144411.93
-139067.25
-133553.45
-128510.1
-123336.52
-118491.94
-113621.69
-109343.37
-104437
-100425.41
-95370.914
-91334.744
-87475.748
-84160.054
-80591.719
-77136.259
-73709.757
-70508.863
-67350.509
-64324.947
-61411.423
-58549.583
-55834.059
-53195.539
-50699.387
-48295.99
-46039.081
-43881.952
-41872.06
-39953.964
-38162.482
-36459.889
-34851.325
-33316.504
-31833.362
-30377.9
-29015.269
-27617.979
-26250.539
-24965.403
-23605.229
-21962.094
-20469.36
-19180.855
-17610.755
-16464.728
-15190.014
-13834.279
-12561.767
-11364.146
-10236.466
-9185.3304
-8241.3851
-7360.2337
-6600.629
-5866.6257
-5156.0409
-4493.7202
-4155.4882
-3725.661
-3340.2719
-2919.2511
-2501.5392
-2071.7083
-1486.2245
-970.47503
87.845427
695.76434
-208275.49
-183025.27
-141092.3
-157284.53
-149729.59
-155828.83
-159348.84
-161671.63
-162137.53
-164618.36
-163996.39
-163364.34
-162572.96
-160806.2
-158158.39
-155757.95
-152509.02
-149034.07
-145249.16
-141277.16
-137410.75
-132989.49
-128874.95
-124500.5
-120247.08
-115673.09
-111522.81
-107015.28
-103013.23
-98821.265
-94897.798
-90981.992
-87315.349
-83820.686
-80450.777
-77093.246
-75324.703
-73952.422
-70923.489
-69604.41
-66493.455
-63790.722
-61223.647
-58611.856
-56061.267
-53506.942
-51036.373
-48590.809
-46226.144
-43955.002
-41732.249
-39639.015
-37616.605
-35714.034
-33915.723
-32235.651
-30647.366
-29179.92
-27799.745
-26502.97
-25288.611
-24099.296
-23000.386
-21953.845
-20729.542
-19852.806
-18731.992
-17552.188
-16286.324
-15160.787
-14127.9
-12926.463
-11445.427
-10462.356
-9346.4016
-8393.5518
-7540.8767
-6705.7298
-5979.3085
-5310.0455
-4721.4465
-4221.4595
-3779.6398
-3420.4112
-3143.4369
-2844.5285
-2608.4899
-2356.7476
-2121.6396
-1846.3876
-1574.1331
-1090.2007
-781.57584
192.69919
621.79852
-125398.63
-127596.96
-90370.93
-108528.54
-97405.493
-100024.07
-104662.12
-105343.58
-104926.55
-108529.97
-106626.14
-107678.33
-106092.7
-105770.11
-103218.18
-102272.32
-99430.284
-97550.578
-94701.328
-92171.178
-89186.026
-86185.902
-83383.685
-80143.073
-77282.577
-74057.627
-71353.732
-68265.7
-65569.227
-62633.873
-60127.686
-57431.932
-55109.77
-52719.617
-50417.679
-48612.639
-47257.319
-46368.516
-45152.876
-44148.929
-43270.971
-41555.65
-39802.819
-38118.83
-36464.757
-34763.374
-33088.488
-31460.637
-29822.49
-28240.652
-26682.705
-25196.815
-23746.221
-22399.024
-21104.727
-19913.182
-18799.483
-17780.948
-16833.002
-15972.975
-15159.079
-14437.85
-13712.109
-13007.893
-12448.967
-11643.725
-11122.521
-10383.428
-9715.9279
-9133.6401
-8300.4878
-7579.2053
-7045.1118
-5806.7985
-4986.7373
-4379.3457
-3774.4632
-3265.5631
-2810.1405
-2437.4528
-2098.2906
-1861.7334
-1655.2866
-1526.7959
-1426.1877
-1373.9942
-1343.277
-1296.0413
-1266.28
-1162.2486
-1079.0128
-759.44094
-608.39745
190.3792
549.34618
-64875.83
-56244.556
-38085.835
-52217.831
-40550.049
-45297.883
-47674.859
-47573.254
-47754.171
-49066.76
-49269.573
-48386.106
-48912.708
-48059.964
-47202.897
-46552.01
-45217.473
-44126.277
-42648.289
-41359.428
-39781.812
-38364.906
-36779.659
-35088.691
-33614.012
-31923.268
-30493.567
-28812.016
-27455.802
-26070.444
-24834.258
-23615.921
-22612.528
-21528.214
-20774.927
-20005.607
-19204.336
-18885.407
-17733.941
-16760.288
-16299.297
-15826.378
-15056.737
-14575.113
-13922.997
-13265.267
-12536.502
-11856.432
-11067.588
-10348.514
-9575.3489
-8855.5485
-8134.8178
-7470.4544
-6834.8312
-6262.5294
-5744.4377
-5277.7367
-4870.2865
-4512.4779
-4203.5167
-3925.3186
-3655.2815
-3468.461
-3170.8161
-2997.2315
-2713.6537
-2452.5897
-2141.3814
-1828.5429
-1498.9427
-1214.0564
-654.34058
-621.17974
-408.73695
-117.13648
161.15925
396.92198
552.257
693.29819
747.10748
754.37985
706.0536
613.74698
477.87133
334.22466
139.43821
-23.060338
-224.22489
-316.92215
-442.79313
-327.73562
-363.73882
179.24988
160.62549
11465.669
3736.5628
14254.361
7492.4651
10606.632
10177.963
9110.8977
8526.0099
10981.104
7418.6856
9471.4828
8464.1293
8474.1027
8055.6734
8703.7107
7963.2483
8643.6135
8266.8542
8785.0347
8648.5618
9081.7005
9138.6572
9650.3525
9858.4354
9969.8507
10296.96
10283.234
10535.247
10365.981
10522.64
10334.647
10265.815
10030.313
9733.8833
9359.9558
9100.8038
8382.365
8011.4245
7528.1879
7274.614
6788.3761
6273.3934
6053.1797
5745.22
5503.5567
5402.9622
5286.2213
5256.52
5295.3597
5359.7911
5471.2846
5596.9663
5737.2754
5872.4139
5984.6137
6079.7496
6131.8534
6150.2775
6122.8183
6048.7414
5949.6024
5802.3678
5626.899
5457.8903
5243.4659
5065.9397
4878.5337
4706.3754
4572.4708
4430.3332
4355.1645
4317.6479
4239.857
4133.5262
4028.0685
3984.1043
3928.815
3848.9218
3741.3163
3594.2149
3390.7032
3157.9804
2849.692
2542.8072
2143.7631
1773.1106
1346.3593
975.3688
601.25241
327.38849
57.214228
-16.89904
-181.73704
67.578217
-68.00384
68141.485
68558.713
65440.681
61952.098
64988.76
67377.082
65242.232
68347.333
67069.796
67790.782
66524.031
67281.486
65190.442
65169.697
63902.999
62866.011
61858.856
60630.76
59824.619
58366.267
57710.239
56561.208
55434.545
53992.618
52852.87
51558.146
50333.771
48963.14
47642.196
46296.027
44782.722
43373.16
41770.835
40193.591
38689.383
36892.575
35490.3
33739.169
32228.761
30620.95
29230.884
27773.532
26577.288
25300.988
24227.144
23244.289
22377.554
21569.348
20914.13
20282.212
19750.716
19253.174
18815.615
18378.444
17969.222
17561.093
17129.143
16695.759
16230.594
15747.214
15245.816
14710.317
14192.215
13630.289
13113.7
12569.513
12057.069
11556.963
11106.544
10649.688
10281.955
9831.5573
9506.429
9163.7457
9151.3038
8955.0306
8533.3023
8216.3742
7768.3508
7350.8553
6849.9897
6331.4371
5761.4093
5168.1221
4520.2937
3914.0802
3228.6833
2647.1886
1989.9878
1497.7227
912.83569
602.28867
159.18911
83.967796
-263.11546
138469.17
136928.89
118581.51
121856.74
124054.59
125368.02
127025.93
125958.78
129047.94
126565.07
126671.93
125574.04
123626.88
121855.75
120148.63
117448.31
115431
112845.15
110425.92
107703
105486.53
101706.13
98917.522
96208.059
93699.027
91188.435
88442.339
85893.906
83137.977
80525.726
77795.598
75139.26
72416.7
69763.632
66957.769
64418.017
61657.111
59131.302
56571.388
54205.426
51861.426
49621.423
47522.63
45570.056
43699.004
42019.303
40423.337
38968.193
37654.115
36426.17
35304.66
34276.536
33305.594
32385.092
31515.316
30658.066
29804.7
28965.029
28103.01
27224.467
26336.427
25416.516
24489.383
23539.579
22605.875
21636.767
20707.738
19804.046
18896.869
18042.376
17191.719
16397.337
15587.595
14700.116
13553.638
12956.18
12228.238
11504.931
10798.964
10150.432
9351.7365
8663.4541
7803.0978
7036.3381
6148.8054
5338.4898
4449.5777
3661.2088
2838.35
2131.9509
1447.9787
879.88356
391.33163
22.42783
-239.86074
207766.15
174950.2
162711.15
166391.07
171245.71
173041.17
173879.05
176155.28
176882.04
175729.35
174310.59
173488.09
170022.17
167872.86
164710.77
161159.46
158169.79
154111.07
150954.33
147343.06
144146.89
143818.56
141785.76
138216.53
134648.71
130418.67
126728.26
122561.54
118597.12
114678.57
110686.7
106827.19
102991.15
99034.165
95293.977
91391.364
87814.893
84118.18
80680.358
77240.565
74034.794
70864.373
67974.472
65122.388
62523.043
60039.745
57766.462
55605.121
53640.193
51770.224
50053.045
48429.254
46902.019
45445.666
44058.871
42700.331
41380.99
40082.758
38781.553
37488.821
36200.109
34883.556
33607.348
32287.111
31032.813
29716.96
28476.906
27198.767
25984.65
24778.299
23634.364
22536.352
21432.104
20307.716
19382.939
18565.985
17116.219
16155.027
15085.876
14086.052
13076.91
12011.684
10939.345
9840.3819
8712.3653
7601.1117
6472.6625
5405.2042
4332.2395
3388.0813
2441.9744
1684.1104
872.43461
275.82171
-678.51513
247911.81
245381.76
226375.53
225541.71
230050.69
229095.28
234666.47
233896.17
234121.03
233666.49
231320.8
228671.67
225417.24
221304.54
217142.74
212776.29
207583.8
202933.58
197974.83
192673.43
188342.95
182390.11
180993.16
177172.85
171936.35
167110.83
161934.62
156684.1
151590.37
146473.79
141440.3
136404.6
131514.21
126649.32
121807.83
117207.51
112555.69
108091.9
103727.34
99541.069
95468.975
91638.66
87949.618
84480.913
81198.426
78112.893
75232.553
72520.486
70010.283
67661.174
65462.38
63408.661
61471.652
59631.407
57877.197
56175.125
54526.014
52893.692
51276.483
49659.542
48028.167
46383.57
44733.78
43020.669
41376.572
39627.722
37967.878
36281.081
34604.305
32964.065
31351.309
29753.273
28157.811
26713.07
25164.218
23957.023
22406.117
21038.314
19542.975
18157.688
16715.81
15287.639
13832.679
12387.993
10918.998
9483.308
8045.7417
6675.019
5326.902
4131.4453
2928.109
2015.8622
1046.9411
353.01768
-655.69345
355717.99
329296.58
291368.35
302933.22
297207.31
305604.48
303379.41
306328.08
303346.52
303335.5
298724.28
295905.98
290009.82
285563.87
278819.3
273280.71
266353.11
259928.33
253115.99
246330.48
239611.36
232947.42
224948.2
218001.45
211486.33
205098.84
198882.98
192278.68
185965.79
179609.94
173322.77
167122.17
161201.37
155241.2
149504.35
143705.03
138091.34
132621.75
127408.06
122251.45
117426.28
112675.76
108232.83
103938.64
99925.419
96104.149
92538.235
89158.605
86019.603
83051.515
80266.422
77648.158
75162.434
72795.759
70531.279
68343.209
66213.33
64127.295
62067.557
60021.819
57984.26
55944.567
53900.88
51826.729
49836.833
47700.888
45743.461
43669.881
41670.661
39667.514
37719.625
35788.578
33931.821
32070.947
30239.572
28566.537
26802.604
25076.716
23313.593
21602.36
19882.741
18169.606
16444.128
14749.574
13028.905
11372.487
9705.1353
8136.971
6594.7309
5201.9952
3823.5411
2733.4044
1551.22
592.04211
-489.59469
403283.97
391736.08
342481.14
353989.63
358051.28
358989.43
360562.18
361577.38
359751.08
356733.82
353567.07
347534.18
342082.34
335715.11
327521.03
321049.06
312569.38
304602.4
296797.1
288329.14
280377.94
272359.66
264389.28
257157.91
248741.7
241087.28
233403.61
225748.77
218742.8
211071.98
204040.27
196702.48
189590.85
182586.14
175845.83
169309.29
162704.72
156522.16
150298.92
144424.86
138684.24
133217.34
128021.14
123048.47
118381.4
113949.05
109800.62
105903.12
102260.88
98847.367
95654.802
92655.818
89828.4
87139.22
84577.88
82096.936
79686.396
77315.693
74962.536
72618.519
70255.395
67882.775
65460.622
63037.565
60580.993
58018.79
55619.37
53075.39
50570.014
48117.461
45702.632
43277.076
40896.351
38599.084
36281.94
34068.032
31822.222
29666.802
27510.532
25407.235
23295.095
21218.258
19133.942
17088.874
15037.359
13046.209
11073.201
9190.721
7372.015
5670.0167
4116.0271
2730.3983
1481.643
530.47092
-355.24301
544887.28
409169.06
416436.43
411613.79
420869.46
414124.1
419838.5
418413.79
414926.96
412303.1
406030.25
401395.59
392894.89
385946.55
376469.41
368392.77
358955.59
349764.57
340172.06
331047.54
321281.63
312109.81
303211.13
294231.26
285169
275796.43
266961.47
258010.66
250061.85
241619.09
233585.62
225141.96
217077.37
208775.64
200678.29
193428.59
186268.3
179018.94
172006.58
165202.56
158651.06
152383.11
146373.63
140659.59
135261.07
130156.27
125373.27
120887.4
116681.22
112767.73
109083.25
105646.11
102394.72
99319.073
96382.334
93549.503
90794.963
88089.884
85409.002
82727.477
80037.647
77313.287
74562.204
71783.125
68917.814
66033.446
63137.875
60175.621
57422.318
54634.529
51774.649
48946.782
46271.791
43530.284
40894.654
38310.265
35789.956
33286.018
30841.389
28399.905
26007.66
23622.658
21271.972
18937.802
16642.165
14387.062
12190.312
10082.797
8055.3493
6199.2812
4478.8994
2964.0731
1698.5752
666.12619
-316.48539
-824812.01
-948999.15
-889018.07
-927578.99
-931072.72
-941310.67
-981705.76
-951569.43
-942457.78
-950344.48
-930693.32
-891467.04
-881814.69
-936210.43
-698866.54
-867373.46
-946692.08
-860332.57
-929087.99
-910253.89
-951090.32
-912426.97
-954806.49
-943978.9
-945304.05
-922404.17
-917707.82
-909725.86
-928199.78
-763482.72
-617096.44
-756464.22
-625821.78
-664599.71
-670882.8
-654057.1
-671289.34
-658827.45
-665172.24
-655084.31
-651761.55
-657940.86
-607656.84
-693964.64
-604685.17
-555944.34
-590452.81
-575665.49
-565261.12
-592874.74
-578181.9
-595909.17
-591627.58
-586384.43
-586126.62
-588106.83
-560630.08
-562936.68
-617685.62
-400209.36
-380689.89
-445610.32
-365487.27
-412876.63
-384614.95
-409746.02
-396795.45
-402653.83
-397223.08
-400381.14
-391424.63
-391939.76
-393331.75
-406162.1
-362851.04
-285634.69
-301348.81
-271921.91
-282983.61
-283129.26
-285494.92
-283432.29
-283605.33
-286715.73
-285098.45
-273471.92
-288386.43
-262839.6
-292809.38
-268411.06
-138642.55
-134685.16
-135300.88
-123656.2
-131584.02
-127462.93
-129800.1
-125052.32
-124965.35
-122778.17
-124848.58
-113182.57
-131043.2
-120716.01
-131853.43
-8728.6672
-1593.6907
12053.772
3556.2012
9482.412
8963.4457
9263.5732
11086.796
11031.879
5891.6771
21760.48
5710.301
-2117.657
29472.353
-40773.561
126085.15
147002.98
134005.35
149473.41
145953.02
150980.31
149632.17
152785.03
152394.49
146271.02
156796.05
142286.66
138966.05
164920.69
50066.466
237292.16
289689.23
268082.48
278120.29
279355.63
285495.55
286643.45
287583.62
292984.4
281007.76
306672.16
273606.39
268643.83
315635.21
194110.35
386906.44
452145.48
401766.23
440025.75
425044.26
435507.37
432773.86
437099.14
436233.75
425704.79
427993.56
428105.42
398908.29
436570.43
302343.54
553321.74
534815.51
543014.45
535852.16
558990.63
559599.05
564915.88
568812.69
570627.12
566821.04
584743.29
520780.15
549538.48
576946.6
447724.75
655533.08
688266.13
645241.88
661945.15
641874.76
660436.87
657853.12
655422.08
653932.95
644046.31
650728.83
663034.16
603897.6
698613.3
431923.2
797742.34
917595.99
834722.76
881553.73
911710.55
899943.9
908416.54
942344.59
926560.46
955550.36
902462.91
887672.38
909487.86
872535.64
826107.79
954734.73
776007.73
733732.54
742827.6
773731.01
818892.57
794521.38
761569.02
734255.25
731460.49
750829.31
752989.8
753757.09
808918.76
738091.71
751698.81
704341.84
830441.08
849842.94
873757.44
943890.55
906056.4
843660.51
962207.82
945855.91
917527.31
875689.68
851775.02
810366.03
707371.58
585937.92
584864.29
636556.06
649173.57
668387.44
691314.51
705582.32
723899.21
738898.92
712365.94
702107.68
663565.49
674968.03
667328.7
666219.45
459462.2
511603.99
513398.99
546339.57
579478.23
560746
584521.61
577342.13
561172.86
584588.95
565072.09
575808.72
555055.84
507931.72
513639.02
476303.72
527524.57
535694.44
541709.46
550892.03
564198.89
564703.72
567639.34
567077.31
555622.03
555910.2
543646.59
529071.84
520651.64
495962.5
487982.62
520165.08
513681.11
544641.37
546810.49
556199.8
567018.13
565389.38
568462.32
570629.63
554134.81
547140.5
524090.39
512478.69
498913.22
478916.56
493491.81
501547.95
519739.94
524549.85
536645.47
533654.47
536293.39
536317.86
527789.44
527701.25
516028.26
506959.68
496077.2
476080.57
472007.27
494184.51
498467.01
508995.02
511843.16
520915.07
523539.61
525490.57
524461.75
521291.52
511761.65
508338.01
497789.71
484068.59
485297.9
471952.93
478123.32
488287.77
494822.82
504734.36
507782.85
510184.61
512183.93
509081.28
507288.46
502123.07
496908.46
487135.2
479524.08
470196.09
461819.31
475238.46
478432.46
486084.07
486401.48
494672.85
491588.79
495079.23
493362.18
489478.93
486482.76
480098.13
476501.87
469478.99
465093.37
458611.75
461115.57
467008.01
469591.17
475391.2
477224.28
480103.67
479909.79
478004.02
479222.79
473500.85
472990.36
467060.14
462739.42
460028.26
448165.22
455183.23
457331.64
462496.47
464160.54
468572.8
467161.88
470599.44
470023.41
467723.87
467958.85
465210.17
461643.51
458881.52
457988.82
442537.97
442991.22
447123.37
447635.12
450508.26
451397.84
453626.16
454611.74
454422.79
454245.23
453035.6
450677.73
449460.24
446772.23
446799.94
433949.93
434822.19
434804.4
438466.88
439401.55
442431.62
442134.08
443549.3
443842.76
443358.89
442360
442367.77
440146.24
439599.3
438951.06
423230.84
423721.24
427216.51
425609.28
428381.39
428868.84
429162.86
430668.38
430577.47
430105.61
429960.96
430086.57
428598.16
428004.08
429873.65
414677.65
413897.48
414640.43
415848.48
417019.03
417392.71
417935
418275.71
418989.65
418929.6
419384.05
418821.73
418061.4
419250.1
419342.54
403578.94
403555
405923.38
403855.15
405285.63
405418.87
407985.4
406125.18
406151.21
406379.21
405161.45
406695.11
404431.99
405123.73
406451.48
394443.26
392831.37
394196.59
392675.76
394892.1
395145.1
394419.92
395277.28
395513.45
395539.76
395995.48
396849.52
397144.8
397016.52
399887.61
384297.92
383050.72
383620.86
382201.88
383537.5
383174.31
384147.29
383791.58
383439.64
384136.2
382916
384051.49
382043.14
384148.03
384770.37
372702.01
372033.42
373359.8
372453.27
372368.36
372408.12
371132.56
372997.21
372032.57
372802.85
372440.73
373811.86
373540.51
375673.36
376703.1
363253.17
361641.98
362271.87
360363.29
361863.17
361540.82
362315.72
361533.43
362093.78
362258.83
360548.29
363470.87
361308.51
364012.6
363842.33
353038.82
351377.91
351756.27
350552.05
350725.23
349789.16
350883.26
351142.86
350002.82
350941.78
350624.28
352098.44
350891.55
353072.17
354116.33
341381.19
341136.19
341271.97
339884.7
340425.68
339865.33
340248.36
339624.8
340247.39
340346.42
340432.83
341833.81
341312.78
341630.5
343795.18
332445.48
330487.68
330603.89
329801.49
329826.1
329618.52
329645.55
329655.83
328339.5
330415.95
328786.11
330234.45
328870.45
332032.27
332719.79
321465.85
320355.44
320783.21
319332.89
319638.13
319412.58
319163.32
318948.12
319034.4
319551.59
318583.09
321096.57
320128.1
321399.3
322205.42
311985.15
310455.04
309969.72
309381.23
309116.78
308440.16
309144.98
308800.82
308502.31
309370.35
307893.56
309928.16
308992.34
310537.79
311659.61
302879.63
299541.33
300150.53
298613.03
299361.46
298836.99
299088.95
298694.26
298791.31
299199.02
299727.32
300077.85
299003.7
301642.97
301500.64
291955.01
290277.97
290066.72
289731.47
289000.73
289695.03
288840.53
289216.12
288508.22
289098.69
288524.92
290476.86
288584.43
290381.46
291820.91
283407.22
280402.8
280332.45
279686.6
280249.36
279622.69
279210.73
279180.27
279258.57
279418.21
279294.81
279997.45
279680.85
282129.4
281442.36
272671.74
271659.22
271721.24
270302.26
270087.3
270111.19
269640.49
269944.16
269429.15
270105
269457.7
270855
269795.25
270797.32
272864.58
264885.95
261470.87
261882.61
261345.67
261204.7
260754.65
260508.23
260540.16
260206.64
260441.26
260213.67
261450.12
260410.86
262585.68
262998.55
254984.5
252844.23
252890.23
252180.76
251666.88
252315.1
251244.69
251294.97
250310.23
251681.96
251000.51
252306.79
251562.46
252753.81
253726.79
246636.28
243590.72
244182.49
243248.39
242935.13
242946.21
242287.7
242449.76
242025.25
242559.75
242097.41
243300.75
242667.97
243989.47
244756.22
237566.39
234949.62
235235.73
234471.97
234180.91
234036.72
233546.77
233585.88
233248.49
233760.43
233329.42
234483.2
233834.22
235143.63
235760.81
228890.03
226273.61
226710.23
225831
225504
225405.49
225023.51
225019.37
224707.51
225080.45
224756.99
225801.69
225336.74
226691.41
227247.08
220034.73
218029.78
218242.1
217449.28
217166.52
217046.43
216428.38
216698.24
216130.4
216877.1
216234.44
217540.08
216812.53
218323.49
218493.53
211488.74
210090.97
209701.64
209893.99
208404.37
208800.78
208153.77
208247.35
208011.64
208246.91
208121.59
209045.96
208946.97
209676.61
211215.11
204225.5
201409.94
201647.07
200914.35
200888.63
200368.62
200376.61
200081.07
200111.37
199863.58
200019.18
201221.16
200576.11
202215.91
202373.28
195650.96
193894.75
193829.03
193396.42
192664.97
192854.71
192184.18
192456.57
192029.87
192487.71
192209.09
193167.02
192988.75
193993.03
194806.83
188514.74
185976.73
186369.65
185533.27
185313.22
185036.58
184758.84
184709.5
184436.33
184875.06
184566.85
185739.91
185233.21
186600.55
187118.59
180695.39
178706.09
178833.99
178175.13
177753.86
177678.77
177280.08
177255.66
177096.58
177405.79
177214.84
178149.73
177938.44
179195.35
179808.19
173660.43
171456.06
171732.46
170932.3
170661.27
170425.9
170123.16
170105.07
169897.02
170286.93
170025.24
171058.91
170790.31
172097.95
172627.84
166587.88
164658.62
164750.44
164076.1
163722.03
163559.93
163268.83
163165.7
163051.57
163334.97
163185.41
164148.92
163935.37
165226.46
165781.68
160068.09
158026.43
158193.03
157436.42
157148.64
156977.06
156653.77
156591.24
156439.73
156768.38
156593.21
157541.73
157334.95
158664.22
159162.79
153663.26
151808.48
151853.73
151139.36
150861.98
150670.27
150374.03
150235.58
150144.9
150402.37
150261.16
151182.51
151011.44
152328.47
152817.46
147757.15
145852.04
145924.77
145182.07
144893.81
144741.35
144401.32
144281.77
144183.46
144410.44
144309.32
145180.11
145034.11
146340
146764.92
142062.73
140269.66
140286.47
139511.49
139246.44
139073.04
138740.14
138597.1
138501.62
138711.54
138624.34
139425.45
139345.06
140561.28
141012.07
136806.16
135025.61
135013.29
134251.14
133969.47
133822.12
133469.81
133311.32
133216.48
133397.89
133295.73
134063.02
134004.27
135132.87
135598.26
131849.49