/*--------------------------------*- C++ -*----------------------------------*\
  =========                 |
  \\      /  F ield         | OpenFOAM: The Open Source CFD Toolbox
   \\    /   O peration     | Website:  https://openfoam.org
    \\  /    A nd           | Version:  6
     \\/     M anipulation  |
\*---------------------------------------------------------------------------*/
FoamFile
{
    version     2.0;
    format      ascii;
    class       pointScalarField;
    location    "1.67";
    object      p;
}
// * * * * * * * * * * * * * * * * * * * * * * * * * * * * * * * * * * * * * //

dimensions      [1 -1 -2 0 0 0 0];

internalField   nonuniform List<scalar> 
3969
(
-674160.01
876710.11
-30.387893
-279.16627
-1169460.9
1960204.5
-83.049129
143.0635
-538449.89
-385612.35
-207278.62
-39911.372
102123.51
290960.75
318726.91
163.16403
455.72499
381.59335
16.005034
-336.46402
-544.57258
-439.17518
-188580.23
-226099.6
-211784.36
-226120.32
-213460.76
-217707.86
-203254.69
-200696.18
-189694.46
-180850.04
-173709.75
-165754.8
-158470.45
-151445.18
-144877.8
-137194.65
-131188.41
-123967.4
-117923.96
-110391.51
-104285.49
-97202.993
-90348.629
-83660.756
-76796.857
-70033.651
-63491.325
-56960.336
-50849.685
-44540.113
-38863.746
-33260.075
-28142.784
-23399.996
-18950.722
-15279.771
-11698.264
-8775.6304
-6163.1817
-4132.0538
-2544.3941
-1377.8097
-439.77094
21.343158
312.20248
568.12128
117.18087
217749.58
176375.68
207023.68
180256.95
201926.35
178232.96
186513.29
170617.88
171695.29
160414.09
157238.82
151591.21
144770.01
140540.54
134583.58
129355.06
124870.96
119255.26
114509.25
110382.19
103680.96
101077.04
94206.384
90625.812
84299.786
79757.319
73546.716
68920.867
63149.208
57824.341
53029.534
47471.542
42734.773
37704.389
33038.395
28546.543
24456.401
20284.293
16624.633
13134.142
10088.022
7454.0913
5207.5829
3305.7533
1747.243
662.20923
62.201179
-825820.54
-593444.36
-203801.46
109298.27
380472.68
686726.73
565612.48
261579.18
303398.62
192362.4
259283.73
229666.09
231996.1
221610.1
214008.93
207302.23
188249.05
193612.96
179120.1
176790.74
170882.03
158107.64
157149.68
142640.24
139251.26
127931.27
121532.23
112561.49
106069.17
97695.624
90849.46
83243.319
77171.774
69697.319
61867.198
55457.044
48924.361
42317.747
36535.188
30923.458
25724.472
21262.94
17193.823
12626.309
10224.54
7293.2135
5124.3455
3277.9638
2043.4508
961.42061
332.96264
-41.329028
-228.57928
-343.88807
-635.91791
-295.27624
-365.55696
348.86085
379.36527
492.83544
248.23426
-33.656457
-220.85105
-1267.7393
-2675.6353
-4490.047
-6677.0165
-9309.9225
-12257.538
-15589.498
-19350.386
-23423.075
-27998.841
-32658.983
-37762.653
-43049.171
-48326.943
-53985.383
-59725.045
-65351.038
-71046.655
-77104.803
-82290.199
-88474.449
-93714.159
-100011.98
-105037.43
-111175.68
-115282.42
-121865.27
-125349.73
-132126.03
-133858.08
-137390.11
-147561.66
-157827.18
-151571.58
-166757.59
-163912.02
-171295.66
-188079.25
-194794.72
-189233.85
-206404.58
-194345.57
-191410.18
-212134.12
-211131.35
-555185.63
-605964.83
-624909.43
-613531.59
-590790.7
-569678.21
-421570.05
713532.62
902912.49
1055424.4
1136467.5
1097273.2
1127733.3
909591.38
-187.25794
-106.98917
-5.5769495
110.98035
236.20586
473.40385
202.34053
-412.09861
-381.44147
-201.76092
0.80990459
221.69553
324.82592
237.62055
-165464.18
-181501.79
-177712.44
-174662.26
-174126.16
-166815.27
-162384.67
-157879.65
-148776.59
-146466.28
-139395
-131226.74
-128587.86
-120549.7
-115724.89
-108980.21
-104413.43
-97744.149
-92402.113
-86343.929
-81190.915
-74922.811
-69603.171
-63866.141
-58670.814
-52803.517
-47595.345
-42551.598
-37376.211
-32621.775
-28066.548
-23723.38
-19863.782
-16126.383
-12978.906
-10071.974
-7679.6712
-5358.997
-3836.2018
-2479.6843
-1458.79
-737.04325
-294.05819
-61.601054
40.157859
142.95514
94.018716
-107294.54
-118414.77
-110297.35
-117237.9
-116727.96
-118539.02
-111694.5
-108871.44
-103827.89
-100097.56
-94329.17
-90878.858
-85783.17
-81025.323
-78073.753
-73379.327
-69909.496
-64970.586
-61492.482
-56947.269
-52731.57
-48251.607
-44067.936
-40073.494
-35993.491
-32258.728
-28879.365
-25106.439
-21974.779
-18742.721
-15795.753
-13078.173
-10538.771
-8307.484
-6336.4062
-4610.4021
-3100.0785
-1986.5987
-1224.5543
-539.02631
-88.003837
83.52037
208.19717
134.32173
-5.6702761
167.57615
-101.2417
-55832.586
-70166.411
-56991.272
-63236.972
-61016.554
-60790.021
-57575.499
-58129.323
-54788.978
-51390.008
-51261.593
-46587.526
-45620.964
-41283.055
-39002.292
-35938.277
-33965.898
-30862.211
-29324.456
-26014.495
-24710.071
-21978.681
-20176.02
-17399.072
-15599.241
-13240.379
-11338.126
-9323.0162
-7662.9314
-5863.3659
-4370.2934
-2887.5648
-1679.6503
-600.72095
237.0681
983.10301
1376.4797
1780.9701
2002.9615
1950.8486
1736.8209
1465.654
1114.2667
694.08891
369.29964
219.77825
-130.51454
-5777.3392
-13285.823
-3250.9816
-10720.135
-5152.3411
-7866.3488
-1243.1435
-4095.5527
-756.35582
-5809.1914
-42.105811
-3487.0996
-169.58938
-1387.0886
-891.51105
-17.632859
460.80573
1657.8064
2059.5112
3792.8201
4067.5982
6087.739
7608.1205
8530.3848
8868.7626
9603.6429
9733.5846
9894.7924
10005.056
10003.713
9885.8294
9671.3387
9370.1231
8924.7823
8402.8922
7791.2996
7024.0005
6281.9322
5240.4665
4226.366
3458.7629
2627.6346
1923.1514
1189.228
671.89178
259.19013
-144.94571
53948.663
40798.945
49460.388
47526.927
51488.005
50043.636
49804.213
48310.476
46930.855
43857.691
44156.402
39869.79
41544.501
37591.435
38145.18
36328.844
35349.843
34952.315
33380.693
33608.631
31089.709
30035.792
28369.052
26600.506
25913.396
25729.897
24052.343
23088.344
21796.733
20643.385
19247.817
18012.819
16595.423
15146.913
13715.099
12247.588
10771.642
9342.1305
8456.925
6747.9235
5428.233
4175.5055
3004.5783
1992.7993
1104.418
469.28504
-110.36298
114015.24
98833.88
102907.89
105443.62
106490.1
102619.91
102668.35
97187.574
97491.337
90707.751
91262.153
86549.25
84419.663
81927.56
79019.109
76133.97
73058.378
70984.593
67498.064
65951.514
61713.933
60600.358
55076.374
52341.403
48693.31
46771.79
44021.851
41330.312
38413.115
35651.481
32862.06
29995.524
27180.506
24346.376
21607.933
18909.27
16310.374
13787.056
11177.871
9051.7266
7208.3118
5369.3212
3789.0608
2386.2432
1325.8744
525.40917
-66.460878
190340.31
138653.54
162481.94
155219.23
161704.66
153245.62
153965.87
145800.02
146125.5
136811.44
136848.67
130052.59
126603.95
120302.06
116568.79
110563.85
106796.61
101662.43
98378.164
92821.656
90038.753
84222.8
80857.811
76064.762
71838.496
67596.564
63618.309
58715.677
54111.93
49656.354
45099.916
40774.238
36406.281
32199.78
28163.949
24255.582
20634.63
17313.346
14226.211
11375.879
8854.997
6610.4918
4643.4939
3036.2762
1703.3293
697.1608
13.658576
-370478.68
-357394.75
-366963.55
-355490.68
-354387.6
-333886.63
-310081.53
-261743.13
-297504.21
-265626.05
-271562.85
-262947
-243545.7
-237601.34
-140878.21
-159605.02
-120732.42
-126589.84
-106121.23
-97833.426
-111238.37
-40296.271
-25363.001
-5531.1439
-13076.233
2716.4886
34698.535
-16253.227
63243.42
73194.388
93619.523
93490.88
103664.03
113349.53
76615.26
231303.36
244396.07
255211.18
265578.59
282437.46
285304.61
265978.91
303462.36
278296.41
246259.64
260036.41
256250.1
237744.67
276735.5
320123.82
333363.2
379716.76
393678.22
406346.59
407491.87
328387.63
247466.67
280264.22
283342.3
289975.44
305281.07
300777.41
281025.53
213542.52
244449.1
259726.73
261572.47
263630.64
253738.39
260791.3
207802.66
224312.28
223575.51
237809.3
232633.47
235893.41
227977.36
205481.26
222884.46
234953.69
238231.71
241116.94
236358.65
238098.62
202187.56
198882.53
207026.61
212524.87
216798.14
215260.51
218223.98
189351.22
198552.75
204085.71
208884.39
211867.75
214142.26
216057.51
188357.67
186625.4
191883.06
194061.77
192418.64
198521.7
200868.58
176985.77
181821.17
183219.22
188528.96
192278.76
196131.25
198690.6
175308.05
173199.04
173030.3
176309.17
178441.97
180598.68
182793.16
167159.26
167974.92
166940.35
170763.79
173857.61
175918.37
181747.95
159898.83
159505.69
159555.74
164527.95
164585.59
165687.42
170631.12
156255.84
150741.8
153745.9
154719.48
158068.52
159487.46
167504.75
147960.98
144917.68
149824.83
150943.35
152857.33
153738.24
157904.27
143480.03
139152.64
143167.78
141982.35
144586.73
144879.49
150566.59
137464.61
133005.11
138061.11
137410.05
140337.68
140855.1
145354.86
131324.94
128651.9
132341.94
130776.63
133447.4
132380.12
135903.04
126266.73
123660.13
126824.74
125003.53
128405.26
126710.48
130785.55
120537.56
118084.8
121002.17
118428.75
121618.39
118994.5
122960.85
114776.45
113340.58
115489.12
113018.67
116334.21
113464.08
117347.18
109821.68
107118.21
109418.82
106260.52
109387.92
105930.83
109460.34
103938.04
102217
103719.23
100887.85
103615.87
99986.337
103438.66
98668.512
95971.194
97673.708
94345.189
96604.27
92924.962
96034.047
92908.715
91081.915
91696.312
88478.621
90451.076
86948.588
89607.091
87110.015
85373.248
84592.095
82505.423
83581.861
80286.194
82656.97
80860.331
80041.63
77632.115
77700.371
76781.739
75291.944
76322.72
76245.669
74023.577
72242.832
71739.625
70464.702
68119.927
69240.516
70531.691
67956.373
66723.344
65133.275
63748.991
62233.107
61860.916
64766.475
62161.527
60800.572
58860.369
57319.131
55858.244
55066.189
59272.794
56120.561
55072.071
52809.7
51403.997
49801.399
48877.709
53295.977
50612.199
49168.425
46866.055
45328.862
43641.943
42627.322
48029.894
44957.575
43638.585
41254.703
39724.232
38002.181
37024.549
42470.347
39590.062
38167.027
35820.072
34315.002
32604.88
31626.84
37397.232
34477.467
33087.296
30734.672
29247.936
27564.144
26515.207
32318.151
29543.995
28151.933
25897.15
24483.632
22887.304
21934.58
27621.113
25012.267
23607.706
21558.244
20178.085
18898.183
17835.998
23460.811
20855.272
19684.453
17576.364
16430.001
14906.572
13850.866
19089.721
16728.331
15313.641
13756.429
12453.262
11316.178
10643.51
15378.288
13360.241
12301.035
10658.457
9703.4767
8585.917
8031.1484
12176.335
10263.299
9297.7196
7859.3395
6982.6629
6116.4582
5559.5953
9134.2316
7567.7384
6672.7473
5443.1231
4747.74
3993.5045
3600.2619
6613.8941
5225.8397
4537.5608
3534.2048
2949.014
2421.7965
2099.5859
4449.5806
3286.3396
2725.2156
1907.9684
1458.8496
1134.7107
882.41165
2714.956
1801.5045
1367.9068
762.20862
449.60357
260.1176
45.037983
1319.589
602.75692
267.50926
-118.49809
-362.89957
-387.61284
-513.28038
445.08778
31.530419
-164.79029
-400.2991
-485.2745
-446.27823
-533.29782
-87.424682
-315.00261
-542.38707
-452.63451
-490.3013
-429.75255
-534.65548
-166.34878
-279.44027
-153.09409
116.93837
412.83838
577.45937
640.0233
560.43192
383.71926
534.16526
777.61116
1001.4997
1189.5457
1052.9775
-20.684121
6.4930667
75.04689
415.93
659.23835
853.43484
628.52166
-266.14839
-247.52005
-101.11603
154.07798
352.78322
547.26694
317.97442
-781.98708
-798.67622
-803.66819
-483.18481
-305.51746
-138.2915
-235.97863
-970.57876
-961.25227
-759.66934
-513.67305
-333.87407
-126.07883
-454.16715
-848.927
-932.54853
-873.15314
-597.74054
-332.75101
-344.7573
-468.50774
-241139.62
-234609.85
-270458.74
-254285.36
-262441.63
-240182.3
-235290.81
-260344.45
-263479.7
-275416.3
-271694.31
-269437.83
-247401.69
-236142.48
-245224.05
-242488.62
-246190.14
-244363.31
-237880.42
-223578.04
-217670.07
-226682.48
-236049.58
-236224.68
-237612.81
-230859.64
-218306.87
-215030.95
-226374.67
-223775.02
-222241.72
-221861.11
-216310.73
-208673.36
-198860.95
-210827.68
-213858.7
-211911.48
-207353.91
-203161.58
-191962.31
-189612.28
-207784.67
-204324.26
-201656.16
-199207.05
-197811.5
-189237.14
-191952.03
-193909.8
-193697.75
-191980.36
-181872.27
-184563.13
-176926.03
-175042.4
-189841.88
-188882.43
-185117.18
-179542.63
-180920.77
-173138.52
-176101.79
-181596.24
-176954.43
-173488.79
-169533.14
-169373.47
-162925.92
-165411.17
-173975.64
-170113.12
-171241.78
-164858.14
-165932.98
-159957.65
-161742.83
-165353.39
-164590.27
-159963.57
-155728.16
-155791.7
-150604.08
-153847.21
-159784.23
-155505.53
-154819.24
-150623.31
-151570.43
-146000.78
-145209.11
-151974.25
-150370.4
-146868.71
-144557.76
-143211.43
-140332.24
-140675.25
-145014.94
-143797.59
-140637.08
-139869.42
-138566.1
-135599
-137978.29
-139224.54
-136041.75
-134222.16
-132162.32
-132518.98
-129937.41
-130518.54
-131918.55
-130872.04
-128660.07
-128309.7
-127348.04
-124888.84
-125894.36
-125317.55
-124070.31
-122578.37
-121890.77
-120785.81
-119311.53
-119998.42
-118100
-118128.21
-116891.55
-116239.72
-116001.44
-114917.71
-115969.77
-111931.83
-111535.35
-110576.61
-110407.22
-110195.08
-109172.74
-110280.95
-105332.22
-105061.3
-104969.01
-104778.62
-105058.17
-104397.42
-105860.16
-98600.43
-98448.896
-98713.721
-98599.851
-98922.744
-98398.748
-100334.35
-92010.991
-92251.348
-93220.242
-92980.063
-93825.085
-93596.268
-95710.346
-85558.336
-85852.082
-86733.247
-86775.475
-87756.005
-87392.032
-90134.115
-78707.346
-79169.358
-80634.502
-80916.656
-82030.736
-82158.369
-84932.595
-72203.619
-72673.917
-74318.185
-74781.073
-75972.569
-76169.107
-79235.16
-65372.352
-66488.072
-68313.614
-68680.918
-70398.848
-70616.931
-73966.716
-59319.961
-59992.309
-61911.988
-62470.149
-64376.661
-64849.456
-68197.185
-52509.585
-53631.238
-55768.419
-56663.772
-58497.561
-59140.694
-62467.551
-46549.935
-47840.671
-49750.078
-50823.452
-52583.864
-53600.204
-56788.864
-40648.187
-41937.191
-43897.979
-45086.506
-46942.077
-48058.044
-51239.703
-34930.009
-36335.428
-38173.223
-39545.476
-41354.934
-42676.328
-45742.785
-29766.224
-31158.134
-33015.974
-34390.298
-36243.573
-37612.535
-40460.97
-24808.372
-26220.908
-27910.19
-29337.573
-30986.906
-32275.895
-35230.791
-20248.531
-21515.68
-23187.414
-24554.312
-26328.868
-28316.218
-30927.346
-16404.922
-17852.581
-19277.842
-20649.886
-22352.192
-23641.138
-25590.595
-12797.08
-13580.866
-14967.402
-16251.36
-17649.536
-19204.007
-21589.36
-9372.8392
-10371.193
-11616.476
-12766.834
-14431.108
-15653.661
-17909.436
-6945.2229
-7795.9457
-8811.9723
-9856.113
-11260.453
-12309.109
-14224.684
-4667.9824
-5259.8178
-6130.44
-7054.936
-8283.234
-9261.0902
-11070.614
-2854.9968
-3293.6577
-4103.7207
-4790.239
-5934.9681
-6773.383
-8304.4575
-1479.3585
-1835.2087
-2400.7882
-2977.1096
-3984.6255
-4607.1136
-5929.3135
-406.91408
-530.0735
-1017.2904
-1428.4862
-2296.5717
-2736.8573
-3898.4453
216.02274
125.85723
-164.86377
-436.3495
-1113.9827
-1390.4917
-2326.832
710.66417
712.35732
561.53961
320.0162
-220.25103
-372.20618
-1136.55
673.51725
641.77101
573.78457
458.13579
300.51067
238.8411
-223.6714
410.54546
369.884
425.71065
430.59986
333.65077
269.66994
65.051376
-221321.53
-154288.42
-156289.9
-152377.17
-157337.71
-158577.28
-147558.63
-145963.54
-140920.57
-138422.3
-130483.99
-127486.26
-121732.67
-116884.16
-112594.67
-108519.03
-103487.49
-99901.157
-95797.784
-91972.398
-87952.477
-83829.018
-79729.86
-75753.284
-71431.785
-67194.444
-62521.82
-57922.26
-53516.8
-48903.679
-44491.952
-40127.887
-35861.913
-31621.771
-27629.679
-23526.792
-20335.712
-16842.274
-13910.515
-10990.276
-8472.2523
-6287.8266
-4363.6297
-2814.4173
-1482.6456
-607.41845
-10.285245
-115924.14
-113941.64
-88357.394
-99145.098
-118848.54
-103689.41
-111072.11
-99308.834
-104533.03
-92447.155
-95910.819
-87674.61
-85642.665
-81742.55
-80079.729
-77275.281
-75257.264
-71270.015
-69978.539
-66548.325
-64423.999
-61252.581
-58883.953
-55639.212
-52602.095
-48830.893
-47201.896
-43520.62
-40607.514
-37358.232
-34266.181
-31102.293
-28036.15
-24940.086
-21936.191
-19236.67
-16398.353
-13456.171
-11520.445
-8856.2715
-6934.4757
-5108.0024
-3477.4091
-2118.1342
-1022.2767
-126.15452
173.82829
-40430.343
-54979.663
-26488.85
-47310.401
-42772.802
-35975.501
-42156.648
-36185.374
-38278.068
-32767.872
-37651.564
-33490.578
-36371.283
-34209.105
-35251.549
-34919.962
-33933.556
-33249.993
-33021.608
-31663.189
-30927.705
-30123.763
-29273.02
-28176.771
-27475.554
-26384.112
-25278.491
-23690.443
-22681.669
-21125.042
-19821.513
-18400.36
-16917.572
-15395.476
-13927.874
-12311.053
-10791.458
-9337.1043
-7952.364
-6367.1788
-5181.0852
-3935.8904
-2723.9189
-1861.4781
-936.79298
-382.68956
188.71138
37113.253
7380.9438
21529.676
8127.5029
13859.789
11818.276
8505.443
16010.092
9484.6229
10287.735
9018.2085
8731.0854
3839.453
3577.6684
-174.00098
1149.2022
-1637.0691
-1585.5472
-3413.8145
-3177.2328
-4966.3859
-5339.2174
-6311.5232
-6823.6371
-7450.3235
-7529.8628
-7964.4242
-8262.7973
-8450.0929
-8286.3645
-8497.1908
-8337.5656
-8148.2298
-7848.0807
-7391.9552
-6884.1754
-6211.2901
-5600.0067
-4771.9962
-4003.7066
-3254.4195
-2400.0985
-1623.2481
-1019.1619
-353.69238
66.855885
245.10424
126834.29
70323.254
72353.225
56882.317
64624.08
55440.202
62489.346
57649.77
51626.765
54579.73
46328.155
49903.476
43069.189
44927.064
40520.657
39561
36099.041
34203.403
31720.619
29311.651
26563.313
24401.536
21874.931
19629.596
17114.449
15243.106
12789.867
10743.975
8863.0113
7116.1415
5391.6448
3956.2615
2506.0017
1353.1374
399.93345
-342.2438
-928.16796
-1272.6139
-1480.1244
-1548.2619
-1479.2595
-1239.9
-953.75151
-677.29357
-258.70851
-139.42867
185.33018
181834.77
136074.1
118550.01
116225.78
121055.48
116087.63
116855.13
105500.47
109579.29
104964.93
101433.03
101315.8
91648.52
92818.363
83997.033
82316.322
74554.168
71639.09
65610.19
62042.431
57242.928
53358.407
48527.086
43817.507
38414.962
34029.152
30517.696
26791.485
23305.618
20065.751
17048.586
14170.144
11508.659
9183.9836
7112.1621
5261.1697
3792.9448
2538.912
1592.7099
897.12197
417.63677
162.98781
33.187475
44.27822
89.029358
170.92253
-49.345213
223208.82
186039.47
183169.39
177367.58
185881.24
178589.72
180023.97
170273.24
170959.74
160284.6
156616.86
146538.95
141094.33
134099.66
128044.36
121892.34
117150.4
109881.6
104971.82
97994.854
92262.906
85270.78
79549.854
72626.491
67080.84
58580.579
53189.746
47578.663
42151.012
37053.972
32102.208
27316.063
23070.127
18954.966
15293.268
12151.557
9690.3507
7043.3883
5048.493
3582.1365
2255.895
1373.7696
800.24911
379.6381
217.28979
11.7321
37.800797
-315392.46
-337400.87
-324215.34
-333916.58
-321359.05
-293408.73
-268761.28
-209366.27
-241611.15
-232992.92
-233094.49
-222298.43
-208529.24
-179561.8
-199427.49
-219433.82
-226179.58
-223381.36
-217033.92
-207100.64
-189063.52
-191115.23
-191072.25
-192855.17
-194702.81
-182016.91
-179344.42
-157098.16
-183744.43
-186306.33
-192332.7
-184755.33
-177585.73
-172009.56
-150267.51
-176313.63
-177101.78
-170936.43
-173260.93
-166512.74
-160000.44
-158214.2
-172316.62
-168035.84
-168859.32
-165396.96
-154670.13
-158222.8
-147242.22
-162505.85
-165852.66
-158458.04
-158442.46
-154102.5
-147449.45
-141344.55
-160759.11
-155509.72
-147577.03
-154553.01
-143233.83
-143583.83
-137341.98
-150227.98
-146682.61
-148555.32
-145913.27
-139181.54
-138298.62
-133774.33
-143414.98
-145962.74
-137800.53
-137901.28
-131645.34
-131568.73
-125845.27
-140618.54
-134436.96
-133799.1
-132436.77
-129518.62
-126232.43
-122954.13
-131990.02
-131287.93
-127711.17
-129212.22
-121502.77
-122666.76
-118196.15
-126866.42
-122779.62
-123641.94
-121559.14
-118376.16
-117118.02
-114975.41
-120750.55
-118420.15
-117082.51
-115341.04
-112501.32
-112357.82
-109058.74
-114807.36
-111825.55
-113323.59
-111099.52
-109235.22
-107263.76
-106277.96
-108228.63
-106606.94
-106690.51
-105617.43
-103368.5
-102497.7
-101257.09
-102603.61
-100676.66
-102210.95
-99964.687
-99094.35
-98548.335
-98162.726
-96428.565
-95889.153
-95899.428
-95291.776
-94331.095
-93815.187
-92759.881
-90867.469
-89831.634
-91109.855
-90393.893
-89980.678
-89537.995
-89662.611
-84009.742
-84755.804
-85465.163
-85197.169
-84702.036
-84926.351
-84772.036
-78314.046
-79589.608
-80324.929
-80224.926
-80703.462
-80833.106
-81473.727
-72387.347
-74035.062
-74302.928
-75110.562
-75423.642
-76370.778
-76491.106
-66447.688
-68383.874
-69054.085
-69823.989
-70914.066
-71711.373
-72395.591
-60402.795
-63047.614
-63470.79
-64982.139
-65740.615
-67321.303
-68153.766
-55198.07
-57635.469
-58717.097
-59492.126
-61315.644
-62741.956
-63859.023
-49870.755
-52078.797
-52880.166
-54628.523
-56061.967
-58011.422
-59221.803
-44132.776
-46672.02
-48070.478
-49766.886
-51303.435
-53224.492
-54879.671
-39161.885
-42102.812
-43017.379
-44666.086
-46578.27
-48647.341
-50538.068
-34500.574
-36673.027
-38330.951
-39867.293
-42018.96
-43927.59
-46169.874
-29571.374
-32045.233
-33541.53
-35205.337
-37276.439
-39493.123
-41680.133
-25435.54
-27611.583
-29389.381
-30877.218
-33187.785
-35195.079
-37488.531
-21265.125
-23428.076
-24990.488
-26639.215
-28657.418
-30745.722
-33118.227
-17530.011
-19402.19
-21197.251
-22594.706
-24821.158
-27022.643
-29385.266
-14235.958
-16187.251
-17661.77
-19123.26
-21211.949
-23125.508
-25214.025
-11186.732
-12594.506
-14212.606
-15562.176
-17553.727
-19347.784
-21453.927
-8294.7325
-10043.251
-11319.058
-12583.196
-14379.505
-16138.214
-18761.149
-6432.7464
-7896.015
-9055.7381
-10257.115
-11789.168
-13400.418
-14873.764
-4532.6692
-5328.947
-6524.4729
-7512.7307
-8954.082
-10328.269
-12246.017
-2917.8973
-3796.4746
-4813.303
-5601.165
-6878.0596
-8112.2881
-9698.3691
-1759.1773
-2459.5091
-3209.0391
-3907.64
-4996.263
-6005.571
-7353.7653
-815.6215
-1347.0385
-1855.1299
-2489.0073
-3318.8266
-4124.7301
-5328.5806
-273.06578
-612.74743
-1026.1501
-1478.4669
-2080.6373
-2749.9812
-3710.0772
249.27508
-47.191753
-209.38584
-584.44613
-1036.0769
-1557.7577
-2280.1212
301.64446
148.01323
91.426196
-201.19986
-416.7105
-715.5755
-1257.42
321.28686
295.89612
287.02985
144.68102
112.08252
-181.4286
-409.88757
278.93399
136.86913
239.74779
235.71598
263.94225
207.59354
63.053338
-207259.49
-203279.8
-217361.87
-204805.5
-202970.45
-176204.97
-171423.8
-151589.73
-178850.92
-182582.89
-182374.91
-176149.8
-156249.01
-141652.2
-151560.41
-137362.65
-151057.47
-140646.72
-141061.69
-123030.86
-115206.09
-128073.87
-132994.14
-136238.12
-130063.8
-128166.54
-116120.42
-102684.53
-131047.07
-129015.76
-131820.83
-122833.05
-124464.75
-114604.06
-105190.71
-121658.47
-120420.2
-120663.15
-113493.91
-111056.6
-108029.09
-99567.755
-118841.34
-121008.36
-121791.43
-113281.07
-113456.94
-108676.24
-98679.054
-115173.81
-110546.73
-108964.37
-102911.47
-104137.59
-96254.493
-93403.575
-109676.54
-106757.28
-111351.41
-104287.06
-100739.3
-98643.908
-92395.692
-102932.63
-103664.6
-102920.3
-92642.064
-94634.725
-90048.936
-88258.924
-100679.04
-99401.755
-96864.894
-92876.38
-93190.18
-89890.577
-83642.792
-95610.674
-92166.043
-94687.461
-87161.572
-89034.955
-81976.509
-83663.75
-89398.725
-90496.831
-91050.581
-83503.877
-85202.061
-81194.669
-78441.248
-85531.879
-85359.559
-85147.408
-78516.444
-80815.927
-76649.951
-73391.066
-80629.466
-83375.405
-80816.81
-77576.311
-78161.356
-75118.877
-71399.254
-76896.733
-77556.595
-76279.407
-73633.129
-72878.029
-71268.318
-67120.592
-72169.436
-75259.975
-73151.777
-70986.462
-70498.176
-70229.331
-66915.937
-68471.693
-70619.886
-68643.91
-67421.127
-66877.19
-66357.945
-62759.184
-64518.123
-67182.359
-65485.322
-65071.007
-64446.974
-64462.063
-61634.077
-60223.393
-62644.871
-61645.572
-61260.912
-60649.1
-60794.394
-58533.841
-56410.9
-59474.861
-58298.677
-58479.827
-58214.471
-58890.594
-57185.155
-52954.33
-55057.99
-54259.358
-54758.962
-54811.145
-55468.923
-54093
-49085.835
-51157.03
-50859.413
-51887.728
-52160.28
-52703.563
-52241.357
-45327.26
-47058.617
-47574.282
-48435.796
-48879.447
-49491.578
-49769.266
-41334.558
-43545.488
-43953.485
-45159.145
-46334.28
-46559.559
-47716.202
-37659.546
-39692.429
-40143.016
-42372.51
-42303.184
-43598.683
-44880.526
-33653.467
-36023.881
-36730.274
-38342.073
-39961.744
-40368.582
-42026.682
-29982.472
-32086.021
-33757.96
-34819.485
-36623.569
-37390.59
-39091.505
-26436.25
-28733.907
-30027.724
-31761.995
-33524.123
-34456.352
-36248.054
-22733.926
-25285.721
-26519.47
-28434.1
-30103.639
-31337.236
-33208.721
-19555.811
-22171.72
-23493.838
-25441.024
-27200.863
-28537.376
-30417.718
-16389.91
-19020.542
-20189.973
-22270.296
-23966.392
-25358.906
-27340.582
-13547.879
-16040.635
-17337.278
-19357.636
-21099.868
-22670.085
-24692.076
-10945.375
-13484.187
-14666.583
-16669.588
-18411.876
-19902.67
-21748.152
-8664.361
-10914.339
-12059.178
-14003.916
-15676.897
-17049.928
-19092.314
-6459.5365
-8620.6001
-9762.9979
-11635.385
-13150.214
-14675.467
-16725.772
-4881.0697
-6958.2964
-7998.4624
-9599.4434
-11088.138
-12414.766
-14102.854
-3396.9787
-5020.7939
-5779.4771
-7429.3534
-8746.3022
-10002.663
-11716.004
-2041.2636
-3464.775
-4265.8327
-5567.505
-6813.8284
-7987.0681
-9601.4782
-1082.4867
-2521.0903
-3212.577
-4281.065
-5484.4312
-6364.3829
-7803.6843
-407.16936
-1399.7803
-1887.9962
-2774.6723
-3819.0777
-4516.3702
-5857.6652
2.5528815
-796.23289
-1234.1446
-1905.3165
-2776.2367
-3292.7408
-4473.2365
429.88058
-133.9195
-409.28144
-891.69859
-1650.8553
-2038.4693
-3066.3625
401.37399
17.130406
-142.83712
-427.31538
-1024.4428
-1196.1709
-1984.521
575.77746
303.4438
332.92257
84.943176
-332.62752
-407.73937
-1088.2867
420.86598
335.94663
323.31366
276.332
114.0401
86.533523
-365.10009
331.20714
49.479019
279.81389
277.78391
288.73964
317.13654
152.0034
-127630.94
-119380.98
-106923.18
-111386.22
-96046.828
-82128.431
-75968.034
-85663.266
-116598.25
-103308.94
-105649.43
-84459.264
-85008.419
-61797.289
-86789.63
-77595.249
-82150.197
-75541.876
-68616.402
-56699.653
-47028.6
-69173.278
-76637.687
-74451.81
-75140.303
-61715.667
-62006.47
-46664.317
-76226.617
-66765.641
-70943.045
-62262.111
-57238.583
-52167.254
-40311.703
-63397.334
-69208.088
-61004.273
-58415.293
-57660.724
-46583.166
-43802.557
-68552.42
-64855.659
-55655.75
-57944.359
-52595.819
-47433.53
-41856.662
-61765.666
-62226.754
-55061.026
-53463.854
-49617.853
-42010.229
-41119.53
-60818.392
-63926.578
-50650.889
-53017.301
-47374.443
-44469.049
-39907.33
-61138.526
-56612.265
-48119.95
-47209.421
-47255.627
-39650.284
-38929.607
-56407.177
-56728.184
-45322.37
-49280.483
-44235.115
-40669.847
-36540.81
-53321.805
-51466.362
-44180.264
-44140.339
-42911.251
-36024.353
-37023.397
-49408.184
-52795.274
-40327.849
-43610.201
-39510.034
-36595.342
-34574.858
-47946.068
-47100.999
-40067.714
-41558.972
-41288.766
-32994.331
-36260.19
-44693.45
-44569.275
-36874.802
-40174.121
-37106.079
-32227.675
-34580.023
-41609.336
-40683.326
-37509.961
-36425.46
-36883.674
-31409.441
-35036.143
-37800.953
-39662.769
-34221.981
-35717.253
-34526.111
-30740.901
-32428.275
-36312.682
-35533.705
-33243.279
-33332.004
-33705.119
-29573.938
-32302.539
-32249.504
-34164.28
-30769.47
-31990.691
-31254.634
-28542.278
-30544.695
-30519.843
-31289.13
-29383.212
-29833.117
-30327.844
-27722.589
-30714.723
-27262.678
-29284.798
-26879.727
-28265.87
-28253.896
-26918.697
-28877.912
-24953.881
-26455.546
-25355.862
-26475.803
-27347.625
-25649.014
-28445.816
-22098.276
-24392.095
-23212.704
-25195.826
-25140.753
-24883.82
-27264.314
-19886.669
-21807.27
-21656.852
-23041.428
-23724.749
-23928.198
-26343.393
-17438.523
-19783.031
-19450.171
-21278.148
-21774.827
-22977.312
-24858.83
-15407.109
-16987.951
-17828.147
-19390.594
-20483.485
-21560.663
-23762.72
-12948.606
-15530.499
-16007.365
-17905.679
-18466.506
-20342.3
-22457.671
-11228.946
-13502.391
-14201.979
-15948.522
-17423.589
-18824.612
-21663.101
-9077.1877
-11486.458
-12264.823
-14309.218
-15892.613
-17410.02
-20437.137
-7473.1838
-9775.6925
-11013.014
-12868.776
-14536.231
-16070.223
-19206.512
-5711.9177
-8191.0478
-9174.4002
-11333.02
-12832.463
-14723.113
-17684.207
-4340.2714
-6536.6569
-7870.1803
-9841.3782
-11580.187
-13433.877
-16402.089
-2955.2217
-5285.7318
-6503.4036
-8634.4855
-10221.718
-12147.259
-14922.583
-1914.5755
-3950.4188
-5335.0185
-7254.8318
-8898.5388
-10749.14
-13506.56
-805.9672
-2892.3849
-4177.2744
-6095.4748
-7629.8537
-9541.1047
-12114.869
-170.35296
-2031.5355
-3359.7708
-5054.1805
-6611.8153
-8365.3266
-10723.661
500.7396
-1202.9685
-2358.378
-3983.1708
-5426.8226
-7043.4696
-9219.0292
918.1263
-601.17371
-1715.1497
-3192.3027
-4468.7274
-5983.4071
-7894.9985
1116.8075
-133.3287
-1160.9545
-2510.7904
-3600.6676
-5027.2096
-6653.9278
1247.6763
154.73701
-723.2731
-1843.9583
-2848.7632
-3985.0097
-5397.9047
1216.0918
341.31341
-328.41993
-1266.7351
-2090.8817
-3055.496
-4223.4428
1205.7137
439.56604
-93.484928
-878.32962
-1583.9743
-2303.802
-3299.9496
983.60279
404.21798
81.172657
-532.07496
-1013.9513
-1574.0309
-2294.9865
798.03813
302.76944
120.41305
-337.44014
-714.3893
-1070.957
-1523.18
626.10647
242.66112
291.48128
-94.184029
-259.25889
-425.7312
-784.30952
284.89201
-8.9361216
45.722633
-186.21602
-139.38777
-304.35788
-383.27239
158.18046
33.207914
201.05281
168.95385
297.21851
213.54277
258.33747
-21359.11
1471.408
3282.1399
10106.227
19562.882
25745.446
20354.28
-12015.087
-12090.681
-8523.02
-6989.9901
4312.7663
6894.3368
17364.778
-23809.433
1321.1277
447.71349
12596.654
12097.825
20605.693
16986.866
-12333.562
-5892.8242
-10827.341
-3238.2832
1222.7947
1069.4725
17300.909
-14018.721
-9433.9393
-9380.3805
4962.7254
-1719.8755
17398.275
11293.615
-13316.567
-5189.6856
-4507.5076
-3549.9905
3115.6466
3181.908
11133.075
-14941.284
-9672.0657
-13436.872
592.36291
-2487.8958
5287.7624
9580.3865
-14831.91
-9516.2101
-4002.4676
-3413.2335
1325.464
2603.8822
9862.5662
-13573.437
-5862.5783
-10420.544
-2460.7982
-2109.7583
2815.1577
10338.039
-9240.4866
-8041.3769
-5520.8222
-114.67183
1380.2158
4884.4674
8499.8683
-9996.1016
-6611.0721
-6824.103
-1886.0749
-548.19289
2387.1712
7563.0615
-7057.8066
-6210.0833
-3085.3447
-207.68571
1992.1375
3035.1752
7882.103
-8037.1409
-5315.8204
-3745.9281
-2333.986
-481.49275
772.67402
8031.1168
-4722.2707
-3869.2997
-4469.9588
-1364.1555
2567.8378
2862.6395
8066.7825
-4584.3905
-5651.2741
-721.27413
-3145.8899
3156.5636
205.91426
5473.9213
-2644.7482
-3245.9187
-464.14005
-1981.5644
3240.2133
960.39002
5622.9418
-2197.3898
-3503.8667
-20.932099
-3545.0947
2737.7597
-552.76284
3742.1087
-1087.7316
-1574.1541
-132.48497
-2112.5293
2916.3003
210.75824
3957.0042
208.49467
-2765.7414
214.74154
-2972.2304