/*--------------------------------*- C++ -*----------------------------------*\
  =========                 |
  \\      /  F ield         | OpenFOAM: The Open Source CFD Toolbox
   \\    /   O peration     | Website:  https://openfoam.org
    \\  /    A nd           | Version:  6
     \\/     M anipulation  |
\*---------------------------------------------------------------------------*/
FoamFile
{
    version     2.0;
    format      ascii;
    class       pointScalarField;
    location    "1.7";
    object      p;
}
// * * * * * * * * * * * * * * * * * * * * * * * * * * * * * * * * * * * * * //

dimensions      [1 -1 -2 0 0 0 0];

internalField   nonuniform List<scalar> 
625
(
-625236.75
691941.23
2531.1482
558.16331
-822239.35
1758829.1
-459.44308
613.42992
-421482.04
-132057.69
6842.194
-1755.4154
-1697.089
-862.06895
-252048.13
-267354.45
-246332.96
-234660.6
-191551.7
-180321.25
-145955.34
-123809.55
-110360.52
-86949.127
-75480.044
-62750.185
-53763.856
-44357.595
-37397.519
-30525.302
-24509.09
-19294.031
-13745.453
-11349.579
-7664.4015
-3698.6801
-1104.3648
233727.63
139790.16
198323.39
148115.7
145527.04
141222
125245.49
116946.2
109402.05
97895.214
89796.579
77345.088
68979.819
57682.88
47203.268
36979.26
26983.212
18381.125
10740.658
4307.971
607.96454
-1277.1133
-2643.9183
-385918
171209.66
351030.29
292663.71
382628.61
263351.88
251901.04
267689.46
204356.81
196236.53
184238.56
151878.23
141508.38
111928.83
100106.84
75945.701
63249.455
48192.834
36054.223
26342.12
19018.147
12697.423
8593.062
6063.4942
3506.9821
1893.636
434.05986
-316.07621
-495.92996
-46.338176
-1201.2873
-3376.6626
-8802.5414
-15507.303
-22097.481
-31326.958
-39480.975
-49937.112
-58763.098
-69709.068
-79006.532
-88832.493
-92635.981
-117924.28
-117704.91
-134766.47
-135201.19
-169986.1
-147239.28
-178707.35
-205044.77
-164220.81
-627302.21
-527374.99
-440268.04
839346.17
904505.39
871588.23
2937.2831
1147.5119
1994.9339
1149.7192
2223.7062
2153.3016
-127234.32
-150369.77
-148808.08
-126090.04
-120339.06
-111484.94
-93350.684
-85689.982
-74707.202
-61799.747
-56545.813
-46818.157
-39477.7
-31342.889
-26163.12
-19525.439
-15079.668
-10353.437
-6973.0027
-3758.5949
-2426.6729
-312.97098
-74.978641
-7631.3482
-34799.327
-8907.5688
-22400.74
-8564.5387
-7309.295
-536.62251
308.70091
4639.2664
10270.911
11033.679
14528.479
15052.497
15192.046
13784.66
12958.061
10534.79
8762.6711
6073.4843
4901.4065
1648.6819
1282.8755
-1651.3692
121704.6
106543.65
102012.97
89610.153
105637.99
84106.122
86063.327
76141.224
71350.399
64320.897
55282.269
48713.559
41386.333
35083.215
29003.204
23967.166
18784.032
14446.063
10292.531
7489.2981
5892.3681
2061.6231
321.70902
-308290.65
-243448.68
-256219.65
-45755.756
-28839.83
24720.98
58865.203
133613.97
243468.29
332039.32
347559.27
369754.69
268429.28
277267.22
271864.69
230373.11
236347.07
256704.06
184805.41
198983.39
209028.88
189752.32
201824.4
226126.65
170395.47
177244.06
183921.72
160658.02
161191.9
179510.52
145425.31
146094.33
160670.02
130549.46
130016.9
142682.2
116288.33
115346.11
125440.09
100064.53
96787.65
106391.23
85588.99
83048.876
89986.385
70669.888
66714.199
71873.914
57289.936
53020.736
56337.367
44594.989
39760.105
43068.557
33727.822
29688.892
30996.962
24333.303
19567.947
20407.058
16406.571
12475.328
12875.578
9767.8577
6461.2026
6254.5848
5769.2707
2842.9074
2203.4578
1713.0858
-315.17208
-1030.1612
1059.3209
-1719.3487
-909.87551
-698.76749
-1369.4926
-2528.7621
-1037.2348
-593.15625
-256.78284
-244.06098
-85.63249
-970.51514
-4042.9378
-2266.9254
-2784.4821
-283871.36
-253738.23
-244015.7
-279925.04
-239310.97
-210454.24
-265524.36
-220796.92
-206768.55
-214854.57
-187444.27
-175919.22
-203783.75
-180713.3
-150363.27
-180140.74
-138215.14
-140168.14
-151700.81
-131195.35
-128304.65
-139430.44
-112670.35
-110591.22
-117167.01
-99380.948
-97024.831
-104501.18
-84317.048
-90708.055
-90647.7
-75322.032
-80524.498
-79732.579
-63183.306
-72727.517
-65767.258
-55923.709
-65048.447
-56341.367
-47809.6
-57098.163
-45738.206
-41160.392
-49496.468
-36646.132
-33797.715
-41470.347
-28212.613
-27762.975
-34073.823
-20328.167
-21286.647
-26627.31
-14125.981
-16117.786
-19692.191
-8821.8602
-11108.43
-13851.398
-4737.1388
-5758.8703
-8982.0848
-1129.6962
-3376.0951
-4589.7718
1301.141
589.59742
-747.33975
-83681.446
-105730.84
-89019.127
-99174.599
-102879.3
-88877.499
-82344.342
-75038.085
-67170.389
-57253.901
-52088.158
-42023.905
-33913.082
-27334.23
-20774.822
-15568.452
-10812.928
-7026.0133
-4439.2501
-1843.8007
-1206.7774
164.17187
1579.3679
85935.147
33334.912
32768.432
16484.342
3145.9696
22943.974
6169.9008
12402.51
7024.9323
9359.091
1340.2475
2562.1189
-1701.7872
-1968.6013
-4587.3115
-3930.8605
-4414.7035
-3663.479
-2659.4278
-1659.3791
-673.72284
310.88628
209.09488
182793.71
175803.87
189718.75
153119.28
147164.18
133046.44
103460.68
95472.206
79012.698
68065.877
57215.268
48826.519
42468.95
34027.114
28479.932
22398.846
16833.448
11511.072
7945.2964
3768.2547
1752.6413
-112.56852
-1027.7631
-210971.91
-172589.62
-119913.12
-173642.81
-142815.05
-114462.09
-133147.12
-117289.33
-124529.64
-123991.23
-129161.18
-83439.542
-134770.87
-96767.271
-95118.647
-97381.591
-101741.17
-94670.417
-101453.76
-101616.27
-83740.803
-91295.655
-79905.172
-75165.647
-74218.19
-72657.732
-74335.017
-63593.786
-67655.556
-62483.346
-52348.858
-55027.45
-52198.304
-38221.238
-45211.705
-45046.412
-29322.195
-37130.998
-36343.749
-20902.854
-28548.586
-28531.86
-13174.928
-20691.945
-20839.46
-7451.0358
-14720.429
-14970.034
-2998.2953
-9336.2174
-9297.1542
-271.51241
-5218.1458
-5058.5598
1826.329
-2134.2716
-1525.8304
2066.4492
322.93064
260.31297
4534.8914
41.307148
3550.5551
2514.3787
2354.6911
2477.8129
1993.4536
767.03087
2533.8748
-19480.875
44319.508
38450.44
-22922.545
-23758.434
-4660.584
-36702.572
-17753.546
9274.6837
-26823.255
-8078.3292
11536.82
-14017.474
-11809.862
-2273.7444
-11426.891
-15792.724
4936.656
-13095.476
-7421.7595
11318.956
-3186.1865
-293.81298
6221.4601
1546.0331
-5238.0119
8163.4317
-1908.4458
307.44172
8997.1084
3202.6301
1482.1387
10314.822
2992.5708
1798.1845
8183.2627
4664.9356
620.52429
10130.458
4346.7021
3149.1554
9773.9596
6777.1715
1943.7671
9460.3181
6411.6636
2964.4034
8943.0043
7418.864
2547.6648
8607.9759
7088.378
3516.3592
7990.1927
7430.4212
3305.6433
6266.6184
5138.3982
3581.8623
6519.0605
6578.7303
3415.0792
2998.1364
3785.0875
1757.3776
3015.3319
1006.6986
-69.436659
592.31763
176825.84
219228.85
276066.31
98757.725
108340.18
175069.24
101130.72
166398.46
177782.6
126147.12
115462.42
145007.09
88593.188
109979.4
131306.13
88179.946
100013.49
126620.19
77922.694
89211.667
104992.99
70908.536
78404.039
92685.934
59699.12
67849.662
78961.989
55241.325
62434.225
69583.405
48845.115
55650.393
58781.665
44433.237
49671.05
50842.207
38152.135
45878.07
44477.403
34699.813
41120.479
37711.807
30164.167
35869.414
31458.961
26414.502
30120.947
26755.436
22070.024
24711.244
21738.766
18687.696
18545.665
17257.258
14332.271
13534.017
12721.508
11807.419
6806.8132
9530.5375
4985.3145
5785.6415
5790.3918
3783.3658
855.314
3304.4459
1118.5669
-196.74286
1211.7285
)
;

boundaryField
{
    free
    {
        type            calculated;
    }
    fixed
    {
        type            calculated;
    }
    freeTop
    {
        type            calculated;
    }
}


// ************************************************************************* //
