/*--------------------------------*- C++ -*----------------------------------*\
  =========                 |
  \\      /  F ield         | OpenFOAM: The Open Source CFD Toolbox
   \\    /   O peration     | Website:  https://openfoam.org
    \\  /    A nd           | Version:  6
     \\/     M anipulation  |
\*---------------------------------------------------------------------------*/
FoamFile
{
    version     2.0;
    format      ascii;
    class       pointVectorField;
    location    "1.7";
    object      u;
}
// * * * * * * * * * * * * * * * * * * * * * * * * * * * * * * * * * * * * * //

dimensions      [0 1 0 0 0 0 0];

internalField   nonuniform List<vector> 
625
(
(0 3.3636083e-19 0)
(0 2.938214e-19 0)
(-1.0778611 -0.24594372 -0.13669995)
(-1.1069169 -0.0081629992 -0.1611785)
(0 4.3832531e-19 0)
(0 2.2976923e-18 0)
(-1.089586 0.024258502 -0.16193448)
(-1.0606057 -0.2134227 -0.13745039)
(0 -5.1386922e-20 0)
(2.2244749e-19 -5.1670614e-19 0)
(0 1.0483192e-18 0)
(-1.0850721 -0.18642623 -0.14284295)
(-1.0922359 -0.12716628 -0.14901022)
(-1.0997517 -0.067716981 -0.15515495)
(-0.0040877014 -0.014625252 -0.012601599)
(-0.013927402 -0.027825659 -0.012857723)
(-0.029361544 -0.042921602 -0.015038977)
(-0.051725748 -0.056332576 -0.017436662)
(-0.077750227 -0.069304388 -0.020679833)
(-0.11018158 -0.0821244 -0.024644373)
(-0.14558703 -0.09428193 -0.0293839)
(-0.18574201 -0.10555657 -0.034524294)
(-0.22915619 -0.11727438 -0.040194338)
(-0.27560868 -0.12748236 -0.046170457)
(-0.32482045 -0.13818137 -0.052327128)
(-0.37643367 -0.14796882 -0.058761421)
(-0.4301137 -0.15767281 -0.065193139)
(-0.48543385 -0.16687358 -0.071718913)
(-0.54225932 -0.17583888 -0.07820098)
(-0.60012518 -0.18445432 -0.084681203)
(-0.65893563 -0.19280622 -0.091105368)
(-0.71828923 -0.20089046 -0.097530332)
(-0.77811878 -0.20875955 -0.10389331)
(-0.8381106 -0.21642246 -0.11034685)
(-0.89818996 -0.22395837 -0.11679578)
(-0.95825975 -0.23132801 -0.12333413)
(-1.0182226 -0.23859047 -0.12992063)
(0.0010888528 0.0084109806 0.012843742)
(-0.012431576 0.019346529 0.0063776239)
(-0.029836915 0.028910902 0.0045338232)
(-0.053654569 0.038135675 -0.0024455582)
(-0.082319196 0.044481262 -0.0081983363)
(-0.11727888 0.051567399 -0.015886364)
(-0.15523614 0.055306859 -0.023331974)
(-0.19814607 0.058996949 -0.031951749)
(-0.24411864 0.060878281 -0.040312069)
(-0.2929759 0.061430127 -0.049305385)
(-0.34476379 0.061087456 -0.058262315)
(-0.39838227 0.059594833 -0.067274303)
(-0.45401827 0.057055886 -0.076261508)
(-0.51093664 0.053796706 -0.085050036)
(-0.56911303 0.04963182 -0.09373855)
(-0.62800473 0.04486396 -0.10210877)
(-0.6875999 0.039459414 -0.11032969)
(-0.74746819 0.033561166 -0.11819291)
(-0.80759964 0.027207398 -0.12589868)
(-0.86763968 0.020538906 -0.13327147)
(-0.92777418 0.013587592 -0.14053216)
(-0.98759543 0.0064338345 -0.14749003)
(-1.0474725 -0.00083455956 -0.15452643)
(0 3.0889156e-19 0)
(-3.9824527e-18 -8.5688972e-19 0)
(0 2.1482781e-18 0)
(-0.0044750888 0.00775954 -0.010523564)
(-0.015414551 0.03293523 -0.015426818)
(-0.031759614 0.039066553 -0.016481276)
(-0.053572024 0.054697943 -0.021228226)
(-0.08266658 0.064958326 -0.026881362)
(-0.11534643 0.073839409 -0.031630258)
(-0.15255544 0.08053446 -0.038842595)
(-0.19443993 0.086588541 -0.045466084)
(-0.23890465 0.08948899 -0.052573166)
(-0.28699655 0.092250067 -0.060313786)
(-0.33683527 0.092235922 -0.067770323)
(-0.3895449 0.091973485 -0.075688164)
(-0.44347816 0.089674741 -0.083302252)
(-0.49930108 0.086846761 -0.091063626)
(-0.5561433 0.082759953 -0.098590291)
(-0.61402008 0.078025888 -0.10607635)
(-0.67261418 0.072508019 -0.11335099)
(-0.73172101 0.066487823 -0.12055242)
(-0.79118931 0.059996039 -0.12758958)
(-0.85084028 0.053148203 -0.1345342)
(-0.91057041 0.0461057 -0.14144324)
(-0.97030558 0.03885013 -0.14823569)
(-1.0300391 0.031605393 -0.15506673)
(-1.0824367 -0.035184663 -0.15574121)
(-1.0749826 -0.09472924 -0.14963825)
(-1.0678296 -0.15400715 -0.14354598)
(-1.0010426 -0.20613097 -0.13059116)
(-0.94129995 -0.19885797 -0.1237464)
(-0.88169995 -0.19137107 -0.11695813)
(-0.82209448 -0.18378229 -0.11011628)
(-0.76272136 -0.17594302 -0.10321217)
(-0.70363738 -0.16791944 -0.096261298)
(-0.64504848 -0.15964257 -0.089190488)
(-0.58712203 -0.15111847 -0.082041902)
(-0.53009802 -0.14240143 -0.074762189)
(-0.47417596 -0.13343016 -0.067414621)
(-0.41964678 -0.12434417 -0.059931474)
(-0.36680838 -0.11501337 -0.052478767)
(-0.31583852 -0.10574164 -0.044865947)
(-0.26724177 -0.09612975 -0.037500273)
(-0.22139248 -0.086574797 -0.030072173)
(-0.17834185 -0.076830564 -0.022949739)
(-0.13871037 -0.067726034 -0.01581666)
(-0.10327179 -0.057392861 -0.009832295)
(-0.071614945 -0.048382126 -0.003125241)
(-0.045190935 -0.037731412 0.0012944348)
(-0.023352662 -0.029368691 0.0063413453)
(-0.0078233444 -0.017033247 0.0097395321)
(-0.0027248134 -0.0099970402 0.0084674144)
(0 -5.494259e-19 0)
(0 -5.7138532e-19 -1.1785393e-18)
(0 -1.6841968e-18 0)
(0 9.5647392e-19 0)
(0 -1.05832e-19 3.3744892e-19)
(0 7.2850594e-19 0)
(-1.1025412 -0.00012835224 -0.16142081)
(-1.098273 0.0080600145 -0.16155058)
(-1.0939418 0.016121164 -0.16174592)
(-1.0735566 -0.23783565 -0.13693164)
(-1.0692396 -0.22966998 -0.13710544)
(-1.0649019 -0.22152794 -0.13726529)
(0.00031914847 -0.024340371 -0.0078805055)
(-0.010249028 -0.047056846 -0.0069422261)
(-0.024880664 -0.068729743 -0.010258393)
(-0.046626275 -0.086422492 -0.012751071)
(-0.07185255 -0.1010385 -0.017029787)
(-0.10388121 -0.11138493 -0.021686389)
(-0.13909913 -0.11692948 -0.027224433)
(-0.18020492 -0.1186964 -0.033179285)
(-0.22461991 -0.11655144 -0.039788688)
(-0.27348072 -0.11107216 -0.046707063)
(-0.32547597 -0.10378601 -0.053887828)
(-0.38041018 -0.094949555 -0.06124858)
(-0.43749443 -0.086287296 -0.068644364)
(-0.49628037 -0.078601399 -0.07597581)
(-0.55611263 -0.073090679 -0.08326112)
(-0.61647448 -0.070605442 -0.090352603)
(-0.6769503 -0.071828487 -0.097329364)
(-0.73709133 -0.077271527 -0.10409909)
(-0.79678596 -0.087004655 -0.11076876)
(-0.85569781 -0.10095465 -0.11725801)
(-0.91397727 -0.11866613 -0.12366961)
(-0.97156285 -0.13942975 -0.13007676)
(-1.0285567 -0.16241742 -0.13642876)
(0.0046397194 -0.003115653 -0.0018821719)
(-0.0075754387 -0.0047511331 -0.0036414975)
(-0.023377158 -0.0080685744 -0.0063112112)
(-0.046534986 -0.010275177 -0.010765534)
(-0.075020607 -0.013337367 -0.015361929)
(-0.10839054 -0.016109554 -0.021008617)
(-0.14607426 -0.020039089 -0.026922052)
(-0.18819992 -0.023689683 -0.033752405)
(-0.23325089 -0.028290493 -0.040639598)
(-0.28182374 -0.032892892 -0.047941333)
(-0.33258846 -0.038299808 -0.0553635)
(-0.38577559 -0.043769771 -0.062962379)
(-0.44075255 -0.049823354 -0.070524716)
(-0.49723254 -0.056062024 -0.078096768)
(-0.55494155 -0.062634494 -0.085612299)
(-0.61354331 -0.069388934 -0.092977428)
(-0.67285522 -0.076339131 -0.10029367)
(-0.73258772 -0.083454997 -0.10742177)
(-0.79261596 -0.090578311 -0.11452133)
(-0.85271453 -0.097935815 -0.12143137)
(-0.91286182 -0.1051462 -0.12844551)
(-0.97281018 -0.11253591 -0.13523811)
(-1.0326429 -0.11988847 -0.14215346)
(0.0057754676 0.019805273 0.0041779893)
(-0.0085226429 0.039354206 0.0015090944)
(-0.025024997 0.056365528 -0.0021201897)
(-0.051419738 0.070074133 -0.0076307469)
(-0.081366619 0.079410622 -0.013464088)
(-0.11683226 0.082268954 -0.020104434)
(-0.15612592 0.080839518 -0.027400661)
(-0.1985879 0.073505445 -0.034775801)
(-0.2435068 0.061642858 -0.042302636)
(-0.29104261 0.045924769 -0.050041079)
(-0.34009779 0.027084309 -0.057681632)
(-0.39124461 0.0066764517 -0.06538897)
(-0.44367595 -0.014422487 -0.072988851)
(-0.49779718 -0.034830434 -0.080596528)
(-0.55325365 -0.05345969 -0.088135363)
(-0.61017765 -0.069405818 -0.095645686)
(-0.66839733 -0.081853281 -0.10313838)
(-0.72783454 -0.090370819 -0.1105914)
(-0.78836486 -0.094737248 -0.11804474)
(-0.84973551 -0.095088707 -0.12547269)
(-0.91176577 -0.09175208 -0.13288733)
(-0.97424652 -0.085544189 -0.14029248)
(-1.0369628 -0.077077862 -0.14772345)
(0 -3.4502001e-19 0)
(0 5.7527473e-19 1.2066628e-18)
(0 1.2502537e-18 0)
(-5.9138154e-19 1.1808179e-20 0)
(2.4700656e-19 -3.6598822e-19 -1.822875e-20)
(-1.5566347e-18 -1.3999388e-18 0)
(0 5.2735301e-19 0)
(0 1.4172744e-18 -3.7693261e-20)
(0 1.5573411e-18 0)
(-0.0041601382 0.0039006059 0.005795022)
(-0.0064290063 0.0058648212 0.001193485)
(-0.0063903297 0.0043428809 -0.0031650765)
(-0.018807378 0.025060124 0.0019454731)
(-0.019186128 0.027093864 -0.0030660656)
(-0.018999864 0.027185244 -0.0088218659)
(-0.033783582 0.031074644 -0.00064831114)
(-0.035548611 0.032332141 -0.0053309962)
(-0.035610087 0.037267008 -0.011817537)
(-0.057521146 0.042403198 -0.0070364128)
(-0.058535863 0.047162545 -0.011445858)
(-0.057151882 0.049102939 -0.016357682)
(-0.086357114 0.050193747 -0.012614992)
(-0.086788032 0.053801073 -0.016410403)
(-0.086303555 0.059239278 -0.021983527)
(-0.11976518 0.056940535 -0.01960589)
(-0.12029463 0.062577309 -0.023810428)
(-0.11883436 0.067463021 -0.027851593)
(-0.15786877 0.062068897 -0.027306421)
(-0.15771577 0.067959252 -0.030308214)
(-0.15642665 0.0736584 -0.034975593)
(-0.20015078 0.066240952 -0.035219437)
(-0.19934421 0.072263563 -0.038233)
(-0.19809156 0.078712028 -0.042029959)
(-0.24517033 0.06798381 -0.043554977)
(-0.24445929 0.074986182 -0.046234297)
(-0.24243803 0.08170291 -0.049674525)
(-0.29398943 0.069531551 -0.052117304)
(-0.29248311 0.076700665 -0.054470625)
(-0.29060554 0.083697638 -0.057560998)
(-0.34460147 0.069119274 -0.060775163)
(-0.34299074 0.076410775 -0.062911451)
(-0.34058085 0.083878603 -0.065573387)
(-0.39796421 0.06796722 -0.069588206)
(-0.39578933 0.075656674 -0.071331711)
(-0.39320171 0.083159055 -0.073661603)
(-0.45269277 0.065563788 -0.078191179)
(-0.45026061 0.073230501 -0.079673972)
(-0.44738954 0.081085152 -0.081728424)
(-0.50920664 0.062412107 -0.086761179)
(-0.50636204 0.070262192 -0.088029932)
(-0.50315905 0.078095632 -0.089709268)
(-0.56666449 0.058270006 -0.095129369)
(-0.56352218 0.066115863 -0.096086966)
(-0.56016923 0.074184748 -0.097522869)
(-0.6251449 0.053505909 -0.10324239)
(-0.62176133 0.061478591 -0.10405577)
(-0.61810145 0.069484924 -0.10522649)
(-0.68423754 0.048067512 -0.11119499)
(-0.68057895 0.055989651 -0.11178113)
(-0.67676742 0.064098853 -0.11270685)
(-0.74375939 0.042057878 -0.11883486)
(-0.73993832 0.050082628 -0.11929846)
(-0.73594197 0.058162385 -0.12005104)
(-0.80355513 0.035669765 -0.12633517)
(-0.79956584 0.043670445 -0.12666551)
(-0.7954551 0.051770815 -0.12722165)
(-0.86344672 0.028850853 -0.13356227)
(-0.85938675 0.036921644 -0.13380286)
(-0.85514667 0.045004538 -0.13425423)
(-0.92340035 0.021858739 -0.14067115)
(-0.91916894 0.029896936 -0.14089576)
(-0.91488204 0.037985857 -0.14122934)
(-0.98319595 0.014586043 -0.14764175)
(-0.97896101 0.022703351 -0.14783236)
(-0.97463517 0.030794199 -0.14804674)
(-1.0429784 0.0073150657 -0.15458228)
(-1.0387346 0.015466987 -0.15470579)
(-1.0343595 0.02354274 -0.15492076)
(-1.0807816 -0.17833937 -0.14303516)
(-1.076465 -0.17022639 -0.14321275)
(-1.0721277 -0.16210191 -0.14337683)
(-1.0878809 -0.11905998 -0.14916025)
(-1.0836111 -0.11091435 -0.14931498)
(-1.0792803 -0.1028129 -0.14951611)
(-1.0954951 -0.059475752 -0.15532337)
(-1.091136 -0.051365165 -0.15538637)
(-1.086811 -0.043253535 -0.15559525)
(-0.0098068109 -0.011535552 -0.0050087824)
(-0.0083270814 -0.011770441 -0.00077584526)
(-0.0086870567 -0.0092674854 0.0042768795)
(-0.017472459 -0.02524437 -0.0055518619)
(-0.017108058 -0.022648517 8.6257367e-05)
(-0.014306537 -0.020006858 0.0056158263)
(-0.033431254 -0.040615163 -0.0082108865)
(-0.03194886 -0.036916971 -0.0039710135)
(-0.030247148 -0.034024521 0.0026763807)
(-0.053874365 -0.0514602 -0.011329343)
(-0.053646577 -0.047077765 -0.0069577488)
(-0.05087164 -0.042928036 -0.001795508)
(-0.080270766 -0.065457932 -0.015578552)
(-0.079377522 -0.060232877 -0.011192868)
(-0.076762033 -0.054929251 -0.0064955729)
(-0.11150731 -0.076488589 -0.020105261)
(-0.11046586 -0.069780423 -0.016917418)
(-0.10825507 -0.06454395 -0.012478441)
(-0.14667273 -0.088223102 -0.025499381)
(-0.14567815 -0.082211669 -0.022232425)
(-0.14337054 -0.075212956 -0.018385793)
(-0.18646017 -0.099540505 -0.03133308)
(-0.18521363 -0.091891774 -0.028499795)
(-0.18279479 -0.084966759 -0.025070573)
(-0.22906082 -0.11016918 -0.037554836)
(-0.22787321 -0.10261291 -0.034696065)
(-0.2252974 -0.095070011 -0.032137629)
(-0.27542671 -0.12059682 -0.043874284)
(-0.27374567 -0.11250371 -0.04207077)
(-0.27143328 -0.10467245 -0.039174395)
(-0.32421865 -0.13073553 -0.050490458)
(-0.32239775 -0.12265396 -0.048470154)
(-0.31977945 -0.11441246 -0.046369461)
(-0.3755549 -0.14056062 -0.057167251)
(-0.37334468 -0.13208848 -0.055637693)
(-0.37076585 -0.12381519 -0.053764394)
(-0.42876416 -0.15000446 -0.063935359)
(-0.42639737 -0.14160197 -0.062546464)
(-0.42358778 -0.1331038 -0.061036585)
(-0.48382465 -0.15923874 -0.070625432)
(-0.48108282 -0.15068778 -0.069572416)
(-0.47817587 -0.14215069 -0.068313716)
(-0.54020399 -0.16810679 -0.077365527)
(-0.53726884 -0.15958412 -0.076483224)
(-0.53412689 -0.15102623 -0.075504399)
(-0.59777714 -0.17671805 -0.083976161)
(-0.59451953 -0.16819936 -0.083351677)
(-0.5912273 -0.1596424 -0.08258804)
(-0.65618112 -0.18504097 -0.090607379)
(-0.65272049 -0.176559 -0.090130262)
(-0.64920612 -0.16806074 -0.08960396)
(-0.71523111 -0.19310427 -0.097136951)
(-0.71153561 -0.18468918 -0.096865634)
(-0.70785732 -0.17622293 -0.09650689)
(-0.77474149 -0.20092986 -0.10367959)
(-0.77085986 -0.19255665 -0.10352725)
(-0.7669827 -0.18417263 -0.10334379)
(-0.83445149 -0.20854398 -0.11021986)
(-0.830388 -0.20025976 -0.11019083)
(-0.82640595 -0.19192589 -0.11013659)
(-0.89429842 -0.21602291 -0.11676221)
(-0.89017562 -0.20775575 -0.11682686)
(-0.88602901 -0.19948273 -0.11689473)
(-0.95418973 -0.22334041 -0.12339572)
(-0.94991358 -0.21511795 -0.12353577)
(-0.94567016 -0.20693035 -0.12363359)
(-1.0139311 -0.23053713 -0.13007284)
(-1.0096416 -0.22236873 -0.13024964)
(-1.0053587 -0.21422382 -0.13043378)
(0.0017196735 -0.01917033 0.0039092327)
(-0.0062090661 -0.042155111 0.0030371341)
(-0.019775698 -0.054690718 -0.00048488203)
(-0.042023294 -0.070562254 -0.0037960861)
(-0.066677868 -0.081387559 -0.0080735101)
(-0.098328061 -0.087743973 -0.014048709)
(-0.13360725 -0.09172655 -0.020017076)
(-0.17382392 -0.090634383 -0.027132113)
(-0.21785983 -0.087122896 -0.034306492)
(-0.2659452 -0.080229642 -0.04227364)
(-0.31697113 -0.071991683 -0.050117712)
(-0.3709699 -0.062516982 -0.058343061)
(-0.42700163 -0.053503029 -0.066415971)
(-0.48470929 -0.045649524 -0.074441466)
(-0.54350381 -0.040115008 -0.082272655)
(-0.60287167 -0.037711383 -0.089867603)
(-0.6624293 -0.039066815 -0.097240603)
(-0.72181868 -0.044637193 -0.10434041)
(-0.78079618 -0.054497114 -0.11122148)
(-0.8392294 -0.068543341 -0.11792117)
(-0.89709846 -0.086290855 -0.12442309)
(-0.95437117 -0.10705328 -0.13087199)
(-1.0113288 -0.13001787 -0.13723049)
(0.0043498146 -0.0010169801 -0.0013541648)
(-0.0054178732 0.0032266859 -0.0028946109)
(-0.022462939 0.0055142604 -0.0068546021)
(-0.044559243 0.0065191005 -0.010433678)
(-0.07150232 0.0064451864 -0.015194524)
(-0.10508798 0.0077188063 -0.021884731)
(-0.14127647 0.0050077751 -0.027501318)
(-0.18273584 0.0042582731 -0.034719299)
(-0.22687232 0.00070240649 -0.041615901)
(-0.27440022 -0.0021567011 -0.049230768)
(-0.32412069 -0.006901651 -0.056476697)
(-0.37643184 -0.011411669 -0.064251568)
(-0.4301862 -0.017154535 -0.071685526)
(-0.48569974 -0.022990776 -0.079340666)
(-0.542289 -0.029569845 -0.086723154)
(-0.5999252 -0.036276462 -0.094153362)
(-0.65829988 -0.043383561 -0.1013763)
(-0.71724326 -0.050592122 -0.10851326)
(-0.77657265 -0.057934895 -0.11555504)
(-0.8361546 -0.065343802 -0.122458)
(-0.89590394 -0.072705211 -0.12930176)
(-0.95559787 -0.080118046 -0.13611883)
(-1.0153842 -0.087440052 -0.14281778)
(0.0049739964 0.02394621 -0.0074477264)
(-0.010171692 0.047037904 -0.0095617519)
(-0.026587634 0.073158861 -0.014770841)
(-0.050368712 0.086669318 -0.017160586)
(-0.079904067 0.10143182 -0.023680823)
(-0.1152862 0.10704218 -0.028955375)
(-0.15226377 0.10744493 -0.035050992)
(-0.19474528 0.10255038 -0.041956474)
(-0.23796698 0.091995858 -0.048652249)
(-0.28464108 0.077425472 -0.055669225)
(-0.33236945 0.059544506 -0.062742959)
(-0.38225892 0.039610067 -0.069883031)
(-0.43350748 0.018964712 -0.07702842)
(-0.48639229 -0.0013373409 -0.084151976)
(-0.5407793 -0.019906127 -0.09127052)
(-0.59664708 -0.035902623 -0.09837802)
(-0.65397162 -0.048498754 -0.10545998)
(-0.71258769 -0.057175289 -0.11254497)
(-0.77246087 -0.061739628 -0.11966028)
(-0.83330036 -0.06224118 -0.12674389)
(-0.89497169 -0.059072256 -0.13395877)
(-0.95718161 -0.052953534 -0.14114298)
(-1.0197563 -0.044569751 -0.14842067)
(-0.0024950755 -0.019611123 -0.002973917)
(-0.0022699196 -0.019915816 -0.00087318473)
(-0.0028458876 -0.018705244 0.002016436)
(-0.013415181 -0.046221831 -0.0036119697)
(-0.014510592 -0.044085731 -0.00096983633)
(-0.01151234 -0.042990678 0.0021779189)
(-0.028416131 -0.065075764 -0.0066966209)
(-0.026706126 -0.062088213 -0.004197724)
(-0.025702003 -0.059750752 -0.0017470556)
(-0.048758133 -0.083342208 -0.0097650353)
(-0.049461836 -0.079458706 -0.0070748374)
(-0.047136799 -0.075384052 -0.005096496)
(-0.074544997 -0.096677604 -0.013800244)
(-0.073827927 -0.091685304 -0.012023309)
(-0.071924004 -0.08727028 -0.0093549722)
(-0.10550122 -0.10616643 -0.019159823)
(-0.10526195 -0.10059888 -0.016921401)
(-0.10288196 -0.095394943 -0.015054939)
(-0.14071175 -0.11118959 -0.024784699)
(-0.13991324 -0.10533031 -0.022840944)
(-0.13798252 -0.098838986 -0.021085714)
(-0.18110135 -0.11263205 -0.031071252)
(-0.18044018 -0.10537008 -0.02941878)
(-0.1781052 -0.098931956 -0.028024029)
(-0.22543632 -0.10951287 -0.037929625)
(-0.2241078 -0.10262646 -0.036551273)
(-0.221849 -0.095300577 -0.035133332)
(-0.27370521 -0.10417956 -0.045200312)
(-0.2721531 -0.096590029 -0.043855877)
(-0.26997664 -0.088894384 -0.042882927)
(-0.32521055 -0.096349266 -0.052562607)
(-0.32339027 -0.08845624 -0.051475948)
(-0.32090313 -0.080508634 -0.050748835)
(-0.37966102 -0.087424134 -0.060191356)
(-0.37747693 -0.079387711 -0.059396744)
(-0.37492916 -0.071317667 -0.058764152)
(-0.43626219 -0.078634648 -0.067776438)
(-0.43377798 -0.070451482 -0.067104757)
(-0.43099575 -0.062137605 -0.066758037)
(-0.49460039 -0.07088389 -0.075324481)
(-0.49174731 -0.062605041 -0.074942871)
(-0.48879797 -0.054278929 -0.074680628)
(-0.55394407 -0.065322288 -0.082766)
(-0.55084958 -0.056987434 -0.082513935)
(-0.54763604 -0.048631019 -0.082405734)
(-0.61392773 -0.062798241 -0.090027057)
(-0.61050434 -0.054485759 -0.08996238)
(-0.6070955 -0.046135984 -0.089924801)
(-0.67395356 -0.064033107 -0.097125653)
(-0.67034541 -0.055689283 -0.097172036)
(-0.66669837 -0.047404745 -0.097225027)
(-0.73380858 -0.069412707 -0.10401668)
(-0.72997316 -0.061151053 -0.1041793)
(-0.72613478 -0.052868463 -0.10426089)
(-0.79314477 -0.079174245 -0.11076204)
(-0.78916062 -0.070868574 -0.11096646)
(-0.78514724 -0.062688662 -0.1111086)
(-0.85181997 -0.093020822 -0.11734129)
(-0.84773363 -0.084860143 -0.11764252)
(-0.84359828 -0.076637667 -0.11776521)
(-0.90989372 -0.11070036 -0.12381128)
(-0.90576195 -0.10254325 -0.12412429)
(-0.90146084 -0.094392162 -0.12424468)
(-0.96735923 -0.1314459 -0.13023589)
(-0.96309199 -0.12324788 -0.13053186)
(-0.95874395 -0.11514425 -0.13068619)
(-1.0242528 -0.1543655 -0.13661255)
(-1.0199648 -0.1462198 -0.13686701)
(-1.0156203 -0.13812157 -0.13700499)
(0.0010759333 -0.0013731721 -0.00029636385)
(0.00046921011 -0.0017852684 0.0003365932)
(-0.00023599569 -0.00089565997 0.00053017293)
(-0.010758058 -0.0030134031 -0.0018167763)
(-0.011174398 -0.0016993924 -0.0011750102)
(-0.0089170124 5.9794337e-05 -0.0016394113)
(-0.027367168 -0.005110626 -0.0050790861)
(-0.027144694 -0.0027565961 -0.0058624814)
(-0.026536247 0.00083699499 -0.0054797154)
(-0.049364253 -0.0059846609 -0.0091791225)
(-0.050458428 -0.0021364085 -0.0094412252)
(-0.048587786 0.0027303112 -0.0092942397)
(-0.077921367 -0.0087628471 -0.014359366)
(-0.077611426 -0.0044093482 -0.01501235)
(-0.075681345 0.00054597791 -0.014261953)
(-0.11038328 -0.010742245 -0.020112067)
(-0.1104244 -0.0051732781 -0.020229512)
(-0.10853952 0.00091078582 -0.020491008)
(-0.14788955 -0.014097803 -0.026038896)
(-0.14730416 -0.0082438338 -0.026929565)
(-0.14550157 -0.0012304342 -0.026755351)
(-0.18927133 -0.017235172 -0.03325763)
(-0.18869249 -0.010375348 -0.033772327)
(-0.18625165 -0.0035862074 -0.033627671)
(-0.23390154 -0.021344593 -0.040198559)
(-0.2327801 -0.014537081 -0.040669621)
(-0.23066219 -0.0067175243 -0.040893872)
(-0.28179691 -0.025867316 -0.04764389)
(-0.28062308 -0.018087312 -0.048370595)
(-0.27804691 -0.010448618 -0.048467177)
(-0.33220764 -0.030719737 -0.055219034)
(-0.33056762 -0.023018969 -0.055888437)
(-0.32794453 -0.014879875 -0.055938965)
(-0.38482949 -0.036127406 -0.062910469)
(-0.38298227 -0.027971834 -0.063593033)
(-0.38006349 -0.019973833 -0.063686073)
(-0.4393579 -0.041963454 -0.070579576)
(-0.43710114 -0.033819846 -0.07124788)
(-0.43403664 -0.02549454 -0.071326783)
(-0.49530784 -0.048113836 -0.078206558)
(-0.49281778 -0.03967487 -0.078883607)
(-0.48949178 -0.031542173 -0.078962273)
(-0.55260168 -0.054590803 -0.085789321)
(-0.54971678 -0.046246994 -0.086393653)
(-0.54624398 -0.038004738 -0.086474426)
(-0.6107526 -0.061331336 -0.09318013)
(-0.60759554 -0.052888066 -0.093778527)
(-0.60393535 -0.044743816 -0.093888691)
(-0.66969484 -0.068270168 -0.10052772)
(-0.66621637 -0.059889459 -0.10105297)
(-0.66243393 -0.05173221 -0.10117335)
(-0.72908506 -0.075357776 -0.107664)
(-0.725373 -0.066998916 -0.10814073)
(-0.72144783 -0.0589048 -0.10829525)
(-0.78882866 -0.082555663 -0.11476495)
(-0.78489117 -0.074241302 -0.11518096)
(-0.78087181 -0.066146024 -0.11536896)
(-0.84872399 -0.089827266 -0.12166249)
(-0.84458563 -0.081554213 -0.12206019)
(-0.8404958 -0.073495795 -0.12223867)
(-0.90856202 -0.0970979 -0.12864857)
(-0.90463799 -0.088890181 -0.12882978)
(-0.90025966 -0.080820811 -0.1291227)
(-0.9685436 -0.10444292 -0.13544853)
(-0.96418562 -0.096298599 -0.13574259)
(-0.95995457 -0.088126667 -0.13588711)
(-1.0283 -0.1117652 -0.14229052)
(-1.0239907 -0.10360222 -0.14249569)
(-1.0197126 -0.095567037 -0.14266339)
(0.0017011888 0.020406931 0.0021157125)
(0.0016626195 0.020369975 -0.00022961541)
(0.0015109489 0.020819049 -0.0029461138)
(-0.014038664 0.040989203 -0.00040105387)
(-0.015008255 0.040875192 -0.0033119394)
(-0.01349231 0.044236382 -0.0061304749)
(-0.030003185 0.060257396 -0.0042435154)
(-0.030422137 0.065145647 -0.0074718115)
(-0.03068888 0.068308976 -0.010528541)
(-0.055933465 0.075171456 -0.0095688518)
(-0.056093737 0.078025686 -0.012031737)
(-0.055139976 0.082777306 -0.014426357)
(-0.085101869 0.084336255 -0.015522012)
(-0.085034325 0.090261619 -0.017993052)
(-0.083998679 0.094930169 -0.020256773)
(-0.12018548 0.088861623 -0.021813563)
(-0.12008966 0.094449179 -0.024038599)
(-0.11879627 0.10058396 -0.0262117)
(-0.15869586 0.087575088 -0.029111685)
(-0.15788401 0.094129071 -0.031303712)
(-0.15660971 0.10023847 -0.032980744)
(-0.20045663 0.080745281 -0.036389413)
(-0.19988963 0.087819721 -0.037913182)
(-0.19801593 0.094718609 -0.039702187)
(-0.24497368 0.069388813 -0.043699057)
(-0.24355398 0.076768683 -0.045432896)
(-0.2419154 0.083916312 -0.047055798)
(-0.29167242 0.053916987 -0.051428161)
(-0.29035596 0.061500204 -0.052831536)
(-0.28817003 0.069119145 -0.054069091)
(-0.34021202 0.035354709 -0.058894489)
(-0.33834817 0.043309372 -0.060090091)
(-0.33620853 0.05103658 -0.061390501)
(-0.39067958 0.015095932 -0.066482099)
(-0.38858209 0.023025439 -0.067622855)
(-0.38603028 0.030992621 -0.068669478)
(-0.4425498 -0.0059258678 -0.073963814)
(-0.44003467 0.0022266534 -0.074937158)
(-0.43747533 0.010336533 -0.075898461)
(-0.49609948 -0.026229223 -0.081462071)
(-0.4933364 -0.018109275 -0.082345869)
(-0.49040116 -0.0099257596 -0.083188285)
(-0.55106828 -0.044878462 -0.088885244)
(-0.54793446 -0.036708659 -0.089675839)
(-0.54490089 -0.028482562 -0.090402452)
(-0.60749815 -0.060818335 -0.096305994)
(-0.60415238 -0.052674567 -0.097019495)
(-0.60081348 -0.044378083 -0.09762734)
(-0.66530929 -0.073321542 -0.10369853)
(-0.6616861 -0.065145016 -0.1043205)
(-0.65820675 -0.056900409 -0.10483928)
(-0.72437461 -0.081885015 -0.11106919)
(-0.72062173 -0.073745018 -0.11163213)
(-0.71685726 -0.065498308 -0.11202751)
(-0.78461262 -0.086330276 -0.11843807)
(-0.78060609 -0.078175576 -0.11891148)
(-0.77672381 -0.069982259 -0.11925597)
(-0.84569087 -0.086746011 -0.12581008)
(-0.84171863 -0.078594816 -0.12621728)
(-0.8376275 -0.070446006 -0.12642093)
(-0.90764987 -0.083515612 -0.13316058)
(-0.90344646 -0.07535043 -0.13347862)
(-0.89922696 -0.067228184 -0.13371366)
(-0.97001178 -0.077289239 -0.14051039)
(-0.96578281 -0.069173443 -0.14078014)
(-0.96144887 -0.061078498 -0.1409675)
(-1.0326387 -0.068935094 -0.14789158)
(-1.0283784 -0.060753914 -0.14811555)
(-1.0240481 -0.052721831 -0.14824261)
)
;

boundaryField
{
    free
    {
        type            calculated;
    }
    fixed
    {
        type            calculated;
    }
    freeTop
    {
        type            calculated;
    }
}


// ************************************************************************* //
