/*--------------------------------*- C++ -*----------------------------------*\
  =========                 |
  \\      /  F ield         | OpenFOAM: The Open Source CFD Toolbox
   \\    /   O peration     | Website:  https://openfoam.org
    \\  /    A nd           | Version:  6
     \\/     M anipulation  |
\*---------------------------------------------------------------------------*/
FoamFile
{
    version     2.0;
    format      ascii;
    class       pointVectorField;
    location    "0.78";
    object      lm;
}
// * * * * * * * * * * * * * * * * * * * * * * * * * * * * * * * * * * * * * //

dimensions      [1 -2 -1 0 0 0 0];

internalField   nonuniform List<vector> 
625
(
(-3.6361799e-15 2.112754e-16 -3.2990721e-16)
(2.8178306e-17 1.9013092e-16 6.1994168e-17)
(-6080.5236 360.84857 -289.66077)
(-5989.9396 1843.0701 228.13273)
(6.5239771e-16 2.739523e-16 -5.5565719e-16)
(-3.7042918e-15 1.4868296e-15 -1.3023874e-15)
(-6476.9361 1995.488 217.26708)
(-6552.8032 512.50357 -305.13677)
(-1.9658614e-16 -3.2115893e-17 -1.1045223e-16)
(1.4766345e-16 -3.4299605e-16 -2.8648028e-16)
(-1.0135278e-15 7.0169807e-16 1.7538027e-16)
(-5862.8576 699.11183 -157.66954)
(-5843.3831 1053.7961 -34.447864)
(-6007.6724 1461.4898 95.816439)
(-10.21569 -62.301934 -69.489397)
(-52.827825 -121.85289 -76.129812)
(-138.0183 -175.53365 -79.329706)
(-255.1024 -219.12014 -74.687716)
(-397.10462 -251.61918 -73.22442)
(-566.23973 -275.42296 -68.266747)
(-760.12376 -291.53217 -65.901681)
(-978.21618 -298.64637 -62.464138)
(-1222.8909 -299.61943 -61.988043)
(-1492.6782 -293.93722 -60.413225)
(-1789.7268 -282.32286 -62.083832)
(-2108.5955 -264.09886 -65.223413)
(-2447.9574 -240.45274 -71.582453)
(-2800.2065 -210.70093 -80.97486)
(-3160.8099 -175.17337 -93.89401)
(-3521.4087 -133.91741 -110.58979)
(-3877.0496 -87.067524 -129.52992)
(-4220.8019 -34.02113 -152.21243)
(-4548.9865 23.639933 -173.94274)
(-4861.4957 85.289181 -198.56793)
(-5158.2742 151.43769 -221.76275)
(-5432.305 217.53154 -243.3745)
(-5706.1329 287.44042 -265.39086)
(9.8261347 70.48623 97.183828)
(-34.715295 139.86267 99.026252)
(-112.585 214.24971 123.37823)
(-208.6494 279.16761 136.41425)
(-328.80999 339.98333 157.14579)
(-473.19644 404.87577 176.71992)
(-636.07754 466.6532 200.09437)
(-823.51674 534.32184 222.86192)
(-1031.3366 604.70221 248.20082)
(-1264.4883 679.51386 273.15122)
(-1520.3803 760.60934 298.38151)
(-1802.5848 846.77693 321.99826)
(-2109.4899 937.92053 343.6126)
(-2440.4408 1033.5644 361.38207)
(-2793.7622 1132.3053 374.12287)
(-3165.1477 1232.5256 380.56579)
(-3549.245 1332.1009 379.82897)
(-3938.4572 1427.9667 371.95962)
(-4323.8369 1518.7368 356.66669)
(-4696.6128 1599.7186 336.09176)
(-5048.1317 1672.0152 310.55684)
(-5371.6079 1733.1252 282.79917)
(-5681.5887 1789.2833 254.50135)
(-4.8813632e-16 1.9183015e-16 -1.0607077e-16)
(-2.6214496e-15 -5.6404768e-16 7.244144e-16)
(-2.4010456e-15 1.4295629e-15 -1.6975308e-16)
(-19.244788 36.450735 -49.657358)
(-83.487851 141.71766 -32.095136)
(-195.98691 183.31166 7.325766)
(-319.66667 248.3497 38.673138)
(-471.02705 318.56593 66.880769)
(-644.47755 376.88704 100.08438)
(-832.4593 447.17822 126.05751)
(-1046.1505 519.21412 157.69128)
(-1283.622 598.45671 186.06975)
(-1542.7709 682.81766 214.01854)
(-1828.0911 774.30762 241.68141)
(-2137.8445 873.49153 267.40831)
(-2472.2563 978.80307 290.66616)
(-2829.3586 1089.8652 310.87864)
(-3206.3117 1205.3081 326.57991)
(-3598.6663 1322.0251 337.04216)
(-4000.3102 1437.9107 341.4505)
(-4403.5192 1548.8613 339.10946)
(-4799.5722 1651.6182 330.27457)
(-5179.1514 1742.9829 314.76521)
(-5534.2731 1821.0859 294.27284)
(-5858.8681 1884.7245 269.36886)
(-6127.9578 1927.8004 241.31779)
(-6520.7964 1619.3038 84.812977)
(-6285.6754 1197.8181 -46.26399)
(-6378.4919 856.19002 -173.93275)
(-6182.6597 439.0301 -278.11813)
(-5948.2484 372.46447 -253.35351)
(-5665.8435 303.38556 -224.55943)
(-5360.3728 231.54446 -193.47605)
(-5031.507 158.9847 -162.07958)
(-4681.4428 87.894349 -132.02488)
(-4312.9736 18.267523 -104.46323)
(-3932.2841 -46.733012 -80.764869)
(-3545.1456 -106.82126 -60.989943)
(-3159.0351 -160.20971 -45.612816)
(-2780.877 -206.22389 -33.724439)
(-2417.5566 -244.52195 -25.101298)
(-2072.9848 -274.62941 -18.584453)
(-1762.4051 -297.61716 -13.953416)
(-1460.0189 -309.19306 -9.3794349)
(-1190.1596 -316.15253 -5.5432578)
(-947.62682 -313.15736 -2.0043558)
(-731.01071 -299.85325 2.3493674)
(-539.31833 -280.01987 9.460995)
(-366.55407 -243.67447 15.11193)
(-228.47811 -200.67519 26.524843)
(-114.62563 -139.45339 34.447915)
(-56.199758 -72.623407 35.383206)
(-1.3028228e-15 -3.4252847e-16 3.3068324e-16)
(-2.0449562e-15 -3.5718549e-16 -7.3673077e-16)
(-1.4121951e-15 -1.0527101e-15 6.223458e-16)
(-1.2019486e-15 6.189313e-16 -3.4292956e-16)
(-1.2511779e-16 -6.848356e-17 2.1836215e-16)
(-3.8898857e-17 4.7141393e-16 -3.1043199e-16)
(-6111.0329 1881.0787 225.15099)
(-6233.1385 1919.7511 221.25221)
(-6354.1944 1958.6266 220.18251)
(-6198.2564 398.7737 -293.26239)
(-6317.2447 435.50052 -295.50933)
(-6435.001 472.67881 -301.29011)
(12.105817 -32.68063 -35.24146)
(-28.028748 -62.947194 -31.083712)
(-111.42669 -91.169608 -30.566631)
(-228.40253 -112.07231 -27.008084)
(-375.71367 -127.14294 -21.896419)
(-555.0612 -133.32192 -14.903375)
(-756.44029 -129.93257 -7.1384991)
(-982.13138 -117.76861 1.5441841)
(-1225.2301 -97.844645 9.9924649)
(-1484.9101 -68.274521 17.421448)
(-1757.3161 -32.354063 24.312721)
(-2038.9743 9.9226324 28.950991)
(-2328.3912 56.861458 31.438561)
(-2623.1748 107.59887 30.896655)
(-2922.6033 161.15147 26.617574)
(-3225.375 216.33976 18.814174)
(-3532.3481 273.61029 6.5842275)
(-3843.2547 331.39218 -9.2584025)
(-4158.8356 389.99741 -28.697223)
(-4483.3582 450.25847 -51.98074)
(-4817.8665 510.61011 -76.009506)
(-5158.2952 572.78613 -103.72497)
(-5523.6592 637.64176 -131.39009)
(38.820403 -2.7316417 0.27983635)
(-13.4264 -2.3042586 11.57575)
(-102.19594 1.9423776 19.696712)
(-228.25541 12.062609 30.733574)
(-387.33966 31.472621 44.650846)
(-568.81843 55.81818 59.40765)
(-771.37524 86.155301 74.481069)
(-987.4109 122.23615 88.522851)
(-1212.6465 162.40957 101.64343)
(-1444.508 205.64249 113.79035)
(-1680.3492 250.76556 122.78289)
(-1920.2698 297.72757 129.63977)
(-2164.488 345.65217 133.28852)
(-2415.2846 394.66669 133.50425)
(-2675.4879 444.9676 130.32826)
(-2949.3899 497.35523 123.36534)
(-3241.6006 552.61559 112.81332)
(-3556.1611 611.85779 98.724153)
(-3897.912 675.98978 81.358884)
(-4267.1252 746.08499 61.290891)
(-4667.6772 822.29165 38.746534)
(-5092.9808 904.02418 14.464141)
(-5517.9646 987.46143 -10.206053)
(38.793083 42.422346 49.577486)
(-20.295306 77.117954 65.565349)
(-108.02567 120.30833 81.596684)
(-230.72264 167.7765 98.151127)
(-376.16085 216.92109 115.78283)
(-543.16466 263.93909 133.31676)
(-726.47003 314.32341 150.3187)
(-923.44861 363.63997 166.68142)
(-1133.1487 413.35812 183.13896)
(-1355.507 464.0125 196.92523)
(-1591.0986 515.47925 209.86829)
(-1840.4033 568.76653 220.67671)
(-2105.5604 624.04275 229.18822)
(-2387.7277 682.08555 235.08525)
(-2688.3881 743.79306 237.6352)
(-3008.5442 809.3586 236.54695)
(-3347.6031 879.65237 231.14876)
(-3705.0446 954.6417 221.36376)
(-4077.5514 1033.5157 207.52392)
(-4462.3726 1117.536 188.76649)
(-4854.3505 1202.9267 168.30412)
(-5248.0111 1290.4564 144.48353)
(-5623.4497 1375.5329 119.7917)
(-2.5953868e-15 -2.1703571e-16 4.2716933e-18)
(-3.8783653e-15 3.5858996e-16 7.5215743e-16)
(-9.8459492e-16 7.8127033e-16 2.7525688e-16)
(-3.9146975e-16 7.8165185e-18 1.2560621e-16)
(1.6350797e-16 -2.4226884e-16 -1.2066667e-17)
(-1.0304172e-15 -9.2669207e-16 -7.5672327e-16)
(-6.4481012e-16 3.525084e-16 2.7116342e-16)
(-3.5205005e-15 9.4737515e-16 -2.5196009e-17)
(-3.8147498e-15 1.043275e-15 1.2924308e-16)
(-25.922791 25.516506 45.591568)
(-38.468137 34.788891 20.370694)
(-37.419032 28.615398 -11.86124)
(-79.724011 142.8092 73.454252)
(-94.899064 146.07318 38.766734)
(-98.97613 149.28566 -0.59082648)
(-155.56469 202.02129 92.924041)
(-181.81961 200.20847 61.599591)
(-197.55398 213.26392 30.476872)
(-251.77393 267.40653 111.80001)
(-289.29522 271.74527 87.239178)
(-308.08054 272.13223 59.702462)
(-383.43492 333.58235 135.69079)
(-422.10918 335.61532 113.67642)
(-451.54143 341.03801 89.017623)
(-527.78405 394.558 158.82016)
(-576.7933 398.75942 138.31004)
(-613.32216 398.33762 116.86604)
(-700.14666 460.42608 182.56826)
(-752.25742 463.98043 166.82304)
(-797.37913 469.49906 145.07985)
(-891.41242 528.4868 208.27576)
(-951.17388 531.99888 192.05465)
(-1001.422 536.2531 174.04735)
(-1106.1914 599.35739 233.62448)
(-1170.3813 606.18998 220.18202)
(-1229.4243 612.27932 202.23146)
(-1344.2194 678.03145 260.15199)
(-1415.8622 686.12614 246.88616)
(-1482.7757 694.56064 229.62493)
(-1607.754 761.12889 285.45792)
(-1686.42 771.73142 273.12982)
(-1759.4679 782.27982 256.63347)
(-1896.3129 850.88264 309.5839)
(-1980.7151 863.67423 298.40384)
(-2061.7996 877.59979 281.91052)
(-2209.2063 945.8097 331.7528)
(-2300.9826 961.61747 320.90142)
(-2388.7807 979.08915 304.67251)
(-2546.0694 1045.8172 350.03146)
(-2644.1065 1064.4034 339.83819)
(-2738.5955 1085.6561 324.2347)
(-2904.0063 1149.0523 363.52427)
(-3008.1723 1171.1409 354.14145)
(-3108.8547 1196.331 339.15581)
(-3279.0374 1254.0173 371.04875)
(-3388.9462 1279.3987 362.47376)
(-3495.1145 1308.4253 348.48368)
(-3665.7533 1357.8612 371.70215)
(-3780.4117 1386.8154 363.94617)
(-3891.4497 1419.2339 351.58104)
(-4056.3614 1458.0749 365.08243)
(-4175.3363 1490.0188 358.58271)
(-4290.1834 1525.7501 347.77679)
(-4442.9469 1551.461 351.76808)
(-4564.6003 1586.5775 346.03838)
(-4682.6053 1624.3924 337.35513)
(-4815.8757 1635.5967 332.12802)
(-4939.5184 1672.536 327.36606)
(-5059.7469 1712.0869 320.4535)
(-5167.4066 1708.918 307.94256)
(-5291.5502 1747.6114 303.70645)
(-5413.2007 1787.6386 298.70681)
(-5491.0635 1770.587 280.19764)
(-5615.1422 1809.7709 276.72384)
(-5737.5229 1849.9259 273.15949)
(-5786.0484 1821.3215 251.53729)
(-5908.0391 1860.8797 249.34636)
(-6030.1011 1899.2615 245.30873)
(-5995.8665 738.59876 -161.34517)
(-6111.4876 775.17448 -164.4336)
(-6227.0346 812.58669 -169.31943)
(-5932.3448 1086.3703 -37.000395)
(-6058.731 1124.8642 -39.575138)
(-6172.3359 1160.7883 -43.116485)
(-6116.9678 1498.2101 92.840914)
(-6247.2637 1537.8649 89.861173)
(-6366.8903 1575.6344 87.2133)
(-42.869584 -47.500918 -37.069889)
(-57.227701 -60.478259 -20.201682)
(-65.035564 -67.834515 3.903904)
(-89.929377 -116.79132 -44.339199)
(-111.72442 -128.99926 -21.56111)
(-121.06995 -135.37413 8.6056496)
(-183.86397 -174.84606 -49.915474)
(-212.52691 -184.74263 -28.588651)
(-230.81908 -198.62719 2.945253)
(-300.35674 -216.06595 -48.907661)
(-333.2189 -227.92303 -29.095031)
(-356.15734 -240.13162 -5.0140182)
(-449.09374 -250.43069 -50.304307)
(-490.76205 -263.34981 -31.961728)
(-519.998 -275.11994 -9.5968695)
(-621.84107 -273.67706 -48.035535)
(-665.91971 -283.80445 -33.4659)
(-706.29235 -298.6416 -12.713475)
(-819.02683 -288.00194 -47.680682)
(-871.7107 -298.94765 -32.917578)
(-915.47659 -310.41374 -15.606601)
(-1042.5474 -294.73045 -46.195214)
(-1099.7503 -303.74561 -34.502244)
(-1152.1 -316.47059 -17.374147)
(-1291.2545 -294.30538 -48.02799)
(-1357.4771 -302.19194 -33.02862)
(-1415.6089 -311.53894 -20.417769)
(-1566.0094 -287.20888 -46.83438)
(-1638.1295 -291.04371 -38.025132)
(-1706.4852 -301.48161 -22.205956)
(-1868.8519 -273.18253 -50.104239)
(-1946.8539 -275.82109 -38.645792)
(-2020.0585 -282.0959 -26.631849)
(-2194.7726 -252.98124 -53.456736)
(-2278.0254 -251.8466 -44.132464)
(-2359.0871 -255.54334 -31.834532)
(-2539.4292 -225.58662 -60.420917)
(-2629.6465 -221.25748 -50.512229)
(-2716.9362 -221.11356 -39.619727)
(-2899.099 -191.82701 -69.491025)
(-2994.912 -183.87285 -60.558311)
(-3088.0585 -179.32557 -50.396488)
(-3266.5037 -151.98677 -82.429422)
(-3367.3967 -139.63714 -73.618038)
(-3466.3409 -130.58683 -64.918882)
(-3634.5067 -105.77849 -98.669802)
(-3740.1167 -89.472796 -90.892932)
(-3844.1529 -75.505572 -83.538849)
(-3996.8093 -54.774243 -118.60449)
(-4106.147 -33.627815 -111.51753)
(-4215.093 -14.8701 -106.18223)
(-4346.9889 2.6893696 -141.27855)
(-4459.7248 27.148755 -135.88766)
(-4572.1018 49.834893 -132.36376)
(-4680.5891 62.192794 -166.18975)
(-4796.8235 90.746061 -162.56184)
(-4912.1642 118.34539 -161.16107)
(-4994.7617 126.54468 -193.50229)
(-5112.8046 158.34821 -190.14949)
(-5230.3879 188.06741 -191.36299)
(-5291.3676 193.04387 -218.64878)
(-5408.4643 227.20832 -218.37917)
(-5527.5056 259.1519 -221.05825)
(-5566.5156 258.85986 -242.94836)
(-5683.8218 293.72393 -245.38308)
(-5803.0531 328.05437 -249.34948)
(-5828.4682 326.24697 -268.31001)
(-5945.4033 362.73577 -271.27865)
(-6062.769 398.88522 -274.75638)
(-11.650929 -18.461593 24.69457)
(-86.493159 -79.058003 25.557303)
(-186.91838 -96.60425 22.266898)
(-327.57004 -123.8108 24.3822)
(-497.22129 -138.99277 25.601267)
(-692.31848 -140.38247 27.733205)
(-916.78195 -136.97933 30.326524)
(-1164.2785 -119.21949 35.178925)
(-1435.449 -93.508844 38.479195)
(-1728.7039 -55.173232 43.379435)
(-2040.4999 -9.3334609 46.222096)
(-2368.8313 46.490469 48.355669)
(-2709.4534 109.52289 47.330122)
(-3058.9308 178.42734 43.368873)
(-3413.5394 251.99208 35.110115)
(-3769.1158 327.75491 22.433139)
(-4121.7533 404.02115 5.4142348)
(-4468.1183 478.91435 -15.593299)
(-4805.1539 550.66422 -39.890862)
(-5131.5934 618.57531 -66.180434)
(-5446.8574 681.79782 -93.657012)
(-5750.9887 741.37792 -120.80348)
(-6025.9418 793.97109 -147.46021)
(2.6856273 -12.079513 2.1665408)
(-74.946912 -28.640357 10.49785)
(-194.93 -23.393548 14.636345)
(-351.45422 -22.551216 26.487863)
(-542.28139 -2.7572027 38.022706)
(-757.76405 21.661449 51.162775)
(-994.50343 57.620453 65.746952)
(-1243.9049 99.09695 79.9058)
(-1504.0997 151.19431 92.933943)
(-1766.6807 204.99388 104.85767)
(-2030.5568 264.14668 114.85329)
(-2292.9176 326.07991 121.22342)
(-2553.7065 388.32401 125.24685)
(-2815.6969 452.2468 125.30078)
(-3081.9245 516.58998 121.80056)
(-3357.203 582.12366 114.4055)
(-3647.2696 649.22512 103.30251)
(-3956.9712 718.78124 88.458847)
(-4291.2946 791.10966 70.442022)
(-4652.319 867.29683 49.663706)
(-5042.1002 947.51337 26.963083)
(-5456.693 1030.9605 2.0487806)
(-5942.983 1127.2786 -22.565453)
(15.671916 15.987188 -24.024638)
(-87.358223 25.788324 -5.7104123)
(-210.69102 83.613987 6.2145855)
(-362.66625 117.65989 36.76939)
(-543.4686 172.06478 60.022772)
(-736.17952 225.17419 83.95728)
(-947.7383 278.3599 108.30863)
(-1171.4463 338.10624 128.50992)
(-1406.0683 394.40529 148.11544)
(-1651.8275 455.11342 165.34058)
(-1909.3765 516.85519 179.26078)
(-2179.3401 581.17355 191.41486)
(-2463.4576 648.90264 200.20538)
(-2762.9825 720.63774 205.89064)
(-3078.9151 796.86253 208.10519)
(-3412.2713 877.94081 206.67713)
(-3763.1231 963.75063 201.42005)
(-4130.2304 1053.7477 192.43798)
(-4511.5853 1147.2102 179.97889)
(-4903.3609 1242.6014 164.3813)
(-5301.4778 1337.8432 145.58517)
(-5700.3857 1432.4334 126.20359)
(-6104.0557 1525.7391 104.28154)
(-7.2417543 -16.925448 -19.716961)
(-17.415851 -19.291212 -11.942767)
(-23.694421 -20.376486 2.7407618)
(-63.175981 -62.029016 -17.796387)
(-85.855071 -68.985809 -6.8293625)
(-93.021769 -69.992688 13.71842)
(-151.05017 -87.152115 -16.744473)
(-179.13716 -91.264399 -5.4096723)
(-193.54616 -98.758063 8.8314862)
(-268.91695 -110.43763 -13.934074)
(-306.15638 -119.2745 -3.0254673)
(-326.71187 -123.91592 12.92979)
(-420.03829 -124.16525 -8.4995834)
(-462.81195 -131.2121 0.237665)
(-492.48748 -138.74156 14.966753)
(-598.59232 -129.2391 -3.3122639)
(-648.49307 -137.16919 6.3546674)
(-684.70259 -143.6905 19.791368)
(-802.42047 -125.19579 3.7969881)
(-859.14078 -133.06803 12.610706)
(-903.99707 -138.61296 22.641206)
(-1031.2964 -112.72688 11.505036)
(-1094.2192 -117.88856 18.922256)
(-1146.614 -122.04433 29.595614)
(-1280.8841 -89.388096 19.162967)
(-1349.5286 -94.989994 26.05739)
(-1409.6408 -97.48798 34.526467)
(-1548.6771 -59.227872 26.038741)
(-1624.1177 -63.230806 33.228909)
(-1691.2273 -60.606703 39.892172)
(-1833.5826 -20.877261 32.311769)
(-1914.047 -21.624934 38.97362)
(-1988.2185 -17.122159 43.772761)
(-2131.134 24.460924 36.956318)
(-2217.4013 26.058652 42.574926)
(-2297.573 35.467699 46.933612)
(-2439.9766 75.119766 39.036371)
(-2530.4474 80.323465 44.329349)
(-2616.4422 93.911366 46.632035)
(-2756.177 130.4846 38.460425)
(-2850.958 139.24658 41.914356)
(-2941.5221 157.52811 43.428225)
(-3077.8835 189.08069 33.649792)
(-3175.8685 201.97282 35.806651)
(-3270.9373 224.48061 35.974568)
(-3401.97 249.8768 24.953574)
(-3503.3661 266.97357 24.969007)
(-3602.0849 293.47165 24.281255)
(-3727.0671 312.19792 11.494437)
(-3831.1969 333.23766 9.8738825)
(-3933.5613 363.07559 8.1039655)
(-4051.2664 374.51166 -5.9656486)
(-4158.4817 399.50691 -9.6171846)
(-4263.3351 431.99189 -11.916593)
(-4372.6684 436.2039 -27.647927)
(-4484.8842 464.97578 -32.293024)
(-4591.9837 499.88459 -35.478762)
(-4716.5351 500.71631 -52.436608)
(-4789.2494 527.99095 -57.807807)
(-4918.0647 565.44628 -61.1671)
(-5038.0647 561.73836 -78.625536)
(-5111.7684 589.15695 -84.640845)
(-5242.6526 628.87373 -88.305039)
(-5339.7772 619.45172 -107.47733)
(-5451.4734 653.39745 -112.69517)
(-5565.8191 691.56851 -115.74401)
(-5664.4722 678.8604 -135.44808)
(-5780.8004 714.88228 -139.42016)
(-5895.6413 752.27331 -142.91573)
(11.793744 -3.3740963 1.0878167)
(-1.1511488 -9.1605595 1.6798579)
(-10.671805 -6.8369257 0.95960419)
(-50.660389 -4.886484 14.214086)
(-70.152981 -13.906997 13.267052)
(-79.370643 -11.374007 12.454416)
(-148.98614 -1.6986641 21.464915)
(-177.12258 -10.119872 17.893275)
(-196.05811 -10.43718 18.953186)
(-279.25133 10.358562 33.861042)
(-315.99388 -2.5198692 32.140034)
(-341.21505 -0.67666963 30.380307)
(-444.74744 26.520488 47.371845)
(-489.69928 16.015314 44.067042)
(-522.57091 16.446168 44.13184)
(-633.05557 52.130926 61.984926)
(-684.3588 40.720261 59.751527)
(-727.29747 41.517217 56.874962)
(-842.86404 82.613461 77.592365)
(-902.45723 73.905923 73.238252)
(-950.85511 76.342639 71.96738)
(-1066.8811 121.22069 91.435028)
(-1132.4298 113.6299 88.068956)
(-1188.5874 115.02115 86.067698)
(-1300.02 162.29356 104.89494)
(-1372.9268 157.82501 101.77983)
(-1434.9376 162.47105 98.97806)
(-1540.8848 208.56008 117.39141)
(-1618.3803 207.914 112.53928)
(-1686.7714 213.39001 110.16117)
(-1783.9391 257.4777 126.46264)
(-1867.0519 259.86265 121.43975)
(-1939.3731 267.45325 120.33915)
(-2029.9658 307.79242 133.25786)
(-2116.6115 314.07694 128.28364)
(-2193.8405 324.04189 126.58488)
(-2278.1793 359.43178 136.82841)
(-2368.5174 369.59792 131.29589)
(-2448.8252 382.08286 130.35056)
(-2530.7476 412.07766 136.76861)
(-2623.6717 426.0102 131.08453)
(-2707.4149 441.01017 130.64635)
(-2790.7516 465.72887 132.99635)
(-2886.1459 483.17914 127.28531)
(-2972.8496 501.41185 127.19019)
(-3062.2599 521.13762 125.47516)
(-3159.7414 542.07806 119.58248)
(-3249.7002 563.09026 119.8773)
(-3350.2815 579.06285 114.06171)
(-3450.1364 602.69681 108.40462)
(-3543.0387 627.23916 108.87062)
(-3659.1922 639.88119 99.109386)
(-3761.1666 667.06053 93.622455)
(-3857.8456 694.12588 93.894937)
(-3993.4989 705.97713 80.954443)
(-4098.4651 734.65476 75.73954)
(-4198.6129 765.21419 75.624532)
(-4353.0133 775.08027 59.725388)
(-4465.0903 809.09386 55.183462)
(-4567.5447 840.0615 54.68444)
(-4734.9713 850.04658 36.443253)
(-4877.9708 890.4457 34.338983)
(-4965.507 920.06561 30.786419)
(-5164.168 933.85064 11.809983)
(-5276.5842 967.66381 8.3209649)
(-5387.7544 1004.3009 5.9270683)
(-5607.3043 1019.9396 -13.003675)
(-5724.156 1056.6459 -16.307676)
(-5839.8163 1093.3612 -19.393792)
(9.6707943 20.698648 25.915959)
(2.9862299 22.041798 8.0818331)
(-1.0437676 14.50602 -8.1771436)
(-67.971565 63.731286 47.910174)
(-88.209539 53.835662 24.42435)
(-94.500848 50.228122 10.133579)
(-159.1702 110.29133 64.699458)
(-190.27674 113.46038 44.285639)
(-206.33789 101.11757 26.246522)
(-287.01796 159.44404 83.043336)
(-323.03336 155.43246 64.274802)
(-347.74144 145.40351 49.307004)
(-437.40031 206.54066 101.73685)
(-482.74877 207.21407 85.568549)
(-515.8975 194.7345 72.954461)
(-608.81981 256.45013 121.55621)
(-659.96959 257.90537 106.37206)
(-700.01068 246.44043 95.16007)
(-797.08492 307.45877 139.47801)
(-854.80434 309.22239 126.88909)
(-902.73253 297.67484 117.30757)
(-999.74701 357.87332 157.41979)
(-1062.5103 361.50603 147.12438)
(-1117.8621 352.75695 137.68489)
(-1215.0036 409.92134 174.99611)
(-1283.8076 414.80483 164.52022)
(-1346.2942 407.70354 155.50863)
(-1442.686 462.86627 189.60679)
(-1516.7716 468.84688 180.59096)
(-1585.1433 464.49275 173.15032)
(-1683.1982 516.49365 203.22814)
(-1762.1015 524.70436 195.2195)
(-1837.3526 523.41266 187.48479)
(-1937.4733 572.64096 214.85825)
(-2021.1611 582.32515 207.02277)
(-2102.2966 584.58759 199.80268)
(-2206.748 630.91506 223.87317)
(-2294.7567 642.84675 216.32435)
(-2381.7593 649.03556 209.47479)
(-2492.315 692.57208 230.23728)
(-2584.6157 706.60937 222.8695)
(-2677.2384 717.05485 215.97238)
(-2795.4653 757.89679 233.23504)
(-2891.8106 774.4831 225.75164)
(-2989.6501 789.50022 218.97028)
(-3116.872 827.48651 232.48116)
(-3217.1697 846.99554 224.87301)
(-3319.6919 866.42468 218.29508)
(-3456.4662 901.74411 227.28777)
(-3560.5178 924.21948 219.83499)
(-3667.253 948.03038 213.36133)
(-3813.1637 980.18993 217.89336)
(-3920.935 1006.163 210.33936)
(-4031.4042 1033.7662 204.07608)
(-4184.967 1062.9804 203.7786)
(-4296.2169 1092.1604 196.52386)
(-4409.5322 1122.8575 191.13162)
(-4568.1874 1149.0549 185.572)
(-4682.4801 1181.0048 179.28192)
(-4798.3684 1214.4812 173.86368)
(-4958.8266 1236.5606 164.93486)
(-5076.0101 1271.3375 158.61324)
(-5193.6014 1305.9703 153.7454)
(-5351.7674 1325.5652 140.92763)
(-5470.8299 1361.9989 135.41362)
(-5590.1991 1398.3498 131.39549)
(-5743.4733 1414.3301 116.77689)
(-5863.4024 1451.6169 112.82252)
(-5983.7345 1489.3584 109.43661)
)
;

boundaryField
{
    free
    {
        type            zeroGradient;
    }
    fixed
    {
        type            fixedValue;
        value           nonuniform List<vector> 
25
(
(-2.5953868e-15 -2.1703571e-16 4.2716933e-18)
(-1.3028228e-15 -3.4252847e-16 3.3068324e-16)
(-1.9658614e-16 -3.2115893e-17 -1.1045223e-16)
(-3.6361799e-15 2.112754e-16 -3.2990721e-16)
(-3.8783653e-15 3.5858996e-16 7.5215743e-16)
(-2.0449562e-15 -3.5718549e-16 -7.3673077e-16)
(-9.8459492e-16 7.8127033e-16 2.7525688e-16)
(-1.4121951e-15 -1.0527101e-15 6.223458e-16)
(-4.8813632e-16 1.9183015e-16 -1.0607077e-16)
(6.5239771e-16 2.739523e-16 -5.5565719e-16)
(-3.9146975e-16 7.8165185e-18 1.2560621e-16)
(1.4766345e-16 -3.4299605e-16 -2.8648028e-16)
(1.6350797e-16 -2.4226884e-16 -1.2066667e-17)
(-1.0304172e-15 -9.2669207e-16 -7.5672327e-16)
(-2.6214496e-15 -5.6404768e-16 7.244144e-16)
(-6.4481012e-16 3.525084e-16 2.7116342e-16)
(-1.0135278e-15 7.0169807e-16 1.7538027e-16)
(-3.5205005e-15 9.4737515e-16 -2.5196009e-17)
(-3.8147498e-15 1.043275e-15 1.2924308e-16)
(-2.4010456e-15 1.4295629e-15 -1.6975308e-16)
(-1.2019486e-15 6.189313e-16 -3.4292956e-16)
(2.8178306e-17 1.9013092e-16 6.1994168e-17)
(-1.2511779e-16 -6.848356e-17 2.1836215e-16)
(-3.8898857e-17 4.7141393e-16 -3.1043199e-16)
(-3.7042918e-15 1.4868296e-15 -1.3023874e-15)
)
;
    }
    freeTop
    {
        type            zeroGradient;
    }
}


// ************************************************************************* //
