/*--------------------------------*- C++ -*----------------------------------*\
  =========                 |
  \\      /  F ield         | OpenFOAM: The Open Source CFD Toolbox
   \\    /   O peration     | Website:  https://openfoam.org
    \\  /    A nd           | Version:  6
     \\/     M anipulation  |
\*---------------------------------------------------------------------------*/
FoamFile
{
    version     2.0;
    format      ascii;
    class       pointScalarField;
    location    "0.78";
    object      p;
}
// * * * * * * * * * * * * * * * * * * * * * * * * * * * * * * * * * * * * * //

dimensions      [1 -1 -2 0 0 0 0];

internalField   nonuniform List<scalar> 
625
(
589405.17
-774093.78
-2883.8184
-1414.7574
980879.75
-1675673.5
-630.39037
-349.65848
413607.43
67064.499
5173.622
2850.1741
2062.6094
-58.245159
248650.99
250942.03
233201.6
215854.4
174485.22
162963.68
129305.14
107044.62
93596.864
69690.064
56536.919
43132.372
32364.081
23093.16
16474.023
11259.401
7411.1313
5683.1003
3025.9523
4671.0308
3492.1849
3069.952
1074.4686
-259853.05
-144687.86
-202792.77
-140379.88
-129871.01
-125375.78
-102469.78
-89558.692
-78050.111
-63336.723
-51801.167
-37578.814
-27862.229
-16260.029
-7048.0714
751.36479
7172.4399
11259.243
13048.669
14259.176
11666.636
7699.2233
4936.8579
533463.56
-72284.913
-228160.09
-291863.26
-356308.94
-246441.66
-202434.08
-241875.67
-158489.42
-151271.21
-132259.69
-105925.76
-88249.562
-62306.823
-48665.977
-27970.551
-16611.074
-6910.2765
2096.1521
5422.0824
7773.3624
8028.8833
6492.4468
3397.0067
1771.613
-436.67026
-1001.3677
1410.3188
1695.0697
-177.2851
76.309161
-333.72302
1107.6161
3494.1559
6462.047
11591.282
17380.151
25854.99
34832.685
46328.153
59455.067
72401.49
84482.304
109317.41
120812.39
143079.38
154227.52
193893.75
179671.23
226695.57
245285.24
221752.55
645702.15
584118.33
517743.41
-901822.77
-907486.96
-880488.81
-5832.3402
-2604.8046
-4672.4186
-734.10916
-1753.3941
-1899.1472
135659.01
149114.22
146090.8
124899.17
115294.42
107021.06
86795.137
80218.64
65486.77
52916.546
45799.393
36367.237
28757.632
22335.91
18115.002
13636.894
11177.174
8572.7121
6336.8962
4470.5952
3798.6512
2041.3321
669.81857
-5690.1789
15159.808
-3495.3974
14528.692
1026.2927
5411.7004
1662.7986
3213.4528
916.63649
-286.44722
355.40752
-254.53966
234.63386
1430.6252
2401.103
2904.7589
3831.3605
3593.4476
4170.8133
2761.8533
3731.967
2223.5251
2437.8933
-139829.64
-116889.32
-108880.82
-87887.301
-105731.9
-71963.364
-72282.806
-58340.163
-49149.619
-39155.111
-28434.616
-20386.908
-12716.803
-6682.234
-1940.4291
1454.8728
3983.8434
5120.4085
6009.6683
4390.5266
2293.4337
2637.8553
826.10324
336883.48
301201.03
322090.26
15655.549
17998.563
-33011.03
-29791.915
-79247.486
-151638.14
-386331.74
-389087.11
-409480.87
-281884.38
-274217.39
-259394.87
-227111.72
-220067.78
-235507
-172108.73
-175671.9
-180971.02
-170241.23
-175681.84
-190025.32
-148415.89
-144648.06
-148045.89
-131212.92
-128589.09
-140235.02
-110885.6
-108453.26
-116504.31
-94153.213
-91100.156
-96248.826
-76438.421
-72303.336
-77539.618
-57796.948
-53164.089
-57800.035
-42702.102
-38749.344
-42161.382
-27318.621
-23412.077
-25431.087
-15148.431
-11079.167
-12383.305
-4740.2861
-1288.0456
-2894.2243
2888.8759
5628.8787
5184.8574
8129.5749
10832.4
10375.767
10885.394
13027.819
12501.438
12173.817
13483.747
13093.82
10360.678
11546.274
11523.736
8698.6344
9567.0739
8974.8113
3773.6841
5762.6931
4031.3698
3041.573
2673.7785
3992.4715
2000.0592
1804.6884
1879.3323
405.55088
935.06164
2347.0812
3000.0028
1641.6981
1919.4269
300165.64
276202.22
284397.64
278359.79
251064.79
242469.3
262383.96
233277.07
236264.59
211204.07
193165.04
198306.39
195357.98
183129.06
170473.28
171169.01
141717.97
150241.96
140361.56
128345.6
133618.64
125175.09
108003.19
111172.92
102037.3
89239.951
91057.052
83908.124
73802.592
78682.236
69477.977
59477.396
63418.741
55012.531
45249.223
51848.824
40822.093
35679.364
40631.726
30824.006
26327.253
31024.91
21243.978
19303.228
23196.54
13899.799
13180.112
16704.277
8649.6322
9014.3516
12037.802
4133.6792
5614.4233
8621.8529
2091.3105
3919.7789
6297.7852
876.40518
3283.749
5139.9883
407.48706
1522.4218
4632.6556
420.11162
2966.5106
3986.7697
-1085.1985
-317.90423
1168.746
136325.63
155004.97
127151.9
134131.72
129598.42
111125.17
99572.016
85441.89
74183.251
58957.15
50947.567
38174.59
28710.599
21681.886
14902.348
10240.699
6272.1733
3423.732
1689.5729
334.51512
254.92125
-524.74817
-996.2885
-40547.617
-580.35061
-6297.8186
10150.289
16493.146
5901.3938
11208.85
12337.432
9404.5552
10368.869
12026.712
10624.522
10236.083
8738.3817
7692.275
5659.8302
4182.3889
3042.0502
1857.5855
1452.804
884.01
701.61198
844.87662
-135380.39
-129295.87
-148417.3
-117341.79
-103048.2
-93651.591
-65664.747
-56561.746
-42377.146
-32236.959
-23244.618
-16138.152
-11875.125
-4971.0245
-1766.9227
2213.2307
5366.1624
7916.6655
8715.6062
9805.1661
8733.2637
6782.4902
4760.3045
213000.43
208067.19
166880.92
178121.93
166581.6
152092.11
135434.07
130761.86
149179.3
123951.48
144473.61
109949.06
134601.05
105144.69
112870.45
94794.71
107123.14
109744.07
96048.922
100337.35
91171.628
84465.553
77956.081
79891.676
63814.93
68245.535
73401.382
56522.811
60693.399
59036.011
43079.08
45452.109
46086.807
31514.021
36620.041
38053.229
24194.081
28264.328
28375.319
17900.72
20597.929
21288.978
12067.693
14575.005
14786.939
8508.084
10472.383
10153.012
5380.4216
7003.2136
6240.9472
3337.8282
4808.8998
3497.4367
1907.0338
3663.831
1392.1878
1752.2084
1742.5461
320.17761
-1074.3324
2420.851
-1837.2549
-358.85772
-266.85789
-1400.9946
-223.29977
1073.5905
-1038.4921
3094.9626
-34966.622
-12619.484
6025.0564
21962.271
10215.595
23909.422
14204.421
4479.242
13481.683
6840.8887
-3804.3563
7802.3747
10704.766
14445.036
5812.3088
17860.399
5746.76
13503.506
11256.699
3195.1963
3033.5324
8771.2321
7346.2004
6026.5641
13385.003
6603.1854
8578.2744
10822.599
5644.0082
6688.9398
9055.8187
4819.6309
7456.3059
10276.815
6491.9964
7174.3906
9468.1998
4345.0242
6615.51
7029.6032
3695.443
4360.2315
6551.3928
2866.2829
3620.6081
4568.8595
1335.1684
1520.0367
3152.2954
-61.005132
586.93394
1387.6449
-1494.5684
-1145.3287
460.71233
-1847.0498
436.20476
-1417.7037
-3420.1322
-3571.1809
-669.11681
-968.50957
-1562.3345
895.43107
-1103.9558
775.0138
1187.4915
361.39772
-175530.2
-200522.55
-246196.05
-106321.11
-99132.428
-159420.21
-100261.54
-156018.86
-157401.16
-127477.81
-99070.146
-127092.16
-81165.375
-90840.601
-106311.33
-74420.297
-77473.935
-97328.021
-64891.819
-62443.303
-75415.127
-49809.271
-51009.731
-61943.022
-37034.887
-38505.047
-46715.236
-29254.988
-32120.207
-37065.336
-21547.158
-24735.379
-26261.361
-15452.727
-17693.306
-18446.904
-9658.1529
-14354.577
-13496.229
-6475.4225
-9460.2883
-8004.4349
-3103.7476
-5643.0919
-3799.0342
-1121.8279
-1710.148
-1633.7214
832.31377
1048.336
979.53013
1566.6416
4177.8631
2386.7072
2876.0707
5261.7307
3827.8631
1282.1546
8202.911
3765.9646
5919.785
4945.057
4357.2636
2418.5455
6054.5256
2727.8777
2100.2558
2794.6191
1218.7177
)
;

boundaryField
{
    free
    {
        type            calculated;
    }
    fixed
    {
        type            calculated;
    }
    freeTop
    {
        type            calculated;
    }
}


// ************************************************************************* //
