/*--------------------------------*- C++ -*----------------------------------*\
  =========                 |
  \\      /  F ield         | OpenFOAM: The Open Source CFD Toolbox
   \\    /   O peration     | Website:  https://openfoam.org
    \\  /    A nd           | Version:  6
     \\/     M anipulation  |
\*---------------------------------------------------------------------------*/
FoamFile
{
    version     2.0;
    format      ascii;
    class       pointVectorField;
    location    "1.65";
    object      u;
}
// * * * * * * * * * * * * * * * * * * * * * * * * * * * * * * * * * * * * * //

dimensions      [0 1 0 0 0 0 0];

internalField   nonuniform List<vector> 
28033
(
(0 7.2980495e-19 0)
(0 4.9974863e-18 0)
(-0.98909267 -0.20530526 -0.013867883)
(-1.0136979 0.015284942 -0.014016527)
(0 4.5133349e-18 0)
(0 7.3508915e-18 0)
(-1.013911 0.017022287 -0.014094416)
(-0.98923374 -0.20357883 -0.013791502)
(0 1.5802411e-18 0)
(0 4.563249e-19 0)
(0 3.645203e-18 0)
(0 -1.7305787e-18 0)
(0 2.3312029e-18 0)
(0 -1.3815377e-18 0)
(0 -3.338297e-20 0)
(-1.1135304e-18 -3.6325247e-19 0)
(0 6.8321057e-19 0)
(0 3.3999667e-19 0)
(0 -1.3084703e-18 0)
(0 1.266865e-18 0)
(0 1.5149496e-18 0)
(0 -1.2150802e-18 0)
(0 1.5448418e-18 0)
(-0.99063494 -0.19150011 -0.013865273)
(-0.99217499 -0.17769548 -0.013863644)
(-0.99371239 -0.1638948 -0.013864325)
(-0.99524881 -0.15009991 -0.013870391)
(-0.99678437 -0.13630915 -0.013877037)
(-0.99831984 -0.12252337 -0.013889068)
(-0.99985565 -0.10874096 -0.013901927)
(-1.0013906 -0.094961373 -0.013915776)
(-1.0029275 -0.081184593 -0.013933031)
(-1.0044633 -0.067407859 -0.01394904)
(-1.0060007 -0.053632141 -0.013965813)
(-1.0075387 -0.039853719 -0.013981263)
(-1.0090758 -0.026074023 -0.013992539)
(-1.0106152 -0.012290523 -0.014002605)
(-1.0121556 0.0014952846 -0.014009625)
(-0.0024978574 -0.0048812128 -0.0049100009)
(-0.0028521104 -0.0070133918 -0.0071201585)
(-0.0034411926 -0.0096752515 -0.0084532849)
(-0.0047495476 -0.01209669 -0.0095106167)
(-0.0061240927 -0.014820557 -0.010037376)
(-0.0081912011 -0.017447529 -0.010463424)
(-0.010506491 -0.020272893 -0.010651731)
(-0.013367393 -0.022923352 -0.010748058)
(-0.016511804 -0.025790764 -0.010732708)
(-0.02014356 -0.028468901 -0.010693722)
(-0.024040294 -0.031265715 -0.010562032)
(-0.028352264 -0.033943076 -0.010418728)
(-0.032926771 -0.036693973 -0.010282613)
(-0.037896122 -0.039334007 -0.010099489)
(-0.043077665 -0.042006153 -0.0099555697)
(-0.048608708 -0.044583685 -0.0097774575)
(-0.054361151 -0.047221281 -0.0096666343)
(-0.060415929 -0.049716799 -0.0095360187)
(-0.066681684 -0.052285698 -0.0094468011)
(-0.073215483 -0.054743757 -0.0093654836)
(-0.079956553 -0.057242454 -0.0093389802)
(-0.086942786 -0.05965056 -0.0093012185)
(-0.094133621 -0.06209614 -0.0093244172)
(-0.10154803 -0.064472724 -0.0093454738)
(-0.10917766 -0.066869608 -0.0093958841)
(-0.11701601 -0.069225569 -0.0094599132)
(-0.12506746 -0.071584123 -0.0095459217)
(-0.13332442 -0.073928544 -0.0096290477)
(-0.14180598 -0.076270227 -0.0097229677)
(-0.15048277 -0.078597842 -0.0098211499)
(-0.15938609 -0.080946213 -0.0099150461)
(-0.1684837 -0.083267731 -0.010002312)
(-0.17779868 -0.085612648 -0.010094536)
(-0.18732001 -0.087935408 -0.010172481)
(-0.19704708 -0.09029046 -0.01024166)
(-0.20697674 -0.092624999 -0.010308946)
(-0.217098 -0.094973526 -0.01037354)
(-0.22742034 -0.097322722 -0.01043245)
(-0.23792556 -0.099667097 -0.010483711)
(-0.24861445 -0.10201879 -0.010541948)
(-0.25948207 -0.10435995 -0.010600137)
(-0.27051785 -0.1067048 -0.010663105)
(-0.28172533 -0.10903937 -0.010729624)
(-0.2930908 -0.11136893 -0.010806656)
(-0.3046136 -0.11368493 -0.010889367)
(-0.31628772 -0.11599241 -0.010980589)
(-0.32810743 -0.11828298 -0.011079762)
(-0.34007281 -0.12055999 -0.011183986)
(-0.35217434 -0.12281791 -0.011293812)
(-0.36441537 -0.12505794 -0.011405053)
(-0.37678584 -0.12727734 -0.011516506)
(-0.38928855 -0.12947492 -0.011624724)
(-0.40191494 -0.13165115 -0.011727492)
(-0.41466529 -0.13380249 -0.011821849)
(-0.42753263 -0.13593145 -0.011905724)
(-0.44051436 -0.1380339 -0.01197747)
(-0.45360394 -0.14011225 -0.012035287)
(-0.46679673 -0.14216345 -0.012079149)
(-0.48008533 -0.14418855 -0.012108634)
(-0.49346376 -0.14618566 -0.012124739)
(-0.50692329 -0.14815557 -0.012128413)
(-0.52045742 -0.15009593 -0.012122233)
(-0.53405561 -0.15200807 -0.01210813)
(-0.54771251 -0.15388967 -0.012088492)
(-0.56141431 -0.15574315 -0.012067784)
(-0.57515906 -0.15756396 -0.012047719)
(-0.5889318 -0.15935629 -0.012032624)
(-0.60272982 -0.16111747 -0.012024258)
(-0.61654325 -0.1628502 -0.012020564)
(-0.63036701 -0.16455589 -0.012031976)
(-0.64419402 -0.16623282 -0.012055046)
(-0.65802065 -0.16788577 -0.012090063)
(-0.67184336 -0.16951543 -0.012137986)
(-0.68565918 -0.17112304 -0.012198294)
(-0.69946719 -0.17271401 -0.012268521)
(-0.71326608 -0.17428655 -0.0123493)
(-0.72705644 -0.1758492 -0.012435672)
(-0.74083912 -0.17739866 -0.012528506)
(-0.75461534 -0.1789442 -0.012622258)
(-0.76838737 -0.18048201 -0.012718)
(-0.78215721 -0.18202041 -0.012810286)
(-0.79592626 -0.18355749 -0.012900629)
(-0.80969851 -0.18509655 -0.012984647)
(-0.82347288 -0.18663979 -0.013064041)
(-0.83725399 -0.18818495 -0.013136994)
(-0.85103907 -0.18973765 -0.013204948)
(-0.86483206 -0.1912909 -0.013267712)
(-0.87863048 -0.19285154 -0.013327561)
(-0.89243399 -0.1944115 -0.013384934)
(-0.9062432 -0.19597542 -0.013443911)
(-0.92005169 -0.19753839 -0.013502241)
(-0.93386636 -0.19909872 -0.013568512)
(-0.94767341 -0.20065985 -0.013634382)
(-0.96148316 -0.20221231 -0.013712308)
(-0.97528953 -0.20376065 -0.01378882)
(-0.0014662703 0.0043413194 0.0057399491)
(-0.0031026686 0.0064329979 0.0059980225)
(-0.0039287969 0.0090582536 0.007986176)
(-0.005191571 0.011376534 0.0083579967)
(-0.0070405921 0.013952726 0.0089830235)
(-0.0092284001 0.016712092 0.0091305477)
(-0.011843703 0.019179978 0.0092666668)
(-0.014870948 0.02188835 0.0091775917)
(-0.018357085 0.024428129 0.0090800253)
(-0.022144723 0.026958027 0.0088817643)
(-0.026399226 0.029435279 0.0086541087)
(-0.030913856 0.031813596 0.0083985417)
(-0.035863992 0.034156151 0.0080960132)
(-0.041069762 0.036389136 0.00781649)
(-0.046646883 0.038553085 0.0074820331)
(-0.052479086 0.040629404 0.0071813562)
(-0.058638287 0.04261352 0.0068365917)
(-0.065044489 0.044521365 0.0065139955)
(-0.071743077 0.046349593 0.0061742136)
(-0.078670292 0.048079026 0.0058474364)
(-0.085870225 0.049755166 0.0054959373)
(-0.093296844 0.051346095 0.0051779057)
(-0.10095487 0.052860352 0.0048324194)
(-0.1088518 0.054322613 0.0045076109)
(-0.11696045 0.055708781 0.0041801818)
(-0.1252955 0.057032941 0.0038517895)
(-0.13384348 0.058307676 0.0035425886)
(-0.14260184 0.059504089 0.0032210575)
(-0.1515796 0.060665358 0.0029191314)
(-0.16074951 0.061740494 0.0026085244)
(-0.17014797 0.062788789 0.0023097651)
(-0.17972961 0.063748887 0.0020126042)
(-0.18953707 0.06467103 0.0017174235)
(-0.19952198 0.065512925 0.0014258279)
(-0.20973013 0.06630619 0.0011300806)
(-0.22010572 0.067019964 0.00084316581)
(-0.23069933 0.067675734 0.00053436941)
(-0.24146527 0.068263054 0.00024022697)
(-0.25242535 0.068777858 -7.2668158e-05)
(-0.26355921 0.069226254 -0.00038457148)
(-0.27487845 0.069603227 -0.00071152118)
(-0.2863598 0.069910829 -0.0010422079)
(-0.29801836 0.070149044 -0.0013887096)
(-0.30983054 0.070318635 -0.0017405317)
(-0.32180664 0.07042036 -0.0021068824)
(-0.33392957 0.070455554 -0.0024801531)
(-0.34620257 0.070425105 -0.0028644934)
(-0.35861356 0.07033043 -0.0032552526)
(-0.37116261 0.070172576 -0.0036535497)
(-0.38383836 0.069952307 -0.0040553341)
(-0.39664069 0.069670894 -0.0044609251)
(-0.40955834 0.069328619 -0.0048661705)
(-0.42258953 0.068925816 -0.0052710592)
(-0.43572506 0.06846325 -0.0056719697)
(-0.44896056 0.0679403 -0.0060685025)
(-0.46228779 0.067357375 -0.0064578861)
(-0.47570208 0.066714408 -0.0068399281)
(-0.48919433 0.066011063 -0.0072123975)
(-0.5027596 0.065247804 -0.0075755633)
(-0.51638945 0.064424801 -0.0079279735)
(-0.53007753 0.063542743 -0.0082701557)
(-0.54381586 0.062602485 -0.0086010613)
(-0.55759846 0.061606036 -0.0089218672)
(-0.57141678 0.06055443 -0.0092314107)
(-0.58526529 0.059451192 -0.0095311029)
(-0.59913622 0.058298087 -0.009819868)
(-0.61302418 0.057099827 -0.010098594)
(-0.62692288 0.05585902 -0.010367252)
(-0.64082649 0.054579692 -0.010624554)
(-0.65472933 0.053266365 -0.010871219)
(-0.66862892 0.051925364 -0.011106468)
(-0.68251998 0.050557825 -0.011329077)
(-0.69640196 0.04917116 -0.011539584)
(-0.71026908 0.047766205 -0.011735519)
(-0.724124 0.04634989 -0.011918664)
(-0.73796227 0.044922461 -0.012085827)
(-0.75178743 0.043489112 -0.012239791)
(-0.76559705 0.042049558 -0.012377811)
(-0.77939542 0.040607892 -0.012502988)
(-0.79318131 0.039162083 -0.012613465)
(-0.80696014 0.037715685 -0.012713243)
(-0.82073062 0.036265051 -0.012800848)
(-0.83449935 0.034813149 -0.012881501)
(-0.84826425 0.03335549 -0.012953798)
(-0.86203219 0.031894448 -0.01302367)
(-0.8758004 0.030425358 -0.013089901)
(-0.88957493 0.028950353 -0.013158361)
(-0.90335234 0.027465236 -0.013227836)
(-0.91713715 0.025972202 -0.013303476)
(-0.93092548 0.024468123 -0.013383917)
(-0.94471978 0.022955532 -0.013472743)
(-0.95851619 0.021432999 -0.01356859)
(-0.97231496 0.019903096 -0.01367243)
(-0.98611311 0.018367073 -0.013783129)
(-0.9999078 0.016826904 -0.013898688)
(0 -1.9857529e-18 0)
(0 -1.4499923e-18 0)
(0 1.3581814e-18 0)
(0 -8.5822473e-19 0)
(0 -7.3901362e-19 0)
(0 4.129809e-18 0)
(0 -1.2260811e-18 0)
(-2.8547018e-18 7.9796144e-19 0)
(0 -7.2930697e-19 0)
(0 1.776742e-18 0)
(0 2.1234774e-18 0)
(0 7.4273146e-19 0)
(0 3.9313658e-19 0)
(0 -8.0074444e-19 0)
(0 5.4430328e-19 0)
(-0.0029915834 0.0020374426 -0.0043605397)
(-0.0038659747 0.0079004261 -0.0065389364)
(-0.0042125192 0.0084985352 -0.0076024086)
(-0.0059999264 0.012580989 -0.0088745451)
(-0.0074391068 0.0144705 -0.0093800674)
(-0.0099145863 0.017669205 -0.0097095132)
(-0.012328911 0.020037334 -0.0099210405)
(-0.015595293 0.02307528 -0.010027655)
(-0.018904635 0.025479182 -0.010031159)
(-0.022898524 0.028369206 -0.010007212)
(-0.027048675 0.030754611 -0.0099582993)
(-0.031659828 0.033343756 -0.0098444459)
(-0.036586989 0.035758975 -0.0097648226)
(-0.041839175 0.038097876 -0.0096267753)
(-0.047423514 0.040414239 -0.0095527666)
(-0.053293683 0.042559045 -0.0094158941)
(-0.059427201 0.044694892 -0.0093755)
(-0.065892866 0.04671261 -0.0092614301)
(-0.072530241 0.048624316 -0.0092350164)
(-0.079548716 0.050539506 -0.0091876699)
(-0.086648064 0.05225074 -0.0091935675)
(-0.094146111 0.054003415 -0.009200506)
(-0.10171283 0.055552981 -0.0092118006)
(-0.10967697 0.0572055 -0.0092942124)
(-0.11768219 0.058562045 -0.0093216223)
(-0.12607051 0.060077814 -0.0094278096)
(-0.13454626 0.061323161 -0.0094862475)
(-0.14333713 0.062669899 -0.0095999588)
(-0.15226206 0.063810968 -0.0096766602)
(-0.16146418 0.064998531 -0.0097851805)
(-0.17082649 0.066034484 -0.0098687366)
(-0.18044521 0.067071197 -0.0099625866)
(-0.19023456 0.067994433 -0.010041228)
(-0.20026522 0.068893769 -0.010118754)
(-0.21047378 0.069701483 -0.010192011)
(-0.22089152 0.070446463 -0.010252851)
(-0.2315051 0.071144118 -0.010314485)
(-0.24231594 0.071768037 -0.010376023)
(-0.25329647 0.072317462 -0.010432759)
(-0.26447137 0.072813698 -0.010493662)
(-0.27580791 0.073230561 -0.010555222)
(-0.28731913 0.073590185 -0.010625186)
(-0.29898519 0.073872493 -0.010698127)
(-0.31081036 0.074092586 -0.01078201)
(-0.32277982 0.07423705 -0.010870939)
(-0.33489601 0.074315732 -0.010970245)
(-0.34714659 0.074319268 -0.011074819)
(-0.35953226 0.074254073 -0.011186598)
(-0.37204379 0.074114589 -0.011302)
(-0.3846799 0.073903973 -0.011419906)
(-0.39743367 0.073619922 -0.011537766)
(-0.41030281 0.073263494 -0.011652138)
(-0.42328163 0.072834715 -0.011762196)
(-0.43636603 0.072333327 -0.011863237)
(-0.44955158 0.071761765 -0.011955691)
(-0.46283232 0.071118447 -0.012035153)
(-0.47620346 0.070407654 -0.012103315)
(-0.48965837 0.069628218 -0.012156887)
(-0.50319062 0.068784189 -0.012198344)
(-0.51679332 0.067876359 -0.012226649)
(-0.5304585 0.066908113 -0.012244471)
(-0.5441788 0.065881568 -0.012252728)
(-0.55794575 0.064800424 -0.012254672)
(-0.57175117 0.06366698 -0.012252203)
(-0.58558708 0.062485616 -0.012248635)
(-0.59944552 0.061259368 -0.01224675)
(-0.61331823 0.059989755 -0.012248878)
(-0.62720077 0.058690592 -0.012258981)
(-0.64108507 0.057343385 -0.012278444)
(-0.65496096 0.055978828 -0.012304726)
(-0.66883534 0.05458101 -0.012344778)
(-0.6826943 0.053162118 -0.01239714)
(-0.69654149 0.051722098 -0.01245949)
(-0.71037382 0.050265756 -0.012533236)
(-0.72419105 0.048795283 -0.012615535)
(-0.73799463 0.047313499 -0.012705243)
(-0.75178545 0.045822883 -0.012799672)
(-0.76556655 0.044325453 -0.012897003)
(-0.77933962 0.042823162 -0.012994289)
(-0.79310876 0.04131738 -0.013089795)
(-0.80687566 0.039809433 -0.013180897)
(-0.82064487 0.038300314 -0.013266703)
(-0.83441684 0.036790241 -0.01334526)
(-0.84819608 0.035280199 -0.013416778)
(-0.8619815 0.033769433 -0.013480539)
(-0.87577635 0.032258764 -0.013537879)
(-0.88957827 0.030746814 -0.013589121)
(-0.90338884 0.029234275 -0.013636844)
(-0.91720451 0.027719575 -0.013682094)
(-0.93102534 0.026202885 -0.013727887)
(-0.94484717 0.024683288 -0.01377584)
(-0.95866903 0.0231601 -0.013828451)
(-0.97248709 0.021633388 -0.013886879)
(-0.98630063 0.020100939 -0.013951832)
(-1.0001066 0.018565704 -0.014022642)
(-1.0123671 0.0032162334 -0.01406337)
(-1.0108124 -0.010584231 -0.014038637)
(-1.0092703 -0.024379044 -0.014013668)
(-1.0077141 -0.038171708 -0.013992872)
(-1.0061757 -0.051957419 -0.013974315)
(-1.0046224 -0.065741836 -0.013957129)
(-1.0030864 -0.079522334 -0.013942817)
(-1.0015409 -0.09330187 -0.013929095)
(-1.0000011 -0.1070792 -0.013916635)
(-0.9984641 -0.1208581 -0.013903484)
(-0.99692734 -0.13463734 -0.013891399)
(-0.99538865 -0.14841843 -0.01387563)
(-0.99385142 -0.16220261 -0.013860362)
(-0.99231409 -0.17599017 -0.013840141)
(-0.99077534 -0.18978353 -0.013816008)
(-0.97543924 -0.2020378 -0.013684124)
(-0.96163841 -0.200498 -0.013577958)
(-0.94783417 -0.19895422 -0.013474794)
(-0.93403279 -0.19740649 -0.013375937)
(-0.92023498 -0.19585309 -0.013286171)
(-0.90644192 -0.19429427 -0.013200828)
(-0.89265712 -0.1927291 -0.013123233)
(-0.87887938 -0.19115905 -0.013050241)
(-0.86511068 -0.18958346 -0.0129815)
(-0.85134913 -0.1880036 -0.012915131)
(-0.83759475 -0.18642007 -0.012848873)
(-0.8238451 -0.18483274 -0.012781073)
(-0.81009904 -0.18324305 -0.012709284)
(-0.79635316 -0.18165038 -0.012631651)
(-0.78260724 -0.18005473 -0.012546671)
(-0.76885749 -0.17845603 -0.012452386)
(-0.75510264 -0.17685314 -0.012347192)
(-0.74134094 -0.17524476 -0.012230436)
(-0.72757134 -0.17362966 -0.012100989)
(-0.71379329 -0.17200555 -0.011958713)
(-0.70000742 -0.17037021 -0.011803517)
(-0.68621409 -0.16872129 -0.011635289)
(-0.67241611 -0.16705565 -0.011454667)
(-0.65861401 -0.16537084 -0.011261089)
(-0.6448146 -0.16366382 -0.011056579)
(-0.63101705 -0.16193272 -0.010840956)
(-0.61723163 -0.16016874 -0.010611493)
(-0.60346223 -0.15838436 -0.010375212)
(-0.58970812 -0.15655733 -0.010123915)
(-0.57598337 -0.15470402 -0.0098639583)
(-0.562291 -0.15281372 -0.0095915993)
(-0.54863838 -0.15088943 -0.0093081364)
(-0.53503178 -0.14892986 -0.0090126525)
(-0.52147762 -0.14693634 -0.0087047412)
(-0.50798333 -0.1449095 -0.0083842207)
(-0.49455471 -0.14285147 -0.0080510826)
(-0.48119899 -0.14076381 -0.0077050948)
(-0.4679219 -0.13864917 -0.0073470725)
(-0.45473052 -0.13650988 -0.0069771902)
(-0.44163006 -0.13434869 -0.0065969055)
(-0.42862758 -0.13216831 -0.0062069714)
(-0.41572809 -0.12997114 -0.0058097844)
(-0.40293823 -0.12776011 -0.0054060653)
(-0.39026308 -0.12553654 -0.004999347)
(-0.37770894 -0.12330364 -0.0045901392)
(-0.36528087 -0.12106132 -0.0041824677)
(-0.35298495 -0.11881293 -0.0037766205)
(-0.34082612 -0.11655686 -0.0033768007)
(-0.32881053 -0.11429669 -0.0029822501)
(-0.31694235 -0.11202969 -0.0025977177)
(-0.30522895 -0.10975896 -0.002220951)
(-0.29367177 -0.10748216 -0.0018562263)
(-0.28228192 -0.10520088 -0.0015010644)
(-0.27105542 -0.10291455 -0.0011572468)
(-0.2600087 -0.1006233 -0.00082525667)
(-0.24913252 -0.098327448 -0.00050175358)
(-0.23843931 -0.096032421 -0.00018526385)
(-0.22792566 -0.093722675 0.00011858352)
(-0.21763452 -0.09141081 0.00041453951)
(-0.20748355 -0.089115482 0.00071789394)
(-0.19754737 -0.086802503 0.0010111111)
(-0.18784287 -0.084483119 0.001292069)
(-0.17828458 -0.082192184 0.0015923917)
(-0.16894755 -0.079880122 0.0018815799)
(-0.15980535 -0.077581376 0.0021844709)
(-0.15089362 -0.075269702 0.002479718)
(-0.14214199 -0.072991383 0.0027850377)
(-0.13364975 -0.070673659 0.0030857497)
(-0.12531398 -0.068403067 0.003416281)
(-0.11721222 -0.06609795 0.0037276053)
(-0.10931173 -0.063816638 0.0040650967)
(-0.10162117 -0.061506391 0.0043920322)
(-0.094185868 -0.059190411 0.0047282763)
(-0.086914888 -0.056879088 0.0050732273)
(-0.079891804 -0.054552396 0.0054308629)
(-0.073134246 -0.05216393 0.0057606963)
(-0.066544842 -0.049832035 0.0061516548)
(-0.060286263 -0.047376134 0.0064699812)
(-0.054193725 -0.045003557 0.0068642141)
(-0.048457602 -0.042476701 0.0071970247)
(-0.042929799 -0.040045303 0.0075769916)
(-0.037715369 -0.037459684 0.0078827513)
(-0.032745251 -0.034971476 0.0082746253)
(-0.028218193 -0.032265981 0.0085402494)
(-0.023854207 -0.029796746 0.0089082659)
(-0.019948894 -0.027063841 0.0091261582)
(-0.016334736 -0.024477315 0.0093814965)
(-0.013165749 -0.021768452 0.0094936884)
(-0.010274201 -0.019184165 0.0095989857)
(-0.007915993 -0.016534867 0.0095211154)
(-0.0058888267 -0.013914876 0.0092378355)
(-0.0045315449 -0.011243517 0.0087478694)
(-0.0033463236 -0.0091286619 0.0080020372)
(-0.0028295601 -0.006396542 0.0061970659)
(-0.0036921997 -0.0043352838 0.0034635408)
(0 2.2624e-18 0)
(0 8.6058208e-19 0)
(0 2.2336529e-18 0)
(0 2.2485374e-18 0)
(0 2.3435204e-18 0)
(0 1.4093539e-18 0)
(0 5.6182933e-20 0)
(0 -1.2770476e-18 -1.4012085e-18)
(0 1.512193e-19 0)
(0 1.3595132e-18 0)
(0 3.2782245e-18 0)
(0 2.8724085e-18 0)
(0 2.0561166e-18 0)
(0 1.9870767e-18 0)
(0 2.2690778e-18 0)
(0 9.4379297e-18 0)
(0 4.018545e-18 0)
(0 1.4746918e-18 0)
(0 2.6617437e-18 0)
(0 -2.3173952e-19 0)
(0 6.204143e-19 0)
(0 7.0695871e-18 0)
(0 -2.8768825e-18 -1.2475059e-18)
(0 4.2050614e-18 0)
(0 5.2567694e-18 0)
(0 1.7371851e-18 0)
(0 7.1106544e-19 0)
(0 1.6504444e-18 0)
(0 2.9756399e-18 0)
(0 3.8274665e-19 0)
(-1.0137148 0.015400739 -0.01401393)
(-1.0137352 0.015512007 -0.014017342)
(-1.0137578 0.015626053 -0.014026386)
(-1.0137843 0.015742692 -0.014038291)
(-1.0138128 0.015862578 -0.014052153)
(-1.0138426 0.015984605 -0.014066701)
(-1.013871 0.016108303 -0.014080992)
(-1.0138973 0.016231388 -0.014092488)
(-1.013919 0.016351776 -0.014102006)
(-1.0139357 0.016468869 -0.014108126)
(-1.013945 0.01657939 -0.014110212)
(-1.0139493 0.016683202 -0.014109125)
(-1.0139454 0.016779156 -0.014105805)
(-1.013938 0.016865932 -0.014101288)
(-1.0139241 0.01694808 -0.014094804)
(-0.98911358 -0.20522942 -0.013870621)
(-0.98913625 -0.20514981 -0.013875761)
(-0.98915874 -0.20506333 -0.013879647)
(-0.98917902 -0.20496894 -0.013882821)
(-0.98919755 -0.20486655 -0.01388318)
(-0.98921258 -0.20475651 -0.013880685)
(-0.98922393 -0.20463997 -0.013874751)
(-0.98923162 -0.20451855 -0.013865839)
(-0.98923579 -0.20439435 -0.013854392)
(-0.98923717 -0.20426939 -0.013841173)
(-0.98923636 -0.20414598 -0.013827458)
(-0.98923466 -0.20402532 -0.013814188)
(-0.98923275 -0.20390957 -0.013802882)
(-0.98923212 -0.2037982 -0.013795007)
(-0.98923277 -0.20368921 -0.01379119)
(-0.0012641833 -0.0041208259 -0.0050292879)
(-0.0018281791 -0.0059458332 -0.0061047759)
(-0.0023313664 -0.0085126318 -0.0074986446)
(-0.0037125482 -0.010639569 -0.0081727506)
(-0.0049788657 -0.012950193 -0.0087933667)
(-0.0071120882 -0.015190843 -0.0091339877)
(-0.0093875148 -0.017494207 -0.0093313904)
(-0.012331122 -0.019878394 -0.0094190414)
(-0.015447039 -0.02219155 -0.0094578603)
(-0.019125843 -0.024611154 -0.0094092541)
(-0.023054786 -0.02693501 -0.0093186606)
(-0.02741813 -0.029378893 -0.009235144)
(-0.032043763 -0.031680434 -0.0090978133)
(-0.037034052 -0.034096542 -0.0089810667)
(-0.042278598 -0.036380474 -0.0088472047)
(-0.047858519 -0.038765574 -0.0087444162)
(-0.053675418 -0.041028428 -0.0086261409)
(-0.0597484 -0.043342514 -0.0085557247)
(-0.066092346 -0.045595126 -0.0084779485)
(-0.072664075 -0.047858525 -0.0084420948)
(-0.079459384 -0.050076042 -0.0084190165)
(-0.086494783 -0.052284761 -0.0084268742)
(-0.093737336 -0.054490987 -0.0084441621)
(-0.10119503 -0.056650069 -0.0084968951)
(-0.10887968 -0.058825424 -0.0085529504)
(-0.11676002 -0.060963573 -0.0086368143)
(-0.12485845 -0.063116423 -0.0087208372)
(-0.13316402 -0.065236677 -0.0088240333)
(-0.14169153 -0.067367461 -0.0089255935)
(-0.150412 -0.069495796 -0.0090308232)
(-0.15935776 -0.071610664 -0.0091345894)
(-0.16850709 -0.073739384 -0.0092376395)
(-0.1778702 -0.07586627 -0.0093370423)
(-0.18743166 -0.077999916 -0.0094290807)
(-0.19720636 -0.08013948 -0.0095168579)
(-0.20717982 -0.082279836 -0.009598995)
(-0.2173477 -0.08443745 -0.0096766313)
(-0.22771019 -0.086590249 -0.0097516789)
(-0.238266 -0.088760303 -0.0098228471)
(-0.24899785 -0.090928317 -0.0099005316)
(-0.25991398 -0.093103601 -0.0099768658)
(-0.27099649 -0.095273862 -0.010056302)
(-0.28224743 -0.097453972 -0.010144534)
(-0.29366296 -0.099623109 -0.010236899)
(-0.30522974 -0.10179209 -0.010337185)
(-0.31695064 -0.10395358 -0.010445304)
(-0.32881789 -0.10610502 -0.010558706)
(-0.34082804 -0.10824705 -0.010679654)
(-0.35297763 -0.110375 -0.010803099)
(-0.3652634 -0.11248948 -0.010929833)
(-0.37768096 -0.11458793 -0.011055312)
(-0.39022791 -0.11666924 -0.011179455)
(-0.40289977 -0.11873353 -0.01129703)
(-0.41569336 -0.1207785 -0.0114085)
(-0.4286037 -0.12280543 -0.011509408)
(-0.44162668 -0.12481212 -0.011599827)
(-0.45475646 -0.12680011 -0.011677151)
(-0.46798746 -0.12876736 -0.011742015)
(-0.4813128 -0.13071503 -0.0117932)
(-0.49472565 -0.13264208 -0.011832162)
(-0.50821812 -0.13454856 -0.011859363)
(-0.52178221 -0.13643374 -0.011877324)
(-0.53540896 -0.13829752 -0.011887117)
(-0.54909103 -0.14013971 -0.011891949)
(-0.56281671 -0.14195923 -0.011894473)
(-0.57658301 -0.14375527 -0.011897684)
(-0.5903763 -0.14553225 -0.011901198)
(-0.60419019 -0.14728092 -0.011912754)
(-0.61801909 -0.14900847 -0.011928136)
(-0.63185381 -0.1507099 -0.011956279)
(-0.64569183 -0.15239083 -0.011992869)
(-0.65952755 -0.15404853 -0.012040038)
(-0.67335777 -0.15568626 -0.012097225)
(-0.68717954 -0.15730387 -0.012164607)
(-0.70099229 -0.15890467 -0.012240697)
(-0.71479474 -0.16048784 -0.012324934)
(-0.72858775 -0.16205955 -0.012413686)
(-0.74237215 -0.16361749 -0.012507504)
(-0.75614972 -0.16516915 -0.012601542)
(-0.76992226 -0.16671129 -0.012697064)
(-0.78369229 -0.16825253 -0.012788584)
(-0.79746145 -0.16978904 -0.012878375)
(-0.81123308 -0.17132769 -0.012962362)
(-0.82500738 -0.17286588 -0.013042043)
(-0.83878817 -0.17440847 -0.013115492)
(-0.85257329 -0.175953 -0.013184791)
(-0.86636657 -0.17750306 -0.01324968)
(-0.88016479 -0.17905548 -0.013311783)
(-0.89396967 -0.18061226 -0.0133728)
(-0.9077781 -0.18217109 -0.013433379)
(-0.92158939 -0.18373122 -0.013497042)
(-0.93540297 -0.18529086 -0.013563015)
(-0.94921257 -0.18685033 -0.013633558)
(-0.96302463 -0.18840374 -0.013709919)
(-0.97683107 -0.18995376 -0.013787474)
(7.4712787e-06 -0.0036990069 -0.0043251381)
(-0.00046762343 -0.0043614762 -0.0056553248)
(-0.0015545189 -0.0072759505 -0.0063435277)
(-0.0025989232 -0.0086421548 -0.0072943854)
(-0.0041499283 -0.010940703 -0.0075798741)
(-0.0061485831 -0.012690587 -0.0079432953)
(-0.0085824249 -0.014863847 -0.0080359691)
(-0.011371104 -0.016766287 -0.0081850001)
(-0.014639274 -0.018873986 -0.0081903523)
(-0.018277162 -0.020843789 -0.0081614093)
(-0.022274796 -0.022943185 -0.0081370677)
(-0.026636716 -0.024944232 -0.0080218649)
(-0.031319824 -0.027036628 -0.0079729824)
(-0.036331201 -0.029034189 -0.0078487016)
(-0.041635435 -0.031117793 -0.0077995146)
(-0.047255679 -0.033114432 -0.0076602838)
(-0.0530787 -0.035172305 -0.0076453273)
(-0.059246597 -0.037152115 -0.0075511794)
(-0.06560036 -0.03919231 -0.0075399037)
(-0.072229251 -0.041145263 -0.0075020412)
(-0.079066165 -0.043155541 -0.0075267849)
(-0.086149578 -0.045100084 -0.0075248199)
(-0.093427733 -0.047074295 -0.0075911071)
(-0.1009457 -0.048998625 -0.0076389051)
(-0.10866258 -0.050946519 -0.007728171)
(-0.11659555 -0.052864642 -0.0078066893)
(-0.12473983 -0.05478903 -0.0079211187)
(-0.13309413 -0.056691261 -0.0080249477)
(-0.14165786 -0.058615999 -0.0081417166)
(-0.15043263 -0.060515678 -0.0082544063)
(-0.15942017 -0.062435206 -0.0083799648)
(-0.16861516 -0.06434833 -0.008486237)
(-0.17801485 -0.066276265 -0.0086023888)
(-0.18762512 -0.068201682 -0.0087052669)
(-0.19744058 -0.070146434 -0.0088089869)
(-0.20745285 -0.072097853 -0.0089051532)
(-0.21767159 -0.07406237 -0.0090023065)
(-0.22807718 -0.076035898 -0.009093088)
(-0.23866973 -0.078018194 -0.0091878414)
(-0.24944527 -0.080016694 -0.0092792538)
(-0.26039982 -0.082015013 -0.0093736573)
(-0.27152294 -0.084030226 -0.0094742705)
(-0.28282139 -0.086043571 -0.0095754453)
(-0.29427126 -0.088061938 -0.0096898528)
(-0.30588416 -0.090083189 -0.0098053289)
(-0.31764697 -0.092100908 -0.009930296)
(-0.32955685 -0.094115171 -0.010061072)
(-0.34161034 -0.096124025 -0.010197026)
(-0.35380339 -0.098124349 -0.010336362)
(-0.36613185 -0.10011537 -0.010478291)
(-0.37859216 -0.10209549 -0.010619579)
(-0.39118161 -0.10406293 -0.010758539)
(-0.40389465 -0.10601836 -0.010892656)
(-0.4167291 -0.10795887 -0.011020167)
(-0.4296787 -0.10988677 -0.01113836)
(-0.44274007 -0.11179924 -0.0112466)
(-0.45590623 -0.11369847 -0.01134285)
(-0.46917245 -0.11558233 -0.01142731)
(-0.48253068 -0.11745286 -0.011499034)
(-0.49597516 -0.1193081 -0.011559241)
(-0.50949652 -0.12114935 -0.011608493)
(-0.52308797 -0.12297515 -0.011648522)
(-0.5367402 -0.12478648 -0.011680568)
(-0.55044502 -0.12658171 -0.01170769)
(-0.56419274 -0.12836041 -0.011732097)
(-0.57797843 -0.13012476 -0.011754548)
(-0.59178391 -0.1318656 -0.011782232)
(-0.60561504 -0.13358885 -0.01181134)
(-0.61945947 -0.1352979 -0.011844205)
(-0.63330881 -0.13698713 -0.011886274)
(-0.64715919 -0.13865851 -0.011934667)
(-0.66100563 -0.14030907 -0.011993192)
(-0.67484506 -0.14194321 -0.012058665)
(-0.68867507 -0.14355802 -0.012133619)
(-0.70249532 -0.14515758 -0.012214835)
(-0.71630413 -0.14673999 -0.012302561)
(-0.73010286 -0.14831137 -0.012393452)
(-0.74389187 -0.14986825 -0.012488533)
(-0.75767373 -0.15141838 -0.012582882)
(-0.77144931 -0.15295859 -0.012677871)
(-0.78522249 -0.15449646 -0.012769094)
(-0.79899371 -0.156029 -0.012858417)
(-0.81276718 -0.15756225 -0.012942368)
(-0.82654294 -0.15909717 -0.013021819)
(-0.84032449 -0.16063382 -0.013097364)
(-0.85411059 -0.16217411 -0.013167568)
(-0.86790363 -0.16371698 -0.013234172)
(-0.8817022 -0.16526556 -0.013299092)
(-0.89550658 -0.16681693 -0.01336148)
(-0.90931545 -0.16837221 -0.01342653)
(-0.92312643 -0.16992935 -0.013490512)
(-0.93694111 -0.17148703 -0.013560664)
(-0.95075105 -0.17304499 -0.013631006)
(-0.96456533 -0.1745984 -0.013709129)
(-0.97837222 -0.17614829 -0.013785648)
(0.00066732261 -0.0027804359 -0.003891723)
(0.00011632995 -0.0036575153 -0.0047041862)
(-0.00036189187 -0.0057181515 -0.00557134)
(-0.001686753 -0.0071270268 -0.0062221344)
(-0.0031838507 -0.0089025016 -0.006429146)
(-0.0053690348 -0.010554388 -0.0067052912)
(-0.0076582053 -0.012217598 -0.0068424947)
(-0.010686149 -0.013942593 -0.0069377396)
(-0.013884101 -0.015550931 -0.0069305377)
(-0.017596655 -0.01735409 -0.0069610463)
(-0.021593718 -0.018967427 -0.0068915895)
(-0.026029281 -0.02078693 -0.0068742227)
(-0.030711089 -0.022416443 -0.0067917469)
(-0.035782082 -0.02423604 -0.0067576655)
(-0.04111905 -0.025910907 -0.0066551588)
(-0.046740544 -0.027688127 -0.006657226)
(-0.052660934 -0.029397413 -0.0065787878)
(-0.058826512 -0.031150943 -0.0065725054)
(-0.065235399 -0.032872339 -0.0065494055)
(-0.071903021 -0.03459983 -0.0065740821)
(-0.078788391 -0.036334321 -0.006582007)
(-0.085907591 -0.038029569 -0.0066466207)
(-0.093243307 -0.039761753 -0.0066967394)
(-0.10079689 -0.041442168 -0.0067851399)
(-0.10856223 -0.043166623 -0.00686725)
(-0.11654019 -0.04483988 -0.006983407)
(-0.12473068 -0.046546928 -0.0070938763)
(-0.13312483 -0.048230982 -0.0072149315)
(-0.14173945 -0.049930427 -0.007341667)
(-0.1505536 -0.051619439 -0.0074735588)
(-0.15958596 -0.05332735 -0.0075966427)
(-0.16881703 -0.055033359 -0.0077247078)
(-0.17826788 -0.056755073 -0.007849069)
(-0.18791575 -0.058484884 -0.0079680554)
(-0.19777241 -0.060230955 -0.0080853949)
(-0.20782599 -0.061989556 -0.008197746)
(-0.21807443 -0.063761922 -0.0083089399)
(-0.2285079 -0.065549129 -0.0084188626)
(-0.23914902 -0.067358282 -0.0085268932)
(-0.24996279 -0.069172873 -0.0086330617)
(-0.26095728 -0.071010328 -0.00874943)
(-0.2721238 -0.072855593 -0.0088600981)
(-0.28345602 -0.074708732 -0.0089885817)
(-0.29495041 -0.076575164 -0.0091135866)
(-0.30660441 -0.078443338 -0.0092486334)
(-0.31840622 -0.080316756 -0.0093909676)
(-0.33035831 -0.082191022 -0.0095375133)
(-0.34245231 -0.084065296 -0.0096901109)
(-0.35468645 -0.085935819 -0.0098461498)
(-0.36705486 -0.087802643 -0.010004785)
(-0.37955636 -0.089663509 -0.010161963)
(-0.39218417 -0.091517089 -0.010318839)
(-0.40493672 -0.093363535 -0.010469644)
(-0.41780806 -0.095200815 -0.010615517)
(-0.43079443 -0.097030475 -0.010752017)
(-0.44389019 -0.098850197 -0.010879798)
(-0.45708997 -0.10066211 -0.010995816)
(-0.47038734 -0.10246442 -0.011101185)
(-0.48377572 -0.1042586 -0.011193999)
(-0.49724767 -0.10604342 -0.01127641)
(-0.51079539 -0.10781962 -0.01134761)
(-0.52441102 -0.1095867 -0.0114099)
(-0.53808564 -0.11134391 -0.011464549)
(-0.55181104 -0.11309141 -0.011513735)
(-0.5655783 -0.11482719 -0.011558894)
(-0.57938029 -0.11655261 -0.011603119)
(-0.59320555 -0.11826589 -0.011648707)
(-0.60704955 -0.11996356 -0.011691425)
(-0.62090847 -0.12164658 -0.011745499)
(-0.63476814 -0.12331576 -0.011802387)
(-0.64862934 -0.12496865 -0.011865926)