/*--------------------------------*- C++ -*----------------------------------*\
  =========                 |
  \\      /  F ield         | OpenFOAM: The Open Source CFD Toolbox
   \\    /   O peration     | Website:  https://openfoam.org
    \\  /    A nd           | Version:  6
     \\/     M anipulation  |
\*---------------------------------------------------------------------------*/
FoamFile
{
    version     2.0;
    format      ascii;
    class       pointScalarField;
    location    "1.88";
    object      E;
}
// * * * * * * * * * * * * * * * * * * * * * * * * * * * * * * * * * * * * * //

dimensions      [1 -1 -2 0 0 0 0];

internalField   nonuniform List<scalar> 
625
(
796.34251
-4453.1484
46626.563
22055.097
4607.8528
-1104.8079
21070.187
40435.686
-758.74841
-1211.0798
-2857.7289
9906.5207
-2105.7615
63209.762
2382.6479
-132.17093
1586.6749
4979.8532
4686.1459
10568.275
13185.5
13756.847
16671.81
10943.813
6109.6801
-4580.5447
-17003.688
-34285.593
-50729.969
-68929.332
-82692.497
-93564.94
-90924.649
-84200.82
-65183.34
-44293.198
-1081.8211
7143.8283
-4773.6623
8060.1106
489.15221
-7322.9068
-3961.9458
-15852.729
-15111.581
-16277.135
-15298.689
-5837.9048
4094.9063
21932.764
43524.308
70383.891
98840.388
128000.95
151927.66
169015.27
172834.46
161882.18
138320.17
89601.244
698.1579
-229.47534
-1798.803
5924.2716
20774.69
-6330.9867
-78.913991
2413.7522
-16061.163
-15631.327
-14842.516
-19219.508
-13710.153
-11992.587
2788.5822
17163.452
40177.841
66638.198
92200.423
118591.8
136424.01
147097.39
144985.74
131443.91
106244.33
81933.575
49380.218
1743.4765
8369.2454
6583.1784
-12135.178
-27941.76
-41613.509
-48495.042
-48323.36
-44819.365
-36683.59
-27997.537
-18630.989
-11421.018
-4098.0677
-675.9293
5912.1046
2941.7655
1967.1511
3574.0068
2770.0865
2069.0068
-5559.624
6367.5217
-2655.5673
5717.2347
1582.2111
1419.0671
-477.08907
-3246.3719
-4309.6837
-5025.1408
19875.605
21943.443
20107.307
44268.45
45157.284
43372.28
2187.9051
-1999.098
-2846.3177
-5243.5537
-9375.265
-9847.7016
-14859.831
-15371.304
-17393.819
-16040.699
-10935.577
-3997.0987
7654.7778
22708.745
41190.736
61066.582
81380.012
98622.306
111325.11
112952.52
110256.49
93691.648
61483.565
793.93503
232.13077
960.68386
-1721.1601
-1882.4786
-3872.284
-6227.0022
-5019.8457
-4973.3047
-211.0301
2575.6083
8939.3001
15432.784
22472.714
29181.718
35201.855
40243.816
42713.623
44959.075
40393.658
37246.802
26674.463
15537.097
-117.63852
-3923.1742
-2274.4836
199.92435
5412.6577
6698.026
14420.096
15044.104
15546.895
13716.251
5698.3962
-2596.4007
-17511.01
-33686.438
-53068.509
-71549.49
-89395.841
-100640.31
-107593.48
-99877.47
-84078.95
-55965.15
-7448.1505
-578.12337
-324.50497
-665.29199
-901.44171
-1077.7433
-306.57494
-1615.0096
-2837.653
-2336.3754
6734.548
9896.3361
7646.9433
11312.23
7546.2549
11211.71
450.96419
-4364.4052
3370.713
-1114.4834
-199.024
-5270.5056
-1234.14
-8309.516
387.32026
-9472.7993
-7224.6679
-11344.081
-9317.1028
-16522.781
-12183.473
-12903.349
-21486.383
-14493.852
-15492.055
-18758.866
-17927.563
-9531.3432
-17851.603
-11857.202
-5780.218
-9641.6541
-8061.2787
9740.6153
2518.9141
6383.962
25758.833
22082.838
24859.225
51023.667
46642.013
47900.807
77590.001
75824.331
77643.53
107261.27
106959.47
106585.82
134946.72
135691.26
134995.62
156468.89
158103.67
157245.08
169489.64
171406.23
170063.86
169053.92
170072.37
169148.85
154693.25
155592.29
155081.12
125969.23
128345.72
128230.25
87842.671
86746.011
88387.828
7899.4754
8688.3987
8344.0556
3553.5528
2323.784
-2018.6028
61341.529
60296.494
57877.31
2762.9282
3953.6239
2819.6621
171.92543
-2102.4684
-185.65402
6300.8386
4364.2275
7932.6968
2199.4391
1346.281
-24.493769
9433.9566
7266.1023
7890.7409
8560.3297
4973.9898
7275.7589
11302.895
11627.887
10013.426
12503.386
9458.6654
10820.716
11853.562
11452.411
10958.253
9192.2091
5379.9965
10742.323
4206.6381
3855.2993
6181.8123
-2182.0588
-5553.2966
870.68554
-13511.464
-15296.543
-8294.0331
-25699.925
-28986.606
-19547.433
-39905.236
-42852.647
-32337.925
-54225.14
-57588.315
-46019.229
-66391.6
-69572.271
-57468.572
-73895.965
-76952.972
-66025.416
-74883.591
-79835.976
-67330.01
-66893.233
-76053.094
-62722.374
-48620.862
-57553.388
-47680.26
-32145.07
-33813.57
-30440.676
2516.9423
2234.05
3258.3123
2638.2312
-483.62078
-3796.7763
-2093.8164
-8236.7697
-8071.6349
-11023.449
-13768.7
-15228.247
-12686.571
-10605.599
-2069.3039
7428.3866
21527.675
37855.997
55673.996
72606.206
87138.524
95644.427
98250.721
91913.465
75426.854
65928.446
238.47401
4031.9078
-1088.3906
2485.6415
-1163.9842
3015.6104
766.47256
4096.7639
7380.4114
9286.389
10524.232
12042.022
8227.6795
5011.2042
-1741.5539
-9312.4481
-16800.433
-24261.88
-29518.797
-32531.468
-31552.361
-28759.1
-8880.608
-598.06659
-5653.7265
1379.03
-2547.2545
9490.268
16077.543
15487.548
26138.542
19516.979
20100.052
7437.6563
-4584.3837
-23769.363
-44916.393
-67319.374
-88336.564
-104988.57
-114647.48
-114227.15
-102476.72
-79371.884
-44420.846
-1252.3246
1142.0857
2318.8014
2466.0364
-1052.2816
-745.00461
-417.11905
-3166.323
-4397.6674
-2149.0993
-4369.0022
-2704.4628
-2660.0449
-5978.9045
-8728.1445
-6931.8174
-8545.3858
-8261.0942
-7848.508
-12352.122
-13366.346
-11765.868
-12236.674
-12600.822
-12190.475
-13654.629
-16645.548
-15377.287
-11460.237
-12287.046
-10937.437
-6547.8516
-9160.1052
-8920.4117
1214.9867
-820.92646
826.37723
14344.131
11103.627
11914.474
30332.326
26648.88
27959.107
49270.663
44934.7
46159.451
69527.063
65107.859
66263.877
89076.856
84289.372
85469.017
105233.16
101609.99
101522.3
115820.44
111055.84
112636.48
112421.4
119044.2
114322.74
108047.3
111917.61
107116.81
92107.646
90230.42
88911.054
64288.029
64861.407
64805.166
-76.365215
369.32802
483.52676
1527.2486
2776.7312
3350.4312
740.90772
-2355.2446
361.1136
408.66662
364.99912
2305.6412
1222.8084
-3520.8151
-1716.2068
-1072.8365
-3626.6899
-222.12937
748.69184
-3904.2282
-1026.4335
1923.1778
-2360.4324
-693.39008
2756.9831
-622.73258
2344.1904
6694.9161
3691.7964
5556.0861
9317.2437
6669.6564
8256.844
12010.773
10145.572
11263.144
14366.223
13171.892
12813.655
15116.397
14352.668
13087.169
16194.927
15213.308
12988.11
15566.673
14060.277
11373.319
15153.777
13005.776
9829.8226
13183.288
9817.3973
7263.85
12030.921
7681.6698
5268.9923
7835.5742
4973.7196
1838.7341
-4171.5263
18289.66
1681.4946
129.4146
-4237.5077
-4516.9927
221.74921
-2445.9903
-1854.1107
2069.444
1618.5379
951.48221
-4647.5961
-6868.3115
-6297.0473
135.40173
3490.5745
3507.8943
5102.3527
2456.8665
1831.1891
7854.9029
10418.316
8861.9866
13788.313
14985.878
14541.075
19760.265
19964.78
18234.981
19673.889
23383.125
22383.568
22369.835
22048.025
22121.326
17451.933
19456.803
19031.496
9868.1319
9456.0581
10574.61
-1410.2085
-3119.8687
-1666.7361
-17529.828
-21606.766
-17645.45
-35339.85
-41775.881
-36982.349
-55412.999
-64387.246
-57540.788
-74893.666
-84923.837
-77130.924
-91378.581
-101934.96
-93758.808
-102543.99
-111947.88
-104137.36
-105560.82
-112449.37
-106503.76
-97059.114
-102885.76
-98142.887
-79402.955
-81518.466
-79889.947
-48164.982
-48251.967
-48052.139
-3820.2976
-3492.1628
-2654.5241
)
;

boundaryField
{
    free
    {
        type            zeroGradient;
    }
    fixed
    {
        type            zeroGradient;
    }
    freeTop
    {
        type            zeroGradient;
    }
}


// ************************************************************************* //
