/*--------------------------------*- C++ -*----------------------------------*\
  =========                 |
  \\      /  F ield         | OpenFOAM: The Open Source CFD Toolbox
   \\    /   O peration     | Website:  https://openfoam.org
    \\  /    A nd           | Version:  6
     \\/     M anipulation  |
\*---------------------------------------------------------------------------*/
FoamFile
{
    version     2.0;
    format      ascii;
    class       pointVectorField;
    location    "0.16";
    object      lm;
}
// * * * * * * * * * * * * * * * * * * * * * * * * * * * * * * * * * * * * * //

dimensions      [1 -2 -1 0 0 0 0];

internalField   nonuniform List<vector> 
28033
(
(0 0 0)
(0 0 0)
(3224.1847 83.024271 -13.642489)
(3136.6489 -625.45688 10.939069)
(0 0 0)
(0 0 0)
(3139.4383 -627.03059 -12.6306)
(3224.6582 89.353723 7.1637497)
(0 0 0)
(0 0 0)
(0 0 0)
(0 0 0)
(0 0 0)
(0 0 0)
(0 0 0)
(0 0 0)
(0 0 0)
(0 0 0)
(0 0 0)
(0 0 0)
(0 0 0)
(0 0 0)
(0 0 0)
(3219.1129 42.935243 -7.8178444)
(3214.7471 2.3214682 -2.3821391)
(3210.3993 -39.783469 1.3395751)
(3205.9008 -83.54582 3.7763586)
(3201.2579 -128.65959 4.7671166)
(3196.2733 -174.68591 4.4575716)
(3191.2614 -221.86195 3.6451853)
(3185.6543 -269.22135 2.1217742)
(3179.8329 -316.92831 0.49880583)
(3173.9319 -364.12082 -1.0673799)
(3167.3921 -410.7663 -1.8477968)
(3161.1404 -456.20153 -1.5173153)
(3154.5488 -500.64189 -0.49630089)
(3148.108 -543.31893 2.0797132)
(3142.0844 -584.73348 6.0058042)
(9.5656793 19.753784 22.188097)
(8.237251 29.941261 34.633935)
(8.8996052 39.970925 44.465687)
(11.649638 50.823279 52.245592)
(16.929339 60.943007 57.432067)
(25.324358 71.537578 60.871534)
(36.94232 81.880865 61.696939)
(51.850163 92.126806 60.758185)
(70.251234 102.22016 57.782119)
(91.824782 111.97374 53.086165)
(116.36936 121.12146 46.806533)
(143.68617 129.8452 39.607256)
(173.30747 137.5807 31.575623)
(204.80142 144.41659 23.276576)
(237.45403 149.89679 14.96582)
(270.75299 154.33724 7.1781558)
(304.28464 157.57711 0.15924339)
(337.40312 159.52031 -5.8547328)
(369.64155 160.26611 -10.661354)
(400.75209 160.22705 -14.18576)
(430.4217 159.32603 -16.170608)
(458.49557 157.81717 -16.939601)
(485.07806 156.03993 -16.368882)
(510.09301 153.93564 -14.581242)
(533.89554 151.9281 -11.988307)
(556.56966 149.99273 -8.5830713)
(578.28426 148.29137 -4.7006758)
(599.3764 146.8595 -0.43092104)
(620.18229 145.80107 3.7140297)
(640.90855 145.03548 7.736656)
(661.71994 144.5808 11.207863)
(683.08234 144.35415 14.080296)
(704.97694 144.38595 16.152705)
(727.68053 144.32285 17.311524)
(751.19937 144.37357 17.367813)
(775.47185 144.21205 16.43893)
(800.61267 143.94255 14.814174)
(826.42906 143.29504 12.278206)
(852.62856 142.20517 9.1638376)
(879.25375 140.70251 5.7135036)
(905.92078 138.6798 1.9035749)
(932.54322 136.14993 -2.0168991)
(958.9008 133.08305 -6.0383876)
(984.76725 129.64772 -10.038406)
(1009.8555 125.92705 -13.896195)
(1033.7625 122.17701 -17.294229)
(1056.0308 118.64673 -19.945087)
(1076.1696 115.69796 -21.350246)
(1093.637 113.68503 -21.013851)
(1108.0914 113.02873 -18.445106)
(1119.3453 114.09915 -13.292791)
(1127.6264 117.23815 -5.4521678)
(1133.5393 122.67858 4.8516714)
(1138.1753 130.52113 17.016492)
(1142.9924 140.7046 30.096244)
(1149.7156 152.98164 42.898523)
(1160.104 166.95125 54.144421)
(1175.7251 182.0748 62.67508)
(1197.7014 197.74635 67.642825)
(1226.5337 213.37092 68.682374)
(1262.0154 228.41104 65.973443)
(1303.2231 242.49942 60.289246)
(1348.6918 255.42327 52.77647)
(1396.7348 267.11304 44.87497)
(1445.3344 277.90347 38.250571)
(1493.285 287.92116 33.624629)
(1539.5921 297.49509 32.333047)
(1583.91 307.09117 34.222026)
(1627.0223 316.82691 39.150147)
(1670.0306 326.87262 45.943966)
(1714.6152 336.81151 53.343117)
(1762.5078 346.43286 60.082829)
(1815.5213 355.1937 64.597935)
(1874.9642 362.33504 65.726986)
(1941.5769 367.30178 62.725946)
(2015.2736 369.2047 55.435603)
(2095.263 367.84586 44.141553)
(2180.0813 362.48551 29.737348)
(2267.7335 353.52917 13.211074)
(2356.0941 340.5566 -3.9207601)
(2442.8962 324.55833 -20.605984)
(2526.2565 305.56946 -35.500702)
(2604.6311 284.61006 -47.90404)
(2676.9682 262.2634 -57.120759)
(2742.8275 239.35629 -63.107953)
(2802.3097 216.75617 -65.835216)
(2855.8832 194.87408 -65.809658)
(2904.3757 174.46799 -63.381874)
(2948.7626 155.73668 -59.237247)
(2990.1068 139.14506 -53.733905)
(3029.4275 124.74211 -47.585881)
(3067.7613 112.60857 -40.85687)
(3105.858 102.80658 -34.159316)
(3144.5878 94.652332 -27.461968)
(3184.156 88.352816 -20.519698)
(7.7921117 -21.681522 -28.955743)
(11.07028 -32.192469 -35.980163)
(12.28662 -44.952837 -49.723346)
(13.96803 -53.952905 -57.283324)
(20.291254 -66.189359 -63.312042)
(28.572718 -77.007046 -66.757457)
(40.001485 -88.035412 -67.977784)
(55.0642 -98.85041 -66.730879)
(73.587972 -109.53677 -63.374071)
(95.275521 -119.65776 -57.819086)
(120.53506 -129.53177 -50.713555)
(148.27567 -138.52681 -42.074026)
(178.72584 -147.03068 -32.677366)
(211.00838 -154.47306 -23.14239)
(244.43499 -160.94662 -13.626409)
(278.74187 -166.25396 -5.1220982)
(312.87306 -170.26033 2.4025955)
(346.56472 -173.20662 8.4022746)
(379.24232 -174.80948 12.592546)
(410.5073 -175.28811 15.149137)
(440.10634 -174.89286 16.030208)
(467.91149 -173.56322 15.296397)
(493.8801 -171.76114 13.300992)
(518.07952 -169.48859 10.27268)
(540.68781 -167.14656 6.5378621)
(561.9839 -164.91152 2.3199902)
(582.20043 -162.95419 -2.0186139)
(601.69926 -161.42996 -6.3650567)
(620.8145 -160.44714 -10.417646)
(639.8124 -160.0061 -14.103278)
(659.08262 -160.15307 -17.277093)
(678.69721 -160.77403 -19.898173)
(699.00426 -161.82551 -21.903381)
(720.12514 -163.17077 -23.193816)
(742.27873 -164.70444 -23.715458)
(765.45599 -166.30403 -23.390179)
(789.82246 -167.83473 -22.090825)
(815.46712 -169.31668 -19.884274)
(842.21194 -170.60873 -16.61452)
(870.02046 -171.66594 -12.475883)
(898.58525 -172.47297 -7.5730431)
(927.55279 -172.96494 -2.1868484)
(956.41196 -173.14185 3.3214607)
(984.5457 -172.98791 8.5027797)
(1011.2371 -172.54179 12.845189)
(1035.7344 -171.87705 15.799272)
(1057.2878 -171.13727 16.832305)
(1075.2726 -170.53527 15.484679)
(1089.2519 -170.36921 11.428758)
(1099.0996 -170.99853 4.5458033)
(1105.0758 -172.84316 -5.021893)
(1107.8745 -176.33267 -16.832046)
(1108.629 -181.87779 -30.141036)
(1108.8365 -189.81624 -43.952124)
(1110.2322 -200.36974 -57.108272)
(1114.5966 -213.60576 -68.432402)
(1123.5401 -229.41749 -76.88717)
(1138.2848 -247.51746 -81.737787)
(1159.4918 -267.46362 -82.68367)
(1187.1636 -288.70273 -79.92152)
(1220.6371 -310.63013 -74.149572)
(1258.7055 -332.6664 -66.466698)
(1299.7887 -354.33093 -58.210757)
(1342.2411 -375.29265 -50.753839)
(1384.5573 -395.40185 -45.279067)
(1425.7286 -414.70326 -42.596728)
(1465.2363 -433.44294 -42.988687)
(1503.5308 -451.84486 -46.200908)
(1541.2945 -470.51003 -51.348034)
(1580.0855 -489.41476 -57.631408)
(1621.6024 -509.06082 -63.317801)
(1667.4463 -529.18285 -67.275142)
(1719.2039 -549.91703 -68.314175)
(1777.8261 -570.6771 -65.693367)
(1843.7257 -591.0262 -59.092582)
(1916.6514 -610.23273 -48.672408)
(1995.7067 -627.64618 -35.004318)
(2079.3998 -642.54574 -19.055671)
(2165.9133 -654.43722 -1.9566636)
(2253.1952 -662.902 15.054351)
(2339.2552 -667.85113 30.862417)
(2422.2878 -669.33169 44.494944)
(2500.8517 -667.69608 55.292661)
(2573.9665 -663.43185 62.878645)
(2641.1146 -657.17872 67.197879)
(2702.2606 -649.67409 68.449216)
(2757.7448 -641.62956 67.029058)
(2808.2216 -633.78082 63.449404)
(2854.5098 -626.72202 58.252729)
(2897.5689 -620.99738 51.958996)
(2938.3384 -616.97791 45.033413)
(2977.7596 -614.91842 37.832478)
(3016.7025 -614.89189 30.659579)
(3055.9009 -616.84939 23.749841)
(3095.8497 -620.47769 17.072287)
(0 0 0)
(0 0 0)
(0 0 0)
(0 0 0)
(0 0 0)
(0 0 0)
(0 0 0)
(0 0 0)
(0 0 0)
(0 0 0)
(0 0 0)
(0 0 0)
(0 0 0)
(0 0 0)
(0 0 0)
(14.579018 -9.6914409 21.652217)
(12.654574 -37.258574 38.934999)
(10.470502 -40.705323 49.354375)
(14.070381 -57.222985 60.16582)
(18.317997 -66.69155 65.498636)
(27.480375 -78.159308 68.936217)
(39.021177 -89.54529 69.095931)
(55.30633 -100.62883 67.822643)
(74.050652 -110.69157 62.639095)
(97.00254 -121.67512 56.727656)
(122.87285 -131.53162 48.660764)
(150.58994 -139.65326 40.267762)
(181.0781 -149.13161 30.655151)
(212.52522 -155.29391 22.049602)
(245.12797 -162.54884 13.024374)
(278.09125 -167.36106 5.8517157)
(310.86638 -171.00964 -0.31322686)
(343.27923 -174.16384 -6.0089596)
(375.15141 -175.35246 -9.198817)
(405.48255 -176.08046 -11.969344)
(434.97664 -175.7358 -12.893143)
(462.80382 -174.43493 -12.72493)
(489.21262 -172.6093 -11.88644)
(513.9635 -170.77314 -9.8885777)
(537.33282 -168.80001 -7.1688535)
(559.12936 -166.8568 -3.9645641)
(580.06318 -165.51945 -0.35840748)
(600.0053 -164.14195 3.4844009)
(619.45412 -163.87222 7.1499718)
(638.99236 -163.76962 10.772136)
(658.37836 -164.28894 13.839253)
(678.52895 -165.20254 16.299587)
(699.32842 -166.43166 18.020001)
(721.04144 -167.8567 18.82277)
(743.93749 -169.40223 18.876921)
(767.77291 -170.93105 17.662273)
(792.84957 -172.61367 15.701245)
(818.92293 -173.87045 12.745284)
(845.81817 -175.08933 9.0668921)
(873.48035 -176.01428 4.6679917)
(901.53796 -176.72277 -0.12093311)
(929.69735 -177.1106 -5.1065166)
(957.50879 -177.17717 -9.9717283)
(984.46897 -176.91239 -14.376369)
(1009.9873 -176.35364 -17.94267)
(1033.4399 -175.59462 -20.27866)
(1054.2142 -174.80362 -21.000008)
(1071.7756 -174.23573 -19.759474)
(1085.7608 -174.22374 -16.304799)
(1096.0665 -175.16606 -10.523082)
(1102.9284 -177.49173 -2.4966536)
(1106.9723 -181.6211 7.4577545)
(1109.2156 -187.91688 18.781052)
(1111.0103 -196.64055 30.692934)
(1113.9247 -207.91343 42.263067)
(1119.5759 -221.69788 52.51502)
(1129.4294 -237.79076 60.561185)
(1144.6078 -255.84574 65.736991)
(1165.7314 -275.40333 67.717501)
(1192.8307 -295.95085 66.588761)
(1225.3467 -316.97182 62.850476)
(1262.2281 -338.01555 57.352445)
(1302.1085 -358.74396 51.173871)
(1343.5399 -378.95465 45.435617)
(1385.2069 -398.6204 41.167522)
(1426.2993 -417.87927 39.056791)
(1466.3285 -436.88322 39.474697)
(1505.3411 -455.40323 41.927846)
(1544.5672 -475.06677 46.533152)
(1585.0621 -494.7986 51.907754)
(1628.0117 -514.96973 57.112686)
(1675.3021 -535.69247 60.808456)
(1727.9948 -556.63546 62.304521)
(1787.0275 -577.30895 60.714998)
(1852.7696 -597.21969 55.729893)
(1924.9668 -615.72189 47.360441)
(2002.7881 -632.1952 36.034898)
(2084.9073 -646.05942 22.480295)
(2169.6367 -656.8696 7.6397264)
(2255.1104 -664.34454 -7.4398772)
(2339.4682 -668.42486 -21.754486)
(2421.0394 -669.23937 -34.423429)
(2498.4696 -667.14177 -44.806857)
(2570.8322 -662.62258 -52.51166)
(2637.6351 -656.31254 -57.433345)
(2698.8278 -648.88837 -59.683698)
(2754.7042 -641.04648 -59.571275)
(2805.8538 -633.45492 -57.485972)
(2853.0095 -626.68393 -53.867283)
(2897.023 -621.24408 -49.121868)
(2938.7532 -617.48166 -43.613071)
(2979.0447 -615.65744 -37.626514)
(3018.6948 -615.83495 -31.420494)
(3058.407 -617.98833 -25.147147)
(3098.712 -621.74118 -19.079407)
(3144.8309 -586.39116 -7.2949999)
(3150.4274 -544.85386 -2.3796712)
(3156.3421 -502.49773 0.91102582)
(3162.6972 -458.01783 3.1233286)
(3168.2068 -412.90828 3.6365539)
(3174.5809 -366.01291 3.6475971)
(3179.8886 -318.76107 1.953165)
(3185.5725 -270.94676 0.28993747)
(3191.0865 -222.98909 -1.5295016)
(3196.2245 -174.88299 -3.6768401)
(3200.5978 -127.72919 -4.7538237)
(3206.3951 -81.766652 -5.5088285)
(3209.9284 -36.398904 -4.0872904)
(3215.1545 6.5333344 -1.9183828)
(3219.421 48.300893 2.3307623)
(3183.2919 94.758449 14.325651)
(3142.6663 101.23169 21.113834)
(3103.2018 109.16885 28.388543)
(3064.3379 119.05771 35.524416)
(3025.5043 131.01678 42.805201)
(2985.7163 145.22029 49.643381)
(2944.0791 161.48374 55.824877)
(2899.5759 179.69327 60.908904)
(2851.2855 199.50361 64.45374)
(2798.2783 220.48999 66.034747)
(2739.8805 242.11671 65.23967)
(2675.6067 263.78191 61.718928)
(2605.4058 284.72413 55.395674)
(2529.5661 304.32581 46.306595)
(2448.9759 321.7334 34.782996)
(2364.9157 336.46076 21.347043)
(2279.0673 348.0302 6.8770424)
(2193.2825 356.14352 -7.685239)
(2109.4991 360.74178 -21.348316)
(2029.4464 361.92211 -33.144342)
(1954.5413 360.04371 -42.374883)
(1885.622 355.52463 -48.584446)
(1822.9967 348.97111 -51.695826)
(1766.3212 340.87852 -52.04725)
(1714.5399 331.90349 -50.301728)
(1666.7471 322.38239 -47.402222)
(1621.2616 312.73669 -44.161025)
(1576.8248 302.41964 -41.124935)
(1532.1719 293.06005 -40.811692)
(1486.6975 282.72184 -41.758907)
(1440.7133 272.08408 -44.806438)
(1394.4291 260.73114 -49.396756)
(1348.9337 248.43492 -54.944334)
(1305.5447 235.14437 -60.45273)
(1265.6502 220.89853 -64.943515)
(1230.5059 205.92797 -67.500489)
(1201.0019 190.59828 -67.460605)
(1177.5181 175.40775 -64.497305)
(1159.8587 160.91279 -58.672211)
(1147.2756 147.67267 -50.411418)
(1138.5834 136.17384 -40.425034)
(1132.3207 126.78294 -29.594409)
(1126.9516 119.69882 -18.838073)
(1121.0473 114.95211 -8.9887417)
(1113.4404 112.40267 -0.69655756)
(1103.3192 111.78597 5.6223295)
(1090.2505 112.7406 9.8035302)
(1074.1716 114.8743 11.906207)
(1055.2847 117.7846 12.153368)
(1034.0056 121.14109 10.882416)
(1010.8389 124.60041 8.4860428)
(986.25685 128.0241 5.2903995)
(960.79342 131.15099 1.7122529)
(934.76687 133.97735 -2.0696959)
(908.46128 136.41156 -5.7927504)
(882.18453 138.4517 -9.2056374)
(856.02297 140.09867 -12.275171)
(830.11038 141.29915 -14.786541)
(804.74149 142.16678 -16.819751)
(779.65064 142.80785 -17.946687)
(755.0943 143.30117 -18.532989)
(731.36125 143.18803 -18.148016)
(708.04424 143.58091 -17.010163)
(685.28992 143.65987 -15.318329)
(662.93484 143.90907 -12.820791)
(641.18771 144.09096 -9.6598177)
(619.60408 144.99634 -6.2208837)
(598.16397 145.69755 -2.2489723)
(576.72481 147.08246 1.5838687)
(554.98065 148.55747 5.5803254)
(532.81619 150.29781 9.3535751)
(509.87546 152.30007 12.49647)
(485.94687 154.44814 15.345083)
(460.8868 156.16094 16.915342)
(434.31662 157.77471 17.16314)
(406.13654 159.25188 16.612845)
(376.43542 159.17987 13.794277)
(345.18121 159.33814 10.122273)
(312.49504 157.14671 4.2418261)
(279.40339 154.91829 -2.6824855)
(245.50851 150.91819 -10.669408)
(211.70681 145.5853 -19.644444)
(179.01146 139.03282 -28.949132)
(148.26851 131.90628 -38.160376)
(118.78125 123.47322 -46.670245)
(92.524432 114.28589 -53.915215)
(69.988036 104.26996 -59.770482)
(49.947473 94.605627 -63.576421)
(34.504244 83.887591 -64.977412)
(22.098577 73.209901 -64.034522)
(14.180162 61.590169 -60.37323)
(9.2468013 51.227309 -54.37245)
(7.4499756 40.384037 -46.361015)
(8.9286459 29.328136 -33.625157)
(15.034282 18.340859 -16.794391)
(0 0 0)
(0 0 0)
(0 0 0)
(0 0 0)
(0 0 0)
(0 0 0)
(0 0 0)
(0 0 0)
(0 0 0)
(0 0 0)
(0 0 0)
(0 0 0)
(0 0 0)
(0 0 0)
(0 0 0)
(0 0 0)
(0 0 0)
(0 0 0)
(0 0 0)
(0 0 0)
(0 0 0)
(0 0 0)
(0 0 0)
(0 0 0)
(0 0 0)
(0 0 0)
(0 0 0)
(0 0 0)
(0 0 0)
(0 0 0)
(3132.9321 -619.17547 11.053272)
(3129.1182 -613.33741 11.188322)
(3125.0321 -608.10983 10.856316)
(3120.8795 -603.41466 9.9001784)
(3116.9962 -599.4525 8.1836591)
(3113.8593 -596.37993 5.857664)
(3111.8127 -594.45839 3.0694798)
(3111.0931 -593.82697 0.035828826)
(3111.8082 -594.54748 -3.0497619)
(3113.8388 -596.56544 -5.9396478)
(3117.0467 -599.78726 -8.4719432)
(3121.1791 -603.91001 -10.486592)
(3125.6757 -608.77624 -11.855196)
(3130.3597 -614.15655 -12.518466)
(3134.8755 -620.16803 -12.751956)
(3218.0407 77.182267 -13.683738)
(3212.0281 72.291623 -13.568215)
(3205.9839 68.027667 -13.062222)
(3200.3511 64.466867 -11.822083)
(3195.1917 61.590686 -9.9932845)
(3191.2273 59.546504 -7.6002829)
(3188.8233 58.488697 -4.8840719)
(3188.249 58.479414 -2.0258638)
(3189.5573 59.554335 0.75751553)
(3192.6097 61.636583 3.2302683)
(3197.0347 64.597222 5.2413595)
(3202.415 68.344247 6.6086207)
(3208.1453 72.577858 7.3437852)
(3213.8693 77.608819 7.4776105)
(3219.3473 82.849681 7.2301994)
(3.7589491 17.17314 22.776613)
(4.2548568 26.974591 29.775761)
(4.8335866 36.739673 38.58645)
(7.8058631 45.415278 44.017822)
(13.116242 53.362407 48.68815)
(21.671081 61.078324 50.962362)
(33.366122 68.562793 51.690407)
(48.427307 75.766415 50.737621)
(66.870716 82.942742 48.006007)
(88.494802 89.702214 43.996186)
(113.34306 96.395785 38.744186)
(140.89612 102.63204 32.581086)
(170.76733 108.49539 25.924558)
(202.4761 113.75512 18.964985)
(235.51267 118.49286 12.103612)
(269.29937 122.4948 5.6743541)
(303.16867 125.71557 -0.080163806)
(336.63722 128.15771 -5.0532465)
(369.2314 129.90362 -8.9798193)
(400.65917 130.91604 -11.745192)
(430.51384 131.35099 -13.419837)
(458.82783 131.20579 -13.91017)
(485.50077 130.71934 -13.34214)
(510.60709 129.91333 -11.885439)
(534.36183 128.92387 -9.5891956)
(556.93416 127.88457 -6.7350051)
(578.60644 126.8585 -3.4777972)
(599.62758 125.88222 -0.027061159)
(620.31942 124.98611 3.3859423)
(640.90543 124.21824 6.5375582)
(661.7426 123.51704 9.332326)
(683.00997 122.93306 11.495728)
(704.8222 122.35263 12.963427)
(727.45476 121.75242 13.650512)
(750.94592 121.19754 13.534141)
(775.28059 120.46709 12.605239)
(800.42418 119.65177 11.035417)
(826.24415 118.59225 8.7622606)
(852.60132 117.27212 6.1245997)
(879.28493 115.66225 3.087012)
(906.11909 113.6817 -0.12921972)
(932.87082 111.30636 -3.5121859)
(959.3177 108.74361 -6.8824772)
(985.22679 106.02353 -10.169782)
(1010.2202 103.40496 -13.19135)
(1033.9441 101.14428 -15.750915)
(1055.8945 99.536395 -17.564045)
(1075.5861 98.907994 -18.260528)
(1092.5184 99.522075 -17.485427)
(1106.3533 101.60003 -14.888898)
(1116.9587 105.24897 -10.256473)
(1124.57 110.47018 -3.5505412)
(1129.8228 117.15166 5.0071173)
(1133.8023 125.08009 14.929591)
(1137.9631 133.98129 25.477398)
(1144.0098 143.54959 35.744016)
(1153.6894 153.5053 44.768818)
(1168.5593 163.61284 51.691349)
(1189.7508 173.72941 55.884898)
(1217.7949 183.79331 57.082578)
(1252.5123 193.8146 55.428304)
(1293.0535 203.88586 51.480215)
(1337.9857 214.05181 46.10529)
(1385.633 224.37919 40.401843)
(1434.0604 234.9685 35.395899)
(1482.0421 245.47016 32.036635)
(1528.5007 255.83895 31.035428)
(1572.9783 265.91857 32.137004)
(1616.2441 275.30229 35.713803)
(1659.4851 283.74467 40.402212)
(1704.1397 290.82528 45.631472)
(1752.0707 296.14829 50.207251)
(1805.065 299.4844 53.074864)
(1864.4673 300.51125 53.344873)
(1931.0625 299.13283 50.461693)
(2004.8508 295.25203 44.297415)
(2085.1073 289.00315 35.043217)
(2170.3973 280.36034 23.355155)
(2258.794 269.71946 10.026302)
(2348.0876 257.05307 -3.8574598)
(2436.0314 242.94902 -17.40499)
(2520.6365 227.42681 -29.62771)
(2600.3088 211.00376 -39.824066)
(2673.8204 193.85365 -47.574916)
(2740.8307 176.6296 -52.705845)
(2801.0978 159.29956 -55.234767)
(2855.2701 142.40318 -55.451521)
(2903.9967 126.15144 -53.626831)
(2948.396 110.86146 -50.242873)
(2989.3606 96.777413 -45.649272)
(3028.2381 84.081443 -40.274689)
(3065.697 72.883576 -34.300071)
(3102.967 63.337025 -28.106547)
(3140.8254 55.11694 -21.597168)
(3179.2576 48.717867 -14.786714)
(-1.3201242 14.892398 19.625093)
(-0.86837314 21.124358 26.078236)
(1.3009674 30.540031 32.464625)
(4.5360517 37.575871 37.252444)
(10.787515 44.109926 40.502901)
(19.632051 50.375679 42.290595)
(31.653176 56.123826 42.719134)
(47.056259 61.710508 41.684513)
(65.644181 66.994763 39.276187)
(87.501029 72.224327 35.904123)
(112.4034 77.143387 31.317596)
(139.99856 82.004819 26.225313)
(169.92871 86.521652 20.572911)
(201.72096 90.777107 14.850489)
(234.84447 94.58961 9.156042)
(268.62778 97.988603 3.8790518)
(302.5841 100.86064 -0.92287517)
(336.13786 103.19259 -4.9038316)
(368.87187 104.97373 -8.0965488)
(400.33232 106.2277 -10.350387)
(430.33806 106.96477 -11.634154)
(458.70908 107.29725 -11.996429)
(485.42953 107.24768 -11.482277)
(510.6093 106.91656 -10.164684)
(534.3937 106.37261 -8.2251996)
(557.00081 105.73193 -5.8178274)
(578.69684 105.01345 -3.0743944)
(599.74342 104.2716 -0.22289762)
(620.46542 103.59213 2.553814)
(641.14344 102.91399 5.1179906)
(662.00483 102.29946 7.2913021)
(683.3136 101.67824 8.9237919)
(705.25126 101.07799 9.9882581)
(727.99767 100.44523 10.384714)
(751.50072 99.733875 10.104218)
(775.93118 98.915822 9.1782222)
(801.09608 97.959474 7.6862507)
(826.98062 96.782325 5.7492487)
(853.34782 95.392261 3.4567056)
(880.0529 93.729232 0.88734702)
(906.89279 91.773685 -1.8062305)
(933.58446 89.590104 -4.58812)
(959.92504 87.250116 -7.3625808)
(985.57479 84.91033 -10.007026)
(1010.1932 82.807663 -12.447788)
(1033.3656 81.17186 -14.445227)
(1054.6181 80.3164 -15.780534)
(1073.4798 80.50823 -16.144922)
(1089.5305 81.969547 -15.257686)
(1102.4915 84.842034 -12.834514)
(1112.3253 89.135869 -8.7325341)
(1119.3301 94.749453 -2.9365568)
(1124.1866 101.45797 4.341653)
(1127.9794 108.95088 12.689074)
(1132.1199 116.88474 21.490237)
(1138.2324 124.92733 30.00833)
(1147.9564 132.82085 37.473224)
(1162.7402 140.41513 43.204088)
(1183.6296 147.69435 46.713631)
(1211.1023 154.75846 47.804847)
(1244.9995 161.80527 46.614403)
(1284.5145 169.07179 43.575333)
(1328.3569 176.74633 39.424474)
(1374.9338 184.9716 34.961305)
(1422.6028 193.79476 31.078041)
(1470.126 202.91555 28.433605)
(1516.1171 212.02896 27.584298)
(1560.9226 221.16365 28.536376)
(1604.9151 229.3654 31.005756)
(1648.9173 236.31967 34.690441)
(1694.6489 241.39283 38.613097)
(1743.5552 244.26849 42.079205)
(1797.4727 244.6673 44.115572)
(1857.5786 242.45599 44.096201)
(1924.6695 237.82228 41.546199)
(1998.7077 230.80512 36.376688)
(2079.0492 221.90087 28.702059)
(2164.305 211.20645 19.121405)
(2252.6697 199.37062 8.1473967)
(2341.97 186.38139 -3.2166079)
(2430.0688 172.9111 -14.407012)
(2514.9792 158.83043 -24.482494)
(2594.908 144.61458 -32.892076)
(2669.09 130.67485 -39.541047)
(2736.6022 116.26406 -43.678954)
(2797.4784 101.98472 -45.919954)
(2852.0934 88.071855 -46.120418)
(2901.1689 74.671597 -44.630453)
(2945.6955 61.907016 -41.792229)
(2986.6735 50.080808 -37.810444)
(3025.2691 39.206641 -33.161475)
(3062.3873 29.523227 -27.785346)
(3099.0797 21.159906 -22.21612)
(3136.3999 13.708947 -15.994109)
(3174.1568 7.9726373 -9.6162795)
(-4.0588865 11.623502 16.83552)
(-3.6519531 16.834263 21.579208)
(-1.9860424 23.961143 26.995249)
(2.2848978 29.864529 30.198477)
(8.9886891 35.013731 32.75845)
(18.286698 40.007761 33.87214)
(30.938191 44.492681 34.006422)
(46.453487 48.615909 32.958044)
(65.311313 52.722966 30.991822)
(87.276714 56.494868 27.971187)
(112.20168 60.341519 24.332724)
(139.79772 63.939296 20.085817)
(169.70611 67.503756 15.580137)
(201.43935 70.807415 10.90395)
(234.43763 73.932901 6.4172622)
(268.21063 76.720281 2.1520629)
(302.11367 79.185572 -1.5752575)
(335.66903 81.250651 -4.7697382)
(368.36687 82.906516 -7.2522764)
(399.88357 84.15035 -8.9936717)
(429.90695 85.008856 -9.9648214)
(458.34464 85.476222 -10.18376)
(485.12645 85.648087 -9.6865959)
(510.34478 85.525974 -8.5752145)
(534.15187 85.24295 -6.9640223)
(556.77403 84.78903 -4.9484347)
(578.48545 84.249918 -2.717115)
(599.56755 83.698101 -0.41480324)
(620.32585 83.105142 1.8170169)
(641.02959 82.530449 3.8451347)
(661.97757 81.970266 5.5015393)
(683.36615 81.424614 6.7333126)
(705.40991 80.855142 7.4565842)
(728.19775 80.247413 7.6129256)
(751.82511 79.614716 7.2491008)
(776.31737 78.827105 6.3703118)
(801.5401 77.943251 5.109381)
(827.44519 76.851763 3.4507581)
(853.87581 75.56531 1.5543367)
(880.61081 73.993347 -0.52816369)
(907.42861 72.228452 -2.7097854)
(934.07344 70.275519 -4.9563654)
(960.2621 68.21892 -7.1273596)
(985.66154 66.22576 -9.2061108)
(1009.9062 64.490794 -11.111615)
(1032.5366 63.284772 -12.633085)
(1053.1155 62.836007 -13.623154)
(1071.1957 63.391338 -13.831099)
(1086.4147 65.1084 -13.029123)
(1098.5627 68.069746 -11.008528)
(1107.6857 72.231896 -7.6528821)
(1114.1408 77.443691 -2.9546445)
(1118.6586 83.44364 2.9164679)
(1122.3227 89.909644 9.6398326)
(1126.5136 96.50294 16.731742)
(1132.7775 102.91838 23.61935)
(1142.6546 108.94679 29.700304)
(1157.486 114.4974 34.439253)
(1178.2196 119.61666 37.450089)
(1205.2841 124.47506 38.573415)
(1238.4968 129.31634 37.886926)
(1277.1107 134.42177 35.731785)
(1319.9393 139.99252 32.663439)
(1365.4679 146.22839 29.230435)
(1412.3357 153.00868 26.308062)
(1459.0463 160.23589 24.004951)
(1505.1686 167.66637 23.610464)
(1550.2533 174.49289 23.573726)
(1594.63 180.29074 25.65307)
(1639.4246 184.84479 28.099639)
(1685.9746 187.4426 31.036205)
(1735.9408 187.98738 33.486391)
(1790.8648 186.23264 34.877364)
(1851.8461 182.17707 34.72455)
(1919.5409 175.85929 32.597113)
(1993.9293 167.67265 28.490579)
(2074.3723 157.87761 22.435541)
(2159.535 146.85651 14.87501)
(2247.6646 134.99052 6.2535428)
(2336.7179 122.5565 -2.7479899)
(2424.5816 109.87719 -11.582734)
(2509.3178 97.020931 -19.565178)
(2589.4429 84.323054 -26.422743)
(2663.5161 71.691526 -31.718507)
(2731.2435 59.193481 -35.058549)
(2792.5238 46.840261 -36.817543)
(2847.5542 35.055351 -37.087404)
(2896.9687 23.67833 -35.943994)
(2941.7643 12.909566 -33.631945)
(2982.7835 2.7759501 -30.360192)
(3021.3376 -6.5436878 -26.428268)
(3058.1679 -14.94846 -21.785752)
(3094.5019 -22.292583 -16.886003)
(3131.426 -28.975603 -11.258096)
(3168.7541 -34.164281 -5.3566795)
(-5.6750932 9.5161034 13.515407)
(-5.9834888 13.119034 17.289738)
(-3.8034237 18.450237 20.956032)
(0.75365555 22.913513 23.526041)
(7.8915659 26.677689 25.360447)
(17.972799 30.659287 25.998317)
(30.777557 33.822687 26.007223)
(46.72566 37.017593 25.168265)
(65.810097 39.855687 23.327838)
(87.877528 42.761258 21.067172)
(112.83286 45.447072 18.038563)
(140.42811 48.194904 14.769651)
(170.25811 50.796864 11.141)
(201.8526 53.340878 7.5871822)
(234.79929 55.709884 4.0068015)
(268.41281 57.905173 0.77220846)
(302.24736 59.851207 -2.1774273)
(335.71074 61.517634 -4.6119367)
(368.38971 62.880851 -6.5530091)
(399.86177 63.927537 -7.88649)
(429.91007 64.654788 -8.6497655)
(458.33627 65.107584 -8.7942837)
(485.13845 65.273712 -8.3993523)
(510.37437 65.255011 -7.500561)
(534.20732 65.0204 -6.1867022)
(556.85588 64.676032 -4.5719705)
(578.58918 64.259288 -2.7882558)
(599.69864 63.767536 -0.94233026)
(620.4961 63.276008 0.82484322)
(641.27589 62.781737 2.3698617)
(662.27237 62.301522 3.6299301)
(683.76552 61.799426 4.5074185)
(705.87759 61.320473 4.940346)
(728.78316 60.811836 4.94147)
(752.49832 60.218644 4.5010601)
(777.06509 59.566862 3.6945977)
(802.37109 58.767164 2.523278)
(828.39333 57.855972 1.0769794)
(854.82108 56.68883 -0.46573132)
(881.55278 55.290185 -2.1202742)
(908.28611 53.689349 -3.8139485)
(934.8071 51.862256 -5.4851261)
(960.74854 49.995344 -7.1503992)
(985.78773 48.156883 -8.7192696)
(1009.5411 46.582728 -10.116133)
(1031.5598 45.473895 -11.220399)
(1051.421 45.049915 -11.901311)
(1068.7118 45.51831 -11.968142)
(1083.131 47.01116 -11.252012)
(1094.5379 49.588355 -9.593699)
(1103.0461 53.192033 -6.9010518)
(1109.0697 57.664288 -3.1761032)
(1113.3671 62.75034 1.4550713)
(1117.0156 68.142043 6.7443359)
(1121.3491 73.515248 12.324014)
(1127.8342 78.587676 17.758909)
(1137.91 83.165196 22.588795)
(1152.8126 87.167627 26.406377)
(1173.4059 90.647377 28.918599)
(1200.0665 93.776352 29.988673)
(1232.609 96.787295 29.679339)
(1270.3568 99.96433 28.242732)
(1312.181 103.53545 26.036212)
(1356.7715 107.62589 23.603201)
(1402.754 112.24564 21.33212)
(1449.1206 117.31689 19.784223)
(1494.8604 122.39608 19.006708)
(1540.2183 127.19941 19.373368)
(1585.3095 131.29436 20.652731)
(1631.0415 134.0314 22.331004)
(1678.8321 135.0254 24.355649)
(1729.9319 134.09594 25.936436)
(1785.8146 130.83757 26.878795)
(1847.5875 125.28404 26.660671)
(1915.7832 117.84713 25.064171)
(1990.3819 108.60708 21.884139)
(2070.7221 98.023851 17.298305)
(2155.537 86.415888 11.551761)
(2243.2223 74.266097 4.9837226)
(2331.7171 61.780707 -1.8737357)
(2419.1461 49.388976 -8.6476764)
(2503.5359 37.13422 -14.80233)
(2583.3993 25.290323 -20.104754)
(2657.6284 13.761208 -24.148806)
(2725.6253 2.8531558 -26.880592)
(2787.0432 -7.844115 -28.328449)
(2842.3049 -18.052088 -28.568001)
(2891.9533 -27.724334 -27.665127)
(2936.8916 -36.97075 -25.812307)
(2977.9691 -45.550191 -23.154011)
(3016.4485 -53.526879 -19.912538)
(3053.0848 -60.743266 -16.00312)
(3089.1207 -67.147484 -11.918425)
(3125.9339 -73.152143 -6.997939)
(3163.1767 -77.908396 -2.1283984)
(-6.7566455 6.6892478 10.049808)
(-7.3149695 9.0200572 12.340449)
(-5.1905715 12.953928 15.358717)
(-0.56403767 16.115459 17.176203)
(7.4009918 18.971618 18.36244)
(17.51978 21.629705 18.771137)
(30.847241 24.020883 18.83443)
(47.067778 26.06278 17.912204)
(66.295856 28.230279 16.732948)
(88.437156 30.088903 14.893177)
(113.45142 32.083173 12.736528)
(140.98555 33.941015 10.231516)
(170.69663 35.840408 7.6689301)
(202.25093 37.632598 4.9357827)
(235.00744 39.373503 2.3844789)
(268.54794 40.957864 -0.076194448)
(302.26165 42.386629 -2.2377119)
(335.66341 43.61716 -4.107765)
(368.26329 44.621931 -5.5664431)
(399.72819 45.396926 -6.6327152)
(429.7457 45.944057 -7.2256983)
(458.18842 46.251222 -7.3913437)
(484.99678 46.380633 -7.1118064)
(510.23798 46.308741 -6.4434294)
(534.0654 46.110773 -5.4386139)
(556.69446 45.813446 -4.2011925)
(578.41787 45.421429 -2.7982146)
(599.51528 45.006516 -1.3619102)
(620.31947 44.569252 -0.0021781453)
(641.0834 44.137932 1.2034631)
(662.13436 43.697064 2.1556784)
(683.65212 43.299114 2.77151)
(705.82882 42.892875 3.057278)
(728.80289 42.456551 2.9761144)
(752.57938 42.013029 2.5616885)
(777.21201 41.488569 1.8624205)
(802.59072 40.844074 0.92238763)
(828.63593 40.015149 -0.11632161)
(855.22501 39.011192 -1.267936)
(881.93502 37.796434 -2.5282606)
(908.70211 36.349442 -3.7970545)
(935.10865 34.754624 -5.0910767)
(960.92871 33.019251 -6.335196)
(985.74011 31.295254 -7.5192899)
(1009.1391 29.749715 -8.6096513)
(1030.6794 28.567017 -9.5114884)
(1049.9451 27.946194 -10.123782)
(1066.5566 28.062135 -10.310253)
(1080.2595 29.039825 -9.9346782)
(1090.9735 30.925246 -8.8682114)
(1098.8736 33.67059 -7.0295872)
(1104.4267 37.132832 -4.4035197)
(1108.4252 41.084813 -1.0649708)
(1111.9482 45.246594 2.8164019)
(1116.3023 49.322558 6.9832627)
(1122.8934 53.054073 11.116453)
(1133.0826 56.252154 14.875918)
(1148.0198 58.833569 17.951361)
(1168.4937 60.835439 20.102003)
(1194.8339 62.391053 21.209924)
(1226.8427 63.718995 21.291251)
(1263.8881 65.06432 20.489194)