/*--------------------------------*- C++ -*----------------------------------*\
  =========                 |
  \\      /  F ield         | OpenFOAM: The Open Source CFD Toolbox
   \\    /   O peration     | Website:  https://openfoam.org
    \\  /    A nd           | Version:  6
     \\/     M anipulation  |
\*---------------------------------------------------------------------------*/
FoamFile
{
    version     2.0;
    format      ascii;
    class       pointScalarField;
    location    "0.91";
    object      E;
}
// * * * * * * * * * * * * * * * * * * * * * * * * * * * * * * * * * * * * * //

dimensions      [1 -1 -2 0 0 0 0];

internalField   nonuniform List<scalar> 
625
(
16.083527
-2435.1486
20712.897
19075.848
1361.565
-593.64311
19354.778
19918.725
-24.699916
-184.13088
-595.67862
20613.818
17967.461
19934.883
1908.2625
-11.350023
-249.71593
924.48712
-947.58496
850.99081
413.68646
663.11992
1900.3809
1878.1314
2531.8657
3496.151
4476.8237
5223.2545
6658.677
7746.2233
9223.4883
10723.704
12757.943
14191.096
16657.413
17617.197
19823.431
3548.1592
-2011.4241
6813.2189
4339.2593
2279.0048
8087.3522
3073.1248
5930.2328
6108.5666
5610.5435
7042.7544
7393.4186
8163.9717
8927.2138
9997.4467
10952.002
12094.492
13404.435
14826.8
15973.322
17996.187
18472.936
20462.508
127.53395
-69.095461
-1086.7044
3017.8605
10946.698
-2443.8252
2936.0768
10749.15
459.34933
6494.8932
4948.2317
5387.414
6842.2753
5951.5891
7951.1612
8427.2927
9335.5048
10816.934
11459.391
12860.273
13889.217
15000.623
16094.329
16949.019
17836.428
19320.059
18578.601
15531.237
20389.859
20225.982
17353.071
16458.533
14688.379
13207.629
11665.24
10227.746
8914.4604
7772.1912
6818.3228
5490.0488
5241.1776
3688.5606
3552.1706
1841.1732
1648.0671
1612.939
774.65035
553.96842
-2125.3291
2647.2101
-1679.0953
2980.6634
-152.3117
-315.79968
-638.03474
-2207.2119
-2730.7892
-3289.6581
18641.496
19126.67
18574.736
20115.822
20456.16
20025.199
2027.6104
573.72234
343.96191
920.16657
-242.52208
1360.6317
772.34779
1740.7905
2138.3198
2639.5308
3937.1187
4533.6936
5498.9579
6415.1157
7510.764
8456.7172
9793.402
10832.59
12363.082
13683.158
15401.223
16502.658
20210.646
384.1426
-223.6352
282.7101
-919.21923
-5.8088152
123.91807
-463.08422
793.11786
669.68927
1900.2401
2243.3453
3256.4555
4213.8785
5408.0785
6436.5335
7796.9246
8977.4054
10273.6
11975.467
12906.041
15083.995
16037.435
20691.189
580.12354
-1741.3641
-1829.7358
-2235.1433
-1008.8659
-2801.7286
-330.73795
-713.81543
237.60579
1321.8144
1918.1736
3237.8007
4128.61
5195.6033
6160.4763
7481.7158
8476.2557
10107.129
11199.589
13461.251
14858.696
17446.287
20377.042
-199.12683
-208.85373
-348.86227
-394.03023
-471.32488
-165.64315
-549.72304
-998.50906
-1059.4953
3697.4574
5371.685
3997.9494
6591.7571
4250.9863
5978.3309
2692.5502
-192.79423
4767.4378
4127.0614
5720.9597
1778.3676
7890.6814
4342.7388
8409.5579
4334.029
5498.145
5076.4522
6402.8817
5166.8786
6457.7062
5670.675
4371.5025
6574.1417
5593.1991
6760.2056
5554.3153
7088.0185
5860.2715
7729.282
6381.8636
7366.4344
6762.8599
8101.1452
7291.371
8010.7159
8125.2843
8717.6216
9067.3474
9660.7832
9340.4088
9523.0916
10450.419
10462.62
10962.218
11534.136
11523.19
11815.15
12723.015
12619.211
12874.152
13852.13
13839.717
14093.067
15106.655
15072.723
15212.501
16204.17
16332.317
16197.371
17322.213
17309.604
17151.7
18000.366
18232.397
17972.48
19444.245
19259.722
19030.62
20578.944
20806.211
20199.314
17331.981
17508.205
15828.509
20315.746
20334.969
19540.356
1272.5959
2849.2456
1408.1795
-1029.4862
-1283.529
-1025.095
2209.8405
740.61718
3006.2871
-404.77287
-655.47306
-465.67159
1900.9982
923.76687
1920.5787
1671.554
-661.95013
2048.2989
1646.9058
1402.3879
2254.6116
2571.6542
1254.9705
3019.7951
3028.6068
2222.2761
2780.3429
3770.1493
2126.2609
4771.0733
3760.9849
3575.4797
4166.6306
5313.1581
3848.6867
5574.1923
5430.0746
5052.6967
6104.2427
6845.5795
5928.8196
7069.9488
7799.0463
7054.1044
8205.2424
8874.2006
8257.2758
9272.9966
10354.799
9664.614
10583.484
11699.508
11157.565
12009.124
13523.959
13000.608
13536.611
14719.307
14656.133
14889.192
16999.057
16798.564
16632.082
17892.351
17426.747
17337.141
20185.983
19909.937
19927.374
819.17767
201.84952
-2383.2246
219.03354
-1956.1562
-901.82792
-87.967511
-534.46752
792.72075
1424.0573
2154.7778
3269.8737
4081.9765
5016.3229
6167.6726
7251.2087
8432.8695
9775.118
11154.459
12780.634
15014.736
16323.188
20761.64
197.7807
1818.0426
-852.60627
2080.1825
473.41607
2618.8233
2249.8508
2786.1623
3954.9584
4007.1576
4959.6383
5949.9796
6355.8839
7679.0882
8638.4341
9672.128
10999.586
12236.47
13609.502
14884.396
16580.35
16427.488
22269.776
871.99185
-2541.6458
-632.40262
-4275.4582
-1682.9608
-660.54478
-2979.5922
1139.6599
-1309.4335
1872.5374
1267.9207
2652.2674
3359.2432
4273.5374
5311.8119
6450.1392
7723.6393
9107.744
10807.184
12793.32
14852.452
17443.965
20002.06
712.11642
771.77017
789.72842
636.98337
650.09733
744.17004
-94.053313
-1212.0333
-688.94349
491.49808
895.76466
616.65746
1111.1881
-398.58024
487.84442
1123.4022
1211.0155
401.03357
1404.149
755.92416
1277.5549
2222.6291
2044.2634
1429.0292
2681.0754
1733.6734
1885.5996
3210.4831
3269.8247
2906.3578
4367.1711
3763.3343
3216.1265
4586.2835
4436.2501
4501.3432
5849.524
5519.091
5249.7908
6616.5662
6354.8088
6176.0755
7644.8231
7236.1734
7163.0812
8662.7094
8420.6257
8302.9425
9866.4619
9479.3177
9348.4772
10975.01
10725.991
10497.75
12393.234
11936.552
11889.06
13142.122
13681.252
12905.187
14636.967
15974.603
14653.206
16764.563
16001.804
15382.46
20006.371
20029.905
19996.911
23.651645
42.651053
36.526905
901.96803
1424.4341
1438.0667
217.26
-1487.3303
-347.15009
524.55754
1590.9518
1463.3563
1813.075
8.4001855
-67.436965
1102.6801
771.10118
1169.8533
1581.4563
1081.38
727.91813
2763.753
1505.6634
1002.4676
2193.4582
1750.2472
1594.8449
3682.5395
2763.8036
2124.952
4057.2332
3017.0731
2762.3662
5004.7859
4032.138
3760.7064
5934.4999
5137.468
4515.1279
6864.8441
5902.1878
5420.4346
7960.4213
7206.4378
6684.5464
9041.5642
8243.0966
7694.5603
10238.388
9592.8725
8960.8855
11446.66
10723.993
10255
12863.943
12387.232
11745.84
14301.945
13410.947
12916.694
16783.969
14205.049
15359.048
16400.778
16027.094
15308.612
21007.372
21132.542
21147.765
1411.2865
1529.0121
1422.3827
-1912.3858
-3355.4276
-2618.2854
-1332.1302
70.523584
719.66772
163.97583
-2948.3456
-1603.1362
-1358.5238
-1426.5405
-242.26596
73.912493
-1768.1806
81.609772
1428.0519
-1314.1416
254.48655
621.65382
-637.81642
1891.8821
2557.8622
-104.34217
1867.3838
2978.2506
754.26095
3121.8624
3559.763
1430.17
3856.3164
4673.7834
2509.5778
4567.8741
5336.2693
3070.3068
5530.9441
6382.8991
4233.7834
6415.8458
7336.3007
5084.1242
7377.291
8477.0276
6383.0391
8530.2284
9636.5847
7540.6252
9642.6246
10997.559
9143.0406
11024.161
12389.408
10531.876
12240.039
14037.793
12915.794
14109.914
15683.306
14493.739
15296.287
17793.774
17630.454
18294.337
20448.107
19677.725
19863.122
)
;

boundaryField
{
    free
    {
        type            zeroGradient;
    }
    fixed
    {
        type            zeroGradient;
    }
    freeTop
    {
        type            zeroGradient;
    }
}


// ************************************************************************* //
