/*--------------------------------*- C++ -*----------------------------------*\
  =========                 |
  \\      /  F ield         | OpenFOAM: The Open Source CFD Toolbox
   \\    /   O peration     | Website:  https://openfoam.org
    \\  /    A nd           | Version:  6
     \\/     M anipulation  |
\*---------------------------------------------------------------------------*/
FoamFile
{
    version     2.0;
    format      ascii;
    class       pointVectorField;
    location    "0.89";
    object      lm;
}
// * * * * * * * * * * * * * * * * * * * * * * * * * * * * * * * * * * * * * //

dimensions      [1 -2 -1 0 0 0 0];

internalField   nonuniform List<vector> 
625
(
(-3.6361799e-15 2.112754e-16 -3.2990721e-16)
(2.8178306e-17 1.9013092e-16 6.1994168e-17)
(-6835.2613 -17.127949 429.34358)
(-6833.4801 1162.0807 -75.335651)
(6.5239771e-16 2.739523e-16 -5.5565719e-16)
(-3.7042918e-15 1.4868296e-15 -1.3023874e-15)
(-6318.6997 940.4705 -67.685197)
(-6329.0072 -235.54174 439.52092)
(-1.9658614e-16 -3.2115893e-17 -1.1045223e-16)
(1.4766345e-16 -3.4299605e-16 -2.8648028e-16)
(-1.0135278e-15 7.0169807e-16 1.7538027e-16)
(-6794.6677 272.48759 302.81572)
(-6709.9138 557.09608 175.43761)
(-6746.0413 852.61579 51.426818)
(-62.462656 -123.00074 -87.753216)
(-183.73893 -228.98469 -65.236519)
(-361.71443 -317.7804 -45.52411)
(-582.48066 -388.58389 -24.406285)
(-829.8047 -437.24094 -7.722236)
(-1111.6904 -474.0941 7.2828272)
(-1412.5263 -495.00112 19.668648)
(-1739.7455 -504.85115 31.518824)
(-2090.3155 -506.1568 42.239215)
(-2460.2341 -496.98477 53.497475)
(-2848.4564 -481.1252 65.759561)
(-3248.9384 -457.62925 79.775377)
(-3653.7767 -427.50424 96.268568)
(-4054.7277 -391.82629 115.78956)
(-4443.0401 -351.5865 138.83776)
(-4810.5111 -308.67783 165.38098)
(-5151.6346 -264.11583 194.97397)
(-5462.416 -220.49605 227.6038)
(-5738.0814 -178.00545 261.26925)
(-5992.0572 -138.75699 296.29435)
(-6215.5829 -103.83346 330.97146)
(-6413.0676 -70.598161 363.72803)
(-6612.5432 -42.773333 397.19721)
(-19.288108 100.16699 128.27587)
(-169.81562 201.98258 56.041488)
(-355.01594 305.34287 24.869515)
(-565.07079 383.59201 -26.763585)
(-807.44564 447.12693 -69.497621)
(-1083.42 514.81358 -114.63878)
(-1372.1672 563.57312 -153.42609)
(-1687.9148 614.09821 -194.44528)
(-2019.5849 661.43363 -229.06928)
(-2369.786 705.44075 -262.61515)
(-2733.4364 750.69747 -290.33454)
(-3108.4254 794.5759 -313.39661)
(-3491.2672 839.08647 -329.79533)
(-3877.8492 883.58901 -339.16617)
(-4264.037 927.89867 -340.85025)
(-4644.1094 971.03317 -334.30714)
(-5012.1305 1012.3534 -319.68259)
(-5360.818 1049.9306 -297.31586)
(-5683.8539 1082.7343 -267.93533)
(-5974.1603 1109.855 -233.26516)
(-6229.1311 1130.0974 -194.61421)
(-6446.8854 1143.1921 -154.15192)
(-6638.8597 1152.5386 -114.35063)
(-4.8813632e-16 1.9183015e-16 -1.0607077e-16)
(-2.6214496e-15 -5.6404768e-16 7.244144e-16)
(-2.4010456e-15 1.4295629e-15 -1.6975308e-16)
(-33.103163 74.853042 -118.047)
(-116.96767 278.16015 -153.20388)
(-258.16812 320.67776 -149.16456)
(-425.02708 416.22371 -161.24598)
(-640.28935 494.26102 -183.41395)
(-865.71494 535.70765 -192.87177)
(-1122.7006 588.24625 -215.23589)
(-1398.8309 625.52627 -233.88607)
(-1694.4151 658.15647 -253.25138)
(-2007.9738 687.7024 -272.80953)
(-2337.783 712.72289 -290.05222)
(-2680.6333 737.04014 -305.23096)
(-3034.8728 758.75891 -316.06974)
(-3395.9918 779.75492 -322.09796)
(-3760.7347 800.49541 -322.26669)
(-4123.591 820.00705 -315.4893)
(-4479.2036 839.65789 -301.75178)
(-4820.7773 858.20562 -280.88231)
(-5141.8727 875.99914 -253.45024)
(-5436.3544 892.22837 -220.50719)
(-5699.4839 906.63407 -183.75124)
(-5929.62 919.03509 -144.36548)
(-6112.9543 927.53721 -104.3726)
(-6267.5648 638.06013 60.96236)
(-6222.5808 341.29699 185.16173)
(-6295.3491 53.010882 313.35787)
(-6086.1586 -262.86787 405.5869)
(-5925.7503 -294.26838 374.38704)
(-5722.4324 -324.66074 338.91345)
(-5496.1623 -354.46519 301.66734)
(-5243.5742 -382.66528 263.83021)
(-4962.4166 -409.64611 226.71552)
(-4653.4143 -434.04341 191.67577)
(-4318.9291 -455.90111 159.70402)
(-3963.7027 -474.56825 131.81555)
(-3594.0254 -489.77795 108.44396)
(-3217.4127 -501.21537 89.993147)
(-2841.6691 -508.60744 76.375454)
(-2473.7837 -511.55306 67.208734)
(-2125.4814 -512.32208 63.518868)
(-1786.5543 -504.4475 60.670945)
(-1467.1268 -490.56657 64.351609)
(-1174.3703 -472.08604 69.670954)
(-902.29888 -442.72561 76.171038)
(-656.89568 -404.42464 86.202478)
(-437.01307 -350.05406 94.294946)
(-249.48658 -289.4604 106.39314)
(-107.80367 -193.27016 109.70975)
(-48.749771 -110.25464 86.366349)
(-1.3028228e-15 -3.4252847e-16 3.3068324e-16)
(-2.0449562e-15 -3.5718549e-16 -7.3673077e-16)
(-1.4121951e-15 -1.0527101e-15 6.223458e-16)
(-1.2019486e-15 6.189313e-16 -3.4292956e-16)
(-1.2511779e-16 -6.848356e-17 2.1836215e-16)
(-3.8898857e-17 4.7141393e-16 -3.1043199e-16)
(-6704.874 1105.5352 -74.052188)
(-6576.3936 1051.0407 -71.312406)
(-6448.4099 995.63234 -69.602992)
(-6709.0462 -71.871244 431.41715)
(-6581.9414 -125.58252 433.20802)
(-6455.3661 -179.83972 436.99921)
(-17.307934 -52.727435 -62.290617)
(-154.79195 -108.86838 -33.538055)
(-347.63441 -161.33908 -35.381542)
(-595.40442 -202.2618 -27.062698)
(-876.87651 -234.11263 -26.644237)
(-1193.5707 -251.98959 -23.989799)
(-1521.7017 -256.0034 -24.215498)
(-1863.5222 -248.96795 -24.57639)
(-2204.9146 -230.83993 -24.609777)
(-2542.162 -203.08472 -23.889449)
(-2872.3117 -169.46655 -21.871497)
(-3191.2668 -130.13805 -17.789211)
(-3499.5959 -88.400073 -10.71439)
(-3797.777 -45.369865 -0.25485664)
(-4087.9759 -2.6653512 14.068935)
(-4372.8508 38.589612 32.619057)
(-4655.6464 77.741929 55.370422)
(-4940.0495 113.89618 82.555186)
(-5226.2716 147.29852 112.9761)
(-5524.6147 177.18752 147.8282)
(-5830.4912 204.45247 184.38058)
(-6143.8496 229.11031 223.50202)
(-6467.1473 251.13082 263.23661)
(1.8490685 -11.340328 -0.79245931)
(-147.67582 -14.5495 -2.4197405)
(-353.45701 -18.626016 -15.001488)
(-615.95835 -15.212686 -31.315742)
(-922.02179 -2.0419676 -44.67575)
(-1250.4976 13.244401 -61.487911)
(-1592.1188 33.194287 -76.586276)
(-1934.8714 57.686871 -90.516216)
(-2266.9051 83.910653 -101.38668)
(-2584.3466 112.5307 -109.7563)
(-2880.9802 141.97357 -113.77339)
(-3157.4728 172.01769 -113.84037)
(-3415.648 202.16607 -109.30861)
(-3660.0942 232.13817 -100.67846)
(-3897.399 262.25849 -87.720229)
(-4135.4363 292.44075 -70.783017)
(-4382.7197 323.22804 -50.134177)
(-4647.7794 354.57072 -25.864766)
(-4936.7141 387.5641 1.6497321)
(-5256.1241 420.81362 32.403379)
(-5605.9633 456.38241 65.538883)
(-5987.5465 492.606 101.62441)
(-6367.8838 526.84951 138.57445)
(12.3057 30.380463 41.797316)
(-149.80237 71.293069 26.794457)
(-340.70946 121.68581 -0.30570737)
(-592.41334 178.08831 -30.920545)
(-870.37719 231.53136 -62.999135)
(-1174.7793 273.55254 -95.513647)
(-1496.4447 318.96589 -125.68221)
(-1826.0685 354.96727 -152.41832)
(-2160.3192 388.47122 -175.51108)
(-2494.054 419.96389 -193.85513)
(-2824.9297 448.34903 -206.66267)
(-3151.1563 476.63868 -214.11663)
(-3471.8368 504.3499 -215.8007)
(-3786.8164 532.70125 -211.83819)
(-4096.3733 562.12348 -202.28648)
(-4401.1795 592.57656 -187.46312)
(-4702.131 624.31172 -167.74766)
(-4999.5016 656.97588 -143.49165)
(-5294.989 690.44883 -115.77914)
(-5588.2281 723.70334 -84.500411)
(-5880.4921 757.43261 -51.749695)
(-6172.5548 790.04461 -17.342865)
(-6462.9177 821.89201 17.181265)
(-2.5953868e-15 -2.1703571e-16 4.2716933e-18)
(-3.8783653e-15 3.5858996e-16 7.5215743e-16)
(-9.8459492e-16 7.8127033e-16 2.7525688e-16)
(-3.9146975e-16 7.8165185e-18 1.2560621e-16)
(1.6350797e-16 -2.4226884e-16 -1.2066667e-17)
(-1.0304172e-15 -9.2669207e-16 -7.5672327e-16)
(-6.4481012e-16 3.525084e-16 2.7116342e-16)
(-3.5205005e-15 9.4737515e-16 -2.5196009e-17)
(-3.8147498e-15 1.043275e-15 1.2924308e-16)
(-68.425095 51.770916 47.645405)
(-77.438943 64.593873 -6.6653969)
(-63.929679 41.429455 -49.05251)
(-214.13946 255.55629 5.7712238)
(-193.12094 251.43999 -41.400552)
(-172.73456 232.9701 -98.615819)
(-359.61948 321.43907 -21.594867)
(-344.51146 309.38774 -63.572512)
(-318.0247 324.09056 -113.41068)
(-556.56924 406.80246 -64.518523)
(-531.28145 412.64219 -97.863994)
(-486.06128 399.42167 -131.78438)
(-791.92526 479.14038 -99.208799)
(-750.14048 475.66342 -123.97669)
(-704.97108 478.41303 -156.0049)
(-1042.2089 533.58885 -136.31031)
(-993.71952 531.31572 -158.42411)
(-936.83198 528.21455 -177.6264)
(-1321.3865 583.48387 -172.27466)
(-1262.6525 584.39363 -185.03452)
(-1198.8071 578.27541 -202.83079)
(-1621.6049 629.77531 -206.86959)
(-1553.3687 624.34733 -216.09127)
(-1481.9197 618.71748 -227.83798)
(-1942.5746 671.06446 -238.84256)
(-1864.2798 665.85657 -244.63653)
(-1783.7988 655.27813 -251.3196)
(-2280.6054 711.97658 -268.35785)
(-2192.4723 701.2104 -270.82098)
(-2105.1366 688.63315 -274.12145)
(-2633.3109 749.59218 -293.66487)
(-2537.4903 735.51908 -294.15611)
(-2441.698 718.61911 -294.33458)
(-2999.0153 787.77831 -314.85153)
(-2894.5572 768.74948 -313.19194)
(-2791.7942 747.89496 -311.28318)
(-3373.5043 824.92222 -329.6668)
(-3262.2618 801.31813 -327.00621)
(-3152.2948 775.85708 -323.64082)
(-3753.4522 862.44727 -338.25734)
(-3635.3926 833.34019 -334.96249)
(-3519.2574 802.81191 -330.31884)
(-4134.0835 899.20909 -339.29456)
(-4010.6366 865.23149 -335.48959)
(-3888.8155 829.92129 -330.51556)
(-4510.2148 935.49057 -332.37457)
(-4382.031 896.39243 -328.8172)
(-4255.5339 855.8864 -323.55025)
(-4875.4541 970.14017 -317.67981)
(-4743.9171 926.25471 -314.10022)
(-4613.403 881.21004 -309.02265)
(-5223.2591 1001.9746 -295.04102)
(-5088.9991 954.2145 -291.95098)
(-4955.8869 905.06227 -287.24678)
(-5546.1733 1030.6727 -265.90698)
(-5410.9381 979.33043 -262.97322)
(-5276.1237 926.87864 -258.71493)
(-5838.8643 1054.4472 -230.94014)
(-5703.4885 1000.9656 -228.33633)
(-5568.0192 946.10882 -224.75237)
(-6096.8183 1073.4083 -192.29492)
(-5962.039 1017.8454 -190.25619)
(-5827.2272 961.82904 -187.01316)
(-6318.5507 1086.5272 -152.08459)
(-6185.5169 1030.8945 -150.02207)
(-6052.1928 974.30141 -146.89231)
(-6506.1674 1095.3401 -111.66036)
(-6375.8107 1039.7574 -109.5979)
(-6244.9721 984.02075 -106.82722)
(-6671.0354 217.70262 305.14188)
(-6544.6689 163.32019 307.33927)
(-6419.3405 108.64396 310.65559)
(-6579.3077 502.13321 177.6388)
(-6460.1886 449.14773 179.66883)
(-6335.9113 395.3353 182.18182)
(-6628.4717 798.9479 53.451331)
(-6502.4287 745.01556 56.104285)
(-6376.2538 690.37361 58.291149)
(-107.50316 -113.32602 -33.718854)
(-96.715192 -112.86586 3.9587462)
(-94.894285 -96.770704 42.076834)
(-207.27678 -224.26189 -15.726226)
(-191.35994 -214.15689 29.261524)
(-165.20156 -196.66497 71.435777)
(-373.08603 -322.76898 -5.5693878)
(-346.31137 -304.78816 25.98874)
(-317.02882 -293.00636 72.639691)
(-571.15643 -383.74194 7.1774497)
(-540.78411 -370.43422 35.852373)
(-499.30183 -354.11636 69.1749)
(-809.99755 -439.68677 14.433092)
(-769.06019 -425.12773 38.304461)
(-720.43034 -411.25186 63.553388)
(-1073.6823 -473.133 23.376025)
(-1023.1148 -458.61937 38.496808)
(-969.45278 -445.71433 59.311086)
(-1364.0427 -495.39258 29.628721)
(-1307.1652 -485.39431 42.250376)
(-1245.4128 -473.0308 57.035844)
(-1679.5952 -508.4423 35.972313)
(-1613.0289 -497.89094 44.653741)
(-1544.2849 -489.76544 55.247131)
(-2015.2697 -510.35616 43.556597)
(-1940.8811 -504.78226 48.608229)
(-1865.305 -500.66731 54.328887)
(-2373.0921 -505.04381 50.932378)
(-2292.721 -504.64028 53.064459)
(-2208.9283 -502.20531 57.335753)
(-2753.8639 -492.69605 61.526617)
(-2662.566 -496.09626 62.671398)
(-2571.1847 -499.15969 64.066143)
(-3144.1899 -473.5709 73.963918)
(-3045.5709 -482.72389 73.327331)
(-2946.4482 -490.75008 73.239926)
(-3541.0664 -448.57087 89.617401)
(-3435.5101 -463.80266 88.346254)
(-3328.7824 -477.41553 87.487364)
(-3935.7836 -418.41854 108.90102)
(-3823.7543 -440.16732 107.10457)
(-3710.5232 -459.61456 105.92087)
(-4319.6126 -384.35905 132.07876)
(-4202.2274 -412.25176 130.22686)
(-4083.7326 -437.89996 129.17703)
(-4684.946 -347.13539 159.07875)
(-4562.9907 -381.36559 157.41233)
(-4440.8078 -412.93995 156.83245)
(-5025.3327 -308.4279 189.77246)
(-4900.0248 -348.16924 188.50141)
(-4775.5271 -385.36102 188.56695)
(-5336.8913 -269.58559 223.24113)
(-5209.0186 -314.00579 222.5054)
(-5083.7049 -356.12227 223.33926)
(-5617.9379 -230.69646 258.88176)
(-5490.7148 -279.33487 258.78475)
(-5363.07 -325.70233 260.31438)
(-5869.6928 -194.48057 295.60413)
(-5738.9409 -245.74238 295.41971)
(-5614.0343 -295.18316 298.02791)
(-6093.0294 -160.27498 331.29983)
(-5961.984 -213.35508 332.21518)
(-5838.2492 -264.83718 335.1645)
(-6294.0921 -127.67351 365.28778)
(-6165.2873 -181.29946 367.35721)
(-6039.9637 -234.54922 370.8119)
(-6474.6678 -98.62736 398.84217)
(-6347.6187 -152.71673 401.09222)
(-6220.5718 -206.61604 403.44615)
(12.043408 -30.651426 51.585745)
(-80.43165 -117.32123 54.002528)
(-218.20293 -132.84335 41.934556)
(-422.45429 -177.13553 38.769324)
(-652.55877 -202.69216 29.240848)
(-915.26072 -220.9053 17.047308)
(-1200.3574 -234.01556 8.1336249)
(-1499.9473 -236.20843 -2.5813926)
(-1815.3319 -233.166 -8.425582)
(-2137.8148 -224.03392 -15.465777)
(-2466.1405 -210.3697 -16.750799)
(-2797.0071 -192.99814 -15.521485)
(-3128.1469 -173.5807 -9.9958908)
(-3457.0465 -152.85346 0.44194539)
(-3781.6869 -131.49107 15.770487)
(-4100.0315 -110.0672 36.249126)
(-4410.2526 -88.885555 61.623348)
(-4710.7693 -67.991123 91.517197)
(-5000.505 -47.461733 125.1728)
(-5278.4073 -27.274889 161.49827)
(-5545.1725 -6.8303957 199.74566)
(-5802.4187 12.981947 238.09323)
(-6027.723 33.259139 275.54543)
(36.023667 -14.132258 -10.592018)
(-69.236855 -5.7007012 -12.394383)
(-235.98965 16.798733 -28.153421)
(-456.19612 19.194396 -36.128385)
(-715.04943 31.799148 -50.603325)
(-1008.1554 46.317702 -67.303644)
(-1316.3215 56.73229 -80.547658)
(-1632.1466 70.073219 -92.924744)
(-1943.116 82.59682 -104.08421)
(-2240.8512 94.733351 -110.65349)
(-2522.1731 106.07133 -113.35689)
(-2783.9525 117.25131 -112.6723)
(-3027.9331 127.83385 -107.31648)
(-3259.0295 138.36887 -97.938802)
(-3483.4745 149.40589 -84.526229)
(-3709.2797 161.45892 -67.399796)
(-3944.7433 175.05211 -46.422301)
(-4197.0993 190.7705 -21.969384)
(-4472.2035 209.13266 5.9376403)
(-4774.05 230.15931 37.163636)
(-5104.0212 254.45408 71.412886)
(-5461.3812 281.58783 107.83368)
(-5866.0619 312.55425 147.34424)
(44.194935 53.429735 -61.791292)
(-91.154532 98.236921 -79.235829)
(-241.57833 196.76991 -107.38298)
(-441.57534 224.31299 -107.11227)
(-681.7988 289.77314 -130.06439)
(-946.8189 330.14284 -143.21082)
(-1228.0509 360.5058 -158.24197)
(-1523.5319 388.86122 -174.0212)
(-1824.1152 405.17846 -186.28799)
(-2129.1937 419.1049 -196.44004)
(-2433.5654 427.64131 -203.61178)
(-2736.8166 434.11399 -206.76484)
(-3037.7463 439.46219 -205.76478)
(-3336.1381 444.54342 -199.89833)
(-3631.8491 451.11223 -189.55623)
(-3925.4377 459.48335 -174.23632)
(-4217.2057 470.4189 -154.49873)
(-4507.617 484.51211 -130.5308)
(-4797.4052 501.89293 -103.06947)
(-5086.7608 522.73012 -72.574689)
(-5376.1891 547.24186 -40.071196)
(-5666.2959 573.97206 -6.8596646)
(-5957.1607 604.1881 28.083644)
(-36.820284 -26.127603 -22.710087)
(-30.164329 -29.112714 0.1692645)
(-32.207069 -23.853897 26.040428)
(-174.70691 -114.22177 -7.2001339)
(-165.78625 -108.40403 12.178181)
(-135.4735 -105.11136 40.626969)
(-349.9164 -156.02428 -10.084791)
(-320.68704 -145.86253 9.732249)
(-290.32485 -144.1826 27.947567)
(-572.29791 -201.61379 -7.7615589)
(-543.04565 -193.54289 8.3812206)
(-497.76433 -184.32446 25.460098)
(-835.31802 -229.91728 -8.651588)
(-792.02638 -217.75014 2.2508495)
(-740.97493 -213.18364 17.647433)
(-1125.3488 -246.21776 -12.2175)
(-1073.2418 -238.31142 -2.5101815)
(-1012.7103 -232.68587 8.0858527)
(-1434.9847 -252.15483 -15.685097)
(-1373.8977 -245.0828 -8.3894164)
(-1307.6794 -241.5107 -0.75555349)
(-1760.2756 -247.6435 -18.632591)
(-1690.1772 -241.85029 -13.947917)
(-1615.4103 -241.50016 -9.2748508)
(-2092.3056 -231.68639 -22.284549)
(-2013.3798 -230.88422 -19.445255)
(-1932.8678 -233.62283 -15.686738)
(-2427.3143 -209.57163 -23.572014)
(-2341.5401 -212.45609 -22.01516)
(-2254.5555 -218.05389 -19.999874)
(-2762.1522 -180.21137 -23.31029)
(-2668.852 -187.09248 -22.661911)
(-2575.4066 -198.05758 -21.714278)
(-3092.5111 -146.54433 -20.446843)
(-2993.2893 -159.05386 -20.61861)
(-2894.5084 -174.35977 -19.875517)
(-3418.2842 -110.17616 -14.115886)
(-3313.3128 -127.73364 -14.359171)
(-3209.1932 -148.11281 -13.911438)
(-3737.3346 -72.303525 -3.7830581)
(-3627.6083 -95.396592 -4.1776375)
(-3519.0301 -120.83084 -3.5421137)
(-4049.85 -34.489264 10.837129)
(-3936.0764 -62.779316 10.760411)
(-3823.8281 -93.597334 11.726196)
(-4355.7461 2.5147823 30.232196)
(-4238.8404 -31.103688 30.572265)
(-4123.6675 -66.780078 31.856196)
(-4655.585 37.546067 54.254818)
(-4536.4432 -0.68476743 55.060474)
(-4419.0818 -41.08688 56.705593)
(-4950.4242 70.5226 82.763458)
(-4829.4075 27.957854 84.061174)
(-4710.6639 -16.46481 86.035527)
(-5238.7012 100.89351 115.10419)
(-5121.8784 54.694111 117.05822)
(-4998.8198 6.652667 119.18522)
(-5556.9727 128.8646 151.5092)
(-5382.0403 78.650367 152.05131)
(-5285.8993 28.854566 155.23368)
(-5844.6179 154.10957 189.42126)
(-5663.6039 102.36597 189.9897)
(-5568.7286 49.812837 193.63194)
(-6102.7604 176.32812 228.04842)
(-5974.5697 124.00678 230.08085)
(-5851.8668 69.442674 232.55807)
(-6383.8202 197.40517 267.30998)
(-6259.7087 143.83779 269.31928)
(-6133.4995 89.021708 272.09343)
(-20.292634 -8.1263549 1.7415245)
(-18.559479 -11.558163 4.0325126)
(-16.392718 -10.646481 -0.37121601)
(-165.9003 -11.470244 3.1175727)
(-152.88196 -11.983611 1.9864425)
(-120.27043 -5.4623617 -3.2235271)
(-361.57669 -11.921832 -13.237562)
(-333.98436 -3.4817821 -22.031249)
(-302.74176 2.3491116 -21.370087)
(-603.69216 -2.7288916 -26.252424)
(-574.15402 6.769857 -30.691361)
(-524.15548 19.76225 -32.218167)
(-896.69738 6.4672774 -43.910852)
(-848.29305 17.863705 -51.458409)
(-790.75574 23.490132 -47.317367)
(-1208.7328 22.528576 -61.755059)
(-1151.2767 32.089573 -64.519543)
(-1086.2223 40.034493 -65.091237)
(-1539.7001 39.761423 -76.437703)
(-1472.5057 48.560896 -81.824587)
(-1397.489 54.572952 -79.623955)
(-1873.3767 62.493329 -92.987569)
(-1795.3825 67.216549 -96.132058)
(-1713.8464 68.285877 -93.616537)
(-2198.1022 84.889508 -104.00312)
(-2112.8052 86.064508 -106.22469)
(-2025.4213 84.840911 -104.85627)
(-2509.6924 109.60521 -113.0831)
(-2417.2426 106.69199 -115.06888)
(-2324.4743 100.47252 -113.19756)
(-2801.35 134.86957 -117.59693)
(-2703.5701 127.09284 -118.3994)
(-2606.5997 116.2715 -116.41412)
(-3073.1492 160.14249 -117.71928)
(-2970.7257 146.916 -118.03648)
(-2870.8372 131.29616 -116.39433)
(-3326.6141 185.19639 -113.17347)
(-3220.8199 167.10167 -112.97395)
(-3118.2096 147.09737 -111.45044)
(-3566.2011 210.15559 -104.30476)
(-3457.5773 187.14296 -103.70929)
(-3353.4168 162.13164 -102.53236)
(-3798.7977 235.16079 -90.990819)
(-3688.2351 207.20318 -90.060817)
(-3582.667 178.03159 -89.173849)
(-4032.1159 260.36722 -73.598362)
(-3920.1309 228.05805 -72.538593)
(-3813.3768 194.61289 -72.088395)
(-4274.7888 286.38852 -52.381308)
(-4161.7854 249.95881 -51.235258)
(-4053.6719 212.74193 -50.908606)
(-4534.5669 313.52479 -27.521779)
(-4420.8139 273.28824 -26.268464)
(-4311.0106 232.49034 -26.122888)
(-4817.9691 342.08913 0.65062637)
(-4703.1155 298.77838 1.9155696)
(-4591.438 254.58841 2.1493537)
(-5125.9649 372.30166 32.254688)
(-5016.923 325.55145 33.316049)
(-4900.7172 279.21711 33.948746)
(-5464.6513 403.96316 66.005412)
(-5365.5302 355.96486 67.834522)
(-5236.5358 306.07057 68.798111)
(-5844.2834 438.05749 102.50889)
(-5722.5731 387.06628 103.88758)
(-5602.0604 335.64571 105.74989)
(-6238.4546 472.66829 140.63542)
(-6115.9687 419.81179 142.75949)
(-5992.3435 366.51026 145.0176)
(-20.301672 30.273828 16.574331)
(-7.5023532 25.504595 -7.4857378)
(-0.16072615 28.059 -31.199799)
(-183.03627 86.933004 4.9985183)
(-172.02836 73.996814 -26.116156)
(-142.5311 88.240035 -52.626326)
(-353.6455 150.48277 -22.107853)
(-332.54704 170.73976 -48.351284)
(-302.28664 176.19582 -76.752327)
(-590.10265 211.79918 -48.827973)
(-553.35442 210.4782 -71.182698)
(-511.13218 220.54656 -90.303168)
(-848.7404 257.40978 -80.244031)
(-804.85565 271.32332 -97.227605)
(-753.91659 275.84903 -111.30371)
(-1138.2707 304.18268 -107.06326)
(-1082.8001 312.23596 -119.5597)
(-1022.3416 318.02791 -131.05655)
(-1444.4253 343.24121 -135.87169)
(-1378.4966 349.15518 -145.67785)
(-1310.0563 351.60496 -151.89333)
(-1760.1947 374.63817 -159.9932)
(-1685.3353 379.76046 -164.54866)
(-1608.8144 380.00597 -169.90665)
(-2082.3514 403.99584 -180.98686)
(-1998.8602 403.54947 -184.52773)
(-1915.0752 401.17925 -186.57984)
(-2405.5486 428.76007 -198.09219)
(-2314.869 424.6328 -198.79576)
(-2223.972 418.55934 -198.53818)
(-2727.5004 451.01476 -209.63664)
(-2630.2267 441.94654 -208.93594)
(-2533.1279 431.95665 -207.7801)
(-3046.3148 472.40484 -216.27246)
(-2943.2918 457.94201 -214.66784)
(-2840.316 443.58158 -212.39682)
(-3360.8415 493.00363 -217.46257)
(-3253.0079 473.62491 -215.12332)
(-3144.9991 454.76754 -212.25664)
(-3670.9807 514.51888 -213.14348)
(-3559.0865 489.75087 -210.38508)
(-3446.5606 465.69439 -207.27236)
(-3976.7349 536.93972 -203.37356)
(-3861.5139 507.09946 -200.51559)
(-3745.3118 478.16485 -197.18341)
(-4278.6828 560.83119 -188.43394)
(-4160.817 526.30451 -185.42789)
(-4041.2889 492.36837 -182.04282)
(-4577.4135 586.46718 -168.44037)
(-4457.2132 547.55035 -165.51825)
(-4335.4082 508.77655 -162.15264)
(-4873.4194 613.75382 -144.0855)
(-4751.6476 570.91177 -141.13268)
(-4627.7048 527.76463 -137.77696)
(-5167.8128 642.45476 -115.74521)
(-5044.2502 596.10961 -112.8563)
(-4919.26 549.3632 -109.76272)
(-5460.4119 672.1522 -84.37022)
(-5336.3927 623.66782 -81.665698)
(-5210.3794 573.64088 -78.275134)
(-5753.1538 703.53078 -50.882921)
(-5627.5408 652.46065 -47.916557)
(-5500.7714 600.46467 -45.098887)
(-6044.8916 734.99015 -15.883843)
(-5918.8225 682.25366 -13.146932)
(-5791.825 628.65175 -10.389014)
(-6336.367 766.46052 19.326927)
(-6210.0744 713.33849 21.889154)
(-6083.4411 658.29972 24.542436)
)
;

boundaryField
{
    free
    {
        type            zeroGradient;
    }
    fixed
    {
        type            fixedValue;
        value           nonuniform List<vector> 
25
(
(-2.5953868e-15 -2.1703571e-16 4.2716933e-18)
(-1.3028228e-15 -3.4252847e-16 3.3068324e-16)
(-1.9658614e-16 -3.2115893e-17 -1.1045223e-16)
(-3.6361799e-15 2.112754e-16 -3.2990721e-16)
(-3.8783653e-15 3.5858996e-16 7.5215743e-16)
(-2.0449562e-15 -3.5718549e-16 -7.3673077e-16)
(-9.8459492e-16 7.8127033e-16 2.7525688e-16)
(-1.4121951e-15 -1.0527101e-15 6.223458e-16)
(-4.8813632e-16 1.9183015e-16 -1.0607077e-16)
(6.5239771e-16 2.739523e-16 -5.5565719e-16)
(-3.9146975e-16 7.8165185e-18 1.2560621e-16)
(1.4766345e-16 -3.4299605e-16 -2.8648028e-16)
(1.6350797e-16 -2.4226884e-16 -1.2066667e-17)
(-1.0304172e-15 -9.2669207e-16 -7.5672327e-16)
(-2.6214496e-15 -5.6404768e-16 7.244144e-16)
(-6.4481012e-16 3.525084e-16 2.7116342e-16)
(-1.0135278e-15 7.0169807e-16 1.7538027e-16)
(-3.5205005e-15 9.4737515e-16 -2.5196009e-17)
(-3.8147498e-15 1.043275e-15 1.2924308e-16)
(-2.4010456e-15 1.4295629e-15 -1.6975308e-16)
(-1.2019486e-15 6.189313e-16 -3.4292956e-16)
(2.8178306e-17 1.9013092e-16 6.1994168e-17)
(-1.2511779e-16 -6.848356e-17 2.1836215e-16)
(-3.8898857e-17 4.7141393e-16 -3.1043199e-16)
(-3.7042918e-15 1.4868296e-15 -1.3023874e-15)
)
;
    }
    freeTop
    {
        type            zeroGradient;
    }
}


// ************************************************************************* //
