/*--------------------------------*- C++ -*----------------------------------*\
  =========                 |
  \\      /  F ield         | OpenFOAM: The Open Source CFD Toolbox
   \\    /   O peration     | Website:  https://openfoam.org
    \\  /    A nd           | Version:  6
     \\/     M anipulation  |
\*---------------------------------------------------------------------------*/
FoamFile
{
    version     2.0;
    format      ascii;
    class       pointScalarField;
    location    "1.34";
    object      E;
}
// * * * * * * * * * * * * * * * * * * * * * * * * * * * * * * * * * * * * * //

dimensions      [1 -1 -2 0 0 0 0];

internalField   nonuniform List<scalar> 
625
(
20867.426
15451.866
-502737.94
-230988.34
17847.191
20281.84
-354514.99
-757840.61
6372.0861
1792.711
9406.2796
-268044.96
-263732.77
-192273.35
28979.854
23557.011
21256.796
20328.716
15356.527
14291.208
11450.072
8587.4184
7780.0738
5589.9542
4380.0705
3726.2943
2774.9802
2684.5304
2791.1234
2918.6555
4264.1322
4757.3704
6579.1841
7885.8701
9800.3914
11334.332
15106.942
22643.232
10997.86
19761.993
15323.996
11578.5
15435.378
8039.9736
9125.6519
7720.6738
5551.4817
5913.2458
4225.2193
4243.005
3736.6552
3771.4189
3872.9038
4332.3783
4882.4475
5996.5677
6330.8302
8935.7663
8900.4639
11478.115
4848.4414
1930.4675
9849.2175
39070.77
43994.235
22643.3
28459.006
32951.517
14983.446
20841.483
14626.779
14254.864
12859.132
9362.068
9635.1534
7317.4069
6765.5057
6039.794
5327.7564
5135.2647
4999.5725
4767.3745
5134.1284
5316.1753
5965.7348
4382.0635
-529975.1
-584097.14
-558963.44
11856.852
9224.7193
9378.1124
7780.3473
6347.0172
5033.8449
3842.6936
3026.508
2466.9938
2366.106
1928.1541
3050.4486
2991.8434
5064.6381
5178.6119
6145.4782
9092.1859
10547.427
13936.935
13221.122
22100.211
18312.933
25878.001
17840.527
16567.836
15636.902
12709.4
13559.76
14471.275
-262867.06
-262469.51
-264420.74
-565471.94
-567349.62
-566922.94
13312.919
10097.738
9579.9268
8858.3418
6446.9163
6695.618
4763.1706
4110.8616
3735.7212
2605.2365
2664.6826
2117.2705
2040.4052
2425.3335
2500.5057
3423.5063
4042.6501
5020.9157
7057.4717
8075.4649
10018.796
12616.951
15603.856
3537.6952
2399.3323
3576.5046
2234.1463
2743.0499
3090.3131
1548.9021
2741.1451
1642.2129
2139.4055
1929.754
2185.2958
2471.705
2843.8397
3358.005
4140.1385
4895.1916
6212.3394
7400.3127
8403.6329
11623.417
11628.877
18735.167
6632.6574
4404.5143
4362.7287
2722.8268
3601.2017
1283.226
2539.2947
1234.2889
1335.1045
1608.5825
1008.0203
1805.7223
1844.0951
2525.6787
3150.5571
4352.185
5238.0271
7053.8452
8147.1249
11079.348
11666.485
15419.992
18336.14
4094.825
3770.8005
3026.9003
1020.2034
924.69922
2053.4634
4297.7621
5138.7889
5778.9813
27807.363
30757.415
34367.933
31034.392
30173.405
32799.614
21084.453
18555.799
25111.471
20551.972
24154.981
22817.137
21687.635
17908.497
24387.662
16268.841
16639.915
18101.233
16084.137
15013.769
18626.602
13656.078
10267.41
15263.72
12215.244
11307.593
12531.12
12303.429
8116.6282
12510.28
9523.7442
7829.9689
9727.8562
9904.8895
6413.6374
9291.4282
8224.3709
5755.3658
8256.2724
8048.8628
5151.7724
7201.5535
7544.7612
4846.6083
6978.0605
7217.862
4735.4421
6462.5739
7161.4893
4808.1731
6238.412
7166.0876
5079.7334
6290.0763
7330.6261
5562.0468
6293.3275
7401.204
5894.0418
6281.5637
8016.8245
6947.579
6960.5264
8628.3181
7939.5479
7211.9501
7880.6216
7514.6173
8305.1693
-364975.21
-363995.63
-364746.73
-325309.2
-360072.72
-360774.24
-378133.28
-347682.94
-348429.15
27762.371
24643.727
22173.217
25102.391
21875.958
21441.41
24600.466
20764.879
20317.631
19529.588
16642.326
15916.536
18083.556
16055.75
14950.49
15313.667
11581.455
12390.025
12653.669
11028.773
10252.076
10982.312
8677.38
9675.8911
9829.3656
6379.1206
7290.5336
7714.7081
5890.5816
5898.7875
6614.8207
4880.299
5160.683
5862.0432
4091.6301
4667.6677
5040.2953
3519.8403
4218.0683
5066.1383
3419.1439
4178.6708
4956.3157
3510.4247
4538.6284
5248.0804
4010.2494
4896.9516
6194.2012
4791.078
5728.0358
6694.7696
5805.5224
6711.0988
8200.6306
7323.4111
7854.6848
9192.3562
8978.0664
9165.6074
10861.004
9865.3503
10516.003
9247.1282
10115.662
10690.582
13388.022
12123.145
12256.468
15053.42
13835.919
10936.076
11102.297
9030.8725
7702.7293
8569.9638
5151.0711
6125.5008
5315.9104
4675.2
4277.6141
4085.5747
4114.7379
4267.9669
4684.6425
5204.7764
6164.7506
7021.5273
8464.8426
10236.536
12145.662
16240.414
2178.2704
7808.5939
505.54635
5280.6804
2391.752
3044.6506
3167.2638
2035.2553
3134.549
2067.3503
2641.1185
2859.1491
2918.4419
3801.0006
4405.7489
5290.3858
6621.7628
7892.1251
9525.7281
11298.218
13683.786
13434.084
21431.689
13755.084
4549.5962
7484.4877
5090.3632
5260.6248
5272.2856
2687.8573
4514.6553
1180.7772
2812.1516
1391.9011
1959.5999
1841.6508
2517.3071
2993.4326
4041.1849
5231.1782
6721.04
8495.0318
10851.303
12366.718
16339.155
17117.845
15543.072
13268.348
12246.63
14269.158
13451.493
11935.362
11942.82
10679.825
9327.0937
11098.46
10310.964
9626.3174
10075.136
9037.3323
8536.4343
9010.2001
7801.9819
6315.9871
7824.3148
7148.8266
7521.9894
7327.8027
6599.1833
5170.3506
6131.264
5431.9472
5223.5398
5654.7926
5124.0822
4699.0326
5753.9809
4798.659
4440.0677
4816.1696
4385.5197
4235.8751
5139.2378
4580.1319
4208.1713
5071.7509
4501.8283
4307.2164
5203.4847
4745.608
4645.1579
5843.1245
5375.3618
5099.8872
6131.1933
5817.5593
5716.4301
7142.4897
6858.1639
6549.1332
8262.5608
7769.8608
7630.4811
8488.2675
8818.0735
8490.5465
10476.651
11335.909
10625.766
13021.747
13664.446
12375.675
17119.442
15811.24
16519.323
3220.3692
2990.5187
2375.6893
5929.0928
8211.6645
8068.535
2966.9179
770.25428
1496.459
3608.6554
5226.6301
5263.0552
4018.3709
2212.4902
2415.9116
3306.81
2285.0679
2793.399
2709.4966
2246.0538
2582.3597
3681.2724
1862.5098
1374.4462
2607.4737
1122.2417
2141.6704
3268.4592
1865.1292
1773.3104
3118.6924
1135.3639
1580.0939
3246.1159
1680.2441
2066.1274
3766.282
1962.0467
1920.5148
3997.8098
2162.5922
2453.9411
4781.5324
2993.832
3049.8192
5411.2734
3665.7251
3718.7778
6456.13
4740.0158
4622.5154
7642.6069
5853.2204
5915.9218
8924.2322
7620.1774
7159.1485
10384.565
8456.9518
8703.5164
13825.929
10232.811
12036.378
12240.124
11877.718
10568.628
19516.422
18369.709
19333.422
8740.861
10202.523
12032.781
4138.3209
4246.2769
7297.6438
4338.6065
8064.2943
9090.2739
5292.9291
4293.603
6439.0683
2833.2572
4964.4091
6414.6811
2646.2747
3650.852
5774.1044
3198.2552
3090.732
4343.3728
1157.8849
2310.8393
5110.7804
1911.8738
2176.9324
3898.7547
1324.3727
1969.3023
3882.9707
1305.0139
1490.699
3556.1203
1742.1499
1916.5458
3709.7633
1735.728
1863.8626
3830.1235
2541.4659
2539.4395
4259.0571
3050.3627
3000.7477
4908.2748
4136.6649
4202.167
5729.1229
5185.2241
4986.6945
6744.7517
6694.1481
6957.0456
8326.2039
8042.2595
7855.7582
9359.9034
10256.384
11247.094
12151.348
11053.114
11544.122
12471.156
14468.546
16017.806
17208.891
16515.168
17207.285
16354.08
)
;

boundaryField
{
    free
    {
        type            zeroGradient;
    }
    fixed
    {
        type            zeroGradient;
    }
    traction
    {
        type            zeroGradient;
    }
}


// ************************************************************************* //
