/*--------------------------------*- C++ -*----------------------------------*\
  =========                 |
  \\      /  F ield         | OpenFOAM: The Open Source CFD Toolbox
   \\    /   O peration     | Website:  https://openfoam.org
    \\  /    A nd           | Version:  6
     \\/     M anipulation  |
\*---------------------------------------------------------------------------*/
FoamFile
{
    version     2.0;
    format      ascii;
    class       pointVectorField;
    location    "1.96";
    object      lm;
}
// * * * * * * * * * * * * * * * * * * * * * * * * * * * * * * * * * * * * * //

dimensions      [1 -2 -1 0 0 0 0];

internalField   nonuniform List<vector> 
28033
(
(-1.780536e-14 4.8656612e-16 1.3104288e-15)
(-5.4375576e-15 3.3318594e-15 9.9433006e-16)
(5520.8071 -522.81571 78.346415)
(5343.2949 -1280.0691 93.293504)
(-1.338461e-14 3.0090723e-15 -2.870051e-16)
(-1.2587315e-14 4.9008913e-15 -4.4266115e-15)
(5337.2526 -1306.7903 75.811181)
(5509.7576 -558.5762 95.859252)
(-5.6329745e-15 1.0535579e-15 6.7193838e-16)
(-2.4534443e-15 3.0423504e-16 5.8836893e-16)
(-5.4923298e-15 2.4302826e-15 8.9528572e-16)
(-2.6209443e-15 -1.1537891e-15 -6.7979696e-16)
(-7.2548563e-15 1.5542294e-15 1.0013199e-15)
(-4.7613589e-15 -9.2108094e-16 -7.3952737e-16)
(-1.132389e-15 -2.2256662e-17 -6.4484848e-16)
(-7.4239857e-16 -2.4218299e-16 -3.6669977e-16)
(-1.1196198e-15 4.5550132e-16 8.383863e-16)
(-2.3465882e-16 2.2667819e-16 1.4996246e-15)
(-4.0583243e-15 -8.7236639e-16 -1.3429605e-15)
(-5.8237189e-15 8.4462789e-16 7.5519031e-16)
(-5.1611762e-15 1.0100276e-15 9.7613867e-16)
(-1.7679952e-15 -8.1010255e-16 4.5192313e-16)
(-4.4158752e-15 1.0299569e-15 -9.452958e-16)
(5508.077 -567.03579 81.411262)
(5494.4178 -611.12954 84.287659)
(5481.6211 -655.64766 87.293906)
(5469.5299 -700.70306 89.539626)
(5458.5247 -746.16308 91.925855)
(5448.6915 -792.24177 93.551541)
(5439.6432 -838.82041 94.90246)
(5431.4883 -886.21509 96.003432)
(5423.2013 -934.16923 96.219069)
(5414.7968 -982.90783 96.245773)
(5405.6683 -1032.1683 95.786869)
(5395.386 -1081.5931 94.847017)
(5384.2367 -1131.5245 94.667308)
(5371.5351 -1181.3733 93.956987)
(5357.6284 -1231.1591 93.613761)
(25.267327 36.574895 40.237067)
(38.109386 59.49152 48.533002)
(56.869509 84.418165 49.172148)
(81.870072 109.60187 44.772495)
(109.51432 135.64627 37.784401)
(141.9181 162.05701 30.201968)
(177.00454 188.93687 22.6764)
(215.38559 215.20031 16.128535)
(256.30243 241.72668 10.928571)
(300.08146 267.26471 7.5168675)
(346.21919 292.31544 5.6966806)
(395.21504 316.2267 5.5824783)
(446.92432 339.05627 7.0110803)
(501.94224 360.37795 9.3876056)
(560.00563 380.10588 12.577991)
(621.7499 397.85286 15.894972)
(687.16271 413.75729 19.209047)
(756.6842 427.17003 21.79058)
(829.85326 438.38908 23.428646)
(907.02259 446.90254 23.859537)
(988.02413 453.04944 22.891207)
(1072.2798 456.22352 20.341588)
(1159.8263 457.08087 16.438552)
(1249.8872 455.08596 11.083411)
(1341.8775 450.58132 4.7011672)
(1435.2785 443.73533 -2.4091234)
(1529.3139 434.54996 -9.9795523)
(1623.3016 423.26942 -17.472093)
(1716.4291 410.06326 -24.50058)
(1808.1034 395.25581 -30.639967)
(1897.6715 378.88662 -35.398211)
(1984.5508 361.32306 -38.676312)
(2068.5104 342.89696 -40.135083)
(2148.9506 323.63249 -39.703948)
(2226.02 303.83638 -37.119726)
(2299.591 283.66565 -32.696091)
(2369.7091 263.3387 -26.762637)
(2436.5893 242.87403 -19.275875)
(2500.7103 222.69487 -10.689981)
(2562.3315 202.57041 -1.5848689)
(2622.0411 182.7112 7.7924148)
(2680.3143 163.223 16.883726)
(2737.7053 144.0399 25.250452)
(2794.6756 125.26626 32.517591)
(2851.7613 106.82001 38.336246)
(2909.3101 88.739388 42.513011)
(2967.611 70.946167 44.86614)
(3026.8914 53.441533 45.388155)
(3087.1614 36.155637 44.164606)
(3148.4439 19.055142 41.383811)
(3210.513 2.0821177 37.331955)
(3273.1654 -14.812282 32.373188)
(3336.0088 -31.665038 26.921985)
(3398.6701 -48.525042 21.423406)
(3460.6821 -65.403757 16.319086)
(3521.6103 -82.333626 12.032591)
(3581.0128 -99.29646 8.9154548)
(3638.5198 -116.29086 7.2636286)
(3693.8189 -133.28209 7.2632504)
(3746.7016 -150.21338 8.9911549)
(3797.0738 -167.03442 12.428255)
(3844.9501 -183.65792 17.419464)
(3890.4934 -200.00888 23.702302)
(3933.9313 -215.97429 31.022868)
(3975.7121 -231.43367 38.784627)
(4016.2487 -246.39331 46.772887)
(4056.0035 -260.57303 54.290732)
(4095.6388 -273.98931 61.136287)
(4135.8313 -286.63774 66.641494)
(4176.9518 -298.41042 70.465327)
(4219.6565 -309.34094 72.377031)
(4264.2759 -319.29205 72.310161)
(4311.1703 -328.41823 70.154691)
(4360.4802 -336.71671 66.0129)
(4412.3205 -344.2795 60.063516)
(4466.5516 -351.21839 52.66533)
(4523.0187 -357.62476 44.173901)
(4581.2911 -363.69546 35.151545)
(4641.0375 -369.55907 26.04181)
(4701.6554 -375.31758 17.456929)
(4762.5944 -381.22352 9.8540085)
(4823.3411 -387.37506 3.703385)
(4883.2949 -393.86012 -0.55413003)
(4941.9617 -400.77839 -2.7484217)
(4999.0855 -408.27124 -2.675856)
(5054.1937 -416.46804 -0.36443414)
(5107.255 -425.2596 4.1413139)
(5158.1148 -434.76257 10.426423)
(5206.9613 -444.77678 18.372808)
(5253.9642 -455.48826 27.101816)
(5299.5915 -466.5589 36.80566)
(5343.7655 -477.75884 45.999918)
(5387.9097 -489.90619 55.424998)
(5431.2357 -500.79167 63.431061)
(5474.9021 -511.83445 71.384011)
(30.567433 -71.988441 -82.095154)
(48.197356 -101.7768 -101.24751)
(66.222464 -134.5167 -128.58239)
(81.338777 -162.60312 -144.36944)
(104.24578 -192.30636 -158.07338)
(128.12555 -221.22707 -168.26799)
(156.31334 -248.40681 -175.66607)
(188.14522 -276.2042 -180.68829)
(223.821 -303.31629 -183.56303)
(262.54171 -329.81618 -184.47321)
(305.41208 -357.01057 -183.3939)
(351.20664 -383.53712 -180.67032)
(400.98025 -410.97407 -176.26312)
(453.90725 -438.36322 -170.58187)
(510.54176 -466.10589 -163.44754)
(570.51143 -494.37608 -155.43175)
(633.83539 -522.4113 -146.39376)
(700.42016 -550.91661 -136.86715)
(770.15271 -579.03525 -126.90064)
(842.75603 -606.55435 -116.68591)
(918.04274 -633.71767 -106.33413)
(995.7601 -659.6044 -96.329463)
(1075.5074 -684.2244 -86.191692)
(1157.0198 -707.54097 -76.552385)
(1239.8728 -728.76156 -67.159253)
(1323.7031 -748.2614 -58.023236)
(1407.9651 -765.51431 -49.327669)
(1492.4252 -780.75722 -40.745801)
(1576.458 -793.80403 -32.468653)
(1659.8177 -804.88549 -24.340504)
(1741.9641 -814.15917 -16.367159)
(1822.7932 -821.7262 -8.4736406)
(1901.8602 -827.97654 -0.70038552)
(1978.9018 -833.12225 6.9238665)
(2053.8819 -837.551 14.380858)
(2126.4584 -841.45216 21.601625)
(2196.7274 -845.33289 28.28002)
(2264.5304 -849.2699 34.504129)
(2330.2345 -853.67552 40.153029)
(2393.7038 -858.67701 45.008026)
(2455.2667 -864.39518 49.007607)
(2515.0994 -870.94013 52.033681)
(2573.5241 -878.29603 54.064059)
(2630.8143 -886.44195 55.064822)
(2687.3133 -895.25246 55.097609)
(2743.3282 -904.60755 54.239596)
(2799.1642 -914.30249 52.634017)
(2855.0993 -924.15729 50.46564)
(2911.359 -933.94439 47.948819)
(2968.1186 -943.47222 45.329838)
(3025.4912 -952.54651 42.858117)
(3083.5057 -961.01885 40.779663)
(3142.1281 -968.76475 39.317688)
(3201.239 -975.72651 38.654436)
(3260.6493 -981.87342 38.921076)
(3320.1096 -987.24887 40.182436)
(3379.3177 -991.92964 42.433089)
(3437.9369 -996.04521 45.590516)
(3495.619 -999.75864 49.501947)
(3552.0215 -1003.2626 53.947605)
(3606.8276 -1006.7613 58.654778)
(3659.7737 -1010.4671 63.311675)
(3710.6646 -1014.5852 67.594364)
(3759.383 -1019.2862 71.163868)
(3805.9198 -1024.7387 73.736208)
(3850.3369 -1031.033 75.026569)
(3892.8784 -1038.2474 74.869112)
(3933.7403 -1046.3835 73.119667)
(3973.2915 -1055.4053 69.728545)
(4012.0761 -1065.2754 64.82145)
(4050.5398 -1075.727 58.49819)
(4089.0999 -1086.7516 51.024799)
(4128.3642 -1098.0146 42.725876)
(4168.756 -1109.3814 33.975618)
(4210.7595 -1120.5948 25.22809)
(4254.6914 -1131.4712 16.907631)
(4300.8441 -1141.8164 9.4672943)
(4349.3643 -1151.4806 3.3001504)
(4400.3125 -1160.3648 -1.2000056)
(4453.5895 -1168.4032 -3.8036302)
(4509.0153 -1175.6119 -4.2938808)
(4566.2709 -1182.0092 -2.6426341)
(4624.9887 -1187.7386 1.1450962)
(4684.68 -1192.8978 6.8696229)
(4744.8819 -1197.722 14.305653)
(4805.0527 -1202.3703 23.058291)
(4864.7382 -1207.1173 32.740563)
(4923.4701 -1212.1435 42.841175)
(4980.9212 -1217.7046 52.906106)
(5036.8023 -1223.9459 62.422237)
(5091.0045 -1231.0574 70.999668)
(5143.5241 -1239.0701 78.22536)
(5194.5055 -1248.0525 83.97014)
(5244.2864 -1257.9575 88.118744)
(5293.8237 -1268.6265 90.943789)
(3.2927448e-15 -1.3239155e-15 2.3845803e-16)
(2.4470133e-15 -9.6672015e-16 3.215493e-17)
(-9.0574249e-15 9.0550918e-16 6.4029168e-16)
(-1.2642219e-16 -5.721845e-16 4.4370095e-16)
(-7.6811722e-15 -4.9270561e-16 4.1193361e-16)
(-7.3893964e-15 2.7533729e-15 -1.0951501e-15)
(-3.2915852e-15 -8.1743692e-16 3.8364228e-16)
(-1.9032499e-15 5.3200654e-16 -8.2319016e-17)
(-4.7409759e-15 -4.8623412e-16 4.3918642e-16)
(-1.2869644e-14 1.1845665e-15 6.4228907e-16)
(-9.6157521e-15 1.4157374e-15 5.9836601e-16)
(-9.4077204e-15 4.9518432e-16 1.1192419e-15)
(-5.982767e-15 2.6210694e-16 3.0473736e-16)
(-1.1478475e-14 -5.3386198e-16 1.6580808e-15)
(-5.257323e-15 3.6289085e-16 2.8600704e-16)
(27.203229 -20.599268 43.093115)
(32.528379 -72.932966 60.899268)
(44.699559 -84.800165 62.534449)
(67.60084 -120.94455 65.466818)
(90.683496 -140.98226 58.977635)
(121.10205 -173.23905 52.850857)
(152.60977 -199.3116 46.070448)
(188.58182 -231.05644 39.520143)
(226.19529 -259.42267 34.322645)
(266.58624 -290.95858 30.188976)
(309.48714 -320.51515 27.794229)
(354.25689 -350.59795 26.596869)
(402.37063 -380.56698 26.639141)
(452.5637 -409.40651 27.332223)
(506.59204 -438.41198 28.854665)
(563.38088 -465.39962 30.150399)
(623.87482 -493.36875 31.123552)
(688.18625 -518.18347 31.795864)
(755.97954 -543.55429 30.725798)
(828.00494 -567.07905 29.16295)
(903.31493 -589.43637 25.677093)
(982.17636 -610.85195 20.820508)
(1063.4732 -630.67991 14.917305)
(1147.9715 -649.56695 7.6390197)
(1233.9723 -666.52105 -0.53281996)
(1321.7128 -683.15464 -9.1594887)
(1410.2997 -696.93677 -18.105379)
(1497.9646 -710.96376 -26.594359)
(1586.1752 -722.33891 -34.425517)
(1671.6853 -733.0309 -41.108044)
(1756.3528 -742.1302 -46.421573)
(1838.349 -750.04487 -49.850106)
(1917.707 -756.62688 -51.388559)
(1994.2513 -761.94626 -50.932164)
(2067.4784 -766.00654 -48.605575)
(2138.2662 -770.44767 -44.092662)
(2205.3608 -772.07123 -37.992257)
(2270.5349 -774.21623 -30.778374)
(2333.2442 -775.71245 -22.53443)
(2394.1431 -776.97804 -13.8478)
(2453.704 -778.26011 -5.1324371)
(2512.3917 -779.73445 3.1671948)
(2570.6734 -781.61614 10.612134)
(2629.0126 -784.07654 16.851949)
(2687.76 -787.28693 21.611447)
(2747.2426 -791.33893 24.693468)
(2807.6426 -796.32756 26.030378)
(2869.0779 -802.25715 25.647309)
(2931.5216 -809.11869 23.694059)
(2994.8699 -816.82018 20.402497)
(3058.8927 -825.25654 16.111877)
(3123.2961 -834.24713 11.197335)
(3187.7007 -843.6172 6.1083871)
(3251.6906 -853.13025 1.273378)
(3314.8248 -862.58515 -2.8601093)
(3376.6673 -871.73878 -5.9181461)
(3436.8144 -880.41547 -7.5622529)
(3494.9165 -888.42646 -7.5725164)
(3550.706 -895.66718 -5.8090808)
(3604.0067 -902.05827 -2.2652306)
(3654.7564 -907.60332 2.9575369)
(3703.0053 -912.35729 9.6356149)
(3748.9236 -916.45247 17.447715)
(3792.7793 -920.06506 25.982267)
(3834.9619 -923.45713 34.768949)
(3875.9141 -926.85622 43.313507)
(3916.0813 -930.68814 51.013523)
(3956.3866 -934.75511 57.652899)
(3996.2808 -940.69626 62.111697)
(4037.9099 -946.96355 65.417007)
(4080.151 -955.10489 65.898047)
(4124.4525 -964.75081 64.241379)
(4170.4787 -976.16162 60.248281)
(4218.6607 -989.30799 54.141474)
(4268.9392 -1004.1528 46.21117)
(4321.2474 -1020.546 36.859806)
(4375.3891 -1038.2914 26.581792)
(4431.0625 -1057.1076 15.939858)
(4487.8784 -1076.684 5.5231278)
(4545.4024 -1096.6517 -4.0804476)
(4603.1467 -1116.6541 -12.319012)
(4660.6433 -1136.3161 -18.707)
(4717.4215 -1155.3036 -22.862222)
(4773.0976 -1173.3186 -24.517448)
(4827.3286 -1190.1243 -23.551707)
(4879.9078 -1205.562 -19.986335)
(4930.7034 -1219.5489 -13.997347)
(4979.7355 -1232.0974 -5.8960032)
(5027.1053 -1243.3014 3.8812521)
(5073.0556 -1253.3416 14.803617)
(5117.8668 -1262.4666 26.290111)
(5161.9332 -1271.0041 37.749925)
(5205.5688 -1279.2765 48.634958)
(5249.1794 -1287.7819 58.610397)
(5292.8601 -1296.6359 67.334076)
(5350.5564 -1264.3948 79.635209)
(5364.607 -1220.5255 82.812251)
(5376.2717 -1175.7584 85.90247)
(5387.4915 -1130.5632 88.819523)
(5396.3458 -1084.4612 91.197868)
(5404.835 -1038.0329 93.493161)
(5411.3971 -991.02822 95.040203)
(5419.1024 -943.71341 96.348234)
(5425.9006 -896.1814 96.968063)
(5433.5001 -848.17934 97.286005)
(5443.2314 -800.26236 96.874793)
(5454.4182 -752.05422 96.899282)
(5467.3198 -704.00659 95.900071)
(5481.1091 -655.09503 95.843498)
(5496.525 -607.27127 95.743017)
(5459.8927 -547.03958 91.490752)
(5412.1072 -535.2493 87.0849)
(5364.319 -522.78112 81.504277)
(5315.9677 -508.84366 75.118077)
(5266.6245 -493.35477 66.959646)
(5216.5167 -476.36972 58.177373)
(5165.3622 -457.89719 48.662645)
(5113.2062 -438.14844 38.935641)
(5060.169 -417.45317 29.505256)
(5006.429 -396.0872 20.686826)
(4952.1286 -374.56101 13.067701)
(4897.6781 -353.15147 6.862462)
(4843.2054 -332.43318 2.4844064)
(4789.1489 -312.62143 -0.00079212474)
(4735.6292 -294.04681 -0.40364829)
(4683.0786 -277.03916 1.3126614)
(4631.6827 -261.70532 5.0636644)
(4581.6117 -248.11482 10.623259)
(4532.9698 -236.24145 17.7143)
(4485.7885 -225.93353 25.957747)
(4440.0196 -216.98781 34.95889)
(4395.5441 -209.08992 44.265755)
(4352.1694 -201.89504 53.426307)
(4309.6808 -194.9792 62.072745)
(4267.7576 -188.06236 69.778784)
(4225.9985 -180.53023 76.21526)
(4184.4196 -172.03599 81.0009)
(4141.9086 -162.17517 84.539905)
(4099.2546 -151.69875 86.226003)
(4055.4246 -139.05884 86.467253)
(4010.3672 -124.8365 85.097782)
(3963.976 -109.00739 82.527163)
(3916.1358 -91.642351 78.987587)
(3866.7781 -72.933302 74.780781)
(3815.9313 -53.15323 70.243129)
(3763.6599 -32.5997 65.689078)
(3710.0757 -11.619016 61.42103)
(3655.3316 9.44721 57.686848)
(3599.6022 30.248729 54.689955)
(3543.0783 50.48984 52.553314)
(3485.9499 69.893787 51.341786)
(3428.4017 88.277632 51.034862)
(3370.5896 105.49865 51.555735)
(3312.6502 121.52493 52.756455)
(3254.6692 136.37329 54.4555)
(3196.7044 150.16609 56.422216)
(3138.7493 163.06623 58.428285)
(3080.7705 175.31601 60.225316)
(3022.6616 187.18026 61.600968)
(2964.3128 198.95452 62.350338)
(2905.5145 210.93209 62.341875)
(2846.1169 223.41165 61.429825)
(2785.8244 236.58039 59.630865)
(2724.4665 250.72069 56.813944)
(2661.7742 265.89521 53.20389)
(2597.464 282.21542 48.746538)
(2531.2821 299.6064 43.680174)
(2463.4939 317.99603 37.984729)
(2392.7629 337.07509 31.978091)
(2320.2684 356.67557 25.830231)
(2245.5291 376.44591 19.26093)
(2167.4473 396.36117 12.509481)
(2087.9202 415.38439 6.4077532)
(2005.6316 433.73946 -0.079328079)
(1921.3693 450.30806 -6.5086375)
(1834.8735 465.77102 -13.183076)
(1746.936 478.37468 -19.613952)
(1657.6149 489.39888 -26.498568)
(1567.2363 497.34093 -33.525735)
(1476.5912 502.73199 -40.964752)
(1385.6209 505.43211 -48.911136)
(1295.1882 505.0494 -57.476328)
(1205.9053 502.29464 -66.53871)
(1117.3442 496.75273 -76.048648)
(1031.2248 488.8674 -86.121002)
(947.29147 478.80576 -96.454992)
(865.68059 466.94627 -106.9908)
(787.78837 453.05927 -117.32976)
(712.31532 438.4833 -127.5352)
(641.60869 421.53811 -137.01216)
(573.79678 404.39338 -145.86882)
(509.97622 386.53737 -153.45296)
(450.30571 367.60908 -159.69397)
(395.09125 346.89474 -164.43371)
(343.22449 327.57994 -167.75479)
(295.96956 305.40586 -168.30971)
(252.74824 282.86093 -167.70294)
(213.43853 259.88496 -164.50684)
(178.12739 235.41631 -159.27757)
(147.0808 209.21025 -151.3416)
(119.95012 181.88022 -140.8517)
(97.299542 153.06046 -127.33742)
(78.581363 125.31314 -110.4663)
(60.669022 91.854972 -86.123692)
(61.838185 58.690174 -49.245768)
(-6.8708141e-15 1.5083581e-15 1.9262289e-16)
(-1.2504183e-14 5.7375616e-16 8.4327435e-16)
(-8.3449101e-15 1.4891922e-15 5.3018253e-16)
(-4.9731758e-15 1.4991158e-15 6.2376313e-16)
(-3.4146159e-15 1.5624416e-15 3.1576894e-17)
(2.0582335e-15 9.3962624e-16 -5.746342e-16)
(2.2101935e-15 3.7457559e-17 -1.1841335e-16)
(2.4553765e-15 -8.5141669e-16 -9.3419562e-16)
(1.2987427e-15 1.0081898e-16 1.7950851e-15)
(-4.5074861e-15 9.063971e-16 1.0710522e-15)
(-5.2682467e-15 2.1856155e-15 1.0652666e-15)
(-7.4917339e-15 1.915055e-15 2.2418828e-16)
(-9.400838e-15 1.3708275e-15 6.2833768e-16)
(-6.2048683e-15 1.3247981e-15 5.4317906e-16)
(-6.971104e-15 1.5128103e-15 7.5678131e-16)
(-1.2693866e-14 6.2923345e-15 -2.1364834e-15)
(-5.2452578e-15 2.6791924e-15 -5.3037742e-16)
(-1.0752404e-15 9.8318743e-16 -1.0111087e-16)
(-2.7353382e-15 1.7746034e-15 7.3085398e-17)
(1.0178949e-15 -1.5450237e-16 -4.119182e-16)
(-1.4303492e-15 4.136346e-16 -3.3264033e-16)
(-1.0059749e-14 4.7133437e-15 -1.6449855e-15)
(2.9801421e-15 -1.9180379e-15 -8.3172098e-16)
(-4.79756e-15 2.8035442e-15 1.1420498e-15)
(-5.4778068e-15 3.5047253e-15 -3.934403e-16)
(-1.8117877e-15 1.1581936e-15 -9.1309836e-16)
(-3.9812639e-16 4.7407236e-16 -2.2932148e-16)
(-1.5272242e-15 1.100363e-15 -2.2557932e-16)
(-4.1024849e-15 1.9838802e-15 2.8069696e-17)
(-5.3424143e-16 2.551799e-16 -1.9455919e-16)
(5343.2129 -1282.8437 93.440808)
(5342.1645 -1285.4634 92.202056)
(5340.7788 -1286.8994 89.957688)
(5338.7992 -1286.9005 87.23054)
(5336.7139 -1285.7809 84.177983)
(5334.4964 -1283.6836 81.204165)
(5332.4589 -1281.1078 78.454664)
(5330.7736 -1278.5955 76.151009)
(5329.5565 -1276.6058 74.414772)
(5328.9387 -1275.6396 73.301405)
(5329.0417 -1276.1731 72.927441)
(5329.71 -1278.4859 73.039197)
(5331.1757 -1282.7515 73.735965)
(5332.8675 -1289.3075 74.528424)
(5335.4521 -1297.4086 75.63803)
(5515.81 -528.93951 77.857246)
(5510.8105 -534.31037 76.958146)
(5506.7325 -538.38222 76.261139)
(5503.8482 -541.15261 75.735519)
(5502.1343 -542.71553 75.701395)
(5501.6026 -543.30807 76.215222)
(5502.1308 -543.19984 77.383673)
(5503.4793 -542.7151 79.128265)
(5505.3989 -542.22094 81.403055)
(5507.5295 -542.05498 84.089046)
(5509.5755 -542.56412 86.965302)
(5511.1452 -543.98824 89.844653)
(5511.9631 -546.49387 92.519314)
(5511.9175 -550.12549 94.450378)
(5510.8825 -554.38316 95.836151)
(14.957159 26.19352 36.275428)
(28.219719 44.628004 37.047504)
(46.355443 66.206833 37.4758)
(70.795744 87.472403 32.088517)
(97.579305 110.0158 26.1262)
(129.64462 133.19664 18.700768)
(164.07306 156.66757 11.753635)
(202.42961 180.52301 5.5671488)
(242.8557 203.92475 0.76123292)
(286.46847 227.05828 -2.5798775)
(332.49887 249.11636 -4.3915001)
(381.50891 270.47986 -4.4700158)
(433.18852 290.03815 -3.430879)
(488.0908 308.45537 -1.1963439)
(546.24127 324.55723 1.6527331)
(608.16168 339.15194 4.8769663)
(673.63333 351.1114 7.9171733)
(742.94692 361.0984 10.619514)
(816.34618 368.52174 12.428777)
(893.6085 373.69009 13.256328)
(974.51753 376.29731 12.863616)
(1058.9875 376.60271 11.145016)
(1146.5217 374.71076 8.1434089)
(1236.6159 370.5155 4.0302601)
(1328.8512 364.40147 -1.1055757)
(1422.3689 356.37904 -6.8618504)
(1516.6521 346.64583 -13.005693)
(1610.8821 335.45214 -19.102951)
(1704.3803 322.88474 -24.789878)
(1796.4606 309.22942 -29.66398)
(1886.474 294.54896 -33.479378)
(1973.9441 279.11357 -35.858083)
(2058.4315 262.98535 -36.612942)
(2139.607 246.24891 -35.700295)
(2217.2938 229.1885 -32.965692)
(2291.3479 211.67847 -28.607068)
(2362.0496 193.90838 -22.824232)
(2429.4703 176.00383 -15.784171)
(2493.9368 157.92563 -7.785787)
(2555.8524 139.63872 0.72428573)
(2615.7818 121.35547 9.3525997)
(2674.1463 102.98808 17.782978)
(2731.4838 84.583168 25.450108)
(2788.2894 66.151359 32.136647)
(2845.1126 47.826073 37.520552)
(2902.3108 29.523971 41.39379)
(2960.2126 11.354438 43.622426)
(3019.0272 -6.6721184 44.214457)
(3078.8516 -24.508316 43.232443)
(3139.6793 -42.131087 40.863688)
(3201.3654 -59.500708 37.365207)
(3263.6866 -76.614241 33.071647)
(3326.3086 -93.439267 28.349723)
(3388.848 -109.9915 23.607329)
(3450.862 -126.25766 19.237032)
(3511.9064 -142.2639 15.611043)
(3571.5413 -158.00908 13.046709)
(3629.3738 -173.53116 11.800612)
(3685.0704 -188.83199 12.025885)
(3738.4029 -203.93646 13.792082)
(3789.2256 -218.85614 17.061126)
(3837.541 -233.59203 21.6942)
(3883.4411 -248.15775 27.450972)
(3927.1774 -262.4783 34.036069)
(3969.0954 -276.6277 41.02291)
(4009.596 -290.56234 48.067063)
(4049.1971 -304.0924 54.746058)
(4088.4299 -317.36492 60.617393)
(4128.0954 -330.02245 65.424952)
(4168.5436 -342.28513 68.562461)
(4210.3723 -353.97468 69.981106)
(4254.0087 -365.01058 69.619617)
(4299.8256 -375.4604 67.399449)
(4348.0112 -385.24202 63.402394)
(4398.7285 -394.3364 57.841063)
(4451.8824 -402.78623 50.998733)
(4507.3434 -410.60363 43.275315)
(4564.7845 -417.88364 35.123108)
(4623.8146 -424.67324 26.988441)
(4683.9171 -431.10191 19.39217)
(4744.5804 -437.3087 12.768086)
(4805.2396 -443.42131 7.5532603)
(4865.3097 -449.55671 3.9856887)
(4924.2986 -455.77284 2.444502)
(4981.8294 -462.3829 2.9692353)
(5037.5612 -469.36958 5.56157)
(5091.2784 -476.90345 10.042874)
(5142.8956 -485.01687 16.220948)
(5192.3572 -493.74413 23.750989)
(5240.1626 -503.14054 32.215597)
(5286.0878 -513.1258 41.193094)
(5330.9761 -523.48918 50.162283)
(5375.1784 -534.61973 58.938145)
(5418.4778 -545.09213 66.737585)
(5462.5828 -556.11876 74.321978)
(5.347433 19.701113 28.271212)
(17.695432 28.80628 28.890998)
(37.67308 48.938572 25.841313)
(59.999522 65.306045 21.593778)
(87.1222 85.680906 14.418927)
(118.05435 105.23502 7.3887467)
(152.60342 126.53294 0.47423993)
(189.98697 147.15568 -5.3213614)
(230.61693 168.11652 -9.9305499)
(273.9503 188.23812 -13.182505)
(320.06464 207.80636 -14.662318)
(368.98287 226.08628 -15.031226)
(420.87726 243.13342 -13.777608)
(475.97269 258.31234 -11.789487)
(534.43215 271.8364 -8.8354639)
(596.49194 283.10792 -5.9054112)
(662.08159 292.40164 -2.5559614)
(731.85923 299.23529 0.086678964)
(805.30411 303.93463 2.311106)
(882.68834 306.15306 3.478414)
(963.70884 306.32457 3.699374)
(1048.2231 304.26034 2.6719508)
(1135.7186 300.27852 0.66692866)
(1225.8583 294.3581 -2.4815766)
(1318.0006 286.83536 -6.407266)
(1411.5148 277.85324 -11.006437)
(1505.7773 267.55225 -15.857266)
(1599.9933 256.1558 -20.70175)
(1693.5812 243.88482 -25.192787)
(1785.7361 230.78669 -28.997997)
(1875.9743 217.08866 -31.770811)
(1963.6602 202.82529 -33.336301)
(2048.4108 188.16641 -33.485876)
(2129.9105 173.1044 -32.115557)
(2207.9343 157.7313 -29.219366)
(2282.449 142.00656 -24.801937)
(2353.5908 125.99984 -19.177693)
(2421.4269 109.68184 -12.430816)
(2486.2914 93.055688 -4.8944614)
(2548.6079 76.143558 3.0819057)
(2608.776 58.898162 11.099299)
(2667.3688 41.470391 18.971801)
(2724.8673 23.683133 26.033563)
(2781.7336 5.7629747 32.193351)
(2838.5074 -12.30374 37.137564)
(2895.576 -30.4778 40.726421)
(2953.252 -48.629189 42.810002)
(3011.7811 -66.695648 43.416462)
(3071.2727 -84.589273 42.591272)
(3131.7335 -102.22379 40.54388)
(3193.0515 -119.53245 37.480169)
(3255.0222 -136.45711 33.730484)
(3317.3334 -152.94685 29.613579)
(3379.6204 -168.99391 25.513731)
(3441.4556 -184.57602 21.765367)
(3502.4066 -199.72342 18.718249)
(3562.032 -214.45701 16.640448)
(3619.9388 -228.83218 15.761064)
(3675.7876 -242.89224 16.202253)
(3729.326 -256.70975 18.024317)
(3780.3945 -270.33687 21.171703)
(3828.972 -283.83322 25.517271)
(3875.1147 -297.23334 30.808231)
(3919.0683 -310.56577 36.833456)
(3961.0881 -323.86592 43.082108)
(4001.6027 -337.12522 49.513002)
(4041.2514 -349.92677 55.172181)
(4080.4539 -362.66923 60.313287)
(4119.6382 -375.61234 64.268443)
(4159.5522 -388.31425 66.859728)
(4200.741 -400.65324 67.832489)
(4243.6277 -412.49799 67.178866)
(4288.5745 -423.87352 64.856731)
(4335.8626 -434.60729 60.973053)
(4385.6217 -444.64764 55.705763)
(4437.8431 -453.97977 49.373065)
(4492.4275 -462.5462 42.306157)
(4549.0535 -470.39819 34.93281)
(4607.4012 -477.57021 27.675168)
(4666.9854 -484.13751 20.982573)
(4727.2572 -490.25129 15.2546)
(4787.7273 -495.95296 10.842698)
(4847.7651 -501.6026 8.0924518)
(4906.6451 -507.20567 6.9571924)
(4964.38 -513.03054 7.7782083)
(5020.5115 -519.14364 10.615406)
(5074.7043 -525.79419 15.175065)
(5126.9266 -533.01528 21.263337)
(5177.0173 -540.86355 28.592139)
(5225.3501 -549.58268 36.689803)
(5271.9609 -558.80773 45.348243)
(5317.1038 -568.66207 53.822638)
(5361.8618 -579.41803 62.362257)
(5405.0893 -589.45113 69.784596)
(5449.5319 -600.36035 77.422069)
(-0.47898655 13.104783 21.667426)
(10.847601 19.795836 19.609547)
(27.530271 34.493536 16.483909)
(50.302483 48.292098 10.675318)
(76.63426 64.558886 3.0354317)
(107.8232 81.647589 -4.1307145)
(141.45445 99.036933 -10.885327)
(179.33757 116.90709 -16.59811)
(219.49172 134.21368 -21.258372)
(262.90439 151.66649 -24.123148)
(308.92641 167.65084 -25.882547)
(358.1232 183.24899 -25.893144)
(410.09216 196.71948 -24.92558)
(465.47401 209.27502 -22.718361)
(524.13399 219.41266 -20.096452)
(586.36996 227.98082 -16.690031)
(652.43724 234.10608 -13.591975)
(722.24691 238.3098 -10.511396)
(795.89819 240.18866 -8.0971802)
(873.41608 240.02294 -6.3474219)
(954.53069 237.85139 -5.582976)
(1039.0272 233.6548 -5.7315981)
(1126.5025 227.86549 -6.9443327)
(1216.5212 220.3752 -9.0370782)
(1308.5116 211.7003 -11.918257)
(1401.8613 201.7154 -15.319438)
(1495.9298 190.85613 -18.991341)
(1589.9938 179.21223 -22.712164)
(1683.3993 166.93153 -26.05507)
(1775.469 154.15786 -28.809055)
(1865.625 141.02715 -30.696697)
(1953.3114 127.57689 -31.48924)
(2038.1652 113.88321 -31.003165)
(2119.7821 99.906813 -29.199561)
(2198.0604 85.724586 -25.987883)
(2272.8325 71.286818 -21.543267)
(2344.2276 56.502375 -15.913288)
(2412.3804 41.466236 -9.3751694)
(2477.6352 26.059234 -2.1665066)
(2540.2543 10.219021 5.3494789)
(2600.7615 -5.958835 12.96676)
(2659.5808 -22.55862 20.202532)
(2717.2258 -39.532219 26.907246)
(2774.2323 -56.81047 32.568821)
(2831.0573 -74.310391 37.164598)
(2888.0569 -91.996506 40.48457)
(2945.6062 -109.7325 42.426887)
(3003.9262 -127.42401 42.998398)
(3063.1477 -144.95681 42.298284)
(3123.2865 -162.22882 40.474313)
(3184.2625 -179.14203 37.758156)
(3245.8722 -195.62265 34.437567)
(3307.8407 -211.60825 30.820514)
(3369.8115 -227.07303 27.244959)
(3431.383 -241.99604 24.028953)
(3492.1278 -256.41023 21.477494)
(3551.6209 -270.3395 19.835442)
(3609.4718 -283.85255 19.293981)
(3665.3363 -297.01745 19.965304)
(3718.9569 -309.92085 21.881617)
(3770.1703 -322.63827 24.982922)
(3818.9168 -335.25971 29.133807)
(3865.2611 -347.8375 34.111356)
(3909.3894 -360.45823 39.677382)
(3951.5776 -373.10304 45.418933)
(3992.1943 -385.8245 51.177354)
(4031.9614 -398.47136 56.190435)
(4070.9554 -411.89012 61.004656)
(4110.0854 -424.44914 64.280494)
(4149.7437 -436.99106 66.362217)
(4190.6348 -449.23564 66.866317)
(4233.0319 -461.07351 65.872649)
(4277.42 -472.51162 63.362602)
(4324.0307 -483.3788 59.404358)
(4373.0657 -493.59049 54.247119)
(4424.519 -503.10029 48.131835)
(4478.3107 -511.88135 41.447431)
(4534.1862 -519.92826 34.562547)
(4591.8265 -527.26811 27.887296)
(4650.7686 -533.98335 21.833883)
(4710.5574 -540.16337 16.783996)
(4770.6203 -545.9428 13.028531)
(4830.4711 -551.49935 10.917699)
(4889.6216 -557.06118 10.338063)
(4947.4218 -562.3071 12.098922)
(5003.6873 -568.04979 15.124622)
(5058.3033 -574.21484 19.94231)
(5110.934 -580.92101 26.014223)
(5161.5254 -588.33644 33.302648)
(5210.4492 -596.41443 41.178432)
(5257.4479 -605.24393 49.582628)
(5303.219 -614.57358 57.801942)
(5348.3233 -624.8857 65.911259)
(5391.8741 -634.51465 73.22575)
(5436.9158 -645.17365 80.354284)
(-3.9517895 8.8971062 13.331204)
(5.1789841 10.996629 10.487393)
(21.457488 22.186158 4.7476339)
(42.861051 31.865794 -1.3155158)
(69.049139 45.234488 -9.2633442)
(98.974451 58.295643 -16.093407)
(133.10444 72.919874 -22.933051)
(170.16128 86.999531 -28.571364)
(210.40432 101.66237 -32.667239)
(253.68961 115.39187 -35.766452)
(299.93432 128.6838 -36.972373)
(349.02254 140.71245 -37.232764)
(401.3247 151.56784 -35.839379)
(456.90367 160.80069 -33.958156)
(515.72988 168.21471 -30.753496)
(578.38856 173.78884 -27.709614)
(644.5217 177.36223 -24.104812)
(714.61357 178.83221 -20.933663)
(788.41232 178.35217 -18.008574)
(866.04166 175.84425 -15.884257)
(947.09466 171.54488 -14.400887)
(1031.5549 165.52343 -13.913382)
(1118.8384 158.04254 -14.2074)
(1208.6691 149.21904 -15.381066)
(1300.3678 139.30923 -17.164672)
(1393.4263 128.4709 -19.482234)
(1487.1363 117.01966 -22.0592)
(1580.8593 104.94352 -24.607586)
(1673.9352 92.563486 -26.87932)
(1765.7076 79.895402 -28.658988)
(1855.6134 67.07468 -29.60808)
(1943.1364 54.10257 -29.63038)
(2027.8496 41.04131 -28.523272)
(2109.4401 27.864761 -26.243889)
(2187.7487 14.517327 -22.765092)
(2262.5926 1.0177093 -18.202806)
(2334.1918 -12.889296 -12.613906)
(2402.5189 -27.021845 -6.3115676)
(2467.8702 -41.617331 0.59681799)
(2530.7392 -56.501085 7.8322244)
(2591.4487 -71.882183 14.935469)
(2650.4675 -87.69994 21.776377)
(2708.3001 -103.9216 27.915344)
(2765.4307 -120.53022 33.207357)
(2822.2943 -137.40508 37.441154)
(2879.2729 -154.5006 40.480716)
(2936.7289 -171.68054 42.235985)
(2994.8763 -188.83172 42.762926)
(3053.8632 -205.83539 42.116088)
(3113.7191 -222.56996 40.46948)
(3174.37 -238.93039 38.035801)
(3235.6383 -254.83695 35.086547)
(3297.265 -270.2153 31.900535)
(3358.9138 -285.04063 28.800241)
(3420.1986 -299.29385 26.061629)
(3480.7106 -313.00791 23.970478)
(3540.0345 -326.21179 22.72831)
(3597.786 -338.99255 22.516039)
(3653.6237 -351.41933 23.408375)
(3707.292 -363.59383 25.428098)
(3758.6072 -375.61204 28.503701)
(3807.5053 -387.56526 32.49418)
(3854.0511 -399.54484 37.203741)
(3898.3506 -411.59062 42.333816)
(3940.7736 -423.77927 47.642222)
(3981.524 -436.10094 52.707727)
(4021.2677 -448.62942 57.41082)
(4060.409 -461.09092 61.156723)
(4099.3925 -473.6241 63.905887)
(4138.9309 -486.08436 65.297838)
(4179.4364 -498.41689 65.43329)
(4221.4933 -510.3493 64.131781)
(4265.4603 -521.90069 61.408677)
(4311.5211 -532.86031 57.42615)
(4359.9443 -543.20306 52.403441)
(4410.7375 -552.81092 46.622825)
(4463.8854 -561.64788 40.399601)
(4519.1198 -569.70191 34.093237)
(4576.1808 -576.98848 28.095214)
(4634.6239 -583.57891 22.767081)