/*--------------------------------*- C++ -*----------------------------------*\
  =========                 |
  \\      /  F ield         | OpenFOAM: The Open Source CFD Toolbox
   \\    /   O peration     | Website:  https://openfoam.org
    \\  /    A nd           | Version:  6
     \\/     M anipulation  |
\*---------------------------------------------------------------------------*/
FoamFile
{
    version     2.0;
    format      ascii;
    class       pointScalarField;
    location    "0.52";
    object      E;
}
// * * * * * * * * * * * * * * * * * * * * * * * * * * * * * * * * * * * * * //

dimensions      [1 -1 -2 0 0 0 0];

internalField   nonuniform List<scalar> 
28033
(
46438.662
46064.675
-2394754.5
-1170240.7
57556.66
53311.804
-1749050.6
-3616743.7
31320.79
21284.779
14621.339
10708.684
7024.6119
5060.7982
4008.1838
3909.1413
5538.9237
7987.4774
12533.925
18541.169
25500.987
32500.18
45795.208
-1308397.1
-1268963.4
-1249482.3
-1242820.6
-1248871.5
-1264198.5
-1286757.8
-1311103.3
-1334331.8
-1353868.3
-1367727.3
-1374460.5
-1371981.2
-1356669.9
-1013886.4
39601.622
26767.908
26592.107
26961.084
28093.465
28730.639
29408.222
29736.65
30049.913
30313.559
30294.693
30313.347
30256.12
30256.507
30130.815
29898.352
29841.925
29733.354
29614.549
29378.865
29394.31
29148.402
29098.615
28943.054
28806.082
28737.114
28539.578
28379.979
28302.159
28038.288
27829.176
27721.304
27491.692
27168.429
26782.331
26672.802
26438.387
25764.066
25693.244
25246.051
24770.951
24304.721
23839.904
23309.684
22766.601
22188.986
21556.78
20908.227
20202.466
19478.686
18703.499
17911.494
17079.348
16228.113
15356.22
14465.924
13567.159
12658.409
11753.904
10856.81
9947.2647
9087.234
8197.9254
7453.1826
6488.0001
5609.4965
4914.4735
4011.0601
3281.0141
2450.1327
1881.1497
1034.6223
516.68506
-249.50654
-688.16019
-1326.9903
-1695.8734
-2154.315
-2426.6964
-2759.8079
-2848.1826
-3149.8232
-2977.8712
-3131.9384
-2896.8793
-2822.8905
-2139.8034
-2084.2559
-1228.6931
-374.51175
-658.04178
937.08461
447.80186
535.70259
11221.937
37641.214
24035.58
26985.245
26410.753
27358.957
28228.196
28485.32
28999.323
29086.469
29123.713
29009.466
28752.501
28536.082
28128.245
27833.216
27379.158
26929.885
26530.763
26055.467
25609.991
25134.938
24713.019
24212.18
23730.69
23304.775
22782.986
22431.277
21826.802
21531.104
20903.244
20475.232
20006.922
19577.495
19161.51
18662.358
18507.462
17822.379
17491.956
17085.859
16754.56
16392.402
16071.91
15762.992
15472.979
15201.712
14952.763
14721.003
14511.95
14327.466
14159.595
14026.437
13909.805
13828.806
13772.036
13751.171
13754.506
13798.502
13871.315
13968.555
14115.106
14262.324
14462.64
14643.172
14897.081
15092.273
15408.186
15635.65
16015.571
16032.395
16028.126
16377.341
16130.496
16429.784
16259.322
16297.131
16073.299
15990.617
15732.422
15439.381
15160.685
14744.314
14393.545
13871.561
13498.278
12828.559
12458.935
11751.34
11292.623
10584.224
10268.463
9383.0457
9144.0257
8660.7856
7966.7862
4419.8954
37135.282
24590.468
17506.149
13981.79
8657.1028
6177.7363
5103.8001
4952.0583
6443.3885
10278.692
13959.931
20661.056
27936.025
37511.342
44237.888
69909.682
31152.682
21154.676
29343.333
27281.684
29885.906
29319.606
30539.05
30120.627
30103.938
30438.233
29657.139
29809.813
29051.775
29051.321
28834.074
28094.409
27493.097
27288.902
26542.213
26419.485
25699.459
25313.979
25017.798
24566.987
24092.426
23601.778
23128.029
22491.731
22436.39
21889.129
21485.703
21041.653
20909.201
19811.626
19357.674
19742.1
19123.978
18757.784
18422.703
18113.001
17814.849
17530.708
17266.341
17014.119
16776.855
16548.46
16334.425
16127.464
15936.417
15757.502
15590.696
15441.116
15302.06
15181.481
15069.169
14978.917
14898.045
14830.273
14781.645
14734.509
14702.979
14676.526
14640.596
14606.644
14648.693
14576.619
13641.931
15255.311
14226.219
14042.332
13748.146
13496.932
13193.94
12839.841
12427.715
12017.391
11549.893
11056.618
10534.56
9979.7472
9425.574
8810.2112
8263.7507
7602.6613
7080.8835
6431.6246
5916.4028
5357.0832
4941.1248
4425.5068
4301.624
3835.9852
3841.5482
2389.4967
-2849785.3
-2731498.5
-2448476.8
-2946082.3
-2438637.3
-2891421.2
-2366355.7
-2621834.1
-2732420
-2515978.1
-2218983.5
-2663368
-2236162.2
-2745162
-2667286.7
10158.156
4843.8012
6875.8203
6597.3625
5789.5376
5201.0874
4587.151
4045.4889
3543.0485
3175.3253
2839.3435
2521.3891
2294.3303
2109.3648
1944.2622
1820.0593
1798.4471
1791.0872
1841.5074
1979.5545
2092.5044
2318.5649
2530.4001
2874.5504
3127.0369
3830.0266
5060.8814
4340.3379
4561.8793
5409.7585
5853.7099
6488.5797
7101.676
7784.296
8494.1661
9229.5426
10007.562
10807.6
11634.007
12472.641
13331.08
14182.39
15042.898
15884.827
16719.239
17527.466
18317.599
19069.033
19802.032
20490.052
21151.178
21769.409
22380.315
22903.593
23453.2
23964.524
23845.913
25557.219
25960.596
25016.142
26836.943
26595.186
26981.948
26896.186
27660.773
28085.804
27994.69
28566.845
28541.461
28865.458
29081.391
29125.511
29570.851
29909.629
29608.452
30262.349
30096.992
30612.763
30645.265
30532.192
31296.416
31476.459
30913.582
31404.252
31960.987
30806.568
31408.014
30937.207
30657.772
28999.085
28844.198
28871.924
28082.93
24061.813
45467.282
33229.853
30830.575
29589.719
29622.111
30167.739
30637.986
30548.78
30878.868
30915.305
30785.329
29968.679
29431.317
30329.287
31497.656
35463.23
31059.548
31389.126
30275.647
31709.108
31584.292
31384.446
33407.29
35404.978
34469.555
34151.728
32424.733
31189.847
30845.202
30275.11
34734.342
-1315942.7
-1316269.9
-1316040.2
-1316451
-1315913
-1315752.2
-1315864
-1315849.9
-1315823.3
-1315905.7
-1315485.4
-1316141.5
-1316120.2
-1316082.3
-1315725.8
-2698533.8
-2696481.9
-2696541.9
-2695516.8
-2697079.9
-2696966
-2697126.8
-2697153
-2697212.3
-2697179.3
-2697208.8
-2697266.6
-2697006.2
-2697810.4
-2700791.9
29369.009
23186.191
21668.273
21664.954
22041.11
22568.646
23117.818
23614.651
24012.725
24374.111
24591.706
24835.161
24944.841
25092.153
25110.24
25218.776
25250.481
25262.831
25282.352
25325.298
25359.329
25303.196
25388.554
25303.493
25298.891
25259.528
25171.631
25103.992
24956.105
24848.827
24608.152
24442.813
24212.15
23907.243
23746.962
23292.174
23067.883
22590.48
22236.844
21794.749
21283.522
20771.537
20284.629
19688.181
19143.947
18504.062
17893.075
17238.154
16576.226
15898.453
15216.669
14521.514
13833.579
13143.453
12466.087
11795.513
11147.99
10515.863
9907.1086
9323.1341
8759.876
8209.5817
7691.814
7215.9676
6571.5814
6322.9586
6157.7601
6180.1724
5748.7856
5269.4964
4963.5097
4531.7067
4261.4734
3889.5478
3623.5171
3362.552
3108.3539
3029.7444
2734.8741
2885.9693
2670.3122
2863.138
3165.4715
3270.5738
3241.1855
3431.8116
3869.9746
3903.4941
4773.6022
4532.8448
5468.0897
5723.9732
6687.67
10197.629
17634.852
19147.951
16252.63
16519.1
16216.583
16557.975
16695.946
17047.818
17421.418
17777.418
18131.829
18419.293
18767.015
19005.941
19268.586
19461.73
19695.895
19874.917
20046.508
20216.359
20355.926
20487.896
20617.391
20741.115
20834.903
20902.889
20991.626
21012.789
21020.191
20996.194
20955.741
20882.505
20734.925
20599.046
20371.621
20151.12
19829.441
19604.505
19224.135
18854.529
18452.03
18059.889
17589.902
17150.348
16590.726
16090.368
15538.656
14974.223
14397.022
13798.383
13195.249
12573.237
11949.887
11320.502
10687.856
10060.563
9434.4361
8822.4073
8215.8837
7622.5655
7055.7602
6473.6718
5947.3799
5422.6995
4857.1476
4330.4765
4009.5884
5639.3682
7399.27
6974.2577
6750.9962
6527.4648
6275.9757
6100.2092
5945.953
5749.3169
5686.8903
5512.7118
5530.7369
5363.6275
5481.6224
5362.6518
5384.4027
5431.6854
2808.498
1660.6766
2206.8962
2719.9988
2894.7306
3270.4164
3572.5844
4000.4412
4388.1318
6209.7929
8804.5442
16083.943
12327.488
10355.699
11557.941
11615.633
11996.174
12010.705
12294.784
12532.132
12802.144
13106.374
13398.905
13713.053
13965.4
14257.308
14501.364
14740.479
14957.82
15171.717
15370.442
15541.522
15747.622
15859.919
16029.218
16107.536
16227.477
16278.283
16318.758
16344.031
16324.51
16272.393
16179.153
16067.548
15923.548
15706.448
15550.174
15208.473
14895.759
14445.582
14133.249
13771.579
13249.922
12887.384
12412.282
11888.014
11414.918
10875.763
10352.807
9829.1166
9285.1712
8756.3787
8219.4909
7694.3035
7174.6483
6665.8495
6174.6459
5696.6634
5242.7909
4803.6897
4395.2214
3997.9639
3633.439
3295.519
2953.0137
2631.7333
2473.7212
1818.6613
1625.0327
4717.7103
3874.4564
3730.5574
3578.8444
3344.8693
3197.0441
2950.3551
2924.2832
2744.8302
2743.2549
2676.5906
2714.4567
2723.2606
2781.9964
2991.439
2858.2418
2980.6708
1210.4754
2747.3751
3085.4134
3363.6352
4070.8892
4163.6642
5009.1682
5716.8332
6940.1085
9205.5855
12757.427
8211.9759
6610.5182
7291.1503
7778.4144
8081.3188
8285.2231
8475.8418
8676.4183
8833.1665
9099.5692
9273.5807
9549.4237
9733.1133
9997.8538
10158.444
10396.468
10563.451
10746.589
10891.628
11046.719
11172.334
11303.541
11410.143
11514.521
11589.201
11645.618
11697.52
11696.152
11686.597
11654.632
11602.668
11504.317
11387.455
11248.062
11104.983
10806.216
10812.283
10592.609
10385.335
10056.964
9826.2742
9484.4385
9169.3921
8862.6964
8578.1026
8240.1084
7935.816
7605.2021
7277.5333
6957.4124
6627.7527
6310.2625
5989.9103
5677.793
5374.294
5077.2284
4790.9973
4520.874
4254.0962
4017.3056
3776.2356
3569.9245
3334.4088
3231.7173
2915.8746
2947.8102
2642.2212
1799.0384
1032.8763
928.98429
1147.7913
1352.4509
931.94179
581.45326
718.11429
735.83876
1055.3275
1063.4106
1535.4181
1588.4519
2220.7066
2207.9633
3105.1704
3023.2415
4453.5137
5122.8338
5913.5292
6230.804
6994.6557
7100.0763
8418.0968
8025.3996
9519.0628
8843.7593
7935.5162
5586.8117
3872.8856
4529.558
4660.6314
5079.7817
5162.9248
5358.4727
5415.27
5570.5502
5693.5622
5838.4389
5989.8406
6125.8297
6274.3178
6396.0814
6534.069
6627.3326
6749.3928
6842.4744
6930.8539
7019.5709
7071.5866
7146.3744
7175.5493
7217.3079
7234.7187
7250.7117
7243.645
7242.1148
7197.9779
7150.8471
7078.3687
6999.0216
6901.7014
6765.9699
6583.1659
6635.9479
6186.148
6285.7075
6147.9314
5944.675
5757.9587
5645.5189
5473.3463
5332.795
5175.984
5067.3486
4942.6163
4849.4988
4758.5123
4680.2536
4615.547
4557.2934
4512.6029
4480.363
4453.3529
4445.1591
4441.148
4453.3409
4471.3956
4510.3754
4514.7583
4622.0401
4600.0607
4722.2096
4707.8824
4907.8596
4893.2475
5092.7153
5094.839
5413.2368
5115.0261
4110.0424
3666.3005
4150.812
4423.0898
4725.5952
5014.522
5397.3945
5726.5513
6118.9256
6607.0938
6910.1026
7510.2561
7901.8306
8428.4147
9036
9426.4544
10229.205
10800.832
11473.534
11203.236
11488.377
9368.6489
4444.509
3714.2955
2218.7152
2380.8649
2390.1784
2589.2836
2709.0822
2760.5368
2869.5807
2895.781
3010.4375
3023.9578
3144.7589
3167.7928
3279.3942
3302.9289
3400.4176
3427.6392
3511.1429
3536.2537
3606.9326
3635.5662
3693.5981
3727.0922
3767.4667
3808.774
3841.7598
3869.201
3883.975
3897.0154
3901.2896
3911.6938
3902.7735
3899.5967
3883.6268
3842.9121
3879.7106
3708.6425
4421.3446
4541.8092
4405.1112
4390.0099
4320.9665
4310.1354
4274.6503
4231.3846
4188.6694
4150.8878
4108.2047
4064.5732
4016.5799
3963.6928
3910.416
3851.6803
3793.4611
3732.688
3675.4431
3618.7398
3568.3496
3523.245
3488.0171
3446.9632
3458.1664
3410.5912
3444.8641
3451.0363
3481.0556
3522.4107
3560.8727
3706.1971
3822.3582
3874.0727
4006.4759
3714.425
4937.512
5988.3697
6293.2281
6752.5956
6994.573
7647.6965
7752.2467
8664.8304
8612.0022
9694.5083
9707.6691
10750.539
11064.643
12002.688
12414.924
13523.051
13382.096
14394.654
13639.53
14424.242
10664.747
3196.6466
2935.8725
1158.6964
1136.8915
824.85803
943.42282
904.36555
991.55511
958.45694
1022.0085
1029.9907
1051.1103
1092.562
1106.0927
1135.8784
1142.0508
1180.7475
1166.4996
1206.8742
1193.5547
1224.1424
1234.385
1263.5452
1275.2539
1303.0385
1341.7659
1358.1295
1405.3619
1438.8639
1489.4007
1522.9474
1564.1283
1594.3852
1641.2403
1651.1974
1733.4179
1702.1066
1838.3567
1695.2289
2109.9138
1987.2427
2111.4917
2118.0821
2174.1978
2211.36
2247.058
2282.5231
2331.4423
2366.7368
2415.27
2459.1685
2510.8098
2561.5639
2620.7697
2682.7649
2756.1805
2835.0626
2930.0454
3036.7434
3159.8993
3295.9638
3464.5757
3631.3731
3836.9561
4053.7295
4293.6603
4557.015
4818.2567
5138.6186
5465.9057
5762.1355
6165.0208
6542.2885
6924.4889
8125.9518
8989.7461
9498.3763
9842.9799
10426.972
10798.016
11348.899
11811.15
12234.795
12881.972
13063.594
13867.886
13910.364
14640.461
14819.969
15442.409
15716.401
16911.275
16311.989
16788.065
13159.055
5504.5481
2726.1538
904.47511
550.33653
233.63902
130.80314
156.5571
99.181112
121.41228
104.17802
137.3266
94.76654
151.70911
108.9941
159.03014
138.82854
184.94739
168.40381
234.41314
221.90255
292.49794
282.39418
340.81317
373.54221
452.47504
499.82275
568.25565
642.56001
706.49183
782.194
851.79521
935.96055
1026.4517
1091.2917
1214.8316
1273.5875
1398.6334
1465.3623
1638.1302
1695.3514
1819.2243
1944.6743
2046.6722
2169.2127
2303.8168
2438.2597
2594.4114
2747.947
2907.7107
3074.0366
3244.4113
3418.9972
3604.1457
3789.6504
3991.1539
4195.4279
4413.6527
4644.3253
4888.3051
5138.392
5421.9885
5701.6602
6003.1373
6321.2782
6664.95
6988.8652
7349.3408
7724.5614
8098.818
8446.379
8880.9012
9218.8616
9664.8965
10043.491
10391.088
10823.338
11248.723
11691.077
12100.571
12529.178
12881.221
13372.317
13586.216
14180.326
14234.91
14913.788
14945.632
15606.982
15806.541
16291.598
16384.669
16529.483
15459.527
17090.393
15148.73
9044.9697
3566.017
1463.2204
1079.0145
661.69986
537.43873
470.8882
441.47177
396.9781
393.88812
399.19151
373.8784
394.97501
386.18391
394.23309
373.06496
398.84193
360.23231
394.75153
367.46948
420.77142
462.54382
577.64235
567.89731
598.73269
617.1785
662.2366
706.75549
755.74059
822.75328
872.0769
953.34136
988.29255
1082.9758
1135.7454
1211.403
1292.3046
1375.5823
1463.7912
1547.423
1660.5012
1763.5244
1879.2378
2011.0707
2148.3984
2290.1486
2428.6958
2583.2004
2737.0065
2905.5098
3074.7104
3260.1298
3445.3085
3645.5036
3855.5972
4071.4867
4308.1648
4553.7734
4813.1118
5095.6457
5396.7434
5700.5937
6047.6663
6405.9286
6768.5181
7168.8048
7594.5435
8015.302
8447.2643
8944.506
9384.7398
9866.8491
10389.642
10743.591
11381.781
11512.168
11648.924
11995.569
12509.346
12795.907
13356.054
13589.37
14027.5
14392.223
14450.933
15053.152
14696.65
15214.263
14801.058
14758.096
14841.899
15013.333
15635.398
17338.873
15821.773
12469.229
5399.9368
3277.0832
2868.0024
2563.2882
2436.6413
2397.633
2360.0551
2306.2604
2341.7549
2374.1143
2341.9814
2414.4319
2385.7587
2407.6993
2396.7248
2402.6925
2352.6632
2386.6053
2302.8854
2311.9667
2278.5599
2214.9996
2106.0312
2099.8449
2111.5962
2110.4489
2116.803
2128.9107
2139.3605
2160.046
2167.2274
2208.1183
2225.1872
2258.611
2314.04
2353.5892
2411.306
2483.0216
2546.6693
2638.2935
2719.7979
2830.3223
2926.7002
3049.5927
3172.519
3318.1044
3472.3612
3638.3628
3812.5578
4002.5587
4199.7846
4410.9249
4635.7551
4872.9201
5122.1522
5393.5261
5667.4038
5971.9501
6282.4164
6610.7392
6956.5309
7327.5073
7681.6591
8088.1927
8466.759
8879.5586
9273.5978
9706.6505
10092.192
10505.13
10921.475
11291.065
11700.72
12169.543
9656.8539
8145.4864
8537.112
8755.6602
9065.7496
9218.1771
9493.8575
9707.5085
9861.4575
10102.685
10239.61
10347.44
10525.696
10640.338
10752.65
10888.135
11057.999
10993.862
12076.622
12349.345
15580.05
6176.9287
5301.3897
4861.758
4841.1884
4669.8105
4695.1507
4555.6057
4587.3418
4593.1177
4640.9291
4610.9383
4678.0386
4627.5193
4632.1768
4567.8419
4536.2018
4450.5777
4410.4274
4310.9494
4282.5653
4223.3636
4268.7271
4249.1218
4241.9324
4132.2454
4023.6783
3937.4719
3822.1803
3754.3877
3644.2386
3594.2421
3514.1545
3438.3423
3403.8701
3328.249
3293.5284
3258.4797
3236.2484
3226.6189
3220.0778
3237.7732
3250.4074
3293.2582
3334.7325
3398.0328
3459.9177
3542.0903
3626.7002
3730.7891
3839.9049
3965.8254
4099.6295
4249.1487
4408.8079
4584.284
4773.5613
4975.5101
5203.0073
5430.6328
5695.2965
5967.3312
6254.238
6574.1359
6913.1184
7251.0612
7633.354
7994.3924
8369.3263
8775.5217
9174.6778
9539.6701
9956.1925
10337.16
10589.168
12236.298
8967.6851
9745.0187
9980.6059
10185.468
10549.656
10706.464
11036.511
11157.77
11414.376
11521.654
11572.807
11766.595
11488.82
11573.394
11381.115
11138.285
11666.703
12696.54
13529.082
17335.377
12855.205
8983.1354
9367.2254
9140.1095
9118.2179
8915.0541
8966.1783
8938.5083
8989.5416
8999.6455
9015.0441
8985.9262
8916.2594
8814.8945
8707.5951
8529.9416
8381.2195
8186.4714
7989.4756
7812.8009
7562.8131
7297.6416
7258.321
7331.7892
7129.4011
6935.2803
6727.7221
6534.8716
6341.8834
6161.9474
5999.3702
5827.196
5681.9379
5541.2168
5414.8802
5317.5778
5217.4581
5145.3676
5071.6907
5039.3801
4997.8643
4995.9277
4993.5536
5020.7399
5057.1685
5118.2174
5190.8417
5285.2898
5389.9299
5514.2814
5652.2805
5804.1826
5973.2551
6154.0134
6351.998
6560.733
6786.2588
7024.2557
7270.1036
7542.6171
7800.6032
8099.2344
8368.9224
8679.1091
8930.1246
9262.8029
9515.4979
9852.7908
10100.591
10332.757
10601.152
10790.445
10997.601
11206.749
11027.45
12198.303
12982.668
13070.701
13167.729
13170.693
13115.36
13100.943
12896.216
12884.019
12500.687
12503.273
11981.28
11889.032
11526.996
11289.411
11007.694
10869.27
10306.445
9212.1646
13048.108
18640.411
15686.824
15434.082
15033.852
14745.155
14709.596
14773.691
14769.993
14912.412
14875.966
14859.222
14758.734
14574.809
14365.271
14100.793
13770.938
13462.721
13079.861
12732.065
12356.535
11987.053
11660.573
11258.119
10978.198
10647.523
10274.162
9998.2338
9635.3584
9343.2323
9045.0216
8756.3658
8503.34
8240.7892
8028.0308
7773.9996
7559.481
7358.9885
7164.8412
7006.9783
6835.5609
6706.9093
6567.7561
6459.6912
6348.2308
6257.9191
6170.0332
6097.6281
6031.2227
5977.0897
5930.5418
5894.8841
5866.3134
5849.2888
5840.3842
5843.1839
5855.5104
5881.6413
5919.9364
5970.6627
6038.7523
6116.7327
6217.9796
6318.2379
6476.1559
6580.0095
6833.1201
6903.8663
7154.1477
7211.8017
7438.0913
7535.2916
7761.4921
7809.7899
7948.6364
8100.39
8030.1543
8137.8562
8195.2695
8226.2122
8267.7993
8312.4143
8322.9085
8367.7372
8376.1363
8423.5721
8457.0594
8458.6299
8698.1806
8526.3536
8948.5038
8850.7692
9249.1397
8166.3373
6623.8062
8954.02
25086.263
21127.526
20373.442
19733.633
20012.754
20080.161
20319.229
20582.785
20751.012
20766.962
20762.757
20612.054
20401.253
20140.162
19791.339
19439.08
19056.772
18608.339
18215.261
17768.893
17327.184
16909.892
16474.225
16075.567
15682.041
15269.741
14938.788
14521.868
14208.352
13827.413
13513.751
13165.798
12851.409
12571.904
12251.934
12013.92
11740.155
11509.883
11258.87
11057.29
10844.165
10657.344
10477.647
10314.575
10159.593
10019.982
9883.9699
9761.8936
9643.6502
9532.8716
9431.5151
9330.6914
9242.6278
9154.3605
9078.621
9004.9178
8942.9139
8889.2739
8839.518
8812.0237
8773.1135
8772.1037
8732.8096
8753.9335
8668.0993
8747.5123
8581.9024
8756.886
8548.5191
8550.1132
8556.8715
8359.6527
8346.423
8154.754
8104.7138
7874.7593
7796.7175
7597.7163
7464.6542
7365.4069
7192.3692
7164.5184
6996.4583
7052.9638
6907.832
7044.2442
6994.3122
7225.4015
7237.3571
7849.3207
7893.0894
8673.9646
8579.0923
6292.1
7689.2208
29142.629
24244.601
23063.08
23123.526
23925.882
24152.413
24743.396
25134.311
25328.357
25458.666
25373.061
25284.564
25021.101
24727.36
24371.809
23956.709
23586.16
23116.449
22653.914
22214.308
21761.175
21279.072
20917.584
20429.167
20038.882
19566.776
19150.38
18756.432
18359.76
18033.81
17613.964
17242.388
16856.88
16473.907
16093.73
15763.102
15505.902
15107.014
14820.724
14469.959
14167.911
13841.911
13531.304
13211.033
12896.493
12577.93
12259.69
11942.703
11621.509
11305.752
10987.409
10674.641
10366.578
10067.421
9777.801
9502.4745
9244.9918
9002.6101
8783.763
8584.2014
8410.4601
8255.7177
8124.1241
8012.2159
7878.4738
7801.4036
7563.1721
7730.9939
7430.4255
7834.7373
7408.4089
7676.7498
7451.6703
7510.826
7466.3902
7503.0193
7488.7071
7547.8932
7636.5886
7684.8149
7824.0476
7961.694
8135.7163
8325.2406
8614.6138
8823.0449
9165.9998
9557.6688
9908.6432
10390.368
11046.783
11720.021
11840.132
12773.81
10596.809
17799.358
16591.575
13527.361
13022.959
12585.578
12608.764
12267.428
12512.465
12581.322
12714.958
12734.131
12790.459
14229.21
15551.52
19975.274
12113.57
9662.0861
8066.2875
7942.8929
7274.206
7229.0224
6942.0761
7093.0533
7250.3965
7209.2813
7407.2981
7760.6405
8573.9269
10153.141
13317.195
8130.1455
6187.4023
4192.3593
3888.7455
3365.9998
3227.5426
3168.1948
3062.5387
3120.2494
3217.7863
3455.903
3739.7357
4485.2781
6165.9346
8892.5064
5608.101
4205.9848
3153.0187
2606.2528
2411.7445
2225.0198
2177.5495
2116.6454
2219.8484
2303.9234
2520.2726
2762.9759
3606.1098
4736.6148
6439.0406
3923.4229
2855.4649
1877.8549
1570.6992
1296.7667
1189.4074
1121.6146
1104.4613
1130.8781
1219.826
1360.7565
1669.3319
2189.2039
3000.6167
4631.7605
3445.0844
2273.359
1545.0183
1283.6541
1057.6261
976.76928
907.73264
912.71064
935.22383
1001.2927
1166.9277
1350.8665
1749.6388
2546.9486
3803.7546
2535.5514
1703.776
1227.1538
952.31426
791.75226
667.94514
621.83912
600.78354
627.76928
690.74941
808.75024
1032.1002
1341.9436
2016.0568
3146.0701
2743.4616
1794.954
1240.8338
975.9647
784.49741
687.49182
623.53855
622.38873
649.06112
712.50177
862.53533
1084.6837
1419.8049
2126.7253
3354.5482
3160.5477
2095.386
1476.7282
1149.0875
934.50677
813.74701
745.33581
745.17637
765.79672
924.02909
988.74005
1248.8524
1625.1276
2457.6587
3585.2892
4684.8996
3298.2394
2164.1243
1738.1058
1380.5533
1237.8792
1123.8069
1106.4994
1130.9959
1204.7608
1480.1329
1698.4098
2403.7561
3642.3157
5445.9992
6123.6786
4431.861
2944.1766
2429.1044
1928.7024
1784.1337
1628.6985
1656.2677
1681.7788
1824.5256
2117.6697
2597.3711
3443.2383
4970.9967
6824.4593
9381.233
6338.0523
4700.1443
3942.5948
3366.0167
3045.6667
2916.9376
2846.4564
2929.4835
3044.3492
3469.0584
3644.7189
4977.6474
6942.3861
9654.7896
12105.435
9339.7183
6947.7462
6075.0537
5297.7985
5128.1817
4836.4437
4962.7627
4966.2459
4983.0163
5498.502
5928.9878
7224.8538
9827.6263
11632.328
17295.596
13490.786
10861.655
9873.686
9071.7903
8712.7013
8778.022
8814.7133
8717.8428
8795.9486
9005.9716
9584.9575
10901.846
12873.728
18023.308
21363.23
21308.634
16739.518
16016.737
15065.167
14142.035
14855.693
15468.382
14474.251
15253.285
14987.844
15609.64
16820.267
19205.86
23894.825
46605.707
37779.039
37471.282
38084.7
38630.79
38381.103
40327.787
42207.223
43103.155
42450.096
41122.997
39001.461
38690.876
40049.378
39328.115
35329.755
31489.438
29602.934
28457.96
27157.369
27863.661
27418.286
27465.501
29181.322
27785.999
28345.685
27942.767
30002.35
32213.438
36678.697
30036.404
30755.97
29428.076
28255.016
28457.361
26125.064
25967.312
26199.524
24970.924
26982.795
26990.983
29456.102
30446.666
30711.227
31431.824
29886.882
32423.657
31986.344
30891.695
30336.794
29890.801
29504.48
29565.711
29596.481
29861.888
30740.035
31617.213
32148.589
32552.204
30441.819
30411.87
32098.071
32456.759
33029.97
32070.302
31730.209
31721.388
31453.102
31778.521
32543.427
32487.584
33264.624
32838.151
32113.944
30339
30553.467
32878.246
33132.797
33413.378
33424.45
33268.773
33017.5
32962.836
33114.115
33047.037
33619.419
33648.804
33392.228
32694.843
30509.685
30704.899
32394.946
33104.448
33645.871
33735.848
33759.095
33799.145
33752.092
33878.41
34023.102
33845.512
33831.309
33247.586
31921.323
30963.673
31010.68
32256.654
33134.614
33698.267
34040.226
34020.98
34052.615
34127.908
33981.876
34124.311
33961.239
33636.022
33063.748
31701.899
30335.099
30615.127
31809.107
32657.694
33268.73
33438.916
33752.834
33789.878
33827.273
33954.389
33659.193
33505.077
33039.475
32496.743
31433.734
30573.421
30725.367
31462.915
32301.083
32772.931
33181.807
33338.008
33470.075
33491.068
33374.988
33422.928
32974.348
32766.621
32034.502
31243.245
30472.726
30241.88
30989.202
31601.634
32154.67
32477.344
32779.451
32863.796
32945.441
32897.76
32688.967
32652.49
32117.973
31693.609
30918.822
30247.945
29939.892
30414.922
31305.002
31580.454
31932.543
32105.46
32227.288
32232.625
32144.407
32019.084
31710.33
31412.456
30866.041
30268.889
29967.641
29745.28
30067.57
30391.988
30920.952
31220.889
31444.985
31649.407
31601.507
31658.701
31519.917
31344.769
31034.913
30583.691
30123.886
29596.981
29172.561
29477.77
30054.834
30326.468
30656.487
30812.937
30844.632
30960.497
30835.914
30675.4
30429.376
30185.77
29756.871
29315.972
29226.476
28851.845
29067.749
29508.533
29755.062
30031.264
30111.211
30249.679
30218.162
30341.973
30208.164
30086.385
29846.021
29526.468
29232.094
28841.344
28332.994
28531.315
28878.143
29232.988
29346.893
29570.581
29725.441
29550.108
29574.483
29439.27
29217.056
29020.717
28560.635
28342.359
28298.972
27823.592
28018.347
28400.368
28582.558
28883.256
28913.91
29052.457
28992.485
29057.293
28945.832
28881.561
28694.665
28548.039
28050.506
28117.222
27560.081
27574.058
27919.819
27894.004
28199.851
28347.095
28575.681
28458.79
28411.787
28310.78
28094.043
27963.272
27731.02
27449.062
27274.23
27009.703
27066.864
27402.693
27648.715
27767.795
27796.506
27806.006
27877.005
27903.384
27795.1
27799.253
27555.309
27383.188
27145.999
27216.95
26464.77
26609.717
26903.978
27049.447
27195.731
27378.591
27330.393
27363.621
27363.797
27287.323
27033.942
27064.96
26806.492
26664.114
26438.133
26180.768
26171.301
26473.004
26521.995
26758.407
26697.585
26938.561
26823.739
26846.64
26744.309
26631.753
26544.166
26383.993
26171.491
26211.158
25568.027
25691.526
25905.897
26082.978
26178.81
26268.416
26327.404
26351.788
26376.118
26262.82
26221.066
26130.855
25963.708
25552.992
25747.641
25238.767
25229.278
25533.459
25597.256
25791.151
25748.06
25868.301
25859.875
25817.695
25837.584
25735.87
25550.778
25386.305
25207.509
25225.297
24742.044
24760.869
25007.549
25170.417
25254.327
25392.837
25402.091
25334.53
25350.452
25304.653
25114.177
25168.098
25031.277
24695.483
24808.605
24287.925
24447.162
24549.159
24687.427
24827.042
24716.936
24956.831
24841.064
24916.264
24836.959
24718.339
24635.416
24492.723
24230.288
24361.037
23871.913
23862.921
24169.855
24081.728
24274.813
24356.805
24452.527
24372.572
24440.835
24316.991
24435.082
24248.782
24046.467
23926.519
23803.689
23363.337
23387.481
23582.534
23734.067
23893.549
23890.036
23962.148
23942.172
23974.119
23893.072
23867.675
23800.799
23579.782
23319.858
23549.283
22975.469
22974.859
23154.68
23127.743
23496.537
23402.807
23503.137
23460.882
23516.589
23423.763
23373.141
23192.187
23187.792
23064.86
22898.168
22455.018
22507.46
22866.472
22786.804
22906.632
22866.471
22998.78
23023.297
23103.708
23007.146
22928.671
22879.139
22677.315
22355.705
22627.197
22196.932
21963.344
22262.412
22296.381
22533.749
22521.575
22614.363
22544.465
22521.33
22448.318
22449.112
22278.068
22056.035
21976.899
22124.739
21621.567
21506.239
21883.786
21841.732
22027.38
22187.826
22118.465
22002.99
21918.417
21950.452
22006.744
21856.108
21872.889
21510.885
21684.456
21274.933
21017.015
21411.96
21362.609
21580.775
21480.032
21646.498
21592.133
21730.042
21560.228
21551.333
21407.751
21352.812
21071.955
21272.461
20824.389
20586.477
20995.735
20922.883
21151.664
21071.529
21250.948
21091.52
21213.427
21073.696
21123.293
20951.358
20929.937
20627.821
20843.022
20420.748
20149.763
20487.84
20319.304
20706.983
20643.511
20793.691
20689.306
20788.586
20651.73
20678.141
20531.713
20498.088
20224.107
20529.031
19826.571
19731.087
20258.414
20219.334
20314.982
20228.553
20362.727
20288.551
20366.512
20424.068
20324.051
20169.974
20105.107
19934.669
19928.912
19695.456
19454.19
19656.883
19938.595
19796.41
19824.65
19941.376
19872.71
19998.293
19650.271
19844.522
19676.202
19687.667
19329.589
19652.371
19445.195
18938.51
19286.611
19149.191
19489
19373.453
19572.068
19407.873
19492.426
19118.125
19358.651
19318.832
19237.988
19044.613
19239.684
18807.401
18545.729
18996.497
18930.462
19105.121
19051.865
19185.253
19069.43
19207.267
19138.829
19165.125
18878.355
18975.085
18605.602
18904.414
18648.779
18161.836
18669.124
18484.204
18811.442
18629.183
18875.457
18682.179
18835.415
18663.914
18713.817
18577.968
18576.677
18261.712
18587.546
18295.395
17831.364
18333.439
18182.712
18445.877
18304.691
18537.132
18322.993
18531.448
18298.003
18433.368
18192.597
18261.844
17929.686
18262.397
18027.238
17498.896
18046.633
17826.111
18161.499
17965.161
18220.121
18008.565
18190.248
17999.776
18093.503
17886.694
17957.659
17598.344
17964.374
17747.424
17201.512
17744.394
17541.014
17860.02
17655.503
17941.751
17679.367
17919.2
17674.737
17804.425
17583.243
17656.409
17300.659
17691.381
17510.375
16902.431
17491.249
17242.204
17582.074
17374.101
17643.251
17404.763
17620.901
17393.525
17523.936
17296.327
17380.143
17018.641
17422.198
17272.976
16640.66
17233.612
16959.551
17325.466
17088.239
17396.808
17118.988
17360.198
17124.185
17254.556
17031.978
17121.615
16750.931
17178.474
17067.644
16380.831
16999.88
16700.93
17067.146
16842.748
17142.959
16862.017
17108.582
16869.001
16999.727
16784.165
16868.352
16501.98
16944.891
16870.088
16140.606
16787.021
16437.09
16833.34
16589.025
16910.098
16609.318
16869.106
16625.41
16759.37
16546.806
16634.583
16267.822
16727.526
16691.111
15920.248
16575.735
16207
16614.255
16373.906
16702.717
16382.968
16653.136
16403.903
16533.281
16327.752
16411.151
16048.773
16521.381
16535.374
15706.079
16395.629
15984.276
16410.156
16160.92
16498.099
16158.214
16447.123
16186.857
16322.113
16118.229
16207.399
15844.019
16333.459
16386.525
15520.19
16221.402
15778.327
16225.986
15976.875
16323.021
15968.73
16267.137
15997.07
16129.48
15929.193
16016.193
15652.176
16158.562
16268.537
15345.164
16069.412
15599.945
16061.533
15794.619
16147.969
15770.484
16087.52
15805.746
15945.33
15746.82
15841.109
15475.494
16003.269
16159.577
15189.726
15938.887
15435.135
15905.688
15640.635
16006.287
15619.751
15950.326
15655.167
15791.819
15596.414
15686.385
15318.915
15864.418
16075.002
15059.011
15822.902
15289.026
15784.079
15501.186
15868.452
15457.659
15799.402
15489.852
15637.946
15443.324
15539.765
15174.48
15740.577
16011.992
14943.649
15727.338
15175.605
15672.123
15377.881
15759.596
15341.667
15698.738
15382.217
15526.131
15331.258
15426.704
15058.117
15639.832
15965.427
14851.616
15659.723
15071.781