/*--------------------------------*- C++ -*----------------------------------*\
  =========                 |
  \\      /  F ield         | OpenFOAM: The Open Source CFD Toolbox
   \\    /   O peration     | Website:  https://openfoam.org
    \\  /    A nd           | Version:  6
     \\/     M anipulation  |
\*---------------------------------------------------------------------------*/
FoamFile
{
    version     2.0;
    format      ascii;
    class       pointVectorField;
    location    "0.52";
    object      lm;
}
// * * * * * * * * * * * * * * * * * * * * * * * * * * * * * * * * * * * * * //

dimensions      [1 -2 -1 0 0 0 0];

internalField   nonuniform List<vector> 
28033
(
(0 0 0)
(0 0 0)
(4581.7926 -1188.3313 41.249743)
(4338.4241 -1885.9129 16.296946)
(0 0 0)
(0 0 0)
(4339.6029 -1921.1045 23.931542)
(4581.7701 -1216.6841 27.914772)
(0 0 0)
(0 0 0)
(0 0 0)
(0 0 0)
(0 0 0)
(0 0 0)
(0 0 0)
(0 0 0)
(0 0 0)
(0 0 0)
(0 0 0)
(0 0 0)
(0 0 0)
(0 0 0)
(0 0 0)
(4432.4858 -1192.6591 39.34661)
(4251.605 -1186.0473 37.457023)
(4116.1345 -1190.1543 35.727484)
(4042.8375 -1211.2417 33.938341)
(4039.3159 -1253.7805 32.513459)
(4102.2308 -1318.668 31.016113)
(4218.2339 -1403.6293 29.686374)
(4365.9875 -1502.8147 28.227741)
(4519.4437 -1607.8514 26.625809)
(4652.2273 -1708.7741 24.935122)
(4740.9953 -1795.84 23.273778)
(4769.792 -1860.9549 21.797735)
(4731.5928 -1899.2716 20.36055)
(4629.8061 -1910.0006 18.974918)
(4483.0674 -1899.3213 17.738699)
(24.055092 29.359208 30.256299)
(37.818617 46.308123 37.247493)
(53.096767 61.48778 40.450018)
(70.573238 75.673527 41.164529)
(88.032495 89.248627 40.741561)
(106.6074 102.02725 39.973906)
(125.32431 114.69045 39.463036)
(144.43045 126.74585 39.261681)
(163.85165 139.03171 39.730021)
(183.87007 151.05323 40.690829)
(204.60033 163.43779 42.247155)
(226.59641 175.80937 43.942545)
(250.11803 188.51028 45.98317)
(275.83783 201.20673 47.655248)
(303.83248 213.97025 49.230379)
(334.86389 226.40733 49.965818)
(368.85339 238.54411 50.27885)
(406.17832 249.9039 49.620079)
(446.71668 260.47299 48.219742)
(490.51547 269.81546 45.921101)
(537.21057 277.99247 43.130204)
(586.64413 284.59439 39.608657)
(638.28952 289.79508 35.963896)
(691.90794 293.37825 32.089589)
(746.88375 295.46049 28.39335)
(802.96631 296.20096 25.056873)
(859.74652 295.54848 22.249674)
(917.0817 293.83118 20.03765)
(974.69284 291.10128 18.631044)
(1032.5972 287.59771 17.935202)
(1091.0128 283.36358 17.945125)
(1149.798 278.60267 18.581122)
(1209.4629 273.2348 19.624305)
(1270.2248 267.39181 20.948438)
(1332.3508 261.03575 22.378269)
(1396.181 253.92756 23.755211)
(1461.9592 246.08252 24.79918)
(1529.9892 237.2734 25.492327)
(1600.2525 227.4132 25.692141)
(1672.9691 216.26324 25.342318)
(1747.9901 203.71621 24.458319)
(1825.2785 189.66552 23.091961)
(1904.6097 173.96709 21.291917)
(1985.7319 156.61118 19.224844)
(2068.3208 137.56765 17.007753)
(2152.1122 116.85573 14.775107)
(2236.7126 94.525322 12.690042)
(2321.8885 70.637831 10.839949)
(2407.2995 45.279618 9.3288208)
(2492.7768 18.511636 8.1844462)
(2578.0889 -9.5944174 7.4008208)
(2663.1459 -39.011613 6.9165022)
(2747.8295 -69.721327 6.6206036)
(2832.0966 -101.75511 6.3627647)
(2915.8884 -135.14862 5.9584046)
(2999.1429 -169.97675 5.2228632)
(3081.7621 -206.29704 3.9669358)
(3163.5893 -244.15646 2.0401312)
(3244.3908 -283.57033 -0.65192175)
(3323.8512 -324.4846 -4.1444368)
(3401.5587 -366.75961 -8.3819043)
(3477.0499 -410.19816 -13.244316)
(3549.7889 -454.4851 -18.475212)
(3619.1538 -499.18829 -23.857625)
(3684.8199 -543.95756 -29.123826)
(3745.9494 -588.10018 -33.652399)
(3802.5933 -631.1285 -37.596722)
(3854.2153 -672.64119 -40.474801)
(3900.7029 -712.13835 -41.843366)
(3942.4096 -749.05211 -41.939995)
(3979.4389 -783.35513 -40.761414)
(4012.1238 -814.67511 -38.2331)
(4041.1369 -843.02529 -34.597251)
(4066.9703 -868.50395 -30.089931)
(4090.3845 -891.22351 -25.009803)
(4111.9012 -911.48607 -19.582223)
(4132.2599 -929.55399 -14.152653)
(4151.7759 -945.82425 -8.8826914)
(4171.0751 -960.62113 -3.9723236)
(4190.2175 -974.22339 0.4783687)
(4209.536 -987.00538 4.4450176)
(4228.9799 -999.18204 7.9610442)
(4248.6284 -1010.8888 11.096924)
(4268.3248 -1022.2496 13.966728)
(4288.1274 -1033.4732 16.636737)
(4307.8053 -1044.5236 19.260883)
(4327.4307 -1055.6218 21.8598)
(4346.999 -1066.6509 24.430982)
(4366.4589 -1077.8808 27.078075)
(4386.0782 -1089.2164 29.477353)
(4405.7684 -1101.05 31.926287)
(4425.7489 -1113.1035 33.951336)
(4445.9916 -1126.0896 35.769619)
(4466.3064 -1139.3809 37.481938)
(4485.4358 -1153.3203 38.783104)
(13.981764 -41.59605 -45.185997)
(28.843702 -55.15033 -50.770012)
(45.5831 -71.759445 -59.291519)
(58.368883 -84.058613 -61.037532)
(75.432381 -97.972065 -62.381401)
(90.787532 -111.45285 -62.817278)
(106.39126 -124.08715 -62.911433)
(121.75535 -137.58502 -63.395317)
(136.73658 -150.86166 -64.281837)
(151.39486 -164.64044 -65.759203)
(166.266 -179.13618 -67.678702)
(181.4929 -194.15316 -70.018626)
(197.78685 -210.12735 -72.477379)
(215.4554 -226.83558 -74.969654)
(235.18951 -244.34712 -77.080999)
(257.2157 -262.69154 -78.774337)
(282.05354 -281.54868 -79.713368)
(309.89432 -300.97472 -79.802104)
(340.74343 -320.79036 -79.067984)
(374.71205 -340.6444 -77.405638)
(411.42882 -360.60599 -74.858985)
(450.76119 -380.44311 -71.754213)
(492.21731 -399.89534 -67.972106)
(535.34541 -419.19572 -63.994418)
(579.86042 -437.97087 -59.877487)
(625.11577 -456.48441 -55.858268)
(670.86303 -474.67694 -52.206426)
(716.75235 -492.68529 -48.973219)
(762.63578 -510.68549 -46.284648)
(808.45442 -528.79033 -44.191653)
(854.1784 -547.28327 -42.665502)
(900.15756 -566.2654 -41.617308)
(946.4954 -586.03356 -40.951273)
(993.59108 -606.62204 -40.53406)
(1041.747 -628.32571 -40.202016)
(1091.3805 -651.07355 -39.811247)
(1142.7645 -675.03466 -39.165165)
(1196.2352 -700.13877 -38.254717)
(1251.999 -726.37802 -36.894875)
(1310.1792 -753.65492 -35.111478)
(1370.809 -781.83746 -32.869689)
(1433.8769 -810.78915 -30.212968)
(1499.2412 -840.35678 -27.196221)
(1566.7337 -870.37485 -23.91738)
(1636.1213 -900.70134 -20.465529)
(1707.1632 -931.20604 -16.947657)
(1779.6019 -961.78803 -13.453767)
(1853.2205 -992.37775 -10.053175)
(1927.8241 -1022.9415 -6.7899725)
(2003.286 -1053.4698 -3.6665049)
(2079.5342 -1083.9927 -0.64965592)
(2156.5589 -1114.5404 2.3326681)
(2234.4072 -1145.1639 5.3869966)
(2313.1583 -1175.895 8.6366997)
(2392.9059 -1206.7449 12.215427)
(2473.7274 -1237.6838 16.240753)
(2555.6502 -1268.6357 20.801079)
(2638.623 -1299.4537 25.930384)
(2722.4906 -1329.9429 31.600196)
(2806.9732 -1359.8373 37.702379)
(2891.6617 -1388.8315 44.052123)
(2976.0231 -1416.5892 50.396518)
(3059.4219 -1442.768 56.418538)
(3141.1428 -1467.04 61.780163)
(3220.4478 -1489.1433 66.125171)
(3296.6036 -1508.8775 69.164406)
(3368.9735 -1526.1016 70.565043)
(3436.9257 -1540.916 70.279133)
(3500.3773 -1553.39 68.229605)
(3558.7111 -1563.9414 64.229855)
(3611.8709 -1572.3042 58.897872)
(3660.5933 -1579.8239 52.169428)
(3704.5814 -1586.1822 44.562425)
(3744.6403 -1592.2774 36.483677)
(3781.2674 -1598.4428 28.394389)
(3815.0467 -1605.1455 20.714661)
(3846.5894 -1612.7019 13.815028)
(3876.4665 -1621.3796 7.9777033)
(3905.1149 -1631.2898 3.3941724)
(3932.8964 -1642.4664 0.10363441)
(3960.0447 -1654.8466 -1.9214967)
(3986.6761 -1668.2579 -2.8467966)
(4012.8278 -1682.5148 -2.8548009)
(4038.4682 -1697.3767 -2.2091631)
(4063.5494 -1712.6409 -1.121274)
(4088.0152 -1728.0976 0.17497631)
(4111.8612 -1743.6219 1.5537588)
(4135.1225 -1759.1024 2.9140716)
(4157.887 -1774.4897 4.245011)
(4180.3089 -1789.7645 5.589828)
(4202.5364 -1804.8973 7.0243021)
(4224.7369 -1819.8525 8.6088584)
(4247.0033 -1834.5068 10.411354)
(4269.2882 -1848.7995 12.424825)
(4301.0152 -1866.3343 14.481465)
(0 0 0)
(0 0 0)
(0 0 0)
(0 0 0)
(0 0 0)
(0 0 0)
(0 0 0)
(0 0 0)
(0 0 0)
(0 0 0)
(0 0 0)
(0 0 0)
(0 0 0)
(0 0 0)
(0 0 0)
(23.921668 -17.391579 32.385001)
(32.716982 -58.357247 44.594422)
(45.139375 -61.853835 45.289351)
(61.899547 -82.995302 49.575142)
(77.325328 -92.904559 48.356194)
(93.334059 -107.78895 47.214537)
(109.46459 -120.39608 47.334549)
(123.6313 -133.57722 46.923847)
(138.85777 -147.41016 48.685226)
(152.26709 -160.76469 50.237847)
(166.26488 -174.40524 52.726842)
(181.22163 -190.01359 55.633595)
(196.70282 -204.59293 58.294579)
(214.67906 -221.43815 60.431024)
(234.25493 -238.03485 61.952082)
(257.19942 -255.37107 62.225914)
(283.57197 -275.17299 61.252176)
(312.436 -293.45111 59.196512)
(345.52593 -314.05824 55.524442)
(380.96123 -334.04539 51.040135)
(419.87025 -354.58476 45.647852)
(461.48683 -375.41713 39.454354)
(504.12841 -396.17552 33.371731)
(548.74757 -416.55617 27.396231)
(594.12662 -436.60286 21.991534)
(640.00551 -456.76759 17.303734)
(685.71044 -475.58016 13.778036)
(731.65702 -495.41992 11.161706)
(776.15696 -513.66215 10.062525)
(821.39375 -532.93643 9.8488214)
(866.31475 -552.01014 10.692439)
(911.06643 -571.47698 12.248293)
(956.38195 -591.47192 14.288963)
(1002.4656 -612.32774 16.532102)
(1051.7256 -634.87145 18.749903)
(1096.718 -655.71412 20.392234)
(1150.1288 -680.87065 21.848822)
(1203.5788 -706.15454 22.406364)
(1259.6228 -732.61964 22.25142)
(1318.3234 -760.25592 21.24985)
(1379.6935 -788.96463 19.524763)
(1443.6618 -818.59093 17.136043)
(1510.0579 -848.99229 14.234594)
(1578.671 -879.99799 10.988321)
(1649.228 -911.44242 7.5762507)
(1721.4561 -943.17565 4.1705078)
(1795.0751 -975.06215 0.92975801)
(1869.837 -1006.9949 -2.0259116)
(1945.5318 -1038.8916 -4.6117271)
(2022.008 -1070.6978 -6.7989252)
(2099.171 -1102.378 -8.6002753)
(2176.9896 -1133.9097 -10.090799)
(2255.4775 -1165.2773 -11.369059)
(2334.6864 -1196.4471 -12.584919)
(2414.6748 -1227.3812 -13.883166)
(2495.4918 -1257.9933 -15.42712)
(2577.1349 -1288.1793 -17.340632)
(2659.5397 -1317.781 -19.726941)
(2742.5409 -1346.6107 -22.622954)
(2825.8694 -1374.4483 -26.008893)
(2909.1383 -1401.0529 -29.7933)
(2991.8544 -1426.1819 -33.820114)
(3073.4282 -1449.6103 -37.869686)
(3153.2129 -1471.1488 -41.694996)
(3230.5327 -1490.6567 -45.007331)
(3304.6763 -1508.0609 -47.529273)
(3375.2193 -1523.3723 -48.982034)
(3443.0741 -1537.5883 -49.378651)
(3501.6834 -1548.0364 -48.211518)
(3559.4843 -1557.8479 -45.774904)
(3611.5733 -1567.0772 -42.268631)
(3658.7989 -1575.0098 -37.44124)
(3701.5179 -1582.559 -31.771782)
(3740.3822 -1590.0704 -25.541267)
(3775.7693 -1597.9385 -19.038389)
(3808.2995 -1606.4647 -12.589351)
(3838.5664 -1615.899 -6.5186447)
(3867.1154 -1626.4229 -1.0502005)
(3894.4149 -1638.1172 3.6404729)
(3920.8583 -1650.9746 7.4640849)
(3946.7043 -1664.9327 10.422496)
(3972.1357 -1679.8469 12.591533)
(3997.2112 -1695.5458 14.099011)
(4021.9618 -1711.8405 15.121371)
(4046.3376 -1728.534 15.828416)
(4070.328 -1745.456 16.386999)
(4093.895 -1762.4655 16.922136)
(4117.0802 -1779.4406 17.512118)
(4139.9322 -1796.308 18.190349)
(4162.5663 -1812.98 18.93718)
(4185.1002 -1829.4006 19.723264)
(4207.649 -1845.4531 20.490541)
(4230.2756 -1861.0089 21.23343)
(4253.002 -1875.8477 21.93846)
(4265.3708 -1885.2105 22.669177)
(4497.2008 -1939.9755 25.732338)
(4654.0832 -1954.9302 27.434543)
(4735.9015 -1935.3829 28.523474)
(4766.8859 -1893.3943 29.126465)
(4734.4719 -1826.0351 28.789048)
(4633.9314 -1733.3969 27.873465)
(4506.1624 -1633.325 26.358586)
(4368.5528 -1532.7534 24.820223)
(4198.3697 -1424.9795 23.214615)
(4078.0882 -1338.0445 21.986653)
(4035.9439 -1279.4181 21.58207)
(4046.9483 -1239.442 21.689522)
(4123.5333 -1219.3998 22.610934)
(4271.1912 -1219.3204 24.072503)
(4475.1019 -1232.7354 26.362337)
(4501.2411 -1185.252 25.813997)
(4489.7584 -1173.5316 23.531281)
(4468.2849 -1159.4767 21.275633)
(4446.4739 -1145.8557 18.674086)
(4424.7054 -1132.6325 16.010298)
(4403.0495 -1119.5847 13.381457)
(4381.441 -1106.65 10.747872)
(4359.9016 -1093.6525 8.1392556)
(4338.3818 -1080.5598 5.673401)
(4316.9124 -1067.2407 3.3436762)
(4295.4712 -1053.7013 1.3524644)
(4274.1988 -1039.8679 -0.18666529)
(4253.1023 -1025.7256 -1.0823943)
(4232.3756 -1011.2354 -1.2114759)
(4211.8979 -996.17881 -0.37299068)
(4191.8328 -980.58197 1.5499553)
(4172.0845 -964.21027 4.7183367)
(4152.4971 -946.84895 9.0826298)
(4132.8112 -928.27814 14.6365)
(4112.6399 -908.21287 21.199816)
(4091.472 -886.39942 28.575092)
(4068.7344 -862.59133 36.462807)
(4043.7473 -836.57725 44.497144)
(4015.8585 -808.20284 52.334665)
(3984.4438 -777.50404 59.635133)
(3948.7358 -744.45109 65.951507)
(3911.1719 -709.8354 71.068422)
(3861.1295 -669.7493 74.019047)
(3812.5557 -632.17559 76.292398)
(3756.5039 -590.99976 76.679141)
(3695.7896 -549.23666 75.587839)
(3630.1889 -506.78744 72.916941)
(3560.3457 -464.06242 69.116269)
(3486.7103 -421.47513 64.329617)
(3409.9082 -379.36014 58.884001)
(3330.5171 -337.99403 53.052777)
(3249.1081 -297.60267 47.081155)
(3166.1896 -258.33116 41.183335)
(3082.1912 -220.28634 35.508753)
(2997.4544 -183.50556 30.148881)
(2912.237 -148.01472 25.142441)
(2826.7171 -113.79981 20.47749)
(2741.0169 -80.86405 16.105962)
(2655.2195 -49.20129 11.962804)
(2569.3966 -18.839865 7.973293)
(2483.6219 10.183056 4.0712469)
(2398.0004 37.798369 0.20825708)
(2312.6638 63.927602 -3.6440228)
(2227.7933 88.482178 -7.4860323)
(2143.6062 111.37391 -11.29071)
(2060.3512 132.53382 -15.022913)
(1978.2929 151.92523 -18.610753)
(1897.7333 169.51605 -22.001598)
(1818.8778 185.38139 -25.13485)
(1742.0574 199.51102 -27.909425)
(1667.3366 212.14867 -30.340238)
(1594.8867 223.33071 -32.425949)
(1529.5739 234.07453 -34.174958)
(1455.299 241.87121 -35.335844)
(1391.2193 250.33311 -36.455735)
(1331.1585 258.46627 -37.308337)
(1264.3514 264.2134 -37.897242)
(1205.1649 270.94212 -38.514495)
(1145.7872 276.96952 -39.270465)
(1089.6023 283.16769 -40.221167)
(1029.085 287.42285 -41.238628)
(974.13374 292.55535 -42.684699)
(915.51604 295.643 -44.317223)
(859.68015 298.53353 -46.323618)
(803.99381 300.08678 -48.594925)
(748.9502 300.34723 -51.010912)
(695.15929 298.82115 -53.540177)
(642.48775 295.9621 -55.999293)
(591.55584 291.3189 -58.287424)
(542.42923 284.466 -60.247007)
(496.74219 277.07604 -61.939505)
(452.40583 267.00221 -62.968699)
(412.68577 256.9414 -63.654529)
(374.31849 244.68932 -63.548722)
(340.38584 232.55872 -63.07544)
(309.46272 220.04412 -62.238303)
(280.50423 206.70244 -60.718659)
(253.64374 193.46549 -59.121286)
(230.33346 180.82204 -57.445232)
(207.69216 168.30662 -55.851556)
(185.90806 155.29338 -54.119964)
(166.37936 143.73978 -53.051928)
(146.6442 131.2324 -51.963361)
(127.44131 119.22112 -51.331104)
(108.39602 106.14041 -50.55171)
(90.525487 93.310714 -49.739808)
(72.963959 79.172458 -48.384657)
(57.228936 65.522425 -45.689526)
(39.600951 48.185457 -39.4427)
(34.32103 30.933407 -26.721405)
(0 0 0)
(0 0 0)
(0 0 0)
(0 0 0)
(0 0 0)
(0 0 0)
(0 0 0)
(0 0 0)
(0 0 0)
(0 0 0)
(0 0 0)
(0 0 0)
(0 0 0)
(0 0 0)
(0 0 0)
(0 0 0)
(0 0 0)
(0 0 0)
(0 0 0)
(0 0 0)
(0 0 0)
(0 0 0)
(0 0 0)
(0 0 0)
(0 0 0)
(0 0 0)
(0 0 0)
(0 0 0)
(0 0 0)
(0 0 0)
(4338.4834 -1888.092 16.355884)
(4338.7299 -1890.2453 16.708515)
(4339.023 -1892.3759 17.230979)
(4339.3638 -1894.6502 17.858419)
(4339.6229 -1897.0249 18.551499)
(4339.8652 -1899.4455 19.249766)
(4340.036 -1901.9466 19.932451)
(4340.1576 -1904.4435 20.602385)
(4340.2046 -1906.9283 21.242478)
(4340.1871 -1909.3138 21.880202)
(4340.0953 -1911.6476 22.498384)
(4339.9129 -1913.8673 23.049734)
(4339.6994 -1915.9039 23.555816)
(4339.4481 -1917.7533 23.926051)
(4339.2383 -1919.5611 23.97098)
(4581.5532 -1190.582 41.103986)
(4581.1457 -1193.0456 40.546917)
(4580.7426 -1195.3921 39.625636)
(4580.3856 -1197.7218 38.438716)
(4579.9716 -1199.8385 37.168045)
(4579.6778 -1201.7906 35.826533)
(4579.5437 -1203.5514 34.503918)
(4579.5779 -1205.1295 33.217667)
(4579.8015 -1206.5524 32.013469)
(4580.1749 -1207.8482 30.923371)
(4580.6509 -1209.0942 29.937214)
(4581.1247 -1210.2949 29.142162)
(4581.5577 -1211.6057 28.501952)
(4581.76 -1213.0363 28.063385)
(4581.851 -1214.7227 27.964851)
(14.648643 17.887758 27.856739)
(28.851634 31.526348 29.649041)
(43.362233 44.85617 33.640773)
(59.746609 57.502468 34.084637)
(75.940881 69.600514 34.230188)
(93.422179 81.452152 33.675868)
(110.81422 93.009798 33.213062)
(128.97894 104.52055 32.999137)
(147.04528 115.72768 33.21436)
(165.93686 127.11267 33.874851)
(185.22955 138.22866 34.859989)
(205.76465 149.58589 36.328028)
(227.503 160.62391 37.751297)
(251.24746 171.88292 39.380693)
(277.05796 182.68104 40.679059)
(305.75636 193.45071 41.748682)
(337.3285 203.6069 42.170129)
(372.19525 213.38086 42.180395)
(410.53687 222.29741 41.364214)
(452.36579 230.43827 39.949514)
(497.5544 237.56329 37.898404)
(545.91471 243.52292 35.321446)
(597.26019 248.38345 32.321579)
(651.00702 251.94649 29.163561)
(706.9661 254.30854 25.927278)
(764.58081 255.45537 22.931219)
(823.50032 255.43433 20.239101)
(883.36964 254.34499 18.06911)
(943.97011 252.2727 16.49443)
(1005.1199 249.24385 15.614991)
(1066.7601 245.38478 15.33824)
(1129.0347 240.72579 15.673352)
(1192.0996 235.23119 16.52436)
(1256.1525 228.91579 17.664064)
(1321.6133 221.74127 19.010006)
(1388.6522 213.5311 20.346499)
(1457.727 204.26033 21.459219)
(1528.9823 193.75346 22.292688)
(1602.7236 181.91064 22.664368)
(1678.9363 168.5104 22.570381)
(1757.6816 153.56182 21.95201)
(1838.8267 136.88381 20.846414)
(1922.1914 118.52264 19.352504)
(2007.4219 98.349421 17.572237)
(2094.209 76.512931 15.610511)
(2182.1372 52.965122 13.660217)
(2270.8029 27.826492 11.809437)
(2359.8213 1.1561811 10.201219)
(2448.8301 -26.959715 8.8931247)
(2537.5377 -56.466536 7.9263592)
(2625.698 -87.307465 7.273608)
(2713.1431 -119.4775 6.8741075)
(2799.7495 -152.97147 6.6019577)
(2885.4415 -187.82237 6.3151654)
(2970.1543 -224.05256 5.8390562)
(3053.8134 -261.68978 5.0102747)
(3136.3096 -300.7093 3.6721151)
(3217.4633 -341.0595 1.7266653)
(3297.0115 -382.60301 -0.87986744)
(3374.6031 -425.12532 -4.1318145)
(3449.7928 -468.33394 -7.9393568)
(3522.0675 -511.86076 -12.137961)
(3590.8571 -555.26542 -16.513172)
(3655.6083 -598.03663 -20.877344)
(3715.8391 -639.77213 -24.800244)
(3770.9051 -679.82772 -28.201274)
(3820.6138 -717.94856 -30.950454)
(3865.1797 -753.78433 -32.507141)
(3904.184 -786.8365 -33.135212)
(3937.9499 -817.18576 -32.610904)
(3966.9121 -844.77558 -31.110413)
(3991.5428 -869.51185 -28.628064)
(4012.4852 -891.70886 -25.432829)
(4030.3675 -911.51008 -21.669642)
(4045.9456 -929.17602 -17.558887)
(4059.8092 -945.0637 -13.301773)
(4072.6265 -959.43419 -9.0949354)
(4084.8305 -972.62562 -5.0356031)
(4096.8861 -984.83886 -1.2735708)
(4108.9771 -996.35795 2.1829107)
(4121.3829 -1007.3112 5.321988)
(4134.0881 -1017.8916 8.1994951)
(4147.0932 -1028.0758 10.817745)
(4160.419 -1038.0385 13.333683)
(4174.2883 -1047.9672 15.767906)
(4188.2364 -1057.764 18.151017)
(4202.4537 -1067.5673 20.548173)
(4217.0004 -1077.4813 22.926519)
(4231.8769 -1087.5625 25.2776)
(4247.3155 -1097.9695 27.565585)
(4263.3723 -1108.8408 29.740261)
(4280.0548 -1120.1051 31.745907)
(4297.7278 -1132.1463 33.624771)
(4315.9113 -1144.5045 35.363231)
(4345.3928 -1160.5764 37.098954)
(8.533776 13.722148 22.288218)
(20.234587 20.860902 24.70909)
(35.129793 32.661447 27.401306)
(49.476194 42.524997 28.330627)
(65.065852 53.271143 28.131669)
(81.2193 63.496123 27.691828)
(97.929749 74.030594 27.250693)
(114.83037 84.140162 26.970967)
(132.33006 94.466477 27.076661)
(150.21359 104.50048 27.332152)
(168.72064 114.68672 28.250401)
(188.24223 124.64665 29.086615)
(208.98596 134.67711 30.48971)
(231.48366 144.42616 31.634813)
(256.01058 154.08666 33.027184)
(283.25313 163.38884 33.854223)
(313.21149 172.35033 34.726279)
(346.69286 180.76901 34.824563)
(383.48761 188.59334 34.61216)
(424.10135 195.63355 33.703586)
(468.29798 201.86848 32.329037)
(516.19544 207.11881 30.353761)
(567.39179 211.37171 28.071007)
(621.73765 214.52957 25.454224)
(678.74016 216.58426 22.755667)
(738.03816 217.54989 20.083661)
(799.13758 217.40959 17.6669)
(861.68938 216.22611 15.617115)
(925.3261 213.99845 14.058463)
(989.76694 210.8251 13.063753)
(1054.9366 206.64614 12.683411)
(1120.7599 201.49834 12.877453)
(1187.3404 195.381 13.519999)
(1254.8993 188.21797 14.57084)
(1323.7231 179.9369 15.807012)
(1394.0912 170.41596 17.126829)
(1466.4044 159.56047 18.284829)
(1540.8776 147.22503 19.231348)
(1617.7168 133.29705 19.781291)
(1697.1504 117.70585 19.887048)
(1779.0829 100.30507 19.48812)
(1863.4959 81.145564 18.696188)
(1950.1326 60.054994 17.428413)
(2038.5977 37.255228 15.940557)
(2128.563 12.673887 14.266822)
(2219.5226 -13.561825 12.59032)
(2310.9926 -41.355541 11.004379)
(2402.5235 -70.605181 9.6477351)
(2493.6777 -101.22937 8.5603787)
(2584.1091 -133.14598 7.7982384)
(2673.5287 -166.31491 7.3134954)
(2761.7381 -200.71992 7.0528641)
(2848.5953 -236.35185 6.8862543)
(2934.0081 -273.23021 6.6830928)
(3017.899 -311.34358 6.2750642)
(3100.176 -350.66425 5.5158171)
(3180.6984 -391.10422 4.2747878)
(3259.2464 -432.5187 2.4772355)
(3335.5166 -474.66307 0.085495996)
(3409.1078 -517.23478 -2.8543768)
(3479.5243 -559.83517 -6.2429706)
(3546.238 -602.03061 -9.9156461)
(3608.6772 -643.3183 -13.692245)
(3666.3018 -683.22352 -17.345246)
(3718.6991 -721.34941 -20.556176)
(3765.2218 -757.18044 -23.454988)
(3807.8556 -790.79902 -25.359587)
(3848.4264 -822.43298 -26.627147)
(3879.849 -850.3933 -26.791309)
(3905.5465 -875.53988 -26.227975)
(3926.4625 -897.79209 -24.758106)
(3943.2457 -917.55757 -22.57256)
(3956.5586 -935.00706 -19.821797)
(3967.1151 -950.43958 -16.639421)
(3975.6837 -964.16462 -13.231994)
(3982.8475 -976.53443 -9.7216163)
(3989.3001 -987.76967 -6.2624411)
(3995.3679 -998.17353 -2.9338195)
(4001.5806 -1007.9217 0.18518435)
(4008.0418 -1017.1996 3.0903449)
(4015.0625 -1026.1196 5.7721945)
(4022.5802 -1034.7895 8.2747728)
(4030.9379 -1043.3269 10.59619)
(4025.6302 -1048.1502 12.822145)
(4025.9798 -1054.0873 14.889407)
(4035.5286 -1062.3036 17.118499)
(4046.1799 -1070.8553 19.298038)
(4057.6823 -1079.6124 21.477298)
(4070.1271 -1088.7595 23.650913)
(4083.7207 -1098.3884 25.725962)
(4098.5539 -1108.6007 27.778298)
(4114.593 -1119.2995 29.67526)
(4132.3545 -1130.9692 31.539914)
(4151.1217 -1142.9511 33.336568)
(4180.3969 -1158.3975 35.168102)
(4.854952 10.141045 17.961379)
(15.18547 15.805969 19.708299)
(27.462734 24.132619 22.675137)
(41.356162 32.350925 23.025351)
(56.121616 41.023378 22.739083)
(71.918833 49.987922 22.37301)
(87.745314 58.775106 21.892867)
(104.59896 67.830931 21.611752)
(121.45377 76.576526 21.424576)
(139.02507 85.680598 21.808985)
(157.1616 94.338101 22.14931)
(176.34125 103.33189 23.078894)
(196.59355 111.8239 23.892926)
(218.59148 120.51703 25.093644)
(242.59841 128.71027 25.955638)
(269.03003 136.76482 27.055672)
(298.45318 144.3091 27.568174)
(331.06114 151.42469 27.978323)
(367.28225 157.88453 27.836676)
(407.26659 163.64352 27.32139)
(451.15031 168.59802 26.245867)
(498.8327 172.61615 24.814585)
(550.24161 175.71426 22.942458)
(605.02714 177.74676 20.830535)
(662.90249 178.77856 18.551452)
(723.37168 178.7151 16.302761)
(786.03734 177.62594 14.194993)
(850.39974 175.47364 12.376598)
(916.07549 172.32787 10.977298)
(982.72959 168.13024 10.072056)
(1050.1447 162.94345 9.6863071)
(1118.2045 156.71291 9.8114038)
(1187.0026 149.39826 10.398582)
(1256.6197 140.92107 11.336866)
(1327.3632 131.18342 12.493728)
(1399.4821 120.12356 13.732382)
(1473.3269 107.56137 14.89025)
(1549.1844 93.441257 15.837412)
(1627.4241 77.56801 16.44755)
(1708.0324 59.866903 16.630509)
(1791.1094 40.371144 16.450803)
(1876.5269 18.957809 15.764324)
(1964.0281 -4.290148 14.843662)
(2053.297 -29.323767 13.591147)
(2143.8541 -56.067101 12.228098)
(2235.1851 -84.370759 10.851714)
(2326.7914 -114.12302 9.5791494)
(2418.1567 -145.19672 8.5118251)
(2508.8287 -177.48139 7.7143757)
(2598.4243 -210.8897 7.2110125)
(2686.6555 -245.36949 6.9664898)
(2773.3049 -280.88423 6.9287718)
(2858.2414 -317.42226 6.9737525)
(2941.3664 -354.97189 6.9875891)
(3022.6087 -393.49468 6.8132316)
(3101.8626 -432.92574 6.3303599)
(3178.9753 -473.13084 5.4260643)
(3253.7094 -513.90566 4.0337261)
(3325.7381 -554.96941 2.1337524)
(3394.6303 -595.96643 -0.22743676)
(3459.9009 -636.47924 -2.970073)
(3521.0089 -676.05475 -5.9441848)
(3577.3984 -714.20583 -9.0163851)
(3628.6467 -750.55254 -11.923502)
(3674.2672 -784.60246 -14.611779)
(3714.4921 -816.22595 -16.778397)
(3744.1595 -844.09492 -18.451635)
(3789.8326 -873.94687 -19.16814)
(3813.2124 -896.89859 -19.699478)
(3831.8707 -917.45322 -19.15417)
(3846.1295 -935.48933 -18.09369)
(3856.4915 -951.21306 -16.431284)
(3863.7956 -964.97357 -14.367881)
(3868.7753 -977.0442 -12.008412)
(3872.1946 -987.75225 -9.4477193)
(3874.638 -997.41297 -6.8134193)
(3876.7027 -1006.2814 -4.1905476)
(3878.8189 -1014.5919 -1.6215462)
(3881.3682 -1022.4986 0.81695047)
(3884.5593 -1030.1709 3.1662494)
(3888.6291 -1037.6891 5.3819775)
(3893.5979 -1045.1695 7.5300744)
(3899.6328 -1052.6458 9.6209109)
(3906.86 -1060.3583 11.667157)
(3894.1434 -1062.2912 13.701466)
(3902.3357 -1069.9339 15.772616)
(3913.2108 -1078.2481 17.857488)
(3925.384 -1087.0217 19.934286)
(3939.093 -1096.2942 21.985315)
(3954.4478 -1106.1691 23.991871)
(3971.5673 -1116.7409 25.948249)
(3990.4708 -1127.9541 27.873935)
(4011.5615 -1140.1521 29.693078)
(4034.2985 -1152.8724 31.610136)
(4065.0082 -1168.311 33.429463)
(3.2340785 8.2121113 13.847755)
(11.884946 11.535587 15.493197)
(23.314838 18.089702 17.219891)
(36.303576 24.258837 17.445941)
(50.718241 31.476902 17.244435)
(65.809331 38.578626 16.878773)
(81.965382 46.251147 16.319244)
(98.404949 53.628539 15.882663)
(115.38835 61.379014 15.91038)
(133.02554 68.83596 15.763152)
(151.29249 76.453645 16.300445)
(170.45743 83.850989 16.654399)
(190.88542 91.178384 17.569343)
(213.01379 98.325644 18.144968)
(236.98993 105.09594 19.190236)
(263.65713 111.65565 19.708171)
(293.03841 117.64085 20.356269)
(325.83503 123.1668 20.560449)
(362.13412 127.97893 20.529633)
(402.34971 132.09047 20.033174)
(446.40969 135.34394 19.236125)
(494.47707 137.70586 18.014865)
(546.26864 139.09713 16.513427)
(601.62761 139.47938 14.779431)
(660.10933 138.83237 12.94187)
(721.32786 137.14697 11.108077)
(784.75952 134.43656 9.4069526)
(849.94025 130.70335 7.9766406)
(916.41863 125.96266 6.8924038)
(983.83538 120.23075 6.2317436)
(1051.9168 113.48156 6.0352537)
(1120.5621 105.68435 6.2769703)
(1189.7329 96.788004 6.9116475)
(1259.5816 86.721383 7.8528134)
(1330.3381 75.358409 8.9813797)
(1402.2465 62.656114 10.160509)
(1475.7476 48.345987 11.272485)
(1551.0684 32.482722 12.172345)
(1628.364 14.884272 12.817061)
(1707.9259 -4.4135943 13.145264)
(1789.6926 -25.576828 13.047846)
(1873.6111 -48.549058 12.665202)
(1959.3996 -73.255243 11.937474)
(2046.7034 -99.634343 11.0113)
(2135.0709 -127.54978 10.011878)
(2223.9915 -156.87796 9.0027482)
(2312.9538 -187.46387 8.0976845)
(2401.4428 -219.1599 7.3860928)
(2489.0171 -251.85258 6.9113041)
(2575.3107 -285.43865 6.6888408)
(2660.0442 -319.8562 6.6989113)
(2743.0243 -355.06394 6.8793386)
(2824.1332 -391.03953 7.1336987)
(2903.2909 -427.75582 7.3576211)
(2980.4336 -465.17029 7.4203571)
(3055.4651 -503.20168 7.2235711)
(3128.2396 -541.70283 6.6611775)
(3198.5252 -580.47159 5.685298)
(3265.9978 -619.22447 4.2758564)
(3330.2551 -657.61744 2.4583966)
(3390.8248 -695.25722 0.30835525)
(3447.1913 -731.70758 -2.0820867)
(3498.8943 -766.58703 -4.5485469)
(3545.4796 -799.44512 -6.9939875)
(3586.607 -830.00993 -9.219257)
(3622.1599 -858.01859 -11.158997)
(3652.2304 -883.368 -12.613658)
(3675.726 -905.77716 -13.743442)
(3695.7404 -925.7835 -14.243852)
(3710.4528 -943.02234 -14.099191)
(3720.8837 -957.96603 -13.516995)
(3728.3989 -970.91212 -12.463818)
(3733.4511 -982.13375 -11.11309)
(3736.731 -991.94689 -9.4000183)
(3738.7411 -1000.75 -7.5406944)
(3740.2542 -1008.7708 -5.5085362)
(3741.8954 -1016.2935 -3.4433692)
(3744.0126 -1023.5184 -1.3535271)
(3747.0477 -1030.6238 0.70515811)
(3751.1577 -1037.7282 2.745364)
(3756.6133 -1044.9599 4.7315716)
(3763.4101 -1052.3576 6.7128602)
(3771.7682 -1060.0481 8.6554545)
(3781.5715 -1068.0032 10.61586)
(3793.4294 -1076.4956 12.557682)
(3806.069 -1085.1699 14.549696)
(3820.8194 -1094.5159 16.513579)
(3837.3501 -1104.4292 18.520186)
(3855.7551 -1114.9687 20.478297)
(3876.1717 -1126.2583 22.428062)
(3898.778 -1138.3605 24.363005)
(3923.3868 -1151.1503 26.247239)
(3950.6805 -1165.1121 28.108018)
(3979.8526 -1179.5977 30.041174)
(4013.5649 -1195.8688 31.903029)
(1.5234426 5.6410605 10.376083)
(9.5655352 8.215865 11.087946)
(20.078125 13.122316 12.516597)
(32.885549 18.038341 12.593309)
(47.068961 23.370281 12.109736)
(62.864575 29.361809 11.457488)
(78.976588 35.205175 10.722137)
(95.926633 41.439223 10.50862)
(113.36771 47.334629 9.9616969)
(131.45642 53.614049 10.129641)
(150.10385 59.386244 10.14388)
(169.87771 65.420752 10.68174)
(190.88499 70.950592 10.985436)
(213.48026 76.458868 11.779485)
(238.27437 81.463849 12.187894)
(265.53779 86.188745 12.780745)
(295.76408 90.276537 13.075787)
(329.33539 93.84015 13.219276)
(366.54334 96.656709 13.012664)
(407.58221 98.675973 12.599074)
(452.56097 99.838589 11.803824)
(501.40562 100.02616 10.778218)
(553.93861 99.276024 9.5003499)
(609.85543 97.466326 8.101559)
(668.75151 94.693097 6.6314699)
(730.14993 90.868681 5.222335)
(793.55067 86.094104 3.971576)
(858.43821 80.318411 2.971786)
(924.38997 73.631668 2.2911092)
(991.00034 65.965798 1.9971604)
(1058.0556 57.373483 2.0708347)
(1125.395 47.783725 2.5143706)
(1193.0556 37.178242 3.2680963)
(1261.1557 25.440677 4.2467193)
(1329.9108 12.529811 5.3547505)
(1399.6566 -1.677127 6.4744769)
(1470.6373 -17.338634 7.5411203)
(1542.6881 -34.379463 8.3941878)
(1617.8046 -53.160843 9.0852613)
(1694.7957 -73.588717 9.4036296)
(1773.6274 -95.70606 9.4749841)
(1854.3042 -119.37731 9.2418446)
(1936.6119 -144.67642 8.8300021)
(2020.2134 -171.42894 8.2623947)
(2104.6556 -199.51011 7.6259133)
(2189.4648 -228.78558 7.0006919)
(2274.1644 -259.0814 6.4863399)
(2358.2769 -290.2684 6.1376452)
(2441.415 -322.21323 5.9924716)
(2523.2413 -354.82117 6.0710258)
(2603.523 -388.02457 6.3475525)
(2682.0955 -421.78285 6.777837)
(2758.8759 -456.07033 7.2845228)
(2833.8032 -490.86581 7.7830882)
(2906.8417 -526.13296 8.1708667)
(2977.9134 -561.79889 8.3588997)
(3046.9005 -597.7439 8.2595461)
(3113.5918 -633.79443 7.826644)