/*--------------------------------*- C++ -*----------------------------------*\
  =========                 |
  \\      /  F ield         | OpenFOAM: The Open Source CFD Toolbox
   \\    /   O peration     | Website:  https://openfoam.org
    \\  /    A nd           | Version:  6
     \\/     M anipulation  |
\*---------------------------------------------------------------------------*/
FoamFile
{
    version     2.0;
    format      ascii;
    class       pointVectorField;
    location    "1.51";
    object      u;
}
// * * * * * * * * * * * * * * * * * * * * * * * * * * * * * * * * * * * * * //

dimensions      [0 1 0 0 0 0 0];

internalField   nonuniform List<vector> 
28033
(
(0 0 0)
(0 0 0)
(0.54663286 0.055497881 0.008926803)
(0.53054431 -0.12250012 0.0087177882)
(0 0 0)
(0 0 0)
(0.53014908 -0.12482146 0.0087116274)
(0.54626803 0.053119544 0.0086360612)
(0 0 0)
(0 0 0)
(0 0 0)
(0 0 0)
(0 0 0)
(0 0 0)
(0 0 0)
(0 0 0)
(0 0 0)
(0 0 0)
(0 0 0)
(0 0 0)
(0 0 0)
(0 0 0)
(0 0 0)
(0.5454581 0.043792245 0.0086497778)
(0.54423226 0.032512924 0.0086236007)
(0.54302689 0.021371139 0.0085610132)
(0.5419057 0.010313935 0.0085783525)
(0.54081537 -0.00066207078 0.0086045118)
(0.53975525 -0.01158384 0.0086573023)
(0.53874361 -0.022470082 0.0087237946)
(0.53776582 -0.033345839 0.0088050761)
(0.53682061 -0.044223181 0.0088766184)
(0.53590223 -0.055136006 0.0089563933)
(0.53501252 -0.066078926 0.0090075724)
(0.5341299 -0.077105485 0.0090314767)
(0.53328199 -0.088198295 0.0090394145)
(0.53239111 -0.099422832 0.0090165875)
(0.53155346 -0.11078816 0.008909962)
(0.00042860898 0.00077777056 0.0007924893)
(0.00048271537 0.0011044136 0.001125718)
(0.00055834932 0.0015846322 0.0013606629)
(0.00075843918 0.0019597385 0.0015142579)
(0.00092506812 0.0024763247 0.0016150936)
(0.0012233619 0.0028984009 0.0016891375)
(0.0015311654 0.0034465323 0.001745751)
(0.0019226026 0.0038896493 0.0017834594)
(0.0023506675 0.0044677342 0.0018241285)
(0.0028492398 0.0049460796 0.0018601234)
(0.0033686721 0.005525634 0.0019093265)
(0.0039688335 0.0060543918 0.0019386839)
(0.004586674 0.006653137 0.0020174278)
(0.005306655 0.0072295406 0.0020542995)
(0.0060125169 0.0078494047 0.0021622202)
(0.0068418265 0.00847357 0.0022065792)
(0.0076836067 0.0091481732 0.0023343633)
(0.0086256679 0.0098144535 0.0024125454)
(0.009603181 0.010539149 0.0025476108)
(0.010690857 0.011273284 0.0026465827)
(0.011826808 0.012050973 0.0027984745)
(0.013075035 0.012848749 0.0029145605)
(0.014398708 0.013690488 0.0030731521)
(0.01583083 0.014555842 0.0032145321)
(0.017363582 0.015461494 0.0033730366)
(0.019015234 0.016398057 0.0035242766)
(0.020775866 0.017365084 0.0036895497)
(0.022666728 0.018371032 0.0038517566)
(0.02469213 0.01940404 0.0040120893)
(0.026846091 0.02046811 0.0041796223)
(0.029152977 0.021567196 0.004341591)
(0.031604386 0.022688535 0.0045029119)
(0.034211307 0.023840993 0.0046684399)
(0.036976378 0.0250122 0.0048283524)
(0.03990225 0.026213017 0.0049911342)
(0.043003047 0.027434075 0.0051412137)
(0.046270542 0.028672301 0.0053013341)
(0.049719182 0.029931235 0.0054575256)
(0.053342487 0.031197654 0.0056036768)
(0.057155221 0.032486859 0.0057547167)
(0.061146714 0.033775517 0.005902447)
(0.065330259 0.035083234 0.0060496742)
(0.0697049 0.036388521 0.0061918863)
(0.074275183 0.037704559 0.0063368277)
(0.079037347 0.039014393 0.0064775824)
(0.084001781 0.04032785 0.0066184275)
(0.089160503 0.041633914 0.0067579073)
(0.094525057 0.042934283 0.0068954483)
(0.10008663 0.044224532 0.0070321232)
(0.10585586 0.045502223 0.0071667393)
(0.11182506 0.046764983 0.007299127)
(0.11800195 0.048008395 0.007429501)
(0.1243811 0.049232586 0.0075564557)
(0.13096703 0.050429983 0.0076805574)
(0.13775616 0.051603502 0.0078001521)
(0.14474993 0.052744176 0.007916075)
(0.1519463 0.053854371 0.0080264125)
(0.15934435 0.054927414 0.008132084)
(0.16694189 0.055963755 0.0082313404)
(0.17473723 0.056957008 0.0083256329)
(0.18272717 0.057909518 0.0084125352)
(0.19090994 0.058813544 0.008494174)
(0.1992782 0.059673279 0.0085692323)
(0.20783764 0.060476949 0.0086364548)
(0.21656915 0.061236017 0.0087032182)
(0.22548086 0.061938398 0.008757006)
(0.23456704 0.062580943 0.0088085715)
(0.2438154 0.063168928 0.008855282)
(0.25322605 0.063701926 0.0088950157)
(0.2627876 0.064172839 0.0089311936)
(0.27250529 0.064584741 0.0089648834)
(0.282358 0.064932283 0.0089969985)
(0.29236134 0.065226443 0.0090166602)
(0.30248406 0.06544317 0.009043754)
(0.31274433 0.06562293 0.0090542832)
(0.32311798 0.065701977 0.009077901)
(0.33360736 0.065767791 0.0090775139)
(0.34421011 0.06571083 0.0090977289)
(0.35490309 0.065657081 0.0090889976)
(0.36570692 0.065474221 0.0091039362)
(0.37658502 0.065291674 0.0090866049)
(0.38755593 0.064993721 0.0090981532)
(0.3985994 0.064679399 0.0090745469)
(0.40970866 0.064268388 0.009077972)
(0.42088591 0.063828296 0.0090589425)
(0.43210974 0.063318527 0.0090509858)
(0.44340061 0.06273953 0.0090355965)
(0.45470744 0.062129875 0.0090297645)
(0.46607966 0.061444274 0.0090074917)
(0.47744553 0.060735777 0.0090088791)
(0.48886808 0.059925165 0.0090128281)
(0.50027725 0.059192769 0.0089877418)
(0.51172231 0.058269954 0.0090523015)
(0.52320911 0.057457141 0.0090368425)
(0.53467983 0.056587116 0.0091103076)
(0.00018508687 -0.00068610042 -0.00084748605)
(0.00033471686 -0.00098728538 -0.00096502565)
(0.0003833617 -0.0013372817 -0.0013023282)
(0.00050976696 -0.0017603467 -0.0013790181)
(0.00069548789 -0.0021061413 -0.0015458362)
(0.00095676786 -0.002609685 -0.0015808936)
(0.0012572876 -0.0029665224 -0.0016814297)
(0.0016266802 -0.0034720488 -0.001693118)
(0.0020485102 -0.0038828586 -0.0017650894)
(0.0025086996 -0.0043769907 -0.0017844258)
(0.0030424726 -0.0048317502 -0.0018414304)
(0.0035941331 -0.0053334822 -0.0018792617)
(0.0042264104 -0.005828098 -0.0019334001)
(0.0048838578 -0.0063597381 -0.0019920135)
(0.0056138442 -0.0068879375 -0.0020566119)
(0.0063805733 -0.0074656498 -0.0021305174)
(0.0072194393 -0.0080331848 -0.002210374)
(0.008111434 -0.0086624235 -0.002294108)
(0.0090710163 -0.0092873242 -0.0023879052)
(0.010112077 -0.0099735086 -0.0024828311)
(0.01121794 -0.010661479 -0.0025806063)
(0.01241763 -0.011415429 -0.002685092)
(0.01369063 -0.012167271 -0.0027878091)
(0.015074283 -0.012991439 -0.0028905929)
(0.01653303 -0.013815365 -0.0029966835)
(0.018133229 -0.014716378 -0.0030896514)
(0.019812365 -0.015622018 -0.0031974876)
(0.021642274 -0.016592091 -0.0032819262)
(0.023569099 -0.01758364 -0.0033806924)
(0.025650696 -0.018621633 -0.0034568409)
(0.027848418 -0.01969834 -0.0035394424)
(0.03020324 -0.020806676 -0.0036090377)
(0.032689537 -0.021962532 -0.0036758348)
(0.035339557 -0.023143935 -0.003731991)
(0.038134846 -0.024373893 -0.0037825412)
(0.041094023 -0.025627228 -0.0038281566)
(0.044216972 -0.026925161 -0.0038552942)
(0.047506075 -0.02825119 -0.0038836576)
(0.050964758 -0.029614328 -0.0038985058)
(0.05459717 -0.031005946 -0.0039072616)
(0.058407549 -0.032432943 -0.0039044821)
(0.06239492 -0.033887318 -0.0038942732)
(0.06656709 -0.035374382 -0.0038723966)
(0.070921372 -0.036888669 -0.0038423451)
(0.075463783 -0.038432437 -0.0038007484)
(0.080194874 -0.040003479 -0.003749285)
(0.085115916 -0.041600883 -0.003687129)
(0.09023061 -0.043224788 -0.0036136298)
(0.095538194 -0.044873341 -0.0035294444)
(0.10104178 -0.046545831 -0.0034336193)
(0.10674126 -0.048241823 -0.0033265702)
(0.11263829 -0.049959545 -0.0032080191)
(0.11873238 -0.051697897 -0.0030780339)
(0.12502548 -0.053456355 -0.0029365156)
(0.13151546 -0.055232614 -0.0027839412)
(0.13820381 -0.057025408 -0.0026200253)
(0.14508907 -0.058834139 -0.0024452503)
(0.15217018 -0.060655523 -0.0022598593)
(0.15944589 -0.062489023 -0.0020641649)
(0.16691535 -0.064332697 -0.0018581666)
(0.17457493 -0.066183956 -0.0016429175)
(0.18242396 -0.068041593 -0.0014179878)
(0.1904589 -0.069903541 -0.0011844172)
(0.19867724 -0.07176765 -0.0009420303)
(0.20707502 -0.07363179 -0.00069204815)
(0.21565088 -0.075495576 -0.00043318562)
(0.22439788 -0.077354116 -0.00016874603)
(0.23331478 -0.079208702 0.00010491643)
(0.24239198 -0.08105205 0.00037748297)
(0.2516296 -0.082885067 0.00067066769)
(0.26103067 -0.084721264 0.00095778756)
(0.27056949 -0.086524306 0.0012540928)
(0.28026406 -0.088330627 0.0015548112)
(0.29009175 -0.09010879 0.001858935)
(0.30005972 -0.091877197 0.0021686307)
(0.31015167 -0.093620655 0.0024782622)
(0.32037113 -0.095346899 0.0027940681)
(0.33070733 -0.097047792 0.0031086933)
(0.34115558 -0.098726537 0.0034276562)
(0.35171057 -0.1003772 0.0037451105)
(0.36236631 -0.1020029 0.0040649486)
(0.37311672 -0.10359698 0.0043835004)
(0.38395449 -0.10516243 0.0047024937)
(0.3948772 -0.10669451 0.00502054)
(0.40587146 -0.10819242 0.0053355974)
(0.41694028 -0.10965745 0.0056516534)
(0.42806662 -0.11108245 0.0059621193)
(0.43925346 -0.11247259 0.0062709749)
(0.45048534 -0.11382464 0.0065770371)
(0.46176542 -0.1151371 0.0068777364)
(0.47307378 -0.11641109 0.0071727628)
(0.48442669 -0.11765592 0.0074632764)
(0.49579738 -0.11887471 0.0077592746)
(0.50723545 -0.12005356 0.0080269852)
(0.51872302 -0.12129126 0.0083467182)
(0 0 0)
(0 0 0)
(0 0 0)
(0 0 0)
(0 0 0)
(0 0 0)
(0 0 0)
(0 0 0)
(0 0 0)
(0 0 0)
(0 0 0)
(0 0 0)
(0 0 0)
(0 0 0)
(0 0 0)
(0.00038396029 -0.00028649084 0.00060600666)
(0.00041414896 -0.0011280482 0.00095505246)
(0.00038784416 -0.0012044426 0.0011544135)
(0.00056208829 -0.0018487812 0.001343687)
(0.00070744864 -0.002086147 0.0014536806)
(0.0010016641 -0.0026700071 0.0014940991)
(0.0012889284 -0.0029778844 0.0015793256)
(0.0016662389 -0.0035518988 0.0015912543)
(0.0020959182 -0.0039300376 0.0016607468)
(0.0025513075 -0.0044879059 0.0016762262)
(0.0030996372 -0.0049243907 0.001742875)
(0.0036405358 -0.0054655765 0.001771277)
(0.0042905435 -0.0059915286 0.0018598378)
(0.0049285185 -0.0065144657 0.0018982221)
(0.0056862641 -0.0071329995 0.0020111846)
(0.0064255931 -0.0076562232 0.0020813568)
(0.0072947862 -0.008345373 0.0022036748)
(0.0081647683 -0.0089070367 0.0022891536)
(0.0091419903 -0.0096633425 0.00243419)
(0.010170749 -0.010298083 0.0025444887)
(0.011273354 -0.011081148 0.0026951219)
(0.012479891 -0.011840785 0.0028305653)
(0.013755576 -0.012647325 0.0029953556)
(0.015134671 -0.013507668 0.0031489604)
(0.016606631 -0.014368624 0.0033070778)
(0.018190705 -0.015327381 0.003479648)
(0.019884248 -0.01625776 0.0036438853)
(0.02169767 -0.017292531 0.003820089)
(0.023636176 -0.01830676 0.0039888482)
(0.025702829 -0.019415014 0.0041682565)
(0.02790894 -0.020512654 0.0043340316)
(0.030251264 -0.021694939 0.0045108014)
(0.032743916 -0.022876409 0.0046781514)
(0.035382823 -0.024130961 0.0048493357)
(0.038181774 -0.025389579 0.0050154002)
(0.041130856 -0.026706065 0.0051789361)
(0.044255759 -0.028055429 0.0053438387)
(0.047539198 -0.029435988 0.0055042256)
(0.050995722 -0.030851144 0.0056615086)
(0.054624233 -0.032301256 0.0058176662)
(0.058430012 -0.033782716 0.0059708245)
(0.06241307 -0.035295965 0.0061228684)
(0.066579035 -0.036840319 0.006271649)
(0.070927574 -0.038413567 0.0064201184)
(0.07546209 -0.040015779 0.0065650098)
(0.080184712 -0.041645861 0.0067097982)
(0.085096397 -0.043301603 0.0068510024)
(0.090199689 -0.044983426 0.0069915186)
(0.095495678 -0.046688836 0.0071286265)
(0.10098565 -0.048417206 0.0072641764)
(0.10667072 -0.050167051 0.0073963765)
(0.11255243 -0.051936894 0.0075250694)
(0.11863078 -0.053725703 0.0076507815)
(0.1249066 -0.055530685 0.0077711277)
(0.13138043 -0.057352949 0.0078879509)
(0.13805155 -0.059186917 0.0079981779)
(0.14491979 -0.061035339 0.0081041328)
(0.15198491 -0.062892766 0.0082026864)
(0.15924448 -0.064759884 0.0082958801)
(0.16669862 -0.066633704 0.0083817528)
(0.17434385 -0.068513079 0.0084612443)
(0.18217929 -0.070395541 0.008533597)
(0.19020107 -0.072280221 0.0085995546)
(0.19840731 -0.074164146 0.008658432)
(0.20679373 -0.0760462 0.0087110945)
(0.21535795 -0.077925456 0.0087572063)
(0.22409541 -0.079797587 0.0087968207)
(0.23300951 -0.081672073 0.0088329401)
(0.24205634 -0.083498101 0.0088628183)
(0.25130775 -0.085375043 0.0088854777)
(0.26068762 -0.08719478 0.008910156)
(0.27022343 -0.089013905 0.0089256366)
(0.27990678 -0.090815287 0.0089381045)
(0.28972792 -0.092599248 0.0089491293)
(0.29968474 -0.094362791 0.0089547639)
(0.30977169 -0.096105906 0.0089586583)
(0.31998213 -0.097825886 0.0089588132)
(0.33031182 -0.099521979 0.0089570128)
(0.34075436 -0.10119248 0.0089520531)
(0.35130386 -0.10283519 0.008945033)
(0.36195568 -0.10445043 0.0089349054)
(0.37270259 -0.10603521 0.0089236002)
(0.38353922 -0.1075889 0.0089091988)
(0.39445953 -0.10911082 0.0088941092)
(0.4054568 -0.11059815 0.0088769169)
(0.41652417 -0.11205237 0.0088607968)
(0.42765566 -0.11346821 0.0088422294)
(0.43884432 -0.1148517 0.0088283757)
(0.45008107 -0.11619254 0.0088128536)
(0.46136433 -0.11750388 0.0088049658)
(0.4726786 -0.11876986 0.0087962748)
(0.48403435 -0.12001645 0.0088009371)
(0.49540707 -0.12122138 0.0087979598)
(0.50685593 -0.12242255 0.0088131651)
(0.5183045 -0.1236573 0.0087962652)
(0.5312005 -0.11310392 0.0085503054)
(0.532045 -0.10179417 0.0084399565)
(0.53289459 -0.090517594 0.0084244794)
(0.53377006 -0.079453848 0.0084061792)
(0.53463828 -0.068411286 0.0084633112)
(0.53553068 -0.057479632 0.0085032234)
(0.53644868 -0.04656695 0.0085937596)
(0.53738819 -0.035684861 0.0086686635)
(0.53838433 -0.024820887 0.0087470339)
(0.53937883 -0.013926096 0.0088264585)
(0.54045107 -0.003010013 0.0088771728)
(0.54152861 0.0079643763 0.0089126754)
(0.54267504 0.01900218 0.0089325333)
(0.54379559 0.030165101 0.0088986909)
(0.5451005 0.041385295 0.0088392181)
(0.53437465 0.054213207 0.008181388)
(0.5228186 0.0550304 0.0079181311)
(0.51136859 0.055920219 0.0076326495)
(0.49992339 0.056762252 0.0073641599)
(0.48850662 0.057570686 0.0070690688)
(0.47710491 0.058334109 0.0067781786)
(0.46572665 0.059050608 0.006479763)
(0.45437334 0.059718295 0.006175002)
(0.44305737 0.060327788 0.005871075)
(0.43177991 0.060888647 0.0055594726)
(0.42055131 0.061386839 0.0052501873)
(0.40937684 0.06183262 0.0049352593)
(0.39826099 0.062216525 0.0046211889)
(0.38721708 0.06254265 0.0043037881)
(0.37624603 0.062809119 0.0039875936)
(0.36535798 0.063015802 0.0036703848)
(0.35455893 0.06316124 0.0033562676)
(0.34385391 0.063245468 0.0030411153)
(0.33325048 0.063270448 0.0027287298)
(0.32275593 0.06323095 0.0024184215)
(0.31237392 0.063134259 0.002110473)
(0.30211429 0.062971977 0.001805806)
(0.29197807 0.062754403 0.0015036004)
(0.28197843 0.062469735 0.001206709)
(0.27211003 0.062132955 0.00091222653)
(0.26239521 0.061733382 0.00062321658)
(0.25280046 0.061284737 0.00033874575)
(0.24345242 0.060722847 8.4191398e-05)
(0.2341515 0.060190995 -0.00020718739)
(0.22508576 0.05954522 -0.00046106459)
(0.21616544 0.058868896 -0.00072471569)
(0.20742834 0.058135274 -0.00097225183)
(0.19886925 0.057352197 -0.0012148968)
(0.1904955 0.056521149 -0.0014489894)
(0.18230932 0.055644871 -0.0016742868)
(0.17431466 0.05472521 -0.0018907701)
(0.16651475 0.053764814 -0.0020982186)
(0.15891231 0.052766174 -0.0022954962)
(0.1515096 0.051732088 -0.0024829687)
(0.14430886 0.05066478 -0.0026598668)
(0.13731145 0.049567575 -0.0028261672)
(0.13051894 0.048442526 -0.0029811352)
(0.12393176 0.047292907 -0.0031253806)
(0.11755081 0.046120905 -0.0032578254)
(0.11137583 0.044929701 -0.0033792553)
(0.10540699 0.043721286 -0.0034889638)
(0.099643302 0.042498991 -0.003587606)
(0.094084377 0.04126457 -0.0036747544)
(0.088728634 0.040021101 -0.0037510365)
(0.083575113 0.038771012 -0.0038164252)
(0.078621956 0.037515826 -0.0038708975)
(0.073866807 0.036260002 -0.0039157594)
(0.069309308 0.035002496 -0.0039493584)
(0.064944485 0.033749979 -0.0039748223)
(0.060770873 0.032502049 -0.0039903148)
(0.056788753 0.031258346 -0.0039946739)
(0.052990241 0.030031906 -0.0039938413)
(0.049371466 0.02880613 -0.0039798374)
(0.04594211 0.027600269 -0.0039592099)
(0.042682686 0.026416238 -0.0039322175)
(0.039584289 0.025242701 -0.0038979581)
(0.036677381 0.024088498 -0.0038487185)
(0.03391609 0.022967298 -0.0037989596)
(0.031320127 0.021861498 -0.0037437086)
(0.028868032 0.02077882 -0.0036753872)
(0.026582372 0.019730438 -0.0036068862)
(0.02442338 0.018708991 -0.0035221866)
(0.022414911 0.017722161 -0.0034462786)
(0.02052965 0.016751533 -0.0033510557)
(0.018772799 0.015838477 -0.0032688613)
(0.017133335 0.014925461 -0.0031660406)
(0.015603443 0.014074926 -0.0030729411)
(0.01418454 0.013227236 -0.0029718011)
(0.012870677 0.012447411 -0.0028742175)
(0.011631099 0.011666204 -0.0027788193)
(0.010500964 0.010933257 -0.0026742948)
(0.0094304091 0.010227398 -0.0025952705)
(0.0084546976 0.0095358129 -0.002485576)
(0.0075313389 0.0089013345 -0.002426716)
(0.0066882587 0.008244733 -0.002323013)
(0.0059013163 0.0076785637 -0.0022739425)
(0.0051657216 0.0070298463 -0.0021733871)
(0.0044857693 0.0065283687 -0.0021513264)
(0.0038611204 0.0058989547 -0.0020594779)
(0.0032911891 0.0054556614 -0.0020524342)
(0.0027616676 0.0048464765 -0.0019696504)
(0.0022916751 0.0044122553 -0.0019474791)
(0.0018644947 0.0038313587 -0.0018722177)
(0.0014926481 0.0034078681 -0.0018461937)
(0.0011767063 0.0028872464 -0.0017599716)
(0.00092386421 0.0024440855 -0.0016685545)
(0.00072113174 0.0019501899 -0.0015461301)
(0.00060945492 0.0015786665 -0.001379695)
(0.00048377493 0.0011021135 -0.0010696682)
(0.00067679293 0.00072042559 -0.00059937943)
(0 0 0)
(0 0 0)
(0 0 0)
(0 0 0)
(0 0 0)
(0 0 0)
(0 0 0)
(0 0 0)
(0 0 0)
(0 0 0)
(0 0 0)
(0 0 0)
(0 0 0)
(0 0 0)
(0 0 0)
(0 0 0)
(0 0 0)
(0 0 0)
(0 0 0)
(0 0 0)
(0 0 0)
(0 0 0)
(0 0 0)
(0 0 0)
(0 0 0)
(0 0 0)
(0 0 0)
(0 0 0)
(0 0 0)
(0 0 0)
(0.53059657 -0.12281998 0.0087027632)
(0.53060405 -0.12306756 0.0086863624)
(0.53059624 -0.12327213 0.0086696447)
(0.53059643 -0.1234715 0.0086671279)
(0.5305933 -0.12365709 0.0086683298)
(0.53058724 -0.1238306 0.0086849832)
(0.53057377 -0.12399376 0.0086981136)
(0.53055473 -0.1241457 0.0087241313)
(0.53052901 -0.12429231 0.0087404377)
(0.53049291 -0.12442414 0.0087588072)
(0.53046415 -0.12455878 0.008771774)
(0.53041145 -0.12465794 0.0087737938)
(0.53037099 -0.12476521 0.0087677979)
(0.53032107 -0.12483712 0.0087545267)
(0.53028069 -0.12491211 0.0087279779)
(0.54678651 0.055537471 0.0089137451)
(0.54681014 0.0554408 0.0089327676)
(0.54682544 0.055349126 0.008915398)
(0.54684789 0.05524177 0.0089009004)
(0.54684534 0.055114426 0.0088825227)
(0.54684513 0.054980477 0.0088472586)
(0.54683409 0.054843487 0.0088150734)
(0.54681395 0.054695414 0.0087742271)
(0.54678477 0.054544828 0.0087358712)
(0.54674559 0.054387842 0.0087009987)
(0.54669981 0.054220876 0.0086692621)
(0.54664417 0.054048571 0.0086451425)
(0.54659018 0.053871183 0.0086439096)
(0.54652105 0.053648605 0.0086140299)
(0.54647616 0.05348459 0.0086312366)
(-1.0857821e-05 -0.0018907662 0.00080453385)
(-0.00019554666 -0.004034074 0.00096727699)
(-0.00036510161 -0.0060880621 0.0011849835)
(-0.00040915529 -0.0081406885 0.0012917942)
(-0.0005169421 -0.010146363 0.0014093989)
(-0.00045419733 -0.012080612 0.0014776978)
(-0.00041867184 -0.013951779 0.0015194018)
(-0.00023896069 -0.015704127 0.0015692042)
(-0.00010100556 -0.017414558 0.0016019379)
(0.00019757147 -0.018948409 0.0016367787)
(0.00046139552 -0.020450577 0.0016671668)
(0.00086541603 -0.021742154 0.0017189017)
(0.0012605416 -0.022996471 0.0017488249)
(0.0017748478 -0.024015004 0.0018129467)
(0.0022861632 -0.024979894 0.0018653824)
(0.0029401303 -0.025702623 0.0019451134)
(0.0036113461 -0.026336213 0.0020080443)
(0.0043721267 -0.02675009 0.0021095497)
(0.0052222691 -0.027016423 0.0021937409)
(0.0061556607 -0.027090992 0.0023031307)
(0.0071735173 -0.026985919 0.0024109446)
(0.0082997456 -0.026695511 0.0025358048)
(0.0095351985 -0.026205455 0.0026520406)
(0.010867062 -0.025534624 0.0027900866)
(0.012338273 -0.024659232 0.0029217747)
(0.013923866 -0.023602664 0.0030649353)
(0.015655566 -0.022339953 0.0032066633)
(0.017518546 -0.020900537 0.003355689)
(0.019542048 -0.019265084 0.0035041864)
(0.021716525 -0.017448832 0.0036552039)
(0.024055788 -0.015455566 0.0038073586)
(0.026567171 -0.013288346 0.0039577069)
(0.029253444 -0.010951301 0.0041098106)
(0.03211786 -0.0084590819 0.0042611126)
(0.035177343 -0.005809172 0.0044109241)
(0.03842511 -0.0030248427 0.0045629208)
(0.041873222 -9.7453397e-05 0.0047084036)
(0.045516205 0.002947641 0.0048542706)
(0.049371253 0.0061072517 0.0050014893)
(0.053430994 0.0093721667 0.0051441514)
(0.057703192 0.012724833 0.0052893721)
(0.062188031 0.016152387 0.0054294763)
(0.066886761 0.019656096 0.005572224)
(0.071805836 0.023203851 0.0057107371)
(0.076937618 0.026797911 0.0058502398)
(0.082291989 0.030417781 0.005989397)
(0.087863144 0.034050565 0.0061255818)
(0.093653963 0.037684703 0.0062637929)
(0.099662833 0.041304839 0.0063983535)
(0.10589002 0.044897288 0.006533429)
(0.11233292 0.048449793 0.0066653803)
(0.11899141 0.051946346 0.0067967951)
(0.12586209 0.055376319 0.006924005)
(0.13294374 0.058723606 0.0070498515)
(0.14023213 0.061978561 0.0071707595)
(0.14772497 0.065124835 0.0072889589)
(0.15541745 0.068154759 0.0074016694)
(0.16330584 0.071052595 0.0075102819)
(0.17138458 0.073810437 0.0076134332)
(0.17964901 0.076415912 0.0077115195)
(0.18809305 0.078860872 0.0078034748)
(0.19670965 0.08113491 0.0078906743)
(0.2054942 0.083230566 0.00797145)
(0.21443889 0.085137821 0.0080489252)
(0.22353226 0.086857974 0.00811701)
(0.2327805 0.08837023 0.0081825894)
(0.24216714 0.089684902 0.0082454064)
(0.25167264 0.090791094 0.0083039438)
(0.26130643 0.091680027 0.0083598994)
(0.27105639 0.092354095 0.0084085677)
(0.28091464 0.092815652 0.0084551952)
(0.2908719 0.09305404 0.0084971421)
(0.30092743 0.093081615 0.0085351336)
(0.31106372 0.09288211 0.008573813)
(0.32128764 0.092479353 0.0086053831)
(0.33157969 0.091843756 0.0086392833)
(0.34194267 0.09102368 0.0086641538)
(0.35236799 0.089960756 0.0086960207)
(0.36284407 0.088738961 0.0087120568)
(0.37337949 0.087272495 0.0087413692)
(0.38394885 0.08565637 0.0087528395)
(0.39456903 0.083826085 0.0087750372)
(0.40521589 0.081833719 0.008784661)
(0.41589466 0.079662764 0.0088038345)
(0.42659438 0.077342548 0.008806943)
(0.43732585 0.074854673 0.008822086)
(0.44807011 0.07223313 0.0088314608)
(0.45882206 0.069483629 0.0088356029)
(0.469592 0.066609785 0.0088483259)
(0.4803517 0.063607165 0.0088695934)
(0.49112882 0.060555937 0.0088580065)
(0.50188739 0.057365611 0.0088947726)
(0.51267383 0.054079055 0.0088927893)
(0.52346346 0.050816511 0.0088719305)
(0.53431761 0.047288171 0.0088364216)
(-0.0004333471 -0.0040799969 0.00072486407)
(-0.00082983045 -0.008528816 0.00085639671)
(-0.0010989564 -0.012616484 0.0010053207)
(-0.0014600516 -0.016902737 0.0011535541)
(-0.0017066263 -0.02090651 0.0012139397)
(-0.0019008768 -0.024933422 0.0012646084)
(-0.002037586 -0.028736933 0.001316696)
(-0.0021389409 -0.032479116 0.0013483768)
(-0.0021256838 -0.035976092 0.0013852252)
(-0.0020860731 -0.03937889 0.0014019644)
(-0.0019772402 -0.042511214 0.0014585142)
(-0.0017877004 -0.04548729 0.0014532227)
(-0.0015497011 -0.048189041 0.001530887)
(-0.0012334356 -0.050694479 0.001540329)
(-0.00084928057 -0.052907692 0.0016274643)
(-0.00036378337 -0.054872501 0.0016352225)
(0.00014082187 -0.056555334 0.0017510822)
(0.00080662504 -0.057942649 0.0017828937)
(0.0015057303 -0.05903289 0.001887185)
(0.0023285056 -0.059823371 0.0019579796)
(0.0032406416 -0.060285787 0.0020673983)
(0.0042809448 -0.060439295 0.0021493434)
(0.0054133848 -0.060261191 0.0022727435)
(0.0066944762 -0.059762981 0.0023772301)
(0.0080946045 -0.058932019 0.002500664)
(0.0096429901 -0.057776266 0.0026194174)
(0.011333742 -0.056292418 0.0027508086)
(0.013186576 -0.054490341 0.0028803044)
(0.015203203 -0.052363937 0.0030129752)
(0.01738984 -0.049933523 0.0031497983)
(0.019761028 -0.047192881 0.0032868592)
(0.02231904 -0.044161372 0.0034243716)
(0.025069778 -0.04084454 0.0035649746)
(0.028027159 -0.037255337 0.0037026548)
(0.031185353 -0.033409361 0.0038442237)
(0.034558598 -0.02931526 0.0039806018)
(0.038153544 -0.024994168 0.0041178844)
(0.041968293 -0.020459179 0.0042583974)
(0.046004661 -0.01573208 0.0043944548)
(0.050276915 -0.010821327 0.0045305456)
(0.054773476 -0.0057617293 0.0046662401)
(0.059508174 -0.00055585216 0.0048052597)
(0.064482832 0.0047595071 0.0049329627)
(0.069685798 0.010174377 0.0050731449)
(0.075131113 0.015662945 0.0052049486)
(0.080812641 0.021200387 0.0053406947)
(0.086728182 0.026768504 0.0054755006)
(0.09288104 0.032341689 0.0056106)
(0.099265289 0.037898454 0.0057442892)
(0.10588115 0.043414565 0.0058791541)
(0.11272372 0.048869896 0.0060116221)
(0.1197917 0.054237463 0.0061441192)
(0.12707837 0.059501067 0.0062737792)
(0.13458176 0.064632515 0.0064024356)
(0.14229392 0.069616651 0.0065273794)
(0.15021139 0.074427724 0.0066502321)
(0.1583256 0.079051216 0.0067683246)
(0.16663103 0.083462392 0.0068839914)
(0.17511878 0.087649917 0.0069939779)
(0.18378239 0.09159062 0.0071004902)
(0.19261064 0.095274026 0.0072020251)
(0.20159786 0.098681397 0.007298974)
(0.21073246 0.10180135 0.0073923376)
(0.22000385 0.1046228 0.0074792099)
(0.22940747 0.10713436 0.0075629229)
(0.23893069 0.10932309 0.0076463301)
(0.24854811 0.11119005 0.007723309)
(0.25827544 0.11270768 0.0077991302)
(0.26810118 0.1138881 0.0078616637)
(0.27800389 0.11472631 0.0079275932)
(0.28798209 0.11521948 0.0079880722)
(0.29802058 0.11535506 0.008050118)
(0.3081187 0.11515464 0.0081045895)
(0.31826327 0.11458632 0.0081649338)
(0.32845153 0.11370064 0.0082086087)
(0.33867173 0.11243885 0.0082692087)
(0.34892209 0.1108845 0.0083031355)
(0.35919464 0.10895056 0.0083625881)
(0.36948211 0.10675695 0.0083860224)
(0.37978623 0.10418181 0.0084470422)
(0.39009353 0.1013809 0.008460431)
(0.40040794 0.098223851 0.008515085)
(0.41072274 0.094836867 0.0085354872)
(0.42103273 0.09115284 0.0085651037)
(0.43134636 0.087257101 0.0085829272)
(0.4416382 0.08309396 0.0086225733)
(0.45192998 0.078740634 0.008638193)
(0.46219309 0.074173261 0.0086707264)
(0.47246943 0.069404466 0.0087001371)
(0.48269528 0.064519537 0.0087046134)
(0.49294898 0.059432951 0.0087383491)
(0.50314707 0.054230277 0.0087475281)
(0.51338633 0.048936678 0.008740043)
(0.52360162 0.043507735 0.0087318809)
(0.53389687 0.037997959 0.0086973319)
(-0.00068944086 -0.0056176888 0.00062380594)
(-0.0012122013 -0.011432779 0.00072092692)
(-0.0017883981 -0.0171169 0.00092608665)
(-0.002205611 -0.022717367 0.00099096554)
(-0.002611602 -0.028191214 0.0010313364)
(-0.0029190047 -0.033542768 0.00109835)
(-0.0032563011 -0.038755787 0.0011267856)
(-0.0033940504 -0.043720722 0.0011532999)
(-0.0035943533 -0.048583235 0.0011728508)
(-0.0036543527 -0.05309595 0.0012158081)
(-0.0036837151 -0.057472168 0.0012102766)
(-0.0036038589 -0.061467521 0.0012684095)
(-0.003509334 -0.065286613 0.0012751423)
(-0.0032816817 -0.068682096 0.0013313735)
(-0.0030116562 -0.071840689 0.0013408963)
(-0.0026609878 -0.074602501 0.0014267602)
(-0.0022030255 -0.077038038 0.0014493886)
(-0.0016630575 -0.079080458 0.0015210404)
(-0.0010401802 -0.080760355 0.0015845614)
(-0.00029205478 -0.082036838 0.001662716)
(0.00055727917 -0.082910966 0.0017303339)
(0.0015173332 -0.083394718 0.0018296873)
(0.0026130913 -0.08344361 0.0019128497)
(0.0038343596 -0.08310172 0.0020132049)
(0.0051977666 -0.082318399 0.002111933)
(0.0067076304 -0.081144679 0.0022236526)
(0.0083809959 -0.079535278 0.0023310982)
(0.010215425 -0.077533704 0.0024460036)
(0.012225405 -0.075116493 0.0025648263)
(0.014420137 -0.072315536 0.0026857718)
(0.016806165 -0.069119421 0.0028061324)
(0.019386669 -0.065559056 0.0029331548)
(0.022181399 -0.061630773 0.0030566275)
(0.025181237 -0.057362913 0.003184064)
(0.028404848 -0.052762189 0.0033103921)
(0.031854779 -0.047851721 0.0034375233)
(0.035532642 -0.042651459 0.0035680982)
(0.039440252 -0.0371789 0.0036957252)
(0.043604614 -0.031458105 0.0038234219)
(0.048001816 -0.025519791 0.0039493532)
(0.052648915 -0.019370893 0.0040799396)
(0.057543514 -0.013053305 0.0042019493)
(0.062686504 -0.0065850123 0.0043374573)
(0.068080581 6.3196697e-06 0.0044648766)
(0.073726483 0.0066894997 0.0045931646)
(0.079617688 0.013440004 0.0047262662)
(0.085759849 0.020229023 0.0048552065)
(0.092146534 0.02702585 0.0049878955)
(0.098776741 0.03380407 0.0051191213)
(0.10564614 0.040532766 0.0052525117)
(0.1127521 0.047185379 0.0053831025)
(0.1200879 0.053731054 0.0055163669)
(0.12764985 0.060145626 0.0056454358)
(0.13543049 0.066396963 0.0057761241)
(0.14342363 0.072464292 0.0059023949)
(0.15162149 0.078316449 0.006028202)
(0.1600155 0.083933463 0.0061499618)
(0.16859731 0.089287943 0.0062698297)
(0.17735723 0.09436154 0.0063846115)
(0.18628458 0.099128452 0.0064979443)
(0.19537024 0.10357417 0.006605317)
(0.20460256 0.1076754 0.0067106946)
(0.21396968 0.11142008 0.0068111738)
(0.2234616 0.11479008 0.0069069432)
(0.23307019 0.1177712 0.0070028758)
(0.24276733 0.12035373 0.0070897173)
(0.25257993 0.12253948 0.0071821406)
(0.26245615 0.12429223 0.0072530617)
(0.2723982 0.1256131 0.0073468707)
(0.28240379 0.12651392 0.0074255358)
(0.29245302 0.12697743 0.0075043531)
(0.302544 0.12700977 0.0075819425)
(0.31267039 0.12660717 0.007652538)
(0.32280944 0.12577386 0.0077252953)
(0.33297328 0.12451139 0.0077928919)
(0.34313531 0.12282107 0.0078627905)
(0.35331026 0.12072442 0.0079231437)
(0.36346908 0.11820665 0.0079916964)
(0.37363301 0.11530737 0.0080464607)
(0.38376987 0.11200534 0.0081116848)
(0.39390252 0.10835577 0.0081586333)
(0.40400793 0.10431173 0.0082279431)
(0.41408887 0.099974522 0.0082628193)
(0.42415999 0.095263364 0.0083276604)
(0.43418865 0.090288017 0.0083718911)
(0.44420018 0.084997219 0.0084258604)
(0.45417204 0.079468726 0.0084595361)
(0.46413162 0.073655341 0.0085180181)
(0.47405264 0.067672254 0.0085365004)
(0.48394623 0.061439889 0.0085908293)
(0.49383052 0.055043213 0.0086161353)
(0.50367235 0.048513894 0.0086360061)
(0.51353801 0.041805938 0.0086491997)
(0.5233716 0.035046315 0.0086441095)
(0.53323785 0.028175849 0.0086238881)
(-0.0008028757 -0.0061501402 0.00051647188)
(-0.0014527169 -0.012591988 0.00064319396)
(-0.0020105039 -0.018760676 0.00072862953)
(-0.002508641 -0.024926155 0.00077680731)
(-0.0029595226 -0.030919467 0.00084986513)
(-0.0033914165 -0.036832874 0.00088782315)