/*--------------------------------*- C++ -*----------------------------------*\
  =========                 |
  \\      /  F ield         | OpenFOAM: The Open Source CFD Toolbox
   \\    /   O peration     | Website:  https://openfoam.org
    \\  /    A nd           | Version:  6
     \\/     M anipulation  |
\*---------------------------------------------------------------------------*/
FoamFile
{
    version     2.0;
    format      ascii;
    class       pointVectorField;
    location    "0.7";
    object      lm;
}
// * * * * * * * * * * * * * * * * * * * * * * * * * * * * * * * * * * * * * //

dimensions      [1 -2 -1 0 0 0 0];

internalField   nonuniform List<vector> 
28033
(
(-1.780536e-14 4.8656612e-16 1.3104288e-15)
(-5.4375576e-15 3.3318594e-15 9.9433006e-16)
(-6783.1488 758.34033 21.362357)
(-6360.8302 2709.2439 37.411947)
(-1.338461e-14 3.0090723e-15 -2.870051e-16)
(-1.2587315e-14 4.9008913e-15 -4.4266115e-15)
(-6371.6296 2749.6734 30.010968)
(-6789.2203 771.46451 34.744774)
(-5.6329745e-15 1.0535579e-15 6.7193838e-16)
(-2.4534443e-15 3.0423504e-16 5.8836893e-16)
(-5.4923298e-15 2.4302826e-15 8.9528572e-16)
(-2.6209443e-15 -1.1537891e-15 -6.7979696e-16)
(-7.2548563e-15 1.5542294e-15 1.0013199e-15)
(-4.7613589e-15 -9.2108094e-16 -7.3952737e-16)
(-1.132389e-15 -2.2256662e-17 -6.4484848e-16)
(-7.4239857e-16 -2.4218299e-16 -3.6669977e-16)
(-1.1196198e-15 4.5550132e-16 8.383863e-16)
(-2.3465882e-16 2.2667819e-16 1.4996246e-15)
(-4.0583243e-15 -8.7236639e-16 -1.3429605e-15)
(-5.8237189e-15 8.4462789e-16 7.5519031e-16)
(-5.1611762e-15 1.0100276e-15 9.7613867e-16)
(-1.7679952e-15 -8.1010255e-16 4.5192313e-16)
(-4.4158752e-15 1.0299569e-15 -9.452958e-16)
(-6630.1435 876.62414 30.119312)
(-6433.5026 980.99125 38.440625)
(-6279.8208 1081.6015 43.202328)
(-6186.7554 1183.7977 44.856898)
(-6163.1831 1293.4128 44.686738)
(-6206.3901 1414.3637 41.324538)
(-6304.2579 1547.6745 37.528426)
(-6436.8539 1693.2269 31.960113)
(-6578.6555 1846.4017 25.941921)
(-6702.4178 2002.6472 20.285229)
(-6786.3631 2154.8838 16.320289)
(-6811.2504 2296.9627 15.575266)
(-6770.3934 2423.2423 16.956017)
(-6664.9502 2531.1083 21.739616)
(-6513.4021 2622.2158 29.427462)
(19.949287 18.187331 16.857859)
(37.961394 27.080161 17.393455)
(54.57924 30.080282 14.659281)
(68.998631 30.579271 11.117326)
(80.508787 28.750257 7.4035469)
(88.108079 25.672625 3.6434616)
(91.454544 21.804579 0.87735181)
(90.382409 18.019578 -0.84785054)
(84.713505 14.511919 -1.4539913)
(74.939623 12.108041 -0.59494644)
(61.382043 11.067208 1.3422677)
(44.790971 11.546431 4.3806075)
(26.032183 13.818999 7.9326125)
(5.8166275 17.919188 12.134526)
(-14.446315 23.711017 15.928065)
(-34.439571 30.688551 19.531754)
(-53.173796 38.454549 22.161386)
(-70.092629 46.740374 23.943752)
(-84.827462 54.818251 24.153547)
(-97.680574 62.12623 23.232162)
(-108.3074 68.213552 20.693631)
(-117.71603 72.497504 17.101811)
(-126.11912 74.8685 12.356646)
(-134.67945 74.702312 6.8035931)
(-144.45875 72.33718 0.98698906)
(-156.55038 67.610993 -4.7361041)
(-171.70263 60.923672 -10.034806)
(-191.37725 52.268758 -14.547891)
(-216.47096 42.659276 -17.500189)
(-247.35177 32.252377 -19.290479)
(-284.84122 21.802986 -19.07124)
(-329.13553 12.126959 -17.223228)
(-380.00008 3.2683034 -13.771705)
(-436.83353 -3.3881444 -8.9643946)
(-499.53911 -8.2283808 -2.8071184)
(-566.94735 -10.276547 3.9432548)
(-638.12788 -10.003888 10.708076)
(-711.84072 -6.6425555 17.328662)
(-787.06698 -0.74632284 23.163824)
(-862.88849 7.3999865 27.503665)
(-937.96271 17.854824 30.263949)
(-1011.8785 29.676377 30.920482)
(-1083.8871 42.88647 29.515464)
(-1153.7744 56.603962 25.810501)
(-1221.3895 70.454512 20.086235)
(-1287.1032 83.849283 12.510707)
(-1351.2597 96.364544 3.4201141)
(-1414.6146 107.61321 -6.716532)
(-1477.9115 117.28297 -17.47039)
(-1542.1116 125.17856 -28.334791)
(-1608.1316 131.19545 -38.85816)
(-1676.9362 135.32992 -48.618259)
(-1749.3879 137.68383 -57.272309)
(-1826.2674 138.4259 -64.558297)
(-1908.2054 137.81858 -70.311358)
(-1995.6724 136.1627 -74.466488)
(-2088.958 133.82051 -77.052291)
(-2188.1688 131.1593 -78.17702)
(-2293.2209 128.58328 -78.037739)
(-2403.8617 126.46592 -76.875366)
(-2519.6652 125.17376 -74.973102)
(-2640.0956 125.05348 -72.665194)
(-2764.405 126.32147 -70.258263)
(-2891.9834 129.33389 -68.063391)
(-3021.7111 133.96603 -66.469551)
(-3153.0861 140.63169 -65.616275)
(-3284.9026 149.19863 -65.911568)
(-3416.7075 159.40086 -67.395969)
(-3547.4385 171.18273 -69.939891)
(-3676.725 184.39897 -74.054517)
(-3804.092 198.57139 -79.482719)
(-3929.0068 213.5975 -86.057743)
(-4051.5659 228.92559 -93.640481)
(-4171.7383 244.42146 -101.94383)
(-4289.8186 259.75872 -110.57689)
(-4406.2073 274.81224 -119.13543)
(-4521.474 289.42861 -127.14908)
(-4636.2426 303.71422 -134.12573)
(-4751.2539 317.64005 -139.57572)
(-4867.0294 331.63402 -143.0755)
(-4984.3528 345.90308 -144.20129)
(-5103.4827 360.86824 -142.69247)
(-5224.6437 376.92004 -138.39208)
(-5347.9002 394.43112 -131.23258)
(-5472.9008 413.98923 -121.41538)
(-5599.0463 435.65299 -109.31403)
(-5725.4532 459.89563 -95.214241)
(-5850.9981 486.65432 -80.08804)
(-5974.4168 515.7141 -64.089034)
(-6094.4786 547.32826 -48.693953)
(-6209.4919 579.87297 -33.708667)
(-6319.2148 614.94681 -20.666867)
(-6422.1177 648.94952 -8.8677238)
(-6518.6521 683.42862 0.77312373)
(-6613.2887 717.32856 9.8335368)
(6.5899936 -15.019751 -17.05031)
(25.284644 -18.766678 -8.6781585)
(46.292158 -21.139441 -3.5677631)
(62.171926 -19.253538 3.3331944)
(75.16661 -14.043855 8.0017111)
(83.168331 -8.1269857 10.869136)
(86.756473 -0.59779216 12.595964)
(84.75791 7.8067883 11.56391)
(77.55062 16.812517 9.143727)
(65.611011 25.613983 4.4756127)
(49.135857 34.423933 -1.3055303)
(29.589566 42.069718 -8.1305868)
(7.6308247 49.025112 -15.213222)
(-15.470405 54.644121 -21.916028)
(-38.677913 59.018596 -27.808939)
(-60.657682 62.103126 -32.047869)
(-80.87503 63.954933 -34.176039)
(-98.300092 65.004469 -34.103524)
(-112.53436 65.431352 -31.207648)
(-123.74326 65.666363 -25.657546)
(-131.80763 66.310152 -17.758115)
(-137.23157 67.561449 -7.3601036)
(-141.10393 70.324408 4.6282429)
(-143.84309 74.465142 17.958828)
(-146.87109 80.89269 32.055063)
(-151.54607 89.664386 45.727034)
(-158.95601 101.14416 58.938695)
(-170.23902 115.10755 70.508961)
(-186.56095 132.01741 80.460932)
(-208.71185 151.01886 87.718796)
(-237.44112 172.61155 92.471168)
(-272.71612 195.71 94.485402)
(-314.99482 220.37858 93.659239)
(-363.95779 245.924 90.212253)
(-418.99844 271.92033 84.428562)
(-479.5746 297.81982 76.901817)
(-544.64067 323.04662 67.820969)
(-613.18993 347.90671 58.150547)
(-684.07252 371.31423 48.260859)
(-756.39468 393.7756 38.818984)
(-828.89362 414.97755 30.390562)
(-900.74902 435.12189 23.49879)
(-971.14475 454.41765 18.524319)
(-1039.574 473.19928 15.77201)
(-1105.6802 491.86429 15.406682)
(-1169.4182 510.87634 17.465208)
(-1230.9317 530.72607 21.865219)
(-1290.6212 551.90269 28.398391)
(-1349.0568 574.88503 36.766897)
(-1406.971 600.09091 46.588533)
(-1465.1951 627.88591 57.431627)
(-1524.6165 658.54248 68.836422)
(-1586.1291 692.2464 80.341051)
(-1650.583 729.08042 91.503573)
(-1718.7547 769.02979 101.92156)
(-1791.3049 811.98352 111.24481)
(-1868.762 857.74747 119.18617)
(-1951.507 906.05208 125.52491)
(-2039.76 956.57309 130.11293)
(-2133.5839 1008.9455 132.86821)
(-2232.885 1062.7823 133.7809)
(-2337.4207 1117.6888 132.90866)
(-2446.7993 1173.2873 130.37231)
(-2560.5232 1229.2228 126.36576)
(-2677.9462 1285.1791 121.12222)
(-2798.3791 1340.8781 114.99721)
(-2921.0436 1396.1558 108.28894)
(-3045.0558 1450.8615 101.41949)
(-3169.6402 1504.7541 94.896313)
(-3294.1025 1557.9482 89.094227)
(-3417.6281 1610.7357 84.320316)
(-3539.7162 1662.7522 80.969121)
(-3659.9939 1714.6073 79.341879)
(-3778.1619 1766.175 79.580291)
(-3894.2406 1817.795 81.727776)
(-4008.4813 1869.6262 85.635595)
(-4121.2583 1921.8416 91.073578)
(-4233.169 1974.5772 97.610487)
(-4344.9213 2027.8789 104.78501)
(-4457.2662 2081.6844 112.0122)
(-4570.9266 2135.8415 118.7031)
(-4686.563 2190.0618 124.28039)
(-4804.6225 2243.9495 128.2346)
(-4925.3522 2296.9856 130.17608)
(-5048.6827 2348.5778 129.85155)
(-5174.2648 2398.0611 127.18275)
(-5301.4098 2444.772 122.26429)
(-5429.1661 2488.0837 115.33705)
(-5556.3252 2527.4522 106.81485)
(-5681.5543 2562.4969 97.156905)
(-5803.416 2593.087 86.906778)
(-5920.6313 2619.2755 76.536955)
(-6032.0915 2641.5581 66.459749)
(-6137.208 2661.0292 56.758853)
(-6246.162 2682.7553 47.406543)
(3.2927448e-15 -1.3239155e-15 2.3845803e-16)
(2.4470133e-15 -9.6672015e-16 3.215493e-17)
(-9.0574249e-15 9.0550918e-16 6.4029168e-16)
(-1.2642219e-16 -5.721845e-16 4.4370095e-16)
(-7.6811722e-15 -4.9270561e-16 4.1193361e-16)
(-7.3893964e-15 2.7533729e-15 -1.0951501e-15)
(-3.2915852e-15 -8.1743692e-16 3.8364228e-16)
(-1.9032499e-15 5.3200654e-16 -8.2319016e-17)
(-4.7409759e-15 -4.8623412e-16 4.3918642e-16)
(-1.2869644e-14 1.1845665e-15 6.4228907e-16)
(-9.6157521e-15 1.4157374e-15 5.9836601e-16)
(-9.4077204e-15 4.9518432e-16 1.1192419e-15)
(-5.982767e-15 2.6210694e-16 3.0473736e-16)
(-1.1478475e-14 -5.3386198e-16 1.6580808e-15)
(-5.257323e-15 3.6289085e-16 2.8600704e-16)
(5.6702094 -6.1197597 12.386027)
(23.211058 -13.095993 2.0518495)
(46.766976 -14.515758 -9.6034438)
(64.448239 -8.4637021 -18.620661)
(79.110184 -4.6022387 -26.109627)
(87.45656 1.9260577 -31.210147)
(92.080166 9.5956991 -33.731496)
(88.98736 18.096179 -34.142524)
(81.268649 25.992208 -30.193167)
(67.933368 35.284796 -25.058641)
(49.091901 42.724118 -17.377819)
(28.079944 49.333347 -8.1236784)
(3.6996549 56.32807 1.8364626)
(-21.708086 60.09593 11.872704)
(-46.422572 64.380464 21.318438)
(-70.573591 66.518218 28.997652)
(-92.198787 67.74898 35.087918)
(-110.47196 68.105313 38.942277)
(-125.69401 68.259378 39.570165)
(-136.86957 67.904096 38.037196)
(-144.5802 69.087531 33.848902)
(-149.9427 69.998655 27.071632)
(-153.25818 72.917454 18.885582)
(-154.80694 78.004568 9.2243027)
(-157.12229 85.859165 -0.9173007)
(-160.41022 95.744845 -11.041358)
(-166.65223 108.62022 -19.993698)
(-177.41667 125.17588 -28.213362)
(-192.34119 143.35804 -33.756371)
(-214.29988 166.41962 -37.679936)
(-241.97163 190.53973 -38.990147)
(-277.08246 217.04186 -37.584371)
(-319.05639 245.24472 -33.966516)
(-367.79268 274.22464 -28.156486)
(-423.44879 304.52794 -20.855774)
(-483.03227 332.3735 -12.037691)
(-547.96458 362.83761 -2.7894941)
(-616.81231 390.30508 6.2231237)
(-687.42741 416.98701 14.71829)
(-759.54337 442.066 21.892202)
(-831.71799 465.53203 27.302055)
(-903.1751 487.42682 30.577721)
(-973.15458 507.95744 31.435685)
(-1041.1212 527.41108 29.772577)
(-1106.8033 546.19961 25.613857)
(-1170.1615 564.80521 19.142384)
(-1231.4009 583.77419 10.64951)
(-1290.9397 603.66932 0.54615634)
(-1349.3818 625.0632 -10.695508)
(-1407.4735 648.49559 -22.546316)
(-1466.0512 674.45357 -34.481724)
(-1525.9974 703.35132 -45.987564)
(-1588.1868 735.50837 -56.611083)
(-1653.4468 771.13779 -65.967959)
(-1722.5129 810.33996 -73.770555)
(-1796.0103 853.09816 -79.828059)
(-1874.4156 899.27954 -84.056262)
(-1958.0632 948.65028 -86.469377)
(-2047.1184 1000.874 -87.170608)
(-2141.5954 1055.5435 -86.344599)
(-2241.3447 1112.1835 -84.237591)
(-2346.0804 1170.2818 -81.142396)
(-2455.375 1229.3127 -77.389395)
(-2568.6833 1288.7304 -73.33306)
(-2685.378 1348.0448 -69.295064)
(-2804.7248 1406.8372 -65.636353)
(-2926.0041 1464.3553 -62.600638)
(-3049.743 1522.1742 -60.701118)
(-3170.8245 1576.4615 -59.995119)
(-3293.4596 1629.9515 -60.365436)
(-3415.2313 1682.0428 -62.413261)
(-3535.4068 1732.6754 -65.879232)
(-3654.0193 1782.0278 -70.505563)
(-3770.9365 1830.5636 -76.303766)
(-3886.2025 1878.4492 -82.819222)
(-4000.1431 1926.1169 -89.671169)
(-4113.2111 1973.9058 -96.394637)
(-4225.9722 2022.1168 -102.45566)
(-4339.1065 2070.9712 -107.32039)
(-4453.2905 2120.5961 -110.49238)
(-4569.1421 2170.9691 -111.54095)
(-4687.1735 2221.9298 -110.14443)
(-4807.6877 2273.1627 -106.12783)
(-4930.7638 2324.2144 -99.482297)
(-5056.1813 2374.5002 -90.373393)
(-5183.4483 2423.3626 -79.152162)
(-5311.7545 2470.0882 -66.316772)
(-5440.0752 2513.9793 -52.501058)
(-5567.1455 2554.4105 -38.40121)
(-5691.6488 2590.8729 -24.746592)
(-5812.2002 2623.0765 -12.168404)
(-5927.655 2650.9515 -1.1960408)
(-6037.0059 2674.8209 7.9485216)
(-6140.1771 2695.337 15.516263)
(-6225.3544 2708.2608 22.053419)
(-6532.9346 2666.0344 37.609145)
(-6697.2813 2579.7641 44.65375)
(-6785.0763 2463.0714 48.670511)
(-6818.8126 2333.1905 49.828014)
(-6790.6436 2186.5487 47.157764)
(-6696.5735 2028.9809 42.841108)
(-6575.6331 1869.9423 35.761065)
(-6450.1249 1717.5585 29.143033)
(-6295.2233 1563.2481 22.672631)
(-6191.9863 1426.5993 17.425326)
(-6167.7545 1308.2753 14.059389)
(-6196.923 1197.8304 12.791207)
(-6293.5903 1096.1905 15.06431)
(-6455.5038 995.29805 18.673721)
(-6675.1979 894.53279 27.171606)
(-6630.3423 732.04732 44.295964)
(-6551.6038 697.97542 51.568477)
(-6454.1141 661.93475 60.210296)
(-6351.1147 625.32671 68.395545)
(-6242.1413 589.38436 76.636278)
(-6127.8982 554.94709 85.013717)
(-6009.6453 522.92939 92.324815)
(-5888.2939 493.82446 98.60554)
(-5765.1456 468.03968 103.23476)
(-5641.2163 445.80925 105.89972)
(-5517.423 426.94351 106.56381)
(-5394.3896 411.34192 105.17065)
(-5272.4866 398.45944 101.96856)
(-5151.7143 387.71604 97.304142)
(-5032.169 378.69145 91.422683)
(-4913.5052 370.63778 84.940521)
(-4795.2182 362.96242 78.407637)
(-4676.7 355.1064 72.379247)
(-4557.2865 346.52517 67.441299)
(-4436.3842 336.94013 63.951402)
(-4313.4943 326.0624 62.294523)
(-4188.211 313.86566 62.613815)
(-4060.3937 300.37223 64.931971)
(-3929.9723 285.85819 69.179437)
(-3797.1505 270.44898 75.174916)
(-3662.5452 254.49911 82.370399)
(-3527.3842 239.20667 90.572324)
(-3389.7129 224.11808 98.496685)
(-3253.2578 209.63302 107.22337)
(-3117.7975 196.6465 114.86062)
(-2984.2988 185.36573 121.6172)
(-2853.7826 176.02728 126.70403)
(-2726.9784 168.82399 130.00775)
(-2604.688 163.81339 131.22589)
(-2487.5127 160.95812 130.25719)
(-2375.9325 160.09467 127.07589)
(-2270.2573 160.977 121.77017)
(-2170.6264 163.25252 114.51395)
(-2076.9977 166.50394 105.56949)
(-1989.1549 170.25061 95.269958)
(-1906.7147 173.98742 83.999901)
(-1829.137 177.19294 72.186216)
(-1755.7504 179.37652 60.276877)
(-1685.7713 180.08013 48.727273)
(-1618.3415 178.93287 37.981264)
(-1552.5559 175.63877 28.457457)
(-1487.5195 170.03981 20.530833)
(-1422.3596 162.06727 14.518517)
(-1356.3358 151.83521 10.660335)
(-1288.7677 139.54862 9.0974915)
(-1219.2631 125.5149 9.9343313)
(-1147.5093 110.30684 12.986105)
(-1073.5188 94.29719 18.27654)
(-997.63208 78.231976 25.294487)
(-920.0516 62.659164 33.811284)
(-841.93172 48.296827 43.317825)
(-763.78018 35.176576 53.113655)
(-688.70225 25.471099 62.720978)
(-612.11348 17.140277 71.715421)
(-541.00227 11.688536 79.215218)
(-475.36179 9.9880066 84.784721)
(-413.06013 10.526518 88.218958)
(-358.41566 13.136652 88.768728)
(-310.48798 18.66519 86.925359)
(-269.47904 26.46844 81.850747)
(-235.44167 34.45348 74.814889)
(-208.27161 43.193753 64.658166)
(-186.83666 51.850312 53.437805)
(-171.19673 59.707011 40.217748)
(-159.33296 66.749745 26.374855)
(-150.86543 72.107233 12.298991)
(-143.79608 75.124801 -1.252376)
(-137.49989 75.907745 -13.93914)
(-131.22459 75.221897 -24.917836)
(-122.83322 72.096408 -33.812489)
(-112.85582 66.981644 -40.996499)
(-100.03762 61.48455 -45.058412)
(-84.533409 54.099746 -47.415741)
(-66.182493 47.575245 -46.695244)
(-45.813435 40.165312 -44.613069)
(-23.49624 34.259376 -40.498226)
(-0.15787585 29.397842 -35.233739)
(22.610882 25.686055 -29.149968)
(44.535887 23.564387 -23.003663)
(64.372133 22.819612 -16.961184)
(80.702148 23.96716 -12.148568)
(93.179297 26.084447 -7.9958486)
(101.35389 28.794396 -5.5741548)
(103.95648 31.787794 -4.6686578)
(101.65916 34.641476 -5.3593286)
(94.178766 37.091735 -7.3719101)
(82.477448 37.17106 -10.237317)
(66.690224 35.925623 -13.207035)
(46.524878 30.82913 -15.835042)
(29.514324 23.002011 -16.203044)
(-6.8708141e-15 1.5083581e-15 1.9262289e-16)
(-1.2504183e-14 5.7375616e-16 8.4327435e-16)
(-8.3449101e-15 1.4891922e-15 5.3018253e-16)
(-4.9731758e-15 1.4991158e-15 6.2376313e-16)
(-3.4146159e-15 1.5624416e-15 3.1576894e-17)
(2.0582335e-15 9.3962624e-16 -5.746342e-16)
(2.2101935e-15 3.7457559e-17 -1.1841335e-16)
(2.4553765e-15 -8.5141669e-16 -9.3419562e-16)
(1.2987427e-15 1.0081898e-16 1.7950851e-15)
(-4.5074861e-15 9.063971e-16 1.0710522e-15)
(-5.2682467e-15 2.1856155e-15 1.0652666e-15)
(-7.4917339e-15 1.915055e-15 2.2418828e-16)
(-9.400838e-15 1.3708275e-15 6.2833768e-16)
(-6.2048683e-15 1.3247981e-15 5.4317906e-16)
(-6.971104e-15 1.5128103e-15 7.5678131e-16)
(-1.2693866e-14 6.2923345e-15 -2.1364834e-15)
(-5.2452578e-15 2.6791924e-15 -5.3037742e-16)
(-1.0752404e-15 9.8318743e-16 -1.0111087e-16)
(-2.7353382e-15 1.7746034e-15 7.3085398e-17)
(1.0178949e-15 -1.5450237e-16 -4.119182e-16)
(-1.4303492e-15 4.136346e-16 -3.3264033e-16)
(-1.0059749e-14 4.7133437e-15 -1.6449855e-15)
(2.9801421e-15 -1.9180379e-15 -8.3172098e-16)
(-4.79756e-15 2.8035442e-15 1.1420498e-15)
(-5.4778068e-15 3.5047253e-15 -3.934403e-16)
(-1.8117877e-15 1.1581936e-15 -9.1309836e-16)
(-3.9812639e-16 4.7407236e-16 -2.2932148e-16)
(-1.5272242e-15 1.100363e-15 -2.2557932e-16)
(-4.1024849e-15 1.9838802e-15 2.8069696e-17)
(-5.3424143e-16 2.551799e-16 -1.9455919e-16)
(-6364.5811 2721.5394 38.292591)
(-6368.7969 2733.323 39.570269)
(-6373.6021 2745.4743 40.345553)
(-6378.9038 2757.2327 40.276929)
(-6384.3716 2768.2172 39.26279)
(-6389.0704 2777.9812 37.260395)
(-6392.6766 2785.7693 34.785991)
(-6394.7138 2791.1876 32.105717)
(-6395.0837 2793.9146 29.633933)
(-6393.8184 2793.8626 27.65451)
(-6391.2384 2790.9507 26.591733)
(-6387.5016 2785.5188 26.346129)
(-6383.369 2778.1067 27.168433)
(-6379.459 2769.1076 28.157029)
(-6375.5504 2759.4117 29.86007)
(-6794.3194 749.90271 20.67123)
(-6804.9656 742.21033 19.335448)
(-6815.7195 735.59637 17.972432)
(-6825.5042 730.30213 17.226129)
(-6834.5612 726.66737 17.46962)
(-6841.4091 724.67307 18.787126)
(-6845.7057 724.35591 20.992349)
(-6847.1 725.60299 23.842309)
(-6845.5536 728.27934 26.992254)
(-6841.268 732.20451 30.055683)
(-6834.7245 737.12103 32.630152)
(-6826.4882 743.02809 34.501962)
(-6817.3508 749.35131 35.304735)
(-6808.1722 756.46751 35.572996)
(-6798.9145 763.68883 34.976774)
(14.31822 7.0432343 14.755705)
(33.359488 12.272327 13.851278)
(50.43878 16.026909 12.697406)
(65.251716 18.318165 10.630512)
(77.384375 19.542027 7.5182221)
(85.724176 19.937762 4.6128192)
(90.264999 19.949815 2.2616512)
(90.279657 19.803417 0.48998473)
(86.272063 20.089509 -0.21528873)
(77.833155 20.756908 -0.074135544)
(65.743415 22.463912 1.2178292)
(50.283287 24.8676 3.1712225)
(32.583942 28.651215 5.9664401)
(12.9819 33.156098 8.9937435)
(-7.1491722 38.713587 12.315333)
(-27.361316 44.882677 15.222491)
(-46.539968 51.659431 17.851949)
(-64.348715 58.430545 19.617027)
(-80.129219 64.94158 20.470184)
(-93.695425 70.943996 20.230435)
(-105.21575 75.831978 18.912652)
(-114.8427 79.627227 16.478573)
(-123.31605 81.829537 13.139216)
(-131.29774 82.472174 9.0883898)
(-139.76353 81.50758 4.5721402)
(-149.90229 78.995278 0.05502495)
(-162.96375 75.037072 -4.2451389)
(-179.90791 70.157484 -7.9343157)
(-201.99078 64.625658 -10.614893)
(-230.12422 58.656237 -12.061922)
(-264.917 53.163063 -12.191086)
(-306.86049 48.249696 -10.673989)
(-355.98355 44.374428 -7.8399183)
(-412.09651 42.112184 -3.7277533)
(-474.82192 41.5456 1.5339934)
(-543.15153 43.05706 7.3086905)
(-616.15586 46.450853 13.27016)
(-692.47559 52.042261 19.09521)
(-771.13162 59.43226 24.099167)
(-850.55374 68.472834 27.913163)
(-929.78148 79.060527 30.144006)
(-1007.5105 90.705686 30.645318)
(-1083.5 103.00298 29.083703)
(-1156.7819 115.73727 25.585532)
(-1227.3841 128.33847 20.202971)
(-1295.4547 140.58521 13.133336)
(-1361.3822 152.17852 4.7832904)
(-1425.8665 162.85627 -4.4959091)
(-1489.7381 172.46561 -14.226918)
(-1554.0059 180.90069 -23.969079)
(-1619.7015 188.13786 -33.285761)
(-1687.8812 194.21992 -41.802248)
(-1759.5162 199.25929 -49.210061)
(-1835.4767 203.41221 -55.288974)
(-1916.4683 206.89489 -59.915011)
(-2003.0134 209.94008 -63.058289)
(-2095.4314 212.81271 -64.775099)
(-2193.8298 215.77465 -65.20724)
(-2298.1077 219.09007 -64.565879)
(-2407.968 222.99112 -63.094785)
(-2522.9335 227.69897 -61.106324)
(-2642.3749 233.37576 -58.893053)
(-2765.5324 240.11969 -56.771252)
(-2891.5653 248.09337 -55.065319)
(-3019.4712 257.13718 -53.973111)
(-3148.7937 267.48713 -53.785876)
(-3277.7446 278.75792 -54.628895)
(-3406.1395 291.15276 -56.678823)
(-3533.2914 304.32469 -59.83618)
(-3658.2532 318.11324 -64.397768)
(-3780.7805 332.29692 -69.934599)
(-3900.5413 346.79695 -76.344393)
(-4017.5049 361.29637 -83.457321)
(-4131.7954 375.85009 -90.90888)
(-4243.7357 390.34087 -98.381268)
(-4353.8059 404.79488 -105.48445)
(-4462.6247 419.27414 -111.80671)
(-4570.8518 433.91971 -116.95534)
(-4679.2216 448.92989 -120.57819)
(-4788.4058 464.53524 -122.3421)
(-4898.9845 480.9875 -122.0112)
(-5011.4445 498.47635 -119.3783)
(-5125.6091 517.26212 -114.48711)
(-5241.4897 537.54036 -107.22576)
(-5360.6191 559.56522 -98.087862)
(-5480.0896 583.08369 -87.244122)
(-5600.1952 608.18679 -75.064422)
(-5719.5208 634.62432 -62.044225)
(-5837.4173 662.26494 -48.728213)
(-5952.2321 690.75402 -35.50324)
(-6062.9611 719.7191 -23.072229)
(-6169.1029 749.13051 -11.367907)
(-6268.8791 778.20229 -0.79068493)
(-6363.4525 807.19377 9.0976547)
(-6466.9975 838.2238 18.946227)
(12.771642 4.3362463 11.142798)
(29.947942 7.6648045 12.087794)
(46.365833 10.41558 11.482335)
(61.334084 13.181676 9.8881156)
(73.441856 15.224495 7.378196)
(82.437118 16.928921 5.1332928)
(87.588336 18.530027 2.9006536)
(88.825234 20.192736 1.3258175)
(85.746779 22.121564 0.33688492)
(78.657659 24.516623 0.29052147)
(67.809718 27.566742 0.79446325)
(53.544005 31.28968 2.3395671)
(36.662324 35.740566 4.1687405)
(17.778344 40.98181 6.7465475)
(-2.0871718 46.861641 9.2300405)
(-22.34698 53.172497 11.976822)
(-41.867222 59.816804 14.202265)
(-60.329083 66.450721 16.114494)
(-76.802323 72.857335 17.224368)
(-91.319733 78.710878 17.609289)
(-103.5318 83.814894 17.028906)
(-113.82625 87.844325 15.621645)
(-122.48709 90.759506 13.378627)
(-130.37446 92.325205 10.502523)
(-138.30323 92.674202 7.1770861)
(-147.5417 91.818231 3.6802967)
(-159.15234 90.018777 0.35721016)
(-174.47406 87.403586 -2.5351834)
(-194.72528 84.434042 -4.6612637)
(-221.00059 81.429895 -5.849201)
(-254.10996 78.757021 -5.7873587)
(-294.8031 76.825833 -4.5236263)
(-343.2271 75.957939 -2.0675003)
(-399.23571 76.526894 1.5825065)
(-462.43963 78.650321 6.0422387)
(-532.10886 82.419882 11.159974)
(-607.05114 87.966542 16.34796)
(-686.02233 95.225883 21.342722)
(-767.56629 103.95589 25.663524)
(-850.19358 114.02827 28.91423)
(-932.63856 125.26033 30.69085)
(-1013.7543 137.21043 31.013061)
(-1092.4396 149.78451 29.260692)
(-1168.1993 162.50448 25.838111)
(-1240.7011 175.1538 20.779484)
(-1310.0541 187.52753 14.257465)
(-1376.6128 199.42244 6.6193209)
(-1441.0942 210.66339 -1.7535991)
(-1504.389 221.1776 -10.423671)
(-1567.5692 230.89879 -18.991012)
(-1631.7619 239.85406 -27.049251)
(-1698.1064 248.08919 -34.281868)
(-1767.6622 255.71799 -40.419987)
(-1841.3647 262.86561 -45.301977)
(-1919.9707 269.7095 -48.847652)
(-2004.0276 276.41548 -51.06838)
(-2093.8587 283.18281 -52.058368)
(-2189.55 290.18288 -51.986793)
(-2290.9601 297.59254 -51.06394)
(-2397.7388 305.55186 -49.554316)
(-2509.3408 314.18844 -47.740081)
(-2625.0771 323.56503 -45.883439)
(-2744.092 333.77311 -44.300793)
(-2865.5435 344.76521 -43.17391)
(-2988.3655 356.54259 -42.77679)
(-3111.9044 368.88229 -43.22848)
(-3234.0527 381.95903 -44.896909)
(-3365.7118 396.82158 -47.481402)
(-3489.2841 411.47721 -50.834814)
(-3608.2897 425.94196 -55.324844)
(-3724.5058 440.82341 -60.453432)
(-3837.6928 455.67657 -66.237524)
(-3947.9624 470.57945 -72.374991)
(-4055.5464 485.61442 -78.639861)
(-4160.8553 500.70952 -84.695303)
(-4264.4261 516.01821 -90.235353)
(-4366.9338 531.5881 -94.91955)
(-4469.0883 547.64911 -98.496943)
(-4571.6406 564.29149 -100.66916)
(-4675.2169 581.74586 -101.22698)
(-4780.4164 600.13381 -100.04954)
(-4887.7026 619.59379 -97.019157)
(-4997.5657 640.37253 -92.194952)
(-5093.5975 660.11361 -85.172466)
(-5194.3407 681.13133 -76.930971)
(-5308.004 704.97911 -67.328811)
(-5423.8388 730.01054 -56.95228)
(-5539.7837 755.8279 -46.013286)
(-5654.7211 782.29833 -34.648008)
(-5767.874 809.25707 -23.721818)
(-5877.5912 836.10462 -12.760547)
(-5984.174 863.70766 -2.7053312)
(-6085.5546 890.6309 7.1627353)
(-6182.8541 917.63307 16.770944)
(-6287.6428 947.15354 26.369157)
(12.513264 3.4942576 8.8001343)
(28.249572 5.5722928 10.110663)
(44.030203 7.4897844 9.7788411)
(58.461338 9.8136188 8.9976936)
(70.5496 12.092467 7.2264086)
(79.835441 14.411495 5.275401)
(85.659752 16.968918 3.4371038)
(87.428765 19.605239 1.8762969)
(85.304335 22.717043 0.93787481)
(79.060853 26.125566 0.35205398)
(68.966978 30.26715 0.69672337)
(55.393932 34.769592 1.3750783)
(39.05512 40.111927 2.8684419)
(20.473713 45.831385 4.4972866)
(0.5775527 52.117595 6.6438507)
(-19.820899 58.726323 8.6770081)
(-39.898606 65.488912 10.716076)
(-58.913788 72.206669 12.415382)
(-76.24931 78.611803 13.651202)
(-91.532816 84.5607 14.341168)
(-104.51924 89.731543 14.320597)
(-115.39954 94.071901 13.702914)
(-124.48286 97.356951 12.371741)
(-132.45713 99.623566 10.60757)
(-140.21643 100.84164 8.4040457)
(-148.88813 101.17803 6.1459894)
(-159.74867 100.75447 3.9192811)
(-174.11702 99.882199 2.0869554)
(-193.31431 98.86393 0.78467591)
(-218.50925 98.013477 0.32663428)
(-250.75316 97.716668 0.74950862)
(-290.70371 98.254493 2.1920576)
(-338.66915 99.942286 4.6220825)
(-394.73305 102.949 7.9153194)
(-458.42724 107.43123 11.893)
(-528.9261 113.49456 16.265141)
(-605.04959 121.01882 20.618967)
(-685.40465 130.04787 24.690355)
(-768.74163 140.27573 28.147137)
(-853.26768 151.54271 30.566589)
(-937.51866 163.54525 31.715276)
(-1020.1565 176.1642 31.365151)
(-1100.1421 188.91194 29.407779)
(-1176.6677 201.84624 25.914385)
(-1249.4963 214.57614 21.089663)
(-1318.5666 226.98033 15.040344)
(-1384.2954 238.9844 8.1467148)
(-1447.3719 250.47858 0.75448679)
(-1508.7431 261.45897 -6.7513066)
(-1569.5156 271.9247 -14.003705)
(-1630.8799 281.94469 -20.663521)
(-1694.027 291.58708 -26.466277)
(-1760.0664 300.97822 -31.205356)
(-1829.9731 310.22905 -34.77605)
(-1904.528 319.48955 -37.144681)
(-1984.2928 328.88125 -38.366704)
(-2069.5872 338.54686 -38.570774)
(-2160.4838 348.58865 -37.934994)
(-2256.8241 359.11147 -36.687369)
(-2358.231 370.17776 -35.084155)
(-2464.1401 381.83781 -33.374534)
(-2573.8284 394.1042 -31.82495)
(-2686.47 406.97901 -30.665685)
(-2801.1902 420.3704 -30.064385)
(-2916.8865 434.32176 -30.242151)
(-3034.3602 448.75968 -31.221481)
(-3140.3024 462.00498 -33.283742)
(-3276.953 480.39465 -35.472573)
(-3393.0127 496.33678 -39.970593)
(-3504.4215 511.90145 -44.210435)
(-3612.7972 527.43375 -49.258292)
(-3718.3535 542.98322 -54.607078)
(-3821.3486 558.5456 -60.10584)
(-3922.0951 574.26746 -65.480842)
(-4020.9534 590.14457 -70.463425)
(-4118.5631 606.31663 -74.799962)
(-4215.6565 622.90647 -78.2505)
(-4312.9351 640.08734 -80.610807)
(-4411.1478 657.98936 -81.688173)
(-4510.9657 676.76632 -81.367209)
(-4612.9031 696.52306 -79.579618)
(-4717.3903 717.33312 -76.246194)
(-4824.9516 739.28247 -71.603169)
(-4935.1389 762.40907 -65.416986)
(-5022.5349 782.92418 -57.809477)
(-5132.6141 806.94431 -49.56795)
(-5249.3068 832.71191 -40.91184)
(-5367.0318 859.07057 -31.587977)
(-5485.0451 886.00814 -22.365004)
(-5601.9828 913.17451 -12.946339)
(-5717.0137 940.50144 -3.9559728)
(-5829.9894 968.27312 5.0066614)
(-5938.8981 995.6725 13.536578)
(-6044.8966 1022.9899 22.602218)
(-6154.8192 1052.3956 31.667317)
(12.753215 2.6778401 7.0479718)
(27.656017 4.1986307 8.7568388)
(42.550863 5.9788878 8.8906824)
(56.66645 7.905823 8.5415119)
(68.6463 10.224698 6.9209764)
(78.162452 12.778508 5.4455829)
(84.021896 15.603334 3.7771544)
(86.257708 18.79015 2.3960458)
(84.425988 22.478738 1.2264275)
(78.429923 26.575246 0.71106818)
(68.56467 31.252159 0.48714382)
(55.162572 36.468362 0.97886373)
(38.731921 42.298109 1.7136575)
(19.979459 48.50745 3.0417823)
(-0.19826032 55.29328 4.5032808)
(-21.063357 62.145529 6.1864492)
(-41.654873 69.25145 7.8173382)
(-61.281903 76.13028 9.3460627)
(-79.204093 82.78063 10.580922)
(-95.026096 88.852336 11.463741)
(-108.49576 94.276143 11.905718)
(-119.72618 98.833168 11.897241)
(-128.99089 102.51101 11.454403)
(-137.04302 105.23311 10.673955)
(-144.71241 107.12136 9.651902)
(-153.21044 108.25269 8.5570618)
(-163.7809 108.89105 7.5532171)
(-177.86348 109.24796 6.8489154)
(-196.72945 109.66335 6.5950476)
(-221.73079 110.42331 6.9385532)
(-253.80455 111.86073 7.9814808)
(-293.74577 114.25223 9.7458055)
(-341.92351 117.81028 12.191688)
(-398.28966 122.70598 15.234378)
(-462.40247 129.061 18.649247)
(-533.40734 136.79716 22.255132)
(-610.33637 145.90944 25.747986)
(-691.53487 156.15731 28.919274)
(-775.18142 167.47762 31.277905)
(-859.88211 179.60091 32.683603)
(-944.01287 192.32428 32.922949)
(-1026.252 205.36692 31.900073)
(-1105.3645 218.51887 29.544455)
(-1180.6832 231.6132 25.985776)
(-1251.8428 244.46112 21.311791)
(-1318.8427 256.9876 15.789543)
(-1382.069 269.14162 9.6956285)
(-1442.2332 280.88467 3.3501904)
(-1500.2963 292.25011 -2.9197602)
(-1557.3838 303.28396 -8.8128567)
(-1614.7061 314.07346 -14.063513)
(-1673.4656 324.70785 -18.47374)
(-1734.7872 335.31352 -21.907578)
(-1799.6489 345.99021 -24.312952)
(-1868.8385 356.86843 -25.703336)
(-1942.9152 368.0369 -26.168963)
(-2022.1996 379.60155 -25.849536)
(-2106.7678 391.61827 -24.929588)
(-2196.467 404.15071 -23.629389)
(-2290.9345 417.21448 -22.16796)
(-2389.6241 430.82613 -20.778655)
(-2491.8627 444.95669 -19.669934)
(-2596.8602 459.57073 -19.010471)
(-2703.7677 474.64391 -18.970211)
(-2811.764 490.06512 -19.630808)
(-2919.8577 505.78074 -21.069862)
(-3028.32 521.89507 -23.190575)
(-3132.1381 537.40713 -26.288881)
(-3238.8672 553.96527 -30.021527)
(-3341.989 570.42014 -33.90877)