/*--------------------------------*- C++ -*----------------------------------*\
  =========                 |
  \\      /  F ield         | OpenFOAM: The Open Source CFD Toolbox
   \\    /   O peration     | Website:  https://openfoam.org
    \\  /    A nd           | Version:  6
     \\/     M anipulation  |
\*---------------------------------------------------------------------------*/
FoamFile
{
    version     2.0;
    format      ascii;
    class       pointScalarField;
    location    "0.44";
    object      p;
}
// * * * * * * * * * * * * * * * * * * * * * * * * * * * * * * * * * * * * * //

dimensions      [1 -1 -2 0 0 0 0];

internalField   nonuniform List<scalar> 
625
(
585140.98
-790941.49
12654.461
15222.434
957675.67
-1499397.2
9097.3307
4188.7715
357100.42
27852.697
-117063.9
-17236.733
-1862.9939
6598.5908
240609.12
254469.93
249757.04
247308.11
222213.01
215811.09
204255.1
192024.39
189331.77
172762.5
166175.92
153407.41
139270.66
124200.74
108516.42
92904.977
77255.256
64904.292
54135.875
39623.942
30752.844
19951.973
17840.933
-264004.71
-166548.86
-228758.74
-184698.41
-174053.36
-174446.9
-156943.76
-152372.31
-148366.01
-141912.34
-137798.78
-132168.22
-127752.99
-120359.47
-114058.07
-106954.79
-98488.969
-91342.217
-79005.987
-71704.07
-55242.097
-35647.055
-17737.004
608112.51
-2358.617
-213640.35
-264723.52
-354080.33
-265499.87
-248716.92
-289502.62
-248027.46
-234624.45
-237916.61
-231533.23
-220631.67
-202898.43
-185537.98
-164056.11
-143223.97
-121728.19
-101978.39
-84324.58
-66824.91
-52199.534
-38540.505
-22979.256
-10831.05
-398.33759
8715.6129
1127.453
-7973.3619
24584.609
35013.171
47683.237
60721.308
73581.048
86886.495
98203.096
112964.75
125882.69
140807.86
154680.58
170299.3
182344.46
197102.68
196449.39
230274.48
231585.39
229534.22
266717.61
246941.91
300850.33
238578.93
268939.91
566522.34
583897.32
551960.92
-862751.45
-851287.13
-853385.28
30669.782
24620.829
32103.619
-677.13321
5408.7985
2736.2593
109947.08
130995.79
143129.29
134263.87
136927.72
141673.51
134499.03
133136.37
125605.87
118120.54
109447.58
97511.105
84691.333
72434.517
60029.179
47762.065
38325.241
31232.785
22907.591
22696.098
16280.812
12163.777
10037.533
-6147.5491
6492.5588
-3350.4108
9461.2353
2706.1896
3091.2513
-942.76413
-1093.3201
-5444.5394
-7872.7835
-10744.369
-13171.663
-14413.662
-14345.708
-14536.352
-13028.031
-10996.967
-8248.7351
-7111.5675
-2122.5282
-5424.3379
5039.4169
103.54146
-174953.33
-157658.21
-148702.93
-137433.88
-152301.7
-132615.87
-134076.25
-123218.89
-115341.6
-105184.39
-96355.288
-86247.913
-76945.474
-68868.256
-61044.759
-53874.6
-47383.872
-39638.115
-34480.352
-23149.033
-13619.483
-12268.673
-4706.0664
338373.11
300694.93
322204.46
193.46218
26605.958
3424.6712
-100105.64
-134481.78
-190304.73
-365670.48
-363534.19
-381092.87
-310337.56
-285447.56
-262375.59
-266149.2
-241599.79
-253259.02
-226229.48
-218494.47
-216312.39
-230509.45
-222763.22
-232009.46
-218802.85
-205808.04
-205573.79
-209425.93
-204983.57
-218280.2
-208481.25
-191070.76
-202540.01
-196251.63
-185623.39
-195457.53
-184849.5
-177265.75
-187893.99
-172336.39
-168270.37
-176243.73
-159311.39
-156009.27
-163214.69
-144139.75
-142645.93
-148510.54
-129502.25
-128429.81
-133152.47
-115709.31
-114584.2
-118671.58
-102354.47
-101347.28
-104088.42
-90475.916
-88172.798
-91935.773
-77745.934
-77035.317
-79839.024
-67351.338
-64947.855
-67400.44
-52957.456
-51059.519
-54784.279
-38647.046
-39144.941
-42471.513
-21171.671
-28547.287
-26062.727
-18616.117
-12919.397
-20109.213
-20436.619
-21171.371
-22370.657
690.8286
-271.83789
-747.60353
248.75054
6416.3348
2621.5715
287466.93
297650.15
285361.02
278316.47
282390.73
278475.97
290745.92
261710.11
263905.31
249669.18
237366.48
250279.15
243998.99
243985.57
232130.1
242913.63
207959.75
229569.92
224640.59
207923.23
219518.72
220799.21
195801.74
203752.81
205362.57
185743.14
204140.27
198426.48
171693.52
191060.91
184745.27
161570.33
179286.69
169899.05
148311.83
166530.18
153432.54
135228.84
151378.91
137221.26
120779.26
134734.28
120228.83
106036.73
117682.39
103902.17
91928.754
100945.89
88443.604
78378.235
85108.48
76013.255
66263.102
70625.774
60558.794
53122.269
57162.556
51281.84
40664.629
46765.1
39292.4
33200.675
34760.785
27624.808
23779.964
22945.4
29518.009
28690.451
27868.301
160191.76
200056.96
166855.73
173660.14
176535.42
163361.43
159435.91
144848.55
138975.23
124555.63
115360.91
100953.1
89652.813
79134.226
69161.787
60852.592
52821.147
46391.13
38700.703
31668.865
22761.864
15227.036
8504.4705
-12787.943
15205.661
-10064.883
6811.5088
-1875.8282
-8786.5391
-8715.8815
-8553.5354
-9033.4153
-1737.7381
5094.5404
12345.02
21594.414
29273.837
34914.607
39569.109
40519.883
40597.236
36511.553
32497.796
26834.389
20268.688
9612.8128
-133026.71
-129941.38
-159358.96
-136088.93
-128578.93
-122399.18
-102475.92
-95728.93
-80690.838
-74321.339
-68335.616
-63906.127
-61310.199
-58997.429
-57416.961
-54534.405
-51121.15
-48580.337
-43807.476
-38714.845
-33356.919
-25631.513
-18348.455
204397.15
199350.71
187507.1
196019.98
179734.19
169397.09
158132.72
145546.73
176781.85
158227.26
167707.57
156557.07
174890.86
143413.61
159307.7
147766.88
150228.72
161838.91
148926.2
149703.52
150059.79
139649.96
137686.69
145944.48
126960.69
131452.51
135928.45
113536.72
125171.3
121831.95
99886.101
111442.42
111064.84
84310.837
100815.81
98875.472
72507.804
87655.494
86300.753
59906.813
75389.301
75468.651
49607.952
64132.005
66347.829
41554.796
54842.66
57988.496
36730.846
46079.782
51658.515
30517.135
39020.917
44600.08
27542.838
31574.024
40510.143
21865.127
31879.854
34076.331
20933.455
19570.77
28632.653
18185.1
17767.389
23517.108
6822.447
3222.2907
7698.1376
-10789.913
-19089.907
5936.96
-12104.257
16641.253
24107.716
2334.7717
3365.5528
17442.614
-7367.2022
-1242.2011
3558.3487
-14217.316
-6836.7728
18653.197
-18564.123
-1595.2397
4526.2799
-15437.355
-9952.9876
1306.8638
-21605.455
-8807.545
-582.82368
-16211.529
-7639.691
-4257.1117
-12932.384
-7370.81
-5411.2863
-9161.3203
-2448.6618
-5459.9699
-2472.9285
3719.7345
-3972.7718
4272.0552
9447.0482
-1743.6862
9939.5496
15508.718
3188.7226
15174.089
21810.953
8129.7187
20771.573
27315.06
12352.836
24711.323
29105.544
17237.613
25230.67
31688.814
19915.785
29046.703
31235.871
22599.571
25436.184
28434.334
20092.299
29477.48
13088.221
15528.794
18800.859
18923.25
16778.114
12031.108
10729.856
12469.651
-213206.84
-225415.83
-250624.85
-152571.4
-122904.95
-185860.97
-147440.18
-179846.61
-187784.69
-180015.16
-132667.11
-168401.21
-145375
-129939.22
-159887.16
-144591.12
-118641.94
-153986.83
-132959.55
-107862.45
-139994.17
-120525.03
-95876.566
-131981.43
-108843.59
-89034.281
-118305.8
-99062.074
-79841.032
-103990.03
-85677.79
-73497.808
-91522.319
-73827.988
-69580.129
-79511.061
-62863.387
-67047.685
-68333.89
-52853.824
-64081.527
-58251.604
-43053.705
-60986.779
-49392.033
-35065.764
-57851.999
-42409.005
-28328.884
-54479.407
-35166.248
-22449.134
-49139.685
-28585.786
-18222.496
-43846.206
-26244.115
-11802.89
-42348.377
-19748.154
-19035.243
-28772.647
-14025.459
-7260.1185
-21399.184
-3240.444
-3422.0919
-13145.942
-7825.2263
)
;

boundaryField
{
    free
    {
        type            calculated;
    }
    fixed
    {
        type            calculated;
    }
    traction
    {
        type            calculated;
    }
}


// ************************************************************************* //
