/*--------------------------------*- C++ -*----------------------------------*\
  =========                 |
  \\      /  F ield         | OpenFOAM: The Open Source CFD Toolbox
   \\    /   O peration     | Website:  https://openfoam.org
    \\  /    A nd           | Version:  6
     \\/     M anipulation  |
\*---------------------------------------------------------------------------*/
FoamFile
{
    version     2.0;
    format      ascii;
    class       pointScalarField;
    location    "0.53";
    object      p;
}
// * * * * * * * * * * * * * * * * * * * * * * * * * * * * * * * * * * * * * //

dimensions      [1 -1 -2 0 0 0 0];

internalField   nonuniform List<scalar> 
28033
(
1262367.3
-1779110.2
8466.9905
4876.4599
2338544.1
-2496148.2
6368.5047
3233.8404
1069517.3
963274.85
835681.82
681543.02
505272.79
343273.17
177084.35
-1932.3909
-181677.48
-338499.21
-534387.75
-631661.85
-847884.72
-1026374.6
-1035419.6
-10548.081
-5433.8904
-6428.3188
-3205.0579
-2765.4043
-559.9132
1413.1017
3834.8671
6033.674
8477.4398
10944.937
12384.549
14131.566
14875.445
13388.859
329166.64
361528.32
333294.8
358426.63
354470.4
366292.91
370057.84
374057.4
376274.3
379828.3
379431.76
379838.98
380293.28
379926.96
378464.11
376582.91
375600.52
373493.31
370501.98
368163.82
365953.98
361888.8
359710.23
355729.32
352024.8
348715.62
344838.99
340665.74
336528.68
332335.68
327836.71
323355.08
319031.57
314239.87
308797.32
304251.14
299293.86
294692.75
288360.43
283431.33
276912.93
270960.93
264756.03
258888.25
252366.94
246273.44
239706.09
233479.61
226848
220601
214021.03
207736.92
201320.07
195063.17
188820.85
182684.52
176659.49
170695.1
164849.27
159192.44
153592.67
148116.02
142708.48
137794.19
132725.91
127899.68
123800.7
118971.87
114121.07
109499.92
105164.68
101001.53
96722.472
92870.364
88642.31
85133.144
80821.84
77547.681
73262.152
69944.676
65737.7
62334.756
58056.928
53894.283
49829.77
45444.34
41525.878
37467.74
32404.818
28899.819
25196.357
19720.883
19135.582
17015.9
13772.878
-306220.83
-265411.7
-320793.63
-292120.77
-335083.11
-333166.59
-342986.09
-342609.43
-350823.26
-347842.72
-351939.74
-350657.57
-350486.51
-350721.83
-348939.89
-347716.33
-345848.02
-343687.79
-341280.14
-339241.58
-335590.07
-333877.6
-329759.83
-327375.55
-324109.63
-319989.94
-317566.94
-312559.12
-309999.85
-304624.29
-300941.24
-296327.61
-291933.94
-287636.09
-283063.67
-279152.13
-273020.01
-268832.11
-263019.8
-258281.98
-252605.6
-247319.22
-241579.81
-236024.66
-230154.42
-224416.43
-218492.4
-212618.33
-206699.27
-200775.92
-194879.79
-188989.66
-183146.63
-177345.7
-171588.51
-165908.55
-160284.25
-154733.25
-149273.89
-143894.57
-138600.43
-133409.52
-128321.61
-123289.24
-118385.01
-113556.57
-108983.49
-104449.05
-100348.21
-95117.271
-91326.733
-86720.722
-82906.337
-78715.546
-74929.32
-70989.667
-67283.059
-63639.598
-59981.453
-56414.367
-52887.327
-49317.604
-45695.152
-42190.81
-38450.516
-34752.653
-30992.271
-27240.485
-23205.114
-19569.298
-15901.342
-12052.914
-8822.5636
-6959.956
-3726.005
1934296.9
1838903
1334346.1
1355138.6
949948.9
574737.58
362268.99
-15185.111
-310690.57
-666450.1
-937878.69
-1277020.4
-1621916.5
-1857011.4
-1984733.4
-516475.44
-400379.71
-181202.71
-396337.33
-322483.73
-355211.46
-345028.83
-365626.14
-351149
-364303.01
-371957.49
-358426.61
-373219.4
-359001.4
-370534.96
-364037.98
-358742.92
-358702.3
-352867.13
-354378.01
-349941.55
-342129.38
-343992.39
-340971.58
-337150.64
-336998.82
-325138.38
-328899.21
-317210.59
-317744.18
-313922.17
-309669.24
-304974.11
-300718.93
-297799.96
-286003.4
-285522.54
-280596.02
-275165.19
-269742.34
-264193.08
-258520.39
-252725.85
-246840.45
-240907.07
-234898.3
-228790.21
-222642.55
-216440.24
-210258.13
-204059.98
-197889.32
-191741.76
-185645
-179583.45
-173578.59
-167656.32
-161799.35
-156012.8
-150358.72
-144744.58
-139301.31
-133886.11
-128657.01
-123461.06
-118503.13
-113901.52
-108779.25
-102594.5
-99642.556
-95438.754
-90884.716
-86768.822
-82710.541
-78748.434
-74873.976
-71095.394
-67448.104
-63727.176
-60048.655
-56348.891
-52629.398
-48759.499
-44956.78
-40939.742
-36900.269
-32705.501
-28574.81
-24245.164
-20116.707
-16056.253
-12141.102
-9408.983
-6369.2342
-5235.7984
15825.389
17230.935
13595.136
14740.991
9861.3336
9996.2051
5533.8817
3842.313
765.96111
-1907.5702
-1772.1132
-5888.8338
-4866.468
-9390.8034
-6872.5722
22084.064
18596.775
19271.035
22650.398
25488.87
29675.618
33633.89
37910.329
41949.881
46287.061
50398.048
54343.52
58433.572
62397.441
66435.705
70256.419
74329.727
78160.901
82144.849
86166.542
90179.381
94425.29
98666.506
102934.14
107289.81
111255.18
114528.63
123990.31
125664.18
131821.88
136956.17
142433.87
147724.63
153369.53
158969.78
164682.05
170528.37
176382.61
182372.39
188409.22
194524.05
200676.49
206944.26
213183.32
219534.11
225871.79
232251.07
238602.29
245025.14
251272.19
257644.85
263748.45
270051.51
276193.26
281841.47
287733.26
293209.66
295838.72
306107.94
309973.54
311878.49
321867.47
324178.4
329455.2
329413.21
340400.63
338673.13
348435.23
350353.59
354821.49
358372.76
358411.7
367341.13
369039.63
368142.61
376698.41
373959.48
381086.7
378725
383530.66
388350.3
384328.56
383901.5
388468.59
388454.61
383154.09
386374.69
380597.43
376580.93
366328.92
358440.93
369172
356594.78
325600.19
405937.6
882555.98
961414.74
1016114.6
1058228.1
1079294.8
1112298.9
1112435.1
1126936.8
1115663.7
1088438.6
1108799.3
1040447.3
999457.85
1060834.6
830728.41
-1427285.5
-1787148.3
-1770669.5
-1915073.5
-1865248.5
-1787106.6
-2055817.8
-2189990.5
-2049201.7
-2054503.8
-1966768.4
-1894179.8
-1778362.9
-1754460.3
-1669528.3
4250.6542
4333.9168
5319.891
6064.3218
7353.8969
8366.9762
8650.9454
8832.4484
8880.0179
8319.3173
7764.0809
6834.1907
6106.5885
5418.163
5410.926
1695.9197
4159.1005
3206.9942
2426.9855
1437.2824
1174.1133
595.20818
687.8842
947.74373
1312.5331
2399.4917
3237.8702
3777.9547
7137.8234
2362.1076
332865.53
334841.23
298981.9
306915.36
314401.9
321229.76
326687.38
331960.04
335712.59
338344.53
339631.13
342625.95
341667.19
342168.19
341104.98
341669.8
339089.82
338360.71
336331.33
334183.15
332433.94
329762.75
326834.62
324306.93
320750.84
318071.76
314082.45
310946.57
306970.33
303586.15
299054.81
294668.68
291254.87
286173.83
282357.84
277124.87
272497.89
266843.04
262013.68
257152.6
252049.08
246471.92
241022.37
235162.12
229314.1
223625
217556.85
211770.9
205698
199822.84
193798.88
187916.58
181987.75
176164.23
170374.79
164688.43
159066.81
153531.57
148152.9
142839.41
137633.97
132500.27
127661.14
122870.01
117700.6
113320.07
108229.5
103961.04
99681.701
95784.587
91954.149
88367.097
84574.942
81311.685
77620.607
74478.589
70906.324
67942.848
64215.13
61405.636
57750.586
54573.075
51185.476
47901.638
44166.32
40618.486
37166.397
33179.787
29861.075
26801.176
22400.236
19682.722
16809.383
10571.925
5190.0318
314982.77
282519.5
250257.65
261629.82
263007.14
268806.97
273393.33
279283.53
282677.2
286587.27
288405.7
290675.67
291234.93
292751.45
292146.75
292020.18
290975.7
290633.95
288755.04
287605.6
285403.57
283096.06
281134.46
278686.38
276170.18
273182.88
270574.39
267459.32
264300.09
260824.71
257630.7
254118.71
250196.39
246330.49
242491.29
238108.97
233762.5
229419.93
224931.6
220120.12
215190.07
210857.41
204911.31
200110.12
194721.91
189635.63
184200.61
179025.17
173566.59
168355.86
162954.93
157749.09
152483.75
147343.88
142265.43
137270.8
132378.36
127621.39
122960.51
118434.59
114005.85
109785.99
105759.49
101694.79
97959.183
95251.617
92872.236
89371.919
86518.277
83113.647
79949.201
76955.413
73657.031
70900.876
67415.484
65062.707
61521.459
59283.811
55693.597
53616.889
50043.75
47438.806
44387.747
40476.905
37227.186
34167.64
30592.886
27908.717
24967.498
21448.039
18537.558
15693.734
11286.22
7196.0676
144.34114
248911.92
242960.91
206606.12
218138.2
214897.57
222163.26
227260.74
232342.22
234507.92
238732.07
240601.65
243247.54
243772.65
245077.84
244978.69
245701.28
244601.77
244340.85
243160.67
242148.19
240780.98
239385.35
237562.67
235714.8
233345.52
231279.06
228734.62
226149.11
223502.73
220690.16
217707.88
214471.69
211429.97
207997.91
204767.94
201066.97
197947.79
194491.05
190692.85
186586.31
182320.93
177879.77
174033.48
169703.57
165390.94
160855.42
156344.7
151782.29
147207.7
142647.09
138056.87
133561
129032.39
124625.89
120244.89
115946.57
111765.3
107654.13
103643.05
99746.252
95963.184
92296.519
88717.786
85116.871
82051.648
79126.37
76750.149
73535.176
71278.604
68903.824
66397.922
63796.976
61181.132
58814.476
56505.746
54045.257
51837.729
49320.089
47190.446
44603.976
42231.52
40039.081
36944.14
34732.433
32312.052
29574.635
26664.616
24434.6
21651.096
18990.022
16608.641
12713.78
10164.134
4386.1903
1302.1834
201227.98
196879.1
160049.43
173110.94
166744.05
175320.92
178013.82
181820.26
184679.98
188741
190175.29
192695.23
193109.77
195182.71
194728.84
195674
194826.38
195361.95
194058.14
193666.56
192279.6
191200.69
189665.89
188144.68
186592.32
184787.02
182983.68
180953.38
178875.48
176579.82
174352.28
171867.77
169330.44
166573.53
164165.08
160628.28
157811.36
153486.34
150118.94
146847.29
143978.56
140612.57
136937.02
133218.69
129667.09
126014.23
122384.72
118752.55
115085.33
111446.77
107809.34
104213.68
100647.13
97141.548
93677.071
90311.64
87009.466
83782.538
80660.301
77645.863
74720.407
71888.999
69155.433
66602.048
64155.87
61720.713
59636.805
57356.598
54930.96
53167.381
51376.086
49236.706
47777.211
45924.001
44029.263
42231.958
40347.321
38703.838
36715.054
35031.937
33164.228
31347.28
29308.418
27244.191
25243.418
23913.502
21773.381
19788.273
17684.132
15624.275
12963.758
10691.489
7553.0088
4222.7079
-119.33779
162475.74
145032.22
116952.34
128381.59
125757.83
130897
133588.92
137163.12
138638.01
141786.59
142981.84
144670.59
145640.94
146725.54
146627.01
147445.41
146796.88
147005.84
146121.85
145925.42
145044.49
144331.1
143211.32
142318.21
141016.49
139697.55
138238.59
136717.93
135140.91
133501.11
131714.93
129847.63
127931.34
126065.33
124008.59
121802.55
121433.33
121154.03
119122.48
118876.91
115766.85
113108.81
110699.5
107992.63
105306.94
102418.89
99572.933
96646.371
93756.645
90845.501
87940.974
85082.997
82229.645
79416.689
76669.736
73965.225
71317.875
68740.566
66256.639
63814.768
61500.502
59119.192
57129.252
54859.242
52803.361
51044.757
49061.751
47316.856
45332.153
43778.491
42226.324
40630.514
38199
36222.71
34594.694
33089.311
31831.689
30385.16
29074.264
27777.573
26231.718
25107.635
23447.058
22436.471
20686.435
19614.755
17608.64
16439.548
14513.003
12726.253
10951.034
8939.0355
7058.6658
3691.7051
794.79035
100078.74
98783.26
75794.642
87293.881
81563.202
84743.7
87973.12
89812.009
90442.799
93717.706
93395.355
95579.401
95241.115
96661.324
96036.474
97049.189
96189.616
96861.293
95859.035
95987.761
95033.219
94676.522
93890.564
93299.859
92418.964
91613.441
90848.296
89872.874
88931.105
87798.276
86750.377
85521.558
84378.565
83054.954
81561.205
80561.925
79989.987
79428.743
79871.174
79324.993
79027.606
77200.465
75417.53
73670.034
71878.876
70004.177
68141.865
66285.324
64406.347
62525.061
60654.025
58784.263
56918.563
55083.384
53268.235
51469.934
49727.22
48014.431
46337.153
44721.059
43137.425
41669.261
40135.293
38753.94
37504.708
36010.64
34996.697
33725.265
32655.308
31655.676
30557.475
29353.658
28157.157
25995.29
24777.537
24053.878
23099.918
22369.829
21374.274
20817.827
19472.237
19166.37
17555.814
17286.041
15532.724
15406.383
13435.352
13213.495
11284.74
10853.045
9334.4092
7991.2115
6342.469
3983.8296
2346.202
50408.393
45248.013
35848.5
44141.171
38531.904
41854.027
43303.863
43792.157
44260.412
45359.775
45811.433
46095.921
46472.69
47087.838
46693.955
47477.778
46843.003
47467.218
46793.049
47283.243
46657.174
46908.223
46473.637
46357.376
45928.44
45789.395
45299.711
44959.645
44489.285
44127.609
43642.973
43173.952
42677.397
42028.412
41665.812
41106.504
40591.354
40348.442
39016.263
37989.462
37496.357
36874.785
36027.412
35508.658
34840.618
34150.409
33429.366
32733.445
31966.3
31229.592
30461.358
29690.256
28917.591
28140.732
27368.73
26595.078
25852.828
25093.858
24376.894
23660.812
22987.732
22312.446
21691.446
21065.895
20463.055
19959.005
19289.099
18814.185
18264.409
17802.695
17307.875
16856.755
16212.269
16059.591
15867.633
15470.247
14915.045
14444.682
14037.932
13470.574
12944.494
12587.199
11695.575
11633.055
10479.841
10507.219
9300.951
9413.859
8200.4843
8045.6479
6679.4911
6054.3869
5463.4942
4395.3036
3765.977
-6433.1219
-1591.3247
-7221.0481
-1806.7202
-3670.3703
-2998.3741
-2867.7316
-2476.5042
-4547.1688
-2475.8671
-4277.2255
-3506.5544
-3996.1994
-3503.8888
-4215.9834
-3284.7919
-4088.5505
-3150.0392
-3756.0141
-2993.9619
-3263.7304
-2550.445
-2977.3688
-2566.2958
-2433.9891
-2249.1184
-2011.6654
-1821.4318
-1560.1125
-1417.0332
-1202.3119
-1035.492
-894.77056
-599.54608
-427.19843
-373.40277
164.74057
235.26245
434.99488
373.06316
701.4944
1075.8433
1095.975
1322.2338
1520.7996
1662.5499
1878.5182
2079.0637
2268.0082
2451.9387
2627.6607
2800.5141
2950.5959
3088.5478
3241.9273
3349.5316
3476.7815
3593.361
3686.1038
3798.8266
3890.1897
3995.0961
4071.9603
4202.3166
4315.1291
4358.5194
4551.5248
4636.9743
4733.9537
4870.9299
4935.9724
5082.1116
5025.8131
5162.2948
5213.2011
5414.7176
5389.8978
5564.8032
5580.5335
5645.3532
5715.0353
5644.816
5736.3826
5650.9349
5532.3022
5722.3336
5171.2898
5743.6256
4761.9527
5614.0036
4948.9853
5774.2418
5555.275
5095.0809
5440.1989
-50672.188
-49952.268
-44408.366
-42240.154
-44309.654
-46781.052
-46101.81
-49408.001
-49535.904
-50820.86
-51268.831
-51972.278
-52024.774
-52022.731
-52334.064
-51603.296
-52108.817
-50967.43
-51568.429
-50368.479
-50759.982
-49983.482
-49792.519
-48489.311
-48220.927
-47158.601
-46661.816
-45674.775
-44997.128
-44086.187
-43230.579
-42377.246
-41399.885
-40466.398
-39628.284
-38438.692
-37644.64
-36483.019
-35493.563
-34326.746
-33265.437
-32127.652
-31123.454
-29918.737
-28784.182
-27705.363
-26608.98
-25514.613
-24475.971
-23443.278
-22422.24
-21438.473
-20495.027
-19552.307
-18648.689
-17795.004
-16920.742
-16105.722
-15304.814
-14508.222
-13739.01
-12993.855
-12233.426
-11499.206
-10832.666
-10086.625
-9410.6216
-8721.0544
-8066.5832
-7354.2317
-6790.331
-6026.6801
-5414.2816
-4732.1184
-4434.6806
-3945.852
-3316.4167
-2848.4381
-2422.7267
-2023.8311
-1573.0127
-1289.9007
-825.88163
-518.7631
-220.55901
444.41429
358.59554
1632.3445
1156.5552
2763.9026
2222.3023
3214.1505
3253.9654
4797.6671
6510.4836
-102767.82
-99924.846
-85268.33
-88229.41
-91002.987
-92955.85
-96200.687
-97403.905
-101251.78
-101370.96
-103183.85
-103895.92
-104315.16
-104218.2
-104733.8
-103742.58
-103967.77
-102811.03
-102567.2
-101246.48
-100888.12
-98097.301
-96653.194
-95186.674
-94251.148
-92927.454
-91662.079
-90197.394
-88817.029
-87306.043
-85882.033
-84301.06
-82785.544
-81223.852
-79446.959
-77946.208
-76090.512
-74448.221
-72603.918
-70920.209
-69090.163
-67249.664
-65400.861
-63575.463
-61671.977
-59838.886
-57930.561
-56042.685
-54187.484
-52327.345
-50480.532
-48682.673
-46891.459
-45130.143
-43410.854
-41718.836
-40048.029
-38429.466
-36841.78
-35266.685
-33766.01
-32263.458
-30814.688
-29402.699
-28016.863
-26676.626
-25364.031
-24127.906
-22873.762
-21715.963
-20512.751
-19300.697
-18316.705
-16354.253
-14365.208
-13410.986
-12090.052
-11331.641
-10273.272
-9614.3349
-8413.2657
-8067.4892
-6684.3267
-6356.2824
-5198.7162
-4364.8098
-3828.9659
-2087.8951
-2266.7786
205.12435
24.357089
1864.8707
3148.0629
5135.3199
7135.8031
-153178.24
-123037.18
-116082.81
-120291.65
-124379.21
-128680.68
-131678.51
-135697.27
-138943.36
-140125.8
-141928.21
-143163.2
-143292.16
-143333.02
-143624.12
-142256.59
-142769.3
-140725.86
-140806.21
-139436
-139768.02
-140672.37
-140499.48
-139173.85
-138362.32
-136145.23
-134735.9
-132468.28
-130605.96
-128449.18
-126351.39
-124165.73
-122087.48
-119653.09
-117447.27
-114947.56
-112644.51
-110114.15
-107667.26
-105121.76
-102581.65
-99962.912
-97395.792
-94738.993
-92098.902
-89463.217
-86841.452
-84214.354
-81629.552
-79049.132
-76504.213
-73993.235
-71515.696
-69082.45
-66684.068
-64335.415
-62021.657
-59759.651
-57525.81
-55340.962
-53188.928
-51069.844
-49003.314
-46943.281
-44980.542
-43003.623
-41056.804
-39122.229
-37292.027
-35402.025
-33594.222
-31986.167
-30126.191
-28151.31
-26026.705
-24956.223
-22706.971
-21024.311
-19522.504
-18122.425
-16833.565
-15343.834
-14139.385
-12713.083
-11361.205
-10147.651
-8534.7403
-7431.2547
-5704.4309
-4206.2993
-2696.2285
-390.56044
1638.521
4388.5488
9250.467
-179023.52
-173671.61
-161654.8
-162300.68
-168569.36
-171899.12
-178521.69
-181997.19
-185023.23
-187892.97
-189458.84
-190117.82
-190916.87
-190437.94
-190426.72
-189552.39
-188721.34
-187146.64
-186620.11
-184347.65
-184109.89
-181645.31
-183960.61
-183294.39
-181446.25
-179542.63
-177377.27
-174717.42
-172360.99
-169541.44
-167036.49
-164141.33
-161497.2
-158588.67
-155681.77
-152842.25
-149721.72
-146708.72
-143527.79
-140405.73
-137113
-133913.91
-130598.82
-127327.67
-123995.96
-120676.03
-117352.95
-114010.66
-110698.05
-107407.35
-104118.65
-100877.26
-97663.324
-94479.963
-91334.366
-88237.958
-85175.04
-82154.278
-79187.647
-76262.789
-73380.355
-70564.111
-67770.434
-65033.709
-62391.271
-59762.771
-57258.056
-54812.951
-52397.557
-50017.775
-47840.007
-45459.774
-43314.198
-41226.366
-38912.789
-37701.748
-35549.557
-33319.091
-31257.652
-29288.189
-27189.936
-25209.844
-23144.793
-21129.82
-18982.699
-17100.322
-14645.427
-12951.218
-10452.9
-8295.0025
-6344.6995
-2800.2637
-81.088263
4990.3498
10411.589
-254432.62
-231749.74
-201596.55
-217549.55
-216384.61
-228378.75
-230601.21
-237389.15
-239660.05
-243074.15
-244367.93
-245566.47
-245562.72
-245653.63
-244748.34
-243682.11
-242625.63
-240451.97
-239350.82
-236732.86
-235194.91
-232785.61
-229293.45
-226315.49
-223711.57
-221268.96
-218744.85
-215588.81
-212658.08
-209374.73
-206230.29
-202651.82
-199624.03
-196079.57
-192761.37
-189068.67
-185376.38
-181648.19
-177914.69
-174014.61
-170180.19
-166203.87
-162232.81
-158195.69
-154149.66
-150088.62
-146034.4
-141962.72
-137930.86
-133910.03
-129904.22
-125956.77
-122032.23
-118158.1
-114328.42
-110561.98
-106829.22
-103164.36
-99550.147
-95987.886
-92482.051
-89030.922
-85639.213
-82290.29
-79055.212
-75793.852
-72716.723
-69533.934
-66581.581
-63599.78
-60642.186
-57860.822
-55088.577
-52298.352
-49676.576
-47075.72
-44564.287
-42032.779
-39509.216
-36998.265
-34556.583
-32045.434
-29597.66
-27070.592
-24622.986
-22015.094
-19494.956
-16988.69
-14047.054
-11791.326
-8394.2705
-5508.795
-2138.3415
2625.065
8510.0471
-277151.9
-266132.5
-232740.41
-254134.57
-260048.24
-269072.77
-274099.52
-281540.86
-284355.85
-286654.29
-289976.23
-289380.58
-290339.04
-290313.08
-288365.09
-288169.1
-286462.48
-283694.76
-282717.24
-279459.34
-277175.22
-275043.02
-271729.94
-269955.26
-265902.88
-263395.7
-259807.17
-256376.22
-253594.63
-249625
-246350.55
-242154.96
-238592.04
-234277.39
-230540.34
-226665.41
-222317.52
-218320.1
-213779.06
-209475.19
-204908.6
-200358.94
-195737.24
-191054.09
-186354.18
-181602.5
-176836.61
-172062.53
-167286.78
-162526.17
-157776.76
-153065.28
-148377.34
-143732.26
-139126.35
-134571.35
-130057.03
-125602.81
-121202.16
-116862.01
-112588.21
-108381.78
-104261.5
-100157.54
-96199.033
-92133.59
-88414.472
-84641.135
-81231.046
-77554.022
-74293.105
-70871.685
-67491.818
-64405.6
-61047.31
-57954.334
-54843.425
-51778.458
-48689.136
-45736.757
-42721.641
-39700.686
-36703.799
-33683.396
-30542.706
-27533.035
-24330.25
-21159.704
-17867.409
-14946.118
-10855.123
-8432.8368
-3943.4965
755.88727
7986.6132
-389030.07
-261005.18
-284472.3
-292235.42
-303693.75
-306009.05
-317174.2
-322059.83
-324363.13
-328442.45
-329240.28
-330960.28
-330148.7
-329998.11
-328390.96
-327318.06
-325912.39
-323387.99
-321267.21
-318487.35
-315525.05
-312916.97
-310342.66
-307013.36
-304303.92
-300065.57
-296760.86
-292445.84
-289635.86
-285689.38
-281889.67
-277554.91
-273334.16
-268455.83
-263561.69
-259629.89
-255184.48
-250332.2
-245405.23
-240412.56
-235242.38
-230037.69
-224699.32
-219308.86
-213863.15
-208366.47
-202857.09
-197336.63
-191803.27
-186305.3
-180805.56
-175359.91
-169941.75
-164575.03
-159263.59
-154009.56
-148814.32
-143695.73
-138642.53
-133669.58
-128780.73
-123996.48
-119276.69
-114664.66
-110079.48
-105477.98
-101001.42
-96685.977
-93000.686
-88943.163
-85116.926
-81010.802
-77398.213
-73565.955
-69927.636
-66314.044
-62937.314
-59328.996
-55954.781
-52481.696
-49051.339
-45571.462
-42199.704
-38606.59
-35166.371
-31644.295
-27960.548
-24464.393
-20896.194
-17386.944
-13711.339
-11322.696
-7096.2007
-3435.9352
3551.777
709605.86
701426.65
677069.44
696189.58
699702.49
705138.27
729667.54
713882.85
709071.46
707636.9
703251.56
681848.02
672476.87
718650.6
598137.81
652863.79
677287.96
637370.4
661301.1
661211.9
676457.31
657207.55
681206.44
675092.06
679719.4
667359.1
664116.28
665720.06
676297.18
571183.18
487834.67
568631.85
498865.02
523029.24
522106.64
516244.7
524435.07
518562.27
523726.98
516959.53
516174.47
521881.33
489091.07
542984.56
489334.87
430682.56
442340.45
439891.57
434013.03
448342.49
443259.25
450768.75
451132.43
446979.67
449262.18
450475.45
436519.14
435618.35
474117.33
326648.11
305639.49
351562.63
305145.27
333445.98
320803.4
333689.49
328519.16
329478.35
330485.08
331514
326512.82
327244.99
324365.61
334358.79
294867.21
223928.6
237886.69
221106.88
230218.48
229730.84
231879.05
230775.48
231793.62
233002.74
233032.82
226085.07
236350.03
221610.86
237900.13
224363.25
117182.36
120058.93
122669.68
116631.04
123986.21
123442.81
124254.61
123330.34
122703.32
123243.55
122860.84
115516.6
125966.95
117095.16
120867.22
13667.098
13688.817
7255.8459
15119.21
11920.377
13800.69
13542.43
13907.215
12533.802
18729.789
5523.5589
18713.608
23422.996
649.36777
54739.014
-85988.045
-95534.962
-82708.037
-90113.366
-86784.511
-87679.491
-87122.384
-86925.009
-88414.568
-81178.843
-91609.593
-79452.908
-78562.122
-101065.35
-16554.14
-171616.07
-206901.79
-184622.04
-189812.97
-189724.53
-191810.31
-193202.28
-192382.29
-196926.19
-186312.25
-208904.56
-181159.85
-181287.77
-216819.36
-125745.61
-283711.96
-329939.61
-281733.8
-310276.97
-295497.7
-302629.35
-299539
-300426.26
-302379.44
-289576.84
-296007.99
-293654.38
-273462.34
-305505.45
-202156.51
-404874.56
-385483.11
-385031.22
-375714.01
-391310.04
-391110.86
-394135.05
-397395.6
-398672.52
-392923
-411812.51
-358988.09
-381447.8
-415156.44
-308588.43
-470485.27
-508153.66
-452918.7
-470070.78
-450855.54
-464461.43
-459872.45
-460391.19
-456206.38
-450643.52
-456472.35
-464198.39
-420340.93
-507479.37
-274854.58
-565521.46
-665874.14
-576347.4
-622639.77
-638998.98
-632267.98
-637727.28
-666668.05
-650835
-670970.65
-629835.64
-613951.53
-632019.82
-611739.61
-579270.84
-633548.89
-548870.86
-504315.61
-505476.32
-525992.85
-566562.89
-539376.51
-518589.78
-501837.4
-495773.99
-508581.8
-512195.74
-509084.34
-570829.05
-514767.3
-525540.68
-494358.45
-582716.19
-612069.58
-638270.13
-691814.09
-668134.64
-626970.99
-710702
-695875
-672213.64
-633993.4
-606415.68
-579444.99
-481844.42
-391448.47
-392948.31
-438907.43
-452937.13
-470447.55
-487700.42
-501488.76
-514314.56
-530466.28
-504899.16
-494617.98
-463551.93
-466357.37
-462888.76
-466809.46
-321900.3
-366277.85
-357776.86
-392656.64
-415610.17
-402332.72
-422272.74
-418365.04
-404815.89
-423617.25
-406500.19
-413389.84
-400978.42
-354084.51
-371885.83
-337182.64
-383370.36
-385708.11
-395608
-404611.93
-414142.54
-416504.2
-420121.36
-419639.74
-410001.91
-410006.55
-399478.75
-384063.68
-378337.92
-356664.13
-360290.73
-390235.35
-380110.6
-407885.55
-410860.69
-418989.59
-427850.24
-426269.79
-428986.18
-429138.54
-417399.37
-409681.32
-391786.82
-376411.58
-371516.84
-353478.97
-369566.63
-378032.29
-392603.04
-397491.08
-407993.03
-406797.9
-408784.48
-408613.43
-401917.06
-400311.78
-391462.71
-381371.36
-372094.05
-352626.21
-356235.23
-380398.88
-380873.4
-394949.32
-396299.22
-404371.47
-407096.71
-408232.01
-407854.66
-404273.34
-396082.86
-391823.28
-381577.84
-366700.25
-369321.97
-361725.54
-368487.29
-377575.56
-383571.97
-393971.65
-395800.47
-399297.53
-400797.93
-398627.4
-396992.47
-392099.9
-386084.13
-378326.87
-367492.68
-358933.43
-358724.68
-373176.56
-376080.93
-385960.84
-385657.08
-393796.51
-391760.31
-394699.53
-393031.46
-389414.6
-386124.73
-380054.06
-375370.58
-367529.85
-363563.54
-362414.72
-366128.47
-372659.33
-375129.56
-381045.74
-382420.68
-385519.1
-385222.87
-384557.6
-384321.92
-379074.67
-377072.78
-371441.94
-365120.85
-362216.91
-359464.21
-368506.05
-370263.74
-377008.57
-378362.83
-383496.87
-382508.73
-385533.96
-384083.35
-382314.33
-381203.59
-377861.3
-373077.35
-369723.87
-365944.41
-361274.01
-363201.38
-368576.08
-369439.82
-372748.85
-373145.35
-375499.66
-375853.76
-376032.55
-375006.33
-373334.97
-370631.12
-368732.71
-364394.88
-363842.31
-361213.94
-363238.78
-364168.6
-369462.18
-370046.07
-373943.28
-373677.89
-375540.61
-375109.05
-374686.68
-372413.56
-371795.08
-367808.72
-366720.87
-363519.14
-357954.68
-361016.1
-364286.73
-364144.17
-367218.11
-367206.02
-367620.22
-369706.36
-369069.43
-367959.47
-367588.98
-366477.69
-364509.34
-362066.65
-362733.53
-358143.03
-358669.11
-361227.49
-363263.9
-364654.73
-365485.9
-366486.34
-366354.65
-367704.05
-367562.76
-366475.85
-365638.44
-363206.95
-363188.46
-361710.73
-354861.15
-357273.75
-359577.81
-360103.36
-360994.71
-361545.05
-364100.57
-361858.74
-362170.49
-361818.7
-360804.12
-360623.89
-357171.73
-357453.56
-356745.24
-353833.28
-354359.47
-356768.63
-356523.86
-359246.88
-360099.06
-360002.65
-360692.36
-361015.86
-360969.07
-360268
-360775.08
-359955
-356952.61
-359694.04
-352618.58
-352441.96
-354795.94
-353763.98
-355737.94
-355924.45
-357712.85
-356275.98
-356801.16
-356539.4
-355485.02
-355199.52
-354064.08
-352988.58
-352640.59
-348684.41
-349838.44
-352055.42
-352860.7
-353273.8
-353460.69
-352724.62
-355020.49
-354160.65
-354632.27
-353711
-354225.87
-352712.32
-353285.49
-353355.29
-346448.18
-347263.25
-348883.32
-348840.08
-350022.18
-350984.58
-351294.54
-350275.03
-351834.19
-350544.31
-349284.4
-351186.88
-348482.19
-349720.21
-348016.26
-344713.41
-344187.22
-346439.45
-345890.19
-347398.21
-346473.01
-348351.52
-348499.96
-347952.96
-348400.25
-347403.68
-348248.27
-346206.52
-347071.4
-346866.72
-339410.02
-342013.8
-342503.04
-343238.85
-343637.58
-344037.98
-344796.59
-344353
-345472.08
-344211.47
-344331.16
-345422.58
-343855.06
-341857.17
-344252.7
-338370.18
-337834.15
-339543.01
-339857.49
-340906.77
-340376.64
-341578.55
-341649.7
-340939.35
-342481.11
-340964.3
-341104.7
-339611.45
-340906.78
-340487.34
-334233.79
-334042.93
-336204.78
-336590.15
-337110.2
-337826.7
-337938.87
-337421.78
-338344.85
-338007.47
-337429.18
-338620.71
-336783.93
-336633.46
-336518.59
-330473.75
-331480.44
-331787.81
-333101.01
-333473.3
-333418.2
-334793.81
-334374.81
-334481.11
-334895.23
-332702.62
-334717.33
-333613.24
-332947.09
-333511.74
-328547.52
-326585.88
-329037.65
-328174.65
-330232.14
-329707.18
-330950.16
-330324.29
-331060.27
-330987.85
-331278.43
-330278.78
-328911.83
-330752.77
-328515.5
-322891.35
-323785.56
-324075.14
-325808.21
-324752.11
-327088.08
-326504.02
-327394.69
-326954.35
-327156.6
-326601.55
-327951.2
-325074.02
-325509.96
-326947.65
-320792.08
-318845.23
-320058.92
-321208.91
-322541.75
-322548.63
-322842.75
-322858.85
-323508.56
-323200
-323011.9
-323286.12
-321726.32
-323393.88
-320878.23
-314588.31
-316536.72
-316892.26
-317152.49
-317904.61
-318696.47
-318846.8
-319466.35
-319180.63
-319641.58
-318641.84
-319244.71
-318243.26
-317210.55
-319306.47
-312879.17
-310616.61
-312937.49
-313151.18
-314507.08
-313999.32
-314860.09
-315129.27
-315543.63
-314789.76
-314717.19
-315023.72
-313497.79
-314477.58
-314053.59
-307997.59
-307176.84
-308445.14
-309219.73
-309636.64
-310894.15
-310547.61
-310699.75
-310377.56
-311427.23
-310488.47
-311097.49
-309513.87
-309571.72
-309775.35
-304123.84
-302324.34
-304267.25
-304810.92
-305454.7
-306400.2
-306315.86
-306748.21
-306369.19
-306844.9
-306105.69
-306745.26
-305309.52
-305532.97
-305479.62
-299422
-298117.45
-299773.27
-300411.75
-301202.44
-301732.53
-301900.69
-302141.42
-302171.01
-302408.2
-301770.96
-302259.23
-300897.12
-300972.63
-300890.87
-294793.22
-293559.19
-295170.59
-295855.82
-296480.37
-297126.07
-297409.3
-297649.69
-297614.95
-297813.42
-297223.93
-297622.95
-296457.44
-296514.95
-296381.61
-289695.31
-288960.35
-290650.56
-290842.32
-291729.94
-292725.8
-292459.77
-293260.93
-292779.44
-293613.37
-292306.13
-293350.86
-291325.04
-292272.8
-290637.68
-283806
-284926.66
-285024.13
-287478.44
-286515.37
-287776.45
-287762.95
-288089
-288108.23
-288329.49
-287678.08
-287885.34
-287256.68
-286368.31
-287962.1
-280843.75
-278750.63
-280932.96
-281109.9
-282577.47
-282249.29
-283249.52
-282870.73
-283428.97
-282696.98
-282751.01
-283270.18
-281789.78
-282078.43
-281667.16
-274927.52
-274285.84
-275477.33
-276584.58
-276582.12
-277707.75
-277493.54
-278146.75
-277935.85
-278063.02
-277515.78
-277894.22
-276946.9
-276482.94
-276675.09
-270262.86
-268552.18
-270467.39
-270887.31
-271728.09
-272101.29
-272511.62
-272660.19
-272658.29
-272856.58
-272202.99
-272814.95
-271391.96
-271408.85
-271264.79
-264434.96
-263399.54
-264946.11
-265633.41
-266092.47
-266800.69
-266975.18
-267175.25
-267288.34
-267330.52
-266791.97
-267087.55
-266081.01
-265920.06
-265885.71
-259137.74
-257692.77
-259486.56
-259868.03
-260600.28
-261025.37
-261357.81
-261536.22
-261603.32
-261756.35
-261115.55
-261577.88
-260448.77
-260358.23
-260247.53
-253353.48
-252130.55
-253725.19
-254225.68
-254818.21
-255334.45
-255663.15
-255738.71
-255923.05
-255928.89
-255446.82
-255795.45
-254752.41
-254654.67
-254582.47
-247690.56
-246255.52
-247979.88
-248292.7
-248963.57
-249442.79
-249732.83
-249855.99
-249984.59
-250057.63
-249536.66
-249900.91
-248877.38