/*--------------------------------*- C++ -*----------------------------------*\
  =========                 |
  \\      /  F ield         | OpenFOAM: The Open Source CFD Toolbox
   \\    /   O peration     | Website:  https://openfoam.org
    \\  /    A nd           | Version:  6
     \\/     M anipulation  |
\*---------------------------------------------------------------------------*/
FoamFile
{
    version     2.0;
    format      ascii;
    class       pointVectorField;
    location    "0.17";
    object      lm;
}
// * * * * * * * * * * * * * * * * * * * * * * * * * * * * * * * * * * * * * //

dimensions      [1 -2 -1 0 0 0 0];

internalField   nonuniform List<vector> 
3969
(
(-4.0340813e-15 -4.7705825e-17 1.3312818e-16)
(9.2297575e-16 -2.6090405e-16 -6.0252577e-16)
(7049.4295 -826.92538 32.180451)
(6675.2239 -2509.7477 55.669889)
(-7.1783695e-15 2.6020842e-15 -1.0366567e-15)
(-4.622429e-15 2.1493156e-15 -1.5432914e-15)
(6726.8035 -2605.7285 21.981795)
(7123.7173 -829.50743 67.520231)
(-6.09887e-15 1.0869625e-16 -2.0095736e-16)
(-3.193382e-15 6.5333688e-16 6.3735029e-17)
(-2.9260211e-15 2.9260844e-16 -4.8432863e-17)
(-1.7497804e-15 -1.5755452e-16 -2.074758e-16)
(-4.3254872e-15 8.6218995e-16 7.3228779e-16)
(-2.4697388e-15 -4.9707839e-16 4.8086129e-16)
(5.2680668e-16 -4.7467027e-16 -5.3018058e-16)
(6902.1837 -1015.3627 34.15958)
(6775.3463 -1202.9295 37.465953)
(6749.8638 -1409.7638 42.41894)
(6805.6472 -1643.1537 47.857631)
(6877.6107 -1889.4083 52.398457)
(6890.985 -2127.8891 54.962503)
(6807.2786 -2336.1153 54.767984)
(32.80416 31.910777 27.134174)
(62.469511 51.045578 25.149185)
(96.93153 64.468798 18.972307)
(131.09366 71.17363 10.825807)
(158.44984 73.627514 6.3502898)
(176.22434 72.12683 5.6440481)
(179.85866 70.227226 13.505205)
(171.52255 70.341008 25.746191)
(151.99439 76.057956 45.666589)
(128.03131 89.543955 65.856051)
(105.66887 112.72908 86.791916)
(93.288624 145.28416 102.84634)
(97.138711 187.0567 113.28372)
(121.72869 234.72301 116.61906)
(169.77902 286.15028 113.82555)
(239.20561 336.86958 106.46917)
(327.84864 384.91448 98.211097)
(431.97312 427.65526 90.869351)
(548.56131 463.61159 86.342229)
(675.3933 492.03588 84.911891)
(812.39019 512.93968 85.699819)
(960.87853 526.72056 86.596976)
(1123.1741 533.934 85.272164)
(1301.424 535.01022 79.989587)
(1496.5027 530.5946 69.986656)
(1708.0045 520.90334 56.042515)
(1933.3232 505.42499 40.267004)
(2168.5922 484.53025 25.56595)
(2409.236 457.69658 15.029958)
(2651.366 425.1817 10.721618)
(2892.735 387.11666 13.362724)
(3133.0122 343.76906 22.003554)
(3373.936 295.52216 33.866423)
(3618.9135 242.33798 45.618567)
(3871.3357 184.33681 52.911349)
(4134.6516 120.34541 52.992017)
(4409.2701 51.463279 43.88258)
(4693.1622 -24.815634 25.988329)
(4982.393 -106.75933 1.8926801)
(5269.0627 -194.90514 -23.895108)
(5545.9328 -286.60129 -46.598558)
(5803.7805 -379.73038 -61.265674)
(6041.0138 -471.52459 -64.195947)
(6251.8571 -556.95279 -56.448615)
(6446.3511 -636.98874 -34.708398)
(6623.0491 -700.91641 -12.681168)
(6802.3065 -765.0289 15.583286)
(29.173354 -47.263361 -56.156687)
(62.415802 -72.342242 -55.234158)
(99.469145 -90.97167 -53.888536)
(138.3144 -105.32264 -40.346373)
(170.98771 -114.97678 -28.582009)
(191.52611 -121.15235 -16.648527)
(196.77155 -124.47072 -9.9222977)
(185.86625 -130.49144 -10.125425)
(159.292 -139.37148 -16.431292)
(123.53916 -157.30285 -30.810401)
(83.175668 -183.1508 -49.37331)
(49.418534 -221.99624 -71.154125)
(26.988056 -271.30306 -93.561406)
(24.250723 -329.8669 -113.15501)
(43.476465 -395.216 -127.73482)
(87.516316 -464.93547 -135.23005)
(154.61562 -537.07662 -135.25874)
(241.66843 -609.72742 -128.60332)
(344.31512 -682.80168 -117.1594)
(458.10973 -755.82642 -103.8139)
(579.77506 -830.39438 -91.258909)
(708.63602 -906.0992 -81.965384)
(844.97244 -985.11002 -76.460825)
(991.22252 -1065.6956 -76.475666)
(1149.9767 -1148.2755 -79.653026)
(1324.3889 -1231.1969 -83.530759)
(1514.2932 -1313.2695 -85.049555)
(1721.5129 -1395.0199 -82.498508)
(1942.0515 -1474.5748 -75.3361)
(2172.0087 -1552.5143 -63.65774)
(2407.3738 -1629.0672 -49.422323)
(2644.3405 -1704.8897 -34.908714)
(2881.7075 -1780.733 -22.466573)
(3120.0917 -1856.9398 -13.521184)
(3362.8401 -1933.4391 -8.2945167)
(3613.68 -2009.651 -5.2373142)
(3876.7833 -2083.5961 -2.1199833)
(4153.8575 -2153.7081 4.8273789)
(4443.6843 -2216.8211 15.243867)
(4740.911 -2271.5722 30.30965)
(5038.0625 -2315.7933 48.447925)
(5326.419 -2349.7767 66.351714)
(5597.417 -2374.9885 81.08124)
(5845.9294 -2394.5225 88.769695)
(6070.6208 -2412.893 88.839299)
(6274.7522 -2435.0596 80.970224)
(6474.8475 -2466.4823 67.599904)
(-3.9179893e-16 -2.8384427e-17 -1.6191597e-16)
(6.8869455e-16 3.3255846e-16 -2.9305012e-16)
(-3.0379221e-16 -4.0639439e-16 3.7376104e-16)
(8.6048107e-16 -8.7588792e-17 1.0515471e-16)
(5.0258192e-16 -7.4376592e-16 6.4035694e-16)
(-2.9679417e-15 -3.4669267e-16 7.3060073e-16)
(8.9003905e-16 -2.834795e-16 1.0120244e-16)
(34.396988 -28.98005 39.31703)
(52.647853 -68.038915 44.958131)
(86.645394 -74.960925 36.307596)
(125.90877 -93.035152 23.246834)
(164.84817 -95.220781 10.23992)
(185.25689 -97.925275 -0.22608062)
(196.98273 -101.27441 2.1626256)
(181.62085 -92.910635 11.335763)
(156.1341 -104.26541 32.983339)
(114.43434 -102.17596 58.32278)
(74.753521 -124.07306 85.321348)
(35.186856 -150.43387 109.95923)
(13.521574 -193.97079 130.51719)
(16.876931 -245.48139 136.25612)
(49.122447 -308.38941 131.51077)
(108.63085 -378.30911 117.36704)
(191.58841 -451.35013 98.047997)
(291.30518 -525.97516 78.843368)
(400.70078 -599.29049 64.202326)
(514.4885 -670.97342 57.064374)
(630.17799 -741.19044 58.026404)
(748.84557 -811.56234 65.087865)
(874.67832 -883.70978 74.440107)
(1012.8214 -959.56631 81.646463)
(1169.3107 -1040.7185 82.494704)
(1349.4182 -1127.6563 73.847674)
(1550.0562 -1218.2121 57.994222)
(1769.026 -1310.0836 37.276594)
(2000.762 -1401.636 16.665266)
(2238.7156 -1490.1636 -0.28870292)
(2477.1199 -1574.6932 -10.026076)
(2712.1797 -1655.0207 -10.943231)
(2943.3184 -1731.8831 -4.2049608)
(3173.4593 -1806.8401 7.0554533)
(3407.5345 -1881.7217 18.012965)
(3653.2906 -1957.9644 24.092954)
(3909.7805 -2034.4032 20.424545)
(4186.7948 -2108.1533 9.4987302)
(4475.4572 -2183.111 -13.47211)
(4774.3671 -2250.4447 -39.160742)
(5071.6536 -2310.5094 -64.632099)
(5359.8002 -2361.0185 -83.435966)
(5629.0184 -2402.6126 -90.488311)
(5875.0785 -2437.1713 -83.938005)
(6097.8172 -2468.8311 -64.591646)
(6302.4034 -2501.8842 -36.649561)
(6491.3098 -2538.9868 -6.8895549)
(6867.1174 -2429.3317 38.363674)
(6936.8749 -2212.3262 46.478917)
(6914.0825 -1957.7235 49.687208)
(6827.1157 -1690.9472 46.392975)
(6790.8653 -1446.7852 43.578304)
(6836.6384 -1225.9626 46.600077)
(6989.3828 -1032.0504 53.539087)
(6876.4978 -770.60965 73.675386)
(6683.2292 -705.0307 82.037423)
(6481.8189 -630.86666 81.71817)
(6272.5771 -540.99761 78.896264)
(6046.8477 -439.74165 70.427777)
(5803.0417 -334.05288 58.934373)
(5543.2531 -230.33445 47.711891)
(5272.1183 -134.34302 39.198448)
(4994.7509 -50.442247 34.813372)
(4718.328 21.785685 34.302331)
(4444.1224 83.321317 36.751025)
(4180.6437 140.82975 39.964264)
(3920.8344 189.15222 40.63776)
(3666.1362 243.27909 36.967958)
(3413.9356 299.44973 27.620225)
(3161.8503 358.76255 13.022931)
(2909.3037 418.6736 -4.7546898)
(2657.2078 475.07397 -22.772623)
(2408.8074 523.9784 -38.230311)
(2167.6372 561.03101 -48.290298)
(1938.2245 585.50805 -52.245934)
(1723.7094 596.61202 -50.351454)
(1525.3956 597.18443 -44.390892)
(1342.7198 589.88535 -37.909739)
(1173.7152 578.35693 -33.75356)
(1015.2457 565.22735 -34.735497)
(864.57492 551.64413 -42.095116)
(720.42055 536.79437 -55.158753)
(583.42745 518.71407 -71.946167)
(456.68932 494.44823 -88.769644)
(344.19419 461.86799 -101.75548)
(251.74541 418.84629 -108.82511)
(182.39097 366.24962 -106.03274)
(138.23425 310.93141 -96.185428)
(121.18019 252.13431 -78.023311)
(123.10675 197.21522 -54.830492)
(140.23964 148.32662 -33.284463)
(162.4592 111.69272 -14.472675)
(184.57879 92.194998 -4.0779555)
(198.0291 78.541104 2.3923224)
(198.57971 75.222801 -1.0400315)
(189.18598 77.798137 -7.9479074)
(164.55038 82.060121 -20.646871)
(132.97809 82.219903 -30.351149)
(99.244159 75.48818 -36.779675)
(64.669589 60.364707 -39.365824)
(48.072672 40.108435 -29.387832)
(-6.7652979e-16 3.5118239e-16 1.2802193e-16)
(-2.3129286e-15 2.7505878e-16 1.3239036e-16)
(-3.6393531e-15 -1.4253491e-16 -1.5464221e-16)
(-4.9195801e-15 -9.3657526e-16 4.6870719e-16)
(-4.0844143e-15 -8.2232132e-16 1.723462e-16)
(-2.0271537e-15 -1.8079967e-16 2.6438577e-16)
(-2.0670014e-15 8.6459225e-16 1.4474963e-15)
(-4.5036838e-15 1.2268482e-15 -2.065022e-16)
(-1.9919023e-15 1.1694967e-15 -1.6367101e-16)
(-2.9438013e-15 1.1112212e-15 -1.969436e-16)
(-2.4504202e-15 9.597151e-16 -1.1789697e-16)
(-5.2893259e-15 2.5926013e-15 -8.0820905e-16)
(-1.8775489e-15 1.1365606e-15 -5.8525306e-16)
(-7.4714327e-17 -2.094137e-16 9.7564992e-17)
(6674.7196 -2504.4907 55.8549)
(6672.3286 -2503.7571 50.794131)
(6673.6816 -2508.0849 41.917416)
(6679.6835 -2517.2874 32.885646)
(6689.5485 -2531.732 25.427102)
(6703.2036 -2549.9263 22.283795)
(6716.1987 -2574.6675 19.445332)
(7041.6253 -841.40508 29.531497)
(7037.5443 -848.37594 30.157011)
(7043.1411 -846.96792 35.019267)
(7056.3759 -842.13724 43.206866)
(7074.586 -836.1565 53.760068)
(7095.2934 -832.03693 61.009483)
(7111.2085 -831.26212 68.280472)
(21.731142 15.613327 21.228303)
(52.993327 27.803595 14.813145)
(87.71031 37.773809 10.052581)
(122.85279 44.969553 4.0575172)
(151.86863 49.226512 0.38754657)
(172.23125 54.25809 1.2945655)
(177.99134 58.321081 7.3917203)
(171.46798 66.500667 19.131193)
(152.19115 77.394818 34.081306)
(126.35666 93.799925 51.661133)
(100.09065 115.04709 67.744587)
(81.569663 141.24381 80.572869)
(77.448702 171.86553 88.230987)
(93.700083 204.59261 89.984113)
(133.69751 238.48948 86.950646)
(197.39607 271.27771 80.128215)
(282.37177 301.77897 72.641881)
(385.08067 327.841 66.247726)
(502.1334 348.70796 62.657911)
(630.67506 363.56585 62.232402)
(769.84931 372.10343 64.197029)
(920.41391 374.07727 66.595981)
(1084.549 369.71674 67.30679)
(1264.26 359.0916 64.322108)
(1461.1368 342.60316 56.863042)
(1674.4722 320.01317 44.940331)
(1902.2377 292.27511 31.1414)
(2139.9812 259.21409 17.497719)
(2383.2371 220.98183 7.0397548)
(2627.2702 178.18354 2.1505453)
(2869.4338 130.97985 3.6809217)
(3108.9936 79.681854 11.046251)
(3347.446 24.370473 22.064996)
(3588.1876 -35.183053 33.487897)
(3834.9423 -99.212725 41.707443)
(4090.9509 -167.97157 43.953117)
(4357.5722 -240.85293 38.679746)
(4632.9346 -318.81651 25.82025)
(4913.1463 -399.21541 7.6730097)
(5190.998 -481.15687 -11.867755)
(5459.2555 -562.09521 -29.278797)
(5709.7312 -640.70591 -39.925839)
(5938.8773 -714.07535 -42.00505)
(6145.2963 -781.61227 -34.899182)
(6330.7133 -844.58859 -19.701308)
(6502.4462 -899.16951 -2.2311005)
(6686.1565 -957.16837 18.259858)
(15.758681 7.6613715 9.7015714)
(45.935881 11.920661 4.7187099)
(81.300851 19.837438 2.1952896)
(116.70199 24.335859 -2.1754788)
(147.15726 30.346588 -3.1939271)
(166.55168 35.474069 -2.0207304)
(173.02683 41.523689 4.2581633)
(165.67292 48.907223 12.391382)
(145.15354 57.802999 24.704686)
(117.05901 69.376929 36.475795)
(87.656255 82.915532 47.678524)
(64.602008 99.198913 55.851756)
(56.019253 117.62037 60.224326)
(67.843418 137.58976 60.379336)
(103.36369 157.85287 56.90613)
(163.47473 177.38644 51.364669)
(246.04529 194.87923 45.64764)
(347.58179 208.86177 41.069899)
(464.15263 218.10752 38.856556)
(592.66447 221.3869 39.054656)
(731.63808 217.86886 40.912048)
(881.5697 207.34364 43.050809)
(1044.0152 189.70088 43.757684)
(1221.7519 165.54595 41.619623)
(1416.1551 135.35163 35.768565)
(1627.0056 100.59808 27.280615)
(1852.7605 61.66103 17.431678)
(2089.3546 19.571144 7.5128552)
(2331.7534 -24.977953 0.95636143)
(2575.2802 -72.185944 -1.3132469)
(2816.6173 -122.0897 1.4198065)
(3054.5755 -175.20213 8.4553997)
(3290.5026 -232.28935 17.991691)
(3527.5987 -293.90358 27.300134)
(3769.9031 -360.36611 34.037269)
(4020.9638 -431.55219 35.917565)
(4282.2394 -506.58845 32.335028)
(4552.7333 -584.41973 23.222206)
(4828.6148 -662.37326 10.67107)
(5102.8226 -739.00967 -2.6006891)
(5368.5425 -811.89957 -13.829641)
(5617.7661 -879.95755 -20.201766)
(5846.7166 -942.31029 -20.582954)
(6053.8338 -999.22789 -15.328439)
(6242.4906 -1052.82 -3.3838697)
(6415.8483 -1100.7592 7.8896648)
(6600.1037 -1154.5052 24.753255)
(11.888705 1.5371992 2.2765238)
(42.722572 2.8790017 -2.7401188)
(77.600694 4.4826308 -6.6005815)
(114.66251 6.4683861 -9.2470776)
(143.93069 7.9475541 -10.069982)
(163.83129 9.9885793 -7.4202365)
(168.90531 11.752007 -2.8057231)
(159.4552 15.325638 5.569776)
(136.76014 19.127764 14.426676)
(106.36196 24.398954 23.231737)
(74.044277 30.773745 30.581527)
(48.693548 37.744034 34.703906)
(37.4793 45.609151 35.54778)
(46.512582 53.593608 32.720213)
(79.657631 61.508044 28.421154)
(137.25358 67.362318 22.694438)
(217.2278 70.930633 17.553634)
(316.14895 71.06612 13.963082)
(429.98271 66.677797 12.945702)
(555.30916 56.913377 14.29728)
(690.46668 41.184742 17.565214)
(835.39791 19.116494 20.941187)
(992.57191 -9.1839781 22.850075)
(1163.695 -43.669866 22.064498)
(1350.6795 -82.819569 18.539438)
(1554.2498 -126.15613 11.992)
(1772.8452 -172.50067 3.8651741)
(2003.0218 -220.84426 -3.7203595)
(2239.9977 -270.60176 -9.0983375)
(2479.3864 -321.75308 -10.613878)
(2717.857 -374.34558 -7.8055544)
(2954.1783 -429.14971 -1.0363569)
(3189.4615 -486.82275 8.0946959)
(3426.7288 -548.22416 17.657934)
(3670.1904 -613.96106 25.335935)
(3923.2722 -683.76571 29.339983)
(4187.8967 -757.06358 28.690857)
(4463.3668 -832.53848 23.815891)
(4745.8754 -908.07773 15.890655)
(5028.7623 -981.57276 6.8460396)
(5304.5314 -1050.768 -0.91014636)
(5565.5283 -1114.9837 -5.3410072)
(5806.7823 -1172.989 -5.4315245)
(6026.4699 -1226.2315 -0.289329)
(6227.2421 -1275.8278 8.0574377)
(6411.882 -1322.1965 18.818236)
(6601.6938 -1371.654 30.62313)
(12.050405 -4.1138161 -9.6464226)
(45.146292 -6.278721 -16.083441)
(81.62052 -8.4433916 -17.940766)
(118.12622 -11.829435 -18.187653)
(148.43776 -15.824246 -16.159987)
(165.9251 -19.559471 -12.254107)
(168.23931 -24.415382 -5.5149627)
(154.66948 -27.772842 0.62981899)
(128.21004 -31.865662 6.9556005)
(93.756514 -34.3155 11.53223)
(59.053933 -36.940451 13.386666)
(32.244671 -38.632922 12.448525)
(20.394384 -40.604297 8.7415674)
(29.763996 -43.364466 3.1962288)
(62.613219 -46.932621 -2.985584)
(119.44816 -53.290448 -8.6736921)
(197.64382 -62.353334 -12.934227)
(293.8713 -75.483217 -14.716489)
(403.58401 -93.230569 -13.943012)
(524.14827 -116.15677 -10.959731)
(653.63765 -144.58683 -7.0942637)
(792.3308 -178.04084 -3.6019536)
(940.90467 -216.61374 -1.012503)
(1103.2947 -259.00284 -0.51091168)
(1281.0076 -305.17906 -3.1197085)
(1474.6084 -353.68608 -7.6349175)
(1683.0563 -404.17208 -12.930271)
(1903.861 -455.97752 -17.774831)
(2133.1206 -508.73074 -20.539928)
(2366.5977 -562.48021 -19.963045)
(2601.2735 -617.58349 -15.785484)
(2835.8653 -674.7751 -8.3372589)
(3071.1921 -734.50251 1.0132644)
(3310.3915 -797.65299 10.631338)
(3557.4061 -864.26438 18.655363)
(3815.9113 -934.26935 23.679059)
(4088.539 -1006.7443 25.213653)
(4374.5539 -1080.6775 23.685794)
(4670.2667 -1154.1089 19.667259)
(4968.9148 -1225.2225 14.62206)
(5263.0353 -1292.514 11.143637)
(5543.3852 -1355.0347 9.9253072)
(5804.2306 -1412.4593 12.173709)
(6042.5008 -1465.1426 17.165241)
(6260.6777 -1514.8664 23.520019)
(6460.0107 -1561.6816 31.614058)
(6657.9414 -1608.5543 38.056188)
(10.523641 -10.507829 -18.463817)
(47.432886 -16.427957 -23.709901)
(84.560228 -24.720758 -24.8742)
(125.12487 -33.460094 -24.098647)
(155.07811 -42.725509 -21.152102)
(172.76408 -52.331893 -16.104977)
(172.77281 -62.834851 -11.378101)
(156.57347 -72.974551 -7.2411748)
(125.88075 -83.848465 -4.4647479)
(87.682731 -95.092186 -4.4736015)
(49.376883 -107.27749 -7.0710643)
(20.103079 -119.19262 -11.882876)
(7.0095546 -132.52166 -18.515325)
(15.524312 -146.3048 -25.816795)
(47.897145 -162.11491 -32.385766)
(104.01775 -180.24689 -37.294817)
(181.12353 -201.32692 -40.040681)
(275.05523 -226.08211 -40.049008)
(381.75294 -254.90412 -37.71466)
(497.90176 -288.17089 -33.5789)
(621.55787 -325.93204 -28.907912)
(753.39455 -367.60284 -24.135117)
(895.49384 -413.79053 -20.744798)
(1048.7933 -464.45749 -19.604243)
(1216.9 -517.12372 -20.064225)
(1400.5567 -571.95729 -22.643436)
(1599.9837 -627.90879 -25.957028)
(1812.9072 -684.02521 -28.811648)
(2035.9417 -740.38978 -29.841914)
(2265.4371 -796.99786 -28.221339)
(2498.4389 -854.6487 -23.725998)
(2733.1648 -914.18497 -16.647029)
(2970.0792 -976.25135 -8.0493358)
(3211.6533 -1041.6087 0.88408498)
(3461.4979 -1110.3655 8.9550669)
(3723.6895 -1181.9012 15.11895)
(4001.0839 -1255.5655 19.062588)
(4294.2631 -1329.813 21.088002)
(4603.623 -1405.5608 20.720996)
(4917.7843 -1477.2528 21.382941)
(5227.7686 -1544.0363 21.776555)
(5526.2658 -1605.5003 23.692989)
(5804.7363 -1661.4997 26.954109)
(6059.8066 -1712.7862 31.513351)
(6291.2234 -1760.7479 36.075854)
(6501.3013 -1806.5604 42.472946)
(6704.1479 -1850.8975 44.371626)
(14.619985 -16.070396 -30.816689)
(54.410466 -28.797682 -36.173291)
(93.631652 -42.465652 -36.478651)
(133.83891 -56.481975 -31.855289)
(163.91857 -70.532235 -25.100352)
(180.08962 -84.97162 -18.162335)
(178.85893 -100.18605 -12.635943)
(159.91141 -115.18913 -9.6592308)
(127.48471 -131.64583 -10.673678)
(86.982599 -148.54316 -15.202948)
(47.55109 -167.28578 -22.827228)
(16.725496 -188.03778 -33.344739)
(2.5707536 -211.08519 -44.566921)
(9.9507159 -236.62399 -55.103863)
(41.224403 -264.97767 -63.68606)
(95.977189 -296.28726 -69.235938)
(171.17763 -330.87701 -71.220924)
(262.91622 -368.88246 -69.549228)
(366.78016 -410.72051 -65.019383)
(479.66861 -456.13323 -58.684244)
(599.42816 -505.88344 -51.945884)
(728.18401 -558.38569 -45.506934)
(865.28594 -614.38357 -42.337735)
(1013.3857 -674.12771 -39.93324)
(1176.3991 -734.99626 -41.101896)
(1354.6834 -796.88255 -43.932111)
(1548.8495 -858.49609 -46.357431)
(1756.8649 -920.10454 -47.788411)
(1975.8435 -981.11023 -46.918678)
(2202.5479 -1042.6268 -42.899897)
(2433.7162 -1105.0514 -35.817828)
(2667.7078 -1169.2223 -26.277434)
(2904.7109 -1235.6029 -15.825934)
(3146.8046 -1304.7328 -5.5008425)
(3397.6758 -1376.0011 3.1818528)
(3661.2006 -1448.9557 9.6704012)
(3940.7965 -1522.6126 14.228865)
(4236.478 -1595.7263 17.516454)
(4545.5024 -1666.569 21.192108)
(4868.9063 -1736.5074 23.670981)
(5183.5017 -1798.9935 29.253038)
(5486.5188 -1856.3457 35.886864)
(5769.6252 -1907.7931 42.998688)
(6028.1925 -1954.4543 49.532968)
(6262.0663 -1997.2881 53.711741)
(6475.263 -2039.0219 55.826631)
(6679.4738 -2080.6531 51.385961)
(19.130712 -29.225322 -40.591389)
(57.469548 -43.716564 -43.804606)
(97.208739 -57.881705 -42.70662)
(139.32347 -70.983656 -34.931238)
(170.85574 -83.543165 -26.867132)
(190.69448 -97.537563 -18.890361)
(191.4388 -112.75887 -14.157063)
(174.87218 -129.93298 -13.780075)
(142.68461 -151.07356 -18.131543)
(100.78357 -173.98418 -27.057273)
(58.183681 -202.26093 -39.168197)
(23.187178 -233.60975 -53.995983)
(4.174604 -269.11963 -69.046243)
(5.9379961 -306.8396 -82.352741)
(32.592819 -347.58459 -92.179353)
(83.707753 -390.68366 -97.558971)
(157.32422 -436.84019 -98.161991)
(248.84919 -486.46737 -94.620998)
(353.76276 -540.32305 -87.935865)
(467.7168 -598.74712 -79.804518)
(588.79632 -661.53101 -71.671588)
(715.339 -728.5336 -65.067005)
(851.67253 -798.85836 -60.975234)
(996.88362 -870.51206 -59.206507)
(1156.5891 -941.82559 -60.085314)
(1331.7393 -1011.5597 -61.346451)
(1523.5346 -1079.1941 -62.10409)
(1731.3771 -1145.0444 -61.283513)
(1951.9293 -1210.4213 -57.850733)
(2181.3451 -1276.5359 -51.612902)
(2415.6253 -1344.6226 -43.066112)
(2652.0277 -1415.6682 -33.193899)
(2889.7476 -1489.8169 -23.241121)
(3130.2675 -1566.6593 -14.129941)
(3377.2347 -1644.6956 -6.59747)
(3634.7513 -1722.0906 -0.39671602)
(3907.0413 -1797.1417 5.4208682)
(4195.308 -1868.274 12.021852)
(4497.0523 -1933.9846 19.787783)
(4807.6727 -1993.2404 29.166618)
(5117.4181 -2045.5655 39.898075)
(5416.2895 -2092.2655 50.604092)
(5695.8157 -2133.6072 59.605729)
(5950.4771 -2171.7962 65.817502)
(6179.3001 -2207.7522 66.939333)
(6387.3124 -2244.9688 65.119936)
(6580.7501 -2283.7915 58.544456)
(-1.8726199e-15 -1.0357256e-16 4.2324109e-16)
(-4.3693994e-15 5.8098526e-16 1.0825799e-16)
(-1.86708e-15 5.0203615e-16 5.7484399e-16)
(-1.1298519e-15 4.4303811e-16 -1.5186772e-16)
(-1.5283164e-15 1.7502349e-16 4.7144117e-17)
(-3.9278597e-15 -6.147074e-18 -1.0233878e-17)
(-3.270765e-15 8.5080195e-17 2.8271762e-17)
(-1.444637e-15 3.1767481e-17 -1.0328492e-16)
(-1.9600489e-15 -2.0641393e-16 2.5996682e-17)
(-1.0758982e-15 -5.0887233e-16 -1.6282415e-16)
(-1.1902312e-15 -6.3217422e-16 -1.0496995e-16)
(-2.2455722e-15 -1.0363924e-16 3.7607835e-16)
(-1.7254929e-15 1.2766475e-16 7.9907906e-17)
(-6.542485e-16 2.4659353e-16 4.7610311e-16)
(-1.0183069e-15 2.0413811e-16 3.0876606e-16)
(-1.2825224e-16 3.2154578e-16 2.6910031e-16)
(-2.4669526e-15 5.8726168e-16 -3.2350189e-17)
(-1.9694108e-15 5.8752001e-16 2.9593509e-16)
(-1.9972486e-15 5.0741204e-16 1.6376266e-16)
(-5.0142844e-16 5.9082617e-16 -1.5096731e-17)
(2.8672985e-17 2.0007103e-16 -2.079567e-16)
(-3.5598279e-15 1.6770216e-16 6.1584209e-17)
(1.5219227e-15 -3.8112137e-16 -3.4960392e-16)
(-8.8364966e-17 -1.5289127e-16 1.7491834e-16)
(2.7397895e-16 -2.6900304e-16 -2.0413732e-16)
(-5.1236454e-16 -3.7600259e-16 -4.411389e-17)
(-1.3114086e-15 -5.3747975e-16 1.2489795e-16)
(2.0041989e-16 -4.4379834e-16 -1.4360784e-16)
(-1.3448657e-15 3.3966264e-16 -2.7012678e-16)
(-2.2010094e-15 1.2158219e-16 1.1470551e-16)
(-1.2722141e-15 -2.3577892e-16 -7.7366055e-17)
(-2.6936153e-15 2.298542e-17 6.0151854e-16)
(-1.8084585e-15 2.5926424e-16 8.2177642e-17)
(-1.0121806e-15 3.7760621e-16 1.5728837e-17)
(-3.5076342e-15 -1.049112e-16 -1.8966684e-16)
(-1.2388067e-16 -2.746004e-16 -1.3203227e-16)
(-1.1077126e-15 -2.2449831e-16 5.9960705e-17)
(-7.9462407e-16 5.2806017e-17 1.8160622e-16)
(-1.481116e-15 2.6347307e-16 -6.003674e-17)
(5.3541372e-16 1.9494005e-16 5.7756958e-17)
(-2.5861876e-15 -7.0653702e-17 -1.8824779e-16)
(-1.6152529e-15 1.8241927e-16 3.8488004e-16)
(-1.0389662e-15 3.299921e-17 2.9700946e-16)
(-3.8817577e-15 -1.9427146e-16 -1.2145786e-15)
(-1.6161979e-15 2.8442108e-16 -1.856842e-16)
(8.1577518e-16 1.8112067e-17 2.0819295e-16)
(-2.485062e-15 2.8178417e-16 -5.4749215e-16)
(-1.8307085e-15 4.4562511e-16 -1.4619564e-16)
(-1.4586292e-15 4.0358521e-16 -4.0281137e-16)
(44.326355 -19.601341 -29.527695)
(47.20961 -21.797564 -18.435102)
(50.5434 -22.747746 -9.3591213)
(50.821317 -23.000975 -1.7738595)
(49.127173 -21.003796 5.2671363)
(45.976321 -20.901676 12.983845)
(40.471607 -15.97482 21.544864)
(74.739039 -69.098833 -44.897664)
(81.682527 -71.76459 -25.811264)
(83.22559 -66.718287 -12.771673)
(82.643613 -63.312494 -2.6977415)
(80.84418 -64.19453 6.7814616)
(75.114471 -62.328148 18.204574)
(69.470756 -59.725047 31.684404)
(109.26505 -92.183561 -43.554493)
(114.62847 -86.230673 -30.917918)
(118.20782 -85.64923 -16.169511)
(116.95318 -82.235469 -6.0529103)
(115.31452 -79.189176 6.2963365)
(108.21219 -78.627441 14.991223)
(101.51689 -78.660214 31.046077)
(145.35022 -113.99927 -33.526317)
(146.1867 -113.68363 -24.55293)
(148.66589 -108.56479 -14.696475)
(147.71453 -104.95896 -5.9301679)
(145.69484 -102.63797 3.1275539)
(139.6342 -102.9495 11.676896)
(135.8736 -99.754023 18.608733)
(171.31618 -123.93137 -25.090694)
(172.67906 -118.43397 -20.335204)
(175.1334 -114.91021 -13.359998)
(174.20282 -110.73845 -5.9464194)
(173.35548 -108.02468 0.12828354)
(168.67015 -105.91793 3.9612405)
(166.75659 -108.69178 9.7306372)
(188.18025 -126.51286 -13.678136)
(187.8615 -122.08697 -12.210356)
(188.92441 -117.0374 -6.7307538)
(188.45424 -112.67448 -3.0682934)
(186.93395 -107.31509 1.5976714)
(187.10155 -106.9293 2.2115916)
(184.31396 -106.88811 2.1653741)
(193.07361 -126.25211 -7.8168567)
(192.69313 -119.16227 -5.5499986)
(193.41644 -115.6113 -2.0595033)
(192.9432 -108.62154 2.2770552)
(191.67943 -103.22299 6.0798161)
(190.01493 -98.851762 6.2544952)
(190.4749 -103.25227 1.8932401)
(181.09353 -124.40357 -4.738108)
(182.28516 -118.24464 -2.6044212)
(183.76829 -112.43615 2.6806388)
(182.96579 -104.673 7.1285765)
(183.34552 -98.218325 11.083255)
(180.3865 -91.520769 14.17819)
(179.13084 -92.852306 12.554164)
(158.93877 -129.9174 -8.8966504)
(162.40768 -120.77669 -2.3117014)
(163.64068 -112.63796 6.9019341)
(164.04767 -105.45389 15.518893)
(160.972 -97.55227 22.674641)
(160.72357 -89.72008 28.972924)
(154.47415 -90.08057 27.417165)
(127.27407 -139.41912 -17.636023)
(133.93803 -134.06269 -6.4252706)
(137.12813 -127.85095 6.980993)
(138.15393 -116.24444 20.771369)
(135.67749 -104.72185 31.934812)
(130.50477 -95.571348 44.294029)
(123.43044 -91.069693 49.888475)
(94.269189 -165.93873 -32.130868)
(104.29166 -158.49124 -14.762588)
(109.16739 -150.12889 4.5849189)
(110.50408 -137.83737 22.801787)
(106.9246 -125.78826 41.020476)
(99.837559 -115.6706 58.789202)
(88.452975 -107.22138 69.736963)
(66.053255 -202.49741 -48.666943)
(80.277944 -197.09094 -25.668076)
(87.398183 -187.89514 -1.5424919)
(89.25154 -175.89565 23.685349)
(86.348653 -162.74433 47.337486)
(74.664433 -149.61429 71.160598)
(60.395192 -135.40359 91.345026)
(51.871373 -254.34647 -67.071788)
(68.049489 -249.91285 -38.890589)
(77.039036 -240.74856 -9.3486963)
(79.598404 -227.47527 19.63586)
(76.316415 -212.72075 48.535191)
(62.689315 -200.51497 75.425932)
(47.51745 -182.12307 105.90643)
(53.951973 -315.77633 -83.900922)
(71.680741 -313.46607 -51.562001)
(83.262591 -303.98464 -20.061596)
(86.764718 -291.17789 12.125798)
(84.672146 -276.73487 44.365426)
(70.251746 -263.23923 73.747953)
(54.490685 -244.23289 110.08868)
(77.014901 -387.21304 -96.96611)
(96.270318 -385.83719 -62.584608)
(109.64475 -375.90947 -30.31572)
(114.41326 -363.43114 2.9363952)
(113.66448 -347.86329 35.943666)
(99.961811 -334.67655 65.655063)
(85.31065 -315.68714 104.30705)
(122.04187 -463.0407 -104.36354)
(141.53953 -461.9835 -70.375937)
(156.33361 -452.06088 -39.043711)
(162.65834 -439.59407 -7.2364696)
(163.39051 -424.32493 25.133274)
(152.47973 -410.76735 53.035599)
(140.20093 -394.07391 90.988351)
(187.55961 -540.98191 -105.56762)
(206.9326 -539.43294 -73.510562)
(222.38385 -528.79134 -44.741811)
(230.08857 -516.12088 -15.168027)
(232.4058 -500.63776 14.111502)
(225.37124 -486.36131 39.599482)
(215.56043 -472.74245 73.619448)
(271.11571 -618.06777 -100.65364)
(289.56679 -614.90386 -72.159242)
(304.89822 -603.86615 -46.253236)
(313.92548 -590.64991 -20.273399)
(317.30988 -574.86283 5.3758525)
(314.55671 -559.6215 28.149545)
(307.05041 -548.90083 56.50445)
(368.88022 -693.05692 -91.454475)
(386.17724 -687.87258 -66.554393)
(400.84492 -676.25775 -43.929624)
(410.47974 -661.75131 -21.171658)
(414.6427 -645.54469 0.7757143)
(415.47967 -628.80389 21.19791)
(409.65761 -620.25159 43.697926)
(477.75405 -765.83583 -79.926097)
(493.91734 -758.51016 -58.506674)
(507.3049 -746.42728 -38.489845)
(517.19393 -730.60266 -18.307293)
(521.48155 -713.67902 0.59654211)
(524.64776 -695.42379 19.714779)
(519.55687 -687.02783 37.571294)
(595.76678 -837.55469 -68.911684)
(610.78634 -828.55526 -49.919128)
(622.91024 -816.13338 -31.489979)
(632.35852 -798.57721 -12.898151)
(636.34551 -781.00153 4.3284335)
(640.16855 -760.99734 23.069175)
(634.92529 -751.19011 38.570415)
(722.32782 -909.93004 -60.414285)
(736.47706 -899.9137 -42.625741)
(747.49889 -887.25143 -24.97859)
(755.93499 -868.5125 -6.8952359)
(759.54642 -850.12272 9.9423105)
(762.26378 -829.01011 29.154164)
(756.46637 -816.09913 44.868831)
(858.60435 -984.63606 -56.034033)
(872.02015 -974.37462 -38.201704)
(882.29762 -961.77717 -20.805228)
(889.58047 -942.2388 -2.2922275)
(892.7623 -923.59376 15.081278)
(893.42972 -901.86252 34.894356)
(886.99989 -885.07617 53.158391)
(1006.388 -1062.3442 -56.094522)
(1019.326 -1053.4262 -37.630892)
(1029.2809 -1040.7182 -19.912185)
(1035.389 -1021.6696 -0.88349293)
(1038.6741 -1002.312 17.127552)
(1036.739 -980.87959 37.645769)
(1030.1033 -960.51365 59.462722)
(1167.5585 -1144.2134 -59.900816)
(1180.5477 -1136.5329 -40.216188)
(1190.0643 -1123.8767 -22.943485)
(1196.2898 -1105.8256 -3.5930735)
(1199.1316 -1086.5756 14.813416)
(1195.8879 -1067.0662 35.301878)
(1189.3361 -1044.5754 60.191902)
(1343.8912 -1228.6835 -64.58916)
(1356.5646 -1222.6125 -45.156906)
(1366.2112 -1210.7658 -28.87348)
(1371.9459 -1193.3351 -8.7816852)
(1375.6421 -1174.9736 6.8888623)
(1373.2303 -1157.8759 27.222842)
(1368.1856 -1135.4621 52.526185)
(1535.3167 -1314.279 -68.262611)
(1547.7383 -1309.9588 -50.805947)
(1557.3422 -1298.4394 -34.668419)
(1565.0019 -1282.9727 -18.938009)
(1569.8193 -1265.9025 -2.3940325)
(1568.001 -1250.6277 15.854103)
(1564.3215 -1230.9504 39.182623)
(1742.0055 -1399.7118 -68.228215)
(1752.3389 -1396.4396 -52.731106)
(1763.7119 -1385.5473 -39.284003)
(1770.4579 -1370.7914 -26.485504)
(1777.1885 -1355.364 -12.078579)
(1777.5254 -1341.3411 1.4441865)
(1777.3616 -1326.0447 22.332774)
(1959.1119 -1483.1709 -63.954991)
(1968.9329 -1479.9304 -51.258113)
(1979.3182 -1469.3551 -41.886)
(1988.1042 -1455.9008 -31.342421)
(1995.3433 -1442.1235 -21.181276)
(1999.3001 -1429.271 -11.164622)
(2001.7257 -1418.6299 5.0990763)
(2184.8536 -1563.5275 -54.932035)
(2192.7586 -1559.4371 -46.432965)
(2203.5036 -1549.3993 -40.050031)
(2212.5104 -1536.809 -33.109756)
(2220.9027 -1524.0965 -26.216231)
(2228.0906 -1511.9902 -19.753783)
(2232.9202 -1506.0255 -8.6764806)
(2414.9196 -1640.5181 -43.229185)
(2422.2153 -1635.2378 -38.032438)
(2431.9385 -1625.5428 -34.756323)
(2441.4433 -1613.3983 -30.332301)
(2450.2513 -1601.3866 -26.481195)
(2460.0357 -1589.6081 -22.459382)
(2466.2659 -1587.2386 -16.398315)
(2647.7371 -1714.7436 -30.331315)
(2654.4545 -1707.9952 -28.005966)
(2663.165 -1698.8456 -26.466619)
(2672.6092 -1686.9164 -23.966965)
(2681.3692 -1675.3315 -21.920709)
(2692.6592 -1663.5885 -19.116168)
(2699.2584 -1662.968 -16.600419)
(2882.4828 -1787.2983 -18.914481)
(2889.3309 -1779.7595 -17.95824)
(2896.8219 -1771.2381 -17.132332)