/*--------------------------------*- C++ -*----------------------------------*\
  =========                 |
  \\      /  F ield         | OpenFOAM: The Open Source CFD Toolbox
   \\    /   O peration     | Website:  https://openfoam.org
    \\  /    A nd           | Version:  6
     \\/     M anipulation  |
\*---------------------------------------------------------------------------*/
FoamFile
{
    version     2.0;
    format      ascii;
    class       pointScalarField;
    location    "0.59";
    object      p;
}
// * * * * * * * * * * * * * * * * * * * * * * * * * * * * * * * * * * * * * //

dimensions      [1 -1 -2 0 0 0 0];

internalField   nonuniform List<scalar> 
28033
(
1136729.8
-1738103.1
-176.52002
196.38874
2170404.4
-2481044.1
469.15796
-292.16176
1013585.4
879338.36
756423.01
612211.16
453588.74
302639.57
149412.5
-22224.615
-190713.69
-347248.73
-527550.74
-625036.25
-839720.71
-1000770
-981753
-941.25673
-2079.1711
-3114.399
-3086.453
-3116.3537
-2131.774
-1498.6609
-199.41346
849.39795
1939.9374
2848.9048
3306.8791
3350.8987
2580.8755
1368.9307
320127.57
336161.11
311168.24
335089.01
326934.43
338177.71
340429.16
342776.57
343025.69
345504.13
342913.59
340778.07
340411.49
337995.21
334659.66
330535.11
329394.62
325162.12
321925.52
318220.58
315662.85
311527.38
309532.62
305948.74
302659.09
300061.57
297264.46
293967.23
291109.19
288016.38
284977.92
281214.77
278371.64
275076.92
270461.93
266888.26
262769
259534.85
253958.68
250188.04
244865
240128.86
235103.06
230556.03
225387.9
220839.95
215843.49
211327.02
206427.58
201977.17
197136.33
192593.76
187768.87
182975.16
177977.21
172843.34
167488.18
161915.49
156082.46
150052.33
143759.49
137257.26
130556.72
123899.62
116951.22
110443.61
104324.91
97452.903
90472.501
84031.267
77759.01
71979.385
66467.982
61283.461
56297.133
51703.975
47273.329
43185.408
39096.108
35385.137
31649.022
28105.339
24543.921
20870.118
17573.05
14231.546
11340.103
8377.9853
5885.2133
3407.3297
1813.1565
-107.13762
-528.34175
-983.69596
-755.47376
-305147.81
-261413.71
-310251.09
-281393.23
-322445.08
-316323.45
-329091.55
-323793.95
-334101.38
-327536.02
-333153.02
-327849
-328592.56
-326490.49
-324314.87
-321626.1
-318971.19
-315450.67
-313563.89
-310066.4
-306842.73
-305563.98
-300890.97
-300500.27
-296543.76
-294331.35
-292296.05
-288744.96
-287221.99
-282886.93
-280694.25
-277102.17
-273600.28
-270529.45
-266726.59
-263559.2
-257925.87
-254735.1
-249114.09
-245218.76
-239992.96
-235398.91
-230293.51
-225581.77
-220546.86
-215872.81
-211043.61
-206436.72
-201855.85
-197360.09
-192921.36
-188508.37
-184079.89
-179627.88
-175048.68
-170375.64
-165495.9
-160427.56
-155102.72
-149546.77
-143694.05
-137633
-131301
-124792.5
-118099.33
-111356.27
-104575.73
-97914.861
-91606.478
-84583.792
-78500.915
-72330.415
-66766.225
-61275.781
-56273.602
-51512.777
-47080.571
-42950.81
-39001.951
-35365.444
-31824.549
-28476.871
-25199.482
-22080.364
-18958.86
-16031.217
-13101.8
-10391.681
-7785.728
-5408.46
-3322.5228
-1566.1286
-113.38408
460.87453
477.29875
1800442.3
1696276.3
1227010.9
1233944.7
844927.57
486635.9
285346.86
-73638.169
-346118.07
-695556.96
-938372.9
-1267159.3
-1583640
-1828345.1
-1930689.2
-506644.03
-387074.75
-179539.62
-379226.99
-314256.94
-339425.47
-329950.53
-351419.62
-334282.68
-350454.83
-353097.44
-337210.99
-351344.27
-333130.84
-347996.12
-337308.13
-334521.06
-327286.83
-325278.38
-322556.64
-317676.52
-311466.84
-314377.38
-311043.52
-307255.34
-307422.68
-296623.69
-302440.21
-290370.74
-294339.44
-290509.82
-287732.66
-284030.81
-281420.4
-278751.52
-267879.22
-269397.91
-265014.7
-260365
-255941.08
-251252.94
-246554.56
-241766.14
-236970.56
-232188.73
-227482.43
-222693.67
-218005.02
-213288.42
-208666.35
-203991.4
-199321.07
-194571.86
-189711.19
-184703.3
-179462.93
-174051.86
-168319.97
-162360.16
-156123.97
-149606.1
-142895.76
-135961.83
-128907.49
-121730.53
-114567.63
-107854.53
-100659.67
-93290.962
-87074.797
-81017.984
-74983.091
-69276.73
-63991.298
-58950.581
-54200.03
-49715.74
-45512.747
-41426.857
-37527.08
-33674.654
-29969.227
-26258.29
-22718.668
-19168.435
-15807.269
-12502.678
-9472.6492
-6600.5972
-4098.2328
-1932.5027
-221.24884
850.32466
1449.3442
1058.1367
1585.2389
2923.8989
2789.5916
3609.4786
2147.0299
2348.4374
457.07716
-351.66072
-1785.6871
-3405.0969
-2519.1492
-4615.3786
-2418.215
-2701.1007
-785.24321
-123.46885
-819.56633
-273.64079
900.22643
2294.4528
4424.4231
6744.1167
9458.8794
12137.699
15343.461
18348.968
21386.539
24739.917
28195.344
31675.8
35256.126
39054.505
42921.732
47122.935
51511.647
56241.606
61298.553
66733.957
72374.602
78521.319
84765.504
90153.617
99684.598
105396.28
112660.18
119697.53
126868.16
133780.23
140552.07
147088.78
153333.57
159348.15
165003.15
170456.86
175601.44
180577.63
185334.58
190033.7
194589.46
199188.95
203768.1
208430.43
213166.89
218029.42
222954.53
228036.85
233120.71
238315.68
243709.07
248490.91
253973.72
258310.47
260352.75
271177.48
272245.88
274253.07
285224.45
284185.33
289333.66
288571.46
299168.41
293434.61
305059.49
303871.3
308832.42
310373.42
310518.57
319897.49
318612.86
320201.19
327594.75
326325.99
333484.7
332573.52
340529.28
346830.22
340337.76
344724.32
350401.68
353082.77
348509.04
354770.49
349069.48
346540.67
338528.66
334305.96
343246.43
332927.27
301175.25
373535.9
846076.05
896341.41
944658.23
986632.13
1007725.3
1038705.9
1037545.1
1052914.8
1038391.8
1014977.9
1031538.9
962660.76
929326.46
973351.67
770539.37
-1391343.9
-1752027.8
-1738853.8
-1874628.7
-1835583.6
-1749611.1
-2011890.9
-2150063.3
-2011248.6
-2019713
-1938795.1
-1868585.7
-1753948.3
-1742179.7
-1647189.8
-980.71857
-1440.2759
-1466.5787
-1421.9114
-997.95804
-756.88402
-532.03045
-366.12975
-359.67653
-431.18949
-507.7159
-716.23363
-853.22063
-551.50818
-473.00422
257.94886
747.56042
867.68224
772.55915
505.79523
268.48756
153.91521
101.26514
189.35524
312.02608
566.33344
732.48914
873.72996
855.91262
32.983225
297862.22
309780.03
281694.85
284425.06
292461.7
298183.81
301164.62
304576.32
306418.08
306532.99
305154.82
307307.87
303545.64
302124.08
298466.66
298959.93
293772.44
292199.42
288085.38
286381.28
283002.81
281151.93
277448.9
274776.5
271747.61
270016.85
266439.82
263924.03
261198.35
258615.9
254906.6
252265.34
249835.59
246027.49
242897.16
239054.81
235614.83
231014.01
227357.04
223767.47
219821.08
215423
211308.84
206907.84
202574.64
198406.21
193985.12
189893.6
185512.73
181371.21
177020.38
172774.9
168340.19
163890.53
159265.19
154518.24
149583.59
144465.78
139170.15
133683.09
128015.58
122167.68
116295.85
110330.35
104110.45
98113.996
91215.144
85661.736
80061.25
74776.544
69602.429
64687.475
59870.249
55439.78
51062.799
47041.44
43142.11
39425.571
35784.263
32476.308
28970.197
25884.919
22613.53
19657.456
16560.334
13749.746
11008.885
8499.1496
6201.8506
4244.2558
2471.0095
1004.8496
98.896742
-887.57298
-1392.0741
275629.49
259265.35
229906.57
240293.91
242759.96
246454.84
249084.73
253055.38
254331.4
256500.01
255874.31
256355.26
254442.14
254658.04
252015.88
250283.93
247583.81
246523.49
243340.37
241435.71
238807.49
235710.29
233760.7
231486.43
229356.56
226386.53
224577.23
222312.08
219752.59
217360.6
215160.72
212695.51
209755.35
207070.14
204324.85
201382.59
198357.55
195374.45
192266.52
188958.15
185440.1
182470.22
178402.79
175107.73
171456.03
168068.69
164410.82
161015.64
157308.68
153860
150119.79
146513.45
142693.68
138867.69
134883.5
130795.37
126553.83
122198.54
117673.37
113045.16
108277.45
103418.72
98588.877
93633.471
88730.842
84600.217
80342.639
75238.402
71374.897
66575.222
62202.579
57967.403
53753.712
49690.303
45824.4
42307.1
38599.749
35432.887
32043.004
29089.513
25933.227
23077.068
20285.443
17206.666
14462.791
11879.299
9489.9588
7475.7951
5617.7118
3875.6719
2569.3531
1060.1988
458.57894
-927.87255
-1667.055
219433.32
219363.03
188961.01
200646.12
197916.14
203265.49
206641.48
210191.02
210534.95
212274.97
211833.73
212795.56
211150.74
210587.48
208410.08
208080.18
205243.57
204099.5
201339.13
200174.39
197547.87
196323.69
194076.37
192424.99
189755.48
188499.92
186268.33
184168.79
182259.4
180337.9
178122.05
175935.76
173922.97
171760.54
169560.97
167086.92
165017.88
162628.51
160097.52
157320.77
154370.92
151483.19
148897.76
146030.85
143184.6
140219.15
137215.89
134243.48
131188
128176.31
125033.5
121946.98
118698.12
115456.83
112076.58
108619.89
105058.28
101391.53
97597.645
93733.157
89755.796
85703.518
81661.954
77394.169
73464.875
69900.479
66512.315
62231.845
58651.388
55446.559
52072.96
48584.77
45100.356
41950.032
38833.152
35834.497
33033.908
30158.003
27499.648
24853.833
22185.065
19883.67
17163.306
14919.084
12900.374
10605.163
8433.1363
6815.4571
5096.3747
3635.6154
2401.5364
947.21799
262.98884
-1501.0098
-2233.3229
173793.42
174899.03
145001.35
157174.56
151070.93
158108.92
159253.46
162078.66
162507.9
165416.24
164630.08
166086.73
163988.26
165296.25
162835.22
163004.87
160286.63
160562.29
157824.33
157176.79
154883.4
153734.95
151746.72
150207.79
148822.99
147222.52
145609.78
144322.05
142678.3
141064.03
139579.03
137892.41
136263.77
134354.13
132962.66
130534.22
128938.44
125890.16
123837.93
121683.22
120160.49
118006.41
115801.94
113499.7
111358.07
109149.17
106921.71
104723.61
102417.32
100128.52
97732.909
95334.142
92806.7
90256.337
87573.037
84841.45
81991.508
79077.036
76059.778
72999.846
69880.246
66706.07
63529.068
60362.979
57346.238
54023.198
51598.773
48697.872
45024.99
42493.85
39820.275
36962.154
34702.549
32187.369
29766.484
27459.192
25217.747
23077.878
20951.674
18889.234
16923.586
14967.685
13058.903
10924.158
9192.5244
8018.9631
6498.0963
5209.1709
3894.3343
2815.3036
1786.9927
782.3215
86.664637
-1172.6747
-2010.4419
138587.78
127582.65
105594.95
115648.66
113511.52
116960.32
118725.94
120739.37
120832.87
122293.9
122124.46
122165.5
121812.98
121703.47
120102.45
120256.21
118043.86
118184.74
115728.89
115825.28
113783.79
113522.79
111483.92
111291.58
109451.53
108663.29
107284.16
106198.19
104857.6
103924.48
102599.71
101484.43
100209.42
99203.623
97897.388
96584.861
96883.703
97146.109
95894.807
96871.982
94646.839
93262.259
91919.6
90364.103
88781.75
87069.398
85317.917
83526.598
81693.46
79822.246
77886.669
75938.871
73893.464
71821.202
69668.461
67466.854
65186.488
62862.574
60466.287
58040.696
55589.15
53029.651
50597.892
48171.116
45364.07
43443.761
40766.465
38527.699
36027.796
33864.817
31738.011
29193.172
26139.646
24120.995
22184.897
20321.115
18758.306
17129.479
15558.341
14085.483
12530.342
11195.094
9680.5517
8503.7337
7083.0191
6024.3765
4789.9843
3914.7197
2799.5266
2127.4711
1254.7678
440.31616
54.000779
-1201.7756
-1599.9922
84229.07
85795.427
65322.901
76326.815
70656.173
73281.729
74734.418
76431.174
75303.336
78280.3
76344.775
78269.201
76308.16
77637.349
75561.149
76579.546
74445.339
75481.638
72988.102
73744.104
71548.204
71600.333
70116.85
69915.037
68524.901
68266.781
67211.754
66724.673
65908.823
65168.248
64424.65
63632.902
62992.004
62124.942
61310.44
60844.99
60883.11
61124.516
61547.807
61465.858
61964.665
60933.016
59945.613
59025.571
58029.623
56976.809
55886.828
54816.044
53652.789
52490.271
51251.221
49994.529
48639.528
47269.326
45815.647
44308.17
42752.673
41145.643
39495.566
37816.928
36109.201
34448.611
32734.626
31008.949
29596.438
27728.45
26475.627
24983.988
23589.773
22344.951
20820.071
19344.682
17958.792
16442.27
14860.452
13853.102
12704.114
11696.935
10641.158
9672.0377
8605.7571
7661.4653
6676.0103
5781.886
4824.8753
4151.2626
3193.4276
2569.3534
1747.7174
1296.0746
630.62418
232.86534
-143.54413
-853.58736
-1204.5503
43229.214
36855.176
30884.196
36224.851
31849.676
33521.027
34782.19
34476.537
34378.045
34371.306
34795.09
33903.15
34148.414
34179.36
33099.428
33844.378
32242.272
33060.391
31352.198
32591.015
30687.838
31892.859
30303.254
30956.877
29756.634
30121.278
29116.066
29270.646
28462.778
28522.359
28009.758
27931.86
27528.246
27359.153
27163.368
26969.512
26622.424
26979.05
26258.403
25239.741
25339.213
25113.397
24635.824
24499.124
24150.984
23799.858
23340.576
22949.64
22402.785
21911.168
21321.971
20737.196
20083.316
19435.011
18729.554
18007.218
17273.613
16519.637
15749.115
14987.574
14255.009
13490.101
12777.834
12161.361
11396.772
10918.313
10279.135
9734.7412
9242.6182
8757.8137
8329.7781
7873.7626
7242.7775
7232.548
6852.2889
6492.4244
5899.7452
5446.0641
4924.1378
4384.6138
3814.1166
3326.8245
2697.1306
2267.7841
1641.725
1332.2276
729.75151
690.41077
169.20833
282.75679
-150.98409
-52.486451
-196.82239
-577.02386
-311.21539
-11534.131
-6466.1178
-11490.126
-6545.7149
-8667.6735
-7532.5896
-8323.5086
-7467.1511
-10356.251
-7815.1342
-10295.38
-9163.8803
-10297.029
-9551.1805
-10793.785
-9448.1052
-11123.879
-9334.3578
-11066.61
-9641.2041
-10962.384
-9606.0634
-11143.217
-9992.5373
-10889.507
-10154.815
-10576.362
-10154.433
-10289.141
-10024.216
-10009.667
-9853.7936
-9660.3844
-9386.623
-9142.8226
-8993.8977
-8285.2247
-8135.4912
-7640.19
-7694.0986
-7195.5312
-6757.4794
-6616.7369
-6305.0714
-6008.6686
-5830.2237
-5586.7669
-5360.6784
-5199.0951
-5028.1635
-4898.4989
-4775.0197
-4690.7104
-4609.8244
-4547.4556
-4508.1134
-4452.8336
-4417.5131
-4381.7581
-4297.9709
-4253.6338
-4138.086
-3988.7354
-3864.8615
-3603.4516
-3422.1864
-3128.1901
-2805.3582
-2526.1197
-2128.5689
-1891.7304
-1606.7309
-1360.9409
-973.9682
-666.00725
-449.16333
-367.26868
-204.79684
-167.97602
-112.1682
-111.65896
-152.48769
-180.31907
-250.07617
-319.625
-327.55946
-450.05033
-362.24678
-615.93008
-354.55702
-646.44197
-218.43485
-344.18644
-17.73259
423.01207
-50277.194
-52399.542
-45132.144
-43707.211
-44516.909
-47087.72
-46510.258
-49294.375
-49178.474
-51138.833
-50618.538
-52015.645
-51692.058
-51691.146
-52013.525
-51368.112
-52014.587
-50538.591
-52120.65
-49875.179
-51312.48
-49744.154
-50663.105
-48861.039
-49747.452
-48157.745
-48832.76
-47444.168
-47673.576
-46602.341
-46450.647
-45510.363
-45016.729
-44173.914
-43558.084
-42511.048
-41922.533
-40862.473
-39962.292
-38941.724
-38031.778
-37004.28
-36194.163
-35145.854
-34278.566
-33410.737
-32602.758
-31758.647
-31038.627
-30283.799
-29580.066
-28877.212
-28221.826
-27537.337
-26873.279
-26210.05
-25507.566
-24810.591
-24062.516
-23299.552
-22475.664
-21617.469
-20726.373
-19746.682
-18807.708
-17742.98
-16673.64
-15607.19
-14495.861
-13398.15
-12356.536
-11224.861
-10310.383
-9251.841
-8556.0326
-7921.9152
-7145.4286
-6541.6314
-5917.1844
-5421.466
-4994.8249
-4573.4031
-4273.0377
-3899.2439
-3668.8779
-3265.0124
-3100.4322
-2550.3712
-2474.6824
-1642.8654
-1623.3736
-691.35987
-448.81298
303.44041
1004.1628
-101506.24
-101512.93
-84403.546
-85999.644
-88244.552
-89448.535
-91879.556
-92197.832
-96170.235
-95513.127
-97087.809
-97588.649
-97781.319
-97247.466
-98019.724
-96313.75
-96905.555
-95287.981
-95480.872
-93650.606
-94297.994
-90815.698
-90847.63
-89003.22
-89226.852
-87731.73
-87464.322
-86105.113
-85552.622
-84380.426
-83601.619
-82369.701
-81463.132
-80183.994
-78870.315
-77697.524
-76166.611
-74867.862
-73297.177
-71949.909
-70446.781
-68965.921
-67446.544
-66026.402
-64510.971
-63097.868
-61645.152
-60208.578
-58832.631
-57430.275
-56040.508
-54667.301
-53285.912
-51875.037
-50462.14
-49024.856
-47530.761
-46017.143
-44460.243
-42827.707
-41165.533
-39455.107
-37661.539
-35866.082
-34001.594
-32105.109
-30208.247
-28326.708
-26434.333
-24589.851
-22760.086
-21014.948
-19334.196
-17263.079
-14881.664
-13652.941
-12575.534
-11378.967
-10307.199
-9440.5558
-8461.5768
-7777.6728
-6918.2953
-6318.9522
-5562.3422
-4974.5796
-4306.2293
-3652.3521
-3119.2222
-2219.6819
-1942.4814
-820.35972
-358.15958
540.40474
1108.6695
-152817.55
-124569.16
-112205.09
-114996.55
-119218.21
-120224.23
-123874.99
-126098.41
-129146.59
-129925.84
-131054.56
-132135.34
-131843.47
-131587.17
-131788.43
-129760.02
-130928.46
-128027.76
-128944.12
-127154.62
-128346.18
-128513.21
-129051.37
-127979.56
-128539.54
-126002.68
-126200.98
-123706.76
-123322.27
-121240.49
-120306.43
-118493.82
-117241.73
-115297.75
-113724.97
-111732.18
-109974.24
-107886.71
-105931.84
-103807.45
-101767.59
-99534.632
-97502.259
-95314.127
-93231.048
-91120.885
-89096.819
-87035.347
-85061.262
-83053.561
-81090.745
-79117.12
-77143.339
-75137.374
-73117.224
-71050.449
-68916.211
-66753.444
-64487.034
-62165.765
-59764.689
-57277.482
-54740.888
-52109.202
-49493.963
-46787.353
-44079.794
-41347.154
-38638.138
-35942.047
-33363.403
-30889.784
-28420.382
-26034.169
-24067.25
-21244.689
-19042.115
-17276.787
-15610.349
-14127.55
-12821.444
-11523.263
-10388.408
-9261.1583
-8237.5807
-7223.0114
-6274.8614
-5324.3521
-4411.6281
-3473.2801
-2558.592
-1479.417
-538.39217
667.5199
2188.8569
-182153.89
-174047.92
-158214.12
-154607.65
-159306.13
-160369.88
-166241.47
-168510.78
-170969.1
-173355.89
-174759.12
-174547.09
-175562.07
-174318.68
-174151.65
-173058.24
-171965.01
-170233.51
-170012.36
-167292.19
-168014.02
-165422.11
-168115.5
-167281.89
-166699.13
-165124.33
-164153.65
-162091.1
-160810.57
-158605.71
-157267.25
-154882.62
-153226.34
-150958.59
-148748.8
-146504.51
-143969.24
-141498.32
-138844.45
-136275.74
-133477.92
-130881.16
-128124.45
-125470.62
-122776.55
-120123.78
-117511.57
-114877.61
-112291.42
-109708.89
-107112.54
-104507.81
-101874.87
-99189.434
-96454.066
-93643.269
-90751.943
-87769.746
-84689.558
-81519.972
-78228.211
-74885.741
-71417.42
-67896.826
-64364.04
-60747.957
-57147.029
-53641.933
-50120.028
-46706.062
-43427.133
-40163.763
-37092.014
-34223.582
-31566.534
-29277.949
-26484.85
-24110.441
-21854.64
-19796.122
-17792.266
-15928.507
-14124.239
-12427.334
-10778.596
-9221.5309
-7721.6388
-6304.9779
-4991.4247
-3662.1882
-2660.8252
-1279.3315
-544.43446
910.35646
2227.5009
-251189.39
-228403.57
-193366.18
-205590.38
-203840.28
-213036.1
-214703.01
-220034.26
-221747.92
-224851.24
-224971.35
-226697.6
-225353.6
-225698
-223831.53
-222596.51
-221237.23
-218705.53
-217816.46
-215037.02
-214220.3
-211614.06
-210082.88
-206557.06
-205854.73
-202891.24
-202386.35
-199057.41
-197985.28
-195096.53
-193385.22
-190430.04
-188549.46
-185678.76
-183201.65
-180270.04
-177324.73
-174239.68
-171213.24
-167887.98
-164756.18
-161398.46
-158113.66
-154775.07
-151481.85
-148182.1
-144945.47
-141676.92
-138483.05
-135272.64
-132056.25
-128837.71
-125581.44
-122271.89
-118898.15
-115449.04
-111890.05
-108236.82
-104465.83
-100570.63
-96568.708
-92451.399
-88235.161
-83913.04
-79614.798
-75172.519
-70847.813
-66485.46
-62170.971
-57912.295
-53791.072
-49833.462
-46040.753
-42383.86
-38910.395
-35624.704
-32524.309
-29605.431
-26868.248
-24257.32
-21838.051
-19520.123
-17330.97
-15260.846
-13275.275
-11405.254
-9633.5438
-7963.1737
-6389.8073
-4921.8402
-3579.7064
-2132.2707
-954.38625
577.36756
1695.501
-274487.58
-263682.66
-222210.45
-242167.04
-245131.45
-253695.42
-256491.35
-263271.04
-265589.42
-267090.22
-269765.45
-268701.53
-268977.13
-267916.1
-265607.69
-264308.3
-262081.5
-258999.5
-257898.2
-254413.67
-252636.9
-250217.47
-248309.33
-246698.95
-244419.87
-242185.63
-240166.19
-237372.07
-235907.9
-232739.09
-230667.66
-227471.07
-224681.08
-221516.24
-218407.33
-215283.08
-211616.17
-208244.91
-204242.97
-200568.68
-196584.46
-192640.95
-188692.88
-184719.65
-180805.22
-176891.63
-173034.46
-169216.39
-165439.21
-161685.96
-157938.85
-154190.05
-150399.8
-146546.05
-142605.69
-138552.52
-134354.52
-130012.62
-125487.84
-120810.42
-115937.42
-110935.42
-105758.14
-100471.01
-95118.063
-89596.409
-84205.449
-78914.926
-73687.305
-68494.679
-63650.57
-58880.15
-54287.544
-50039.368
-45896.594
-42085.272
-38433.166
-35027.502
-31799.214
-28764.766
-25849.09
-23081.483
-20397.204
-17839.181
-15343.616
-12982.052
-10697.044
-8558.3536
-6539.046
-4705.1446
-3055.2755
-1527.0284
-432.12306
592.90787
1284.1642
-379300.75
-255555.25
-275261.19
-277584.48
-291886.76
-289550
-300313.44
-304071.97
-305499.52
-308408.63
-308657.26
-309976.44
-307609.68
-306426.11
-304012.11
-301964.55
-300426.49
-296130.67
-295244.73
-290522.98
-288793.87
-285139.34
-284200.86
-280618
-280067.12
-275580.63
-274637.74
-270389.38
-269839.59
-265735.15
-263757.27
-259926.36
-256893.63
-252810.05
-248935.83
-245899.23
-242084.67
-237846.93
-233536.71
-229264
-224683.21
-220231.56
-215650.03
-211108.42
-206604.2
-202115.27
-197715.44
-193361.66
-189037.41
-184778.18
-180501.84
-176235.64
-171914.62
-167518.91
-163025.47
-158388.94
-153591.45
-148609.83
-143437.42
-138048.56
-132476.62
-126712.58
-120787.63
-114728.43
-108591.63
-102232.7
-95960.799
-89599.385
-83796.867
-78081.878
-72510.235
-66962.291
-61822.127
-56893.532
-52224.42
-47853.631
-43777.091
-39831.599
-36180.152
-32630.301
-29291.441
-26063.52
-22970.655
-19971.801
-17114.078
-14337.449
-11741.126
-9262.9922
-7004.8256
-4997.7723
-3213.4093
-1796.1329
-772.62305
147.97225
694.05152
627930.8
646008.3
628933.04
645963.89
649272.26
654712.54
676698.01
663317.01
656405.27
656781.17
650778.46
629079.73
623897.32
657612.79
558251.84
600906.06
608232.5
583494.58
597860.58
604032.81
615401.83
598966.45
621308
614778.85
619275.14
606539.96
603406.78
602775.64
611122.86
525891.42
458324.63
515846.89
455933.34
478329.29
477004.39
473073.54
478572.04
474713.69
478833.69
471622.14
470468.56
473795.29
443647.94
487766.76
452773.53
393996.66
396468.19
396310.29
389094.56
402734.04
397773.41
405142.09
404281.86
400950.63
402293.54
402845.37
388470.51
391862.4
417840.64
303843.4
279566.31
314322.66
275138.13
298246.6
286815.33
299254.11
294247.94
294649.12
295636.52
295354.16
291565.23
290930.45
288394.11
296943.2
268307.77
205337.82
209236.49
197687.3
202280.29
203522.62
203925.66
202151.68
202984.11
204689.64
203253.86
197502.2
206210.7
193801.53
205282.04
198306.34
103605.38
102890.07
105501.12
99547.305
104973.61
105365.3
103999.03
103810.2
102061.07
103747.07
100577.28
96015.868
105149.95
92689.615
105816.6
4097.2062
21.92851
-4181.5785
1467.4285
-2922.5022
-756.43229
-2963.9383
-1636.9015
-4820.4479
2789.8058
-13151.027
2283.5905
8340.1892
-18596.793
41874.347
-85540.851
-98554.38
-84150.596
-94338.977
-90476.54
-92247.231
-92762.874
-92444.688
-94926.536
-88410.029
-100938.48
-87594.898
-87845.17
-115575.14
-18162.139
-169604.99
-208546.43
-185529.52
-193152.39
-193524.5
-195903.04
-199075.18
-197468.03
-204266.53
-191979.97
-217829.8
-188529.59
-188291.9
-230754.17
-114775.36
-269242.35
-331008.57
-275895.9
-309526.85
-293073.5
-303588.61
-299451.2
-300962.35
-302635.84
-291272.12
-299733.84
-294193.76
-277312.72
-316596.6
-182652.07
-391839.52
-372360.12
-378960.04
-365866.04
-384335.77
-383575.26
-387973.31
-390945.5
-393464.5
-387797.27
-409089.04
-360199.51
-380137.29
-426169.43
-277656.22
-442203.91
-503792.53
-436682.17
-464621.08
-441205.1
-459251.29
-452749.67
-453711.07
-449920.04
-447386.27
-452473.31
-455582.19
-417373.32
-506676.69
-249861.11
-541597.85
-646203.13
-564185.86
-608191.71
-626066.54
-621093.21
-624814.45
-655164.43
-640310.02
-656149.79
-618197.28
-604399.97
-618663.36
-610292.63
-540994.93
-580932.96
-516012.62
-461180.83
-464820.92
-484149.25
-519595.21
-496883.07
-479633.24
-458512.15
-456337.55
-466192.18
-470140.47
-472811.65
-528741.61
-476879.1
-523550.09
-490848.97
-580743.87
-614217.65
-635661
-694950.03
-667840.12
-623686.78
-710321.78
-695002.74
-671549.7
-636567.97
-610220.07
-581129.45
-492628.73
-369778.31
-374345.75
-418077.46
-427981.59
-447550.26
-460405.95
-474128.76
-488999.53
-503920.18
-479599.62
-469217.23
-440816.42
-443725.87
-440156.6
-447917.14
-317072.71
-364338.47
-356787.06
-389787.28
-414394.16
-401381.58
-422169.78
-418617.53
-405730.8
-423093.18
-406641.41
-411689.31
-398887.48
-354183.3
-368956.62
-320869.35
-362896.7
-367840.69
-376593.46
-387784.06
-395197.4
-398735.86
-401587.06
-400840.66
-392004.46
-392453.25
-383147.97
-366789.03
-361621.92
-340453.13
-346488.68
-379994.8
-371305.6
-397775.31
-402414.61
-410680.87
-418744.9
-417553.45
-420331.25
-419354.79
-408434.45
-400185.76
-382720.54
-367413.54
-362402.48
-339157.01
-353930.36
-362442.63
-376810.4
-383024.29
-393440.84
-392726.13
-395082.59
-395676.42
-388678.35
-386644.3
-378320.57
-366637.61
-357510.07
-338533.63
-339880.11
-364947.72
-366065.46
-380770.53
-383208.23
-391899.86
-394563.01
-396010.66
-395825.71
-391743.11
-384073.83
-379211.16
-368842.58
-353967.31
-355800.51
-345773.92
-352571.66
-363254.65
-367727.16
-379422.31
-380729.75
-385154.95
-386682.74
-385374.15
-382572.18
-378186.12
-370968.18
-363796.46
-352027.56
-343167.66
-340884.98
-356871.21
-359536.83
-370405.31
-370584.6
-380087.26
-377512.96
-381246.48
-379849.13
-375393.46
-372062.32
-365875.76
-360060.67
-351992.63
-345921.82
-344464.05
-348028.75
-355209.51
-357469.07
-364083.67
-365259.65
-369147.91
-368984.3
-367747.48
-368129.09
-362927.46
-360365.32
-354744.83
-347686.17
-344138.69
-339107.48
-349200.89
-351394.35
-359404.52
-360991.42
-366818.21
-365817.15
-369184.34
-368298.83
-365758.98
-364525.44
-361241.86
-355345.08
-351441.14
-347484.63
-341694.78
-342399.9
-348048.19
-349779.27
-353369.67
-353893.04
-357352.67
-357677.57
-358327.87
-357355.05
-355514.14
-352315.32
-350046.83
-345071.69
-343250.15
-338819.1
-341553.42
-342721.76
-347864.12
-349198.3
-353645.42
-353262.62
-355585.83
-355110.37
-354540.32
-351616.53
-351412.43
-346172.65
-344915.96
-341591.8
-335548.05
-336337.29
-341209.56
-341465.85
-344833.09
-344953.36
-346357.77
-347585.93
-347874.61
-346436.35
-346035.22
-344390.22
-342149.47
-339776.79
-339022.84
-333106.07
-333866.14
-336317.45
-338760.33
-340745.96
-341653.32
-343561.7
-343652.14
-344622.79
-344771.94
-343078.2
-342672.45
-338122.51
-339136.4
-336818.38
-329141.14
-330089.65
-333863.06
-333225.52
-335662.76
-335612.73
-339275.11
-336601.85
-336709.97
-336088.06
-334970.23
-334480.7
-330613.26
-330501.14
-328259.71
-327523.49
-326617.96
-329655.38
-328916.74
-332391.28
-333170.62
-333480.09
-334720.73
-334856.26
-335265.79
-333873.87
-334299.7
-332783.42
-330355.33
-332358.84
-324220.37
-324021.49
-325993.65
-325812.81
-327745.78
-328073.36
-329550.3
-328443.13
-328819.88
-328019.74
-327180.45
-326323.28
-325928.37
-323500.63
-323111.61
-320146.31
-320365.98
-322644.71
-323491.55
-324418.35
-324511.66
-324316.89
-326100.77
-325449.87
-326186.39
-323726.13
-325844.88
-323138.83
-325498.4
-323404.61
-317728.53
-317400.83
-318920.8
-318580.57
-320527.86
-320527.92
-322595.56
-320976.89
-322266.74
-320766.5
-320045.68
-320617.57
-318307.04
-319003.25
-317256.58
-315406.04
-314501.22
-316506.14
-315882.51
-317069.72
-316663.64
-318127.59
-318884.1
-317784.58
-318350.75
-317715.21
-318438.52
-316799.47
-317782.59
-316222.33
-310011.57
-311795.87
-312180.34
-312872.91
-314018.92
-313706.08
-315098.33
-314236.66
-315184.93
-314628.07
-314079.3
-314605.83
-312380.54
-311529.98
-312836.1
-310033.19
-308234.95
-309980.97
-310132.62
-310956.33
-311304.22
-312105.48
-311851.35
-311250.14
-312298.94
-310697.21
-311155.47
-309211.73
-311372.96
-309969.11
-305097.21
-305764.75
-306497.55
-307524.57
-307762.36
-308130.81
-308878.76
-308198.51
-309146.49
-308465.27
-307310.2
-308875.1
-307319.13
-307118.07
-306531.68
-303494.08
-303576.32
-304234.65
-304444.58
-305155.32
-304847.52
-306298.81
-305866.56
-305841.33
-306268.76
-304310.2
-305691.82
-304126.53
-304155.73
-304360.59
-301292.4
-299628.41
-301763.71
-300868.84
-302235.53
-302412
-303237.82
-302684.82
-303205.39
-303029.41
-303224.36
-303036.95
-300739.68
-302767.47
-300562.24
-297778.2
-297168.74
-298234.64
-299055.04
-299458.36
-300473.68
-300524.91
-300751.89
-300400.74
-300612.97
-299362.12
-300806.18
-297839.76
-298293.62
-299400.95
-296174.35
-294185.32
-295742.2
-295906
-297390.69
-297268.99
-297569.97
-297515.78
-298085.33
-297521.46
-297335.87
-297060.39
-295842.11
-297467.19
-294908.43
-291927.59
-292255.45
-293858.97
-293487.02
-294197.28
-294704.36
-294983.77
-295201.58
-295050.2
-295196.06
-294017.39
-295018.69
-292888.52
-292579.69
-293862.76
-291155.48
-288291.24
-290446.17
-290766.76
-291872.92
-291360.32
-292168.38
-292163.77
-292260.24
-291844.67
-291016.77
-291884.43
-290022.32
-290592.69
-290376.4
-286907.38
-286175.09
-287482.33
-287896.08
-288243.74
-289549.46
-288985.61
-289149.53
-288428.01
-289384.39
-288297.15
-288973.79
-287228.96
-286920.06
-287378.16
-284513.24
-282412.89
-284508.7
-284525.4
-285328.04
-285876.21
-285790.94
-285853.79
-285679.8
-285955.72
-284886.39
-285804.24
-284000.9
-284179.52
-284134.22
-280807.03
-279409.71
-280950.56
-281302.51
-282047.47
-282497.32
-282437.08
-282606.04
-282516.77
-282652.32
-281767.34
-282347.96
-280773.63
-280560.48
-280520.51
-277084.13
-275623.8
-277376.6
-277540.87
-278249.32
-278646.41
-278850.81
-278917.14
-278711.6
-278884.61
-277895.42
-278718.12
-277127.77
-277101.68
-277245.47
-272663.99
-272146.22
-273595.04
-273627.47
-274386.48
-275074.11
-274881.37
-275220.34
-274902.46
-275325.39
-274241.43
-275081.33
-273141.58
-273741.66
-272637.23
-267941.05
-268363.41
-268800.43
-270655.29
-269765.98
-270755.7
-270680.11
-270728.61
-270760.68
-270891.44
-269963.37
-270598.65
-269558.04
-268956.23
-270398.18
-265356.69
-263282.03
-264936.98
-265062.54
-266231.48
-265948.31
-266595.4
-266306.81
-266466.57
-266024.47
-265647.53
-266606.64
-264893.09
-265339.75
-265103.35
-259795.83
-259242.11
-260182.18
-261134.01
-260808.3
-261877.86
-261440.39
-261999.12
-261581.27
-261866.87
-261080.65
-261813.18
-260611.13
-260474.16
-260866.27
-255976.28
-253999.28
-255715.41
-255851.83
-256487.14
-256735.26
-256964.65
-256978.37
-256845.43
-257126.97
-256341.32
-257320.43
-255701.07
-256250.15
-256222.05
-250523.29
-249379.39
-250648.88
-251075.34
-251318.9
-251941.46
-251899.39
-252013.57
-252001.78
-252136.67
-251437.49
-252137.82
-251034.18
-251450.49
-251527.93
-245852.5
-244129.76
-245652.3
-245763.67
-246320.96
-246603.63
-246765.91
-246890.14
-246827.63
-247110.58
-246354.64
-247326.51
-246030.91
-246669.41
-246687.39
-240564.09
-239168.85
-240428.84
-240736.62
-241122.45
-241550.5
-241730.79
-241740.29
-241822.92
-241968.32
-241413.71
-242246.85
-241087.02