/*--------------------------------*- C++ -*----------------------------------*\
  =========                 |
  \\      /  F ield         | OpenFOAM: The Open Source CFD Toolbox
   \\    /   O peration     | Website:  https://openfoam.org
    \\  /    A nd           | Version:  6
     \\/     M anipulation  |
\*---------------------------------------------------------------------------*/
FoamFile
{
    version     2.0;
    format      ascii;
    class       pointVectorField;
    location    "2";
    object      u;
}
// * * * * * * * * * * * * * * * * * * * * * * * * * * * * * * * * * * * * * //

dimensions      [0 1 0 0 0 0 0];

internalField   nonuniform List<vector> 
28033
(
(0 8.8462144e-19 0)
(0 6.0576234e-18 0)
(1.1815226 -0.0012553634 -0.01082284)
(1.1491642 -0.25371164 -0.010657221)
(0 5.470767e-18 0)
(0 8.910266e-18 0)
(1.149496 -0.25171881 -0.010659337)
(1.1819232 0.00075153467 -0.010817628)
(0 1.9154641e-18 0)
(0 5.5312696e-19 0)
(0 4.4184748e-18 0)
(0 -2.0976934e-18 0)
(0 2.8257304e-18 0)
(0 -1.6746089e-18 0)
(0 -4.0464636e-20 0)
(-1.3497481e-18 -4.4031069e-19 0)
(0 8.2814281e-19 0)
(0 4.1212155e-19 0)
(0 -1.5860414e-18 0)
(0 1.5356103e-18 0)
(0 1.836322e-18 0)
(0 -1.4728401e-18 0)
(0 1.8725554e-18 0)
(1.1795 -0.017027134 -0.010810408)
(1.1774784 -0.032799496 -0.010798821)
(1.1754586 -0.048575592 -0.010788869)
(1.1734385 -0.064354159 -0.010782006)
(1.1714185 -0.080134694 -0.01077352)
(1.1693971 -0.095919253 -0.010769832)
(1.1673758 -0.11170401 -0.010762322)
(1.1653531 -0.12749092 -0.010758113)
(1.1633294 -0.14327722 -0.010751472)
(1.1613064 -0.15906201 -0.010744509)
(1.1592815 -0.17484506 -0.010735508)
(1.157258 -0.19062518 -0.010723481)
(1.155234 -0.20640145 -0.010709425)
(1.1532108 -0.22217478 -0.010693397)
(1.1511877 -0.23794388 -0.010674605)
(0.0036876038 0.0055988875 0.006105623)
(0.0046483507 0.0088370099 0.0083603573)
(0.006218867 0.011914836 0.0098676811)
(0.0082907261 0.015284605 0.01077768)
(0.010836629 0.018409521 0.011251578)
(0.01388732 0.021791423 0.011474504)
(0.017499256 0.024950883 0.011504282)
(0.021538781 0.028212269 0.011368837)
(0.026108416 0.031285715 0.011178917)
(0.031085661 0.034397859 0.010880551)
(0.036529814 0.037305906 0.010558637)
(0.042357417 0.040231093 0.01017664)
(0.048612852 0.042953523 0.0098090501)
(0.055233356 0.045661236 0.009387444)
(0.062241689 0.048181566 0.0089792261)
(0.069585758 0.050658817 0.0085428012)
(0.077298077 0.052969093 0.0081242691)
(0.085335429 0.055212297 0.0076876443)
(0.093707014 0.057303771 0.0072458995)
(0.10237588 0.059314462 0.0068082923)
(0.11136147 0.061184821 0.0063790155)
(0.1206248 0.062967319 0.0059343733)
(0.13017306 0.06460732 0.0055158087)
(0.13999036 0.066176619 0.0050870365)
(0.15005476 0.067592612 0.0046710568)
(0.16036691 0.068944688 0.0042673931)
(0.1709073 0.070150174 0.0038806123)
(0.18167573 0.0712984 0.0034978316)
(0.19264785 0.072305846 0.0031354765)
(0.20382528 0.073247729 0.002793913)
(0.21519976 0.074087542 0.0024626596)
(0.22675395 0.074841301 0.0021513938)
(0.23849242 0.075510427 0.0018612977)
(0.25041482 0.076095734 0.0015825621)
(0.26250506 0.076609869 0.00131646)
(0.27477543 0.077043617 0.001068435)
(0.2872068 0.077404468 0.00082977594)
(0.29982099 0.077697064 0.00060004187)
(0.31259584 0.077913353 0.00036868897)
(0.32554726 0.078066299 0.00014890831)
(0.33866522 0.078139368 -7.8095861e-05)
(0.35195675 0.078152208 -0.00030079162)
(0.36541592 0.078084095 -0.00053426632)
(0.37904604 0.077948128 -0.00076810454)
(0.39283736 0.077731912 -0.001012355)
(0.40679353 0.077442825 -0.001261846)
(0.42090144 0.077071514 -0.0015200763)
(0.43516359 0.076623575 -0.0017842301)
(0.44956404 0.076091688 -0.0020552626)
(0.46410276 0.075481067 -0.002330103)
(0.47876369 0.074786551 -0.0026086426)
(0.49354341 0.074013562 -0.0028877822)
(0.50842715 0.073158902 -0.0031666787)
(0.5234091 0.072228633 -0.0034424067)
(0.53847647 0.071221489 -0.0037141935)
(0.55362247 0.070143787 -0.0039795506)
(0.56883666 0.068996077 -0.0042379418)
(0.58411277 0.067784841 -0.0044880301)
(0.59944266 0.06651151 -0.0047295191)
(0.61482185 0.0651827 -0.0049622796)
(0.63024405 0.063799734 -0.0051863966)
(0.64570728 0.062369878 -0.0054032634)
(0.6612062 0.060893313 -0.0056122371)
(0.67674256 0.059375591 -0.0058173478)
(0.69230892 0.057820505 -0.0060148512)
(0.70791147 0.05622828 -0.0062133518)
(0.72354244 0.054600673 -0.0064054744)
(0.73920512 0.052944142 -0.0065992194)
(0.75489706 0.051254492 -0.0067935435)
(0.77061876 0.049538851 -0.0069867746)
(0.78636568 0.047791905 -0.0071803527)
(0.8021384 0.046020108 -0.0073747438)
(0.81793263 0.044221348 -0.0075682788)
(0.83374649 0.042396351 -0.0077610283)
(0.84957633 0.040548255 -0.0079521063)
(0.86541804 0.038674285 -0.0081395952)
(0.88126825 0.036780579 -0.0083231801)
(0.89712324 0.034862729 -0.0085010097)
(0.91297838 0.032929501 -0.0086730776)
(0.9288316 0.030973701 -0.0088362689)
(0.94467962 0.029006959 -0.0089945562)
(0.96051852 0.027023301 -0.0091412809)
(0.97635042 0.025029257 -0.0092834331)
(0.992168 0.023025403 -0.0094148044)
(1.007979 0.021013707 -0.0095420627)
(1.0237766 0.01899762 -0.0096622312)
(1.0395678 0.016972794 -0.0097785899)
(1.0553481 0.014952729 -0.0098925087)
(1.0711255 0.01292096 -0.010003969)
(1.0868956 0.010900545 -0.01011703)
(1.1026671 0.0088664073 -0.010229026)
(1.118435 0.0068467802 -0.010345998)
(1.1342061 0.0048149748 -0.010461966)
(1.1499779 0.0027913258 -0.010583771)
(1.1657507 0.00076731208 -0.010704477)
(0.0018391083 -0.0065376391 -0.0077660305)
(0.0037016741 -0.0090168569 -0.0087094696)
(0.0051750103 -0.012601645 -0.011052812)
(0.0066178454 -0.015280307 -0.01179768)
(0.0091359853 -0.018767966 -0.012502136)
(0.01185053 -0.022114299 -0.012840739)
(0.015106492 -0.025401717 -0.012989268)
(0.018834937 -0.028822301 -0.013006124)
(0.023053595 -0.032209575 -0.012924307)
(0.027614852 -0.035536234 -0.012810244)
(0.032648224 -0.038909559 -0.012637948)
(0.038013755 -0.042189405 -0.012477399)
(0.043782066 -0.04548591 -0.012278897)
(0.049890672 -0.048726042 -0.012122674)
(0.056346869 -0.051927373 -0.011933043)
(0.063148248 -0.055110413 -0.011784534)
(0.070259116 -0.058224392 -0.011621145)
(0.077714223 -0.061333239 -0.011471218)
(0.0854607 -0.06439146 -0.011338019)
(0.093523929 -0.067402298 -0.011203431)
(0.10187671 -0.070394993 -0.011068849)
(0.11052116 -0.073346639 -0.010958049)
(0.11942993 -0.076248191 -0.010832427)
(0.12862495 -0.07914738 -0.010721067)
(0.13805832 -0.081983292 -0.010617784)
(0.14775538 -0.084809105 -0.010506349)
(0.15767739 -0.087597486 -0.010423039)
(0.16783809 -0.090362406 -0.010323251)
(0.17820584 -0.093101831 -0.010254446)
(0.18879383 -0.09582307 -0.010172679)
(0.19957175 -0.098525765 -0.010118618)
(0.21055476 -0.10121881 -0.010065315)
(0.22171353 -0.10388971 -0.010028818)
(0.23307094 -0.10656987 -0.0099986522)
(0.24459016 -0.10922747 -0.0099833692)
(0.25630451 -0.11189944 -0.0099759652)
(0.26817102 -0.11455102 -0.0099734734)
(0.28023155 -0.11723265 -0.0099797289)
(0.29244911 -0.11989585 -0.0099904741)
(0.30485658 -0.12258268 -0.010000741)
(0.31742363 -0.12526435 -0.010013011)
(0.33017941 -0.12796165 -0.010018949)
(0.34309822 -0.13065802 -0.010021915)
(0.3562027 -0.13336572 -0.010014091)
(0.36947157 -0.13607133 -0.0099991556)
(0.38292002 -0.1387823 -0.0099703807)
(0.39652992 -0.14148836 -0.0099319808)
(0.41030952 -0.14419252 -0.009879109)
(0.42424232 -0.1468869 -0.0098162559)
(0.43833082 -0.14957267 -0.0097407654)
(0.45255928 -0.15224284 -0.0096572873)
(0.46692588 -0.15489816 -0.0095651214)
(0.48141557 -0.15753308 -0.009468892)
(0.49602362 -0.16014783 -0.0093692891)
(0.51073605 -0.16273879 -0.009270597)
(0.52554695 -0.16530634 -0.009174202)
(0.54044366 -0.16784833 -0.0090837653)
(0.55542061 -0.17036564 -0.0090005468)
(0.57046717 -0.17285771 -0.0089274261)
(0.58557868 -0.17532548 -0.0088649681)
(0.60074711 -0.17776971 -0.0088149378)
(0.61596933 -0.18019157 -0.0087771699)
(0.63123964 -0.1825923 -0.0087520905)
(0.64655653 -0.18497309 -0.0087387536)
(0.66191636 -0.18733555 -0.0087366306)
(0.67731882 -0.18968029 -0.0087438879)
(0.69276149 -0.19200889 -0.0087598403)
(0.70824522 -0.19432232 -0.0087812942)
(0.72376768 -0.19661916 -0.0088086115)
(0.73932822 -0.19890135 -0.0088374029)
(0.75492567 -0.20117009 -0.0088695801)
(0.77056 -0.20342232 -0.0089007895)
(0.78622772 -0.2056612 -0.0089323431)
(0.8019268 -0.20788303 -0.0089627283)
(0.81765438 -0.21008998 -0.008992221)
(0.83340686 -0.21228082 -0.0090211212)
(0.8491803 -0.21445488 -0.0090500628)
(0.86497131 -0.21661357 -0.0090796858)
(0.88077447 -0.21875545 -0.0091116145)
(0.89658693 -0.22088235 -0.0091469569)
(0.91240388 -0.22299434 -0.009186655)
(0.92822192 -0.2250921 -0.0092330108)
(0.94403839 -0.22717781 -0.0092855721)
(0.95985006 -0.22925141 -0.0093472884)
(0.97565581 -0.23131586 -0.0094166115)
(0.99145394 -0.23337109 -0.0094961626)
(1.0072444 -0.23542029 -0.0095837262)
(1.0230273 -0.2374631 -0.0096810807)
(1.0388032 -0.23950252 -0.0097857433)
(1.0545738 -0.24153812 -0.0098983022)
(1.0703402 -0.24357184 -0.010016507)
(1.0861043 -0.24560333 -0.010139978)
(1.1018676 -0.24763357 -0.010266603)
(1.1176317 -0.24966155 -0.010395772)
(1.1333973 -0.25168785 -0.010525989)
(0 -2.4069987e-18 0)
(0 -1.7575851e-18 0)
(0 1.646298e-18 0)
(0 -1.0402834e-18 0)
(0 -8.9578359e-19 0)
(0 5.0058822e-18 0)
(0 -1.4861746e-18 0)
(-3.4602814e-18 9.6723625e-19 0)
(0 -8.8401783e-19 0)
(0 2.1536496e-18 0)
(0 2.5739393e-18 0)
(0 9.0029011e-19 0)
(0 4.7653425e-19 0)
(0 -9.7060961e-19 0)
(0 6.5976855e-19 0)
(0.003545749 -0.0026780854 0.0055546997)
(0.0040596005 -0.010002432 0.0085650615)
(0.0045943101 -0.010690425 0.0098605318)
(0.0066428041 -0.015337413 0.01141051)
(0.0086004598 -0.017734902 0.011829397)
(0.011547304 -0.021219164 0.012033403)
(0.014720845 -0.024302202 0.01201849)
(0.018579486 -0.027692654 0.011913298)
(0.0227315 -0.030802601 0.011590526)
(0.027381646 -0.034150855 0.011292903)
(0.03245394 -0.037372561 0.010927276)
(0.037790145 -0.040476191 0.010515362)
(0.043654322 -0.043797439 0.010099002)
(0.04971451 -0.046794796 0.0096598549)
(0.056285255 -0.050087082 0.0092118492)
(0.063048939 -0.053037478 0.0087783531)
(0.070237786 -0.056193126 0.0083268805)
(0.077690695 -0.059171824 0.0078588861)
(0.085505264 -0.062227758 0.00741615)
(0.09358574 -0.065182299 0.0069493193)
(0.10198819 -0.068165549 0.0065163984)
(0.11064259 -0.071056401 0.0060570823)
(0.11961716 -0.074031513 0.0056327391)
(0.12880779 -0.076831919 0.0051755814)
(0.1383079 -0.079770537 0.0047768014)
(0.14799649 -0.082528102 0.0043527202)
(0.15796273 -0.085374295 0.0039633242)
(0.16811443 -0.088135498 0.0035794212)
(0.17851344 -0.090911921 0.0032204767)
(0.18908461 -0.093642397 0.0028715761)
(0.19989089 -0.096401915 0.0025575058)
(0.21085228 -0.099079333 0.0022496041)
(0.22202612 -0.10181315 0.0019698631)
(0.23336195 -0.1044782 0.0016994735)
(0.24489226 -0.10719551 0.001452239)
(0.25658293 -0.10984722 0.0012112029)
(0.26846088 -0.1125615 0.00099022204)
(0.28050861 -0.11522826 0.00076700647)
(0.29273496 -0.11793371 0.00055841718)
(0.30513453 -0.12061728 0.00034051163)
(0.31771492 -0.12333198 0.0001304795)
(0.33046927 -0.12603249 -9.1687317e-05)
(0.34340413 -0.12875751 -0.00031337803)
(0.35651311 -0.13147229 -0.00054977754)
(0.36979915 -0.13420479 -0.00078904285)
(0.38325524 -0.13692645 -0.0010435574)
(0.39688097 -0.13965721 -0.0013028003)
(0.41066835 -0.14237497 -0.001574329)
(0.42461276 -0.14509133 -0.0018498162)
(0.43870573 -0.147791 -0.002133153)
(0.45293985 -0.1504796 -0.002417495)
(0.46730536 -0.15314654 -0.0027041448)
(0.48179374 -0.15579431 -0.0029883386)
(0.49639486 -0.15841653 -0.0032691568)
(0.51109951 -0.16101326 -0.0035441215)
(0.52589847 -0.16358235 -0.0038113357)
(0.54078307 -0.16612267 -0.0040702326)
(0.55574525 -0.16863499 -0.0043188207)
(0.57077804 -0.17111835 -0.0045582735)
(0.58587501 -0.17357532 -0.0047869578)
(0.60103096 -0.17600549 -0.0050072192)
(0.6162416 -0.17841233 -0.005218336)
(0.63150334 -0.18079624 -0.0054228856)
(0.64681352 -0.18316034 -0.0056211832)
(0.66217014 -0.18550576 -0.0058155801)
(0.67757143 -0.18783529 -0.0060068012)
(0.69301656 -0.19014876 -0.0061969587)
(0.70850355 -0.19245156 -0.0063859742)
(0.72403439 -0.19473499 -0.0065772422)
(0.73959873 -0.19701446 -0.0067673795)
(0.75520657 -0.19927695 -0.0069604874)
(0.77084727 -0.20152809 -0.0071531479)
(0.78652265 -0.20376643 -0.0073473989)
(0.80222748 -0.20599109 -0.0075406569)
(0.81795936 -0.20820168 -0.0077327356)
(0.83371395 -0.21039663 -0.0079220971)
(0.84948762 -0.21257597 -0.008107663)
(0.86527613 -0.21473844 -0.0082880673)
(0.88107542 -0.21688416 -0.008462245)
(0.89688179 -0.21901254 -0.0086294746)
(0.91269149 -0.22112457 -0.00878899)
(0.92850194 -0.22322009 -0.0089407427)
(0.94431021 -0.22530104 -0.0090847664)
(0.96011507 -0.22736776 -0.0092214783)
(0.97591462 -0.22942302 -0.009351737)
(0.99170921 -0.23146726 -0.009476595)
(1.0074979 -0.23350416 -0.009597073)
(1.0232822 -0.23553347 -0.0097148973)
(1.0390621 -0.23755979 -0.0098308456)
(1.0548397 -0.23958174 -0.0099467877)
(1.0706153 -0.24160424 -0.010062979)
(1.0863909 -0.24362472 -0.010180914)
(1.1021666 -0.24564792 -0.010299926)
(1.117943 -0.24766997 -0.010420548)
(1.1337201 -0.2496954 -0.010541073)
(1.1515194 -0.23594428 -0.010664313)
(1.1535433 -0.22016725 -0.010670394)
(1.1555699 -0.20439422 -0.01067729)
(1.1575967 -0.18861326 -0.010687097)
(1.1596271 -0.17283755 -0.01069772)
(1.1616556 -0.15705078 -0.010710394)
(1.1636871 -0.1412715 -0.010724123)
(1.1657158 -0.12548242 -0.010738594)
(1.1677495 -0.10970107 -0.010753185)
(1.1697735 -0.093910555 -0.010766165)
(1.171804 -0.078131347 -0.010779167)
(1.1738297 -0.062346553 -0.010790966)
(1.1758553 -0.046569354 -0.010799135)
(1.1778795 -0.030792201 -0.010807671)
(1.1799009 -0.01501879 -0.010811913)
(1.1661525 0.0027739672 -0.010689521)
(1.1503815 0.0047896853 -0.010562371)
(1.1346121 0.0068034587 -0.010434021)
(1.1188384 0.0088165241 -0.010310705)
(1.1030655 0.010826796 -0.01019067)
(1.0872877 0.012838325 -0.010075225)
(1.0715058 0.014848571 -0.0099667439)
(1.0557169 0.016860136 -0.009865115)
(1.0399198 0.018870712 -0.0097713925)
(1.024114 0.020881177 -0.0096864746)
(1.0082977 0.022889692 -0.0096099062)
(0.99247166 0.024894797 -0.0095416468)
(0.97663579 0.026895215 -0.0094815251)
(0.9607899 0.028888539 -0.0094293399)
(0.94493812 0.03087142 -0.0093829433)
(0.92908118 0.032843023 -0.0093417955)
(0.91322217 0.034799542 -0.0093039106)
(0.89736396 0.036738707 -0.0092684777)
(0.88151031 0.038658599 -0.0092340342)
(0.86566451 0.040555922 -0.0091992035)
(0.84983034 0.04242985 -0.0091633436)
(0.83401096 0.0442776 -0.0091258373)
(0.8182097 0.046098555 -0.0090862915)
(0.80242868 0.04789114 -0.0090455229)
(0.78667173 0.049654213 -0.009002652)
(0.77093762 0.05138902 -0.0089604102)
(0.7552299 0.05308969 -0.008920793)
(0.73955563 0.054758754 -0.0088805074)
(0.72390044 0.056398869 -0.008846638)
(0.70827733 0.058005438 -0.0088200172)
(0.69268262 0.059577298 -0.0088013417)
(0.67711794 0.061114026 -0.0087925452)
(0.6615831 0.062613272 -0.0087951767)
(0.64608072 0.064072757 -0.0088107513)
(0.63061246 0.065489629 -0.0088393606)
(0.61518216 0.066861209 -0.0088817219)
(0.59979335 0.068183063 -0.0089369028)
(0.58445209 0.069452571 -0.0090047148)
(0.56916388 0.070664184 -0.0090826567)
(0.55393705 0.071815616 -0.0091702346)
(0.53877866 0.072900703 -0.0092635336)
(0.52369913 0.073918107 -0.0093619481)
(0.50870644 0.074861462 -0.0094606331)
(0.49381222 0.07573107 -0.0095595314)
(0.4790245 0.07652065 -0.0096530782)
(0.46435525 0.077232785 -0.0097425967)
(0.44981141 0.077861313 -0.0098221032)
(0.43540443 0.078411435 -0.0098946384)
(0.42113923 0.078877057 -0.0099544741)
(0.4070259 0.079265999 -0.01000637)
(0.39306699 0.079571312 -0.010044723)
(0.37927035 0.079804724 -0.010077003)
(0.36563686 0.079954947 -0.010095989)
(0.35217128 0.080040244 -0.010114281)
(0.3388743 0.080043144 -0.010118876)
(0.32574787 0.079985861 -0.010129291)
(0.31278501 0.079853469 -0.010132162)
(0.29999522 0.079656555 -0.01014243)
(0.28739436 0.079364351 -0.010139697)
(0.27493428 0.07904678 -0.010166265)
(0.26265581 0.078625713 -0.010184187)
(0.25057669 0.078127325 -0.0102055)
(0.23863859 0.077568842 -0.010239378)
(0.22689337 0.07693206 -0.010290349)
(0.21532496 0.076195583 -0.010339184)
(0.20397463 0.075371753 -0.010400633)
(0.19278024 0.074466333 -0.010457767)
(0.18184123 0.073442611 -0.010528793)
(0.17107104 0.072339325 -0.01060811)
(0.16054983 0.071127468 -0.01068898)
(0.15025527 0.069794275 -0.010765179)
(0.1401989 0.068361892 -0.010853938)
(0.1304438 0.066769472 -0.010921038)
(0.12089471 0.065133923 -0.011023759)
(0.11165856 0.063316496 -0.011097539)
(0.10273014 0.061394532 -0.011180901)
(0.094056555 0.059362357 -0.011275103)
(0.085757208 0.05718719 -0.011352022)
(0.077714752 0.054918276 -0.011455877)
(0.07007005 0.052499291 -0.011540798)
(0.062757298 0.049943877 -0.011636458)
(0.055756486 0.047346689 -0.011753213)
(0.049156501 0.044570435 -0.011856139)
(0.042969833 0.041683001 -0.011947223)
(0.03712133 0.038725553 -0.012055466)
(0.031704231 0.035656716 -0.012138532)
(0.026757838 0.03243197 -0.012173301)
(0.022206165 0.029240761 -0.012193483)
(0.01813341 0.025891619 -0.012101501)
(0.014541031 0.022557101 -0.011931765)
(0.011482881 0.01906989 -0.011508956)
(0.0089834581 0.015622555 -0.01087567)
(0.0069770041 0.012435343 -0.0099179269)
(0.0052782678 0.0088282107 -0.0080085753)
(0.0055613857 0.0056431364 -0.0048152134)
(0 2.7423321e-18 0)
(0 1.0431409e-18 0)
(0 2.7074868e-18 0)
(0 2.7255288e-18 0)
(0 2.8406609e-18 0)
(0 1.7083259e-18 0)
(0 6.8101247e-20 0)
(0 -1.5479529e-18 -1.6984526e-18)
(0 1.8329807e-19 0)
(0 1.6479123e-18 0)
(0 3.9736476e-18 0)
(0 3.4817442e-18 0)
(0 2.4922889e-18 0)
(0 2.4086033e-18 0)
(0 2.7504266e-18 0)
(0 1.1440036e-17 0)
(0 4.8710153e-18 0)
(0 1.7875241e-18 0)
(0 3.2263903e-18 0)
(0 -2.8089936e-19 0)
(0 7.5202531e-19 0)
(0 8.5692874e-18 0)
(0 -3.4871673e-18 -1.5121443e-18)
(0 5.0970982e-18 0)
(0 6.3719092e-18 0)
(0 2.1057013e-18 0)
(0 8.6190664e-19 0)
(0 2.0005599e-18 0)
(0 3.6068745e-18 0)
(0 4.6394025e-19 0)
(1.1491814 -0.25357967 -0.010655245)
(1.1491968 -0.2534509 -0.010654317)
(1.1492131 -0.25332139 -0.010655224)
(1.1492295 -0.25319147 -0.010656281)
(1.1492458 -0.25306188 -0.010658693)
(1.1492635 -0.25293152 -0.010660889)
(1.1492818 -0.25280236 -0.010663624)
(1.1493018 -0.25267402 -0.010665131)
(1.1493231 -0.25254784 -0.010666762)
(1.149346 -0.25242356 -0.010666934)
(1.1493696 -0.25230195 -0.010666495)
(1.1493949 -0.25218253 -0.010665228)
(1.1494201 -0.25206515 -0.010663215)
(1.1494453 -0.25194937 -0.010662255)
(1.1494713 -0.25183449 -0.010659221)
(1.181541 -0.0011374437 -0.010823527)
(1.1815597 -0.00101842 -0.010825)
(1.1815792 -0.00089802995 -0.010826766)
(1.1815998 -0.00077628502 -0.010828708)
(1.1816216 -0.00065207328 -0.010829682)
(1.1816452 -0.00052633478 -0.010830322)
(1.1816709 -0.00039858093 -0.010829593)
(1.181698 -0.0002699246 -0.010828433)
(1.1817267 -0.00014037621 -0.010826209)
(1.1817559 -1.0848083e-05 -0.010823846)
(1.1817856 0.00011823818 -0.010821327)
(1.1818145 0.00024659283 -0.010819022)
(1.1818432 0.00037376052 -0.010817809)
(1.1818696 0.00049979525 -0.010816632)
(1.1818961 0.00062555405 -0.010817325)
(0.0020732661 0.0043872312 0.006151539)
(0.003357599 0.0072146538 0.0071036015)
(0.0048418284 0.010218179 0.0086633916)
(0.0069496217 0.013094386 0.0092226427)
(0.0093833573 0.015872836 0.0097680531)
(0.012460894 0.018739004 0.0098952804)
(0.015994537 0.021471555 0.0099543996)
(0.020059913 0.024272138 0.0098282933)
(0.024588788 0.026941836 0.0096545645)
(0.029550394 0.029605914 0.0094014182)
(0.034991364 0.03214873 0.0090976736)
(0.04080679 0.034656796 0.0087777244)
(0.047054039 0.037028849 0.0084194152)
(0.053650512 0.039353152 0.0080558159)
(0.06065782 0.041535054 0.0076721044)
(0.067994897 0.04365843 0.0072862966)
(0.075702983 0.04564292 0.006891406)
(0.083714925 0.047561305 0.0064943954)
(0.092082888 0.049334476 0.0060951401)
(0.1007439 0.051046614 0.0056910741)
(0.10971551 0.052622573 0.00529572)
(0.11897282 0.054108784 0.004893981)
(0.12851223 0.055497904 0.0045010575)
(0.13830641 0.056777551 0.0041134458)
(0.14837097 0.057960335 0.0037307202)
(0.15866817 0.059050759 0.003361344)
(0.16919935 0.06004558 0.0029987348)
(0.17994764 0.060945987 0.0026517731)
(0.1909156 0.061753046 0.0023189924)
(0.2020784 0.062490189 0.0019978575)
(0.21343505 0.063120071 0.0016936525)
(0.22498417 0.063684961 0.0014047027)
(0.23671173 0.064164024 0.0011338012)
(0.24861356 0.064569821 0.00087111406)
(0.26069069 0.064899147 0.00062706029)
(0.27294174 0.065151081 0.00038963083)
(0.2853586 0.065342446 0.00016321652)
(0.29794551 0.065449876 -5.6774188e-05)
(0.31070766 0.065499808 -0.00027391247)
(0.32363455 0.065470999 -0.00048452807)
(0.33673553 0.06537723 -0.00069611973)
(0.35000451 0.065206829 -0.00091209518)
(0.36344349 0.064972156 -0.0011277383)
(0.37705257 0.064658939 -0.0013506262)
(0.39082457 0.064277933 -0.0015783581)
(0.4047601 0.063820399 -0.0018116358)
(0.41885175 0.063290283 -0.0020510988)
(0.43309622 0.062684719 -0.0022960549)
(0.44748355 0.06200516 -0.0025451978)
(0.4620088 0.061250813 -0.0027982446)
(0.47666037 0.060423526 -0.0030528403)
(0.4914312 0.059523366 -0.0033085314)
(0.50630942 0.058553036 -0.0035624663)
(0.52128687 0.057513781 -0.0038144462)
(0.53635222 0.056408502 -0.0040617391)
(0.55149723 0.055239769 -0.0043041687)
(0.56671213 0.054010677 -0.0045399663)
(0.5819896 0.052724291 -0.0047691388)
(0.5973219 0.051384036 -0.0049906618)
(0.61270353 0.049992996 -0.0052052295)
(0.62812859 0.048554355 -0.0054126206)
(0.64359435 0.047072069 -0.0056140005)
(0.65909592 0.045546937 -0.0058093848)
(0.67463345 0.04398405 -0.0060005602)
(0.69020135 0.04238548 -0.0061885059)
(0.70580525 0.040749711 -0.0063732894)
(0.7214402 0.039086393 -0.006557485)
(0.73710077 0.037389304 -0.0067397565)
(0.75279488 0.035664894 -0.0069223349)
(0.76851407 0.033911574 -0.0071051416)
(0.78426232 0.03213308 -0.0072887973)
(0.80003501 0.030330015 -0.0074719515)
(0.81583136 0.02850271 -0.0076556436)
(0.83164704 0.026653545 -0.0078376476)
(0.84747959 0.024782683 -0.0080179029)
(0.86332526 0.022891646 -0.0081948286)
(0.87917989 0.020982633 -0.0083681884)
(0.89503962 0.019055086 -0.0085360398)
(0.91090129 0.017113686 -0.0086987452)
(0.92676026 0.015155333 -0.0088540054)
(0.94261487 0.01318738 -0.009003923)
(0.95846075 0.011206266 -0.0091448214)
(0.97429818 0.0092156481 -0.0092806696)
(0.99012308 0.0072180966 -0.0094089098)
(1.0059387 0.005212566 -0.0095333132)
(1.0217424 0.0032016224 -0.0096515859)
(1.0375377 0.0011860215 -0.0097678348)
(1.0533213 -0.00083321468 -0.0098810174)
(1.069102 -0.0028549455 -0.0099941039)
(1.0848731 -0.004878378 -0.010106431)
(1.1006466 -0.0069045173 -0.010221075)
(1.1164133 -0.0089283383 -0.010336303)
(1.132186 -0.010956567 -0.010453978)
(1.1479556 -0.012980469 -0.010572996)
(1.163728 -0.015004174 -0.010692504)
(0.00061517617 0.0038286694 0.0053262287)
(0.0017934273 0.0054556148 0.0064055125)
(0.0036408949 0.0084275212 0.0074074168)
(0.0055456108 0.010746218 0.0080386135)
(0.0081238508 0.013254401 0.0083602158)
(0.011107988 0.0157074 0.0084591285)
(0.014699561 0.018100993 0.0084810593)
(0.018704245 0.020511172 0.0083443947)
(0.023239683 0.022777569 0.0082084294)
(0.028204283 0.025079191 0.0079310228)
(0.033619681 0.027217554 0.0077030522)
(0.039434017 0.029361777 0.0073691253)
(0.045659367 0.031356457 0.0070798104)
(0.052273212 0.033322149 0.0067219099)
(0.059248136 0.035146332 0.0063997261)
(0.066589174 0.036928476 0.0060284396)
(0.074265714 0.038578473 0.0056851259)
(0.08229055 0.040165159 0.0053147213)
(0.090626085 0.041627782 0.0049583092)
(0.099284448 0.0430306 0.0045864038)
(0.10823399 0.044298651 0.0042270876)
(0.11747848 0.045520043 0.0038575758)
(0.12699579 0.046603849 0.0035043744)
(0.13678583 0.04763746 0.0031459823)
(0.14682587 0.048540682 0.0028017696)
(0.15710898 0.049401581 0.0024578308)
(0.16762248 0.050132871 0.0021311012)
(0.17836123 0.050813657 0.0018144316)
(0.18930584 0.051390863 0.0015047596)
(0.20045464 0.051905323 0.0012114391)
(0.21179559 0.052325719 0.00093428093)
(0.22332619 0.052686582 0.00066738283)
(0.23503031 0.052963805 0.0004106411)
(0.24691625 0.053172628 0.00017284633)
(0.258976 0.053308899 -6.1420212e-05)
(0.27120584 0.05338121 -0.00027933986)
(0.28360748 0.053377232 -0.00049381574)
(0.2961804 0.053311374 -0.00069769245)
(0.30891611 0.053172996 -0.00090210997)
(0.32182514 0.05297293 -0.001097969)
(0.33490352 0.052699075 -0.0013036688)
(0.34815102 0.052364107 -0.0014984925)
(0.36157208 0.051954055 -0.0017081043)
(0.37515822 0.051480398 -0.0019114452)
(0.38891156 0.050935983 -0.0021261314)
(0.40282868 0.050322993 -0.0023398883)
(0.41690318 0.049639724 -0.0025631802)
(0.43113059 0.0488884 -0.0027859316)
(0.44550332 0.048066932 -0.0030164027)
(0.46001419 0.047178914 -0.0032455831)
(0.47465364 0.046222502 -0.0034793791)
(0.48941296 0.04520197 -0.0037103632)
(0.50428195 0.044116617 -0.0039424698)
(0.5192507 0.042970632 -0.0041701258)
(0.53430942 0.041764524 -0.0043955833)
(0.54944843 0.040502739 -0.0046152732)
(0.56465889 0.039186063 -0.0048304661)
(0.57993249 0.037819255 -0.0050389826)
(0.59526214 0.036403411 -0.0052421142)
(0.61064115 0.034942851 -0.0054386922)
(0.62606496 0.033439132 -0.0056299738)
(0.64152899 0.031896346 -0.0058161532)
(0.65702957 0.030313982 -0.0059970965)
(0.67256572 0.02869978 -0.0061762781)
(0.68813381 0.027049566 -0.0063509963)
(0.70373784 0.025370685 -0.0065249043)
(0.71936224 0.023661316 -0.0066964821)
(0.73502518 0.021921721 -0.006868023)
(0.75071739 0.020157824 -0.0070424384)
(0.76643829 0.018368191 -0.0072148119)
(0.78218743 0.016557196 -0.0073890002)
(0.79796068 0.014722795 -0.0075618524)
(0.81375734 0.012868178 -0.0077348537)
(0.82957389 0.010993475 -0.0079058165)
(0.84540831 0.0091006421 -0.0080757526)
(0.86125525 0.0071901036 -0.0082421573)
(0.8771126 0.0052646382 -0.008405938)
(0.892975 0.0033233721 -0.008564316)
(0.90884025 0.0013710823 -0.0087191317)
(0.92470207 -0.00059619596 -0.0088662771)
(0.94056178 -0.0025698787 -0.0090106198)
(0.95641024 -0.0045570101 -0.009145738)
(0.97225356 -0.0065499934 -0.0092778253)
(0.98808157 -0.0085513104 -0.0094044065)
(1.0039039 -0.010556796 -0.0095255968)
(1.0197101 -0.012569135 -0.0096424986)
(1.0355086 -0.014585688 -0.009757026)
(1.0512951 -0.016602573 -0.0098707923)
(1.0670776 -0.018627085 -0.0099822917)
(1.0828504 -0.020647401 -0.010096858)
(1.0986247 -0.022676147 -0.010209158)
(1.1143921 -0.024698089 -0.01032679)
(1.1301645 -0.026727172 -0.010442128)
(1.1459336 -0.028751518 -0.010561981)
(1.1617061 -0.030775302 -0.010681335)
(-0.00022427631 0.0029711428 0.004640281)
(0.00084977109 0.0043908095 0.0053711983)
(0.0022520756 0.0066847657 0.0063598164)
(0.0043209128 0.0087198075 0.0067635277)
(0.0068385128 0.010764659 0.0069736736)
(0.0099219981 0.012902049 0.0070140526)
(0.013465829 0.014874871 0.0070035993)
(0.017509507 0.01688452 0.0068864826)
(0.022045033 0.018775038 0.0067000361)
(0.026993046 0.020671255 0.0065041278)
(0.032411941 0.022434942 0.0062471711)
(0.038207921 0.024190986 0.0059896302)
(0.044446993 0.025818673 0.0056913553)
(0.051016368 0.027412775 0.0054065161)
(0.05800408 0.02888975 0.0050861268)
(0.065310638 0.030318737 0.0047786972)
(0.072998903 0.031629776 0.0044506411)
(0.080981185 0.032888689 0.0041302369)
(0.089323223 0.034035152 0.0037985972)
(0.097948143 0.0351195 0.0034685882)
(0.1068923 0.03610192 0.0031428281)
(0.11611361 0.037013073 0.0028119813)
(0.12562125 0.037829564 0.0024900105)
(0.13538334 0.038575134 0.0021663069)
(0.14540812 0.039231142 0.0018543052)
(0.15566966 0.039817502 0.0015426402)
(0.16616762 0.040312357 0.0012500845)
(0.17687887 0.040750588 0.00095326512)
(0.18780796 0.041095631 0.0006789825)
(0.19893445 0.041383226 0.00041038779)
(0.21025611 0.041587792 0.00015573338)
(0.22176343 0.041735388 -9.4155703e-05)
(0.23345181 0.041802636 -0.00032195866)
(0.2453193 0.041812259 -0.00054882045)
(0.25735603 0.041752759 -0.00076044104)
(0.26956463 0.041626688 -0.00096626025)
(0.28193744 0.041441345 -0.0011626591)
(0.2944788 0.041186252 -0.0013559227)
(0.30719932 0.040872825 -0.0015443431)
(0.32008789 0.040486255 -0.0017363588)
(0.33314478 0.040046255 -0.0019197191)
(0.34637457 0.039534266 -0.0021123742)
(0.35977228 0.038962385 -0.0022984975)
(0.37334024 0.03832275 -0.0024920909)
(0.38707451 0.03762024 -0.0026875798)
(0.40097212 0.036851571 -0.0028870324)
(0.41502774 0.036019703 -0.003088923)
(0.42923772 0.035123029 -0.0032948651)
(0.44359345 0.034163848 -0.0035019979)
(0.45808865 0.033141945 -0.0037115795)
(0.47271319 0.032059544 -0.0039207985)
(0.48745944 0.030917893 -0.0041303831)
(0.50231573 0.029718799 -0.0043376678)
(0.51727386 0.02846471 -0.0045431553)
(0.53232245 0.027157624 -0.0047447105)
(0.54745308 0.025800282 -0.0049427995)
(0.56265573 0.024394871 -0.0051356663)
(0.57792309 0.022944462 -0.005324415)
(0.59324666 0.021451 -0.0055076371)
(0.60862134 0.019917727 -0.0056865829)
(0.6240407 0.018346338 -0.0058610453)
(0.63950102 0.016739408 -0.0060314748)
(0.65499879 0.015099093 -0.0061989173)
(0.6705319 0.013428363 -0.0063647419)
(0.68609868 0.011726077 -0.0065269244)
(0.7016952 0.0099971951 -0.006690087)
(0.7173281 0.0082476735 -0.0068504448)
(0.73298575 0.006463552 -0.0070136547)
(0.74867735 0.0046551057 -0.0071735547)
(0.76439396 0.0028334623 -0.0073362239)
(0.78014019 0.00098501815 -0.0074983391)
(0.79590937 -0.00087958813 -0.0076602317)
(0.81170473 -0.002762955 -0.0078223521)
(0.82751982 -0.0046628365 -0.0079831931)
(0.84335292 -0.0065793392 -0.0081426289)
(0.85919986 -0.008509238 -0.0082989435)
(0.87505705 -0.010452525 -0.0084524767)
(0.89092035 -0.012408255 -0.0086017367)
(0.90678618 -0.01437379 -0.008746596)
(0.92265052 -0.016349654 -0.0088867359)
(0.93851138 -0.018332938 -0.0090221899)
(0.95436387 -0.020326004 -0.0091512399)
(0.97020824 -0.022321995 -0.0092788914)
(0.98604208 -0.024327088 -0.0093982552)
(1.0018644 -0.026332463 -0.0095173002)
(1.0176722 -0.028347097 -0.0096304275)
(1.0334735 -0.030360621 -0.0097463713)
(1.0492626 -0.032382059 -0.009857063)
(1.0650474 -0.034402021 -0.0099716185)
(1.0808221 -0.036426514 -0.010083526)
(1.0965985 -0.038451353 -0.010199564)