/*--------------------------------*- C++ -*----------------------------------*\
  =========                 |
  \\      /  F ield         | OpenFOAM: The Open Source CFD Toolbox
   \\    /   O peration     | Website:  https://openfoam.org
    \\  /    A nd           | Version:  6
     \\/     M anipulation  |
\*---------------------------------------------------------------------------*/
FoamFile
{
    version     2.0;
    format      ascii;
    class       pointVectorField;
    location    "1.93";
    object      lm;
}
// * * * * * * * * * * * * * * * * * * * * * * * * * * * * * * * * * * * * * //

dimensions      [1 -2 -1 0 0 0 0];

internalField   nonuniform List<vector> 
625
(
(0 0 0)
(0 0 0)
(2249.7204 119.72396 -285.02391)
(2204.8613 -300.78578 -324.05104)
(0 0 0)
(0 0 0)
(2248.8395 -276.92967 -324.1754)
(2293.6256 143.6393 -285.37128)
(0 0 0)
(0 0 0)
(0 0 0)
(2238.2332 15.018449 -294.68475)
(2227.4446 -89.886282 -304.29986)
(2216.6225 -195.69554 -314.27881)
(6.6545617 28.061099 27.715809)
(36.314013 56.09315 19.684648)
(87.198597 80.726425 0.98345605)
(153.83086 106.8324 -20.743335)
(233.35553 127.90851 -44.690404)
(322.72301 147.62608 -70.612732)
(420.21817 163.99401 -94.793544)
(523.38378 177.78029 -119.02916)
(630.85658 188.36644 -140.7085)
(740.46695 196.42473 -161.07774)
(851.8365 201.78161 -178.64095)
(963.25198 204.77429 -193.92831)
(1074.5988 205.33752 -207.05114)
(1185.1254 203.97661 -217.9957)
(1294.8019 200.67348 -227.23156)
(1403.3644 195.65222 -235.066)
(1511.0972 189.63905 -242.10991)
(1617.8929 181.50196 -248.06075)
(1724.1375 173.31041 -254.29464)
(1829.6876 163.92707 -259.89304)
(1934.968 153.356 -265.65984)
(2040.1309 142.81486 -272.06856)
(2144.927 131.6989 -278.27231)
(9.9964407 -41.443144 -44.824854)
(44.867369 -81.876779 -49.494075)
(96.497319 -119.64343 -61.253448)
(158.01156 -150.20152 -77.767215)
(235.25821 -175.39733 -93.767095)
(321.19377 -193.34519 -112.76482)
(414.73674 -207.70545 -131.7883)
(514.5838 -216.16163 -150.5057)
(618.19186 -222.6653 -168.72482)
(724.47984 -225.39963 -185.89824)
(831.93779 -227.17412 -201.76396)
(940.55618 -228.01776 -216.15763)
(1048.4503 -228.42249 -229.44369)
(1156.2782 -229.4178 -241.14805)
(1263.1966 -231.14597 -251.91202)
(1369.3637 -234.02264 -261.64581)
(1474.7792 -238.19203 -270.60058)
(1579.503 -243.70655 -279.07285)
(1683.8496 -250.65444 -286.96579)
(1787.8086 -258.67078 -294.78472)
(1891.8752 -268.09771 -302.1042)
(1995.7588 -278.17553 -309.62169)
(2100.3123 -289.16861 -316.71503)
(0 0 0)
(0 0 0)
(0 0 0)
(4.322561 -12.510029 24.209355)
(35.871145 -48.261986 13.295263)
(91.473877 -67.073416 -9.6640561)
(161.77737 -84.671837 -35.203864)
(242.78469 -102.87194 -60.045637)
(334.0635 -117.762 -86.463033)
(432.4029 -128.97405 -112.35662)
(535.20195 -140.54717 -137.5609)
(642.64573 -150.1153 -160.47648)
(751.31642 -157.67375 -182.15308)
(861.75084 -165.89859 -200.93373)
(971.68542 -172.27276 -217.97716)
(1081.7087 -179.4088 -232.44915)
(1190.8095 -185.88031 -245.32231)
(1299.0978 -192.77852 -256.32291)
(1406.4918 -199.93327 -265.99857)
(1513.0652 -207.48006 -274.67637)
(1618.9544 -215.63469 -282.5275)
(1724.3608 -224.33505 -289.93684)
(1829.386 -233.6801 -297.00886)
(1934.2273 -243.66732 -303.88933)
(2039.0242 -254.30175 -310.69105)
(2143.9074 -265.20455 -317.46997)
(2260.5855 -171.77372 -314.45842)
(2271.1711 -65.96754 -304.76291)
(2281.9224 38.614467 -295.07952)
(2188.5043 155.32445 -278.67128)
(2082.7166 166.75055 -272.46895)
(1976.6306 177.8718 -266.13934)
(1869.7807 189.07075 -260.31842)
(1762.2523 199.92463 -254.42615)
(1653.9663 210.54653 -248.57964)
(1544.6958 220.85919 -242.52357)
(1434.5078 230.69121 -236.00622)
(1323.2908 239.93006 -228.77484)
(1211.1177 248.25324 -220.65865)
(1098.2184 255.28637 -211.08581)
(984.78963 260.7091 -200.30385)
(871.46296 263.6298 -187.83124)
(758.78581 264.49636 -173.78949)
(648.3392 260.07215 -157.37504)
(540.33875 253.42416 -141.50959)
(436.73467 241.16859 -123.22836)
(339.38648 223.19138 -105.35767)
(251.66718 199.60646 -87.189058)
(171.69148 170.5992 -71.775781)
(106.90975 133.6502 -57.563895)
(55.837208 93.187611 -44.315024)
(35.755858 46.832592 -26.801493)
(0 0 0)
(0 0 0)
(0 0 0)
(0 0 0)
(0 0 0)
(0 0 0)
(2215.8351 -294.72804 -324.08697)
(2226.6596 -288.64621 -324.11121)
(2237.46 -282.53364 -324.06809)
(2260.8168 125.42304 -285.24999)
(2271.7784 131.59328 -285.53982)
(2282.9557 137.72776 -285.30679)
(-3.4820405 9.9807225 13.136857)
(26.512706 16.966672 0.0013273912)
(78.95325 26.612331 -16.188177)
(145.7311 38.251447 -35.565097)
(225.75571 48.051205 -58.195261)
(316.23672 59.333336 -80.83258)
(414.50647 68.432913 -104.17917)
(517.83457 77.449126 -126.4229)
(625.26237 84.549298 -147.54429)
(735.27848 90.51602 -166.87873)
(846.24572 94.723412 -183.92635)
(957.52815 97.132299 -199.28664)
(1068.3883 97.876805 -212.38462)
(1178.4353 96.894311 -223.62326)
(1287.5337 94.062405 -233.35705)
(1395.4239 89.849058 -241.80333)
(1502.6641 83.951366 -249.23872)
(1608.6563 76.708072 -255.97576)
(1714.4041 68.644948 -262.63035)
(1819.3653 59.077902 -268.60769)
(1924.2559 48.775002 -275.14144)
(2028.9213 38.114724 -281.43231)
(2133.4293 26.630665 -287.96005)
(-5.7727742 -7.0746857 -6.7771144)
(27.0351 -15.026314 -19.086392)
(78.345413 -19.842496 -33.450611)
(144.77532 -22.277987 -50.84654)
(224.70116 -24.176193 -71.147045)
(314.2067 -22.980515 -92.175584)
(411.29483 -21.845637 -113.52472)
(514.12985 -18.807301 -134.48885)
(621.02278 -16.704632 -154.1725)
(730.02054 -13.689661 -172.60055)
(840.29743 -11.929355 -189.22411)
(950.89395 -10.661103 -204.13405)
(1061.11 -10.516779 -217.15227)
(1170.6448 -11.760029 -228.65028)
(1279.1005 -14.266696 -238.78186)
(1386.708 -18.2121 -247.67334)
(1493.2938 -23.582459 -255.74762)
(1599.004 -30.1528 -263.2399)
(1704.4226 -38.089281 -270.27935)
(1808.9006 -46.913861 -277.11881)
(1913.7639 -56.953508 -283.84235)
(2018.0286 -67.270886 -290.73373)
(2122.6848 -78.633779 -297.52339)
(-3.9716424 -23.105556 -21.858888)
(29.802755 -43.482928 -34.343097)
(81.941352 -64.483667 -46.560308)
(147.03452 -80.967 -63.688531)
(226.50231 -94.298159 -82.449493)
(314.51798 -103.53545 -101.8958)
(410.96221 -109.6344 -122.46779)
(512.98071 -113.68467 -142.09404)
(618.58574 -115.54429 -161.40836)
(726.7235 -116.36731 -179.14567)
(836.19827 -116.83175 -195.51831)
(945.80803 -116.97294 -210.24562)
(1055.2901 -117.87542 -223.40538)
(1163.8993 -119.33248 -235.17372)
(1271.7337 -121.94585 -245.55416)
(1378.6118 -125.68749 -254.93908)
(1484.472 -130.72956 -263.48567)
(1589.8669 -137.0463 -271.36511)
(1694.4062 -144.50651 -278.92641)
(1798.9122 -153.16519 -286.02901)
(1903.0187 -162.76478 -293.2769)
(2007.2613 -173.01929 -300.22101)
(2111.8279 -184.30326 -307.16414)
(0 0 0)
(0 0 0)
(0 0 0)
(0 0 0)
(0 0 0)
(0 0 0)
(0 0 0)
(0 0 0)
(0 0 0)
(22.57876 -17.068842 -16.291946)
(23.070055 -18.389433 -2.4842981)
(16.982672 -12.412282 10.514907)
(61.054698 -73.305549 -32.0685)
(58.142687 -63.770041 -16.578528)
(52.401776 -55.77037 1.5219887)
(105.31731 -104.18241 -45.174062)
(106.13817 -93.017018 -29.939739)
(103.9233 -84.854987 -19.082445)
(169.18544 -133.4662 -64.17349)
(173.50617 -119.10754 -53.132165)
(170.38564 -106.77054 -42.185996)
(246.05398 -156.37833 -83.794119)
(248.42739 -140.70495 -74.227185)
(248.37477 -124.77534 -66.600685)
(330.49537 -174.55992 -105.01113)
(335.58365 -156.24823 -97.90337)
(337.17767 -140.43807 -91.622812)
(424.65688 -187.58239 -126.46848)
(429.73559 -170.70466 -121.90117)
(432.90266 -153.32452 -116.26663)
(523.56419 -198.47973 -147.12304)
(529.73307 -178.94189 -144.0188)
(533.49409 -162.87135 -140.41959)
(627.02154 -204.41766 -166.8297)
(633.26444 -187.60883 -165.69665)
(638.94201 -171.79936 -162.58337)
(732.67574 -209.44436 -185.54754)
(739.86927 -193.23978 -184.99867)
(746.31214 -177.80564 -183.42682)
(840.56675 -212.70753 -202.07342)
(847.87728 -197.72125 -202.97405)
(855.22121 -183.61322 -201.83883)
(948.47009 -214.86169 -217.41097)
(956.22845 -201.3174 -218.82294)
(964.40256 -188.46416 -218.18644)
(1056.7351 -217.11373 -230.86717)
(1064.9111 -205.01122 -232.65273)
(1073.5183 -193.28548 -232.49215)
(1164.4879 -219.37626 -242.86283)
(1172.8725 -208.51739 -245.00537)
(1182.0893 -198.2145 -245.03216)
(1271.5931 -222.38448 -253.60658)
(1280.3792 -212.85221 -255.67718)
(1289.9163 -203.38268 -255.89793)
(1378.008 -226.26069 -263.21465)
(1387.085 -217.62997 -265.27375)
(1396.9518 -209.25451 -265.49318)
(1483.6885 -231.15071 -272.04884)
(1493.0647 -223.47691 -273.84965)
(1503.259 -215.73717 -274.13949)
(1588.7633 -237.29591 -280.20961)
(1598.5553 -230.17983 -281.80463)
(1608.8988 -223.06437 -282.00669)
(1693.4604 -244.52036 -287.9912)
(1703.472 -237.93185 -289.24871)
(1714.0405 -231.20415 -289.45149)
(1797.7826 -252.86783 -295.46423)
(1808.1562 -246.54355 -296.39887)
(1818.8721 -240.11775 -296.60054)
(1902.0103 -262.22972 -302.68387)
(1912.6426 -256.00589 -303.41227)
(1923.4814 -249.79352 -303.56741)
(2006.3353 -272.37047 -310.03181)
(2017.187 -266.40697 -310.40514)
(2028.0981 -260.37441 -310.46284)
(2110.9048 -283.29297 -316.89724)
(2121.8871 -277.19388 -317.06311)
(2132.9263 -271.10909 -317.2197)
(2249.2675 20.701305 -294.90245)
(2260.2175 26.689877 -295.16029)
(2271.2855 32.740936 -295.00998)
(2238.4506 -84.069862 -304.4777)
(2249.3098 -77.968415 -304.83144)
(2260.1628 -71.839661 -304.60036)
(2227.6469 -189.64408 -314.41916)
(2238.5231 -183.53601 -314.37674)
(2249.5177 -177.68075 -314.4284)
(25.805036 28.659257 14.476281)
(33.011396 34.711902 4.401913)
(36.103454 39.440073 -6.8656568)
(54.054448 65.256649 6.0707175)
(61.581382 75.480035 -8.2720808)
(66.066582 79.9032 -26.8109)
(104.65897 97.07782 -10.898534)
(110.57629 109.70265 -23.470898)
(114.39216 119.10998 -41.822965)
(168.57265 124.66894 -31.983907)
(174.20561 140.99013 -43.188216)
(177.7277 153.23388 -58.525456)
(245.22314 149.89456 -54.310333)
(251.56761 166.09397 -65.062809)
(254.65399 181.64058 -76.337122)
(333.9512 169.81316 -79.276796)
(338.27691 188.48454 -85.549962)
(342.5206 204.03151 -97.207687)
(429.86576 185.82809 -102.54073)
(434.33627 203.60589 -108.7368)
(437.81306 221.21817 -117.06204)
(532.00686 198.61268 -125.61019)
(535.77453 217.36882 -130.10036)
(539.72837 234.74066 -136.80885)
(637.94468 208.6747 -146.12734)
(642.51693 225.04509 -150.21934)
(646.88469 242.63655 -154.72241)
(747.79495 214.5412 -166.1265)
(751.82043 230.5112 -167.72683)
(756.11305 247.28007 -172.10666)
(858.34556 218.13602 -182.47725)
(862.74486 232.80069 -184.48299)
(867.657 249.04388 -187.28896)
(969.80999 219.15516 -197.40265)
(974.80915 232.45447 -198.60525)
(980.04629 247.52934 -200.23604)
(1081.2224 217.92219 -209.79619)
(1086.6612 229.74555 -210.45713)
(1092.4911 243.74691 -211.58522)
(1191.9755 214.77107 -220.21698)
(1198.1867 225.27575 -220.70004)
(1204.5095 238.24145 -221.34174)
(1302.0563 209.9753 -229.01338)
(1308.868 219.37441 -229.37512)
(1315.8973 231.21317 -229.54152)
(1411.0554 203.84486 -236.594)
(1418.758 212.17894 -236.70048)
(1426.3559 223.03581 -236.76371)
(1519.3906 196.49872 -243.03455)
(1527.691 204.07638 -243.3015)
(1535.8965 214.00062 -243.17602)
(1626.7235 188.04846 -249.10294)
(1635.6803 195.2031 -249.30301)
(1644.5618 204.28335 -249.09139)
(1733.38 179.21922 -254.82344)
(1743.0153 185.64928 -254.91706)
(1752.4542 193.9875 -254.77464)
(1839.5568 169.16878 -260.3352)
(1849.7156 175.68706 -260.78053)
(1859.511 183.35351 -260.52064)
(1945.3301 158.84724 -266.07838)
(1955.8251 164.94584 -266.42651)
(1966.0633 172.24781 -266.21954)
(2050.7479 148.13139 -272.49584)
(2061.5138 154.52359 -272.51105)
(2072.059 161.09332 -272.46319)
(2156.1 136.94271 -278.45667)
(2166.8381 143.12839 -278.39748)
(2177.7839 149.45781 -278.62138)
(8.5730457 15.068329 -24.724287)
(43.096072 61.175866 -34.21517)
(91.958708 80.192915 -47.3936)
(159.86703 103.48374 -62.947677)
(241.33511 121.36946 -81.995724)
(331.8518 135.17161 -100.14056)
(430.54865 145.78306 -120.40917)
(535.08733 152.64307 -139.49089)
(644.02916 155.45249 -157.37856)
(755.0349 157.02801 -174.46638)
(867.66375 154.72022 -189.9118)
(980.79305 150.82196 -203.11193)
(1093.708 145.50599 -215.19328)
(1205.9131 138.74201 -225.59505)
(1317.2818 130.94303 -234.58524)
(1427.6312 122.45666 -242.67144)
(1536.9152 113.35454 -249.90207)
(1645.3264 103.71856 -256.5921)
(1752.8302 93.74132 -263.00238)
(1859.6463 83.307941 -269.26694)
(1965.9717 72.578703 -275.4934)
(2071.4916 61.646993 -281.88145)
(2176.9021 50.193483 -288.37215)
(-2.6322565 9.6032682 -6.8793924)
(31.952627 32.462981 -23.60876)
(85.645662 33.374669 -35.311661)
(155.45606 46.422272 -55.916599)
(237.86564 49.9379 -74.909412)
(328.84648 54.646906 -96.761467)
(428.65442 57.061956 -117.93502)
(533.50265 57.581651 -139.08457)
(642.29565 55.701757 -158.31483)
(753.28495 54.01353 -177.1409)
(865.66696 49.32157 -193.20462)
(978.04456 44.311723 -207.91044)
(1090.2861 38.341 -220.85261)
(1201.5594 31.310953 -231.92772)
(1312.0163 23.748724 -241.70813)
(1421.3224 15.608407 -250.38452)
(1529.7177 6.9240091 -258.04998)
(1637.1602 -2.3133305 -265.25113)
(1743.9155 -11.884939 -271.92223)
(1850.0038 -22.031903 -278.56599)
(1955.7726 -32.636167 -285.00069)
(2060.8581 -43.534846 -291.64518)
(2166.4084 -55.037837 -298.12551)
(-8.2291297 -2.8280774 1.8323367)
(29.771129 0.6700761 -8.3266058)
(85.441159 -7.7802164 -21.93764)
(155.3075 -12.593404 -44.211003)
(237.19593 -17.84697 -66.349282)
(328.5576 -23.327628 -89.955633)
(428.49054 -29.548234 -113.52971)
(532.46924 -34.835851 -136.27841)
(641.22575 -40.953382 -157.85736)
(751.36751 -47.070928 -177.72568)
(862.96209 -53.813667 -195.4859)
(974.47008 -60.502136 -211.5085)
(1085.6719 -67.586875 -225.36385)
(1196.1385 -75.16445 -237.52595)
(1305.5821 -82.850962 -248.1989)
(1414.0579 -91.027468 -257.51817)
(1521.6145 -99.574426 -265.91774)
(1628.3415 -108.50563 -273.59248)
(1734.4873 -117.93038 -280.75277)
(1840.075 -127.86365 -287.73479)
(1945.3914 -138.17988 -294.38177)
(2050.4595 -149.10312 -301.12722)
(2155.6233 -160.14121 -307.72152)
(7.2698866 7.8985986 6.3857068)
(10.577751 10.160923 0.75961487)
(14.924698 12.665822 -7.2998164)
(42.771649 27.47577 -5.678217)
(47.583153 37.514786 -13.176418)
(50.079922 41.753807 -26.516946)
(93.60119 44.060429 -21.610012)
(99.161102 54.232558 -30.510537)
(100.84844 67.028053 -38.502611)
(158.67723 57.676173 -42.003544)
(164.47686 72.634676 -48.610537)
(166.07286 85.145697 -55.983707)
(238.35973 70.1895 -63.500567)
(243.07811 86.622615 -68.802781)
(245.88997 103.00075 -76.185182)
(326.66087 81.14888 -86.142147)
(331.70728 99.191527 -91.098083)
(334.93915 115.67029 -96.075915)
(423.8623 90.857878 -108.68627)
(428.55044 108.38593 -112.72752)
(431.85912 126.2435 -116.68281)
(526.03143 98.446005 -130.69697)
(530.60448 115.90001 -133.45412)
(535.06525 133.82306 -137.49468)
(633.00483 104.19183 -151.21324)
(638.05093 121.0792 -153.80929)
(642.31192 138.5028 -155.8521)
(742.36476 108.2034 -170.09963)
(747.19022 123.88242 -171.69564)
(752.15068 140.20742 -173.4833)
(852.92881 110.56936 -186.6754)
(858.16683 124.80176 -188.06771)
(863.65893 140.67813 -189.54191)
(964.11321 110.87574 -201.67143)
(969.82859 124.02329 -202.48481)
(975.73442 138.10686 -203.07165)
(1075.0825 109.7692 -214.31198)
(1081.1939 121.31724 -214.78327)
(1087.6847 134.33495 -215.23138)
(1185.3776 106.90428 -225.2608)
(1192.0955 117.35427 -225.57659)
(1199.1149 129.07353 -225.76469)
(1294.8381 102.6927 -234.64563)
(1302.1118 112.02082 -234.76715)
(1309.6694 122.53115 -234.76828)
(1403.3207 97.17404 -242.82555)
(1411.2109 105.51393 -242.84911)
(1419.3384 114.98481 -242.82471)
(1510.9198 90.35437 -250.01047)
(1519.4173 98.080016 -250.05411)
(1528.0601 106.64517 -249.96098)
(1617.6473 82.584962 -256.66327)
(1626.6996 89.728495 -256.67553)
(1635.8327 97.523371 -256.62157)
(1723.7893 74.107675 -263.00967)
(1733.3464 80.695467 -263.00248)
(1743.0601 87.815117 -262.94728)
(1829.228 64.131937 -269.08024)
(1839.3683 70.692801 -269.09795)
(1849.2543 77.527737 -269.21857)
(1934.5798 54.160164 -275.36158)
(1945.2551 60.611063 -275.39098)
(1955.4005 66.922463 -275.37048)
(2039.6188 43.346012 -281.60771)
(2050.1807 49.732788 -281.683)
(2060.7254 55.696451 -281.79903)
(2144.3744 32.231568 -288.05573)
(2155.204 38.507507 -288.20107)
(2166.1648 44.388463 -288.28113)
(2.424783 -0.21990947 -2.4983559)
(5.435349 2.6736217 -2.5331113)
(7.7931794 5.0402298 -1.8001895)
(39.644094 -3.0335919 -17.122331)
(43.101975 6.5124632 -17.058503)
(43.15257 11.898511 -20.283296)
(90.494802 -3.0637367 -32.761093)
(95.756205 6.2677655 -32.53919)
(94.773602 20.105306 -33.45986)
(157.5789 -4.7812799 -51.353422)
(161.84305 12.107086 -50.729737)
(162.09168 24.545067 -52.713059)
(234.95081 -2.8647924 -72.107404)
(241.24319 12.172773 -71.796731)
(242.0262 28.885745 -73.910647)
(324.46562 -2.0059757 -93.988555)
(329.61899 15.571823 -93.841021)
(331.21671 32.954452 -95.457807)
(420.25313 -0.33750408 -115.61473)
(426.31595 16.537951 -115.04556)
(428.67472 34.782492 -117.41113)
(522.60573 1.3673984 -137.06618)
(528.60424 18.592275 -137.01193)
(531.57279 37.026576 -139.11622)
(628.8305 2.9131615 -156.78927)
(635.00321 18.60425 -156.68797)
(638.85134 36.342311 -158.70922)
(737.40763 3.9356526 -175.45925)
(743.79423 18.674705 -175.36987)
(748.2288 35.899328 -177.48451)
(847.61618 3.9820338 -191.95274)
(854.17723 17.672451 -191.87782)
(859.3878 33.734441 -194.07154)
(958.06414 3.4827801 -206.75703)
(964.96445 15.594975 -206.8393)
(970.79631 30.297008 -208.65643)
(1068.353 1.7860749 -219.59669)
(1075.6906 12.566682 -219.61702)
(1082.0551 26.205885 -221.57029)
(1178.0839 -1.0860684 -230.82603)
(1185.7093 8.5990637 -230.93493)
(1192.7347 20.969778 -232.66367)
(1286.8762 -4.938729 -240.66219)
(1294.9495 3.5999975 -240.80885)
(1302.5849 14.747894 -242.30729)
(1394.8262 -10.130946 -249.29927)
(1403.2926 -2.3950053 -249.42484)
(1411.5413 7.7912394 -250.82233)
(1501.8452 -16.35192 -257.06008)
(1510.7698 -9.2497963 -257.27292)
(1519.5473 -0.055864852 -258.40489)
(1608.092 -23.650284 -264.28456)
(1617.387 -17.106673 -264.47256)
(1626.782 -8.5705469 -265.44198)
(1713.7839 -31.960525 -271.08465)
(1723.5548 -25.613629 -271.30148)
(1733.3255 -17.934178 -272.00269)
(1818.9358 -41.272283 -277.73178)
(1828.9608 -35.337052 -277.93565)
(1839.2451 -27.682646 -278.57622)
(1924.2034 -50.983953 -284.1108)
(1934.0875 -45.275792 -284.86289)
(1945.0654 -38.124845 -284.84048)
(2028.3839 -61.748452 -291.19061)
(2039.2673 -55.42734 -291.24562)
(2049.9504 -49.187297 -291.56671)
(2133.6111 -72.802936 -297.62196)
(2144.3679 -66.841003 -297.73628)
(2155.426 -60.597306 -297.9285)
(5.3953722 -9.5326036 -8.854502)
(4.7333368 -8.0821409 -2.6340866)
(3.3464149 -4.586839 2.3815948)
(44.663099 -30.94649 -24.265079)
(46.227479 -23.10695 -16.273962)
(41.754096 -14.324107 -11.597595)
(94.475414 -48.521994 -37.975496)
(98.002401 -37.688758 -32.723952)
(93.885256 -23.41982 -26.518758)
(159.78541 -62.809306 -56.731953)
(162.63631 -49.556243 -51.215635)
(162.60329 -33.829809 -47.059343)
(237.62848 -74.081281 -77.226078)
(242.24156 -59.107382 -73.584726)
(242.23677 -40.923149 -70.039214)
(325.34119 -83.03581 -98.475978)
(329.57823 -66.869455 -94.961368)
(331.64317 -46.891752 -92.654473)
(420.81904 -89.225741 -120.28237)
(425.83515 -72.359971 -118.05719)
(429.22179 -52.443912 -116.56812)
(522.29946 -93.760908 -141.29497)
(527.06806 -77.143369 -139.95338)
(531.98875 -57.806267 -138.60095)
(627.24195 -97.080486 -161.55147)
(632.87306 -81.090423 -160.43727)
(638.69429 -61.855649 -159.95991)
(735.18667 -99.623126 -180.04307)
(740.76877 -83.908531 -179.72239)
(747.75011 -66.447225 -179.54514)
(844.19184 -101.54066 -196.91041)
(850.36791 -87.372245 -196.80906)
(858.14057 -71.071077 -197.02159)
(953.78141 -103.64231 -212.0164)
(960.19898 -90.418549 -212.28482)
(968.764 -75.866485 -212.72621)
(1063.2179 -106.16737 -225.29323)
(1070.0696 -94.072386 -225.67964)
(1079.0958 -80.970629 -226.28385)
(1171.9746 -109.17589 -237.06599)
(1179.2325 -98.153231 -237.61452)
(1188.8365 -86.748058 -238.25266)
(1280.014 -113.07904 -247.34988)
(1287.7399 -102.99925 -247.90511)
(1297.653 -92.97457 -248.58866)
(1387.131 -117.9067 -256.56284)
(1395.3498 -108.70249 -257.08354)
(1405.6208 -99.887283 -257.78613)
(1493.433 -123.77467 -264.83621)
(1502.1454 -115.20043 -265.38229)
(1512.6162 -107.42351 -265.9733)
(1599.0825 -130.59888 -272.55134)
(1608.3059 -122.6567 -272.94988)
(1618.9769 -115.71943 -273.54608)
(1704.1209 -138.55292 -279.78021)
(1713.7773 -131.01221 -280.17349)
(1724.6046 -124.55179 -280.64648)
(1808.8735 -147.3408 -286.75304)
(1819.0992 -140.16216 -287.1119)
(1829.8977 -134.25229 -287.53289)
(1913.3327 -156.94594 -293.75188)
(1923.7938 -149.95558 -293.92485)
(1934.7739 -144.13922 -294.24232)
(2017.8932 -167.35432 -300.57248)
(2028.7504 -160.71575 -300.75743)
(2039.7558 -155.07894 -300.86734)
(2122.5628 -178.25363 -307.27376)
(2133.559 -171.76413 -307.44391)
(2144.4772 -166.39249 -307.66687)
)
;

boundaryField
{
    free
    {
        type            zeroGradient;
    }
    fixed
    {
        type            fixedValue;
        value           uniform (0 0 0);
    }
    traction
    {
        type            zeroGradient;
    }
}


// ************************************************************************* //
