/*--------------------------------*- C++ -*----------------------------------*\
  =========                 |
  \\      /  F ield         | OpenFOAM: The Open Source CFD Toolbox
   \\    /   O peration     | Website:  https://openfoam.org
    \\  /    A nd           | Version:  6
     \\/     M anipulation  |
\*---------------------------------------------------------------------------*/
FoamFile
{
    version     2.0;
    format      ascii;
    class       pointVectorField;
    location    "0.98";
    object      u;
}
// * * * * * * * * * * * * * * * * * * * * * * * * * * * * * * * * * * * * * //

dimensions      [0 1 0 0 0 0 0];

internalField   nonuniform List<vector> 
3969
(
(0 -4.3337937e-20 0)
(0 -2.3241807e-19 0)
(-0.43127344 -0.048620186 0.030222217)
(-0.43483208 0.035555953 0.024813963)
(0 2.3715651e-18 0)
(0 1.9146494e-18 0)
(-0.42868795 0.027275974 0.024741972)
(-0.42514179 -0.056920976 0.030181769)
(0 1.0136925e-19 0)
(0 6.1092201e-19 0)
(0 2.6624885e-19 0)
(-1.5329913e-18 -1.3803429e-19 0)
(0 7.3582179e-19 0)
(0 -4.2358891e-19 0)
(0 -4.1310887e-19 0)
(-0.43171984 -0.038083287 0.029544154)
(-0.43218327 -0.027537951 0.028876105)
(-0.43263117 -0.017008284 0.028205551)
(-0.43308275 -0.0064717689 0.0275372)
(-0.43352567 0.004056221 0.026866905)
(-0.43395525 0.014570238 0.026191534)
(-0.43438684 0.025063247 0.02550372)
(-0.00098560568 -0.0028827801 -0.0031589179)
(-0.0015195092 -0.005063024 -0.0039491117)
(-0.0031800925 -0.0073429835 -0.0043122635)
(-0.0055588792 -0.0098759276 -0.0042899889)
(-0.0087448763 -0.012179993 -0.004211192)
(-0.012589088 -0.014693376 -0.0039574864)
(-0.017181307 -0.016965898 -0.0037236727)
(-0.022346791 -0.019364303 -0.0033907044)
(-0.028228545 -0.021522859 -0.0030627253)
(-0.034652805 -0.023770964 -0.0026607343)
(-0.041715441 -0.025790651 -0.0022533182)
(-0.049303077 -0.027868633 -0.0017653425)
(-0.057443385 -0.029707959 -0.0012789393)
(-0.066061548 -0.0315625 -0.00070861004)
(-0.07513462 -0.033213403 -0.0001214289)
(-0.084628374 -0.034816167 0.00051758088)
(-0.094480635 -0.036250786 0.0011850653)
(-0.1046827 -0.037598044 0.0018921346)
(-0.11515717 -0.038792792 0.0026331859)
(-0.12588798 -0.03987525 0.0033956986)
(-0.13680504 -0.040824164 0.0041897372)
(-0.14788979 -0.041656341 0.0049941914)
(-0.1590822 -0.042365995 0.005820834)
(-0.17036358 -0.042969319 0.0066557492)
(-0.18168294 -0.043477646 0.0075016788)
(-0.19303141 -0.043878755 0.0083555019)
(-0.20436346 -0.044204957 0.0092151929)
(-0.21567247 -0.044466778 0.010081701)
(-0.22693748 -0.044654703 0.010959807)
(-0.23815138 -0.044812226 0.011845449)
(-0.24930221 -0.044921263 0.012745093)
(-0.26038753 -0.045015227 0.01365956)
(-0.2714066 -0.045089727 0.014589156)
(-0.28235994 -0.045160552 0.015534477)
(-0.29324679 -0.045239479 0.01650452)
(-0.30407412 -0.045323317 0.017481234)
(-0.31484663 -0.045423638 0.018485896)
(-0.32556548 -0.045553079 0.019507813)
(-0.33623789 -0.045698292 0.020533587)
(-0.34687408 -0.045889919 0.021588376)
(-0.35747033 -0.046096751 0.022641857)
(-0.36805252 -0.046351613 0.023719314)
(-0.37859453 -0.046647419 0.024796113)
(-0.38915553 -0.046957269 0.025883612)
(-0.39966866 -0.047341564 0.026973941)
(-0.41021773 -0.047724726 0.028064019)
(-0.42075173 -0.048163361 0.029154957)
(-0.00060246922 0.0032536985 0.0042956629)
(-0.0024814449 0.0056207108 0.0040864133)
(-0.0041504005 0.0084463528 0.0048129281)
(-0.0066495025 0.010966377 0.0046755642)
(-0.010127255 0.013949978 0.0045844911)
(-0.014092913 0.016588662 0.0044212289)
(-0.018894303 0.019381638 0.0042224692)
(-0.024277152 0.021913341 0.0040426487)
(-0.030371089 0.024496118 0.0038652145)
(-0.03701289 0.026795979 0.0036905371)
(-0.044332648 0.029131813 0.0035556966)
(-0.052131001 0.031166781 0.0034039848)
(-0.060514188 0.033173946 0.0033064309)
(-0.069354707 0.034937692 0.003186491)
(-0.078657775 0.036574401 0.0031301047)
(-0.088356193 0.038007069 0.0030692102)
(-0.098432942 0.039290984 0.0030667748)
(-0.10879218 0.040365211 0.0030789573)
(-0.11946849 0.041305622 0.0031413771)
(-0.13030078 0.042030714 0.0032431497)
(-0.14138362 0.0426466 0.0033876201)
(-0.15253167 0.043058855 0.0035840738)
(-0.16383392 0.043374305 0.0038278978)
(-0.1751516 0.043529817 0.0041267936)
(-0.1865348 0.043594329 0.004474097)
(-0.197876 0.043538865 0.0048856925)
(-0.2092423 0.043428087 0.0053509072)
(-0.22053528 0.043213468 0.005874858)
(-0.23178534 0.042962562 0.006454263)
(-0.24296926 0.042659848 0.0070914811)
(-0.25407663 0.042324717 0.0077841163)
(-0.26511502 0.041964248 0.008530277)
(-0.27607273 0.041585062 0.0093280028)
(-0.28696138 0.041193411 0.01017235)
(-0.29778027 0.040796318 0.011060744)
(-0.30853429 0.040392468 0.011985834)
(-0.31922477 0.039989797 0.012955229)
(-0.32986908 0.039588047 0.013943955)
(-0.340463 0.039187672 0.014973636)
(-0.35101485 0.03879489 0.01601988)
(-0.36153409 0.038396577 0.017096458)
(-0.37202883 0.038004903 0.018180854)
(-0.38250007 0.037608785 0.019290003)
(-0.39296553 0.03721348 0.020395725)
(-0.40341811 0.036807821 0.021512892)
(-0.41387875 0.036396362 0.022622683)
(-0.42434264 0.035983989 0.023723191)
(0 -2.6428496e-20 0)
(0 3.1179239e-19 0)
(0 -3.6991699e-19 0)
(7.5526395e-19 -7.6878689e-20 0)
(0 -6.3618431e-19 0)
(0 -2.9483051e-19 0)
(0 -2.4774119e-19 0)
(-0.0015186011 0.002121876 -0.0033999082)
(-0.0023324733 0.0066276974 -0.0047784768)
(-0.0033752168 0.0075381826 -0.0050131292)
(-0.0060772722 0.011239522 -0.0054397968)
(-0.0090016215 0.013525086 -0.0054993266)
(-0.012921039 0.016277976 -0.0054318766)
(-0.017407938 0.018838965 -0.0053967186)
(-0.022675 0.02131874 -0.0052429039)
(-0.028460195 0.023620978 -0.0050822685)
(-0.034973526 0.025902356 -0.0048983971)
(-0.042032671 0.027932706 -0.0046564949)
(-0.049595429 0.029800225 -0.0043603296)
(-0.057886939 0.031621966 -0.0040124101)
(-0.066423275 0.033058288 -0.003614904)
(-0.075652804 0.034601922 -0.003198054)
(-0.085075345 0.035654823 -0.00269524)
(-0.095036667 0.03681837 -0.0021978449)
(-0.10518079 0.037557021 -0.0016209712)
(-0.11569513 0.03831188 -0.0010418535)
(-0.12636621 0.038755465 -0.00040563725)
(-0.13726836 0.039140776 0.00023892517)
(-0.14827606 0.039301683 0.00092153577)
(-0.15940593 0.039376725 0.0016113402)
(-0.17058761 0.039288925 0.0023266949)
(-0.18181086 0.039112654 0.0030516679)
(-0.19302986 0.038825357 0.003782998)
(-0.20421735 0.038454773 0.0045273682)
(-0.21538313 0.038017219 0.0052798382)
(-0.22649733 0.037509469 0.0060552772)
(-0.23755544 0.036962671 0.006846122)
(-0.24855155 0.036381451 0.007654624)
(-0.25948422 0.035780836 0.0084868187)
(-0.27034977 0.035161339 0.0093432686)
(-0.28115534 0.034545893 0.01022185)
(-0.29189906 0.033925526 0.011125688)
(-0.30258877 0.033322174 0.012057219)
(-0.31321657 0.03271588 0.013002174)
(-0.32381721 0.032135391 0.013986244)
(-0.33436722 0.031573212 0.014979666)
(-0.34488315 0.031024174 0.016004194)
(-0.35538071 0.030499794 0.017044013)
(-0.3658524 0.029992306 0.018107153)
(-0.37632023 0.029505046 0.019188214)
(-0.38678034 0.029037595 0.020283832)
(-0.39724328 0.028581049 0.021394104)
(-0.40771646 0.028145967 0.022509351)
(-0.41819276 0.027706878 0.023628904)
(-0.42824276 0.01676455 0.025421602)
(-0.42781953 0.0062586348 0.026098267)
(-0.42736655 -0.0042726353 0.026784013)
(-0.42696124 -0.014791733 0.027466428)
(-0.42648901 -0.025354383 0.028155353)
(-0.42606105 -0.035867112 0.028831096)
(-0.42558582 -0.046411356 0.029514456)
(-0.41462966 -0.05646999 0.029030304)
(-0.4041428 -0.056041169 0.027871663)
(-0.39364821 -0.05562778 0.026704988)
(-0.38317794 -0.055218849 0.025526998)
(-0.37270709 -0.054832706 0.02434708)
(-0.36223251 -0.054457548 0.023168997)
(-0.35174515 -0.054098701 0.022003036)
(-0.34123735 -0.05375517 0.020850294)
(-0.33070218 -0.053424785 0.01971642)
(-0.32013287 -0.053104324 0.018603389)
(-0.30951706 -0.052798094 0.017524065)
(-0.29884421 -0.052511386 0.016468336)
(-0.28814034 -0.052197904 0.015448454)
(-0.27736971 -0.051900362 0.01446126)
(-0.26653286 -0.051594905 0.0135157)
(-0.25563674 -0.05127357 0.012614863)
(-0.24467526 -0.05093277 0.011759269)
(-0.23365106 -0.050564223 0.010953749)
(-0.22256926 -0.050156321 0.010199537)
(-0.21143567 -0.049704312 0.0095007412)
(-0.20026491 -0.049188267 0.0088514348)
(-0.18907299 -0.048609651 0.0082623858)
(-0.17787504 -0.047943576 0.0077223824)
(-0.1667001 -0.047197092 0.0072421908)
(-0.15557582 -0.046333373 0.0068064856)
(-0.1445336 -0.04538171 0.0064323427)
(-0.1336144 -0.044287078 0.0060921736)
(-0.12284593 -0.043100952 0.0058199836)
(-0.11228545 -0.041759742 0.0055692479)
(-0.1019553 -0.040321091 0.0053832165)
(-0.091924616 -0.038738867 0.0052182771)
(-0.082204257 -0.037054387 0.005097808)
(-0.072863431 -0.035247362 0.0050048459)
(-0.063978448 -0.033311304 0.0049069823)
(-0.055539644 -0.031275733 0.0048858412)
(-0.047524739 -0.02918838 0.0048246679)
(-0.040135224 -0.026960018 0.0048058864)
(-0.033202729 -0.024705619 0.0048107263)
(-0.026921883 -0.022355679 0.0048110997)
(-0.021230133 -0.019950105 0.0048024109)
(-0.016257758 -0.017408183 0.004807225)
(-0.011723461 -0.015033521 0.0048534991)
(-0.0081369086 -0.01235387 0.0048180217)
(-0.0050946438 -0.009938962 0.0047387195)
(-0.0028442238 -0.0074619252 0.0045079564)
(-0.0015466713 -0.0047619911 0.0039365222)
(-0.0018658802 -0.0028338623 0.0024259572)
(0 3.2064404e-19 0)
(0 2.5068505e-19 0)
(0 -1.2990491e-19 0)
(0 -8.5358547e-19 4.2717512e-19)
(0 -7.4945555e-19 0)
(0 -1.6477905e-19 0)
(0 7.8798944e-19 0)
(0 1.0928987e-18 0)
(0 1.0418089e-18 0)
(0 9.8989601e-19 0)
(0 8.5493166e-19 -1.0502476e-19)
(0 2.3095363e-18 0)
(0 1.0124688e-18 0)
(0 -1.8654953e-19 0)
(-0.43405115 0.034523378 0.024804844)
(-0.43327817 0.033490821 0.024792557)
(-0.43251218 0.032465119 0.024781073)
(-0.43174862 0.031438907 0.024770611)
(-0.43098765 0.030408817 0.024763234)
(-0.43022648 0.029377229 0.024763343)
(-0.42946087 0.02832955 0.024752128)
(-0.43051615 -0.049632835 0.030218971)
(-0.42974957 -0.050659227 0.030204502)
(-0.42898239 -0.051678057 0.030190041)
(-0.42821063 -0.052697048 0.030180287)
(-0.42743906 -0.053727122 0.03017361)
(-0.42666974 -0.054768382 0.030173544)
(-0.42590513 -0.055829899 0.030186372)
(-0.0018724229 -0.0022876509 -0.0027464892)
(-0.0044159345 -0.0036772434 -0.0028203789)
(-0.0077241809 -0.005562748 -0.0031457507)
(-0.011780896 -0.007305037 -0.0031946665)
(-0.016478132 -0.0090921746 -0.0031247963)
(-0.021786647 -0.010931537 -0.002990213)
(-0.027643644 -0.012743246 -0.0027510591)
(-0.033876747 -0.01450961 -0.0025551368)
(-0.04066553 -0.016243493 -0.0022306755)
(-0.047740318 -0.017937055 -0.0019287939)
(-0.055249692 -0.019527901 -0.0015428866)
(-0.063005258 -0.021071996 -0.0011657831)
(-0.071129115 -0.022506315 -0.00069129022)
(-0.079436568 -0.023879707 -0.00021548373)
(-0.08801719 -0.025122749 0.00030690041)
(-0.096769905 -0.026287747 0.00087638712)
(-0.10568698 -0.027323269 0.0014690375)
(-0.11474244 -0.028266302 0.0021000157)
(-0.12391461 -0.029085251 0.0027605773)
(-0.13317797 -0.029807496 0.0034479351)
(-0.1425174 -0.030422155 0.0041609993)
(-0.15191999 -0.030938535 0.0048918737)
(-0.16136562 -0.031361328 0.0056409828)
(-0.17086605 -0.031711553 0.0064063518)
(-0.18039269 -0.031971701 0.0071829507)
(-0.18997083 -0.032183589 0.0079671231)
(-0.1995943 -0.032335629 0.0087698716)
(-0.20927914 -0.03244474 0.0095861225)
(-0.21903131 -0.032527359 0.010410347)
(-0.22887541 -0.032588705 0.011257049)
(-0.23881794 -0.032638352 0.012119111)
(-0.24888219 -0.032693468 0.01300205)
(-0.25908466 -0.032753646 0.013904537)
(-0.2694363 -0.03283842 0.014833278)
(-0.27995291 -0.032944639 0.015778617)
(-0.29064799 -0.03308099 0.01674848)
(-0.30152122 -0.033262993 0.017741818)
(-0.31258152 -0.033477488 0.018752426)
(-0.32382549 -0.033739587 0.019782959)
(-0.33525604 -0.034049359 0.02083601)
(-0.34685709 -0.034395493 0.021895134)
(-0.3586304 -0.034804612 0.022982257)
(-0.3705441 -0.035241472 0.024065127)
(-0.38261472 -0.035738622 0.025171916)
(-0.39476263 -0.036275507 0.026268591)
(-0.40704689 -0.036839735 0.027371764)
(-0.41935555 -0.03745165 0.028464738)
(-0.0017849414 -0.0014290342 -0.0017736592)
(-0.0051677906 -0.0022110366 -0.0018112414)
(-0.0093183224 -0.0036669081 -0.0020761905)
(-0.014027193 -0.0047521921 -0.0020892331)
(-0.019486638 -0.0059871434 -0.0020517112)
(-0.025384126 -0.007253609 -0.0018928439)
(-0.031723286 -0.0084331265 -0.0018076674)
(-0.03851395 -0.0096768652 -0.0015783276)
(-0.045634551 -0.010827727 -0.0013729499)
(-0.053056217 -0.012014811 -0.0011060082)
(-0.060724623 -0.013046546 -0.00084803771)
(-0.068646237 -0.014160561 -0.00048356859)
(-0.076736592 -0.015087656 -0.00014025609)
(-0.084991145 -0.016045601 0.00025585672)
(-0.093378773 -0.016853081 0.00070633522)
(-0.10185962 -0.01764434 0.0011812772)
(-0.11041007 -0.018314166 0.001698104)
(-0.11903229 -0.018930526 0.0022471311)
(-0.12768098 -0.019441759 0.0028251302)
(-0.13637415 -0.019892711 0.0034346533)
(-0.14507738 -0.020258514 0.0040695684)
(-0.15380402 -0.020553201 0.0047205741)
(-0.16254952 -0.02079506 0.0054037016)
(-0.17131709 -0.020960389 0.0060946851)
(-0.18011634 -0.021092852 0.0068064636)
(-0.18898425 -0.021174972 0.0075449921)
(-0.19790715 -0.021228844 0.0082982178)
(-0.20692603 -0.021261832 0.0090626693)
(-0.21606969 -0.021275282 0.0098603621)
(-0.22534909 -0.02129237 0.010673673)
(-0.23480074 -0.021310409 0.011511589)
(-0.24445079 -0.021346098 0.012376716)
(-0.25431671 -0.021404327 0.013265954)
(-0.26442565 -0.021490704 0.014180897)
(-0.27479321 -0.021613452 0.015120351)
(-0.28543227 -0.021782776 0.016089534)
(-0.29634693 -0.021989868 0.017073964)
(-0.30755147 -0.022252607 0.018088596)
(-0.31902747 -0.022559189 0.019117205)
(-0.33078597 -0.022924841 0.020167841)
(-0.34279033 -0.023331017 0.02122947)
(-0.35505668 -0.023804734 0.022313384)
(-0.36751866 -0.024311751 0.023397399)
(-0.38020722 -0.02488346 0.024497084)
(-0.39301744 -0.025489152 0.025593817)
(-0.40601174 -0.026135623 0.026693372)
(-0.41904987 -0.026822213 0.027792585)
(-0.0006127957 -0.00068443624 -0.00087839622)
(-0.003284408 -0.0010439676 -0.00086618057)
(-0.0066239222 -0.0016602207 -0.00091589536)
(-0.010824807 -0.0021759348 -0.00094645841)
(-0.015623848 -0.0027102338 -0.00085545687)
(-0.020959103 -0.0032566151 -0.0008756641)
(-0.026941676 -0.0037930201 -0.00068815384)
(-0.033262829 -0.0043092969 -0.00061720179)
(-0.04014926 -0.0048840638 -0.00042818267)
(-0.047296465 -0.005361879 -0.00029173682)
(-0.054940838 -0.0059182295 -2.8201336e-05)
(-0.062802394 -0.0064172272 0.00021219451)
(-0.071021062 -0.006887607 0.00048425159)
(-0.079462365 -0.0073631485 0.00081959973)
(-0.088156653 -0.0077963522 0.0011683106)
(-0.097020058 -0.0082139754 0.0015553433)
(-0.10605979 -0.0085831284 0.0019967118)
(-0.11522461 -0.0089274018 0.0024414034)
(-0.12450135 -0.0092275471 0.0029458959)
(-0.13386711 -0.0095021593 0.0034601097)
(-0.14329318 -0.0097282488 0.0040133713)
(-0.15278068 -0.0099364577 0.0045918609)
(-0.16229707 -0.010096267 0.0051982308)
(-0.17185799 -0.010253049 0.0058242595)
(-0.18145328 -0.010373472 0.0064900075)
(-0.19107904 -0.010482431 0.0071662382)
(-0.20073528 -0.010574552 0.0078638549)
(-0.21045479 -0.010658041 0.0085987526)
(-0.22022769 -0.010736412 0.0093503634)
(-0.23008311 -0.010819245 0.010130705)
(-0.24003584 -0.010907525 0.010943784)
(-0.25010088 -0.011011083 0.011781612)
(-0.26029551 -0.011133017 0.012650654)
(-0.27064117 -0.011275067 0.013546467)
(-0.28114202 -0.011454899 0.014475751)
(-0.29181746 -0.011653283 0.015424223)
(-0.30267074 -0.011898027 0.016404673)
(-0.3137062 -0.012168965 0.017406879)
(-0.3249245 -0.012484424 0.018430288)
(-0.33632902 -0.012837602 0.019479183)
(-0.34790566 -0.013225833 0.02053862)
(-0.35965212 -0.013664954 0.021626328)
(-0.37154107 -0.014125427 0.022706238)
(-0.38358486 -0.014646089 0.023821971)
(-0.39571514 -0.015182602 0.024912875)
(-0.4079808 -0.015767057 0.026029241)
(-0.4202589 -0.016374873 0.02711796)
(0.0013364705 0.00011907506 0.00010499644)
(0.00046515296 0.0003163182 0.00035324947)
(-0.0012884755 0.00038461031 0.00030685426)
(-0.0037135773 0.00061584494 0.00031039332)
(-0.0070518537 0.00084480722 0.00024919829)
(-0.011075167 0.00098591409 0.00035112235)
(-0.015751081 0.001231959 0.00030879717)
(-0.021175351 0.0013611597 0.00041408888)
(-0.027165852 0.0015483849 0.00045540022)
(-0.03386538 0.0016459159 0.00060222038)
(-0.041102043 0.0017417754 0.00074003488)
(-0.048936867 0.0018025337 0.00088235663)
(-0.057303898 0.0018535672 0.0011139254)
(-0.066150992 0.0018107344 0.0013421153)
(-0.075472819 0.0018138862 0.0015933825)
(-0.085184296 0.0017001863 0.0019059603)
(-0.095287116 0.0016318329 0.0022258959)
(-0.10569398 0.0014820139 0.0025988871)
(-0.1163881 0.0013436063 0.0029996424)
(-0.12730485 0.0011702627 0.0034282077)
(-0.13840749 0.00097473171 0.0039075562)
(-0.14965563 0.000768654 0.0043999347)
(-0.16099027 0.00053719442 0.0049379227)
(-0.17239509 0.00031158063 0.0055043429)
(-0.18381885 8.0615485e-05 0.0060991854)
(-0.19524424 -0.00015386538 0.00671938)
(-0.20665201 -0.00038444152 0.0073891599)
(-0.21801578 -0.00062079705 0.0080809823)
(-0.22931988 -0.00084767894 0.0088066741)
(-0.24055898 -0.0010787847 0.0095736073)
(-0.25172068 -0.001305422 0.010367766)
(-0.2628067 -0.0015319767 0.011198194)
(-0.27381399 -0.0017613525 0.012060758)
(-0.28474812 -0.001991569 0.012956589)
(-0.29560685 -0.0022271197 0.013879895)
(-0.30640298 -0.0024687996 0.01483323)
(-0.31713222 -0.0027174835 0.015812568)
(-0.32781272 -0.0029775652 0.01681627)
(-0.33844281 -0.0032520639 0.017842876)
(-0.34903832 -0.0035345494 0.018885458)
(-0.35958214 -0.0038291981 0.019945199)
(-0.37011659 -0.0041484575 0.021019125)
(-0.38061043 -0.0044747204 0.022101867)
(-0.39111701 -0.0048381374 0.023195456)
(-0.40158029 -0.0052068685 0.024280492)
(-0.412084 -0.005609884 0.025374986)
(-0.42254726 -0.0060258475 0.026456855)
(0.0031629803 0.00085486832 0.0011080281)
(0.0037963029 0.0013801261 0.0013990302)
(0.0039758789 0.0023526385 0.0014038479)
(0.00306979 0.003246578 0.0013986862)
(0.0011913868 0.0041878242 0.0014764025)
(-0.00136642 0.0051885042 0.0013586637)
(-0.0049869051 0.0060384096 0.0014419555)
(-0.0092914289 0.0070201839 0.0013800532)
(-0.0146109 0.0077632825 0.0014638257)
(-0.020664191 0.0086068815 0.0014779445)
(-0.027629093 0.0092736432 0.0015393679)
(-0.035335708 0.0099399417 0.0016374846)
(-0.043847385 0.010446335 0.0017495206)
(-0.053081877 0.010923886 0.001872915)
(-0.063004045 0.011285671 0.0020500868)
(-0.07355899 0.011551429 0.0022424443)
(-0.084696554 0.011748949 0.0024873344)
(-0.096332276 0.011819888 0.0027549434)
(-0.10842571 0.011852971 0.0030669262)
(-0.12087438 0.011765487 0.0034136259)
(-0.13364489 0.011640572 0.0038048598)
(-0.14661994 0.011442826 0.0042184077)
(-0.15975346 0.011194532 0.0046993062)
(-0.17300008 0.010902751 0.005197566)
(-0.18626126 0.010570817 0.0057435366)
(-0.19950477 0.010222159 0.006330817)
(-0.21265135 0.0098486211 0.0069568134)
(-0.2256652 0.0094750306 0.0076118452)
(-0.23849651 0.0091002274 0.008316856)
(-0.25111394 0.0087305874 0.0090513537)
(-0.26348389 0.008371299 0.0098284853)
(-0.27558483 0.0080268112 0.010638703)
(-0.28739802 0.0076913488 0.011489627)
(-0.29891486 0.0073831008 0.012365859)
(-0.3101231 0.0070799444 0.013281611)
(-0.32102831 0.0068046004 0.014221172)
(-0.33162871 0.0065396332 0.015190454)
(-0.34193618 0.0062913489 0.016185262)
(-0.35196249 0.0060548938 0.017198105)
(-0.36171696 0.005840147 0.018232163)
(-0.37123432 0.0056240291 0.01928187)
(-0.38053409 0.0054148581 0.020355835)
(-0.38964248 0.0052094528 0.021427234)
(-0.39859818 0.0049905816 0.022523357)
(-0.40741494 0.0047794488 0.023602193)
(-0.41617097 0.0045454626 0.02470596)
(-0.42483432 0.0043116735 0.02578359)
(0.0035336926 0.0015266815 0.0021997661)
(0.0046784986 0.0027795389 0.002416665)
(0.0055091164 0.0044834862 0.0025422971)
(0.0051908321 0.005954565 0.0026944329)
(0.0040383932 0.0077361788 0.0025050444)
(0.0019637673 0.0092281315 0.0025450529)
(-0.0010785317 0.010906874 0.0024191506)
(-0.0050538383 0.012391482 0.0023778908)
(-0.0099690011 0.013853691 0.0023427363)
(-0.015827346 0.01523561 0.0022642986)
(-0.022608042 0.016493648 0.002283434)
(-0.030290991 0.017651565 0.002278808)
(-0.038851051 0.01869692 0.0023058338)
(-0.048221506 0.019586075 0.0023624188)
(-0.058397717 0.02037087 0.0024357739)
(-0.069272231 0.020985567 0.0025566429)
(-0.080830566 0.021490887 0.0026938738)
(-0.09295716 0.021836298 0.0028797945)
(-0.10561026 0.022073393 0.0031025796)
(-0.1186808 0.022168517 0.0033615259)
(-0.13211883 0.0221729 0.0036699681)
(-0.14580332 0.022058735 0.0040141917)
(-0.15969977 0.021855074 0.0044242917)
(-0.17366888 0.02158388 0.0048420639)
(-0.1876934 0.021266058 0.00534008)
(-0.20164925 0.02087555 0.0058637971)
(-0.21550138 0.020470397 0.0064375076)
(-0.22918099 0.02003353 0.0070573421)
(-0.24263281 0.019595544 0.007722253)
(-0.25580584 0.019152054 0.0084328239)
(-0.26866487 0.018718974 0.0091873102)
(-0.28117716 0.018301019 0.0099842874)
(-0.29331603 0.017901564 0.010820778)
(-0.30506622 0.017529445 0.011692542)
(-0.31641411 0.017178916 0.012603934)
(-0.32736304 0.016864175 0.01354015)
(-0.33790329 0.016571833 0.014511207)
(-0.34805918 0.016312948 0.015503991)
(-0.35782864 0.016077445 0.016523251)
(-0.36725245 0.015864149 0.017558479)
(-0.37634328 0.015682873 0.01861951)
(-0.38514122 0.015515372 0.019687201)
(-0.39367029 0.015356793 0.02077132)
(-0.40198838 0.015207068 0.021858607)
(-0.41012273 0.015058479 0.022948146)
(-0.41813711 0.014906044 0.024036519)
(-0.42604779 0.014744018 0.025110918)
(0.0021663991 0.0023578624 0.0029980234)
(0.0024088185 0.0040402282 0.0032332674)
(0.0025164324 0.0063062689 0.0036473344)
(0.0014831899 0.0084556981 0.0035898398)
(-0.00028843353 0.010657817 0.003551578)
(-0.0029477737 0.012881144 0.0034550163)
(-0.00653351 0.015034656 0.0033077208)
(-0.010892865 0.017155629 0.0032192538)
(-0.016188237 0.019128304 0.0030922465)
(-0.022273916 0.021083592 0.0029909726)
(-0.029212187 0.022793986 0.002932)
(-0.036961958 0.024506226 0.0028284078)
(-0.045439421 0.025964484 0.0028173681)
(-0.054684998 0.027339571 0.0027704352)
(-0.064592534 0.028514637 0.0027811125)
(-0.075136266 0.029545828 0.0028107058)
(-0.086256056 0.030403126 0.002872128)
(-0.097868759 0.031101988 0.0029839747)
(-0.10993834 0.031639964 0.0031151409)
(-0.12236482 0.032037315 0.0033062742)
(-0.13509431 0.032280377 0.0035322855)
(-0.14805622 0.032414748 0.0038068788)
(-0.16117458 0.032418679 0.0041332862)
(-0.17437878 0.032326081 0.0045097419)
(-0.18761847 0.032151189 0.0049308755)
(-0.20081198 0.031905552 0.0053969826)
(-0.21393373 0.03160347 0.0059255027)
(-0.22691973 0.031261816 0.0064982292)
(-0.23972133 0.030893002 0.0071252077)
(-0.2523105 0.030504126 0.0078031959)
(-0.26465656 0.030109995 0.0085278078)
(-0.27673206 0.029713929 0.0093006039)
(-0.28852481 0.029323375 0.010117313)
(-0.30001683 0.028945636 0.010974409)
(-0.31120801 0.028575638 0.01187282)
(-0.32209386 0.028234433 0.012798762)
(-0.33267527 0.027898712 0.013766394)
(-0.34296623 0.027592096 0.01475623)
(-0.35297591 0.027298141 0.015771706)
(-0.36271948 0.02702627 0.016812435)
(-0.37222596 0.026770124 0.017870842)
(-0.3815085 0.026520361 0.01894963)
(-0.39060429 0.026282072 0.020035566)
(-0.39954163 0.026043987 0.021135663)
(-0.4083507 0.025809116 0.022228858)
(-0.41707002 0.025564776 0.023329374)
(-0.42573179 0.025312238 0.024415761)
(0 -9.677053e-20 0)
(0 5.4143112e-19 0)
(0 4.6819657e-19 0)
(0 4.1317527e-19 -1.4163113e-19)
(0 1.6322609e-19 0)
(0 -5.7327338e-21 0)
(0 7.9345786e-20 0)
(0 2.9731291e-20 0)
(0 -1.9318351e-19 0)
(0 -4.7625537e-19 0)
(0 -5.9165403e-19 -9.8241733e-20)
(0 -9.6996321e-20 0)
(0 1.1948191e-19 0)
(0 2.3079302e-19 0)
(0 1.8611312e-19 0)
(0 2.9315397e-19 0)
(0 5.3540771e-19 0)
(0 5.3680435e-19 2.703895e-19)
(0 4.6260863e-19 0)
(0 5.3865755e-19 0)
(0 1.8240974e-19 0)
(-3.1307098e-18 1.4748656e-19 0)
(1.3335761e-18 -3.3395542e-19 0)
(-7.7558933e-20 -1.341944e-19 0)
(2.4074562e-19 -2.3637329e-19 -1.793757e-19)
(-4.4970817e-19 -3.3002174e-19 0)
(-1.1510382e-18 -4.7175205e-19 0)
(1.7591196e-19 -3.8952938e-19 0)
(0 2.9023051e-19 0)
(0 1.0378351e-19 0)
(0 -2.0137239e-19 0)
(0 1.9631225e-20 5.1374069e-19)
(0 2.2143056e-19 0)
(0 3.2250317e-19 0)
(0 -8.9602098e-20 0)
(0 -2.3384283e-19 0)
(0 -1.9117713e-19 0)
(0 4.4968281e-20 0)
(0 2.2436707e-19 -5.1125784e-20)
(0 1.6600606e-19 0)
(0 -6.0166913e-20 0)
(0 1.5534639e-19 0)
(0 2.8707046e-20 0)
(0 -1.6924958e-19 0)
(0 2.4778806e-19 0)
(0 1.5779259e-20 1.81378e-19)
(0 2.4549078e-19 0)
(0 3.8822924e-19 0)
(0 3.5160504e-19 0)
(-0.001785437 0.0011251935 0.0021637257)
(-0.0020733278 0.0013888576 0.0013769236)
(-0.0024172534 0.0014176544 0.00064010126)
(-0.0025022591 0.00148768 1.9261203e-05)
(-0.0024168411 0.0013559241 -0.00055802053)
(-0.002295836 0.0013889755 -0.0012045924)
(-0.0018450601 0.00095888414 -0.0018428691)
(-0.0035144315 0.0056602729 0.0031969174)
(-0.0041561502 0.0059771214 0.0017318693)
(-0.0043755263 0.0055312431 0.00062869115)
(-0.0043564049 0.0052972517 -0.00022775058)
(-0.0043549855 0.0055200685 -0.0011162428)
(-0.0038613395 0.0054573839 -0.0021418702)
(-0.0034031601 0.0054714654 -0.0033998578)
(-0.0048878337 0.007810986 0.0033823805)
(-0.0056004839 0.0074506695 0.0022553388)
(-0.0060432496 0.0075926829 0.00085207381)
(-0.0060175814 0.0074933503 -0.0002809941)
(-0.005840961 0.0072717012 -0.0014880723)
(-0.0053475628 0.0073651761 -0.0024710371)
(-0.0047193314 0.0076244848 -0.0040230993)
(-0.0077870053 0.011151021 0.0033511297)
(-0.0084179735 0.011155812 0.0021503621)
(-0.0087058485 0.01093945 0.00072733045)
(-0.0087389779 0.01080838 -0.00037099676)
(-0.0085287229 0.010795319 -0.0016044832)
(-0.0080337187 0.010892229 -0.0029711164)
(-0.0071181664 0.010750213 -0.004117048)
(-0.010984085 0.013962852 0.0032684498)
(-0.011579597 0.01372983 0.0020678311)
(-0.011956867 0.01369739 0.00073348325)
(-0.01191874 0.013556328 -0.00051151651)
(-0.011693093 0.013437387 -0.0017769681)
(-0.01110831 0.013474343 -0.0029524971)
(-0.010331164 0.013489232 -0.0043411011)
(-0.01503516 0.016717097 0.0031254602)
(-0.015527933 0.016562686 0.0019041923)
(-0.01581072 0.016416296 0.0006260589)
(-0.015803281 0.016326614 -0.00058630299)
(-0.015488889 0.016247836 -0.0018475156)
(-0.01493801 0.016181374 -0.0031077226)
(-0.014032095 0.016158817 -0.0042818058)
(-0.019722319 0.019445285 0.0029527351)
(-0.020230491 0.019356343 0.0017805107)
(-0.020514517 0.019235802 0.00050636693)
(-0.020417923 0.019142037 -0.0006131761)
(-0.020149439 0.018997927 -0.0018797598)
(-0.019523798 0.019003383 -0.0030039064)
(-0.018666584 0.018876467 -0.0042752465)
(-0.02508769 0.022015858 0.0028264949)
(-0.025480933 0.021835625 0.0016427725)
(-0.025665687 0.0217011 0.00046194274)
(-0.025630637 0.021585598 -0.00070423855)
(-0.025247716 0.021462076 -0.0018753177)
(-0.024672948 0.021366323 -0.0030298497)
(-0.023794835 0.021309416 -0.0041535378)
(-0.031064373 0.024506075 0.0026612503)
(-0.031476657 0.024423678 0.0015554307)
(-0.031691682 0.024329454 0.00041830111)
(-0.031523914 0.024117099 -0.00069448931)
(-0.031203608 0.023999596 -0.001803813)
(-0.03054173 0.023864959 -0.0028967565)
(-0.029675465 0.023720419 -0.0040532257)
(-0.037722561 0.026908838 0.0025562817)
(-0.038011664 0.026680396 0.0014709763)
(-0.038114283 0.026508523 0.00032240522)
(-0.03798821 0.026365365 -0.00070543146)
(-0.037586602 0.02622212 -0.0018089751)
(-0.036978947 0.026068157 -0.0028509886)
(-0.036088281 0.025980608 -0.0039031195)
(-0.044899101 0.029103463 0.0024543826)
(-0.045185309 0.028956925 0.0014067612)
(-0.045301774 0.028822833 0.00038594584)
(-0.045104595 0.028640368 -0.00062045111)
(-0.044754252 0.028435468 -0.001663728)
(-0.044070977 0.028286319 -0.0026222969)
(-0.043215393 0.028109173 -0.0037211342)
(-0.05271763 0.031236987 0.0023527778)
(-0.052900406 0.031010861 0.0013444026)
(-0.052894609 0.030793692 0.0003633243)
(-0.05268864 0.03053089 -0.00062180472)
(-0.05223743 0.030339929 -0.0015712866)
(-0.051571841 0.030157686 -0.0025173825)
(-0.050750681 0.029977697 -0.0034788008)
(-0.060968943 0.033136025 0.002325206)
(-0.061119197 0.032911919 0.0013761221)
(-0.061140737 0.03272425 0.00046357063)
(-0.060905251 0.032518873 -0.00044942656)
(-0.060475098 0.032306064 -0.0013809767)
(-0.059834135 0.032099657 -0.0022276539)
(-0.058981076 0.03185635 -0.003174253)
(-0.069755276 0.034934114 0.0022632623)
(-0.069826149 0.03466285 0.0013631328)
(-0.069772807 0.03440749 0.0005109884)
(-0.069446076 0.034094138 -0.0003679658)
(-0.069026562 0.033837138 -0.0011838372)
(-0.068321007 0.033576839 -0.0020080543)
(-0.067524853 0.033348392 -0.0028584475)
(-0.078966235 0.036510808 0.0022679114)
(-0.079000188 0.036233514 0.0014474615)
(-0.078895217 0.035966422 0.00065300071)
(-0.078621972 0.035711479 -0.00013718089)
(-0.078140152 0.035440544 -0.00092487857)
(-0.077504753 0.035194254 -0.0016784148)
(-0.076681804 0.034884562 -0.0024790873)
(-0.088589011 0.037940723 0.0022800289)
(-0.088527078 0.037614194 0.0015119699)
(-0.088410055 0.037325983 0.00078817266)
(-0.088016266 0.036963198 3.7303289e-05)
(-0.087569142 0.036662979 -0.00066163472)
(-0.086874089 0.0363171 -0.0013564756)
(-0.086103292 0.036047004 -0.0020650229)
(-0.09856339 0.039173228 0.0023323949)
(-0.098488209 0.03885382 0.0016516294)
(-0.098274032 0.03850822 0.00097832094)
(-0.097926041 0.038194047 0.00031973875)
(-0.097421737 0.037845748 -0.00032629723)
(-0.096782525 0.03755787 -0.00095553141)
(-0.095990184 0.037177291 -0.0016112654)
(-0.10886661 0.040244173 0.0024264145)
(-0.10867399 0.039851748 0.0017930237)
(-0.10846376 0.039517432 0.0011979808)
(-0.10802084 0.03910694 0.00058929672)
(-0.10754463 0.038764937 1.4555179e-05)
(-0.10686011 0.038354254 -0.00055035292)
(-0.10612205 0.038018737 -0.0011172451)
(-0.11941425 0.041120141 0.0025445944)
(-0.11921933 0.040751108 0.001995999)
(-0.11890944 0.040343611 0.0014616432)
(-0.11849714 0.039972026 0.00092446862)
(-0.11796502 0.039550163 0.00042215424)
(-0.11732637 0.03919474 -8.2696126e-05)
(-0.11657544 0.038760985 -0.00058760568)
(-0.13021283 0.041846363 0.002720711)
(-0.12990642 0.041400971 0.0022304363)
(-0.12959679 0.041006696 0.0017548569)
(-0.1291077 0.040546214 0.0012874846)
(-0.12859658 0.040143851 0.00084028654)