/*--------------------------------*- C++ -*----------------------------------*\
  =========                 |
  \\      /  F ield         | OpenFOAM: The Open Source CFD Toolbox
   \\    /   O peration     | Website:  https://openfoam.org
    \\  /    A nd           | Version:  6
     \\/     M anipulation  |
\*---------------------------------------------------------------------------*/
FoamFile
{
    version     2.0;
    format      ascii;
    class       pointScalarField;
    location    "1.74";
    object      E;
}
// * * * * * * * * * * * * * * * * * * * * * * * * * * * * * * * * * * * * * //

dimensions      [1 -1 -2 0 0 0 0];

internalField   nonuniform List<scalar> 
3969
(
870.55159
-444.48293
-25477.808
-15978.586
1591.2869
1095.311
-21311.335
-37324.049
-92.731248
134.93596
18.818904
52.598156
144.30735
58.838439
-15.466119
-17143.951
-14576.897
-14395.866
-14212.939
-14663.695
-14324.82
-8435.3491
1421.5793
255.25315
58.492494
60.651337
-62.084095
-30.20834
-232.61132
227.65755
-510.35879
-134.38296
-250.44693
-451.06043
-323.66018
-707.19356
-406.76172
-988.6779
-602.18017
-940.78026
-721.90525
-849.27875
-853.31379
-752.52849
-900.46983
-647.08996
-1029.6605
-659.2566
-821.15712
-822.75886
-642.71574
-677.74072
-673.91714
-488.4307
-522.83262
-436.61337
-265.83866
-329.7904
293.07723
-384.8866
905.37669
-573.84563
1283.8295
434.99954
428.52083
1987.947
-136.14307
683.90889
3293.5508
3750.454
-2386.9011
4041.0346
262.04341
3223.6065
1727.6043
2997.1199
2381.9988
2316.7994
3037.0763
1365.0868
2848.4476
1880.1592
2190.3652
1864.39
1756.7338
2351.6481
1217.2866
2351.0528
1555.1644
1813.538
1830.5927
1540.1792
1867.8928
1581.372
2086.0448
1238.4053
1651.1711
1497.3002
1033.8374
1396.7454
970.23183
1104.1789
869.20581
858.00781
815.99199
812.53452
597.27182
436.15785
505.89665
383.61057
-27.590701
76.058462
-546.6249
-489.98145
-376.67626
-2269.5314
477.16182
367.17307
42.138528
245.27264
-112.05074
94.498745
-310.9611
3711.1585
6076.4533
-5588.7674
4384.4478
1409.445
783.12984
4039.6108
-219.63408
5920.9923
-1791.0415
5673.5586
-375.31169
1298.0076
1156.8176
-173.12264
1401.2163
47.754333
800.71898
628.39718
477.4006
701.45706
410.83436
613.29241
231.03009
570.02915
638.71299
484.6767
651.50215
724.47484
708.35615
531.93149
478.37549
280.96396
226.97764
-99.82077
78.795456
672.66756
-776.29609
-556.16047
-737.14411
-1305.3239
-1207.5446
-1851.3581
-2060.8745
-2424.0924
-2455.8683
-4374.0977
-26404.177
-26324.461
-27720.607
-29787.733
-26460.205
-25460.252
-32292.008
3619.3072
56.444236
1505.9978
1344.3596
1531.5492
1563.0131
1531.6015
1472.9975
1506.1545
1515.4991
1030.4194
691.08511
1266.3824
1231.5353
1260.2282
1186.8487
1182.896
1168.9541
1099.6442
1115.3104
1047.3875
1090.0679
929.70881
859.1929
788.68345
789.9477
750.72672
616.0892
737.04858
354.15876
743.44046
286.09045
616.51485
-239.5509
90.671519
359.90525
126.06879
80.515385
464.14922
-90.084911
639.99001
-785.54489
1129.0121
-1152.9818
1611.0811
-978.51966
2984.728
572.76193
405.42158
347.17004
489.64525
560.92157
619.69169
-72.146207
-1195.1376
-899.22916
-1590.3253
-1704.3281
-1332.6165
-672.00545
-1794.3822
-17207.964
-17350.343
-16874.251
-17227.623
-17298.615
-16948.923
-18269.887
-27998.654
-28845.29
-28871.683
-28855.875
-28707.052
-29609.539
-27305.564
1865.1269
-239.71799
386.68029
169.49037
-521.82106
146.90239
-761.53341
-122.0728
-652.39818
-209.59614
-437.45515
-363.7797
-182.26713
-113.99757
-102.75104
-31.073618
141.62773
-19.976879
58.204534
-24.264033
-37.78971
-128.3906
-21.985318
-304.0493
-107.61766
-149.23139
-208.35029
-122.26308
-144.56701
-251.35706
-176.46151
-212.26593
-320.97828
-218.55458
-399.80713
-379.97598
-348.35858
-623.00836
-527.83558
-884.82813
-368.12237
-1802.0509
-300.4385
-1571.2288
-1398.2971
1025.8483
-952.77766
884.49442
-308.43587
136.9413
-307.19674
-233.20745
-68.895923
-540.81474
-149.15078
-672.10243
-570.53061
-760.47278
-698.9074
-801.97749
-1178.7378
-1120.4859
-1246.9908
-1216.4818
-1337.6394
-1314.8706
-1214.8663
-1279.7189
-967.88516
-1256.8119
-886.04987
-1023.9969
-960.85749
-1028.949
-1024.5141
-1224.5523
-1166.787
-1180.6983
-1272.3909
-1220.007
-1241.3138
-1292.4585
-1267.7138
-1115.0375
-1883.3104
-606.46984
-2127.2177
-480.21058
-1743.2114
75.294377
-1141.8619
909.85395
-662.36946
590.67759
804.95657
-337.10963
395.66189
-40.506302
-170.68326
13.375066
-80.15284
285.36976
57.282025
718.21481
335.19906
763.60489
502.3901
838.17693
540.29214
582.48875
581.7755
527.76633
749.78067
508.91611
571.55041
56.763402
311.6434
47.043397
-6.910905
-149.64854
102.70318
-128.91816
142.00208
180.39924
132.21284
264.80972
238.09946
307.42787
257.49168
533.19301
67.500071
1053.6208
704.41161
793.9544
1522.6277
247.71837
1607.7975
-33.821537
505.2213
-561.50355
956.74853
360.57398
-282.19413
138.9781
-113.8758
-239.11437
65.392274
-463.2167
-374.27864
-512.07604
-875.1322
-1011.4291
-690.94882
-1261.6708
-708.47375
-1339.6603
-483.49009
-1202.0414
-491.75885
-1099.8995
-750.00735
-861.37531
-226.45387
-194.63245
-156.23157
-239.71935
92.542848
-144.37206
-171.39763
-197.79575
-379.56464
-423.63071
-477.30278
-649.73466
-632.2105
-704.26142
-968.45707
-651.29069
-1213.799
-1726.6417
-1938.3875
-1839.4855
-2526.0895
-1052.1707
-2771.9183
-122.88854
-1718.8299
1526.6656
467.84187
-572.9814
201.62304
-573.24514
-364.12459
-362.39974
-729.62795
-253.8651
-424.11074
-548.59928
-33.939088
-435.55249
-173.89383
-331.00295
-173.71578
-382.41992
-336.07139
-382.63555
-423.61715
-270.60298
-281.78137
-470.68286
-458.58262
-720.49939
-409.50984
-606.77189
-628.21647
-498.9346
-472.20202
-407.36416
-368.65446
-299.26957
-295.13228
-148.89475
-312.50891
18.295025
-154.81208
41.036637
-66.885424
1087.3419
545.21486
1402.3185
1106.6882
912.98096
1663.4317
-237.07213
2094.0051
778.75797
-695.49701
299.38844
31.645046
268.33508
329.60111
247.61243
107.86932
431.90167
-292.1001
228.83638
-159.13232
134.06257
103.44399
-107.25139
212.9395
-113.40021
174.95931
58.322919
71.054618
110.16247
393.02632
108.03277
427.1149
418.18119
226.87031
362.48101
226.24086
135.04086
138.36001
51.657203
-74.148597
-77.159828
-190.54777
-254.15072
-311.85039
-429.56645
-578.80135
-379.49207
-1285.2052
-1218.5782
-1189.984
-1786.2631
-1329.9468
-1461.0708
-2164.0908
1017.9192
914.61549
-2287.8324
-349.20835
-1894.4214
-1285.7939
-1948.0671
-1565.6769
-2458.1827
-887.71468
-2866.7912
-366.92981
-2477.8307
-958.8381
-1796.3604
-1030.448
-1366.6392
-1056.9213
-987.05523
-1064.7756
-821.66268
-896.03995
-930.60489
-630.20876
-673.69078
-882.14952
-632.6926
-476.16463
-387.47319
-258.46683
-144.35894
-109.2813
82.107535
57.228934
304.15697
176.6781
397.27838
307.75686
733.74399
535.26087
809.73546
1006.941
1185.4251
1253.2176
2010.977
1330.1665
2528.8683
3532.6071
-162.40584
-380.70184
-418.78182
-552.62509
-330.62592
-356.72324
-326.65207
106.85901
-67.743334
-187.59566
-210.91928
-128.57702
-1.2573604
-34.668085
-81.265812
-275.29803
-351.83571
-364.27416
-317.64869
-275.25626
-283.87087
-23.995438
-97.653516
-44.035972
-67.565646
-31.885547
119.44049
99.093297
-192.31947
-253.12306
-297.98755
-315.47274
-349.54455
-271.18974
-216.27938
-246.18955
-645.58422
-538.94801
-776.97835
-722.46768
-725.08734
-633.19211
-773.5953
-532.1121
-1177.1536
-1376.4721
-1331.1283
-1423.4994
-1042.3256
3934.0629
5616.131
5515.9321
6173.5783
6227.5132
5609.0628
4307.4412
1939.2065
2853.4252
306.43231
-598.14958
2052.4906
402.54332
3159.7686
492.69227
148.69234
2574.8547
1236.623
347.48886
-81.773304
2404.4455
2771.8789
3567.1905
1013.609
1585.8748
1795.0403
3194.4421
1000.0344
2662.3927
2435.6308
3809.3881
2546.6758
2486.0398
2270.5103
4309.9761
3191.5226
1789.6858
230.5232
1234.5901
250.77463
1649.1338
966.2707
2674.844
2600.4452
4143.2367
3227.6304
3813.3998
4094.8615
4796.8066
3118.5339
2494.2279
1269.0026
1404.9356
455.52703
184.4021
658.27937
3405.3476
2370.3296
2955.2723
2811.0284
4285.6133
4543.7472
5836.9269
1897.6469
2197.4847
1271.5932
3219.209
621.62744
573.61247
973.63658
3862.3688
2538.1352
3630.8006
1449.3477
3362.7065
3013.3558
3494.9108
1429.5864
2899.8545
903.66666
3277.6667
2613.9454
288.7346
2516.9902
3651.4294
1684.2304
3044.3958
1481.5641
1519.6177
3092.3677
1369.6544
1723.9793
2210.9392
2650.9753
1351.5966
3661.7879
995.28906
3029.2277
2903.4253
2817.6314
1740.553
2370.8823
1395.7225
1516.9951
1243.7399
2562.2968
1373.88
2907.9335
1089.0052
2789.126
1524.7341
2625.513
1889.5725
2658.5776
1895.1805
1528.0262
2083.6908
1148.9996
1910.2482
2763.9908
1360.7251
2390.6514
1352.7329
2145.8162
1275.7138
1881.8744
2064.4803
1720.0453
2243.6235
1004.5461
2153.013
943.63428
2162.232
2290.9935
1577.8145
1987.7325
1338.7488
2024.967
1039.3039
1837.671
2353.0073
1370.9806
2211.1153
1059.9868
2002.1003
799.44792
1967.0631
2110.0947
1496.3356
2002.9154
1057.847
1930.3416
713.6379
1856.9319
2267.48
1380.0574
1938.7431
1087.9971
1910.2369
762.412
1937.7939
2019.2509
1422.7395
1852.4297
1009.5299
1767.2075
537.1339
1624.2458
1784.1194
1769.9694
1335.6559
1342.1794
1595.3918
689.38176
1789.0236
1595.1828
1748.3816
1131.1238
1391.1375
1026.1813
837.20765
1866.7316
1610.7688
1593.041
1505.3486
1012.2044
2112.8188
1182.0147
2119.5577
2064.2347
1267.9931
1918.5646
936.70308
1472.9671
375.01204
2036.5643
1184.8399
1718.8292
929.42909
1416.951
1100.3295
1072.5263
1621.1829
1841.0197
947.10045
1567.4232
1018.6572
1227.7821
791.53097
1539.3378
1121.9133
1318.237
1021.6247
1009.8626
955.98648
742.09864
1247.048
1388.864
985.19026
1060.8928
898.77286
884.56547
641.61563
1112.8266
1038.5935
915.46846
851.86051
748.41581
714.93775
526.864
1001.9727
1007.6179
808.87834
809.3375
692.10899
615.73807
451.07911
842.66231
783.20745
656.40528
579.33159
494.41003
414.4189
325.79767
578.90528
796.29689
666.51199
607.46354
491.10504
337.84622
457.00717
808.2691
220.19384
337.15722
267.96615
187.34837
526.92546
-320.25915
527.52945
82.334786
-47.639629
49.253811
-23.182749
-170.13683
549.05531
126.96483
173.01616
201.28138
103.23373
-141.62382
-50.083283
-458.92989
-214.93693
29.500273
-26.129222
-180.70585
-67.512213
-390.18046
-356.60613
-83.606183
-319.12388
-380.64855
-452.17408
-602.13356
-718.80827
-655.66898
-664.33496
-390.0643
-669.00603
-590.50022
-677.85792
-809.24589
-801.88428
-939.10628
-866.82652
-908.215
-982.32063
-1107.9771
-1225.5881
-1253.869
-1272.6608
-1324.1372
-1395.0979
-1470.1591
-1407.8261
-1729.261
-1327.1799
-1935.2216
-1916.0617
-1751.5998
-1844.5017
-1907.8491
-1842.1108
-1967.1952
-2462.7873
-1793.1405
-1501.7668
-1780.631
-1480.4789
-1932.3532
-1593.3545
-2148.4027
-4387.4819
-3832.396
-3773.8096
-3770.8415
-3542.2146
-3764.4444
-4039.2342
-18153.015
-19940.745
-19451.927
-19361.986
-19802.331
-19360.006
-19772.29
-18308.232
-19613.137
-19448.795
-19590.699
-19491.49
-21215.377
-18999.475
-18962.897
-17343.99
-16994.305
-17211.21
-16994.483
-15754.738
-18325.345
-20310.18
-20195.076
-20775.546
-20561.152
-21206.209
-20764.851
-21663.261
-19241.056
-16649.903
-17878.825
-18388.809
-17665.112
-18007.091
-18945.649
-17956.667
-21305.617
-20211.365
-19962.402
-22313.858
-20034.166
-21416.316
-18689.91
-15957.887
-16777.187
-16432.724
-14499.579
-16580.45
-16751.636
996.74942
1823.3835
1719.9222
1874.5896
1966.8413
2287.7757
1387.9289
-500.18234
-579.43273
-353.7987
302.0721
-188.48013
-497.13998
26.339538
550.09264
1024.5826
731.56094
492.07743
1662.8938
858.81167
1791.4187
-111.81945
-255.18551
-483.00493
255.48714
-365.87395
-589.63967
-177.84562
1101.5524
785.37419
1310.1814
1022.0546
1565.6622
1308.9725
1677.4948
-318.01514
-317.65132
-802.2164
-823.5001
-703.99577
-1247.5265
-181.61316
1286.58
758.84767
1152.1543
1310.1005
1271.5898
1445.1704
1549.1611
-195.34497
-325.29397
-717.07588
-587.68641
-755.39507
-704.73374
234.07091
802.78473
457.41198
737.64985
316.04585
965.36409
180.79169
1171.2628
600.76674
-153.54674
-81.776518
-90.667426
-19.730084
10.205326
686.86844
389.18183
40.2784
249.46353
55.631005
179.87999
-308.93101
420.46338
530.35953
-21.277671
-251.5422
280.37267
144.616
479.30333
970.21162
349.71365
8.7640507
199.27187
-204.67186
244.21366
-598.46742
498.52778
331.12806
-148.17244
-395.00111
19.310568
-32.858119
821.92463
1135.3593
561.17077
-21.910657
-137.2799
117.14939
567.51792
-450.42277
982.8032
304.29031
-203.1418
98.726882
-547.35903
320.72658
-62.776614
564.01581
398.56518
70.043762
36.695
101.05853
466.45698
-128.51061
1156.6945
489.79901
-265.79434
194.62806
-201.56491
183.15585
-128.6293
773.6478
403.49735
-31.99703
148.68132
-254.66468
529.05123
-103.20368
1123.0458
567.06334
-85.549996
114.86651
-27.799131
330.63149
-143.88702
993.08221
507.38363
-197.16944
245.02189
-251.67746
430.21957
-60.560193
1164.2766
684.92391
93.492039
251.77353
-28.402654
502.36474
-75.197788
1211.5661
622.64283
-153.70338
209.39644
-148.88759
426.29609
-66.103718
1300.6544
825.4241
98.991924
277.11684
17.942874
486.84994
110.69686
1369.6502
698.50267
-40.371593
250.33026
-57.422856
520.62645
105.96581
1368.1909
1043.048
46.460703
402.34893
30.890912
635.00664
177.92455
1361.4751
888.46671
26.468438
275.54784
75.001581
509.57448
162.04439
1417.881
984.16715
176.54899
388.36643
154.64967
703.2858
293.22892
1551.1032
1076.8237
70.844556
462.7416
134.45719
620.68264
279.47123
1430.2798
945.73199
315.87134
357.61903
219.5486
693.4331
331.14877
1533.796
1164.1002
189.5034
449.5582
275.35913
706.00069
361.57353
1529.959
1068.2522
311.67786
455.64164
305.13947
665.2631
411.82878
1523.3872
1141.0514
349.79482
474.18323
362.14362
729.47791
454.30674
1502.4496
1184.7182
391.98705
472.21158
457.41962
625.64097
534.33125
1546.3337
1215.1549
482.03295
576.15657
476.89403
655.64702
653.4584
1396.5881
1218.9483
561.74701
566.13643
467.83371
827.71132
927.18587
1691.044
1587.9237
725.06161
462.38898
665.2056
951.87615
257.53549
1665.0211
1240.7128
374.02971
625.89206
405.50909
886.47776
640.56425
1526.79
1714.7985
1476.0767
960.72083
1065.6567
915.26297
762.78953
1812.1649
1351.5045
245.95306
511.54604
639.34169
789.26418
1066.9275
1795.7703
2056.9052
1669.6539
1415.1264
1282.1327
1216.8401
1028.2939
1766.4293
1725.308
943.12434
698.01856
1113.6946
937.8668
1273.2768
1800.6843
1552.7018
720.57231
1026.1704
747.42869
651.36462
847.11538
1731.8524
2060.9161
2162.4192
1509.1236
1794.5446
1576.3374
2085.1471
1653.2929
1108.5349
-275.64952
-28.257011
-258.25729
0.46419013
-17.311868
931.83127
-768.90867
115.59001
-88.196822
192.11101
-4.733345
343.12523
548.59322
4366.3085
3244.6268
3259.6732
3144.6058
3114.581
3309.196
3641.1786
1432.8408
-115.95622
-621.06086
-349.31638
-966.21348
73.100289
-1265.6662
-270.15103
-965.92266
-553.90609
-98.018799
-1119.4906
18.952962
-933.31363
-631.71255
-168.95661
-719.826
-31.551597
-636.19566
-137.03809
-504.81943
-308.58955
-368.11482
-375.69695
-536.40195
-498.78036
-652.18726
-513.70709
-602.39196
-677.8984
-662.68375
-684.43239
-755.8426
-793.69059
-776.46327
-1140.0365
-632.99009
-1133.5412
-1128.9164
-1378.5689
-1342.7388
-1401.1132
-1467.7144
-1205.2399
-1098.054
132.3214
-1824.7461
976.45684
932.53235
-620.57415
-379.81956
986.55394
-936.86479
627.99367
-84.171591
-35.934052
658.12837
-438.01082
412.55219
141.2004
186.03418
558.26793
105.31143
465.9382
141.18823
406.11437
355.24406
411.28527
549.66719
518.68083
644.05875
590.12671
711.47814
1010.2005
818.87535
978.98535
992.59048
1073.907
1025.8954
1091.8444
1106.2987
1177.1039
1089.4652
1247.1378
1139.9372
1495.6011
1156.7343
1553.1596
1304.4641
1576.1251
1092.7416
1930.0491
-1055.051
1923.1566
501.19941
-63.736735
-815.83836
279.68843
-829.94823
431.85389
-109.6325
-81.522956
444.44063
-28.067489
109.83652
764.15582
-116.46314
76.498891
-235.60033
-182.09226
-71.637974
48.56519
-113.40141
38.291421
-50.320581
-50.037923
-56.300397
-188.87505
-68.534276
-353.13298
-37.214206
-500.51833
-199.50306
-319.77348
-303.71432
-383.20964
-326.30017
-451.39583
-449.94122
-472.34554
-579.43752
-497.34657
-530.22475
-528.78468
-516.16495
-396.39129
-577.86989
98.723072
-505.58418
-164.71033
2594.7163
131.88868
633.40029
-829.86321
915.40207
-1031.2869
1176.6247
-1545.3623
1048.8933
-955.7734
-136.15575
227.90694
-837.60555
-55.352174
753.73353
50.742405
428.17746
290.91632
121.48105
241.60901
264.98997
298.69802
335.90328
363.75057
640.15685
749.81002
1071.9567
752.09654
1067.3848
912.97679
900.18366
885.48571
909.03998
883.73367
811.46929
925.95035
795.30071
909.2718
740.76773
952.34005
621.07688
1064.4943
531.16528
1239.974
317.95551
1621.0716
-1000.0267
3804.3398
428.15129
-151.39701
57.8788
157.68919
-284.89228
159.31914
-687.12314
1106.0568
-1274.0082
1605.3887
-1071.7872
1038.3048
-50.143748
330.56765
45.331796
257.99818
163.94329
458.13931
407.27303
559.28822
487.55675
465.74244
592.41945
381.26878
29.669654
-401.51994
-188.96681
-312.37273
-320.7229
-240.89837
-199.45095
-240.82047
-258.64134
-178.8412
-144.52597
-217.12709
-139.49207
1.8753708
-181.72078
202.26609
-23.498369
382.62427
152.05648
752.79451
573.30268
482.73194
2893.8223
203.82841
1272.4312
-1395.2162
1681.9757
-1147.3063
642.25867
1160.8409
-1002.9931
2067.7391
-254.70239
-134.80133
802.55562
-1329.8327
553.8418
-581.11847
-183.18715
-241.27148
-309.58731
-208.12895
-321.38744
-308.64943
-412.03623
-299.41017
-540.13419
346.54096
922.19267
939.64151
875.03916
865.59003
779.91718
741.07958
610.18343
514.93414
522.9843
353.40914
208.86951
398.31472
-167.6539
163.35197
-221.36603
-155.66806
-394.35771
-199.39449
-649.71026
7.0268708
-1629.9555
2489.276
1414.8852
-2275.7138
172.38271
-3085.1857
-745.83317
-1842.7116
-1711.2036
-2189.2323
-726.68502
-2158.2646
-2301.642
371.09022
-2147.9988
704.57269
-1606.9816
274.88013
-764.44928
-284.46347
-334.20941
-291.20644
-227.85142
-128.12258
-10.19628
-163.93941
364.14798
2.5791233
-573.95716
-308.67036
-456.54131
-195.37113
-124.01859
-71.119597
124.27486
289.32029
209.00125
376.95094
414.03436
936.45786
826.82556
1156.4764
1322.3886
1688.4883
1844.7125
2561.5036
2372.1177
3525.6301
3987.5169
738.39922
1109.0709
1063.2849
1047.6571
1018.9998
689.36749
974.63043
-48.235465
-115.2838
-332.14745
-324.11858
-446.67039
-362.92578
82.645587
-141.3159
-343.72154
-9.7729942
-209.10854
-62.797044
-143.58296
402.18183
303.73933
-68.093464
-24.808909
86.88153
-53.305077
178.02876
143.77981
-101.66043
-433.38723
135.63217
-816.75943
3.8363725
-743.75229
-220.09974
108.41964
136.98697
-279.31716
550.81479
130.93071
377.12882
751.67405
-42.88175
-756.69993
193.72186
-822.01522
-383.8817
-508.7588
-462.73158
-73.401789
260.80735
-118.50361
228.25407
366.46048
35.348273
476.14372
25.290531
-404.11048
-57.332914
64.930489
-107.6987
51.457318
-155.16584
-191.70643
-54.524395
-88.860941
-287.45064
-142.13116
-224.74702
-258.567
-118.27462
60.834881
-14.798698
290.66609
318.56244
380.66091
460.94378
76.146024
-129.18538
133.2226
-377.85066
-239.12583
-317.17911
-463.65901
-22.852467
166.91854
-150.17854
147.61365
381.55039
192.41535
389.46813
266.00835
88.230248
443.89617
50.019031
349.72423
-607.99988
55.655326
-36.226237
203.29777
-262.86027
109.78641
-265.6421
301.65215
-96.421689
444.8434
421.7633
135.18368
543.38917
278.62316
91.233783
163.75588
124.5389
75.823824
-83.838945
268.36157
-157.57284
-4.6923863
-79.517027
264.07559
323.11131
101.40025
404.07643
135.02644
463.77844
293.51218
311.28582
188.00879
-15.40457
339.2922
103.38288
117.19288
-70.302272
241.85901
266.06215
11.843477
498.29192
67.725366
383.06952
261.2167
415.90193
228.00273
115.1009
402.74598
119.42818
288.32928
73.619735
305.12156
94.351319
27.498765
419.63239
96.165269
399.98574
147.57062
501.82383
186.49112
249.66
411.98937
184.95823
233.47843
84.136837
312.31586
-49.585132
97.878769
413.12919
147.61547
340.75419
203.05361
602.94813
49.187765
341.05457
485.1879
201.45796
180.80177
39.138456
406.11936
-127.04048
346.06906
324.64791
210.83867
112.14705
298.59292
481.10839
-96.634253
388.12643
325.36281
142.06011
274.34516
93.550753
496.89303
-76.629139
143.57135
352.86854
166.6036
36.879199
135.52873
313.91023
-403.48823
390.07483
319.50798
73.553779
113.74526
163.33054
311.41331
-29.787392
246.68142
202.3027
110.47991
58.085072
104.58529
362.71743
-324.54186
119.95151
298.7179
58.039351
15.680258
66.569515
165.61551
-298.93536
218.00692
191.91425
-10.150537
-37.303631
38.504828
197.82659
-270.4634
67.387008
190.71113
-42.636064
-38.0131
20.991959
156.70541
-435.48459
65.000641
67.462864
-114.87117
-91.543254
-87.438666
-60.121348
-373.2695
-49.244135
102.18918
-38.098988
-87.525163
-138.83627
263.55245
-501.03562
-79.72079
26.02263
-284.24654
-303.99655
-346.06981
-319.41884
-802.30499
-187.16738
-229.18841
-211.55018
-398.0967
161.58053
1.1905235
-629.40491
-214.58619
184.60128
-569.02898
-92.787374
-649.82466
-645.3745
-471.14579
-567.8041
-105.69601
-489.46647
-491.89729
-257.26564
-193.19423
-932.04411
-599.48035
-218.02743
-771.93173
-354.10669
-664.60602
-646.4123
-511.52306
-587.69464
-116.98139
-558.1272
-570.01229
-731.9891
-916.49581
-1558.6589
-1395.4336
-790.08895
-1490.7148
-764.32462
-800.4789
-177.0769
-488.75032
-36.870187
-16.214389
-99.055879
-76.148339
-856.79246
-1284.593
-1393.905
-1804.6875
-933.85675
-1565.5311
-1103.4493
-1065.0943
-527.21907
-1352.5622
-205.67251
-419.58073
-480.68426
-286.17164
-820.10512
774.23859
1765.2987
1078.2222
1705.6639
1225.909
1549.1957
938.00656
-250.51201
-1399.2968
-878.78854
-1078.3646
-1070.9166
-1124.3595
-1251.3845
454.20488
1146.7117
899.17873
1017.3175
640.70589
756.50047
327.96267
-297.95015
-114.43362
-187.86597
112.66673
169.39666
468.28151
409.4622
-62.641158
-330.88034
-307.88209
-356.0387
-48.927734
-372.44388
399.25587
-234.29942
69.898805
5.3785419
390.1648
-70.929468
462.99636
-434.73949
419.25906
-10.892118
581.57082
72.94376
846.07765
28.130731
759.76052
62.223322
-22.462776
-752.0424
-17.773098
-888.14267
-179.25377
-387.60518
571.35361
-154.48289
664.49411
148.90143
547.72196
547.48458
99.602514
335.23909
206.38434
-530.34911
43.600548
-216.86729
-163.65578
-51.446791
619.84246
-373.95621
26.073977
78.103088
-487.69077
114.37748
-534.21006
535.84025
7.9850437
63.4817
16.98165
359.07015
156.17135
429.50068
762.28594
-186.91113
-176.22046
168.8318
-546.90203
-105.00377
-648.06027
587.18949
-224.15024
-172.35733
-152.07689
105.62181
17.500755
208.84821
716.89217
-237.26152
-197.15551
571.85806
-206.01572
360.84168
-259.61417
402.36926
-634.46687
-154.79693
-201.45301
-465.90549
40.685787
17.988703
436.82999
-191.09632
-41.001465
162.80812
222.26404
237.01997
404.63895
499.8443
-802.40247
117.80912
-218.45873
-112.73118
-91.339899
-41.406715
268.02632
-277.81779
45.653571
-53.264711
208.6154
70.489035
504.57678
576.31559
-394.97883
78.503563
16.561787
40.170409
56.789847
196.1069
404.7763
-415.77614
145.11625
-105.21016
243.19331
22.806163
345.76666
645.68672
-229.55608
146.27924
127.35995
167.96475
39.015495
429.54131
437.54433
-469.23891
167.20243
-49.233912
200.23147
172.52626
380.88492
577.14715
3.4701298
267.38758
166.11227
411.58165
54.456778
486.24966
438.36537
-307.21311
70.266049
138.49912
102.46962
189.8204
551.27562
659.53204
-21.180059
307.64597
131.76926
248.53822
469.05716
656.04623
398.06734
-112.29745
230.28287
-5.0924538
165.0561
263.96954
398.5079
564.62627
98.986162
103.2887
280.90455
-85.213371
625.70078
774.84109
442.95839
-55.477288
233.35349
-246.81081
523.34468
290.78526
675.96135
601.93273
-384.3261
391.88653
212.34562
150.89555
574.86374
658.16437
431.34993
160.83705
604.80646
-162.64303
189.37844
655.4377
494.77991
662.23101
108.0719
195.02108
10.534698
297.31556
625.62602
506.32238
560.64524
-134.43731
378.54917
52.938183
178.66416
598.02477
527.28481
513.86118
139.40223
415.94961
115.89888
167.28612
749.50384
511.5731
671.26503
13.90137
363.35806
-15.964352
200.79998
701.29127
454.09834
500.75186
109.66788
364.89998
205.25412
247.90801
730.19967
458.7762
696.94088
90.309582
415.09847
170.52315
83.056232
689.46228
518.76089
451.68538
-2.0051199
416.88162
125.09438
166.20296
804.10164
457.87206
754.73337
513.16527
439.55824
439.23768
-3.8535311
1046.6942
375.05276
649.59307
-544.01565
524.19908
-183.04101
324.6346
734.53105
435.09458
1159.2915
777.08571
901.76313
626.58673
220.1903
1031.0953
451.73972
716.01208
-847.73978
523.9114
-336.71992
274.77758
833.60964
469.93457
1118.8506
876.06722
1121.9184
786.18297
511.12176
997.14292
499.04799
1133.6213
-538.43624
710.66231
-150.20809
198.21235
897.54983
572.71726
1213.727
955.30521
1444.2962
958.36483
1146.0182
1294.6701
678.86999
576.57282
-134.00178
411.7487
-35.548783
-173.81483
22.04452
120.90083
2207.0016
1853.5769
2296.9769
1828.7641
2008.4045
2401.5587
2048.5006
-453.73515
-871.67123
-969.43662
-1256.443
-1200.9707
-1393.7985
-1706.5634
1923.0626
783.4159
1393.1532
978.85576
1185.876
1140.45
1756.4803
557.2147
937.21008
758.51928
737.73571
645.43375
619.21098
419.73229
-280.98292
-365.72419
-372.80618
-431.88463
-177.02676
-392.19947
-26.468534
203.99444
-290.73271
-224.96447
-321.69361
-336.6909
-453.82962
23.922033
-31.695839
115.12215
580.25455
763.3802
748.94282
935.3761
413.90649
620.1767
85.309958
180.34748
-794.07659
-292.24552
-1117.7119
-60.676666
242.0106
-431.6668
-65.096531
-25.23341
142.19256
516.30937
215.46475
230.95583
-36.469691
673.43531
242.85079
690.66584
-142.38117
314.50563
273.11426
-204.25789
-135.82625
-405.1126
-468.62644
-332.13038
-197.02646
-129.22289
-123.12279
423.03123
369.64588
904.91759
323.1245
401.86407
381.56291
109.74604
108.58468
-37.327105
-209.59613
-305.02622
-193.23166
-208.72297
-181.20701
183.18265
11.997852
355.57563
-28.798806
81.420571
361.74872
176.41729
309.18338
286.17769
343.87675
204.36041
228.93962
21.030167
-238.05751
561.23598
-110.09767
197.50883
-349.11958
103.45863
347.14758
298.19577
918.74523
105.0842
739.81967
120.41157
412.46454
821.7553
186.6953
377.37432
341.20238
28.271629
193.71717
42.422555
741.26371
436.49131
558.49037
478.65663
451.09794
242.33566
408.32976
1060.9556
336.11131
467.33842
644.48807
53.65531
318.77741
185.4645
896.87802
164.7598
660.0798
475.36268
254.00046
438.80532
387.86899
1149.7855
449.51836
586.48245
591.27409
208.73117
367.10693
258.32477
956.68305
153.36701
574.40245
570.95261
170.15184
519.95452
376.47681
1236.844
476.56234
748.76226
634.29205
305.95634
423.13942
322.44949
1242.0994
134.49458
573.57279
679.40685
36.83838
512.49452
382.64216
1445.8678
257.74988
961.16639
423.28292
321.74143
560.6363
374.00534
1301.3182
189.54548
792.61023
565.70718
540.2778
386.87201
128.83926
1521.3301
125.69463
918.99675
646.47746
593.81325
362.70908
423.42955
1465.3838
72.169917
1072.2648
318.32461
754.40147
354.39592
-28.55173
1620.1125
155.45426
885.60258
460.02077
1020.0925
222.38357
409.6622
1374.7364
148.92812
882.43167
681.94643
700.54109
216.06485
171.44204
1577.6611
402.18836
1065.3954
350.01176
1001.9216
273.11321
238.06095
1529.2159
143.06425
634.841
455.04045
911.7879
41.306451
201.57616
1427.1212
180.40119
946.67528
630.44494
901.46966
228.08268
236.5788
1505.0562
237.12331
834.1812
310.14427
805.36972
79.281556
77.57039
1410.9703
199.2103
697.0203
493.51934
885.00219
125.63867
113.01816
1428.5169
135.05182
738.46537
412.80285
681.30578
16.644485
80.374732
1281.0701
91.813564
689.75204
321.85003
690.93091
189.52365
-81.275583
1446.6064
348.16922
748.12416
299.44421
777.39047
-15.146255
-23.415935
1106.6804
-158.04901
332.64476
238.75347
617.56753
29.253095
-114.59783
1375.0179
391.30979
844.16171
391.16655
705.88971
-11.219005
-231.37893
563.82688
298.94935
58.812435
303.69375
394.03457
5.9003467
-200.24846
889.13493
151.39989
261.55955
261.33702
485.00128
83.118318
-244.9653
702.71985
1111.8528
374.77493
860.1431
507.34623
121.81213
-424.15485
434.12653
-364.04922
-418.0264
-164.83878
-142.59318
25.939508
-200.88979
579.40364
1122.0091
572.25495
1046.157
634.01543
516.41893
-667.14496
249.93506
-159.34339
-628.12129
-196.80632
-554.76766
-207.64974
-227.09656
452.19658
320.47114
-25.671555
559.66954
-10.720676
982.76783
-288.58546
-154.0939
-481.78917
-561.38289
-211.37597
-719.0265
-197.10422
-1512.5167
1338.556
1220.1038
1259.193
1319.3725
1364.346
1650.6013
1571.6896
147.483
310.19981
174.29098
263.92977
143.98334
204.53437
-63.563166
-88.772419
99.087287
227.87274
479.12224
460.27711
609.67122
693.01753
-175.3764
-729.69417
-799.72231
-806.81303
-757.94372
-706.07311
-710.56151
201.93694
582.20282
971.38057
1127.983
1167.8228
1143.8323
884.8029
0.13029471
-571.8035
-850.10687
-1343.3875
-1357.0683
-1327.9017
-710.5666
358.56804
333.89315
519.79806
998.56837
1146.3847
1090.114
884.93897
-29.715456
-413.90435
-781.64808
-835.9208
-1000.7327
-1187.7957
-555.4396
123.80704
211.23612
154.98721
521.62428
287.62115
1047.1882
563.04062
210.91315
-287.06387
175.21209
-761.13336
353.12229
-672.50576
-49.349351
-202.06774
115.16883
-483.07269
-4.7963161
-357.95912
296.17718
304.60643
202.83849
-722.74899
799.88883
-411.93532
679.73261
388.98095
-10.676587
-268.02838
118.56787
-104.82399
-875.13742
87.08885
-346.33014
502.47688
-0.58199811
-771.70608
143.56675
-269.80468
588.30566
117.97443
-306.391
-327.38806
-177.4541
-248.73194
-403.72206
-488.8408
17.507247
35.111166
-355.25921
-878.15685
319.80171
-711.25736
249.67974
-130.83358
-132.83732
-274.35021
-616.80475
-18.097576
-401.14572
-363.63775
-2.1408386
-200.87711
-404.58907
-1092.756
116.3811
-671.54063
-127.90909
15.05498
-103.56195
-227.79694
-512.19695
157.59516
-484.08301
-223.26201
18.141308
-147.61091
-461.5349
-960.14734
65.3658
-719.0669
-112.55688
80.887563
-159.94111
-180.16576
-561.83311
197.69963
-495.91344
4.0969563
-74.804959
-90.542864
-344.80921
-945.10055
109.41844
-622.50162
-208.05053
60.631549
-65.272921
-177.60271
-610.33644
307.02776
-757.07038
64.581515
82.51403
-67.954398
-349.96
-618.74942
-154.32023
-451.2842
24.584555
46.308382
-165.76541
-105.43192
-605.36381
-92.683995
-299.86894
-280.93962
27.767514
143.6951
-161.50164
-740.52296
112.06752
-652.71702
-605.70542
135.79808
-248.69391
-30.249314
-532.32797
-173.21496
-409.02723
-401.46279
5.5877431
266.20903
-220.73712
-762.32931
-74.56298
-362.33418
-735.01388
-51.750177
-164.86372
-128.21401
-772.04056
86.670959
-620.15599
-421.872
-88.710801