/*--------------------------------*- C++ -*----------------------------------*\
  =========                 |
  \\      /  F ield         | OpenFOAM: The Open Source CFD Toolbox
   \\    /   O peration     | Website:  https://openfoam.org
    \\  /    A nd           | Version:  6
     \\/     M anipulation  |
\*---------------------------------------------------------------------------*/
FoamFile
{
    version     2.0;
    format      ascii;
    class       pointVectorField;
    location    "1.74";
    object      lm;
}
// * * * * * * * * * * * * * * * * * * * * * * * * * * * * * * * * * * * * * //

dimensions      [1 -2 -1 0 0 0 0];

internalField   nonuniform List<vector> 
3969
(
(0 0 0)
(0 0 0)
(648.54373 270.53125 -159.7488)
(628.12213 -378.41772 -126.99544)
(0 0 0)
(0 0 0)
(599.01721 -331.95415 -128.50664)
(619.36952 315.88778 -159.90745)
(0 0 0)
(0 0 0)
(0 0 0)
(0 0 0)
(0 0 0)
(0 0 0)
(0 0 0)
(645.26805 188.06231 -156.2219)
(641.8645 106.75074 -152.73858)
(638.95693 26.307193 -148.35344)
(636.49765 -53.77523 -143.84058)
(634.42922 -133.7738 -139.15665)
(632.76847 -214.47222 -134.72384)
(631.04179 -296.12048 -130.69356)
(-8.7126432 -24.00955 -24.351544)
(-6.9092337 -36.875481 -37.508356)
(-8.4962484 -51.813128 -50.120665)
(-13.519416 -66.405049 -61.690862)
(-22.190516 -80.68572 -71.880515)
(-35.469213 -94.102394 -81.151878)
(-52.899259 -106.55779 -88.733009)
(-75.280873 -117.88871 -94.643415)
(-101.84421 -127.86305 -98.641996)
(-132.96965 -136.38705 -100.54346)
(-167.94522 -143.54685 -100.55694)
(-206.51545 -148.75938 -98.538995)
(-247.99017 -152.29773 -94.791855)
(-291.78721 -153.81376 -89.588735)
(-336.88549 -153.21368 -83.138061)
(-382.51356 -150.38524 -75.936803)
(-427.86223 -145.42747 -68.234959)
(-471.8272 -137.99372 -60.368391)
(-513.63462 -128.26094 -52.693444)
(-552.21568 -116.23957 -45.449583)
(-586.79046 -101.91095 -38.979407)
(-616.51186 -85.532683 -33.365508)
(-640.71763 -67.140782 -28.836935)
(-658.69407 -47.171218 -25.429622)
(-670.1246 -25.483355 -23.232387)
(-674.40696 -2.9404097 -22.184179)
(-671.43704 20.63005 -22.33307)
(-660.98699 44.683195 -23.55564)
(-643.03111 68.864406 -25.8038)
(-617.59155 92.910401 -29.003463)
(-584.84667 116.42271 -33.085661)
(-545.02472 139.11209 -37.962252)
(-498.43055 160.67703 -43.535916)
(-445.45365 180.89755 -49.803504)
(-386.65827 199.45971 -56.578783)
(-322.26801 216.2654 -63.869961)
(-253.23506 231.08817 -71.644079)
(-179.90937 243.87895 -79.803944)
(-103.06175 254.58394 -88.04519)
(-23.150561 263.19824 -96.686697)
(58.935619 269.86464 -105.24994)
(142.90699 274.27332 -113.98209)
(227.58829 277.28254 -122.41754)
(312.9749 278.22361 -130.81109)
(398.13396 277.76784 -138.61901)
(482.40123 276.48582 -146.15671)
(566.02513 273.89157 -152.88961)
(8.5091022 2.2731221 8.1768975)
(4.2823249 7.5991819 2.4186854)
(3.3752146 15.682376 2.5720762)
(-5.3837115 24.221374 -4.4564351)
(-18.429621 36.162367 -9.707826)
(-35.073796 47.936258 -16.344074)
(-56.196884 60.664035 -21.840148)
(-80.857437 73.851359 -27.380958)
(-109.49997 86.448766 -31.7975)
(-141.85833 98.86052 -35.761617)
(-177.26609 109.63653 -38.757293)
(-215.94369 119.29415 -41.115392)
(-256.65387 126.57398 -42.957536)
(-299.42575 131.71857 -44.311016)
(-343.10486 133.96357 -45.389075)
(-387.32445 133.40531 -46.258679)
(-431.07103 129.7588 -47.173692)
(-473.55506 123.02644 -48.152928)
(-513.9261 113.27005 -49.370576)
(-551.35249 100.61009 -50.829149)
(-584.95054 85.099233 -52.596009)
(-613.95702 67.284741 -54.664018)
(-637.67962 47.04952 -56.920257)
(-655.44578 25.014181 -59.41035)
(-666.89355 1.4594995 -62.070752)
(-671.59736 -23.197302 -65.006249)
(-669.33601 -48.778081 -67.685908)
(-659.56456 -74.735369 -70.478483)
(-642.37307 -100.87944 -73.281176)
(-617.73854 -126.80636 -75.875993)
(-585.91167 -152.31419 -78.359899)
(-547.07936 -177.12466 -80.676934)
(-501.53485 -201.0116 -82.871387)
(-449.71964 -223.75236 -84.94973)
(-392.03758 -245.19228 -86.972704)
(-329.03171 -265.12893 -88.91106)
(-261.33177 -283.48281 -91.035239)
(-189.36465 -300.06178 -92.965352)
(-113.86632 -315.0484 -95.245035)
(-35.441357 -328.16028 -97.594132)
(45.317982 -339.49906 -100.22906)
(127.84287 -349.18816 -102.99025)
(211.42166 -357.12628 -106.13576)
(295.57873 -363.64105 -109.53979)
(379.77389 -368.66672 -113.37685)
(463.47713 -372.66242 -117.55581)
(546.38462 -375.54593 -122.15198)
(0 0 0)
(0 0 0)
(0 0 0)
(0 0 0)
(0 0 0)
(0 0 0)
(0 0 0)
(-8.6537436 11.601412 -15.750821)
(-12.772697 37.14101 -27.052915)
(-13.167399 37.162214 -34.791788)
(-22.827052 57.6684 -43.806855)
(-34.075617 67.241829 -52.133195)
(-50.602098 78.638393 -57.955651)
(-71.647211 89.75392 -63.694625)
(-96.912234 98.284037 -67.202504)
(-126.73986 106.91649 -69.139035)
(-160.38277 113.4893 -69.248718)
(-197.94426 119.13506 -67.934959)
(-239.27115 122.91965 -64.0046)
(-283.08037 125.16574 -58.948499)
(-329.33439 126.06068 -52.327644)
(-376.27684 124.64471 -44.862354)
(-424.06804 122.00037 -36.658235)
(-470.89709 116.60887 -28.056624)
(-516.42199 109.87766 -19.547465)
(-559.32332 100.57411 -11.299837)
(-598.91108 89.537962 -3.6495728)
(-634.21656 76.329479 3.1457307)
(-664.49418 61.312087 8.9654091)
(-689.08642 44.50168 13.610854)
(-707.31887 26.106481 17.067378)
(-718.75581 6.2912088 19.106179)
(-722.24737 -14.736651 19.544057)
(-718.82871 -36.608142 18.947115)
(-708.26121 -59.388924 17.595795)
(-690.06522 -82.30053 15.000147)
(-664.38849 -105.28955 11.411889)
(-631.41552 -128.02633 6.8868348)
(-591.35963 -150.2598 1.5002703)
(-544.62993 -171.68402 -4.6505276)
(-491.54901 -192.19427 -11.502754)
(-432.69728 -211.43622 -18.952679)
(-368.20671 -229.67814 -26.945678)
(-299.57099 -245.46798 -35.349996)
(-226.2712 -261.15715 -44.220557)
(-149.58797 -274.28045 -53.203344)
(-70.046017 -286.11437 -62.4496)
(11.868758 -296.2461 -71.741669)
(95.328571 -304.94655 -80.914848)
(179.86162 -312.07511 -89.950175)
(264.77789 -317.95478 -98.631569)
(349.58274 -322.54126 -106.89152)
(433.70322 -326.19436 -114.58866)
(516.72783 -329.01241 -121.60425)
(601.73585 -249.59305 -132.94006)
(603.54939 -167.93547 -137.16223)
(605.09319 -87.210528 -140.93914)
(607.04756 -7.4081271 -144.18212)
(609.83921 72.345447 -147.61304)
(612.52728 152.90576 -151.17092)
(616.19484 233.74822 -155.35432)
(537.43669 319.04635 -155.34329)
(453.78196 321.64896 -150.63264)
(369.36957 322.94888 -146.66055)
(284.26624 322.85395 -143.05291)
(198.78589 321.215 -139.98879)
(113.66989 317.58569 -137.34349)
(29.457998 312.00055 -135.06286)
(-53.231027 304.18835 -133.14327)
(-133.71644 294.25562 -131.56671)
(-211.30529 282.0825 -130.07485)
(-285.69462 267.50471 -128.97379)
(-354.71287 250.61547 -127.48343)
(-420.45924 232.13973 -126.72103)
(-479.98912 211.37187 -125.5107)
(-533.75377 189.00091 -124.4321)
(-581.06171 165.07656 -123.11988)
(-621.51177 139.87056 -121.68352)
(-654.79608 113.62231 -120.01272)
(-680.6492 86.774551 -118.20812)
(-698.94535 59.421065 -116.10431)
(-709.66926 32.226734 -113.92267)
(-712.78603 5.2553154 -111.5081)
(-708.57163 -20.818292 -108.99972)
(-697.37118 -45.786079 -106.42041)
(-679.59298 -69.176542 -103.90232)
(-655.69328 -90.574981 -101.37531)
(-626.37996 -109.69367 -98.920164)
(-592.33154 -126.09576 -96.595428)
(-554.36123 -139.60576 -94.300357)
(-513.21957 -149.94663 -92.047198)
(-469.91136 -156.97996 -89.76449)
(-425.15458 -160.78825 -87.370822)
(-379.85755 -160.86778 -84.725977)
(-335.07508 -158.36694 -81.643971)
(-291.01943 -152.46706 -77.946813)
(-248.55747 -143.80493 -73.762619)
(-208.69669 -133.21662 -68.661958)
(-171.5986 -120.29885 -63.063503)
(-137.11687 -106.8034 -55.779516)
(-107.09112 -91.601774 -48.20434)
(-80.060117 -76.438627 -39.869277)
(-56.14138 -61.669693 -30.29123)
(-37.343946 -46.851328 -20.776645)
(-21.056151 -33.924082 -11.330933)
(-9.358097 -22.882654 -2.6072377)
(-2.0729682 -10.824869 4.8636748)
(-0.72449515 -7.2415388 6.6351041)
(0 0 0)
(0 0 0)
(0 0 0)
(0 0 0)
(0 0 0)
(0 0 0)
(0 0 0)
(0 0 0)
(0 0 0)
(0 0 0)
(0 0 0)
(0 0 0)
(0 0 0)
(0 0 0)
(624.54095 -373.51013 -127.26587)
(621.18839 -368.46224 -127.51421)
(617.84489 -363.14488 -127.49229)
(614.3081 -357.64865 -127.54444)
(610.65312 -351.84626 -127.56514)
(606.74711 -345.57483 -127.66249)
(602.69699 -339.14268 -128.21494)
(645.60706 277.226 -159.61387)
(642.33165 283.47106 -159.56133)
(638.94524 289.48987 -159.65591)
(635.38877 295.27265 -159.77818)
(631.61336 300.75746 -159.96418)
(627.68116 306.05511 -160.02741)
(623.66269 311.03316 -159.88929)
(-1.5720464 -20.524629 -25.733495)
(-2.0069343 -32.205549 -32.294861)
(-2.8837265 -45.630803 -44.444822)
(-8.3141021 -57.149616 -53.999288)
(-16.971768 -67.378646 -63.597046)
(-30.885342 -76.919741 -71.923173)
(-48.739637 -85.106958 -79.031329)
(-71.646017 -92.477857 -84.723489)
(-98.86365 -98.415198 -88.546226)
(-130.57929 -103.48526 -90.728702)
(-166.1466 -107.1923 -91.097535)
(-205.43429 -109.75436 -89.780204)
(-247.55422 -111.08897 -86.930283)
(-292.0476 -111.14514 -82.737581)
(-337.88892 -109.89344 -77.567296)
(-384.35328 -107.18177 -71.66888)
(-430.50476 -103.09153 -65.342143)
(-475.32978 -97.393684 -58.870682)
(-517.93582 -90.302973 -52.544382)
(-557.34613 -81.678699 -46.614221)
(-592.71753 -71.584677 -41.319692)
(-623.18411 -60.111241 -36.80001)
(-648.05524 -47.325724 -33.21539)
(-666.66646 -33.339497 -30.608737)
(-678.59368 -18.346259 -29.04512)
(-683.33465 -2.577665 -28.439912)
(-680.66047 13.924843 -28.907544)
(-670.44655 30.755676 -30.286913)
(-652.58894 47.798457 -32.551152)
(-627.14461 64.704888 -35.631809)
(-594.31167 81.269864 -39.463734)
(-554.28472 97.284396 -43.957807)
(-507.41816 112.49668 -49.088038)
(-454.12395 126.74036 -54.774663)
(-394.85849 139.79956 -60.897881)
(-330.14681 151.63684 -67.560716)
(-260.64601 162.00305 -74.519697)
(-186.76093 170.97257 -81.801151)
(-109.37382 178.39892 -89.335355)
(-28.968388 184.40415 -97.044082)
(53.63272 188.84454 -104.85381)
(138.00613 192.04415 -112.69283)
(223.1756 193.84156 -120.43245)
(308.95445 194.50775 -128.03724)
(394.44247 194.18054 -135.39299)
(479.0444 193.11324 -142.48964)
(562.91473 190.85522 -149.31539)
(5.4708886 -17.293889 -21.949974)
(4.9599435 -24.862337 -28.499529)
(2.4129388 -37.874316 -39.017826)
(-3.0754116 -45.392408 -47.934493)
(-13.44356 -53.254409 -56.311418)
(-27.425435 -59.592801 -63.932179)
(-46.167988 -65.017982 -70.666381)
(-69.654409 -69.122037 -75.839597)
(-97.401582 -72.35569 -79.859731)
(-129.61175 -74.637422 -82.119072)
(-165.76306 -76.205152 -82.88061)
(-205.34435 -76.744568 -82.199787)
(-247.99252 -76.793728 -80.094394)
(-292.82273 -75.937024 -76.818386)
(-339.15163 -74.435581 -72.719919)
(-386.10509 -72.09142 -67.88783)
(-432.68799 -69.051525 -62.726217)
(-477.95251 -65.142804 -57.45181)
(-521.01394 -60.490723 -52.330314)
(-560.86874 -54.966735 -47.563727)
(-596.64845 -48.57445 -43.382393)
(-627.53252 -41.390374 -39.852869)
(-652.79288 -33.341039 -37.146376)
(-671.87059 -24.630165 -35.250877)
(-684.08568 -15.159463 -34.263685)
(-689.13599 -5.2190493 -34.179734)
(-686.73041 5.2318044 -34.906883)
(-676.69768 15.912112 -36.461757)
(-658.91928 26.70194 -38.743996)
(-633.563 37.452811 -41.703852)
(-600.70071 47.971307 -45.276055)
(-560.5842 58.119557 -49.454447)
(-513.61814 67.737049 -54.117417)
(-460.10418 76.656139 -59.239466)
(-400.64914 84.795015 -64.797438)
(-335.65223 92.067209 -70.726772)
(-265.84434 98.265533 -76.933635)
(-191.69272 103.63173 -83.525062)
(-114.08988 107.74097 -90.200069)
(-33.357498 111.02846 -97.186369)
(49.477337 113.20904 -104.22328)
(134.11802 114.48692 -111.30864)
(219.59714 114.92394 -118.42686)
(305.47374 114.58171 -125.47292)
(391.25405 113.47477 -132.29594)
(475.90678 111.95909 -139.15879)
(560.21764 109.33346 -145.62356)
(9.115883 -13.632501 -17.978379)
(7.7343479 -20.444076 -23.61475)
(6.3533058 -28.028288 -32.877258)
(-1.0972668 -34.104369 -40.341377)
(-11.056759 -38.385493 -48.286374)
(-26.171814 -42.496389 -55.646379)
(-45.388522 -44.263479 -61.71582)
(-69.077376 -46.022597 -67.217773)
(-97.148256 -46.457987 -71.080808)
(-129.70372 -46.691616 -73.613202)
(-165.90452 -46.006796 -74.870854)
(-205.92844 -45.203709 -74.683147)
(-248.68135 -44.031931 -73.272733)
(-293.80187 -42.619896 -70.967098)
(-340.28647 -41.106899 -67.824574)
(-387.34397 -39.331055 -64.118387)
(-434.06754 -37.442267 -60.142699)
(-479.51434 -35.369092 -55.998736)
(-522.75061 -33.072463 -52.062633)
(-562.81864 -30.529991 -48.371796)
(-598.87001 -27.660457 -45.231021)
(-630.01967 -24.545001 -42.626432)
(-655.60912 -21.087606 -40.719018)
(-674.81158 -17.270067 -39.601974)
(-687.30989 -13.202061 -39.202907)
(-692.53171 -8.8032779 -39.535017)
(-690.30929 -4.2520122 -40.565482)
(-680.30443 0.50105784 -42.345612)
(-662.70723 5.3380577 -44.643644)
(-637.4001 10.133812 -47.512772)
(-604.55177 14.823081 -50.920345)
(-564.46841 19.307225 -54.752479)
(-517.4457 23.490715 -59.001336)
(-463.89631 27.249841 -63.634674)
(-404.36593 30.623714 -68.608695)
(-339.29636 33.392648 -73.880203)
(-269.38388 35.669639 -79.430098)
(-195.14563 37.348129 -85.253712)
(-117.33517 38.402724 -91.229307)
(-36.550487 39.024245 -97.494331)
(46.431387 38.836765 -103.70204)
(131.08688 38.377469 -110.17838)
(216.63852 37.240207 -116.55976)
(302.57525 35.760416 -122.96369)
(388.43907 33.815161 -129.32384)
(473.3199 31.574377 -135.63631)
(557.79414 28.795134 -141.86456)
(11.32323 -9.2784017 -13.31084)
(10.733315 -12.782859 -18.367799)
(8.1077517 -18.116815 -26.22754)
(1.4821105 -21.065807 -33.856918)
(-9.6761239 -22.86825 -41.300141)
(-24.945292 -24.191658 -47.933492)
(-44.532347 -23.653468 -54.305055)
(-68.642486 -22.916757 -59.127186)
(-97.25091 -21.241216 -63.068931)
(-129.9922 -19.317661 -65.811225)
(-166.71232 -17.036854 -67.285401)
(-206.72612 -14.93491 -67.548294)
(-249.56022 -12.800897 -66.921745)
(-294.65466 -10.96944 -65.346574)
(-341.04255 -9.5982119 -63.118122)
(-388.12727 -8.3483037 -60.431932)
(-434.75523 -7.754823 -57.42184)
(-480.19665 -7.3395443 -54.426431)
(-523.33412 -7.4331707 -51.527618)
(-563.41889 -7.7347583 -48.972873)
(-599.29282 -8.3214979 -46.889762)
(-630.36763 -9.21185 -45.141388)
(-655.81066 -10.158522 -44.261273)
(-675.09285 -11.108866 -43.859653)
(-687.49798 -12.061591 -44.141753)
(-692.83496 -13.001379 -44.988143)
(-690.63714 -13.911717 -46.422305)
(-680.8389 -14.770809 -48.337024)
(-663.31159 -15.648151 -50.704332)
(-638.10884 -16.515914 -53.552757)
(-605.39916 -17.407552 -56.728156)
(-565.40976 -18.408871 -60.242698)
(-518.50801 -19.460744 -64.088954)
(-465.06138 -20.702086 -68.181475)
(-405.64127 -22.059039 -72.553638)
(-340.67739 -23.628216 -77.139502)
(-270.89853 -25.355743 -81.974219)
(-196.80492 -27.318405 -86.981465)
(-119.2928 -29.469213 -92.22195)
(-38.561858 -31.817791 -97.595579)
(44.259223 -34.318177 -103.15595)
(128.88019 -36.856642 -108.80058)
(214.35984 -39.631029 -114.55155)
(300.28986 -42.408317 -120.34978)
(386.19698 -45.280862 -126.24388)
(471.07883 -48.1733 -132.06699)
(555.61073 -51.163249 -137.89454)
(12.441814 -6.4659733 -8.487134)
(10.503296 -9.3347598 -12.359465)
(9.7398203 -10.511496 -20.114019)
(1.699207 -10.918814 -26.535926)
(-9.555964 -9.5920139 -33.135862)
(-25.397641 -7.7667358 -39.928061)
(-45.438936 -4.3969473 -45.637604)
(-70.207126 -0.97762929 -50.612439)
(-98.827387 3.2876286 -54.757181)
(-131.82293 7.310417 -57.790875)
(-168.31058 11.626336 -59.802736)
(-208.271 15.198265 -60.78439)
(-250.92032 18.489276 -60.788111)
(-295.72469 20.676844 -59.991076)
(-341.93912 22.256727 -58.674533)
(-388.65223 22.748899 -56.898655)
(-435.04458 22.280954 -54.948117)
(-480.13827 20.856346 -52.944821)
(-523.0513 18.398452 -51.086818)
(-562.83001 15.231523 -49.59774)
(-598.54886 11.076012 -48.299442)
(-629.83106 6.3309066 -47.644286)
(-655.46553 1.2643376 -47.383128)
(-674.64304 -4.5329893 -47.669402)
(-687.2834 -10.667079 -48.344564)
(-692.59483 -17.069874 -49.633066)
(-690.46859 -23.590412 -51.332686)
(-680.71177 -30.20185 -53.449256)
(-663.2629 -36.852688 -55.923634)
(-638.15749 -43.451618 -58.689833)
(-605.51675 -50.017491 -61.696038)
(-565.64714 -56.520394 -64.937371)
(-518.81916 -62.844072 -68.41167)
(-465.51083 -69.155228 -72.010368)
(-406.18093 -75.183159 -75.86438)
(-341.37343 -81.142446 -79.860694)
(-271.652 -86.831325 -84.03511)
(-197.75401 -92.458241 -88.410398)
(-120.07424 -97.705716 -93.009751)
(-39.375241 -102.70232 -97.692811)
(43.287183 -107.50027 -102.48296)
(127.7028 -112.01695 -107.58068)
(213.02242 -116.39868 -112.63052)
(298.79639 -120.38024 -117.96155)
(384.41752 -124.23039 -123.21392)
(469.24698 -127.77553 -128.57058)
(553.50644 -130.94132 -133.92756)
(11.476608 -2.1283472 -2.3715526)
(9.4139929 -1.2386324 -7.4307808)
(8.3460272 0.29722123 -12.906)
(0.13216986 2.9131331 -19.002583)
(-11.220668 6.9318732 -25.799176)
(-27.329589 11.709463 -32.058387)
(-47.745996 17.513944 -37.789042)
(-72.326493 23.632073 -43.081758)
(-101.20027 30.146232 -47.215582)
(-133.8223 36.276149 -50.583077)
(-170.30848 42.243752 -52.956726)
(-209.79502 47.247346 -54.253749)
(-252.07656 51.275007 -54.794524)
(-296.46697 54.10541 -54.758684)
(-342.08836 55.515668 -54.193167)
(-388.2975 55.481062 -53.359004)
(-434.07165 53.822124 -52.327827)
(-478.63763 50.613413 -51.344051)
(-520.99387 45.863535 -50.556536)
(-560.21675 39.6419 -49.95534)
(-595.62857 32.027633 -49.840429)
(-626.03875 23.589522 -49.84781)
(-650.92128 13.841945 -50.821961)
(-669.93394 2.6936972 -51.649616)
(-682.10228 -8.8913231 -53.24637)
(-687.25691 -20.81389 -55.138407)
(-685.0504 -33.119109 -57.164587)
(-675.3199 -45.670512 -59.533692)
(-657.98654 -58.25166 -62.096212)
(-633.02881 -70.819648 -64.800981)
(-600.63928 -83.238622 -67.621444)
(-561.04189 -95.415919 -70.546986)
(-514.58287 -107.24046 -73.5637)
(-461.68009 -118.68276 -76.633322)
(-402.8036 -129.5519 -79.89263)
(-338.46006 -139.9776 -83.141841)
(-269.32365 -149.70998 -86.601728)
(-195.88045 -158.88257 -90.105254)
(-118.90552 -167.35232 -93.891606)
(-39.089616 -175.26234 -97.62521)
(43.174541 -182.14674 -101.87114)
(127.1455 -188.60652 -106.0313)
(212.01679 -194.29248 -110.52173)
(297.43489 -199.47862 -115.10913)
(382.69057 -203.98303 -119.91731)
(467.35107 -208.03998 -124.90595)
(551.32161 -211.42371 -129.91746)
(10.262671 1.1318166 2.0114563)
(8.3493432 2.9019585 -2.3871782)
(7.2882363 7.6091594 -6.0150903)
(-1.4284872 12.881789 -12.124875)
(-12.921547 19.909636 -17.948552)
(-29.837366 28.192195 -24.23772)
(-50.293812 37.178294 -29.925546)
(-75.261461 46.460264 -35.17047)
(-104.04119 56.009472 -39.471127)
(-136.60174 64.618906 -43.086373)
(-173.00006 73.20353 -45.874354)
(-211.98891 79.834098 -47.438521)
(-253.96022 85.571502 -48.852815)
(-297.64056 89.206236 -49.433401)
(-342.72437 91.030753 -49.728007)
(-388.14429 90.542955 -49.702777)
(-433.24801 87.86441 -49.614517)
(-477.07553 82.919861 -49.607007)
(-518.6948 75.71837 -49.701476)
(-557.34166 66.408677 -50.143559)
(-592.04209 55.226216 -50.85999)
(-622.1561 42.079893 -51.89428)
(-646.53035 27.564315 -53.398894)
(-665.16848 11.56376 -55.148548)
(-677.04464 -5.5278048 -57.21277)
(-682.16534 -23.352578 -59.479755)
(-679.9874 -41.767965 -61.795814)
(-670.23027 -60.403998 -64.428739)
(-652.94368 -79.117037 -67.090434)
(-628.09829 -97.814173 -69.787544)
(-595.883 -116.23516 -72.451936)
(-556.54403 -134.2519 -75.120061)
(-510.3835 -151.67018 -77.765091)
(-457.84907 -168.39755 -80.410013)
(-399.35006 -184.21644 -83.102577)
(-335.48922 -199.23456 -85.756204)
(-266.80603 -213.06591 -88.586872)
(-193.83631 -225.93565 -91.455266)
(-117.34024 -237.64323 -94.489249)
(-37.998561 -248.14779 -97.714953)
(43.845935 -257.5463 -101.05519)
(127.24961 -265.8014 -104.64518)
(211.73431 -273.0483 -108.45751)
(296.69744 -279.26053 -112.54014)
(381.52585 -284.53772 -116.88067)
(465.88073 -289.08539 -121.44192)
(549.16863 -292.79541 -126.16171)
(0 0 0)
(0 0 0)
(0 0 0)
(0 0 0)
(0 0 0)
(0 0 0)
(0 0 0)
(0 0 0)
(0 0 0)
(0 0 0)
(0 0 0)
(0 0 0)
(0 0 0)
(0 0 0)
(0 0 0)
(0 0 0)
(0 0 0)
(0 0 0)
(0 0 0)
(0 0 0)
(0 0 0)
(0 0 0)
(0 0 0)
(0 0 0)
(0 0 0)
(0 0 0)
(0 0 0)
(0 0 0)
(0 0 0)
(0 0 0)
(0 0 0)
(0 0 0)
(0 0 0)
(0 0 0)
(0 0 0)
(0 0 0)
(0 0 0)
(0 0 0)
(0 0 0)
(0 0 0)
(0 0 0)
(0 0 0)
(0 0 0)
(0 0 0)
(0 0 0)
(0 0 0)
(0 0 0)
(0 0 0)
(0 0 0)
(3.2134314 0.52096599 4.6463806)
(0.47203082 2.6507279 3.2104988)
(-2.8326751 3.2614217 0.71604704)
(-4.8146932 4.057435 -1.513353)
(-5.9285051 4.2916302 -3.2813884)
(-7.5017298 5.4201107 -5.6645028)
(-7.7394748 3.5706926 -7.640163)
(-1.1283122 14.180594 0.233427)
(-5.8082969 19.538508 -2.6178769)
(-8.7028809 19.132576 -5.4826145)
(-11.021787 19.45447 -8.5601804)
(-13.284647 22.812054 -11.496425)
(-13.632155 24.46421 -15.329804)
(-14.073323 26.679026 -20.793773)
(-2.3008214 17.187777 -2.363213)
(-8.5679153 18.732891 -5.1421329)
(-12.902205 23.333851 -10.959476)
(-15.299034 25.098398 -14.630685)
(-16.882397 25.530357 -19.237654)
(-17.543011 28.000977 -22.745817)
(-17.275317 33.664065 -30.574838)
(-13.519443 31.12598 -9.4905905)
(-18.391197 35.563359 -13.350356)
(-22.06623 37.512613 -18.80673)
(-24.813392 39.654273 -21.978042)
(-26.605477 41.91799 -26.994514)
(-26.750837 46.482688 -33.139689)
(-24.983224 48.110558 -37.650365)
(-24.97285 41.252295 -15.211661)
(-30.94652 44.530431 -19.497739)
(-35.815523 48.184795 -25.041907)
(-38.070844 50.484149 -30.403713)
(-39.692384 53.211009 -35.04694)
(-39.813654 56.314606 -40.389174)
(-38.584048 60.952883 -47.064111)
(-42.848468 53.727705 -22.028539)
(-47.827064 57.11036 -27.069087)
(-51.727998 59.570812 -32.366413)
(-54.606517 62.951085 -36.980999)
(-55.780416 65.199502 -42.413473)
(-55.460393 69.183538 -47.963608)
(-53.769998 72.42003 -53.049806)
(-63.032956 65.593387 -27.739328)
(-68.440368 68.721756 -33.110903)
(-72.969356 72.284142 -38.31885)
(-75.414327 74.8687 -43.188642)
(-77.064396 77.915598 -48.740008)
(-77.05666 81.443515 -53.554153)
(-75.788131 85.180522 -59.326168)
(-88.15296 78.218911 -33.238046)
(-93.48585 81.456232 -38.306663)
(-97.205107 83.683266 -43.619627)
(-100.15816 86.517564 -48.346645)
(-101.36474 88.912274 -53.151483)
(-101.52371 91.66258 -58.199387)
(-99.946997 94.636421 -62.954703)
(-116.54429 90.189322 -37.403433)
(-121.50524 92.583282 -42.857045)
(-125.87087 95.017117 -47.481147)
(-128.38468 97.392783 -52.060897)
(-130.38512 100.04012 -56.662357)
(-130.43323 102.21107 -61.028533)
(-129.98104 105.21617 -65.813838)
(-148.54006 101.38963 -40.995296)
(-153.72064 103.69982 -45.770873)
(-157.47185 105.54441 -50.016847)
(-160.6126 107.6105 -54.35924)
(-162.47124 109.43093 -58.501154)
(-163.12743 111.21584 -62.227389)
(-162.69946 113.1704 -66.405718)
(-183.95429 111.99006 -43.446312)
(-188.6147 113.43304 -47.932626)
(-192.79164 114.73914 -51.645363)
(-195.70415 116.05916 -55.137397)
(-198.20493 117.78115 -58.486585)
(-199.17854 118.85671 -61.929317)
(-199.4567 120.32243 -65.603872)
(-221.72536 120.22302 -44.975814)
(-226.70263 121.34865 -48.714414)
(-230.70653 122.32207 -51.44183)
(-234.05895 123.49928 -54.451519)
(-236.78125 124.70635 -57.306782)
(-238.32603 125.14652 -59.776569)
(-239.70176 125.98811 -62.327545)
(-262.26922 127.51121 -45.959537)
(-266.90523 127.94643 -48.599817)
(-270.82017 128.11812 -50.849176)
(-274.43954 128.77301 -52.837088)
(-277.50321 129.26694 -54.703977)
(-280.03476 129.60846 -56.388314)
(-282.00605 129.41563 -58.021236)
(-304.15166 131.75755 -46.105552)
(-308.74074 131.79961 -47.715985)
(-312.73502 131.7758 -48.814594)
(-316.65604 132.1321 -49.851869)
(-320.33754 132.58638 -50.817112)
(-323.57845 132.00064 -51.569208)
(-326.77021 131.43821 -52.170763)
(-347.36807 133.96652 -45.918266)
(-351.72768 133.6081 -46.374807)
(-355.52695 133.01585 -46.483095)
(-359.81516 132.99648 -46.523392)
(-363.8621 132.75725 -46.28529)
(-368.06822 131.86692 -46.143874)
(-372.25789 130.88841 -45.566067)
(-390.82853 133.10511 -45.413986)
(-394.84126 132.42627 -44.654206)
(-398.69023 131.7973 -43.574882)
(-403.28406 131.50844 -42.344258)
(-407.86428 131.22422 -41.1255)
(-413.03518 130.07035 -39.876152)
(-418.32928 128.68926 -38.193338)
(-433.78375 129.47859 -44.931301)
(-437.47995 128.69013 -42.882612)
(-441.22642 127.80176 -40.550615)
(-446.01383 127.17733 -38.273222)
(-451.14199 126.69958 -35.808273)
(-457.13616 125.12606 -33.510668)
(-463.56788 123.68554 -30.583976)
(-475.47978 122.86044 -44.516218)
(-478.77957 122.01911 -41.07336)
(-482.40326 121.04527 -37.618053)
(-487.49824 120.49984 -34.019105)
(-493.01561 119.85135 -30.425872)
(-499.96309 118.39775 -27.038936)
(-507.43488 116.73882 -22.943343)
(-514.9983 113.34075 -44.304073)
(-517.82737 112.45449 -39.61803)
(-521.38714 111.62976 -34.910307)
(-526.54876 110.86773 -30.165735)
(-532.58602 110.32922 -25.427911)
(-540.28905 108.7025 -20.971159)
(-548.82912 107.24535 -15.664692)
(-551.54187 100.92134 -44.460149)
(-553.96189 100.27587 -38.490644)
(-557.27053 99.443617 -32.615045)
(-562.65017 98.92843 -26.726371)
(-568.99619 98.332724 -20.830072)
(-577.49976 97.016747 -15.323095)
(-586.95958 95.592711 -8.9074925)
(-584.31283 85.886204 -44.995902)
(-586.1931 85.277079 -37.81768)
(-589.40322 84.790506 -30.857599)
(-594.78904 84.286202 -23.866972)
(-601.53992 83.945372 -16.944643)
(-610.63767 82.748322 -10.480786)
(-620.98352 81.669283 -2.9834515)
(-612.51806 68.264653 -45.90546)
(-613.98319 68.027412 -37.692897)
(-616.9089 67.742904 -29.694149)
(-622.38162 67.542484 -21.757622)
(-629.31831 67.320835 -13.848423)
(-639.0106 66.545064 -6.4342114)
(-650.11246 65.749505 2.0276364)
(-635.5521 48.519676 -47.204297)
(-636.44635 48.472976 -38.054437)
(-639.26285 48.599411 -29.172443)
(-644.66031 48.568454 -20.374308)
(-651.89559 48.689514 -11.561583)
(-662.02011 48.24827 -3.3954431)
(-673.75578 47.900183 5.9521759)
(-652.66596 26.753483 -48.876799)
(-653.16785 27.081215 -38.957131)
(-655.80794 27.609198 -29.329969)
(-661.13523 27.868484 -19.783649)
(-668.46048 28.320597 -10.303205)
(-678.90021 28.322816 -1.3539174)
(-691.15407 28.453874 8.7492167)
(-663.61107 3.5237532 -50.975216)
(-663.55711 4.2027611 -40.355162)
(-666.14954 5.1900788 -30.119033)
(-671.14993 5.7095868 -19.947275)
(-678.85177 6.4646106 -9.9162079)
(-689.38468 6.7889516 -0.34280725)
(-702.12694 7.377095 10.275052)
(-667.68767 -21.073269 -53.33493)
(-667.38032 -19.895471 -42.1603)
(-669.80305 -18.659307 -31.535335)
(-674.8633 -17.702385 -20.54717)
(-682.56722 -16.677708 -10.675388)
(-692.87529 -15.809094 -0.382477)
(-705.7752 -14.692218 10.221593)
(-664.98763 -46.412059 -55.898917)
(-664.34664 -44.890029 -44.432025)
(-666.54201 -43.37495 -33.494769)
(-671.14346 -41.931866 -22.46666)
(-678.9887 -40.504362 -11.930371)
(-689.38966 -39.030554 -1.2343228)
(-702.48927 -37.695034 9.2141402)
(-654.87839 -72.226952 -58.66814)
(-654.16455 -70.427517 -46.85836)
(-655.94255 -68.50909 -35.85945)
(-660.79424 -66.643318 -24.642772)
(-668.22818 -64.822295 -13.864059)
(-678.68786 -63.082285 -3.1705394)
(-691.74898 -61.147566 7.7209846)
(-637.49275 -98.249331 -61.428519)
(-636.65697 -96.196725 -49.547424)
(-638.39682 -93.874272 -38.636229)
(-642.99693 -91.735305 -27.249712)
(-650.41554 -89.671064 -16.559977)
(-660.7579 -87.295544 -5.7774117)
(-673.71214 -85.050409 5.0839224)
(-612.89066 -124.19604 -64.215128)
(-612.02495 -121.81108 -52.428302)
(-613.61101 -119.23871 -41.689319)
(-618.19064 -116.73455 -30.383468)
(-625.43054 -114.23679 -19.830053)
(-635.58308 -111.51252 -9.1482448)
(-648.33133 -108.84719 1.6092115)
(-581.18562 -149.68333 -66.94162)
(-580.3034 -147.06827 -55.489254)
(-581.91846 -144.14847 -44.940431)
(-586.35126 -141.32916 -33.912072)
(-593.43899 -138.56283 -23.624782)
(-603.33381 -135.41207 -13.152498)
(-615.7789 -132.39388 -2.6966502)
(-542.57253 -174.53329 -69.695441)
(-541.82595 -171.62868 -58.640053)
(-543.3905 -168.47118 -48.484272)
(-547.74766 -165.37119 -37.8478)
(-554.62549 -162.2552 -27.92086)
(-564.21978 -158.7378 -17.796995)
(-576.2717 -155.33617 -7.7397147)
(-497.39807 -198.41892 -72.403415)
(-496.76691 -195.28517 -61.908075)
(-498.41361 -191.85364 -52.194462)
(-502.66665 -188.43357 -42.083486)
(-509.35229 -185.02485 -32.620331)
(-518.57548 -181.16993 -22.980152)
(-530.18842 -177.42609 -13.422321)
(-446.01531 -221.17659 -75.119433)
(-445.62968 -217.7686 -65.255697)
(-447.32947 -214.12634 -56.138832)
(-451.50094 -210.45452 -46.642301)
(-457.94891 -206.76313 -37.76843)
(-466.77922 -202.5773 -28.675344)
(-477.85275 -198.49984 -19.731516)
(-388.88077 -242.54395 -77.849928)
(-388.738 -238.94936 -68.754929)
(-390.54939 -235.06493 -60.261628)
(-394.63912 -231.11108 -51.480114)
(-400.87679 -227.14357 -43.215387)
(-409.25815 -222.75859 -34.762777)
(-419.83403 -218.31775 -26.586588)
(-326.49921 -262.47454 -80.60013)
(-326.67514 -258.62924 -72.276413)
(-328.60778 -254.54203 -64.513751)
(-332.66185 -250.35311 -56.513026)
(-338.65123 -246.22273 -49.018907)
(-346.5625 -241.31004 -41.280623)
(-356.39194 -236.53749 -34.014703)
(-259.48622 -280.57443 -83.511137)
(-259.91735 -276.6372 -76.136615)
(-261.95435 -272.30504 -69.16567)
(-265.98481 -267.97696 -61.991457)
(-271.59538 -263.40847 -55.214878)
(-279.03029 -258.78768 -48.402271)
(-288.24897 -253.67156 -41.452366)
(-188.0882 -297.47259 -86.469832)
(-189.05765 -292.96832 -79.97742)
(-191.29818 -288.53397 -73.804955)
(-195.14784 -283.94035 -67.525647)
(-200.64729 -279.29331 -61.53714)
(-207.57419 -273.81677 -55.322165)
(-216.30826 -268.82283 -49.580624)
(-113.36602 -311.90424 -89.530922)
(-114.56117 -307.48918 -83.914205)
(-116.99072 -302.88859 -78.542688)
(-120.89099 -298.07761 -73.111607)
(-126.08455 -293.22949 -67.967093)
(-132.61065 -287.97285 -62.819361)
(-140.47363 -282.61199 -57.767804)
(-35.633048 -324.9765 -92.86567)
(-37.218542 -320.30974 -88.09852)
(-39.845797 -315.49904 -83.610338)
(-43.673967 -310.54546 -79.052577)
(-48.644629 -305.5498 -74.790366)
(-54.634872 -300.01093 -70.326266)
(-61.865076 -294.45504 -66.235817)
(44.418065 -336.08341 -96.292592)
(42.490292 -331.24654 -92.50886)
(39.678169 -326.29021 -88.7836)
(35.901032 -321.18593 -85.08938)
(31.187707 -316.00336 -81.563493)
(25.648165 -310.37052 -78.00404)
(19.040297 -304.66859 -74.73989)
(126.25891 -345.52371 -99.921377)
(123.94257 -340.52874 -97.044987)
(120.9592 -335.40234 -94.075749)
(117.24238 -330.19543 -91.22498)
(112.72823 -324.85643 -88.465445)
(107.60553 -319.12856 -85.675771)
(101.65391 -313.27328 -83.190023)