/*--------------------------------*- C++ -*----------------------------------*\
  =========                 |
  \\      /  F ield         | OpenFOAM: The Open Source CFD Toolbox
   \\    /   O peration     | Website:  https://openfoam.org
    \\  /    A nd           | Version:  6
     \\/     M anipulation  |
\*---------------------------------------------------------------------------*/
FoamFile
{
    version     2.0;
    format      ascii;
    class       pointScalarField;
    location    "1.74";
    object      p;
}
// * * * * * * * * * * * * * * * * * * * * * * * * * * * * * * * * * * * * * //

dimensions      [1 -1 -2 0 0 0 0];

internalField   nonuniform List<scalar> 
3969
(
-76566.094
157262.75
5624.0234
788.5271
-176343.27
203420.75
1167.6458
162.11976
-46044.821
-27431.19
-5197.5357
14817.871
26255.332
53591.336
46689.54
-15652.068
-6557.3499
-5543.8367
-858.52657
3270.1187
7382.808
7517.2755
-19426.964
-17951.216
-15190.978
-12738.923
-10297.965
-6783.6197
-5087.6233
-1575.2262
-194.78585
2272.4624
3744.9841
5469.5948
6178.7185
7388.5456
7953.3107
8458.3571
9127.504
9470.6432
10027.919
10310.842
11005.907
11525.96
12195.675
13179.442
14227.16
15465.791
16815.314
18197.971
19965.976
21313.219
23055.732
24501.942
25932.88
27217.383
28166.333
29342.359
29476.204
30139.471
28981.011
29514.968
26761.202
25904.004
24288.297
19819.856
19180.427
14677.529
10645.586
29306.374
24137.984
22165.683
17515.333
15400.75
12336.467
8238.2769
5543.8764
1837.6441
-919.0861
-4237.2721
-6630.1315
-8955.4813
-11279.81
-13205.093
-14900.315
-16541.15
-17954.716
-19168.607
-20643.358
-21298.794
-22959.192
-23413.688
-24834.145
-25297.21
-26499.497
-26849.097
-28109.429
-28563.47
-29407.542
-30170.018
-30671.629
-31291.093
-31591.326
-31898.832
-31922.817
-31937.086
-30956.897
-30875.549
-29148.265
-27828.022
-25710.153
-23640.414
-19925.664
-16822.061
-13786.665
-8960.9571
-115909.16
-98072.562
-52843.665
-25352.828
2021.4502
41268.107
31716.536
27244.78
26218.347
9932.9633
14526.888
7891.1572
5997.1686
3095.1411
732.44418
-2137.5081
-2991.9547
-5787.8927
-6901.7601
-8018.1933
-9760.5982
-8988.8023
-11405.18
-9941.939
-11879.698
-10934.089
-12289.297
-12099.909
-13296.046
-13536.793
-14780.65
-15593.859
-16877.018
-18105.965
-19746.035
-21196.588
-22939.963
-24381.191
-26084.376
-27573.161
-28858.961
-30254.178
-31564.106
-30163.445
-31958.361
-31457.561
-30783.098
-29330.445
-27810.278
-24820.411
-21736.855
-18570.341
-14460.799
-10393.349
12255.466
6126.2004
2916.6073
2832.4069
-7394.2487
-6739.9392
-15624.557
22457.574
17023.246
18228.078
21923.881
25233.904
27465.798
30064.337
31522.094
33084.748
33624.111
33440.24
35418.41
34074.785
34153.414
33474.261
33047.774
32090.464
31374.156
30521.528
29299.101
28716.43
27389.213
26522.65
25122.856
24441.95
22963.519
22194.552
20432.641
19736.218
17778.197
16620.904
14766.685
12697.505
11680.798
8737.8507
5884.3506
3722.4743
677.22351
-2634.1475
-5357.4639
-9473.4225
-12589.634
-16343.374
-21380.51
-21020.65
-28145.541
-32780.159
-70475.913
-83203.259
-91008.765
-93439.977
-94661.706
-99130.582
-87284.419
134274.36
158149.65
168086.97
174045.45
159283.52
148197.56
127634.92
2946.5222
3776.4645
4041.0344
4978.9381
4342.5703
3031.3395
2891.9294
-3226.4427
-864.53355
-1781.4702
-2372.5148
-1916.364
2378.4312
-1956.7112
-14321.066
-11293.116
-10151.831
-8977.3167
-7024.607
-5557.1159
-3365.5051
-1835.7663
-137.72733
1365.5601
2810.1433
3195.4101
4591.2188
4924.087
5486.1908
5745.0042
6246.7402
6183.6127
6642.099
6842.1856
7462.0175
7822.4003
8662.2876
9534.4959
10492.883
11486.094
12723.479
14103.545
15297.959
16755.802
18112.757
19443.203
20749.114
21797.945
22880.446
23360.017
23592.439
24161.567
23683.116
23304.393
21814.09
21133.054
17774.842
15683.966
13767.342
7631.7439
3499.8862
-8139.7593
-4244.7275
-4946.1754
-4685.5356
-3118.0639
-2723.2233
-1609.4112
-678.95097
181.88915
1030.5738
1337.535
1969.2788
2103.5969
2235.6246
2423.4386
2397.4843
2475.9643
2305.23
2508.3867
2466.5602
2583.2772
2754.4207
3102.1779
3568.3099
4030.6185
4817.4938
5663.1106
6335.847
7454.6119
8296.6896
9346.1462
10324.15
11146.316
12046.042
12822.987
13333.229
14058.882
14361.379
13762.149
14162.217
12922.463
12597.735
10577.483
10582.51
8075.9234
4406.7816
-298.46623
-797.7228
680.20667
-521.98526
-458.20161
191.62426
-327.38788
104.06839
257.0443
372.24424
212.14832
561.26728
145.18933
158.82021
-239.27558
-356.11426
-923.3416
-948.48027
-1493.8038
-1357.9598
-1846.1137
-1480.6091
-1655.0663
-1216.1852
-1197.2043
-627.00978
-296.93377
267.99254
998.46657
1662.7243
2393.5007
3219.8313
3905.5488
4645.4314
5314.894
5980.0942
6207.3128
6926.4727
6640.6801
7267.223
7210.224
6597.4037
6995.091
5481.1489
5367.0977
3549.9957
829.3175
88.51627
2753.0028
4968.9168
3783.1506
3273.2499
3090.0018
2223.1772
1273.895
966.79338
-93.660025
205.22294
-1175.0612
-1396.7917
-2330.1081
-2763.7901
-3259.9147
-4159.505
-4395.315
-5200.8298
-5413.1265
-6136.832
-6297.4735
-6942.1025
-7207.119
-7229.3605
-7111.5439
-7120.8152
-6836.293
-6640.2969
-6359.6593
-5942.8072
-5598.1507
-5147.2876
-4755.3476
-4289.7707
-3982.4091
-3298.5594
-3196.9676
-2601.235
-2019.2622
-2053.5364
-1357.1906
-1033.0681
-1514.3987
61.197431
-167.89817
900.51991
1970.1448
9185.7935
10107.966
7767.2479
7118.2966
5986.5149
4613.52
3342.9239
2262.4448
905.68809
-153.44812
-1797.8616
-2632.1708
-4055.454
-4913.2685
-6110.5428
-7015.4741
-7700.6429
-8782.6456
-9107.9991
-10257.641
-10018.947
-11214.074
-11227.108
-11501.156
-11537.519
-11991.977
-11795.834
-11958.7
-11674.723
-11709.289
-11371.699
-11363.883
-10867.853
-10955.213
-10249.825
-10258.578
-9902.7135
-9223.3504
-9277.5114
-8540.4593
-7768.2513
-7621.7153
-6062.8021
-5073.6084
-4020.2055
-2017.0655
464.89723
16267.591
15347.562
12564.997
11323.142
9616.5582
7431.9281
5101.7031
3178.1889
766.88413
-1147.4386
-3036.3059
-4833.9623
-6343.3558
-7982.299
-9179.6591
-10571.938
-11557.431
-12820.985
-13492.906
-14715.584
-14921.571
-16179.388
-16178.733
-16873.429
-17028.675
-17802.074
-17991.392
-18452.288
-18646.122
-18874.376
-19047.014
-19103.436
-19172.798
-18988.868
-19017.262
-18649.615
-18361.024
-18075.693
-17383.76
-16933.45
-16234.83
-15038.105
-12787.807
-11472.776
-8231.8679
-4542.0646
2074.7048
25589.741
16372.7
16501.423
14407.542
11915.257
9274.662
6071.1391
4080.7645
401.59309
-1101.7199
-4007.4944
-6150.7872
-8208.5019
-9957.1047
-11902.917
-13210.081
-14824.13
-15700.444
-17354.584
-17819.079
-19380.975
-19837.565
-21276.12
-21712.665
-22886.74
-23547.999
-24356.876
-25086.176
-25668.484
-26201.611
-26743.601
-27191.482
-27424.554
-27730.411
-27607.437
-27546.191
-27469.823
-26739.999
-26168.127
-24791.711
-23073.778
-21207.903
-18616.028
-16835.98
-12951.14
-9424.7421
-2278.8396
-44508.933
-42619.253
-47487.063
-50134.078
-50976.352
-51915.786
-47507.578
-25109.506
-31586.633
-32747.37
-36561.878
-36962.686
-40307.673
-34810.736
-7183.2757
-10524.803
-12156.511
-16071.128
-16497.865
-20100.762
-17749.349
4135.1066
5393.4266
1656.1806
-1452.2397
-2672.123
-6655.0159
-7221.5893
14223.887
13397.376
10796.628
7403.7648
5861.1255
884.06771
-193.86453
35692.413
40579.222
35864.198
36241.335
33489.544
29697.795
29214.126
38925.577
31922.026
29154.904
29093.951
23416.926
21439.714
18535.595
51551.229
49780.032
53213.673
53195.695
53677.95
49617.501
39820.217
34093.966
39823.747
38673.917
37540.363
39726.31
34172.835
30286.597
19084.199
20371.332
21326.268
21084.723
19187.896
16495.884
18129.266
18941.498
20800.681
19156.393
19449.651
18044.662
16786.706
13209.108
15232.604
14871.852
14196.352
13083.322
12296.162
10589.662
10474.086
11506.439
10287.758
9623.2025
9046.3247
7538.0594
6943.9736
5880.0872
7780.7427
6961.5454
6501.6375
5327.1786
4739.4341
4460.217
3706.6825
4510.5993
3497.1323
2937.8621
2258.6273
1438.7201
1253.7475
846.53839
1284.1954
163.04317
-65.116312
-1059.1631
-1365.2187
-1708.7458
-1781.4552
-1946.9331
-2595.9897
-2725.1922
-3222.7723
-3344.8286
-3386.7329
-3822.7159
-4590.706
-5377.8401
-5180.3418
-5749.0888
-5857.7446
-5820.5796
-5696.237
-6813.316
-7480.7606
-7341.5306
-7638.0938
-7438.2365
-7097.9007
-6705.767
-9466.0432
-9505.856
-9367.5298
-9108.3278
-9250.7447
-8211.9897
-8377.2701
-11205.465
-11283.472
-11126.947
-10892.821
-10292.274
-9634.0285
-9133.6689
-13084.697
-12907.708
-12493.037
-11633.346
-11435.871
-10111.374
-10037.035
-14735.853
-14341.048
-13750.563
-13075.325
-12467.219
-11320.036
-10868.255
-16022.651
-15385.723
-14741.649
-13626.124
-13031.23
-11355.012
-11139.084
-17332.317
-16597.301
-15767.006
-14672.401
-13938.197
-12351.138
-11980.664
-18441.519
-17472.476
-16581.165
-15220.645
-14420.739
-12511.919
-12197.385
-19519.044
-18585.695
-17482.962
-16077.098
-15226.119
-13344.998
-12922.18
-20563.317
-19265.844
-18220.179
-16645.819
-15818.156
-13666.329
-13274.21
-21544.593
-20445.03
-19209.198
-17696.621
-16701.525
-14555.392
-14149.488
-22646.214
-21119.914
-20044.862
-18299.748
-17320.795
-15095.216
-14692.388
-23606.895
-22312.879
-21041.815
-19417.853
-18444.773
-16243.902
-15863.218
-24705.52
-23206.361
-21888.04
-20408.474
-19230.296
-17146.119
-16592.392
-25747.372
-24338.124
-22792.66
-21882.823
-20593.957
-18840.623
-18010.145
-27097.425
-25110.209
-24228.43
-22748.479
-21704.259
-20038.813
-19332.234
-28036.276
-26111.74
-25371.777
-23954.024
-23056.821
-21537.179
-20911.459
-29225.184
-27296.105
-26831.307
-25300.523
-24429.252
-22948.426
-22315.672
-30055.428
-28321.177
-27930.251
-26472.193
-25797.37
-24405.872
-23775.345
-30997.932
-29386.229
-29049.744
-27711.793
-27093.787
-25723.101
-25194.462
-31753.699
-30254.528
-30142.363
-28890.327
-28362.017
-27134.704
-26618.538
-32540.231
-31262.184
-31149.38
-29958.039
-29584.017
-28346.794
-27990.642
-33110.54
-31926.936
-31964.478
-30965.187
-30558.474
-29503.806
-29123.363
-33401.725
-32460.928
-32573.802
-31604.005
-31380.111
-30320.035
-30058.387
-33644.734
-33113.626
-33150.053
-32502.693
-32127.802
-31370.906
-30819.471
-33436.394
-32940.64
-33119.639
-32392.018
-32247.042
-31608.934
-31177.256
-33523.912
-32979.011
-33150.325
-32739.117
-32451.882
-31560.683
-31430.113
-32454.952
-32367.045
-32413.784
-32121.667
-31872.196
-31188.31
-30956.649
-31638.854
-31235.246
-31844.646
-31292.659
-31184.852
-30515.164
-30317.875
-29838.72
-29974.258
-30236.828
-29959.236
-29802.044
-29145.876
-28820.19
-27963.562
-28014.102
-28236.435
-28216.363
-27917.468
-27320.765
-26958.581
-25215.232
-25938.86
-26007.574
-26343.866
-25634.811
-25091.288
-24607.171
-22045.632
-22212.73
-22531.838
-22533.619
-22012.012
-21669.623
-20912.967
-19449.368
-20741.918
-20704.982
-21082.978
-20480.219
-19488.942
-18501.891
-16903.81
-17130.335
-17479.524
-17533.918
-16811.645
-16680.781
-15473.975
-13644.347
-14515.769
-14442.051
-13887.058
-14688.281
-13862.416
-12264.111
-23454.327
-26159.13
-29293.257
-29394.204
-28332.894
-26938.121
-24209.392
-12238.795
-13441.301
-14497.707
-14956.566
-14562.111
-12838.473
-10875.384
-9152.674
-10549.048
-11653.605
-11453.949
-11192.834
-9107.1174
-7985.7329
252.62587
918.01438
777.64272
867.45438
1420.7759
1024.9274
1884.7743
5759.3795
6256.0515
5854.3048
7049.962
5847.5299
5697.8426
5212.6496
10682.195
13697.998
14592.311
14656.458
15721.929
12776.89
11928.823
14773.268
15434.095
17310.564
17097.099
16286.851
15216.391
12938.13
-27366.93
-30615.123
-33805.775
-35177.721
-36248.864
-34648.799
-33321.231
-23867.716
-26832.085
-29124.812
-29749.628
-31455.016
-29604.278
-31267.165
-19087.711
-21102.851
-22915.327
-24072.623
-24443.725
-22865.674
-24317.999
-15613.292
-16670.817
-18745.669
-19786.36
-20169.82
-20300.993
-20611.826
-11338.207
-12944.967
-13990.718
-14725.753
-15385.703
-15276.055
-16500.666
-8762.827
-9068.1602
-10244.841
-10554.056
-11853.861
-12275.691
-13261.835
-5117.344
-6051.3634
-6881.1178
-7176.9123
-7807.2021
-8544.1652
-8593.6329
-2941.0714
-2818.0792
-3366.1401
-4080.325
-4442.2727
-4894.3285
-5656.3093
-43.03249
-275.12283
-628.02718
-1270.2113
-1288.0641
-1847.1728
-2205.0906
2118.1123
2223.0656
1692.6482
1855.2109
1371.8505
1141.4127
604.76864
4039.1003
3824.4088
4245.3087
4113.4084
4030.7159
3790.9732
3806.5797
5155.7631
5830.1497
6041.0885
6143.375
6097.8368
6291.8294
6179.2934
6962.055
7300.3278
7593.2405
7943.8375
8166.9746
8162.2787
8556.2666
7870.8967
8416.7383
9058.4479
9536.5623
9509.0738
10145.295
10279.437
8770.4396
9632.8213
10140.315
10732.706
11396.77
11761.569
12277.713
9502.1848
10295.806
11082.008
11796.962
12495.482
13408.493
13890.722
10205.263
11020.68
12060.03
12934.924
13842.309
14648.691
15469.304
10614.419
11604.745
12709.334
13770.643
14620.15
15647.189
16630.969
11195.215
12350.938
13671.193
14680.917
15849.087
17061.663
18160.734
11806.149
12904.922
14256.836
15404.095
16635.893
17828.986
19086.505
12592.257
13619.028
15182.686
16370.004
17771.935
19127.356
20453.04
13206.759
14150.366
15850.074
17060.486
18516.801
19867.386
21344.379
14211.65
15188.438
17008.364
18200.846
19839.457
21208.618
22686.09
15355.863
15977.212
17853.458
18966.304
20629.228
21857.346
23589.059
16395.185
17052.645
19108.067
20119.33
21920.162
23148.058
24835.659
17799.346
18133.678
20325.822
21158.996
22958.39
24129.307
25753.21
19135.122
19599.412
21735.959
22638.499
24409.584
25462.341
27113.482
20907.06
20886.331
22926.763
23676.048
25340.272
26249.495
27925.89
22187.163
22199.666
24521.539
25044.233
26819.302
27550.808
29141.628
23898.935
23822.711
25898.775
26318.281
28008.792
28562.141
30067.172
25540.031
25142.14
27331.143
27532.94
29238.745
29520.512
31109.42
26933.609
26528.625
28636.599
28787.102
30330.882
30583.353
31869.161
28531.428
27869.346
29986.268
29806.754
31439.808
31321.947
32766.576
29730.787
29009.485
30952.779
30938.487
32224.654
32140.03
33242.959
30795.375
29799.801
31939.653
31572.15
32793.953
32688.496
33750.917
31542.735
31027.944
32618.446
32300.588
33307.846
33131.218
33515.467
31633.924
31105.835
32455.922
32689.606
33084.24
33191.126
33687.004
32098.022
31988.693
32544.178
32736.145
33289.188
32703.314
33281.164
31632.327
30650.942
32271.419
31751.837
32816.03
31823.609
32580.318
31257.112
30880.088
31956.93
31448.219
31971.333
30685.115
31546.979
29186.517
28393.027
29584.894
29139.955
29810.574
29230.188
29704.296
28216.754
27803.351
28818.827
28260.999
28798.031
27242.712
27690.302
25612.931
25700.577
26355.066
26197.011
25869.095
24626.798
24549.344
21545.235
21707.287
22396.298
22035.095
22049.108
20670.73
21657.789
20844.046
22993.98
23697.352
23903.941
23195.102
21356.061
19869.878
17475.363
17909.739
17950.939
17582.868
17860.208
17509.761
15704.314
22188.172
25176.068
26343.569
27022.656
27097.711
26710.498
24718.559
-33142.452
-20160.698
-19310.391
-16295.329
-14231.31
-11548.549
-8720.3591
-6188.2264
-3255.9075
-423.56914
1814.2529
4380.4023
6733.1642
8273.7968
10397.582
11942.743
13323.818
14827.058
15883.324
17140.183
18137.34
19131.86
19995.228
20973.672
21715.529
22511.098
23153.781
24067.233
24719.123
25407.099
25961.598
26548.002
26895.362
27251.779
27522.174
27241.05
27289.842
27184.114
26265.475
25057.467
23867.003
21913.25
20159.356
17075.787
14077.924
9442.7789
2261.5815
-24295.212
-21034.87
-12999.074
-14377.126
-12652.322
-9639.4542
-8114.5851
-5579.0207
-2955.2406
-1313.1802
1057.7907
2869.2293
4547.2062
6245.5639
7777.7817
8893.7293
10440.574
11161.46
12532.906
13132.602
14236.653
14664.47
15672.204
16005.147
16749.923
16994.473
18063.348
18131.245
18619.36
18999.399
19250.827
19639.906
19748.679
20048.391
19873.679
20041.004
19540.541
19481.107
19021.865
18189.361
17402.048
15991.444
14563.933
12167.607
10192.984
6549.2348
1321.6381
-15953.194
-12511.024
-6673.8523
-10041.845
-7210.6633
-6246.8179
-4682.5458
-3880.1291
-2109.0257
-1530.893
309.84872
980.64786
2603.8153
3054.7533
4474.5456
5390.844
6315.4907
7310.5383
8027.6136
8876.0828
9338.0688
10074.906
10449.365
10851.75
11140.672
11478.823
11488.863
11476.466
11791.036
11636.734
11626.276
11629.744
11399.237
11305.696
10943.272
10841.84
10267.877
10060.817
9485.6887
9048.2118
8537.9414
7666.7476
6687.9103
5637.1514
4340.9859
2949.9014
-2419.2641
-10411.977
-8497.3224
-5121.3476
-6600.0069
-3615.7982
-5593.9708
-3759.6768
-3041.458
-2766.3687
-1812.6719
-1071.8066
-798.40904
447.86549
833.23945
2197.3835
2268.4739
3489.3974
3704.2179
4584.0714
4692.3712
5367.3
5493.8443
5836.0446
5788.3162
6020.8227
5695.5183
5648.6235
5419.3796
5267.253
4803.0545
4634.9925
4286.6323
3898.1304
3645.2391
3209.7952
3069.8481
2597.0971
2475.0224
2125.656
2004.4672
1785.9416
1657.479
1538.2124
1178.2964
1411.05
382.6388
-1471.3794
412.44163
-1553.6366
560.92539
-2386.4837
105.03413
-2617.8588
-1484.6848
-2346.0477
-2070.6147
-2042.5675
-1604.8984
-1995.3165
-1228.652
-1231.943
-840.4084
-667.25564
-242.66428
151.68864
323.60535
682.85442
825.2148
948.52008
846.33751
709.53911
345.69734
-143.58073
-441.55695
-891.26409
-1457.3648
-2123.9631
-2722.1808
-3417.5179
-4059.236
-4658.8639
-5265.9647
-5657.2342
-6253.2037
-6279.6675
-6653.5544
-6491.9248
-6533.6714
-5870.8966
-5719.3358
-4749.6565
-3741.5551
-2267.9356
-338.04269
6895.0308
5372.4504
2422.6599
2721.9944
1860.0068
569.20956
370.00815
-1585.9622
-1478.2759
-2891.1419
-3347.7636
-4454.1967
-4261.9254
-5020.151
-4263.6481
-4973.8453
-4191.1171
-4694.698
-4179.0158
-4544.4025
-4332.8908
-4823.1973
-4793.2534
-5348.0513
-5149.8189
-5849.6436
-6366.9583
-7240.7852
-8033.8355
-9053.8558
-9948.8866
-10879.14
-11796.104
-12627.503
-13236.701
-13877.052
-14130.461
-14466.77
-14313.682
-13991.153
-13467.308
-12315.902
-11270.382
-9238.7205
-7323.2136
-3496.1923
36.709613
13014.795
8134.2197
10483.083
6259.1474
7044.5196
4330.7892
2170.1189
677.9805
-1474.4872
-3017.0254
-4559.174
-5146.2625
-6022.7206
-6650.0001
-7100.3864
-7284.6053
-7828.6585
-7719.3638
-8231.7982
-8209.1427
-8687.2371
-8918.3631
-9578.4171
-10064.141
-10965.837
-11886.156
-12708.563
-13652.377
-14968.108
-16254.327
-17613.779
-18831.819
-20154.034
-21227.026
-22078.509
-22902.618
-23928.238
-23577.559
-23708.34
-23168.534
-22416.725
-20811.81
-19406.008
-16932.978
-13232.148
-10248.684
-4124.0526
-29638.266
-33666.8
-37055.843
-39714.149
-41725.555
-42348.267
-39320.515
-16759.447
-22422.38
-24067.029
-26326.005
-26748.192
-25775.603
-26138.754
-14344.486
-16766.184
-20346.947
-21853.721
-21595.398
-24297.04
-21922.582
-10353.188
-12444.466
-14244.816
-14782.6
-15725.62
-16730.809
-15984.389
-7849.0674
-9640.557
-10781.892
-11595.511
-12922.412
-13340.631
-13873.349
-5878.6861
-7109.8295
-7992.5454
-9037.0867
-9004.7171
-10321.016
-10492.121
-3345.0343
-4308.8743
-4616.3411
-5184.508
-6178.3414
-6335.4411
-7392.1843
-1682.7393
-2470.2705
-2537.6227
-3552.0874
-3918.8495
-4290.6029
-5154.201
337.08922
89.571841
-471.30897
-150.46066
-745.6727
-1334.0439
-2227.4611
1742.1796
873.04461
1737.7128
1106.1374
991.71945
519.01992
641.46852
2636.2493
3475.0939
3221.4129
3223.2801
2908.3425
3239.0664
2343.0469
4237.8766
4321.3599
4430.6204
4421.6697
4970.5156
4508.7205
4568.1585
4945.7872
5371.8168
5730.4304
6342.9649
6008.2544
6784.1626
6276.2071
5515.0247
5912.7469
7010.4033
6865.8509
7965.1311
8089.2328
8237.5276
6179.1545
7207.3345
7506.9765
8349.2727
8768.8005
9445.4036
9633.1322
6710.6398
7264.9008
8519.3545
9240.7092
9963.9433
10773.963
11325.269
6783.4478
8257.4869
8900.2061
10007.172
10697.3
11625.736
12293.633
7382.7271
8571.3132
9825.3812
10815.098
11742.841
13045.981
13855.139
7599.1279
9195.0535
10065.317
11341.043
12438.814
13645.074
14573.367
8116.6053
9615.2283
10776.401
12253.134
13340.029
14742.635
15923.582
8308.3913
10154.866
11289.557
12728.623
13896.389
15340.65
16571.506
8916.1856
11035.696
12065.692
13656.186
14910.816
16372.575
17840.458
9620.0351
11694.942
12679.571
14290.143
15488.15
17012.856
18383.891
10182.029
12501.622
13449.742
15228.824
16417.8
17902.015
19413.143
10946.934
13490.289
14398.171
16120.026
17193.844
18803.047
20247.336
12076.703
14753.294
15342.241
17095.769
18396.2
19584.817
21230.369
13169.369
15651.972
16104.542
17890.631
18865.918
20169.733
21662.588
14093.058
16654.049
17663.256
19005.142
20128.404
21446.747
22754.349
15402.199
18459.24
18303.602
20122.925
20986.208
22148.394
23383.991
16848.798
19333.531
19610.939
21271.444
21880.808
22994.119
24086.802
17895.179
20760.012
20664.085
22286.87
22793.074
23829.444
24845.21
19305.5
22024.503
21855.409
23361.487
23719.679
24655.136
25363.899
20436.1
23139.452
22808.61
24227.812
24504.011
25152.834
25929.498
21491.507
24120.651
23749.852
25074.609
25139.587
25868.534
26261.028
22479.327
25026.503
24682.262
25637.847
25867.165
26030.803
26587.988
23191.088
25610.423
25134.521
26137.58
26252.462
26665.551
26474.078
24356.998
25722.956
25840.562
26066.554
26634.273
26160.151
26768.407
24004.291
25823.593
26057.513
26256.403
26231.008
26273.987
25970.881
24090.01
25836.35
25209.459
26303.733
25512.907
25999.929
25417.832
23109.718
25258.896
24762.327
25553.033
24897.18
25126.349
24652.317
22871.811
24090.783
23888.874
24289.641
23783.538
23932.602
23127.981
21114.565
22960.165
22975.396
23357.891
23021.106
22447.102
21700.604
18990.89
19632.027
19754.926
19940.762
19499.621
19705.848
19390.466
17674.367
18510.138
19550.955
19253.921
19569.521
19227.457
17855.001
13853.52
14351.263
14577.39
14591.291
14577.922
14597.617
13784.181
9176.473
9046.1657
10598.037
9566.9555
10289.037
10027.038
8801.4408
3276.0973
1187.4548
1441.0436
1573.5859
1797.3599
1142.8531
3264.9503
-14967.331
-18773.038
-23492.848
-24694.217
-27717.393
-27991.862
-27160.908
-10521.905
-19311.806
-20997.096
-23710.152
-25022.5
-24431.911
-22197.205
-10292.354
-10958.005
-13658.959
-14075.548
-16079.046
-15082.639
-16281.87
-6315.816
-9049.7365
-10918.2
-11601.792
-13326.563
-13573.398
-11505.2
-5539.2813
-7298.8838
-8655.3827
-9395.1511
-11121.596
-10108.103
-11144.584
-3709.826
-5124.4495
-5754.2502
-6654.2025
-7365.7668
-8064.6714
-8658.1524
-2294.6245
-3596.8296
-4501.9604
-5115.6377
-6102.7311
-6237.1183
-6529.6553
-1050.2796
-1976.2041
-2389.5918
-2884.9962
-3339.0519
-3915.4919
-4998.4157
146.41357
-964.28457
-963.57418
-1454.2554
-1908.177
-2279.7188
-2700.9781
569.43442
554.28946
570.40649
151.26439
-200.96612
-121.73995
-860.45102
1763.4203
1546.997
1424.9906
1166.2529
1482.6337
1158.1429
712.83896
2459.1802
2152.1633
2649.0295
2768.3637
2801.0448
2620.3066
2615.5354
2606.055
3021.1581
3561.5712
3516.8454
4097.3644
4012.1714
4456.1046
3060.5098
3780.8708
3968.0951
4540.4059
4952.315
5185.5157
5446.9558
3310.4236
4193.3138
4784.1981
5448.0988
6017.1512
6415.7834
6939.9413
3406.303
4217.0232
5178.3461
5813.6728
6646.5389
7173.7477
7943.9153
3573.4782
4960.5529
5814.0739
6605.5178
7548.049
8429.3755
9154.7071
3765.953
4837.7298
5887.6978
6849.1568
8043.8732
8833.8769
9895.4125
3933.6348
5327.9469
6452.8872
7663.3727
8772.9074
9943.7321
11012.24
4052.3046
5265.5266
6694.8031
7820.8761
9153.1242
10257.355
11554.657
4354.3142
5835.4986
7198.3705
8542.5047
9859.9524
11247.549
12652.163
4826.7415
5912.8422
7475.1335
8748.6447
10218.221
11574.907
13057.604
5141.5333
6366.1612
7957.4031
9409.5332
10878.279
12353.814
13910.963
5731.0325
6705.9807
8485.1339
9721.1574
11317.046
12687.69
14502.409
6337.1839
7454.2293
9166.2849
10471.672
12063.991
13499.317
15254.78
7184.3076
8031.8443
9534.0126
10874.419
12326.303
13781.305
15327.346
7671.0715
8546.5883
10533.197
11870.69
13280.513
14574.12
16382.996
9019.6125
9742.9356
11207.04
12248.679
13808.745
14905.324
16633.275
9845.9007
10336.092
12068.494
13018.006
14567.635
15445.985
17162.038
10861.984
11143.18
12917.169
13719.072
15093.401
15953.82
17534.291
11893.113
12135.485
13831.969
14382.266
15794.09
16463.254
17989.512
12853.351
12978.761
14494.851
15050.543
16299.72
16889.384
18113.172
13815.742
13755.035
15285.352
15631.623
16899.069
17191.98
18556.445
14641.247
14590.356
15963.697
16280.496
17271.949
17612.622
18569.268
15305.469
15317.91
16510.37
16632.569
17755.536
17699.125
18852.549
15915.069
15829.294
16846.937
17082.855
17890.327
17860.989
18584.68
16050.182
16379.777
17204.193
17217.06
18116.004
17625.506
18773.57
16232.283
16628.773
17179.58
17379.138
17834.695
17701.281
18133.414
16322.41
16149.197
17283.02
16753.688
17757.143
17270.271
17785.462
16048.407
16434.668
16976.724
16785.022
17172.956
16883.539
16845.714
15589.144
15303.556
16336.244
15770.995
16590.784
15984.836
15896.75
14383.698
14957.905
15256.031
15040.224
15377.845
14732.61
14893.268
13502.454
13312.226
14077.223
13634.418
13975.524
13550.97
13353.063
12034.006
12583.066
12925.628
12486.453
12939.912
12128.183
11751.085
8447.5387
9487.5822
9493.3567
9393.8451
9484.0892
8731.2217
8098.7717
5488.5766
5812.9852
5455.321
5442.8475
5682.6057
5374.6013
4749.5854
718.25232
-1253.5197
-2156.3696
-2175.3778
-1825.8705
-1608.2893
-674.31909
-5662.8551
-7530.9884
-10239.138
-12465.885
-14980.03
-16351.106
-17002.48
-3425.0668
-8832.7724
-9550.1233
-12258.779
-12963.256
-13267.287
-14074.796
-4316.1086
-3359.6579
-4736.2468
-6660.0674
-7218.6869
-8063.3134
-10410.334
-880.45067
-3141.6992
-5373.3068
-6957.7644
-7823.2595
-8959.043
-8166.3895
-1487.9704
-2510.3826
-3091.2103
-3738.8515
-5180.321
-4315.3879
-7649.8887
-1305.6323
-1792.24
-2555.7363
-3771.7279
-3932.5143
-5144.0455
-5941.9219
-212.18643
-1114.5914
-1003.5646
-2056.8698
-2403.1273
-2888.9747
-4115.4741
-519.33628
-1068.6234
-940.54248
-1979.3113
-2151.6135
-2658.3353
-3352.0025
-70.431128
-117.54056
10.314673
-633.60683
-732.51372
-1166.2286
-1725.9814
314.73018
-60.656308
101.92023
-539.08496
-114.70957
-943.24296
-833.7402
451.56324
521.26328
544.96928
580.8926
557.32726
445.45665
322.87376
79.742138
586.98756
872.10174
726.6932
1413.3716
832.54289
1551.6028
395.24392
1052.4003
802.26525
1543.9834
1252.0705
2005.5222
2186.4101
426.63796
707.99405
1600.6319
1571.5304
2556.2298
2561.5044
3425.792
127.77774
1068.5929
1199.3054
2264.3562
2592.6361
3175.9189
4042.8423
197.32658
963.23511
1855.9626
2410.4143
3359.9143
4008.2865
5225.6277
-271.91747
1301.0372
1567.0732
2877.3121
3556.0753
4514.6364
5532.4918
-37.336957
902.48694
1991.5117
3073.192
4237.2724
5143.7107
6632.0845
-605.6886
1206.3949
1977.6118
3458.4124
4337.2562
5603.1994
6899.2248
-358.42742
1143.5335
2329.9783
3595.9834
4970.9884
6193.6035
7847.2578
-606.05884
1345.6024
2306.9687
3932.3252
5093.5979
6569.6399
8050.4723
-463.17157
1348.7615
2764.4254
4186.2883
5678.0317
7063.7706
8649.5367
-469.65325
1727.2959
2920.3818
4509.3596
5864.3464
7309.3723
8964.2209
-109.09979
1996.5471
3430.1682
4944.4515
6370.2908
7884.7252
9353.7783
100.49271
2370.9599
3592.7629
5054.8649
6553.6931
7911.5014
9376.6922
537.63495
2727.1664
4173.4091
5632.4735
7143.9316
8385.625
9933.3236
1131.8772
3276.5379
4497.0036
5880.1129
7134.3579
8545.1628
10013.17
1526.6547
3798.7534
4872.2404
6137.0893
7494.5898
8654.2094
10101.246
1971.2306
4343.7641
5155.829
6649.9776
7827.1962
8954.7612
10245.16
2765.0749
4996.8103
5874.2304
7057.9238
8054.086
9070.1863
10324.701
3254.2809
5605.7528
6142.5802
7322.2753
8234.1857
9253.7396
10214.953
3956.6514
6146.2722
6577.3812
7688.3727
8518.1344
9314.4504
10173.889
4598.3213
6732.4422
7022.4452
8089.0704
8660.9594
9356.7762
10182.947
5222.3011
7228.2999
7394.5041
8279.5361
8774.523
9456.3897
9966.5287
5773.1025
7667.0963
7662.1383
8510.6813
8899.5992
9267.6848
9918.9503
6283.43
7943.5451
7908.8557
8712.9485
8840.584
9412.4175
9579.1752
6874.6067
8343.2424
8185.9571
8740.2727
8928.6413
9031.764
9567.9315
6973.8729
8253.9997
7982.819
8743.0579
8624.2944
9007.7608
9152.2664
7325.785
8593.6553
8170.8619
8509.4008
8643.7133
8455.4726
8855.2982
7090.494
8674.1979
7632.3621
8771.3696
8234.6055
8398.3748
8251.7221
7056.7421
7656.18
7242.3457
7580.2207
7454.2773
7422.2306
7691.4479
6753.9085
8242.8798
7358.1199
8189.4309
7659.1818
7488.5879
7183.8833
6528.0495
6162.1316
5899.8869
6009.876
5921.0359
5781.334
6269.899
5475.0914
6072.4006
5953.2969
6282.5291
6127.5347
5894.6169
5518.6971
3885.3649
3052.5561
3028.0084
2567.3102
2832.6803
2481.328
2984.8204
2587.9412
2026.2632
1573.9459
1431.6943
1931.6293
1638.179
2771.0579
112.20724
-3003.044
-2965.6095
-3458.1367
-3548.7522
-3721.1246
-2485.7055
5019.5442
2470.603
-676.906
-1791.1898
-4096.6316
-6614.8198
-8040.5785
4271.2526
1183.5482
-124.45086
-2606.3514
-3925.4688
-5932.2154
-5513.0683
2196.2517
2186.4198
38.689432
-965.1706
-2277.9217
-3955.0234
-5066.9244
3295.9647
1440.7105
-1217.0375
-1942.2871
-3298.6438
-4810.4027
-3727.9283
1352.7952
-502.31246
-1165.1662
-1483.8316
-2951.1262
-2495.3531
-5154.0348
1185.2784
926.08013
141.60331
-1176.5077
-2175.2307
-3578.8333
-2763.9316
1569.8393
-1024.7103
-899.42137
-2350.3088
-2619.5308
-2631.5086
-3418.7846
581.48004
54.890558
-523.21068
-1442.0359
-1495.4579
-2583.7893
-2660.3532
883.43525
-792.75906
-977.33644
-1326.919
-1941.5743
-2122.0432
-2010.6291
-185.27431
-941.43619
-622.323
-1413.1193
-1243.4518
-1503.9088
-1856.4478
-612.3829
-818.26552
-992.62915
-995.2578
-1090.577
-1107.5466
-1169.4449
-851.16348
-1338.1661
-1073.96
-1063.6461
-846.67936
-802.19471
-442.30839
-1369.1684
-1349.9605
-1239.449
-473.52642
-818.04829
196.01826
-430.0477
-1980.4703
-2005.0404
-1031.5374
-990.06651
-177.53247
90.098127
472.65448
-2788.1035
-1454.6706
-1681.6887
-486.44381
-229.37056
814.04366
927.80447
-2926.2837
-2433.8351
-1466.8819
-782.95827
62.782342
809.6975
1468.2643
-3574.5626
-2218.6022
-1716.772
-338.75844
195.07808
1551.5101
2010.2547
-3849.7319
-2968.7673
-1682.4477
-687.82377
362.81874
1408.9246
2378.6957
-4388.7867
-2611.8373
-1805.5968
-258.70139
536.75256
2090.4665
3039.1786
-4355.9597
-3256.0365
-1938.0256
-697.17127
592.40379
1968.799
3169.3492
-4917.777
-3078.9217
-1998.3589
-241.26723
872.14303
2416.4145
3643.5839
-4774.1762
-3358.6653
-1999.015
-613.35288
782.5234
2213.8554
3755.9939
-5084.3528
-3110.2871
-2100.8833
-347.79006
976.35907
2529.8719
4106.9385
-4918.3343
-3475.7433
-2132.781
-733.68451
838.80887
2203.1195
4030.9813
-5101.4259
-3189.6287
-2125.7335
-495.47802
1000.4472
2323.4187
4259.2034
-4753.1744
-3169.0355
-2169.8523
-624.47268
820.33304
2044.6386
4135.5347
-4610.9969
-3090.2912
-2112.3212
-519.22531
811.46173
2180.2784