/*--------------------------------*- C++ -*----------------------------------*\
  =========                 |
  \\      /  F ield         | OpenFOAM: The Open Source CFD Toolbox
   \\    /   O peration     | Website:  https://openfoam.org
    \\  /    A nd           | Version:  6
     \\/     M anipulation  |
\*---------------------------------------------------------------------------*/
FoamFile
{
    version     2.0;
    format      ascii;
    class       pointScalarField;
    location    "1.02";
    object      E;
}
// * * * * * * * * * * * * * * * * * * * * * * * * * * * * * * * * * * * * * //

dimensions      [1 -1 -2 0 0 0 0];

internalField   nonuniform List<scalar> 
625
(
69366.08
72192.417
-863180.48
-432527.33
62577.279
73702.094
-658580.4
-1324424.9
20660.83
8618.4105
41676.885
-476632.37
-493344.69
-344683.47
91102.934
76761.175
70049.349
65221.174
58594.455
57248.766
53990.023
51530.652
46988.725
39384.922
27782.481
11651.35
-7202.6041
-27827.09
-47616.265
-65514.034
-77163.043
-84753.404
-81377.952
-75694.281
-63146.957
-46027.634
-16478.647
71149.111
44979.503
43786.971
34033.897
23042.335
14217.596
5697.1471
-709.73055
-4440.2839
-6092.9902
-3151.4961
2374.4389
12531.378
25807.978
42314.977
59066.41
76333.928
88875.275
97777.353
98447.557
87406.171
72320.696
38307.798
17996.158
6198.2026
38106.601
122305.78
110143.38
63314.008
64256.918
52852.802
25182.91
28683.845
16526.499
16066.818
16522.305
18807.307
25827.991
30873.273
37499.836
42461.283
46988.047
51257.398
54307.238
55346.515
54378.387
47600.19
36856.096
17598.441
-954300.9
-1016188.8
-965448.45
-10734.453
-29663.679
-39897.06
-50716.332
-58078.619
-59463.653
-58544.946
-50922.339
-40829.412
-26864.71
-12321.362
2945.0755
15934.948
27595.72
36047.738
40750.033
46029.799
48324.301
55100.051
58921.525
69363.024
72230.034
86859.775
59937.214
57932.995
57886.088
56802.746
56899.404
60099.688
-490566.53
-490106.96
-493316.88
-975884.91
-976190.93
-979905.82
40135.151
32954.907
31607.462
25225.403
17988.534
10434.982
3483.0731
-3239.5801
-6654.9672
-8946.74
-7534.5753
-3686.598
3392.4283
12773.949
23684.034
35456.005
47055.898
56483.095
65034.504
64135.181
63625.776
53554.987
25614.646
12327.894
6950.9229
8027.1299
3366.3039
3522.6536
3612.0293
2876.4145
5487.6362
5797.8772
7682.2303
9486.5062
11145.048
13738.145
16965.64
21152.449
25674.791
30527.2
32581.909
34672.579
28615.206
26672.362
13102.288
1270.1513
26628.303
26455.291
30092.67
28498.622
29845.635
30155.58
28965.171
28564.715
25442.527
21511.802
13445.951
3104.7214
-10365.483
-25458.778
-41371.613
-55447.583
-67591.397
-73572.263
-77004.341
-70028.599
-60276.379
-43243.363
-12895.183
13946.87
14019.415
12841.038
5190.9412
4690.9809
7288.0089
19585.942
22154.952
22973.645
91432.368
91911.234
100483.04
92908.165
89855.595
86853.472
59252.209
55268.828
58727.434
49919.894
54009.326
52333.611
37845.136
35601.237
39108.352
25534.49
27840.919
27144.646
18805.188
19028.727
24357.741
12379.741
10508.583
11275.945
7609.3232
9650.2666
8618.1335
8070.7067
7715.384
7731.2645
10170.05
10881.586
10356.865
16768.214
15978.457
16691.308
25307.652
22778.088
25039.497
36823.381
31313.235
35125.846
49653.727
40306.697
46472.235
63175.702
49964.477
57979.215
75545.751
59343.471
68891.254
85733.476
67806.27
77857.837
90787.623
72922.065
82614.136
88923.349
72777.582
81387.089
79599.03
66655.56
73881.872
61520.729
57021.911
60963.843
32170.213
28245.947
34184.909
-639877.7
-638505.71
-637676.7
-586711.53
-646023.87
-647770.76
-670841.77
-618938.3
-618715.08
87941.967
80471.365
76308.242
81694.847
76826.596
77000.797
73881.437
66814.093
64332.427
65832.107
60285.178
60020.408
59715.897
57137.854
54608.168
58174.914
51300.572
50837.88
54889.84
51444.582
50085.1
53514.537
48335.18
46676.451
47300.851
44679.634
40960.259
38724.766
37681.85
34425.137
28909.11
26717.469
23452.4
12695.959
11740.793
8714.4701
-5354.6481
-5047.8058
-7278.4049
-24245.928
-23502.175
-24654.914
-42451.97
-41218.145
-40519.485
-57488.007
-56326.957
-54408.827
-67993.595
-67515.314
-63514.995
-72885.271
-72489.252
-68756.743
-72398.047
-73868.325
-67549.247
-63445.579
-68259.797
-61485.316
-51069.312
-56251.876
-50686.875
-40143.24
-39882.842
-38311.331
-12621.22
-13381.984
-12134.427
54341.572
49772.825
40642.676
31188.465
24358.99
13640.331
8947.1828
4225.7487
929.21375
3646.4337
7462.8886
12478.972
20411.475
28839.437
37571.176
46191.122
53241.603
59060.385
60440.44
58918.326
51263.756
38809.468
28817.163
9455.3762
26036.631
10024.959
22920.883
22375.553
25570.016
30128.308
29735.081
30166.413
25760.423
21423.763
14555.251
7678.6808
100.47763
-7870.4299
-15898.401
-23330.805
-30162.861
-34957.697
-36860.77
-35887.647
-31041.473
-19868.161
43508.633
26374.39
32197.391
32089.634
28199.473
26151.031
23411.494
21139.76
15199.338
9541.4159
1053.8361
-10060.639
-22044.347
-34904.18
-46797.211
-56559.281
-63064.17
-65738.428
-63009.603
-55462.247
-43657.708
-23959.43
-3506.4919
51025.838
44083.025
43170.169
45862.518
44543.511
41278.969
38691.517
37510.006
33444.011
30050.522
26724.087
25428.709
21457.447
21054.842
19072.883
13096.627
11905.091
9372.5675
6763.4626
5613.0106
2990.6907
37.996038
-92.924552
-2227.1784
-2220.7791
-2793.1246
-5092.5863
-2622.025
-3922.6827
-5077.0571
282.641
-825.7589
-1480.625
5306.7316
4348.4798
3950.9483
13042.824
11992.628
12524.659
22641.005
21517.848
22547.882
33401.904
32580.844
33992.868
45011.403
44259.226
45453.547
55462.464
55214.905
56519.111
65224.153
65241.522
64932.586
70576.294
69156.016
70694.801
68045.035
72574.212
70203.867
65055.566
65854.958
64604.254
52660.759
53914.554
53193.235
28926.908
28581.857
30307.025
11762.569
10557.165
8478.0959
17063.071
23911.307
23392.899
9800.0084
7165.5619
6364.8688
10800.04
15125.357
15593.636
12351.851
12312.913
13300.799
13185.319
14716.863
15435.424
14318.711
17077.848
18545.897
16359.572
17646.439
18455.537
16222.03
17984.741
19944.15
16344.376
17680.666
18367.671
15465.965
15947.851
16648.551
14416.051
14062.587
13961.804
13384.673
12011.152
10928.979
12095.645
9811.7955
8383.9169
11025.969
7927.3242
5591.8123
9574.4798
5320.1472
3228.1018
7900.0957
2994.8557
418.68455
5487.9971
-1052.7379
-2105.0054
2534.8034
-3818.6328
-5150.645
-2228.9211
-6519.4264
-8198.8693
-13260.939
4128.0523
-7907.8006
-8851.211
-14365.336
-13165.459
-12141.69
-17531.274
-16392.963
31372.436
34149.582
38365.239
27363.297
32375.682
40604.89
28011.264
34728.236
38010.798
28641.311
29658.637
34694.406
26422.591
28007.008
32563.677
24939.215
25819.33
29878.045
25046.87
22857.842
26004.232
21830.042
20825.097
24843.432
19598.488
17928.878
20377.73
14341.01
12786.317
14784.739
6841.2433
5205.8835
6865.4706
-3230.9474
-4512.6197
-3430.2382
-16232.835
-16181.541
-15637.124
-30174.987
-28655.571
-29102.036
-44612.268
-41043.938
-42159.394
-57648.782
-51392.475
-53895.063
-67370.127
-59738.188
-62570.896
-73616.928
-63343.582
-66608.819
-73429.997
-62371.655
-66407.145
-66403.634
-57147.526
-59812.827
-56234.808
-47380.813
-50964.585
-35937.39
-29086.334
-32910.798
-11852.991
-5941.7478
-7833.7823
)
;

boundaryField
{
    free
    {
        type            zeroGradient;
    }
    fixed
    {
        type            zeroGradient;
    }
    traction
    {
        type            zeroGradient;
    }
}


// ************************************************************************* //
