/*--------------------------------*- C++ -*----------------------------------*\
  =========                 |
  \\      /  F ield         | OpenFOAM: The Open Source CFD Toolbox
   \\    /   O peration     | Website:  https://openfoam.org
    \\  /    A nd           | Version:  6
     \\/     M anipulation  |
\*---------------------------------------------------------------------------*/
FoamFile
{
    version     2.0;
    format      ascii;
    class       pointScalarField;
    location    "1.92";
    object      E;
}
// * * * * * * * * * * * * * * * * * * * * * * * * * * * * * * * * * * * * * //

dimensions      [1 -1 -2 0 0 0 0];

internalField   nonuniform List<scalar> 
625
(
333.29121
-860.99162
-83499.865
-59822.399
78.024324
-361.97677
-92574.908
-146146.65
-670.08219
719.70171
832.71629
-74290.867
-93197.957
-5038.6872
2849.04
1082.434
3197.8697
7753.0395
8995.8698
15642.713
18718.182
20924.172
21341.219
15566.181
4337.2797
-12241.52
-34720.551
-60295.474
-86115.878
-110486.91
-127497.18
-137927.33
-132778.55
-119782.98
-97699.471
-69660.299
-21965.947
3088.9353
-2393.2529
4388.5636
-768.44104
-8934.3229
-9082.2044
-19963.359
-22266.366
-24286.547
-23387.357
-16007.457
-4739.1182
14118.438
38523.045
68708.591
101857.92
134833.99
162225.82
179721.23
182742.52
166168.61
134747.11
75189.875
424.80517
174.17366
-1165.3216
3748.816
8749.8409
-6665.8292
-4166.4467
598.00974
-18163.989
-15904.106
-20128.672
-19926.011
-16074.78
-9998.2215
4401.895
19315.962
40252.432
63024.732
87281.767
110965.98
130127
141142.58
141174.83
126138.52
98948.116
66056.373
-91554.378
-151390.87
-134420.2
-12325.275
-32508.64
-51216.594
-67704.811
-77975.53
-80112.181
-76798.873
-67270.381
-54292.87
-39076.176
-24577.795
-10549.553
-546.69158
7677.8212
12195.383
12995.203
11655.198
10060.569
9131.3645
3388.4489
7362.0353
367.8781
3708.7975
420.59469
-554.38653
-1152.3323
-1292.8953
-2196.8039
-2862.5717
-70740.85
-68554.475
-72804.829
-98757.21
-99128.511
-98171.017
551.64134
-1257.0104
-3516.9389
-4982.8926
-10141.101
-12432.054
-17505.7
-19806.35
-20859.48
-19276.142
-13124.373
-3551.2365
10984.729
29770.112
51568.625
74962.792
97073.478
114878.35
126742.11
124096.74
116249.62
93863.487
44677.366
455.49907
-1661.5384
-2057.939
-4841.3447
-4918.8626
-5774.3285
-6858.6212
-4800.081
-4004.9615
-192.9044
2957.5317
8333.8942
14133.562
20697.91
27603.566
33728.229
38984.32
40904.62
41462.912
33473.948
27149.67
9209.8748
-10472.84
2013.3896
33.934219
2536.8334
4462.6924
9225.9412
11418.003
19256.645
20595.22
22763.054
20063.948
12284.113
386.4215
-17527.545
-38825.525
-62817.013
-86553.302
-108543.17
-123149.61
-132098.99
-125503.14
-110477.58
-82049.473
-30892.045
-220.28378
-755.63887
-766.35743
82.243401
-125.19006
171.6865
42.197459
-714.93029
-1077.3
4958.9337
5531.6119
2976.3416
5131.3205
2217.5705
2719.6443
1641.9104
-2176.8287
1505.9149
-1648.8062
-1515.1128
-6094.8361
-2228.4844
-6352.6327
-2632.6071
-11962.063
-10938.915
-12459.918
-14196.492
-16273.967
-14584.746
-17980.338
-22713.459
-20817.845
-21363.44
-21049.329
-23163.561
-17737.243
-19166.727
-18381.931
-12213.144
-10911.829
-13051.836
1742.8895
1494.2751
1109.5977
18951.304
20405.933
19285.312
43614.446
44135.377
42734.411
72348.364
72556.494
71459.621
103738.92
103143.72
101761.97
134414.52
132859.64
131654.42
159320.88
157022.4
156157.86
174032.58
171557.97
170640.19
174034.46
170597.21
170160.08
156337.69
153690.27
153822.44
121208.08
122708.14
121097.78
71931.66
71157.229
74083.926
-94693.15
-93326.633
-91710.067
-98176.609
-107956.38
-109906.53
-48825.06
-41016.941
-41035.23
1433.844
3407.6161
1530.3103
235.94135
62.313034
433.48546
6352.8985
4864.5969
6451.4417
6359.6269
5900.5468
6413.3131
11975.661
11460.295
11218.332
15943.563
11974.495
14084.781
18971.845
17964.847
17613.135
21292.419
18794.468
20123.936
21141.418
17204.137
17607.419
14173.379
13635.585
15112.08
4521.3769
3036.491
5805.029
-10947.932
-11452.458
-7006.6262
-31084.127
-30916.582
-24547.875
-53619.752
-52983.415
-44414.795
-76579.678
-75599.021
-64818.121
-97616.379
-96249.493
-84110.451
-112250.62
-111796.1
-98488.389
-120699.25
-119891.84
-106628
-118329.59
-119795.14
-105757.35
-103303.71
-111619.12
-95996.963
-81096.744
-90274.715
-77242.088
-59149.339
-58397.178
-53705.771
-16498.28
-17283.656
-15944.457
-721.0889
92.629237
-4596.3365
-3874.6838
-10221.353
-12846.255
-15954.088
-21091.667
-19560.656
-17838.201
-11705.511
-952.99866
13323.049
31153.515
51381.556
71851.649
90476.021
104779.68
111187.38
109505.33
96305.822
72901.458
50294.563
596.81509
1852.4538
-614.05612
5120.8795
6410.2838
13036.928
16792.163
20196.77
23549.473
22729.942
19540.021
14167.426
4120.4376
-6747.2057
-20151.629
-33850.295
-46167.982
-56762.691
-63398.906
-66282.926
-64105.536
-59818.833
-40429.872
1492.8107
665.34468
4062.9028
183.91679
8082.3152
10566.678
12310.735
18319.924
14664.188
13299.281
2166.2312
-10561.275
-29970.1
-50801.223
-73906.104
-95232.397
-112701.56
-123492.59
-125151.75
-114863.43
-95057.043
-60803.973
-19840.605
-315.03975
-227.10897
-304.79733
-648.54647
-764.86835
-468.73745
-3576.8196
-4329.077
-3451.278
-5422.9951
-4688.765
-4161.811
-9357.0493
-10289.051
-9026.8857
-13808.547
-13153.882
-13868.604
-18210.843
-18112.17
-16717.881
-20470.014
-20308.092
-21295.302
-21551.355
-21731.828
-21968.186
-18815.296
-18272.51
-19026.915
-10897.835
-11819.104
-12858.926
-311.45937
-532.79782
-1222.2031
16763.495
15839.358
14457.241
37037.984
35676.632
34267.593
60296.475
58689.878
57077.755
84672.362
82873.128
80681.403
106688.62
104959.38
102863.49
124517.95
123288.75
120338.02
134310.04
132506.59
130469.52
127936.14
135215.85
129090.12
117240.88
121176.19
117076.45
94171.683
93950.612
91620.907
50145.243
50358.567
51183.191
-98.4698
-88.922127
73.257469
-185.78136
490.48236
549.50536
-1158.7187
-3673.8448
-1671.2135
-1042.4405
1151.0097
949.81609
2147.8104
-214.90166
262.20055
1844.9218
2944.4155
4152.4011
4738.6003
5291.1036
5906.5324
7957.4986
8447.4952
8045.8249
8890.881
9598.5839
10861.303
11988.2
12767.763
12769.452
12659.889
12295.186
12267.065
13237.828
12711.863
12493.751
13018.389
11462.222
9845.1302
11448.494
8812.613
7379.5842
9907.0114
6260.0036
3724.6569
7062.5121
1834.56
-162.64054
4274.8497
-1555.8779
-4553.3955
776.58144
-7286.0219
-8738.2948
-3514.4399
-11290.747
-13116.849
-9269.4044
-15807.982
-17550.943
-28216.29
775.91578
-19442.263
-23804.448
-29112.771
-29268.324
-28144.19
-33686.889
-31198.709
3356.7833
3043.2606
2925.9975
910.78321
347.77814
1557.5036
3075.5195
4345.8569
5921.1562
7503.9341
3171.6542
4855.7498
8670.2557
7826.8473
9948.0213
13540.125
11100.374
13288.587
19904.732
15580.223
16948.057
20794.564
17752.623
21063.08
23237.987
18678.322
20877.981
19685.28
15482.402
17898.129
11745.155
6391.0198
9227.7973
-1110.6593
-6751.2627
-3865.61
-19746.849
-25791.87
-22402.935
-41591.263
-47594.797
-44175.834
-66220.103
-71792.621
-67883.924
-90169.433
-94331.288
-90638.624
-110762.18
-113790.25
-110165.34
-125064.36
-125910.8
-122456.21
-130324.23
-128766.17
-126621.25
-122572.85
-120562.55
-118693.38
-105184.84
-101701.31
-101617.23
-72100.132
-68532.966
-69382.132
-28937.704
-23755.061
-25423.965
)
;

boundaryField
{
    free
    {
        type            zeroGradient;
    }
    fixed
    {
        type            zeroGradient;
    }
    traction
    {
        type            zeroGradient;
    }
}


// ************************************************************************* //
