/*--------------------------------*- C++ -*----------------------------------*\
  =========                 |
  \\      /  F ield         | OpenFOAM: The Open Source CFD Toolbox
   \\    /   O peration     | Website:  https://openfoam.org
    \\  /    A nd           | Version:  6
     \\/     M anipulation  |
\*---------------------------------------------------------------------------*/
FoamFile
{
    version     2.0;
    format      ascii;
    class       pointVectorField;
    location    "1.099881";
    object      u;
}
// * * * * * * * * * * * * * * * * * * * * * * * * * * * * * * * * * * * * * //

dimensions      [0 1 0 0 0 0 0];

internalField   nonuniform List<vector> 
625
(
(0 0 0)
(0 0 0)
(2.6966754 -0.3873151 0.054539745)
(2.5010328 -0.979984 0.023722356)
(0 0 0)
(0 0 0)
(2.5236596 -1.0016082 0.022188032)
(2.7189912 -0.40925754 0.053621568)
(0 0 0)
(0 0 0)
(0 0 0)
(2.6470918 -0.53602803 0.046007388)
(2.5982483 -0.68306899 0.039079831)
(2.5500671 -0.83072597 0.031229418)
(0.0085190316 0.028158576 0.026885638)
(0.030081516 0.059531856 0.028547559)
(0.070400028 0.086493902 0.032399258)
(0.12586155 0.1105646 0.033702793)
(0.19420947 0.12801817 0.035652517)
(0.2767922 0.1414571 0.037636341)
(0.36858776 0.1474507 0.039472491)
(0.47080406 0.148725 0.041405789)
(0.58146931 0.14351429 0.043510894)
(0.69912765 0.13287375 0.044911229)
(0.8233348 0.11728775 0.046685364)
(0.95278656 0.096292553 0.047662471)
(1.0868128 0.071195281 0.048894861)
(1.2246059 0.041796658 0.049766303)
(1.3654302 0.0089034314 0.050524648)
(1.5089294 -0.027389002 0.051037961)
(1.6541869 -0.066154541 0.051641253)
(1.8012382 -0.10747676 0.052015406)
(1.9493939 -0.15108359 0.052341639)
(2.0981963 -0.19592844 0.052773688)
(2.2477124 -0.24242801 0.053144821)
(2.3973897 -0.28953029 0.053594345)
(2.5467451 -0.33796652 0.054398736)
(-0.0065431974 -0.023491529 -0.033843174)
(0.017449728 -0.046013155 -0.027063019)
(0.047781771 -0.076806732 -0.031415809)
(0.096416323 -0.10596937 -0.02565587)
(0.15217924 -0.13388979 -0.024004357)
(0.22349999 -0.16858959 -0.020133052)
(0.30055863 -0.19963702 -0.017484117)
(0.39036267 -0.23626381 -0.013168585)
(0.48637026 -0.27383991 -0.010664278)
(0.5911492 -0.31237935 -0.0068672727)
(0.7024981 -0.35439015 -0.0038948509)
(0.82010089 -0.39690833 -0.00063922811)
(0.94317267 -0.44164563 0.0021861648)
(1.0710106 -0.48751688 0.0049223423)
(1.2031475 -0.53463239 0.0073984516)
(1.3388152 -0.58263996 0.0096905168)
(1.4777814 -0.63155643 0.011889081)
(1.6189894 -0.68089332 0.013600368)
(1.7628783 -0.7307688 0.015642489)
(1.9080814 -0.7806067 0.01721688)
(2.0549786 -0.83082876 0.01897683)
(2.2028503 -0.88066682 0.020424416)
(2.3515509 -0.93035771 0.021860352)
(0 0 0)
(0 0 0)
(0 0 0)
(0.0057263182 -0.015932991 0.023406909)
(0.024841533 -0.064740481 0.027613421)
(0.061104607 -0.080694078 0.022875884)
(0.1067776 -0.11444109 0.020049919)
(0.16874668 -0.15299185 0.021709716)
(0.23797405 -0.17917506 0.017777619)
(0.31759095 -0.2196528 0.020203693)
(0.40703439 -0.25373117 0.018799597)
(0.50433976 -0.29276207 0.018999744)
(0.60956389 -0.33285146 0.019216112)
(0.72152917 -0.37472849 0.019152728)
(0.83963272 -0.41790153 0.019694468)
(0.96314483 -0.46284641 0.019668389)
(1.0915936 -0.50887073 0.01983485)
(1.2240289 -0.55594588 0.020013151)
(1.3601174 -0.60417375 0.020163109)
(1.499289 -0.65291626 0.020282966)
(1.6409942 -0.70234985 0.020439274)
(1.7848096 -0.75219051 0.020663018)
(1.9304299 -0.80217445 0.020844539)
(2.0772826 -0.85238091 0.021147577)
(2.2254374 -0.90226696 0.021499206)
(2.3739143 -0.95219697 0.021978144)
(2.5727814 -0.85258763 0.030018885)
(2.6205408 -0.70487303 0.038188992)
(2.6692573 -0.55824509 0.046458803)
(2.5692988 -0.35983734 0.051666383)
(2.419439 -0.31140984 0.050215191)
(2.269849 -0.26426797 0.048657417)
(2.1202123 -0.2175439 0.046814214)
(1.9711402 -0.17254206 0.044999321)
(1.8228131 -0.1291445 0.042920216)
(1.6755959 -0.087770506 0.040781373)
(1.5298405 -0.04871947 0.038270722)
(1.3859754 -0.012523161 0.035641452)
(1.244645 0.020709181 0.032631862)
(1.1061909 0.050159889 0.029333531)
(0.97141487 0.076051987 0.025377208)
(0.84128515 0.097096297 0.021970418)
(0.71621759 0.11368775 0.017475677)
(0.5973476 0.12519169 0.0129929)
(0.48572731 0.13136514 0.0082003828)
(0.38241274 0.13246193 0.0029025888)
(0.28816866 0.12701969 -0.0013702772)
(0.20637815 0.11675226 -0.0072678317)
(0.13387254 0.099559407 -0.010717071)
(0.07766051 0.080436207 -0.017304238)
(0.033601819 0.053388131 -0.019678257)
(0.016819779 0.026547678 -0.016717166)
(0 0 0)
(0 0 0)
(0 0 0)
(0 0 0)
(0 0 0)
(0 0 0)
(2.5064978 -0.9856279 0.023004029)
(2.512256 -0.99125826 0.023092152)
(2.517672 -0.99665262 0.022586944)
(2.7028522 -0.39254751 0.054321215)
(2.7083182 -0.3981396 0.054019484)
(2.7140478 -0.40345377 0.053730074)
(-0.0047237892 0.016863516 0.019461968)
(0.018541235 0.034086545 0.015554212)
(0.056375351 0.048038936 0.018660003)
(0.10977951 0.058607876 0.019558587)
(0.17642974 0.06499264 0.021748227)
(0.2558466 0.066648813 0.023605101)
(0.34516839 0.062892497 0.025934489)
(0.44473486 0.054782554 0.028119358)
(0.55225318 0.041279208 0.030091733)
(0.66710818 0.023549406 0.032184535)
(0.78857897 0.0012332749 0.033996034)
(0.91565552 -0.025526532 0.035662548)
(1.047386 -0.055648717 0.037186286)
(1.1830849 -0.089475819 0.038438125)
(1.3221442 -0.12611748 0.039644234)
(1.4640287 -0.16552169 0.040578123)
(1.608042 -0.20708378 0.041564595)
(1.7540074 -0.2505421 0.042226289)
(1.9014022 -0.29584292 0.042975867)
(2.0495334 -0.34212774 0.043762871)
(2.1986947 -0.38959033 0.044343846)
(2.3479942 -0.43760684 0.045074963)
(2.4974807 -0.48689666 0.04587103)
(-0.011663879 0.0044334164 0.00020610724)
(0.013137448 0.0054167102 -0.0011862806)
(0.048253537 0.0072160829 0.002244883)
(0.099341635 0.0060011808 0.0037935861)
(0.16430418 -0.0011136285 0.0063782264)
(0.24032889 -0.009727106 0.0089639503)
(0.32673647 -0.023206259 0.011490709)
(0.42302907 -0.040674546 0.014061112)
(0.52712526 -0.061610709 0.016598024)
(0.63941846 -0.087058797 0.019336561)
(0.75756901 -0.11540112 0.021195017)
(0.88190994 -0.14776476 0.023712901)
(1.0109103 -0.1828333 0.025521011)
(1.1443783 -0.2206635 0.0273541)
(1.2813136 -0.26100718 0.028998878)
(1.4213852 -0.30329679 0.030323818)
(1.5638956 -0.34755111 0.031824661)
(1.7085302 -0.39296294 0.03274983)
(1.85462 -0.43980293 0.034095965)
(2.0019795 -0.48744269 0.035104069)
(2.1505176 -0.53593433 0.035979601)
(2.2994745 -0.58488629 0.037111605)
(2.4492513 -0.63417561 0.037961729)
(-0.014208179 -0.0097796303 -0.012968605)
(0.010590562 -0.018963199 -0.011230311)
(0.042735149 -0.029779535 -0.012034993)
(0.094086834 -0.044819154 -0.0095351497)
(0.15523044 -0.064148187 -0.007401819)
(0.228134 -0.082539514 -0.0049343685)
(0.31203838 -0.1078939 -0.0019521223)
(0.40419845 -0.13339753 0.00079013055)
(0.50565553 -0.16330115 0.0038413282)
(0.61383915 -0.19603069 0.0064979646)
(0.72930631 -0.23079066 0.0091269945)
(0.85051762 -0.26912268 0.011811172)
(0.97674611 -0.30894161 0.013994256)
(1.1076676 -0.35129009 0.0163062)
(1.2422406 -0.39522597 0.018245679)
(1.3803311 -0.44079973 0.020100132)
(1.5209438 -0.48750017 0.02178177)
(1.664132 -0.53518583 0.023290166)
(1.8090715 -0.5837819 0.024774437)
(1.9556855 -0.63281885 0.025977297)
(2.1033364 -0.68243533 0.027324253)
(2.2517956 -0.73188061 0.028576643)
(2.4008783 -0.78149278 0.029839695)
(0 0 0)
(0 0 0)
(0 0 0)
(0 0 0)
(0 0 0)
(0 0 0)
(0 0 0)
(0 0 0)
(0 0 0)
(0.0082308218 -0.0087680952 -0.014685587)
(0.01205174 -0.01284996 -0.0054659186)
(0.012360855 -0.010680177 0.0070310597)
(0.032230406 -0.056176901 -0.015730112)
(0.034426075 -0.059103725 -0.0040808996)
(0.036460361 -0.059405482 0.012963119)
(0.062451136 -0.07971141 -0.01753857)
(0.068762623 -0.079181622 -0.0045533732)
(0.07039746 -0.085062545 0.011506656)
(0.10812235 -0.11055231 -0.013212439)
(0.11365729 -0.1150236 -0.0027472231)
(0.11290161 -0.11432845 0.0098304169)
(0.16642524 -0.14341098 -0.012624043)
(0.17099633 -0.14581189 -0.0034984838)
(0.17401351 -0.15293986 0.010528596)
(0.23333351 -0.17371184 -0.010541479)
(0.24019904 -0.17861604 -3.3424603e-05)
(0.24179044 -0.18020384 0.0094278251)
(0.31277559 -0.20904133 -0.0072514461)
(0.31822245 -0.21478384 6.4834015e-05)
(0.32005916 -0.2164981 0.011671092)
(0.40016028 -0.24451082 -0.005411929)
(0.40601038 -0.24745137 0.0022810042)
(0.40889136 -0.25423929 0.011565297)
(0.49630898 -0.28140353 -0.0026128251)
(0.50231476 -0.28815314 0.0040943979)
(0.50518575 -0.29140226 0.012428558)
(0.60054343 -0.32142966 -6.4982191e-05)
(0.60627963 -0.32603699 0.0057741162)
(0.60962989 -0.33109378 0.013437317)
(0.7110907 -0.36199583 0.0020851557)
(0.71720935 -0.36812416 0.0077473693)
(0.72078709 -0.37285217 0.014007548)
(0.82849488 -0.40558319 0.0047326898)
(0.83436567 -0.41047584 0.0089391497)
(0.83834066 -0.41543504 0.015268785)
(0.95116515 -0.44921364 0.006776703)
(0.95700237 -0.45496371 0.011043112)
(0.96097873 -0.46027159 0.015825235)
(1.0786661 -0.49535102 0.0090127499)
(1.0844568 -0.50087563 0.01232645)
(1.0889346 -0.50595942 0.01654778)
(1.2104428 -0.54194734 0.010756274)
(1.2163281 -0.54752113 0.013688437)
(1.2208728 -0.55266089 0.017293383)
(1.3459164 -0.58985143 0.012571357)
(1.3516922 -0.59534724 0.014961658)
(1.356492 -0.60060322 0.017885879)
(1.484433 -0.63833893 0.014130465)
(1.4902991 -0.64389252 0.016036468)
(1.4952285 -0.64915207 0.018477932)
(1.6257306 -0.68732164 0.015518724)
(1.6314965 -0.69305131 0.017091859)
(1.6365904 -0.6982671 0.019015508)
(1.7690685 -0.73712792 0.017044191)
(1.7749199 -0.74257753 0.018144053)
(1.7800942 -0.74786469 0.019592103)
(1.9143748 -0.78667828 0.018194194)
(1.9201159 -0.79234684 0.019046589)
(1.9253974 -0.79766637 0.020095357)
(2.0609695 -0.83677511 0.019512756)
(2.0666948 -0.84225428 0.020116755)
(2.0721181 -0.84751566 0.020692115)
(2.2087586 -0.88640781 0.020686949)
(2.2144722 -0.89199572 0.020951347)
(2.2199023 -0.89746875 0.021222262)
(2.3571887 -0.93620975 0.021880141)
(2.3628267 -0.94164407 0.021874973)
(2.3684853 -0.94704379 0.021962066)
(2.653289 -0.54143059 0.046432361)
(2.6588416 -0.54684277 0.046313961)
(2.6644066 -0.55236545 0.046265762)
(2.6037367 -0.68855199 0.038915493)
(2.6096676 -0.69412883 0.038545892)
(2.6149112 -0.69952008 0.038297989)
(2.5557111 -0.8365495 0.03089354)
(2.5615363 -0.84214339 0.030648224)
(2.5669768 -0.84734616 0.030470145)
(0.020488352 0.02404999 0.014427045)
(0.021699362 0.024307983 0.0042584402)
(0.023809998 0.025158392 -0.0045190936)
(0.042580446 0.054103316 0.014866654)
(0.043275885 0.054913937 0.0047706824)
(0.043892401 0.053386316 -0.0097500418)
(0.083119632 0.082583205 0.019925697)
(0.085127319 0.082043555 0.0071902865)
(0.087159322 0.081661743 -0.004989456)
(0.13650225 0.10509579 0.021134828)
(0.14111076 0.10283924 0.010192515)
(0.1415263 0.10116901 -0.0019266455)
(0.20682843 0.12306445 0.024070511)
(0.21033955 0.12065724 0.013890136)
(0.21177103 0.11990813 0.0029442573)
(0.2869229 0.13558044 0.026824368)
(0.29157093 0.13125077 0.017569916)
(0.29404057 0.12878976 0.007073037)
(0.3796336 0.14103703 0.029570136)
(0.38428159 0.13734588 0.021180267)
(0.38644141 0.13449975 0.010954732)
(0.48122277 0.14152487 0.032248015)
(0.48568608 0.13749331 0.024516734)
(0.48891798 0.13438058 0.015451345)
(0.5912323 0.13641683 0.035059179)
(0.59636209 0.13194175 0.027727531)
(0.59957594 0.12819021 0.01962816)
(0.70866878 0.12573575 0.037488639)
(0.71389633 0.1209219 0.030933045)
(0.71741486 0.11704012 0.023523425)
(0.83230873 0.11026556 0.040054387)
(0.83791425 0.10489029 0.033566636)
(0.84167582 0.10041357 0.027452894)
(0.96174906 0.089249691 0.041682092)
(0.96702284 0.083816137 0.037065728)
(0.97100418 0.079600797 0.030112269)
(1.0952693 0.064073568 0.043577933)
(1.1007014 0.058686392 0.038682087)
(1.1051066 0.054476123 0.033581636)
(1.2328059 0.034999974 0.045023315)
(1.2383084 0.029573969 0.041109569)
(1.2429215 0.024736092 0.036408613)
(1.3733461 0.0022099111 0.04650593)
(1.3789476 -0.003353797 0.042918783)
(1.3836254 -0.0081737023 0.038859905)
(1.5165346 -0.033775314 0.04751715)
(1.5220484 -0.039327173 0.044555854)
(1.526963 -0.044266788 0.041078373)
(1.6615738 -0.072575696 0.048718217)
(1.667199 -0.078012607 0.046125252)
(1.6722576 -0.083137146 0.043153232)
(1.8081842 -0.11363966 0.049511342)
(1.8139598 -0.11925865 0.047345521)
(1.8190294 -0.12436951 0.044868773)
(1.9561993 -0.15684669 0.050321349)
(1.9617683 -0.16242705 0.04860596)
(1.967 -0.16756844 0.046605344)
(2.1047582 -0.20170085 0.051110877)
(2.1104841 -0.20711633 0.049702112)
(2.1157432 -0.21246312 0.04807076)
(2.2541566 -0.24785283 0.051827047)
(2.2597034 -0.25361759 0.050700293)
(2.265022 -0.25879241 0.049647529)
(2.4033834 -0.29534356 0.052612124)
(2.4090921 -0.30076997 0.051884849)
(2.4145411 -0.30606998 0.051017764)
(2.5532605 -0.34326872 0.053684139)
(2.558666 -0.34889478 0.052965819)
(2.5643034 -0.35435254 0.052492877)
(0.000956363 0.0079232882 -0.01030922)
(0.024381673 0.033767764 -0.010878188)
(0.063002783 0.037245991 -0.0046514408)
(0.11933216 0.048759844 -0.0038628355)
(0.1877308 0.051785503 7.7638815e-05)
(0.26819293 0.051160852 0.0042682683)
(0.35914252 0.046733457 0.0073906699)
(0.45927571 0.036510667 0.011294486)
(0.56820727 0.022354159 0.014770389)
(0.68394104 0.003488634 0.018264761)
(0.80654835 -0.019360624 0.02129548)
(0.93408792 -0.046183955 0.024507838)
(1.0663844 -0.076954921 0.026968019)
(1.2027972 -0.11098807 0.029773499)
(1.3424355 -0.14763142 0.031838007)
(1.4846936 -0.18706639 0.033948675)
(1.6291584 -0.2287556 0.035826966)
(1.7753689 -0.27225205 0.0374537)
(1.9228487 -0.31739141 0.039056239)
(2.0713244 -0.36392252 0.040440322)
(2.2205055 -0.4114312 0.041844524)
(2.3699159 -0.45968528 0.043215997)
(2.5197178 -0.50889838 0.044642341)
(-0.0086052483 0.0044326742 0.00148646)
(0.018036663 0.0053977397 0.0023640989)
(0.056361645 -0.001561065 0.00373497)
(0.11183584 -0.0037835846 0.004934432)
(0.17621196 -0.012509711 0.0064442495)
(0.25493192 -0.024074052 0.0090400553)
(0.34173272 -0.039160604 0.011287722)
(0.43934764 -0.057565722 0.013624898)
(0.54454856 -0.080335718 0.016002141)
(0.6574722 -0.10589843 0.018273755)
(0.77647613 -0.13571196 0.020554353)
(0.90149794 -0.16783719 0.022433507)
(1.0309869 -0.20368226 0.024571209)
(1.1651045 -0.24160145 0.02620911)
(1.3024997 -0.28198983 0.027695712)
(1.4428829 -0.32461135 0.029230028)
(1.5857337 -0.36870572 0.03048763)
(1.7305776 -0.41437208 0.03165468)
(1.8769229 -0.46126272 0.032833751)
(2.0245232 -0.50903783 0.033792156)
(2.173161 -0.55749143 0.034984255)
(2.3219842 -0.60647784 0.03585893)
(2.4720435 -0.65622292 0.036916893)
(-0.011695518 -0.010076296 0.011752902)
(0.020014421 -0.015198232 0.009656616)
(0.05539898 -0.043048003 0.016354394)
(0.10543833 -0.048507693 0.012119141)
(0.17015278 -0.075100092 0.014992577)
(0.2441029 -0.097634215 0.015214469)
(0.32806604 -0.12090327 0.016214049)
(0.42219223 -0.15057413 0.017356248)
(0.52384963 -0.18096238 0.018487138)
(0.63296679 -0.21453211 0.019762273)
(0.74904278 -0.25050466 0.020665834)
(0.87043322 -0.28909859 0.021943526)
(0.99742992 -0.32936418 0.022783449)
(1.1286904 -0.37214252 0.023641059)
(1.2636111 -0.41616422 0.024490008)
(1.4019674 -0.461855 0.025185261)
(1.5429893 -0.50872289 0.025854188)
(1.686248 -0.55651491 0.026439708)
(1.831371 -0.60517606 0.027045262)
(1.9779887 -0.65429728 0.027653817)
(2.1256677 -0.70378623 0.028279076)
(2.2742757 -0.75355547 0.028765151)
(2.423352 -0.80307706 0.029670141)
(0.0047601968 0.0080810647 0.0091426132)
(0.0043755207 0.0089671261 0.0036275151)
(0.0070302602 0.0084876782 -0.0021751745)
(0.02998476 0.032205621 0.0078640189)
(0.033515555 0.031603932 0.0013842296)
(0.032766604 0.030067311 -0.0065139667)
(0.068504989 0.043690379 0.010734687)
(0.07057506 0.040291152 0.0048828249)
(0.072273388 0.040078321 -0.00073237027)
(0.12112751 0.053806779 0.012162769)
(0.12673642 0.052852599 0.0067111397)
(0.12616638 0.049328267 0.0011404704)
(0.18860251 0.059831514 0.014635352)
(0.19239486 0.05593099 0.0096058655)
(0.19418201 0.053167977 0.0053759659)
(0.26668714 0.059916279 0.017071594)
(0.27150966 0.057035386 0.013057073)
(0.27335662 0.05342696 0.0072209334)
(0.35601881 0.056169961 0.020288691)
(0.36149306 0.052369764 0.015265306)
(0.36319975 0.048576481 0.011661765)
(0.45489873 0.047899323 0.022413996)
(0.45988298 0.043567335 0.018774642)
(0.46232054 0.039280812 0.0144687)
(0.56205963 0.033991496 0.025421519)
(0.56747676 0.029650853 0.021789828)
(0.57036632 0.025096279 0.01810145)
(0.67664273 0.016556818 0.0276065)
(0.68211077 0.011331701 0.02432844)
(0.68510024 0.0064888264 0.021092923)
(0.79782101 -0.0062304817 0.029930296)
(0.80325493 -0.011492978 0.027345039)
(0.80682073 -0.015964592 0.024288228)
(0.92426144 -0.032648035 0.032143106)
(0.93003508 -0.037961802 0.029359188)
(0.93367289 -0.042945189 0.026703398)
(1.0557685 -0.062774012 0.034005421)
(1.0613269 -0.068075176 0.031633193)
(1.0654279 -0.072985044 0.029295281)
(1.1910733 -0.096335187 0.035749319)
(1.1968419 -0.10162646 0.033757173)
(1.2010524 -0.10698587 0.031535133)
(1.3299035 -0.13276863 0.037202614)
(1.3355518 -0.13838353 0.035403883)
(1.340064 -0.14344978 0.033590617)
(1.4714206 -0.17202004 0.038622016)
(1.4772039 -0.17738021 0.037040143)
(1.481873 -0.18266328 0.035409899)
(1.6153334 -0.21330506 0.039651365)
(1.620952 -0.21888157 0.038450451)
(1.6258318 -0.22416003 0.037051291)
(1.7608114 -0.25665071 0.040875377)
(1.7666376 -0.26228875 0.039676956)
(1.7716067 -0.26750944 0.03854144)
(1.9079538 -0.30168451 0.04184445)
(1.9136725 -0.30711847 0.0408924)
(1.9187675 -0.31243947 0.039926648)
(2.0559493 -0.34778834 0.042706285)
(2.0616368 -0.35341638 0.042012679)
(2.0668594 -0.35877761 0.041158719)
(2.2048608 -0.39515731 0.043564655)
(2.2105343 -0.40081321 0.043064308)
(2.2158704 -0.40614643 0.042432845)
(2.354006 -0.44330677 0.044474498)
(2.359648 -0.44878688 0.04430224)
(2.3650252 -0.45412689 0.043620758)
(2.5034603 -0.49221276 0.045527292)
(2.5090542 -0.4977151 0.045257133)
(2.5146108 -0.50325934 0.0450369)
(-0.0030731023 0.001602209 -0.0011749145)
(-0.0017488213 0.0037993118 -0.0014636819)
(0.00027400528 0.0026347642 0.0010302898)
(0.022739895 0.0052386139 -0.0032018996)
(0.026318423 0.0045535887 -0.0016003791)
(0.025996967 0.0026121488 -0.00030035198)
(0.060213117 0.0029757973 0.00037673043)
(0.064523448 0.00098579494 0.0035695845)
(0.064769802 0.00068247503 0.0026974825)
(0.11092711 0.00062160775 0.0017909408)
(0.11688766 -0.001988513 0.0030836868)
(0.11606623 -0.0056695258 0.0030490524)
(0.17588828 -0.0058854997 0.0045762671)
(0.18075385 -0.010168138 0.0069946838)
(0.1811181 -0.011222615 0.0051980614)
(0.25065308 -0.015842297 0.0074244193)
(0.25702766 -0.020093989 0.0086534618)
(0.25774185 -0.023319394 0.008074771)
(0.33739173 -0.029294897 0.0095655173)
(0.34297628 -0.034955272 0.01106547)
(0.34422188 -0.037868338 0.010286269)
(0.43296518 -0.047503071 0.012709562)
(0.43883591 -0.052543193 0.014364949)
(0.44039168 -0.055873921 0.013066085)
(0.53673487 -0.068526182 0.015253919)
(0.54248755 -0.074495655 0.016065766)
(0.54506852 -0.078509466 0.015288803)
(0.64841753 -0.093945088 0.017833114)
(0.65460948 -0.099913422 0.019141669)
(0.65692521 -0.10349663 0.017898247)
(0.76656535 -0.12287142 0.020400854)
(0.77206176 -0.1284831 0.021017074)
(0.77543578 -0.13304357 0.020048523)
(0.89030295 -0.15470782 0.022635012)
(0.89637789 -0.16083863 0.023154485)
(0.89971276 -0.1649741 0.022348206)
(1.0192348 -0.18983056 0.024614195)
(1.0250364 -0.19562044 0.025292402)
(1.028648 -0.20028991 0.024320843)
(1.1522152 -0.22745952 0.026494196)
(1.1580382 -0.23355411 0.02687791)
(1.1620889 -0.23825074 0.026195968)
(1.2889966 -0.26763457 0.028216288)
(1.2947876 -0.27351415 0.028657462)
(1.2991205 -0.27833382 0.027701094)
(1.4287038 -0.30982072 0.029698637)
(1.4345414 -0.31572475 0.029878221)
(1.439018 -0.32056752 0.029240533)
(1.5709883 -0.35374828 0.0311015)
(1.5767431 -0.35957854 0.031342314)
(1.581491 -0.36462405 0.030606047)
(1.7152693 -0.39922613 0.032368729)
(1.7211075 -0.40497309 0.032404332)
(1.7260281 -0.41000064 0.031766416)
(1.8612712 -0.44596724 0.033611449)
(1.8670979 -0.4515609 0.033496745)
(1.8720786 -0.45665624 0.032993975)
(2.0085355 -0.49347923 0.034756133)
(2.0142476 -0.49895277 0.034460562)
(2.0195403 -0.50431655 0.034010683)
(2.15676 -0.54180723 0.03566375)
(2.1626993 -0.5473826 0.035504358)
(2.1678277 -0.55262376 0.035172031)
(2.305522 -0.59057377 0.036777713)
(2.3111935 -0.59594343 0.036523667)
(2.3164945 -0.60141713 0.036031301)
(2.4550847 -0.63977013 0.037659225)
(2.4609077 -0.64530927 0.037482639)
(2.466396 -0.65063276 0.03715244)
(-0.0048219501 -0.0058768848 -0.0071054233)
(-0.005030562 -0.0065716587 0.0018029138)
(-0.0023035243 -0.0066365927 0.0058835755)
(0.024335562 -0.019967633 -0.0061393075)
(0.028944871 -0.015463253 0.00020431927)
(0.028010852 -0.018550534 0.0060261936)
(0.056554572 -0.032900344 -0.0061160673)
(0.060940137 -0.039288189 0.0012320145)
(0.062127035 -0.040429861 0.0078064227)
(0.10759623 -0.051617446 -0.0052574549)
(0.1110089 -0.050350403 0.001013371)
(0.11304819 -0.053864193 0.0072531304)
(0.16793891 -0.068716468 -0.0021694495)
(0.17304971 -0.073692075 0.0039471014)
(0.17545927 -0.075260324 0.0089766684)
(0.24069932 -0.090546803 -0.0010305152)
(0.24499424 -0.093603269 0.0039650528)
(0.24825778 -0.09752418 0.0092096812)
(0.32357797 -0.1152642 0.002052884)
(0.32884046 -0.11908073 0.0075611781)
(0.33155307 -0.12238855 0.011388465)
(0.41529916 -0.14121505 0.0044293798)
(0.42002901 -0.14611411 0.0084843046)
(0.42387632 -0.14985761 0.012435619)
(0.51606333 -0.17178079 0.006942024)
(0.5214435 -0.17615696 0.010948708)
(0.52515155 -0.18023279 0.014306959)
(0.62394313 -0.20402755 0.0094409695)
(0.62904103 -0.20895458 0.012817411)
(0.63311018 -0.213552 0.01596376)
(0.73864535 -0.23903883 0.011661663)
(0.74409488 -0.24457804 0.014798262)
(0.7484983 -0.24883731 0.017357875)
(0.85946364 -0.27715343 0.014081253)
(0.86485526 -0.28223827 0.016662867)
(0.86923706 -0.28711628 0.018922863)
(0.98523032 -0.31677686 0.015941814)
(0.99059193 -0.32234458 0.018163387)
(0.99536755 -0.3271311 0.02030904)
(1.1157168 -0.35898376 0.01795174)
(1.121211 -0.36429929 0.019948259)
(1.1261055 -0.36931659 0.02148219)
(1.2500081 -0.40265352 0.019651311)
(1.255475 -0.40814466 0.021212289)
(1.2605927 -0.4132239 0.022607116)
(1.3876809 -0.44790304 0.021245845)
(1.3932234 -0.45341817 0.022543777)
(1.3983955 -0.45841711 0.023661185)
(1.5281251 -0.4944564 0.022651421)
(1.5336563 -0.49981291 0.023751046)
(1.5390502 -0.50507872 0.02458649)
(1.6709065 -0.54180479 0.023930591)
(1.6765449 -0.54752945 0.024774228)
(1.6819533 -0.5525703 0.02542555)
(1.815671 -0.5902915 0.025222404)
(1.8212383 -0.59564503 0.025812204)
(1.8267352 -0.60086199 0.026279134)
(1.9617453 -0.63896277 0.026347467)
(1.9675873 -0.64460772 0.02671711)
(1.9730485 -0.64987375 0.02709193)
(2.1092439 -0.68817421 0.02743033)
(2.1149642 -0.69383402 0.027716248)
(2.1203984 -0.69904003 0.027909061)
(2.2575794 -0.73774602 0.028665312)
(2.2632663 -0.74334186 0.028683252)
(2.268927 -0.74854928 0.028739528)
(2.4064738 -0.78717978 0.029738992)
(2.412203 -0.79259262 0.029671051)
(2.4177261 -0.7980956 0.02944062)
)
;

boundaryField
{
    free
    {
        type            calculated;
    }
    bottom
    {
        type            calculated;
    }
    traction
    {
        type            calculated;
    }
}


// ************************************************************************* //
