/*--------------------------------*- C++ -*----------------------------------*\
  =========                 |
  \\      /  F ield         | OpenFOAM: The Open Source CFD Toolbox
   \\    /   O peration     | Website:  https://openfoam.org
    \\  /    A nd           | Version:  6
     \\/     M anipulation  |
\*---------------------------------------------------------------------------*/
FoamFile
{
    version     2.0;
    format      ascii;
    class       pointScalarField;
    location    "1.92";
    object      E;
}
// * * * * * * * * * * * * * * * * * * * * * * * * * * * * * * * * * * * * * //

dimensions      [1 -1 -2 0 0 0 0];

internalField   nonuniform List<scalar> 
3969
(
-414.37363
1208.4412
-184355.5
-143730.62
816.88654
1766.3112
-194670.87
-301565.3
-1735.934
-578.12103
127.038
93.098424
733.50741
2296.1952
2748.2673
-106536.93
-116072.42
-121222.39
-120731.98
-114134.7
-108723.84
-80479.713
1109.0827
926.67019
1552.1369
2756.8053
3449.4281
4951.9525
5629.5935
7333.9175
7559.5362
9059.5595
9922.6035
10689.829
11626.87
11862.83
12454.394
12276.181
12379.507
11733.708
10978.18
9709.933
7842.9214
5708.1241
2699.0935
-445.34279
-4698.3413
-8797.0676
-13869.837
-19202.485
-24629.585
-30485.402
-36317.302
-41820.296
-47272.863
-52115.263
-55968.274
-59516.03
-60870.146
-63185.063
-61614.141
-62067.109
-57408.246
-54759.277
-49621.422
-41841.748
-36811.423
-27353.478
-838.87553
5529.3686
-116.26187
6868.5654
3042.818
5468.1862
3738.2505
3761.6002
2146.3617
782.77804
-23.228589
-2769.3301
-3652.5317
-6276.5225
-7151.2807
-8636.327
-9496.6919
-9627.7966
-10578.762
-9412.2968
-9082.6134
-7464.2059
-5210.1235
-2728.1492
1130.696
5268.7032
10609.984
14825.876
21070.846
27738.199
34211.934
41989.233
48822.08
55924.541
62105.307
67643.066
72373.834
74694.481
76452.092
75534.925
73502.367
69512.164
63162.434
55243.584
45198.781
34504.836
23265.63
1111.0481
-270.97601
-261.32709
2.1305553
98.020341
-422.93976
634.67385
814.29918
5691.1088
6880.4
-3004.5389
6078.8973
3530.9797
2823.4488
4617.0459
491.32534
3857.2663
-3735.757
1431.4041
-2711.8775
-3132.2316
-4521.9988
-5802.2698
-5527.0384
-6413.9315
-5902.9742
-5401.859
-4725.8307
-3208.724
-1829.591
531.86068
2720.741
6099.71
10613.493
17054.486
22351.698
27795.728
33201.34
38294.36
43246.443
47606.16
51572.635
54210.525
57338.839
61953.613
55879.592
55241.163
51829.024
46735.202
40988.574
33048.787
24418.759
14548.524
4130.3835
2848.3238
-255757.97
-214204.47
-251516.62
-227373.08
-220214.97
-199352.81
-238623.06
-1049.9245
-5951.1394
-7770.1596
-12855.011
-17460.717
-21606.271
-25417.93
-28594.209
-30988.48
-32395.084
-32305.815
-36690.003
-33975.455
-33254.673
-31468.777
-29284.198
-26736.113
-23801.438
-20673.43
-17444.116
-14120.223
-10840.002
-7972.9882
-5267.4983
-2675.9354
-373.92508
1691.658
3325.7964
4974.3334
5895.492
7262.3005
7272.4595
8695.8263
9237.6495
8853.9359
8627.9323
8438.3688
7835.1694
7508.4852
6648.44
7016.491
4451.3011
5217.9981
2305.7278
3506.1969
499.92581
3795.5782
-258.164
-561.50814
-559.31754
-362.45699
-274.05833
-193.97709
-795.92846
-331.08251
-402.56352
-1257.8465
-1405.5418
-1029.0617
-164.14264
-1152.068
-156247.97
-156381.84
-156294.89
-156759.32
-157228.51
-156920.76
-157642.95
-211544.54
-212750.32
-213081.36
-213395.3
-213665.24
-214854.2
-215326.73
678.50468
-1227.3327
87.603522
414.55612
314.04056
1514.504
1267.9075
2483.4763
2510.2912
3414.4263
3514.4596
3824.2586
4169.6273
4164.2207
3883.2177
3569.6367
3209.7159
2171.6213
1384.6942
147.73109
-1031.8055
-2438.916
-3625.5291
-5229.7444
-6271.1516
-7505.4396
-8389.9806
-9297.4769
-9742.4286
-10210.493
-10122.148
-9835.9575
-9439.3839
-8461.469
-7535.593
-6197.8748
-4517.2314
-3375.974
-1438.1727
242.83774
2686.39
3355.5525
7251.9944
7879.5942
10175.146
14228.735
13643.701
-31.210232
-1304.1584
-707.58538
-1189.7472
-888.12473
-625.82797
-803.65803
-318.51959
-517.67782
-310.9174
-424.9657
-128.68511
-347.39248
-479.72571
-443.57574
-781.19565
-1082.8723
-1521.6268
-1842.099
-2094.4206
-2484.4217
-2414.6182
-2811.0258
-2426.733
-2333.515
-1942.7294
-1190.9871
-340.29501
490.76604
1971.8946
3563.1241
5243.1332
7259.7758
9172.3705
11386.366
13113.513
15533.542
15912.055
18945.784
18438.289
20794.91
20093.871
21555.835
19729.651
20735.411
16608.407
7209.4284
523.88983
-768.56292
-280.25224
-870.26663
-1274.2984
-1130.149
-1669.5418
-1401.4422
-1969.6263
-1580.3344
-2045.3463
-1966.3955
-2549.1889
-2601.2052
-2826.287
-2854.6029
-2805.1844
-2724.8738
-2196.7904
-1957.6646
-1199.7171
-710.56333
764.01293
1966.2261
3583.6337
5290.7116
7687.3394
9796.7532
12638.55
15369.89
18062.174
21033.747
23657.372
26390.276
28626.044
30922.918
32066.316
34101.263
34318.178
34145.055
33970.484
31166.157
29934.387
25496.791
22151.96
15741.718
322.17373
603.48943
-497.22429
-96.512595
-897.08932
-1243.2176
-1315.2269
-2130.9991
-2327.3605
-2952.886
-3705.8538
-4128.3384
-4000.9203
-4824.0754
-4330.6109
-5079.306
-3815.2541
-4240.2201
-2955.1332
-2864.0878
-1714.41
-872.69799
1032.9006
2564.6449
3892.7093
5272.0191
7255.4088
8793.9556
10576.329
12547.316
14364.826
16386.047
18354.016
20008.183
21775.374
23134.545
23856.578
25005.801
24732.546
25844.321
25481.083
24094.742
21168.911
19446.382
14208.343
12450.174
4942.2737
-5718.8389
1067.3307
-429.25124
373.40948
-953.77263
-899.27275
-1381.3378
-2096.1937
-2017.0524
-2558.5586
-2797.5881
-1988.4181
-2385.3571
-1761.7907
-1868.6469
-1195.284
-958.43091
-408.05751
144.81104
797.5911
1585.1659
2333.6846
3809.191
5564.0848
4976.7388
4878.1414
4146.0306
3246.4255
2252.1436
970.49319
-461.38592
-2101.1207
-3868.1633
-5828.621
-7607.1172
-9810.1859
-11405.419
-13477.524
-14548.112
-3415.7955
10154.483
6993.1555
6052.6405
3822.0884
1280.8969
-1029.1611
-5895.1864
-4899.8146
1904.6326
466.11148
1358.8529
1137.0295
1244.065
976.90256
823.24722
405.56239
536.36639
-7.8135809
541.08903
332.12661
1018.8617
1363.0349
1656.1372
2418.5975
2649.0064
3273.1777
3574.3004
3765.7044
3981.3021
3208.3108
2353.7001
1731.0562
503.86837
-1061.7176
-2416.3708
-4455.7981
-6520.6023
-8739.394
-11055.198
-13461.928
-15666.093
-17750.496
-19888.383
-21148.487
-22729.753
-23751.139
-24593.919
-21521.284
-22648.999
-22366.154
-22147.823
-20412.842
-18809.522
-17481.292
-2141.534
2499.4695
-460.99465
1868.3327
486.52045
1511.99
776.77518
1207.0668
121.57327
1379.048
-289.70304
1599.483
-508.44039
1002.2822
153.4523
811.55363
488.10704
615.25535
496.61855
151.80168
-156.65388
-679.67754
-1267.0115
-2734.9924
-3472.6543
-4297.6547
-4860.1233
-5601.8134
-6321.949
-7147.421
-7892.7404
-8624.9295
-9080.3595
-9609.2263
-9581.9199
-9924.6038
-9097.5058
-9159.6723
-7444.79
-7809.5444
-16377.441
-15813.795
-12550.183
-9137.1328
-4353.2313
-953.07232
6045.3141
15139.754
-1233.2367
-1421.8706
-1493.7635
-1615.2735
-1410.9169
-1447.4825
-1363.0432
-462.96784
-771.38276
-867.20476
-934.82636
-914.50133
-780.06868
-854.51804
-52.82165
-260.23545
-327.71654
-399.80084
-347.35732
-316.93071
-415.73107
-20.622226
-168.18675
-106.83529
-141.05153
-114.21344
55.281386
-29.69239
-150.97204
-291.96876
-360.68775
-427.00807
-423.36075
-342.87684
-324.94681
924.15752
412.81191
411.10923
192.87335
259.4977
255.65606
232.56091
572.27983
971.00642
13.521135
-224.89238
-250.89073
-328.88702
144.80656
6168.1027
7408.2479
7191.3319
7937.5417
7816.9663
7178.6032
6078.7204
3943.6957
4373.0308
2334.0355
1737.3617
3899.7501
2438.0579
4992.1352
4161.6943
4199.2177
6318.1538
4736.6999
3994.1302
3178.5639
5212.4058
5477.2872
5700.8242
3498.4541
4218.2987
4045.6117
5158.2546
2977.4225
5303.7542
5507.3095
6959.6141
5584.729
5513.5458
5307.6406
6590.4883
5388.9363
4092.0827
2639.6684
3466.2923
2483.6955
3115.7095
2848.9413
3699.5136
3665.7273
4984.1161
4175.5274
5043.5737
4646.0217
5585.954
2968.3385
2706.1967
1524.1995
1657.6209
475.44682
597.44673
714.91803
1677.3096
987.55854
1815.5894
1441.6119
2625.7586
2764.4546
4183.7962
-636.84599
-396.99714
-1486.4355
231.04595
-1931.6833
-1928.8981
-2151.8515
-903.01135
-1901.8474
-1074.4776
-2771.9446
-1283.6648
-1464.3139
-370.19683
-4202.6809
-2894.0481
-4323.964
-2661.9602
-3392.4928
-5450.5356
-2577.3133
-4716.7123
-5505.752
-4493.0366
-5393.0575
-5303.5004
-4150.9501
-4605.0782
-7135.3108
-6320.3181
-5825.4879
-6883.9052
-5315.5467
-7248.6956
-5023.1906
-7617.7412
-6811.6617
-7516.0254
-7186.4991
-7754.6488
-7760.802
-6737.6329
-8373.8843
-8458.7283
-7525.2067
-8697.6561
-7636.2719
-8516.2317
-6785.2672
-9335.292
-8026.3781
-8524.9855
-8793.4515
-8336.0568
-9157.4695
-7401.3084
-8645.9002
-8808.8026
-8218.2528
-8861.2273
-8338.4824
-9045.627
-7505.4311
-8584.3005
-8173.8065
-7759.0176
-8711.2846
-7749.4854
-8794.4538
-6782.2778
-7401.3984
-7307.5216
-6958.0257
-7449.9773
-6777.2121
-7788.7362
-6161.133
-5631.075
-5920.5516
-5145.0526
-6062.4635
-5231.5661
-6415.9728
-4573.9085
-3530.4564
-3731.2752
-3139.9337
-3965.0382
-3094.3922
-4341.3797
-2668.6848
-429.69743
-1001.6818
-339.39159
-1052.6729
-250.87556
-1437.5748
0.20214319
3031.1531
2472.5574
3042.6673
2265.5668
3087.1994
1752.5251
2872.6804
7263.459
6967.1352
6572.5976
6730.6663
7025.5505
6164.3456
6869.8706
12031.864
11663.734
11084.66
11096.226
10745.771
10961.521
12055.161
17280.286
16998.967
16751.297
16225.977
16714.96
16641.98
17924.057
23215.304
22411.169
23084.531
22012.315
22780.907
21443.747
23665.44
28559.003
29272.495
28170.004
28884.456
28459.826
28550.772
29433.096
35976.184
34817.782
35596.26
34839.457
35171.373
34617.969
35780.102
41792.578
42009.194
41501.988
41515.601
41336.507
41137.805
41985.773
48705.894
47969.574
48099.94
47797.781
47691.757
47363.78
48148.536
54391.614
54085.066
53969.893
53734.204
53526.346
53347.588
54073.923
59886.104
59323.612
59403.774
59096.585
58736.316
58496.851
59274.508
64128.18
63812.773
63749.7
63566.882
63388.55
63536.04
63489.124
68078.202
67450.813
67421.276
67167.523
66304.678
67087.831
67168.142
68960.758
68824.675
68928.925
68823.873
69217.217
62146.175
63121.049
63040.374
63530.323
63573.82
63543.042
62757.348
71469.904
68908.517
68626.91
68076.872
68303.787
67887.063
67876.495
67713.202
67536.027
65902.242
65594.422
65376.98
65688.536
64989.584
65215.797
64898.476
60783.163
60373.159
60577.705
60413.201
60077.713
60498.517
59714.674
54361.742
53941.672
54029.591
54084.675
53809.573
54091.704
53055.55
46201.469
45966.392
46062.567
46075.435
45815.439
46047.529
45036.384
36383.703
36325.04
36333.702
36516.702
36051.23
36762.408
35005.682
25428.813
25573.048
25525.876
25577.199
25663.035
25728.406
24169.624
14579.107
14957.922
14788.966
15210.604
14704.795
15093.303
13314.362
448.37225
1140.3087
1105.6211
1253.0644
1320.495
1133.5381
950.63775
-135755.4
-146490.85
-146315.12
-146492.26
-147009.69
-146786.1
-147086.17
-153222.88
-152528.1
-152726.45
-153101.52
-153238.43
-163662.46
-153003.05
-162175.66
-152326.58
-152185.47
-152622.41
-152533.14
-141797.1
-153831.41
-155991.28
-156339.18
-157281.53
-156929.56
-158168.35
-157379.34
-158167.81
-150598.26
-130443.75
-148965.69
-149824.93
-148862.84
-149722.74
-150636.08
-133604.53
-164329.25
-153065.16
-153043.25
-169492.77
-153589.2
-155872.48
-168774.24
-153716.39
-154571.39
-154492.79
-136860.06
-154671.97
-154464.38
978.45753
1557.4603
1776.7409
1968.0615
2131.5118
2579.8594
1361.3222
19.271297
-107.56407
96.470411
657.48978
269.66522
-118.66769
797.37682
2035.8554
2620.1314
2351.7056
2121.3941
3328.8507
2702.5932
3671.7441
2652.9869
2524.1785
2257.0635
3006.6517
2499.4139
2189.511
3015.6937
4904.0059
4430.6377
5137.5772
4768.276
5400.7416
5016.3766
5412.9315
4754.2181
4669.9528
4446.129
4254.0733
4690.8437
4114.3333
5174.0088
7229.4759
6510.627
7061.255
6749.2264
7306.1458
7277.8412
7475.7921
6832.841
6592.5097
6649.5449
6421.3625
6557.7311
6420.0691
7275.0738
8733.542
8161.3144
8563.1887
7911.4828
8907.8284
7983.191
8890.9599
9488.1865
8539.5997
8929.6175
8484.1915
9038.2184
8701.5963
9322.5177
10038.215
9402.9295
10071.015
9235.1489
10050.869
9281.3485
9775.2209
10493.65
10102.536
10148.883
10155.018
10584.317
10457.785
10886.185
11086.799
10351.468
10621.692
10117.882
10845.797
10017.658
10314.85
11406.678
10900.495
11082.263
10755.4
11160.456
11207.613
10971.547
11108.963
10884.833
11154.859
11215.821
11707.864
10710.452
10906.031
11331.758
10580.593
10828.499
10248.374
11283.745
11266.293
10715.324
11408.238
10781.854
10776.745
10705.889
11200.227
10367.085
10587.202
10775.92
9800.2996
10300.65
9737.8738
10280.21
9815.8377
9616.5329
9622.1551
9007.9393
9238.8214
8709.2863
9514.1214
8835.4787
8902.2075
8409.7221
7644.2891
7824.4117
7540.6484
7927.709
7412.1692
7413.5724
6474.5756
5766.4325
6121.2794
5576.3878
6185.1843
5690.658
5850.8538
4386.2138
3876.44
3851.1163
3551.3513
3956.543
3445.4633
3762.7691
1502.1734
982.94044
1024.5454
726.60322
1137.7444
765.33407
1339.7277
-1525.4998
-1848.977
-2106.0021
-2219.4326
-1913.0928
-2131.3743
-1481.874
-5427.3268
-5440.2034
-5837.7812
-5857.1121
-5490.8478
-5673.4631
-4784.7961
-9112.8034
-9308.6638
-9760.1838
-9753.0953
-9352.35
-9607.1924
-8467.3802
-13781.979
-13647.192
-14279.134
-14029.083
-13760.991
-13884.443
-12319.398
-18484.884
-18228.387
-18795.924
-18641.206
-18206.331
-18383.301
-16483.519
-23224.377
-23036.877
-23671.345
-23482.561
-23035.777
-23152.231
-20865.821
-28409.973
-27825.082
-28764.817
-28288.863
-27866.522
-27935.522
-25182.465
-33028.307
-32865.071
-33531.847
-33100.604
-32697.137
-32793.494
-29470.723
-37829.519
-37476.741
-38170.225
-37784.017
-37432.528
-37274.862
-33527.918
-42050.573
-41839.961
-42539.279
-42093.061
-41605.084
-41591.139
-37226.264
-45731.493
-45699.785
-46238.448
-45758.352
-45575.701
-45190.844
-40693.497
-48690.225
-48768.232
-49217.162
-48919.285
-48612.312
-48534.881
-43235.337
-51124.798
-51126.868
-51413.535
-51377.19
-50806.997
-56792.649
-50956.427
-58140.655
-58915.17
-59690.131
-59365.249
-58614.986
-52379.305
-42878.323
-51358.611
-52663.483
-52434.307
-52701.731
-52029.67
-53502.311
-46498.005
-51433.707
-51506.67
-52106.799
-51847.179
-52104.852
-51783.282
-45269.361
-49944.885
-51195.587
-50915.892
-50818.87
-50563.264
-50109.465
-43688.997
-46171.997
-46623.353
-46893.129
-47074.919
-47183.101
-47348.068
-41109.199
-42966.563
-43905.613
-44098.416
-43686.283
-43762.968
-43381.867
-37403.876
-38041.322
-39072.151
-38669.786
-39041.382
-39168.525
-38961.225
-33082.62
-31945.802
-31999.937
-32585.496
-32397.61
-32484.903
-31950.734
-27822.774
-26171.011
-27694.293
-27366.522
-27658.555
-27391.759
-27423.032
-22615.142
-20861.65
-19972.451
-20247.032
-20009.286
-20093.776
-19783.737
-17599.054
703.34148
-537.63256
-711.36529
-857.29675
-873.66211
-565.97211
5.3378842
-1306.5947
-522.85032
-272.62944
404.24178
147.08584
1135.8005
583.75203
1203.9675
458.08931
686.35632
415.22976
-1021.3511
-710.6857
-2648.7252
-3106.2158
-3995.2176
-5235.0782
-5427.1739
-6488.8705
-6385.6958
-6671.7257
-6116.1148
-5304.063
-4061.0163
-2439.8469
-509.01353
2522.623
5490.7699
8603.2657
12110.021
15748.391
19411.051
22778.737
26155.026
28821.115
31104.191
38044.478
34941.708
35106.544
34635.354
33819.336
32254.485
29840.613
27140.845
23461.355
19725.562
21476.234
-1417.0411
-199.29971
-1464.9985
-950.44251
525.90548
-425.40956
996.16724
1112.0985
1518.7663
2520.8297
1906.102
3145.6356
2637.7587
2856.9665
3250.6058
3117.164
3712.6239
3514.944
3983.8051
4175.2372
4355.1966
4743.4701
4882.4704
5293.728
5691.2256
5369.8732
4715.9004
7310.9473
7903.2899
8603.1629
9365.4201
10059.778
10863.456
11438.303
12122.068
13216.397
12214.935
12904.71
12944.711
11907.983
11399.304
9836.4412
8639.7086
6153.2335
4801.0083
-862.50353
4437.4863
-193.77808
-463.66125
-1641.2913
-102.393
-1795.5481
-223.49995
-1065.0175
-903.08069
-521.94782
-986.55383
-708.95752
180.90199
2050.1678
4339.654
4441.2638
5172.4368
5939.9936
6352.9852
6702.4508
6863.1487
6747.6458
6419.202
5906.8347
4960.6681
4272.9845
2897.6971
1885.269
-53.731613
-1040.2206
-2694.0959
-4044.2953
-5431.5392
-6602.2628
-7713.7519
-8659.9727
-9425.7573
-9951.4137
-10434.054
-10694.886
-10755.6
-10730.23
-10509.856
-10347.38
-9275.1739
-9406.9994
-7853.0929
-6580.6349
282.67338
473.95288
-1239.715
991.87663
-1548.6008
983.64113
-2499.9782
1023.0793
-1282.6453
569.10906
1071.5836
870.18198
2525.3284
6841.6218
6556.0682
7721.3482
8100.1657
8189.7427
8442.1989
8225.7224
7698.77
6895.0637
5611.5163
4436.3212
2535.9513
914.16701
-1955.5356
-4117.8457
-7022.652
-9773.798
-12530.361
-15192.163
-17738.928
-20190.052
-22127.888
-23921.773
-25153.553
-26207.017
-26193.577
-26281.761
-25203.261
-24345.93
-21564.439
-20114.62
-15617.728
-13751.459
-12118.163
801.78695
-70.33177
-99.094644
369.39761
-409.56949
169.67781
-175.8057
1958.7656
-472.40461
3066.9831
-107.80858
3101.1648
2134.6447
3093.955
3337.5946
3959.9903
4236.4123
4676.517
4699.6092
4618.9331
4156.7914
3451.7211
2754.7375
1230.0842
-687.89097
-3293.6617
-5206.7302
-7729.5674
-10163.776
-12691.104
-15107.06
-17566.174
-19806.63
-21739.961
-23318.545
-24715.042
-25427.699
-25538.981
-25486.266
-24267.326
-23008.948
-20181.401
-17832.376
-13609.927
-9789.6403
-5345.1239
-7102.075
1984.3725
2019.663
-1148.4734
2083.6221
-746.74562
407.14465
1629.5558
-1762.3602
1630.9671
-43.13599
380.41117
1093.5084
-681.86263
1258.8381
400.86003
944.55454
1224.273
1300.6109
1615.5792
1573.4919
1600.8407
1407.9159
1244.3314
648.78381
-446.31191
-392.14143
-774.23191
-1275.7106
-1798.5017
-2325.7117
-2725.6485
-3300.5893
-3568.4013
-3579.1962
-3650.4778
-3669.2314
-2748.0148
-2833.0614
-1198.4772
-740.59409
811.46231
1694.9376
3569.3045
4556.9345
6877.0623
6006.7827
4922.3154
4432.6365
-172.32835
2709.6857
-141.99637
2933.8819
772.78054
2012.3631
45.579995
1844.7002
-17.034753
1969.4241
3484.1348
1386.9925
2842.5492
1110.4032
1926.3555
782.96634
583.54078
-12.606535
-753.79795
-1534.661
-2507.6289
-3613.7223
-5186.2838
-6524.0606
-6792.4842
-7935.439
-8674.4218
-9662.4649
-10163.794
-10749.961
-11223.117
-11216.664
-11063.456
-10534.133
-6882.5699
-9435.3282
-6776.1365
-5397.5153
-2653.0944
35.15275
3353.269
6592.3897
10680.546
13555.396
17760.985
21126.272
-1098.8166
-480.0654
-595.54026
-460.81565
-530.17668
-679.92465
-602.95385
-915.45351
-1021.3707
-1278.7184
-1291.491
-1447.3816
-1302.128
-714.65999
-231.95167
-440.22194
-65.160123
-207.44617
-143.75525
-54.823391
363.15936
601.79342
259.89591
306.94513
464.93639
343.57671
555.43369
543.7014
854.04164
648.43342
1050.5767
408.82237
1010.5998
408.89454
652.42829
1358.0577
1423.1007
974.38304
1954.6591
1366.7527
1731.3084
1985.6683
1756.9995
1154.5213
1927.3602
1151.6159
1345.1558
1385.7714
1221.7677
1923.9881
2296.0845
1739.9667
2514.8369
2417.0572
2175.2808
2228.5997
2308.2546
1919.2913
1904.411
2452.2358
1957.3249
2291.6408
1819.9658
2090.9472
2106.9573
1957.0813
2195.1129
2023.4806
2118.2488
1609.5487
2051.4202
2018.7772
1797.6909
2430.0063
2147.752
2350.9283
1953.5741
2005.8041
1560.5652
1603.0673
1576.2031
1381.4894
1569.8329
745.26522
1484.5366
1369.1544
973.90528
1698.701
1481.65
1693.7514
1136.3662
1131.6792
526.50254
921.44458
622.39258
824.84225
137.93589
90.660876
141.12606
134.0035
-310.02917
147.18586
-361.34961
277.77051
-693.09637
-301.23487
-745.34056
-804.1307
-438.44552
-597.40941
-687.28903
-1442.9127
-1446.3745
-1881.2657
-1931.7264
-1588.9335
-1920.2397
-1836.6736
-2549.3521
-2274.4663
-2561.1632
-2670.3315
-2360.3141
-2525.5797
-2212.8528
-3073.4134
-3063.6866
-3502.8998
-3619.3391
-3253.2848
-3352.8669
-3358.0191
-4172.1012
-3960.6429
-4178.6244
-4331.2073
-3874.3161
-4134.2859
-3855.5762
-4569.7642
-4388.5617
-4755.4262
-4794.1028
-4547.701
-4630.76
-4498.423
-5205.3325
-4931.2225
-5286.0539
-5261.4139
-4905.2226
-5031.4525
-4796.6386
-5400.9181
-4845.9486
-5315.2498
-5075.8509
-4989.2601
-5041.0747
-5068.2031
-5379.4821
-4862.075
-5323.7783
-4963.1225
-4787.6628
-4860.7278
-4774.6882
-4888.5764
-3939.7068
-4772.2329
-4241.4446
-4168.3393
-4327.2436
-4519.8297
-4274.5785
-3367.2698
-4021.978
-3238.641
-3558.8665
-3593.4804
-3900.4475
-3268.9862
-2004.4592
-2983.4661
-1959.1661
-2206.8497
-2395.6614
-2401.0701
-1527.315
-269.51975
-1096.2231
-766.18505
-557.65991
-851.76646
-1232.6604
325.4854
1414.6603
250.59337
1690.8345
1286.2999
866.71558
668.04065
2525.1717
3594.6613
2991.1291
3580.2283
3230.8423
3029.8694
2654.1881
4907.854
6127.2229
5005.3804
5870.5134
5835.4156
5319.8301
4947.535
7569.1727
8437.2562
7616.8222
8505.5453
8174.812
7665.4519
7336.2781
10343.124
11080.562
10295.076
10860.073
10798.079
10241.953
9984.0002
13175.978
13745.685
12759.973
13537.587
13368.749
12792.389
12396.343
15951.238
15947.622
15405.298
15773.488
15811.734
15275.461
15191.34
18796.695
18838.998
17507.66
18118.08
18116.426
17475.483
16579.218
19143.093
19541.11
19037.999
19161.068
19283.61
18886.84
18428.129
28109.681
21512.379
24321.067
25035.195
25405.874
24005.434
25375.445
24995.602
22787.396
23227.423
22988.225
23564.086
22993.139
22968.538
26879.589
24574.7
23576.383
23659.402
24170.022
23340.401
23786.494
27188.01
24607.195
24388.894
24081.552
24826.63
24161.068
24322.287
27579.091
24458.182
23437.718
23417.355
24169.591
23277.35
24273.159
27422.694
25116.401
24401.212
24614.719
24859.456
24607.528
24908.242
26746.174
23036.575
22470.995
21939.786
22965.135
22251.506
22961.711
25248.843
22535.423
21339.148
22304.216
22289.489
22166.068
22570.788
23685.428
21962.128
22397.527
21675.644
22431.152
21960.938
22370.612
22553.568
20227.045
19294.248
19689.035
19593.537
19624.375
19587.967
19789.836
-961.48615
35.68339
-119.36023
29.781485
-306.65347
-140.5654
-774.45162
-1666.9727
-1509.2563
-1602.2031
-1302.5708
-1258.9254
-948.00206
-922.86305
-1123.5909
-1454.3931
-1459.8528
-1520.7486
-1189.4497
-1472.7746
-654.79568
-1130.3705
-904.79167
-974.442
-600.32432
-986.07777
-466.38112
-1164.9776
-185.90991
-675.97118
-102.08878
-748.16326
78.538388
-696.51719
215.54503
-371.14118
-345.39259
-803.58135
-283.46907
-909.14489
-312.75597
-419.88777
200.62862
-150.53416
593.80873
-1.3798084
477.54637
325.43139
80.295837
207.24122
406.61806
-88.99857
422.02008
180.56828
203.79454
329.99749
491.08013
130.74145
643.70434
457.91359
51.503194
484.10262
120.09722
435.1062
725.61484
782.25943
755.09337
977.71419
753.8934
962.52715
626.19991
607.28109
727.96052
845.58703
330.28429
566.03692
239.05749
346.99995
758.21027
843.38171
798.70971
981.5922
875.16034
945.48097
377.47456
661.00097
1078.4168
1228.8975
741.79136
967.26597
271.26228
359.2073
306.94963
931.27649
492.82027
407.96104
724.69748
157.26646
465.93998
478.3762
746.96674
701.02772
927.38285
804.7248
411.39784
358.92857
-214.36245
770.09126
401.84783
501.92597
388.27926
-160.9355
-26.732726
262.34672
649.05594
252.52139
567.74153
423.42251
360.45259
163.80251
70.023842
588.95858
364.04293
456.12425
374.07836
-51.962354
-47.047128
-58.926244
593.43214
157.95003
514.18097
238.66252
159.9566
219.13738
189.28785
636.26936
485.09218
486.62152
314.05878
354.64712
235.7115
43.229471
710.58058
385.98856
581.18272
518.39215
525.35999
687.61346
734.98156
1021.0219
867.05292
1040.5938
648.83567
1019.497
1037.2766
794.62669
1143.1974
1173.8055
1014.6774
1108.6124
1607.0328
1962.7074
1618.3492
1881.1836
1675.5313
1701.513
1975.3117
2512.2923
2549.9281
2185.0639
2268.1316
2219.1489
2276.494
2416.0738
3170.4897
3748.7353
3450.5993
3727.9178
3438.7935
2727.9712
3659.5113
4468.0583
5580.2674
4344.6199
4426.2741
4071.6711
4896.6172
4809.5306
6343.1627
7331.029
5236.9906
5350.0089
5658.8981
5531.109
6352.0054
7626.7547
8403.9592
7447.227
7512.891
6792.0258
7064.478
8000.3344
9200.75
10843.893
8955.8526
8620.0361
8680.8442
8842.0528
9726.9661
11173.192
12849.567
10506.839
10600.157
10499.591
10474.475
11521.611
13289.608
15033.577
12661.503
12453.143
12406.76
12359.28
13696.813
15366.41
17542.199
14478.626
14351.408
14246.187
14364.611
15523.385
17520.803
19518.984
16372.43
16173.73
16267.887
16185.463
17588.143
19477.53
21917.804
18176.281
18028.623
18027.265
17865.127
19141.643
21407.413
23323.369
19483.598
19624.124
19533.558
19596.842
21238.938
23210.824
25613.007
21647.056
21099.888
21224.998
20705.262
22369.815
24099.85
26131.853
21012.603
21897.687
21249.866
21857.591
23110.372
25344.471
27634.36
23368.417
23503.125
23084.323
22878.271
24395.614
25822.567
27056.035
21501.076
22830.653
22032.273
22795.388
23908.059
25644.36
27072.198
22904.198
23199.096
22648.659
22643.32
23565.04
25024.929
25962.469
20780.232
21971.626
20950.036
21597.269
22472.094
23813.424
24214.932
20431.171
20965.625
20378.907
20865.551
21281.257
22056.852
21141.631
17404.9
18042.713
17398.245
17572.353
17816.306
18862.517
19632.769
16499.264
16878.341
16333.116
16728.12
17169.565
17438.706
12833.936
9997.8715
9991.19
9622.0048
9817.8875
9604.7919
9724.189
7798.6227
5247.9191
5679.556
5200.2567
5488.9262
5397.7627
6367.9416
30.94072
487.8819
365.16211
355.5586
293.42374
261.11518
32.581393
-907.11356
-956.27869
-927.12933
-993.455
-708.25975
-880.06641
-475.23914
-646.36559
-1244.9207
-1183.8669
-1300.4666
-1258.6045
-1333.2788
-691.26958
-972.68678
-804.81973
-341.84155
-168.95486
-115.7355
182.05378
-326.36988
-457.64607
-1033.8206
-972.40049
-1868.9931
-1402.8079
-2369.7402
-1098.1319
-697.33449
-1645.5349
-1302.5872
-1161.819
-1083.3754
-551.12101
-860.22727
-745.12898
-1280.5698
-353.39467
-1047.5209
-492.66061
-1433.0893
-888.85477
-576.39742
-1485.8578
-1519.6817
-1860.3855
-1933.4624
-1700.453
-1520.3539
-973.81266
-1623.8623
-791.99263
-1036.9059
-398.42203
-923.62556
-882.34894
-39.472384
-1326.406
-1207.2515
-1578.8192
-1664.0375
-1687.101
-1639.9108
-392.75436
-1684.7344
-1087.8707
-1380.6226
-1014.5308
-1307.0304
-1092.3055
442.74191
-1161.3725
-796.50475
-1040.5013
-894.46715
-979.4639
-957.17054
497.24297
-1195.8493
-1259.1336
-659.78096
-594.38434
-1000.6705
-344.89019
-254.24986
-38.147515
213.17172
-407.16372
88.737281
-162.6682
52.83571
344.50062
68.127373
403.33255
232.77165
-73.429957
32.006791
-0.54563038
656.88655
783.823
820.49216
634.40661
664.74442
425.13287
685.16026
1346.0038
1043.8981
1228.602
1204.895
764.13424
875.00424
918.05374
1609.64
1334.1125
1750.1461
1469.271
1410.8501
1426.9488
1516.5601
2294.4052
2029.5683
2199.4604
2049.3194
1840.2451
1757.6245
1923.146
2634.2603
2257.6988
2670.2105
2512.8751
2285.5015
2417.3763
2551.523
3470.5536
3096.8447
3419.0436
3132.8499
2993.3319
2848.3306
3048.5762
4134.9849
3312.6208
3794.9074
3767.4869
3264.2828
3441.9498
3671.811
5084.6553
4065.8832
4843.4338
4195.9398
4160.5452
4139.1713
4360.338
5833.4733
4652.0646
5284.1495
4937.4525
4979.4162
4562.0485
4625.941
7074.4388
5310.6381
6180.5218
5825.9119
5751.1233
5260.4187
5827.4356
8144.8276
5987.3483
7131.5837
6163.2156
6556.2395
6056.8094
5974.8736
9565.7453
6974.0279
7958.3192
7379.8456
7840.3093
6764.9612
7461.5085
10717.819
8060.4086
8688.728
8245.2238
8454.6532
7489.4116
8034.6186
12338.431
9237.8189
10052.002
8935.1229
9729.031
8511.1745
9098.2088
13802.876
10003.933
10606.445
10101.933
10669.953
9273.1121
10102.306
15164.923
11184.195
12035.122
11347.413
11770.773
10626.867
11153.251
16846.182
12443.961
13051.85
12149.905
12833.584
11521.24
12063.778
18097.503
13465.794
13959.432
13405.655
13962.048
12761.92
13076.602
19493.13
14545.261
15107.769
14397.738
14923.355
13708.523
13966.404
20338.083
15435.939
15951.464
15293.717
15893.403
14959.105
14666.503
21443.39
16503.307
16815.795
16040.623
16755.623
15526.932
15161.046
21482.875
16620.675
16937.441
16637.946
17260.711
16217
15537.625
21915.134
17362.581
17734.173
17065.532
17662.235
16590.597
15533.452
20802.217
17283.342
16897.832
17014.468
17341.966
16655.298
15243.355
20340.853
16564.779
16600.705
16545.627
16946.27
16297.25
14485.546
19072.377
16767.254
15894.908
16511.248
16189.878
15706.303
13372.953
17073.95
13849.886
13718.357
14136.185
14084.91
14239.697
12047.158
15030.77
13444.858
12923.257
13503.561
13069.467
12996.462
9746.2317
12265.371
10131.688
9638.5761
10208.489
9748.2464
10036.637
7925.4301
9175.2206
7564.8433
7296.7224
7956.9292
7243.2422
8267.6125
5007.9729
4735.7126
3340.6058
3380.415
3786.6551
3223.8539
3814.588
1413.0223
-3888.0025
-4976.5831
-4828.1268
-4647.109
-4671.9077
-4225.8352
-4570.4914
263.77862
399.78574
241.64229
332.65755
218.52707
266.31064
-10.044624
-409.28086
-101.48404
-16.648639
255.65874
214.79413
404.70013
519.70782
-417.76249
-1006.5437
-1249.1062
-1250.2588
-1209.1632
-1146.9876
-1013.8892
-557.42697
177.33008
574.03462
874.06025
835.84232
922.61379
409.84703
-731.33195
-1163.7657
-1627.689
-2180.2949
-2214.8427
-2257.3553
-1383.9698
-713.0089
-379.16681
-195.45284
629.21133
699.58781
679.07936
413.74088
-658.13297
-1113.7244
-1770.8617
-1537.7386
-1899.8574
-2134.0106
-1378.6643
-189.43688
-423.50086
-500.68197
49.671597
-295.12135
602.71525
198.67365
147.49621
-499.65489
-329.79912
-1197.3195
-143.83545
-1243.6318
-422.58552
200.76893
73.066186
-768.14571
27.88333
-453.15784
308.28886
587.80128
1095.0568
-383.37168
1184.6511
-59.335656
1025.853
586.55904
418.98181
1163.1705
1091.7172
784.4994
-140.70264
1070.3373
511.23223
1748.0748
2064.6788
345.8651
1081.6599
1175.478
2075.1057
1458.0834
1559.9776
2088.2889
1610.2345
-50.897781
810.34904
1348.9202
1354.0633
2102.6745
856.97847
1115.4356
2320.8952
1258.9119
2495.9448
1609.6457
2383.7695
1555.7366
1897.8398
2610.5313
2190.2389
2375.4141
2319.4963
2990.9647
2060.0431
1963.8733
3260.5393
2479.1723
3155.8937
2901.2022
3687.6398
2859.4676
3078.3553
3918.7139
3229.5802
3610.5283
3473.3928
4163.0118
3262.1702
3111.0859
4312.6246
3476.0143
4178.1811
4015.8788
4580.7476
4084.8219
3903.5264
4879.7273
4153.5153
4731.8532
4330.5722
5075.1659
4432.5977
3878.4725
5125.3999
4374.8068
4793.4891
4791.7869
5281.9403
4846.9789
4412.5559
5585.3999
4476.9198
5289.448
5105.3176
5500.5956
5026.28
4525.7104
5320.0468
4842.14
5309.9366
5208.3573
5252.4501
5650.3815
4635.2008
5456.7699
5040.6623
5161.518
5297.4763
5553.5468
5844.4808
4503.5392
5531.3092
4676.3191
4706.9792
5369.6791
4859.2227
6138.708
4658.9398
5197.2162
4779.6399
4899.7671
5239.1811
5110.9788
6085.4475
4283.117
4991.7583
4555.5425
4331.5438
5007.0546
4279.1437
6405.9042
3851.8818
4850.9477
4126.8935
4243.2609
4847.0339
4001.8471
6522.1981
3616.7403
4269.7679