/*--------------------------------*- C++ -*----------------------------------*\
  =========                 |
  \\      /  F ield         | OpenFOAM: The Open Source CFD Toolbox
   \\    /   O peration     | Website:  https://openfoam.org
    \\  /    A nd           | Version:  6
     \\/     M anipulation  |
\*---------------------------------------------------------------------------*/
FoamFile
{
    version     2.0;
    format      ascii;
    class       pointScalarField;
    location    "1.92";
    object      p;
}
// * * * * * * * * * * * * * * * * * * * * * * * * * * * * * * * * * * * * * //

dimensions      [1 -1 -2 0 0 0 0];

internalField   nonuniform List<scalar> 
3969
(
30937.713
-161700.22
6516.1225
2014.0131
185615.57
-82116.346
2673.2432
753.02718
30763.093
7936.8994
-15534.644
-39980.961
-62730.136
-86097.285
-96298.084
-15545.609
-6707.2779
-5711.1405
-267.85521
4680.255
9150.033
9226.3157
13570.99
17085.265
19093.014
22395.047
24504.949
26591.094
29127.607
31085.078
32812.634
35183.77
37137.391
39850.316
41138.166
43813.566
46456.145
48670.313
51835.532
54390.396
57219.937
59707.698
62359.264
64730.586
67089.143
69504.838
70961.867
72516.341
73360.383
74168.748
75003.818
74641.728
74354.278
73485.753
71999.117
70139.583
67826.187
65399.093
61483.361
58568.079
53235.649
50031.642
43459.759
38871.423
33906.736
26186.325
23208.364
16841.516
11493.584
-31063.511
-33901.885
-36452.645
-36326.855
-37907.396
-38364.577
-37455.164
-38184.098
-38019.217
-38423.556
-39196.626
-40334.749
-41654.824
-43317.645
-45073.588
-46767.125
-49030.898
-51213.894
-53504.266
-56048.954
-57930.376
-60743.064
-61938.265
-64540.971
-65781.866
-67118.737
-67416.257
-68077.541
-68375.788
-68242.552
-68281.601
-67279.397
-66338.24
-64529.104
-62711.175
-60123.377
-57553.932
-53501.745
-50512.017
-45493.7
-40976.061
-36052.929
-31118.123
-25030.009
-19451.748
-14629.73
-8372.1785
152554.47
133366.79
96412.833
60553
32977.216
-9810.0015
-23316.565
-15137.993
-21280.592
-16728.139
-26732.335
-24269.306
-29202.053
-29430.765
-33499.838
-33412.525
-38234.934
-39269.386
-42042.372
-45160.906
-47532.691
-50303.399
-53412.684
-55942.048
-59266.594
-61318.599
-64463.093
-66806.3
-69472.887
-71594.185
-73676.36
-75711.459
-77526.575
-78619.813
-78917.827
-79721.933
-79700.416
-78891.54
-77937.142
-76409.772
-74170.379
-71895.662
-69583.554
-63143.802
-61062.281
-56582.275
-51634.016
-45998.905
-40679.876
-33993.669
-27625.748
-21594.37
-15203.474
-9185.6685
14344.477
7727.7692
4746.4488
2901.6523
-7261.605
-6929.6003
-16094.773
23810.883
19494.98
21972.414
28216.648
34029.868
39247.297
44901.552
49509.188
54439.86
57928.898
60144.303
67316.979
67754.758
70206.77
72042.018
73670.92
74251.983
74921.549
74825.165
74388.877
73988.873
72546.402
71279.143
69358.464
67629.985
65300.538
63149.85
60207.847
58050.569
55216.444
52857.545
50052.181
47349.622
46661.315
45452.173
42595.013
41558.05
41240.546
39396.789
40311.865
39834.429
39323.943
39340.185
40014.911
37162.088
38595.04
40874.983
24209.841
41046.597
53210.618
62207.602
66303.172
84301.986
72776.984
-118571.8
-125374.29
-127106.09
-122695.77
-105141.98
-85964.282
-66132.929
3869.0502
4842.6584
5415.5206
6605.2112
5980.0142
4534.229
4330.8842
-2744.1247
-622.51782
-1480.0092
-2193.8338
-1295.1001
3355.1326
-1263.5537
10618.278
7980.4834
12184.544
15366.897
16944.608
20115.199
21527.572
23533.992
25681.179
27462.865
29491.385
31112.734
33807.421
36354.659
38317.589
40749.576
43005.119
44984.444
47181.932
49135.97
51276.442
52894.707
54763.678
56331.857
57986.206
58793.026
59705.608
60362.626
60430.981
60280.312
59829.05
58892.397
57666.13
56016.876
54139.539
51474.216
48390.58
45795.828
42026.535
38830.578
34130.19
31014.604
25078.4
21110.166
17458.842
9761.9008
4366.3317
1424.256
-1292.3294
3411.6776
5569.0169
8179.8802
10230.804
12719.112
14110.861
15959.758
17537.8
19157.841
20766.324
21821.536
23113.763
24570.181
25862.242
27234.047
28578.009
29936.119
31150.489
32191.912
33215.966
34202.919
35199.132
35733.276
36703.972
37357.097
37109.074
37768.137
37440.602
37292.739
36822.293
36022.419
35170.831
34033.864
32616.647
31297.378
29684.876
26944.474
25474.666
22165.854
20222.341
16383.819
14941.964
11111.01
6228.6404
567.66118
-7470.7919
-7930.5244
-3734.0372
-1700.2677
-498.56194
2511.2782
3797.7978
5357.8071
6374.4899
7813.1271
8690.7885
9818.2134
10395.006
11296.626
11863.595
12755.955
13738.905
14405.442
15320.345
15853.374
16814.202
17303.465
18007.054
18304.625
19039.016
19178.626
19396.552
19985.387
20004.631
19959.446
19903.688
19546.877
19134.153
18531.998
17970.181
16878.302
16160.431
14684.913
13818.786
12789.365
10894.151
10635.735
7975.4023
7497.1573
5113.4782
1911.0199
936.25917
-13356.773
-14354.451
-11120.967
-10310.29
-8669.7895
-7593.8569
-6237.7661
-5132.6233
-4157.9354
-3479.2564
-2657.3085
-2396.0016
-1864.7647
-1310.0451
-886.42319
-673.76846
-498.81565
-537.11106
-478.41759
-718.06923
-876.50122
-1411.113
-1879.3993
-1818.2846
-1767.7884
-2162.3632
-2037.2477
-2257.9353
-2340.824
-2306.9726
-2296.0903
-2234.1594
-2214.5715
-2093.2395
-2028.6517
-1592.612
-1785.2782
-1369.5753
-920.62064
-907.42291
-266.96699
75.016625
-559.47299
1202.1698
743.64917
1859.7036
2977.8594
-21792.949
-21480.192
-17935.349
-17507.436
-16924.783
-15715.263
-15240.347
-14671.389
-14380.921
-13895.551
-13598.444
-13713.991
-13290.638
-13710.714
-13827.293
-14275.65
-14673.519
-15331.62
-15786.443
-16660.878
-16460.984
-16709.128
-16782.04
-16180.825
-17088.329
-17975.587
-17756.904
-17839.465
-17737.656
-17784.838
-17390.598
-17397.023
-16700.391
-16651.013
-15584.603
-15239.756
-14612.078
-13271.321
-13776.48
-12488.486
-11362.214
-10363.818
-8344.1131
-6474.0993
-4936.9897
-2071.9489
1344.2231
-28094.908
-27948.449
-25220.271
-26385.669
-25416.817
-25123.694
-24665.103
-24262.747
-24014.637
-23924.601
-24241.363
-24680.148
-25464.612
-26498.395
-27243.953
-28495.54
-29626.764
-31094.451
-32290.325
-33913.446
-34405.406
-35629.181
-35208.436
-35808.262
-36001.021
-36812.66
-37380.709
-37685.202
-37857.508
-37741.012
-37676.852
-37068.942
-36446.436
-35369.18
-34343.586
-32796.238
-31154.16
-29532.606
-27327.677
-25720.107
-23368.28
-20654.951
-16929.832
-13998.739
-9625.68
-4680.1561
3015.5298
-36504.731
-29910.778
-31635.792
-33226.405
-32820.883
-33204.484
-33200.103
-33316.931
-33197.873
-33864.557
-34213.44
-35456.827
-36584.81
-37714.89
-39370.942
-40756.581
-42665.101
-44260.367
-46448.884
-48159.488
-50248.547
-51760.109
-53750.546
-55384.445
-56735.765
-58047.387
-59428.969
-59685.11
-59840.77
-59635.285
-59308.084
-58459.355
-57155.696
-55740.122
-53559.99
-51275.906
-48873.41
-45623.915
-42747.51
-38281.882
-34035.182
-29638.829
-24884.47
-20873.413
-15436.388
-10173.305
-1824.5221
34525.547
35390.04
42591.443
48017.03
52066.549
60888.687
56284.503
13583.341
19534.825
26357.539
32238.263
36846.631
46584.818
43510.856
-3757.5843
2789.2965
9340.2626
15821.454
20387.113
30614.194
26241.075
-17827.73
-17028.939
-7441.4804
-2566.5353
3935.2689
12012.736
14745.532
-37228.189
-28788.464
-21486.458
-14017.54
-9068.6042
391.05489
1245.5214
-52040.045
-51799.15
-40216.42
-37542.194
-31297.258
-25098.23
-21725.378
-68436.597
-56040.168
-48312.642
-45797.746
-37433.14
-32333.234
-23925.214
-43091.653
-38794.056
-40034.719
-38934.561
-36779.249
-31467.573
-23832.83
-44564.402
-47143.751
-44166.788
-41843.212
-43151.67
-36684.713
-32733.099
-30799.619
-28570.895
-29184.526
-27571.727
-25388.533
-21315.488
-23457.661
-38497.155
-39523.86
-36797.81
-36456.491
-34286.149
-31960.028
-27568.109
-37478.715
-34779.903
-33203.395
-32131.436
-30412.31
-27652.342
-26790
-37367.975
-35988.105
-34285.673
-33159.097
-31498.345
-29664.987
-28232.766
-37718.692
-36360.929
-34736.871
-33818.277
-31903.671
-31089.483
-29416.375
-37974.161
-36089.211
-34927.188
-34077.151
-33168.443
-32324.37
-31511.279
-38331.755
-37362.557
-36626.559
-35073.525
-34264.142
-33596.633
-33499.573
-39221.224
-37908.561
-37084.674
-36760.018
-35925.94
-36156.892
-35753.591
-40183.269
-39317.468
-38842.869
-38438.618
-37648.3
-37275.92
-38151.595
-41027.279
-41054.065
-40092.723
-40388.586
-39865.891
-39961.874
-40099.079
-42577.607
-42431.178
-42384.561
-42286.572
-42335.226
-42051.417
-42797.787
-44338.423
-44267.47
-44278.782
-44216.252
-44539.792
-44520.37
-45199.168
-46265.81
-46069.058
-46720.884
-46519.506
-47115.001
-46929.554
-47978.192
-48525.158
-48273.218
-49034.004
-48824.783
-49645.119
-49535.321
-50476.024
-50604.941
-50641.164
-51661.56
-51378.125
-52490.457
-52082.96
-53217.705
-53035.831
-53202.8
-54466.133
-54097.508
-55245.986
-54798.594
-56115.315
-55403.705
-55717.187
-57105.73
-56567.575
-57962.196
-57329.555
-58819.841
-57931.029
-58354.547
-59755.004
-59241.282
-60777.747
-60020.496
-61611.491
-60447.585
-60671.449
-62320.836
-61731.81
-63420.873
-62433.827
-64145.138
-62780.002
-63205.245
-64833.556
-64310.716
-66009.982
-64821.602
-66754.695
-65148.446
-65338.253
-67332.991
-66531.973
-68109.504
-66980.8
-68828.98
-67020.724
-67855.17
-69265.643
-68447.403
-70579.365
-69137.731
-71314.298
-68904.461
-69899.334
-70461.877
-70699.13
-71907.389
-70901.731
-72812.991
-69877.519
-71574.406
-71215.64
-73078.328
-73978.279
-73285.446
-74644.456
-72174.088
-72342.875
-73146.663
-73723.548
-74681.695
-74375.198
-75862.221
-73064.388
-73010.469
-73948.767
-74799.886
-75482.645
-75486.401
-76357.123
-73537.536
-73365.227
-74669.433
-74874.859
-75447.244
-75933.916
-76452.297
-73530.664
-73432.096
-74776.241
-74840.771
-75831.401
-76021.564
-76390.9
-73155.407
-73235.457
-74254.144
-74443.453
-75175.496
-75307.744
-75735.512
-72369.923
-72235.465
-73424.501
-73488.959
-74253.36
-74349.584
-74776.161
-71061.22
-71148.47
-72087.172
-72131.512
-72840.053
-72895.669
-73391.554
-69341.85
-69298.717
-70268.643
-70331.519
-70917.124
-70992.961
-71310.236
-66987.313
-67076.3
-67881.833
-67826.373
-68386.813
-68524.964
-68806.097
-64280.332
-64621.123
-65166.121
-65437.326
-65710.049
-65584.096
-65831.025
-61064.675
-61017.211
-61854.103
-61412.62
-62218.427
-62540.168
-62453.51
-57885.479
-58017.014
-58153.736
-58476.426
-58417.173
-58338.872
-58691.155
-53395.769
-53561.715
-53722.637
-53921.123
-53980.778
-54050.227
-54057.569
-49248.698
-48885.11
-49725.848
-49288.175
-49476.421
-49504.136
-49626.265
-43809.025
-44137.272
-44286.13
-44096.461
-44252.294
-44244.678
-44083.508
-38773.082
-38931.689
-38930.024
-39082.164
-38876.854
-38855.996
-38691.723
-32813.108
-33452.258
-33267.759
-33651.341
-32944.128
-33098.509
-32740.332
-27002.354
-27012.928
-27127.522
-27074.256
-26548.052
-26819.283
-26118.45
-21833.19
-22844.893
-22586.809
-22806.308
-22218.494
-21756.421
-20781.565
-17460.792
-17414.709
-17611.395
-17493.998
-16765.816
-17053.288
-15963.96
-12995.666
-13589.529
-13467.615
-12610.992
-13564.406
-12916.509
-11353.872
-23879.181
-26692.8
-29803.54
-29869.029
-28508.136
-27057.789
-24225.508
-13370.242
-14543.761
-15387.206
-15941.539
-15214.301
-13243.838
-11382.929
-9650.6681
-11204.256
-12180.755
-11883.182
-11464.653
-9303.8843
-8250.8553
725.99093
1327.326
1175.1133
1259.9211
2093.1304
1553.0066
2687.0751
7391.7537
7752.3838
7630.0639
8926.6912
7941.169
7732.0355
7202.4985
12775.106
15889.934
16737.973
16950.869
18190.818
15062.826
14191.715
16770.386
17445.593
19435.589
19398.292
18694.374
17406.542
15356.673
21308.556
25175.95
30598.451
33526.54
37608.701
39054.552
38366.222
22535.401
25477.482
30206.254
32070.458
35784.839
35571.591
39369.742
24584.607
27424.559
30892.316
32768.239
36053.058
34756.162
39199.871
26122.545
28104.477
32012.93
33789.11
35900.765
37189.91
39467.781
26494.785
28412.932
30553.367
32106.363
34569.913
34861.494
37919.218
28732.834
29504.751
32658.527
33635.466
35703.606
36716.072
39135.193
29838.55
30701.484
32384.334
32822.751
35445.291
36079.493
37641.843
31639.366
32310.497
34218.618
34544.692
36428.163
37224.473
38891.704
33473.333
33352.525
34796.288
35074.194
36704.851
36783.435
39080.056
35779.764
35545.208
37055.098
36305.978
38041.293
38284.434
39797.892
37899.101
36915.822
38257.378
37550.337
39364.275
39273.578
40517.921
39256.883
39272.704
40227.701
39738.258
40809.633
40863.369
41855.776
42598.032
41464.763
42014.224
41632.075
42648.347
42523.172
42656.405
45021.257
43882.028
44534.787
43735.199
44428.258
44249.983
44663.933
47397.088
46571.662
46268.662
46365.992
46738.977
46495.602
46935.552
50786.436
48990.437
49156.976
48468.773
49197.99
48713.082
48965.202
53486.312
51700.05
51774.674
51310.536
51571.994
51071.69
51067.685
56289.12
54197.309
54667.122
53742.6
54074.296
53473.513
53538.172
58957.898
57112.45
57437.308
56500.02
56807.148
56177.656
56136.249
61917.791
59675.67
60165.975
59099.233
59361.571
58555.263
58541.426
64619.062
62222.893
62944.91
61770.466
62065.303
61226.159
61109.664
67139.94
64710.034
65532.274
64248.478
64528.435
63432.118
63442.515
69601.36
67080.91
68015.631
66638.395
66936.012
65836.999
65881.71
71722.99
69210.919
70242.961
68647.358
68929.219
67650.028
67781.166
73792.187
70773.365
72378.168
70271.029
70937.124
69422.647
69770.206
75504.728
72076.937
74091.498
71638.577
72406.346
70912.353
71026.72
76580.217
73461.956
75135.412
73150.071
73492.954
72042.241
72425.646
77697.759
74372.758
75962.45
73975.164
74311.449
72791.456
73200.426
77805.902
74567.376
76709.603
74273.772
74706.228
73091.535
73601.654
77771.044
74901.302
76507.412
74315.865
74756.718
73160.682
73606.423
77381.997
74322.659
76186.552
73912.554
74351.607
72544.85
73222.092
76197.944
73526.802
75155.639
73030.479
73264.005
71676.936
72187.276
74823.422
72193.54
73845.26
71620.736
71940.267
70295.036
71145.97
72826.894
70467.323
71842.408
69981.253
70066.586
68736.168
69035.377
70361.633
68031.803
69535.897
67645.439
67553.735
66345.258
66569.31
67117.313
65658.325
66614.296
64829.661
64797.023
63716.676
63848.237
63475.212
62405.397
62575.169
62000.992
61262.313
60527.784
60892.346
60004.671
59494.914
59152.905
58411.076
58005.42
56416.686
57366.477
55224.301
54256.809
54587.486
53762.049
53714.017
52312.804
53183.123
51053.801
50713.654
50765.16
49959.001
49411.334
47841.994
48867.776
44995.349
44407.646
44472.96
43914.209
43600.792
43112.604
43656.977
40367.439
40117.775
40177.188
39607.691
39368.069
37982.971
38565.487
34517.42
34686.782
34420.193
34385.193
33355.682
32489.594
32490.582
27365.738
27406.353
27479.04
27277.245
26887.201
25962.87
27044.254
24296.757
26301.392
26609.225
26885.747
25836.777
24365.515
23046.092
19284.703
19683.14
19397.794
19133.715
19387.514
19465.348
17787.19
23109.803
26143.19
27133.008
27939.818
27896.961
27798.407
25747.74
47134.363
33063.016
31440.848
31272.531
32019.937
32596.967
32583.244
32616.084
32946.495
33299.05
33934.865
35075.817
35844.441
37174.921
38724.102
40428.648
42079.884
44029.36
45917.501
47993.415
49926.766
51783.685
53600.341
55365.242
56844.245
58034.011
58832.739
59745.078
60123.257
60172.652
59773.599
59113.641
57889.229
56458.472
55066.185
51937.075
49591.271
47410.783
43643.174
40003.134
36327.738
31910.806
27918.9
22776.176
18012.195
11866.162
2853.6813
36625.806
32826.367
20777.361
25953.887
25058.161
25069.438
24580.397
24882.108
23613.67
24723.234
24344.645
24757.189
25044.48
25864.83
26670.029
28041.554
29206
30352.77
32027.903
33168.291
34729.343
35901.846
37371.128
38153.827
39390.973
39748.037
41008.131
41041.679
41359.516
41467.994
41243.22
40943.691
40172.224
39617.078
37916.706
36995.179
35133.173
33355.205
31230.986
28824.847
26320.986
23220.885
20248.576
16435.407
13130.876
8163.3939
2014.1916
30940.922
24942.65
13861.521
18769.481
15024.896
14194.417
12862.175
12360.218
11441.269
11760.593
10873.457
11606.576
11805.335
12097.611
13120.117
13636.521
14169.669
14777.846
15445.125
15959.648
16580.39
17228.959
17737.55
18301.726
18769.983
19264.948
19677.465
19680.885
19918.333
19884.979
19774.764
19632.493
19296.751
18836.017
18079.101
17676.352
16589.133
15825.325
14579.578
13745.979
12546.508
11041.008
9581.993
7935.7999
6109.1436
4364.48
-1946.5693
22715.144
17575.556
8710.7838
11623.234
6797.911
7939.3019
4491.8273
3722.3976
2602.7072
1437.7533
1273.5333
288.84047
-276.63006
382.88065
634.7652
379.47885
417.03479
153.54271
356.08922
206.97778
453.55703
455.30689
716.69985
698.38828
854.13789
785.24917
783.86796
939.79486
934.83944
1108.5432
1122.8225
1448.7006
1403.9685
1629.2468
1652.819
1951.2377
1800.0325
1983.4901
1917.5394
2138.3828
2029.0552
2060.9082
2127.6866
1693.8767
2272.4065
929.74315
-793.29884
11932.199
8294.743
2507.2578
3594.3484
-1222.7016
-944.5899
-3445.1288
-4332.6514
-6126.1758
-6798.386
-8049.974
-9102.3239
-10111.595
-11159.652
-12116.283
-12928.965
-13882.107
-14617.611
-15262.638
-15949.141
-16638.55
-17182.077
-17756.586
-18503.517
-19045.538
-19807.409
-19624.007
-19735.444
-19802.609
-19826.4
-19682.729
-19356.763
-19009.391
-18334.115
-17742.445
-16858.76
-16095.437
-14731.307
-13860.881
-12323.328
-11174.778
-9294.0386
-8128.2073
-6079.8509
-4330.9165
-1961.7918
65.538374
3108.8466
-1411.4288
-3053.0884
-6378.3858
-8346.6911
-10436.334
-12458.945
-14286.962
-16133.866
-18358.349
-20705.682
-22214.023
-24354.01
-25826.855
-27385.425
-29241.13
-30583.533
-32175.692
-33389.379
-35059.296
-36284.417
-37519.277
-38499.233
-39059.279
-38794.294
-38369.829
-38614.128
-38850.529
-38928.33
-38777.274
-38536.571
-37868.068
-37093.208
-35980.21
-34603.116
-33154.617
-31069.235
-29258.74
-26933.722
-24334.503
-21803.739
-18708.763
-15728.319
-12277.776
-8733.8668
-3805.357
776.16211
-5373.0306
-6186.5683
-11606.167
-11961.259
-17870.704
-18970.721
-22131.189
-23999.196
-26421.466
-29162.846
-30920.417
-34363.255
-36157.56
-38652.647
-40857.095
-43232.263
-45574.045
-47898.544
-50406.274
-52415.431
-54561.895
-56541.4
-58207.033
-59601.042
-60946.75
-60913.665
-61790.574
-62180.801
-62474.583
-62540.367
-62241.468
-61302.627
-60275.154
-58704.773
-56501.993
-54336.817
-52043.38
-48386.875
-45133.41
-41146.528
-37316.593
-32359.667
-28290.545
-23013.08
-17049.721
-11781.332
-4445.1203
16101.587
22768.512
27914.305
32762.108
39271.858
43303.337
43400.062
14287.829
22489.489
24200.502
28837.391
31096.091
31776.011
36197.729
16465.153
20567.633
24268.63
28293.475
28945.563
33546.224
34667.247
16445.723
21129.513
22788.525
25277.491
26598.846
29263.572
29705.137
18722.295
22223.951
24109.788
26768.897
28689.053
29739.032
32130.874
20254.442
24085.043
24387.793
27012.305
27190.575
30138.609
30193.409
21656.847
25327.068
25173.859
27361.352
28779.081
29293.432
30564.353
24092.964
26367.71
25957.303
28829.069
28650.766
29760.391
31059.517
25718.196
28528.475
27972.379
29499.733
29402.971
30959.004
31398.679
27832.219
29762.387
28450.722
30671.31
30520.489
31468.356
31424.168
29882.678
31647.917
30716.474
32480.253
31847.318
32344.682
32530.739
32490.07
33508.077
32558.038
33442.184
33067.907
33097.512
32975.605
34635.861
35346.941
34381.865
35377.748
34380.883
34581.935
34608.315
36729.009
36823.094
36406.297
37175.358
36069.06
36161.029
35560.674
39279.505
39096.91
38752.839
38667.936
37700.738
37768.22
37487.517
41060.448
41230.176
40683.723
41148.785
39482.997
39630.746
38738.93
43251.034
43622.342
42768.115
43086.231
41506.038
41434.904
40747.753
45431.996
45860.941
45044.113
45199.613
43533.203
43648.162
42631.431
47661.666
48239.432
47032.531
47224.001
45620.124
45469.981
44348.377
49773.187
50290.934
49185.782
49414.091
47695.846
47617.175
46455.78
51491.116
52627.408
51165.225
51344.276
49595.435
49464.11
48192.807
53402.77
54703.572
53077.972
53285.892
51541.571
51414.916
50208.818
55007.687
56712.257
54676.15
54984.838
53137.193
53143.147
51635.324
56291.89
58250.627
56134.98
56688.579
54945.573
54814.011
53279.219
57027.181
60232.378
57363.01
58249.465
56189.417
56393.277
54541.09
58607.058
61464.167
58673.55
59250.603
57991.493
57158.882
56027.027
59605.91
62207.989
59616.289
60158.182
58815.683
58223.898
56724.226
59983.603
62278.103
60941.216
60484.015
59406.452
59087.986
57250.584
60091.746
63532.729
60243.957
61015.506
59846.643
59439.99
57600.358
60368.913
62796.494
60677.702
61121.01
59793.564
59433.695
57545.501
59708.14
62563.814
60074.986
60564.44
59341.572
59027.795
57260.19
59038.953
61614.841
59467.975
59874.472
58719.085
58486.001
56616.933
57899.288
60376.3
58300.651
58596.184
57710.189
57347.604
55568.869
56390.386
58641.321
56784.416
57085.262
56215.875
55801.85
53961.035
54502.693
56442.738
55021.083
54987.362
54453.507
53915.025
52500.274
52278.411
54113.478
52791.701
52745.237
52440.631
52047.371
50200.312
50503.077
50862.557
50368.66
49629.6
50068.868
48734.155
48191.836
47002.322
47559.917
47604.905
46911.834
46415.103
46575.981
44959.185
43822.966
44029.496
43664.263
43805.884
43278.333
43421.412
41892.547
39738.638
40679.434
40279.822
40253.519
39540.475
39768.456
38493.614
36346.534
36055.604
36231.251
35645.025
35664.788
35724.464
34530.805
31909.025
32567.074
32850.435
32505.797
32535.892
31809.148
30820.498
26896.607
26325.352
26755.305
26160.872
26160.884
26372.733
26201.803
23563.086
23500.513
24788.382
23817.567
24579.995
24121.799
22764.021
17260.803
17251.123
17418.747
16999.621
17302.115
17221.956
16763.938
11320.54
10749.896
12289.081
10968.843
11903.695
11695.991
10410.079
3871.4544
1363.8704
1491.9462
1508.7407
1972.7376
1196.0332
3763.8465
3609.3487
9603.5468
16273.84
20843.093
27959.442
32620.445
35329.953
6492.9813
15375.756
18951.499
24454.204
28531.574
30713.849
31913.461
8175.3056
9875.4333
13704.739
16094.678
20682.778
21039.674
26916.724
9104.1513
12261.839
15841.723
18462.2
21147.767
23606.039
22231.379
10728.071
12844.024
15486.472
17111.543
20219.659
20576.184
23737.746
12320.15
13993.546
16298.945
18022.175
19256.588
21503.865
22711.36
13706.984
14289.577
16842.604
17502.86
19534.424
20400.722
22156.533
15125.75
16451.938
18155.454
18943.524
19782.327
21385.913
22555.039
16787.916
16847.539
18379.421
18339.33
19821.845
20632.722
21677.337
18005.134
18312.4
19645.086
19839.464
20626.619
21406.875
21871.593
19595.808
19535.579
20564.813
20106.988
20807.171
21198.343
22104.841
21128.293
20635.244
21728.208
20954.446
21747.57
21944.42
22991.382
22628.784
21881.521
22905.444
21723.577
22873.958
22452.33
23329.507
23869.405
23665.398
24211.763
23041.917
23528.614
23440.642
23615.407
25322.692
25103.214
25408.53
23861.283
24744.64
24583.829
24164.57
27033.757
26565.153
26634.372
25375.755
25910.618
25560.562
25098.504
28689.491
28033.49
28219.011
26670.447
27112.971
26983.112
26410.547
30226.243
29480.038
29470.105
27977.033
28405.296
28095.065
27277.024
31876.771
30917.351
31009.137
29550.651
29895.434
29549.222
28689.425
33372.026
32203.34
32442.727
30861.131
31182.823
30622.601
29911.179
35034.797
33653.36
33947.936
32410.679
32622.27
32205.714
31355.713
36701.51
34856.747
35230.351
33617.35
33919.37
33326.907
32427.819
38160.11
35968.603
36568.495
35074.758
35394.013
34608.741
33850.201
39541.615
37044.416
37829.986
36267.126
36472.54
35543.41
35129.185
40713.718
38224.786
39032.16
37438.76
37513.02
36685.442
36055.327
41730.514
39221.972
39075.163
38784.069
38075.317
37220.424
37156.897
41677.242
39616.064
40590.765
38860.513
39143.81
37601.065
37813.249
43195.526
40359.109
40578.83
39679.289
39604.872
38193.216
38410.591
42944.067
40353.006
41440.241
39709.773
40225.76
38178.153
38744.931
43103.435
40501.6
41254.309
39918.496
39972.94
38314.106
38713.404
42795.204
40362.47
41277.035
39719.553
39996.039
38209.465
38644.18
42209.239
40063.629
40686.901
39426.499
39513.291
37908.548
38075.852
41445.477
39419.175
40029.526
38775.773
38979.1
37112.672
37375.414
40296.059
38556.496
38996.362
38043.261
37880.553
36284.436
36538.714
38821.513
37586.483
37888.647
36862.677
36969.195
35321.168
35762.361
37223.298
36244.183
36192.586
35661.192
35404.916
33888.223
33676.648
34993.282
34679.337
34546.123
33889.359
33830.018
32103.462
32517.079
32736.535
33090.7
32474.189
32263.382
31832.266
30612.9
30537.739
30549.126
30342.122
30566.712
29749.703
29898.053
28776.757
28412.947
27936.923
28703.981
28108.285
27726.058
27420.686
26387.317
25823.857
25472.723
25431.984
25415.892
24994.892
25059.141
24046.943
23414.903
22020.94
23095.797
22350.572
22351.827
21943.244
21038.105
20881.774
19487.195
19664.71
19406.983
19275.543
18925.42
18486.137
17949.539
16166.038
16974.524
16404.694
16357.866
16280.44
15499.657
15042.2
11278.238
12516.113
11743.357
12015.928
11579.237
10999.952
10453.159
6898.0699
7166.9672
6153.7564
6442.6189
6455.3221
6384.0496
5928.8564
1399.678
-820.92725
-2092.2348
-1866.5512
-1540.3436
-1362.384
-116.12639
-5208.0508
522.98636
7365.1172
11658.625
18826.86
23756.78
25794.393
-2830.1156
5364.2813
7782.7676
13278.271
16918.229
19436.277
22470.791
-348.74148
1339.4118
4193.6492
8415.8335
10695.544
13262.753
18791.62
-1158.9432
3565.6975
6420.1238
10359.777
11693.045
15139.624
14129.958
1527.7923
4362.7044
5892.1307
8021.4369
10631.51
10356.613
15544.683
2878.142
5877.8978
6284.4301
9217.7781
9230.4474
12501.755
12842.632
3095.5231
6956.6927
6944.2994
8238.4872
10248.379
10967.475
12941.72
4991.3963
8539.1259
6683.009
9709.8999
9891.5716
11132.738
12049.35
6463.9408
8745.7814
7816.0415
9353.8454
9904.1628
10688.566
11828.558
7354.5769
10462.438
8336.6531
10335.314
10359.24
11139.72
11512.975
8915.8388
10982.06
9087.921
10468.548
10489.175
10932.42
11624.775
9421.1198
12024.782
9370.3933
11213.918
10928.556
11580.321
11178.927
10701.012
12919.499
10546.451
11794.798
11622.306
11224.266
11351.748
11793.419
13532.004
11481.614
12519.428
12047.84
11561.884
11373.844
13294.413
14202.419
12061.165
12947.03
12743.467
11753.529
11724.562
14059.848
14946.259
12942.008
13692.604
13275.792
12279.626
12224.203
14745.692
15772.601
13605.443
14384.28
13716.031
12736.08
12489.55
15591.293
16434.123
14378.097
15154.527
14476.02
13430.304
13154.612
16205.953
17362.406
15065.273
15910.135
14932.808
13903.063
13583.33
16999.335
17985.743
15849.641
16536.144
15595.196
14579.259
14380.248
17481.826
18810.236
16456.594
17159.872
16049.662
15195.388
14741.96
18072.759
19146.691
17222.983
17657.432
16797.734
15652.589
15433.039
18507.8
19844.337
17763.837
18355.269
17007.393
16166.117
15880.395
18938.761
20143.782
18509.979
18621.764
17442.381
16767.528
16155.481
19286.493
20528.947
18805.465
18887.474
17827.375
17117.285
16451.423
19648.161
20452.588
19594.759
18989.674
18152.507
17532.811
16817.912
20155.589
21015.35
19400.663
19802.151
17950.4
18320.45
16768.908
20001.687
21518.04
19608.699
19749.508
18374.06
18225.921
17282.46
19967.391
21396.083
19545.485
19932.204
18234.014
18342.519
17287.967
20149.24
21371.591
19706.134
19877.67
18309.768
18417.963
17413.966
19963.728
21189.084
19423.627
19712.992
18084.059
18381.187
17276.42
19758.519
20851.628
19152.403
19451.392
17914.832
18092.65
16963.895
19482.208
20356.728
18786.37
19075.772
17473.698
17662.89
16923.759
19044.14
19796.381
18331.059
18565.706
17054.619
17488.847
16530.774
18553.902
19013.254
17698.475
17838.777
16518.377
16624.12
15983.295
17790.083
18119.439
16881.288
17141.985
15749.465
16174.591
15412.047
17350.379
17189.368
16257.071
16181.264
15231.114
15012.682
15111.297
16085.536
16060.86
14942.928
15375.16
14025.601
14477.233
14235.617
15361.798
15015.328
14112.011
13968.426
13365.517
13198.994
13342.55
14018.951
14234.63
12685.051
13594.715
12252.565
12409.829
12185.21
12768.807
11625.22
11252.256
11106.412
10597.223
10693.183
11229.129
11488.414
11825.415
10886.533
11306.527
10458.573
10314.862
10123.675
10099.036
8313.0011
8199.4725
7894.7245
7727.4294
7694.5323
8683.3185
8388.1822
8085.3741
8211.7954
8228.5405
7922.1268
7852.7816
7646.447
5678.6323
4063.9373
4237.0582
3369.5356
3706.8932
3545.5997
4249.3404
3950.6341
3159.9065
2682.6475
2551.3374
3057.197
2872.6693
3984.8688
630.90148
-3094.6801
-2873.4151
-3335.4071
-3466.9503
-3409.9098
-2002.9523
-19245.917
-11848.8
-6546.6047
-2201.4249
5055.2289
9623.7952
15777.703
-11861.829
-8291.4616
-4846.2698
-83.069034
4715.9207
8285.6618
12493.639
-10514.59
-8726.7039
-5631.8497
-2660.3131
1394.5151
4282.1463
9803.9183
-8872.0078
-5880.9373
-2045.0746
286.99663
3455.9401
6000.5584
7030.522
-6433.1823
-4205.4439
-2525.6964
-1094.5691
1688.9231
2584.0873
7344.461
-5755.6377
-3796.9092
-2215.276
-292.03839
2476.4103
3069.6176
4500.2341
-4423.1839
-2916.6655
-1501.8167
484.04721
1594.1546
1573.852
5296.7037
-3691.1912
-2583.7555
-915.65407
-573.0492
1008.9261
1399.8253
3031.8425
-2738.3845
-1695.6521
-1069.4867
-783.11171
920.76608
718.24732
2828.7662
-1903.9706
-1660.5013
-651.73442
-608.25748
616.38098
365.31205
1645.771
-1681.4662
-1397.2485
-816.37478
-1067.8017
-121.78749
-451.30235
747.26167
-757.81399
-1069.1033
-500.63641
-738.11787
-155.71662
-540.05148
622.13984
-197.04217
-1126.6896
-542.85905
-1097.6101
-795.94186
-951.85872
-473.01644
209.00171
-1308.9117
586.41302
-956.05881
-1070.9327
-974.79535
-1171.7459
257.29548
-105.11611
-1313.5577
-933.91582
-1533.1598
-1265.3164
-1575.4612
455.10213
-395.4253
-883.97234
-746.90618
-1740.9937
-1560.8766
-1741.3692
488.36443
-321.24588
-764.83448
-507.44333
-1958.9154
-1539.5702
-1803.1796
623.24073
-318.39012
-527.50835
-743.11589
-2098.4225
-1736.5129
-2044.417
698.20273
-54.744814
-584.37662
-614.99338
-2188.3303
-1608.6369
-2212.565
898.38673
-218.87693
-558.00123
-873.30549
-2262.8447
-1784.9177
-2454.3664
922.6991
28.34101
-613.64578
-665.58171
-2176.1046
-1650.5711
-2444.551
1316.6343
68.079736
-577.93876
-787.15401
-2309.2105
-1736.716
-2624.7386
1188.5831
342.17225
-428.86596
-852.04975
-2095.0111
-1581.3913
-2589.741
1763.1517
130.5855
-356.18703
-1086.0984
-1893.9178
-1748.0049
-2500.0327
1514.7325
539.2703
-162.93546
-996.49556
-1580.4086
-1736.3897
-2444.3921
1905.7308
1107.8607
-315.08249
-817.69083
-1361.5673
-1982.0499
-2331.1483
2231.6089
743.996
56.228482
-943.44405
-1274.5013
-1930.6743
-2392.6134
2190.6216
776.86664
160.07508
-1142.7117
-1126.5541
-1964.9737
-2358.7073
2375.3451
864.78082
225.09293
-828.29853
-883.05025
-1830.756
-2172.1241
2318.5143
953.60185
463.07983
-919.94061
-872.86876
-1740.3611
-2143.016
2238.0565
1007.1412
363.01487
-790.17763