/*--------------------------------*- C++ -*----------------------------------*\
  =========                 |
  \\      /  F ield         | OpenFOAM: The Open Source CFD Toolbox
   \\    /   O peration     | Website:  https://openfoam.org
    \\  /    A nd           | Version:  6
     \\/     M anipulation  |
\*---------------------------------------------------------------------------*/
FoamFile
{
    version     2.0;
    format      ascii;
    class       pointVectorField;
    location    "1.25";
    object      u;
}
// * * * * * * * * * * * * * * * * * * * * * * * * * * * * * * * * * * * * * //

dimensions      [0 1 0 0 0 0 0];

internalField   nonuniform List<vector> 
625
(
(0 0 0)
(0 0 0)
(2.029876 -0.13733517 0.15165994)
(1.9067909 -0.61745925 0.13051449)
(0 0 0)
(0 0 0)
(1.9084621 -0.65887594 0.12847201)
(2.0313777 -0.17928881 0.15053696)
(0 0 0)
(0 0 0)
(0 0 0)
(1.9984088 -0.25792561 0.14554154)
(1.9675078 -0.37674785 0.14098772)
(1.9376644 -0.49629377 0.13568622)
(0.0048252527 0.018950511 0.018377419)
(0.018061251 0.038619909 0.01862329)
(0.042387293 0.057620565 0.021575274)
(0.077859135 0.075703529 0.022823424)
(0.12078509 0.090788143 0.025437373)
(0.17480677 0.10411972 0.028186348)
(0.23564755 0.11464468 0.031795931)
(0.30487525 0.1219106 0.035791369)
(0.38136995 0.12693898 0.040732537)
(0.46430939 0.12829912 0.04563935)
(0.55360792 0.12701338 0.051586288)
(0.64848874 0.1223214 0.05776558)
(0.74839164 0.11460547 0.064442074)
(0.85288085 0.10374925 0.071479672)
(0.96130243 0.08992967 0.078832782)
(1.0731394 0.073124245 0.086486828)
(1.1879002 0.05381321 0.09422097)
(1.304864 0.031706295 0.10235395)
(1.4239083 0.007612093 0.11025227)
(1.5438951 -0.018490861 0.1185366)
(1.6651263 -0.046420031 0.12686463)
(1.7866664 -0.075392407 0.1350622)
(1.9079418 -0.10584822 0.14379568)
(-0.0039631471 -0.013740716 -0.021474449)
(0.010509472 -0.029889472 -0.016597876)
(0.032191794 -0.048939681 -0.018831451)
(0.062580557 -0.067288464 -0.015494996)
(0.10030348 -0.083698321 -0.013592362)
(0.14839787 -0.10544082 -0.0098051358)
(0.20175028 -0.12357201 -0.0067153547)
(0.26397663 -0.14529768 -0.0018214697)
(0.33240899 -0.16758341 0.0027999717)
(0.4076849 -0.19065756 0.0086099592)
(0.48903138 -0.21584835 0.014768614)
(0.57607315 -0.24177722 0.021658315)
(0.66854063 -0.26936637 0.029054925)
(0.76575152 -0.29806637 0.036975748)
(0.8674985 -0.32789896 0.04540331)
(0.97313348 -0.35874688 0.054157032)
(1.0823233 -0.39039388 0.063335131)
(1.1945203 -0.42259209 0.072637148)
(1.3093064 -0.45530635 0.082279547)
(1.4261916 -0.48803185 0.09181775)
(1.5448229 -0.5209454 0.10160323)
(1.6645688 -0.55348458 0.11117074)
(1.7852644 -0.58565694 0.12078057)
(0 0 0)
(0 0 0)
(0 0 0)
(0.0033175031 -0.009790268 0.014309466)
(0.015374923 -0.042502176 0.017908787)
(0.040043128 -0.053855251 0.015324671)
(0.068678489 -0.075891793 0.015351038)
(0.11021633 -0.10087447 0.017964661)
(0.15687235 -0.11881988 0.01756289)
(0.21092608 -0.14364443 0.021320875)
(0.273239 -0.16690059 0.023228406)
(0.34152702 -0.19214809 0.02701763)
(0.4164118 -0.21835749 0.031167403)
(0.49700203 -0.24506603 0.0355448)
(0.58343447 -0.27405479 0.0409132)
(0.67488113 -0.30300292 0.046424552)
(0.77131031 -0.33374093 0.052523363)
(0.87211042 -0.36499516 0.059019087)
(0.97695507 -0.39704151 0.065816492)
(1.0854057 -0.42974682 0.072984791)
(1.1970018 -0.46274808 0.08042491)
(1.3112968 -0.4959738 0.088083714)
(1.4279112 -0.52923457 0.095983221)
(1.5462059 -0.56222331 0.10404512)
(1.6660697 -0.59502043 0.11223837)
(1.7866143 -0.62707525 0.1206053)
(1.9395155 -0.53744773 0.13402532)
(1.9686257 -0.41844071 0.13968337)
(1.9998477 -0.30017929 0.14561955)
(1.9096819 -0.14777287 0.14062395)
(1.7877965 -0.117246 0.13086283)
(1.6662425 -0.087790817 0.12100887)
(1.5451659 -0.059428709 0.11100205)
(1.4250043 -0.032601224 0.10105927)
(1.306296 -0.0075934169 0.091170311)
(1.1894685 0.015504392 0.081457145)
(1.0750479 0.036202907 0.071959392)
(0.96356984 0.054546804 0.062752161)
(0.85552149 0.070162071 0.053898027)
(0.75144612 0.082981337 0.045437254)
(0.65195917 0.09293442 0.037432113)
(0.55733664 0.099784058 0.029865465)
(0.46846865 0.10396263 0.022727908)
(0.38543949 0.10460167 0.016582639)
(0.309298 0.10223492 0.010182077)
(0.23992852 0.098005223 0.0045761638)
(0.17831859 0.089564911 0.00021093145)
(0.12501962 0.079360203 -0.0048906119)
(0.079860422 0.065521015 -0.0078443886)
(0.044669891 0.052453331 -0.012598878)
(0.018140859 0.033275708 -0.013105424)
(0.0087234431 0.016010108 -0.011919876)
(0 0 0)
(0 0 0)
(0 0 0)
(0 0 0)
(0 0 0)
(0 0 0)
(1.9068949 -0.62820666 0.12976141)
(1.9075086 -0.63864927 0.12962392)
(1.9076287 -0.64905883 0.12901078)
(2.0307581 -0.14736698 0.15147516)
(2.0311677 -0.15802734 0.15100296)
(2.0315326 -0.16829864 0.15078583)
(-0.0077744292 -0.0027856757 0.011612963)
(0.00031624087 -0.0037824942 0.0094921403)
(0.018592045 -0.0034407002 0.0123909)
(0.046941069 -0.0019925982 0.013577715)
(0.085372508 0.0015650543 0.016405489)
(0.13541273 0.0060065739 0.019484393)
(0.19395432 0.011434461 0.023061864)
(0.26368651 0.01766253 0.027363568)
(0.34191574 0.023646808 0.0321342)
(0.42941311 0.028510726 0.037449491)
(0.52460138 0.032070558 0.04339786)
(0.62651339 0.032812209 0.04975978)
(0.73413635 0.030544779 0.056615301)
(0.84613226 0.024385546 0.063872353)
(0.96122498 0.013945097 0.071483498)
(1.078284 -0.00092757103 0.079327096)
(1.1961682 -0.02053296 0.087454452)
(1.313989 -0.044523701 0.09571514)
(1.4312023 -0.072684898 0.10401882)
(1.5470604 -0.10475636 0.11260017)
(1.6617862 -0.13998435 0.1208352)
(1.7749773 -0.1775851 0.12944272)
(1.8870771 -0.21756998 0.13775574)
(-0.0084346472 0.003314362 0.0017028444)
(0.0067483972 0.0051522037 0.00058104231)
(0.028341922 0.0073002955 0.0027073086)
(0.061232952 0.0082637591 0.004434672)
(0.10341951 0.0065357111 0.0070376208)
(0.15342159 0.0037103517 0.010010618)
(0.21195187 -0.00084668609 0.013411417)
(0.27809518 -0.0083038318 0.017870117)
(0.35092457 -0.017165284 0.022315486)
(0.43083989 -0.028764459 0.027784847)
(0.51644356 -0.042272678 0.033570271)
(0.60797766 -0.058209723 0.039996126)
(0.7045464 -0.076258464 0.046905841)
(0.80583166 -0.096385483 0.054287047)
(0.91126965 -0.11851973 0.062057672)
(1.0204017 -0.14246762 0.070209584)
(1.1326904 -0.16810875 0.078658482)
(1.2476595 -0.19515594 0.087288313)
(1.3648813 -0.22361257 0.096183907)
(1.4836281 -0.25296741 0.10504801)
(1.6039238 -0.28329473 0.11408691)
(1.7248507 -0.31417464 0.12315203)
(1.8466851 -0.3455616 0.13208821)
(-0.0052331874 0.0062121317 -0.0083811107)
(0.016520258 0.011010106 -0.008385428)
(0.042102474 0.014044113 -0.0077799243)
(0.080694177 0.011389463 -0.0056122435)
(0.12449525 0.0046495368 -0.00315353)
(0.17576509 -0.0041297421 -5.6389061e-05)
(0.23317533 -0.020066023 0.0042922301)
(0.29516631 -0.038237621 0.0084927367)
(0.36236936 -0.061069131 0.013638141)
(0.43405608 -0.087441962 0.0192433)
(0.51017372 -0.11622654 0.025185737)
(0.59103967 -0.1476277 0.03175747)
(0.67651382 -0.1801522 0.038612716)
(0.76713703 -0.21354421 0.0459231)
(0.86289559 -0.24704167 0.053627682)
(0.96416303 -0.27996341 0.061671454)
(1.0707797 -0.31200945 0.070092031)
(1.1828662 -0.3427478 0.078846808)
(1.2998643 -0.37189383 0.087831284)
(1.4215609 -0.39958256 0.097215866)
(1.5470302 -0.42562213 0.10656503)
(1.6756024 -0.45020193 0.11620597)
(1.8062055 -0.47374368 0.12589262)
(0 0 0)
(0 0 0)
(0 0 0)
(0 0 0)
(0 0 0)
(0 0 0)
(0 0 0)
(0 0 0)
(0 0 0)
(0.0048134388 -0.0056925472 -0.010054845)
(0.0076870449 -0.0081462349 -0.0028325129)
(0.00741834 -0.0058660004 0.0040552752)
(0.020927643 -0.036260379 -0.0094038763)
(0.021842848 -0.038006683 -0.0013947835)
(0.021583266 -0.037570055 0.0085385575)
(0.040552423 -0.049903233 -0.010604573)
(0.044386904 -0.050431224 -0.0025162823)
(0.04523397 -0.056299861 0.0078100954)
(0.070295672 -0.069816664 -0.0076960059)
(0.073989584 -0.07430026 -0.00031151137)
(0.07346909 -0.074378562 0.0081990269)
(0.10987279 -0.090319961 -0.0062517113)
(0.11313702 -0.093065509 0.00052814784)
(0.11403066 -0.098302264 0.0097091303)
(0.15549039 -0.10932319 -0.0034354872)
(0.15947629 -0.11405602 0.003596571)
(0.16008563 -0.11748474 0.011366776)
(0.21007573 -0.13072865 9.8464594e-05)
(0.21359851 -0.13640229 0.0058405785)
(0.21463632 -0.14124007 0.014461669)
(0.27151553 -0.1526026 0.0040876049)
(0.2749626 -0.1575883 0.0097283005)
(0.27612252 -0.16341977 0.017071051)
(0.33962305 -0.17521792 0.0087351134)
(0.34286976 -0.18220966 0.013972982)
(0.34396889 -0.18783031 0.021048184)
(0.41452257 -0.19989423 0.013966329)
(0.41756425 -0.20664183 0.018870746)
(0.4189269 -0.21348382 0.025533803)
(0.49514088 -0.22493313 0.019883873)
(0.49809494 -0.23268684 0.024408646)
(0.49917511 -0.23969959 0.030445341)
(0.58177112 -0.25206165 0.026400647)
(0.58435248 -0.2600975 0.030443688)
(0.58551439 -0.26771113 0.03610368)
(0.67343315 -0.27978726 0.033359114)
(0.67588852 -0.28823991 0.037048832)
(0.67683241 -0.2964599 0.042209384)
(0.77007702 -0.30903185 0.040910876)
(0.7722228 -0.31792738 0.044210369)
(0.7730302 -0.32639277 0.048728081)
(0.87110205 -0.3391137 0.048866534)
(0.87301912 -0.348251 0.051685789)
(0.87368748 -0.35728537 0.05573462)
(0.97612017 -0.37014567 0.057162527)
(0.97781204 -0.37963931 0.059635091)
(0.97829694 -0.38887364 0.06306587)
(1.084699 -0.40187148 0.065843785)
(1.086136 -0.41154466 0.067866106)
(1.0865251 -0.42113004 0.070707809)
(1.1963686 -0.4341062 0.074692792)
(1.1976387 -0.44403089 0.076318376)
(1.1978985 -0.45382925 0.078648788)
(1.3106835 -0.46668434 0.083786083)
(1.3117217 -0.47672394 0.085049812)
(1.3119255 -0.48671838 0.0867652)
(1.4272204 -0.49936261 0.092951334)
(1.4281222 -0.50959758 0.093823047)
(1.4282947 -0.51972856 0.095087014)
(1.5454445 -0.53205397 0.10221987)
(1.5461669 -0.54225929 0.10278446)
(1.5463735 -0.55250976 0.10354259)
(1.6650703 -0.56442945 0.11146482)
(1.6657346 -0.57480823 0.11173081)
(1.6659548 -0.58520464 0.11204231)
(1.7856 -0.59657992 0.12072445)
(1.7860173 -0.60685092 0.1205817)
(1.7864516 -0.61715156 0.12063003)
(1.999353 -0.26816823 0.14588658)
(1.9998189 -0.27865521 0.14565418)
(2.0000061 -0.28911237 0.14563308)
(1.96798 -0.38712736 0.14083005)
(1.9684602 -0.39776215 0.14033046)
(1.9685405 -0.40793987 0.14005106)
(1.9380658 -0.50702154 0.13513627)
(1.9386268 -0.51739925 0.1348625)
(1.9388361 -0.5276033 0.134488)
(0.013042155 0.014825745 0.0085896382)
(0.013144462 0.016568744 0.0027899975)
(0.014131485 0.015585996 -0.0037978663)
(0.02451587 0.035640752 0.0095164665)
(0.026574835 0.034885995 0.0011242284)
(0.02516177 0.033190721 -0.0067763495)
(0.051080479 0.055562448 0.011781422)
(0.051119385 0.05388708 0.0052260728)
(0.051641549 0.053077636 -0.00474259)
(0.083641842 0.071529456 0.013844645)
(0.086117468 0.069436524 0.0065528935)
(0.085608039 0.068111741 -0.0018425043)
(0.12850003 0.08747878 0.017183059)
(0.13079336 0.08445262 0.0096154361)
(0.13011 0.081916243 0.0018946086)
(0.18136118 0.099208594 0.020036365)
(0.18267246 0.095150951 0.014117635)
(0.18327035 0.092615893 0.0059005973)
(0.24204641 0.10907055 0.024386583)
(0.24427385 0.10503467 0.017906823)
(0.24453247 0.10112024 0.010398294)
(0.31128782 0.11591599 0.028833109)
(0.31320401 0.11091013 0.02280114)
(0.313256 0.10688217 0.015644042)
(0.38710386 0.12036955 0.03419583)
(0.3888713 0.11418652 0.02803941)
(0.38952505 0.10934854 0.021438261)
(0.47008104 0.12085658 0.039490491)
(0.4717142 0.11453115 0.034367767)
(0.47222324 0.10888262 0.027596532)
(0.55895274 0.1188644 0.045780413)
(0.56040336 0.11205714 0.040323477)
(0.56088893 0.1058543 0.034316017)
(0.65342109 0.11371207 0.052304115)
(0.65479666 0.10619791 0.04731226)
(0.65536508 0.099387828 0.041702463)
(0.75301478 0.10544193 0.059311992)
(0.75425885 0.097410581 0.05457933)
(0.75468849 0.090063254 0.049364143)
(0.85712283 0.094156457 0.066654361)
(0.85815557 0.085657803 0.062312343)
(0.85855501 0.077796389 0.057536243)
(0.96515193 0.079933974 0.074398482)
(0.96607223 0.070993141 0.070384523)
(0.9664082 0.062666785 0.066077482)
(1.0766133 0.062860331 0.082320926)
(1.0773838 0.053573645 0.078771021)
(1.0776062 0.044866088 0.074920267)
(1.1909298 0.043284116 0.090612534)
(1.1915498 0.033646553 0.08744085)
(1.1917707 0.024523158 0.08409435)
(1.3075503 0.021066042 0.098991073)
(1.3081294 0.011223707 0.096269486)
(1.308231 0.0019142209 0.09341923)
(1.4260429 -0.0030268223 0.10753653)
(1.426466 -0.013109215 0.10537847)
(1.4266217 -0.022814194 0.10295487)
(1.5457278 -0.029231028 0.116451)
(1.5462861 -0.039474253 0.11435431)
(1.5463801 -0.04931635 0.11255127)
(1.6665999 -0.057042791 0.1250482)
(1.6670347 -0.067487663 0.12359487)
(1.6671062 -0.077436804 0.12221754)
(1.7877015 -0.086176735 0.13369138)
(1.788093 -0.096340694 0.13282515)
(1.7882835 -0.1066103 0.13177877)
(1.9093119 -0.11615665 0.14293613)
(1.9095857 -0.12662758 0.14209674)
(1.9099198 -0.13713198 0.14151487)
(-0.0059805961 -0.0078599907 -0.006919079)
(0.00288215 -0.0046603219 -0.007639631)
(0.019974561 -0.011139778 -0.004540331)
(0.050896662 -0.010654671 -0.0035308514)
(0.089753647 -0.010470719 -0.00024250628)
(0.13972488 -0.0087763083 0.0031475323)
(0.19955666 -0.0058489589 0.0074262959)
(0.26859386 -0.0025992213 0.012477717)
(0.34738211 0.00065580068 0.017946966)
(0.43444042 0.0030781775 0.024368771)
(0.52919767 0.004020082 0.031166024)
(0.63074118 0.0024091277 0.038734166)
(0.73782055 -0.001986151 0.046697823)
(0.84920469 -0.010062285 0.055069182)
(0.96378119 -0.022184573 0.063805597)
(1.080278 -0.038521307 0.072706526)
(1.1977278 -0.059258824 0.081814316)
(1.3152419 -0.084264808 0.090930319)
(1.4321077 -0.11323602 0.10011717)
(1.5480159 -0.14584412 0.10921924)
(1.6626417 -0.18150249 0.11832926)
(1.7758754 -0.21950599 0.12732127)
(1.8884084 -0.25959968 0.13646947)
(-0.0061490772 0.0026547983 0.00060009603)
(0.00780385 0.002798752 0.00072750124)
(0.0330713 -0.00069199299 0.003449544)
(0.066246819 -0.00088778365 0.0041280025)
(0.10837252 -0.0056935479 0.006911235)
(0.15979163 -0.011237311 0.010383567)
(0.21792393 -0.01857668 0.013580309)
(0.28429372 -0.028272563 0.018064235)
(0.3572446 -0.040082805 0.022633194)
(0.43675806 -0.054001259 0.027974949)
(0.52216738 -0.069983093 0.03357942)
(0.6133795 -0.088394614 0.039871653)
(0.70939852 -0.10840679 0.046485363)
(0.81024464 -0.13065575 0.053651645)
(0.91516394 -0.15438843 0.061143504)
(1.0237444 -0.17989314 0.069071015)
(1.1356063 -0.20669801 0.077312735)
(1.2501264 -0.2348368 0.085793147)
(1.3669785 -0.26394522 0.094602126)
(1.4856189 -0.29398602 0.10343702)
(1.6056494 -0.32466512 0.11250232)
(1.7264578 -0.35583569 0.12150172)
(1.8486368 -0.38745398 0.13061475)
(-0.0035746304 0.0050006516 0.0080273727)
(0.021742752 0.011378897 0.0084806045)
(0.050139662 0.0029672373 0.011721921)
(0.086995109 0.0044386211 0.01032531)
(0.13331061 -0.0082930888 0.013815009)
(0.18465282 -0.020754451 0.01531461)
(0.24164635 -0.037615634 0.018080296)
(0.30421494 -0.060515312 0.021783493)
(0.37074605 -0.084831702 0.025419914)
(0.44215227 -0.11419939 0.030055126)
(0.51754308 -0.14511451 0.034978272)
(0.59771381 -0.17847808 0.040454193)
(0.68236577 -0.21296493 0.046492517)
(0.7722253 -0.24789871 0.052845295)
(0.86720986 -0.28289311 0.059753666)
(0.96772295 -0.31711938 0.066985148)
(1.0737801 -0.35028959 0.074601357)
(1.1852573 -0.38198034 0.082550053)
(1.3019386 -0.41200926 0.090788837)
(1.4232916 -0.44027176 0.09920664)
(1.548583 -0.46674058 0.10792903)
(1.6771573 -0.49169675 0.11656747)
(1.8076803 -0.51509375 0.12560854)
(-0.0023848072 -0.0081447542 0.0052943389)
(-0.002355522 -0.007860881 0.0023423981)
(-0.00038778121 -0.008847125 -0.0027743855)
(0.0075573348 -0.0045155787 0.0046387333)
(0.01038995 -0.0054358521 0.00042077051)
(0.0079466502 -0.0056552548 -0.0043368755)
(0.026358099 -0.0065913384 0.0071406851)
(0.026475433 -0.0083984273 0.0034395219)
(0.026905192 -0.0097717048 -0.0013805978)
(0.053991304 -0.0045402176 0.0089307864)
(0.056944619 -0.0066175169 0.0043975245)
(0.05622555 -0.0088677718 -0.00021453505)
(0.093263493 -0.0024430612 0.011050575)
(0.095498056 -0.005740726 0.0073729697)
(0.095377255 -0.0082687134 0.0031047368)
(0.14229623 0.001131901 0.01475659)
(0.1447129 -0.0022970026 0.010832418)
(0.14428464 -0.005654021 0.0062295427)
(0.20100781 0.0059577738 0.018385018)
(0.20356407 0.0018672054 0.014249215)
(0.20408627 -0.0022649267 0.010553995)
(0.27022293 0.011533661 0.02261486)
(0.2728789 0.0060541298 0.01900825)
(0.27282294 0.0012435169 0.01501627)
(0.34836671 0.016165285 0.027764185)
(0.35065541 0.010889045 0.024099182)
(0.35109097 0.0056144554 0.020818466)
(0.43532406 0.020937366 0.033151825)
(0.43772031 0.01450135 0.029660028)
(0.43806387 0.0081385641 0.026576847)
(0.53019711 0.023559993 0.039360896)
(0.53214141 0.016596399 0.036273595)
(0.53254263 0.0099537821 0.03338263)
(0.63160654 0.023836373 0.045953976)
(0.6334991 0.016382686 0.04304729)
(0.63392656 0.0088326317 0.040577443)
(0.73883766 0.021084265 0.053069796)
(0.74046749 0.013024477 0.050520251)
(0.74077773 0.004988351 0.048378315)
(0.85032932 0.014478914 0.060658986)
(0.851692 0.006012961 0.058432252)
(0.85196944 -0.0025681754 0.05654445)
(0.96493578 0.0037882552 0.068550129)
(0.96611069 -0.0051533079 0.066639197)
(0.9663134 -0.014161052 0.06505564)
(1.0815258 -0.011384552 0.076775045)
(1.0824678 -0.020660811 0.075212843)
(1.0825682 -0.030019776 0.073826961)
(1.1988905 -0.031071907 0.085225465)
(1.1996671 -0.040652364 0.083912764)
(1.1997633 -0.050328334 0.082771149)
(1.3163196 -0.055178265 0.093794928)
(1.3169934 -0.065049802 0.092795547)
(1.3169489 -0.07487136 0.0917743)
(1.4330691 -0.083339978 0.10250715)
(1.4334878 -0.093368782 0.10166698)
(1.4335904 -0.10353333 0.10086747)
(1.548441 -0.11535955 0.11128052)
(1.5491608 -0.12572977 0.11065517)
(1.5490378 -0.13579517 0.10984458)
(1.6627796 -0.15056277 0.11980074)
(1.6635934 -0.16081832 0.11955817)
(1.6633976 -0.17107941 0.11885995)
(1.7758468 -0.18818898 0.12872163)
(1.7762352 -0.19845882 0.12839118)
(1.7762567 -0.20896477 0.12773564)
(1.8878773 -0.22777314 0.13735645)
(1.8881819 -0.23827646 0.13700977)
(1.8884507 -0.24874071 0.13666232)
(-0.0029567196 0.0019745055 0.00022534512)
(-0.0015906303 0.0022311532 -0.0011029979)
(0.00019948031 0.0024651475 -0.00048716948)
(0.012712813 0.0043197824 -0.0015299973)
(0.014580456 0.0042359981 -0.0012838267)
(0.012819507 0.0027929231 -0.00083416948)
(0.03641964 0.005043937 0.0013404816)
(0.037735431 0.0033208292 0.0022893144)
(0.038494951 0.0018652533 0.0019222011)
(0.067906613 0.0047017892 0.0021619581)
(0.071692588 0.0020088575 0.002555104)
(0.071044059 -0.0010861342 0.0028377909)
(0.11097938 0.0027258802 0.0052555505)
(0.11343743 -0.00063528108 0.0065359991)
(0.11285348 -0.0029418559 0.0054195047)
(0.1603463 -0.0010691176 0.0083828664)
(0.16324282 -0.0050655612 0.0086418099)
(0.16363632 -0.0089465245 0.0089444426)
(0.21879029 -0.0061963649 0.011462811)
(0.22182806 -0.011361364 0.012612716)
(0.22176033 -0.015903993 0.011976956)
(0.28466731 -0.014626583 0.016382726)
(0.28749893 -0.020169942 0.017065754)
(0.2874202 -0.024533402 0.016868327)
(0.35707536 -0.023866947 0.020706671)
(0.35980963 -0.030235559 0.021418179)
(0.36015142 -0.036018343 0.021173487)
(0.43668895 -0.036203876 0.026339286)
(0.43943096 -0.04334826 0.027273938)
(0.43945856 -0.049257781 0.02695407)
(0.52189507 -0.050448725 0.032264501)
(0.52433557 -0.058131292 0.033019131)
(0.52442036 -0.064705999 0.032603034)
(0.61294974 -0.066879846 0.038720986)
(0.61536331 -0.075228711 0.039511272)
(0.61539616 -0.082249255 0.039072929)
(0.70911127 -0.085439623 0.045799869)
(0.71129142 -0.094352563 0.046558619)
(0.71114096 -0.10181349 0.045968865)
(0.8098586 -0.10604422 0.053208559)
(0.81182291 -0.11546517 0.053871898)
(0.81168047 -0.12327526 0.05323113)
(0.91486395 -0.12851601 0.06110792)
(0.91660779 -0.13827809 0.06172772)
(0.91639728 -0.14652995 0.060976857)
(1.0234819 -0.15278067 0.069309958)
(1.0249773 -0.16289022 0.069814237)
(1.0247665 -0.17143536 0.069009261)
(1.1353292 -0.17858969 0.077836912)
(1.1365974 -0.18887914 0.078230376)
(1.1363828 -0.19782969 0.077392289)
(1.2498873 -0.20581552 0.086546564)
(1.2508889 -0.21632921 0.086824463)
(1.2507745 -0.22551254 0.085967823)
(1.366644 -0.23428575 0.095488491)
(1.3675043 -0.24480134 0.095606846)
(1.3673828 -0.25438161 0.094863322)
(1.4851981 -0.26364154 0.10440724)
(1.4857513 -0.27452609 0.10452085)
(1.4858281 -0.28409044 0.10369455)
(1.6053017 -0.29398636 0.11371798)
(1.6053296 -0.30458758 0.11315808)
(1.6058023 -0.31457186 0.11290754)
(1.7256816 -0.32493762 0.12260959)
(1.726205 -0.33526256 0.12248199)
(1.7262448 -0.34560522 0.12180945)
(1.8473523 -0.35603703 0.13167077)
(1.8478643 -0.36672852 0.13137845)
(1.8482257 -0.37688633 0.13099533)
(0.001570869 0.0076886528 -0.0042572049)
(0.0017259177 0.0081497471 -0.0006335454)
(0.0018397904 0.0080954341 0.0030948432)
(0.02561639 0.011238907 -0.0050438079)
(0.028110702 0.013451566 -5.8643314e-05)
(0.026577033 0.010640638 0.0043153235)
(0.051327736 0.011427377 -0.0038691661)
(0.054255829 0.0063802883 0.001552475)
(0.055073077 0.0051981698 0.0064032402)
(0.089954904 0.0068895273 -0.0024203526)
(0.092216686 0.0066719131 0.0022714732)
(0.092395195 0.0033492264 0.0061666515)
(0.13322317 0.0010698522 0.00062482584)
(0.1365109 -0.0038542783 0.0051701088)
(0.13715952 -0.0060987819 0.0093415771)
(0.18446418 -0.010414363 0.0028737631)
(0.18740101 -0.014542634 0.007304839)
(0.18803661 -0.018775136 0.010771883)
(0.24127236 -0.026395981 0.0072983717)
(0.24423975 -0.0314228 0.011402874)
(0.24510003 -0.035155141 0.014639839)
(0.30295195 -0.045404972 0.011230319)
(0.30573426 -0.051481056 0.014580576)
(0.30678988 -0.056607467 0.017920731)
(0.36967515 -0.069210255 0.016021577)
(0.37234724 -0.075442931 0.019495754)
(0.37351097 -0.08104081 0.022455174)
(0.4408062 -0.096035968 0.021503368)
(0.44337347 -0.10320766 0.024383111)
(0.44446396 -0.10927417 0.026977367)
(0.51638871 -0.12551883 0.027111798)
(0.51862121 -0.13302719 0.029730488)
(0.5198861 -0.13985221 0.032206352)
(0.59667742 -0.15736729 0.033459817)
(0.59875189 -0.16530103 0.035822819)
(0.59994279 -0.17261552 0.03787598)
(0.68156652 -0.19030206 0.040070863)
(0.6833243 -0.19870464 0.042057515)
(0.68453514 -0.20664219 0.043966582)
(0.7715944 -0.22412394 0.047140348)
(0.7731447 -0.23273066 0.048923786)
(0.77425371 -0.24112163 0.050555811)
(0.86679139 -0.25782494 0.054636483)
(0.86806887 -0.26675508 0.056137407)
(0.86916765 -0.27567808 0.057548803)
(0.96745495 -0.29100775 0.06247352)
(0.96857145 -0.30021168 0.063772862)
(0.96948985 -0.30948762 0.064952692)
(1.0735866 -0.32320157 0.070726016)
(1.07445 -0.33257864 0.071784281)
(1.0753405 -0.34223237 0.072782097)
(1.1851016 -0.35397574 0.079286132)
(1.1858994 -0.36366382 0.080182017)
(1.1866252 -0.37355031 0.080938228)
(1.3017067 -0.38324366 0.088162215)
(1.3023023 -0.3930585 0.088850448)
(1.3029371 -0.40311382 0.089433521)
(1.4229273 -0.41081394 0.097368852)
(1.4235244 -0.42084015 0.097819385)
(1.4240983 -0.43106911 0.098183382)
(1.548022 -0.43672515 0.10658254)
(1.5485218 -0.44689153 0.10694078)
(1.5489889 -0.45710558 0.10716001)
(1.6763323 -0.46127712 0.11611741)
(1.6768101 -0.47156794 0.116343)
(1.6773217 -0.4818942 0.1163305)
(1.8066126 -0.48463558 0.12566141)
(1.8070243 -0.49475714 0.12556592)
(1.8074105 -0.50531037 0.12533588)
)
;

boundaryField
{
    free
    {
        type            calculated;
    }
    fixed
    {
        type            calculated;
    }
    traction
    {
        type            calculated;
    }
}


// ************************************************************************* //
