/*--------------------------------*- C++ -*----------------------------------*\
  =========                 |
  \\      /  F ield         | OpenFOAM: The Open Source CFD Toolbox
   \\    /   O peration     | Website:  https://openfoam.org
    \\  /    A nd           | Version:  6
     \\/     M anipulation  |
\*---------------------------------------------------------------------------*/
FoamFile
{
    version     2.0;
    format      ascii;
    class       pointVectorField;
    location    "0.06";
    object      lm;
}
// * * * * * * * * * * * * * * * * * * * * * * * * * * * * * * * * * * * * * //

dimensions      [1 -2 -1 0 0 0 0];

internalField   nonuniform List<vector> 
625
(
(-3.6361799e-15 2.112754e-16 -3.2990721e-16)
(2.8178306e-17 1.9013092e-16 6.1994168e-17)
(6538.4144 226.20592 -49.795787)
(6525.9062 -650.34568 74.845876)
(6.5239771e-16 2.739523e-16 -5.5565719e-16)
(-3.7042918e-15 1.4868296e-15 -1.3023874e-15)
(6542.265 -755.32671 -10.066439)
(6581.7897 231.70066 12.080745)
(-1.9658614e-16 -3.2115893e-17 -1.1045223e-16)
(1.4766345e-16 -3.4299605e-16 -2.8648028e-16)
(-1.0135278e-15 7.0169807e-16 1.7538027e-16)
(6522.4023 -11.677147 -40.949155)
(6525.4007 -215.05411 -0.18913074)
(6538.096 -409.18019 44.330057)
(21.054324 76.440004 64.859753)
(53.548209 163.28037 76.052614)
(135.92266 270.51883 85.781155)
(285.54753 376.33529 81.122081)
(491.71419 469.42658 73.239949)
(750.9959 556.30086 66.475189)
(1033.479 632.58329 75.373785)
(1336.5912 702.9919 90.469741)
(1664.7464 762.77041 103.70429)
(2033.0108 801.03348 97.727942)
(2447.7141 813.10939 76.047207)
(2893.007 788.009 37.936113)
(3347.8998 730.75834 -2.5727436)
(3782.3787 649.56177 -35.016846)
(4171.5922 557.8158 -52.250965)
(4502.8244 470.206 -51.005269)
(4778.0626 399.10304 -33.024565)
(5015.9699 351.56816 -4.9471485)
(5243.798 326.06999 21.430881)
(5487.7015 314.1093 33.85006)
(5756.444 301.40459 18.932537)
(6045.9517 276.85407 -5.0379041)
(6319.3642 249.88382 -28.598136)
(-14.806418 -39.879751 -70.248223)
(30.458519 -105.03414 -58.984572)
(103.02696 -194.46279 -73.973414)
(223.32985 -278.9508 -66.878567)
(397.45925 -361.90159 -56.382854)
(629.51277 -449.62488 -47.106913)
(891.32335 -530.33492 -46.312003)
(1198.4265 -612.75774 -46.047108)
(1539.8666 -702.97313 -48.67468)
(1915.2757 -787.19123 -40.992318)
(2326.5208 -860.19451 -25.554838)
(2763.0684 -908.05413 -2.4948141)
(3210.9427 -924.41093 21.803901)
(3648.9941 -907.26527 42.385556)
(4054.6632 -862.09635 55.425223)
(4409.3598 -801.02949 58.557985)
(4706.6064 -740.14327 51.070047)
(4957.342 -695.0523 34.581229)
(5187.4563 -674.26437 13.67683)
(5427.2788 -674.46097 -3.4051715)
(5696.0525 -680.67449 -8.6845944)
(5988.9437 -678.98983 5.8670963)
(6280.5689 -662.99603 35.183082)
(-4.8813632e-16 1.9183015e-16 -1.0607077e-16)
(-2.6214496e-15 -5.6404768e-16 7.244144e-16)
(-2.4010456e-15 1.4295629e-15 -1.6975308e-16)
(15.9086 -29.207717 40.944042)
(58.719761 -133.3785 56.6758)
(139.21341 -176.94153 58.966173)
(247.58524 -261.53837 53.527578)
(432.40728 -360.24474 58.953252)
(655.92444 -436.39033 39.193355)
(930.27799 -516.24976 28.008334)
(1256.769 -607.0879 9.8346796)
(1612.6014 -681.93452 0.58712216)
(1991.5412 -752.56287 -0.29408537)
(2392.1218 -809.90492 2.9710912)
(2804.8092 -851.40271 9.2392737)
(3227.9293 -868.99971 8.1748609)
(3648.663 -858.59412 -4.5329944)
(4046.8943 -822.11278 -25.749546)
(4397.7673 -769.46051 -42.737323)
(4688.0373 -718.59976 -42.047858)
(4927.5986 -686.35104 -22.17647)
(5149.7946 -681.1388 2.8960448)
(5393.8316 -698.14437 13.114078)
(5678.3768 -723.07427 -0.8269301)
(5987.5199 -740.8295 -26.872509)
(6283.1745 -746.29283 -32.276877)
(6542.5225 -473.20873 -12.294192)
(6538.1069 -244.3622 -14.182742)
(6567.4846 -20.606606 1.5728368)
(6336.9945 251.79723 0.45748612)
(6065.1808 285.37433 -4.7364469)
(5779.3204 295.32513 -12.256987)
(5502.8982 281.30887 -15.693058)
(5250.2128 270.96448 -9.3387377)
(5011.9696 287.07755 3.0416682)
(4763.5513 338.97165 18.972705)
(4479.6784 417.66409 34.508557)
(4145.5816 503.22964 46.561351)
(3763.2105 575.43848 52.633427)
(3346.5997 622.6611 51.115832)
(2916.7566 643.74843 41.611375)
(2492.6363 647.70873 26.009068)
(2080.2218 631.20413 4.6707385)
(1707.0108 601.03282 -15.958483)
(1338.9261 563.75554 -42.998672)
(1013.6879 520.73534 -61.702179)
(713.35778 455.0143 -74.173061)
(475.61104 379.72612 -80.227663)
(277.04454 292.99527 -77.928178)
(136.44506 216.72743 -80.216161)
(64.729312 121.08977 -66.300214)
(45.963326 63.230787 -38.258762)
(-1.3028228e-15 -3.4252847e-16 3.3068324e-16)
(-2.0449562e-15 -3.5718549e-16 -7.3673077e-16)
(-1.4121951e-15 -1.0527101e-15 6.223458e-16)
(-1.2019486e-15 6.189313e-16 -3.4292956e-16)
(-1.2511779e-16 -6.848356e-17 2.1836215e-16)
(-3.8898857e-17 4.7141393e-16 -3.1043199e-16)
(6511.9583 -683.8809 52.020514)
(6527.9402 -721.59086 21.044653)
(6538.761 -748.80592 -2.8159519)
(6536.8547 248.8136 -24.069241)
(6549.8626 252.32763 1.4168051)
(6568.552 244.02987 6.4753449)
(-12.590189 46.348394 49.604544)
(19.141687 89.883374 40.888952)
(93.612756 133.69465 52.33245)
(233.70592 173.05778 53.36867)
(435.20642 211.00734 53.778999)
(692.65345 245.91002 50.729891)
(974.53217 274.0222 45.99001)
(1279.3273 294.73279 47.653282)
(1609.5585 302.35143 48.391251)
(1980.7557 296.67551 48.657345)
(2398.4448 280.72696 43.615729)
(2852.0418 254.06063 31.482012)
(3318.4426 220.64364 13.693814)
(3765.7546 182.40404 -5.6211285)
(4166.1544 143.77775 -20.485017)
(4504.0033 110.10494 -25.995416)
(4780.3758 85.455975 -19.98146)
(5014.2003 70.712303 -6.7893085)
(5236.4244 61.53883 7.4687802)
(5474.1587 52.38075 12.150289)
(5743.0863 39.221837 4.8351395)
(6033.5009 25.268196 -10.571283)
(6309.3368 7.2267326 -20.926873)
(-26.666667 11.883626 6.0809995)
(14.977481 14.401916 2.6521202)
(83.374286 21.760591 6.5506057)
(215.01582 21.630454 13.324091)
(409.96998 15.257936 16.426593)
(654.29756 12.583903 20.521583)
(933.71453 12.362443 23.24042)
(1240.0481 12.625107 24.659658)
(1574.7915 4.8183808 26.007321)
(1948.7762 -13.476438 27.771959)
(2365.4791 -43.302299 28.35496)
(2818.5411 -78.136635 27.277521)
(3286.4604 -111.78543 23.311987)
(3739.1208 -139.0301 16.874739)
(4146.6006 -157.31624 10.145)
(4490.0819 -166.33589 5.7419263)
(4769.1733 -167.88193 5.3301847)
(5003.4462 -165.292 7.5124269)
(5225.9234 -162.19707 9.5648424)
(5466.7167 -162.38253 7.2840916)
(5736.2244 -169.42882 1.2416084)
(6028.0342 -179.3587 -2.8706379)
(6311.2079 -193.73884 1.2831365)
(-35.105853 -20.882637 -19.880133)
(12.540924 -41.619381 -23.181722)
(74.473782 -68.530694 -22.871878)
(206.59655 -105.59192 -20.431502)
(390.01834 -146.42168 -17.045481)
(624.24892 -180.90537 -12.027739)
(898.32661 -216.1766 -12.782138)
(1205.0119 -248.38815 -13.453867)
(1548.0134 -285.70977 -14.23832)
(1929.3502 -331.04063 -10.652748)
(2349.3579 -380.46371 -1.518937)
(2799.1369 -425.70148 11.47986)
(3260.4982 -456.6977 24.863856)
(3708.6086 -467.8421 35.0332)
(4116.6759 -460.12236 39.815624)
(4464.8093 -440.9999 38.810254)
(4749.3064 -420.21716 33.019078)
(4986.0071 -405.88383 24.152068)
(5206.8197 -400.25618 14.283805)
(5445.8932 -399.38949 5.5779466)
(5718.1951 -399.29244 2.7777404)
(6014.7641 -396.35661 8.0032637)
(6306.187 -396.26773 19.152407)
(-2.5953868e-15 -2.1703571e-16 4.2716933e-18)
(-3.8783653e-15 3.5858996e-16 7.5215743e-16)
(-9.8459492e-16 7.8127033e-16 2.7525688e-16)
(-3.9146975e-16 7.8165185e-18 1.2560621e-16)
(1.6350797e-16 -2.4226884e-16 -1.2066667e-17)
(-1.0304172e-15 -9.2669207e-16 -7.5672327e-16)
(-6.4481012e-16 3.525084e-16 2.7116342e-16)
(-3.5205005e-15 9.4737515e-16 -2.5196009e-17)
(-3.8147498e-15 1.043275e-15 1.2924308e-16)
(14.97765 -18.845957 -32.29277)
(26.424711 -24.990096 -8.2467495)
(29.051966 -18.613068 9.8019542)
(73.474926 -125.87864 -23.499981)
(75.544351 -124.39518 -3.8443214)
(78.869616 -117.22959 27.780892)
(135.2995 -183.73447 -35.151723)
(152.04514 -173.86522 -7.9988278)
(161.24038 -189.0544 26.302174)
(257.50669 -274.28281 -28.992057)
(271.61181 -276.67506 -1.544298)
(271.46074 -265.19406 23.654233)
(434.71386 -365.55539 -26.665827)
(442.85757 -360.22447 -6.2444672)
(449.63531 -364.78763 22.275707)
(654.65565 -447.33098 -24.294918)
(665.04048 -445.65296 -1.9891175)
(671.53163 -445.46423 16.201303)
(922.46655 -524.98144 -22.785514)
(935.80513 -535.6204 -14.808906)
(942.69094 -535.82455 5.4853263)
(1230.739 -611.99092 -26.138908)
(1241.8779 -605.68312 -15.476842)
(1254.0033 -616.88315 -8.3521416)
(1567.6192 -692.05501 -24.648539)
(1588.1472 -689.34358 -19.459742)
(1602.1297 -697.92756 -13.491293)
(1941.2946 -774.22047 -20.914589)
(1962.5678 -761.73328 -14.417387)
(1974.3426 -770.37848 -13.546829)
(2344.6949 -843.22738 -11.429566)
(2363.2627 -825.44856 -5.418951)
(2372.2265 -829.47854 -7.2470661)
(2772.8785 -890.33089 1.083545)
(2784.9016 -870.95594 5.6720613)
(2789.6421 -869.95279 3.0052597)
(3213.4646 -908.58506 12.86761)
(3216.9802 -893.76032 13.559305)
(3218.4149 -888.02777 10.596939)
(3646.1891 -895.18546 21.17789)
(3642.0427 -888.61527 15.018008)
(3642.3164 -880.70162 9.9069645)
(4047.7613 -853.67071 24.82188)
(4038.7858 -855.43818 10.437706)
(4038.942 -849.21115 0.33933362)
(4398.9681 -794.37754 24.42076)
(4388.2706 -801.00608 4.6104624)
(4386.9838 -799.35523 -10.776519)
(4694.3794 -733.56434 20.848536)
(4684.322 -741.1667 2.3842734)
(4678.7329 -744.851 -13.689293)
(4946.869 -688.88125 14.190829)
(4938.6286 -696.40531 4.0614725)
(4927.2086 -703.54312 -5.0967644)
(5183.763 -670.95935 4.4158951)
(5177.5402 -681.13866 4.8093451)
(5162.0319 -689.46763 7.5556966)
(5432.4508 -677.97193 -6.3350596)
(5428.5098 -694.81268 -0.68732137)
(5413.7431 -703.4083 11.450914)
(5705.9018 -694.09432 -12.338659)
(5704.1984 -718.80935 -10.829994)
(5694.6629 -730.10597 0.23805355)
(5993.2616 -703.47766 -6.4147914)
(5991.4788 -734.4246 -15.456179)
(5990.1057 -749.97194 -16.702214)
(6270.119 -695.21346 15.290483)
(6273.9261 -726.48965 -5.1773845)
(6280.9436 -747.22578 -20.982607)
(6516.6629 6.5248918 -30.137937)
(6533.9638 4.7204801 -14.94742)
(6552.3081 -9.5560078 -5.3386513)
(6506.1141 -212.42584 -5.6682244)
(6515.2007 -223.50366 -4.2933695)
(6532.4864 -240.14592 -9.0625374)
(6506.9856 -421.90534 35.202843)
(6521.7603 -445.32657 18.40856)
(6535.4188 -467.02949 -3.7285991)
(56.281049 52.513572 28.678414)
(50.444261 56.290618 9.6550713)
(62.54955 50.995284 -9.8717086)
(85.604243 138.36508 30.405574)
(90.58807 134.02786 -8.0786252)
(87.090818 119.79433 -38.063802)
(173.22883 255.80087 34.824536)
(176.30514 230.28621 1.014805)
(174.62765 215.85281 -42.015064)
(309.98094 346.91994 32.048247)
(312.58706 322.11405 -2.5483909)
(305.55214 299.01594 -40.504824)
(509.33168 448.85197 29.584649)
(509.8305 417.9953 -6.8410461)
(502.06274 390.81469 -40.354124)
(764.39169 531.91521 23.093642)
(756.21076 492.99532 -1.4445928)
(748.17187 465.27637 -36.44277)
(1048.6512 601.12799 29.588808)
(1045.722 565.27664 2.8180155)
(1039.4329 535.91573 -26.921079)
(1363.5285 671.84165 42.191345)
(1362.9378 624.7315 12.703352)
(1358.5244 590.59011 -13.012017)
(1697.182 729.98148 56.373199)
(1706.9593 675.9042 32.368984)
(1707.3248 635.04974 11.757699)
(2068.7443 779.58777 63.655142)
(2078.9194 710.44211 40.434763)
(2080.9532 662.03059 30.537562)
(2465.1277 798.24 59.47915)
(2481.3258 727.18076 46.485015)
(2480.3737 672.93091 41.461406)
(2892.7266 784.83181 44.733975)
(2903.022 715.1509 45.019446)
(2902.3107 662.31891 48.486396)
(3330.6217 735.16866 22.603759)
(3333.4539 674.23196 35.012475)
(3332.3269 625.88309 46.094789)
(3755.6043 657.95497 0.19345065)
(3750.0453 607.03901 20.012059)
(3750.1168 565.65885 35.607752)
(4143.5661 566.05974 -16.320703)
(4132.3887 523.08398 4.6882397)
(4133.5083 487.40637 20.988416)
(4479.1401 474.11685 -22.050024)
(4467.0891 435.69487 -5.6389855)
(4468.5998 403.53287 7.4535976)
(4762.3331 396.68445 -14.826262)
(4753.9398 360.44879 -7.1306262)
(4755.5556 330.71176 -1.2410281)
(5009.7513 344.28687 2.1583717)
(5007.6119 310.48025 -0.022063921)
(5009.4844 284.03133 -4.384142)
(5245.6803 320.3843 20.956333)
(5249.2142 290.64873 10.186709)
(5253.6608 268.53968 -4.3192237)
(5494.5874 317.82493 31.447475)
(5501.8134 294.23927 16.503093)
(5509.1662 276.20536 -4.3284558)
(5762.657 317.9204 23.151517)
(5768.1232 303.85073 12.552958)
(5780.2644 287.72594 -5.7379602)
(6043.9854 300.47042 3.9268383)
(6048.5711 296.06955 2.1928105)
(6059.8629 279.43719 -10.086307)
(6309.1383 274.7272 -16.239724)
(6312.6215 277.12752 -6.3344302)
(6325.5373 262.17088 -2.8322999)
(9.5848105 21.759087 -26.430692)
(41.225257 93.041417 -42.475212)
(104.62872 100.16219 -32.751517)
(239.97376 138.66045 -40.208399)
(424.96088 170.19045 -38.175094)
(669.82633 194.21687 -31.364891)
(962.90269 213.32208 -24.900381)
(1291.906 219.38388 -11.370554)
(1650.3281 217.07302 1.3122038)
(2034.8613 211.2903 14.588504)
(2445.895 206.92599 23.775922)
(2877.0625 198.26604 30.802952)
(3316.6857 185.08853 32.374399)
(3746.4103 160.69531 28.168873)
(4140.719 123.69406 18.838982)
(4481.1036 80.70892 7.0231385)
(4763.3083 43.810132 -3.549279)
(5002.9503 22.87203 -10.792781)
(5230.571 19.832712 -14.504768)
(5476.345 25.238735 -16.862711)
(5753.3711 27.056888 -18.289329)
(6047.6691 15.574138 -18.165147)
(6323.1266 -4.7751441 -12.560355)
(-10.667077 13.171403 1.0491562)
(32.446127 21.144686 -7.9029559)
(111.92206 7.8340251 -1.4185466)
(245.0308 16.56507 -7.5271133)
(424.42515 13.030026 -7.3748571)
(668.65665 7.9609735 -8.8576964)
(958.18007 5.719591 -11.489119)
(1289.5877 -2.214992 -11.581204)
(1648.5508 -12.926094 -5.3139588)
(2027.5544 -30.125633 3.6161345)
(2429.8205 -51.203779 16.645242)
(2851.0275 -74.485322 26.92663)
(3285.3561 -98.298677 29.854049)
(3715.1134 -122.5846 23.366369)
(4113.381 -148.52075 10.410983)
(4455.929 -173.1317 -3.386234)
(4735.3654 -191.07069 -10.916021)
(4968.6891 -197.70889 -11.102375)
(5191.7976 -193.19011 -8.1466392)
(5439.5381 -186.5908 -9.2967761)
(5723.0253 -187.95712 -14.602132)
(6026.6024 -205.34796 -23.90285)
(6310.5199 -229.85473 -25.668022)
(-20.246276 -23.126317 18.811867)
(43.919687 -23.726847 15.116019)
(115.09552 -81.56543 33.040365)
(238.17725 -84.509035 21.812103)
(417.61994 -129.79402 26.885547)
(655.21676 -162.41401 19.249545)
(936.17279 -195.52825 10.028183)
(1267.6924 -233.24768 7.948254)
(1627.9255 -271.81239 6.8686484)
(2015.6974 -316.49751 12.629755)
(2421.4123 -361.14444 17.480361)
(2843.0552 -399.918 19.443948)
(3273.8324 -424.53891 14.644308)
(3699.1673 -431.99829 3.0741758)
(4095.7933 -427.05433 -11.067469)
(4438.7133 -418.45331 -20.610873)
(4717.277 -413.79261 -19.863761)
(4946.3556 -414.69861 -10.9847)
(5163.4228 -417.34428 -2.8428806)
(5408.1111 -418.5259 -4.2214291)
(5695.5255 -420.91761 -17.165403)
(6004.0678 -430.52478 -27.218484)
(6300.2753 -452.0381 -33.40885)
(13.382995 20.189256 23.62956)
(11.246325 21.30056 9.5120111)
(24.139048 17.776376 -7.5605652)
(52.929964 86.466922 18.079357)
(62.029484 81.434262 -1.9929871)
(59.296199 77.325319 -26.600899)
(129.47569 120.7403 25.424085)
(126.6338 111.09244 2.1794809)
(132.85822 106.01645 -15.767415)
(260.34559 167.50123 29.062036)
(264.37498 155.38831 4.6353824)
(262.82813 140.72774 -16.970035)
(455.78805 207.18384 28.583522)
(452.10981 189.92929 9.4346057)
(452.0619 173.9942 -15.897801)
(702.16579 242.10752 28.080748)
(696.96598 224.21555 9.7773922)
(691.82365 204.34958 -10.182778)
(986.39842 273.5443 24.553796)
(981.33646 248.77792 11.917087)
(980.00904 227.15794 -5.5472178)
(1298.4383 294.7214 26.970459)
(1297.6546 263.77055 16.701693)
(1299.3195 240.29372 3.3020447)
(1636.9463 306.33632 31.601948)
(1641.817 270.09947 23.206919)
(1647.4325 243.61809 13.269629)
(2008.7665 305.4946 37.211667)
(2018.1797 265.49069 31.630902)
(2025.0068 238.12268 25.710975)
(2417.5449 293.18874 39.185743)
(2427.8914 253.57413 37.433443)
(2433.2179 227.25286 34.60057)
(2855.929 270.37662 36.094857)
(2863.5543 234.91183 37.22825)
(2866.5531 210.93297 37.732607)
(3307.4119 238.13012 24.711422)
(3310.0253 207.85457 28.973935)
(3309.9263 186.31897 33.192794)
(3744.9725 199.32039 8.4814949)
(3742.9155 173.26788 14.32591)
(3740.9574 153.33791 21.472824)
(4142.6849 158.18314 -7.6717549)
(4137.9888 133.76812 -1.9694873)
(4135.1061 113.63548 6.2867639)
(4483.454 119.96908 -17.897039)
(4478.9189 94.938639 -13.811771)
(4475.4498 73.502586 -6.4806162)
(4766.0407 89.645103 -18.511784)
(4764.1345 63.290211 -17.101998)
(4760.3735 41.335009 -12.745864)
(5007.1268 69.92901 -10.722497)
(5009.2951 43.728765 -12.68174)
(5005.866 23.203555 -12.719168)
(5235.0493 59.523573 -0.59484383)
(5240.9786 35.763956 -6.7636146)
(5239.5554 18.532502 -10.93733)
(5475.6554 54.3403 5.3254904)
(5484.1005 35.290465 -4.4339149)
(5486.2587 20.808055 -12.584975)
(5742.9419 48.118556 -0.69466937)
(5752.1479 36.291849 -9.7301314)
(5757.5404 22.290348 -18.239939)
(6026.5001 38.581798 -13.568594)
(6034.1543 32.510145 -18.148429)
(6041.9291 16.805478 -23.503039)
(6293.0327 25.178892 -22.197354)
(6299.5678 22.3003 -20.356522)
(6311.3936 6.5483851 -18.419155)
(-10.953816 5.1026521 0.32551923)
(-2.0478899 8.7473533 0.4545068)
(9.7011392 9.1676447 0.29400321)
(41.182568 13.323163 -5.4942797)
(50.744504 17.50922 -4.5392304)
(46.294566 14.282732 -6.5346042)
(116.58876 20.422107 2.9340977)
(122.04064 14.771757 7.141364)
(128.18301 14.423503 1.2048129)
(243.11734 18.463448 6.7933599)
(258.53496 15.057753 6.3513621)
(255.48001 7.1345244 2.2305078)
(432.09204 21.315773 13.510613)
(438.09747 13.726605 13.339808)
(435.45761 8.7952139 0.93981668)
(670.01649 22.348112 17.658042)
(675.94929 13.452367 12.377353)
(674.10668 2.9361307 2.7148004)
(951.20104 26.144719 18.013385)
(955.50245 13.795253 13.94447)
(957.19065 -0.99490822 1.3165065)
(1264.7016 27.069637 19.980663)
(1270.1735 12.196242 15.183684)
(1276.4309 -5.7710349 4.3261939)
(1606.9687 20.787337 21.602315)
(1615.2566 2.2677325 19.375227)
(1626.7523 -18.400066 10.606164)
(1982.5618 3.3484714 26.031749)
(1991.3571 -16.863523 25.512485)
(2003.9783 -37.022685 19.036134)
(2391.8595 -24.364249 29.953585)
(2399.2734 -44.326905 30.634668)
(2409.7319 -62.041281 27.390675)
(2830.2595 -57.599493 31.527317)
(2834.0207 -74.886189 32.360104)
(2840.6023 -89.281943 32.180613)
(3282.207 -90.519034 27.960524)
(3281.9223 -105.49823 27.106806)
(3284.3263 -117.24591 29.681591)
(3722.5691 -118.54402 19.257598)
(3719.5758 -132.33717 15.545139)
(3718.8487 -143.52374 19.352798)
(4124.2354 -139.16727 8.1070627)
(4120.1578 -154.36907 1.3526914)
(4117.1632 -168.08177 4.1264513)
(4468.0546 -151.96687 -0.97031556)
(4464.1966 -170.27735 -9.579846)
(4458.9109 -188.44279 -9.3754084)
(4751.6473 -157.96858 -4.6031073)
(4748.6328 -179.59399 -13.004332)
(4740.8468 -201.13356 -15.708263)
(4992.2947 -159.62223 -3.0760943)
(4990.5525 -182.59559 -9.9952841)
(4980.9518 -204.45959 -14.442628)
(5220.4447 -160.09019 -0.62241841)
(5220.4604 -182.37569 -6.6233289)
(5211.2233 -200.87031 -11.241299)
(5463.921 -162.76886 -1.4216603)
(5465.9628 -182.57157 -7.8972018)
(5459.8471 -197.33292 -13.250469)
(5731.6796 -172.12516 -6.2924956)
(5737.2285 -186.17502 -15.957007)
(5734.4981 -200.04094 -22.014373)
(6017.211 -182.79576 -11.694159)
(6021.6895 -195.3209 -22.77683)
(6024.3252 -210.55076 -30.974531)
(6288.068 -194.13369 -8.4549335)
(6290.7734 -206.36099 -18.015547)
(6299.6743 -223.63003 -26.203542)
(-11.15948 -18.645513 -7.9449606)
(-11.395683 -15.719623 -0.83866291)
(-4.6807262 -14.665593 9.8158545)
(46.880144 -39.44684 -10.371705)
(56.447015 -26.36879 1.1976232)
(57.651398 -30.855676 10.937857)
(108.83387 -71.150856 -7.8910517)
(118.3913 -83.626518 3.9737945)
(128.52066 -80.199113 19.844353)
(242.05567 -109.70394 -6.5176313)
(247.39868 -102.22459 5.2929276)
(255.04649 -101.06703 16.468727)
(419.62314 -138.95574 -1.742123)
(423.75529 -145.04263 6.3859688)
(431.62018 -142.95864 13.51993)
(652.10527 -173.2711 0.073883017)
(653.72497 -178.09297 3.8395002)
(662.70871 -179.15526 9.8933136)
(925.72499 -203.85098 -2.0463714)
(927.76848 -209.59483 3.137389)
(941.71444 -213.27436 2.3213533)
(1236.6504 -235.12905 -4.9823223)
(1241.1397 -242.7708 -2.1291013)
(1259.6757 -252.42463 -1.9430699)
(1580.8988 -274.30402 -7.6927955)
(1589.6898 -281.52812 -1.4177341)
(1610.2532 -291.05506 -0.68752255)
(1959.7653 -319.57094 -4.210871)
(1971.2034 -326.00631 1.9649777)
(1990.3501 -335.68436 4.4835364)
(2371.9238 -367.05149 3.8253754)
(2383.3709 -372.51132 9.0820469)
(2395.7988 -380.46514 13.083225)
(2810.0823 -408.32164 14.985049)
(2818.4588 -413.58163 16.834106)
(2822.3012 -419.44329 20.304822)
(3259.8623 -435.20458 24.692987)
(3264.569 -441.44837 21.17286)
(3260.896 -446.16425 21.938705)
(3698.9389 -443.69595 29.440232)
(3700.4946 -451.94355 19.72932)
(3692.7028 -457.28408 15.623564)
(4101.7615 -435.5909 28.298981)
(4101.3351 -446.64484 13.140497)
(4092.7234 -455.05735 3.6064664)
(4448.7615 -418.17791 23.095429)
(4446.8485 -431.98862 5.5977676)
(4438.4575 -445.02936 -7.4083946)
(4735.663 -400.3856 16.787955)
(4732.141 -416.45216 1.4879354)
(4722.4596 -433.92235 -11.069025)
(4978.0427 -389.33176 11.190864)
(4973.105 -406.90195 1.5363676)
(4960.2538 -426.95707 -6.8069925)
(5206.3185 -387.26201 6.0774301)
(5201.4843 -405.95379 1.9955468)
(5185.6786 -425.85919 -1.1783556)
(5450.9807 -391.65168 0.63346768)
(5448.1566 -411.0551 -1.8531996)
(5432.9081 -429.51768 -2.8827835)
(5723.8363 -398.65351 -3.598002)
(5723.8333 -419.12502 -8.7528354)
(5713.2976 -436.55947 -13.518926)
(6011.1918 -405.52544 -2.3487601)
(6013.2223 -426.51248 -15.04893)
(6010.3702 -444.99479 -24.652914)
(6286.6663 -411.06125 11.295144)
(6288.8913 -433.91517 -8.0739705)
(6296.1026 -454.49019 -25.290561)
)
;

boundaryField
{
    free
    {
        type            zeroGradient;
    }
    fixed
    {
        type            fixedValue;
        value           nonuniform List<vector> 
25
(
(-2.5953868e-15 -2.1703571e-16 4.2716933e-18)
(-1.3028228e-15 -3.4252847e-16 3.3068324e-16)
(-1.9658614e-16 -3.2115893e-17 -1.1045223e-16)
(-3.6361799e-15 2.112754e-16 -3.2990721e-16)
(-3.8783653e-15 3.5858996e-16 7.5215743e-16)
(-2.0449562e-15 -3.5718549e-16 -7.3673077e-16)
(-9.8459492e-16 7.8127033e-16 2.7525688e-16)
(-1.4121951e-15 -1.0527101e-15 6.223458e-16)
(-4.8813632e-16 1.9183015e-16 -1.0607077e-16)
(6.5239771e-16 2.739523e-16 -5.5565719e-16)
(-3.9146975e-16 7.8165185e-18 1.2560621e-16)
(1.4766345e-16 -3.4299605e-16 -2.8648028e-16)
(1.6350797e-16 -2.4226884e-16 -1.2066667e-17)
(-1.0304172e-15 -9.2669207e-16 -7.5672327e-16)
(-2.6214496e-15 -5.6404768e-16 7.244144e-16)
(-6.4481012e-16 3.525084e-16 2.7116342e-16)
(-1.0135278e-15 7.0169807e-16 1.7538027e-16)
(-3.5205005e-15 9.4737515e-16 -2.5196009e-17)
(-3.8147498e-15 1.043275e-15 1.2924308e-16)
(-2.4010456e-15 1.4295629e-15 -1.6975308e-16)
(-1.2019486e-15 6.189313e-16 -3.4292956e-16)
(2.8178306e-17 1.9013092e-16 6.1994168e-17)
(-1.2511779e-16 -6.848356e-17 2.1836215e-16)
(-3.8898857e-17 4.7141393e-16 -3.1043199e-16)
(-3.7042918e-15 1.4868296e-15 -1.3023874e-15)
)
;
    }
    freeTop
    {
        type            zeroGradient;
    }
}


// ************************************************************************* //
