/*--------------------------------*- C++ -*----------------------------------*\
  =========                 |
  \\      /  F ield         | OpenFOAM: The Open Source CFD Toolbox
   \\    /   O peration     | Website:  https://openfoam.org
    \\  /    A nd           | Version:  6
     \\/     M anipulation  |
\*---------------------------------------------------------------------------*/
FoamFile
{
    version     2.0;
    format      ascii;
    class       pointVectorField;
    location    "0.83";
    object      lm;
}
// * * * * * * * * * * * * * * * * * * * * * * * * * * * * * * * * * * * * * //

dimensions      [1 -2 -1 0 0 0 0];

internalField   nonuniform List<vector> 
28033
(
(-1.780536e-14 4.8656612e-16 1.3104288e-15)
(-5.4375576e-15 3.3318594e-15 9.9433006e-16)
(-5952.5048 251.90586 27.460481)
(-5888.8401 804.48578 88.980744)
(-1.338461e-14 3.0090723e-15 -2.870051e-16)
(-1.2587315e-14 4.9008913e-15 -4.4266115e-15)
(-5905.287 732.34063 47.957511)
(-5976.177 193.44097 69.460021)
(-5.6329745e-15 1.0535579e-15 6.7193838e-16)
(-2.4534443e-15 3.0423504e-16 5.8836893e-16)
(-5.4923298e-15 2.4302826e-15 8.9528572e-16)
(-2.6209443e-15 -1.1537891e-15 -6.7979696e-16)
(-7.2548563e-15 1.5542294e-15 1.0013199e-15)
(-4.7613589e-15 -9.2108094e-16 -7.3952737e-16)
(-1.132389e-15 -2.2256662e-17 -6.4484848e-16)
(-7.4239857e-16 -2.4218299e-16 -3.6669977e-16)
(-1.1196198e-15 4.5550132e-16 8.383863e-16)
(-2.3465882e-16 2.2667819e-16 1.4996246e-15)
(-4.0583243e-15 -8.7236639e-16 -1.3429605e-15)
(-5.8237189e-15 8.4462789e-16 7.5519031e-16)
(-5.1611762e-15 1.0100276e-15 9.7613867e-16)
(-1.7679952e-15 -8.1010255e-16 4.5192313e-16)
(-4.4158752e-15 1.0299569e-15 -9.452958e-16)
(-5946.4125 298.67408 37.788505)
(-5939.0655 344.02983 48.414727)
(-5931.2921 385.47058 56.90591)
(-5924.1483 423.43371 62.509156)
(-5917.6398 457.28522 66.527126)
(-5912.0976 488.18442 67.439154)
(-5907.6668 516.4101 67.699632)
(-5904.2287 543.31281 66.803416)
(-5902.2951 569.3585 65.080101)
(-5900.4847 596.2243 63.788617)
(-5899.8842 624.44918 63.598533)
(-5898.9828 655.50062 64.936166)
(-5897.6646 688.77588 68.554874)
(-5895.7142 725.3181 73.621716)
(-5892.6517 763.80971 80.980626)
(-18.004885 -50.910728 -65.118504)
(-3.4233772 -82.172626 -103.72147)
(4.1538619 -115.01161 -136.18885)
(3.610813 -151.8524 -161.83049)
(-8.8179686 -189.59666 -177.8562)
(-35.119836 -228.70372 -187.29693)
(-76.083428 -266.68549 -188.0103)
(-131.59628 -302.84464 -181.36531)
(-201.8476 -336.61334 -167.5931)
(-285.16948 -366.32272 -146.9665)
(-379.86706 -391.29578 -120.6652)
(-484.16351 -411.60744 -90.043859)
(-595.56305 -426.32153 -56.506324)
(-711.37339 -435.54779 -21.266563)
(-828.06775 -439.01086 13.241331)
(-943.38821 -437.65382 45.956279)
(-1054.9915 -432.08171 75.176745)
(-1160.0809 -422.38624 99.736226)
(-1257.375 -409.90161 118.09828)
(-1345.5512 -395.4544 130.44492)
(-1423.7626 -379.92854 135.61512)
(-1492.6115 -364.20055 134.37253)
(-1552.2385 -348.99619 126.98425)
(-1604.0824 -335.04431 114.05115)
(-1649.9568 -322.94891 96.869702)
(-1691.5121 -312.76478 76.913789)
(-1730.9153 -304.81167 55.307207)
(-1770.3972 -299.11742 33.544826)
(-1812.1343 -295.36113 13.035693)
(-1857.9806 -293.27587 -4.8415276)
(-1908.9557 -292.24097 -19.289619)
(-1966.8547 -291.96267 -29.651212)
(-2031.7346 -291.80477 -35.375805)
(-2103.9437 -290.95454 -36.823313)
(-2183.1169 -289.47176 -33.323098)
(-2268.0639 -286.25315 -26.153685)
(-2358.3718 -281.69338 -15.97611)
(-2452.0705 -275.15463 -3.5866489)
(-2547.6328 -266.55238 10.261699)
(-2643.8545 -256.49853 23.921146)
(-2738.4794 -244.73272 36.744632)
(-2830.6013 -231.8073 47.63192)
(-2918.7058 -218.0498 55.81403)
(-3001.9704 -203.98816 60.533176)
(-3079.7756 -190.05513 61.620507)
(-3151.9567 -176.77331 58.77922)
(-3218.6861 -164.53636 52.216027)
(-3280.535 -153.73251 42.257663)
(-3338.3358 -144.61503 29.491135)
(-3393.2202 -137.36806 14.638343)
(-3446.4387 -132.04504 -1.4453993)
(-3499.3888 -128.58744 -17.850046)
(-3553.4329 -126.83025 -33.655563)
(-3609.8956 -126.48926 -47.980489)
(-3669.9422 -127.20601 -60.036133)
(-3734.5399 -128.5306 -69.159153)
(-3804.3991 -129.97456 -74.840798)
(-3879.941 -131.01339 -76.756693)
(-3961.2678 -131.11448 -74.769488)
(-4048.1687 -129.78451 -68.938459)
(-4140.1024 -126.55811 -59.51154)
(-4236.257 -121.04878 -46.91085)
(-4335.5305 -112.97542 -31.758975)
(-4436.5749 -102.15137 -14.704475)
(-4538.0489 -88.463961 3.4073988)
(-4638.0831 -72.024406 21.420857)
(-4735.4132 -53.086371 38.918218)
(-4828.3881 -31.688407 54.727827)
(-4915.2621 -8.5480293 68.169394)
(-4995.1711 15.939129 78.011383)
(-5066.9024 41.156471 84.171791)
(-5129.7228 66.610449 86.14727)
(-5183.5341 91.507467 83.734213)
(-5228.2683 115.36823 76.973394)
(-5264.4724 137.5652 66.183748)
(-5292.9456 157.67059 51.857859)
(-5314.8985 175.2393 34.73114)
(-5331.756 190.09387 15.675353)
(-5345.2006 201.95045 -4.3002349)
(-5356.8613 211.0532 -24.163751)
(-5368.6694 217.3999 -42.895179)
(-5382.0925 221.22386 -59.463164)
(-5398.6389 223.09535 -73.041016)
(-5419.5725 223.35992 -83.028388)
(-5445.5126 222.73135 -88.892621)
(-5477.0721 221.50791 -90.532848)
(-5514.0982 220.37395 -87.841849)
(-5556.3333 219.82742 -81.476202)
(-5602.9472 220.17014 -71.408156)
(-5652.828 221.83363 -59.311632)
(-5704.3449 224.45052 -44.794258)
(-5757.2653 229.32316 -30.194287)
(-5807.7927 233.58611 -15.057023)
(-5858.2751 240.17988 -0.79184847)
(-5906.2715 246.66252 13.646615)
(0.48400944 46.363377 63.681406)
(-2.3845343 66.333434 67.382325)
(4.3344564 107.03152 95.960172)
(6.9759939 135.6482 104.13899)
(-7.4501399 179.89799 114.00908)
(-32.656294 223.50269 115.69435)
(-70.393636 266.47336 115.5034)
(-122.29085 310.93019 109.34855)
(-187.50769 352.60976 101.44312)
(-263.77913 391.13358 89.14079)
(-351.33886 425.6845 75.528782)
(-446.87591 454.36165 59.639643)
(-549.24428 477.76432 42.374076)
(-655.40383 494.41066 25.689987)
(-763.29232 504.56985 8.5205412)
(-870.45325 508.49392 -6.8017811)
(-975.15641 506.03671 -20.756852)
(-1074.591 499.03196 -32.378885)
(-1168.1906 487.24589 -41.382681)
(-1255.0137 472.36695 -47.597327)
(-1333.5585 455.82401 -50.832587)
(-1404.8469 438.22793 -51.639627)
(-1468.8199 421.21733 -49.402881)
(-1526.2228 405.92328 -45.528029)
(-1578.5365 392.91581 -39.903713)
(-1627.2412 383.45583 -32.716001)
(-1673.6275 377.56929 -25.322358)
(-1719.9361 375.70745 -17.632861)
(-1767.313 377.80771 -10.535491)
(-1817.6383 383.46605 -4.4702699)
(-1872.1719 392.29631 0.30885869)
(-1931.4881 403.7075 3.3712467)
(-1996.3799 416.72552 4.7983058)
(-2067.0591 430.62017 4.4244145)
(-2143.1386 444.53406 2.3501729)
(-2224.1428 457.4786 -0.74707785)
(-2309.4202 468.83401 -5.6514817)
(-2397.7703 478.25295 -10.875092)
(-2487.6055 485.02168 -16.474686)
(-2578.0541 489.0188 -21.969402)
(-2667.694 490.32175 -27.059436)
(-2755.4157 489.07974 -31.410144)
(-2840.2051 485.69873 -34.733769)
(-2921.3356 480.69596 -36.865502)
(-2998.295 474.73106 -37.685594)
(-3070.9001 468.51631 -37.163141)
(-3139.2025 462.79215 -35.326031)
(-3203.5698 458.2718 -32.278083)
(-3264.5735 455.60444 -28.163174)
(-3323.02 455.3244 -23.183976)
(-3379.8529 457.83989 -17.570262)
(-3436.132 463.38817 -11.584613)
(-3492.9558 472.04404 -5.5040152)
(-3551.4131 483.7049 0.38739572)
(-3612.5161 498.10001 5.8106406)
(-3677.1541 514.80977 10.502776)
(-3746.035 533.28448 14.23059)
(-3819.6528 552.87117 16.799413)
(-3898.2518 572.85332 18.066646)
(-3981.8099 592.47807 17.946556)
(-4070.0315 610.99859 16.422333)
(-4162.3566 627.70839 13.541684)
(-4257.9739 641.98279 9.4233212)
(-4355.8653 653.29169 4.2595391)
(-4454.8258 661.26367 -1.7248767)
(-4553.5484 665.66492 -8.2029717)
(-4650.6766 666.44 -14.87778)
(-4744.6497 663.73737 -21.352766)
(-4834.5328 657.71027 -27.299898)
(-4918.7796 649.0944 -32.251076)
(-4996.2823 638.3711 -36.052968)
(-5066.5756 626.17933 -38.194879)
(-5128.9785 613.46488 -38.576839)
(-5183.3024 601.02028 -36.987407)
(-5229.6347 589.70551 -33.318577)
(-5268.4214 580.32029 -27.599978)
(-5300.4083 573.58759 -19.949332)
(-5326.5693 570.07036 -10.570304)
(-5348.1831 570.22801 0.22274065)
(-5366.5916 574.23632 12.057861)
(-5383.3129 582.18332 24.462342)
(-5399.7725 593.84812 36.991235)
(-5417.362 608.88995 49.13577)
(-5437.2489 626.72987 60.487448)
(-5460.383 646.69534 70.638098)
(-5487.3515 667.94283 79.335953)
(-5518.45 689.63309 86.367686)
(-5553.5477 710.85371 91.711624)
(-5592.2291 730.79867 95.373923)
(-5633.7246 748.73561 97.517734)
(-5677.0977 764.0931 98.379311)
(-5721.2015 776.61909 98.064802)
(-5765.0408 786.35302 96.925738)
(-5807.7449 793.32213 95.040909)
(-5848.5444 799.2661 92.185582)
(3.2927448e-15 -1.3239155e-15 2.3845803e-16)
(2.4470133e-15 -9.6672015e-16 3.215493e-17)
(-9.0574249e-15 9.0550918e-16 6.4029168e-16)
(-1.2642219e-16 -5.721845e-16 4.4370095e-16)
(-7.6811722e-15 -4.9270561e-16 4.1193361e-16)
(-7.3893964e-15 2.7533729e-15 -1.0951501e-15)
(-3.2915852e-15 -8.1743692e-16 3.8364228e-16)
(-1.9032499e-15 5.3200654e-16 -8.2319016e-17)
(-4.7409759e-15 -4.8623412e-16 4.3918642e-16)
(-1.2869644e-14 1.1845665e-15 6.4228907e-16)
(-9.6157521e-15 1.4157374e-15 5.9836601e-16)
(-9.4077204e-15 4.9518432e-16 1.1192419e-15)
(-5.982767e-15 2.6210694e-16 3.0473736e-16)
(-1.1478475e-14 -5.3386198e-16 1.6580808e-15)
(-5.257323e-15 3.6289085e-16 2.8600704e-16)
(-21.708341 21.60385 -52.423851)
(-9.7454076 95.328792 -95.301834)
(12.263298 96.175802 -128.69015)
(11.423981 147.72765 -157.18925)
(5.7390606 178.54088 -174.66573)
(-21.430309 216.32299 -180.90052)
(-57.696393 253.39994 -180.62664)
(-114.32643 292.91979 -173.776)
(-181.02674 324.71658 -155.92056)
(-263.51903 361.1821 -134.57575)
(-357.51239 392.16064 -107.3375)
(-458.77752 414.79562 -75.725272)
(-568.26059 442.70854 -42.083818)
(-681.10548 455.46695 -7.9759951)
(-794.51501 474.33761 25.44505)
(-906.53399 480.82202 55.21891)
(-1015.6141 486.06286 80.77087)
(-1115.3357 487.57719 103.08817)
(-1211.5886 485.59852 116.27151)
(-1294.2693 480.37231 124.95866)
(-1370.8858 474.9871 125.96206)
(-1438.005 468.15696 120.46099)
(-1495.6637 459.38158 109.53837)
(-1546.5445 453.02007 93.614702)
(-1591.9051 447.44861 74.102592)
(-1633.2861 442.54934 52.520256)
(-1672.9772 443.01867 30.585704)
(-1713.8665 441.32937 7.9543729)
(-1755.8019 446.12666 -10.772266)
(-1803.7802 450.62508 -28.14194)
(-1855.8378 458.09489 -40.385557)
(-1915.229 466.97024 -48.213776)
(-1981.5185 477.20958 -50.935474)
(-2054.9373 488.06514 -48.727733)
(-2135.5877 499.99317 -42.561698)
(-2221.1228 508.915 -31.681461)
(-2312.2744 520.57422 -18.212617)
(-2406.0798 529.09555 -3.0206798)
(-2501.4416 536.62627 12.942788)
(-2596.7631 542.47022 28.487985)
(-2690.2661 546.66319 42.460172)
(-2780.602 549.2486 53.927832)
(-2866.5831 550.39837 62.109407)
(-2947.34 550.38437 66.474654)
(-3022.3834 549.56677 66.715837)
(-3091.5843 548.34023 62.82554)
(-3155.2023 547.14603 55.023535)
(-3213.8385 546.41763 43.783519)
(-3268.3987 546.56713 29.763326)
(-3320.0423 547.95987 13.794926)
(-3370.0955 550.89047 -3.1992075)
(-3419.9938 555.57205 -20.224811)
(-3471.1818 562.12004 -36.308295)
(-3525.0497 570.54842 -50.514276)
(-3582.8429 580.76796 -62.025879)
(-3645.6108 592.58599 -70.162218)
(-3714.1312 605.71921 -74.43481)
(-3788.8871 619.80078 -74.553156)
(-3870.0212 634.39443 -70.453871)
(-3957.3359 649.02271 -62.295534)
(-4050.2908 663.16875 -50.45141)
(-4148.026 676.32704 -35.494899)
(-4249.3987 687.9945 -18.162104)
(-4353.0305 697.73297 0.66582823)
(-4457.3752 705.14423 20.050842)
(-4560.714 709.98382 38.981226)
(-4661.6142 711.78616 56.402876)
(-4757.4669 711.94443 71.493046)
(-4849.4144 707.33637 82.887942)
(-4931.8404 701.45994 91.431698)
(-5007.732 693.0936 94.798555)
(-5074.0704 682.99653 93.712163)
(-5131.401 671.51884 87.875581)
(-5179.4468 659.43762 77.512739)
(-5218.6757 647.29382 63.081414)
(-5249.8917 635.7731 45.216042)
(-5274.1992 625.47296 24.769751)
(-5293.0333 616.94278 2.7540706)
(-5308.0181 610.65296 -19.732968)
(-5320.9122 606.93752 -41.539806)
(-5333.4884 606.01019 -61.536228)
(-5347.4497 607.92674 -78.688485)
(-5364.2931 612.59229 -92.103766)
(-5385.2622 619.77014 -101.11383)
(-5411.2094 629.07721 -105.29325)
(-5442.6036 640.03443 -104.51461)
(-5479.443 652.06843 -98.935652)
(-5521.3088 664.57201 -89.013103)
(-5567.3643 676.93772 -75.438836)
(-5616.4505 688.5925 -59.125654)
(-5667.1824 699.10245 -41.066332)
(-5718.0932 708.10812 -22.314024)
(-5767.8266 715.58074 -3.7418897)
(-5815.4235 721.70021 14.059181)
(-5860.3223 726.99615 30.520789)
(-5910.2452 687.00615 57.515127)
(-5912.6717 644.13555 65.771108)
(-5915.5805 604.27527 71.653505)
(-5915.4389 568.9159 75.442082)
(-5918.8164 536.47615 75.900695)
(-5918.1981 508.21991 75.333788)
(-5922.8977 481.39273 71.567918)
(-5925.0762 456.46757 68.180001)
(-5928.7487 431.11802 63.570446)
(-5935.2119 406.01772 59.461003)
(-5942.7102 378.4465 56.339568)
(-5948.2561 347.25049 54.569144)
(-5956.7062 314.03596 55.501695)
(-5963.9694 276.19183 57.718719)
(-5970.939 235.14568 63.821143)
(-5934.8109 188.36878 71.183254)
(-5892.0218 182.00965 71.437357)
(-5846.1957 177.26271 72.144382)
(-5799.1759 174.50855 72.432093)
(-5751.1021 174.10018 71.655874)
(-5702.6928 176.48414 70.870874)
(-5655.6921 181.68188 68.901292)
(-5610.9476 189.33998 65.929014)
(-5569.519 199.02126 61.716517)
(-5531.9803 210.10328 56.075789)
(-5498.876 221.64032 49.169546)
(-5469.9802 232.9845 40.933777)
(-5445.224 242.92905 31.705284)
(-5423.5926 250.77768 21.612342)
(-5404.4979 255.83903 11.124658)
(-5386.5176 257.21993 0.55860635)
(-5368.3193 254.57486 -9.5676938)
(-5348.4304 247.60959 -18.879924)
(-5325.3668 236.21124 -26.970298)
(-5297.7314 220.56377 -33.498307)
(-5264.311 201.00214 -38.211575)
(-5224.0992 178.08258 -40.947777)
(-5176.3805 152.49413 -41.680837)
(-5120.7944 125.15827 -40.46524)
(-5057.1445 96.752886 -37.309159)
(-4986.034 68.426928 -32.819601)
(-4907.8687 42.023682 -26.959021)
(-4822.6818 15.020836 -20.020593)
(-4732.8512 -7.345607 -12.42649)
(-4639.0162 -27.318412 -5.1623674)
(-4542.5084 -43.587581 2.1962412)
(-4444.5996 -56.031764 8.9813768)
(-4346.7119 -64.552944 15.004584)
(-4250.0381 -69.332065 20.030984)
(-4155.6818 -70.678623 23.914243)
(-4064.561 -69.10212 26.554048)
(-3977.383 -65.225911 27.901811)
(-3894.6205 -59.790496 27.959496)
(-3816.5015 -53.586161 26.765162)
(-3742.9987 -47.432544 24.399889)
(-3673.8464 -42.112055 20.972389)
(-3608.5442 -38.354653 16.626081)
(-3546.3957 -36.770964 11.530887)
(-3486.5325 -37.847583 5.8843908)
(-3427.9693 -41.896527 -0.095662881)
(-3369.6488 -49.060413 -6.1673431)
(-3310.5012 -59.285898 -12.089171)
(-3249.5155 -72.345328 -17.60441)
(-3185.7786 -87.829431 -22.484064)
(-3118.558 -105.20386 -26.502837)
(-3047.3653 -123.78416 -29.505855)
(-2971.8775 -142.84777 -31.354363)
(-2892.2574 -161.64788 -31.976825)
(-2808.6358 -179.43125 -31.438682)
(-2721.7173 -195.43956 -29.710585)
(-2632.5062 -209.20767 -27.049066)
(-2542.0409 -220.43537 -23.695488)
(-2450.763 -227.81698 -19.772023)
(-2361.5051 -234.55113 -15.386334)
(-2273.6913 -236.43743 -11.476928)
(-2189.4295 -236.4782 -8.1162669)
(-2110.4773 -235.65991 -5.006271)
(-2035.7068 -232.85294 -3.36892)
(-1966.9835 -230.26423 -2.7581979)
(-1903.2468 -228.88289 -3.4452068)
(-1845.7168 -227.67533 -5.5319282)
(-1791.7009 -231.16769 -8.5971023)
(-1741.858 -235.04993 -12.989629)
(-1693.8396 -244.52156 -17.627175)
(-1646.184 -257.0067 -22.442608)
(-1597.3761 -273.38886 -27.257865)
(-1546.5078 -293.65319 -31.408173)
(-1489.8764 -315.59366 -34.944925)
(-1428.9184 -341.07166 -36.10973)
(-1360.99 -366.36349 -35.89834)
(-1284.702 -392.69475 -33.62656)
(-1202.6985 -415.82644 -28.866247)
(-1111.6132 -438.72101 -21.982571)
(-1015.951 -454.36568 -12.951779)
(-914.68194 -467.29883 -2.4784062)
(-810.47843 -473.88555 9.806482)
(-704.767 -472.14741 22.403075)
(-600.4362 -462.60284 35.309586)
(-500.23585 -448.41404 48.942463)
(-404.22898 -424.68159 61.072985)
(-316.19902 -394.52301 72.033406)
(-239.19954 -359.84004 82.097895)
(-170.76673 -319.67049 89.47352)
(-115.57801 -276.66185 94.584328)
(-71.432618 -232.92679 97.378153)
(-41.489184 -186.8578 96.223483)
(-22.592129 -143.32119 92.244214)
(-14.634561 -103.48424 83.298912)
(-16.129248 -68.437334 66.11057)
(-27.239185 -38.896698 40.124038)
(-6.8708141e-15 1.5083581e-15 1.9262289e-16)
(-1.2504183e-14 5.7375616e-16 8.4327435e-16)
(-8.3449101e-15 1.4891922e-15 5.3018253e-16)
(-4.9731758e-15 1.4991158e-15 6.2376313e-16)
(-3.4146159e-15 1.5624416e-15 3.1576894e-17)
(2.0582335e-15 9.3962624e-16 -5.746342e-16)
(2.2101935e-15 3.7457559e-17 -1.1841335e-16)
(2.4553765e-15 -8.5141669e-16 -9.3419562e-16)
(1.2987427e-15 1.0081898e-16 1.7950851e-15)
(-4.5074861e-15 9.063971e-16 1.0710522e-15)
(-5.2682467e-15 2.1856155e-15 1.0652666e-15)
(-7.4917339e-15 1.915055e-15 2.2418828e-16)
(-9.400838e-15 1.3708275e-15 6.2833768e-16)
(-6.2048683e-15 1.3247981e-15 5.4317906e-16)
(-6.971104e-15 1.5128103e-15 7.5678131e-16)
(-1.2693866e-14 6.2923345e-15 -2.1364834e-15)
(-5.2452578e-15 2.6791924e-15 -5.3037742e-16)
(-1.0752404e-15 9.8318743e-16 -1.0111087e-16)
(-2.7353382e-15 1.7746034e-15 7.3085398e-17)
(1.0178949e-15 -1.5450237e-16 -4.119182e-16)
(-1.4303492e-15 4.136346e-16 -3.3264033e-16)
(-1.0059749e-14 4.7133437e-15 -1.6449855e-15)
(2.9801421e-15 -1.9180379e-15 -8.3172098e-16)
(-4.79756e-15 2.8035442e-15 1.1420498e-15)
(-5.4778068e-15 3.5047253e-15 -3.934403e-16)
(-1.8117877e-15 1.1581936e-15 -9.1309836e-16)
(-3.9812639e-16 4.7407236e-16 -2.2932148e-16)
(-1.5272242e-15 1.100363e-15 -2.2557932e-16)
(-4.1024849e-15 1.9838802e-15 2.8069696e-17)
(-5.3424143e-16 2.551799e-16 -1.9455919e-16)
(-5895.3215 808.3804 89.176744)
(-5902.6926 812.32068 88.453286)
(-5910.7796 816.65694 86.377751)
(-5919.2096 820.89121 83.228291)
(-5927.2364 824.47875 78.851191)
(-5934.173 827.17339 73.629375)
(-5939.3935 828.25283 67.94477)
(-5942.466 827.3344 62.225752)
(-5943.2344 824.0598 56.94569)
(-5941.7578 818.25929 52.425662)
(-5938.1011 809.71903 49.266538)
(-5932.9472 798.55928 47.158693)
(-5926.5154 785.04246 46.609477)
(-5919.7841 769.14195 46.91673)
(-5912.3022 751.26373 47.708722)
(-5964.728 239.36307 27.259094)
(-5976.5716 226.91654 26.761186)
(-5988.0128 216.36494 26.833115)
(-5998.0166 207.38582 28.016475)
(-6006.834 200.13405 30.553026)
(-6013.3594 194.56234 34.285656)
(-6017.3686 190.63352 39.066211)
(-6018.6745 188.19269 44.469618)
(-6017.3178 187.04862 50.117304)
(-6013.6258 186.97529 55.637627)
(-6008.0403 187.58465 60.438989)
(-6001.376 188.76865 64.440837)
(-5994.3225 189.88556 67.242022)
(-5987.4829 191.26683 68.544999)
(-5981.7134 192.26275 69.564481)
(-2.5844659 -49.347906 -69.484903)
(8.0870039 -79.836746 -91.055969)
(17.783515 -110.94267 -122.0691)
(16.916318 -139.70616 -140.10578)
(6.0330912 -167.70421 -155.46124)
(-20.506516 -194.88895 -162.45025)
(-60.819925 -220.57464 -163.37365)
(-117.02738 -244.97855 -157.4062)
(-186.99231 -266.7058 -145.33077)
(-270.81253 -286.03034 -127.58439)
(-366.43179 -302.10252 -104.65105)
(-471.79148 -315.32518 -78.374103)
(-584.18628 -324.70036 -49.112548)
(-701.01872 -331.31682 -18.964856)
(-819.16263 -334.54724 11.203426)
(-936.12878 -335.21363 39.307783)
(-1049.1379 -332.99408 64.693266)
(-1155.7828 -329.12422 85.856677)
(-1254.3235 -323.22632 102.185)
(-1343.5915 -316.36179 112.70765)
(-1422.9062 -308.57871 117.57367)
(-1492.3946 -300.23714 116.6639)
(-1552.6061 -291.97003 110.41895)
(-1604.7213 -283.69352 99.617167)
(-1650.3985 -275.78876 85.062852)
(-1691.6121 -268.32059 67.981946)
(-1730.5625 -261.35184 49.492432)
(-1769.4919 -254.82928 30.814647)
(-1810.3973 -248.71213 13.231949)
(-1855.2033 -242.81497 -2.2570155)
(-1905.6538 -237.12484 -15.037795)
(-1962.5919 -231.36017 -24.058873)
(-2026.644 -225.3273 -29.343639)
(-2098.0913 -218.92933 -30.67678)
(-2176.6642 -212.07799 -28.136028)
(-2261.5038 -204.46087 -22.300296)
(-2351.4712 -196.359 -13.925874)
(-2445.1533 -187.54525 -3.4148234)
(-2541.024 -178.10315 8.0511452)
(-2637.3998 -168.30903 19.633205)
(-2732.5251 -158.1351 30.435386)
(-2824.9616 -147.79701 39.708289)
(-2913.571 -137.69006 46.512119)
(-2997.2886 -127.72824 50.604481)
(-3075.433 -118.31787 51.443881)
(-3147.8781 -109.52687 49.016667)
(-3214.7352 -101.53364 43.376431)
(-3276.5576 -94.398635 34.846615)
(-3334.1781 -88.186136 23.897366)
(-3388.71 -82.881084 11.159041)
(-3441.4339 -78.438147 -2.6415442)
(-3493.7489 -74.740075 -16.724287)
(-3547.0595 -71.643139 -30.288269)
(-3602.7201 -68.938266 -42.579837)
(-3661.9381 -66.399184 -52.909127)
(-3725.7264 -63.755492 -60.701314)
(-3794.8419 -60.735439 -65.514013)
(-3869.7466 -57.051057 -67.064926)
(-3950.5883 -52.435468 -65.233879)
(-4037.184 -46.645399 -60.071628)
(-4129.0346 -39.479418 -51.804605)
(-4225.3198 -30.771733 -40.799576)
(-4324.9732 -20.490136 -27.594498)
(-4426.6344 -8.544602 -12.75661)
(-4528.9175 4.9578826 2.826122)
(-4630.0079 19.753771 18.554351)
(-4728.4363 35.951888 33.74567)
(-4822.6792 53.095945 47.190711)
(-4911.0477 71.037235 58.938236)
(-4992.1385 89.279275 67.215255)
(-5065.1254 107.61825 72.443119)
(-5129.218 125.60514 74.050071)
(-5184.0251 142.91778 71.873137)
(-5229.6124 159.29813 66.002833)
(-5266.4015 174.50065 56.679013)
(-5295.2068 188.34385 44.360629)
(-5317.2339 200.67676 29.703243)
(-5333.8677 211.4678 13.447997)
(-5346.8427 220.70812 -3.5386856)
(-5357.8605 228.50682 -20.388242)
(-5368.7624 234.95121 -36.141568)
(-5381.1388 240.21522 -50.014227)
(-5396.6062 244.54525 -61.334112)
(-5416.3932 248.39003 -69.398912)
(-5441.3932 251.73334 -73.938058)
(-5471.8507 254.90649 -74.81443)
(-5508.1623 258.04824 -72.071491)
(-5549.6498 261.39889 -65.970259)
(-5596.0177 265.00656 -56.978197)
(-5645.5695 268.99539 -45.635073)
(-5697.3458 273.19536 -32.752358)
(-5750.4878 278.05244 -18.865009)
(-5801.2972 282.54753 -4.6436467)
(-5852.7572 288.36193 9.3708296)
(-5900.2567 293.72124 23.872529)
(14.36042 -46.222969 -63.749523)
(24.307724 -67.151309 -84.54543)
(29.047654 -98.652909 -107.32826)
(29.248362 -120.20266 -124.07271)
(15.743379 -143.12101 -135.61198)
(-10.482195 -162.58311 -141.45834)
(-51.990923 -181.24204 -141.79025)
(-107.93087 -197.37321 -136.56627)
(-178.65063 -211.87129 -126.03158)
(-262.74383 -224.03531 -110.30547)
(-358.55562 -234.22286 -90.843225)
(-464.07322 -242.22437 -67.593643)
(-576.66276 -248.32996 -42.576577)
(-693.70322 -252.46389 -16.262408)
(-812.14985 -254.94295 9.4996485)
(-929.43607 -255.93078 34.132091)
(-1042.4758 -255.70538 55.95228)
(-1149.6326 -254.2897 74.402137)
(-1248.5907 -252.19993 88.371307)
(-1338.3938 -249.30289 97.693774)
(-1418.2352 -245.81063 101.87668)
(-1488.3153 -241.91889 101.26058)
(-1549.0494 -237.53499 95.92765)
(-1601.8346 -232.76172 86.66602)
(-1648.096 -227.55471 74.156543)
(-1689.8456 -221.99176 59.436675)
(-1729.249 -215.86002 43.417683)
(-1768.424 -209.32446 27.3744)
(-1809.5457 -202.24446 12.081578)
(-1854.5069 -194.68206 -1.4365084)
(-1904.6661 -186.59031 -12.484893)
(-1961.3393 -177.95745 -20.495306)
(-2025.1588 -168.94661 -25.224876)
(-2096.228 -159.46973 -26.61404)
(-2174.2678 -149.62221 -24.678315)
(-2258.6092 -139.58302 -19.885009)
(-2347.9958 -129.42593 -12.738868)
(-2441.1624 -119.17584 -3.9803946)
(-2536.5283 -109.1071 5.7621505)
(-2632.4197 -99.336217 15.59305)
(-2727.23 -89.949357 24.776836)
(-2819.4468 -81.035264 32.689214)
(-2907.8621 -72.811601 38.47083)
(-2991.4294 -65.167371 41.805017)
(-3069.6133 -58.275565 42.512295)
(-3142.0985 -52.050444 40.357041)
(-3209.0772 -46.487865 35.476677)
(-3271.0277 -41.498184 28.098995)
(-3328.7877 -37.002138 18.663497)
(-3383.4295 -32.881973 7.6871036)
(-3436.2299 -29.007776 -4.1858813)
(-3488.5656 -25.23274 -16.291623)
(-3541.8409 -21.409009 -27.933219)
(-3597.4037 -17.368978 -38.463703)
(-3656.4718 -12.96205 -47.279367)
(-3720.0684 -8.0246776 -53.89107)
(-3788.9643 -2.4135345 -57.911793)
(-3863.6423 4.0030773 -59.102502)
(-3944.2695 11.33582 -57.358711)
(-4030.6847 19.658376 -52.736839)
(-4122.3975 29.022079 -45.425799)
(-4218.6197 39.426635 -35.765566)
(-4318.2707 50.813152 -24.200068)
(-4420.0519 63.142536 -11.255119)
(-4522.4739 76.266692 2.281029)
(-4623.8897 89.889098 16.185419)
(-4722.6789 104.38284 28.832767)
(-4817.4592 119.13974 40.823426)
(-4906.5314 133.39972 50.552005)
(-4988.3189 147.32173 57.961081)
(-5061.9618 160.9802 62.439261)
(-5126.7412 173.99143 63.864935)
(-5182.2203 186.22715 62.066782)
(-5228.4141 197.69745 57.071474)
(-5265.7785 208.30668 49.130924)
(-5295.0661 218.0939 38.660625)
(-5317.4402 227.03329 26.20371)
(-5334.332 235.2758 12.391064)
(-5347.4083 242.82707 -2.0024585)
(-5358.3651 249.85795 -16.212981)
(-5369.1041 256.46757 -29.477491)
(-5381.1899 262.8002 -41.12528)
(-5396.3095 268.89316 -50.31001)
(-5415.6327 275.03338 -57.229784)
(-5439.8105 281.08944 -60.773251)
(-5469.7113 286.96431 -61.012354)
(-5505.3296 292.83023 -58.043358)
(-5546.2557 298.79601 -52.237902)
(-5591.9042 304.75755 -43.710358)
(-5641.1136 310.63367 -33.30444)
(-5692.1988 316.39141 -21.161475)
(-5745.322 322.47585 -8.3213557)
(-5795.7054 327.63078 5.4244917)
(-5847.3627 333.92666 19.1104)
(-5894.3432 339.81096 33.56782)
(23.661738 -37.358786 -57.403193)
(33.658505 -56.554982 -73.181404)
(42.432721 -80.108855 -94.905614)
(39.222328 -98.920261 -107.80747)
(25.02475 -115.77389 -117.2609)
(-3.0548402 -130.96382 -121.7789)
(-44.772658 -143.49509 -122.08532)
(-101.79594 -154.45164 -117.45145)
(-172.68141 -163.33111 -107.99001)
(-256.92623 -171.01782 -94.918095)
(-352.7263 -176.69006 -77.6909)
(-458.16669 -181.53536 -58.146358)
(-570.56412 -184.77676 -36.345734)
(-687.30288 -187.47215 -14.059607)
(-805.60787 -189.01506 8.4496628)
(-922.48181 -190.24599 29.290812)
(-1035.7472 -190.66474 48.276644)
(-1142.74 -191.0214 63.956328)
(-1241.9344 -190.7318 76.170551)
(-1332.0269 -190.27509 84.118928)
(-1412.4064 -189.32735 87.891804)
(-1483.0821 -187.90453 87.312704)
(-1544.6368 -185.91709 82.861172)
(-1598.1456 -183.19808 74.926123)
(-1645.266 -179.74914 64.267246)
(-1687.8282 -175.33 51.587996)
(-1727.9725 -169.94757 37.897443)
(-1767.8442 -163.59756 24.00261)
(-1809.4762 -156.24294 10.811031)
(-1854.7249 -147.91752 -0.94133136)
(-1905.1407 -138.75264 -10.587749)
(-1961.8215 -128.84579 -17.678742)
(-2025.4276 -118.3301 -21.963258)
(-2096.134 -107.38277 -23.309829)
(-2173.7135 -96.225841 -21.853596)
(-2257.4723 -84.985188 -17.975727)
(-2346.2366 -73.924735 -12.067509)
(-2438.7412 -63.225115 -4.6492514)
(-2533.4427 -53.015723 3.5636448)
(-2628.7072 -43.491365 11.901256)
(-2722.9518 -34.711118 19.721298)
(-2814.742 -26.784433 26.390672)
(-2902.7258 -19.746074 31.338627)
(-2986.053 -13.541317 34.199398)
(-3064.082 -8.0959361 34.77999)
(-3136.5519 -3.3656538 32.935803)
(-3203.5932 0.82152649 28.741332)
(-3265.6961 4.6133973 22.417839)
(-3323.6502 8.1744221 14.313635)
(-3378.5197 11.679772 4.8958634)
(-3431.5502 15.300105 -5.2955942)
(-3484.0949 19.196341 -15.682118)
(-3537.5432 23.51924 -25.662962)
(-3593.2281 28.400288 -34.675615)
(-3652.363 33.948916 -42.200167)
(-3715.9667 40.260562 -47.811746)
(-3784.8161 47.394546 -51.17458)
(-3859.4025 55.392566 -52.083974)
(-3939.9019 64.264466 -50.453449)
(-4026.1635 73.985304 -46.330513)
(-4117.72 84.508518 -39.89197)
(-4213.7826 95.73829 -31.426441)
(-4313.2897 107.56368 -21.320072)
(-4414.9851 119.85422 -10.105868)
(-4517.2417 132.41435 1.7759123)
(-4618.9155 144.99529 13.607126)
(-4717.3569 157.85466 24.907429)
(-4811.8245 169.52674 35.35536)
(-4901.1707 181.36137 43.647346)
(-4983.1403 192.85471 49.981539)
(-5057.015 203.65717 53.776)
(-5122.1154 213.84708 54.916196)
(-5177.9706 223.25968 53.267231)
(-5224.6846 232.03078 48.894225)
(-5262.604 240.19421 42.067647)
(-5292.451 247.79868 33.072196)
(-5315.4326 254.98101 22.468222)
(-5332.8717 261.84861 10.759356)
(-5346.4483 268.51356 -1.3397838)
(-5357.8568 275.13034 -13.244436)
(-5368.8857 281.75933 -24.22083)
(-5381.1796 288.51016 -33.713025)
(-5396.2909 295.38862 -41.171586)
(-5415.3034 302.37505 -46.430221)
(-5439.424 309.84026 -48.240243)
(-5469.0064 317.30753 -47.816636)
(-5504.2152 324.90152 -44.542144)
(-5544.5717 332.61662 -38.864365)
(-5589.7915 340.11554 -30.837283)
(-5638.341 347.59427 -21.079785)
(-5689.1619 354.63004 -9.9019676)
(-5741.8902 361.82578 2.3468718)
(-5791.8884 368.04756 15.016381)
(-5843.3964 375.09608 28.326396)
(-5889.4952 381.40392 41.979305)
(30.033699 -33.287105 -49.170869)
(44.034348 -45.936568 -64.569772)
(50.575247 -64.466041 -80.724111)
(46.773407 -77.715229 -91.258305)
(30.904211 -90.590186 -98.898061)
(2.4992166 -100.90593 -102.71846)
(-40.696892 -109.40862 -102.67348)
(-97.891828 -115.87558 -98.308388)
(-169.11205 -121.20153 -90.778269)
(-253.41025 -124.83926 -79.105993)
(-349.03604 -127.68105 -64.97581)
(-454.05159 -129.6213 -48.047415)
(-565.89264 -131.05727 -30.015274)
(-682.20832 -132.11773 -10.80004)
(-799.7152 -132.97148 7.7269418)
(-916.35844 -133.83472 25.605799)
(-1028.918 -134.68275 41.308718)
(-1135.7835 -135.62734 54.630432)
(-1234.8056 -136.51605 64.715125)
(-1325.0705 -137.40675 71.415715)
(-1405.7015 -137.94748 74.406558)
(-1476.9342 -138.19412 73.89959)
(-1539.1063 -137.72447 69.999218)
(-1593.5277 -136.56512 63.236697)
(-1641.5429 -134.2967 54.087804)
(-1685.0943 -130.98262 43.324694)
(-1726.1845 -126.40207 31.636377)
(-1766.9127 -120.55749 19.818598)
(-1809.2962 -113.41635 8.538763)
(-1855.1361 -105.11569 -1.4658782)
(-1905.9007 -95.718727 -9.7402884)
(-1962.7646 -85.410198 -15.858936)
(-2026.3119 -74.412092 -19.569444)
(-2096.8082 -62.944401 -20.862283)
(-2173.9585 -51.259744 -19.775099)
(-2257.1092 -39.641273 -16.628047)
(-2345.189 -28.314021 -11.708985)
(-2436.9147 -17.553529 -5.5506775)
(-2530.8549 -7.4798221 1.245931)
(-2625.346 1.804011 8.231089)
(-2718.8702 10.070736 14.725429)
(-2809.99 17.374656 20.243992)
(-2897.5159 23.631523 24.360555)
(-2980.4699 28.988724 26.711013)
(-3058.2799 33.521954 27.110707)
(-3130.6953 37.379822 25.474111)
(-3197.8325 40.750023 21.869165)
(-3260.1439 43.843867 16.461342)
(-3318.4108 46.868996 9.5754161)
(-3373.6585 50.027954 1.5934759)
(-3427.1002 53.519231 -7.0197456)
(-3480.0611 57.512871 -15.769282)
(-3533.9008 62.153161 -24.143096)
(-3589.93 67.555353 -31.666674)
(-3649.3421 73.799949 -37.895129)
(-3713.1457 80.935564 -42.472935)
(-3782.1112 88.970899 -45.116194)