/*--------------------------------*- C++ -*----------------------------------*\
  =========                 |
  \\      /  F ield         | OpenFOAM: The Open Source CFD Toolbox
   \\    /   O peration     | Website:  https://openfoam.org
    \\  /    A nd           | Version:  6
     \\/     M anipulation  |
\*---------------------------------------------------------------------------*/
FoamFile
{
    version     2.0;
    format      ascii;
    class       pointVectorField;
    location    "1.61";
    object      lm;
}
// * * * * * * * * * * * * * * * * * * * * * * * * * * * * * * * * * * * * * //

dimensions      [1 -2 -1 0 0 0 0];

internalField   nonuniform List<vector> 
625
(
(0 0 0)
(0 0 0)
(-3595.0476 -166.26387 -303.288)
(-3624.0021 809.41263 -650.97291)
(0 0 0)
(0 0 0)
(-3256.1108 895.19102 -644.87777)
(-3242.9049 -83.069447 -300.04111)
(0 0 0)
(0 0 0)
(0 0 0)
(-3323.2637 63.728975 -356.56439)
(-3433.4151 293.46034 -449.50332)
(-3707.879 568.54186 -574.23761)
(-9.9914731 -20.136027 -13.100626)
(-33.910417 -41.233934 2.6929311)
(-68.415496 -65.515788 10.307951)
(-115.48994 -92.458951 20.856244)
(-173.74598 -118.29187 28.966152)
(-247.13509 -148.14038 35.074891)
(-333.79724 -177.59224 38.521903)
(-436.0174 -207.49553 38.906584)
(-555.11746 -238.67992 35.954911)
(-688.7 -268.23191 29.806118)
(-839.41378 -297.24732 19.139058)
(-1005.2976 -323.14784 5.4040256)
(-1185.7527 -344.85825 -11.873146)
(-1378.6497 -360.88781 -31.904858)
(-1581.4243 -369.91234 -54.110806)
(-1791.4041 -371.19008 -78.024436)
(-2005.3021 -364.1366 -103.09867)
(-2220.1162 -349.96982 -128.6005)
(-2434.0197 -328.11221 -154.85532)
(-2644.8209 -300.63007 -180.866)
(-2852.7112 -269.04221 -207.54101)
(-3057.1493 -234.3118 -234.69875)
(-3256.281 -196.94366 -262.43053)
(-2.3136207 13.609738 17.836361)
(-30.381104 33.365828 -3.3566123)
(-63.97538 54.374324 -6.8759998)
(-107.92041 75.164729 -22.716907)
(-161.8414 91.471475 -33.495429)
(-229.27836 116.42774 -49.695534)
(-305.09304 134.32149 -64.916846)
(-393.65336 158.64806 -84.255635)
(-494.20307 183.14459 -103.87288)
(-608.23902 210.06257 -126.88565)
(-737.55087 240.88913 -151.93688)
(-882.48647 274.20351 -179.80232)
(-1044.9628 311.52957 -210.63976)
(-1224.9394 352.024 -244.28362)
(-1422.5506 395.83981 -280.91352)
(-1636.7829 442.2586 -319.91557)
(-1865.7619 490.68921 -361.01479)
(-2106.7932 540.03499 -403.43982)
(-2356.24 589.41319 -446.64688)
(-2609.9513 637.38421 -489.52295)
(-2863.4101 683.21701 -531.40863)
(-3111.6251 725.74175 -571.46878)
(-3366.8206 767.28852 -611.14892)
(0 0 0)
(0 0 0)
(0 0 0)
(6.5937875 8.4304156 -20.489386)
(9.0290708 47.510978 -38.770589)
(-6.9017117 57.710432 -48.421221)
(-22.811995 85.824716 -62.643623)
(-61.672984 114.97658 -79.076635)
(-104.5466 136.89757 -91.931335)
(-160.4192 167.93064 -112.03518)
(-231.47651 197.30284 -130.63443)
(-312.58494 229.69722 -152.31196)
(-409.03117 265.09233 -176.16592)
(-520.10021 302.29596 -201.76389)
(-648.03696 344.1431 -230.13695)
(-793.16564 387.0623 -259.87327)
(-956.20351 433.64535 -291.69921)
(-1137.0483 481.70915 -324.91145)
(-1334.5761 530.78711 -359.07677)
(-1547.4011 580.77134 -394.12804)
(-1772.5442 629.87695 -429.44419)
(-2007.0439 677.97989 -464.81916)
(-2246.8446 723.71462 -499.77585)
(-2488.0717 766.6521 -534.21022)
(-2726.8706 806.19108 -567.60362)
(-2945.4364 837.68939 -597.3054)
(-3349.7652 658.29165 -571.59172)
(-3050.9429 369.50641 -440.77918)
(-3064.8711 144.30619 -362.39195)
(-2943.7706 -117.38438 -259.96555)
(-2748.4458 -153.95085 -228.73336)
(-2536.8883 -187.52034 -195.66706)
(-2322.557 -217.26609 -162.07557)
(-2105.9845 -242.52035 -128.45745)
(-1888.9053 -262.2274 -95.281657)
(-1673.6765 -275.74115 -63.135409)
(-1462.9179 -282.80755 -32.616409)
(-1260.0906 -283.48403 -4.6112927)
(-1067.9769 -278.14504 20.150832)
(-889.62472 -267.46327 41.201986)
(-726.92445 -252.61119 57.93744)
(-581.24361 -234.24532 70.532041)
(-453.45887 -214.37601 79.114718)
(-344.71456 -193.55884 83.267967)
(-247.40738 -168.71568 85.321073)
(-171.69257 -148.68087 83.807934)
(-108.63026 -124.26915 77.755336)
(-59.223211 -103.7274 73.482742)
(-24.10811 -78.072373 63.128438)
(-3.3620535 -62.175509 55.324257)
(10.291802 -35.850298 39.758099)
(0.64071189 -16.052077 22.883386)
(0 0 0)
(0 0 0)
(0 0 0)
(0 0 0)
(0 0 0)
(0 0 0)
(-3531.3442 831.63087 -648.91724)
(-3439.4463 853.49609 -647.87926)
(-3346.9384 875.01708 -646.14815)
(-3508.0644 -146.39291 -303.30329)
(-3420.0081 -124.95721 -302.48424)
(-3331.6555 -103.71076 -301.09148)
(-1.7042652 -4.3730923 -5.6099413)
(-22.36281 -14.141149 4.184523)
(-50.30059 -27.737064 4.6672183)
(-91.655675 -41.242492 10.958459)
(-143.66887 -59.028078 11.697047)
(-214.56094 -77.094299 12.823504)
(-297.98788 -95.544579 9.9945615)
(-402.71245 -114.85146 5.6180834)
(-523.82232 -133.20736 -3.2298536)
(-665.05349 -149.14211 -14.965125)
(-824.11521 -162.77998 -30.988743)
(-999.28994 -171.24244 -50.097373)
(-1188.2018 -174.77236 -72.395991)
(-1386.7729 -172.03424 -96.758854)
(-1590.7357 -163.16713 -122.67713)
(-1796.0076 -148.32732 -149.23759)
(-1998.5378 -128.81781 -175.6687)
(-2196.7244 -105.53395 -201.79666)
(-2389.5258 -79.291069 -227.58729)
(-2578.1162 -52.133184 -252.80971)
(-2764.9933 -23.345832 -278.32872)
(-2953.0855 5.2948344 -304.39891)
(-3162.2443 35.149324 -333.03012)
(2.7544787 -4.3219811 -0.13927478)
(-24.053085 -9.4099885 1.3511027)
(-55.854815 -14.92025 0.67808776)
(-102.45535 -20.599858 -0.19757867)
(-162.89227 -24.444593 -4.206263)
(-233.18189 -27.293434 -9.1977849)
(-317.11393 -30.576485 -16.075429)
(-412.95842 -30.298646 -26.570474)
(-520.14932 -30.097333 -38.046249)
(-640.00904 -26.856947 -52.938197)
(-771.57089 -22.273401 -69.774978)
(-916.15323 -14.913504 -89.378474)
(-1073.8978 -4.9614811 -111.36972)
(-1245.1373 7.8857451 -135.76577)
(-1430.199 24.142657 -162.48152)
(-1628.9613 43.579625 -191.16059)
(-1841.1805 66.554867 -221.75113)
(-2066.3014 92.944048 -254.12726)
(-2302.8478 122.70402 -287.91735)
(-2549.3479 155.10777 -322.69543)
(-2803.2964 190.65082 -359.14967)
(-3062.3049 228.27203 -395.61726)
(-3308.5113 266.27922 -430.64661)
(4.7275909 2.637791 7.1048805)
(-30.798474 12.494184 -0.74074839)
(-65.075619 19.38909 -6.110252)
(-121.86386 30.421193 -15.650496)
(-182.23852 41.095296 -25.497623)
(-254.23708 48.170489 -35.634704)
(-334.41563 59.809117 -49.387427)
(-421.02542 68.82893 -62.24228)
(-515.43178 79.555529 -77.5743)
(-618.63963 91.4006 -94.017647)
(-731.88433 104.16449 -112.27628)
(-858.13584 119.70024 -132.71956)
(-999.38592 137.41446 -155.50228)
(-1158.8689 158.73362 -181.19123)
(-1338.6266 183.80575 -209.91597)
(-1540.7527 213.24235 -242.03997)
(-1765.9684 247.35565 -277.52437)
(-2013.4697 286.04416 -316.24125)
(-2281.2128 328.96478 -357.65735)
(-2564.715 375.76637 -401.4541)
(-2858.19 424.42271 -445.96672)
(-3154.3635 475.04211 -491.06887)
(-3419.3491 520.27847 -530.67405)
(0 0 0)
(0 0 0)
(0 0 0)
(0 0 0)
(0 0 0)
(0 0 0)
(0 0 0)
(0 0 0)
(0 0 0)
(-7.3689588 7.6422764 4.9062611)
(-6.033368 8.3992825 -5.9233119)
(-0.61435371 1.4187116 -10.842384)
(-30.983432 47.272598 -12.189002)
(-18.786864 44.718309 -20.417619)
(-8.8275635 35.12043 -28.968243)
(-57.561794 57.425184 -17.034352)
(-46.142096 51.997688 -26.328625)
(-29.938818 53.93953 -39.389052)
(-96.391392 81.283518 -32.680177)
(-76.646102 83.866814 -42.869394)
(-53.568374 75.15911 -53.325317)
(-148.27879 103.75642 -44.46508)
(-123.94056 101.7663 -54.204915)
(-97.133029 103.58056 -67.248159)
(-207.84494 124.20476 -59.666612)
(-178.58245 127.34516 -70.891083)
(-145.06908 127.111 -82.340073)
(-279.81011 148.41563 -76.381307)
(-245.98274 153.52492 -86.927607)
(-207.42542 153.75844 -100.70033)
(-364.47071 173.31891 -95.6548)
(-323.91858 178.04941 -105.42447)
(-282.25443 182.18562 -118.78426)
(-460.27482 199.3482 -115.88018)
(-416.06914 208.22902 -126.50586)
(-368.20525 212.63631 -139.95731)
(-570.45737 229.78554 -138.87371)
(-521.06734 239.04423 -149.5369)
(-468.79358 246.23188 -163.11517)
(-694.75199 261.451 -164.43228)
(-640.97897 273.27469 -174.94078)
(-583.76137 281.9424 -188.53461)
(-835.52337 297.72916 -192.62988)
(-777.13616 311.08415 -202.75095)
(-715.4756 321.77167 -216.49227)
(-993.1486 336.44411 -223.40631)
(-930.50813 351.46238 -233.21196)
(-864.05914 363.97676 -246.77102)
(-1168.291 378.86107 -256.99729)
(-1101.2826 395.17999 -266.40529)
(-1030.3357 409.14748 -279.17501)
(-1360.7749 423.669 -292.97835)
(-1289.7769 441.22741 -301.60582)
(-1214.4582 457.06098 -313.59374)
(-1569.7132 470.85137 -330.95442)
(-1494.6942 489.39118 -339.0478)
(-1415.3252 506.26751 -349.49707)
(-1793.197 519.32373 -370.65885)
(-1714.5596 538.5397 -377.71156)
(-1631.6276 556.77126 -386.48865)
(-2028.5971 568.18967 -411.28787)
(-1946.5544 588.05853 -417.25224)
(-1860.6938 607.17882 -424.09794)
(-2272.4213 616.49646 -452.31927)
(-2187.5058 636.70557 -456.95602)
(-2099.3021 656.57521 -461.83841)
(-2520.6921 663.12745 -492.99759)
(-2433.3589 683.64013 -496.21834)
(-2343.4572 704.08676 -499.13806)
(-2769.0052 707.05089 -532.60753)
(-2679.9435 727.68054 -534.40345)
(-2589.0148 748.56485 -535.76284)
(-3013.394 747.75551 -570.46316)
(-2923.1301 768.46772 -571.04336)
(-2831.6777 789.72888 -570.99769)
(-3249.9611 784.27972 -605.72425)
(-3158.9977 805.19615 -605.37568)
(-3067.9704 826.58469 -604.41357)
(-3267.2823 83.241693 -359.29674)
(-3184.8059 103.22826 -358.84292)
(-3101.4439 122.66084 -357.70743)
(-3312.5402 310.06703 -444.41041)
(-3237.9612 331.6881 -445.12262)
(-3153.1401 351.30445 -444.0838)
(-3586.3723 586.23521 -568.47354)
(-3509.221 611.19892 -569.56707)
(-3415.9951 632.35983 -568.51578)
(-17.511635 -20.187494 -0.34196522)
(-12.680366 -18.605694 9.3297715)
(-10.044957 -10.020478 14.70375)
(-31.517185 -43.626357 15.650163)
(-21.578545 -36.040655 24.443299)
(-7.9495447 -26.758373 32.788116)
(-62.602736 -70.04512 23.942412)
(-43.942302 -62.85266 31.088723)
(-29.646067 -53.6671 44.997556)
(-100.26861 -92.028226 33.974858)
(-79.909624 -83.018233 43.45716)
(-56.150316 -74.634922 55.465081)
(-154.36278 -120.50765 40.868797)
(-127.35429 -110.50352 51.540639)
(-96.699722 -100.75213 63.517679)
(-220.11996 -146.00021 47.571464)
(-186.09504 -133.67248 56.155818)
(-151.55134 -122.1984 69.411881)
(-301.30117 -173.93098 49.605584)
(-263.16499 -162.12215 60.481837)
(-222.00166 -148.43274 74.507707)
(-398.115 -202.00256 50.041243)
(-353.44912 -187.26725 61.357723)
(-306.21587 -173.63068 75.628074)
(-510.45111 -230.88876 46.815185)
(-458.44716 -213.52743 59.421594)
(-405.99367 -197.56174 73.5504)
(-636.88193 -256.56448 40.944004)
(-584.45115 -240.54075 52.831143)
(-525.25199 -222.10264 68.535493)
(-784.1856 -282.99584 30.56479)
(-722.9966 -264.4227 44.300152)
(-660.01481 -245.54961 59.658561)
(-945.13274 -306.1804 17.14917)
(-879.20222 -286.36653 30.801759)
(-811.8827 -266.26551 46.326838)
(-1121.4286 -325.40006 0.072384409)
(-1051.2538 -304.60661 14.049428)
(-979.65846 -283.41866 29.221048)
(-1310.6244 -339.46516 -19.959631)
(-1236.6367 -317.94644 -6.5124156)
(-1161.559 -295.77493 8.0755577)
(-1510.5645 -347.1531 -42.731202)
(-1433.5354 -325.07232 -30.027574)
(-1355.3521 -302.24916 -16.368163)
(-1718.3879 -347.79271 -67.543865)
(-1638.6678 -325.43913 -55.943277)
(-1558.0261 -302.1676 -43.547236)
(-1930.8808 -341.07651 -93.706826)
(-1849.1236 -318.60654 -83.663715)
(-1766.5875 -295.16225 -72.865991)
(-2145.2069 -327.24841 -120.93848)
(-2062.0802 -304.6268 -112.62511)
(-1978.1467 -281.40396 -103.3489)
(-2359.2776 -306.56881 -148.70324)
(-2275.0123 -284.3176 -142.08138)
(-2189.9028 -261.43456 -134.62116)
(-2570.9261 -280.13474 -176.92698)
(-2485.9933 -258.08098 -171.8158)
(-2400.4382 -235.84487 -166.25728)
(-2779.2393 -249.34495 -205.15291)
(-2694.239 -227.63021 -201.97491)
(-2608.5192 -205.85273 -197.86217)
(-2985.0222 -215.04767 -234.13619)
(-2900.1221 -193.70713 -231.71057)
(-2814.1254 -172.44175 -229.07241)
(-3189.3827 -178.42987 -263.06275)
(-3104.2113 -157.58163 -261.49274)
(-3018.36 -136.70452 -260.18452)
(9.83692 -8.5984818 12.753188)
(15.381712 -31.262419 23.122691)
(10.539069 -33.85272 25.807263)
(-8.7666822 -46.656398 32.285162)
(-36.161144 -56.482555 36.971129)
(-81.583578 -66.532592 38.031223)
(-140.43157 -78.35767 39.180898)
(-217.05509 -87.229242 34.981212)
(-314.54676 -97.152299 28.706808)
(-431.85474 -104.26192 17.785117)
(-570.34609 -109.23111 2.1112501)
(-729.17738 -110.44689 -17.805943)
(-906.28506 -107.59686 -42.163337)
(-1097.6192 -100.17011 -69.741555)
(-1298.7647 -87.920959 -99.652958)
(-1504.1821 -71.183037 -130.68655)
(-1709.2743 -50.552609 -161.84076)
(-1910.0188 -26.71759 -192.26087)
(-2104.3061 -0.70019861 -221.5443)
(-2291.8997 26.87033 -249.69161)
(-2473.7742 55.225556 -276.76079)
(-2653.1173 83.889377 -302.90039)
(-2821.853 112.57008 -328.2935)
(20.595966 -6.5766104 4.8046223)
(23.003657 -7.570026 6.3304751)
(7.1858262 -6.5917894 3.4715705)
(-11.628496 -7.6252216 5.4751649)
(-48.957774 -6.7728876 0.46994513)
(-98.215285 -1.7253637 -6.2592982)
(-159.66008 1.2090712 -13.686341)
(-237.10395 7.9686761 -25.593818)
(-327.8183 15.422527 -38.469285)
(-432.87067 25.326962 -55.436456)
(-552.40032 36.204084 -73.108711)
(-686.43756 50.06385 -93.83821)
(-833.90231 65.525087 -116.03422)
(-994.48143 83.329802 -140.03816)
(-1166.9328 103.30934 -165.49826)
(-1350.1513 125.51693 -192.57481)
(-1543.499 149.82275 -220.88909)
(-1745.8077 176.39113 -250.43623)
(-1956.8846 205.04932 -281.30844)
(-2176.0286 236.10908 -313.19824)
(-2402.5711 268.98478 -346.2148)
(-2636.1812 304.05103 -380.17223)
(-2906.5618 344.61546 -420.16306)
(25.583904 15.848114 -12.903085)
(14.581699 24.076968 -19.983025)
(1.0578421 50.549824 -29.763144)
(-25.221983 53.982142 -35.839405)
(-68.196428 76.461654 -49.205819)
(-119.82846 90.837021 -58.392973)
(-179.96206 105.15908 -71.778633)
(-250.70144 122.57376 -85.179769)
(-329.46722 137.35927 -99.95615)
(-418.47272 154.94943 -115.94664)
(-517.47607 172.32207 -133.41624)
(-629.42881 192.2739 -152.99942)
(-755.45219 214.21633 -174.82608)
(-898.54678 238.68924 -199.17607)
(-1060.6788 266.70071 -226.57106)
(-1243.9946 298.09945 -256.74526)
(-1449.5514 333.31815 -289.86181)
(-1677.3377 372.53653 -325.55326)
(-1925.7932 415.25333 -363.66423)
(-2191.5156 461.04278 -403.30442)
(-2469.7973 508.82589 -444.32491)
(-2753.9656 557.54458 -485.56355)
(-3048.7932 607.52088 -528.38604)
(-3.7020605 -4.1591403 0.0047203842)
(0.3306031 -3.8956136 3.9688484)
(-0.072638097 -2.4221793 8.4683221)
(-21.103089 -21.596453 8.7441348)
(-14.122745 -18.163523 12.308596)
(-0.50770361 -20.616299 17.811049)
(-44.664135 -30.742621 10.412901)
(-26.772029 -26.360384 14.818944)
(-14.164422 -27.533426 22.299989)
(-78.313238 -46.561705 16.088388)
(-60.697431 -41.198921 22.794111)
(-38.707271 -41.759466 28.568237)
(-125.82889 -60.717238 19.232722)
(-100.84356 -53.386712 24.712342)
(-73.383208 -52.256596 31.886704)
(-188.97515 -76.551366 19.684812)
(-158.04243 -68.104743 26.737458)
(-124.3558 -66.214673 34.446289)
(-266.25568 -92.470192 18.115338)
(-229.91939 -83.006075 27.091324)
(-191.13234 -78.396038 33.830956)
(-364.32548 -109.59628 14.927904)
(-321.94069 -96.673093 23.047656)
(-275.39277 -90.012066 30.649126)
(-480.27378 -123.78418 6.2537911)
(-430.84432 -110.80439 15.752959)
(-378.99943 -102.27145 23.128332)
(-616.10007 -138.15635 -4.5525064)
(-561.38739 -122.5368 5.2044409)
(-503.19972 -110.54541 12.396393)
(-771.49361 -148.53422 -20.314846)
(-710.63427 -131.5408 -10.686814)
(-646.577 -118.06174 -3.443584)
(-943.79093 -155.33433 -39.308078)
(-877.87262 -136.98286 -30.035376)
(-809.02691 -120.96122 -23.066401)
(-1131.5519 -157.19117 -62.010824)
(-1061.023 -137.56545 -53.291404)
(-987.68404 -119.95374 -46.903602)
(-1329.906 -153.40211 -87.332764)
(-1255.4613 -132.909 -79.588375)
(-1178.7204 -113.81737 -73.754726)
(-1534.7865 -143.9049 -114.56364)
(-1457.3426 -122.71814 -107.72314)
(-1377.8554 -102.87459 -102.63982)
(-1741.2726 -128.91965 -142.71287)
(-1661.4847 -107.53825 -136.94291)
(-1580.0841 -87.131378 -132.62495)
(-1945.334 -109.52161 -170.95665)
(-1864.0158 -87.831505 -166.20929)
(-1781.3389 -67.327303 -162.75813)
(-2144.1624 -86.202242 -198.79399)
(-2061.9585 -64.592219 -195.13121)
(-1978.6377 -44.33548 -192.22982)
(-2336.8413 -60.272593 -226.06562)
(-2254.0804 -39.001118 -222.97803)
(-2170.2417 -18.953989 -220.99821)
(-2527.6927 -33.253534 -252.83528)
(-2436.7724 -11.730417 -250.08281)
(-2356.7537 7.8841721 -248.72234)
(-2706.8461 -4.6589266 -278.54993)
(-2622.26 16.321205 -277.355)
(-2539.8667 35.70023 -275.695)
(-2888.1379 24.511258 -304.57661)
(-2805.7932 44.907966 -303.32241)
(-2722.4191 64.053872 -302.33504)
(-3074.1445 53.717555 -331.47901)
(-2991.5998 73.75983 -330.488)
(-2908.3787 93.16149 -329.72532)
(-0.75668355 -4.4686735 0.90927129)
(3.9179144 -3.9170167 4.9084854)
(6.1745957 -6.748988 5.472257)
(-19.198758 -10.003379 5.4009804)
(-9.4366713 -9.1035502 7.5343638)
(5.0881011 -10.317251 7.3054094)
(-49.296281 -14.552755 3.7281119)
(-32.275454 -12.90992 3.6642833)
(-17.760827 -12.728701 5.6042216)
(-87.056952 -18.100867 4.3920115)
(-68.658531 -12.280627 5.664861)
(-43.840748 -10.006321 6.1326887)
(-144.51989 -20.655463 0.082907669)
(-116.77591 -15.478039 -0.85999118)
(-86.047946 -14.487504 2.2593605)
(-208.15567 -22.108504 -5.436298)
(-176.48452 -14.446513 -3.8474556)
(-141.32745 -10.053036 -4.1388041)
(-289.19329 -23.328056 -11.598886)
(-252.0268 -13.758723 -12.884346)
(-210.02724 -7.2910551 -11.588675)
(-381.6303 -21.119819 -23.445205)
(-338.63694 -9.9526471 -23.653733)
(-290.56672 -3.235479 -22.954064)
(-486.284 -19.252709 -35.020938)
(-437.9956 -6.1724759 -35.63222)
(-385.73486 3.21595 -35.866471)
(-604.47346 -14.243358 -50.768842)
(-551.69237 0.71892294 -52.188523)
(-493.92183 11.330895 -52.217261)
(-734.93539 -7.516494 -68.46528)
(-677.24014 9.1184875 -69.806254)
(-615.01802 21.311553 -70.143896)
(-878.06735 1.7381823 -88.685627)
(-816.64716 19.42601 -90.551995)
(-750.38892 33.210108 -90.65694)
(-1034.0001 13.388205 -111.48608)
(-969.04612 32.604939 -113.40965)
(-898.79311 47.657855 -113.4274)
(-1202.0349 27.926683 -136.24076)
(-1133.9637 48.089605 -138.34934)
(-1060.611 64.205185 -137.90508)
(-1382.349 45.345929 -163.14076)
(-1311.5351 66.279537 -165.16225)
(-1235.327 83.217204 -164.30872)
(-1574.242 65.578238 -191.59726)
(-1500.7961 87.094058 -193.52632)
(-1422.3018 104.84297 -192.34251)
(-1777.3928 88.810096 -221.65178)
(-1701.4806 110.82535 -223.26917)
(-1621.1994 129.00993 -221.87066)
(-1991.2274 115.13618 -252.97861)
(-1913.0326 137.12328 -254.33914)
(-1831.1313 155.8526 -252.67698)
(-2214.9906 143.9806 -285.6003)
(-2134.4467 166.26841 -286.36162)
(-2051.2423 185.2546 -284.89534)
(-2447.8724 175.56475 -318.88498)
(-2364.4675 197.82932 -319.83684)
(-2280.7888 217.15503 -318.00994)
(-2675.5849 209.24607 -352.84076)
(-2622.6928 233.27006 -355.34201)
(-2518.217 251.67165 -352.4422)
(-2933.9778 246.20179 -389.03194)
(-2848.4798 267.35949 -388.89804)
(-2762.0054 287.62255 -387.46337)
(-3185.0803 283.86077 -425.0228)
(-3097.8173 305.31006 -424.46816)
(-3010.5101 325.65283 -423.36173)
(0.99324927 7.0849952 3.4366866)
(7.5228579 4.2665179 -1.39162)
(12.225033 7.2819342 -6.034694)
(-29.628293 15.834713 -4.1785493)
(-19.832128 11.372922 -9.5523767)
(-4.0076084 18.335718 -15.437445)
(-59.837593 27.717316 -11.269783)
(-42.614525 35.79707 -18.338704)
(-25.919019 39.70675 -23.892602)
(-110.50963 41.013057 -19.612444)
(-87.177425 40.319075 -25.138428)
(-60.939945 47.727157 -29.585326)
(-165.99078 50.438669 -30.944705)
(-137.35114 58.548893 -36.634029)
(-107.18947 63.330725 -42.423102)
(-233.84907 62.292224 -40.197198)
(-200.65386 68.549913 -46.264077)
(-164.28005 78.361018 -51.358664)
(-309.4579 74.245992 -54.454484)
(-271.10335 82.867942 -60.625316)
(-229.61198 91.663835 -65.499673)
(-392.2944 85.140418 -67.451441)
(-349.62444 95.832821 -72.434575)
(-303.50461 106.46786 -78.706982)
(-483.42652 97.860229 -82.668098)
(-436.45017 108.81433 -88.576682)
(-386.50317 121.32477 -94.016681)
(-583.18128 110.99055 -99.3738)
(-532.78443 124.02938 -104.54332)
(-478.4825 137.43755 -110.01931)
(-693.19566 125.52428 -117.3501)
(-638.78886 139.41163 -122.45069)
(-581.10199 154.2682 -127.94674)
(-815.6593 142.2558 -137.68052)
(-757.54296 157.39594 -142.68289)
(-696.48606 173.3664 -147.63464)
(-952.62212 161.19185 -160.18721)
(-890.68947 177.56669 -164.68835)
(-826.31718 195.08614 -169.46045)
(-1106.9114 183.54553 -185.44705)
(-1040.9981 200.84777 -189.64491)
(-973.24236 219.29924 -193.98133)
(-1280.5452 209.25443 -213.72257)
(-1210.7688 227.51749 -217.36967)
(-1139.6068 247.29743 -221.31449)
(-1475.5293 239.06851 -245.17793)
(-1401.8166 258.23517 -248.25666)
(-1326.9902 278.84402 -251.75775)
(-1692.6255 273.14863 -279.87)
(-1615.1959 293.05253 -282.31668)
(-1536.7949 314.42727 -285.36804)
(-1931.4558 311.4361 -317.56007)
(-1850.4327 332.14139 -319.38844)
(-1768.4401 353.76927 -321.80803)
(-2190.107 353.68221 -357.93432)
(-2105.8102 374.75027 -359.04601)
(-2020.6802 396.80481 -360.98303)
(-2464.8074 399.10281 -400.29355)
(-2377.7627 420.83921 -400.77045)
(-2289.6519 442.72001 -401.87642)
(-2750.5478 446.71808 -443.64447)
(-2660.9108 468.76879 -443.84727)
(-2570.7358 490.42569 -444.21412)
(-3040.187 495.48491 -487.4772)
(-2949.0498 517.43842 -486.99055)
(-2856.9408 539.33155 -486.97442)
(-3326.6145 543.2527 -530.10162)
(-3233.9988 565.38859 -529.13361)
(-3140.9993 587.01342 -528.7096)
)
;

boundaryField
{
    free
    {
        type            zeroGradient;
    }
    fixed
    {
        type            fixedValue;
        value           uniform (0 0 0);
    }
    traction
    {
        type            zeroGradient;
    }
}


// ************************************************************************* //
