/*--------------------------------*- C++ -*----------------------------------*\
  =========                 |
  \\      /  F ield         | OpenFOAM: The Open Source CFD Toolbox
   \\    /   O peration     | Website:  https://openfoam.org
    \\  /    A nd           | Version:  6
     \\/     M anipulation  |
\*---------------------------------------------------------------------------*/
FoamFile
{
    version     2.0;
    format      ascii;
    class       pointVectorField;
    location    "0.07";
    object      u;
}
// * * * * * * * * * * * * * * * * * * * * * * * * * * * * * * * * * * * * * //

dimensions      [0 1 0 0 0 0 0];

internalField   nonuniform List<vector> 
28033
(
(0 0 0)
(0 0 0)
(0.091231636 0.024727456 0.00019497591)
(0.089818638 -0.027698332 -3.7873231e-05)
(0 0 0)
(0 0 0)
(0.089802878 -0.027715924 0.0001159945)
(0.091252936 0.024631104 -3.2217141e-05)
(0 0 0)
(0 0 0)
(0 0 0)
(0 0 0)
(0 0 0)
(0 0 0)
(0 0 0)
(0 0 0)
(0 0 0)
(0 0 0)
(0 0 0)
(0 0 0)
(0 0 0)
(0 0 0)
(0 0 0)
(0.091052103 0.020874854 -7.2551322e-05)
(0.090779277 0.017444293 -8.3797355e-05)
(0.090510104 0.014145867 -0.00014004829)
(0.09031626 0.010923227 -0.00011964933)
(0.090135589 0.0077784122 -9.9088267e-05)
(0.089979604 0.0046814985 -5.5802785e-05)
(0.089862679 0.0016162558 -6.6399314e-07)
(0.089771153 -0.0014342114 6.5453379e-05)
(0.089707951 -0.0044836899 0.00012347845)
(0.089671219 -0.0075620583 0.00018657884)
(0.089659962 -0.010659041 0.00022762635)
(0.089664862 -0.013829303 0.00024522283)
(0.089710745 -0.017050118 0.00024830733)
(0.089730436 -0.020393644 0.00023180126)
(0.089833462 -0.02386155 0.00013598017)
(3.9107439e-05 3.6586633e-05 2.2646782e-05)
(7.7313466e-05 4.7509119e-05 1.9734072e-05)
(0.00012290668 5.108771e-05 1.0213228e-05)
(0.00017472427 5.0332147e-05 -2.1240548e-06)
(0.00023222041 4.251333e-05 -2.0190864e-05)
(0.00029731013 2.8729642e-05 -4.3260549e-05)
(0.00037031647 6.9495297e-06 -7.329411e-05)
(0.00045128673 -2.4444466e-05 -0.00011097942)
(0.00054029971 -6.615922e-05 -0.00015701385)
(0.00063460706 -0.00012132251 -0.00021135123)
(0.00073072543 -0.0001915917 -0.00027421713)
(0.00082476947 -0.00027668995 -0.00034327897)
(0.00090997453 -0.00037929191 -0.00041724607)
(0.0009798373 -0.00049877869 -0.00049266245)
(0.0010243461 -0.00063587938 -0.00056503136)
(0.0010343322 -0.00078730236 -0.00062959616)
(0.0010016614 -0.00095115097 -0.00068233693)
(0.00091829396 -0.0011248267 -0.00071909653)
(0.00077742353 -0.0013042543 -0.00073232624)
(0.00057527246 -0.0014834771 -0.00072350669)
(0.0003116739 -0.0016604982 -0.00069153732)
(-8.9946004e-06 -0.0018264006 -0.00063498315)
(-0.00038317951 -0.0019812393 -0.00056224003)
(-0.00079937738 -0.0021191365 -0.00047495088)
(-0.0012472982 -0.0022359065 -0.00037852562)
(-0.0017176881 -0.0023340784 -0.00028274484)
(-0.0022000887 -0.0024070516 -0.00018838642)
(-0.0026889648 -0.00245887 -9.9249876e-05)
(-0.003177802 -0.0024857244 -1.6174972e-05)
(-0.0036674166 -0.0024926081 6.2492504e-05)
(-0.0041562636 -0.0024737646 0.00013997949)
(-0.0046477913 -0.002432613 0.00022109718)
(-0.0051434914 -0.0023692734 0.00030912031)
(-0.0056448708 -0.0022762878 0.00040670996)
(-0.0061494175 -0.0021582179 0.00051655302)
(-0.0066506512 -0.0020051845 0.00063444074)
(-0.007143362 -0.001822488 0.00076043168)
(-0.0076179912 -0.001602096 0.00089071079)
(-0.0080618259 -0.0013462218 0.0010205051)
(-0.0084664206 -0.0010553631 0.0011459799)
(-0.0088223731 -0.00072906811 0.0012652233)
(-0.009120704 -0.00037028329 0.0013753377)
(-0.0093577807 1.8544245e-05 0.0014764321)
(-0.0095295391 0.00043504466 0.0015699189)
(-0.0096336787 0.00087487909 0.0016553121)
(-0.0096705386 0.0013360737 0.0017359563)
(-0.0096396133 0.0018159295 0.0018116225)
(-0.009540862 0.002312996 0.001883807)
(-0.0093734471 0.0028258887 0.0019519223)
(-0.0091356408 0.0033540328 0.0020152648)
(-0.0088250536 0.0038968854 0.0020724215)
(-0.0084387547 0.0044542481 0.0021219075)
(-0.0079736941 0.0050257632 0.0021624824)
(-0.0074271328 0.0056110721 0.0021935352)
(-0.0067969261 0.0062095157 0.0022153592)
(-0.0060817622 0.0068203248 0.0022290586)
(-0.0052810118 0.0074423426 0.0022366981)
(-0.0043946517 0.0080743359 0.0022405424)
(-0.0034229083 0.0087149727 0.0022430448)
(-0.0023656514 0.009362452 0.0022460912)
(-0.0012225814 0.010015349 0.0022509531)
(7.4907262e-06 0.010672022 0.0022576417)
(0.0013257336 0.011330882 0.0022657926)
(0.0027354897 0.011989833 0.0022734825)
(0.004235868 0.012648249 0.0022810027)
(0.0058324489 0.013304038 0.0022832521)
(0.0075224742 0.013954477 0.0022830895)
(0.0093085272 0.014598245 0.0022777077)
(0.011189197 0.015237929 0.0022666022)
(0.013165235 0.015865397 0.002251142)
(0.015232946 0.016483901 0.0022315247)
(0.017393949 0.017088824 0.0022072188)
(0.019645182 0.017681287 0.0021764672)
(0.021986801 0.018255917 0.0021417658)
(0.024416091 0.018818512 0.0020988275)
(0.026934545 0.019354699 0.0020526013)
(0.029534497 0.019881982 0.0019952168)
(0.032223099 0.020374429 0.0019365723)
(0.034983226 0.020860449 0.0018663558)
(0.037829974 0.021304458 0.0017974253)
(0.040739489 0.021743498 0.0017155959)
(0.043725628 0.022135017 0.0016421429)
(0.046771418 0.022518769 0.0015527411)
(0.049879916 0.02285544 0.0014740178)
(0.053045327 0.02318115 0.001383062)
(0.056265635 0.023463035 0.0012951557)
(0.059538681 0.023718675 0.0012016999)
(0.06285091 0.023941193 0.0011133343)
(0.066215848 0.024137628 0.0010089531)
(0.069605692 0.024306123 0.00091743492)
(0.073051037 0.024409457 0.00083186536)
(0.076506275 0.02458596 0.00070274528)
(0.080016355 0.024601398 0.00066384225)
(0.083582332 0.0247277 0.00053353495)
(0.08714298 0.024812948 0.00049457157)
(1.2280476e-05 -1.1121505e-05 -1.0113648e-05)
(4.5505332e-05 -1.1537431e-05 9.6576298e-07)
(8.5049872e-05 -9.3867219e-06 1.1945203e-05)
(0.00013312315 8.7115224e-07 2.8369165e-05)
(0.00018855322 1.5829156e-05 4.6772209e-05)
(0.000252619 3.8047861e-05 7.0972479e-05)
(0.00032516301 6.8437078e-05 0.00010021621)
(0.00040622973 0.00010899661 0.00013766687)
(0.00049574729 0.00016074675 0.00018246526)
(0.00059055155 0.00022627065 0.00023689629)
(0.00068919092 0.00030639689 0.00029925983)
(0.00078543184 0.0004039687 0.00036973389)
(0.00087318091 0.00051718609 0.00044554624)
(0.00094603363 0.00064932187 0.00052424006)
(0.00099387632 0.00079672352 0.0006013216)
(0.0010078351 0.00096061491 0.00067316662)
(0.00097851314 0.0011367017 0.00073225546)
(0.00089353805 0.001320717 0.0007733603)
(0.00075144237 0.0015113911 0.00079578507)
(0.00054700207 0.0017000691 0.00079134162)
(0.00027618477 0.0018844376 0.0007616296)
(-5.1338047e-05 0.0020600139 0.00071138384)
(-0.00042976293 0.0022187842 0.00063794325)
(-0.00085249066 0.0023639916 0.00055360252)
(-0.0013032278 0.0024851096 0.00046089818)
(-0.0017734459 0.00258491 0.00036631814)
(-0.0022546992 0.0026635671 0.00027546428)
(-0.002737552 0.0027171876 0.00019006733)
(-0.0032224466 0.0027502973 0.00010961248)
(-0.0037063841 0.0027594951 3.3236593e-05)
(-0.0041924341 0.0027484755 -4.3767893e-05)
(-0.0046835565 0.002712734 -0.00012502864)
(-0.00518083 0.0026540912 -0.00021408704)
(-0.0056837948 0.0025685209 -0.00031352155)
(-0.0061906006 0.002455246 -0.00042446133)
(-0.0066954981 0.0023089774 -0.00054592284)
(-0.0071890321 0.0021311414 -0.00067600836)
(-0.0076627346 0.001918914 -0.00081048788)
(-0.0081074322 0.0016714426 -0.00094694591)
(-0.0085125712 0.0013897426 -0.0010812768)
(-0.0088692043 0.0010749073 -0.0012103918)
(-0.0091707094 0.0007291551 -0.0013323311)
(-0.0094117168 0.00035497061 -0.0014458132)
(-0.0095890521 -4.5046375e-05 -0.0015505979)
(-0.0097009024 -0.00046836095 -0.001647211)
(-0.0097464591 -0.00091273011 -0.0017364936)
(-0.0097252732 -0.0013763118 -0.0018194086)
(-0.0096367495 -0.001857657 -0.0018965643)
(-0.0094796832 -0.0023557246 -0.0019680567)
(-0.0092521084 -0.0028697828 -0.0020333374)
(-0.008951356 -0.0033993412 -0.002091355)
(-0.0085743427 -0.0039440424 -0.0021408447)
(-0.0081180561 -0.004503564 -0.002180741)
(-0.0075800124 -0.0050775197 -0.0022105971)
(-0.006958654 -0.0056653888 -0.0022308904)
(-0.0062534646 -0.0062664786 -0.0022430946)
(-0.0054648752 -0.0068798792 -0.0022495536)
(-0.0045938492 -0.0075045551 -0.0022530305)
(-0.0036413694 -0.0081393088 -0.0022562583)
(-0.0026078881 -0.0087829358 -0.0022612979)
(-0.0014930089 -0.0094341933 -0.0022693573)
(-0.00029516761 -0.010091989 -0.0022802271)
(0.00098792104 -0.010755094 -0.0022930626)
(0.002359256 -0.011422632 -0.0023057397)
(0.0038215648 -0.012093324 -0.0023165813)
(0.00537757 -0.012766463 -0.0023232206)
(0.0070285629 -0.013440382 -0.0023247913)
(0.0087749458 -0.014114069 -0.0023200386)
(0.010615932 -0.014785978 -0.0023112805)
(0.012551389 -0.015452434 -0.0022919452)
(0.014581342 -0.016119285 -0.0022708265)
(0.016700192 -0.016773999 -0.0022430778)
(0.018911669 -0.017425457 -0.0022095858)
(0.021211249 -0.018065234 -0.002170237)
(0.023599981 -0.018696391 -0.0021240333)
(0.026074995 -0.019315181 -0.0020710675)
(0.028635702 -0.019922025 -0.0020102883)
(0.03128002 -0.020515039 -0.0019426931)
(0.03400423 -0.021092888 -0.001868239)
(0.036806563 -0.021654869 -0.0017880191)
(0.039682692 -0.02219876 -0.0017030429)
(0.042629325 -0.02272338 -0.0016139429)
(0.045642453 -0.023227914 -0.0015218196)
(0.048719452 -0.023709473 -0.0014265984)
(0.05185418 -0.024168589 -0.0013299614)
(0.055046679 -0.024603285 -0.0012294135)
(0.058289296 -0.025012741 -0.0011281173)
(0.061580825 -0.025395749 -0.0010252649)
(0.064916853 -0.02575613 -0.00091836359)
(0.068295144 -0.026086404 -0.00081350247)
(0.071707108 -0.026392604 -0.00070705461)
(0.075165884 -0.026680018 -0.00060098033)
(0.078652606 -0.026948197 -0.00048459069)
(0.082213674 -0.027183551 -0.00039133604)
(0.085844718 -0.027475831 -0.00024165973)
(0 0 0)
(0 0 0)
(0 0 0)
(0 0 0)
(0 0 0)
(0 0 0)
(0 0 0)
(0 0 0)
(0 0 0)
(0 0 0)
(0 0 0)
(0 0 0)
(0 0 0)
(0 0 0)
(0 0 0)
(1.5320686e-05 -7.8752699e-06 1.0925707e-05)
(4.6708628e-05 -1.9273785e-05 3.4353793e-07)
(8.8512115e-05 -1.559384e-05 -1.4065133e-05)
(0.00013683849 -1.1267002e-05 -3.065304e-05)
(0.00019275672 5.9585649e-06 -5.10119e-05)
(0.00025742724 2.2732354e-05 -7.5988702e-05)
(0.00033039547 5.5743612e-05 -0.00010756857)
(0.00041263962 8.9434098e-05 -0.0001445215)
(0.00050353721 0.00014584043 -0.00019370072)
(0.00059971806 0.00020600712 -0.00024904647)
(0.00070017343 0.00028470653 -0.00031316864)
(0.00080206066 0.00038808307 -0.0003868689)
(0.00089005985 0.00049552421 -0.00046515098)
(0.00097251168 0.00063602229 -0.00054675352)
(0.0010166144 0.00078146022 -0.00062615658)
(0.0010386476 0.00094881936 -0.00069716064)
(0.0010112099 0.0011256931 -0.00075350607)
(0.00092016844 0.0013177857 -0.00079510512)
(0.00078381942 0.0015014769 -0.00080508845)
(0.00056079669 0.0017054401 -0.00079148363)
(0.00029188664 0.0018798781 -0.00075311296)
(-4.4713298e-05 0.0020504038 -0.00068552338)
(-0.0004331155 0.0022254472 -0.00060117372)
(-0.00086284676 0.0023631809 -0.0005047513)
(-0.0013179813 0.0024859283 -0.00040484901)
(-0.0017920249 0.0025898497 -0.00030737286)
(-0.0022736655 0.0026633371 -0.00021952108)
(-0.0027530467 0.0027273456 -0.00013469624)
(-0.0032393563 0.0027566808 -6.0680572e-05)
(-0.0037162819 0.0027714343 1.3068872e-05)
(-0.0042050474 0.0027585935 8.8936463e-05)
(-0.0046949344 0.0027262777 0.00017119446)
(-0.0051938793 0.0026682279 0.00026427797)
(-0.0056987321 0.0025835546 0.00036863099)
(-0.0062072099 0.0024750849 0.0004821924)
(-0.0067174461 0.0023253694 0.00060697245)
(-0.0072054668 0.0021552928 0.00073554259)
(-0.0076830882 0.0019422889 0.00086693822)
(-0.0081252061 0.0016958963 0.0009953559)
(-0.0085296995 0.0014131418 0.0011217931)
(-0.0088852846 0.0010973297 0.001241986)
(-0.0091860309 0.00075005801 0.0013558007)
(-0.0094263844 0.00037468514 0.0014621414)
(-0.0096031267 -2.584997e-05 0.0015608133)
(-0.009714059 -0.00044880666 0.0016519096)
(-0.0097582918 -0.00089207451 0.0017358423)
(-0.009735284 -0.0013541112 0.0018130684)
(-0.0096444759 -0.001834033 0.0018839975)
(-0.0094847674 -0.0023312688 0.0019486892)
(-0.0092543076 -0.002845453 0.0020067838)
(-0.0089505296 -0.0033761797 0.0020575434)
(-0.0085704726 -0.0039229051 0.0021000597)
(-0.0081112548 -0.0044848999 0.002133626)
(-0.0075705913 -0.0050612987 0.0021580899)
(-0.00694714 -0.0056511563 0.002174149)
(-0.0062406359 -0.0062535486 0.0021833979)
(-0.005451642 -0.0068676112 0.0021881682)
(-0.0045811692 -0.0074925492 0.00219109)
(-0.0036299955 -0.0081276252 0.0021946113)
(-0.0025982792 -0.0087720487 0.0022004561)
(-0.0014850531 -0.0094249816 0.0022093089)
(-0.00028840843 -0.010085369 0.0022207562)
(0.0009944725 -0.010752062 0.0022333712)
(0.0023665547 -0.011423678 0.0022452841)
(0.0038308142 -0.012098886 0.0022544525)
(0.0053891979 -0.012775906 0.0022590396)
(0.0070428206 -0.013454641 0.002258836)
(0.0087956819 -0.014133046 0.002251218)
(0.010630587 -0.014797457 0.0022399925)
(0.012575889 -0.015480438 0.0022216643)
(0.014604628 -0.016142465 0.0022005112)
(0.016725875 -0.016803116 0.0021727731)
(0.018938287 -0.017456023 0.0021406584)
(0.021239234 -0.018100022 0.0021030398)
(0.023628782 -0.018733793 0.0020590584)
(0.026105398 -0.019356189 0.0020085483)
(0.02866717 -0.01996572 0.0019513812)
(0.031311875 -0.020561131 0.0018877393)
(0.034036721 -0.021141118 0.0018183111)
(0.036838391 -0.021704284 0.0017439109)
(0.03971363 -0.022249437 0.0016654041)
(0.042658711 -0.022774989 0.0015835187)
(0.045670381 -0.023279928 0.0014988911)
(0.048744767 -0.023762633 0.0014116588)
(0.051878805 -0.024222179 0.0013222647)
(0.055068239 -0.024657582 0.0012305812)
(0.058310307 -0.025067415 0.0011365996)
(0.061600358 -0.025452426 0.0010414512)
(0.064935083 -0.025809886 0.00094353717)
(0.068312522 -0.026144043 0.00084665213)
(0.071724657 -0.026448193 0.00074630079)
(0.075181851 -0.026736844 0.00064992004)
(0.078666716 -0.026998517 0.00054546137)
(0.08223403 -0.027247633 0.0004466606)
(0.08582577 -0.027548215 0.00031639455)
(0.089867553 -0.023884196 -3.885657e-05)
(0.089768179 -0.020468711 -0.00012975039)
(0.089711742 -0.017092143 -0.0001508951)
(0.08968778 -0.013894967 -0.00016144348)
(0.089671786 -0.010717275 -0.00012194237)
(0.089682605 -0.0076302786 -8.6597895e-05)
(0.089717754 -0.0045547755 -1.7036022e-05)
(0.089775483 -0.0015040799 4.5240296e-05)
(0.089878992 0.0015378215 0.0001063839)
(0.089983305 0.0046020926 0.0001730248)
(0.090146295 0.0076958994 0.0002121288)
(0.090319019 0.010835357 0.00024065671)
(0.090534799 0.014042896 0.00025634385)
(0.090723222 0.017358494 0.00022516852)
(0.091083818 0.020744989 0.00016952849)
(0.087217332 0.024727039 -0.0003231872)
(0.083566207 0.024581255 -0.00041461542)
(0.080026102 0.024536566 -0.00053548317)
(0.076516477 0.024446908 -0.0006234901)
(0.073043933 0.02434605 -0.00074239819)
(0.069612152 0.024207793 -0.0008432133)
(0.066210818 0.024049793 -0.00095183827)
(0.062851581 0.0238551 -0.0010565735)
(0.059533639 0.023633336 -0.0011591449)
(0.056263182 0.023380001 -0.0012603624)
(0.05304195 0.023095943 -0.0013575437)
(0.049876164 0.022782488 -0.0014524364)
(0.046765656 0.022439609 -0.0015445289)
(0.043716703 0.022068544 -0.0016356581)
(0.040732794 0.021670203 -0.0017224831)
(0.037818609 0.021245829 -0.0018059696)
(0.034977145 0.020796391 -0.001884003)
(0.032210907 0.020323447 -0.0019580976)
(0.02952435 0.019827845 -0.0020256207)
(0.026919976 0.019310986 -0.0020869187)
(0.024400444 0.018774614 -0.0021411485)
(0.021968356 0.018219216 -0.0021881609)
(0.019624792 0.017647829 -0.0022286045)
(0.017372437 0.017059464 -0.0022619342)
(0.015210165 0.016459047 -0.0022899905)
(0.013142637 0.015845016 -0.0023120865)
(0.011161143 0.015221904 -0.0023291455)
(0.0092967928 0.014577883 -0.0023348564)
(0.0075036604 0.013945137 -0.0023433372)
(0.0058181647 0.013292347 -0.0023422662)
(0.0042246148 0.012641066 -0.0023384511)
(0.0027264323 0.011985524 -0.0023298857)
(0.0013202829 0.011329798 -0.0023201175)
(4.8440742e-06 0.010674919 -0.0023096622)
(-0.0012225365 0.010022854 -0.0023003818)
(-0.002363647 0.0093749564 -0.0022930129)
(-0.0034199305 0.008732637 -0.0022875976)
(-0.0043921157 0.0080971053 -0.0022832545)
(-0.0052803264 0.0074695408 -0.0022782383)
(-0.0060842451 0.0068510425 -0.0022702494)
(-0.0068036446 0.0062427766 -0.0022568223)
(-0.0074386068 0.0056458369 -0.0022358092)
(-0.0079899873 0.0050613304 -0.0022056829)
(-0.0084593945 0.0044902059 -0.0021657815)
(-0.0088491997 0.0039332629 -0.0021162535)
(-0.0091621006 0.0033911078 -0.0020579288)
(-0.0094009181 0.0028641499 -0.0019919167)
(-0.0095678262 0.0023528157 -0.0019193385)
(-0.0096646805 0.0018575161 -0.0018409992)
(-0.0096922392 0.0013795899 -0.0017574641)
(-0.0096510247 0.00091917277 -0.0016677153)
(-0.0095417611 0.00048096894 -0.0015732403)
(-0.009364714 6.3660063e-05 -0.0014701081)
(-0.0091239658 -0.00032489731 -0.0013618522)
(-0.0088214982 -0.00068562044 -0.0012455947)
(-0.0084635888 -0.0010133203 -0.0011218401)
(-0.0080575946 -0.0013080977 -0.0009946187)
(-0.0076171166 -0.0015590624 -0.0008650958)
(-0.0071447174 -0.0017856845 -0.00073162133)
(-0.0066511338 -0.0019699145 -0.00060641029)
(-0.0061534345 -0.0021189586 -0.00048765754)
(-0.0056505893 -0.0022446847 -0.00037378529)
(-0.0051482582 -0.0023369278 -0.0002762823)
(-0.0046498724 -0.0024063766 -0.00018541604)
(-0.0041574752 -0.0024478929 -0.00010241216)
(-0.0036669521 -0.0024714376 -2.2738206e-05)
(-0.0031751924 -0.0024680367 5.7526941e-05)
(-0.0026864252 -0.0024456617 0.00013981551)
(-0.0021926585 -0.0024002995 0.00023150116)
(-0.0017068199 -0.0023340966 0.00032662482)
(-0.0012307956 -0.0022463947 0.00042675718)
(-0.00077679471 -0.002128096 0.00052219749)
(-0.00035819917 -0.001999116 0.00061467079)
(2.5176003e-05 -0.0018539491 0.00069115074)
(0.00035349567 -0.0016833972 0.0007410376)
(0.00061249249 -0.0015119986 0.00077751723)
(0.00082431257 -0.0013338418 0.00077720758)
(0.00095359072 -0.0011516207 0.00075922548)
(0.001039121 -0.00098057149 0.00071289919)
(0.0010632082 -0.00081211193 0.00065234743)
(0.0010425057 -0.00065706306 0.00057818354)
(0.00099179639 -0.00051887553 0.0004995512)
(0.00091780276 -0.00040023249 0.00041992675)
(0.00082628274 -0.00029109952 0.00033936066)
(0.00072668289 -0.00020412282 0.00026833734)
(0.00062802601 -0.00013597121 0.00020635742)
(0.00053289545 -7.6779617e-05 0.00014866613)
(0.00044133959 -3.3465458e-05 0.00010382012)
(0.00036055773 -4.806239e-07 6.6899284e-05)
(0.00028689179 2.0593501e-05 3.8243941e-05)
(0.00022366894 3.5694574e-05 1.492532e-05)
(0.00016598692 4.413733e-05 -2.0963184e-06)
(0.00011627575 4.8436876e-05 -1.4938782e-05)
(6.9477074e-05 4.1566909e-05 -2.0785698e-05)
(4.2007759e-05 3.5015943e-05 -2.0475396e-05)
(0 0 0)
(0 0 0)
(0 0 0)
(0 0 0)
(0 0 0)
(0 0 0)
(0 0 0)
(0 0 0)
(0 0 0)
(0 0 0)
(0 0 0)
(0 0 0)
(0 0 0)
(0 0 0)
(0 0 0)
(0 0 0)
(0 0 0)
(0 0 0)
(0 0 0)
(0 0 0)
(0 0 0)
(0 0 0)
(0 0 0)
(0 0 0)
(0 0 0)
(0 0 0)
(0 0 0)
(0 0 0)
(0 0 0)
(0 0 0)
(0.089907232 -0.027838849 -4.6869649e-05)
(0.08994681 -0.027915652 -5.376125e-05)
(0.089963571 -0.027950354 -5.8130498e-05)
(0.089989528 -0.027986226 -5.1796368e-05)
(0.090008109 -0.028008376 -3.802186e-05)
(0.090025229 -0.028024625 -1.4730776e-05)
(0.090033882 -0.028033115 1.0990248e-05)
(0.090037497 -0.028037583 4.2936846e-05)
(0.090033995 -0.028036901 7.2476287e-05)
(0.090021749 -0.028032249 9.744673e-05)
(0.090015585 -0.028028445 0.00012341091)
(0.08998819 -0.028004151 0.0001340595)
(0.089971859 -0.02798495 0.00014166308)
(0.089945327 -0.027943397 0.00013960978)
(0.089930545 -0.027904918 0.00012401096)
(0.091372714 0.02490455 0.00018559108)
(0.091405769 0.024931471 0.00020625629)
(0.091427246 0.024965306 0.00018951226)
(0.091463161 0.024992451 0.00017649578)
(0.091475978 0.024998195 0.00015979188)
(0.091495205 0.025004542 0.0001291579)
(0.09150571 0.025008303 0.0001004706)
(0.091510161 0.025004841 6.6363928e-05)
(0.091507146 0.024998673 3.306624e-05)
(0.091496206 0.024988626 5.484427e-06)
(0.091480815 0.024969004 -2.184745e-05)
(0.091458294 0.024947793 -3.9773416e-05)
(0.091438489 0.024922922 -3.7380394e-05)
(0.091411088 0.024856092 -6.52407e-05)
(0.091400939 0.024854414 -4.3438411e-05)
(2.4666931e-05 -0.00010751963 2.0420375e-05)
(6.2630871e-05 -0.00022556796 1.2756426e-05)
(0.000104812 -0.0003448392 7.7137193e-06)
(0.00015319625 -0.00046823019 -4.2875971e-06)
(0.0002075079 -0.0005961575 -1.9881529e-05)
(0.00027002284 -0.00072800743 -4.0676368e-05)
(0.00034098869 -0.00086482043 -6.715127e-05)
(0.0004211537 -0.0010067611 -0.00010015055)
(0.00050927992 -0.0011543467 -0.00014002508)
(0.00060338729 -0.0013080505 -0.0001869482)
(0.00070089575 -0.001467932 -0.00024051792)
(0.00079655932 -0.0016336015 -0.00029925363)
(0.00088418119 -0.0018054164 -0.00036147786)
(0.0009559057 -0.0019812765 -0.00042469684)
(0.0010026992 -0.0021599644 -0.000485382)
(0.0010156884 -0.0023397159 -0.00053897731)
(0.0009856696 -0.002518639 -0.00058230873)
(0.00090446448 -0.0026939742 -0.00061108894)
(0.00076359355 -0.0028618112 -0.00062284863)
(0.00056089509 -0.0030225065 -0.0006139715)
(0.00029692283 -0.0031713486 -0.00058588828)
(-2.8540026e-05 -0.0033070821 -0.0005394216)
(-0.00040579535 -0.0034291154 -0.0004770982)
(-0.00082648414 -0.0035328432 -0.00040382225)
(-0.0012824639 -0.0036185195 -0.00032370832)
(-0.0017604068 -0.0036836467 -0.00024217367)
(-0.0022508926 -0.0037258573 -0.00016147018)
(-0.0027469484 -0.0037431747 -8.5131432e-05)
(-0.0032452225 -0.003734222 -1.2321992e-05)
(-0.0037421027 -0.0036971896 5.7221647e-05)
(-0.0042394669 -0.0036296382 0.00012718028)
(-0.0047400526 -0.0035330585 0.00019989057)
(-0.005244778 -0.0034038059 0.00027779048)
(-0.0057549366 -0.0032425616 0.00036431564)
(-0.0062677935 -0.0030510139 0.00045973088)
(-0.0067787401 -0.0028252114 0.00056260139)
(-0.0072818869 -0.0025695285 0.000670466)
(-0.0077659586 -0.0022802952 0.00078220121)
(-0.0082210772 -0.0019607303 0.00089353663)
(-0.0086361833 -0.0016087625 0.001000605)
(-0.0090021016 -0.0012258452 0.0011032739)
(-0.0093083476 -0.00081273104 0.001198748)
(-0.0095539582 -0.00037211667 0.0012879054)
(-0.0097312227 9.5573102e-05 0.0013692734)
(-0.0098406007 0.00058673176 0.0014460595)
(-0.0098806105 0.0010998528 0.0015175626)
(-0.0098520905 0.0016321794 0.0015854058)
(-0.009754707 0.0021815174 0.0016496518)
(-0.0095880046 0.0027456971 0.0017100151)
(-0.0093504005 0.0033230276 0.001765717)
(-0.0090397146 0.0039119748 0.001815604)
(-0.008653094 0.0045114813 0.0018584559)
(-0.0081875577 0.0051206318 0.0018933756)
(-0.007640363 0.0057387556 0.0019199897)
(-0.007009333 0.0063651601 0.0019386511)
(-0.0062930498 0.0069990681 0.0019504847)
(-0.0054908378 0.0076394111 0.001957227)
(-0.004602602 0.008284898 0.0019608009)
(-0.0036283771 0.00893377 0.0019633058)
(-0.0025682661 0.0095838661 0.0019662242)
(-0.0014216748 0.010233131 0.0019704997)
(-0.00018790366 0.010879161 0.0019760803)
(0.0011349061 0.011519618 0.0019826936)
(0.0025483812 0.012152063 0.0019892148)
(0.0040533792 0.012775931 0.0019937561)
(0.0056553397 0.013388662 0.0019953051)
(0.0073524664 0.013988891 0.0019959654)
(0.009141583 0.014575909 0.0019904827)
(0.01102609 0.015147905 0.001983109)
(0.013006611 0.015702216 0.0019684723)
(0.015079511 0.016241456 0.0019502055)
(0.017244264 0.016759643 0.0019279408)
(0.019500431 0.017258869 0.0019005324)
(0.021844812 0.017734584 0.0018697052)
(0.02427918 0.018188641 0.0018324198)
(0.026799196 0.018614598 0.0017907069)
(0.029404362 0.019021315 0.0017416305)
(0.032092696 0.019392672 0.0016898617)
(0.034858134 0.01974813 0.0016293796)
(0.03770408 0.020064353 0.0015683772)
(0.040616141 0.02036128 0.0015006371)
(0.04360469 0.020622671 0.001432629)
(0.046651045 0.020855869 0.0013583609)
(0.049760844 0.021057998 0.0012866042)
(0.052923459 0.021231295 0.0012059807)
(0.056148806 0.02136911 0.0011309221)
(0.05941763 0.021473882 0.0010509727)
(0.062734471 0.02155544 0.00096530453)
(0.066092527 0.021602511 0.00088016444)
(0.069487956 0.021598413 0.00080664569)
(0.072920084 0.021613915 0.00069241037)
(0.076379528 0.021548911 0.000624958)
(0.079891 0.021437094 0.00051666314)
(0.083435615 0.021384052 0.00038432519)
(0.087082814 0.021093944 0.00023887711)
(2.0513624e-05 -0.00021421054 1.1848351e-05)
(5.4077953e-05 -0.00044230261 9.3680195e-06)
(9.4680539e-05 -0.00066559577 5.3124293e-06)
(0.0001400732 -0.00089225739 -4.1055939e-06)
(0.00019290645 -0.0011197223 -1.7395631e-05)
(0.00025358312 -0.001348307 -3.5093334e-05)
(0.00032330281 -0.0015779818 -5.7786842e-05)
(0.00040209495 -0.0018084489 -8.5929012e-05)
(0.00048921537 -0.002039333 -0.00011974821)
(0.00058285388 -0.0022702238 -0.0001592363)
(0.00067963701 -0.0025003929 -0.00020394941)
(0.00077448955 -0.0027286871 -0.00025291992)
(0.00086117412 -0.0029539013 -0.00030461049)
(0.00093197231 -0.0031742407 -0.00035672069)
(0.00097807897 -0.0033881799 -0.00040629161)
(0.00098963115 -0.003593505 -0.00045048879)
(0.00095777091 -0.0037884568 -0.00048581237)
(0.00087406941 -0.0039706794 -0.00050964602)
(0.00073241364 -0.0041394874 -0.00051832059)
(0.00052876468 -0.0042929883 -0.00051131404)
(0.00026219173 -0.0044307059 -0.0004884468)
(-6.3135856e-05 -0.0045515219 -0.00044974965)
(-0.00044175058 -0.0046543919 -0.00039870429)
(-0.00086474992 -0.0047386813 -0.00033818756)
(-0.0013217772 -0.0048019411 -0.00027179451)
(-0.0018018661 -0.0048437255 -0.00020302542)
(-0.0022964026 -0.0048597199 -0.00013542682)
(-0.0027982753 -0.0048486711 -7.0422644e-05)
(-0.0033023069 -0.0048073727 -7.7639403e-06)
(-0.0038069355 -0.0047340518 5.2912328e-05)
(-0.0043134295 -0.0046266886 0.00011325184)
(-0.0048221725 -0.0044842661 0.0001764182)
(-0.0053350984 -0.0043075969 0.00024425737)
(-0.0058530232 -0.0040965565 0.00031856292)
(-0.0063736746 -0.00385216 0.00039899767)
(-0.0068929312 -0.0035753181 0.00048557532)
(-0.0074023488 -0.0032671804 0.00057648098)
(-0.0078933259 -0.0029279188 0.00066997926)
(-0.008355109 -0.0025594265 0.00076292861)
(-0.0087756414 -0.0021604685 0.00085380145)
(-0.0091474678 -0.0017331137 0.00094010379)
(-0.009461401 -0.0012778333 0.0010225203)
(-0.0097113803 -0.00079470081 0.0010976289)
(-0.0098945369 -0.0002867055 0.001168953)
(-0.010008436 0.00024467258 0.0012351919)
(-0.010052908 0.00079723017 0.0012980445)
(-0.010027697 0.0013683028 0.0013572984)
(-0.0099328413 0.0019552625 0.0014133663)
(-0.0097676834 0.0025555434 0.0014657172)
(-0.0095309139 0.003166845 0.0015137539)
(-0.0092204182 0.0037871219 0.0015564405)
(-0.0088335825 0.0044148453 0.0015928565)
(-0.0083675927 0.005048667 0.0016223546)
(-0.0078198682 0.0056876443 0.0016446811)
(-0.0071882851 0.006330773 0.0016603159)
(-0.0064714479 0.0069770864 0.001670221)
(-0.0056685918 0.0076252991 0.0016759094)
(-0.0047794259 0.0082737805 0.0016790696)
(-0.00380395 0.0089204824 0.0016814041)
(-0.0027419224 0.0095630066 0.001684074)
(-0.0015929 0.010198865 0.0016879447)
(-0.00035590097 0.010825337 0.0016927596)
(0.0009706369 0.011439759 0.0016987887)
(0.0023879505 0.01204037 0.0017038852)
(0.0038979921 0.012626388 0.0017077454)
(0.0055041056 0.013194559 0.0017104025)
(0.0071950085 0.01374428 0.0017100647)
(0.0089863955 0.014272417 0.0017061218)
(0.010876526 0.014779732 0.0016953126)
(0.012860584 0.015266486 0.0016833537)
(0.014937133 0.015731172 0.0016674489)
(0.01710463 0.016169186 0.0016494366)
(0.019363665 0.016583348 0.0016262152)
(0.021712338 0.01696684 0.0016009462)
(0.024149989 0.01732657 0.0015673441)
(0.026672728 0.017650825 0.0015345523)
(0.02928147 0.017953946 0.0014899555)
(0.031971151 0.018214364 0.0014497097)
(0.034740462 0.018461583 0.001393325)
(0.037585826 0.018655736 0.0013484685)
(0.040502904 0.018843297 0.0012833808)
(0.043489414 0.018976109 0.0012320978)
(0.046539414 0.019093124 0.0011669717)
(0.04965309 0.019161481 0.0011030874)
(0.052826582 0.019219973 0.0010309691)
(0.056046609 0.019218837 0.000971787)
(0.05932043 0.019208016 0.00089486155)
(0.062630662 0.019148399 0.00082518916)
(0.066001382 0.019048974 0.00075670879)
(0.069384418 0.018945684 0.00066011299)
(0.072835682 0.018775518 0.00058841174)
(0.07629001 0.018570154 0.00049374037)
(0.079814707 0.018356542 0.00037777929)
(0.083369934 0.018062368 0.00025867979)
(0.087031133 0.017730967 0.00011085315)
(2.247529e-05 -0.00028599835 7.7154231e-06)
(5.4941532e-05 -0.00058249868 5.7282122e-06)
(9.2369861e-05 -0.00087646517 3.9608026e-06)
(0.00013678559 -0.0011705092 -3.9289345e-06)
(0.00018839971 -0.001463788 -1.4734054e-05)
(0.00024848 -0.0017551321 -2.9583201e-05)
(0.00031766979 -0.0020447222 -4.8608207e-05)
(0.00039613858 -0.002331593 -7.2006553e-05)
(0.00048296025 -0.0026149301 -0.00010006221)
(0.00057604079 -0.0028937923 -0.00013256775)
(0.00067192394 -0.0031668493 -0.00016926234)
(0.00076565072 -0.0034326134 -0.00020917118)
(0.00085083009 -0.0036894463 -0.00025098126)
(0.00091960899 -0.0039354637 -0.00029286944)
(0.00096308137 -0.0041686466 -0.00033272167)
(0.0009720974 -0.0043872325 -0.00036781629)
(0.00093759471 -0.0045894667 -0.00039569822)
(0.00085172254 -0.0047741232 -0.00041358934)
(0.00070782439 -0.0049398215 -0.00041992554)
(0.00050249196 -0.0050864688 -0.00041339198)
(0.00023603525 -0.0052134463 -0.00039348929)
(-8.951173e-05 -0.0053205549 -0.00036156928)
(-0.00046761151 -0.005407945 -0.00031936386)
(-0.00088991294 -0.0054739894 -0.00026964392)
(-0.0013468584 -0.0055184888 -0.00021504265)
(-0.0018283876 -0.0055385345 -0.00015909919)
(-0.0023256131 -0.0055327608 -0.00010350082)
(-0.0028310146 -0.0054979318 -4.9542726e-05)
(-0.0033409084 -0.0054317598 2.341036e-06)
(-0.0038529396 -0.0053321247 5.278065e-05)
(-0.0043667002 -0.005197314 0.00010394813)
(-0.0048840106 -0.0050271539 0.00015717367)
(-0.0054057676 -0.0048215805 0.0002142502)
(-0.0059318626 -0.004580895 0.00027583415)
(-0.0064601462 -0.0043075605 0.00034285635)
(-0.00698507 -0.0040019871 0.00041448845)
(-0.0074999069 -0.003666279 0.00048911951)
(-0.0079957747 -0.0033013735 0.00056498354)
(-0.0084616991 -0.0029082689 0.00064143627)
(-0.0088881051 -0.0024890679 0.00071482861)
(-0.0092655164 -0.0020421236 0.00078638589)
(-0.0095846389 -0.0015698409 0.00085302339)
(-0.0098408125 -0.0010726503 0.00091617854)
(-0.010030093 -0.00055206558 0.00097518701)
(-0.010150068 -9.9293229e-06 0.001031134)
(-0.010199989 0.00055145046 0.0010840957)
(-0.010179599 0.0011295037 0.0011342295)
(-0.010088682 0.001721716 0.00118161)