/*--------------------------------*- C++ -*----------------------------------*\
  =========                 |
  \\      /  F ield         | OpenFOAM: The Open Source CFD Toolbox
   \\    /   O peration     | Website:  https://openfoam.org
    \\  /    A nd           | Version:  6
     \\/     M anipulation  |
\*---------------------------------------------------------------------------*/
FoamFile
{
    version     2.0;
    format      ascii;
    class       pointScalarField;
    location    "0.72";
    object      p;
}
// * * * * * * * * * * * * * * * * * * * * * * * * * * * * * * * * * * * * * //

dimensions      [1 -1 -2 0 0 0 0];

internalField   nonuniform List<scalar> 
625
(
664125.39
-986354.23
-4770.1338
421.33645
1168027
-1933529.5
1851.9148
-887.24675
449362.93
29331.877
-88765.756
2485.6146
2791.7065
1500.506
289916.76
291548.92
279583.68
261319.49
219896.05
207266.32
174311.39
149811.47
137453.16
110066.64
98610.333
84854.421
75904.006
67008.977
60794.89
54259.371
47074.393
41170.996
31862.861
26395.681
17622.801
9660.4364
2273.1509
-319403.69
-186967.99
-254970
-183617.65
-169039.1
-162402.12
-136600.33
-124168.76
-112621.42
-99014.354
-88011.707
-74642.818
-65626.531
-53132.492
-42352.726
-31690.932
-20947.967
-11981.618
-3674.9846
2156.7385
5982.6833
5882.4027
6560.1268
644811.63
-46776.911
-243026.04
-338157.1
-427958.74
-301657.93
-260522.47
-308927
-226754.72
-218777.65
-202285.75
-179700.51
-160976.14
-133160.13
-116947.22
-92590.941
-76494.529
-61087.908
-45345.252
-34711.1
-24399.576
-16259.882
-10266.092
-6186.7588
-2106.4749
446.88885
417.58481
323.29577
473.54588
833.93832
3952.7903
7199.1095
13928.85
21937.736
30855.4
40172.756
49909.648
60507.447
70231.407
81604.388
94092.337
106031.94
114566.64
146864.14
156237.53
179130.3
191080.53
240492.72
225425.29
276896.26
301004.7
278478.22
717279.56
691666.77
625269.34
-1100616.1
-1100724.5
-1098344.5
-3309.2353
-259.11068
-1404.1778
-3474.9576
-3242.5161
-2897.7548
139526.34
158153.94
160521.41
141824.76
134454.26
130837.46
111287.28
106696.78
93214.447
82793.999
76271.863
67549.756
59364.338
51870.526
45737.317
37923.481
31817.51
24867.08
17799.826
11958.776
7539.1481
3435.4565
905.93438
-20407.056
2844.8577
-12860.447
8282.0483
-3315.6201
2883.0004
-26.068633
3083.7773
955.08396
-1173.5735
-1122.3289
-3074.0854
-3587.5798
-3081.8047
-2726.8088
-2251.1865
-799.68589
-93.02639
1255.3017
832.7978
2523.7498
2656.1804
3505.8204
-195676.98
-162982.2
-151847.06
-126312.44
-144710.93
-107126.35
-105868.71
-89100.352
-79234.25
-66823.689
-55071.222
-45113.857
-35618.628
-27670.106
-20796.3
-15018.751
-10046.353
-6262.6844
-3196.0971
-1166.2437
-1242.3495
482.49789
1312.4607
377331.86
349424.7
379755.4
-9706.263
11300.694
-41714.668
-84133.303
-130432.11
-199021.05
-465529.85
-462297.24
-489831.76
-359260.3
-336265.19
-318276.13
-287302.79
-271253.02
-285707.37
-227881.15
-227107.62
-228757.85
-224949.42
-228022.93
-239790.46
-202711.23
-196657.04
-200423.09
-184729.86
-181661.24
-197922.48
-164344.42
-163830.01
-174186.44
-146601.9
-146400.89
-154231.92
-127830.2
-127376.67
-136703.98
-107786.82
-107758.52
-115475.74
-91287.492
-90959.773
-97906.27
-73076.747
-73046.081
-78264.51
-57788.831
-56956.117
-61313.467
-43384.457
-42561.595
-46800.501
-30890.548
-30141.027
-32508.766
-20215.821
-18537.156
-20551.348
-11433.048
-10009.009
-11107.807
-4512.1586
-2665.8274
-3019.5994
-434.63956
1414.1086
2005.8476
3183.2304
5340.1063
5474.6946
2214.4199
4396.8529
4173.3995
2441.3342
3958.6989
5682.9968
1268.3005
984.52677
896.16413
222.80409
683.16272
2281.6841
5537.2089
4051.4589
5201.0172
344869.58
336160.2
340952.17
326802.83
305040.39
293932.73
310895.04
286323.06
289298.2
256505.67
238161.42
243146.09
239449.55
229664.92
212141.33
217697.12
181221.79
192376.28
184867.94
168716.17
171659.66
170333.49
146151.58
147412.04
145790.16
126285.03
125933.33
130690.05
108997.58
115759.4
116053.07
96488.741
100112.08
103543.59
81705.021
90509.838
89172.798
73974.588
80790.113
79564.618
65791.396
72289.272
68708.604
59333.937
64537.863
58584.634
52519.252
56748.576
49053.429
46229.25
48914.808
38788.133
38893.357
40476.935
29298.538
31747.87
31955.312
20677.107
24726.757
23696.145
12603.898
14727.942
15222.82
5629.1677
9142.3993
9188.9845
-262.75169
839.4323
2134.1177
174360.81
195760.06
162949.13
168494.28
162914.61
139654.46
126698.48
111189.43
96319.34
80276.131
71829.076
57161.244
46170.201
38002.77
29619.749
23183.026
17579.743
12981.426
9559.3213
6535.0575
5014.4071
2748.3966
-1221.9035
-33550.355
5317.3493
-11107.95
4451.0067
6112.5886
-7072.1635
-2580.7124
-2853.865
-5951.1815
-3557.3197
-121.64278
-534.16675
2138.8211
3123.2058
4925.792
5543.775
6060.3566
6275.4422
5205.5576
4699.6125
3280.7037
1218.098
497.68948
-150788.52
-149367.71
-185447.84
-150780.78
-137840.39
-127138.84
-98932.206
-90264.543
-74902.281
-65503.791
-57996.004
-51163.753
-47417.292
-40504.618
-36686.443
-31097.52
-25331.683
-19481.608
-14281.921
-8192.9418
-4502.6762
-1373.7487
1157.2327
234508.12
231205.15
202454.14
205802.29
195456.92
181646.27
159275.83
147510.12
174923.5
148327.52
168967.61
134915.2
164367.5
126140.07
138621.82
121437.36
130451.38
132727.57
124564.13
124276.07
113690.53
113501.32
102150.06
101662.07
93773.75
92194.393
95250.658
84715.628
87067.931
78533.737
71237.88
70800.484
66360.639
57432.428
61940.059
57571.084
48073.55
52315.347
46677.818
38794.772
42277.519
37502.815
28985.374
33064.347
28621.098
21629.625
25491.308
20994.421
14865.208
17989.986
13811.48
9631.2895
11616.433
8317.8699
5367.4066
7110.6951
3732.9196
4392.9593
2544.5646
728.52957
-773.85133
710.724
-2764.6548
236.03442
-684.26795
-1229.4473
-686.72017
-554.6472
-2761.5045
-20107.279
-42369.822
-14895.952
-10730.978
14675.316
9211.1433
9793.1136
5112.977
7321.2994
370.96039
-1444.8518
-5739.6056
-4328.3501
-349.66085
11578.881
-6159.9844
7714.8811
1039.4728
4105.1096
770.17876
-2708.7278
-5241.7594
-1224.1802
317.1765
-724.92
4556.985
-1670.6177
4824.0691
1865.7829
-2883.5503
4081.2182
1506.8802
-3859.8888
6608.9353
4173.3217
-2685.4668
7865.9101
4608.0859
-5413.9031
8061.7843
3231.2201
-5635.4919
6281.2144
4490.0327
-6145.2758
5879.1873
3783.4508
-6929.2316
3788.0926
3225.455
-6916.1304
2018.5448
2263.6224
-6715.7275
371.19745
1810.9843
-4895.0918
1464.7805
-305.98174
-5423.4398
-1513.1439
-1679.2424
-218.09117
-1661.4299
1334.3871
-396.82075
1328.7834
1736.6657
1267.1363
-236350.07
-259655.79
-301263.6
-157100.09
-134144.12
-207578.39
-145051.2
-199419.86
-204107.38
-175124.84
-131444.72
-174697.57
-120824.49
-123160.62
-148861.2
-111628.9
-104767.44
-139907
-97905.581
-87778.165
-115587.32
-81175.046
-73827.756
-101695.67
-64800.497
-62618.03
-84936.928
-56637.434
-55764.257
-73485.322
-47570.961
-49860.125
-62135.507
-40342.65
-44745.176
-53993.134
-33968.042
-43814.338
-47717.382
-30172.595
-40255.98
-41217.685
-25845.336
-37307.147
-35609.431
-22747.067
-32997.137
-31708.638
-19414.167
-28531.062
-26695.374
-16643.173
-22160.364
-22051.558
-12755.622
-16473.934
-17583.306
-10756.852
-9456.4002
-12713.746
-4482.457
-6993.0945
-7889.6708
-2520.1276
352.90272
-2601.2001
-451.4484
907.15419
-2790.1045
)
;

boundaryField
{
    free
    {
        type            calculated;
    }
    fixed
    {
        type            calculated;
    }
    freeTop
    {
        type            calculated;
    }
}


// ************************************************************************* //
