/*--------------------------------*- C++ -*----------------------------------*\
  =========                 |
  \\      /  F ield         | OpenFOAM: The Open Source CFD Toolbox
   \\    /   O peration     | Website:  https://openfoam.org
    \\  /    A nd           | Version:  6
     \\/     M anipulation  |
\*---------------------------------------------------------------------------*/
FoamFile
{
    version     2.0;
    format      ascii;
    class       pointVectorField;
    location    "1.55";
    object      lm;
}
// * * * * * * * * * * * * * * * * * * * * * * * * * * * * * * * * * * * * * //

dimensions      [1 -2 -1 0 0 0 0];

internalField   nonuniform List<vector> 
625
(
(-3.6361799e-15 2.112754e-16 -3.2990721e-16)
(2.8178306e-17 1.9013092e-16 6.1994168e-17)
(3494.775 2202.0195 -380.3909)
(4018.555 978.91621 -302.90294)
(6.5239771e-16 2.739523e-16 -5.5565719e-16)
(-3.7042918e-15 1.4868296e-15 -1.3023874e-15)
(4003.0197 948.56778 -305.20942)
(3480.4999 2169.7239 -378.15643)
(-1.9658614e-16 -3.2115893e-17 -1.1045223e-16)
(1.4766345e-16 -3.4299605e-16 -2.8648028e-16)
(-1.0135278e-15 7.0169807e-16 1.7538027e-16)
(3625.9355 1895.038 -362.12194)
(3754.0738 1590.0279 -342.26746)
(3885.7164 1286.3863 -322.58253)
(-19.194925 -19.094313 -5.8527016)
(-40.887557 -27.764897 -7.4123911)
(-60.403473 -27.512052 -10.21358)
(-74.448948 -16.45393 -19.957467)
(-78.371363 2.1530857 -33.804513)
(-70.259184 35.648633 -53.851277)
(-44.849041 78.167583 -76.124243)
(-1.6111602 136.43119 -103.40759)
(64.161822 205.97487 -132.59266)
(151.05327 290.50985 -165.67609)
(262.75949 388.35597 -197.59065)
(398.28973 499.09784 -230.4037)
(559.02815 621.75984 -261.52176)
(743.62902 754.81199 -290.4867)
(951.34899 895.92296 -316.10582)
(1180.9014 1043.6689 -337.93264)
(1430.046 1194.4976 -355.48582)
(1696.7103 1347.792 -368.64242)
(1977.8571 1499.6617 -378.04164)
(2270.3079 1648.48 -383.23957)
(2572.5506 1794.7933 -385.81771)
(2877.2711 1935.653 -385.51253)
(3187.335 2070.246 -382.78918)
(-10.082005 7.0126502 9.0566284)
(-33.157393 1.4840391 -2.7765741)
(-52.781063 -12.449235 -21.449947)
(-61.39512 -36.034453 -42.628316)
(-57.534683 -64.109848 -68.986709)
(-34.733145 -96.210528 -97.680861)
(9.8556276 -128.46484 -129.28712)
(79.021838 -157.24509 -161.20027)
(175.83237 -179.79504 -194.63201)
(298.93042 -193.08892 -226.4166)
(450.15566 -194.47347 -256.72375)
(628.60228 -182.0462 -283.84292)
(832.22574 -154.42725 -307.16709)
(1060.0432 -110.57658 -325.67494)
(1308.894 -50.933694 -339.23707)
(1576.7698 24.459408 -347.32856)
(1859.9443 114.09086 -350.60143)
(2155.7162 216.69895 -349.16028)
(2460.5969 329.79372 -343.95637)
(2771.3852 451.99711 -336.31009)
(3085.3221 580.03623 -326.87057)
(3399.035 711.74052 -317.51087)
(3710.9405 846.1259 -309.40816)
(-4.8813632e-16 1.9183015e-16 -1.0607077e-16)
(-2.6214496e-15 -5.6404768e-16 7.244144e-16)
(-2.4010456e-15 1.4295629e-15 -1.6975308e-16)
(-26.660956 14.678515 -9.0378146)
(-59.745883 37.625339 -6.4192251)
(-79.196967 29.101753 -5.0119121)
(-98.706158 26.198926 -14.420806)
(-97.237181 7.4774848 -26.635102)
(-79.461948 -12.494926 -44.04023)
(-41.071398 -36.278362 -64.759192)
(28.85626 -59.870034 -89.903209)
(123.12265 -80.080621 -116.2429)
(246.7675 -92.947929 -144.94873)
(400.48307 -98.850085 -173.2342)
(581.16369 -92.41108 -201.12887)
(789.76726 -75.04546 -226.92248)
(1022.033 -42.777046 -250.44248)
(1276.8879 2.7993192 -270.23079)
(1549.6672 63.625822 -286.51621)
(1838.063 138.16231 -298.67511)
(2137.6917 226.51827 -307.05595)
(2445.5118 326.9166 -311.90493)
(2757.8255 438.20995 -313.66748)
(3072.0254 558.06029 -313.14549)
(3385.1322 684.9573 -310.84124)
(3695.6552 816.11043 -307.40517)
(3870.5417 1255.4419 -323.51929)
(3738.6352 1557.2362 -340.78338)
(3612.1927 1862.1868 -358.52452)
(3172.9866 2037.9378 -384.65834)
(2861.6502 1902.9182 -392.5717)
(2552.1488 1764.6518 -401.30855)
(2246.2805 1624.0417 -409.56103)
(1947.5272 1482.0611 -415.8771)
(1659.7253 1340.2181 -418.96684)
(1386.2288 1199.9109 -417.77947)
(1130.3674 1062.9845 -411.80156)
(894.95101 930.72659 -400.3171)
(682.56487 804.98639 -383.38287)
(495.22772 686.46464 -361.29464)
(333.17767 577.17557 -334.76714)
(199.17982 476.96021 -303.94789)
(88.457932 386.46023 -270.72941)
(10.798148 304.97181 -234.45999)
(-50.945221 237.18334 -199.8472)
(-85.237326 176.22154 -163.39636)
(-103.67193 126.419 -130.21756)
(-100.09688 83.65002 -96.243499)
(-87.01056 51.15809 -66.386626)
(-64.550107 28.036347 -42.392055)
(-36.459209 8.4697694 -16.69797)
(-4.4167868 -3.3882322 2.5190627)
(-1.3028228e-15 -3.4252847e-16 3.3068324e-16)
(-2.0449562e-15 -3.5718549e-16 -7.3673077e-16)
(-1.4121951e-15 -1.0527101e-15 6.223458e-16)
(-1.2019486e-15 6.189313e-16 -3.4292956e-16)
(-1.2511779e-16 -6.848356e-17 2.1836215e-16)
(-3.8898857e-17 4.7141393e-16 -3.1043199e-16)
(4015.2855 969.77592 -304.11337)
(4011.7259 962.47259 -304.15357)
(4006.8568 954.75757 -304.52834)
(3490.7214 2195.3946 -379.73096)
(3487.6059 2187.9691 -380.06731)
(3483.4766 2179.7975 -378.80169)
(-15.235183 -4.659718 -5.5924028)
(-41.765658 -10.112956 -6.1451378)
(-64.272124 -13.73714 -14.109092)
(-80.875992 -13.62298 -27.19061)
(-86.706664 -7.9435741 -44.066597)
(-76.624929 6.2624158 -65.358646)
(-48.41845 27.922911 -89.851196)
(-0.15297026 61.457253 -118.21532)
(71.629432 105.56488 -147.92383)
(168.82567 164.32744 -179.50841)
(290.66329 235.26346 -210.6922)
(438.15746 320.10214 -241.55161)
(611.12711 417.91346 -270.3921)
(808.26312 528.03781 -296.62039)
(1028.4763 648.71332 -319.28437)
(1269.821 778.29964 -337.91758)
(1529.8416 914.77416 -352.3446)
(1805.7802 1055.8304 -362.44822)
(2095.0288 1199.3139 -368.47783)
(2393.8976 1343.0259 -370.88436)
(2700.0074 1486.0612 -371.02893)
(3007.9832 1625.5194 -368.08223)
(3319.4292 1762.4008 -364.75297)
(-14.664991 -3.5893179 -2.7440008)
(-37.38015 -10.349854 -9.1346602)
(-60.434299 -18.298214 -20.757076)
(-76.033141 -25.742381 -35.812483)
(-78.698419 -31.736888 -55.539694)
(-66.508427 -33.371712 -79.036969)
(-33.996623 -29.630248 -105.73085)
(20.781941 -16.944023 -134.53265)
(100.63778 5.0517386 -164.85706)
(205.14478 39.468288 -196.00204)
(336.42349 86.433133 -226.56708)
(493.67657 147.84797 -255.5668)
(676.73681 222.73497 -282.00391)
(883.98723 311.55054 -305.12772)
(1114.0142 412.65448 -324.26828)
(1364.289 525.21911 -339.09027)
(1632.4755 646.91334 -349.56544)
(1915.6158 776.02071 -355.59384)
(2210.6459 910.30404 -358.04076)
(2514.065 1047.1157 -357.56968)
(2823.4527 1185.6232 -354.35645)
(3134.6053 1322.6745 -350.42483)
(3447.9252 1459.0068 -345.96865)
(-11.606739 -3.9528675 0.22258012)
(-35.276128 -13.845396 -6.4782495)
(-57.39504 -24.368284 -20.279779)
(-70.481692 -39.464885 -38.315277)
(-71.370115 -56.543569 -60.979784)
(-55.125801 -72.579266 -87.155862)
(-17.151423 -85.855973 -115.50156)
(43.661029 -93.238348 -146.02611)
(130.19817 -92.667405 -177.36837)
(243.24895 -80.603254 -208.96721)
(383.90424 -56.501843 -238.88764)
(550.71972 -18.029065 -266.97876)
(743.85767 34.732768 -291.85989)
(960.86108 102.51783 -312.95395)
(1200.4567 184.49486 -329.61549)
(1459.6198 279.64913 -341.60879)
(1736.111 386.42918 -348.87564)
(2026.3576 502.94114 -351.82938)
(2327.3956 627.02011 -351.19174)
(2636.4855 756.15094 -347.01647)
(2949.2909 888.91548 -341.96319)
(3264.2165 1021.9439 -334.89275)
(3577.843 1155.0159 -328.78571)
(-2.5953868e-15 -2.1703571e-16 4.2716933e-18)
(-3.8783653e-15 3.5858996e-16 7.5215743e-16)
(-9.8459492e-16 7.8127033e-16 2.7525688e-16)
(-3.9146975e-16 7.8165185e-18 1.2560621e-16)
(1.6350797e-16 -2.4226884e-16 -1.2066667e-17)
(-1.0304172e-15 -9.2669207e-16 -7.5672327e-16)
(-6.4481012e-16 3.525084e-16 2.7116342e-16)
(-3.5205005e-15 9.4737515e-16 -2.5196009e-17)
(-3.8147498e-15 1.043275e-15 1.2924308e-16)
(-15.302884 4.2143661 5.7515335)
(-20.417678 8.5419968 5.2330519)
(-23.90313 9.9742863 0.55461378)
(-39.359122 12.390389 0.025154095)
(-46.380718 20.771751 -1.6454861)
(-52.412474 29.66235 -2.4658457)
(-54.754449 1.1199037 -15.787989)
(-61.405722 11.144693 -11.613215)
(-69.319757 23.820236 -8.3365059)
(-63.066039 -17.149467 -32.650131)
(-71.718121 -2.6364437 -25.800821)
(-81.273569 14.335101 -19.035724)
(-58.216391 -41.326991 -56.000311)
(-66.412005 -22.787434 -45.545861)
(-78.955937 -4.4128831 -35.484538)
(-34.547921 -69.510953 -82.126975)
(-43.523183 -48.560113 -67.661742)
(-57.719642 -27.796587 -55.655642)
(10.602372 -98.511654 -110.50655)
(2.9640129 -76.082314 -95.401173)
(-13.28321 -52.343413 -77.802406)
(82.615916 -125.29155 -141.63271)
(70.883448 -99.602463 -123.47869)
(55.481035 -76.681257 -106.57382)
(178.51042 -146.39167 -173.18429)
(169.38053 -121.38832 -154.75482)
(153.0357 -97.236275 -134.40297)
(302.86157 -159.41848 -205.15984)
(293.79311 -133.29387 -185.12279)
(276.639 -110.08347 -164.32034)
(455.30544 -161.86448 -235.06818)
(446.39073 -136.8216 -215.13503)
(429.92479 -114.51521 -193.48304)
(633.80767 -151.1607 -262.83115)
(625.76969 -127.20637 -243.36584)
(610.08222 -106.95123 -221.44277)
(838.56184 -126.73829 -287.14459)
(831.3649 -105.16878 -268.34332)
(816.6993 -87.024835 -246.97234)
(1066.4666 -86.839131 -307.19775)
(1060.193 -67.683277 -289.75963)
(1046.9432 -52.76786 -269.4387)
(1315.9309 -31.920346 -322.55971)
(1310.6192 -16.145845 -306.7473)
(1298.8525 -4.1477902 -287.95304)
(1583.4708 38.41453 -332.85211)
(1578.936 50.949256 -319.04909)
(1568.8179 59.287762 -302.25329)
(1866.3753 122.91139 -338.36432)
(1862.5958 131.58033 -326.70685)
(1853.9566 136.75112 -312.29014)
(2161.1512 220.39331 -339.23546)
(2157.8612 225.8161 -330.01549)
(2150.6511 227.57803 -318.12318)
(2464.8463 329.34742 -336.5944)
(2461.7565 331.18204 -329.5434)
(2455.6173 330.25525 -320.37548)
(2773.8042 447.63046 -330.84812)
(2770.7279 446.81631 -326.09921)
(2765.5983 443.3273 -319.60104)
(3085.7135 573.05861 -323.61533)
(3082.6373 569.43396 -320.96469)
(3077.9214 564.34561 -316.62351)
(3397.6664 703.452 -315.90842)
(3394.1923 698.39105 -314.63593)
(3390.0502 691.94525 -312.38267)
(3708.1502 837.02319 -309.14552)
(3704.4721 830.16606 -308.92217)
(3700.1421 823.38809 -307.81559)
(3622.4389 1888.1326 -360.96721)
(3619.26 1880.564 -360.51785)
(3615.0668 1872.0707 -359.36444)
(3750.376 1582.2617 -341.41977)
(3747.1447 1574.4953 -341.68669)
(3742.3572 1566.397 -341.28478)
(3883.121 1277.2751 -322.79408)
(3879.8107 1269.9622 -323.65181)
(3874.9337 1262.3093 -323.23951)
(-20.588567 -18.501313 0.73745112)
(-15.947664 -14.47885 1.5039166)
(-12.536676 -12.076649 5.215417)
(-38.342357 -22.497805 -5.1769846)
(-35.785117 -12.924444 -7.0816627)
(-36.287112 -8.6099984 -11.736424)
(-55.517398 -14.810758 -13.405906)
(-56.092694 -3.6176257 -20.372198)
(-56.448634 7.1407558 -30.610531)
(-68.141573 -2.0452946 -28.308716)
(-70.086741 15.530528 -37.801523)
(-72.637394 28.863145 -52.779307)
(-73.059803 25.115433 -45.741359)
(-74.665752 43.569541 -62.272243)
(-82.124863 60.425108 -79.364878)
(-62.870897 61.018292 -70.397299)
(-68.919219 82.745028 -86.657664)
(-77.338159 101.467 -111.02062)
(-38.532456 107.64758 -95.963875)
(-44.940101 131.11517 -116.52824)
(-56.250156 152.43057 -142.08349)
(5.0935035 167.25249 -126.52724)
(-4.6199511 193.18534 -148.61251)
(-17.543751 214.07271 -177.71098)
(66.250709 239.94937 -157.19675)
(59.361199 264.86749 -184.44302)
(42.36123 285.65576 -210.6893)
(155.28902 325.16355 -192.96749)
(142.99171 348.21044 -215.78063)
(127.22213 368.50075 -248.84911)
(265.5303 421.02094 -225.55951)
(253.29722 443.65366 -251.11329)
(235.93587 462.23781 -281.33454)
(400.28021 530.23431 -258.80067)
(387.32922 550.31999 -283.378)
(369.84842 566.54222 -313.67031)
(560.20507 649.6886 -289.42049)
(547.05838 666.68297 -313.44382)
(529.63541 680.24368 -341.64446)
(744.02888 778.5172 -317.19805)
(731.41445 792.40754 -339.50162)
(714.69466 802.60333 -365.67246)
(951.55715 915.33638 -341.06501)
(939.48392 925.40904 -361.33418)
(923.65148 932.43564 -384.84833)
(1180.6244 1057.8606 -360.32197)
(1169.6934 1064.498 -378.33434)
(1155.1479 1068.2249 -398.67705)
(1429.6504 1204.3804 -375.02194)
(1419.846 1207.3977 -390.33129)
(1406.9075 1208.1318 -407.13686)
(1695.8039 1352.6146 -385.03243)
(1687.5463 1352.5791 -397.2663)
(1676.0973 1350.5608 -410.74828)
(1976.5482 1500.6442 -390.3489)
(1969.6856 1498.0624 -400.12732)
(1959.8468 1493.8636 -409.97957)
(2268.8597 1646.5697 -391.76995)
(2263.2823 1642.1958 -399.31153)
(2254.9629 1636.199 -405.68455)
(2569.6471 1789.8048 -391.4873)
(2565.1121 1783.691 -395.6885)
(2557.9958 1776.5035 -399.28448)
(2874.8436 1928.777 -388.32169)
(2870.2884 1921.6804 -390.37524)
(2865.0098 1913.9557 -391.70298)
(3183.9851 2063.7367 -383.32956)
(3180.1754 2056.0094 -384.18444)
(3175.9578 2047.9137 -384.54442)
(-7.8437495 8.6252652 -4.7331654)
(-43.70309 32.240411 -22.775709)
(-74.599853 43.756862 -35.613674)
(-99.935705 58.542984 -55.891762)
(-114.2803 79.873082 -81.985218)
(-113.31028 102.3014 -108.64559)
(-93.022498 131.36606 -138.79884)
(-51.128564 168.24613 -171.4307)
(16.342135 213.40759 -203.55019)
(108.35623 267.24679 -236.32604)
(228.6222 331.06549 -268.08205)
(375.9252 405.88667 -296.99496)
(550.92254 490.24029 -323.04854)
(751.73308 585.55808 -344.88338)
(976.95518 690.23349 -362.50432)
(1224.3149 803.5513 -375.04682)
(1490.8295 924.6524 -382.89396)
(1773.3633 1051.9069 -386.38925)
(2068.4085 1183.7834 -385.89983)
(2372.5769 1319.0694 -382.55297)
(2681.9752 1456.014 -377.18461)
(2993.4863 1592.3533 -371.21531)
(3305.4525 1729.6156 -364.315)
(-19.348665 4.1270077 -6.7219275)
(-53.778871 22.902656 -13.53838)
(-79.392911 27.207692 -24.291755)
(-102.73779 37.962708 -42.989103)
(-112.19814 45.20952 -63.000226)
(-106.20003 52.736512 -87.064864)
(-79.203277 65.414019 -114.47327)
(-29.447097 83.225703 -144.27068)
(47.272804 105.83268 -174.54357)
(149.06449 139.2284 -206.23846)
(280.59831 180.51154 -235.98359)
(438.8255 234.08982 -265.34691)
(625.2332 296.96625 -291.00427)
(836.35923 373.24927 -313.66874)
(1071.5545 459.24577 -331.97874)
(1327.5225 556.85526 -345.91402)
(1601.4551 663.67328 -355.34519)
(1889.9675 779.11792 -360.56568)
(2189.6193 901.53757 -361.86467)
(2496.7827 1029.1219 -360.28484)
(2808.3526 1160.4961 -356.51659)
(3120.4502 1293.344 -351.25448)
(3434.1683 1428.0905 -345.86533)
(-20.94182 4.0338223 -8.620244)
(-55.366357 15.403379 -13.597918)
(-80.488111 20.543985 -21.111543)
(-100.85211 21.14733 -30.794977)
(-107.35652 17.31709 -46.608321)
(-95.925845 13.31909 -66.583965)
(-63.491506 8.028415 -89.519268)
(-6.6825633 6.9131248 -115.74869)
(77.947993 10.278208 -143.75955)
(189.85486 21.240152 -172.61117)
(331.04463 41.231474 -201.50281)
(499.76902 71.844331 -229.26248)
(696.33117 114.26736 -254.5656)
(917.77963 169.15244 -277.29146)
(1162.6531 236.58923 -296.30259)
(1427.5245 316.33386 -311.42522)
(1709.3039 407.83253 -322.49707)
(2004.6262 509.78068 -329.62798)
(2309.7039 621.12152 -333.2175)
(2621.2966 739.8718 -334.07181)
(2935.7912 864.76724 -332.2165)
(3250.787 992.99896 -330.11315)
(3563.5665 1123.9239 -325.4626)
(-12.51784 0.49335725 -0.50537225)
(-13.092583 1.113694 -0.55048387)
(-11.408404 5.3143172 0.71770456)
(-40.498369 -3.0288496 -5.9010213)
(-40.208757 4.7950496 -8.3485445)
(-41.266703 12.036065 -12.882994)
(-60.350917 -2.2897361 -15.348006)
(-63.030187 9.5333552 -20.954411)
(-65.510867 24.188442 -27.741538)
(-76.946263 3.4727138 -31.146082)
(-79.93659 19.661906 -39.621384)
(-85.357502 34.923626 -47.398076)
(-81.095941 14.487588 -50.64415)
(-86.056102 33.330655 -60.324456)
(-93.929802 52.905841 -71.165756)
(-71.456742 32.196931 -74.371947)
(-78.000678 54.972632 -86.13372)
(-88.133661 76.266701 -98.253811)
(-43.802772 58.429301 -101.0384)
(-51.339326 82.79779 -115.09244)
(-64.007425 105.19935 -127.74076)
(3.9522281 94.713402 -131.65364)
(-4.8222128 120.23447 -145.65413)
(-18.969282 142.94949 -160.00387)
(75.995723 140.55503 -162.82532)
(65.818176 166.69287 -177.92429)
(50.300496 189.83496 -193.1989)
(171.58843 199.05531 -195.89597)
(160.30399 225.571 -211.45003)
(144.24629 245.85197 -225.90418)
(292.54486 269.47116 -227.7943)
(281.13805 293.64454 -243.63817)
(264.18876 313.69442 -257.75514)
(439.20293 352.16609 -259.38515)
(427.57314 374.84454 -274.52052)
(410.79673 391.70652 -288.53189)
(611.62959 447.04533 -288.04382)
(600.17616 466.3896 -302.43422)
(583.78491 480.88904 -315.18017)
(808.29121 552.94205 -313.83188)
(797.46439 569.29707 -326.82914)
(781.98336 579.95081 -338.43457)
(1028.3673 669.08948 -335.32745)
(1018.1649 681.50872 -346.79572)
(1003.8793 689.05875 -357.04939)
(1269.3186 793.62045 -352.53199)
(1260.2797 802.38079 -362.26541)
(1247.3792 806.26786 -370.90359)
(1529.218 925.16202 -365.00862)
(1521.2159 929.93895 -372.78746)
(1509.8885 930.74912 -379.71818)
(1804.8873 1061.3006 -373.02528)
(1798.2266 1062.7789 -378.76845)
(1788.4005 1060.7059 -384.21527)
(2093.7782 1200.7115 -376.58104)
(2088.1292 1198.768 -380.76679)
(2079.7415 1194.649 -384.44618)
(2391.9631 1340.6793 -377.02195)
(2387.938 1337.1163 -379.30856)
(2380.3907 1330.6904 -381.79351)
(2697.0589 1480.4299 -374.91744)
(2693.416 1475.9137 -375.34724)
(2687.3636 1467.9723 -376.94652)
(3005.6585 1618.5904 -370.20961)
(3001.6846 1611.771 -370.53077)
(2996.8142 1603.516 -371.19271)
(3315.7208 1755.5139 -365.06543)
(3312.2585 1747.6171 -365.17432)
(3308.1266 1739.6758 -364.88549)
(-16.149743 -1.5171463 -0.47809603)
(-16.810289 0.0069806562 0.97943783)
(-17.813471 4.3348101 -1.0131404)
(-39.676673 -3.4899864 -7.6921275)
(-42.336371 4.4165309 -7.8207787)
(-45.428504 13.11644 -10.372953)
(-60.786287 -6.4409054 -19.448208)
(-63.746804 4.6454507 -20.145063)
(-69.701672 18.137276 -22.316769)
(-75.337071 -9.4556155 -35.558177)
(-79.522912 6.4736533 -36.887487)
(-87.656356 22.980106 -38.998536)
(-77.756899 -10.370993 -56.125525)
(-82.150747 8.8215715 -56.952311)
(-93.250543 28.956983 -60.125821)
(-64.560352 -8.5060091 -80.51869)
(-70.309979 14.025252 -81.905883)
(-83.931763 35.331818 -84.773335)
(-31.573681 -0.75492467 -107.98398)
(-37.953921 23.2514 -108.82175)
(-53.066095 46.230573 -111.8905)
(23.246739 13.717923 -137.93803)
(15.780365 40.244417 -138.75583)
(-1.1157108 63.260643 -142.70231)
(102.11311 37.876518 -169.14513)
(95.184419 64.12316 -170.27691)
(76.899264 87.241244 -173.47706)
(207.0443 72.564165 -201.10871)
(199.07011 99.04405 -201.90612)
(180.09877 120.90615 -205.25489)
(338.13308 119.14847 -232.42011)
(330.45097 143.94397 -232.60219)
(311.30048 164.00824 -236.37133)
(495.5546 178.26552 -262.00812)
(487.61132 201.94139 -262.05135)
(469.15169 219.08502 -265.87968)
(678.43896 250.57793 -288.77827)
(671.36802 270.86346 -288.72485)
(653.40044 285.4888 -292.19345)
(885.92558 335.34044 -312.01011)
(879.0653 352.94179 -311.69853)
(862.56423 363.78625 -315.05613)
(1115.8303 432.24335 -331.06937)
(1109.8846 445.78862 -330.57921)
(1094.7811 453.48462 -333.81912)
(1366.2104 539.94053 -345.41807)
(1360.9139 549.87442 -344.86546)
(1347.5869 553.73969 -347.76778)
(1634.2652 656.86436 -355.27964)
(1629.6849 662.69889 -354.60219)
(1618.2157 663.63456 -357.21609)
(1917.0265 781.33477 -360.52555)
(1913.1666 783.70363 -359.78841)
(1903.3914 781.56049 -362.24782)
(2211.6629 911.50368 -361.98024)
(2208.1931 910.53903 -361.43492)
(2200.06 906.09813 -363.27203)
(2514.2278 1045.4871 -360.45098)
(2511.2447 1040.969 -359.62445)
(2504.4421 1035.3634 -361.36334)
(2823.4426 1181.0859 -355.95307)
(2819.0505 1174.1811 -356.38216)
(2814.3354 1167.6753 -357.16683)
(3133.1765 1316.0716 -351.41689)
(3129.4109 1309.4423 -350.92595)
(3124.8687 1301.2974 -351.85041)
(3444.9196 1451.5162 -346.27028)
(3441.7015 1443.8255 -346.03579)
(3437.4088 1436.2031 -346.01897)
(-14.703712 -2.1401775 1.3363088)
(-16.404483 1.0590104 0.3946447)
(-18.952855 1.7544546 -1.6233212)
(-39.292453 -5.2200882 -3.8253617)
(-43.102837 1.9478182 -5.1859528)
(-49.077704 8.2781187 -6.8846556)
(-59.028549 -10.690528 -15.95849)
(-63.987529 1.4358666 -15.511745)
(-72.211442 11.908484 -15.829716)
(-70.588821 -20.93562 -33.012925)
(-77.084941 -4.1964809 -31.219995)
(-86.298451 8.8855812 -29.832705)
(-70.088908 -32.922256 -53.992776)
(-77.51323 -13.611276 -50.894549)
(-89.274572 2.7545638 -47.144938)
(-52.593759 -45.124779 -79.240325)
(-60.837585 -22.46749 -74.134303)
(-74.359333 -3.9914083 -69.806461)
(-14.053171 -55.128576 -106.88427)
(-23.1242 -30.135408 -100.35712)
(-37.857893 -9.8388676 -95.25138)
(47.496133 -59.56648 -136.82602)
(37.296929 -33.755744 -130.31508)
(21.89191 -12.684634 -122.9051)
(134.76723 -57.212436 -168.13322)
(124.54677 -30.889814 -160.06456)
(107.85953 -8.5764398 -152.62293)
(248.46743 -45.023201 -199.83585)
(237.40665 -18.787242 -191.38695)
(221.23201 2.4835598 -183.16129)
(389.19589 -21.583255 -230.28882)
(378.857 3.2415818 -221.57666)
(362.50012 24.009269 -213.01037)
(556.65595 14.791758 -259.15737)
(546.1928 37.382153 -250.42762)
(531.03715 56.61734 -241.66585)
(750.01084 64.41467 -284.85942)
(740.58119 84.423856 -276.196)
(726.04185 101.55232 -267.6725)
(967.50908 128.02878 -307.0072)
(958.45614 144.66566 -298.68164)
(945.67138 159.17262 -290.44411)
(1207.1753 205.09468 -324.6014)
(1199.4113 218.17282 -316.81239)
(1187.8115 229.70975 -309.24552)
(1466.4919 294.91433 -337.61453)
(1459.4448 304.0646 -330.59642)
(1449.6436 312.57791 -323.6599)
(1742.5605 396.23168 -345.80562)
(1736.6003 401.6981 -339.61692)
(1728.1593 406.99951 -333.67733)
(2032.1716 507.52183 -349.60429)
(2026.9958 509.3838 -344.4203)
(2020.0614 511.86043 -339.47028)
(2332.3982 626.84072 -349.46682)
(2327.941 625.647 -345.3705)
(2321.9454 625.249 -341.41388)
(2639.6901 752.22081 -346.19019)
(2635.4903 748.56088 -343.21053)
(2630.5324 746.11932 -340.38679)
(2951.0678 881.92383 -341.24374)
(2947.2114 876.128 -338.83323)
(2942.7683 872.04396 -336.96282)
(3263.8406 1013.5118 -334.53892)
(3260.2944 1006.8341 -333.24014)
(3256.0216 1001.2193 -332.35961)
(3575.7308 1145.866 -328.51898)
(3571.9156 1138.1708 -327.8511)
(3567.7371 1131.7324 -327.29865)
)
;

boundaryField
{
    free
    {
        type            zeroGradient;
    }
    fixed
    {
        type            fixedValue;
        value           nonuniform List<vector> 
25
(
(-2.5953868e-15 -2.1703571e-16 4.2716933e-18)
(-1.3028228e-15 -3.4252847e-16 3.3068324e-16)
(-1.9658614e-16 -3.2115893e-17 -1.1045223e-16)
(-3.6361799e-15 2.112754e-16 -3.2990721e-16)
(-3.8783653e-15 3.5858996e-16 7.5215743e-16)
(-2.0449562e-15 -3.5718549e-16 -7.3673077e-16)
(-9.8459492e-16 7.8127033e-16 2.7525688e-16)
(-1.4121951e-15 -1.0527101e-15 6.223458e-16)
(-4.8813632e-16 1.9183015e-16 -1.0607077e-16)
(6.5239771e-16 2.739523e-16 -5.5565719e-16)
(-3.9146975e-16 7.8165185e-18 1.2560621e-16)
(1.4766345e-16 -3.4299605e-16 -2.8648028e-16)
(1.6350797e-16 -2.4226884e-16 -1.2066667e-17)
(-1.0304172e-15 -9.2669207e-16 -7.5672327e-16)
(-2.6214496e-15 -5.6404768e-16 7.244144e-16)
(-6.4481012e-16 3.525084e-16 2.7116342e-16)
(-1.0135278e-15 7.0169807e-16 1.7538027e-16)
(-3.5205005e-15 9.4737515e-16 -2.5196009e-17)
(-3.8147498e-15 1.043275e-15 1.2924308e-16)
(-2.4010456e-15 1.4295629e-15 -1.6975308e-16)
(-1.2019486e-15 6.189313e-16 -3.4292956e-16)
(2.8178306e-17 1.9013092e-16 6.1994168e-17)
(-1.2511779e-16 -6.848356e-17 2.1836215e-16)
(-3.8898857e-17 4.7141393e-16 -3.1043199e-16)
(-3.7042918e-15 1.4868296e-15 -1.3023874e-15)
)
;
    }
    freeTop
    {
        type            zeroGradient;
    }
}


// ************************************************************************* //
