/*--------------------------------*- C++ -*----------------------------------*\
  =========                 |
  \\      /  F ield         | OpenFOAM: The Open Source CFD Toolbox
   \\    /   O peration     | Website:  https://openfoam.org
    \\  /    A nd           | Version:  6
     \\/     M anipulation  |
\*---------------------------------------------------------------------------*/
FoamFile
{
    version     2.0;
    format      ascii;
    class       pointScalarField;
    location    "0.24";
    object      E;
}
// * * * * * * * * * * * * * * * * * * * * * * * * * * * * * * * * * * * * * //

dimensions      [1 -1 -2 0 0 0 0];

internalField   nonuniform List<scalar> 
625
(
10376.527
9329.2005
12923.006
11748.564
10731.738
7772.5163
12488.456
13082.645
3458.9487
1112.9465
6939.4134
13174.631
11453.559
12376.664
14953.508
14468.635
14542.286
14829.087
13753.61
13142.754
11892.993
10572.099
9193.9908
7425.2018
6313.2949
5008.9641
4380.7586
3789.9417
3697.4389
3854.2424
4324.1342
5200.8528
6307.5956
7342.3627
9183.1608
10018.093
12012.573
14378.237
11974.194
14152.184
13317.664
12853.712
12754.293
11044.309
10299.89
9188.59
7482.6109
6803.9484
5657.4832
5106.8276
4705.2728
4636.0965
4853.6394
5261.0347
6090.1432
7055.6012
8108.5173
9556.7492
10436.846
11849.241
3655.5846
296.15318
5143.7327
16249.524
20876.453
14665.056
18346.249
17046.832
13757.018
14666.115
12956.401
11802.73
10466.532
8751.9717
7863.6906
6624.4918
6080.2552
5719.8079
5553.1227
5824.9161
6307.2727
7020.7665
7943.9033
8949.0537
9981.1345
11455.793
12687.589
10968.49
13608.253
12649.704
10304.55
9182.692
7698.8926
6459.2441
5337.3786
4458.3499
3923.2486
3733.7459
3999.3044
4483.2739
5633.5511
7030.5878
8513.7318
9673.5125
11357.49
13677.567
14458.477
15920.169
16106.778
16934.084
17191.302
17676.057
7227.4068
8063.6189
8640.2714
6434.3502
6000.4583
5909.8533
11537.497
12094.931
11962.63
12665.157
13142.637
12964.128
6660.1944
5152.2787
5875.4982
5627.9794
5321.1985
5292.4471
4736.049
4140.3411
3705.5257
3318.0458
2968.0146
2683.8754
2577.9415
2659.2602
2964.2323
3449.2328
4217.5631
4994.3811
6103.1329
7288.2562
8773.4448
9532.5412
12598.451
2405.6584
1803.9915
2446.3858
2192.6221
2479.4924
2758.007
2482.4965
2930.8817
2735.0131
2698.3249
2806.0243
2835.6732
3061.4328
3314.0007
3661.0283
4171.8881
4716.204
5434.6455
6354.0481
7032.6034
8392.455
9216.2881
12556.288
5896.3733
5167.2179
5192.8328
4819.6894
4816.5493
4383.3744
3895.2945
3488.1532
2780.7687
2501.9658
1933.2312
1689.0759
1489.3649
1537.7066
1814.3054
2333.2064
3052.6438
4032.4962
5007.3792
6650.5057
7863.0127
9915.9864
12195.181
2086.1574
2534.3615
2576.8245
321.87124
160.75319
484.76416
3217.0889
3124.3652
3210.5444
14087.399
14573.782
15127.695
19184.392
17990.674
17702.645
14911.818
13551.919
14877.855
16222.092
16767.804
16383.584
15725.847
13629.926
15249.783
14759.733
14345.855
14329.626
14262.43
12964.889
14458.193
13225.011
10599.264
12493.536
11631.071
10557.28
11937.397
10956.74
8666.0076
10353.258
9368.186
7650.0169
9069.8268
8405.7868
6542.5926
8143.6938
7445.9716
5849.484
7352.584
6970.5292
5410.8961
6805.6223
6595.0067
5180.5504
6595.1538
6508.1341
5338.8638
6535.1292
6688.8808
5665.7301
6732.2037
7120.5661
6357.4115
7230.3588
7797.3198
7227.8875
7882.2214
8554.3052
8209.8348
8663.9756
9419.236
9333.2961
9535.5297
10260.256
10258.243
10432.75
11308.385
11461.564
11554.975
13186.287
13679.731
13433.804
11085.839
11503.752
10876.184
12678.373
13075.34
12714.062
15177.953
13739.554
14773.045
16656.83
15159.609
16346.517
16394.495
15954.406
16837.189
15717.917
14960.859
16023.363
15198.852
14778.977
15362.326
14178.299
13118.535
14511.904
12865.248
12578.245
13536.013
11839.738
10855.559
11943.346
9981.3795
9877.4892
10399.391
8541.7638
7745.497
9224.0266
7165.5596
6706.1482
7678.3888
6197.9978
5305.0757
6682.8131
5208.7038
4604.847
5840.936
4835.0797
4088.7771
5324.8917
4614.4142
3898.3201
5164.6459
4734.8276
4119.5567
5278.7964
5216.8513
4618.0876
5719.1545
5931.4195
5469.9547
6412.3588
6935.0758
6601.6232
7349.2073
8018.4319
7847.1374
8341.1078
9565.6313
9514.4739
9621.9071
10404.777
10182.898
10304.986
12257.315
12181.884
12306.377
10207.888
10450.33
9795.6533
9706.5736
10226.885
8801.8298
8862.3099
7856.745
6918.9744
5786.2228
5440.9108
4504.2136
3803.3973
3479.8447
3386.3323
3592.6486
4064.736
4798.4396
5730.2896
6994.5434
8600.5331
9965.0434
13257.253
1236.3704
4649.9163
1751.1783
3541.2636
3115.3791
3168.2229
3622.1986
3443.019
3946.2833
3690.2768
4151.5911
4274.9499
4512.9502
5020.3858
5524.7518
6142.1066
6885.6914
7703.8945
8579.1644
9447.4339
10473.456
10591.11
14025.73
7093.2245
4168.8426
5386.6816
5522.9203
5117.658
4965.816
4382.3743
3938.2552
2704.8411
2486.621
1858.8866
1499.4512
1330.7847
1418.4622
1725.0732
2350.4327
3175.4449
4231.5304
5516.435
7068.0298
8689.5576
10643.893
12530.361
7784.7448
7281.564
7527.0354
7644.6087
8201.8599
8314.5324
7970.0643
8299.5441
8108.5497
7426.0676
7430.5307
7465.1996
7705.5997
8007.9883
8062.4351
7220.0297
7167.9504
7046.5973
6839.256
6935.7243
6948.0714
6267.6223
6278.098
6385.8173
5776.936
5504.3197
5709.4862
5163.4187
5059.7073
5187.8404
4624.9263
4384.0337
4522.8953
4140.5885
3953.0155
4237.9237
3892.7884
3636.4005
3857.9492
3786.136
3500.1997
3737.4622
3910.1006
3583.1113
3842.6721
4236.7388
3957.4867
4173.8047
4815.0075
4525.0851
4677.5175
5491.075
5283.8596
5376.5559
6443.522
6220.9371
6307.4333
7177.9588
7572.1126
7181.1476
8288.6813
9075.1379
8565.7831
9870.2299
9685.8748
9439.4848
12458.962
12549.359
12679.774
1663.1264
1426.9149
1040.6323
3061.2416
4075.7565
3899.165
2081.451
1527.7537
1438.6956
2448.7606
3174.5667
3130.0714
2721.6718
2571.3884
2417.6255
2796.5848
2633.4625
2658.5361
2659.4168
2849.1513
2854.8168
3080.1065
2688.4182
2543.1239
2833.2828
2815.2445
2936.8037
3116.9591
2894.8262
2776.1522
3225.1971
2867.9848
2898.4295
3325.2704
3108.0892
3094.4462
3662.5436
3377.7004
3240.3016
3970.6237
3689.2107
3583.3359
4445.4178
4194.6983
4031.8872
5006.9019
4759.9949
4551.9872
5646.2373
5433.9935
5204.2429
6400.4303
6217.3507
5971.8636
7312.0702
7165.171
6875.4384
8309.3757
7879.682
7715.2725
9838.4491
8407.3228
9221.3495
9983.5507
9797.4753
9513.1586
12802.013
13028.971
13082.193
5953.9743
5833.6828
6213.7487
5084.2015
4865.7987
5488.4065
5341.4971
6501.6877
6301.334
5398.5312
5702.2031
6013.6365
5084.1936
6039.3554
6039.4378
4640.1753
5419.079
5688.317
4414.0217
4813.8934
4940.2466
3540.4486
4310.0948
5032.982
3171.3563
3714.6409
4061.6515
2749.2809
3019.8185
3668.8867
2260.2271
2494.826
3226.1781
2185.9837
2092.1757
2923.897
2066.5342
1800.1339
2770.5108
2241.3371
1782.5663
2868.0745
2618.4334
2032.6606
3166.6741
3226.6684
2482.0956
3713.4817
3993.6811
3221.7364
4459.8733
4963.7069
4138.6222
5392.694
6057.2797
5247.4838
6427.7639
7331.4408
6775.9041
7749.5215
8682.2471
8175.3476
8988.0398
10331.725
10354.07
10921.817
12306.034
11930.154
12327.802
)
;

boundaryField
{
    free
    {
        type            zeroGradient;
    }
    fixed
    {
        type            zeroGradient;
    }
    freeTop
    {
        type            zeroGradient;
    }
}


// ************************************************************************* //
