/*--------------------------------*- C++ -*----------------------------------*\
  =========                 |
  \\      /  F ield         | OpenFOAM: The Open Source CFD Toolbox
   \\    /   O peration     | Website:  https://openfoam.org
    \\  /    A nd           | Version:  6
     \\/     M anipulation  |
\*---------------------------------------------------------------------------*/
FoamFile
{
    version     2.0;
    format      ascii;
    class       pointScalarField;
    location    "0.24";
    object      p;
}
// * * * * * * * * * * * * * * * * * * * * * * * * * * * * * * * * * * * * * //

dimensions      [1 -1 -2 0 0 0 0];

internalField   nonuniform List<scalar> 
625
(
442355.84
-693098.52
-291.74014
3090.5579
928836.45
-1313950.7
3076.756
-797.92711
386608
-35735.412
-113178.43
-2025.1408
-252.85732
1006.7561
201623.84
229002.18
244176.02
253671.18
244521.51
245865.06
237267.97
223871.93
218715.33
194329.72
181118.06
161719.9
144200.36
125272.15
107728.16
90541.36
73356.271
58883.336
43027.589
30401.384
18740.229
7665.4618
2324.8917
-254362.3
-190749.71
-258708.53
-225952.32
-225129.14
-230603.69
-213696.48
-203729.08
-196881.84
-178301.64
-163162.26
-146043.74
-129139.06
-110960.18
-94014.831
-77287.196
-61593.48
-47231.5
-33259.696
-22656.379
-11909.506
-5150.3764
-293.64054
551088.38
-14418.535
-169207.29
-253999.43
-350560.62
-281372.07
-264179.17
-308495.28
-259957.21
-242166.24
-247539.69
-228554.08
-214023.22
-191870.72
-173674.11
-151798.98
-131304.99
-111779.92
-91927.422
-74061.077
-57110.123
-41440.394
-27747.883
-15865.993
-6479.2807
536.55193
1642.9353
-1043.3433
-1560.2532
2376.5744
8913.1404
17190.575
29533.468
44282.041
60274.418
78039.942
96989.226
116680.13
137288.48
157457.8
179816.07
196497.56
207149.12
248378.52
246708.65
262014.09
261980.68
294387.41
258197.8
282530.28
283026.61
228958.59
494622.13
487915.55
463687.08
-744813.92
-756018.77
-745145.14
2660.653
3698.5515
4646.052
-1901.953
-1518.7438
-1300.223
126531.31
148221.45
158518.81
152012.47
145754.7
153571.97
139167.05
136805.49
122501.55
116478
107045.73
96275.486
84761.697
73773.158
63059.889
52188.536
42250.832
32816.022
23678.639
17280.967
9967.8591
5363.9572
2055.2192
-31647.489
-25007.169
-36511.944
-21962.21
-31100.171
-25396.31
-26334.968
-21287.879
-19298.251
-17192.611
-15972.009
-13709.821
-11270.6
-8676.4171
-6479.1148
-4448.2625
-2449.8271
-685.90643
363.18554
1625.2323
1471.9466
2406.7312
1598.8852
-172735.76
-155300.04
-151597.14
-140148.9
-158007.55
-138200.61
-139297.27
-129558.15
-121909.62
-110877.1
-101109.67
-88289.529
-77516.467
-66077.686
-55379.535
-45001.733
-35281.944
-26110.88
-18531.157
-10324.647
-6319.5086
-2539.9548
-249.15956
309138.67
307653.18
323210.14
-38304.533
-19189.825
-41850.765
-82218.596
-101580.05
-159918.64
-360268.93
-352649.3
-368022.63
-320889.63
-297819.58
-291813.94
-283338.72
-265507.74
-281576.19
-250786.75
-245705.39
-253565.35
-256204.94
-252086.34
-266028.34
-243888.41
-234145.84
-240809.52
-238499.51
-234769.74
-244277.15
-229211.82
-211779.85
-227438.36
-212306.82
-202495.92
-212848.93
-195152.24
-185303.42
-197188.16
-176966.98
-168670.26
-176827.18
-158211.57
-149274.33
-157788.11
-137628.13
-130632.87
-137664.12
-118436.74
-111668.51
-117901.71
-99527.911
-93805.385
-99479.604
-81534.32
-76762.84
-81318.994
-64718.77
-60404.794
-64357.408
-48838.832
-45645.084
-48625.405
-34546.71
-31647.551
-33891.833
-22252.184
-20414
-21592.075
-10892.097
-9853.2686
-10431.367
-3732.9166
-4141.8998
-3919.6356
-55.861572
1490.1389
795.75061
-2427.3599
-2199.9744
-2651.4807
-1326.2075
-1591.6099
-960.15572
2382.7668
2849.6169
3547.9883
276372.44
242194.06
276652.1
276203.1
240009.34
267778.23
296552.55
259960.73
286869.11
272252.42
246670.22
272589.93
274979.85
256793.8
266970.97
274093.14
236118.32
262367.46
259290.38
238150.86
257743.78
253088.21
224269.64
242276.13
229595.7
215175.62
225166.72
218427.62
196620.16
213330.34
199065.09
180323.88
191402.98
180369.65
159860.65
174168.8
157382.95
142246.74
153410.55
137673.47
123747.19
133147.61
116851.59
105564.56
113175.55
97048.312
88248.642
93960.409
78376.908
71651.457
75710.929
60558.917
56009.074
58366.386
43529.361
41339.051
42384.984
29502.783
27728.259
28759.839
16645.809
15172.071
16037.342
6781.5601
6913.8545
7470.0933
1667.1453
1350.0186
1920.0375
149767.68
172708.25
141270.38
164201.95
159607.35
155418.32
152059.59
146620.55
130268.65
125371.23
119148.16
103341.99
91346.895
79969.073
68123.324
57130.93
46417.485
36643.837
27645.582
19198.301
12539.54
6836.7536
847.66512
-22226.617
16215.817
348.56353
25985.562
28831.702
23605.283
30427.681
28022.37
25961.54
26634.682
26054.025
23567.264
21795.821
19765.979
17573.377
15556.887
13259.072
11482.684
8929.326
6929.1945
5293.9555
2633.2814
1051.1081
-91148.634
-91021.373
-136203.42
-127470.11
-137037.43
-140568.67
-134255.14
-127081.44
-118613.53
-112088.47
-102790.9
-92119.41
-82966.332
-72029.67
-62444.809
-52538.16
-43223.329
-34368.633
-26548
-18974.356
-12722.532
-6338.2716
-3724.7912
176736.07
205065.37
175856.43
169112.96
193013.79
175266.82
137916.29
147081.33
173162.55
124583.88
174179.07
143900.64
152966
140704.14
150489.18
118487.14
152679.96
153370.25
126110.46
145671.3
137539.22
118313.23
134243.53
133410.95
115804.31
122744.82
133117.87
101414.49
119266.95
115058.68
94016.905
105336.26
106920.31
81821.688
95901.558
96674.766
74191.335
84640.324
85525.973
64404.99
73075.621
74340.684
55029.964
61840.793
63566.267
45991.051
51409.75
52715.124
37521.786
40850.517
42477.541
29264.246
31293.588
32583.75
21717.255
21947.7
23818.637
15726.611
15231.931
16248.372
8446.3465
8689.8697
8727.5575
5721.2494
4767.062
5937.0099
634.50165
91.344943
-73.804892
-40804.715
-45269.056
-24621.209
-19517.113
213.32516
-12192.926
-1030.5265
-6122.0644
-11509.954
-1676.3894
-2294.3747
-20155.242
-2223.8571
1909.854
2013.195
-1143.4367
9600.3897
-11240.994
4457.7708
6880.6313
-6618.336
325.08865
11354.496
-1669.9781
2170.531
13143.173
-5358.6396
4966.9114
12032.525
745.46197
4036.6651
12841.945
461.37579
5996.6037
14475.758
2627.9005
6649.7431
14144.304
2259.7178
6747.1053
13304.655
3615.4764
6821.8411
13294.183
3879.3729
6941.7652
12388.94
4174.0216
6750.8011
11347.073
4470.1666
6214.9168
10556.859
4244.8059
6281.1208
8395.916
4916.8884
5517.7539
7320.2226
3551.8088
4647.2298
3660.0208
3704.433
2322.0441
3856.183
2745.9589
1878.5378
2130.5918
2489.762
-162117.96
-175501.67
-199751.57
-121257.14
-99368.123
-145880.43
-122958.99
-172871.21
-155026.11
-160327.52
-136681.79
-146790.05
-133013.77
-152135.43
-150476.3
-134124.91
-148889.48
-149187
-132366.86
-145316.88
-138545.25
-123498.34
-136791.36
-145831.92
-112651.07
-134700.04
-127795.55
-109782.06
-120498.59
-121669.47
-96420.565
-110982.8
-110906
-87297.042
-99518.29
-100425.27
-76188.072
-88910.781
-88791.488
-65808.196
-76965.258
-77359.533
-55291.671
-65789.833
-65754.915
-45700.542
-54811.686
-55255.81
-36350.999
-44468.905
-44758.638
-28306.572
-34616.212
-35405.992
-20408.134
-25833.317
-26569.864
-14316.203
-17209.622
-18257.853
-9657.8799
-10893.088
-12017.862
-3314.609
-3656.1231
-3148.1196
-2037.6325
-2551.312
-4415.5031
)
;

boundaryField
{
    free
    {
        type            calculated;
    }
    fixed
    {
        type            calculated;
    }
    freeTop
    {
        type            calculated;
    }
}


// ************************************************************************* //
