/*--------------------------------*- C++ -*----------------------------------*\
  =========                 |
  \\      /  F ield         | OpenFOAM: The Open Source CFD Toolbox
   \\    /   O peration     | Website:  https://openfoam.org
    \\  /    A nd           | Version:  6
     \\/     M anipulation  |
\*---------------------------------------------------------------------------*/
FoamFile
{
    version     2.0;
    format      ascii;
    class       pointVectorField;
    location    "1.61";
    object      lm;
}
// * * * * * * * * * * * * * * * * * * * * * * * * * * * * * * * * * * * * * //

dimensions      [1 -2 -1 0 0 0 0];

internalField   nonuniform List<vector> 
28033
(
(-1.780536e-14 4.8656612e-16 1.3104288e-15)
(-5.4375576e-15 3.3318594e-15 9.9433006e-16)
(5017.7591 1390.5229 -41.111032)
(5315.3492 582.55295 -21.546583)
(-1.338461e-14 3.0090723e-15 -2.870051e-16)
(-1.2587315e-14 4.9008913e-15 -4.4266115e-15)
(5345.1489 543.923 -41.943503)
(5031.3899 1370.1167 -23.422395)
(-5.6329745e-15 1.0535579e-15 6.7193838e-16)
(-2.4534443e-15 3.0423504e-16 5.8836893e-16)
(-5.4923298e-15 2.4302826e-15 8.9528572e-16)
(-2.6209443e-15 -1.1537891e-15 -6.7979696e-16)
(-7.2548563e-15 1.5542294e-15 1.0013199e-15)
(-4.7613589e-15 -9.2108094e-16 -7.3952737e-16)
(-1.132389e-15 -2.2256662e-17 -6.4484848e-16)
(-7.4239857e-16 -2.4218299e-16 -3.6669977e-16)
(-1.1196198e-15 4.5550132e-16 8.383863e-16)
(-2.3465882e-16 2.2667819e-16 1.4996246e-15)
(-4.0583243e-15 -8.7236639e-16 -1.3429605e-15)
(-5.8237189e-15 8.4462789e-16 7.5519031e-16)
(-5.1611762e-15 1.0100276e-15 9.7613867e-16)
(-1.7679952e-15 -8.1010255e-16 4.5192313e-16)
(-4.4158752e-15 1.0299569e-15 -9.452958e-16)
(4903.8331 1295.908 -42.17158)
(4756.2812 1197.3666 -43.138766)
(4650.3392 1115.6553 -42.603071)
(4604.347 1053.3248 -41.265922)
(4627.6421 1010.7705 -39.421306)
(4718.7378 984.80375 -36.227305)
(4865.3192 970.82774 -32.953646)
(5047.7418 962.32846 -28.79494)
(5239.7461 953.14651 -24.25154)
(5413.9509 936.30669 -19.846004)
(5546.4876 907.83933 -16.410099)
(5617.8638 864.48096 -14.764511)
(5619.6789 806.55452 -14.390731)
(5552.7629 736.01841 -15.873124)
(5434.6892 658.28681 -18.891263)
(15.555547 42.092917 39.966655)
(6.0904481 58.836243 65.987579)
(0.37262089 75.575457 85.639135)
(-0.58776542 98.6851 101.65376)
(3.3924647 118.80941 112.94549)
(14.281408 142.35755 121.08143)
(32.274468 164.71251 124.73499)
(57.201013 187.75783 125.47859)
(89.233822 210.14631 122.68896)
(127.98784 232.30974 116.89337)
(172.56436 253.05525 108.32114)
(222.32517 273.47968 97.978633)
(276.33088 292.08398 85.951125)
(333.79442 309.77576 72.983398)
(393.16689 325.39727 59.865686)
(453.6894 340.07567 47.296922)
(514.58444 353.03909 35.563498)
(575.12566 364.86535 24.984864)
(634.4837 375.15882 16.317997)
(692.51753 384.79129 9.3681454)
(749.03831 393.40277 4.274027)
(804.18196 401.75654 0.89328513)
(858.16025 409.72793 -1.0720524)
(911.38268 417.92175 -1.7957211)
(964.54178 426.31273 -1.8790879)
(1018.1952 435.38001 -1.7455125)
(1072.8876 445.00679 -1.785157)
(1129.3174 455.65141 -2.3763378)
(1188.1292 466.99421 -4.1880564)
(1249.5364 479.36796 -7.0552768)
(1313.7272 492.22051 -11.518053)
(1381.1049 505.78836 -17.335639)
(1451.0148 519.89434 -24.487644)
(1523.4942 533.7256 -32.608819)
(1597.9308 547.64126 -41.917284)
(1673.7119 561.09523 -51.204541)
(1750.0045 573.96195 -60.394163)
(1826.1644 585.7831 -69.104276)
(1901.212 596.77508 -76.761975)
(1974.5742 606.69833 -82.654553)
(2045.4209 615.46679 -86.803337)
(2113.3976 623.47499 -88.703285)
(2178.078 630.44804 -88.361167)
(2239.2993 636.99862 -85.529463)
(2297.1469 643.13749 -80.644947)
(2351.8917 649.38352 -73.758634)
(2403.9859 655.9431 -65.367236)
(2454.1036 663.24643 -55.943628)
(2502.9628 671.52744 -46.056826)
(2551.4529 681.11979 -36.316372)
(2600.4073 692.1594 -27.328391)
(2650.6946 704.81327 -19.65762)
(2703.0444 719.06248 -13.795892)
(2758.0836 734.86846 -10.121252)
(2816.229 752.03916 -8.8778537)
(2877.6963 770.34127 -10.150522)
(2942.4544 789.43647 -13.859349)
(3010.2312 808.96449 -19.766071)
(3080.5223 828.50755 -27.465397)
(3152.6185 847.66352 -36.435741)
(3225.6115 866.04603 -46.042583)
(3298.5587 883.30403 -55.60188)
(3370.2637 899.19061 -64.357787)
(3439.8503 913.45998 -71.688422)
(3506.1821 926.08691 -76.904352)
(3568.2368 937.07784 -79.436784)
(3625.8089 946.43249 -78.900524)
(3677.9785 954.70563 -75.380657)
(3724.5025 961.68444 -68.231352)
(3765.9337 968.23027 -57.850144)
(3802.3958 974.42018 -44.939236)
(3834.4066 980.8337 -29.601751)
(3862.9639 987.99681 -12.68143)
(3889.1094 996.20485 5.1621024)
(3914.0115 1005.9152 23.008044)
(3938.9546 1017.3292 40.062788)
(3965.0934 1030.767 55.444538)
(3993.6713 1046.1589 68.496873)
(4025.5859 1063.7502 78.491299)
(4061.6352 1083.0555 85.13006)
(4102.4708 1104.1398 87.987627)
(4148.1593 1126.5334 87.130245)
(4198.7478 1149.7903 82.671122)
(4253.8475 1173.5825 74.854707)
(4312.9544 1197.3076 64.311913)
(4374.9847 1220.493 51.714439)
(4439.1775 1242.6964 37.840259)
(4504.0411 1263.4296 23.60025)
(4568.7314 1282.5088 9.5454192)
(4631.8747 1299.4986 -3.1789356)
(4692.3261 1314.7549 -14.318791)
(4749.7884 1327.6007 -23.204797)
(4803.2531 1339.2932 -29.582612)
(4852.6274 1349.8558 -34.15651)
(4897.7326 1359.0174 -36.648522)
(3.5536146 -21.165411 -33.643117)
(11.560924 -36.737479 -30.679069)
(10.72241 -58.494993 -44.210965)
(18.071645 -78.113454 -43.228304)
(32.846534 -104.53389 -43.623603)
(52.773587 -129.9072 -41.135282)
(79.146981 -155.44079 -38.066566)
(112.05234 -180.91832 -33.313586)
(151.389 -205.05365 -28.194853)
(196.05282 -227.28098 -22.407891)
(246.2246 -247.30517 -16.369355)
(300.51854 -264.4401 -10.347664)
(358.5025 -278.61197 -4.3193625)
(419.15011 -289.644 1.1147271)
(481.64101 -297.47294 6.2284868)
(545.13402 -302.32118 10.434131)
(608.8395 -304.25863 13.813801)
(672.23465 -303.83922 16.319457)
(734.76406 -301.32066 17.701439)
(796.21906 -297.10784 18.079143)
(856.41928 -291.69948 17.545883)
(915.41517 -285.42214 16.038174)
(973.42852 -278.61311 13.798449)
(1030.7271 -271.51198 10.999141)
(1087.6502 -264.26404 7.6759138)
(1144.832 -256.95552 4.3343716)
(1202.5331 -249.52263 0.84043645)
(1261.2808 -241.83575 -2.2990708)
(1321.3322 -233.73753 -5.233376)
(1383.0357 -224.89674 -7.4970962)
(1446.4972 -215.14487 -9.1858215)
(1511.6236 -204.16982 -10.209865)
(1578.3173 -191.7596 -10.570727)
(1646.398 -177.72321 -10.292786)
(1715.2724 -161.98281 -9.4671607)
(1784.5974 -144.46934 -8.4379719)
(1853.7377 -125.21743 -7.0567068)
(1922.3118 -104.6248 -5.7131155)
(1989.5254 -82.704609 -4.6486159)
(2055.1413 -59.920843 -3.9873677)
(2118.6126 -36.631783 -3.9554078)
(2179.7852 -13.273634 -4.6827148)
(2238.465 9.7177818 -6.2895462)
(2294.7765 31.91759 -8.8120857)
(2348.8578 52.952989 -12.263683)
(2401.1287 72.515023 -16.565523)
(2452.027 90.381485 -21.616457)
(2502.1923 106.44003 -27.235293)
(2552.2481 120.67997 -33.228052)
(2602.9189 133.21296 -39.34718)
(2654.851 144.25195 -45.350578)
(2708.6863 154.10904 -50.975908)
(2764.9229 163.16938 -55.988651)
(2823.9626 171.87497 -60.16852)
(2886.013 180.68545 -63.343868)
(2951.1274 190.06252 -65.386866)
(3019.1458 200.42168 -66.232713)
(3089.7393 212.12182 -65.877864)
(3162.3905 225.42049 -64.388503)
(3236.4436 240.47263 -61.891185)
(3311.12 257.29651 -58.575833)
(3385.5763 275.78921 -54.67916)
(3458.9403 295.70472 -50.475415)
(3530.3727 316.69238 -46.258841)
(3599.1034 338.28106 -42.332992)
(3664.517 359.94113 -38.976115)
(3726.1153 381.08265 -36.448207)
(3783.6696 401.08467 -34.943033)
(3837.2108 419.46618 -34.48379)
(3886.7934 435.53192 -35.659815)
(3932.6869 449.02262 -37.684203)
(3975.9978 459.63727 -40.984587)
(4017.0578 467.00505 -45.22507)
(4056.8824 471.31901 -50.278022)
(4096.447 472.60266 -55.842875)
(4136.6877 471.18474 -61.624086)
(4178.5455 467.49336 -67.313523)
(4222.8295 462.07202 -72.571907)
(4270.2184 455.56558 -77.137748)
(4321.1593 448.67811 -80.744177)
(4375.9033 442.11529 -83.198154)
(4434.445 436.58614 -84.369591)
(4496.5566 432.71573 -84.173475)
(4561.7456 431.05515 -82.646091)
(4629.3582 432.011 -79.836493)
(4698.5221 435.86197 -75.919892)
(4768.2953 442.70309 -71.07892)
(4837.6301 452.47236 -65.560524)
(4905.5062 464.93436 -59.641278)
(4970.9611 479.70015 -53.561475)
(5033.1805 496.19985 -47.583031)
(5091.5623 513.81638 -41.865623)
(5145.8441 531.74808 -36.532258)
(5196.2203 549.11664 -31.506882)
(5253.6877 566.43381 -26.772095)
(3.2927448e-15 -1.3239155e-15 2.3845803e-16)
(2.4470133e-15 -9.6672015e-16 3.215493e-17)
(-9.0574249e-15 9.0550918e-16 6.4029168e-16)
(-1.2642219e-16 -5.721845e-16 4.4370095e-16)
(-7.6811722e-15 -4.9270561e-16 4.1193361e-16)
(-7.3893964e-15 2.7533729e-15 -1.0951501e-15)
(-3.2915852e-15 -8.1743692e-16 3.8364228e-16)
(-1.9032499e-15 5.3200654e-16 -8.2319016e-17)
(-4.7409759e-15 -4.8623412e-16 4.3918642e-16)
(-1.2869644e-14 1.1845665e-15 6.4228907e-16)
(-9.6157521e-15 1.4157374e-15 5.9836601e-16)
(-9.4077204e-15 4.9518432e-16 1.1192419e-15)
(-5.982767e-15 2.6210694e-16 3.0473736e-16)
(-1.1478475e-14 -5.3386198e-16 1.6580808e-15)
(-5.257323e-15 3.6289085e-16 2.8600704e-16)
(22.989515 -15.159611 34.854171)
(22.998195 -65.613495 61.778437)
(14.439539 -68.858144 79.91324)
(21.614312 -107.53891 98.497707)
(29.321117 -126.87459 110.59368)
(46.503836 -154.01696 118.48978)
(69.84864 -179.25604 124.28241)
(100.97822 -202.7628 126.80254)
(139.367 -225.45276 125.58469)
(183.75878 -245.80803 122.52271)
(234.53821 -262.45502 116.28263)
(290.77087 -278.22514 108.88579)
(350.14598 -289.67522 99.07206)
(414.19792 -299.10603 89.071385)
(478.18805 -304.80225 77.702887)
(545.00243 -308.40643 67.287371)
(612.13188 -309.90598 56.894569)
(676.60762 -308.43221 47.269438)
(742.51694 -306.01274 39.291721)
(804.19596 -301.53112 32.224365)
(866.01882 -296.95627 26.880011)
(925.98249 -291.02013 22.886998)
(983.98314 -284.8952 19.838452)
(1040.8726 -278.50746 17.957348)
(1097.6188 -272.43364 16.62112)
(1154.2416 -265.84222 15.506618)
(1210.6568 -259.14816 14.123789)
(1270.2007 -252.52156 12.405226)
(1328.2707 -244.87081 9.6514798)
(1391.4555 -237.3969 5.9404553)
(1455.3628 -228.75106 1.0709886)
(1521.6318 -218.84873 -5.1981808)
(1589.9731 -208.01365 -12.545805)
(1659.9666 -195.43959 -21.048476)
(1733.8103 -182.30948 -30.030885)
(1800.2808 -166.13507 -39.496319)
(1875.7124 -150.61306 -49.238978)
(1947.4291 -132.82408 -58.100605)
(2017.7404 -114.53059 -66.170791)
(2086.2875 -95.456278 -72.896611)
(2152.4591 -76.214968 -77.890103)
(2215.8926 -56.938661 -80.950947)
(2276.4392 -38.104541 -81.8616)
(2334.0521 -19.899488 -80.632268)
(2388.9565 -2.6773004 -77.308183)
(2441.4944 13.451365 -72.141828)
(2492.2325 28.297096 -65.426334)
(2541.8156 41.883737 -57.613304)
(2591.0276 54.212708 -49.172303)
(2640.6604 65.45512 -40.660236)
(2691.5295 75.785786 -32.604476)
(2744.3679 85.493885 -25.539804)
(2799.8212 94.86805 -19.915661)
(2858.3649 104.24733 -16.111012)
(2920.2993 113.9502 -14.377754)
(2985.7023 124.28062 -14.838445)
(3054.4295 135.49289 -17.467541)
(3126.1102 147.77733 -22.088003)
(3200.1628 161.2479 -28.387118)
(3275.8276 175.9258 -35.912584)
(3352.2 191.74492 -44.127021)
(3428.294 208.54497 -52.406293)
(3503.0894 226.08223 -60.10735)
(3575.5967 244.04867 -66.581673)
(3644.9292 262.07647 -71.255425)
(3710.3353 279.76818 -73.602651)
(3771.2187 296.87458 -73.24781)
(3829.1059 312.69721 -70.008882)
(3877.6492 326.20702 -63.975104)
(3925.1071 339.96811 -54.772418)
(3968.1769 350.23458 -43.351853)
(4007.4166 359.0592 -29.685107)
(4044.0707 365.57947 -14.650593)
(4079.4674 370.25101 1.1337745)
(4114.5044 373.11841 16.925666)
(4150.3968 374.52569 31.924902)
(4188.2413 374.83222 45.405271)
(4228.9815 374.45159 56.708191)
(4273.4029 373.84898 65.281379)
(4322.0614 373.48639 70.739743)
(4375.2352 373.80748 72.861347)
(4432.9344 375.22878 71.616969)
(4494.8666 378.08322 67.163358)
(4560.4912 382.6447 59.8409)
(4629.0038 389.0694 50.140755)
(4699.4349 397.43704 38.687436)
(4770.6595 407.68782 26.188619)
(4841.5048 419.70395 13.391972)
(4910.8058 433.21645 1.0394536)
(4977.4793 447.94641 -10.201896)
(5040.6547 463.46284 -19.774006)
(5099.6758 479.40476 -27.32245)
(5154.3251 495.23343 -32.719073)
(5204.9606 510.70994 -36.253847)
(5241.4624 524.34258 -38.442009)
(5480.9687 621.9894 -46.535422)
(5608.7822 702.20443 -51.158437)
(5652.6288 772.40752 -54.128853)
(5641.2376 831.24709 -54.881853)
(5564.4568 877.90925 -53.257998)
(5416.4373 906.94272 -49.91228)
(5246.7557 928.57797 -44.791618)
(5068.3157 943.73563 -39.361454)
(4861.1224 950.13543 -33.577262)
(4709.3551 964.92399 -28.708121)
(4638.9535 996.11899 -24.920857)
(4622.0202 1040.7467 -22.260864)
(4671.2178 1102.6957 -21.393021)
(4788.9886 1186.8665 -21.036491)
(4959.709 1289.1703 -23.115323)
(4930.1947 1343.9796 -25.609696)
(4891.8694 1338.0238 -26.931945)
(4842.788 1328.9385 -29.100005)
(4790.8209 1319.0116 -30.840066)
(4735.906 1307.2139 -33.0896)
(4678.5662 1293.0144 -35.751848)
(4619.6663 1276.1497 -38.523526)
(4559.8522 1256.4215 -41.477827)
(4500.0921 1233.9629 -44.383235)
(4441.2603 1208.9255 -47.057783)
(4384.1542 1181.7409 -49.343215)
(4329.4658 1152.8981 -51.160833)
(4277.7326 1122.9836 -52.326548)
(4229.1553 1092.6901 -52.842426)
(4184.1391 1062.6 -52.523639)
(4142.4707 1033.4425 -51.542937)
(4103.9687 1005.8417 -49.798304)
(4068.1523 980.28364 -47.459721)
(4034.3084 957.23049 -44.672394)
(4001.7039 936.91768 -41.563504)
(3969.433 919.52478 -38.345006)
(3936.5971 905.00213 -35.201345)
(3902.2902 893.21701 -32.277664)
(3865.7496 883.8225 -29.758037)
(3826.0961 876.42604 -27.810243)
(3783.0025 870.57647 -26.536717)
(3738.1765 866.05023 -25.742033)
(3683.0129 860.79559 -25.516197)
(3629.5135 856.20499 -26.705678)
(3569.9749 850.59579 -27.830857)
(3507.4312 843.76351 -29.679657)
(3441.8225 835.31341 -31.80535)
(3374.0282 825.05212 -34.118337)
(3304.8037 812.84267 -36.41538)
(3234.9384 798.72782 -38.503361)
(3165.2145 782.86563 -40.203695)
(3096.3714 765.52185 -41.347581)
(3029.0202 747.07459 -41.79592)
(2963.6512 727.95562 -41.445714)
(2900.5739 708.65124 -40.244196)
(2839.9307 689.64319 -38.179911)
(2781.6614 671.40593 -35.300911)
(2725.5418 654.34624 -31.699587)
(2671.1715 638.81417 -27.519408)
(2618.0329 625.04461 -22.933472)
(2565.4974 613.18766 -18.151978)
(2512.9031 603.25536 -13.384504)
(2459.5531 595.18052 -8.8597062)
(2404.8343 588.75795 -4.762599)
(2348.1528 583.72568 -1.2804281)
(2289.0991 579.77378 1.443861)
(2227.3695 576.43156 3.3928963)
(2162.8122 573.44919 4.399825)
(2095.5348 570.32397 4.69221)
(2025.6025 566.73902 4.1875084)
(1953.6105 562.32052 3.0494668)
(1879.9004 557.23595 1.5640582)
(1810.211 551.84927 0.082217827)
(1728.1012 542.71019 -1.7344159)
(1655.0722 534.43806 -3.1770932)
(1584.9486 525.59045 -3.7649761)
(1507.397 513.80965 -4.0404844)
(1438.4303 503.04215 -3.400099)
(1370.6682 491.72538 -1.7105552)
(1307.4429 480.47534 1.2851895)
(1242.2157 468.61565 4.6610175)
(1184.2476 458.28966 9.4050159)
(1124.8239 447.54508 14.35059)
(1069.6809 438.07639 20.058991)
(1015.5044 429.10784 25.870529)
(962.27718 420.69669 31.464739)
(909.31524 412.99706 36.435359)
(855.90827 405.56138 40.783269)
(801.87438 397.75767 43.497871)
(746.4022 389.61674 44.810616)
(690.27526 381.87705 44.895383)
(631.71868 371.19768 42.320411)
(573.08312 361.73346 38.742475)
(511.86091 347.84982 32.376494)
(451.88059 334.84313 25.109177)
(391.67545 319.10578 16.151482)
(331.71749 300.72036 5.9445259)
(273.79488 280.12023 -4.9165292)
(220.3313 260.25101 -16.33015)
(169.01592 236.8014 -27.095738)
(122.92498 212.50078 -37.4689)
(83.568861 188.17122 -47.147595)
(49.326149 163.72521 -54.745316)
(22.361995 138.66984 -60.446385)
(1.9481468 114.87967 -63.994122)
(-10.381718 90.29806 -64.637864)
(-14.529614 69.775253 -62.033836)
(-16.027678 52.561322 -58.063117)
(-4.4588398 32.561782 -41.529659)
(12.686561 22.465805 -19.298159)
(-6.8708141e-15 1.5083581e-15 1.9262289e-16)
(-1.2504183e-14 5.7375616e-16 8.4327435e-16)
(-8.3449101e-15 1.4891922e-15 5.3018253e-16)
(-4.9731758e-15 1.4991158e-15 6.2376313e-16)
(-3.4146159e-15 1.5624416e-15 3.1576894e-17)
(2.0582335e-15 9.3962624e-16 -5.746342e-16)
(2.2101935e-15 3.7457559e-17 -1.1841335e-16)
(2.4553765e-15 -8.5141669e-16 -9.3419562e-16)
(1.2987427e-15 1.0081898e-16 1.7950851e-15)
(-4.5074861e-15 9.063971e-16 1.0710522e-15)
(-5.2682467e-15 2.1856155e-15 1.0652666e-15)
(-7.4917339e-15 1.915055e-15 2.2418828e-16)
(-9.400838e-15 1.3708275e-15 6.2833768e-16)
(-6.2048683e-15 1.3247981e-15 5.4317906e-16)
(-6.971104e-15 1.5128103e-15 7.5678131e-16)
(-1.2693866e-14 6.2923345e-15 -2.1364834e-15)
(-5.2452578e-15 2.6791924e-15 -5.3037742e-16)
(-1.0752404e-15 9.8318743e-16 -1.0111087e-16)
(-2.7353382e-15 1.7746034e-15 7.3085398e-17)
(1.0178949e-15 -1.5450237e-16 -4.119182e-16)
(-1.4303492e-15 4.136346e-16 -3.3264033e-16)
(-1.0059749e-14 4.7133437e-15 -1.6449855e-15)
(2.9801421e-15 -1.9180379e-15 -8.3172098e-16)
(-4.79756e-15 2.8035442e-15 1.1420498e-15)
(-5.4778068e-15 3.5047253e-15 -3.934403e-16)
(-1.8117877e-15 1.1581936e-15 -9.1309836e-16)
(-3.9812639e-16 4.7407236e-16 -2.2932148e-16)
(-1.5272242e-15 1.100363e-15 -2.2557932e-16)
(-4.1024849e-15 1.9838802e-15 2.8069696e-17)
(-5.3424143e-16 2.551799e-16 -1.9455919e-16)
(5319.1812 577.60136 -21.870415)
(5322.8641 572.85469 -22.8171)
(5327.0505 567.74507 -23.782913)
(5331.647 562.56497 -24.70196)
(5336.6989 557.412 -25.653224)
(5341.7037 552.20564 -26.426656)
(5346.4006 547.36893 -27.387506)
(5350.4437 542.97938 -28.489096)
(5353.6038 539.34639 -29.912551)
(5355.6524 536.64613 -31.615441)
(5356.5431 535.17805 -33.738186)
(5356.0562 534.94155 -36.024524)
(5354.5139 536.03872 -38.426524)
(5352.0128 538.33154 -40.253106)
(5348.7018 541.36173 -41.923141)
(5019.0253 1394.6243 -40.859405)
(5019.5889 1398.6755 -39.306547)
(5020.4595 1401.9399 -36.820895)
(5021.2305 1403.8978 -34.067422)
(5022.4121 1404.5887 -31.48127)
(5023.3724 1403.8116 -29.263266)
(5024.2451 1401.7691 -27.494038)
(5024.9424 1398.7051 -26.216364)
(5025.4923 1394.8936 -25.364489)
(5025.9473 1390.6439 -24.846057)
(5026.3942 1386.3081 -24.487301)
(5027.0163 1382.0933 -24.277293)
(5027.7852 1378.3145 -23.921549)
(5029.0005 1375.1149 -23.678715)
(5030.4764 1372.5268 -23.56521)
(3.8800213 39.262541 42.760453)
(-0.22234313 51.978484 55.073255)
(-7.3592307 70.909066 74.60973)
(-7.7195527 87.351307 84.888084)
(-5.9993197 101.98 96.697136)
(4.1023999 117.42667 102.92933)
(19.628223 132.38739 107.77254)
(42.842994 147.76643 109.16918)
(72.207161 162.98006 108.14731)
(108.32632 178.36151 104.65791)
(150.53739 193.68325 98.794277)
(198.09048 209.24465 91.14569)
(250.17338 224.28957 82.038096)
(305.96139 239.41576 71.882182)
(364.54213 254.20922 61.128901)
(424.82891 268.70975 50.444135)
(486.04581 282.5099 40.145097)
(547.42893 295.81512 30.587918)
(608.23951 308.59285 22.170056)
(668.08925 320.60607 15.143975)
(726.81995 331.99904 9.5042138)
(784.22011 342.73714 5.3215178)
(840.68684 352.94052 2.4661822)
(896.41624 362.75628 0.66367908)
(951.97281 372.2339 -0.30092621)
(1007.98 381.67367 -0.87038217)
(1065.1718 391.1699 -1.3676522)
(1124.0757 400.94798 -2.2097059)
(1185.4319 411.05735 -3.7696769)
(1249.6514 421.88045 -6.329044)
(1317.1205 433.22625 -10.026129)
(1387.9131 445.30863 -15.055082)
(1461.8909 458.05864 -21.308292)
(1538.8426 471.23868 -28.561823)
(1618.262 485.03862 -36.944187)
(1699.3318 499.04821 -45.583216)
(1781.2804 513.16578 -54.163688)
(1863.1862 527.12148 -62.600964)
(1944.1136 540.86942 -69.962544)
(2023.0449 554.0669 -76.004472)
(2099.3159 566.6292 -80.34499)
(2172.0852 578.39095 -82.74562)
(2241.1192 589.5071 -82.799046)
(2306.0713 599.75052 -80.788633)
(2366.9157 609.3916 -76.615795)
(2424.1189 618.54271 -70.604037)
(2478.1481 627.3776 -63.14988)
(2529.7903 636.16299 -54.716165)
(2579.9297 645.13837 -45.886804)
(2629.5716 654.57797 -37.247593)
(2679.7003 664.70714 -29.396492)
(2731.2711 675.73562 -22.866165)
(2785.0772 687.80117 -18.115378)
(2841.7432 700.98936 -15.467415)
(2901.6297 715.29621 -15.107143)
(2964.8381 730.65467 -17.048924)
(3031.1698 746.9154 -21.149263)
(3100.1565 763.87178 -27.098873)
(3171.071 781.26002 -34.446887)
(3242.9736 798.79118 -42.650781)
(3314.7902 816.16045 -51.056556)
(3385.3477 833.05719 -59.040431)
(3453.4689 849.25271 -65.881628)
(3518.0988 864.43956 -71.080656)
(3578.1706 878.51832 -74.013023)
(3633.0119 891.4023 -74.33581)
(3682.193 902.96849 -72.000685)
(3725.3527 913.10149 -66.521462)
(3762.691 922.26163 -58.433229)
(3794.4884 930.45604 -47.617556)
(3821.5482 937.89676 -34.859395)
(3844.6618 945.06017 -20.54573)
(3864.9259 952.16129 -5.3250751)
(3883.5675 959.46679 10.121826)
(3901.8417 967.34314 25.061057)
(3920.9886 976.0197 38.82148)
(3942.1707 985.78731 50.769146)
(3966.4052 996.75424 60.376862)
(3994.4805 1009.0917 67.251896)
(4027.0342 1022.771 71.137655)
(4064.3164 1037.7982 71.957762)
(4106.3523 1054.1071 69.691614)
(4152.9128 1071.3967 64.732715)
(4203.4842 1089.4098 57.351544)
(4257.5912 1108.0024 47.987652)
(4313.9374 1126.9558 37.385917)
(4371.9841 1145.8275 25.859591)
(4430.2606 1164.2872 14.238793)
(4488.1869 1182.1597 3.0086109)
(4544.448 1199.0333 -7.3109225)
(4598.3789 1214.8207 -16.241629)
(4649.7661 1229.3855 -23.708013)
(4697.5744 1242.4503 -29.474016)
(4742.8833 1254.6271 -34.184433)
(4795.7494 1267.6741 -37.845134)
(-6.4313793 36.867256 35.645074)
(-12.046181 39.366391 51.213798)
(-12.77953 60.888867 63.294158)
(-16.016874 70.954824 74.70063)
(-11.283283 83.898635 83.169018)
(-3.3893513 95.231095 89.409943)
(11.869128 106.77321 93.610162)
(32.549473 117.87453 95.897924)
(60.167759 128.97625 95.777699)
(93.822504 140.48067 93.833073)
(133.60961 151.85483 89.839307)
(178.78431 163.93649 84.286725)
(228.81456 176.00011 77.284461)
(283.02405 188.68848 69.199824)
(340.47646 201.34404 60.487473)
(400.34816 214.46641 51.429789)
(461.77203 227.41353 42.46004)
(524.02656 240.53844 33.906566)
(586.42604 253.29255 26.148072)
(648.43164 265.9392 19.235153)
(709.64182 278.00276 13.558003)
(770.06056 289.78744 8.974915)
(829.58507 300.92194 5.5879263)
(888.60492 311.69008 3.1754285)
(947.42681 321.92628 1.595755)
(1006.7281 331.94399 0.51445446)
(1067.0261 341.67495 -0.36143096)
(1129.0932 351.5029 -1.403588)
(1193.5239 361.43922 -2.9138192)
(1260.9406 371.81952 -5.1939399)
(1331.6356 382.66885 -8.4889676)
(1405.941 394.29765 -12.928573)
(1483.7602 406.62885 -18.452595)
(1564.8498 419.81737 -25.140987)
(1648.6825 433.68542 -32.603917)
(1734.6321 448.38239 -40.724013)
(1821.5544 463.50128 -48.927236)
(1908.6941 478.90935 -56.90028)
(1994.8039 494.47698 -64.204313)
(2078.7948 509.83883 -70.342699)
(2159.8366 524.7957 -74.86054)
(2237.0768 539.15691 -77.742518)
(2309.9385 552.77693 -78.310608)
(2378.1506 565.44827 -76.868793)
(2441.723 577.30263 -73.531974)
(2501.0201 588.26868 -68.360326)
(2556.6198 598.48149 -61.83518)
(2609.38 608.15659 -54.36614)
(2660.308 617.50867 -46.552705)
(2710.5004 626.83323 -38.928424)
(2761.0561 636.39438 -32.092614)
(2812.9839 646.4823 -26.525232)
(2867.116 657.31832 -22.660844)
(2924.049 669.09433 -20.764259)
(2984.0808 681.90724 -20.978056)
(3047.1943 695.79647 -23.263367)
(3113.0481 710.69153 -27.430989)
(3181.004 726.4639 -33.130413)
(3250.1569 742.89347 -39.907729)
(3319.4285 759.72296 -47.196914)
(3387.6021 776.63849 -54.399462)
(3453.4492 793.34157 -60.910516)
(3515.7811 809.4746 -66.101233)
(3573.5296 824.82966 -69.638911)
(3625.9299 839.01679 -70.743249)
(3672.1863 852.29597 -69.891601)
(3713.7889 864.21095 -65.906781)
(3750.1013 875.12787 -59.962166)
(3779.111 884.49082 -51.488749)
(3802.6955 892.54137 -40.988568)
(3821.9499 899.55611 -29.016128)
(3837.7539 905.83825 -15.999594)
(3851.3862 911.58724 -2.5622364)
(3864.1455 917.08909 10.731983)
(3877.2288 922.74328 23.222922)
(3891.8633 928.7524 34.423587)
(3909.0475 935.50513 43.779761)
(3929.6992 943.10297 51.021458)
(3954.4074 951.88967 55.80029)
(3983.6173 961.81752 58.063557)
(4017.3913 973.09113 57.772698)
(4055.7128 985.64371 55.046858)
(4098.2656 999.29045 50.265894)
(4132.7977 1011.2001 43.110137)
(4174.5653 1025.422 34.977966)
(4225.0938 1041.4368 25.739714)
(4277.1061 1057.9291 16.187045)
(4329.4881 1074.505 6.62257)
(4381.6054 1090.7981 -2.632861)
(4432.6481 1106.6544 -10.978262)
(4481.767 1121.793 -18.47449)
(4529.3419 1135.8731 -24.769825)
(4574.2056 1148.876 -29.923299)
(4617.3421 1161.1505 -34.607114)
(4667.5104 1173.7906 -38.129048)
(-11.244599 27.11666 33.095787)
(-15.071427 32.767128 43.310391)
(-21.170438 46.511796 56.268064)
(-20.253127 57.481926 64.012661)
(-16.603421 66.110828 72.136503)
(-7.56712 75.961692 76.841508)
(6.8281677 84.201765 81.526781)
(27.094326 92.519054 83.744272)
(53.552539 100.55717 84.463273)
(85.997528 109.10688 83.555833)
(124.4335 117.6231 81.002636)
(168.27782 126.90354 77.020256)
(217.32184 136.51507 71.683977)
(270.60283 146.89175 65.44934)
(327.61394 157.72208 58.40268)
(387.48159 169.18428 50.882442)
(449.40776 181.01857 43.299138)
(512.64664 193.23027 35.837813)
(576.48977 205.58607 28.830573)
(640.36895 217.97488 22.489245)
(703.91197 230.22379 17.0054)
(766.82873 242.20599 12.40128)
(829.14481 253.77882 8.7753242)
(890.94689 264.94611 5.9763815)
(952.66285 275.62682 3.9257963)
(1014.6992 285.93066 2.3526097)
(1077.7515 295.87785 1.0445187)
(1142.4021 305.7223 -0.32011787)
(1209.3687 315.53531 -2.0139894)
(1279.1656 325.6183 -4.3101768)
(1352.3223 336.13818 -7.438645)
(1429.0313 347.32332 -11.491639)
(1509.3221 359.28519 -16.594847)
(1592.9823 372.18251 -22.612144)
(1679.5112 386.06297 -29.480219)
(1768.1923 400.81203 -36.871973)
(1858.0241 416.38792 -44.447545)
(1947.9438 432.53609 -51.896963)
(2036.8211 449.16933 -58.719818)
(2123.5026 465.91408 -64.523448)
(2206.9215 482.46658 -69.011797)
(2286.2549 498.55758 -71.837681)
(2360.7457 514.01398 -72.768905)
(2430.1898 528.41514 -71.812152)
(2494.6128 541.86767 -69.140211)
(2554.2916 554.21971 -64.818205)
(2609.9205 565.52859 -59.277049)
(2662.3891 575.95461 -52.914838)
(2712.7845 585.705 -46.257)
(2762.2707 595.06431 -39.817874)
(2812.0045 604.34254 -34.120315)
(2863.0248 613.86647 -29.603337)
(2916.1727 623.92914 -26.63489)
(2972.015 634.79051 -25.430339)
(3030.7954 646.62744 -26.085302)
(3092.4148 659.54165 -28.523476)
(3156.4369 673.52865 -32.530176)
(3222.1143 688.49961 -37.762576)
(3288.4615 704.26913 -43.770589)
(3354.313 720.58304 -50.033419)
(3418.4178 737.1349 -56.015406)
(3479.541 753.57086 -61.155378)
(3536.5079 769.56497 -65.019851)
(3588.4142 784.80171 -67.120231)
(3634.4148 798.93229 -67.24963)
(3674.239 811.95614 -65.23415)
(3706.3911 823.05391 -60.738329)
(3743.7936 835.13121 -54.714467)
(3765.134 843.71169 -46.046642)
(3782.4185 850.93618 -36.306482)
(3795.836 856.85385 -25.339155)
(3806.374 861.79226 -13.781894)
(3815.3716 866.04346 -2.1414175)
(3824.0101 869.85179 9.0667444)
(3833.5383 873.60691 19.357801)
(3845.0223 877.59304 28.306048)
(3859.4394 882.16612 35.57232)
(3877.5065 887.52752 40.911956)
(3899.7632 893.96156 44.153487)
(3926.4938 901.56912 45.275884)
(3957.7501 910.51285 44.328952)
(3993.3672 920.73572 41.433507)
(4032.9452 932.29208 36.923248)
(4076.2455 945.02553 30.919201)
(4105.4585 954.71764 23.888241)
(4153.0207 969.13668 16.255115)
(4202.5256 984.32469 8.4714229)
(4252.5629 999.76123 0.56271701)
(4302.7674 1015.3254 -6.8620099)
(4352.2166 1030.6322 -13.813786)
(4400.5188 1045.4751 -19.914447)
(4447.8588 1059.6144 -25.366342)
(4493.0628 1072.7673 -29.834336)
(4537.2229 1085.4876 -34.225125)
(4586.03 1098.0032 -37.784907)
(-14.515102 24.768844 28.400277)
(-21.975723 27.757793 38.971088)
(-24.597859 38.664441 47.995455)
(-24.778304 46.502918 55.879507)
(-19.49886 52.712118 62.776454)
(-10.467582 60.293428 67.494434)
(4.7747562 66.303315 71.743574)
(25.178382 72.238519 74.032657)
(51.991001 78.110114 75.131476)
(84.578576 84.306686 74.814514)
(123.11215 90.503741 73.098783)
(167.24396 97.580806 70.028461)
(216.44145 105.01316 65.937103)
(270.14642 113.43205 60.848026)
(327.73941 122.33608 54.98303)
(388.34331 132.25364 48.704072)
(451.27423 142.56775 42.229282)
(515.75118 153.66713 35.701835)
(581.03838 164.93752 29.573576)
(646.60967 176.64743 23.815595)
(711.94455 188.21527 18.776552)
(776.85596 199.85656 14.384918)
(841.16275 211.07039 10.820271)
(905.09145 222.11003 7.9016895)
(968.82634 232.57817 5.6363366)
(1032.9106 242.80176 3.7683558)
(1097.8222 252.57034 2.1577662)
(1164.2869 262.26592 0.49107843)
(1232.8287 271.82114 -1.4049075)
(1304.1238 281.6877 -3.8130952)
(1378.5146 291.87518 -6.8905331)
(1456.3287 302.78128 -10.767718)
(1537.5394 314.4689 -15.502947)
(1621.9588 327.20355 -21.044306)
(1709.0552 340.93386 -27.278894)
(1798.1427 355.7705 -33.955909)
(1888.1946 371.62605 -40.842022)
(1978.1391 388.35663 -47.552532)
(2066.7853 405.55168 -53.749551)
(2153.1067 422.92774 -59.07937)
(2235.9349 440.30737 -63.213384)
(2314.4832 457.25962 -65.874863)
(2388.0232 473.56451 -67.004937)
(2456.3277 488.90129 -66.468825)
(2519.4225 503.17576 -64.411375)
(2577.665 516.26216 -60.971132)
(2631.7314 528.17951 -56.50097)
(2682.538 539.04888 -51.337784)
(2731.1875 549.06805 -45.956339)
(2778.8466 558.51927 -40.783632)
(2826.6691 567.71803 -36.269635)
(2875.6775 577.01122 -32.77959)
(2926.6938 586.71607 -30.61074)
(2980.2504 597.1292 -29.930831)
(3036.5655 608.45234 -30.796768)
(3095.5046 620.82868 -33.1159)
(3156.6079 634.2758 -36.688917)
(3219.118 648.73464 -41.196803)
(3282.0486 664.0314 -46.240372)
(3344.2489 679.92674 -51.378734)
(3404.5135 696.10123 -56.132891)
(3461.6464 712.2284 -60.079856)
(3514.5716 727.94016 -62.80029)
(3562.4359 742.88028 -63.979944)
(3604.4729 756.79109 -63.458298)
(3640.5836 769.31681 -60.952989)
(3670.4475 780.51265 -56.819989)
(3694.2017 789.84385 -50.698699)
(3713.1265 797.91016 -43.114538)
(3727.332 804.4543 -34.602381)
(3738.1024 809.58105 -25.002467)
(3746.6403 813.78762 -15.240773)
(3754.0381 817.17186 -5.4771763)
(3761.5483 820.07142 3.8936529)
(3770.3417 822.83177 12.39413)
(3781.4205 825.73526 19.767701)
(3795.6897 829.1666 25.666691)
(3813.8235 833.34755 29.970293)
(3836.3055 838.59304 32.502198)
(3863.3581 845.00361 33.318097)
(3895.0404 852.78314 32.392391)
(3931.1584 861.90587 29.955804)
(3971.4124 872.45802 26.112088)