/*--------------------------------*- C++ -*----------------------------------*\
  =========                 |
  \\      /  F ield         | OpenFOAM: The Open Source CFD Toolbox
   \\    /   O peration     | Website:  https://openfoam.org
    \\  /    A nd           | Version:  6
     \\/     M anipulation  |
\*---------------------------------------------------------------------------*/
FoamFile
{
    version     2.0;
    format      ascii;
    class       pointVectorField;
    location    "0.68";
    object      lm;
}
// * * * * * * * * * * * * * * * * * * * * * * * * * * * * * * * * * * * * * //

dimensions      [1 -2 -1 0 0 0 0];

internalField   nonuniform List<vector> 
28033
(
(-1.780536e-14 4.8656612e-16 1.3104288e-15)
(-5.4375576e-15 3.3318594e-15 9.9433006e-16)
(-5978.4513 1042.8683 -2.7316789)
(-5649.6668 2452.1566 -3.0882271)
(-1.338461e-14 3.0090723e-15 -2.870051e-16)
(-1.2587315e-14 4.9008913e-15 -4.4266115e-15)
(-5647.5754 2419.3961 11.341501)
(-5966.7505 1045.5376 -17.324075)
(-5.6329745e-15 1.0535579e-15 6.7193838e-16)
(-2.4534443e-15 3.0423504e-16 5.8836893e-16)
(-5.4923298e-15 2.4302826e-15 8.9528572e-16)
(-2.6209443e-15 -1.1537891e-15 -6.7979696e-16)
(-7.2548563e-15 1.5542294e-15 1.0013199e-15)
(-4.7613589e-15 -9.2108094e-16 -7.3952737e-16)
(-1.132389e-15 -2.2256662e-17 -6.4484848e-16)
(-7.4239857e-16 -2.4218299e-16 -3.6669977e-16)
(-1.1196198e-15 4.5550132e-16 8.383863e-16)
(-2.3465882e-16 2.2667819e-16 1.4996246e-15)
(-4.0583243e-15 -8.7236639e-16 -1.3429605e-15)
(-5.8237189e-15 8.4462789e-16 7.5519031e-16)
(-5.1611762e-15 1.0100276e-15 9.7613867e-16)
(-1.7679952e-15 -8.1010255e-16 4.5192313e-16)
(-4.4158752e-15 1.0299569e-15 -9.452958e-16)
(-5839.4224 1105.3768 -3.6360603)
(-5662.2287 1156.7815 -4.0397302)
(-5526.2461 1213.0378 -4.7502196)
(-5447.3272 1279.8194 -4.6724851)
(-5433.5079 1360.8469 -4.9943709)
(-5482.4625 1459.1481 -5.0314275)
(-5582.0316 1573.8255 -5.1341958)
(-5712.9001 1702.0236 -5.4191236)
(-5850.4867 1837.5418 -5.2498585)
(-5969.9964 1973.0544 -5.2038187)
(-6049.3696 2100.1108 -4.9275595)
(-6072.6632 2210.9431 -4.0750658)
(-6033.3255 2300.4561 -4.0444036)
(-5933.4332 2365.9003 -3.4843153)
(-5790.9106 2411.2515 -3.2034947)
(-1.9117839 6.538477 11.029568)
(-13.347006 9.1579999 21.422479)
(-25.268198 13.53914 32.277629)
(-36.497599 19.740266 42.01256)
(-45.595763 26.706434 49.0119)
(-51.924171 34.502691 54.402269)
(-54.88786 42.149345 56.648169)
(-54.316464 49.61207 56.761617)
(-50.17122 56.213026 53.960899)
(-42.469955 61.853339 48.902377)
(-31.695981 65.851857 41.218837)
(-18.308949 68.282453 31.899773)
(-2.7391673 68.679056 20.605946)
(14.063118 67.055626 8.3976903)
(31.491726 63.190979 -4.8814731)
(48.252362 57.314136 -17.994213)
(64.012603 49.501019 -31.037953)
(77.644918 39.780913 -43.169462)
(88.603112 28.481168 -54.241396)
(95.748175 16.003702 -63.48724)
(99.133719 2.5363842 -71.009658)
(97.927215 -11.40812 -76.254595)
(92.192242 -25.621358 -79.371931)
(81.734573 -39.731438 -80.273385)
(66.823596 -53.240029 -78.981115)
(47.521589 -66.300589 -75.8519)
(24.674256 -78.296889 -71.23464)
(-1.4943449 -89.456967 -65.438397)
(-30.12085 -99.590682 -58.887906)
(-60.377952 -108.96022 -52.42966)
(-91.686958 -117.5378 -46.260029)
(-123.28529 -125.8113 -41.100661)
(-154.76681 -134.17493 -37.368448)
(-185.41178 -142.82561 -35.379006)
(-215.31764 -152.32137 -35.714794)
(-244.57986 -163.01169 -38.207848)
(-273.24007 -175.26685 -42.922145)
(-302.00897 -189.37077 -49.868139)
(-331.94574 -205.65977 -58.708612)
(-363.83669 -223.92326 -68.825123)
(-399.15266 -244.1671 -79.824728)
(-439.30266 -266.17012 -90.926346)
(-485.66279 -289.39645 -101.40531)
(-539.76493 -313.32573 -110.59817)
(-602.91016 -337.11341 -117.66656)
(-676.2565 -359.93178 -122.08266)
(-760.5778 -380.83587 -123.27592)
(-856.4177 -398.87808 -120.93094)
(-963.80733 -413.13092 -114.90155)
(-1082.4347 -422.74859 -105.25291)
(-1211.4985 -427.01856 -92.273102)
(-1349.8356 -425.40464 -76.452464)
(-1495.9037 -417.56772 -58.464)
(-1647.9009 -403.41185 -39.123542)
(-1803.8374 -383.05133 -19.335603)
(-1961.6519 -356.84972 -0.037884354)
(-2119.3225 -325.34081 17.854213)
(-2274.9774 -289.25459 33.536164)
(-2426.9909 -249.41664 46.320514)
(-2574.0683 -206.72951 55.742294)
(-2715.2778 -162.13576 61.516619)
(-2850.1429 -116.48296 63.652055)
(-2978.503 -70.646437 62.289219)
(-3100.6835 -25.249254 57.857037)
(-3217.2393 19.067577 50.976036)
(-3328.9729 61.941142 42.194204)
(-3436.9103 103.10212 32.336154)
(-3542.1713 142.28427 22.326538)
(-3645.8001 180.06925 12.654703)
(-3748.675 216.06753 4.1607943)
(-3851.8415 250.87895 -2.5068109)
(-3955.6133 284.58804 -7.286692)
(-4060.5036 317.60362 -9.8701789)
(-4166.5738 350.29636 -10.173535)
(-4273.7515 382.88562 -8.2799211)
(-4381.648 415.65714 -4.4637192)
(-4489.8055 448.73733 0.93569816)
(-4597.4444 482.34177 7.4693438)
(-4703.9291 516.40457 14.637044)
(-4808.2953 550.9488 21.941297)
(-4909.757 585.93341 28.840674)
(-5007.6184 621.14244 34.996849)
(-5101.1133 656.46844 39.84593)
(-5189.5567 691.4605 43.228851)
(-5273.0077 726.19575 44.959324)
(-5350.6821 760.29652 44.945762)
(-5423.052 793.60402 43.171199)
(-5489.801 825.72311 39.921203)
(-5551.6181 856.63785 35.181847)
(-5608.8922 886.08914 29.834373)
(-5662.3348 914.08879 23.270018)
(-5712.418 940.07658 17.378056)
(-5760.7414 965.46914 10.77396)
(-5807.2793 988.03839 5.9036339)
(-5855.6577 1009.673 0.93372412)
(-17.034474 16.825757 16.067804)
(-32.442326 25.136255 16.161931)
(-54.100192 25.601338 9.6252453)
(-69.944202 29.101992 6.673616)
(-82.662024 26.033291 2.1719192)
(-90.531389 23.230941 0.27016456)
(-94.904467 20.007282 -1.355248)
(-94.494468 15.794747 -0.86335037)
(-89.813369 11.71221 0.60371352)
(-81.305714 8.065952 3.6775855)
(-69.108488 5.1941028 7.8052674)
(-53.9627 3.4006825 13.180336)
(-36.284008 3.1443059 19.505308)
(-16.9567 4.508241 26.415236)
(3.2945291 7.9221541 34.038698)
(23.788978 13.36263 41.715393)
(43.537742 21.066204 49.539957)
(61.749304 30.90322 57.04278)
(77.82799 42.908379 64.062574)
(91.026987 56.925008 70.381661)
(100.60518 72.805362 75.694561)
(106.51941 90.280526 80.046688)
(108.06691 109.10378 83.028204)
(105.31516 129.0497 84.871567)
(98.375369 149.77804 85.452138)
(87.339589 170.91479 84.808263)
(72.620936 192.3818 83.289848)
(54.729184 213.75521 80.883382)
(34.314306 235.09241 78.153938)
(12.115555 256.04965 75.26244)
(-11.135008 276.93732 72.728292)
(-34.71363 297.55269 70.90312)
(-57.924498 318.24913 70.185426)
(-80.247907 339.22129 70.954658)
(-101.14585 360.81879 73.551092)
(-120.6008 383.48844 78.106769)
(-138.56708 407.78814 84.840119)
(-155.4341 434.17001 93.590507)
(-171.86338 463.15891 104.23373)
(-188.75245 495.39114 116.40557)
(-207.19535 531.20873 129.6701)
(-228.63 571.07523 143.42032)
(-254.49114 615.23121 156.95594)
(-286.37994 663.83342 169.53717)
(-325.79017 716.84937 180.3984)
(-374.15007 774.0898 188.81276)
(-432.63947 835.18528 194.13883)
(-502.16921 899.59136 195.85849)
(-583.28069 966.62231 193.62548)
(-676.11389 1035.4514 187.28296)
(-780.38357 1105.1763 176.88699)
(-895.37865 1174.8362 162.70302)
(-1019.9984 1243.4795 145.19466)
(-1152.7994 1310.1994 124.99924)
(-1292.0793 1374.1871 102.88676)
(-1435.9584 1434.771 79.719638)
(-1582.486 1491.4504 56.396006)
(-1729.7434 1543.9136 33.802347)
(-1875.9377 1592.0536 12.760076)
(-2019.499 1635.9572 -6.0168267)
(-2159.1416 1675.8984 -21.963168)
(-2293.9348 1712.3021 -34.677989)
(-2423.3051 1745.7153 -43.954717)
(-2547.0729 1776.7704 -49.766053)
(-2665.4004 1806.1406 -52.272701)
(-2778.7645 1834.4424 -51.785096)
(-2887.9717 1862.3183 -48.697203)
(-2993.8516 1890.3554 -43.670969)
(-3097.3975 1918.8877 -37.088734)
(-3199.9107 1948.2294 -29.837141)
(-3302.3365 1978.2563 -22.24336)
(-3405.3267 2009.5926 -14.970437)
(-3509.5919 2041.2702 -8.2729034)
(-3615.7285 2073.515 -2.6440813)
(-3723.9328 2105.7719 1.6530001)
(-3834.1618 2137.6623 4.5609998)
(-3946.145 2168.6552 6.0387434)
(-4059.4632 2198.3015 6.1129781)
(-4173.4853 2226.1624 4.9346859)
(-4287.451 2251.8723 2.6511105)
(-4400.5379 2275.1797 -0.47544338)
(-4511.9136 2295.9247 -4.2344809)
(-4620.714 2314.0699 -8.3417657)
(-4726.173 2329.6889 -12.547955)
(-4827.5679 2342.9744 -16.581139)
(-4924.3287 2354.1896 -20.191343)
(-5015.9693 2363.6929 -23.126393)
(-5102.2161 2371.8767 -25.185684)
(-5182.8987 2379.164 -26.152486)
(-5258.0869 2386.008 -25.934457)
(-5327.9967 2392.8185 -24.421136)
(-5393.0865 2400.0066 -21.65207)
(-5453.9453 2407.9869 -17.811026)
(-5511.5043 2416.9353 -13.087125)
(-5576.2995 2431.5868 -7.8721468)
(3.2927448e-15 -1.3239155e-15 2.3845803e-16)
(2.4470133e-15 -9.6672015e-16 3.215493e-17)
(-9.0574249e-15 9.0550918e-16 6.4029168e-16)
(-1.2642219e-16 -5.721845e-16 4.4370095e-16)
(-7.6811722e-15 -4.9270561e-16 4.1193361e-16)
(-7.3893964e-15 2.7533729e-15 -1.0951501e-15)
(-3.2915852e-15 -8.1743692e-16 3.8364228e-16)
(-1.9032499e-15 5.3200654e-16 -8.2319016e-17)
(-4.7409759e-15 -4.8623412e-16 4.3918642e-16)
(-1.2869644e-14 1.1845665e-15 6.4228907e-16)
(-9.6157521e-15 1.4157374e-15 5.9836601e-16)
(-9.4077204e-15 4.9518432e-16 1.1192419e-15)
(-5.982767e-15 2.6210694e-16 3.0473736e-16)
(-1.1478475e-14 -5.3386198e-16 1.6580808e-15)
(-5.257323e-15 3.6289085e-16 2.8600704e-16)
(-11.452551 5.4521177 -7.545637)
(-19.757696 7.1405599 -4.7938902)
(-38.523801 13.806508 4.9876087)
(-52.047563 8.9623907 11.027869)
(-64.016379 5.2234326 19.279516)
(-71.094665 3.8634068 23.758257)
(-76.402463 -1.7841627 27.519779)
(-75.090127 -5.5799076 29.993974)
(-72.372446 -9.1769124 28.974136)
(-63.885515 -13.419431 27.095165)
(-52.610892 -16.813556 22.738019)
(-38.422212 -17.886434 16.276372)
(-21.451448 -20.504152 8.7190943)
(-2.9806703 -18.992089 -0.35644431)
(16.364729 -18.916294 -10.108645)
(35.772275 -15.336594 -19.982538)
(54.768393 -9.7763466 -29.838115)
(70.957113 -4.7300492 -39.494841)
(86.419643 4.819356 -47.55836)
(96.939846 13.751775 -54.932927)
(104.98768 25.737622 -60.081583)
(108.76693 38.912754 -63.652677)
(107.97885 53.619547 -65.887387)
(103.12883 69.118348 -65.839483)
(93.850406 85.887847 -64.180476)
(80.634428 103.34823 -61.358179)
(63.921019 120.63664 -56.904446)
(44.64595 139.65577 -52.437703)
(22.696094 157.13587 -47.326562)
(0.051418889 175.93803 -42.789906)
(-23.797302 194.09803 -39.052363)
(-47.360867 212.41437 -36.503337)
(-70.330687 230.89782 -35.727389)
(-92.160736 249.88015 -36.946155)
(-112.65616 269.62461 -40.149142)
(-131.22454 290.44707 -45.991462)
(-149.07704 312.5245 -53.75677)
(-166.15633 337.28582 -63.420183)
(-183.29716 364.72118 -74.456009)
(-201.54789 395.49165 -86.510581)
(-222.19981 430.11848 -98.801064)
(-246.63532 469.04392 -110.65516)
(-276.35609 512.59526 -121.31963)
(-312.84792 560.94285 -130.06114)
(-357.51768 614.09269 -136.22427)
(-411.59681 671.85659 -139.25548)
(-476.0583 733.85758 -138.7748)
(-551.55414 799.51852 -134.57084)
(-638.35849 868.10097 -126.65565)
(-736.34639 938.72045 -115.23857)
(-844.98089 1010.3905 -100.74503)
(-963.34292 1082.0756 -83.770283)
(-1090.1674 1152.7369 -65.060888)
(-1223.9189 1221.3874 -45.456904)
(-1362.8595 1287.1465 -25.848642)
(-1505.163 1349.2777 -7.1121337)
(-1648.9862 1407.2263 9.9364493)
(-1792.5911 1460.6461 24.597444)
(-1934.4124 1509.3989 36.327218)
(-2073.1435 1553.5671 44.76725)
(-2207.7869 1593.4215 49.766535)
(-2337.6975 1629.4105 51.388373)
(-2462.5828 1662.1183 49.890797)
(-2582.4954 1692.2151 45.725599)
(-2697.8407 1720.4511 39.48065)
(-2809.221 1747.5589 31.84532)
(-2917.4949 1774.2484 23.702868)
(-3025.4615 1801.5812 15.534194)
(-3127.8651 1829.2116 8.9121072)
(-3233.9322 1856.9823 2.5402998)
(-3339.2407 1887.4698 -0.64317413)
(-3446.4993 1918.8387 -2.0134689)
(-3555.3286 1951.6334 -0.6504063)
(-3666.4277 1985.585 3.2952583)
(-3779.5459 2020.3573 9.4531437)
(-3894.4002 2055.4476 17.596093)
(-4010.5295 2090.3875 27.185287)
(-4127.1841 2124.6303 37.602188)
(-4243.5227 2157.6117 48.230231)
(-4358.6346 2188.8394 58.418281)
(-4471.5573 2217.8611 67.557774)
(-4581.3806 2244.3197 75.130876)
(-4687.2613 2267.9648 80.717592)
(-4788.4855 2288.6626 84.034739)
(-4884.4796 2306.3983 84.943652)
(-4974.8589 2321.2827 83.445159)
(-5059.3994 2333.539 79.683458)
(-5138.0969 2343.4898 73.934114)
(-5211.0957 2351.5643 66.568736)
(-5278.7562 2358.2446 58.069032)
(-5341.5565 2364.106 48.950036)
(-5400.1655 2369.7358 39.779324)
(-5455.3119 2375.7703 31.118092)
(-5507.8384 2382.9664 23.350522)
(-5547.8574 2386.8777 17.0741)
(-5795.7185 2386.4658 8.8240338)
(-5950.2989 2349.7519 6.6814667)
(-6031.8867 2281.794 4.027268)
(-6066.1698 2195.2131 1.2125607)
(-6038.2458 2087.3336 -1.9510032)
(-5950.5405 1961.9767 -5.1122748)
(-5832.2557 1831.1734 -8.2223286)
(-5710.6403 1703.375 -10.976328)
(-5558.4705 1571.8369 -13.022873)
(-5452.6639 1457.088 -14.713042)
(-5421.6326 1364.9638 -15.385691)
(-5441.1367 1285.3683 -16.667817)
(-5522.7373 1219.7602 -16.233699)
(-5667.4713 1163.7542 -16.790311)
(-5865.2648 1115.6124 -17.099412)
(-5854.5346 1014.5333 -17.666705)
(-5819.6663 994.50107 -19.471865)
(-5771.8227 971.23194 -20.686149)
(-5722.5682 945.30328 -22.459556)
(-5670.7139 916.71299 -23.029994)
(-5615.8784 885.50494 -23.231601)
(-5557.2345 851.63231 -22.609191)
(-5494.2379 815.28573 -21.18997)
(-5426.5384 776.74581 -19.137912)
(-5353.9187 736.33832 -16.447895)
(-5276.2105 694.59338 -13.421328)
(-5193.6052 651.84838 -10.146713)
(-5106.2007 608.7752 -6.8961492)
(-5014.3574 565.70226 -3.7183916)
(-4918.3462 523.10557 -0.94511363)
(-4818.9807 481.50766 1.2894229)
(-4716.8043 441.14048 2.6787636)
(-4612.5158 402.25887 3.1205312)
(-4506.7822 364.94407 2.4829376)
(-4400.2798 329.20463 0.64422931)
(-4293.5549 294.87344 -2.4219069)
(-4187.0893 261.70036 -6.6989509)
(-4081.1384 229.29398 -12.065328)
(-3975.9079 197.19713 -18.469273)
(-3871.2939 165.09504 -25.598768)
(-3766.7483 132.16238 -33.001416)
(-3664.0518 97.569844 -40.343766)
(-3555.6348 61.527219 -47.465441)
(-3449.9036 24.786793 -54.033715)
(-3339.6762 -15.299157 -58.468069)
(-3226.4579 -57.114178 -61.424764)
(-3108.7815 -100.91367 -61.753076)
(-2986.05 -146.39352 -59.440236)
(-2857.7109 -192.90708 -54.058497)
(-2723.5646 -239.7824 -45.550194)
(-2583.7029 -286.15196 -33.941546)
(-2438.5993 -331.06156 -19.449306)
(-2289.097 -373.50448 -2.468204)
(-2136.3798 -412.47307 16.463229)
(-1981.9409 -447.03006 36.671486)
(-1827.4988 -476.3442 57.396855)
(-1674.9189 -499.75804 77.84033)
(-1526.1078 -516.81332 97.208636)
(-1382.9137 -527.29182 114.77003)
(-1247.0254 -531.21485 129.89402)
(-1119.8828 -528.85771 142.09375)
(-1002.6105 -520.71149 151.04429)
(-895.9591 -507.4793 156.60794)
(-800.29226 -489.99679 158.81507)
(-715.57872 -469.23159 157.88492)
(-641.39312 -446.14027 154.14254)
(-577.05694 -421.80633 148.10873)
(-521.47902 -396.96274 140.23648)
(-473.56512 -372.70301 131.25706)
(-431.95998 -349.46285 121.58416)
(-395.28965 -327.78511 111.89029)
(-362.26086 -308.13587 102.64744)
(-332.91655 -291.53871 94.401652)
(-302.57682 -274.44568 86.459135)
(-274.66103 -260.81531 80.432105)
(-247.11612 -248.92242 76.012515)
(-217.62721 -236.92333 72.162985)
(-189.13246 -226.06426 69.973114)
(-159.95805 -215.47314 68.64612)
(-131.14912 -204.54573 68.352826)
(-102.26066 -192.78019 68.269171)
(-74.758852 -179.7949 68.479249)
(-48.563818 -165.9822 68.802906)
(-24.555374 -150.5542 68.725662)
(-3.276062 -134.0361 68.385538)
(14.952365 -116.3489 67.416168)
(29.852451 -97.758953 65.923906)
(40.871693 -78.896595 63.830613)
(48.094984 -59.65904 60.828993)
(51.761757 -40.997607 57.416977)
(51.705191 -22.921195 53.493342)
(48.366134 -6.591 48.945344)
(42.294675 8.7471658 44.240547)
(33.641041 21.132378 39.118485)
(23.586914 31.839608 34.064362)
(12.198615 40.022998 29.021577)
(0.28132375 45.155564 23.879362)
(-11.488693 47.336883 19.166956)
(-22.149694 48.140201 14.462395)
(-32.040402 45.42308 10.371381)
(-39.720134 41.523401 6.3644077)
(-45.370779 35.689298 3.1542715)
(-48.578766 29.165235 0.1611156)
(-49.332106 21.477241 -1.8706747)
(-47.163823 14.644477 -3.6435739)
(-42.893522 7.3866101 -4.1841078)
(-35.673286 1.3113391 -4.2109903)
(-27.773517 -2.6758647 -3.4858179)
(-16.54959 -4.9847598 -1.2888857)
(-8.1112014 -3.0669252 1.2910125)
(-6.8708141e-15 1.5083581e-15 1.9262289e-16)
(-1.2504183e-14 5.7375616e-16 8.4327435e-16)
(-8.3449101e-15 1.4891922e-15 5.3018253e-16)
(-4.9731758e-15 1.4991158e-15 6.2376313e-16)
(-3.4146159e-15 1.5624416e-15 3.1576894e-17)
(2.0582335e-15 9.3962624e-16 -5.746342e-16)
(2.2101935e-15 3.7457559e-17 -1.1841335e-16)
(2.4553765e-15 -8.5141669e-16 -9.3419562e-16)
(1.2987427e-15 1.0081898e-16 1.7950851e-15)
(-4.5074861e-15 9.063971e-16 1.0710522e-15)
(-5.2682467e-15 2.1856155e-15 1.0652666e-15)
(-7.4917339e-15 1.915055e-15 2.2418828e-16)
(-9.400838e-15 1.3708275e-15 6.2833768e-16)
(-6.2048683e-15 1.3247981e-15 5.4317906e-16)
(-6.971104e-15 1.5128103e-15 7.5678131e-16)
(-1.2693866e-14 6.2923345e-15 -2.1364834e-15)
(-5.2452578e-15 2.6791924e-15 -5.3037742e-16)
(-1.0752404e-15 9.8318743e-16 -1.0111087e-16)
(-2.7353382e-15 1.7746034e-15 7.3085398e-17)
(1.0178949e-15 -1.5450237e-16 -4.119182e-16)
(-1.4303492e-15 4.136346e-16 -3.3264033e-16)
(-1.0059749e-14 4.7133437e-15 -1.6449855e-15)
(2.9801421e-15 -1.9180379e-15 -8.3172098e-16)
(-4.79756e-15 2.8035442e-15 1.1420498e-15)
(-5.4778068e-15 3.5047253e-15 -3.934403e-16)
(-1.8117877e-15 1.1581936e-15 -9.1309836e-16)
(-3.9812639e-16 4.7407236e-16 -2.2932148e-16)
(-1.5272242e-15 1.100363e-15 -2.2557932e-16)
(-4.1024849e-15 1.9838802e-15 2.8069696e-17)
(-5.3424143e-16 2.551799e-16 -1.9455919e-16)
(-5650.9566 2448.3674 -4.2329976)
(-5650.6583 2445.4929 -3.9798592)
(-5650.4207 2442.6209 -2.6452073)
(-5649.6433 2439.2165 -0.88596346)
(-5648.7566 2435.438 1.2627906)
(-5647.6798 2431.0001 3.4890773)
(-5646.5319 2426.0961 5.7305573)
(-5645.414 2421.0564 7.7505405)
(-5644.4095 2416.138 9.5543767)
(-5643.6475 2411.7641 11.019813)
(-5643.2917 2408.4696 12.047636)
(-5643.3232 2406.4927 12.715283)
(-5644.0673 2406.3788 12.859409)
(-5644.9234 2408.7563 12.799668)
(-5646.8948 2412.8483 11.61163)
(-5976.0995 1046.0277 -2.0262443)
(-5973.8765 1047.7897 -1.2012501)
(-5972.3315 1048.5828 -0.86295181)
(-5971.3498 1048.5269 -0.78431343)
(-5970.9054 1047.8618 -1.1296778)
(-5970.751 1046.8415 -1.9175635)
(-5970.7402 1045.7155 -3.1826563)
(-5970.7101 1044.664 -4.8458195)
(-5970.5625 1043.89 -6.855372)
(-5970.2086 1043.483 -9.1143011)
(-5969.6939 1043.5229 -11.446472)
(-5968.9856 1043.9685 -13.695678)
(-5968.2513 1044.7264 -15.636142)
(-5967.4843 1045.5642 -16.980738)
(-5966.9702 1046.0362 -17.375106)
(-3.2570187 9.155308 14.05135)
(-13.154254 14.525879 19.987332)
(-25.398178 20.161354 30.39718)
(-36.329049 25.401019 37.409426)
(-45.892088 30.908031 44.245522)
(-52.530843 36.249868 48.626008)
(-56.235201 41.516497 51.394627)
(-56.657604 46.283246 51.766631)
(-53.409243 50.658888 50.131624)
(-47.056025 53.850092 46.253467)
(-37.258208 56.286177 40.462021)
(-24.802517 57.227291 32.71991)
(-9.919717 57.022681 23.680343)
(6.4310803 55.106934 13.201037)
(23.909579 51.908944 2.0815173)
(41.39985 47.124329 -9.5306001)
(58.29298 40.969722 -20.923382)
(73.545472 33.488598 -32.049494)
(86.471568 24.90505 -42.222743)
(96.390763 15.467097 -51.073646)
(102.5614 5.2179731 -58.477062)
(104.53242 -5.3705823 -64.055336)
(101.85708 -16.255818 -67.666597)
(94.468465 -27.086145 -69.403232)
(82.261297 -37.665957 -69.102003)
(65.455339 -47.924965 -67.046247)
(44.376329 -57.681559 -63.433556)
(19.599543 -66.972641 -58.647526)
(-8.269885 -75.72332 -53.025984)
(-38.546094 -84.264711 -47.139572)
(-70.293396 -92.496458 -41.379671)
(-102.81932 -100.88369 -36.327907)
(-135.46222 -109.61507 -32.442846)
(-167.59853 -118.85448 -30.034234)
(-199.00362 -129.15535 -29.601566)
(-229.29431 -140.52068 -31.196325)
(-258.86402 -153.31883 -34.755719)
(-288.21245 -167.55737 -40.417075)
(-318.01014 -183.28274 -47.780947)
(-349.35164 -200.23053 -56.471967)
(-383.72846 -218.27817 -65.95172)
(-422.70021 -236.93597 -75.662314)
(-467.598 -255.58844 -84.803248)
(-520.34397 -273.61817 -92.67984)
(-582.3801 -290.26165 -98.700226)
(-655.09427 -304.70213 -102.22909)
(-739.44064 -316.15752 -102.82319)
(-836.08168 -323.87381 -100.20206)
(-945.14258 -327.1902 -94.268901)
(-1066.2981 -325.58277 -85.143413)
(-1198.6912 -318.69015 -73.143904)
(-1341.0066 -306.34914 -58.782864)
(-1491.5097 -288.57879 -42.727137)
(-1648.151 -265.61178 -25.758168)
(-1808.6796 -237.83775 -8.7164526)
(-1970.7661 -205.8096 7.5501747)
(-2132.1481 -170.17611 22.258308)
(-2290.752 -131.67233 34.733065)
(-2444.801 -91.038241 44.444205)
(-2592.9146 -49.014357 51.071762)
(-2734.1408 -6.2815111 54.480119)
(-2868.0199 36.56029 54.753721)
(-2994.4913 79.029361 52.150218)
(-3113.9812 120.67709 47.132381)
(-3227.0915 161.37389 40.22873)
(-3334.9633 200.90742 32.052614)
(-3438.1399 239.11635 23.419866)
(-3538.638 276.5099 14.776304)
(-3637.4588 312.37386 6.7325932)
(-3735.1695 347.56857 0.043834469)
(-3832.8894 381.96221 -4.968406)
(-3931.066 415.7331 -8.3119548)
(-4030.1854 449.19007 -9.6584505)
(-4130.2845 482.45165 -9.0867997)
(-4231.2857 515.53692 -6.7436324)
(-4332.8065 548.57271 -2.8789606)
(-4434.3498 581.55883 2.1529956)
(-4535.2803 614.46792 7.9719744)
(-4634.8219 647.23506 14.139144)
(-4732.2661 679.77787 20.259079)
(-4826.7992 711.99645 25.88798)
(-4917.8504 743.74848 30.735496)
(-5004.4737 774.84342 34.47187)
(-5086.135 805.06609 36.834479)
(-5164.1313 834.75617 37.842142)
(-5236.2298 863.20417 37.296061)
(-5303.3273 890.72384 35.51512)
(-5365.4245 917.04689 32.437283)
(-5422.9562 942.26511 28.407284)
(-5476.7268 966.36145 23.650699)
(-5526.731 989.35697 18.474658)
(-5574.4854 1011.1612 13.335106)
(-5620.4478 1032.3748 8.2259937)
(-5665.0309 1052.0344 4.0698292)
(-5722.6607 1073.417 0.076978859)
(-6.7095398 10.61123 14.848384)
(-15.50556 15.587265 20.662219)
(-26.29304 22.600685 28.533945)
(-37.046512 27.342839 35.104425)
(-45.916114 32.44641 40.420755)
(-52.889842 36.827799 44.684193)
(-56.993382 40.910375 47.043766)
(-57.863485 44.524089 47.917665)
(-55.608046 47.475725 46.747848)
(-50.003267 49.704452 44.106868)
(-41.084873 51.054543 39.331541)
(-29.434237 51.460143 33.365029)
(-15.214518 50.773355 25.611884)
(0.85658143 49.032286 17.07342)
(18.378991 46.157967 7.3973289)
(36.236346 42.144593 -2.519984)
(53.978585 37.156246 -12.827243)
(70.486635 31.140027 -22.686577)
(85.301212 24.346374 -32.043743)
(97.186703 16.810138 -40.413636)
(105.77613 8.7878483 -47.569997)
(110.23916 0.40111265 -53.191432)
(110.23729 -8.1255239 -57.168691)
(105.37199 -16.706777 -59.345926)
(95.578533 -25.097227 -59.754158)
(80.786288 -33.307116 -58.470488)
(61.408583 -41.179303 -55.669582)
(37.796301 -48.824567 -51.655992)
(10.566721 -56.190282 -46.75715)
(-19.482401 -63.45211 -41.388858)
(-51.539445 -70.777894 -36.004999)
(-84.829546 -78.360472 -31.103782)
(-118.43596 -86.413859 -27.07721)
(-151.74224 -95.134401 -24.379473)
(-184.15496 -104.8781 -23.267588)
(-215.48105 -115.6663 -24.000943)
(-245.92097 -127.56088 -26.660067)
(-275.69379 -140.6459 -31.0917)
(-305.50169 -154.70903 -37.181089)
(-336.72554 -169.56839 -44.550547)
(-370.49802 -184.69002 -52.546998)
(-408.60622 -199.77614 -60.971391)
(-452.84163 -213.97176 -68.681348)
(-504.91435 -226.72584 -75.346355)
(-566.59072 -237.20496 -80.314937)
(-639.33198 -244.72806 -83.076922)
(-724.25823 -248.57595 -83.189373)
(-822.04948 -248.1838 -80.458433)
(-932.8448 -243.06628 -74.819355)
(-1056.2344 -232.95086 -66.44109)
(-1191.2261 -217.71249 -55.650099)
(-1336.3116 -197.45153 -42.963724)
(-1489.531 -172.42042 -29.012612)
(-1648.5901 -143.07014 -14.524165)
(-1811.0021 -109.9446 -0.25729758)
(-1974.2261 -73.713765 13.053244)
(-2135.8418 -35.068751 24.74833)
(-2293.6607 5.2778077 34.280888)
(-2445.8693 46.660876 41.271036)
(-2591.101 88.471784 45.517123)
(-2728.4785 130.19712 46.992184)
(-2857.6568 171.43544 45.85656)
(-2978.7039 211.89246 42.437558)
(-3092.1946 251.3265 37.169437)
(-3198.9261 289.82209 30.581317)
(-3300.0065 327.08844 23.298075)
(-3396.5593 363.26358 15.937621)
(-3499.6593 399.32639 8.8994846)
(-3594.3015 434.42867 2.586304)
(-3686.3534 468.82141 -2.4433836)
(-3778.2421 502.53315 -6.0089672)
(-3870.5775 535.81703 -8.0283145)
(-3963.7403 568.82782 -8.3924524)
(-4057.815 601.46591 -7.2459058)
(-4152.6649 633.74147 -4.6861764)
(-4247.9558 665.68999 -1.0287422)
(-4343.233 697.14763 3.4591825)
(-4437.8413 728.12323 8.4217974)
(-4531.1453 758.466 13.50235)
(-4622.458 788.11866 18.397879)
(-4711.0459 816.9867 22.757487)
(-4796.4436 844.93253 26.403714)
(-4878.4287 872.1765 28.989961)
(-4939.7946 895.45669 30.664513)
(-5000.1726 918.25558 31.049607)
(-5067.5843 942.18807 30.323396)
(-5131.901 965.49047 28.524392)
(-5192.2456 987.86021 25.81778)
(-5248.9505 1009.4771 22.346303)
(-5302.699 1030.4444 18.480654)
(-5353.8335 1050.6374 14.128165)
(-5403.1681 1070.1779 10.149642)
(-5451.9392 1089.7202 5.7809078)
(-5499.6261 1107.8183 2.6243077)
(-5559.2267 1128.174 -1.04586)
(-8.5323591 9.5612344 14.97145)
(-17.063372 15.012904 19.901194)
(-28.42188 21.218029 27.567192)
(-38.209762 26.50435 32.844856)
(-47.213503 31.127269 37.898145)
(-54.079041 35.390645 41.439977)
(-58.196298 39.124849 43.898018)
(-59.640173 42.139208 44.734196)
(-57.718429 44.721927 44.298677)
(-52.532991 46.393115 41.947275)
(-44.223638 47.549289 38.470382)
(-32.909907 47.61206 33.209534)
(-18.897131 47.045782 27.023711)
(-2.7832063 45.399395 19.442999)
(14.863736 42.93101 11.310674)
(33.352564 39.591479 2.4424237)
(51.911559 35.412171 -6.4971423)
(69.682935 30.530405 -15.380551)
(85.79224 24.96822 -23.843835)
(99.432401 18.974808 -31.48116)
(109.85834 12.560684 -38.14043)
(116.30421 5.9727194 -43.425939)
(118.27716 -0.7208167 -47.306581)
(115.31078 -7.3620788 -49.544486)
(107.22391 -13.84002 -50.228242)
(93.975226 -20.113735 -49.278665)
(75.767482 -26.156463 -46.967824)
(52.997306 -31.991416 -43.441033)
(26.279696 -37.676259 -39.057012)
(-3.6488374 -43.38235 -34.145171)
(-35.944886 -49.206941 -29.161254)
(-69.620177 -55.383671 -24.473144)
(-103.82603 -62.086478 -20.56171)
(-137.78843 -69.538903 -17.696569)
(-170.89833 -77.845052 -16.281846)
(-202.81242 -87.076399 -16.453815)
(-233.4364 -97.322246 -18.257838)
(-263.17165 -108.39828 -21.686435)
(-292.9678 -120.12622 -26.561084)
(-323.59639 -131.96529 -32.368648)
(-356.66746 -143.79122 -39.043156)
(-393.9135 -154.71104 -45.708602)
(-437.17572 -164.22981 -52.05288)
(-488.3205 -171.61894 -57.272805)
(-549.16122 -176.20697 -61.068043)
(-621.23465 -177.29439 -62.909792)
(-705.70023 -174.31093 -62.50322)
(-803.23589 -166.83513 -59.68365)
(-913.93255 -154.56279 -54.464889)
(-1037.2885 -137.40841 -47.024675)
(-1172.1885 -115.44641 -37.702395)
(-1316.9789 -88.967278 -26.975671)
(-1469.5393 -58.394186 -15.416787)
(-1627.4309 -24.315128 -3.6624741)
(-1788.0331 12.624356 7.6445286)
(-1948.7201 51.694879 17.904658)
(-2107.0125 92.204106 26.586731)
(-2260.7232 133.46951 33.293518)
(-2408.0788 174.89816 37.767554)
(-2547.7908 215.9942 39.901231)
(-2679.096 256.36865 39.758103)
(-2801.761 295.76668 37.53316)
(-2915.9976 333.99727 33.583828)
(-3022.5467 371.0669 28.245347)
(-3122.1646 406.90338 22.16512)
(-3217.5911 441.88542 15.548531)
(-3298.1562 474.17147 9.3449915)
(-3407.8811 511.3382 2.89777)
(-3496.4154 544.01158 -1.8572958)
(-3582.0484 575.98024 -5.6874259)
(-3667.6704 607.49634 -8.0491415)
(-3753.5943 638.54755 -9.0711445)
(-3840.5848 669.31862 -8.7180793)
(-3928.605 699.75804 -7.0387747)
(-4017.5418 729.77595 -4.2903332)
(-4107.0714 759.33616 -0.70105069)
(-4196.8032 788.38302 3.4284144)
(-4286.18 816.82818 7.8177544)
(-4374.6329 844.5895 12.162644)
(-4461.5711 871.59077 16.23165)
(-4546.4554 897.77675 19.707321)
(-4628.7211 923.09892 22.534295)
(-4708.3251 947.61705 24.384987)
(-4784.6883 971.32666 25.445574)
(-4832.6368 988.75024 25.072809)
(-4897.693 1009.8473 24.19079)
(-4964.1301 1031.0649 22.446185)
(-5027.683 1051.7651 20.012315)
(-5088.6807 1071.9296 17.054466)
(-5147.7533 1091.7395 13.744388)
(-5204.9387 1111.1567 10.231776)
(-5261.4764 1130.3058 6.8705885)
(-5318.0452 1149.6653 3.5170991)
(-5374.2826 1168.0399 0.7668167)
(-5439.5966 1188.342 -1.9875603)
(-10.616302 10.194314 15.301977)
(-20.510869 14.709699 20.842037)
(-31.339569 20.727882 27.225053)
(-41.24557 25.483055 32.078892)
(-49.96334 30.106653 36.347184)
(-56.606599 34.441754 39.602173)
(-60.960172 37.848299 41.709961)
(-62.32793 40.85141 42.741959)
(-60.391858 43.192627 42.133545)
(-55.337778 44.845575 40.573144)
(-46.899884 45.753726 37.336106)
(-35.360977 45.920543 33.144289)
(-21.074129 45.362607 27.56228)
(-4.5307192 43.900196 21.233878)
(13.79254 41.870758 14.04185)
(33.060471 38.931981 6.4224798)
(52.56566 35.522391 -1.4409974)
(71.360778 31.428745 -9.2078091)
(88.674677 26.994319 -16.588592)
(103.54914 22.164529 -23.307683)
(115.20798 17.181838 -29.102008)
(122.86865 12.100763 -33.749382)
(125.98161 7.0937126 -37.102993)
(124.02739 2.2165778 -39.031204)
(116.82203 -2.4147559 -39.518154)
(104.26115 -6.8149252 -38.619131)
(86.579083 -10.926952 -36.471249)
(64.134776 -14.857265 -33.249092)
(37.606853 -18.655493 -29.263453)
(7.6961664 -22.474829 -24.821169)
(-24.603676 -26.469478 -20.270263)
(-58.395387 -30.811804 -16.013909)
(-92.717922 -35.682795 -12.360123)
(-126.73107 -41.194426 -9.6633418)
(-159.79697 -47.448902 -8.1641331)
(-191.49127 -54.508384 -7.9612336)
(-221.91063 -62.252389 -9.1190791)
(-251.3635 -70.439784 -11.749425)
(-280.24742 -78.813514 -15.36941)
(-310.09545 -87.379083 -20.091185)
(-342.2566 -95.144522 -25.08354)
(-378.44326 -101.7535 -30.214566)
(-420.53594 -106.57114 -34.877424)
(-470.499 -108.87856 -38.692215)
(-530.06597 -108.10825 -41.261386)
(-600.73317 -103.64451 -42.228425)
(-683.6406 -95.061838 -41.395547)
(-779.38486 -82.043243 -38.677092)
(-887.99178 -64.434916 -34.125453)
(-1008.8726 -42.278648 -27.936163)
(-1140.8379 -15.782596 -20.42022)
(-1282.1627 14.657992 -11.991435)
(-1430.6827 48.532991 -3.1297735)
(-1583.934 85.195874 5.6541436)
(-1739.3088 123.97061 13.860784)
(-1894.2154 164.13329 21.031959)
(-2046.2426 205.02058 26.790068)
(-2193.2924 245.99543 30.871644)
(-2333.6944 286.54964 33.117016)
(-2466.2709 326.26285 33.513253)
(-2590.3685 364.84811 32.155982)
(-2705.8467 402.11337 29.277815)
(-2813.0596 438.02926 25.130935)