/*--------------------------------*- C++ -*----------------------------------*\
  =========                 |
  \\      /  F ield         | OpenFOAM: The Open Source CFD Toolbox
   \\    /   O peration     | Website:  https://openfoam.org
    \\  /    A nd           | Version:  6
     \\/     M anipulation  |
\*---------------------------------------------------------------------------*/
FoamFile
{
    version     2.0;
    format      ascii;
    class       pointScalarField;
    location    "0.85";
    object      p;
}
// * * * * * * * * * * * * * * * * * * * * * * * * * * * * * * * * * * * * * //

dimensions      [1 -1 -2 0 0 0 0];

internalField   nonuniform List<scalar> 
3969
(
1496213.9
-2267924.4
11078.379
8436.7489
2816981.9
-4786441.9
8969.9016
5512.669
1156105.2
797970.7
409315.27
-68833.819
-409216.16
-922519.17
-1033175.7
-7941.8135
-2224.2888
-1175.1311
4903.6086
10759.629
15332.246
14881.38
489850.75
564390.02
558447.24
582979.24
577279.74
579625.79
566661.62
554658.97
541751.02
522945.27
509207.53
493376.46
476196.59
461098.91
446158.3
429384.93
415393.24
400005.78
386007.04
370518.01
357006.13
342541.37
328921.09
316046.65
301382.3
287863.33
273451.89
260126.99
247017.2
232634.08
218802.75
204885.39
190333.54
175956.21
161589.23
147538.91
132066.09
118715.54
103024.12
90473.493
75565.786
63123.331
51325.247
38042.409
30457.501
20866.129
14365.668
-501260.93
-432946.52
-539478.7
-486735.08
-545592.13
-505856.98
-522797.86
-492374.74
-494221.16
-473588.44
-464123.51
-452726.39
-432396.89
-426624.14
-407996.81
-395878.14
-382587.8
-365666.74
-355409.27
-339817.29
-325802.1
-315309.05
-299390.28
-288792.04
-274597.8
-261723.96
-247340.3
-233765.8
-221118.92
-207423.28
-196392.04
-182281.51
-170173.72
-156307.43
-143420.79
-129801.97
-116981.76
-102431.85
-89866.645
-75474.353
-62583.547
-50492.273
-38918.775
-27607.651
-17256.382
-8961.2124
-1340.5733
2148258.4
1578675.7
707274.47
-142096.91
-789681.28
-1728972
-1411244.9
-622929.63
-694170.54
-453359.33
-660233.96
-565820.05
-596025.99
-567833.82
-567498.46
-538489.7
-508779.67
-540875.02
-494761.29
-502693.15
-479654.59
-464613.34
-451521.2
-429645.34
-415780.58
-397004.64
-378744.21
-364104.41
-348099.41
-333302.41
-318256.35
-305434.66
-293598.46
-279365.71
-261858.95
-249371.06
-234703.53
-219169.1
-204566.26
-189385.32
-173913.21
-159216.77
-144688.06
-124999.95
-112901.98
-98011.737
-83283.022
-68596.467
-55506.946
-41761.914
-29535.734
-18743.788
-8891.0179
-456.96336
20153.199
13733.651
12054.997
6334.8864
-1640.0998
-2287.3977
-9278.4029
25028.389
23665.05
29540.654
40517.109
52138.685
64439.639
78038.216
91397.541
106206.46
119668.75
131442.81
154113.72
164768.8
179601.87
194849.34
209494.06
223740.48
238633.82
252263.77
266834.33
281790.86
295132.59
309946.26
324908.54
339975.05
355555.69
370811.56
385129.02
401555.01
416192.42
431768.6
445013.82
452247.6
479340.29
506024.57
500759.79
529634.03
530385.66
547234.72
575144.93
596459.97
576863.57
614897.59
579046.23
583320.28
600860.22
580763.63
1254035.4
1362001.3
1439593.8
1417716.9
1419239.5
1421245.4
1180212.3
-1737029.4
-2234651.8
-2596150.6
-2766957.6
-2640712.9
-2616287.8
-1920446.6
8863.3692
9886.9588
10634.155
11991.59
11474.254
9621.6289
9732.2323
3457.0065
4528.1024
3681.4799
2721.2681
3847.9639
8214.3647
4122.1569
429465.89
442034.77
445854
451342.91
448774.71
445029.47
434232.97
431481.51
413356.34
411608.8
396376.07
382525.89
376032.53
363355.19
351291.51
339425.61
328824.66
316295.44
304416.4
292947.58
281979.48
270019.1
259202.96
248186.47
238517.96
226684.53
215845.73
205495.04
194225.19
183095.97
172145.02
160694.7
149408.98
137946.13
126750.73
114870.68
103164.56
92093.787
80941.823
70887.111
59630.597
51063.346
40390.988
32694.891
25779.613
16125.951
9301.1618
263510.99
260479.73
266767.49
278987.92
282681.91
291035.2
282581.16
279346.21
272638.44
268563.01
258530.35
253078.43
242920.15
234498.46
228806.92
220262.86
213741.44
205071.43
198295.4
190390.01
182212.35
174169.47
166410.87
159590.61
151763.61
145631.58
139402.41
131237.86
125491.63
118291.39
111481.91
104635.78
97449.567
90584.168
83451.94
76415.058
69473.659
62941.795
55543.315
49522.739
42138.301
36712.597
29624.029
25230.968
19471.308
12606.592
6493.8334
114164.59
132652.29
126820.44
134383.46
133043.79
137081.98
133562.75
136154.5
129148
127172.35
124564.83
120617.31
116734.93
111357.4
106422.51
103344.65
100380.77
96732.994
94341.595
90795.382
88977.262
86297.374
83316.899
79821.041
77276.672
73691.802
70348.719
67964.605
64751.655
61383.694
58045.071
54508.534
50908.003
47250.918
43812.181
39835.803
36388.506
32407.214
28712.599
25782.917
21999.651
20152.34
16018.076
14726.934
11601.919
7839.6077
6679.5469
-22222.672
-25419.172
-28256.582
-18702.912
-28177.584
-21810.834
-28465.228
-24790.875
-25401.312
-14216.277
-20714.563
-14401.621
-16941.1
-12906.605
-11829.507
-9681.8437
-9619.2899
-8461.1139
-7923.4256
-8318.4276
-7984.2082
-9695.5058
-12266.808
-11360.004
-10339.191
-9996.4707
-8856.6935
-7983.1018
-7314.3255
-6356.2604
-5540.6126
-4548.3609
-3891.2497
-2876.6808
-2037.822
-843.79164
-307.57294
770.57055
2282.8968
3522.7495
4453.8265
5311.8499
4948.8497
6907.5625
6202.1453
7282.5936
8421.6169
-169957.33
-148382.28
-149763.89
-157667.48
-166661.7
-162995.49
-166177.73
-160008.72
-160273.05
-148640.29
-151298.83
-138453.35
-140425.69
-128579.76
-128086
-119441.58
-117031.46
-110985.25
-107025.1
-103188.98
-95412.918
-87079.587
-82483.747
-73808.964
-71849.132
-70185.02
-64932.158
-60549.086
-56894.291
-53061.91
-49068.024
-45611.196
-41631.896
-38134.854
-33933.679
-30449.426
-27061.893
-22711.372
-22442.453
-18565.111
-15219.367
-11899.824
-8239.6657
-4642.846
-1801.6645
2300.3373
6929.746
-312275.66
-292016.17
-294352.31
-316834.79
-320471.79
-318525.21
-316722.34
-305902.26
-305337.93
-288460.93
-287435.58
-274000.01
-268446.1
-260177.46
-252245.38
-241319.58
-233664.98
-223651.13
-215659.95
-207054.19
-196049.82
-188197.27
-173235.34
-162916.25
-153026.56
-145399.67
-138737.85
-130688.59
-123173.18
-115540.84
-108600.22
-100763.85
-93295.114
-85516.156
-77929.501
-70090.938
-62313.989
-54867.579
-46970.123
-40708.341
-33903.299
-26904.526
-19675.597
-13154.471
-6697.9881
14.851703
8166.7917
-513141.06
-357634.75
-428544.79
-426999.55
-451634.9
-438713.32
-444439.95
-429372.56
-431813.54
-407321.23
-410055.92
-391192.55
-380887.93
-368319.61
-354205.7
-341563.07
-327019.78
-316634.1
-303038.62
-291660.77
-280492.21
-267847.87
-256795.74
-246152.11
-234496.57
-224380.68
-215672.32
-202764.1
-191157.13
-179823.11
-168524.3
-156906.7
-145038.85
-133447.65
-121233.29
-109259.92
-97609.787
-85818.773
-74970.714
-62170.488
-51168.355
-40566.489
-30739.098
-21975.554
-13547.87
-5599.4916
3628.2872
1006595.3
915197.36
955980.63
959163.48
961117.8
935456.71
891299.84
618431.42
665222.71
641658.88
651605.65
660401.74
649175.99
652910.83
310076.41
374320.69
323602.91
349601.83
335608.2
330574.57
355225.32
29097.37
-15886.141
-34543.102
-108.66976
-19728.686
-65773.064
85311.168
-214894.32
-221027.98
-232409.75
-201867.52
-220790.23
-212232.85
-112262.72
-659992.12
-708843.22
-696066.05
-718635.45
-732045.54
-720420.54
-664043.42
-758380.47
-716562.49
-600270.13
-619218.87
-578621.17
-535228.44
-607833.62
-852165.57
-891863.22
-1013288
-1045728
-1072250
-1049244.2
-799407.15
-650882.79
-750541.24
-763180.45
-783700.96
-815426.43
-778594.91
-708955.49
-564354.8
-642454.56
-677713.4
-684879.36
-687335.47
-635786.92
-670674.04
-559986.18
-621315.05
-609860.61
-654183.75
-628649.2
-622991.3
-587165.93
-568969.4
-603366.44
-624309.68
-631147.95
-633131.71
-600503.39
-612596.58
-555130.89
-550035.07
-565004.04
-579825.26
-580931.01
-567932.6
-560499.62
-533118.7
-553292.27
-561836.03
-573776.56
-567239.58
-569060.14
-566032.2
-531396.74
-526533.55
-529656.69
-539152.06
-537461.66
-538261.39
-533923.87
-511209.85
-518753.3
-522053.98
-530044.13
-532283.64
-533785.88
-533759.98
-505925.64
-500999.92
-499886.72
-505602.14
-505538.99
-499236.46
-502960.48
-487444.16
-492312.28
-486878.63
-494807.93
-492696.9
-489636.09
-500792.29
-470682.45
-472680.12
-470219.91
-479008.77
-476756.82
-468378.26
-483157.83
-463153.53
-453279.73
-460710.97
-459368.24
-462721.09
-459138.55
-472654.81
-440364.01
-439404.42
-446489.55
-443829.78
-450339.93
-440032.6
-452633.83
-431493.27
-424085.98
-432923.49
-427894.25
-433323.38
-426521.37
-439897.65
-413246.19
-406795.7
-418046.79
-411612.66
-421131.38
-412711.37
-425177.76
-397840.19
-394910.94
-403345.52
-397566.28
-406428.74
-397180.1
-407182.85
-383720.91
-379551.17
-389743.45
-382125.36
-392926.93
-381844.5
-393801.35
-368365.97
-366376.17
-375313.01
-367195.74
-377824.89
-367181.53
-379125.83
-353788.22
-351909.57
-360932.15
-352730.53
-364422.48
-353363.76
-365378.16
-340893.65
-337687.86
-346884.25
-338352.92
-349747.06
-338873.03
-350456.04
-326352.21
-324156.52
-332661.64
-324858.59
-335983.42
-325027.01
-337185.38
-313782.55
-310138.32
-319510.33
-311202.77
-321004.03
-311535.68
-322671.82
-299536.46
-298502.41
-305224.16
-296959.09
-308101.3
-298685.18
-310208.86
-286150.87
-286637.73
-288355.22
-285894.93
-293053.16
-285981.23
-296127.58
-271043.18
-274250.57
-271747.74
-276110.99
-279439.25
-276925.86
-283965.68
-262151.28
-260619.82
-260813.72
-262523.94
-264550.09
-261959.68
-269500.49
-249434.12
-246962.36
-247943.27
-249345.02
-250314.66
-249867.46
-253102.51
-235474.94
-233106.33
-234711.4
-234569.17
-235171.91
-236585.51
-238002.24
-222551.09
-219409.93
-221808.18
-220839.89
-222513.31
-222994.96
-223953.14
-208207.74
-206562.52
-207530.75
-206906.72
-207765.18
-208279.83
-209203.74
-195086.25
-192305.08
-193708.84
-192732.16
-193715.58
-194120.25
-195155.63
-180535.46
-178559.57
-179377.68
-178528.15
-179327.42
-179738.43
-180774.18
-166591.37
-164319.44
-165140.49
-164162.69
-164764.45
-165179.3
-165804.45
-151927.42
-149972.02
-150384.02
-149319.45
-149828.82
-150572.36
-151235.29
-137393.8
-135762.39
-135768.57
-135275.05
-135454.56
-135548.08
-136262.77
-123026.68
-120719.13
-121207.66
-119448.89
-120588.9
-121660.64
-121627.71
-108892.02
-107177.27
-106198.35
-106069.42
-105493.19
-105801.97
-106653.74
-93770.126
-91988.887
-91522.164
-90884.515
-90880.251
-91612.125
-92073.195
-80159.738
-77874.46
-78085.013
-76713.721
-76753.241
-77626.437
-78186.581
-65488.377
-64302.012
-63504.89
-62481.988
-62661.451
-63494.81
-63735.111
-52648.422
-51305.743
-50285.859
-49936.474
-49496.827
-50499.201
-50755.138
-39561.396
-38412.18
-37357.825
-37118.212
-36269.054
-37724.588
-37777.807
-28143.257
-26652.413
-25964.968
-25451.949
-24769.393
-26258.238
-25851.403
-17795.35
-17004.146
-16129.051
-15789.125
-15111.598
-16031.138
-15368.149
-10228.653
-9134.9963
-8809.9949
-8298.2911
-7674.1055
-8867.2951
-8350.3988
-4244.1849
-3789.6488
-3197.2622
-2434.2347
-3144.1459
-3321.8523
-1946.8959
-15235.098
-17470.31
-19978.8
-20165.21
-18792.94
-17643.569
-15575.703
-9500.4713
-10391.984
-10929.691
-11694.975
-10890.276
-8875.811
-7896.3022
-4541.946
-6118.8633
-6590.9153
-6484.4443
-6063.3756
-4359.2918
-3408.465
5821.9421
6054.0908
5806.5834
5696.8261
6733.6177
6062.5549
7460.2517
13878.713
13956.289
14380.628
15266.981
14843.162
14484.623
14022.189
19167.948
21614.038
22073.357
22331.806
23560.576
20697.444
20366.424
21824.153
22575.079
24252.61
24261.978
23639.074
22479.489
21397.756
617249.86
605822.18
681485.37
664257.97
685470.68
651848.02
635975.91
641405.18
652009.74
682841.93
675507.62
689722.22
650921.47
638352.28
626658.99
628868.62
649623.7
650888.19
651665.48
625434.63
617648.97
598439.21
610177.34
626996.89
627952.53
628576.86
611038.72
616196.04
600966.14
601859.87
608117.28
612424.91
610483.68
604463.7
595061.04
578438.78
578357.4
589845.58
581921.92
588766.28
571008.27
577489.4
574320.83
572124.36
574919.18
574031.7
583128.2
569996.61
581392.78
551429.28
546815.04
557818.69
539994.16
551904.93
544310.51
548609.86
542121.8
544391.14
542955.54
539262.94
546911.56
537483.98
549539.29
528485.04
520078.16
522589.55
514762.85
524471.35
514029.41
527113.46
513146.86
506028.71
515146.64
503894.34
514031.22
505847.2
514256.76
494125.52
493953.64
493686.27
486050.41
493995.01
486600.09
498198.23
483776.57
475674.76
477522.53
472177.65
478519.31
470689.67
471101.66
466726.11
461485.16
461669.84
457109.43
462230.67
458724.71
466528.14
450022.5
447326
443281.41
443425.52
445192.07
440472.27
448943.75
438335.74
430020.57
429545.01
426696.8
432039.47
426469.43
431859.67
421158.34
415844.71
413844.71
412942.9
414226.14
409804.66
415812.6
405984.96
399968.76
399882.86
397304.87
399212.17
396169.44
400034.63
390184.51
385785.72
385032.83
382208.17
384390.82
381266.95
385698.34
375887.62
370364.56
370260.93
367782.62
369607.35
366646.55
370426.58
361898.91
355496.57
356713.07
353290.28
355466.99
352576.98
356288.04
347236.1
341322.91
342880.52
339296.59
341162.62
337744.29
341865.65
333741.35
327506.31
330012.45
325597.66
327535.36
324272.65
328601.29
319438.4
314324.95
316278.61
311807.84
313494.88
309732.31
314446.59
306384.61
299566.39
303105.14
297791.71
299947.37
296057
301260.09
292757.73
285689.32
290071.03
284156.44
286495.13
282458.01
287224.55
278522.46
272523.73
276174.49
270723.92
272743.93
268709.71
273962.56
265524.55
259118.21
262452.3
257350.86
259614.11
255413.35
260727.06
250618.29
244689.71
249109.21
243603.21
245507.33
241299.2
246512.9
236627.58
231947.47
234798.03
230101.59
231824.18
228078.75
232906.14
222598.13
217689.59
220912.68
216383.18
217991.2
214007.77
218828.28
207763.85
203799.27
206297.27
202302.32
203469.36
199940.1
204573.99
193314.5
189624.94
192135.27
188262.72
189308.68
186154.27
190665.89
178473
175439.97
177345.01
174014.69
174833.99
171976.53
175755.66
163811.4
160880.38
162628.61
159681.65
159860.99
158263.32
160967.2
148218.68
146459.37
147780.99
144822.08
145667.14
143661.3
146088.52
133724.99
132413.34
132038.94
131134.69
130434.03
129156.92
132282.59
119087.22
118288.53
117657.79
116351.53
116531.69
113622.52
118030.88
103877.82
103137.16
102400.03
101674.89
101686.36
99909.445
103391.85
90291.471
89885.802
89132.084
88369.949
87782.473
86062.682
89474.376
75440.696
74817.444
74013.509
73416.176
73080.947
72844.462
75325.082
62818.921
62461.719
61558.377
61114.472
60930.145
60069.371
62332.684
50299.422
49965.619
48829.427
48902.341
47950.795
47885.997
49320.393
37521.674
36879.975
36248.781
36134.167
35972.386
36061.967
38043.33
29725.124
30781.626
30407.5
30678.9
29866.206
29380.759
29164.234
21919.545
21844.141
21045.087
20873.903
21248.843
21975.46
21391.28
23425.068
25765.909
26084.124
26759.087
26717.784
27064.227
25683.27
582068.12
487114.82
464947.32
467276.61
475222.09
480970.45
456270.66
457475.19
445099.63
438402.62
421145.05
410882.84
397524.45
379918.64
372256.11
358323.71
344376.58
332673.86
320179.82
308576.02
296758.52
284830.96
273567.17
262648.63
251393.02
240613.32
228256.54
217310.87
206057.67
194367.15
182759.94
171119.2
159091.85
147031.28
136080.93
121752.37
110691.99
100328.6
87814.846
76479.033
65840.409
55139.082
45625.815
36071.108
27660.998
19204.615
8261.9925
337164.93
358677.27
265545.96
311857.63
343359.29
321431.96
334515.9
313845.16
317492.79
302832.94
296776.2
289506.22
272215.59
270063.26
260124.65
254325.96
244575.99
235246.86
227995.65
218704.86
210383.86
202053.27
193808.82
184976.99
176435.9
166537.75
161623.78
152275.26
144743.83
136972.56
129156.91
121339.93
113285.81
105858.53
96776.082
89484.9
81602.642
73104.812
65411.771
57176.986
49707.487
41801.243
34747.296
27421.147
21265.852
13781.18
7125.8406
159425.88
207739.82
109024.82
181785.74
145506.24
136569.16
136819.59
132053.93
130523.28
121471.47
129245.23
120672.68
129119.41
122572.04
123766.78
122726.85
117786.83
115206.68
112236.99
107024.33
103625.24
99778.204
95798.468
92153.57
88654.736
85206.441
81884.194
76895.86
73629.15
69485.917
65629.293
61764.138
57967.579
53835.041
49676.37
46080.577
41865.263
37981.659
33827.438
30540.747
26912.802
23185.046
19912.637
16766.798
13559.93
11082.182
3639.155
-29925.677
37592.071
-20407.346
22339.639
-13449.646
7325.8204
-3205.1307
-15972.224
-10735.364
-4114.0909
-11531.619
1154.5036
-5842.2882
7547.0524
9531.6871
10987.583
11324.287
12339.224
12568.358
12084.949
13040.965
12981.623
13203.778
13249.108
12629.015
12027.502
11288.255
11709.451
11225.587
11154.259
10988.518
11372.737
11047.005
11114.622
10962.769
10947.312
10388.047
10312.993
9776.1244
9725.0541
9080.953
8563.7067
8338.9813
7411.2098
7929.5792
6125.4354
4719.2831
-275183.91
-124836.9
-156759.4
-106815.06
-152606.6
-122045.22
-147825.94
-138875.8
-129357.87
-133114.97
-118034.25
-125848.53
-112330.32
-116159.23
-110757.65
-106739.87
-102884.11
-98557.265
-94766.621
-90687.401
-86831.023
-82946.313
-79251.348
-75817.364
-71776.668
-69547.893
-64514.245
-60833.303
-57328.405
-53770.328
-50027.894
-46268.785
-42361.131
-38224.652
-34570.257
-30676.058
-26892.523
-22905.892
-19564.857
-15618.673
-12368.164
-8721.7509
-5951.5381
-2519.3965
103.92574
3613.9154
4877.8808
-426229.28
-304657.4
-263676.24
-270390.96
-292158.53
-281550.09
-299679.86
-270662.62
-300971.17
-286049.74
-289622.09
-274970.21
-267272.64
-261570.78
-248642.91
-239696.72
-227593.71
-217423.65
-207243.24
-198583.3
-190324.76
-181477.98
-173135.1
-161832.85
-150848.68
-140236.79
-133808.61
-125785.71
-118590.82
-110930.01
-104087.09
-96382.86
-88837.783
-81306.528
-73728.196
-66231.887
-58454.946
-51285.838
-44111.711
-36772.473
-30161.319
-23588.377
-17196.771
-11505.259
-5449.2889
484.44271
6524.7082
-524922.35
-389016.1
-401167.41
-397521.2
-445534.51
-440022.81
-448129.26
-438625.54
-444262.05
-427886.76
-410239.26
-405765.24
-390583.7
-379259.12
-366677.43
-355049.54
-345270.76
-331757.45
-322195.7
-309284.42
-297501
-284996.7
-273052.64
-259799.68
-249015.43
-228954.99
-218333.7
-206815.99
-195360.03
-184365.4
-172907.67
-160710.46
-149251.51
-136975.64
-124818.62
-112980.62
-101758.58
-89528.12
-77728.382
-66436.596
-55762.672
-44540.025
-35349.276
-25415.64
-16231.034
-7409.3221
286.59017
699770.42
783714.91
751419.62
789153.43
772405.68
735896.18
687351.39
516851.65
595588.41
586114.6
604068.08
587014.62
566627.8
518409.16
484201.36
531855.32
538502.68
552801.85
535482.08
531314.73
510405.21
475093.64
491701.48
493198.5
510125.95
484877.05
496779.28
452968.07
461888.03
476157.8
481876.56
479405.84
474118.12
470563.16
441200.87
454555.05
473825.98
453832.7
475008.99
455188.3
459055.43
456858.41
447933.22
447471.34
444015.74
447620.93
430226.75
444192.75
435748.52
433803.93
455547.81
432560.82
445086.19
437975.51
436574.49
432613.12
434233.39
429248.14
410115.83
429484.58
411749.22
420496.06
416420.13
415301.67
419020.43
413328.79
421683.58
405791.7
415911.26
409342.35
404157.5
412251.55
394298.52
402790.28
392405.05
398871.21
396311.97
400588.18
394354.57
386593.62
391035.29
385470.41
385297.37
382112.94
384036.06
383420.02
375021.33
383262.11
370846.38
377601.27
379507.49
372632.53
368653.2
365000.12
368720.27
358200.08
363834.06
362682.76
362864.86
357785.79
354995.69
354551.56
348922.97
354320.04
350454.57
348148.36
344607.81
343853.91
343865.27
336461.49
338467.77
339775.33
335842.45
332974.21
330965.68
332154.1
325126.5
329781.33
328223.53
324343.53
321112.96
320622.37
318725.3
314142.94
316726.95
316689.2
311647.71
310580.44
307286.21
308108.77
302902.75
305158.57
304017.76
300779.4
298377.41
296793.84
296338.41
292000.81
293885.44
293563.18
286455.17
288430.8
284882.16
285256.47
280718.52
282529.89
281397.13
275657.24
277728.31
273530.59
273612.94
270012.3
271510.21
271238.64
263197.38
266940.66
261265.94
262578.47
258760.06
261355.11
259143.62
251711.99
255612.25
249852.77
250961.18
248515.33
249973.24
248122.51
238747.25
245955.82
238161.91
241324.64
237289
240493.29
237629.05
228917.12
234646.54
228346.98
228949.74
227950.94
228802.46
226961.4
218736.66
223414.25
217025.7
218862.29
217366.14
218340.8
216619.35
206876.28
211003.72
207452.46
207695.66
205888.81
207663.75
205029.97
195662.43
202167.05
195261.44
196710.97
195775.33
197130.77
195016.42
185502.54
189228.24
185117.27
185971.45
184990.76
186025.28
184061.01
173739.1
178112.21
173633.47
174456.76
173544.03
174855.63
173087.34
162710.37
166419.73
162970.12
163427.55
162894.2
164041.39
162356.48
151277.7
154724.49
151344.3
151752.71
151437.66
152581.72
151014.28
139933.58
142740.11
140068.15
140217.08
140300.93
141155.19
139548.73
128313.26
130637.42
128428.39
128389.33
128724.02
129324.51
128534.15
116722.73
118609.72
117197.56
116792.32
117522.02
118510.91
117293.12
106192.52
107024.88
105671.25
104504.9
106510.3
104972.03
106729.95
94538.012
94141.943
94391.554
93472.564
93347.598
95834.601
94125.781
83480.538
82259.276
82708.757
82143.248
82971.352
83846.634
83790.038
72069.054
72017.065
71876.275
71300.785
71335.117
72853.37
72507.581
61861.553
60304.77
60813.785
59463.51
60820.602
61671.919
61912.392
51733.795
51256.447
51511.317
50726.716
51653.619
51641.131
52053.636
41472.714
39688.346
40173.827
38944.323
39845.792
40702.036
42071.485
33972.699
33054.544
34016.842
32542.104
34045.978
34013.109
34028.767
24287.01
23654.376
23292.169
22589.427
23392.344
23459.457
24471.658
16863.088
15645.913
16641.212
15294.138
16381.067
16622.16
16060.051
8335.7391
5997.8562
5736.7231
5647.1532
6296.3872
5527.0035
8464.3086
448815.75
474114.02
520288.52
511660.85
527354.39
484404.92
485489.03
359435.64
413778.63
433044.34
440783.48
440732.22
413982.99
397496.42
345773.72
314352.1
355803.89
339904.29
356615.99
323853.02
336362.68
303743.57
306337.83
324431.04
313972.76
322241.4
313890.76
289581.27
315009.17
306796.12
319557.91
305881.69
323366.64
302698.59
313214.8
298690.23
287349.61
292838.1
284292.92
281705.48
294386.16
289822.44
297971.72
293829.69
305258.79
286372.28
301653.49
300602.96
292326.63
290897.88
278221.25
277627.42
272132.49
279749.82
274774.88
280965.9
285592.46
271091.09
286132.45
273505.59
273656.69
279335.68
279009.21
271078.55
269446.74
273111.56
256030.38
266411.43
266499.46
271070.38
270120.61
263012.93
261387.11
253968.37
259085.52
260733.21
259847.86
261082.79
250285.3
259715.48
246949.89
255936.46
251839.49
262355.19
250792.39
246541.54
253063.07
235761.42
245864.79
241460.21
247160.88
243814.83
240780
243847.86
229976.21
239507.58
238230.1
235839.89
234699.59
235777.04
233454.6
222285.24
231590.33
227534.94
227395.59
228023.87
227590.18
224712.49
218747.29
222047.24
222570.47
218757.16
220145.75
221084.96
218466.4
210271.71
214577.99
216163.33
214341.1
212197.16
214150.27
209350.34
204564.74
206993.5
208547.17
203969.34
206461.45
206110.43
203081.75
197835.9
200348.97
201407.42
198713.03
197843.22
198631.49
195553.79
191317.34
192667.22
193725.99
191107.34
192528.73
191525.14
188825.33
184373.1
185895.46
186970.88
185136.44
186247.46
184084.94
181239.11
177824.1
179109.17
180009.31
177692.78
180587.19
176065.88
174731.87
171445.87
173171.43
172209.64
171700.83
174012.13
169160.95
168786.85
165769.46
166458.2
165293.21
165784.9
167436.85
162373.97
162186.06
158762.15
160566.56
157939.47
159644.49
160708.43
156127.43
153450.5
155267.9
151745.95
151485.86
153400.23
152155.5
149175.65
148130.46
145130.02
147509.55
143102.42
146384.06
146799.28
141145.49
141799.4
139249.77
140531.73
136931.71
139984.7
138739.1
134393.66
135326.06
132058.27
134431.95
129522.87
133049.68
131192.67
127669.74
127358.1
125469.31
126498.87
122796.46
125794.23
123634.65
120589.26
120970.98
118653.31
120117.29
116143.79
118937.02
115704.59
113689.92
113139.1
111616.84
112536.91
109057.62
111423.71
108105.21
106295.77
105934.88
104462.07
105550.43
101947.1
103941.31
100014.11
98999.76
98194.745
97381.26
97886.567
94549.561
96625.686
91994.055
91656.723
90862.418
90059.659
90660.775
87743.394
89926.924
83949.717
84333.506
82809.95
82754.562
82784.74
80072.835
81149.358
75728.702
76755.379
75191.798
75203.256
75126.509
72738.281
73856.16
67660.517
69670.229
67238.783
67895.703
67479.191
65563.875
66643.282
59830.958
61381.386
60227.166
59899.976
60156.362
58727.605
58683.734
52152.777
54909.415
52534.29
52623.108
52590.344
50981.093
51092.336
45323.72
46775.19
44981.163
45375.739
45379.801
44099.897
44112.677
37721.95
40198.352
37845.146
38569.394
37956.784
36971.021
37468.064
31625.357
32953.013
30961.119
31532.065
30927.313
30665.542
30853.735
25303.467
26764.152
24687.618
25330.98
25038.044
24553.019
24872.798
18472.867
20081.504
17931.394
18783.348
18107.837
17847.914
18337.061
12192.479
12385.857
10448.368
11093.409
10926.326
11155.934
11828.939
6429.1604
4782.0637
2870.9957
3316.2618
3665.8294
3568.8561
5402.7789
250082.84
276788.9
255374.75
288917.55
264928.82
251349.53
232263.3
183023.83
269417.46
253640.18
273347.53
239191.86
255336.68
202861.13
165809.67
162010.48
161922.78
168246.65
160009.96
148587.64
143406.47
138586.77
173695.21
167963.86
185240.53
158617.77
177948.93
141987.04
152861.61
144209.85
143155.25
132639.83
132771.3
129721.13
129599.65
133344.4
157791.19
132792.08
141583.56
137897.01
137838.52
136213.58
141549.21
145809.07
119727.17
131249.64
128493.86
122073.45
129448.1
133458.63
148600.51
120268.72
130823.85
121853.49
118298.92
129557.23
136130.65
148126.09
116358.83
123846.58
120027.46
120742.91
125969.58
137243.87
142065.53
111231.61
117969.34
119540.43
113820.1
122036.63
133238.61
139330.95
108181.59
121345.95
115928.64
116485.24
119659.29
127045.29
133612.81
105581.56
114554.02
111718.09
108733.03
115130.05
122946.55
135923.18
101939.29
114210.06
108584.75
109075.04
110449.95
120672.45
126010.31
101741.66
110550.17
110986.35
98719.978
115455.98
117938.11
121708.62
96757.196
109433.83
105097.82
99003.539
110971.4
113188.07
114602.02
99229.929
103196.26
103461.61
95769.174
109962.01
106855.6
112793.9
94929.451
101650.93
99679.615
94190.347
104573.13
105591.45
107341.34
93128.393
98362.262
97334.44
91856.125
100980.27
99652.697
104616.04
90227.621
95914.756
93702.292
88782.107
97321.312
97325.426
101016.4
87801.413
92462.07
90379.342
86573.48
94947.296
92750.816
97628.905
84947.037
89497.29
87332.07
84667.839
90322.652
89188.983
93418.595
82269.825
86440.472
84886.011
81080.984
87673.275
85508.69
89781.61
79746.779
84558.038
80368.372
79259.159
84075.255
81732.79
85613.024
77507.019
79872.646
76935.219
76646.842
80344.631
78622.476
82103.079
74207.414
76885.125
73352.498
74602.024
76533.709
75458.791
76744.617
72380.436
72419.41
70495.907
71126.236
73059.04
72178.515
74781.237
68647.726
71261.371
66015.26
69654.767
69017.03
68658.987
72394.528
65458.948
67442.448
63959.67
65831.449
66968.375
65156.665
68071.014
61992.566
64101.811
60499.83
62565.691
63848.669
62013.97
64665.248
59406.34
61106.902
57927.522
59677.434
60952.991
58639.62
61130.977
55774.503
57920.44
54292.21
56484.907
57678.369
55294.341
57390.876
52662.105
54491.709
51363.869
53314.914
54314.683
51866.632
53609.93
49191.467
51161.973
48038.293
49793.172
51345.026
48459.498
49839.03
46042.888
47763.222
44851.257
46867.104
48225.591
44978.009
45964
42518.829
43933.297
41476
43006.168
44502.452
41415.776
42083.331
39009.322
40468.94
38163.351
39895.585
41402.41
38374.074
38178.79
35808.066
36642.414
35216.255
35747.102
38335.94
34384.814
34538.784
31945.803
33508.45
31302.835
32918.949
34879.917
31539.146
30730.478
28661.6
29491.499
28322.465
29335.404
31290.979
28162.891
27803.352
25217.17
26983.848
25156.283
26056.721
27671.376
24796.801
22774.269
21806.919
22281.402
21498.68
22403.8
24734.39
21690.383
21467.581
19920.759
20777.728
19692.37
20215.986
21473.556
18612.942
16155.836
15487.889
15591.033
15217.508
15959.228
18148.6
15876.302
15184.932
14904.975
15276.857
14769.717
15391.4
15790.236
11853.765
10151.307
9751.9166
9221.3985
9257.7298
9690.6094
10622.303
9750.8605
9243.5284
8287.7543
8707.6906
8847.8936
9214.7079
9974.6832
5760.023
2029.9848
2077.7282
1849.1289
1419.3043
1975.6613
3100.7888
-12265.185
-27286.526
-21428.234
-14238.762
-20012.349
-23830.346
6831.9171
-12284.508
-20696.272
-21886.278
-17607.316
-23175.989
-18099.271
-15950.713
10657.679
-44166.589
-39507.88
-53192.221
-37197.514
-53653.682
-11630.536
-13906.128
-33558.488
-17309.228
-28764.677
-30222.921
-13841.026
-28099.938
-3786.6584
-18463.459
-19264.965
-48731.555
-15482.762
-54137.315
-5807.5264
-4573.4279
-29532.812
-35964.062
-27340.782
-32916.55
-24504.047
-18875.632
-4661.8541
-22031.238
-7736.6602
-34995.225
-16751.278
-28568.121
-11813.25
-1538.8415
-18370.422
-24308.882
-26033.816
-22275.121
-21265.294
-15042.013
883.09452
-24375.584
-12140.238
-28551.898
-17102.048
-21575.225
-18701.252
-6811.9967
-16238.17
-14536.333
-26462.742
-19115.264
-19138.807
-14772.333
-3668.5739
-15781.759
-15407.85
-25583.295
-19380.282
-21864.166
-14319.401
-4594.4598
-13899.601
-16573.897
-19627.113
-20283.5
-12736.798
-13734.844
-2331.7423
-14964.49
-14675.977
-21677.801
-15757.733
-16575.173
-12800.291
-4197.8801
-13271.403
-7150.5193
-14697.85
-20491.066
-12053.28
-17608.784
-853.67739
-6760.8901
-17685.245
-13004.802
-21407.124
-11205.639
-13213.02
-5253.6105
-7209.3355
-16573.432
-9216.5687
-21534.214
-8830.9376
-13265.567
-1780.419
-6748.8822
-13896.561
-6861.554
-19658.417
-7809.6538
-10335.32
-3569.6664
-5901.7122
-12292.206
-5726.864
-18675.08
-6814.4042
-10864.952
-1860.6958
-3646.2268
-10541.006
-4794.9878
-16755.61
-5984.9023
-8379.101
-1503.328
-3045.7312
-10027.53
-4028.2293
-15694.234
-4240.5456
-9030.0519
-358.88538
-1799.1592
-8744.943
-3197.6267
-12878.685
-4126.0339
-7760.3763
875.32752
-242.09147
-7850.0845
-1641.4275
-12604.417
-3215.945
-7014.3722
1249.4265
459.58013
-5657.6465
-2767.7762
-10653.749
-2443.7944
-5963.9119
3287.1775
1167.7154
-4328.8102
-2295.4638
-8045.2495
-1624.1501
-5192.8214
3409.3045
1433.3587
-2672.1621
-2265.6623
-4968.6389
-2016.1991
-4022.1324
3631.6049
4111.4856
-1690.2717
-690.83487
-3020.8324
-1738.1176
-2515.027
5585.301
3734.7683
-367.20896
-755.98453
-1888.9629
-1143.5419
-2207.6419
5413.3057
3648.1885
470.57384
-503.15729
-1208.5415
-502.46948
-1969.1875
5962.5362
4189.0878
1745.8044
744.31281
729.08121
439.69051
-594.00608
5781.8009
4885.8808
2324.8783
1177.3741
936.04379
884.92306
-152.15446
5980.6875