/*--------------------------------*- C++ -*----------------------------------*\
  =========                 |
  \\      /  F ield         | OpenFOAM: The Open Source CFD Toolbox
   \\    /   O peration     | Website:  https://openfoam.org
    \\  /    A nd           | Version:  6
     \\/     M anipulation  |
\*---------------------------------------------------------------------------*/
FoamFile
{
    version     2.0;
    format      ascii;
    class       pointScalarField;
    location    "1.52";
    object      E;
}
// * * * * * * * * * * * * * * * * * * * * * * * * * * * * * * * * * * * * * //

dimensions      [1 -1 -2 0 0 0 0];

internalField   nonuniform List<scalar> 
28033
(
86073.724
75822.126
6877.4882
6239.1434
98264.784
89850.01
7259.0254
7584.8585
50208.118
34978.583
23410.35
16681.36
9487.7131
5891.9896
3683.2844
3160.5112
4788.3796
7685.843
12804.363
20699.064
30604.366
42388.096
64439.823
8740.2788
7873.2758
7884.8425
7456.8366
6950.077
7070.1795
5991.224
6520.5029
6276.2091
6004.0777
6558.5166
6287.9447
6655.7558
7132.8228
7846.7304
64264.439
38718.318
36890.338
36517.938
37508.57
37485.877
37576.528
37117.215
36748.357
35776.33
35082.307
34042.228
32855.496
31617.085
30192.958
28722.431
27173.911
25890.19
24389.704
23004.197
21762.47
20452.616
19216.198
18134.795
16707.27
15857.889
14373.775
13511.834
12143.237
11207.715
10291.156
9184.9373
8197.1399
7404.0699
6592.2295
6204.9551
5156.808
4773.6007
4026.002
3332.1382
2642.6519
2061.8088
1456.0568
1013.5352
637.39716
461.68521
223.0422
284.80535
157.70019
283.22916
204.44434
270.97464
192.85972
170.55031
97.570304
55.594945
14.582262
15.851335
32.630198
87.04714
139.90786
234.37582
261.55963
427.40155
481.43582
593.8581
759.13209
881.02486
1146.5359
1615.3412
1825.6917
2274.4275
2590.1828
3063.7583
3450.4897
3856.4265
4204.1193
4640.7031
4872.8029
5188.9249
5544.2741
5724.7382
6121.6334
6018.8051
6420.6747
6369.8938
6764.4657
6643.535
7179.9156
6838.3941
7642.3957
7036.8829
8017.9939
7560.3149
7782.024
64524.695
37144.637
44980.25
38837.068
41339.481
40696.487
40240.669
39912.937
39694.835
38364.706
38127.35
36533.166
35990.26
34370.891
33273.981
31729.125
30334.574
28706.47
27186.204
25859.337
23988.054
23044.065
21289.887
20985.62
19217.567
18940.326
17184.438
16585.431
14916.615
14128.136
12352.333
11501.545
10203.257
9289.2199
8287.5065
7597.0335
6853.4935
6143.6329
5483.693
5163.9516
4566.7718
4211.0371
3768.8888
3476.9131
3109.8434
2946.0315
2718.8328
2658.0717
2576.5107
2562.6935
2531.9214
2495.6665
2388.5929
2269.3213
2049.2677
1824.4046
1566.1135
1320.8399
1117.6208
989.95332
932.1064
978.18246
1105.5229
1309.8355
1573.2712
1864.4016
2231.2004
2624.4747
3113.7996
3330.0215
3838.8122
4100.2882
4758.2217
5002.221
5561.3553
5889.1012
6214.1504
6588.6
6735.3209
6976.47
7107.333
7152.1222
7310.3183
7320.6617
7467.0111
7532.0509
7709.3421
7810.0326
8006.9112
8129.141
8270.7432
8319.1698
8337.0366
8210.7258
7948.4307
62170.021
41693.304
27943.136
22370.985
11873.387
7352.1239
5066.3068
4355.3167
6050.5305
10531.875
14978.977
23112.198
33230.693
47692.424
63564.95
114295.15
57120.291
29000.215
47171.104
40480.044
42022.667
42166.314
41984.615
41905.514
41613.518
40787.942
38669.936
39308.54
35705.537
36570.521
32717.026
34201.179
28606.535
30942.465
26147.155
26740.688
25629.193
23471.027
23223.352
20170.949
20280.364
18779.433
16806.538
16733.503
13096.874
12279.14
11219.03
10071.447
9644.7512
8723.0892
10111.434
7407.8674
8088.254
7326.1102
6793.3293
6182.9829
5540.0308
4918.9423
4387.5967
3995.1796
3713.7061
3562.6315
3478.8094
3412.3108
3303.9199
3105.9986
2800.6654
2398.5619
1912.9616
1449.1757
1021.8148
727.12111
600.42284
633.48353
856.62557
1167.4483
1585.1145
1977.1504
2358.7651
2662.473
2900.3941
3134.8951
2823.8514
3810.0144
3560.6691
3862.8428
3998.3726
4355.7494
4688.4003
4977.2355
5228.9624
5427.2094
5583.3177
5641.3018
5746.9276
5786.8666
5934.1165
6041.4241
6287.8954
6461.0065
6755.2364
6923.5602
7153.2681
7218.2885
7304.5249
7245.137
7189.4407
7142.6741
6911.4558
7415.6547
8065.7807
8404.2616
6990.8814
7022.5875
6786.0713
6401.8386
6288.2938
5933.5525
7525.11
5599.0931
7173.8205
5712.425
8761.2936
6374.1648
8961.2851
8627.6475
7212.251
8314.2369
7676.6905
7753.2105
7482.2496
7318.6182
7147.0112
6895.6435
6760.2486
6541.9035
6408.6725
6317.7814
6083.49
5981.3542
5789.1768
5603.0899
5365.6743
5087.5601
4769.0234
4421.4297
4040.6678
3677.0629
3230.7207
3062.2388
2551.7147
2515.3713
746.78313
1890.2176
1188.7714
1049.1162
722.61762
462.64577
248.08612
80.356759
-13.774211
-37.258237
11.051616
117.1055
264.85032
425.84425
588.09849
722.3637
832.04653
908.53829
969.09142
1032.0722
1102.5958
1235.7351
1405.0224
1624.7099
1964.2976
2276.7767
2708.1185
3076.7992
3631.8994
3823.6757
5031.2766
4447.6533
5531.038
7144.6216
6311.9698
8074.2401
8893.8701
10392.768
11138.762
12075.335
13009.219
14062.388
15700.776
17047.001
17874.127
17894.868
20846.926
21014.668
22267.251
24242.934
25340.541
27494.975
28495.861
30386.37
31619.624
33669.254
33891.035
37294.615
36199.786
37487.17
38252.812
39388.815
37269.204
37749.066
39818.077
39736.728
28474.592
75723.075
50379.545
50934.414
48399.06
48964.182
49635.286
50947.837
50200.231
51164.069
51043.491
50875.635
48866.311
47508.895
48661.713
50224.056
54313.53
55523.281
56618.899
54357.193
57577.421
57329.31
56422.007
59947.212
63227.159
61629.983
61684.622
58838.387
56949.803
55942.437
55234.682
61479.999
7093.1898
7054.5177
7072.9574
6977.1179
6932.0086
6890.8891
6858.0337
6840.1057
6884.1023
6899.5535
7007.1714
6977.3146
7114.5382
6796.9429
7657.7192
7776.6875
7373.8319
7657.0002
7359.4354
7546.2055
7470
7474.529
7457.8456
7496.7495
7485.7529
7599.1914
7508.0525
7612.9808
7452.1174
7963.806
47738.841
31942.34
29606.362
28880.101
28639.191
28953.974
29104.482
29213.927
28765.451
28821.49
27681.025
27340.332
25945.402
25599.688
24008.436
23648.508
22475.216
21776.725
20686.844
19937.613
18822.408
17704.318
16684.843
15223.816
14200.185
12869.8
11842.542
10797.323
10103.509
9459.8613
8868.1884
8605.0457
8402.6081
8180.9299
8063.2283
7506.0986
7256.338
6726.9501
6422.2589
5896.0936
5622.4873
5167.3954
4898.3187
4596.2831
4143.1867
3772.8156
3245.2628
2743.7007
2133.8952
1605.2441
1067.3253
687.96489
429.16776
371.03375
492.21177
780.43424
1198.2824
1681.9556
2182.182
2639.7021
3009.8258
3302.7024
3439.894
3565.9575
3484.4961
3480.5825
3639.3958
3491.3202
3652.3512
3298.2694
3407.5224
3352.594
3409.4872
3453.632
3509.8851
3628.5884
3819.0535
3996.0539
4365.9741
4632.9442
5146.9752
5492.4618
5977.5876
6295.2756
6558.7769
6935.731
7086.9879
7201.8876
7383.8642
7207.5553
7615.1306
7236.012
7975.4388
7595.6773
8394.5406
30582.824
21628.191
22524.674
20458.646
20996.006
20387.605
20589.049
20430.154
20378.279
20120.551
19731.818
19414.653
18811.103
18265.952
17581.536
17238.994
16214.934
15893.355
15081.227
14566.507
13703.006
13114.258
12176.892
11500.189
10617.479
9903.5785
9087.5867
8439.0308
7809.1912
7295.3471
6854.0485
6558.3481
6079.0769
5735.3269
5441.8913
5091.1048
4905.7498
4645.3125
4256.1966
3913.0659
3595.0776
3310.4434
3077.4155
2734.8759
2476.2616
2286.3071
2012.0885
1794.0116
1556.2596
1329.8534
1113.2321
956.13714
835.36686
797.24107
829.24869
942.07562
1108.2652
1327.2892
1562.9981
1791.9549
2002.0659
2180.063
2311.9941
2414.1737
2526.4945
2676.1852
2538.8979
3223.8049
3174.3176
3349.4383
3647.9265
3737.1043
3871.2546
4056.167
4254.3508
4474.1681
4742.1111
5003.2236
5378.5708
5572.2077
6101.2762
6151.5424
6731.3742
6530.2934
7424.1697
7501.0146
7897.1052
7699.3588
8242.8926
7808.031
8459.6632
7895.3612
8750.3111
7457.6419
9296.5332
19721.402
12930.386
15188.684
13593.233
14135.213
13353.704
13541.345
13522.535
13459.959
13413.566
13169.483
13117.178
12580.08
12484.113
11977.852
11694.245
11304.369
11048.963
10539.133
10255.275
9792.8128
9350.3634
8866.0447
8303.0995
7741.7645
7158.571
6660.6308
6128.1878
5775.4041
5370.8088
5134.3236
4799.1149
4713.1335
4511.1863
4377.5381
4144.3263
3824.6323
3387.3838
3270.9769
2979.2014
2805.7661
2606.5824
2303.7336
2232.3526
2122.9324
1955.6953
1782.6131
1618.0798
1413.9825
1198.983
1037.3783
875.22358
811.31351
795.66685
891.14305
1036.6878
1265.4292
1515.5921
1783.3843
2027.4073
2246.5856
2425.6365
2534.8966
2654.8255
2717.4984
2714.3378
2995.9952
2880.692
3157.8039
3110.7229
3321.8767
3373.0557
3692.5471
3904.7502
4153.8114
4394.565
4658.0584
4974.5957
5243.5905
5552.215
5908.9414
6155.374
6383.0212
6995.6645
7070.5585
6918.1684
6969.6069
7141.7801
7271.4291
7073.6264
7576.9077
6993.4273
7838.7151
6839.1434
9660.4639
12236.008
7702.1991
8380.3358
8333.4801
8329.2408
8173.1955
8258.7941
8296.1077
8105.8084
8268.3908
8110.0426
8128.3938
7810.4149
7949.6997
7393.5592
7618.4151
7037.6166
7150.6286
6672.5044
6723.8702
6176.4316
6135.8852
5569.3123
5412.7452
4898.1135
4673.0902
4201.9997
3989.6978
3605.1483
3449.0716
3167.0319
3085.2963
2921.574
2739.7303
2699.2029
2439.6707
2433.6412
2641.4327
2452.055
2284.4627
2084.1944
1965.8901
1833.2758
1704.9518
1538.8204
1424.2437
1338.804
1262.9632
1185.1565
1139.7625
1094.7411
1062.0972
1060.8274
1070.6895
1119.0268
1191.5474
1298.7365
1422.416
1572.7139
1723.2107
1882.3312
2028.9863
2146.9318
2306.9858
2381.4157
2540.1764
2601.3084
2777.7818
3038.6928
2951.9133
3428.5413
3616.5293
3568.2465
3613.5857
3927.3619
4142.0653
4432.6235
4653.2676
4979.6536
5205.5278
5558.4378
5694.1419
6241.9834
6129.6031
6638.0831
6621.4009
7425.2812
7159.2697
7821.8075
7357.3234
8238.8199
7311.2162
8840.1912
6805.3591
10562.76
7738.6235
3240.7116
4579.2715
3669.0023
4426.6678
3984.7362
4472.5288
4187.6589
4493.455
4476.7167
4512.6012
4493.7585
4487.3377
4437.4203
4345.4715
4399.3124
4207.763
4343.5185
4107.3305
4192.1745
3943.3561
4002.9412
3663.7771
3662.6193
3271.4279
3150.7909
2874.4223
2674.8077
2518.2781
2368.8179
2304.7754
2222.1963
2159.7126
2140.1459
2066.4227
1917.324
2054.3458
1398.2898
1328.6108
1174.8714
1229.2102
1043.4378
993.64997
959.06363
936.4467
897.75718
869.15756
792.62456
745.05006
678.45113
638.27913
595.32982
617.18509
630.73442
719.14348
809.08459
944.43948
1080.0336
1231.8011
1373.0167
1507.6896
1626.7594
1741.7999
1888.9006
1907.9638
2136.8978
2285.9637
2252.4044
2552.5836
2698.6103
3116.2585
3138.7881
3717.383
4540.926
4690.6724
5017.231
5234.376
5567.2228
5835.1752
6119.3947
6422.4686
6713.2566
6899.2114
7260.0333
7360.7557
7596.3701
7488.1746
7555.762
7597.4174
7462.6322
7760.4646
7402.4846
8359.7102
6684.8313
11008.932
4357.3337
1277.7782
1736.768
1363.8653
1551.0506
1699.706
1695.1542
1928.0406
1937.3198
2144.9735
2095.118
2346.5343
2161.7738
2449.9656
2205.3634
2465.2035
2229.7326
2503.1369
2244.5912
2533.2898
2252.7537
2458.623
2143.7853
2277.6573
1918.7043
2066.3386
1680.049
1789.1106
1514.7684
1555.2353
1395.271
1367.418
1327.7436
1276.8441
1210.7307
1242.034
1118.5726
1486.7413
1300.2545
1273.0114
1094.5929
1104.0027
972.09902
997.74214
932.81174
906.68305
841.54179
831.33478
791.75339
785.8978
778.18374
803.51699
836.82591
905.92912
986.89254
1093.7473
1207.4715
1326.3472
1457.9421
1566.4955
1666.5552
1811.3035
1875.3125
1947.805
2173.5708
2172.0595
2360.7129
2508.7116
2754.5903
2892.8789
3071.1565
3343.1047
3553.6133
3228.8164
3417.0053
3661.2229
3966.5034
4235.8205
4531.7481
4782.3948
5131.0962
5230.7247
5728.1106
5640.2849
6199.6637
6062.7909
6727.1622
6519.1001
7316.326
6858.8781
7975.5211
7056.8468
8644.9614
6823.1392
11338.364
2894.7433
-152.83809
634.47587
-273.674
423.82759
186.36982
685.97724
558.04234
956.03014
887.0647
1122.3978
1046.7174
1177.2633
1148.3448
1143.1948
1245.3992
1190.863
1336.6398
1259.129
1476.5899
1306.2206
1560.7582
1283.4045
1474.9991
1231.0094
1261.0837
1056.1903
1077.4964
893.68194
947.52734
836.61659
912.56631
884.05009
862.6927
892.56673
820.38074
741.12145
622.47273
519.44387
512.98842
389.52983
390.00055
344.55375
361.8949
381.06214
396.64107
489.316
495.12799
559.97113
553.44978
602.08319
587.41942
645.717
666.64182
758.01411
834.28976
972.00782
1095.4497
1255.5399
1377.8687
1564.445
1657.8485
1785.4237
1980.3256
2017.3578
2239.7993
2367.3941
2584.3971
2788.961
2971.4693
3422.0154
3470.5214
3935.7386
4270.4391
4761.9696
5079.2268
5414.7047
5674.6252
6016.6177
6278.4621
6569.7935
6894.1346
7088.6583
7392.6802
7558.4955
7719.5577
7801.6061
7841.8522
7915.7456
7683.791
7979.1454
7366.2363
8705.3217
6733.1758
11707.7
2517.1429
225.28615
608.63336
337.48553
555.74282
717.96317
838.99259
962.88618
1104.7265
1206.5367
1235.8565
1403.9965
1354.1062
1481.3124
1438.5698
1550.5699
1477.2039
1628.2312
1547.9495
1680.3755
1515.8812
1639.985
1459.8303
1704.5933
1339.5787
1592.8789
1274.3995
1415.206
1173.3564
1257.732
1076.1054
1126.8644
973.10815
1007.6281
946.18735
846.4254
883.51562
786.05883
743.07747
700.91408
581.38693
570.3094
521.41077
519.70301
457.94981
509.38532
472.42084
510.40437
501.34051
536.32648
528.3628
561.17935
574.86457
606.9332
652.73477
708.84472
788.65918
867.82019
965.91424
1081.7073
1174.3157
1276.6041
1426.3367
1476.663
1639.8458
1737.1723
1906.2524
2053.7763
2232.9535
2490.8425
2616.8201
2917.7232
3211.6504
3261.0636
3356.0781
3572.2836
3839.0644
4087.6384
4376.1686
4560.735
4904.9329
4970.3
5367.8031
5333.8325
5776.797
5683.333
6216.1175
6067.1759
6698.0692
6511.1689
7460.0424
7074.874
8502.7372
6956.1685
11449.69
3291.1945
916.37496
1786.6632
1235.8227
1763.5497
1672.2242
2106.3329
1936.73
2285.1765
2093.4276
2275.8091
2067.5234
2072.0766
1887.649
1807.8098
1688.0256
1625.1438
1575.3861
1546.2122
1617.4263
1626.2102
1857.8048
1727.9446
1700.6038
1524.0686
1551.3089
1255.3431
1287.604
1035.7762
1066.7281
910.31887
932.85498
851.14016
891.0123
704.45234
804.53662
557.98633
565.12741
356.17614
249.9596
142.55664
43.223979
29.349695
-34.175709
56.351616
57.385299
164.29727
192.13805
287.13601
300.02631
365.15984
367.53241
413.79772
434.1928
503.52954
566.16947
680.52201
776.88022
939.30129
1044.7793
1188.6575
1333.4839
1420.3128
1573.7817
1682.1409
1859.7749
1989.117
2192.8347
2448.6283
2659.3265
3007.9878
3304.1377
3651.0302
4002.6143
4696.8734
4924.7914
5299.2194
5593.6893
5879.6321
6197.3586
6411.5128
6755.0843
6917.4238
7236.7532
7379.6377
7599.0429
7712.8292
7816.7867
7914.0799
7876.6474
8040.4527
7626.1791
8574.2008
7010.1539
11347.866
6126.8548
3831.68
4925.8069
4563.6152
5204.8236
5181.1237
5419.4363
5235.5077
5366.0074
5346.9434
5235.8172
5222.8568
5115.1701
4976.8507
4884.5249
4679.1676
4586.6246
4380.9585
4304.4449
4098.1576
3986.4867
3746.8466
3455.5813
3436.0829
3217.913
3161.8305
2873.8708
2888.2328
2555.1249
2568.8706
2265.3593
2248.2364
2047.9413
1911.8656
1881.561
1677.0671
1606.2351
1482.6366
1327.6986
1295.1031
1147.0109
1122.5237
993.96906
1016.0319
908.68476
944.08564
893.48953
922.6377
892.65401
914.3852
891.69752
896.19219
893.4186
905.3821
923.60628
967.7528
1016.5259
1093.7366
1182.7281
1262.844
1396.0353
1480.9341
1605.8009
1722.9397
1862.0889
1960.843
2140.2869
2325.8211
2496.1964
2709.9588
2932.9754
3154.4861
3370.3696
3609.5707
3907.2204
3880.1065
4320.4019
4432.578
4839.7327
4972.1459
5370.0306
5460.559
5847.8321
5870.9501
6250.596
6183.6716
6617.791
6449.2227
6983.6446
6772.7178
7406.3978
7294.003
8214.8799
7564.1064
11255.835
6945.4475
6104.1593
6980.6278
6989.1824
7678.0802
7613.4772
7724.9805
7567.4654
7657.8845
7418.9173
7189.6133
6966.2116
6662.939
6279.8387
6084.1824
5585.9164
5608.6311
5033.667
5160.917
4642.3
4849.5759
4376.0207
4466.2242
4275.806
3986.7612
3648.3829
3356.8466
2991.2669
2646.0059
2385.1861
2070.7503
1957.7516
1618.3092
1662.4571
1295.2223
1286.4623
1047.6307
920.07382
756.80841
545.85589
436.04614
225.73397
196.33969
67.169732
88.778957
45.011958
93.03143
60.083313
94.006047
46.057141
23.462939
-48.628658
-93.077131
-164.79821
-184.0777
-193.50531
-148.82219
-71.710725
44.587886
191.50076
355.75793
530.42302
701.1271
914.31959
1062.0101
1311.1131
1516.4562
1737.1147
1980.2096
2276.6003
2574.2214
2882.1194
3204.5913
3652.4426
4032.5188
4559.9736
4716.114
5098.3326
5302.415
5628.0979
5873.5127
6177.0167
6423.1901
6726.8926
6943.551
7253.5588
7415.5852
7702.6195
7846.108
8023.5382
8278.6497
8169.411
8736.053
8045.4868
10364.701
15628.196
10760.965
12654.107
12818.15
13470.022
13223.159
13477.288
13188.022
13172.037
12904.685
12619.9
12264.933
11962.033
11383.083
11044.308
10541.795
10123.811
9650.1153
9317.9104
8870.3646
8451.9311
8220.7279
8179.4825
7788.9228
7432.0111
7066.5785
6663.769
6358.6408
5986.4152
5717.5402
5434.9802
5122.9023
4944.2499
4667.8173
4483.6732
4298.3734
3986.5697
3814.8816
3439.6575
3271.9025
2891.6052
2746.6227
2421.2291
2314.5637
2091.6614
2025.2556
1911.228
1879.2828
1832.6589
1820.7805
1800.2298
1803.5046
1807.5479
1831.2142
1874.4158
1940.647
2026.5328
2130.9995
2250.963
2366.3006
2483.148
2584.7888
2672.9687
2741.2824
2797.6497
2862.0586
2914.3124
3009.6261
3147.477
3296.3226
3453.3022
3627.0203
3935.3996
3978.519
4288.045
4455.2324
4642.679
4925.7108
5172.6647
5410.5498
5673.0312
5848.7613
6058.2534
6179.5705
6331.7586
6365.0877
6475.937
6445.5155
6533.0597
6548.42
6715.2617
6851.3234
7640.9931
7508.8146
10326.602
24217.319
20207.944
21126.392
20528.982
20391.437
19929.272
19983.972
19291.365
19257.52
18615.673
18134.563
17585.538
16722.825
16080.84
15261.554
14406.113
13769.025
12857.997
12411.308
11480.068
11136.417
10273.708
9870.1143
9022.3764
8712.9692
7685.5892
7255.1232
6351.4888
5755.4291
5140.6309
4521.6268
4155.9226
3620.0812
3407.1975
2972.6385
2719.7853
2448.1876
2142.6563
1938.5567
1584.447
1421.7011
1122.0331
977.35267
783.96779
671.12411
534.49663
448.55549
297.90607
179.12588
-10.745548
-191.69338
-412.27692
-607.56741
-797.97508
-925.72335
-999.76079
-998.30924
-917.48705
-775.61093
-572.25815
-342.58898
-71.228144
165.53382
465.08778
674.2175
986.23402
1167.9032
1464.9031
1686.6873
1949.5374
2163.4161
2549.8811
2621.4838
3066.8814
3186.8851
3559.3405
3713.3906
3974.895
4152.3538
4455.762
4683.6448
5014.5759
5313.8979
5698.7833
6010.7799
6431.4961
6736.2779
7148.5204
7457.8472
7802.331
8143.3414
8351.7378
8687.9226
8487.2888
9500.2057
35499.099
28660.724
28832.615
27082.546
28057.996
27473.913
27642.732
27393.766
27321.099
26786.456
26318.004
25468.328
24798.008
23729.905
22798.735
21664.929
20760.218
19549.973
18976.855
17757.23
17277.633
16187.623
15486.311
14557.274
13781.064
12882.745
12210.5
11216.759
10563.104
9644.9145
9085.0001
8352.6593
7877.9353
7453.6062
6891.8509
6590.0751
6128.3691
5800.2529
5267.4678
4955.0518
4428.6273
4102.4048
3666.4795
3396.2997
3095.5523
2918.9155
2746.014
2632.125
2520.4362
2415.5026
2293.2121
2159.1311
2019.7327
1878.2699
1765.1679
1686.2192
1659.9025
1686.5368
1771.957
1894.8611
2049.172
2217.5677
2382.1064
2539.9076
2676.334
2839.6823
2962.6328
3170.3432
3274.8162
3442.3223
3729.0132
3837.4188
4199.2159
4352.4948
4634.7949
4812.2413
5069.3713
5247.7953
5459.0942
5649.583
5828.4958
6022.9635
6221.3459
6383.764
6590.6505
6710.5751
6886.1585
6945.5294
7045.7469
7074.6052
7088.145
7147.313
7271.2788
7618.3268
8666.5851
43757.884
35840.905
34647.226
33146.542
34525.703
33702.991
34214.562
33870.438
33339.514
32689.469
31345.301
30466.276
29135.184
27825.535
26842.203
25349.238
24678.397
23084.772
22560.555
20758.386
20358.895
18094.584
17644.728
15416.709
14755.095
13248.478
12560.093
11734.044
11278.27
10995.785
10593.097
10413.22
10058.225
9727.7817
9129.5898
8742.3149
8175.6519
7516.2589
6988.1652
6307.1866
5815.1036
5261.5322
4800.8089
4309.4651
3832.6425
3300.6275
2773.7957
2204.8548
1690.4292
1223.6301
877.31394
682.69434
666.46675
814.73841
1131.6032
1552.5564
2023.9935
2505.2949
2916.3669
3238.9568
3440.9268
3541.1142
3515.77
3451.1548
3312.4485
3193.707
2952.1899
2894.2419
2652.6124
2832.6939
2565.6698
2740.4797
2571.7391
2779.5128
2803.2107
3112.5392
3352.9963
3770.8454
4239.878
4771.3418
5273.4846
5857.7253
6247.8055
6730.1032
6952.0526
7254.1191
7322.2374
7484.4449
7532.2786
7648.0021
7813.9181
8101.2755
8290.8857
8866.892
8858.3817
25502.567
25956.068
20064.805
19384.22
18312.47
18483.74
17849.055
18162.069
18152.427
18936.014
18382.52
18525.043
21123.847
22682.12
28539.845
19173.837
16361.8
13160.75
13456.232
11919.291
12000.477
11328.988
11619.325
12010.043
11761.926
12043.738
12829.616
13740.245
16365.237
20094.861
12398.954
9668.7343
5922.589
5710.4857
4660.0187
4388.8105
4351.4643
4027.6179
4131.8559
4328.8233
4718.4118
5033.9041
6123.9097
8869.1829
12473.043
8323.8947
6534.9417
4777.388
3832.1483
3625.6874
3261.4634
3211.5569
3035.0173
3306.4518
3326.0309
3705.6712
3979.7867
5269.376
7018.2215
8646.0112
4986.5857
3573.8137
1941.3939
1616.5989
1096.4242
1018.2044
865.29609
867.07101
830.29515
960.52527
1146.2721
1552.5241
2316.5686
3336.4123
5674.7526
3959.0918
2401.6554
1449.9333
1204.32
914.51066
851.02618
726.75015
758.14765
771.43939
830.7708
1011.1825
1163.7141
1602.8805
2509.2131
4130.9839
2007.6096
1086.1126
553.55808
259.19163
129.12098
-12.589819
-43.958776
-93.996822
-73.530515
-10.013397
84.384412
341.9498
633.71119
1404.4126
2648.3798
1988.6927
1097.5554
583.17284
406.8687
239.81628
189.12462
129.78358
145.0661
163.45259
199.8542
303.22395
457.07136
702.10223
1324.4527
2491.1653
2112.4503
1232.5975
585.75856
382.09633
187.65881
105.4862
64.753835
88.042222
82.836225
232.98455
291.32046
525.03594
863.5129
1698.1629
2631.5088
4124.0476
2870.4947
1796.2293
1472.8059
1156.671
1074.1918
1004.218
990.505
1016.657
1022.009
1330.5017
1369.4861
2078.4337
3264.1503
4723.6852
5594.7506
4181.2977
2614.8226
2272.6738
1758.304
1743.7458
1572.0911
1682.6876
1655.602
1832.2266
2079.9801
2542.3462
3447.5926
5076.3782
6809.9236
10248.069
6958.5467
5373.7168
4503.5474
4052.4729
3684.5882
3654.2333
3562.7402
3678.5851
3787.6621
4242.0841
4332.5221
5901.7103
7970.9086
10953.65
14700.977
11795.59
9152.7549
8241.5401
7462.0005
7400.1494
7042.7276
7365.2607
7412.2813
7271.5046
7911.6829
8180.8383
9739.4642
12813.5
15692.424
24660.256
19186.976
16642.614
15321.422
14577.864
14209.388
14694.823
14856.916
14738.032
14499.95
14733.199
15258.888
16747.117
19490.079
25864.421
33042.628
33377.055
26732.479
26036.002
24821.477
23511.35
25210.079
26415.447
24545.354
25792.802
25007.165
25726.221
27515.296
30992.292
37716.103
79527.594
70251.687
69949.332
71816.579
73496.01
72705.98
76057.915
78919.834
80261.426
79968.677
77754.462
74183.337
73929.575
75190.656
73619.422
59233.285
49589.242
50032.83
48658.535
45730.477
49031
47719.091
47834.811
51193.637
47565.552
48913.237
47166.256
51135.481
55262.013
61643.644
43025.628
45077.965
42476.747
41160.44
43776.74
38309.574
38048.641
38362.034
35131.052
40347.774
39584.777
45302.156
44636.729
43614.999
46062.222
41947.887
46420.222
45625.318
42583.491
42000.626
42086.147
41163.181
41828.796
42087.318
41357.042
43420.656
44020.569
45585.439
46816.621
43807.395
44267.396
45215.224
43719.763
46565.429
44289.283
44174.422
44747.181
44001.193
44771.668
47151.922
45459.892
47041.219
45344.072
45299.131
44854.419
40802.126
43761.207
43791.325
44062.385
43961.174
43825.756
43188.924
43134.209
43618.533
42685.855
44419.461
44022.979
44266.182
44370.074
41802.556
41623.811
43491.277
43823.578
43775.147
43981.342
44309.162
44595.508
44506.812
44860.013
45272.159
44512.503
45084.487
44244.809
43099.271
43255.231
41256.406
41689.756
42682.78
43511.843
43865.663
43564.494
43627.679
43972.404
43479.453
44195.367
43995.506
43815.85
43356.381
41950.191
41976.496
40156.602
41731.212
42066.108
42737.869
42180.083
42972.136
42809.602
43102.418
43328.143
43000.483
42985.018
42461.237
42294.517
41773.684
41043.893
40395.034
39927.259
40911.568
41015.688
41617.752
41459.343
41782.447
41749.884
41102.529
42353.087
41321.006
42206.253
41257.991
40890.081
41387.399
38967.947
39731.15
39935.328
40589.325
40368.707
40971.197
40809.934
41013.378
41537.716
40769.043
41705.761
40899.346
41003.62
40731.032
40752.505
39042.591
38014.934
38656.692
38704.574
39044.792
39045.821
39164.6
39080.75
38756.757
39235.925
38655.851
38957.442
38589.502
38350.067
39551.099
37385.93
37294.401
37019.788
37755.756
37500.811
37799.042
37911.101
37852.806
38436.307
38295.686
38609.582
38516.857
38534.563
38703.117
38850.778
36219.378
35486.343
36191.916
35576.639
36001.272
36264.97
36221.258
35888.966
35660.466
35708.495
35353.848
35639.478
35411.178
35167.72
36976.963
34750.556
33787.289
33988.601
34627.722
34732.579
34376.914
34362.587
34537.89
34963.971
35069.296
35627.499
35574.918
35718.795
36093.796
36462.899
32818.658
32445.606
32904.556
32630.184
32174.328
32884.78
32930.355
32536.558
32300.352
32266.445
31711.679
32035.585
32029.867
31878.613
33466.905
31169.547
30165.896
30462.008
30540.609
31222.839
30931.898
30916.603
30726.542
31395.084
31294.173
32033.371
32037.489
32054.25
31968.3
33735.348
29288.804
29155.056
29158.914
29244.152
28765.734
29294.843
28945.01
29445.463
29099.208
29232.15
28735.77
28691.109
28650.193
28863.317
29388.461
28071.152
27310.833
27981.832
27591.255
27980.513
27478.89
28276.688
27494.999
27947.684
27875.533
27896.635
28386.929
28746.153
28748.267
30532.025
26130.061
25869.281
25750.404
26115.982
25951.809
26373.55
26230.095
26336.242
26364.552
26373.477
26795.177
26611.675
26341.292
26258.382
27013.857
25515.621
24823.227
25437.962
24912.753
25119.798
24725.968
25310.025
25004.712
25246.479
24809.579
25073.133
25135.908
26237.469
25756.663
27251.223
23833.853
23798.909
23552.083
23999.123
23566.252
24291.003
23602.233
24070.45
23440.295
24779.763
24228.895
24615.273
23878.061
23494.771
26179.407
23803.114
22311.074
23115.512
22433.412
22874.403
22651.305
22843.778
22435.715
23011.359
22519.445
22289.283
22456.879
22826.264
22919.357
25082.751
21955.971
21985.165
21508.834
21850.971
21368.629
21238.023
21188.187
21258.646
21372.546
21373.232
21669.535
22122.189
22503.93
21823.58
25087.093
22171.014
20339.037
20341.918
19965.39
20496.84
20003.669
20692.217
20185.856
20417.08
20222.358
20636.363
20672.11
20327.845
20300.923
23290.944
19997.282
19098.575
19293.233
19182.516
18944.698
19288.843
18758.859
18835.314
18868.326
18868.415
18953.936
19361.24
20165.139
20159.107
22050.027
19319.864
17957.231
18201.757
17628.231
18244.006
17513.934
17815.381
17686.49
17749.116
17793.835
17938.067
17036.223
17868.953
16986.588
20884.317
17351.844
16242.527
16026.328
16609.052
15714.681
15837.543
15956.164
15784.624
16161.884
15992.539
16417.285
16898.049
16682.668
17043.77
18720.898
16176.933
15103.716
14788.045
14458.68
14650.922
14661.949
14637.795
14579.508
14598.573
14656.864
14680.668
15106.121
14853.471
14241.464
17735.704
14041.453
12999.936
13349.792
13262.651
13217.992
13184.982
13091.123
13090.605
12948.564
12971.822
13001.416
12954.652
14069.63
13258.828
15036.087
13162.957
12394.466
12665.247
12111.123
12359.113
11457.806
12088.884
11703.659
12695.529
12018.561
12143.189
12021.932
11929.825
11701.065
13257.74
11807.771
10839.956
10909.851
10761.313
10841.024
10841.511
10906.369
10875.22
10737.546
10711.047
10802.102
10891.86
10962.276
10912.202
12028.282
10374.19
9636.9565
10001.909
9831.5009
10035.369
9795.0705
10096.287
9723.1667
10093.799
9842.4168
10205.559
9932.9681
10130.646
9984.6243
10499.196
9340.2086
8872.8183
9162.5613
9036.3905
9175.8264
9071.7572
9182.0731
9163.4752
9235.4426
9251.2106
9223.3511
9309.8652
9319.0295
9198.7485
9535.3254
8504.7377
8157.1085
8530.1547
8703.8218
8514.1216
8471.5568
8670.2791
8560.1493
8732.2071
8699.7619
8883.551
8820.2487
8905.1171
8964.7623
9150.8392
7876.0657
7735.8794
8000.0887
7505.8873
7960.9593
7853.5228
8032.0612
7895.8429
8262.7728
7680.4674
8300.3325
8063.2939
8331.9902
8094.4671
8600.0757
7053.9774
7045.1099
7549.4316
7381.0614
7657.8954
7311.5752
7687.0478
7399.1021
7638.0905
7988.6141
7740.0876
7868.2578
7707.48
7909.4152
7937.8728
6966.5703
7186.0655
7248.433
7309.0476
7151.8798
7244.9652
7205.8422
7214.1499
7332.5244
7074.7487
7396.0628
7165.9792
7565.9077
7392.6044
7374.0897
6926.9598
6456.0656
6839.715
6539.8115
6922.4501
6521.2201
6888.1406
6589.7606
6786.1082
6753.6584
6777.9987
6958.0976
6900.8063
6849.7772
7179.7024
6236.6077
6154.5277
6252.7483
6324.3852
6221.7631
6183.7738
6246.2786
6084.0178
6331.5381
6055.6857
6391.8828
6172.7407
6322.143
6356.946
6575.0412
5959.7335
5633.5533
5897.4508
5619.8752
5853.7439
5539.828
5759.2872
5579.0209
5671.7964
5636.007
5684.3905
5672.5716
5770.5364
5699.7062
6059.5249
5355.5179
5210.6139
5186.7296
5208.5954
5212.8438
5033.6564
5214.6214
4930.248
5181.9132
4950.7121
5099.7608
5088.9654
5072.6956
5093.0913
5578.6549
4993.3816
4645.6018
4808.3981
4622.4596
4740.2693
4510.799
4653.8869
4475.4118
4602.6695
4447.7276
4584.8482
4513.9772
4523.1952
4536.4569
5135.1081
4468.6525
4286.6482
4253.6118
4191.8134
4256.7332
4025.6874
4216.1097
3969.6359
4118.1355
3987.9569
4033.4886
4053.0925
4022.4753
4013.7828
4866.8645
4264.7447
3894.8803
3964.088
3844.1162
3911.5369
3693.8835
3865.0652
3627.1767
3797.0813
3611.887
3711.4837
3710.7606
3680.8122
3647.7295
4790.5434
4037.6982
3692.2088
3693.954
3585.5214
3629.7418
3424.301
3575.2627
3375.4524
3472.6433
3377.1623
3411.6238
3453.8811
3459.8726
3350.33
4919.1824
4083.2513
3566.9331
3588.8621
3450.5473
3520.1637
3278.8778
3468.9402
3206.6237
3365.5218
3229.5695
3270.0596
3338.9726
3367.2238
3181.2492
5196.8581
4176.244
3532.8698
3532.8681
3405.4692
3388.7917
3173.5324
3296.1649
3101.3143
3203.1382
3112.6684
3146.3315
3241.9395
3333.8765
3055.1258
5575.5919
4368.6805
3532.441
3549.1847
3336.0596
3371.1286
3111.3059
3296.2752
3047.0494
3170.6128
3071.5144
3101.0061
3201.4698
3335.7597
2958.3574
5910.987
4533.1229
3532.1823
3492.9416
3322.6832
3274.9722
3024.0999
3128.0763
2905.037
3002.9634
2927.0602
2959
3068.9499
3271.6265
2805.7116
6132.3409
4622.5608
3422.0678
3433.1324
3165.2332
3141.0129
2861.5557
3023.8604
2787.7366
2894.4624
2804.7529
2829.2059
2925.0619
3142.0416
2609.1498
6118.6901
4529.7102
3258.9272
3204.9678
2967.1065
2915.9945
2657.3293
2750.7263
2508.5978
2590.0059
2504.8896
2539.3721
2618.4004
2864.194
2303.215
5842.425
4288.612
2913.0193
2916.4225
2641.1024
2602.0329
2309.2003
2444.3424
2221.8971
2318.6064
2226.6555
2249.9309
2296.0554
2518.247
1953.0128
5286.738
3814.3811
2510.6815
2509.6721
2251.7027
2205.1322
1963.4979
2077.0926
1842.0774