/*--------------------------------*- C++ -*----------------------------------*\
  =========                 |
  \\      /  F ield         | OpenFOAM: The Open Source CFD Toolbox
   \\    /   O peration     | Website:  https://openfoam.org
    \\  /    A nd           | Version:  6
     \\/     M anipulation  |
\*---------------------------------------------------------------------------*/
FoamFile
{
    version     2.0;
    format      ascii;
    class       pointVectorField;
    location    "0.1";
    object      u;
}
// * * * * * * * * * * * * * * * * * * * * * * * * * * * * * * * * * * * * * //

dimensions      [0 1 0 0 0 0 0];

internalField   nonuniform List<vector> 
3969
(
(0 0 0)
(0 0 0)
(0.1559029 0.034203889 0.00063773587)
(0.15300428 -0.041625914 0.00022292675)
(0 0 0)
(0 0 0)
(0.15319002 -0.041884095 0.00020540393)
(0.1561289 0.033691068 0.00046012086)
(0 0 0)
(0 0 0)
(0 0 0)
(0 0 0)
(0 0 0)
(0 0 0)
(0 0 0)
(0.15534945 0.023881171 0.00013564481)
(0.1546434 0.014491586 0.00021511592)
(0.15405291 0.0053640889 0.00020932622)
(0.15365534 -0.0036278078 0.00040120458)
(0.15338212 -0.01264691 0.00048067472)
(0.15318007 -0.021827302 0.00060784947)
(0.15319765 -0.031299204 0.00050186107)
(-0.00078559566 -0.0010164099 -0.00087888489)
(-0.0014928184 -0.0016332899 -0.00092898309)
(-0.002429347 -0.0021519422 -0.00081441568)
(-0.003523148 -0.0025846959 -0.00063449005)
(-0.0046912994 -0.0029074612 -0.00043075606)
(-0.005914032 -0.0031440671 -0.00023317631)
(-0.007160695 -0.0032741494 -4.3616148e-05)
(-0.0084196257 -0.0033180552 0.0001386916)
(-0.0096688411 -0.0032540955 0.00031493812)
(-0.010897382 -0.0031009144 0.00049289964)
(-0.012088597 -0.0028415122 0.00067615284)
(-0.01321605 -0.0024775766 0.00086026298)
(-0.014251258 -0.0020018862 0.0010463335)
(-0.015168186 -0.001416873 0.0012381715)
(-0.015925394 -0.00071490035 0.0014223443)
(-0.016495357 9.3591005e-05 0.0016032165)
(-0.01684708 0.0010110459 0.0017814728)
(-0.016942848 0.0020343957 0.0019459359)
(-0.016753423 0.0031563546 0.0020988811)
(-0.016250902 0.0043704765 0.0022369214)
(-0.015406864 0.0056682903 0.0023588659)
(-0.014199616 0.0070422959 0.0024628137)
(-0.012608447 0.008478868 0.0025503364)
(-0.010615013 0.0099647381 0.002620492)
(-0.0082119184 0.011493679 0.0026733798)
(-0.0053839846 0.01305373 0.0027144657)
(-0.0021292021 0.014629939 0.0027419456)
(0.0015648769 0.016214353 0.0027574407)
(0.0056941869 0.017791777 0.0027641515)
(0.010257713 0.0193565 0.0027618955)
(0.01525774 0.020896137 0.0027510925)
(0.020690524 0.022405402 0.0027296967)
(0.026553313 0.02386586 0.0026994966)
(0.032837353 0.025282688 0.0026550019)
(0.039542206 0.026628898 0.0025979195)
(0.046650895 0.027899529 0.002530191)
(0.054149286 0.02910576 0.002436492)
(0.062025561 0.030162665 0.0023401182)
(0.070238509 0.031215252 0.0022002419)
(0.07880863 0.031997072 0.0021061508)
(0.087633728 0.032853381 0.0019182521)
(0.096767494 0.033410172 0.0018008483)
(0.10612145 0.033880161 0.0016524998)
(0.11565161 0.034348558 0.0014397854)
(0.12541146 0.034367145 0.0013704831)
(0.13523975 0.034606076 0.0011581543)
(0.14509794 0.034576167 0.0011449911)
(-0.00055588454 0.0010547371 0.0012637137)
(-0.0014387759 0.0016815123 0.0012237055)
(-0.0024490971 0.0022500415 0.0011414288)
(-0.0035519175 0.0027091057 0.00097765383)
(-0.0047659637 0.0030782433 0.00078187102)
(-0.0059987811 0.0033461305 0.00059295966)
(-0.0072721936 0.0035180135 0.00040032418)
(-0.0085463314 0.0035858811 0.00021390008)
(-0.0098119175 0.0035654235 1.8011655e-05)
(-0.011046578 0.0034393748 -0.00017535812)
(-0.012238499 0.0032243587 -0.0003879176)
(-0.013354852 0.0029014985 -0.00060698268)
(-0.014386298 0.0024729982 -0.00083575623)
(-0.015290134 0.0019429788 -0.0010639857)
(-0.016045678 0.0013026601 -0.0012936575)
(-0.016616354 0.00055391846 -0.0015174717)
(-0.016971294 -0.00030073963 -0.001733664)
(-0.017078008 -0.00125858 -0.0019393415)
(-0.016908239 -0.0023154148 -0.0021318637)
(-0.016431223 -0.0034615743 -0.0023112473)
(-0.015624689 -0.0047013931 -0.0024722096)
(-0.014457222 -0.0060040978 -0.0026201965)
(-0.012913571 -0.0073975665 -0.0027353632)
(-0.010979017 -0.0088353254 -0.002843555)
(-0.0086444846 -0.010334206 -0.0029289629)
(-0.0058933651 -0.011868107 -0.0030018012)
(-0.0027446267 -0.013434961 -0.003042721)
(0.00085288969 -0.015040839 -0.0030705996)
(0.0048761647 -0.016656669 -0.0030891937)
(0.0093225221 -0.018288503 -0.0030875524)
(0.014196534 -0.019926807 -0.0030720361)
(0.019494613 -0.021571779 -0.0030380026)
(0.025215972 -0.023209685 -0.0029867837)
(0.031356362 -0.024841459 -0.002915195)
(0.037912675 -0.026450255 -0.0028212843)
(0.044872229 -0.028037917 -0.0027052844)
(0.052226569 -0.029583521 -0.0025686836)
(0.059957439 -0.031082008 -0.0023959937)
(0.068052688 -0.032536091 -0.0022126306)
(0.076476866 -0.033905354 -0.0020059456)
(0.085207866 -0.035211979 -0.0017813392)
(0.094224792 -0.036430252 -0.0015409854)
(0.10347461 -0.037535493 -0.0012976632)
(0.11296487 -0.03856558 -0.0010264874)
(0.12260649 -0.03946597 -0.00076171589)
(0.13246202 -0.040242473 -0.00050682457)
(0.14241967 -0.041014666 -0.00019796665)
(0 0 0)
(0 0 0)
(0 0 0)
(0 0 0)
(0 0 0)
(0 0 0)
(0 0 0)
(-0.00084624523 0.00072587739 -0.0010052337)
(-0.0015330518 0.0019035832 -0.0011005185)
(-0.0024459674 0.0021770784 -0.00087483819)
(-0.0036170327 0.0028047914 -0.00076731382)
(-0.0047808491 0.0030776075 -0.00053696313)
(-0.0060220094 0.0034119015 -0.00034449039)
(-0.0072872072 0.0035488586 -0.00016369128)
(-0.008541666 0.0036571455 2.1941971e-05)
(-0.0098190749 0.0036203453 0.00019430339)
(-0.011018376 0.0035158929 0.00036163933)
(-0.012205588 0.0032873983 0.00053485664)
(-0.013343481 0.0029672869 0.00072895626)
(-0.014347429 0.0025436086 0.00090117937)
(-0.015245464 0.0020162693 0.0010856812)
(-0.015989865 0.0013808846 0.0012669215)
(-0.01655393 0.00063591728 0.0014496668)
(-0.016907534 -0.00021584287 0.001627732)
(-0.017014983 -0.0011714925 0.0017977893)
(-0.016845609 -0.0022265816 0.0019552664)
(-0.016368742 -0.0033751294 0.0020969767)
(-0.015557133 -0.0046099339 0.0022208387)
(-0.014387495 -0.0059244403 0.0023246276)
(-0.012838081 -0.0073060958 0.0024082141)
(-0.010898409 -0.0087509704 0.0024748029)
(-0.0085459115 -0.010252519 0.0025149346)
(-0.0057421827 -0.01179842 0.0025246524)
(-0.0025532862 -0.01339152 0.0025371714)
(0.0010449237 -0.015016932 0.0025561797)
(0.0050727784 -0.016660214 0.0025602183)
(0.0095260798 -0.018318616 0.0025545082)
(0.014405649 -0.019987975 0.0025375407)
(0.019710101 -0.021660318 0.0025118055)
(0.025435823 -0.023331242 0.0024747917)
(0.031581782 -0.024989297 0.0024244731)
(0.038138397 -0.026632534 0.0023608057)
(0.045114985 -0.028252128 0.0022806049)
(0.052448011 -0.029786721 0.0021793361)
(0.060196288 -0.031358207 0.0020713593)
(0.068279905 -0.03280499 0.0019414804)
(0.07670757 -0.034204366 0.0017976206)
(0.085437343 -0.035521575 0.0016389948)
(0.094453909 -0.036748855 0.0014766312)
(0.10370412 -0.037875271 0.0013028894)
(0.11319245 -0.038899576 0.0011232043)
(0.12283985 -0.039805176 0.0009426451)
(0.13268416 -0.040584707 0.00076505147)
(0.14259929 -0.041393461 0.00055031118)
(0.15349906 -0.031600274 1.4470098e-05)
(0.15342965 -0.022201846 1.9423388e-06)
(0.15361248 -0.012994506 0.00016633113)
(0.15392602 -0.0040896697 0.00031109282)
(0.15424151 0.0049301439 0.00060410338)
(0.15481089 0.01399788 0.00068988204)
(0.15563592 0.023360269 0.00079778277)
(0.14551306 0.034089501 -0.00010271315)
(0.13542283 0.034002092 -0.00031356188)
(0.12557946 0.033969575 -0.00061937096)
(0.11586119 0.033782237 -0.0008469136)
(0.10628502 0.033472564 -0.001126002)
(0.096926596 0.033009502 -0.0013777866)
(0.087800488 0.032423959 -0.0016157968)
(0.078938457 0.031700741 -0.0018434035)
(0.070375862 0.030859821 -0.0020547889)
(0.062140175 0.029910192 -0.0022455198)
(0.054236125 0.028844216 -0.0024153987)
(0.046783401 0.027657151 -0.0025462004)
(0.03962664 0.026443288 -0.0026831894)
(0.032924352 0.025113052 -0.0027826826)
(0.026630579 0.023734855 -0.0028665775)
(0.02076372 0.022300603 -0.0029279925)
(0.015324778 0.020825087 -0.0029719773)
(0.010322585 0.019313478 -0.0029992137)
(0.0057540582 0.017781563 -0.0030106419)
(0.0016239932 0.016229032 -0.0030042789)
(-0.0020705705 0.014676907 -0.0029833652)
(-0.0053314267 0.013124488 -0.0029438823)
(-0.0081556995 0.011586882 -0.0028819349)
(-0.010563344 0.010075605 -0.0028046772)
(-0.012554661 0.0086003426 -0.002705909)
(-0.014143955 0.0071725676 -0.0025857979)
(-0.015350713 0.0058064794 -0.0024475451)
(-0.016191734 0.0045108086 -0.0022894855)
(-0.016694254 0.0032987314 -0.0021176615)
(-0.016881724 0.0021779179 -0.0019306038)
(-0.016785101 0.0011584202 -0.0017314894)
(-0.016437751 0.00023937225 -0.0015278354)
(-0.015875859 -0.00055753723 -0.0013186945)
(-0.015118548 -0.0012643891 -0.0010924626)
(-0.014201077 -0.0018558536 -0.00088254646)
(-0.013172272 -0.0023264867 -0.00066589465)
(-0.012052083 -0.0027179438 -0.00046502504)
(-0.010864578 -0.0030022574 -0.00026836441)
(-0.0096428758 -0.0031774664 -8.6714804e-05)
(-0.0083994926 -0.0032512999 9.6966558e-05)
(-0.0071339278 -0.0032554738 0.00027981876)
(-0.0058826335 -0.0031249883 0.00044972093)
(-0.0046712531 -0.0029205578 0.00063239169)
(-0.0034991573 -0.0026105706 0.0008065298)
(-0.0024302278 -0.0021626483 0.00092216609)
(-0.0014973121 -0.0016322739 0.00099329099)
(-0.0010442064 -0.0010693993 0.00078001841)
(0 0 0)
(0 0 0)
(0 0 0)
(0 0 0)
(0 0 0)
(0 0 0)
(0 0 0)
(0 0 0)
(0 0 0)
(0 0 0)
(0 0 0)
(0 0 0)
(0 0 0)
(0 0 0)
(0.15311074 -0.041902453 0.00015162193)
(0.15321175 -0.042040991 0.00014964131)
(0.153259 -0.042099051 0.00017382808)
(0.15330184 -0.042172918 0.000219258)
(0.15332988 -0.042209135 0.00026373724)
(0.15331665 -0.042185151 0.00030841308)
(0.15332027 -0.042202576 0.00023669047)
(0.15614704 0.034470347 0.00063834079)
(0.15621699 0.034415665 0.00066141179)
(0.15626309 0.034389853 0.00058352907)
(0.1563083 0.034344288 0.00053554141)
(0.15632815 0.034280743 0.00047530082)
(0.15632046 0.034159445 0.00043289119)
(0.15636406 0.034125878 0.00044933587)
(-0.00047426448 -0.00054699629 -0.00075252541)
(-0.0012548587 -0.00091448718 -0.00066324606)
(-0.0022273 -0.0012906641 -0.00059279798)
(-0.0033518653 -0.0015989724 -0.00045672069)
(-0.0045650464 -0.0018456238 -0.000295087)
(-0.0058311026 -0.0020242604 -0.00014226468)
(-0.0071250808 -0.002122915 1.1775153e-05)
(-0.0084253351 -0.0021465464 0.00015223157)
(-0.0097213914 -0.0020871974 0.00029064651)
(-0.010993427 -0.0019563811 0.0004247311)
(-0.012224942 -0.001739593 0.00055558791)
(-0.013391628 -0.001451344 0.00069094457)
(-0.014469287 -0.0010818191 0.00082669524)
(-0.015428106 -0.00063606956 0.00096408573)
(-0.016229006 -0.00010961691 0.0010988431)
(-0.016841521 0.00049885518 0.0012311951)
(-0.017235564 0.0011852358 0.0013580494)
(-0.017372674 0.0019485881 0.001477987)
(-0.017222495 0.0027823301 0.0015891839)
(-0.016756599 0.0036836808 0.0016884206)
(-0.015947874 0.0046461542 0.0017754141)
(-0.014774215 0.0056604013 0.001849632)
(-0.013213894 0.0067217729 0.0019108491)
(-0.011253117 0.0078174494 0.0019600037)
(-0.0088717642 0.0089483929 0.0019972076)
(-0.0060647634 0.010088604 0.0020220099)
(-0.0028260803 0.011247809 0.0020394034)
(0.00084694888 0.012408737 0.0020498507)
(0.00496289 0.013561928 0.0020517456)
(0.0095117858 0.01470218 0.0020493483)
(0.014500551 0.015819783 0.0020394158)
(0.019924286 0.016906439 0.0020236121)
(0.025778571 0.01795497 0.0020005093)
(0.032058714 0.018959166 0.0019673508)
(0.038764186 0.01990068 0.001928016)
(0.045861609 0.020789479 0.0018737574)
(0.053377104 0.021601705 0.0018076186)
(0.061246801 0.022333513 0.0017392673)
(0.069497625 0.022991714 0.0016525057)
(0.078066197 0.023528851 0.0015708819)
(0.086918929 0.024040376 0.0014459156)
(0.09609258 0.024311293 0.0013931322)
(0.10545858 0.024661829 0.0012107694)
(0.11505272 0.024753347 0.0011526015)
(0.12485396 0.024734943 0.0010172796)
(0.13467102 0.024769305 0.00085086416)
(0.14477783 0.024272502 0.0006687074)
(-0.00032917755 -0.00030778518 -0.00044907573)
(-0.0010818034 -0.0004570838 -0.00039677005)
(-0.0020952896 -0.00071150836 -0.00035264904)
(-0.0032423946 -0.00091250466 -0.00025509236)
(-0.0044825168 -0.0010791297 -0.00014939797)
(-0.0057786182 -0.0012041644 -4.2202421e-05)
(-0.0071032876 -0.0012741358 5.7296439e-05)
(-0.0084400579 -0.0012920496 0.00015234376)
(-0.0097664003 -0.0012538813 0.00024105046)
(-0.011067891 -0.001162391 0.00032682376)
(-0.012326384 -0.001015208 0.0004107981)
(-0.013522502 -0.00081767322 0.00049472982)
(-0.014626207 -0.00056297959 0.00057706179)
(-0.015605348 -0.00025261336 0.00066028328)
(-0.016431637 0.0001096585 0.00074181532)
(-0.017072377 0.00052370276 0.00082250128)
(-0.01749184 0.00098991187 0.00090047746)
(-0.017656293 0.001505069 0.0009742491)
(-0.017533388 0.0020661731 0.0010423558)
(-0.0170932 0.0026718864 0.0011018401)
(-0.016307106 0.0033148392 0.001153847)
(-0.015154158 0.0039945103 0.0011958528)
(-0.013614793 0.0047019899 0.0012302084)
(-0.011668224 0.0054361084 0.001256805)
(-0.0093046373 0.0061842713 0.0012717288)
(-0.0065192318 0.0069504959 0.0012899899)
(-0.0032987795 0.007713223 0.0013002725)
(0.00036098323 0.0084792661 0.0013000437)
(0.0044566956 0.0092372476 0.0013064176)
(0.0089924522 0.0099784921 0.0013040635)
(0.013967891 0.010700292 0.0013003721)
(0.019379495 0.011396116 0.0012944876)
(0.0252222 0.012057406 0.0012827873)
(0.031498798 0.012682648 0.0012686321)
(0.038187425 0.013260549 0.001248855)
(0.045297125 0.013792644 0.001224033)
(0.052803114 0.014268781 0.0011911327)
(0.060671861 0.014661831 0.0011656643)
(0.06893034 0.015047201 0.001100348)
(0.077476697 0.015275417 0.0010780678)
(0.086392603 0.015540038 0.0010013438)
(0.095531045 0.015611634 0.00096834935)
(0.10495679 0.015734305 0.00087705819)
(0.11454792 0.015629433 0.00086114089)
(0.1243713 0.015515886 0.00074726134)
(0.13430063 0.015250801 0.00064241405)
(0.14452704 0.014824694 0.00047071091)
(-0.00023765714 -0.00012580139 -0.00021980819)
(-0.00098541944 -0.00018020042 -0.0001745176)
(-0.0019927212 -0.00029245759 -0.00013172474)
(-0.0031483145 -0.00038562966 -7.4170111e-05)
(-0.0044148114 -0.00046156898 -1.3364879e-06)
(-0.0057374486 -0.00051848736 6.033886e-05)
(-0.0070950573 -0.00054817664 0.00012305417)
(-0.0084547486 -0.00055001502 0.00017101053)
(-0.0098057054 -0.00052274859 0.00021776896)
(-0.011128781 -0.00046828583 0.00025675611)
(-0.012406332 -0.00038494773 0.00029263271)
(-0.013617048 -0.00027475516 0.00032654556)
(-0.014733879 -0.00013528525 0.00035639304)
(-0.015734786 2.9541012e-05 0.00038935698)
(-0.01657946 0.00022568256 0.00042454682)
(-0.017236957 0.00044858639 0.00045725351)
(-0.017674116 0.00069801634 0.0004879167)
(-0.017856525 0.00097263802 0.00051653303)
(-0.017751107 0.0012714275 0.00054220568)
(-0.017330158 0.0015920449 0.00056457175)
(-0.01656832 0.0019330794 0.00058453263)
(-0.015441807 0.002290819 0.00060008015)
(-0.013921104 0.0026641774 0.00061345938)
(-0.012000614 0.0030407456 0.00061874297)
(-0.0096663935 0.0034290703 0.00063050573)
(-0.0068997557 0.0038147257 0.00063173103)
(-0.0036936999 0.0042011123 0.00062787751)
(-4.8084265e-05 0.004582825 0.00062889429)
(0.0040332165 0.0049526322 0.00062749087)
(0.0085575127 0.0053074273 0.00062385448)
(0.013520612 0.0056458331 0.00062299076)
(0.01892101 0.0059595528 0.00061953371)
(0.024758224 0.0062474514 0.0006168171)
(0.031021572 0.006507511 0.00061194501)
(0.037711897 0.0067257827 0.0006094479)
(0.044813489 0.0069221546 0.00059617719)
(0.052310772 0.0070463763 0.00059810035)
(0.06020262 0.0071783275 0.00057323088)
(0.068456358 0.0072142751 0.00056660608)
(0.077035489 0.0072228696 0.00056907131)
(0.085934531 0.0072244049 0.00051933323)
(0.095094604 0.0070565554 0.00056874135)
(0.10453224 0.0069951506 0.00048704063)
(0.11417093 0.0066989041 0.00053579142)
(0.12408442 0.006458019 0.00043752925)
(0.13405331 0.0061300791 0.00041894696)
(0.14422511 0.0056869611 0.00035211277)
(-0.00023666811 1.3783406e-05 4.516411e-05)
(-0.00098811967 4.6049041e-05 0.00011871811)
(-0.0019809512 4.4756992e-05 0.00013620806)
(-0.0031476118 6.1935377e-05 0.00016066827)
(-0.0044202313 7.9994194e-05 0.00017063923)
(-0.0057507257 9.4429016e-05 0.00018033292)
(-0.0071073948 0.00011558604 0.00018001495)
(-0.0084721764 0.00013648566 0.00017745833)
(-0.0098253543 0.000157575 0.00016921938)
(-0.011151469 0.00018129134 0.0001581678)
(-0.012431994 0.00020569271 0.00014493602)
(-0.01364856 0.00022953806 0.00012780474)
(-0.014769437 0.00025738828 0.0001087947)
(-0.015771826 0.00028317947 9.0226081e-05)
(-0.016620637 0.00031468846 7.1203748e-05)
(-0.017283965 0.00034558074 5.247687e-05)
(-0.017726888 0.00037966544 3.3653912e-05)
(-0.017914885 0.0004129286 1.597584e-05)
(-0.017816524 0.00044674131 -1.4144415e-06)
(-0.01740195 0.00047889648 -1.8918676e-05)
(-0.016637582 0.00051165405 -3.9518489e-05)
(-0.015500392 0.00054209386 -5.7691148e-05)
(-0.01398735 0.00056026727 -7.9757197e-05)
(-0.012067414 0.00059049345 -9.7820663e-05)
(-0.0097229568 0.00061173124 -0.00012460096)
(-0.006956091 0.00063274003 -0.00014569821)
(-0.0037595461 0.00063947161 -0.00015497737)
(-0.00013020476 0.00063590768 -0.00016304761)
(0.0039394688 0.00061894491 -0.00016948295)
(0.0084486836 0.00058824593 -0.00016836566)
(0.013395352 0.0005400018 -0.00016577827)
(0.01878157 0.0004732878 -0.0001575408)
(0.024598496 0.00038769247 -0.00014768727)
(0.030849469 0.0002789114 -0.00013071142)
(0.037518152 0.00015369164 -0.0001164372)
(0.044604785 -9.3332545e-06 -8.6804994e-05)
(0.052088613 -0.00017675787 -6.6673958e-05)
(0.059953008 -0.00038642077 -3.4174605e-05)
(0.068174176 -0.00063635716 1.398179e-05)
(0.0767245 -0.00086769265 2.8189376e-05)
(0.085625995 -0.0011754289 8.5597917e-05)
(0.094764377 -0.0014877156 0.00013155758)
(0.10421817 -0.0017660354 0.00013906179)
(0.11385438 -0.0021898343 0.00024548432)
(0.12371284 -0.0024711716 0.00023512299)
(0.13367491 -0.0029037664 0.00035261936)
(0.14385525 -0.0032920904 0.00034913873)
(-0.00022025433 0.0001854667 0.00029014441)
(-0.00097883251 0.00027678723 0.00035033922)
(-0.0019844916 0.00039411237 0.00036371258)
(-0.0031512944 0.00051211179 0.00033872528)
(-0.0044255467 0.00061613775 0.00031102895)
(-0.0057561679 0.00069766633 0.00026853484)
(-0.0071152528 0.00075601323 0.00023142475)
(-0.008481162 0.00078558776 0.00018425362)
(-0.0098329327 0.00079105638 0.00013850688)
(-0.011158068 0.00077331115 8.2322478e-05)
(-0.012438555 0.00072894183 2.0791552e-05)
(-0.013649684 0.00066468137 -4.4119362e-05)
(-0.014768218 0.00057464986 -0.00011264374)
(-0.015767281 0.0004629565 -0.00018201721)
(-0.016614078 0.00032776902 -0.0002515142)
(-0.017274098 0.00017027734 -0.00031988731)
(-0.017714751 -9.3597769e-06 -0.00038674789)
(-0.017901596 -0.00021386393 -0.00044855347)
(-0.017803758 -0.0004391123 -0.00050876432)
(-0.017390523 -0.0006852129 -0.00056372916)
(-0.016633498 -0.00094590718 -0.00061770953)
(-0.015532506 -0.0012326749 -0.00065816905)
(-0.014029081 -0.00152371 -0.0006980033)
(-0.01212062 -0.0018474883 -0.00073854386)
(-0.0097979147 -0.0021805203 -0.00076271102)
(-0.0070519596 -0.002535718 -0.00078107015)
(-0.0038673181 -0.0029055809 -0.00079611446)
(-0.00024882704 -0.0032866919 -0.00081216377)
(0.0038079542 -0.0036827998 -0.00081719583)
(0.0083012698 -0.0040925392 -0.00081897069)
(0.013234812 -0.0045178949 -0.0008124709)
(0.018601947 -0.0049555511 -0.00080096566)
(0.024406658 -0.0054106687 -0.00077951461)
(0.030635928 -0.0058710166 -0.00075688414)
(0.037291658 -0.0063551767 -0.00071729476)
(0.0443613 -0.0068372774 -0.00068006232)
(0.05182457 -0.0073359488 -0.00063043591)
(0.05968713 -0.0078567124 -0.00056520613)
(0.067887017 -0.0083628234 -0.00052002462)
(0.07647769 -0.0088599618 -0.00044124272)
(0.085329362 -0.0094019088 -0.00035463373)
(0.094489611 -0.0098759802 -0.00028528577)
(0.10390768 -0.010410082 -0.00018315922)
(0.11352945 -0.010913487 -6.4418005e-05)
(0.12339557 -0.011349231 2.530425e-06)
(0.13342143 -0.011840734 0.00015743261)
(0.14356819 -0.012231665 0.00026856584)
(-0.0002425747 0.00032769189 0.00057002539)
(-0.0010687201 0.00054027302 0.00063883226)
(-0.0020878079 0.00079953632 0.00063125318)
(-0.0032618772 0.0010456513 0.00057429068)
(-0.004524258 0.0012496917 0.00048691152)
(-0.0058376586 0.0014104941 0.00039739114)
(-0.0071734524 0.0015183706 0.00030199009)
(-0.0085148 0.0015708927 0.0002047331)
(-0.0098423459 0.0015716508 0.00010390542)
(-0.011142356 0.0015202229 -5.0494499e-06)
(-0.012400641 0.0014159223 -0.00011475946)
(-0.013589783 0.0012578738 -0.00023339318)
(-0.014686529 0.001054717 -0.00035514938)
(-0.015663218 0.00080241003 -0.00047801664)
(-0.016488686 0.000499591 -0.00060052529)
(-0.017129323 0.00014662799 -0.00072116502)
(-0.017550446 -0.00025459861 -0.00083736459)
(-0.017720295 -0.00070428792 -0.00094786934)
(-0.017606761 -0.0011991877 -0.0010529788)
(-0.017178173 -0.0017356421 -0.001149603)
(-0.016416744 -0.0023208806 -0.001243947)
(-0.015271659 -0.0029042324 -0.0013109897)
(-0.013762679 -0.0035611294 -0.0014034495)
(-0.011844962 -0.0042613262 -0.0014538825)
(-0.009522548 -0.0049756146 -0.0015097917)
(-0.0067691388 -0.0057112115 -0.0015555466)
(-0.0035879762 -0.0064631313 -0.0015870693)
(1.8704283e-05 -0.0072363905 -0.0016078419)
(0.0040602673 -0.008025132 -0.0016207519)
(0.0085399797 -0.0088309827 -0.001621388)
(0.013452605 -0.0096501313 -0.0016114485)
(0.018800259 -0.010479651 -0.0015899104)
(0.024577064 -0.011314435 -0.0015590012)
(0.030783 -0.01215741 -0.0015129605)
(0.037408466 -0.012994101 -0.0014593787)
(0.044444905 -0.013835897 -0.0013882496)
(0.051885083 -0.014668754 -0.0013035376)
(0.059698264 -0.015490284 -0.0012093417)
(0.067888816 -0.016311366 -0.0010995932)
(0.076400084 -0.017112973 -0.00097561424)
(0.085218937 -0.01786026 -0.00085031825)
(0.094352987 -0.018573166 -0.00071834045)
(0.10369758 -0.019314867 -0.00054086128)
(0.11331612 -0.019904954 -0.00041040348)
(0.12309096 -0.020507321 -0.00021659994)
(0.13307335 -0.021023388 9.6130614e-06)
(0.14316922 -0.021385379 0.00025238487)
(-0.00032395279 0.00060336729 0.00081836903)
(-0.0011810326 0.00091358661 0.00089944374)
(-0.0022152733 0.001338825 0.00087232786)
(-0.0033744477 0.001676555 0.00075647153)
(-0.0046153835 0.0019632565 0.00062507079)
(-0.0059032971 0.002178285 0.00048401629)
(-0.007212503 0.0023110284 0.0003460832)
(-0.0085301794 0.0023724977 0.00020431116)
(-0.0098346748 0.0023560042 6.3012517e-05)
(-0.011113591 0.0022654416 -8.5336365e-05)
(-0.01235082 0.0021036764 -0.00024113983)
(-0.013513701 0.0018631492 -0.00040604655)
(-0.014586379 0.0015527063 -0.00057539331)
(-0.01554011 0.0011620204 -0.00074796503)
(-0.01634269 0.00069583626 -0.00092017607)
(-0.016959517 0.00015250882 -0.0010895513)
(-0.017359035 -0.00046723038 -0.0012528608)
(-0.017508618 -0.0011597446 -0.0014089403)
(-0.017375721 -0.0019240658 -0.0015543086)
(-0.016935807 -0.0027534879 -0.001690995)
(-0.016152429 -0.0036407918 -0.0018129065)
(-0.015025186 -0.0045893931 -0.0019238813)
(-0.013485438 -0.0055781546 -0.0020230809)
(-0.011573938 -0.006630369 -0.0021012357)
(-0.0092435844 -0.0077091781 -0.0021776804)
(-0.0065001324 -0.0088246141 -0.0022317398)
(-0.0033354689 -0.0099706181 -0.002265116)
(0.00026577883 -0.011128958 -0.002296821)
(0.0042997207 -0.01231129 -0.0023120788)
(0.0087654865 -0.013509836 -0.0023124562)
(0.013660944 -0.014720608 -0.0022996623)
(0.018986283 -0.015935425 -0.0022737235)
(0.024739622 -0.017154313 -0.0022314692)
(0.030916179 -0.018364566 -0.0021758224)
(0.037512899 -0.019570592 -0.0021006002)
(0.044518604 -0.020759025 -0.0020089971)
(0.051919649 -0.02192388 -0.0019023283)
(0.059714723 -0.023067926 -0.0017688618)
(0.067857645 -0.024174822 -0.0016317169)
(0.076341236 -0.025245912 -0.0014728004)
(0.085134741 -0.02625235 -0.0013034161)
(0.094220221 -0.027224566 -0.0011106306)
(0.10353291 -0.028128169 -0.00091137085)
(0.11309963 -0.028917484 -0.00072665271)
(0.12280506 -0.029702723 -0.00045899588)
(0.13273571 -0.030301556 -0.00025540177)
(0.14273991 -0.030776098 6.4417422e-05)
(0 0 0)
(0 0 0)
(0 0 0)
(0 0 0)
(0 0 0)
(0 0 0)
(0 0 0)
(0 0 0)
(0 0 0)
(0 0 0)
(0 0 0)
(0 0 0)
(0 0 0)
(0 0 0)
(0 0 0)
(0 0 0)
(0 0 0)
(0 0 0)
(0 0 0)
(0 0 0)
(0 0 0)
(0 0 0)
(0 0 0)
(0 0 0)
(0 0 0)
(0 0 0)
(0 0 0)
(0 0 0)
(0 0 0)
(0 0 0)
(0 0 0)
(0 0 0)
(0 0 0)
(0 0 0)
(0 0 0)
(0 0 0)
(0 0 0)
(0 0 0)
(0 0 0)
(0 0 0)
(0 0 0)
(0 0 0)
(0 0 0)
(0 0 0)
(0 0 0)
(0 0 0)
(0 0 0)
(0 0 0)
(0 0 0)
(-0.00091720828 0.00044231238 0.00063644732)
(-0.0010230963 0.00051567479 0.00040881214)
(-0.0011120424 0.00054257544 0.00021962627)
(-0.0011587619 0.00057205203 6.7982917e-05)
(-0.0011390048 0.0005310263 -9.8771209e-05)
(-0.0011084825 0.00054025137 -0.0002787261)
(-0.00097483993 0.00045464424 -0.00050423157)
(-0.0017635899 0.0016502695 0.00097479543)
(-0.0019557544 0.0017254749 0.0005598327)
(-0.0020217767 0.0016560421 0.00027126738)
(-0.0020254206 0.0016137917 7.722383e-05)
(-0.0020363907 0.0016603492 -0.00012897077)
(-0.001945309 0.0016632893 -0.00038781627)
(-0.0018413961 0.0016879971 -0.00072456532)
(-0.0026612348 0.0022841255 0.00084881359)
(-0.0028072205 0.002229322 0.00059650893)
(-0.0029159015 0.0022166506 0.00034389381)
(-0.0029401964 0.0022126133 9.7697985e-05)
(-0.0029243196 0.0021969011 -0.00015490656)
(-0.0028252239 0.0022408581 -0.00036986909)
(-0.0027238898 0.0022530955 -0.0006841092)
(-0.0037640473 0.0028272879 0.00076924868)
(-0.0039037904 0.0028332642 0.00056234065)
(-0.0039740987 0.0028103059 0.00032106652)
(-0.0040067153 0.0028060336 0.00011428528)
(-0.0039811772 0.0028137452 -9.9774756e-05)
(-0.0039290593 0.0028270819 -0.00032041884)
(-0.003794 0.0028293093 -0.00054295725)
(-0.00489535 0.0032244735 0.00061716875)
(-0.0049832738 0.003211865 0.00046842405)
(-0.005051575 0.0032102229 0.00029823331)
(-0.0050748579 0.0032017606 0.00012963712)
(-0.0050671249 0.0032051366 -5.406898e-05)
(-0.0050031444 0.0032232689 -0.00020970653)
(-0.004926246 0.0032175742 -0.00039806945)
(-0.0060996751 0.003499239 0.00048228954)
(-0.006164173 0.0035047548 0.00038135964)
(-0.006208248 0.003505768 0.00024993439)
(-0.0062256067 0.0035048921 0.00013333202)
(-0.0062133264 0.003508486 -3.3356804e-06)
(-0.0061910633 0.0034905702 -0.0001253276)
(-0.0061147427 0.0034959302 -0.00024666512)
(-0.0073289264 0.0036550422 0.00033459124)
(-0.0073586488 0.0036802838 0.00027415085)
(-0.0073858841 0.0036971446 0.00019703747)
(-0.0073969166 0.0036997373 0.00012390975)
(-0.0073870974 0.0036999793 3.7543063e-05)
(-0.0073636327 0.0037119057 -2.4914017e-05)
(-0.0073361661 0.0036879356 -0.00010574866)
(-0.0085567964 0.0037414446 0.00019188791)
(-0.0085574425 0.0037575845 0.00018180283)
(-0.0085705484 0.0037687277 0.00015753475)
(-0.0085698126 0.0037799233 0.0001298235)
(-0.0085759027 0.0037783474 9.4811549e-05)
(-0.0085687924 0.0037751035 5.1196076e-05)
(-0.0085603147 0.0037569665 3.3804898e-05)
(-0.0097816002 0.0037079785 4.4871016e-05)
(-0.0097577937 0.0037366753 7.2321812e-05)
(-0.009741182 0.00376751 8.8228035e-05)
(-0.0097427758 0.0037668572 0.00011398117)
(-0.0097432148 0.003784978 0.00012857585)
(-0.0097582328 0.0037632682 0.00015192803)
(-0.0097770904 0.0037607481 0.0001648861)
(-0.010973213 0.0035971378 -0.00010998269)
(-0.0109126 0.0036218054 -2.5014812e-05)
(-0.01089298 0.0036405284 3.1525564e-05)
(-0.010877267 0.0036559234 9.0385552e-05)
(-0.010881609 0.0036631876 0.00015347692)
(-0.010920154 0.0036521336 0.00021721287)
(-0.010959983 0.0036399294 0.00027900434)
(-0.012123607 0.0033799579 -0.00027408529)
(-0.012034652 0.0034040926 -0.00015961808)
(-0.011983821 0.0034412432 -4.5737054e-05)
(-0.01196043 0.0034417393 7.626368e-05)
(-0.011980319 0.0034582253 0.00018639738)
(-0.012026508 0.0034427361 0.00030424348)
(-0.012088812 0.0034338984 0.00041027651)
(-0.013199144 0.0030625795 -0.0004440297)
(-0.013072173 0.0030895597 -0.00027550317)
(-0.01300228 0.0031194791 -0.00010397617)
(-0.012978486 0.003127643 5.9936269e-05)
(-0.012990639 0.0031427046 0.00022228297)
(-0.013054531 0.0031258631 0.00038272628)
(-0.013165429 0.0031249522 0.00056764669)
(-0.014172972 0.0026426363 -0.00061933258)
(-0.01401905 0.002662588 -0.00039982338)
(-0.013930749 0.0026977218 -0.00018602868)
(-0.013891541 0.0027049642 3.6381422e-05)
(-0.013918312 0.0027228845 0.00025241772)
(-0.014007753 0.0027108993 0.00046463334)
(-0.014136741 0.0026933795 0.00069262518)
(-0.015028931 0.0021095546 -0.00079666842)
(-0.014846507 0.0021318463 -0.00052457449)
(-0.014731371 0.002166367 -0.0002588544)
(-0.014688521 0.0021761517 1.7826664e-05)
(-0.014718095 0.0021913916 0.00028460971)
(-0.014820175 0.0021775206 0.00054548702)
(-0.014981356 0.0021637866 0.00083326942)
(-0.015734163 0.0014658949 -0.00097382945)
(-0.015519243 0.0014883579 -0.00065048697)
(-0.015381926 0.0015236207 -0.0003337931)
(-0.015333556 0.0015334129 -4.4728801e-06)
(-0.015365462 0.0015494746 0.00031628693)
(-0.015490915 0.0015393846 0.00062756322)
(-0.015682917 0.001526166 0.000967705)
(-0.016255666 0.00071169467 -0.0011468721)
(-0.016010122 0.00073459504 -0.00077186257)
(-0.015852002 0.00076840836 -0.00040578348)
(-0.015796558 0.00078004389 -2.2485949e-05)
(-0.015834665 0.00079600317 0.00034787976)
(-0.015978943 0.00078979195 0.0007092973)
(-0.016200084 0.00077808864 0.0011042111)
(-0.016563107 -0.00015029599 -0.0013132018)
(-0.016289391 -0.00012850314 -0.00088978463)
(-0.016108839 -9.575872e-05 -0.00047370715)
(-0.01604951 -8.4048928e-05 -4.1162166e-05)
(-0.01609209 -6.6221591e-05 0.00037952959)
(-0.016255973 -7.0266276e-05 0.0007888243)
(-0.016506192 -7.9177168e-05 0.0012358779)
(-0.016626082 -0.0011174988 -0.0014715518)
(-0.016324104 -0.0010975473 -0.0010007813)
(-0.016124471 -0.0010671523 -0.00053932168)
(-0.016060492 -0.0010542114 -5.8016635e-05)
(-0.016107602 -0.00103664 0.00040908584)
(-0.016290672 -0.0010373527 0.00086378037)
(-0.016568785 -0.0010413534 0.0013618404)
(-0.016413303 -0.0021847436 -0.0016200509)
(-0.016086832 -0.0021685499 -0.0011050808)
(-0.015868359 -0.0021391557 -0.00060058425)
(-0.015800923 -0.0021268139 -7.5317384e-05)
(-0.015852069 -0.0021083448 0.00043527814)
(-0.016052935 -0.0021063832 0.00093186878)
(-0.016356584 -0.0021054103 0.0014779123)
(-0.015898578 -0.0033468606 -0.0017572912)