/*--------------------------------*- C++ -*----------------------------------*\
  =========                 |
  \\      /  F ield         | OpenFOAM: The Open Source CFD Toolbox
   \\    /   O peration     | Website:  https://openfoam.org
    \\  /    A nd           | Version:  6
     \\/     M anipulation  |
\*---------------------------------------------------------------------------*/
FoamFile
{
    version     2.0;
    format      ascii;
    class       pointScalarField;
    location    "1.40014894";
    object      p;
}
// * * * * * * * * * * * * * * * * * * * * * * * * * * * * * * * * * * * * * //

dimensions      [1 -1 -2 0 0 0 0];

internalField   nonuniform List<scalar> 
625
(
602413.25
-805632.31
9027.324
10947.663
1047282.9
-1750486.6
8180.9474
-1411.8945
466783.3
12202.079
21045.771
-14693.348
2820.8478
5625.5769
248628.98
257688.41
258373.47
241668.74
211881.95
206022.98
179908.52
163673.21
153736.24
135418.14
125174.75
109421.81
100225.97
91058.398
80965.196
75057.882
67536.453
60464.304
53627.381
47716.339
39126.543
31402.365
22876.345
-277499.69
-208806.52
-234189.3
-185459.95
-175607.65
-171231.68
-142568.89
-140213.85
-125534.21
-114282.08
-108571.25
-93977.249
-88448.325
-78922.72
-72793.717
-65020.58
-57990.81
-52772.019
-45273.789
-38928.394
-34841.826
-21474.305
-11153.741
553450.46
-119666
-204280.76
-318606.52
-364633.93
-255481.67
-225527.01
-262047.69
-183021.08
-206562.42
-172991.27
-148053.24
-135328.54
-120837.42
-107079.13
-97549.567
-85233.118
-75722.311
-69210.7
-60157.534
-53691.325
-47435.264
-38681.251
-30518.585
-20864.293
-9472.0856
9919.2896
411.71903
-4635.2147
24825.739
28880.04
43422.046
51573.542
63954.441
73483.353
83379.484
93960.403
100893.24
113623.68
125136.66
136631.68
143862.12
158984.53
169294.91
185561.9
200887.14
204450.41
251616.62
218546.86
295621.61
251762.12
279534.79
639530.75
607032.12
554059.39
-743025.97
-1043777.4
-1041036.6
15165.687
14087.997
15429.556
-4153.1204
2533.9445
-3988.7003
148485.57
177105.32
166743.22
146852.33
137688.93
127229.58
112643.64
104201.19
94180.827
82828.467
73112.854
68417.373
62478.129
55703.232
51288.21
46261.158
41370.156
37555.602
30487.149
25532.802
19398.037
12045.41
13085.605
-30663.617
-8778.658
-22840.586
708.93928
-13393.81
-3275.2277
-9766.1841
-7660.8416
-6151.758
-8105.3011
-6385.2227
-6723.9485
-7389.8934
-6274.9501
-5745.4829
-4821.8298
-3117.4172
-2198.757
832.95501
4262.9712
4305.974
6172.6939
4339.5262
-177558.72
-110171.1
-134015.21
-93761.343
-121729.42
-92633.973
-99961.523
-83311.736
-77149.106
-72378.776
-64822.075
-62097.909
-56187.949
-50605.288
-45988.365
-40336.475
-36898.771
-29933.452
-23934.171
-19762.819
-12497.727
-10859.744
-684.17711
354610.38
360453.22
401934.06
19713.249
-99.433166
-71938.403
-138609
-54936.291
-61858.74
-450147.81
-461259.63
-441811.98
-306492.52
-322806.2
-346276.81
-255520.47
-261195.18
-284111.65
-209147.24
-209008.66
-222540.96
-198065.5
-205029.38
-223380.26
-176054.06
-173278.64
-177458.48
-167162.47
-163535.15
-162891.18
-149682.49
-140876.22
-151310.62
-136696.92
-130793.6
-137145.5
-123573.53
-115774.65
-122267.72
-110613.63
-106120.48
-110536.94
-103465.26
-93780.033
-97332.023
-92444.411
-86154.743
-89458.866
-86787.432
-76536.752
-82301.418
-76440.15
-69108.732
-73171.123
-69903.954
-62186.232
-66177.964
-62133.517
-55449.778
-58596.06
-52777.884
-48901.746
-51473.467
-45248.369
-42723.519
-44586.272
-37959.642
-36327.575
-36985.219
-28362.861
-27745.506
-27501.109
-19768.583
-20487.697
-22071.898
-12949.869
-9699.3104
-9673.8045
-15248.007
-18377.641
-20733.576
6856.2345
1485.9201
1749.1144
9900.2455
11367.745
10148.596
312583.08
293451.43
317670.97
318940.53
252211.74
284636.23
292569.56
259121.83
276694.87
259194.19
226276.24
246689.89
243686.06
223059.27
226785.43
220770.13
194826.27
206538.98
202424.62
183996.2
191008.08
183472.28
164581.77
175333.04
168212.33
152041.14
161056.08
148900.32
139260.33
148384.01
135119.54
128382.48
135038.04
124580.17
117475.38
118352.22
112885.84
105038.7
111402.91
103240.04
95947.278
104757.38
93381.535
87553.44
94237.236
85458.145
78755.474
85409.154
74887.866
70319.544
77757.498
65307.454
63897.462
68463.825
58019.294
55283.658
59397.211
48188.236
46468.744
50083.42
38730.615
39193.603
40610.593
29391.85
31782.7
28792.691
26131.105
28328.379
28664.235
118305
163649.28
130944.27
147615.24
137486.94
126952.64
125634.07
111730.58
106459.78
96406.331
88956.385
85186.651
80344.137
69687.895
65355.976
58853.798
51545.046
45834.952
39318.841
33391.633
24086.889
19392.679
10126.618
-53183.216
2396.1004
5663.8173
14236.073
31296.393
21963.817
25216.461
28374.445
24908.475
27812.603
25176.655
27473.619
22399.996
23405.444
22698.338
19963.128
18963.605
17686.129
15568.556
13209.645
11689.73
9131.1737
8338.5597
-152447.27
-109050.79
-166695.18
-124691.81
-123373.06
-123817.12
-97004.333
-92016.735
-79672.328
-70303.781
-60809.183
-55076.25
-47298.436
-40896.161
-36601.222
-31784.78
-28636.659
-24436.299
-21530.491
-18956.248
-14487.499
-8325.5462
-9238.5873
229047.11
242489.42
202578.85
171023.29
210833.99
179580.43
141080.13
155633.98
158127.59
130543.62
155845.77
132097.29
129365.6
125540.19
127572.39
115399.67
123293.57
123098.64
98699.872
111252.5
109770.73
99954.926
104085.4
104315.87
80991.927
95871.572
94731.468
80448.981
86763.604
90104.999
73419.92
82029.063
81458.159
65868.079
71223.847
76166.427
59717.407
66947.968
71489.39
53499.888
62723.654
64873.906
49802.029
55973.734
58272.501
44317.258
50408.031
55025.499
38935.952
46861.675
48596.412
38594.898
40619.761
43240.788
30730.191
35252.488
36455.474
28581.084
30681.913
31199.483
20966.357
23309.264
23395.635
17712.646
15684.818
15965.008
-852.51788
6088.3139
6452.258
-16219.653
-57425.243
-27476.133
15947.986
14165.443
-4997.0382
18469.716
2960.1048
-7614.9797
9725.286
12232.484
-11612.374
22062.839
15657.91
5641.8114
6871.7527
18369.354
1627.2982
20307.817
20914.151
4103.5782
11112.277
17576.767
4258.5331
13498.014
17365.117
7673.493
11364.433
20054.394
6638.4269
11806.068
15496.621
6865.1116
10141.053
14684.529
9208.6459
8467.6942
14655.435
8512.3472
8953.684
14446.875
8594.8886
7499.1861
12813.042
7690.9789
7109.4249
12484.439
8540.3345
6399.4914
12796.627
6890.7399
6303.8654
10377.872
5624.3478
4936.7057
8815.5188
6704.7883
4220.5485
8561.696
6082.91
4901.2947
6675.086
5370.3244
6150.6406
8651.1643
5826.3269
8302.8878
8609.9225
7646.7396
-147886.65
-203080.16
-178705.3
-124900.89
-107398
-137152.29
-108887.4
-172892.42
-148915.73
-140459.02
-117373.99
-145833.89
-103714.61
-131203.09
-122935.66
-96545
-111521.31
-118932.68
-89497.77
-104772.37
-109145.71
-78192.648
-100767.29
-92415.392
-75967.83
-82300.301
-85204.964
-66877.461
-80013.456
-75750.284
-60232.406
-69396.88
-66707.027
-54870.244
-63512.571
-59071.664
-46969.149
-57843.084
-50852.109
-43714.978
-50698.514
-45907.497
-38497.104
-46458.944
-40553.422
-35194.941
-39990.719
-36269.117
-29405.248
-36646.795
-31706.453
-27110.81
-31433.979
-28036.196
-22991.736
-26737.14
-22671.906
-18906.584
-20742.532
-18840.209
-16665.263
-16798.075
-15942.393
-5706.996
-10202.355
-8094.857
-3332.8742
-6763.8609
-4805.9762
)
;

boundaryField
{
    free
    {
        type            calculated;
    }
    bottom
    {
        type            calculated;
    }
    traction
    {
        type            calculated;
    }
}


// ************************************************************************* //
