/*--------------------------------*- C++ -*----------------------------------*\
  =========                 |
  \\      /  F ield         | OpenFOAM: The Open Source CFD Toolbox
   \\    /   O peration     | Website:  https://openfoam.org
    \\  /    A nd           | Version:  6
     \\/     M anipulation  |
\*---------------------------------------------------------------------------*/
FoamFile
{
    version     2.0;
    format      ascii;
    class       pointVectorField;
    location    "1.95";
    object      lm;
}
// * * * * * * * * * * * * * * * * * * * * * * * * * * * * * * * * * * * * * //

dimensions      [1 -2 -1 0 0 0 0];

internalField   nonuniform List<vector> 
3969
(
(0 0 0)
(0 0 0)
(2656.7085 -35.377996 -128.47832)
(2647.3508 -120.0187 -175.02524)
(0 0 0)
(0 0 0)
(2698.984 -75.802025 -174.43725)
(2708.5179 9.814298 -129.15177)
(0 0 0)
(0 0 0)
(0 0 0)
(0 0 0)
(0 0 0)
(0 0 0)
(0 0 0)
(2655.7694 -44.240404 -133.58664)
(2655.6299 -54.416416 -138.86893)
(2654.998 -65.465607 -145.03446)
(2654.0061 -77.039574 -151.31662)
(2652.5668 -88.792513 -157.79419)
(2650.6347 -99.910575 -163.99328)
(2648.6611 -110.19996 -169.72808)
(15.112469 38.727203 40.1359)
(15.752607 65.168902 56.240341)
(24.850897 97.039297 69.902537)
(42.748955 130.55714 80.150961)
(68.578058 164.20749 89.889198)
(104.28081 198.48669 98.019501)
(148.7954 231.21142 105.73629)
(203.34172 263.43116 111.75988)
(266.97812 292.8676 116.98245)
(340.01806 320.46178 120.16399)
(421.70388 344.84746 122.19899)
(511.46004 366.24823 122.06392)
(608.54616 383.52952 120.42401)
(711.9746 397.39455 116.84541)
(820.44445 406.66597 111.56851)
(932.92887 412.12515 104.8111)
(1048.1824 413.27519 96.658022)
(1164.9302 410.37482 87.287725)
(1281.9199 403.4896 76.897827)
(1397.9031 392.9683 65.747259)
(1511.6633 378.98796 54.057012)
(1622.2077 362.03874 42.047437)
(1728.4929 342.43645 29.920277)
(1829.7175 320.72226 17.900153)
(1925.2291 297.23864 6.1306458)
(2014.4335 272.528 -5.2367952)
(2096.946 246.98042 -16.057047)
(2172.4886 221.09022 -26.240644)
(2240.963 195.21848 -35.761845)
(2302.4008 169.78782 -44.526457)
(2356.8826 145.09658 -52.54668)
(2404.6714 121.48914 -59.808941)
(2446.0808 99.201199 -66.366765)
(2481.4824 78.419643 -72.194669)
(2511.4551 59.366205 -77.437196)
(2536.2778 42.174157 -82.127452)
(2556.8107 26.781224 -86.20964)
(2573.3941 13.465603 -89.95857)
(2586.8688 1.9438825 -93.443323)
(2597.5555 -7.5949981 -96.642334)
(2606.308 -15.510435 -99.754873)
(2613.5692 -21.60012 -102.81904)
(2619.9563 -26.267849 -106.1392)
(2626.276 -29.837167 -109.51021)
(2632.3532 -31.753217 -113.57642)
(2639.856 -33.707681 -117.97417)
(2647.8031 -34.357849 -123.23301)
(-8.9618796 -16.368495 -28.047218)
(-2.4574369 -32.379393 -25.877922)
(0.65231339 -53.341042 -34.571552)
(19.205547 -75.500072 -29.150014)
(46.767491 -102.73734 -26.036842)
(82.498947 -129.01184 -19.484202)
(128.79878 -158.06861 -12.784254)
(183.0603 -186.66803 -4.925748)
(247.1978 -216.32581 3.1515131)
(319.80044 -245.03435 11.794832)
(400.76005 -273.55189 20.09196)
(489.63777 -300.32779 28.692769)
(585.11844 -325.63682 36.547267)
(686.82474 -348.5185 44.260635)
(793.23211 -368.76075 50.826927)
(903.66791 -385.95916 56.721869)
(1016.8319 -399.98307 61.328677)
(1131.2885 -410.39728 64.862647)
(1246.2822 -417.48274 67.006943)
(1360.1127 -420.88135 67.800319)
(1472.194 -420.92956 67.185903)
(1581.01 -417.65908 65.180692)
(1686.0657 -411.24425 61.706663)
(1786.2151 -402.0048 56.977637)
(1881.1694 -390.28316 51.034916)
(1970.0984 -376.41741 44.050067)
(2053.1263 -360.80645 35.90861)
(2129.2106 -343.61267 26.917328)
(2198.6088 -325.47432 17.311882)
(2261.2782 -306.65221 7.0259834)
(2317.3049 -287.4759 -3.7203434)
(2366.922 -268.28544 -14.834147)
(2410.3379 -249.36523 -26.198035)
(2447.9765 -231.04088 -37.690285)
(2480.1864 -213.53389 -49.215312)
(2507.4591 -197.08885 -60.722197)
(2530.3377 -181.94783 -72.000465)
(2549.301 -168.26491 -83.256715)
(2564.9436 -156.02331 -94.087655)
(2577.8151 -145.56442 -104.69674)
(2588.4894 -136.75649 -114.96554)
(2597.5403 -129.68319 -124.8545)
(2605.5548 -124.36544 -134.36167)
(2613.0536 -120.71464 -143.39434)
(2620.5301 -118.63934 -151.98797)
(2628.5358 -117.92336 -160.11)
(2637.2888 -118.59209 -167.7333)
(0 0 0)
(0 0 0)
(0 0 0)
(0 0 0)
(0 0 0)
(0 0 0)
(0 0 0)
(10.025467 -18.462354 27.671168)
(11.653534 -63.318853 46.580626)
(12.889978 -68.97079 55.712862)
(32.605386 -110.62458 66.535191)
(56.208158 -133.98615 75.923276)
(91.972329 -164.16417 81.851708)
(135.59279 -193.56824 89.801327)
(189.57081 -220.82421 94.162269)
(251.73427 -248.40058 99.19063)
(323.4104 -273.71772 101.56941)
(403.24029 -297.72407 103.9612)
(491.35079 -318.30649 102.70491)
(587.50292 -337.55682 100.61957)
(689.2102 -353.15045 96.325593)
(796.73764 -366.52647 90.589277)
(908.13954 -376.11902 83.095855)
(1022.7438 -382.9177 74.22802)
(1138.8683 -386.17416 64.104338)
(1255.6982 -386.49927 52.963245)
(1371.6592 -383.51511 40.962694)
(1485.9421 -377.85183 28.402776)
(1597.2279 -369.36676 15.435228)
(1704.7869 -358.64121 2.3265135)
(1807.6536 -345.72574 -10.794358)
(1905.1642 -331.07795 -23.605952)
(1996.0695 -314.89522 -35.682218)
(2080.8445 -297.57109 -47.37402)
(2159.4865 -279.31789 -58.794631)
(2231.2449 -260.63585 -69.519813)
(2296.2162 -241.83579 -79.521573)
(2354.4446 -223.15794 -88.758386)
(2406.0865 -204.88032 -97.246251)
(2451.4505 -187.23002 -104.99767)
(2490.831 -170.43263 -112.01057)
(2524.705 -154.67927 -118.35271)
(2553.2512 -139.94132 -124.0641)
(2577.5897 -127.17546 -129.09788)
(2597.5624 -114.67197 -133.80656)
(2614.1658 -104.53763 -138.02919)
(2627.7944 -95.617266 -141.8963)
(2639.0638 -88.325162 -145.53894)
(2648.602 -82.513516 -149.12443)
(2656.9537 -78.261619 -152.67302)
(2664.6814 -75.429849 -156.38756)
(2672.3516 -73.944714 -160.36284)
(2680.4483 -73.717096 -164.71455)
(2689.3385 -74.415862 -169.54653)
(2700.4205 -66.072692 -168.38529)
(2702.2703 -55.697429 -162.42577)
(2704.0327 -44.523482 -156.92473)
(2705.6993 -32.959559 -151.79405)
(2706.3909 -20.924417 -146.56982)
(2707.2711 -10.155127 -141.164)
(2707.4141 0.41128251 -135.3488)
(2698.8274 10.886236 -122.15545)
(2690.4333 11.797678 -115.36367)
(2682.5165 13.74308 -108.06127)
(2675.2249 16.62616 -100.55309)
(2668.1234 20.814902 -92.5974)
(2660.5993 26.583791 -84.358615)
(2652.1714 34.029636 -75.833791)
(2642.2853 43.354309 -67.021073)
(2630.3607 54.574808 -57.921884)
(2615.7625 67.682406 -48.660433)
(2598.2148 82.948497 -39.106854)
(2575.8529 100.38091 -29.808238)
(2550.3658 119.07607 -19.801337)
(2519.3339 139.84192 -10.121262)
(2482.9944 161.9945 -0.31008579)
(2440.7808 185.41585 9.304253)
(2392.3131 209.8146 18.761643)
(2337.2696 234.88089 27.887898)
(2275.4381 260.14609 36.647075)
(2206.6642 285.36625 44.812535)
(2130.977 309.87371 52.402951)
(2048.4175 333.43514 59.149014)
(1959.1587 355.40782 64.951835)
(1863.7378 375.41802 69.747293)
(1762.563 392.92701 73.44248)
(1656.2747 407.59973 75.848384)
(1545.687 418.9132 77.000082)
(1431.6924 426.68372 76.747125)
(1315.3565 430.47406 75.204957)
(1197.6758 430.2601 72.216219)
(1080.0945 425.8192 67.985799)
(963.48294 417.31882 62.582909)
(849.40985 404.5057 55.97748)
(739.64901 387.78809 48.804554)
(634.18965 367.27363 40.128239)
(534.2081 343.81512 31.722046)
(442.1946 317.41143 22.385362)
(357.26612 288.53992 13.303744)
(280.79479 258.59172 3.5680918)
(214.13228 226.10213 -5.2703877)
(156.60792 193.72821 -13.828162)
(106.83641 162.29898 -21.918728)
(68.958973 129.42524 -29.142562)
(38.865485 99.514203 -33.752571)
(18.429684 72.32813 -37.003799)
(7.8911784 42.022751 -35.725682)
(14.184208 24.621736 -22.996824)
(0 0 0)
(0 0 0)
(0 0 0)
(0 0 0)
(0 0 0)
(0 0 0)
(0 0 0)
(0 0 0)
(0 0 0)
(0 0 0)
(0 0 0)
(0 0 0)
(0 0 0)
(0 0 0)
(2653.6805 -113.45731 -174.81178)
(2659.87 -107.08529 -174.6926)
(2666.1251 -101.01325 -174.75972)
(2672.4685 -95.218579 -174.81437)
(2678.9662 -89.751761 -174.90567)
(2685.6304 -84.771712 -174.96192)
(2692.4008 -79.951563 -174.55404)
(2662.5706 -30.697687 -128.76009)
(2668.6532 -25.444857 -128.98189)
(2674.9022 -19.99688 -129.07859)
(2681.3456 -14.320681 -129.08131)
(2687.9976 -8.4531577 -128.99224)
(2694.768 -2.4993921 -128.99096)
(2701.6317 3.5781648 -129.10546)
(2.3434343 33.138186 40.14907)
(4.8281981 55.28623 46.233106)
(11.966497 82.772362 58.208138)
(29.381978 108.34222 67.107127)
(54.229621 133.39986 75.606097)
(90.195856 158.89847 83.387148)
(134.69522 182.65774 90.105608)
(189.21512 205.6836 96.671372)
(253.56412 226.28451 101.27447)
(326.94864 245.46032 105.32012)
(409.27691 261.81699 107.57184)
(499.71401 275.64106 108.62362)
(597.80879 286.72106 107.78622)
(701.99102 294.8957 105.55833)
(811.58003 299.93924 101.90852)
(925.1765 302.0142 96.694296)
(1041.5637 301.00591 90.301665)
(1159.3979 297.04621 82.691737)
(1277.4979 290.354 74.047755)
(1394.5172 281.07037 64.585142)
(1509.3367 269.44707 54.467761)
(1620.8282 255.78154 43.89927)
(1728.0044 240.33776 33.071655)
(1830.0786 223.49303 22.143278)
(1926.2746 205.47323 11.273602)
(2016.079 186.76357 0.64759502)
(2099.0999 167.52686 -9.6816824)
(2175.0957 148.13056 -19.594109)
(2243.8957 128.87851 -28.972215)
(2305.586 110.03142 -37.825214)
(2360.2334 91.831335 -46.085708)
(2408.0975 74.483477 -53.758507)
(2449.5045 58.151866 -60.829031)
(2484.8682 43.007439 -67.329654)
(2514.6371 29.145585 -73.328751)
(2539.3802 16.596118 -78.777983)
(2559.6362 5.4774883 -83.827159)
(2575.9448 -4.2273559 -88.530868)
(2588.9988 -12.632224 -92.909196)
(2599.354 -19.686342 -97.129819)
(2607.7184 -25.564934 -101.15502)
(2614.551 -30.317481 -105.25859)
(2620.6203 -34.171447 -109.34057)
(2626.4404 -37.186421 -113.71047)
(2632.2224 -39.479861 -118.30716)
(2639.3309 -41.611929 -123.20502)
(2646.7123 -42.80567 -128.42048)
(-10.073641 25.602416 31.46546)
(-8.1646821 39.143636 36.596402)
(0.98039769 64.009214 46.811364)
(17.292807 80.643586 54.654647)
(44.24916 100.23563 62.150827)
(79.190231 118.05585 68.870918)
(124.10007 134.88955 76.254336)
(179.33699 150.22343 81.662432)
(243.67419 163.90294 87.437088)
(317.62536 176.03873 91.487362)
(400.33745 185.79878 94.800304)
(491.35673 193.98272 96.518869)
(589.73065 199.61305 97.154062)
(694.50668 203.31396 96.342808)
(804.65762 204.54683 94.041162)
(918.90726 203.79623 90.387397)
(1035.8568 200.84796 85.476223)
(1154.3647 195.93732 79.397297)
(1273.039 189.12851 72.295594)
(1390.6933 180.66349 64.301669)
(1506.0455 170.6741 55.582076)
(1618.0449 159.40579 46.315023)
(1725.7471 147.10223 36.59945)
(1828.2629 133.91356 26.640034)
(1924.87 120.18728 16.59419)
(2015.1317 106.05944 6.5220031)
(2098.5073 91.828578 -3.4471255)
(2174.8063 77.658391 -13.070516)
(2243.9111 63.775888 -22.489395)
(2305.8219 50.335767 -31.481733)
(2360.6491 37.504055 -40.077702)
(2408.6462 25.394599 -48.202214)
(2450.1628 14.132602 -55.879272)
(2485.5498 3.7908776 -63.100818)
(2515.3639 -5.5845861 -69.85842)
(2540.0434 -13.94319 -76.22006)
(2560.2206 -21.269674 -82.180779)
(2576.4616 -27.642456 -87.804885)
(2589.4467 -33.040915 -93.171184)
(2599.6733 -37.548971 -98.277863)
(2607.8494 -41.333384 -103.23937)
(2614.585 -44.342547 -108.12921)
(2620.3665 -46.848066 -113.01922)
(2626.0856 -48.914896 -117.90455)
(2631.6051 -50.477105 -123.09952)
(2638.5781 -52.191596 -128.18992)
(2645.6317 -53.063299 -133.82695)
(-18.603838 18.163018 23.518646)
(-15.339565 28.819327 27.89156)
(-8.4569405 42.945798 35.076422)
(10.73809 55.415611 41.536773)
(36.090841 66.792172 47.692986)
(72.434335 78.26703 55.165081)
(118.13738 86.845038 60.587098)
(172.93476 95.487777 67.557603)
(237.87589 102.09224 72.74577)
(311.77148 107.39011 77.719388)
(394.78212 111.3203 81.488671)
(485.89607 113.61124 84.324241)
(584.45081 114.35629 85.997788)
(689.51361 113.69041 86.330739)
(799.93059 111.65109 85.521425)
(914.29276 108.1393 83.414318)
(1031.5278 103.39071 80.078452)
(1150.218 97.44592 75.657889)
(1269.134 90.472684 70.124856)
(1386.9931 82.643945 63.663208)
(1502.6168 74.023812 56.363647)
(1614.9351 64.920075 48.328037)
(1722.8636 55.343021 39.710089)
(1825.6358 45.660167 30.743007)
(1922.5878 35.841749 21.361823)
(2013.0094 26.11678 11.894846)
(2096.5639 16.610661 2.4097434)
(2172.9934 7.3858786 -7.0423209)
(2242.2407 -1.4190326 -16.356557)
(2304.2686 -9.7010921 -25.449982)
(2359.205 -17.40246 -34.282)
(2407.307 -24.453316 -42.803637)
(2448.8831 -30.835362 -50.98518)
(2484.3506 -36.498696 -58.806104)
(2514.1934 -41.471344 -66.278007)
(2538.9204 -45.745163 -73.390331)
(2559.1115 -49.344043 -80.184203)
(2575.3314 -52.365924 -86.668486)
(2588.2107 -54.813483 -92.860039)
(2598.4282 -56.831315 -98.874062)
(2606.6452 -58.38738 -104.69879)
(2613.3441 -59.644527 -110.47317)
(2619.2338 -60.751789 -116.0773)
(2624.9222 -61.628285 -121.87564)
(2630.5506 -62.526537 -127.55356)
(2637.4575 -63.446265 -133.43152)
(2644.4468 -64.117509 -139.30841)
(-21.632714 9.7302651 13.115368)
(-19.575029 13.389027 15.081117)
(-11.39314 21.701554 21.383519)
(5.1200338 26.80854 27.578575)
(32.195299 31.57067 34.266197)
(68.001355 36.24464 40.057966)
(113.19152 38.31186 47.595338)
(168.50107 40.487502 53.256068)
(233.13666 40.422992 59.541898)
(307.41549 39.933915 64.906399)
(390.42298 37.832499 69.468004)
(481.74587 34.940895 73.338488)
(580.33419 30.877142 75.902141)
(685.43706 26.234211 77.624403)
(795.65239 20.672936 78.223216)
(910.06513 14.667174 77.594517)
(1027.2023 8.0640154 75.821957)
(1145.844 1.1686643 72.89249)
(1264.6744 -5.9985179 68.874553)
(1382.4545 -13.225828 63.856785)
(1497.9402 -20.479145 57.912163)
(1610.0031 -27.467272 51.106389)
(1717.8199 -34.100689 43.690001)
(1820.4755 -40.647849 35.630613)
(1917.1678 -46.752539 27.171773)
(2007.5368 -52.42301 18.357451)
(2091.1318 -57.555485 9.1943769)
(2167.696 -62.134875 -0.069107281)
(2237.0653 -66.115688 -9.4014973)
(2299.2535 -69.523911 -18.686667)
(2354.3939 -72.334985 -27.881339)
(2402.7089 -74.564363 -36.912545)
(2444.5372 -76.272455 -45.714403)
(2480.2583 -77.443703 -54.299964)
(2510.3939 -78.188061 -62.592212)
(2535.397 -78.495703 -70.63513)
(2555.8912 -78.499321 -78.371404)
(2572.4764 -78.201714 -85.862077)
(2585.845 -77.667292 -93.094314)
(2596.3796 -77.021098 -100.0696)
(2604.7678 -76.401334 -106.819)
(2611.7249 -75.828153 -113.41387)
(2617.7365 -75.375585 -119.86623)
(2623.5392 -75.094512 -126.2309)
(2629.2032 -75.065007 -132.49082)
(2636.0613 -75.34925 -138.75317)
(2643.0937 -75.860454 -145.06608)
(-24.066783 2.5281175 3.135943)
(-19.932892 3.9797696 4.5315859)
(-15.584064 3.0374198 10.074813)
(3.1409203 2.4133314 14.703481)
(29.671515 -0.042928723 19.541787)
(65.542112 -2.9972861 26.685831)
(111.56358 -7.416843 32.304313)
(166.91173 -12.875372 39.07209)
(231.96118 -19.044798 45.276888)
(306.21668 -26.299796 51.306792)
(389.26718 -34.34358 56.79442)
(480.2813 -42.687404 61.65641)
(578.66377 -51.504748 65.631344)
(683.42136 -60.372595 68.779439)
(793.37443 -69.37481 70.775041)
(907.39072 -78.140339 71.751827)
(1024.1956 -86.640642 71.468153)
(1142.4441 -94.586508 70.097955)
(1260.9349 -102.05584 67.586715)
(1378.3187 -108.7394 63.963263)
(1493.4779 -114.83949 59.372477)
(1605.5313 -119.8131 53.699852)
(1713.1526 -124.26824 47.165996)
(1815.6688 -127.6249 39.96987)
(1912.4213 -130.03198 31.981022)
(2002.7994 -131.54816 23.51323)
(2086.3624 -132.20449 14.641404)
(2162.922 -132.09753 5.535717)
(2232.3272 -131.25823 -3.8075325)
(2294.5949 -129.76392 -13.241327)
(2349.831 -127.67135 -22.736312)
(2398.2839 -125.05458 -32.181905)
(2440.2538 -122.06785 -41.510714)
(2476.1786 -118.70641 -50.724786)
(2506.4885 -115.19074 -59.702926)
(2531.7109 -111.51562 -68.486977)
(2552.3902 -107.85946 -77.005886)
(2569.1728 -104.17111 -85.308542)
(2582.5373 -100.75537 -93.198991)
(2593.0122 -97.703211 -101.02392)
(2601.7044 -94.827144 -108.57138)
(2608.8304 -92.367774 -115.92866)
(2615.1114 -90.34277 -123.07255)
(2621.0559 -88.812212 -130.11357)
(2627.1357 -87.873004 -136.99122)
(2634.1795 -87.487936 -143.93445)
(2641.6555 -87.822059 -150.76288)
(-21.010603 -4.716637 -8.6604031)
(-15.883269 -11.702341 -6.8463376)
(-11.729518 -19.271531 -4.7017227)
(6.7673656 -26.619672 -1.289049)
(32.695031 -36.727368 5.0712128)
(68.748295 -46.247826 10.557716)
(114.5584 -58.43408 17.358211)
(169.66901 -70.308169 24.445507)
(234.444 -83.636707 31.170227)
(308.10637 -96.979921 38.364283)
(390.70147 -110.96951 44.783166)
(481.0795 -124.69115 50.682812)
(578.8632 -138.32763 55.896342)
(682.84421 -151.3198 60.413106)
(792.02278 -163.7073 63.922006)
(905.18282 -174.99543 66.438464)
(1021.1197 -185.24163 67.793598)
(1138.5331 -194.06826 68.03115)
(1256.1646 -201.56725 67.048836)
(1372.7191 -207.46652 64.904456)
(1487.2363 -211.86907 61.702933)
(1598.2574 -214.9384 57.03478)
(1705.2898 -216.08855 51.948682)
(1807.0974 -215.57255 45.497409)
(1903.4011 -213.84823 38.337401)
(1993.2905 -210.84 30.510565)
(2076.6012 -206.77349 21.971796)
(2153.0647 -201.62083 13.009276)
(2222.4992 -195.65237 3.6329514)
(2284.856 -188.9187 -6.0597764)
(2340.3154 -181.61514 -15.953089)
(2389.0762 -173.92761 -25.952357)
(2431.4546 -166.00039 -35.970923)
(2467.8395 -157.98694 -45.96511)
(2498.6809 -150.09966 -55.793414)
(2524.4614 -142.36338 -65.531609)
(2545.7868 -135.03626 -75.029845)
(2563.1723 -128.12416 -84.352975)
(2577.1752 -121.76941 -93.367914)
(2588.6433 -116.05714 -102.23063)
(2597.8151 -111.28546 -110.6416)
(2605.5031 -107.15908 -118.92984)
(2612.2534 -103.86071 -126.8877)
(2618.653 -101.36127 -134.64342)
(2625.1932 -99.764735 -142.14033)
(2632.39 -98.934217 -149.40179)
(2640.2592 -99.064953 -156.57141)
(-15.979081 -14.089546 -17.320635)
(-11.892904 -24.151895 -16.277014)
(-8.7896261 -37.616323 -17.78476)
(10.363895 -51.719162 -13.870672)
(35.576856 -68.002223 -9.5996839)
(72.4509 -86.000442 -3.5880903)
(117.94242 -105.06316 3.1809722)
(173.05796 -124.90624 10.350247)
(237.63179 -145.45412 17.811127)
(310.8621 -165.81512 25.508426)
(393.30008 -186.40392 32.911079)
(483.02441 -206.09411 39.825721)
(580.16765 -225.11575 46.423956)
(683.33089 -242.90347 52.340208)
(791.6864 -259.03208 57.345405)
(903.88818 -273.32434 61.354885)
(1018.9027 -285.50603 64.267082)
(1135.3132 -295.48015 65.960002)
(1251.964 -303.04626 66.448269)
(1367.6684 -308.26441 65.68244)
(1481.1459 -311.04943 63.601408)
(1591.6555 -311.50898 60.356107)
(1697.7169 -309.72449 55.871524)
(1799.0593 -305.68241 50.29623)
(1894.7555 -299.77413 43.799363)
(1984.3646 -292.09752 36.38061)
(2067.596 -282.92882 28.031732)
(2143.8637 -272.62833 19.157455)
(2213.2035 -261.32455 9.6728921)
(2275.6086 -249.20522 -0.25764164)
(2331.2236 -236.58013 -10.527051)
(2380.2394 -223.66523 -21.021235)
(2422.9523 -210.7072 -31.640686)
(2459.7599 -197.90668 -42.307052)
(2491.0502 -185.51247 -52.911027)
(2517.3836 -173.60368 -63.457953)
(2539.2369 -162.49853 -73.791558)
(2557.1037 -152.17228 -83.950319)
(2571.7622 -142.86921 -93.801298)
(2583.6853 -134.66323 -103.4022)
(2593.3839 -127.58494 -112.74116)
(2601.57 -121.69142 -121.77208)
(2608.7905 -116.95543 -130.4383)
(2615.6144 -113.41142 -138.82119)
(2622.5653 -111.04724 -146.77849)
(2630.0526 -109.67026 -154.53208)
(2638.7107 -109.42551 -162.02834)
(0 0 0)
(0 0 0)
(0 0 0)
(0 0 0)
(0 0 0)
(0 0 0)
(0 0 0)
(0 0 0)
(0 0 0)
(0 0 0)
(0 0 0)
(0 0 0)
(0 0 0)
(0 0 0)
(0 0 0)
(0 0 0)
(0 0 0)
(0 0 0)
(0 0 0)
(0 0 0)
(0 0 0)
(0 0 0)
(0 0 0)
(0 0 0)
(0 0 0)
(0 0 0)
(0 0 0)
(0 0 0)
(0 0 0)
(0 0 0)
(0 0 0)
(0 0 0)
(0 0 0)
(0 0 0)
(0 0 0)
(0 0 0)
(0 0 0)
(0 0 0)
(0 0 0)
(0 0 0)
(0 0 0)
(0 0 0)
(0 0 0)
(0 0 0)
(0 0 0)
(0 0 0)
(0 0 0)
(0 0 0)
(0 0 0)
(1.1782201 -4.2362026 -15.587379)
(5.2004177 -7.3079406 -11.303094)
(9.7612481 -8.1281968 -5.5462051)
(11.885425 -9.1830535 -0.748644)
(12.488113 -8.8940989 3.725412)
(13.029411 -10.17372 9.3288119)
(10.775689 -5.9266829 13.930175)
(8.2218308 -36.494303 -19.839918)
(15.987896 -43.594728 -9.937934)
(20.115913 -41.775727 -1.5690158)
(22.415178 -41.293114 5.5176896)
(24.044063 -45.712438 13.23312)
(21.812088 -46.762746 22.26142)
(19.149947 -47.819967 33.62985)
(12.335793 -50.062487 -22.304813)
(22.780783 -49.806175 -13.580281)
(29.676134 -55.931702 0.17677558)
(31.711333 -57.628229 9.111685)
(32.43055 -56.753072 20.738818)
(29.652375 -60.013126 29.154097)
(25.183886 -65.793864 45.932051)
(34.955524 -82.530644 -17.009111)
(43.338538 -87.422301 -6.5384743)
(49.241004 -88.826005 6.5870382)
(52.204462 -90.813497 15.779176)
(52.645546 -93.401088 27.946812)
(49.272529 -98.67424 41.529413)
(42.042515 -98.473312 52.769669)
(59.673545 -107.56934 -13.430417)
(70.236963 -110.24339 -2.3057786)
(77.811057 -114.72393 11.275014)
(80.001099 -117.01193 23.870077)
(80.293016 -119.59571 36.072801)
(76.409543 -123.23561 48.063135)
(69.918575 -127.60472 63.65448)
(97.75026 -136.90777 -6.5072929)
(106.40192 -140.28627 5.5705976)
(112.83381 -143.04244 18.71083)
(115.69794 -147.1007 30.448006)
(115.03716 -149.30091 44.028212)
(110.70031 -153.62966 57.088189)
(102.94025 -156.56535 69.621809)
(142.07879 -165.15217 0.46649246)
(151.57397 -169.24118 12.855519)
(158.50923 -173.73884 26.026569)
(160.71933 -176.99902 37.890918)
(160.58989 -180.15649 51.539391)
(156.28863 -185.02751 63.333834)
(148.88014 -188.12247 77.913554)
(197.07489 -194.91982 8.1445127)
(205.90128 -199.14096 20.409508)
(211.49438 -202.42505 33.410258)
(214.36629 -206.06337 45.73595)
(212.8085 -208.61858 57.939182)
(208.9701 -212.0687 70.682496)
(200.77782 -215.47729 82.680777)
(260.13892 -224.15023 16.138537)
(268.46766 -228.43404 28.554922)
(274.64281 -232.59405 40.460247)
(276.30979 -235.2936 52.265633)
(275.98538 -238.94201 64.313721)
(271.16893 -241.61208 75.781309)
(264.1491 -245.05347 88.737137)
(332.13768 -253.14967 24.102927)
(339.99414 -256.95506 35.744858)
(344.8447 -260.06697 47.573864)
(347.25127 -263.47588 58.832645)
(345.88939 -265.93437 70.306359)
(341.89933 -268.37462 80.938568)
(334.45439 -271.20271 92.155762)
(412.25936 -281.16313 32.009981)
(419.2144 -284.86725 43.203073)
(424.29732 -288.14002 53.896772)
(425.59606 -290.14619 63.769005)
(425.35258 -292.60527 74.212192)
(420.86249 -294.33881 83.758811)
(414.15921 -296.8695 95.276679)
(499.87744 -307.46477 39.440334)
(506.32314 -310.59865 49.888991)
(510.23665 -313.01138 58.868225)
(512.03009 -314.77322 68.547397)
(510.87569 -316.58631 77.828671)
(506.80604 -317.69875 86.376716)
(501.38417 -319.42792 95.552634)
(594.25449 -332.26645 46.350199)
(599.70886 -334.62116 55.234926)
(603.54977 -336.4513 63.556723)
(604.82515 -337.67359 71.551875)
(604.11532 -338.91554 79.507709)
(600.96223 -339.68095 86.505371)
(595.65604 -339.96808 94.514895)
(694.25722 -354.24848 52.490724)
(699.02258 -355.7605 60.056695)
(702.33934 -356.86208 66.763759)
(703.23745 -357.2019 73.427169)
(703.089 -357.91931 79.877941)
(699.97099 -357.29051 85.590034)
(696.18022 -357.23593 91.889353)
(799.37123 -373.60702 57.586745)
(803.48641 -374.39495 63.588428)
(805.97021 -374.56228 68.843787)
(807.28002 -374.49735 74.050834)
(806.88454 -374.22869 78.753187)
(805.04608 -373.12275 83.083395)
(801.90441 -371.9657 87.536659)
(908.3543 -389.78796 61.734444)
(911.32191 -389.4716 66.074856)
(913.66447 -389.04849 69.758756)
(914.4704 -387.85284 73.183733)
(914.74504 -387.05048 76.347274)
(913.39867 -384.82039 79.038051)
(911.55787 -383.04626 81.664983)
(1019.8542 -402.52471 64.63782)
(1022.3161 -401.50038 67.282145)
(1023.8243 -400.01676 69.239667)
(1024.9256 -398.29554 71.076056)
(1025.324 -396.5937 72.48049)
(1025.0164 -393.79054 73.589667)
(1024.2043 -390.93338 74.369284)
(1133.0633 -411.87399 66.361155)
(1134.4231 -409.74382 67.199029)
(1135.7095 -407.58995 67.572433)
(1136.6081 -404.95283 67.637809)
(1137.5256 -402.60002 67.365683)
(1137.9685 -398.79205 66.899897)
(1138.4581 -395.31525 65.777119)
(1246.4482 -417.5783 66.708325)
(1247.259 -414.67466 65.845651)
(1247.9572 -411.59901 64.535645)
(1249.0697 -408.3742 62.957227)
(1250.2534 -405.13347 61.010596)
(1251.7284 -400.83674 58.999297)
(1253.3597 -396.44971 56.097313)
(1359.1613 -419.79589 65.768513)
(1359.0997 -415.90867 63.22214)
(1359.5692 -412.16058 60.343271)
(1360.6206 -408.11485 57.137784)
(1362.3208 -404.29351 53.628929)
(1364.6163 -399.20516 50.100584)
(1367.4999 -394.19487 45.496985)
(1469.9004 -418.53733 63.495357)
(1469.3677 -413.90477 59.360039)
(1469.4003 -409.34763 54.943352)
(1470.6967 -404.78345 50.280126)
(1472.7359 -400.20486 45.246361)
(1475.9894 -394.6604 40.353356)
(1479.9937 -388.95821 34.193172)
(1577.8582 -414.03404 59.912025)
(1576.6662 -408.55075 54.317414)
(1576.5574 -403.43094 48.554338)
(1577.9206 -398.2103 42.496674)
(1580.4308 -393.12357 36.130932)
(1584.5052 -387.01104 29.925754)
(1589.6583 -380.82399 22.359747)
(1681.9557 -406.44596 55.042539)
(1680.4184 -400.36126 48.203638)
(1680.1015 -394.65646 41.16286)
(1681.7044 -388.93686 33.944725)
(1684.614 -383.22367 26.308941)
(1689.5381 -376.75979 19.036779)
(1695.7032 -370.12896 10.217875)
(1781.597 -396.22219 49.068763)
(1779.6255 -389.40887 41.115209)
(1779.3572 -383.27438 33.032754)
(1781.0589 -376.96347 24.74219)
(1784.384 -370.98607 16.13818)
(1790.0491 -364.1587 7.8041347)
(1797.1698 -357.23634 -2.0689508)
(1875.9813 -383.44039 42.159852)
(1873.7786 -376.21777 33.117381)
(1873.5882 -369.74699 24.254822)
(1875.3065 -363.03829 15.030272)
(1879.3062 -356.59643 5.5844151)
(1885.5147 -349.35476 -3.5487865)
(1893.5888 -342.17183 -14.243972)
(1964.7071 -368.64336 34.251064)
(1962.357 -361.14236 24.456472)
(1962.2966 -354.14511 14.989215)
(1964.4006 -347.21155 4.5707741)
(1968.792 -340.42585 -4.7647761)
(1975.2336 -332.99848 -14.875009)
(1983.9841 -325.73984 -25.812575)
(2047.3539 -352.20521 25.593868)
(2045.0416 -344.4195 15.406756)
(2045.032 -336.99857 5.1037882)
(2047.0733 -329.95063 -5.273613)
(2052.0267 -322.7856 -15.580156)
(2058.9471 -315.49074 -26.22891)
(2068.4314 -307.82339 -37.066967)
(2123.4898 -334.47455 16.287269)
(2121.4603 -326.32706 5.5784982)
(2121.2657 -318.82445 -5.0072463)
(2124.0066 -311.52311 -15.599903)
(2128.823 -304.4473 -26.475134)
(2136.4576 -296.88071 -37.037537)
(2146.3369 -289.29042 -48.406599)
(2193.0976 -315.80864 6.4349355)
(2191.1511 -307.48271 -4.6561726)
(2191.4208 -299.80995 -15.123643)
(2194.2465 -292.47615 -26.209327)
(2199.5615 -285.12737 -36.917072)
(2207.4927 -277.69627 -47.71941)
(2217.7349 -270.05808 -59.107058)
(2256.0807 -296.5719 -3.9579273)
(2254.5396 -288.15251 -15.002586)
(2254.9792 -280.37568 -25.558174)
(2258.1849 -272.94922 -36.547381)
(2263.7174 -265.63223 -47.246113)
(2271.9168 -258.23468 -57.975442)
(2282.451 -250.67097 -69.283705)
(2312.6206 -277.10493 -14.600106)
(2311.3759 -268.60858 -25.559955)
(2312.2239 -260.83844 -35.922799)
(2315.697 -253.4142 -46.791692)
(2321.5008 -246.09853 -57.237825)
(2329.9211 -238.81027 -67.805583)
(2340.6206 -231.3639 -78.801072)
(2362.7809 -257.69617 -25.479721)
(2362.0243 -249.29043 -36.136223)
(2363.2266 -241.51594 -46.238723)
(2367.0064 -234.13325 -56.742962)
(2373.0244 -226.8964 -66.88701)
(2381.572 -219.74092 -77.09288)
(2392.3422 -212.46461 -87.692604)
(2406.9168 -238.72365 -36.445872)
(2406.6333 -230.39042 -46.697692)
(2408.2537 -222.68681 -56.367908)
(2412.3212 -215.40568 -66.435788)
(2418.5279 -208.25333 -76.124479)
(2427.1573 -201.26476 -85.867868)
(2437.8985 -194.19007 -95.949303)
(2445.3011 -220.39596 -47.426233)
(2445.5608 -212.2264 -57.135596)
(2447.609 -204.62753 -66.287045)
(2451.9599 -197.45833 -75.784523)
(2458.3278 -190.44759 -84.914209)
(2466.9511 -183.66001 -94.088295)
(2477.5943 -176.7868 -103.55973)
(2478.3473 -203.01532 -58.32536)
(2479.1731 -195.01836 -67.386575)
(2481.6682 -187.56181 -75.914833)
(2486.2878 -180.53679 -84.763895)
(2492.7875 -173.69056 -93.250088)
(2501.3991 -167.02789 -101.84381)
(2511.8907 -160.4375 -110.53763)
(2506.5153 -186.76056 -69.100572)
(2507.9308 -178.98728 -77.477104)
(2510.8803 -171.67705 -85.3094)
(2515.7483 -164.84335 -93.430275)
(2522.3942 -158.08351 -101.1856)
(2530.8397 -151.79922 -109.0922)
(2541.0553 -145.43446 -116.76123)
(2530.3584 -171.93776 -79.635511)
(2532.3278 -164.29452 -87.142425)
(2535.6553 -157.21269 -94.182806)
(2540.8316 -150.46354 -101.52379)
(2547.4348 -144.03299 -108.55616)
(2555.794 -137.57631 -115.45702)
(2565.6982 -131.5709 -122.82334)
(2550.1178 -158.23664 -89.953112)
(2552.8315 -151.15484 -96.547555)
(2556.6504 -144.16711 -102.90632)
(2561.9318 -137.65628 -109.31872)
(2568.6927 -131.26418 -115.61111)
(2576.8016 -125.51783 -121.97317)
(2586.5389 -119.37197 -128.25485)
(2566.6579 -146.66474 -99.994314)
(2569.843 -139.5441 -105.8603)
(2574.0572 -132.73317 -111.35784)
(2579.6601 -126.41608 -117.00659)
(2586.3958 -120.20429 -122.45899)
(2594.4708 -114.28001 -127.77577)
(2603.672 -108.42991 -133.26894)
(2580.4151 -136.40541 -109.67839)
(2584.1583 -129.59719 -114.68582)
(2588.8064 -123.00945 -119.3087)
(2594.5675 -116.83736 -124.15024)
(2601.3479 -110.72863 -128.6698)
(2609.1123 -105.05922 -133.32778)
(2617.9722 -99.403541 -137.891)
(2591.9528 -128.04162 -119.11288)
(2596.2045 -121.42472 -123.1363)
(2601.2122 -115.00703 -127.05437)
(2607.1535 -108.95883 -130.99607)
(2613.8707 -103.01122 -134.8027)
(2621.4685 -97.454986 -138.59916)
(2629.9522 -91.924665 -142.30934)
(2601.7546 -121.36863 -128.18048)
(2606.5277 -114.96692 -131.31094)
(2611.886 -108.72985 -134.49197)
(2617.9271 -102.77137 -137.5971)
(2624.6695 -96.961278 -140.66042)
(2632.04 -91.490688 -143.67309)
(2640.1002 -86.07218 -146.59372)
(2610.4675 -116.4735 -136.83239)
(2615.6784 -110.20938 -139.18154)
(2621.3276 -104.07116 -141.64868)
(2627.5035 -98.226261 -143.98768)
(2634.2195 -92.531241 -146.38435)
(2641.344 -87.133369 -148.66258)
(2649.0694 -81.821331 -150.82825)
(2618.5417 -113.2342 -145.11265)
(2624.1247 -107.09271 -146.77533)
(2630.047 -101.05784 -148.56021)
(2636.3116 -95.296319 -150.2482)
(2642.988 -89.662813 -152.02375)
(2649.935 -84.340365 -153.65427)
(2657.3248 -79.12846 -155.14481)
(2626.5134 -111.55153 -153.01641)
(2632.4132 -105.45947 -154.07639)
(2638.5299 -99.466249 -155.25993)
(2644.868 -93.732908 -156.41039)
(2651.5022 -88.174712 -157.64342)
(2658.2905 -82.916778 -158.7226)
(2665.4187 -77.809344 -159.66343)
(2634.8164 -111.22945 -160.55823)
(2640.9347 -105.1244 -161.12195)
(2647.195 -99.129388 -161.82178)
(2653.5776 -93.412081 -162.52421)
(2660.162 -87.882535 -163.31297)
(2666.886 -82.699783 -163.94932)