/*--------------------------------*- C++ -*----------------------------------*\
  =========                 |
  \\      /  F ield         | OpenFOAM: The Open Source CFD Toolbox
   \\    /   O peration     | Website:  https://openfoam.org
    \\  /    A nd           | Version:  6
     \\/     M anipulation  |
\*---------------------------------------------------------------------------*/
FoamFile
{
    version     2.0;
    format      ascii;
    class       pointVectorField;
    location    "0.23";
    object      lm;
}
// * * * * * * * * * * * * * * * * * * * * * * * * * * * * * * * * * * * * * //

dimensions      [1 -2 -1 0 0 0 0];

internalField   nonuniform List<vector> 
28033
(
(-1.780536e-14 4.8656612e-16 1.3104288e-15)
(-5.4375576e-15 3.3318594e-15 9.9433006e-16)
(5289.7493 -1017.8057 12.793378)
(4954.9866 -2127.0556 6.0880702)
(-1.338461e-14 3.0090723e-15 -2.870051e-16)
(-1.2587315e-14 4.9008913e-15 -4.4266115e-15)
(4944.6971 -2106.3046 -5.5424164)
(5281.0379 -1038.6075 18.232155)
(-5.6329745e-15 1.0535579e-15 6.7193838e-16)
(-2.4534443e-15 3.0423504e-16 5.8836893e-16)
(-5.4923298e-15 2.4302826e-15 8.9528572e-16)
(-2.6209443e-15 -1.1537891e-15 -6.7979696e-16)
(-7.2548563e-15 1.5542294e-15 1.0013199e-15)
(-4.7613589e-15 -9.2108094e-16 -7.3952737e-16)
(-1.132389e-15 -2.2256662e-17 -6.4484848e-16)
(-7.4239857e-16 -2.4218299e-16 -3.6669977e-16)
(-1.1196198e-15 4.5550132e-16 8.383863e-16)
(-2.3465882e-16 2.2667819e-16 1.4996246e-15)
(-4.0583243e-15 -8.7236639e-16 -1.3429605e-15)
(-5.8237189e-15 8.4462789e-16 7.5519031e-16)
(-5.1611762e-15 1.0100276e-15 9.7613867e-16)
(-1.7679952e-15 -8.1010255e-16 4.5192313e-16)
(-4.4158752e-15 1.0299569e-15 -9.452958e-16)
(5199.1508 -1068.157 13.899977)
(5095.6122 -1114.8902 15.01518)
(5014.7258 -1165.7304 13.964224)
(4965.9532 -1223.5705 13.577211)
(4952.5761 -1291.1738 12.098872)
(4972.4764 -1368.4405 10.492669)
(5019.6086 -1456.1038 8.8167538)
(5081.9751 -1550.5711 6.6090895)
(5147.1104 -1649.1247 4.8201316)
(5201.3656 -1746.4955 2.9028587)
(5232.3874 -1837.9134 1.5412824)
(5232.9719 -1919.5148 1.5991155)
(5198.3781 -1987.8359 0.96369157)
(5131.6899 -2041.7441 2.1374904)
(5042.5847 -2084.4384 3.8472213)
(29.821966 25.431638 14.02412)
(68.149367 35.083848 1.1626591)
(107.17423 36.200306 -14.975139)
(143.76948 33.419416 -28.513619)
(174.12286 27.136427 -39.825853)
(198.7997 18.889832 -47.511033)
(216.19216 10.299575 -50.807139)
(226.82799 1.995703 -50.246962)
(230.46966 -4.5611505 -45.217637)
(228.2986 -8.9779386 -36.146297)
(221.65439 -9.4947862 -23.878061)
(212.12176 -6.5955969 -9.0139592)
(200.94625 0.86543777 8.0369436)
(190.39299 12.602389 26.21435)
(182.71603 28.9328 44.321108)
(180.04118 48.741623 61.065812)
(182.92203 71.468602 76.744739)
(193.67184 96.235089 89.911178)
(213.1854 122.06548 99.289631)
(242.38824 147.36851 105.09473)
(281.08525 171.28897 107.04832)
(328.66832 191.84768 104.23132)
(385.06469 209.03091 97.888675)
(448.25482 220.91691 87.446611)
(516.36747 227.22127 73.764887)
(587.80253 228.42968 58.175091)
(659.11434 223.53546 41.22718)
(728.73394 213.64363 24.261214)
(793.19707 199.62874 8.4707162)
(850.55543 182.62117 -4.6343401)
(898.80695 164.26072 -13.998947)
(936.53626 146.24353 -18.796087)
(963.25342 129.95738 -18.212539)
(978.49365 117.75027 -12.229855)
(983.20808 110.37208 -0.063879135)
(979.92713 110.14324 17.354887)
(969.32349 116.26914 39.018192)
(955.61365 130.72479 64.576187)
(941.83181 152.74051 91.991723)
(931.16514 181.49126 119.64373)
(927.60525 215.99355 146.28927)
(934.29274 254.92365 169.73724)
(954.37206 296.22101 188.57317)
(990.04128 337.76324 201.58771)
(1042.8282 377.28062 207.74252)
(1113.4858 412.60021 206.4593)
(1201.6073 441.67224 197.72033)
(1306.1204 462.79997 181.86426)
(1424.9572 474.65162 159.72331)
(1555.5527 476.38025 132.42037)
(1694.7254 467.64022 101.3685)
(1839.1392 448.58937 68.103019)
(1985.3071 419.8588 34.210465)
(2129.9467 382.48684 1.2065525)
(2270.0512 337.85035 -29.535206)
(2403.0915 287.55533 -56.849895)
(2527.0873 233.35389 -79.82365)
(2640.6803 177.03374 -97.811754)
(2743.1423 120.32444 -110.4414)
(2834.3736 64.819518 -117.5976)
(2914.837 11.886527 -119.41303)
(2985.5089 -37.321224 -116.22238)
(3047.7358 -82.072052 -108.56305)
(3103.3262 -121.86147 -97.151445)
(3153.9825 -156.47667 -82.547715)
(3201.9264 -186.23508 -66.360455)
(3249.2482 -211.64095 -48.79774)
(3297.3614 -233.19659 -30.895499)
(3348.4427 -251.94717 -13.662391)
(3403.5773 -268.84786 1.96308)
(3463.9494 -285.25536 15.325687)
(3530.1026 -301.97597 26.014843)
(3602.1219 -320.07631 33.599591)
(3679.838 -340.28119 38.04034)
(3762.5285 -363.13486 39.400311)
(3849.1648 -389.07208 38.065512)
(3938.4821 -418.00848 34.483096)
(4029.1027 -449.97175 29.34197)
(4119.5056 -484.31606 23.181804)
(4208.4651 -520.88771 16.870321)
(4294.8019 -558.56956 10.776202)
(4377.5274 -596.99607 5.5976231)
(4456.28 -635.42609 1.4271112)
(4530.719 -673.37051 -1.3643871)
(4600.8747 -710.23667 -2.9232634)
(4667.3008 -745.39919 -3.1959686)
(4730.2333 -779.00697 -2.6230628)
(4790.7343 -810.57645 -1.1789152)
(4849.1736 -840.39136 0.47137113)
(4906.4826 -868.24105 2.8810982)
(4963.3187 -894.56729 4.4244966)
(5020.207 -919.63151 7.1163811)
(5077.4175 -942.73047 8.1011552)
(5135.9826 -966.68223 9.9703485)
(5193.2715 -988.68893 10.953882)
(16.58806 -36.737911 -39.62938)
(71.473908 -42.905429 -9.7870144)
(126.05129 -53.683092 10.502186)
(167.00107 -51.603357 34.355746)
(206.00054 -49.688872 50.946978)
(233.9265 -46.071644 63.108954)
(252.44833 -40.310837 69.336608)
(261.98414 -35.985892 69.255139)
(261.66348 -30.879981 62.890382)
(253.56261 -28.417234 50.976226)
(238.22044 -27.118481 33.84134)
(218.44146 -29.205481 12.824027)
(196.10047 -33.776347 -10.309634)
(173.02136 -41.968839 -35.23996)
(152.18191 -53.245262 -59.660934)
(135.69762 -68.327713 -82.760764)
(125.63307 -86.455449 -102.64284)
(124.55716 -107.39825 -118.50613)
(132.86645 -131.05988 -129.54071)
(151.98709 -155.91501 -134.64554)
(182.97696 -182.22091 -133.89815)
(224.58127 -208.81201 -127.29439)
(276.54294 -233.98258 -114.71559)
(337.79485 -258.78566 -97.658013)
(405.98753 -280.27995 -76.459021)
(478.3241 -298.92662 -52.932562)
(552.89253 -313.5533 -28.817386)
(625.64023 -324.15538 -5.1585253)
(694.54464 -329.85328 15.663028)
(755.94166 -331.64059 32.424007)
(807.51157 -328.93167 43.467592)
(847.53903 -323.14163 47.703572)
(874.30649 -314.63057 44.381047)
(887.40959 -304.73898 33.130511)
(886.97918 -294.91505 14.228958)
(874.90199 -286.92341 -11.31915)
(852.87221 -282.54067 -42.50897)
(824.0791 -282.38604 -77.3053)
(791.81558 -288.96377 -114.18483)
(759.96693 -302.84461 -150.74541)
(732.73426 -325.26493 -184.73268)
(714.04966 -356.75537 -214.04155)
(707.416 -397.44406 -236.85428)
(715.83623 -447.03241 -251.7415)
(741.48572 -504.78614 -257.74211)
(785.67716 -569.55817 -254.46376)
(848.73843 -639.85512 -242.06835)
(930.08188 -713.91029 -221.25891)
(1028.2156 -789.79284 -193.22041)
(1140.9138 -865.49372 -159.51085)
(1265.3593 -939.07146 -121.95095)
(1398.3439 -1008.7226 -82.487105)
(1536.4775 -1072.913 -43.057435)
(1676.3773 -1130.432 -5.4777702)
(1814.8552 -1180.4619 28.667795)
(1949.0622 -1222.5962 58.087717)
(2076.6081 -1256.8553 81.842227)
(2195.6365 -1283.6399 99.34367)
(2304.8713 -1303.7129 110.3634)
(2403.627 -1318.1093 114.99691)
(2491.7908 -1328.0843 113.63099)
(2569.7893 -1335.0139 106.89133)
(2638.5233 -1340.3362 95.603472)
(2699.3108 -1345.4464 80.739768)
(2753.7694 -1351.6501 63.343115)
(2803.8018 -1360.0919 44.534142)
(2851.2561 -1371.6972 25.422936)
(2898.3698 -1387.0641 7.0116491)
(2946.6318 -1407.0034 -9.7013691)
(2998.2091 -1430.8792 -23.992052)
(3054.5133 -1459.3053 -35.176864)
(3116.0219 -1491.2004 -42.802722)
(3183.8006 -1526.3152 -46.818353)
(3257.8022 -1563.6783 -47.21623)
(3337.6543 -1602.3827 -44.360202)
(3422.6709 -1641.4078 -38.749505)
(3511.7178 -1679.8185 -31.02218)
(3603.5046 -1716.7657 -21.970229)
(3696.605 -1751.5593 -12.369802)
(3789.6204 -1783.705 -2.9288399)
(3881.2994 -1812.99 5.7306738)
(3970.5863 -1839.3655 13.12161)
(4056.7263 -1863.0694 18.962395)
(4139.2478 -1884.4307 23.079649)
(4217.9873 -1903.9756 25.522338)
(4293.0209 -1922.2134 26.379199)
(4364.6459 -1939.7428 25.899294)
(4433.3082 -1957.0411 24.311424)
(4499.548 -1974.6018 21.938245)
(4563.9752 -1992.7545 19.044492)
(4627.211 -2011.8096 15.970977)
(4689.8258 -2031.9179 12.994782)
(4752.4274 -2053.137 10.311688)
(4815.4213 -2075.4961 8.3340334)
(4883.6292 -2100.7046 7.003278)
(3.2927448e-15 -1.3239155e-15 2.3845803e-16)
(2.4470133e-15 -9.6672015e-16 3.215493e-17)
(-9.0574249e-15 9.0550918e-16 6.4029168e-16)
(-1.2642219e-16 -5.721845e-16 4.4370095e-16)
(-7.6811722e-15 -4.9270561e-16 4.1193361e-16)
(-7.3893964e-15 2.7533729e-15 -1.0951501e-15)
(-3.2915852e-15 -8.1743692e-16 3.8364228e-16)
(-1.9032499e-15 5.3200654e-16 -8.2319016e-17)
(-4.7409759e-15 -4.8623412e-16 4.3918642e-16)
(-1.2869644e-14 1.1845665e-15 6.4228907e-16)
(-9.6157521e-15 1.4157374e-15 5.9836601e-16)
(-9.4077204e-15 4.9518432e-16 1.1192419e-15)
(-5.982767e-15 2.6210694e-16 3.0473736e-16)
(-1.1478475e-14 -5.3386198e-16 1.6580808e-15)
(-5.257323e-15 3.6289085e-16 2.8600704e-16)
(23.017489 -20.295127 37.986066)
(74.765894 -55.766833 16.240453)
(123.07856 -48.12951 -6.736946)
(166.85633 -53.178671 -22.511881)
(203.15919 -48.908801 -35.233916)
(227.16756 -43.33329 -47.251369)
(247.07754 -38.44551 -49.794821)
(252.72494 -31.662293 -52.444239)
(253.51069 -28.626029 -44.980107)
(244.99113 -24.247169 -35.768494)
(229.7403 -25.302547 -22.731923)
(212.31263 -28.093023 -5.4320857)
(191.43449 -33.735309 12.836175)
(170.75251 -44.370423 32.649247)
(153.32479 -58.346692 51.836713)
(138.7385 -74.555238 69.734999)
(131.76326 -96.210482 85.005456)
(133.17048 -120.38579 97.516361)
(142.80796 -146.45824 105.05397)
(164.40403 -175.44374 108.24998)
(195.2907 -202.68091 107.78123)
(237.02616 -232.85649 100.36681)
(288.07607 -261.82409 90.019343)
(348.44948 -287.05668 75.005184)
(414.33175 -309.57304 56.8469)
(485.12131 -330.60177 37.344316)
(557.24995 -344.51642 16.653272)
(627.23567 -357.55054 -3.5592162)
(694.6348 -362.60543 -20.73624)
(752.8958 -364.03462 -35.287064)
(803.66272 -362.00688 -44.202295)
(841.54031 -356.44478 -46.637059)
(867.12241 -348.41814 -42.693946)
(879.63386 -340.08183 -31.123897)
(878.42425 -331.33868 -13.486705)
(865.04164 -325.96201 11.876366)
(844.52428 -321.33281 41.526169)
(815.23322 -324.66581 74.649076)
(783.90938 -333.57857 109.52428)
(752.82893 -350.28183 143.95312)
(726.84672 -375.48006 175.69489)
(709.56238 -409.69546 202.81934)
(704.54709 -452.92706 223.52538)
(714.7395 -504.80041 236.44746)
(742.23628 -564.49721 240.72317)
(788.26489 -630.80627 236.01491)
(853.06826 -702.18779 222.56596)
(935.95555 -776.85242 201.13384)
(1035.3561 -852.85361 172.94142)
(1148.9737 -928.21318 139.55847)
(1273.9423 -1001.008 102.78944)
(1407.0365 -1069.501 64.525431)
(1544.864 -1132.2187 26.638397)
(1684.0688 -1188.0277 -9.157859)
(1821.4982 -1236.1966 -41.368434)
(1954.3544 -1276.3952 -68.810579)
(2080.2956 -1308.7216 -90.616485)
(2197.5211 -1333.6431 -106.27455)
(2304.8028 -1351.9717 -115.59262)
(2401.5054 -1364.7829 -118.69121)
(2487.5632 -1373.3488 -115.95852)
(2563.4558 -1379.0542 -108.02101)
(2630.1335 -1383.326 -95.678953)
(2688.9781 -1387.5391 -79.916383)
(2741.6404 -1392.9717 -61.735109)
(2790.1491 -1400.7171 -42.291924)
(2836.2841 -1411.9989 -22.718516)
(2883.4215 -1426.3967 -3.7984809)
(2928.9335 -1444.2639 12.101811)
(2982.4797 -1469.2988 26.654823)
(3038.0413 -1496.2364 37.559355)
(3100.4209 -1527.3647 44.555439)
(3168.9674 -1561.4954 47.997266)
(3243.8761 -1597.6084 47.737075)
(3324.8079 -1634.9451 44.311865)
(3410.8514 -1672.3939 38.257985)
(3500.8394 -1709.0371 30.338325)
(3593.3983 -1744.0073 21.37131)
(3687.0365 -1776.6075 12.160232)
(3780.3401 -1806.3599 3.4404877)
(3872.0175 -1833.0139 -4.1932181)
(3961.0505 -1856.5531 -10.32221)
(4046.6868 -1877.1767 -14.730253)
(4128.526 -1895.2642 -17.379584)
(4206.431 -1911.3242 -18.410766)
(4280.5737 -1925.9436 -18.074792)
(4351.2839 -1939.743 -16.708633)
(4419.0892 -1953.3059 -14.67681)
(4484.5466 -1967.1955 -12.333275)
(4548.3017 -1981.8365 -9.9973375)
(4610.9345 -1997.6349 -7.9451916)
(4673.0356 -2014.7713 -6.3546006)
(4735.0874 -2033.4984 -5.3924165)
(4797.3925 -2053.6954 -5.03568)
(4856.0419 -2073.1473 -5.3794194)
(5039.6785 -2067.8531 -4.9128102)
(5133.1354 -2027.3279 -3.8952528)
(5189.9058 -1970.9506 -2.8033285)
(5220.203 -1903.2272 -2.1217497)
(5219.9698 -1824.3327 -1.2090524)
(5182.3051 -1733.6287 -0.42316936)
(5133.5467 -1640.89 0.56413868)
(5076.4891 -1548.641 1.1980718)
(5002.9738 -1453.4963 2.7182976)
(4955.5836 -1369.3309 3.6575519)
(4946.4874 -1297.7421 5.7487454)
(4964.008 -1234.411 7.0675798)
(5013.1628 -1178.8087 10.021321)
(5100.5055 -1133.5082 12.117481)
(5213.9803 -1091.1052 15.510758)
(5195.9354 -1011.6827 19.635755)
(5144.0844 -990.28381 20.449045)
(5088.4537 -967.6373 22.575897)
(5033.3939 -944.61891 24.4836)
(4979.0854 -921.01841 27.666221)
(4924.1885 -896.12811 30.52089)
(4868.3132 -869.92478 33.167294)
(4810.6964 -842.0311 35.172073)
(4750.5568 -812.22627 36.087054)
(4687.1726 -780.50075 35.707118)
(4619.946 -746.82884 33.744831)
(4548.3636 -711.43125 30.015104)
(4472.1942 -674.60424 24.550613)
(4391.4437 -636.87161 17.507333)
(4306.3379 -598.83988 9.0586416)
(4217.5478 -561.10043 -0.42956303)
(4125.9828 -524.38769 -10.273459)
(4032.8037 -489.37368 -19.907069)
(3939.4217 -456.62941 -28.534137)
(3847.2903 -426.59043 -35.432667)
(3757.8911 -399.47411 -39.913921)
(3672.5552 -375.28442 -41.387895)
(3592.4006 -353.77942 -39.409897)
(3518.2421 -334.4745 -33.78482)
(3450.3565 -316.69177 -24.270129)
(3388.9158 -299.6947 -11.677565)
(3333.8232 -281.85219 4.8713161)
(3281.9634 -264.42515 23.855755)
(3235.5243 -242.19656 43.64367)
(3189.9279 -218.59258 64.739512)
(3144.3859 -190.65376 85.468758)
(3096.3755 -158.26046 104.59679)
(3043.8022 -121.20592 120.96451)
(2984.5013 -79.443722 133.42472)
(2916.5233 -33.29931 140.95551)
(2838.2774 16.59206 142.7138)
(2748.6332 69.272662 138.1091)
(2647.026 123.53242 126.86192)
(2533.5366 177.90241 109.02534)
(2408.9273 230.76845 85.020078)
(2274.6569 280.4046 55.626788)
(2132.8319 325.10302 21.963533)
(1986.1399 363.23595 -14.564732)
(1837.7169 393.38976 -52.331137)
(1691.0054 414.43366 -89.584132)
(1549.5533 425.6302 -124.54734)
(1416.8241 426.68749 -155.53034)
(1295.9829 417.80547 -181.04672)
(1189.6788 399.70664 -199.91161)
(1099.9253 373.57261 -211.3188)
(1027.8737 340.98162 -214.87993)
(973.81073 303.98843 -210.75761)
(937.19987 264.52285 -199.3732)
(916.18918 225.14924 -181.88812)
(909.13402 187.47527 -159.25391)
(912.41595 153.90647 -133.21846)
(923.24788 125.20444 -105.69512)
(938.81957 104.56843 -78.16077)
(951.08767 90.289484 -51.302414)
(964.08208 83.065742 -28.471334)
(970.29505 83.22869 -9.6220805)
(964.98122 91.453375 4.7328757)
(952.29727 101.50575 12.191773)
(927.49936 117.43729 15.061874)
(892.8072 135.17744 11.116998)
(844.85886 154.70806 3.6420658)
(789.70797 169.87703 -9.8604424)
(725.85476 185.88493 -24.913425)
(657.17352 195.47511 -42.422799)
(586.28872 202.34545 -60.601058)
(515.06019 203.91537 -77.795363)
(446.63232 199.29415 -93.015407)
(383.38129 189.60668 -105.34767)
(326.34328 176.77734 -113.86082)
(277.60985 158.67413 -117.45847)
(238.98579 137.59013 -117.04581)
(208.86794 116.00989 -111.33927)
(189.53213 92.428094 -101.52305)
(178.33648 70.6614 -87.588343)
(175.16641 49.020996 -70.092703)
(179.38786 31.812669 -50.491343)
(188.17489 16.190696 -29.353222)
(198.79699 4.0370751 -7.9328773)
(211.12883 -2.9023708 13.201057)
(222.88944 -7.6886598 31.758506)
(229.99505 -8.5341031 47.081814)
(233.31411 -3.9807383 59.253218)
(230.44369 -0.96864164 66.28053)
(220.29421 5.8339411 68.114132)
(202.13821 13.55507 63.788825)
(177.43853 21.606142 55.518416)
(145.02793 26.382137 41.519163)
(109.02333 29.326961 25.534229)
(64.282785 27.73942 6.2487878)
(29.007052 24.264226 -13.520101)
(-6.8708141e-15 1.5083581e-15 1.9262289e-16)
(-1.2504183e-14 5.7375616e-16 8.4327435e-16)
(-8.3449101e-15 1.4891922e-15 5.3018253e-16)
(-4.9731758e-15 1.4991158e-15 6.2376313e-16)
(-3.4146159e-15 1.5624416e-15 3.1576894e-17)
(2.0582335e-15 9.3962624e-16 -5.746342e-16)
(2.2101935e-15 3.7457559e-17 -1.1841335e-16)
(2.4553765e-15 -8.5141669e-16 -9.3419562e-16)
(1.2987427e-15 1.0081898e-16 1.7950851e-15)
(-4.5074861e-15 9.063971e-16 1.0710522e-15)
(-5.2682467e-15 2.1856155e-15 1.0652666e-15)
(-7.4917339e-15 1.915055e-15 2.2418828e-16)
(-9.400838e-15 1.3708275e-15 6.2833768e-16)
(-6.2048683e-15 1.3247981e-15 5.4317906e-16)
(-6.971104e-15 1.5128103e-15 7.5678131e-16)
(-1.2693866e-14 6.2923345e-15 -2.1364834e-15)
(-5.2452578e-15 2.6791924e-15 -5.3037742e-16)
(-1.0752404e-15 9.8318743e-16 -1.0111087e-16)
(-2.7353382e-15 1.7746034e-15 7.3085398e-17)
(1.0178949e-15 -1.5450237e-16 -4.119182e-16)
(-1.4303492e-15 4.136346e-16 -3.3264033e-16)
(-1.0059749e-14 4.7133437e-15 -1.6449855e-15)
(2.9801421e-15 -1.9180379e-15 -8.3172098e-16)
(-4.79756e-15 2.8035442e-15 1.1420498e-15)
(-5.4778068e-15 3.5047253e-15 -3.934403e-16)
(-1.8117877e-15 1.1581936e-15 -9.1309836e-16)
(-3.9812639e-16 4.7407236e-16 -2.2932148e-16)
(-1.5272242e-15 1.100363e-15 -2.2557932e-16)
(-4.1024849e-15 1.9838802e-15 2.8069696e-17)
(-5.3424143e-16 2.551799e-16 -1.9455919e-16)
(4953.7255 -2125.3805 5.194465)
(4953.5316 -2123.874 5.1894643)
(4952.9657 -2122.7812 5.3173535)
(4952.5199 -2122.2561 5.2258702)
(4951.6963 -2121.4036 4.7367133)
(4950.8213 -2120.4447 3.9557946)
(4949.7986 -2119.2875 2.9026944)
(4948.748 -2117.7255 1.6688863)
(4947.6671 -2115.9423 0.29807687)
(4946.6495 -2113.9069 -1.0566561)
(4945.667 -2111.7474 -2.387521)
(4945.0546 -2109.8516 -3.4527699)
(4944.4483 -2108.2336 -4.3495758)
(4944.321 -2106.8918 -4.7931577)
(4944.0294 -2106.3224 -5.3591328)
(5288.5885 -1018.766 13.227921)
(5288.5396 -1019.5934 13.481759)
(5288.2478 -1020.4666 13.703522)
(5287.8643 -1021.5269 14.123154)
(5286.8737 -1022.7668 14.623734)
(5285.6294 -1024.2922 15.236807)
(5284.0466 -1026.0293 15.83994)
(5282.241 -1028.017 16.463449)
(5280.3407 -1030.129 17.062215)
(5278.5385 -1032.3111 17.577373)
(5276.9876 -1034.4269 18.020033)
(5276.0439 -1036.2543 18.270353)
(5275.7182 -1037.8148 18.391139)
(5276.5127 -1038.5691 18.308666)
(5278.1962 -1038.9223 18.253624)
(22.753865 1.7750047 10.800443)
(63.368353 2.3765465 -4.0321908)
(102.46506 3.6343853 -12.129487)
(139.43539 3.7015947 -22.79568)
(170.09195 2.4785652 -31.221825)
(195.24413 0.29591831 -37.090079)
(213.21726 -2.0004814 -40.117982)
(224.39108 -4.099001 -39.528319)
(228.66093 -5.3543178 -35.822695)
(227.18654 -4.6814052 -29.012898)
(220.50222 -2.4729625 -19.310291)
(210.57115 2.4602448 -7.4127061)
(198.72157 9.9031928 6.0225885)
(187.0549 20.250211 20.672411)
(177.33561 32.602291 35.460942)
(171.81725 47.540583 49.713333)
(171.76133 64.230139 62.66045)
(178.85076 82.005079 73.932008)
(194.81978 99.810735 82.576017)
(220.22632 117.36129 88.135679)
(255.1236 133.41879 90.44646)
(300.06205 147.18789 89.251837)
(354.05865 158.24373 84.607208)
(415.77844 165.66409 76.735885)
(484.11369 169.42124 66.091239)
(556.35941 169.33938 53.400912)
(630.30998 165.52915 39.397323)
(703.19563 158.83856 25.096273)
(772.2972 149.69901 11.677346)
(835.19114 139.37202 0.21963763)
(889.08228 128.86461 -8.5977464)
(932.59808 119.5228 -13.232842)
(964.61694 112.50491 -13.653394)
(984.662 109.19554 -9.2306975)
(993.24116 110.1562 0.51977632)
(991.61121 116.47475 14.660593)
(981.86073 128.32176 32.746683)
(967.14161 145.71991 54.356115)
(950.63797 168.2436 77.677055)
(936.15904 194.79064 101.46946)
(927.81158 224.67702 124.37453)
(929.31731 256.12673 144.64005)
(943.76145 287.56166 161.10513)
(974.29313 317.04027 172.33781)
(1022.6847 342.99535 177.60092)
(1089.9588 363.69553 176.38484)
(1176.0983 377.85173 168.61675)
(1280.0699 384.38216 154.67135)
(1399.9089 382.612 135.25792)
(1532.895 372.27304 111.42739)
(1675.6998 353.50381 84.427125)
(1824.6695 326.8154 55.643885)
(1976.0164 293.05912 26.467397)
(2126.0869 253.34311 -1.764042)
(2271.5388 208.97153 -27.869221)
(2409.5263 161.35042 -50.851827)
(2537.8123 111.9211 -69.956968)
(2654.8434 62.064965 -84.666525)
(2759.7727 13.054332 -94.71159)
(2852.4495 -34.023767 -100.0475)
(2933.3444 -78.30028 -100.86127)
(3003.5134 -119.14655 -97.479245)
(3064.4184 -156.26606 -90.459124)
(3117.937 -189.56853 -80.326317)
(3166.0398 -219.0754 -68.058324)
(3210.9468 -245.67349 -54.108284)
(3254.7669 -269.46258 -39.202672)
(3299.5417 -291.11225 -24.794795)
(3346.9221 -311.82741 -10.727705)
(3398.5948 -332.05759 1.5164042)
(3455.2842 -352.87136 12.033349)
(3517.7802 -374.81544 20.114345)
(3586.1802 -398.41167 25.781919)
(3660.2389 -424.00732 28.903908)
(3739.2223 -451.74872 29.669636)
(3822.1026 -481.60121 28.428245)
(3907.6407 -513.30245 25.548374)
(3994.3884 -546.57079 21.57349)
(4081.0158 -580.84029 17.001568)
(4166.1224 -615.78161 12.376687)
(4248.6659 -650.68029 8.056123)
(4327.7157 -685.27701 4.4310138)
(4402.8341 -719.21059 1.7677605)
(4473.7317 -752.1463 0.035951061)
(4540.6267 -783.62971 -0.75467487)
(4603.6693 -814.00119 -0.77607004)
(4663.4802 -842.94105 -0.059034304)
(4720.6969 -870.62785 1.1046679)
(4776.254 -897.15039 2.5754987)
(4830.2238 -922.56335 4.269891)
(4884.5315 -947.12387 5.7508356)
(4938.0744 -971.06338 7.5994117)
(4992.774 -993.94246 8.7660247)
(5048.7538 -1017.3631 10.674023)
(5109.3555 -1039.8756 12.062612)
(24.549904 -0.088658584 3.4628391)
(61.035377 -5.6963088 -3.972856)
(99.985796 -5.6133559 -10.555534)
(134.36842 -6.9949988 -18.593515)
(164.82153 -7.9338343 -25.135559)
(189.70431 -8.9560339 -30.045737)
(207.85429 -9.7805059 -32.324369)
(219.26656 -10.355584 -32.278801)
(224.17552 -9.9524807 -29.444742)
(223.09491 -8.5276407 -24.311278)
(216.85106 -5.4511669 -16.663985)
(207.14475 -0.75539763 -7.4706805)
(195.23186 5.9733151 3.5662834)
(183.05138 14.483442 15.170235)
(172.3023 24.989343 27.380568)
(165.28162 37.001481 38.99788)
(163.32075 50.259988 50.177325)
(168.50839 64.134736 59.607747)
(181.73473 78.132218 67.255262)
(204.47996 91.514022 72.434937)
(237.02882 103.70882 75.068696)
(279.69911 113.97265 74.730293)
(331.75746 121.87744 71.584126)
(392.52844 126.93797 65.696799)
(460.20748 128.94666 57.40636)
(532.9781 128.16672 47.183075)
(608.19431 124.58889 35.776432)
(683.36689 118.88266 24.048828)
(755.48517 111.72159 12.681819)
(821.63688 104.03318 2.6862109)
(879.65388 96.858031 -4.9239448)
(927.21901 91.209751 -9.489266)
(962.86792 88.112435 -10.494915)
(986.12236 88.342743 -7.1797571)
(997.08625 92.939561 0.089769392)
(996.79724 102.01029 11.606065)
(987.75476 115.71627 26.741429)
(972.36083 133.96612 44.656838)
(954.1315 155.80097 64.325377)
(937.46343 180.59838 84.720408)
(925.94385 206.95238 104.12429)
(924.05522 233.4989 121.85426)
(935.43176 258.49638 135.55398)
(962.93384 280.59542 145.38721)
(1008.9999 298.03589 149.92424)
(1074.7624 309.70672 148.90385)
(1160.3364 314.53553 142.2081)
(1264.7447 311.84978 130.19035)
(1385.9673 301.32115 113.46401)
(1521.1548 283.03875 92.977185)
(1666.786 257.41365 69.811344)
(1818.9683 225.19667 45.19318)
(1973.6556 187.38385 20.328284)
(2126.9384 145.15606 -3.624564)
(2275.2458 99.805297 -25.654964)
(2415.5426 52.652589 -44.922741)
(2545.4567 4.9766649 -60.800063)
(2663.3567 -42.051357 -72.869365)
(2768.3803 -87.417708 -80.932058)
(2860.404 -130.32031 -84.98897)
(2939.9927 -170.18262 -85.210917)
(3008.2915 -206.67078 -81.942822)
(3066.9148 -239.75008 -75.62012)
(3117.8183 -269.48521 -66.842377)
(3163.2619 -296.27108 -56.278616)
(3205.2544 -320.99113 -44.263184)
(3247.1814 -343.424 -32.547857)
(3289.4964 -364.96569 -20.235617)
(3334.5581 -386.36133 -8.8465551)
(3383.7853 -408.16284 1.3701998)
(3438.2275 -430.91187 9.8287711)
(3498.3238 -455.17297 16.438242)
(3564.2435 -481.08725 20.95464)
(3635.5625 -508.84726 23.431348)
(3711.6179 -538.28783 24.027041)
(3791.3121 -569.28149 23.010643)
(3873.4171 -601.39737 20.704875)
(3956.5301 -634.3258 17.594279)
(4039.3501 -667.49602 13.983413)
(4120.5393 -700.66768 10.411889)
(4199.2045 -733.2275 7.0440806)
(4274.4478 -765.14437 4.2646397)
(4345.7758 -795.93476 2.2523747)
(4407.7785 -824.19883 0.97291729)
(4467.9567 -852.24691 0.64482511)
(4527.6823 -879.5417 0.7970714)
(4584.4146 -905.69203 1.4353861)
(4638.8256 -930.75369 2.5146785)
(4691.7747 -955.02047 3.7494942)
(4743.5456 -978.24589 5.3051156)
(4795.5731 -1001.1251 6.5467829)
(4847.6074 -1023.3707 8.4537682)
(4900.3524 -1044.5799 9.2829723)
(4955.4386 -1067.1464 11.613812)
(5013.7201 -1088.1633 12.354493)
(26.730075 -2.7865874 0.59479061)
(62.181423 -7.2598636 -5.461068)
(97.809885 -9.3543822 -9.2526234)
(130.95811 -11.530083 -15.033793)
(160.76827 -12.770408 -19.730495)
(185.24744 -13.50706 -23.020678)
(203.16571 -13.990505 -24.922702)
(215.08662 -13.717112 -24.715262)
(220.15814 -12.936452 -22.767292)
(219.44761 -10.840317 -18.633811)
(213.64522 -7.9559781 -13.088018)
(204.12023 -3.3142148 -5.6947471)
(192.09682 2.3703197 2.4922294)
(179.60368 9.8934842 11.76336)
(168.34006 18.435557 21.058895)
(160.22418 28.315667 30.594931)
(157.12316 38.876466 39.202225)
(160.64723 49.927785 46.994473)
(172.35437 60.798396 53.231543)
(193.3245 71.054336 57.743583)
(224.24997 80.152737 60.114833)
(265.2958 87.512791 60.284622)
(316.2408 92.867381 58.145779)
(376.08481 95.794709 53.822303)
(443.48592 96.361811 47.511821)
(516.37373 94.479292 39.646276)
(592.42966 90.601774 30.738077)
(668.76941 85.196676 21.311116)
(742.57367 78.925592 12.188299)
(810.98937 72.650725 4.1133896)
(871.23917 67.208154 -2.2748629)
(921.0393 63.613933 -6.2996272)
(959.00139 62.589257 -7.2949652)
(984.09125 65.039226 -5.1212266)
(996.40905 71.212416 0.59731784)
(997.04711 81.550322 9.6762436)
(987.84082 95.92301 21.514951)
(971.7475 113.86805 35.847168)
(952.45323 134.67239 51.79908)
(933.69414 156.9955 68.088839)
(919.96144 180.09586 84.107736)
(915.53394 202.03714 98.235374)
(924.33626 221.58759 109.7637)
(949.54793 237.35748 117.56244)
(993.6032 247.90777 121.28076)
(1057.8474 252.21915 120.35756)
(1142.4959 249.58134 114.80872)
(1246.5656 239.5648 104.88554)
(1368.0294 222.14443 91.143858)
(1503.9412 197.64266 74.349797)
(1650.6834 166.69 55.414311)
(1804.2038 130.20056 35.353021)
(1960.3178 89.265928 15.146358)
(2114.9588 45.115322 -4.2547932)
(2264.4273 -0.98516359 -22.043404)
(2405.5775 -47.793659 -37.5447)
(2535.9631 -94.162949 -50.266)
(2653.9112 -139.09194 -59.886672)
(2758.5493 -181.77292 -66.266798)
(2849.7862 -221.62008 -69.408793)
(2928.2242 -258.28135 -69.488337)
(2995.0765 -291.64473 -66.764305)
(3052.0493 -321.83161 -61.63004)
(3101.1324 -349.08834 -54.584231)
(3144.7492 -374.05297 -45.968331)
(3184.6292 -397.0821 -36.698772)
(3223.9927 -419.01166 -26.656885)
(3267.698 -441.15878 -16.84359)
(3309.8934 -462.84798 -7.9603189)
(3357.2682 -485.34936 -0.13390284)
(3409.6121 -509.18343 6.5156635)
(3467.603 -534.38279 11.621487)
(3531.2766 -561.189 15.166999)
(3600.2433 -589.55935 17.158335)
(3673.7391 -619.36241 17.663254)
(3750.7193 -650.23608 17.050517)
(3829.9645 -681.8413 15.466824)
(3910.1384 -713.77164 13.315251)
(3989.9843 -745.58593 10.858355)
(4068.301 -776.94924 8.4256328)
(4144.1558 -807.53 6.1830708)
(4216.8066 -837.19069 4.4632085)
(4285.9018 -865.64487 3.0818042)
(4351.1483 -892.84982 2.3800899)
(4404.5581 -917.46883 2.0726192)
(4463.0217 -942.85844 2.4343823)
(4518.6046 -966.98156 2.8887524)
(4572.2043 -990.32775 3.778325)
(4624.54 -1012.9256 4.6643596)
(4675.7339 -1034.9285 5.9006704)
(4727.6867 -1056.5879 6.8232702)
(4779.2381 -1077.9023 8.3135632)
(4832.0602 -1098.5112 9.2195468)
(4887.2533 -1120.5407 11.000822)
(4943.9973 -1141.0467 12.190909)
(29.999771 -3.1875236 -2.2333842)
(64.633928 -7.6588628 -5.8079093)
(99.161789 -10.412166 -8.6355764)
(131.21354 -13.012024 -12.541871)
(159.98446 -14.783992 -15.548583)
(183.52953 -16.128262 -17.942041)
(201.47072 -16.566473 -19.175067)
(212.90965 -16.635183 -19.028343)
(217.95005 -15.773348 -17.275059)
(217.31461 -14.137338 -14.50146)
(211.49981 -11.366825 -10.015636)
(201.77467 -7.5142891 -4.8408727)
(189.69263 -2.4601366 1.621093)
(176.98294 3.8476187 8.2480603)
(165.24692 11.058337 15.61007)
(156.74434 19.317476 22.458944)
(152.96254 27.987074 29.236597)
(155.93717 36.933805 35.051661)
(166.89667 45.562103 39.939952)
(187.23649 53.531829 43.358337)
(217.44888 60.294721 45.339254)
(258.04401 65.512621 45.564235)
(308.49786 68.799839 44.119827)
(368.14041 70.022394 40.976371)
(435.37641 69.058799 36.375823)
(508.3556 66.141887 30.549924)
(584.52054 61.564063 23.866963)
(661.21787 55.799985 16.87728)
(735.41436 49.563133 10.036713)
(804.20268 43.592119 3.9250644)
(864.84129 38.75665 -0.91400414)
(915.10231 35.803568 -3.8956985)
(953.22181 35.537517 -4.7417453)
(978.33106 38.479905 -3.0337532)
(990.54066 45.012083 1.2775167)
(990.70316 55.321329 8.0378015)
(980.78907 68.987074 17.189369)
(963.90644 85.522715 28.333999)
(943.31851 104.00834 40.288165)
(923.35951 124.12261 53.023487)
(908.35397 143.72816 64.955078)
(902.54702 161.82482 75.719561)
(909.9286 176.88399 84.249549)
(933.82737 187.6045 90.053016)
(976.54895 192.81374 92.63487)
(1039.497 191.58632 91.651063)
(1122.9 183.41028 87.122618)
(1225.7777 168.04133 79.269369)
(1346.0995 145.61929 68.524754)
(1480.9251 116.62668 55.484415)
(1626.621 81.823863 40.868938)
(1779.1366 42.217733 25.439242)
(1934.2791 -1.0400091 9.9519838)
(2087.9779 -46.695382 -4.8826758)
(2236.5294 -93.508096 -18.459759)
(2376.787 -140.28269 -30.276642)
(2506.302 -185.96042 -39.972784)
(2623.4024 -229.65015 -47.313414)
(2727.2209 -270.67383 -52.189149)
(2817.6661 -308.57981 -54.617041)
(2895.3394 -343.16507 -54.710765)
(2961.4798 -374.4309 -52.671544)
(3017.7464 -402.61526 -48.817888)
(3066.2332 -428.13288 -43.406826)
(3109.0566 -451.49633 -36.975356)
(3148.7442 -473.33051 -29.699424)
(3187.1957 -494.29962 -22.24392)
(3226.5329 -515.30708 -14.875524)
(3268.8101 -536.53508 -7.9394111)
(3315.1675 -558.76611 -1.7064578)
(3366.5143 -582.36885 3.6001775)
(3423.3875 -607.38592 7.7183127)
(3485.7864 -634.18759 10.651644)
(3553.3164 -662.55358 12.40423)
(3625.3793 -692.09022 13.194967)
(3700.8748 -722.7028 13.002986)