/*--------------------------------*- C++ -*----------------------------------*\
  =========                 |
  \\      /  F ield         | OpenFOAM: The Open Source CFD Toolbox
   \\    /   O peration     | Website:  https://openfoam.org
    \\  /    A nd           | Version:  6
     \\/     M anipulation  |
\*---------------------------------------------------------------------------*/
FoamFile
{
    version     2.0;
    format      ascii;
    class       pointScalarField;
    location    "1.79";
    object      E;
}
// * * * * * * * * * * * * * * * * * * * * * * * * * * * * * * * * * * * * * //

dimensions      [1 -1 -2 0 0 0 0];

internalField   nonuniform List<scalar> 
28033
(
1246.8518
-7.795129
29558.362
28881.623
1547.9986
4763.2204
29963.569
30297.917
32.80437
-263.86729
-495.48193
310.37159
-175.87157
154.37917
64.365359
177.21376
1.7253735
63.020682
-376.47702
-36.645552
-147.16003
-268.63562
-1154.8046
31317.158
30265.102
30142.036
29551.428
28944.283
28978.052
27866.144
28380
28195.702
27925.058
28618.193
28443.764
28962.595
29625.214
30495.017
1367.0612
564.97436
95.756342
-85.663393
124.24063
86.191633
148.1611
-79.360582
244.50933
-94.676534
225.94737
125.47818
133.50278
55.888105
-89.172647
-289.23197
-578.27407
-415.46129
-641.19176
-585.29926
-538.245
-551.00736
-395.86426
-199.44107
-398.34394
-113.77004
-343.15631
-142.1303
-487.35659
-374.62565
-354.05451
-654.45851
-839.7149
-752.95853
-848.4555
-519.74846
-951.19877
-678.41727
-847.4402
-993.91285
-1130.5085
-1181.0281
-1282.323
-1224.5593
-1109.834
-790.07283
-595.75574
-42.407442
213.93547
788.69815
1058.3116
1523.9606
1767.657
2100.0641
2333.0659
2619.7354
2877.0512
3194.0605
3508.9116
3876.6116
4230.4986
4638.7966
4966.9098
5451.8686
5835.5559
6249.5693
6742.5444
7188.0653
7765.564
8556.7921
9118.2915
9880.7334
10501.526
11307.231
12008.973
12766.467
13462.161
14317.821
14957.038
15773.351
16640.784
17408.796
18442.365
19007.299
20198.742
20884.785
22120.592
22834.228
24218.944
24780.214
26392.712
26709.918
28503.621
28855.083
29874.916
8114.1935
-3825.4445
5281.6269
-976.70745
2429.3985
1620.5498
1184.3643
1178.135
1714.1302
1015.3845
1983.4239
1443.8481
2396.8004
1973.1848
2402.7529
2172.9047
2296.6495
2020.3997
1975.2163
1987.2315
1543.5576
1910.4572
1353.0727
2417.2168
1731.8857
2630.6978
1914.5892
2422.267
1761.4383
1967.7655
1176.6785
1199.7562
735.50503
617.37456
375.03783
517.14972
422.54426
466.70623
371.17231
746.1581
673.42832
934.7824
973.63911
1253.8716
1325.4143
1688.7332
1878.0539
2299.8098
2616.5064
3045.3315
3393.1678
3769.0835
4016.9519
4289.1039
4406.4245
4551.7253
4627.4442
4732.7234
4858.2564
5072.7768
5330.6771
5706.2076
6142.9264
6653.2039
7216.651
7789.964
8436.1859
9088.9274
9856.5312
10369.205
11167.045
11723.048
12688.154
13220.951
14128.089
14801.442
15508.539
16300.76
16908.267
17643.506
18337.458
18960.386
19792.344
20473.821
21383.186
22197.857
23201.394
24097.193
25148.085
26083.93
27066.803
27929.037
28753.452
29448.245
29881.125
382.42436
147.05592
-560.4049
630.08201
-192.63329
121.7693
132.89953
-28.942178
20.923942
-145.63177
-149.66621
-362.81712
-670.60955
-1344.9941
-395.69685
5474.1308
10831.329
-10549.934
4601.0663
-403.81947
-640.05026
1361.3412
1043.497
1729.4916
2250.4329
1898.9361
1158.5045
2943.9234
393.8294
2923.0714
416.12315
3940.372
-396.68994
3567.1659
174.80998
2366.5338
3090.1075
1640.4485
3608.3442
1191.5477
3385.0559
2425.4144
2245.0928
2896.0097
477.0038
774.64388
660.26194
465.32335
861.94511
1154.993
2788.47
1032.0752
2513.024
2399.5321
2506.4277
2538.944
2461.7358
2441.4917
2432.9874
2620.9252
2841.2807
3237.4247
3639.636
4078.8426
4421.554
4674.0641
4772.827
4767.0584
4639.1153
4531.8329
4441.0658
4479.275
4690.6501
5051.9006
5623.6503
6262.6644
7036.0251
7756.6799
8482.8731
9117.5951
9676.5927
10248.879
10433.855
11129.906
11599.695
12195.115
12637.43
13307.066
13934.067
14535.46
15103.72
15636.062
16151.757
16592.433
17129.633
17641.591
18326.749
19008.506
19906.91
20751.042
21786.153
22699.524
23719.628
24565.595
25448.672
26168.525
26880.644
27587.603
28090.184
29360.818
30851.036
30691.714
29337.655
28819.885
28816.359
27905.734
28116.785
27533.691
29146.493
27372.609
29126.254
27688.195
31041.53
28695.8
31572.464
30787.611
28412.325
28783.082
27343.791
26654.858
25541.039
24591.385
23565.513
22511.661
21558.218
20544.908
19655.804
18856.808
17946.326
17234.836
16480.942
15772.922
15075.744
14366.992
13661.503
12963.92
12249.903
11587.018
10835.969
10425.855
9535.2083
9084.9997
7421.7103
8201.9541
7173.6056
6785.7198
6156.0076
5606.3368
5092.2042
4615.7307
4215.4141
3875.1242
3615.2405
3400.4956
3241.148
3074.9187
2928.696
2722.6787
2513.1654
2228.8082
1950.1571
1623.5016
1329.6226
1036.5928
811.27734
563.90173
483.70601
274.23839
220.30082
38.023023
57.021704
-584.07846
-59.667467
-683.07676
-882.8793
-73.477645
-830.87348
-565.65873
-628.60636
-47.174519
186.18592
-230.11791
294.2975
-231.67205
445.76265
487.01065
196.68548
-764.51006
633.39411
-380.91607
-409.76163
175.66268
-263.30831
688.49064
282.40219
242.52823
-162.01571
1258.5181
-700.88416
1860.8052
-8.3684907
-357.4642
-260.26941
1026.5872
18.430057
-807.034
939.90418
2431.7997
-2648.3219
5949.3041
262.20766
1096.7818
432.13593
1017.1135
265.09022
1130.5453
-15.902281
1058.8168
520.52893
847.78423
404.82061
367.98914
226.5968
481.27095
-1288.2569
-1581.4966
-1144.0776
-2675.903
-1377.2833
-1564.8515
-2846.9765
-1763.1293
-1399.9938
-2476.3267
-1367.287
-1506.1874
-1782.6196
-1846.7466
-2398.6267
-2741.2368
29749.983
29733.176
29767.25
29673.692
29665.35
29630.356
29628.976
29627.689
29691.047
29733.456
29834.15
29817.007
29915.834
29575.809
30409.165
30585.556
30187.757
30514.018
30203.603
30421.275
30334.872
30330.129
30294.875
30311.024
30274.769
30360.981
30249.877
30334.851
30158.436
30746.381
3383.113
-661.04814
108.64158
-15.551199
-182.6964
170.9141
-85.452485
287.25473
-160.59191
458.92647
-504.04324
114.97498
-828.67668
-83.799305
-1116.2816
-255.19339
-589.32845
-197.06791
-345.6485
-7.5747755
-101.80804
-176.06296
-151.77185
-710.51142
-692.96415
-1129.9254
-1164.0765
-1473.3946
-1205.8929
-1086.4823
-867.50924
-430.41274
191.74683
550.00109
1102.2984
1100.6104
1425.5896
1418.6109
1643.3363
1585.4765
1878.7006
1851.9355
2032.8207
2235.7442
2154.0718
2230.9383
2075.1268
1958.9268
1698.1347
1524.9086
1310.2449
1271.4554
1329.3898
1607.5654
2053.6139
2684.5283
3438.9322
4273.2425
5122.2154
5933.8552
6657.8145
7307.5442
7796.6772
8273.1365
8554.1103
8858.3658
9320.9288
9475.2402
9955.289
9893.9465
10302.763
10514.043
10861.596
11202.258
11561.563
12004.604
12551.868
13121.16
13925.475
14684.182
15741.046
16692.369
17811.706
18861.102
19884.568
21072.888
22049.191
23063.208
24091.637
24867.11
26102.031
26693.932
28195.307
28728.929
30299.964
2608.9492
-900.76185
447.06349
-677.02006
390.48485
-161.29045
300.50914
47.28538
192.78672
0.86099419
58.676066
-80.521831
-163.05444
-283.85474
-310.14236
-99.498201
-578.4349
-128.29634
-295.37836
-70.538566
-243.57857
-108.88664
-373.60177
-287.13662
-501.24682
-560.70968
-696.82759
-698.845
-726.35189
-677.31787
-519.68541
-278.91842
-283.59817
-156.13228
60.380421
144.51692
424.78944
625.86103
628.6759
643.4694
720.90367
798.76793
985.16699
962.89664
1065.4224
1234.9099
1306.7157
1409.8876
1511.1959
1578.9062
1669.5262
1796.9344
1956.6495
2198.1966
2503.1051
2900.1435
3347.5098
3864.3205
4402.219
4943.4785
5477.8802
5985.3993
6452.1014
6893.6725
7377.3487
7806.4726
8112.3257
9111.6268
9361.5814
9843.3862
10457.782
10863.472
11302.005
11786.674
12285.344
12844.817
13451.57
14103.865
14889.308
15562.94
16587.281
17248.129
18418.522
18919.566
20633.624
21491.854
22717.907
23396.987
24795.113
25311.928
26777.747
27214.051
28825.178
28487.995
31176.201
2145.5216
-917.29369
559.71666
-498.26293
136.17482
-193.1559
12.622722
215.97802
165.33134
327.96261
68.148375
309.3702
-98.428634
198.51877
-145.10144
-8.9356727
-19.646111
195.0663
26.451129
246.55729
201.8743
305.66471
266.69377
217.96033
97.873034
-12.21737
-23.125374
-185.33751
-50.934344
-89.285447
117.39164
57.29903
415.63135
515.39452
745.24437
832.86493
779.76997
568.10343
768.03449
762.20562
958.49489
1006.8519
985.27229
1231.8321
1434.3335
1551.6649
1666.3754
1769.6757
1845.8561
1874.4173
1981.9313
2060.1629
2251.2513
2486.2831
2838.2605
3251.0746
3752.3057
4291.9173
4854.8695
5409.9524
5948.4802
6457.5259
6894.1539
7364.4659
7741.0028
8085.4281
8635.4695
8871.429
9559.7529
9789.282
10325.162
10620.85
11221.732
11721.945
12288.488
12832.668
13449.612
14156.556
14829.192
15627.377
16490.865
17324.876
18176.994
19479.152
20226.723
20840.335
21687.342
22779.333
23725.582
24526.082
25807.785
26272.92
27798.434
27806.36
31425.981
1148.9605
-147.83572
108.32728
-23.250165
67.489223
-58.888756
162.71557
73.297413
-17.417063
-4.8348156
18.850313
-80.123553
-232.33346
-52.822114
-474.17794
-37.782237
-559.48611
-134.04329
-496.05008
-41.721586
-458.01941
-110.68601
-520.95973
-285.38089
-595.96037
-455.90457
-728.61956
-580.12752
-743.31306
-620.63049
-660.51983
-459.15753
-364.66295
-342.74663
-105.87942
-140.19032
96.394003
717.33253
688.76324
731.4989
750.14901
894.33135
1014.2661
1118.4611
1164.2275
1282.9405
1437.0092
1585.279
1745.6379
1913.5135
2101.4297
2275.6509
2500.5524
2725.6438
3002.3866
3310.1015
3664.9726
4049.9759
4480.2847
4921.3085
5391.5008
5854.5343
6301.174
6792.4036
7218.1698
7673.2127
8135.0709
8504.2502
9127.8839
9285.8966
10098.084
10561.931
10881.191
11235.357
11841.33
12393.265
13017.271
13619.623
14358.879
15047.327
15908.661
16627.074
17781.618
18396.121
19687.558
20460.009
22117.01
22712.916
24235.58
24720.85
26383.927
26510.174
28690.416
27695.368
32300.913
1173.6371
-611.14637
384.90629
-547.06618
174.47485
-324.59946
189.12227
-143.46211
184.10876
116.83809
88.305978
22.11315
23.549066
-56.728439
-115.36862
-42.706268
-153.71734
101.29291
-117.26634
161.98642
-82.31024
255.13136
-51.014775
233.10733
-88.541791
12.568562
-108.06052
-144.03002
-150.0358
-124.14266
-16.246252
34.488219
140.56298
267.6846
373.18685
387.89528
625.38426
68.337125
71.138692
78.966067
415.83449
370.38443
534.77994
717.05852
918.88552
1106.4595
1301.3559
1433.902
1609.9213
1750.547
1930.9902
2091.9041
2338.8339
2563.5792
2883.6529
3207.1134
3592.1812
3990.3823
4419.8142
4855.7758
5292.5609
5736.4765
6175.0229
6658.1773
6992.4075
7583.079
8009.9318
8302.3938
8945.2025
9396.8215
10099.302
10399.685
11281.138
12331.182
12767.092
13395.643
13935.085
14639.837
15306.909
16043.902
16857.863
17695.877
18516.501
19561.135
20364.248
21413.659
22076.981
23061.123
23930.527
24772.872
25880.097
26565.836
28195.994
27575.665
32738.732
620.67168
-239.47449
299.37146
-13.949856
59.368963
35.748661
-19.241964
6.0973881
4.9846711
-51.948152
-58.188852
-14.376776
-204.30752
-40.385623
-325.11215
-107.11694
-408.40435
-118.38117
-435.54112
-15.836367
-372.84299
13.810951
-381.71597
-38.963673
-494.37733
-92.794188
-562.83893
-245.44914
-507.92364
-315.25192
-434.41429
-335.55602
-274.49473
-226.70886
-163.73642
-44.10632
19.519529
393.89593
349.50238
669.05591
589.57856
818.04528
806.15723
1023.2546
1128.8676
1281.1555
1382.801
1554.8397
1694.0777
1868.5427
2046.6463
2258.4677
2486.2519
2756.1465
3048.4086
3381.6316
3732.1489
4106.809
4510.5984
4904.1065
5303.7105
5768.0733
6143.665
6532.541
7117.9628
7392.8295
7918.6736
8379.4265
8911.5963
9323.8328
9814.1606
10349.8
10880.802
10849.985
11317.15
11880.545
12536.954
13182.977
13902.047
14620.538
15488.827
16171.984
17303.718
17898.203
19217.369
19859.118
21360.321
22038.597
23653.715
24193.468
26035.659
26222.219
28423.657
27692.519
33026.153
454.76653
-546.82407
457.51383
-533.63088
156.78089
-341.22802
92.575134
-234.04692
115.35032
-142.73211
77.792667
-216.7046
-66.137645
-280.62305
-261.87507
-292.46566
-329.75293
-241.99693
-347.13005
-101.13902
-359.0012
14.453238
-368.61142
-37.116387
-332.37166
-188.93715
-432.94647
-278.03203
-499.53328
-331.76868
-426.28838
-241.02705
-221.4873
-148.17361
-44.063166
28.887651
-53.342987
41.964345
-59.791656
209.92181
77.510683
268.56452
331.03356
515.1816
693.49753
868.9244
1143.2827
1311.8308
1562.6636
1720.5661
1961.253
2119.8889
2379.0932
2592.7124
2904.0539
3202.2921
3588.2941
3970.832
4414.4248
4826.1417
5336.6502
5739.965
6202.1379
6750.2751
7095.624
7671.9947
8128.4649
8654.3604
9166.5076
9654.1883
10392.116
10699.615
11480.814
12073.012
12854.108
13482.879
14146.876
14750.367
15497.056
16189.673
16977.691
17855.711
18629.447
19647.268
20473.557
21475.122
22306.8
23269.096
24154.363
24931.573
25993.59
26511.332
28459.03
27587.158
33375.291
370.69967
-203.71657
358.6548
-20.41779
162.8601
3.1976506
72.591564
-53.619934
98.957581
-39.404357
27.683145
27.030714
-2.6873009
-0.98912638
-34.626316
-31.00221
-92.222971
-18.358682
-94.125925
28.84347
-188.76536
-5.7566856
-272.57262
140.98802
-395.15064
65.782275
-371.26024
-65.001898
-371.61508
-133.58913
-335.43367
-165.64441
-290.84549
-153.31883
-104.32691
-181.22427
78.455362
-14.640807
144.32815
216.88402
226.92704
382.21646
488.50644
624.99092
704.8686
912.42407
1022.0758
1221.5698
1373.157
1575.7295
1740.2654
1950.1684
2154.6444
2381.4597
2641.4783
2922.8171
3247.101
3588.0581
3963.4797
4380.2596
4775.6062
5201.942
5687.6895
6049.0249
6557.78
6974.3998
7452.0505
7907.8965
8400.3647
8925.144
9341.2113
9926.6724
10496.258
10811.919
11202.246
11702.637
12331.538
12948.434
13676.485
14319.049
15215.114
15836.281
16917.666
17551.112
18769.604
19479.133
20826.767
21598.715
23041.52
23842.225
25546.424
26219.336
28283.033
27825.271
33121.021
201.21616
-715.63805
295.97766
-623.93862
-111.52987
-598.89492
-142.92648
-525.05416
-111.52669
-485.47419
-179.24921
-526.36039
-423.17814
-693.24962
-668.4461
-848.59397
-793.1236
-889.51826
-831.54893
-752.7931
-727.48956
-393.13599
-466.87773
-424.27292
-576.64798
-402.44056
-746.96439
-544.77192
-829.68246
-634.46726
-792.39024
-606.37133
-639.57082
-426.80559
-593.11523
-247.8852
-478.98983
-272.05789
-384.34093
-324.09684
-288.89302
-249.12917
-98.374014
-21.521203
259.34993
418.26182
711.51275
900.74004
1187.0048
1367.6259
1627.1662
1810.6251
2064.2831
2283.4416
2583.7233
2875.6878
3250.165
3611.0693
4071.1546
4469.9292
4939.6904
5412.8149
5824.8382
6325.5024
6770.2123
7273.5901
7731.0752
8259.2186
8800.7521
9315.5407
9960.957
10518.59
11166.696
11802.076
12808.314
13343.919
14059.747
14713.431
15399.205
16170.643
16865.248
17788.176
18525.928
19548.625
20372.692
21406.978
22276.159
23309.218
24175.334
25178.179
26080.815
26792.131
28408.29
27911.615
33022.176
727.60473
-332.02381
725.93641
-196.03033
388.49271
44.089912
345.45526
63.526059
293.23336
269.16352
300.27464
315.90382
379.34466
307.59478
400.4937
255.40137
377.94665
212.53376
391.493
262.25879
265.05041
138.70888
-80.855828
126.24055
-56.643015
96.896361
-153.01704
97.669316
-209.13795
42.309413
-213.14943
-10.440589
-109.13747
-93.632633
82.403919
-12.014901
127.63152
159.31677
185.96044
339.14324
354.05446
523.13193
563.97095
783.0108
826.95981
1059.9139
1166.583
1388.6078
1531.1078
1743.7776
1905.2158
2110.9696
2309.5978
2539.9518
2788.0305
3077.8591
3387.2708
3748.1155
4127.6155
4523.2415
4979.3593
5392.4382
5857.1749
6312.6031
6783.1476
7205.5949
7714.5142
8189.6173
8667.3452
9166.3368
9653.2014
10152.859
10644.622
11117.083
11739.33
12027.625
12849.371
13283.271
14151.276
14713.539
15681.469
16305.851
17383.734
18061.723
19233.14
19938.573
21231.506
21938.094
23337.436
24093.531
25527.034
26446.179
28069.463
28436.713
32959.052
407.4983
-673.28746
97.793026
-899.71807
-201.16778
-749.57784
-388.8867
-680.70377
-321.89311
-575.21985
-518.02679
-650.96114
-667.37339
-904.58815
-783.33101
-1139.8004
-759.15345
-1213.7583
-738.00058
-1126.6011
-631.22696
-1292.2144
-848.0588
-839.18622
-953.18399
-1018.6802
-1139.6953
-1234.1551
-1434.0745
-1402.3902
-1582.1446
-1384.9582
-1589.9721
-1189.1085
-1440.6378
-1113.315
-1176.9752
-1024.7865
-967.91616
-944.30995
-810.03136
-809.57713
-594.91248
-520.20632
-258.98135
-94.43304
186.71841
356.44866
620.58378
775.97358
982.10148
1120.9531
1312.6148
1468.0033
1703.8823
1946.2629
2276.9187
2635.5824
3069.6271
3532.9491
4031.9183
4551.7333
5066.3385
5626.7815
6116.909
6709.1451
7232.9615
7780.4217
8329.7861
8916.0675
9512.631
10101.728
10697.856
11468.397
12077.918
12864.165
13333.528
14125.267
14728.444
15523.238
16276.913
17157.435
18025.08
19018.363
19966.639
21062.369
22044.761
23197.061
24192.32
25319.421
26390.327
27296.72
28645.577
28949.435
32042.136
1041.2723
-907.63545
61.859515
-396.53879
163.429
-79.211384
332.70924
170.25404
428.57437
460.49577
448.21448
458.62091
595.75557
356.99577
471.9451
413.02591
423.41251
361.7594
512.18352
400.97969
467.05237
647.28595
543.55451
340.21705
345.38337
373.70114
278.9273
399.86275
316.8155
461.56632
464.97829
516.1651
675.4398
704.78238
859.55241
1012.5921
992.30236
1159.8827
1046.8729
1213.1977
1074.6256
1246.7686
1143.6206
1336.2982
1325.1292
1531.1681
1633.7515
1852.8015
2028.4302
2261.5076
2467.2157
2719.5509
2965.4293
3250.5803
3557.9081
3911.6622
4287.2882
4706.7704
5148.055
5595.0582
6056.5559
6505.354
6933.7524
7352.7443
7746.1243
8132.0011
8509.5456
8906.7485
9328.1534
9764.607
10191.439
10618.766
11219.628
11489.237
12135.397
12612.565
13170.658
13826.85
14509.217
15217.04
16040.664
16797.441
17686.635
18510.712
19450.45
20285.478
21273.598
22104.441
23113.291
24032.789
25078.488
26162.8
27744.674
28531.817
32104.955
1242.8898
-781.23912
188.67036
-545.23456
-453.99311
-778.51677
-498.08117
-922.61296
-624.07182
-886.57422
-866.65141
-876.52891
-1158.7683
-1128.8416
-1301.9651
-1440.4383
-1404.6899
-1631.393
-1352.6237
-1678.8907
-1324.6984
-1649.3359
-1367.5306
-1662.9319
-1350.3138
-1834.7272
-1759.4596
-2116.545
-2247.1253
-2314.4957
-2539.6611
-2337.2151
-2520.0833
-2198.6633
-2239.901
-1998.395
-1882.6467
-1755.0103
-1548.6525
-1531.617
-1299.9666
-1259.4982
-1037.713
-904.78071
-679.59471
-507.50874
-271.02133
-134.65089
55.156757
142.55434
256.17093
312.99083
412.04234
504.43324
685.62462
911.70349
1241.5784
1650.138
2138.4154
2692.8485
3285.9633
3914.6922
4515.5973
5178.2348
5721.036
6383.3594
6879.0043
7489.2203
8019.7674
8575.8
9064.8641
9747.804
10074.243
10841.136
11231.984
11954.722
12430.912
13086.443
13683.331
14473.607
15221.212
16148.371
17082.723
18178.352
19226.386
20456.735
21575.022
22858.225
24029.651
25272.618
26479.796
27609.976
28790.968
29508.843
31370.814
1775.5519
-1454.0383
44.96569
-1034.3918
-23.459254
-300.95705
61.471728
113.76829
394.76707
418.4809
562.51376
429.80973
613.81152
441.411
435.01855
345.60712
356.89906
152.52101
593.01461
231.40151
775.26247
555.98595
667.89399
576.90739
513.37675
446.27617
445.48137
219.73673
201.55848
-32.846481
45.525851
-32.508756
114.56154
302.83573
292.99365
594.96092
607.8865
871.47777
771.29845
997.01078
873.19538
1031.5582
966.92045
1129.0004
1177.2493
1389.4284
1550.1718
1790.9939
1998.6891
2227.1975
2412.2014
2600.7889
2767.5848
2948.7713
3150.9651
3406.4291
3714.5322
4088.7772
4529.4401
5014.9607
5530.772
6067.3549
6595.5955
7106.2338
7593.833
8104.6895
8545.9574
9075.7462
9476.977
9936.7701
10513.323
10890.079
11553.234
11972.679
12571.287
13059.089
13684.137
14239.806
14910.087
15570.506
16319.993
17105.287
17994.144
18861.751
19870.448
20789.015
21846.226
22763.411
23786.373
24693.069
25626.067
26569.75
27558.733
28790.856
30610.109
3347.15
-2857.4908
104.97388
-1518.1092
-218.88855
-986.4188
-394.318
-559.06949
-684.75439
-740.18363
-1436.4295
-1356.8855
-1803.6914
-1896.9627
-1826.9949
-1969.8047
-1535.539
-1871.1201
-1165.1646
-1862.052
-1078.514
-2248.3577
-1655.2129
-2800.0131
-2437.8901
-2952.4186
-2698.8703
-2623.4657
-2225.8106
-1646.4135
-1276.0756
-539.10362
-154.50096
321.0596
391.57794
751.46119
798.87155
804.62536
879.17103
773.38671
835.77327
787.3008
836.68867
801.03415
787.41557
669.82279
570.71418
387.97037
281.57476
195.72302
252.17899
449.8367
849.85795
1404.075
2155.0783
2999.7297
3908.2546
4821.6524
5665.7002
6404.7294
7022.1806
7515.7943
7865.363
8161.7777
8361.1723
8568.3911
8616.7795
8851.9909
8855.626
9252.1984
9230.5202
9652.1854
9710.0147
10211.023
10504.981
11163.08
11764.022
12610.89
13553.312
14630.468
15716.526
16971.044
18045.693
19308.868
20304.317
21467.253
22373.104
23446.499
24361.953
25397.601
26446.778
27613.871
28669.978
30114.31
30926.105
-993.23184
-355.55901
-1106.811
-1249.3234
-1332.6008
-1181.0276
-1257.5844
-1107.2411
-1241.2537
-555.53426
-1094.1931
-955.09406
-530.01401
-602.27815
-1467.3262
203.60169
120.15301
-178.54652
88.926015
-278.12876
-192.58512
-322.43954
-372.79332
-110.88921
-330.17817
-297.87661
19.478273
-246.83685
87.959851
-705.80331
-104.31302
-571.19698
-977.06094
-816.2092
-1026.8016
-1073.5736
-981.66144
-1145.5054
-1089.2852
-1052.5433
-941.91566
-1132.5656
-1059.3575
-734.94713
-1090.7076
-23.470828
82.037003
-42.132782
-240.26902
-165.08479
-245.3788
-239.18334
-289.97732
-149.44604
-250.80579
-131.89903
-185.47819
-58.247722
202.80692
-839.41382
-139.32148
-243.56907
-510.92853
-508.18177
-662.13717
-617.04963
-690.41098
-643.92825
-742.99685
-713.92404
-692.3657
-651.98013
-575.80383
-583.20241
-451.70466
234.41719
92.000874
-31.960991
16.082742
-49.572025
-31.002746
-102.80434
-62.356002
-65.573431
-62.297624
-36.596558
-87.251026
-62.9099
-50.671466
-141.24888
-72.960084
-142.51946
-245.39021
-301.18172
-315.62998
-356.9864
-356.77593
-397.53703
-399.38965
-370.06944
-382.64426
-290.5537
-273.53424
-129.76122
-211.66265
91.944122
34.406038
-49.896907
-33.929866
-83.883623
-77.387811
-103.007
-97.544549
-85.212501
-114.99845
-96.805653
-95.682274
-127.94817
-102.72339
-183.01251
-273.03824
-230.56682
-403.68476
-371.40588
-424.57543
-438.49953
-443.24905
-414.72984
-444.7479
-349.2385
-385.43697
-307.06094
-326.69678
-159.4468
-248.95038
126.57948
13.138355
-81.620809
-75.984133
-138.85306
-141.27518
-130.76116
-151.43031
-144.52367
-199.65141
-114.60437
-199.62341
-177.44265
-79.427556
-331.41753
-645.52552
-575.32451
-736.20406
-743.21823
-799.79168
-691.92146
-777.97845
-675.15813
-746.89571
-568.60849
-620.4266
-629.71059
-511.79039
-337.30383
-543.05004
-514.66423
-575.781
-603.51815
-849.30426
-744.93765
-934.06929
-859.961
-939.79541
-892.25266
-860.04414
-827.29482
-734.02048
-705.44533
-564.45345
-700.20342
-1182.3492
-495.54386
-1224.4706
-1083.9569
-1222.0174
-1144.7079
-1339.9159
-1147.1084
-1087.5384
-1030.4541
-969.3531
-1123.2894
-999.82585
-697.14325
-672.87747
-539.59884
-992.80331
-1154.7185
-1323.8286
-1442.6735
-1528.391
-1276.6501
-1214.8215
-1229.0051
-1575.5533
-1419.619
-1571.1605
-1607.9876
-1451.6418
-1905.2337
-1758.1452
-1970.4593
-2551.4969
-2703.3109
-2923.6675
-2688.8462
-2676.9444
-2512.8989
-2788.3182
-2804.5394
-2933.9139
-2793.9386
-2457.8767
-1755.3979
-1974.4341
3608.9056
8224.2843
4633.1608
6475.2948
7422.1933
6269.9381
7185.0728
8275.0558
6106.5786
7066.9095
7098.2599
6905.9348
6814.0231
7446.2504
3884.0352
6981.5927
2018.7151
4402.9153
4674.677
3389.1812
5944.2893
5430.6829
5236.0258
6103.2077
3651.9391
4357.3407
2739.2346
3469.1284
5186.8459
4963.1283
-169.37656
284.87477
-965.10198
-457.99999
2423.3427
-998.71322
-1069.5063
-885.82984
-3198.6382
249.98307
-1183.7424
2194.4591
-129.01959
-2161.7001
-54.092974
-500.54166
1095.5718
1117.1769
-1618.8918
-1304.4049
-441.51118
-1260.4707
-417.71489
-198.85424
-2045.2167
-518.86687
-1464.8488
75.418077
845.35926
-586.60794
3015.4996
1401.5901
-806.37329
2115.1658
299.42793
664.10124
1499.3052
795.55309
1260.2177
3293.4366
804.03674
2002.6594
25.915564
836.25549
2810.5836
-1214.8253
-88.369871
-71.440317
-230.40614
-368.70594
-328.13162
-1040.4255
-1043.7396
-766.2113
-2245.4831
-492.19542
-1390.2879
-633.97363
469.87131
-775.77328
639.61423
1090.6798
609.72972
-28.445627
-68.35699
367.06392
613.51217
445.78392
616.83181
928.70286
-51.459737
719.59484
300.0791
61.143785
1671.0238
726.5063
19.445736
410.9384
1016.5897
1032.8757
528.60753
566.0327
779.97475
91.195924
975.23543
871.99625
817.00188
889.93085
465.8719
2029.8916
677.87573
1573.3231
1127.9143
1478.0097
443.81623
1096.5573
767.32071
1126.1128
1050.7751
958.26461
920.54387
588.57699
949.61129
1088.6227
925.91468
1791.2774
646.10409
1153.5965
1024.4363
1322.1053
948.33682
1205.7602
987.12615
416.44822
1738.6282
542.34325
1882.1613
1125.0286
1369.0064
2480.7872
1590.6688
2134.0417
1769.6032
2287.1141
1644.0521
2185.0649
1700.4057
1889.1341
2283.2849
1491.4105
2532.2625
1852.7048
2116.4077
2378.9737
2846.8597
2836.1567
1534.4704
1954.037
1785.0745
1928.2804
1788.5614
1764.8053
1472.2335
883.09655
1528.1954
736.32279
1170.818
1024.3116
940.20023
2375.7849
2368.914
2426.5363
1789.9559
2593.7021
1902.4375
2155.7285
2056.7335
1839.385
2310.7029
2197.8112
2447.4838
2370.0743
2536.1141
2843.3071
3219.5023
2767.7293
2104.6174
2422.0098
1734.288
2033.7058
2399.5612
2204.2819
1615.0648
1066.5492
1133.401
498.9866
864.2664
597.07946
302.71795
2283.4018
2651.6657
1841.9357
1659.229
2683.5228
2435.4879
1933.6764
1555.5784
2013.429
2116.366
2309.4413
2840.1664
2660.0375
2904.6473
3309.2798
3701.8322
2274.8813
2112.2605
2295.6979
2118.2674
1241.4472
2191.046
1974.667
1513.2567
1072.7294
1054.7893
60.01729
407.45602
239.26694
7.2631429
1780.4631
1936.5491
1110.3769
1198.8592
1656.8278
2030.5043
1786.0323
1461.2254
1206.4066
1815.2143
1675.097
2399.5228
2332.6337
2213.3535
1955.8715
3780.2716
1707.9609
1678.4097
1334.842
1585.1201
1005.8518
1530.2046
1193.8914
1635.1476
1076.6852
1229.8655
354.11831
292.20483
77.32533
316.29359
677.20689
1890.13
1396.3368
1793.8909
1541.7003
1691.2282
1196.1506
1982.9489
1138.616
1416.2493
1355.6144
1261.2685
1600.6105
1992.4656
1623.4972
3556.4302
1334.0076
1142.924
881.75981
1486.9991
1194.2271
1739.7353
1250.058
1397.377
1368.8896
1402.3875
1694.202
1510.929
1133.0118
854.24191
1455.2826
2303.7347
1676.0131
2069.7751
1736.7161
1732.0267
1528.9599
1863.312
1742.1349
1643.1415
1241.5901
1148.7371
1138.9242
2184.3062
1598.8836
3151.3536
1790.4285
2054.1851
1533.4492
2259.3992
1623.3192
2558.1273
1569.6321
2141.6126
1241.872
2801.0239
2056.3907
2430.9725
1538.6019
836.55617
3656.2447
3296.5768
1801.5263
2451.6642
1925.1308
2231.2343
1998.3157
2203.0367
1747.1827
2238.6219
1731.0556
1309.719
1341.5862
1518.4067
1686.7473
3570.0104
2631.4496
2906.6295
2189.0903
2688.8339
2128.6832
1966.1948
1693.4484
1858.7444
1881.5309
1867.0871
2116.1093
2645.883
2794.3402
2131.7755
5475.1541
4121.647
2321.3887
2226.7068
2067.8446
2449.2539
2032.5268
2661.1438
2250.8359
2225.6202
2092.465
2295.1541
2434.7736
1843.5432
1797.3045
4658.1397
3230.6884
2380.1803
2383.5551
2523.2168
2103.2758
2653.2934
1745.6115
2069.0373
1780.7028
1964.5197
1828.8544
2062.1621
3118.1554
3109.3397
4982.3899
3500.5682
2540.6684
2638.672
2252.9395
2544.0395
1975.3848
2110.6398
2135.8565
1946.2621
2144.4775
2092.8978
1162.0111
1879.9954
745.48016
4938.0496
2817.8174
1778.5526
1181.8501
2243.9547
1195.4695
1208.3835
1329.566
1076.2454
1498.7831
1230.8019
1666.0972
2113.0314
1804.9567
2302.4769
3960.9003
2415.3078
1857.0048
1341.3228
991.57248
1060.6153
1253.2265
1039.1416
1065.8713
932.49437
1042.7692
992.19367
1448.5039
1219.5328
332.99982
4183.5662
1509.1313
516.09314
717.25759
908.9177
614.98717
561.68054
508.06801
478.37223
343.35056
274.8924
195.76169
170.0631
1194.7745
663.88298
2310.9171
1432.3191
1188.5874
1161.7712
764.06629
809.02991
-13.483757
444.52838
98.216139
1004.759
499.26334
469.62391
376.97976
175.05021
3.1400426
1582.9911
993.94763
514.78017
130.72175
347.85419
127.97129
330.55133
105.09042
350.66822
-131.6116
90.149505
-155.43898
207.29169
27.535623
183.67572
1369.7864
472.65892
150.09628
213.60945
269.12109
301.49708
96.855857
296.66871
-24.048196
249.48201
48.486491
334.62296
135.42369
167.74629
237.66591
666.20368
235.09776
216.39015
127.60528
381.06169
107.11083
301.33603
41.989109
358.49684
55.267881
369.86528
26.280479
364.19806
134.53276
228.90704
504.19222
321.01498
283.80745
386.82534
632.44368
403.1699
399.75908
485.17032
453.65798
503.27214
539.18545
641.49622
709.27268
620.15466
926.26773
1091.1675
170.64751
523.60014
544.60869
154.7056
468.24347
392.38938
516.87786
390.87828
772.79023
242.1413
726.5366
545.11565
792.38198
570.24666
1278.6627
387.05467
422.82883
842.49945
738.7199
966.1547
580.86282
910.47281
652.70719
827.12308
1243.4781
914.57616
1241.0323
834.60877
1343.083
1253.6894
799.32964
1537.2165
1163.9135
1512.7114
1022.6244
1346.3593
1015.1285
1280.7926
1125.293
1069.5846
1213.7899
1135.3562
1422.7835
1411.2196
1412.7349
1556.8817
1348.6251
1473.0108
1297.6877
1571.5383
1185.9386
1463.7816
1244.1304
1313.9254
1424.5434
1285.7884
1685.1146
1406.8612
1588.9189
1922.7263
1368.841
1733.7442
1356.8142
1784.1146
1310.6145
1525.648
1279.9349
1368.1292
1393.4247
1286.1059
1479.1347
1434.6145
1400.2973
1688.9603
1905.432
1794.7479
1735.3996
1730.0419
1571.6056
1666.2439
1410.4963
1489.6076
1455.7613
1376.614
1500.807
1398.3968
1563.9885
1503.439
1652.0372
1997.1873
1673.7405
1928.6461
1440.4867
1781.4839
1465.3395
1491.7618
1415.6258
1345.0918
1389.4667
1339.2854
1318.7853
1526.3761
1321.9392
1568.0306
2103.9638
1940.5211
1840.3253
1718.9803
1674.9398
1624.4173
1480.8848
1469.8093
1442.0358
1417.965
1395.9094
1422.5337
1513.2479
1370.5851
1604.0503
2239.1236
1868.9995
2049.7052
1587.0329
1803.3408
1581.2449
1526.6713
1486.4941
1447.8335
1393.172
1447.6093
1333.9096
1553.4069
1371.5988
1561.7451
2522.7789
2242.1192
2112.1378
1881.861
1929.3117
1813.405
1682.4784
1713.9455
1615.0384
1659.3798
1588.6336
1596.4444
1753.8848
1597.1819
1756.1633
3014.1487
2454.9758
2433.4896
2039.2164
2193.2733
1964.6941
1925.6696
1862.0401
1867.6186
1772.6842
1848.6901
1755.8394
1972.4741
1867.5281
1922.9138
3686.4968
3030.1229
2747.404
2463.6081
2505.0509
2399.9223
2238.6908
2301.3804
2171.44
2214.5936
2195.8009
2151.6132
2372.234
2307.4739
2279.683
4506.2985
3551.8436
3197.4673
2826.8299
2963.9869
2683.5264
2614.0796
2539.7792
2542.3265
2474.6821
2540.1403
2468.4543
2732.8974
2742.3688
2604.8461
5406.2124
4226.5549
3611.1306
3334.9601
3302.2036
3164.334
2978.6883
3049.5118
2936.6943
2945.9462
2963.134