/*--------------------------------*- C++ -*----------------------------------*\
  =========                 |
  \\      /  F ield         | OpenFOAM: The Open Source CFD Toolbox
   \\    /   O peration     | Website:  https://openfoam.org
    \\  /    A nd           | Version:  6
     \\/     M anipulation  |
\*---------------------------------------------------------------------------*/
FoamFile
{
    version     2.0;
    format      ascii;
    class       pointVectorField;
    location    "1.2";
    object      u;
}
// * * * * * * * * * * * * * * * * * * * * * * * * * * * * * * * * * * * * * //

dimensions      [0 1 0 0 0 0 0];

internalField   nonuniform List<vector> 
625
(
(0 2.3046305e-19 0)
(0 2.0739826e-19 0)
(-1.4623256 -0.38798231 0.020062089)
(-1.5218332 -0.048292175 0.031481163)
(0 2.9883215e-19 0)
(0 1.6218607e-18 0)
(-1.5328684 -0.051668733 0.031606177)
(-1.4733955 -0.39122025 0.019895958)
(0 -3.50326e-20 0)
(1.6107398e-19 -3.7414632e-19 0)
(0 7.6542502e-19 0)
(-1.4772322 -0.30295272 0.022984874)
(-1.491911 -0.21810931 0.025804644)
(-1.506889 -0.13329604 0.028634384)
(-0.0017201703 -0.014226111 -0.014274468)
(-0.012110835 -0.028656818 -0.013996173)
(-0.03162937 -0.043973617 -0.012415007)
(-0.059411318 -0.059841038 -0.0094644209)
(-0.093265414 -0.075029833 -0.0067728249)
(-0.13440719 -0.091398624 -0.0033022733)
(-0.18085059 -0.10724575 -0.00052099232)
(-0.23292716 -0.12373184 0.0026611237)
(-0.29002442 -0.14043382 0.0052884919)
(-0.35139235 -0.15716987 0.0081599954)
(-0.41689471 -0.17436614 0.010452472)
(-0.4859093 -0.19159555 0.012595774)
(-0.55821925 -0.20896555 0.014413871)
(-0.63322044 -0.22632547 0.015958719)
(-0.71071281 -0.24365536 0.017203098)
(-0.79020309 -0.26083678 0.018188078)
(-0.87141526 -0.27783223 0.018958347)
(-0.95401791 -0.2945269 0.019467707)
(-1.0376532 -0.31096811 0.019903712)
(-1.1220026 -0.32699997 0.020089824)
(-1.2069902 -0.34270657 0.020217454)
(-1.2920056 -0.35811934 0.020247614)
(-1.3772806 -0.37308897 0.020135671)
(-0.00073808534 0.014581987 0.018900165)
(-0.017015822 0.031536053 0.016486531)
(-0.039103561 0.047835337 0.019029229)
(-0.068883598 0.062195621 0.020113052)
(-0.10649896 0.073791592 0.021605914)
(-0.15159856 0.084047973 0.023274592)
(-0.2017106 0.091041658 0.025231504)
(-0.25825426 0.095965914 0.02674994)
(-0.31949938 0.098712893 0.028580592)
(-0.3850295 0.098797819 0.029945247)
(-0.45449506 0.097126162 0.031280979)
(-0.52738575 0.093312851 0.032274179)
(-0.60306263 0.08767518 0.033115737)
(-0.68124439 0.080356395 0.033638716)
(-0.76146836 0.07153909 0.033960348)
(-0.84334205 0.061355684 0.034049806)
(-0.92653338 0.050024876 0.033948745)
(-1.0106838 0.03765786 0.033724792)
(-1.095543 0.024509472 0.033334153)
(-1.1807646 0.01061616 0.032960331)
(-1.2662486 -0.0037044792 0.032469804)
(-1.3516027 -0.018403581 0.032092774)
(-1.4369157 -0.033351928 0.031733611)
(0 2.0925181e-19 0)
(-2.8595249e-18 -6.1527347e-19 0)
(0 1.5593932e-18 0)
(-0.0032704313 0.007646415 -0.012149754)
(-0.017135447 0.032829931 -0.013304505)
(-0.038953714 0.040599344 -0.0085848902)
(-0.069755921 0.055777216 -0.0053848044)
(-0.10859971 0.067001075 -0.0026051458)
(-0.15336057 0.075469412 0.0018368718)
(-0.20463618 0.082329867 0.0049324906)
(-0.26176145 0.087429609 0.0087321787)
(-0.32364404 0.089968199 0.012006901)
(-0.38999703 0.090588921 0.015201998)
(-0.46017186 0.089215594 0.018075905)
(-0.53370872 0.085896711 0.020708071)
(-0.61015654 0.080916121 0.022961577)
(-0.68896402 0.074122463 0.024990748)
(-0.76986677 0.065950346 0.026644195)
(-0.85228663 0.056278178 0.028045459)
(-0.93601584 0.045450742 0.029161138)
(-1.02061 0.033492981 0.030032738)
(-1.1058221 0.020649594 0.030691695)
(-1.1913517 0.00701634 0.031152771)
(-1.2769869 -0.0071618832 0.031449641)
(-1.3625268 -0.021809023 0.031590533)
(-1.4478423 -0.036703825 0.031611731)
(-1.5178858 -0.13667284 0.028693413)
(-1.502855 -0.22137287 0.025725281)
(-1.4883186 -0.30614547 0.022752076)
(-1.3883568 -0.37632269 0.020187381)
(-1.3029432 -0.36130181 0.020608339)
(-1.2176181 -0.34593792 0.021128104)
(-1.1323734 -0.33035469 0.021778044)
(-1.0475366 -0.31445667 0.022444521)
(-0.96337711 -0.29832283 0.023104927)
(-0.88019176 -0.28195712 0.023702097)
(-0.79832651 -0.26543803 0.024195747)
(-0.71812124 -0.24878388 0.024537616)
(-0.63994639 -0.23210078 0.02470773)
(-0.56421307 -0.21533774 0.024640413)
(-0.49125578 -0.19871218 0.024427043)
(-0.42154214 -0.18210896 0.023945279)
(-0.35534381 -0.16550052 0.023250765)
(-0.29407237 -0.1488819 0.022236178)
(-0.23607998 -0.13269438 0.021492828)
(-0.1839469 -0.1164715 0.02034765)
(-0.13674839 -0.099798848 0.019269847)
(-0.096683173 -0.083391852 0.01825398)
(-0.061803546 -0.066594692 0.017180282)
(-0.033755813 -0.050346055 0.01691941)
(-0.015381219 -0.031590506 0.015730721)
(-0.0082170775 -0.016439176 0.010969983)
(0 -3.7363628e-19 0)
(0 -3.8962443e-19 -8.0363932e-19)
(0 -1.1483153e-18 0)
(0 6.7514151e-19 0)
(0 -7.4703112e-20 2.381934e-19)
(0 5.1422688e-19 0)
(-1.5246188 -0.04905018 0.031542916)
(-1.5274069 -0.049890374 0.031518852)
(-1.5301006 -0.050707704 0.031564154)
(-1.4650713 -0.38886913 0.020016814)
(-1.4678699 -0.38972446 0.020030837)
(-1.4706034 -0.39051908 0.019933235)
(0.0038946419 -0.0072440353 -0.0086590104)
(-0.0075241367 -0.013169613 -0.0056248231)
(-0.027661666 -0.020185564 -0.0044422307)
(-0.0563931 -0.028042752 -0.0018372538)
(-0.09150614 -0.036509962 0.00070860408)
(-0.13411928 -0.046222983 0.0033458804)
(-0.18202682 -0.056168719 0.0061293443)
(-0.23558815 -0.067461849 0.0087585989)
(-0.29392716 -0.079196052 0.011319873)
(-0.35691052 -0.0918972 0.013642488)
(-0.42375737 -0.10528059 0.015714511)
(-0.49412153 -0.11918917 0.017563073)
(-0.56757582 -0.13369081 0.019132007)
(-0.64370425 -0.14863406 0.020431557)
(-0.72215802 -0.16390811 0.021453121)
(-0.80250318 -0.17942694 0.022242966)
(-0.88448469 -0.19509233 0.022789361)
(-0.96764609 -0.21080149 0.023144722)
(-1.051786 -0.22653553 0.023352031)
(-1.1365281 -0.24209845 0.023362361)
(-1.2217142 -0.25759428 0.023389666)
(-1.3069052 -0.27287103 0.023212242)
(-1.3922648 -0.2879944 0.023083486)
(0.0056300639 0.00035581907 0.00099046481)
(-0.008246744 0.0023357871 0.0026894833)
(-0.028694621 0.0024737874 0.0040639477)
(-0.057791432 0.0019704939 0.0056732689)
(-0.094413147 0.00058548264 0.0078936948)
(-0.13742921 -0.002587202 0.010218968)
(-0.18646152 -0.0068698365 0.012580715)
(-0.2411841 -0.0127248 0.014852379)
(-0.30071304 -0.019652454 0.016983624)
(-0.36469694 -0.028069727 0.019041634)
(-0.43252632 -0.037529667 0.020830574)
(-0.50385007 -0.048167015 0.022386816)
(-0.57819921 -0.059740168 0.02366808)
(-0.65515811 -0.072199399 0.024691282)
(-0.73431691 -0.085353972 0.025462124)
(-0.81531485 -0.099159667 0.026004501)
(-0.89779895 -0.11341481 0.026329872)
(-0.98140018 -0.12806628 0.026496107)
(-1.0659002 -0.14295603 0.026504329)
(-1.1508575 -0.15798172 0.026448145)
(-1.2362404 -0.17309908 0.026275961)
(-1.3215767 -0.18819976 0.026119732)
(-1.4070396 -0.20326141 0.02594971)
(0.0049493991 0.0076554 0.0077223482)
(-0.010487855 0.015638988 0.0093424978)
(-0.030781758 0.023565281 0.010813113)
(-0.061131783 0.030458405 0.012470597)
(-0.098117149 0.036048162 0.014580995)
(-0.14195547 0.039001082 0.016577754)
(-0.19220327 0.040837891 0.018660806)
(-0.24770638 0.040375043 0.020652335)
(-0.30818107 0.03822427 0.022680305)
(-0.37311707 0.034260424 0.024405058)
(-0.44194994 0.028644643 0.02595766)
(-0.51416549 0.021481685 0.027261442)
(-0.58936636 0.012942602 0.028320968)
(-0.66704984 0.0031053034 0.029139743)
(-0.7468857 -0.0078343943 0.029700886)
(-0.82845904 -0.019771301 0.030049677)
(-0.91141411 -0.032502068 0.030188138)
(-0.99545317 -0.045937391 0.030166125)
(-1.080202 -0.059894215 0.03003329)
(-1.1655024 -0.07422533 0.029747446)
(-1.2509648 -0.088875482 0.029527435)
(-1.3364932 -0.1036194 0.029175302)
(-1.4219012 -0.11844261 0.028921975)
(0 -2.3674649e-19 0)
(0 3.9115645e-19 8.20467e-19)
(0 8.5222388e-19 0)
(-4.2702232e-19 8.5264005e-21 0)
(1.7835747e-19 -2.6427125e-19 -1.316254e-20)
(-1.1239978e-18 -1.0108526e-18 0)
(0 3.8452258e-19 0)
(0 1.033414e-18 -2.7484265e-20)
(0 1.1380233e-18 0)
(-0.0071410722 0.0062360085 0.0078023629)
(-0.0086117446 0.0077680665 0.0013704461)
(-0.0072451923 0.005388379 -0.004208208)
(-0.025042358 0.033245293 0.0088329643)
(-0.024422126 0.032247659 0.0021176543)
(-0.023208658 0.030117345 -0.0060415977)
(-0.043588322 0.044812605 0.011217934)
(-0.045008942 0.042424822 0.0044563822)
(-0.044753299 0.043631848 -0.0029360366)
(-0.07458702 0.060020219 0.012707149)
(-0.076290303 0.059223907 0.006472754)
(-0.074601979 0.056784653 0.00011526013)
(-0.11214187 0.071772397 0.014995613)
(-0.11306472 0.069258572 0.0094140926)
(-0.11292212 0.068568575 0.0029812412)
(-0.15603265 0.081185162 0.017387817)
(-0.15790923 0.079087136 0.011580242)
(-0.15719194 0.077231574 0.0065145821)
(-0.2066833 0.08827464 0.019490299)
(-0.20837571 0.086322101 0.015125872)
(-0.20832773 0.084562416 0.009299804)
(-0.26295668 0.093488657 0.021925807)
(-0.26431672 0.09054136 0.017440449)
(-0.26456117 0.089123827 0.012790588)
(-0.32375892 0.095736309 0.023963969)
(-0.32560591 0.093676619 0.020188942)
(-0.32594955 0.091952238 0.015671311)
(-0.38927766 0.09637945 0.026045947)
(-0.39110748 0.094040459 0.022513671)
(-0.39183632 0.092369252 0.01855676)
(-0.4586031 0.094698135 0.027720509)
(-0.46060607 0.092520882 0.024652294)
(-0.46145493 0.090948378 0.021065369)
(-0.53129811 0.091059036 0.029191805)
(-0.53331657 0.089021914 0.026547383)
(-0.53451723 0.087521021 0.023349514)
(-0.60687175 0.085655289 0.030422275)
(-0.60909522 0.083793475 0.028109495)
(-0.6104859 0.082394005 0.025286811)
(-0.68494846 0.078556603 0.031347236)
(-0.68720832 0.076807081 0.029387962)
(-0.68884296 0.075544042 0.02697002)
(-0.76504425 0.069948501 0.032028737)
(-0.76744057 0.068400276 0.030397896)
(-0.76928383 0.067219999 0.028337906)
(-0.84681293 0.059984568 0.032471452)
(-0.84928718 0.058547379 0.031134)
(-0.85132521 0.057493503 0.02942046)
(-0.92988848 0.048822614 0.032698039)
(-0.93244398 0.047552504 0.031631164)
(-0.93464996 0.046562602 0.030270115)
(-1.0139291 0.036631422 0.032745294)
(-1.0165593 0.035453308 0.031940993)
(-1.0189191 0.034557858 0.030873523)
(-1.0986666 0.02358221 0.032659141)
(-1.1013418 0.022528823 0.03206632)
(-1.1038174 0.021660707 0.031295254)
(-1.1837949 0.0098072572 0.032469393)
(-1.1865135 0.0088100819 0.032064799)
(-1.1890934 0.0079954578 0.031551362)
(-1.2691177 -0.0044745664 0.032205206)
(-1.2718597 -0.0053920483 0.031988554)
(-1.2745104 -0.0062139228 0.031671878)
(-1.3544395 -0.019163724 0.031968426)
(-1.3572137 -0.020043408 0.031846893)
(-1.3599235 -0.020856406 0.031684604)
(-1.4396708 -0.034104259 0.031721217)
(-1.4424258 -0.034932512 0.031697297)
(-1.445157 -0.03579823 0.031622552)
(-1.4799988 -0.3038242 0.02291376)
(-1.4827935 -0.30465269 0.022879663)
(-1.4855213 -0.30543274 0.022800735)
(-1.4946578 -0.21894143 0.02576551)
(-1.4974491 -0.21977303 0.025776699)
(-1.5001062 -0.22059643 0.025746445)
(-1.5097221 -0.13404526 0.028650158)
(-1.5124949 -0.1348904 0.028669021)
(-1.5151992 -0.13571992 0.02867544)
(-0.0097968825 -0.012288732 -0.0073402471)
(-0.010683783 -0.014322414 -0.002498375)
(-0.012370878 -0.014071222 0.0035337189)
(-0.019822259 -0.02885477 -0.0067391102)
(-0.021341552 -0.03103076 0.00074280785)
(-0.020954847 -0.030805857 0.0086368964)
(-0.038992892 -0.047278146 -0.0054579936)
(-0.04046555 -0.048153115 0.00095036572)
(-0.040674948 -0.049925534 0.010196753)
(-0.065928501 -0.061891946 -0.0027250322)
(-0.067409078 -0.064449747 0.0032533841)
(-0.067126028 -0.065679721 0.011163708)
(-0.099231328 -0.079063824 -0.00077096033)
(-0.1011875 -0.081217792 0.0057328922)
(-0.10080999 -0.082975196 0.012330337)
(-0.14006789 -0.094858699 0.0024705664)
(-0.14119336 -0.096953762 0.0071473921)
(-0.14141217 -0.099127918 0.014249709)
(-0.18603708 -0.1108398 0.0048669865)
(-0.18757495 -0.1135129 0.0097774937)
(-0.18760276 -0.11555774 0.01566019)
(-0.23790007 -0.12738243 0.0075664425)
(-0.23915197 -0.12984577 0.011825442)
(-0.23938988 -0.13193041 0.017425054)
(-0.29407925 -0.14396149 0.0096891966)
(-0.29610136 -0.1462641 0.014182776)
(-0.2960882 -0.14837208 0.018422047)
(-0.35570648 -0.1607051 0.012264862)
(-0.35709391 -0.16277402 0.015277585)
(-0.35777394 -0.16487694 0.020098549)
(-0.42085515 -0.17744104 0.014095858)
(-0.42250924 -0.1795721 0.017368753)
(-0.42304892 -0.18149613 0.021116464)
(-0.48975312 -0.194545 0.015900269)
(-0.49139927 -0.1963817 0.01857367)
(-0.49228929 -0.19829387 0.021975031)
(-0.56181739 -0.21155524 0.017280249)
(-0.56365461 -0.21331901 0.019712546)
(-0.56468069 -0.21501981 0.022564866)
(-0.63673587 -0.22868413 0.018467373)
(-0.63866696 -0.23024996 0.020487631)
(-0.63992789 -0.23180538 0.022952368)
(-0.71407591 -0.24572138 0.019323981)
(-0.71615144 -0.24712263 0.021071159)
(-0.71760997 -0.24856351 0.023090902)
(-0.79347178 -0.26264803 0.019979089)
(-0.7956886 -0.26393253 0.021380769)
(-0.79735365 -0.26522637 0.023034284)
(-0.8746056 -0.27941438 0.020369569)
(-0.87693827 -0.28055258 0.021522089)
(-0.87880263 -0.28174011 0.022800051)
(-0.95709246 -0.2959219 0.020619976)
(-0.9595424 -0.29698465 0.021478054)
(-0.96159615 -0.29806243 0.022436825)
(-1.0406358 -0.31217579 0.020680114)
(-1.0432167 -0.31312625 0.021309225)
(-1.0454351 -0.31413523 0.021983581)
(-1.1249607 -0.32806182 0.020594647)
(-1.1276129 -0.32902784 0.021095628)
(-1.1299803 -0.32994419 0.021487971)
(-1.2098143 -0.34367063 0.02054259)
(-1.2125461 -0.34453308 0.020790956)
(-1.2150192 -0.34542128 0.020987168)
(-1.2948496 -0.35898353 0.020396022)
(-1.297542 -0.35985155 0.020488409)
(-1.3001807 -0.36069484 0.020552492)
(-1.380081 -0.37397206 0.020149949)
(-1.3828289 -0.37480448 0.02017196)
(-1.3855603 -0.37563213 0.020191982)
(0.0011225528 -0.005109883 0.0077177112)
(-0.0098929749 -0.02045656 0.0093252267)
(-0.028734495 -0.025106121 0.0094184242)
(-0.058480621 -0.035370635 0.011200864)
(-0.093720969 -0.04492863 0.012933906)
(-0.13638556 -0.054512936 0.014364074)
(-0.18478124 -0.065208899 0.016126928)
(-0.23872477 -0.076054206 0.017840544)
(-0.29772166 -0.087797236 0.019391534)
(-0.36113395 -0.099873879 0.020764256)
(-0.42852445 -0.11276402 0.022150688)
(-0.49962636 -0.12595129 0.023060941)
(-0.57377008 -0.13982072 0.023876839)
(-0.65060967 -0.15410012 0.024435959)
(-0.7297694 -0.16875083 0.024753432)
(-0.81081832 -0.18372294 0.024881936)
(-0.89339785 -0.19893418 0.024829582)
(-0.97716674 -0.21430137 0.024645522)
(-1.0617796 -0.2297452 0.024355617)
(-1.1469524 -0.24521006 0.024019301)
(-1.2324211 -0.26063925 0.023647289)
(-1.3178636 -0.27591941 0.02333782)
(-1.4033492 -0.29117673 0.02298819)
(0.0048772638 -0.0024843323 7.8045965e-05)
(-0.0083547323 -0.0043141549 0.0027078336)
(-0.03031193 -0.0027939091 0.0033981512)
(-0.060217127 -0.0059705052 0.0062442224)
(-0.09638244 -0.0081692713 0.0084029724)
(-0.14034744 -0.011181296 0.010289833)
(-0.18959631 -0.016346721 0.012898437)
(-0.24483312 -0.021928976 0.015110051)
(-0.30497406 -0.028664485 0.017130561)
(-0.36939188 -0.036774663 0.0192371)
(-0.43793043 -0.045704564 0.020933639)
(-0.50996539 -0.055725804 0.022461193)
(-0.58495955 -0.066642616 0.023762184)
(-0.66260518 -0.078483484 0.024761291)
(-0.74241677 -0.090995157 0.02552243)
(-0.82402379 -0.10424308 0.026061326)
(-0.90706571 -0.11801152 0.026377149)
(-0.99118467 -0.13224131 0.026540047)
(-1.0760693 -0.1468119 0.026535103)
(-1.1614074 -0.16163098 0.026455128)
(-1.247002 -0.17656455 0.026292713)
(-1.3324721 -0.19157646 0.026098044)
(-1.4181002 -0.20662765 0.025903015)
(0.0053507457 0.0052299084 -0.005007906)
(-0.011607785 0.0094209264 -0.0039937768)
(-0.032806591 0.019249819 -0.0040120012)
(-0.062406667 0.021392541 0.00022317857)
(-0.10006804 0.027591714 0.001801426)
(-0.1446925 0.029610181 0.0051567677)
(-0.19489458 0.030973668 0.0082111712)
(-0.25133223 0.030741009 0.010935592)
(-0.31222358 0.028615463 0.013849738)
(-0.3779232 0.025122399 0.016451587)
(-0.44736166 0.020063446 0.018788048)
(-0.52024993 0.013523234 0.020967398)
(-0.59613565 0.0056485314 0.022756055)
(-0.67451237 -0.0034981961 0.024330951)
(-0.75500446 -0.013780911 0.025602064)
(-0.83719436 -0.02508656 0.026621051)
(-0.92072222 -0.037291593 0.027397086)
(-1.0052395 -0.050242701 0.027970833)
(-1.090441 -0.063831324 0.028343715)
(-1.1760302 -0.07789189 0.028608368)
(-1.2617608 -0.09233077 0.028685282)
(-1.3474383 -0.10697608 0.02877968)
(-1.4328979 -0.1217736 0.028659265)
(-0.0012138951 -0.0036512674 -0.004087214)
(-0.0017443448 -0.0044382856 -0.0011779885)
(-0.0032919783 -0.0043804486 0.002590988)
(-0.014035234 -0.015051401 -0.0022241121)
(-0.016154347 -0.016272243 0.0013916074)
(-0.015090317 -0.016740473 0.0065447349)
(-0.034466693 -0.022082673 -0.00087939463)
(-0.034848796 -0.023449135 0.0030496673)
(-0.034956634 -0.025154678 0.0063619855)
(-0.062105044 -0.031192152 0.0015386099)
(-0.064039322 -0.03339012 0.0050750365)
(-0.063522463 -0.034023595 0.008345744)
(-0.097580119 -0.040102961 0.0041195051)
(-0.098744068 -0.042008347 0.0068464733)
(-0.098722547 -0.043737359 0.010387854)
(-0.13927992 -0.049563209 0.0064111755)
(-0.1407668 -0.052245978 0.0092533493)
(-0.14056298 -0.053714618 0.012061077)
(-0.18696516 -0.059986634 0.0089794765)
(-0.18836013 -0.062475537 0.011555798)
(-0.18847776 -0.064061089 0.014045597)
(-0.24006693 -0.071151068 0.01148152)
(-0.24169141 -0.073416778 0.013627697)
(-0.24187427 -0.075200969 0.01596463)
(-0.29841756 -0.082626704 0.013768082)
(-0.29988799 -0.085135208 0.015662274)
(-0.30026817 -0.086914439 0.017859644)
(-0.36102253 -0.095187533 0.015866681)
(-0.36254093 -0.097637298 0.017622153)
(-0.36322817 -0.099029681 0.019394745)
(-0.42761753 -0.10832333 0.017723856)
(-0.42931936 -0.11038928 0.019321976)
(-0.43003922 -0.11205439 0.020845538)
(-0.49778667 -0.12194277 0.019381432)
(-0.49957245 -0.12402576 0.020678218)
(-0.50059148 -0.12546438 0.022081083)
(-0.57110764 -0.13621834 0.020708427)
(-0.57302172 -0.13802647 0.021883171)
(-0.57421577 -0.13938085 0.02297837)
(-0.64710922 -0.15085207 0.021825188)
(-0.6491471 -0.15252616 0.022742755)
(-0.65056929 -0.15373122 0.023711855)
(-0.72545629 -0.16586748 0.022619013)
(-0.72761718 -0.16734864 0.023390438)
(-0.72922754 -0.16847872 0.024156452)
(-0.80572521 -0.18112987 0.023214985)
(-0.80800615 -0.18248019 0.02379882)
(-0.80982813 -0.18347125 0.0244167)
(-0.88759789 -0.19658002 0.023561955)
(-0.88999338 -0.19777276 0.024002732)
(-0.89199774 -0.19870093 0.024461535)
(-0.97070433 -0.21209707 0.023750757)
(-0.97320988 -0.21318811 0.024039458)
(-0.97537581 -0.21403624 0.024384062)
(-1.0547531 -0.22767369 0.02376826)
(-1.0573512 -0.22862284 0.023953531)
(-1.0596901 -0.22945312 0.024165731)
(-1.1394296 -0.24307099 0.023681279)
(-1.1421505 -0.24404085 0.02375533)
(-1.1445558 -0.24481045 0.023913543)
(-1.2245177 -0.25847687 0.023555482)
(-1.2273016 -0.25946084 0.023520848)
(-1.2298245 -0.26017447 0.023593268)
(-1.3097585 -0.27370328 0.023288911)
(-1.3124631 -0.274563 0.023278146)
(-1.3151221 -0.27530436 0.023319502)
(-1.3950287 -0.28886602 0.023076829)
(-1.397801 -0.28969168 0.023065847)
(-1.4005405 -0.29048445 0.023040366)
(0.0017852535 -0.00034164971 0.00076191526)
(0.00039615571 -0.0013786408 0.00051856633)
(-0.00060821552 -0.0014267388 0.0003513559)
(-0.013631194 0.00050728176 0.0030394134)
(-0.014891651 -0.0013137648 0.0027521418)
(-0.013210602 -0.0018508111 0.0030395791)
(-0.034446379 -0.00012237808 0.0042224069)
(-0.035853757 -0.0013111475 0.0032441632)
(-0.035189829 -0.0026257074 0.0038056204)
(-0.063283712 -0.00029672862 0.0063851741)
(-0.065725811 -0.0024344094 0.0056573644)
(-0.064415241 -0.0031743668 0.00615824)
(-0.09955085 -0.0028060987 0.0082776578)
(-0.10151801 -0.0047019077 0.0073423542)
(-0.10042447 -0.0066362246 0.0085023204)
(-0.14233356 -0.0057906193 0.010743947)
(-0.14441656 -0.0079420287 0.010225754)
(-0.14356365 -0.0095867671 0.010640032)
(-0.19111288 -0.010399194 0.013167266)
(-0.19319636 -0.012482904 0.012202704)
(-0.19262319 -0.01421848 0.013014487)
(-0.24559897 -0.015940684 0.015371126)
(-0.24761675 -0.018253811 0.014677374)
(-0.24716527 -0.020236542 0.015454485)
(-0.30475921 -0.023025497 0.017517019)
(-0.30694878 -0.025194571 0.016993611)
(-0.30683515 -0.026902928 0.017474569)
(-0.36859281 -0.031264608 0.019581058)
(-0.37074399 -0.033238326 0.018965109)
(-0.37081893 -0.035141824 0.019451008)
(-0.43629808 -0.04048451 0.021340523)
(-0.43850619 -0.042469029 0.02071836)
(-0.43888522 -0.044103854 0.021320592)
(-0.50750766 -0.05088948 0.022855813)
(-0.50974473 -0.052736807 0.022337928)
(-0.51040261 -0.054309432 0.022776571)
(-0.5817288 -0.06222271 0.024110837)
(-0.58408077 -0.063896326 0.023624159)
(-0.58498452 -0.065293167 0.024065282)
(-0.65859473 -0.07438742 0.025084478)
(-0.66099308 -0.075933939 0.024649548)
(-0.66215004 -0.077250338 0.025045939)
(-0.73766494 -0.087321056 0.02580571)
(-0.74014095 -0.088707568 0.025448963)
(-0.74156649 -0.089883413 0.025785929)
(-0.81858371 -0.10086898 0.026301949)
(-0.82112317 -0.10213127 0.02597438)
(-0.82278484 -0.10319597 0.026279082)
(-0.90098686 -0.11492567 0.026569375)
(-0.90358611 -0.11605072 0.026318229)
(-0.90548051 -0.11703082 0.026571764)
(-0.98452594 -0.12938267 0.026687443)
(-0.9871843 -0.13040155 0.026471411)
(-0.98927881 -0.13132544 0.026690881)
(-1.068932 -0.1441158 0.02664471)
(-1.0716296 -0.14506426 0.026493737)
(-1.0739132 -0.14591086 0.026651774)
(-1.1538562 -0.15906204 0.026539031)
(-1.1565967 -0.15986895 0.026409364)
(-1.1590128 -0.16075853 0.02654839)
(-1.2391925 -0.17410745 0.026297414)
(-1.241818 -0.17480529 0.026322843)
(-1.2444672 -0.17572572 0.026334193)
(-1.3244226 -0.18905928 0.026153315)
(-1.3271548 -0.18993668 0.026083376)
(-1.3298199 -0.19070253 0.026159282)
(-1.4098285 -0.20412029 0.025950716)
(-1.4126059 -0.20493859 0.025920447)
(-1.4153212 -0.20579952 0.025911287)
(0.00010922169 0.0047348429 0.0031769924)
(0.0004470417 0.0040992778 0.00051470556)
(0.00068459933 0.0034886595 -0.0023500486)
(-0.017351176 0.013329183 0.0055518957)
(-0.018441713 0.010764698 0.0018210973)
(-0.016578309 0.010746066 -0.0011844661)
(-0.037158897 0.021391312 0.0069176246)
(-0.038293718 0.02130771 0.0035175451)
(-0.037761584 0.019801396 -0.00014263426)
(-0.067589184 0.028222785 0.008975676)
(-0.0683324 0.025449536 0.005744646)
(-0.067917692 0.024163046 0.0029191584)
(-0.10388813 0.032667256 0.011177604)
(-0.10513727 0.031228322 0.0082741507)
(-0.10473929 0.029315827 0.0054619769)
(-0.1476928 0.036158834 0.013694738)
(-0.14891104 0.033882076 0.010826092)
(-0.14868154 0.031972313 0.0082655957)
(-0.19747155 0.037641401 0.015959494)
(-0.19856596 0.035322422 0.013198521)
(-0.19878516 0.033050054 0.011104966)
(-0.25267324 0.037088799 0.018246538)
(-0.25401747 0.034902793 0.016107166)
(-0.25443454 0.032925295 0.01382916)
(-0.31300334 0.035107871 0.020585511)
(-0.3143903 0.03292311 0.018265247)
(-0.31497041 0.030621351 0.016316234)
(-0.37771489 0.031324757 0.02251818)
(-0.37914732 0.029057829 0.020548151)
(-0.38001903 0.027076753 0.018855389)
(-0.44627798 0.025866685 0.024312709)
(-0.44793238 0.023865388 0.022557056)
(-0.44903084 0.021841241 0.02095505)
(-0.51835395 0.018952014 0.025863211)
(-0.52006701 0.017052257 0.024297471)
(-0.52138888 0.015162569 0.022894704)
(-0.59336916 0.010650026 0.027120777)
(-0.59523668 0.0089128745 0.025733656)
(-0.59678471 0.0071432688 0.024527549)
(-0.67092491 0.0010765128 0.0281321)
(-0.6729049 -0.00050890979 0.026953413)
(-0.67466682 -0.0021383634 0.025871821)
(-0.75062716 -0.0096194017 0.028870838)
(-0.75274262 -0.0110622 0.02784867)
(-0.75469662 -0.012545578 0.026946638)
(-0.83206977 -0.021305285 0.029376628)
(-0.83430504 -0.02259705 0.028525451)
(-0.83644253 -0.023951087 0.027771578)
(-0.91491488 -0.033828682 0.02965393)
(-0.91726205 -0.035004564 0.028972085)
(-0.91955422 -0.036239863 0.028351152)
(-0.99880953 -0.047075009 0.029770997)
(-1.0012749 -0.048134947 0.029217199)
(-1.0037017 -0.049271727 0.028742608)
(-1.083478 -0.060864665 0.029724054)
(-1.0860129 -0.061850947 0.029318412)
(-1.0885487 -0.062894453 0.028953502)
(-1.168608 -0.075095804 0.02956331)
(-1.1712505 -0.076017812 0.029288666)
(-1.1738577 -0.077004834 0.029037997)
(-1.2539816 -0.089649413 0.029398147)
(-1.25664 -0.090531136 0.02917034)
(-1.2593232 -0.09148099 0.02900773)
(-1.3394025 -0.10436595 0.029108329)
(-1.3421534 -0.10522546 0.028988169)
(-1.3448678 -0.10614162 0.028904323)
(-1.4247152 -0.11919394 0.028894765)
(-1.4274531 -0.12002348 0.028832996)
(-1.4301949 -0.12088052 0.028800108)
)
;

boundaryField
{
    free
    {
        type            calculated;
    }
    fixed
    {
        type            calculated;
    }
    freeTop
    {
        type            calculated;
    }
}


// ************************************************************************* //
