/*--------------------------------*- C++ -*----------------------------------*\
  =========                 |
  \\      /  F ield         | OpenFOAM: The Open Source CFD Toolbox
   \\    /   O peration     | Website:  https://openfoam.org
    \\  /    A nd           | Version:  6
     \\/     M anipulation  |
\*---------------------------------------------------------------------------*/
FoamFile
{
    version     2.0;
    format      ascii;
    class       pointVectorField;
    location    "1.81";
    object      lm;
}
// * * * * * * * * * * * * * * * * * * * * * * * * * * * * * * * * * * * * * //

dimensions      [1 -2 -1 0 0 0 0];

internalField   nonuniform List<vector> 
28033
(
(0 0 0)
(0 0 0)
(1214.2074 -44.715865 -13.07568)
(1224.9649 -39.569117 -29.668219)
(0 0 0)
(0 0 0)
(1241.7049 -17.392138 -28.357409)
(1234.7809 -21.327805 -13.87069)
(0 0 0)
(0 0 0)
(0 0 0)
(0 0 0)
(0 0 0)
(0 0 0)
(0 0 0)
(0 0 0)
(0 0 0)
(0 0 0)
(0 0 0)
(0 0 0)
(0 0 0)
(0 0 0)
(0 0 0)
(1203.2336 -42.440595 -13.412528)
(1190.4482 -40.450123 -13.687774)
(1181.5113 -38.994553 -14.49074)
(1178.0217 -38.508473 -15.453851)
(1180.3907 -38.681931 -16.852136)
(1188.3732 -39.462372 -18.49407)
(1200.9577 -40.856749 -20.269244)
(1215.9457 -42.430756 -22.304574)
(1231.4387 -44.047881 -24.213379)
(1244.8613 -45.394462 -26.126324)
(1254.1642 -46.210617 -27.68593)
(1258.1211 -46.324106 -28.80542)
(1255.8036 -45.607318 -29.781242)
(1247.8474 -43.98058 -30.030622)
(1236.0588 -41.635918 -29.977169)
(-6.9545649 -11.477403 -9.5344377)
(-11.8545 -15.04067 -11.546561)
(-17.8411 -19.097117 -11.805128)
(-24.627387 -22.704882 -11.532441)
(-31.917678 -25.728346 -10.308931)
(-39.892406 -28.478277 -8.899381)
(-48.355177 -30.739741 -7.0042665)
(-57.224391 -32.382998 -4.9915746)
(-66.456189 -33.685312 -2.7327503)
(-75.914916 -34.226898 -0.39857104)
(-85.367813 -34.303841 1.9673033)
(-94.757215 -33.706677 4.3404303)
(-103.89284 -32.571096 6.5483957)
(-112.70847 -30.785996 8.710496)
(-120.85538 -28.39178 10.502382)
(-128.34484 -25.417429 12.107153)
(-134.9694 -21.912019 13.265829)
(-140.70141 -17.863374 14.202294)
(-145.30752 -13.295028 14.553585)
(-148.81231 -8.3072763 14.630199)
(-151.16975 -2.8902665 14.270793)
(-152.32117 2.8651715 13.553675)
(-152.3612 8.8860923 12.558045)
(-151.24203 15.234676 11.340932)
(-149.12307 21.693489 9.9113138)
(-146.00661 28.397641 8.4788092)
(-142.08103 35.13441 7.0615341)
(-137.34943 42.061343 5.7433478)
(-131.98859 49.016221 4.617309)
(-126.07027 56.048832 3.7992889)
(-119.60778 63.265687 3.2458884)
(-112.70128 70.530459 3.058607)
(-105.33986 78.008944 3.2340059)
(-97.468927 85.643309 3.6941208)
(-89.045356 93.632077 4.4809135)
(-79.920804 101.87729 5.4553714)
(-70.016415 110.52332 6.553903)
(-59.070466 119.60073 7.6700928)
(-46.89805 129.17048 8.6797614)
(-33.301131 139.22173 9.4713524)
(-18.001141 149.76985 9.9223765)
(-0.79313572 160.84787 9.9319503)
(18.5825 172.39463 9.3711661)
(40.316057 184.35785 8.1971738)
(64.587065 196.65225 6.3381641)
(91.545961 209.17387 3.7697551)
(121.25801 221.78462 0.4987977)
(153.78209 234.34083 -3.451319)
(189.07903 246.66332 -8.0136889)
(227.08516 258.57484 -13.112828)
(267.65667 269.87471 -18.638867)
(310.61098 280.3738 -24.480871)
(355.71043 289.86882 -30.504442)
(402.67147 298.18094 -36.583436)
(451.18474 305.12755 -42.58489)
(500.89866 310.56067 -48.390711)
(551.45561 314.33637 -53.883829)
(602.47402 316.35755 -58.979125)
(653.5748 316.53523 -63.584704)
(704.38143 314.83224 -67.660108)
(754.51569 311.21595 -71.135018)
(803.63627 305.73382 -74.031001)
(851.38587 298.39845 -76.280268)
(897.48324 289.31544 -77.949177)
(941.5878 278.60484 -79.018123)
(983.53034 266.34941 -79.527853)
(1022.958 252.73845 -79.414067)
(1059.7662 238.03721 -78.917187)
(1093.7512 222.26291 -77.868806)
(1124.8387 205.74505 -76.323778)
(1152.8578 188.61383 -74.429475)
(1177.848 171.15723 -72.158505)
(1199.6793 153.56291 -69.451377)
(1218.4758 135.94368 -66.424063)
(1234.2177 118.61049 -63.09376)
(1247.0528 101.6056 -59.495489)
(1257.0697 85.23512 -55.660642)
(1264.4605 69.475037 -51.659828)
(1269.3997 54.653882 -47.543532)
(1272.0703 40.598059 -43.326986)
(1272.7929 27.690703 -39.176354)
(1271.7066 15.787005 -35.040966)
(1269.1891 5.022282 -31.105648)
(1265.4201 -4.6480306 -27.306442)
(1260.7365 -13.256934 -23.900303)
(1255.2598 -20.561544 -20.738353)
(1249.4532 -26.916482 -18.076109)
(1243.3122 -32.002551 -15.755984)
(1237.3463 -36.319201 -14.015751)
(1231.5373 -39.421325 -12.629169)
(1226.0666 -41.831308 -11.884854)
(1221.4499 -43.495125 -11.458642)
(1216.9938 -44.21931 -11.58234)
(1213.7966 -44.818384 -11.994444)
(1210.6796 -44.798583 -12.750459)
(-4.1882024 10.374444 13.257971)
(-11.998765 13.905023 10.980122)
(-17.514174 18.745234 14.157089)
(-23.922203 20.959295 12.662218)
(-31.406664 23.920464 12.393107)
(-39.291703 26.404251 10.744349)
(-47.51634 27.656114 9.2668538)
(-56.18833 28.950779 7.1428346)
(-65.277712 29.283517 4.9972288)
(-74.315089 29.094181 2.6092796)
(-83.579687 28.156857 0.082502527)
(-92.609496 26.57256 -2.5398303)
(-101.48704 24.3137 -5.2673426)
(-109.95134 21.395088 -8.0340048)
(-117.95647 17.859956 -10.851434)
(-125.30941 13.762585 -13.679249)
(-131.9322 9.0936707 -16.482216)
(-137.63077 4.0684026 -19.206701)
(-142.44608 -1.4487422 -21.897892)
(-146.205 -7.1503836 -24.435144)
(-148.83033 -13.180619 -26.807637)
(-150.39343 -19.312026 -29.06324)
(-150.76889 -25.566206 -31.046781)
(-150.05943 -31.860977 -32.88872)
(-148.23116 -38.192111 -34.507943)
(-145.44253 -44.44187 -35.90878)
(-141.60098 -50.782619 -37.179826)
(-136.99175 -57.00896 -38.277387)
(-131.49117 -63.378348 -39.325995)
(-125.38942 -69.728223 -40.307499)
(-118.58264 -76.312649 -41.35657)
(-111.28941 -83.031965 -42.508679)
(-103.41091 -90.07213 -43.827263)
(-95.070937 -97.447129 -45.387972)
(-86.194848 -105.25127 -47.256184)
(-76.75887 -113.54038 -49.460522)
(-66.671654 -122.34988 -52.015323)
(-55.793071 -131.74679 -54.984817)
(-44.017183 -141.673 -58.301491)
(-31.112031 -152.18552 -61.958347)
(-16.930735 -163.20078 -65.898391)
(-1.2196331 -174.67109 -70.040587)
(16.215404 -186.50913 -74.288956)
(35.607569 -198.6037 -78.528847)
(57.151383 -210.83093 -82.634011)
(81.033929 -223.04338 -86.468165)
(107.40801 -235.09381 -89.892546)
(136.38392 -246.81454 -92.771248)
(168.03819 -258.0514 -94.973608)
(202.38397 -268.63963 -96.384709)
(239.39518 -278.43239 -96.903923)
(278.97834 -287.28647 -96.455985)
(320.99747 -295.08039 -94.987111)
(365.25026 -301.70202 -92.475153)
(411.50045 -307.06683 -88.922083)
(459.45201 -311.10306 -84.364238)
(508.78258 -313.76472 -78.861234)
(559.13122 -315.02271 -72.501807)
(610.11862 -314.87096 -65.397324)
(661.34495 -313.31694 -57.676674)
(712.40906 -310.3909 -49.487483)
(762.90823 -306.13376 -40.982808)
(812.44715 -300.60258 -32.326016)
(860.65311 -293.86714 -23.675221)
(907.16375 -286.00282 -15.193477)
(951.6595 -277.11096 -7.0195049)
(993.8585 -267.26562 0.69115624)
(1033.5068 -256.64967 7.8667253)
(1070.449 -245.20947 14.427215)
(1104.3908 -233.3338 20.064458)
(1135.1352 -220.74134 25.002383)
(1163.0125 -208.05523 29.114385)
(1187.5605 -195.01162 32.327326)
(1208.9792 -181.9303 34.660951)
(1227.2935 -168.88504 36.151895)
(1242.5836 -156.01853 36.80449)
(1254.9776 -143.4554 36.672784)
(1264.6166 -131.29753 35.818037)
(1271.71 -119.6877 34.271366)
(1276.4303 -108.67506 32.123341)
(1279.0287 -98.393682 29.431996)
(1279.7213 -88.87669 26.253703)
(1278.7641 -80.201552 22.680582)
(1276.4018 -72.391761 18.751775)
(1272.8961 -65.482615 14.572132)
(1268.4824 -59.45891 10.17289)
(1263.4273 -54.336518 5.6606676)
(1257.9547 -50.062688 1.0822343)
(1252.3022 -46.617964 -3.4791827)
(1246.6908 -43.939032 -7.9429349)
(1241.3236 -41.960903 -12.253766)
(1236.3688 -40.616831 -16.305741)
(1232.0033 -39.812806 -20.084414)
(1228.301 -39.360097 -23.523235)
(1226.0261 -39.408665 -26.668665)
(0 0 0)
(0 0 0)
(0 0 0)
(0 0 0)
(0 0 0)
(0 0 0)
(0 0 0)
(0 0 0)
(0 0 0)
(0 0 0)
(0 0 0)
(0 0 0)
(0 0 0)
(0 0 0)
(0 0 0)
(-8.159679 5.4184355 -10.739123)
(-15.458301 19.1097 -12.091028)
(-20.547689 18.721728 -12.248268)
(-28.796903 26.218369 -12.204174)
(-36.214645 28.15297 -11.279804)
(-44.772065 31.965283 -9.3606053)
(-53.489168 34.061034 -7.5353482)
(-62.812143 36.759453 -5.4135972)
(-72.298372 37.738883 -3.02312)
(-81.807029 39.02156 -0.64614791)
(-91.382551 39.124962 1.7038162)
(-101.01254 38.823079 4.1993948)
(-109.98962 37.938059 6.4146316)
(-118.92575 36.272033 8.626371)
(-126.82613 34.196314 10.452225)
(-134.30672 31.431215 12.162965)
(-140.95169 28.242637 13.316248)
(-146.17119 24.272421 14.401716)
(-150.90229 20.258956 14.823042)
(-153.85399 15.358857 15.015874)
(-156.12817 10.618354 14.829139)
(-157.09727 5.3237232 14.218944)
(-156.75246 -0.39293494 13.422287)
(-155.42572 -6.0058865 12.348947)
(-153.03074 -12.012974 11.185964)
(-149.72428 -17.91834 9.9324631)
(-145.62066 -24.00379 8.7808157)
(-140.75541 -30.242916 7.6581035)
(-135.31307 -36.420471 6.878367)
(-129.35039 -42.81216 6.2537935)
(-122.95374 -49.212298 6.0181522)
(-116.12351 -55.762191 6.0692764)
(-108.92052 -62.504795 6.4829284)
(-101.25067 -69.479335 7.2036096)
(-93.135685 -76.650671 8.1265162)
(-84.334629 -84.29639 9.2675456)
(-74.743874 -92.229565 10.540129)
(-64.248704 -100.6576 11.710961)
(-52.519147 -109.5654 12.721904)
(-39.380832 -119.02599 13.44982)
(-24.579834 -129.02839 13.757882)
(-7.8582966 -139.60031 13.535541)
(10.997529 -150.70729 12.677471)
(32.214631 -162.33528 11.110882)
(55.956819 -174.40478 8.7786021)
(82.370662 -186.85688 5.657865)
(111.53919 -199.57448 1.7546284)
(143.50224 -212.45112 -2.89415)
(178.2367 -225.33599 -8.224936)
(215.66996 -238.08959 -14.14515)
(255.66683 -250.53363 -20.546196)
(298.04559 -262.50962 -27.295905)
(342.57284 -273.82977 -34.261831)
(388.97708 -284.33121 -41.294792)
(436.94778 -293.833 -48.260255)
(486.15376 -302.18846 -55.017476)
(536.23859 -309.23935 -61.450231)
(586.83924 -314.86938 -67.445553)
(637.58828 -318.96261 -72.920051)
(688.11906 -321.44257 -77.800291)
(738.07747 -322.24702 -82.04029)
(787.12114 -321.34931 -85.609975)
(834.93011 -318.74591 -88.496224)
(881.19566 -314.45833 -90.705111)
(925.65504 -308.54585 -92.248596)
(968.04302 -301.08852 -93.155885)
(1008.1516 -292.07203 -93.484659)
(1045.7883 -281.89192 -93.151352)
(1081.0206 -270.89348 -92.488705)
(1112.8056 -257.83143 -90.999194)
(1142.3833 -244.7173 -89.436699)
(1168.8039 -230.67045 -87.142653)
(1192.2378 -216.05837 -84.6262)
(1212.7884 -201.15427 -81.729766)
(1230.4061 -186.06035 -78.502744)
(1245.1776 -170.94966 -75.025008)
(1257.2354 -155.99467 -71.320498)
(1266.6976 -141.34551 -67.435889)
(1273.7325 -127.13055 -63.43675)
(1278.5454 -113.48908 -59.37325)
(1281.3312 -100.5223 -55.317259)
(1282.342 -88.335003 -51.33019)
(1281.8006 -77.006642 -47.486647)
(1279.9776 -66.606597 -43.844006)
(1277.105 -57.188512 -40.477841)
(1273.4568 -48.785598 -37.433932)
(1269.2473 -41.432322 -34.765165)
(1264.7375 -35.117823 -32.511155)
(1260.1204 -29.861645 -30.688616)
(1255.6074 -25.605127 -29.314494)
(1251.3768 -22.351171 -28.377209)
(1247.5648 -19.979243 -27.854929)
(1244.3104 -18.466915 -27.696959)
(1241.6206 -17.624583 -27.829867)
(1238.6718 -17.38499 -28.056948)
(1254.4499 -18.629893 -27.304054)
(1267.0848 -19.916557 -26.090315)
(1273.4357 -21.022729 -25.132623)
(1275.0462 -21.085869 -24.386725)
(1271.23 -20.863451 -23.782248)
(1260.8594 -19.806234 -23.26109)
(1248.3544 -18.628383 -22.833477)
(1234.4389 -17.298388 -22.468378)
(1217.6977 -16.015167 -21.781026)
(1205.115 -14.8791 -21.273365)
(1199.3454 -14.429295 -20.526154)
(1198.133 -14.494042 -19.746254)
(1201.9385 -15.008701 -18.521802)
(1212.6856 -16.873458 -17.229997)
(1227.4448 -18.814015 -15.596314)
(1233.0785 -21.515441 -10.922836)
(1237.3936 -21.873293 -8.234869)
(1241.3492 -22.105927 -5.1647968)
(1246.1724 -22.117606 -1.8870065)
(1251.6401 -21.768119 1.8632006)
(1257.4647 -20.909245 5.6945249)
(1263.6668 -19.437772 9.7334055)
(1269.9111 -17.254675 13.871485)
(1276.0479 -14.206769 17.958811)
(1281.8291 -10.317396 22.068983)
(1287.0455 -5.3739871 25.992835)
(1291.4147 0.52721844 29.776352)
(1294.813 7.5516274 33.312703)
(1296.8023 15.667998 36.574416)
(1297.3247 24.832799 39.473243)
(1295.9723 35.113533 41.92981)
(1292.5688 46.436007 43.860908)
(1286.8984 58.725812 45.269252)
(1278.7095 71.962839 46.013619)
(1267.8228 85.993028 46.108436)
(1254.0672 100.77545 45.438923)
(1237.2876 116.12972 43.998779)
(1217.3901 131.97115 41.73738)
(1194.2826 148.1103 38.662387)
(1167.982 164.43807 34.688266)
(1138.3196 180.75767 29.975717)
(1106.1931 196.80333 24.324424)
(1069.382 213.01556 17.839682)
(1031.1858 227.88117 11.017259)
(989.49415 242.76738 3.3258309)
(945.5481 256.53672 -4.7453119)
(899.30678 269.35438 -13.204257)
(851.1367 281.03627 -21.861606)
(801.39291 291.40471 -30.585866)
(750.44014 300.35476 -39.216857)
(698.66428 307.76983 -47.600118)
(646.47404 313.55592 -55.587818)
(594.27587 317.6461 -63.034813)
(542.4801 319.99299 -69.815519)
(491.48018 320.58084 -75.817879)
(441.65845 319.41879 -80.953871)
(393.362 316.54772 -85.156874)
(346.9127 312.0366 -88.389044)
(302.58215 305.98245 -90.635764)
(260.60432 298.51069 -91.913984)
(221.15242 289.76603 -92.260384)
(184.35646 279.91887 -91.742056)
(150.27857 269.14689 -90.44075)
(118.93813 257.64613 -88.460206)
(90.296602 245.60906 -85.914775)
(64.259415 233.22146 -82.920395)
(40.713732 220.70368 -79.628409)
(19.481115 208.15159 -76.107327)
(0.36832042 195.82616 -72.562599)
(-16.796484 183.75869 -69.006126)
(-32.268898 172.11227 -65.586861)
(-46.28616 160.93297 -62.380394)
(-59.031718 150.581 -59.504438)
(-70.458581 140.08989 -56.618995)
(-81.138781 130.7067 -54.321321)
(-91.043272 121.85624 -52.338685)
(-99.954864 113.04984 -50.355706)
(-108.43877 105.06825 -48.869176)
(-116.27652 97.290478 -47.492858)
(-123.52559 89.895975 -46.337116)
(-129.96061 82.499241 -45.136757)
(-135.89396 75.492112 -44.031495)
(-140.89148 68.347454 -42.875594)
(-145.21244 61.501061 -41.69332)
(-148.57298 54.494185 -40.347203)
(-150.98541 47.632529 -38.904941)
(-152.37922 40.658647 -37.217322)
(-152.6431 33.837992 -35.428636)
(-151.82823 27.153317 -33.427285)
(-149.93412 20.471239 -31.227506)
(-146.89636 14.113011 -28.948475)
(-142.80039 8.0023677 -26.415846)
(-137.75965 2.2233134 -23.933111)
(-131.64928 -3.1192754 -21.177923)
(-124.92851 -7.9569102 -18.532126)
(-117.3284 -12.394558 -15.717215)
(-109.09571 -15.978414 -13.033448)
(-100.39952 -19.181747 -10.201052)
(-91.540285 -21.535981 -7.542823)
(-82.19374 -23.484285 -4.7692755)
(-72.879719 -24.421685 -2.2300904)
(-63.721869 -25.015961 0.33663283)
(-54.586575 -24.77045 2.7221764)
(-45.709371 -24.112845 4.9600201)
(-37.325215 -22.716606 6.9955541)
(-29.481866 -20.822199 8.6199256)
(-22.553688 -18.239903 9.8925601)
(-15.670483 -16.210072 10.859457)
(-10.380465 -11.96005 9.5882016)
(-8.0263414 -9.3039911 6.7285358)
(0 0 0)
(0 0 0)
(0 0 0)
(0 0 0)
(0 0 0)
(0 0 0)
(0 0 0)
(0 0 0)
(0 0 0)
(0 0 0)
(0 0 0)
(0 0 0)
(0 0 0)
(0 0 0)
(0 0 0)
(0 0 0)
(0 0 0)
(0 0 0)
(0 0 0)
(0 0 0)
(0 0 0)
(0 0 0)
(0 0 0)
(0 0 0)
(0 0 0)
(0 0 0)
(0 0 0)
(0 0 0)
(0 0 0)
(0 0 0)
(1225.4071 -36.473666 -29.613382)
(1226.0496 -33.578976 -29.353585)
(1226.7668 -31.038661 -29.048179)
(1227.5379 -28.756016 -28.786804)
(1228.3574 -26.758943 -28.672959)
(1229.2949 -25.008393 -28.616692)
(1230.3168 -23.481049 -28.660484)
(1231.4426 -22.157754 -28.715128)
(1232.6615 -21.020412 -28.811613)
(1233.9515 -20.065689 -28.847518)
(1235.2588 -19.286207 -28.916047)
(1236.669 -18.637582 -28.83601)
(1237.9838 -18.17697 -28.76943)
(1239.3035 -17.827031 -28.617351)
(1240.4618 -17.507084 -28.40492)
(1214.8931 -44.320961 -13.175598)
(1215.7308 -43.600687 -13.244017)
(1216.5501 -42.872951 -13.359581)
(1217.3797 -41.999806 -13.386881)
(1218.2184 -41.021186 -13.401862)
(1219.1595 -39.905177 -13.323699)
(1220.2105 -38.671497 -13.237611)
(1221.3885 -37.318256 -13.127737)
(1222.6911 -35.856914 -13.028261)
(1224.1194 -34.284431 -12.992412)
(1225.6547 -32.573108 -12.986396)
(1227.3034 -30.732954 -13.112219)
(1229.0393 -28.692953 -13.314774)
(1230.8064 -26.458882 -13.493772)
(1232.7265 -24.027686 -13.835808)
(-4.3069504 -6.4602902 -9.1679107)
(-10.198265 -8.7487544 -8.8958457)
(-15.788366 -12.606904 -10.183512)
(-22.95588 -15.449478 -9.4069327)
(-29.935585 -17.906326 -8.9140529)
(-38.155358 -20.171254 -7.5421652)
(-46.483725 -21.881453 -6.1529513)
(-55.612726 -23.404656 -4.386576)
(-64.756393 -24.304204 -2.6053918)
(-74.379918 -24.976428 -0.63816044)
(-83.901311 -25.036665 1.3596646)
(-93.515172 -24.856136 3.2872028)
(-102.82886 -23.982069 5.1848822)
(-111.85677 -22.88022 6.9245978)
(-120.27841 -21.129108 8.4837866)
(-128.13334 -19.11314 9.7619995)
(-135.13489 -16.479151 10.791847)
(-141.21799 -13.507988 11.447497)
(-146.26985 -10.095081 11.815198)
(-150.20383 -6.2733044 11.770974)
(-153.00897 -2.0421923 11.426599)
(-154.58942 2.4876272 10.751089)
(-155.04139 7.4363016 9.8196247)
(-154.33223 12.62233 8.6628261)
(-152.54835 18.116201 7.3644092)
(-149.75824 23.843856 6.0160345)
(-146.09474 29.834404 4.6385355)
(-141.62379 35.9754 3.3909137)
(-136.44167 42.313979 2.2834754)
(-130.67034 48.865181 1.4124453)
(-124.3734 55.496316 0.78946119)
(-117.56798 62.342543 0.47967361)
(-110.31388 69.34243 0.46342311)
(-102.5636 76.533972 0.71502438)
(-94.254302 83.929159 1.2508309)
(-85.251773 91.53255 1.9398836)
(-75.464098 99.431745 2.6934944)
(-64.666323 107.55275 3.4962316)
(-52.61839 116.03735 4.1694344)
(-39.146311 124.78638 4.6345786)
(-23.933639 133.88779 4.7942381)
(-6.722663 143.30208 4.5132197)
(12.657637 153.01155 3.7345276)
(34.521938 162.96925 2.3766112)
(59.016189 173.13791 0.39292921)
(86.31464 183.42196 -2.224138)
(116.50101 193.73544 -5.4793232)
(149.63113 203.96449 -9.3274617)
(185.67455 213.97385 -13.710699)
(224.55819 223.62454 -18.544194)
(266.13223 232.75633 -23.725697)
(310.19688 241.21646 -29.141449)
(356.49369 248.83493 -34.664727)
(404.71739 255.46304 -40.175875)
(454.52831 260.9443 -45.549712)
(505.54783 265.15056 -50.675445)
(557.38508 267.95749 -55.452298)
(609.63132 269.27905 -59.799162)
(661.87462 269.03868 -63.644917)
(713.71451 267.19788 -66.944819)
(764.74238 263.7416 -69.669547)
(814.60621 258.70307 -71.808415)
(862.92065 252.09203 -73.349395)
(909.3912 244.04697 -74.336305)
(953.67801 234.59431 -74.758846)
(995.59769 223.89911 -74.630774)
(1034.7923 212.18756 -74.135807)
(1071.1876 199.3743 -73.057576)
(1104.6791 185.89986 -71.696857)
(1134.9013 171.73419 -69.782141)
(1162.0746 157.19087 -67.676559)
(1186.008 142.42442 -65.157364)
(1206.7498 127.56767 -62.389139)
(1224.3349 112.79928 -59.372527)
(1238.8383 98.271251 -56.135622)
(1250.388 84.122826 -52.713163)
(1259.1212 70.475662 -49.143885)
(1265.2277 57.423579 -45.496072)
(1268.9176 45.07293 -41.762195)
(1270.4132 33.46301 -38.061289)
(1269.9664 22.702446 -34.39302)
(1267.8226 12.788606 -30.864856)
(1264.2818 3.7741279 -27.459247)
(1259.6397 -4.4428598 -24.334389)
(1254.1689 -11.652449 -21.482574)
(1247.8918 -18.048491 -18.954469)
(1241.4053 -23.561478 -16.823435)
(1234.6372 -28.274878 -15.038151)
(1228.1598 -32.179159 -13.702079)
(1221.8007 -35.37702 -12.766105)
(1216.0192 -37.879349 -12.240046)
(1210.9408 -39.789971 -12.065177)
(1206.2555 -41.006456 -12.248859)
(1202.853 -42.021478 -12.572305)
(1200.4004 -42.227609 -13.082117)
(-2.4803077 -5.5600807 -7.0726373)
(-7.9668546 -5.420809 -8.014587)
(-14.601783 -9.5859778 -8.3241725)
(-20.943441 -10.759022 -8.4222878)
(-28.583036 -13.266168 -7.6371118)
(-36.410044 -14.775349 -6.6836164)
(-45.068243 -16.473177 -5.4124607)
(-53.878745 -17.554888 -4.0758365)
(-63.300481 -18.54968 -2.5599162)
(-72.815983 -19.043762 -0.91704156)
(-82.52927 -19.342865 0.63247121)
(-92.183011 -19.197924 2.3195631)
(-101.67973 -18.788543 3.7916749)
(-110.84881 -17.969647 5.2899598)
(-119.56817 -16.844545 6.4693242)
(-127.67799 -15.340543 7.6144032)
(-134.92783 -13.456197 8.308321)
(-141.41924 -11.264489 8.9201707)
(-146.83701 -8.6644728 9.0656673)
(-151.18782 -5.715178 9.0209172)
(-154.38631 -2.4228419 8.5964989)
(-156.43318 1.2413566 7.9657758)
(-157.26858 5.2181924 7.0151195)
(-156.98232 9.5545812 5.9449163)
(-155.57975 14.145437 4.6950188)
(-153.15367 19.096361 3.3892687)
(-149.79562 24.244335 2.0768902)
(-145.58681 29.672922 0.86639726)
(-140.65403 35.314522 -0.25908795)
(-135.07433 41.144668 -1.1626611)
(-128.92669 47.159181 -1.8465568)
(-122.24889 53.341217 -2.2759021)
(-115.11119 59.688136 -2.4554612)
(-107.4258 66.144776 -2.3775701)
(-99.180756 72.791586 -2.1057197)
(-90.259294 79.572405 -1.6865217)
(-80.491299 86.509566 -1.1851304)
(-69.703129 93.640448 -0.69635692)
(-57.716288 100.93049 -0.31307175)
(-44.220663 108.43751 -0.12551829)
(-28.979452 116.13175 -0.2734232)
(-11.744315 124.04659 -0.75518182)
(7.812403 132.13021 -1.7895016)
(29.855686 140.40296 -3.3028471)
(54.634429 148.79092 -5.3900737)
(82.300586 157.2652 -8.0432892)
(112.96329 165.74312 -11.262539)
(146.66479 174.15154 -14.992004)
(183.39209 182.37508 -19.178199)
(223.05418 190.31076 -23.72864)
(265.50163 197.81952 -28.545104)
(310.51303 204.77905 -33.515441)
(357.81892 211.03783 -38.517508)
(407.08728 216.4726 -43.44233)
(457.95875 220.93866 -48.165452)
(510.02355 224.3268 -52.597541)
(562.87165 226.52188 -56.638787)
(616.05862 227.44797 -60.229067)
(669.15693 227.02923 -63.29913)
(721.72938 225.24019 -65.835191)
(773.36632 222.06147 -67.796262)
(823.67562 217.51958 -69.204176)
(872.27037 211.62903 -70.044808)
(918.85311 204.53116 -70.384469)
(963.0744 196.17946 -70.182036)
(1004.7368 186.93723 -69.599106)
(1043.6451 176.64468 -68.516043)
(1079.754 165.64654 -67.156088)
(1112.524 154.0483 -65.360563)
(1142.0882 141.91995 -63.293661)
(1168.3965 129.46405 -60.983894)
(1191.4014 116.88048 -58.436026)
(1211.1119 104.2513 -55.699164)
(1227.5995 91.755826 -52.764305)
(1240.9899 79.488209 -49.680693)
(1251.3874 67.571214 -46.501622)
(1259.0116 56.09766 -43.239374)
(1264.0075 45.135619 -39.944956)
(1266.6647 34.78077 -36.643778)
(1267.131 25.025246 -33.407338)
(1265.7797 15.989101 -30.255506)
(1262.7716 7.5794526 -27.24219)
(1258.4426 -0.0083229535 -24.450573)
(1251.943 -6.9353118 -21.696341)
(1244.9967 -13.240081 -19.280617)
(1238.2263 -18.719828 -17.322442)
(1231.2302 -23.519978 -15.623482)
(1224.0678 -27.566809 -14.323556)
(1217.1848 -31.120312 -13.360352)
(1210.6073 -33.893807 -12.728579)
(1204.4782 -36.205946 -12.468046)
(1199.3004 -37.952417 -12.41228)
(1194.3879 -39.062385 -12.731633)
(1191.0252 -40.011689 -12.994796)
(1188.3917 -40.181044 -13.604722)
(-2.0650781 -3.4709497 -5.6948892)
(-7.9096458 -3.9814429 -5.9931444)
(-12.950883 -6.0930592 -7.0190382)
(-20.009764 -7.5627583 -6.7763159)
(-27.237907 -9.0946765 -6.3404183)
(-35.433948 -10.610692 -5.4445154)
(-43.808897 -11.731633 -4.6051222)
(-53.008541 -12.848369 -3.4585475)
(-62.2936 -13.46428 -2.2174211)
(-71.983764 -14.164702 -0.99518761)
(-81.719012 -14.305656 0.34932074)
(-91.526148 -14.497021 1.5948946)
(-101.10453 -14.144694 2.8461963)
(-110.47401 -13.798324 3.9222359)
(-119.35384 -12.972235 4.9500459)
(-127.61463 -12.013491 5.6666762)
(-135.20638 -10.682001 6.2861048)
(-141.91285 -9.1146704 6.5822228)
(-147.60767 -7.198606 6.6463045)
(-152.27815 -5.0027712 6.4290597)
(-155.81872 -2.4809767 5.9753124)
(-158.15571 0.37161872 5.2339774)
(-159.34741 3.5297846 4.3245607)
(-159.36513 7.0086342 3.2277392)
(-158.26386 10.790874 2.000017)
(-156.11314 14.865981 0.72950594)
(-152.99692 19.204709 -0.54741678)
(-149.02134 23.817341 -1.7725334)
(-144.25888 28.629677 -2.8792183)
(-138.82978 33.670639 -3.807951)
(-132.79281 38.859251 -4.5601968)
(-126.21826 44.232081 -5.0872865)
(-119.12289 49.694158 -5.3884313)
(-111.48056 55.307937 -5.4966016)
(-103.27256 61.00854 -5.4296462)
(-94.362267 66.787664 -5.2416734)
(-84.643395 72.695129 -5.0129567)
(-73.913264 78.661464 -4.8141041)
(-61.886198 84.76744 -4.7263291)
(-48.363372 90.925799 -4.8785387)
(-33.103893 97.251861 -5.2735994)
(-15.778456 103.66631 -6.0854486)
(3.8534322 110.20763 -7.2925064)
(26.032331 116.8512 -9.0053902)
(50.984119 123.58526 -11.206764)
(78.875028 130.3679 -13.919501)
(109.81612 137.15463 -17.107129)
(143.86073 143.88896 -20.733684)
(180.99178 150.48322 -24.722327)
(221.11822 156.85681 -28.990792)
(264.08476 162.89629 -33.436725)
(309.66486 168.50142 -37.953449)
(357.57506 173.54306 -42.426531)
(407.47488 177.91609 -46.750135)
(458.98355 181.493 -50.816099)
(511.6838 184.1803 -54.541685)
(565.13865 185.87312 -57.84215)
(618.89533 186.50096 -60.66498)
(672.49977 186.00287 -62.967365)
(725.51285 184.3476 -64.727583)
(777.49546 181.52009 -65.939599)
(828.0536 177.53445 -66.614806)
(876.79169 172.43347 -66.778628)
(923.41233 166.28194 -66.454295)
(967.5224 159.14235 -65.716152)
(1009.0251 151.17431 -64.501199)
(1047.4626 142.37513 -63.105177)
(1083.315 132.92019 -61.145655)
(1115.6207 123.08569 -59.106618)
(1144.4844 112.86933 -56.804349)
(1170.1163 102.3846 -54.318613)
(1192.2873 91.830593 -51.666861)
(1211.1685 81.289141 -48.857322)
(1226.8618 70.874338 -45.970212)
(1239.4377 60.668899 -43.065034)
(1249.0682 50.821081 -40.086829)
(1255.9135 41.334693 -37.121356)
(1260.2206 32.310794 -34.172115)
(1262.1663 23.774841 -31.283893)
(1262.0735 15.77484 -28.484383)
(1260.1309 8.3317346 -25.81999)
(1256.6648 1.4373731 -23.305912)
(1251.9353 -4.8025719 -21.043968)
(1246.0824 -10.513939 -18.869102)
(1238.0215 -15.625424 -17.243526)
(1231.0715 -20.252064 -15.649656)
(1223.8991 -24.227503 -14.501259)
(1216.6172 -27.767466 -13.570255)
(1209.6853 -30.679964 -13.015021)
(1203.0147 -33.183533 -12.703598)
(1196.9249 -35.119801 -12.728169)
(1191.7443 -36.702684 -12.915851)
(1186.8752 -37.640439 -13.342318)
(1183.6331 -38.51666 -13.753478)
(1180.8497 -38.657307 -14.257849)
(-1.9963147 -3.1688845 -4.267388)
(-6.958506 -2.7143671 -5.2070082)
(-12.591517 -4.5348821 -5.4892407)
(-19.279959 -5.2643687 -5.4774302)
(-26.773784 -6.5247364 -5.0894929)
(-34.61396 -7.5102605 -4.5488729)
(-43.429736 -8.6006891 -3.8296841)
(-52.39836 -9.2751566 -2.9146904)
(-61.900648 -10.064991 -2.087538)
(-71.624509 -10.501807 -1.0100807)
(-81.524988 -10.871818 -0.11739124)
(-91.362193 -10.989303 0.94100637)
(-101.12875 -10.981949 1.7535558)
(-110.60079 -10.778596 2.6808333)
(-119.5755 -10.323559 3.2435817)
(-128.06809 -9.746398 3.8637233)
(-135.76498 -8.8740612 4.1204308)
(-142.63122 -7.8163237 4.2717956)
(-148.53085 -6.479931 4.1051309)
(-153.40179 -4.9092094 3.8012429)
(-157.09129 -3.0378929 3.1607921)
(-159.66839 -0.89788555 2.4117439)
(-161.03193 1.5212447 1.4111182)
(-161.24509 4.2561711 0.30775425)
(-160.31861 7.2421184 -0.92271348)
(-158.34056 10.53057 -2.1647545)
(-155.37905 14.055783 -3.4434094)
(-151.52151 17.830525 -4.622582)
(-146.88167 21.80303 -5.7278988)
(-141.53857 25.965881 -6.6716901)
(-135.57539 30.287864 -7.4646667)
(-129.04721 34.713697 -8.0479601)
(-121.97754 39.259802 -8.4717202)
(-114.36301 43.867024 -8.7231517)
(-106.14059 48.513906 -8.8392518)
(-97.224158 53.219921 -8.8958971)
(-87.419904 57.934482 -8.9439731)
(-76.557877 62.697342 -9.0152487)
(-64.527678 67.453634 -9.2349539)
(-51.004713 72.323748 -9.6177957)
(-35.702228 77.215183 -10.337404)
(-18.365657 82.16912 -11.36812)
(1.2697065 87.205622 -12.820951)
(23.463902 92.314539 -14.695196)
(48.427089 97.499344 -17.001515)
(76.32664 102.725 -19.739072)
(107.28597 107.97886 -22.872922)
(141.35347 113.21177 -26.355013)
(178.51711 118.36656 -30.106781)
(218.68629 123.3763 -34.048033)
(261.71076 128.15357 -38.07687)
(307.35928 132.61456 -42.095354)
(355.35421 136.64965 -45.992424)
(405.34651 140.17019 -49.678013)
(456.96142 143.0638 -53.051401)
(509.77012 145.24866 -56.046027)
(563.33794 146.62601 -58.584784)
(617.20093 147.13999 -60.64139)
(670.90954 146.72443 -62.168414)
(724.00531 145.35388 -63.175223)
(776.05851 143.00419 -63.651135)
(826.65699 139.70436 -63.636241)
(875.42499 135.45606 -63.137703)
(922.0028 130.34793 -62.240752)
(966.12803 124.39569 -60.911035)
(1007.4389 117.7595 -59.322314)
(1045.9151 110.45199 -57.388253)
(1081.0891 102.68819 -55.198996)
(1113.1537 94.554336 -52.980529)
(1141.7859 86.093222 -50.506613)
(1167.0801 77.384103 -47.898272)
(1189.0521 68.674724 -45.260955)
(1207.8025 59.97876 -42.544979)
(1223.2815 51.37297 -39.861202)
(1235.595 43.050021 -37.104598)
(1245.0055 34.935676 -34.418839)
(1251.6407 27.188975 -31.758542)
(1255.7678 19.802794 -29.180362)
(1257.6002 12.838827 -26.682511)
(1257.3744 6.3047302 -24.330004)
(1255.3927 0.23806155 -22.098772)
(1251.8714 -5.370218 -20.089301)
(1247.1363 -10.503195 -18.21776)
(1241.3894 -15.148092 -16.662679)
(1235.0677 -19.32707 -15.237854)
(1228.1211 -23.03661 -14.205884)
(1221.0668 -26.369926 -13.379979)
(1213.876 -29.178495 -12.892284)
(1207.0302 -31.672437 -12.62194)
(1200.4937 -33.64014 -12.658124)
(1194.471 -35.285539 -12.888734)
(1189.4304 -36.542337 -13.283579)
(1184.6234 -37.294043 -13.876707)
(1181.6404 -38.0435 -14.406664)
(1178.8309 -38.145001 -15.13094)
(-1.9191386 -1.8892897 -3.3592446)
(-7.0990693 -1.922881 -3.4648656)
(-12.292168 -2.9461031 -4.1175968)
(-19.176996 -3.7452421 -3.9863813)
(-26.327464 -4.4072261 -3.9649918)
(-34.731876 -5.4214206 -3.3672273)
(-43.349429 -5.9845434 -2.8775874)
(-52.620461 -6.8152095 -2.322918)
(-62.238275 -7.2315513 -1.5574648)
(-72.151639 -7.8601471 -0.92032155)
(-82.108355 -8.048719 -0.17804323)
(-92.154843 -8.4447882 0.4503527)
(-102.02783 -8.4604604 1.1308823)
(-111.55867 -8.5391457 1.5674733)
(-120.71636 -8.3338769 2.0272831)
(-129.24137 -8.1243647 2.2442497)
(-137.02261 -7.6105559 2.3152665)
(-143.98083 -7.0286731 2.1877228)
(-149.94041 -6.1889179 1.880048)
(-154.84045 -5.1482658 1.3270834)
(-158.60509 -3.8940213 0.62139793)
(-161.21723 -2.37845 -0.2816991)
(-162.61139 -0.63342945 -1.3385325)
(-162.87086 1.3888583 -2.4983847)
(-161.97031 3.6252687 -3.7388538)
(-160.03698 6.1413945 -5.007613)
(-157.08222 8.8402562 -6.2620476)
(-153.27217 11.782321 -7.4511835)
(-148.6336 14.860521 -8.5512507)
(-143.30877 18.134272 -9.5154306)
(-137.34481 21.467827 -10.330389)
(-130.80751 24.933119 -10.992646)
(-123.73209 28.427964 -11.513934)
(-116.08359 31.945867 -11.892199)
(-107.84846 35.491482 -12.193691)
(-98.882281 39.020508 -12.458193)
(-89.096827 42.547799 -12.700576)