/*--------------------------------*- C++ -*----------------------------------*\
  =========                 |
  \\      /  F ield         | OpenFOAM: The Open Source CFD Toolbox
   \\    /   O peration     | Website:  https://openfoam.org
    \\  /    A nd           | Version:  6
     \\/     M anipulation  |
\*---------------------------------------------------------------------------*/
FoamFile
{
    version     2.0;
    format      ascii;
    class       pointVectorField;
    location    "1.71";
    object      u;
}
// * * * * * * * * * * * * * * * * * * * * * * * * * * * * * * * * * * * * * //

dimensions      [0 1 0 0 0 0 0];

internalField   nonuniform List<vector> 
625
(
(0 3.28418e-19 0)
(0 2.9554987e-19 0)
(-1.0384808 -0.23434341 -0.15611964)
(-1.0654891 -0.0034189087 -0.15920857)
(0 4.258464e-19 0)
(0 2.311209e-18 0)
(-1.0687805 0.023628085 -0.15956545)
(-1.041747 -0.20727346 -0.15652847)
(0 -4.9922695e-20 0)
(2.2953612e-19 -5.3317176e-19 0)
(0 1.0907578e-18 0)
(-1.0452452 -0.17653656 -0.15688058)
(-1.0519373 -0.11884059 -0.15764)
(-1.0587352 -0.061169135 -0.15844879)
(-0.0037970121 -0.014525267 -0.012269412)
(-0.012975726 -0.027936299 -0.013825913)
(-0.026828947 -0.042899599 -0.017098389)
(-0.048372131 -0.056298548 -0.020723206)
(-0.072683953 -0.069103629 -0.025409483)
(-0.10392117 -0.081692701 -0.030776753)
(-0.13772737 -0.093398825 -0.037033882)
(-0.17640704 -0.10433261 -0.043578021)
(-0.21812331 -0.11546474 -0.05074234)
(-0.2631182 -0.12515528 -0.057974354)
(-0.31064622 -0.13516072 -0.065415128)
(-0.36062768 -0.14429488 -0.072965874)
(-0.41257342 -0.15323146 -0.080431055)
(-0.46611124 -0.16166748 -0.087859987)
(-0.5210562 -0.169854 -0.09513478)
(-0.57699115 -0.17766228 -0.10228991)
(-0.63376417 -0.18526011 -0.10927348)
(-0.69108836 -0.19259181 -0.11613378)
(-0.74880107 -0.19978349 -0.12284535)
(-0.80671964 -0.20680845 -0.12952001)
(-0.86474971 -0.21376565 -0.13610937)
(-0.92273983 -0.22063693 -0.14274112)
(-0.98068872 -0.22747664 -0.14939005)
(0.0021012126 0.00781982 0.012909679)
(-0.010865654 0.017602887 0.0067711077)
(-0.027000711 0.026968227 0.004724636)
(-0.049886944 0.035631281 -0.0021189124)
(-0.077342295 0.041840061 -0.0084273974)
(-0.11112404 0.048806251 -0.01621279)
(-0.14748966 0.052608341 -0.024081595)
(-0.1889078 0.056404038 -0.03283134)
(-0.23327075 0.058623733 -0.041445486)
(-0.28033977 0.059446018 -0.050529647)
(-0.33028648 0.05954927 -0.059500244)
(-0.38197581 0.058452971 -0.068442304)
(-0.43557679 0.05640441 -0.077257524)
(-0.49041831 0.053606518 -0.085809999)
(-0.5464206 0.049937109 -0.094180151)
(-0.60312555 0.045664636 -0.10220518)
(-0.66047832 0.040768946 -0.11002471)
(-0.71814013 0.03536879 -0.11750769)
(-0.77606077 0.029551727 -0.12483124)
(-0.83401641 0.023364054 -0.13187472)
(-0.89204487 0.016920618 -0.13885054)
(-0.94992952 0.010251306 -0.14565295)
(-1.0077873 0.0034410065 -0.15244775)
(0 2.9819124e-19 0)
(-4.0749243e-18 -8.7678649e-19 0)
(0 2.2221905e-18 0)
(-0.0047713829 0.0078041675 -0.010190703)
(-0.016318277 0.032868027 -0.015201228)
(-0.031498152 0.038337181 -0.016106781)
(-0.054009154 0.054174808 -0.020705338)
(-0.082341191 0.064398071 -0.02678079)
(-0.11480133 0.072863394 -0.03152181)
(-0.15165672 0.079677825 -0.03885682)
(-0.19314761 0.085449433 -0.04566984)
(-0.2368353 0.088306585 -0.053051776)
(-0.28464025 0.090837197 -0.06077576)
(-0.33375701 0.09069952 -0.068366275)
(-0.38584365 0.090141905 -0.076156195)
(-0.43900492 0.087705977 -0.083720161)
(-0.49390698 0.084620623 -0.091267252)
(-0.54968778 0.080389543 -0.098587244)
(-0.6063644 0.075527656 -0.10578873)
(-0.66359218 0.069972549 -0.112776)
(-0.72124189 0.063986584 -0.11964678)
(-0.77911791 0.057620229 -0.12637155)
(-0.83712536 0.051001385 -0.13301133)
(-0.8951402 0.044236007 -0.13961222)
(-0.95312882 0.037378758 -0.14621038)
(-1.0110033 0.030496011 -0.15284323)
(-1.0620028 -0.034138715 -0.15878299)
(-1.0551784 -0.091855354 -0.15803032)
(-1.0485088 -0.14951888 -0.15729209)
(-0.98400236 -0.20042233 -0.14977014)
(-0.92614297 -0.19356239 -0.14304427)
(-0.86831517 -0.18649765 -0.13627609)
(-0.81047562 -0.17927935 -0.129399)
(-0.75276008 -0.17180964 -0.12238748)
(-0.69525325 -0.16408195 -0.11518394)
(-0.63809713 -0.15609581 -0.10773747)
(-0.58146763 -0.14779275 -0.10005524)
(-0.52556888 -0.13926578 -0.092077566)
(-0.47062023 -0.13042249 -0.083867157)
(-0.41688944 -0.1214214 -0.075362515)
(-0.3647312 -0.11214788 -0.066749485)
(-0.31429435 -0.10286983 -0.057874203)
(-0.26610201 -0.093304367 -0.049089853)
(-0.22082532 -0.0837573 -0.040320686)
(-0.17799949 -0.074040035 -0.031767298)
(-0.13859748 -0.065057462 -0.023165835)
(-0.10326369 -0.054969496 -0.015727748)
(-0.072062088 -0.045846372 -0.0079165181)
(-0.045734209 -0.036016902 -0.0021469772)
(-0.023409878 -0.027659064 0.0038012735)
(-0.0086298308 -0.0159045 0.0083589831)
(-0.0023374243 -0.0093752543 0.0077485594)
(0 -5.3244493e-19 0)
(0 -5.5522861e-19 -1.1452145e-18)
(0 -1.63639e-18 0)
(0 9.6210057e-19 0)
(0 -1.0645458e-19 3.3943403e-19)
(0 7.3279152e-19 0)
(-1.0663022 0.0033408513 -0.15930453)
(-1.0671611 0.010131449 -0.15941129)
(-1.0679825 0.016915905 -0.15948146)
(-1.0393026 -0.22761712 -0.1562362)
(-1.0401213 -0.22082867 -0.15635888)
(-1.0409256 -0.21402291 -0.15643207)
(0.0021206993 -0.0086122778 -0.0091760229)
(-0.0079925329 -0.016433823 -0.0087752062)
(-0.022619486 -0.024907918 -0.012728347)
(-0.04469906 -0.032602478 -0.016341466)
(-0.070327378 -0.040568562 -0.02155288)
(-0.10236288 -0.048455346 -0.027474172)
(-0.1372736 -0.055790331 -0.033899995)
(-0.17702226 -0.063518538 -0.040997618)
(-0.2195739 -0.07093857 -0.048381262)
(-0.26553124 -0.078164902 -0.056067236)
(-0.31394729 -0.085704903 -0.063829592)
(-0.36467764 -0.092801515 -0.071702308)
(-0.41722939 -0.10006292 -0.079478137)
(-0.47136851 -0.10716442 -0.087161196)
(-0.52673639 -0.11425405 -0.094717015)
(-0.58305756 -0.12126843 -0.10208447)
(-0.64010525 -0.12823424 -0.10929887)
(-0.69763266 -0.13517947 -0.11633067)
(-0.75548334 -0.14209456 -0.12323813)
(-0.81348028 -0.14897959 -0.13004007)
(-0.87153969 -0.15587656 -0.13673758)
(-0.92954434 -0.16276056 -0.14345946)
(-0.98747196 -0.16965536 -0.15014124)
(0.0045776575 -0.0031597848 -0.0016117022)
(-0.0072393667 -0.0043911521 -0.0036478224)
(-0.021948467 -0.0077204473 -0.0069569912)
(-0.044175925 -0.010099074 -0.01205595)
(-0.071193236 -0.012908123 -0.017587425)
(-0.10322531 -0.016006207 -0.023914371)
(-0.13921802 -0.019733807 -0.03088743)
(-0.17961425 -0.023463526 -0.038473797)
(-0.22280908 -0.027822055 -0.046284766)
(-0.26949799 -0.032321594 -0.054311293)
(-0.31835512 -0.0373569 -0.062488354)
(-0.36960077 -0.042477065 -0.070660182)
(-0.42260337 -0.048032816 -0.078750479)
(-0.47709005 -0.05372787 -0.086720408)
(-0.53276616 -0.059680667 -0.094529934)
(-0.58931577 -0.065782827 -0.10210711)
(-0.64654228 -0.072068367 -0.10952353)
(-0.70418833 -0.078483136 -0.11670078)
(-0.76212563 -0.085012974 -0.12375336)
(-0.8201729 -0.091646651 -0.13062478)
(-0.87826311 -0.098370177 -0.13742983)
(-0.93627467 -0.10516242 -0.14417587)
(-0.99421956 -0.11200414 -0.15089828)
(0.0053266552 0.0024305195 0.0033926398)
(-0.007688991 0.0053699195 0.001079633)
(-0.021715526 0.0079451011 -0.0021884793)
(-0.045536822 0.010874146 -0.0076038154)
(-0.072449934 0.013499699 -0.013291967)
(-0.10520293 0.014193333 -0.020136954)
(-0.14209267 0.015369249 -0.027719778)
(-0.18271497 0.014970822 -0.035642304)
(-0.22665623 0.01403296 -0.043828868)
(-0.27382458 0.012426653 -0.05240467)
(-0.32316071 0.0099171331 -0.060898895)
(-0.37496511 0.0069550227 -0.069477505)
(-0.42826605 0.0032630468 -0.07788908)
(-0.48314452 -0.00091018067 -0.086172092)
(-0.53903812 -0.0055749992 -0.094225127)
(-0.59582501 -0.010693649 -0.10205533)
(-0.65317528 -0.01616348 -0.10965284)
(-0.71094295 -0.021981536 -0.11701882)
(-0.76892366 -0.028067572 -0.12418953)
(-0.82701506 -0.034386168 -0.13120192)
(-0.88508524 -0.04091089 -0.13806522)
(-0.94309822 -0.047558236 -0.14489386)
(-1.0009853 -0.054326486 -0.15164479)
(0 -3.3737214e-19 0)
(0 5.574118e-19 1.1691945e-18)
(0 1.2144492e-18 0)
(-6.0852193e-19 1.2150423e-20 0)
(2.5416571e-19 -3.7659589e-19 -1.8757086e-20)
(-1.6017367e-18 -1.4405007e-18 0)
(0 5.4795829e-19 0)
(0 1.4726516e-18 -3.916605e-20)
(0 1.6217236e-18 0)
(-0.0035660198 0.0035929852 0.0061101879)
(-0.0060609229 0.0057240825 0.0015443522)
(-0.0064616267 0.0044060654 -0.0026957722)
(-0.018179423 0.0237561 0.0020935467)
(-0.018900886 0.026198067 -0.0025271662)
(-0.019381607 0.026551449 -0.0085324129)
(-0.031264734 0.029336844 -0.00042794294)
(-0.033725125 0.030953267 -0.0047945639)
(-0.03484897 0.036598904 -0.011439392)
(-0.054997861 0.040536623 -0.006942464)
(-0.057033387 0.045828964 -0.011137268)
(-0.056490281 0.048120921 -0.015915158)
(-0.082305246 0.048151689 -0.012820752)
(-0.083740649 0.05201911 -0.01623156)
(-0.084736218 0.058425148 -0.021951024)
(-0.11482372 0.054746145 -0.019937737)
(-0.11700169 0.060989685 -0.024076221)
(-0.11691221 0.066322129 -0.027931139)
(-0.15162826 0.059924144 -0.02806906)
(-0.1530871 0.066103913 -0.030711489)
(-0.15363511 0.072762175 -0.035305884)
(-0.1926298 0.064078832 -0.035968486)
(-0.19392168 0.070474835 -0.038924694)
(-0.19468018 0.077576102 -0.042529572)
(-0.23624117 0.066030625 -0.044580408)
(-0.23785964 0.07327437 -0.047165048)
(-0.23812398 0.080618185 -0.050437807)
(-0.28359809 0.06761609 -0.053200929)
(-0.28478625 0.074989452 -0.055451283)
(-0.28549696 0.082549096 -0.058338666)
(-0.33274684 0.067475423 -0.061879915)
(-0.33408757 0.074899971 -0.063960326)
(-0.33461638 0.082747811 -0.06644467)
(-0.38449599 0.066496456 -0.070587575)
(-0.38563407 0.074178834 -0.072334686)
(-0.38624814 0.081917582 -0.074430609)
(-0.43760616 0.064357336 -0.079057185)
(-0.43873074 0.071909404 -0.08056552)
(-0.43938937 0.079803574 -0.082383444)
(-0.49234936 0.061448861 -0.087388157)
(-0.4933683 0.069052271 -0.088705488)
(-0.49399228 0.076741499 -0.090148821)
(-0.5480067 0.057620105 -0.095479434)
(-0.54897002 0.065074618 -0.096527916)
(-0.54967511 0.072774047 -0.097718576)
(-0.60458336 0.053186997 -0.10327824)
(-0.60551625 0.06059563 -0.10417529)
(-0.60618283 0.068076087 -0.10511352)
(-0.66172045 0.048112895 -0.11087044)
(-0.66257868 0.055343819 -0.11157066)
(-0.66328604 0.062738926 -0.11228006)
(-0.71925361 0.042536697 -0.11817721)
(-0.72009936 0.049700223 -0.11873372)
(-0.72081605 0.056924745 -0.11927133)
(-0.77703541 0.036585009 -0.12531214)
(-0.77785635 0.043606275 -0.12572982)
(-0.7785955 0.050713222 -0.12611126)
(-0.83494536 0.030269441 -0.13223605)
(-0.83576093 0.037223312 -0.13255903)
(-0.8365071 0.04421612 -0.1328244)
(-0.89286437 0.023742682 -0.13908282)
(-0.89366272 0.030610681 -0.13930506)
(-0.8944425 0.037513404 -0.13947754)
(-0.95075896 0.017025398 -0.14581489)
(-0.95158923 0.023864279 -0.14598108)
(-0.95237552 0.030697254 -0.14610565)
(-1.008585 0.010196703 -0.15254308)
(-1.0093965 0.017004259 -0.15265134)
(-1.0102093 0.023794789 -0.15275643)
(-1.0460621 -0.16981257 -0.15699556)
(-1.0468909 -0.16304143 -0.15711931)
(-1.0476903 -0.15626154 -0.15719386)
(-1.0527381 -0.11211632 -0.1577425)
(-1.0535772 -0.10534102 -0.15786563)
(-1.054374 -0.098588684 -0.15793415)
(-1.0595643 -0.054388014 -0.15854803)
(-1.0603943 -0.047600106 -0.15864347)
(-1.0612162 -0.040844396 -0.15870858)
(-0.009350394 -0.011354557 -0.0054637368)
(-0.007594264 -0.011356305 -0.0014247447)
(-0.0083155135 -0.0092483778 0.0038034473)
(-0.016715543 -0.024577825 -0.0072234645)
(-0.016774637 -0.022349274 -0.0010411629)
(-0.014530708 -0.01991404 0.0042466054)
(-0.031622636 -0.04015876 -0.010647487)
(-0.03054456 -0.036037441 -0.0061879281)
(-0.029725992 -0.033180101 0.00026104359)
(-0.051687365 -0.050709945 -0.014814787)
(-0.052251763 -0.046330008 -0.010548649)
(-0.050472046 -0.04214727 -0.0052001078)
(-0.076684413 -0.064474853 -0.020435311)
(-0.076952191 -0.058962344 -0.015719442)
(-0.075764291 -0.053623132 -0.011232466)
(-0.10726712 -0.075301331 -0.02614203)
(-0.10763503 -0.068404908 -0.022907681)
(-0.10685309 -0.063101577 -0.018387594)
(-0.14110426 -0.086618764 -0.032913704)
(-0.14174315 -0.080397769 -0.029583818)
(-0.14135513 -0.073587791 -0.02580353)
(-0.17963009 -0.097608019 -0.040140525)
(-0.18052908 -0.090007219 -0.037225641)
(-0.18019883 -0.083082747 -0.033928412)
(-0.22097755 -0.10786676 -0.04773768)
(-0.22223647 -0.10036012 -0.044997875)
(-0.22204556 -0.092927143 -0.042434508)
(-0.26603218 -0.11781561 -0.05545286)
(-0.26708203 -0.1099389 -0.053578283)
(-0.26744826 -0.1024364 -0.05084957)
(-0.31334745 -0.12745362 -0.06335255)
(-0.31462123 -0.11972696 -0.06142192)
(-0.31494714 -0.11187093 -0.059432649)
(-0.36320381 -0.13676174 -0.071243826)
(-0.36440356 -0.12879735 -0.069802039)
(-0.36504056 -0.12105693 -0.068076751)
(-0.4148549 -0.14560996 -0.079128893)
(-0.41619328 -0.13788893 -0.077878028)
(-0.41688832 -0.13006753 -0.076495997)
(-0.46827117 -0.1542661 -0.086816635)
(-0.4695297 -0.14654255 -0.085885682)
(-0.47037294 -0.13881245 -0.084787358)
(-0.52294185 -0.16250682 -0.094413071)
(-0.52424358 -0.15495846 -0.09367481)
(-0.52512176 -0.14733392 -0.09283264)
(-0.57872196 -0.17049953 -0.10175525)
(-0.57993564 -0.16307927 -0.10124814)
(-0.58087663 -0.1555793 -0.10062033)
(-0.63526803 -0.17821745 -0.10896175)
(-0.63645436 -0.17094776 -0.10860473)
(-0.63740396 -0.16358929 -0.1081681)
(-0.69242657 -0.18569855 -0.11594292)
(-0.69353311 -0.17856011 -0.11574249)
(-0.69448927 -0.1713343 -0.11546314)
(-0.74997142 -0.19297031 -0.12280268)
(-0.75102169 -0.18594644 -0.12271824)
(-0.75195796 -0.17884716 -0.12255568)
(-0.80775933 -0.20008524 -0.12954918)
(-0.80873276 -0.19316699 -0.12952591)
(-0.80965484 -0.18616785 -0.12946645)
(-0.86567509 -0.20705601 -0.13618304)
(-0.86659713 -0.20019392 -0.13625277)
(-0.86749288 -0.1932773 -0.13626679)
(-0.92359902 -0.21395333 -0.14285774)
(-0.92446196 -0.20713541 -0.14293965)
(-0.92533175 -0.20029125 -0.14298497)
(-0.98149836 -0.22076112 -0.14949012)
(-0.98234256 -0.21397717 -0.14958182)
(-0.98317843 -0.20716798 -0.14967545)
(0.002487721 -0.0021468212 0.0037264194)
(-0.0060246015 -0.0088447357 0.0015854864)
(-0.020524129 -0.0079223851 -0.0033170638)
(-0.044299848 -0.013359441 -0.0076447669)
(-0.070212643 -0.017400394 -0.013561165)
(-0.1030177 -0.021725493 -0.020553905)
(-0.13894476 -0.027509037 -0.027855244)
(-0.17922626 -0.032916426 -0.035810249)
(-0.22241447 -0.039609592 -0.043896987)
(-0.2688521 -0.046020291 -0.052344528)
(-0.31759137 -0.053265068 -0.060754245)
(-0.36863105 -0.060492106 -0.069213269)
(-0.42134777 -0.068115656 -0.077536977)
(-0.47555442 -0.075764091 -0.085707866)
(-0.53093371 -0.083529377 -0.093681986)
(-0.58717783 -0.09128703 -0.10140346)
(-0.64410894 -0.098979152 -0.10892533)
(-0.70150015 -0.10659416 -0.11620686)
(-0.75919074 -0.11407906 -0.12330118)
(-0.81704783 -0.12142228 -0.13023332)
(-0.87498539 -0.12862423 -0.13706048)
(-0.93288195 -0.1356914 -0.14380634)
(-0.99077222 -0.14264714 -0.15054416)
(0.004026042 -0.00070428517 -0.0022105748)
(-0.0067568108 0.004515145 -0.0037933212)
(-0.023513801 0.0075556789 -0.0080528449)
(-0.046457562 0.0086623797 -0.012088764)
(-0.072579706 0.0089997354 -0.017317035)
(-0.10630303 0.010178409 -0.024772016)
(-0.14185364 0.0073883379 -0.030979676)
(-0.18297992 0.0063041418 -0.039060228)
(-0.22632897 0.0025215232 -0.046694705)
(-0.27326739 -0.00083949676 -0.055035197)
(-0.32219065 -0.0058438205 -0.063026914)
(-0.37370592 -0.010781973 -0.071374718)
(-0.42657848 -0.016739765 -0.079364423)
(-0.48115008 -0.022784477 -0.087411305)
(-0.53668643 -0.029430711 -0.095121504)
(-0.59316998 -0.036118398 -0.10273703)
(-0.65025671 -0.043096115 -0.11008909)
(-0.70779785 -0.050105478 -0.11725569)
(-0.76560665 -0.057154965 -0.12426207)
(-0.82356461 -0.064211349 -0.13112293)
(-0.88157685 -0.071191414 -0.13789262)
(-0.93952095 -0.078151956 -0.14460721)
(-0.99747325 -0.085027389 -0.1512939)
(0.0035649915 0.0063965866 -0.006648458)
(-0.011123277 0.013243001 -0.0088348654)
(-0.026106257 0.024980173 -0.014301491)
(-0.047988769 0.027436514 -0.016477718)
(-0.075524787 0.035928741 -0.023495081)
(-0.1091109 0.039114178 -0.028970255)
(-0.14491969 0.042083663 -0.035596433)
(-0.18679752 0.044101051 -0.043061553)
(-0.23017588 0.044171061 -0.05050692)
(-0.2777548 0.043383639 -0.058267622)
(-0.32702711 0.041411767 -0.06613929)
(-0.37881199 0.038414033 -0.073996768)
(-0.43210303 0.034618352 -0.081808636)
(-0.48688762 0.029972498 -0.089468804)
(-0.5427154 0.024786239 -0.096989803)
(-0.5993877 0.019055441 -0.1043305)
(-0.65665897 0.012932271 -0.11148607)
(-0.71432117 0.0065238728 -0.11847221)
(-0.77225073 -8.7331561e-05 -0.12533748)
(-0.83028308 -0.0068312819 -0.13206733)
(-0.88833365 -0.01363161 -0.13875969)
(-0.94634224 -0.020475328 -0.14540117)
(-1.0042345 -0.027280493 -0.15208382)
(-0.0015054081 -0.0031374272 -0.0037125711)
(-0.0011056503 -0.0034455546 -0.0011479219)
(-0.0020516772 -0.0019859907 0.0019831808)
(-0.011925792 -0.014867382 -0.0051186043)
(-0.013309451 -0.012422684 -0.0018730226)
(-0.010964685 -0.010819288 0.0010143549)
(-0.02712158 -0.020405725 -0.0088441246)
(-0.025633846 -0.017307754 -0.0062443239)
(-0.025794684 -0.01387519 -0.0042703855)
(-0.048034127 -0.028431775 -0.013216412)
(-0.04934027 -0.024103634 -0.010449234)
(-0.04840501 -0.01900324 -0.0088862784)
(-0.074402928 -0.03529305 -0.018236845)
(-0.074530029 -0.029775306 -0.016597446)
(-0.074295215 -0.024357109 -0.01440382)
(-0.10568965 -0.042144383 -0.024936081)
(-0.10664148 -0.036327881 -0.022936658)
(-0.10598502 -0.030009084 -0.021557739)
(-0.14074704 -0.04924448 -0.031550155)
(-0.14137169 -0.042912747 -0.030028044)
(-0.14150452 -0.035560907 -0.028621652)
(-0.18009651 -0.056570354 -0.039038745)
(-0.18133275 -0.04913117 -0.037753501)
(-0.18122889 -0.041871257 -0.03664487)
(-0.22274801 -0.063284188 -0.046718323)
(-0.22366101 -0.056199814 -0.045730847)
(-0.22391317 -0.048350189 -0.044601026)
(-0.26841696 -0.070740276 -0.054781045)
(-0.26949301 -0.063181438 -0.053832307)
(-0.26998549 -0.055110627 -0.052980398)
(-0.31658966 -0.077942456 -0.062738276)
(-0.31779519 -0.070211038 -0.062024352)
(-0.31826751 -0.062102313 -0.061368738)
(-0.36713846 -0.085098819 -0.07090127)
(-0.36830883 -0.077406152 -0.07037342)
(-0.36899866 -0.069371512 -0.069746794)
(-0.4194562 -0.092436531 -0.078862348)
(-0.42069224 -0.084741944 -0.07841217)
(-0.42142749 -0.076690759 -0.07799296)
(-0.47341 -0.099645984 -0.086748714)
(-0.47458767 -0.092024216 -0.086480133)
(-0.47541634 -0.084135975 -0.086114798)
(-0.52853867 -0.10686699 -0.09444159)
(-0.52974406 -0.09933901 -0.094241053)
(-0.53058664 -0.091596414 -0.093999758)
(-0.58469633 -0.11403226 -0.10194797)
(-0.5858143 -0.10666144 -0.10185317)
(-0.58669915 -0.099090154 -0.10167129)
(-0.64152037 -0.12116692 -0.10924857)
(-0.64262913 -0.11390269 -0.10920991)
(-0.64351365 -0.10650501 -0.10911293)
(-0.69891111 -0.12823451 -0.11635885)
(-0.69994541 -0.12110863 -0.11638581)
(-0.70082336 -0.11387519 -0.11633453)
(-0.75659072 -0.13526379 -0.12330891)
(-0.75758995 -0.12823937 -0.12336445)
(-0.75846215 -0.12115999 -0.12337016)
(-0.81448438 -0.14222105 -0.13013511)
(-0.81543145 -0.13531117 -0.13022217)
(-0.81628566 -0.12833693 -0.13024407)
(-0.87244594 -0.1491662 -0.13685541)
(-0.87336011 -0.14232575 -0.13696196)
(-0.87419263 -0.13543963 -0.1370239)
(-0.93040261 -0.15606955 -0.14357392)
(-0.93125973 -0.14924559 -0.14367216)
(-0.93208549 -0.14243585 -0.14374235)
(-0.98829745 -0.16295443 -0.15024018)
(-0.98914172 -0.15616815 -0.15034608)
(-0.98995575 -0.14938567 -0.15043607)
(0.0015094527 -0.0012989109 3.7740268e-05)
(0.00059343196 -0.0015621812 0.00028605333)
(-0.00042833258 -0.00057188041 0.00016466368)
(-0.010721912 -0.002523483 -0.0018258138)
(-0.011838402 -0.00098101382 -0.0016835863)
(-0.009715286 0.00099214046 -0.0023548704)
(-0.026299042 -0.0043731131 -0.0057845817)
(-0.026858191 -0.001300408 -0.0070171454)
(-0.026833273 0.0025558054 -0.0067264611)
(-0.047767615 -0.0051447453 -0.010462829)
(-0.050412985 -0.00052446198 -0.011279222)
(-0.049149965 0.0045324806 -0.010971173)
(-0.075104259 -0.0077490128 -0.016696868)
(-0.076277426 -0.0026627713 -0.017669998)
(-0.075347976 0.0024043907 -0.016580892)
(-0.10669932 -0.0099149747 -0.023069622)
(-0.10860816 -0.0034988779 -0.023546036)
(-0.1079345 0.0028312751 -0.023570509)
(-0.14269759 -0.013147652 -0.030097329)
(-0.14407144 -0.0065588138 -0.031163131)
(-0.14382864 0.00055384675 -0.030528411)
(-0.18272736 -0.016345952 -0.038049624)
(-0.18446018 -0.0089310607 -0.038675303)
(-0.18403694 -0.0020447151 -0.038251293)
(-0.22583146 -0.020412114 -0.04590374)
(-0.22724411 -0.013210495 -0.046420267)
(-0.22734904 -0.0052724479 -0.046256573)
(-0.27217949 -0.024910452 -0.054083489)
(-0.27377691 -0.016934107 -0.054766004)
(-0.27384905 -0.0092971796 -0.054559043)
(-0.32095783 -0.029594213 -0.062399934)
(-0.32231702 -0.021930299 -0.062940463)
(-0.32268852 -0.013844364 -0.062734138)
(-0.37194525 -0.034852544 -0.07065637)
(-0.37336751 -0.026937126 -0.071166042)
(-0.37379221 -0.01908116 -0.071066392)
(-0.42476761 -0.040386618 -0.078838168)
(-0.42604085 -0.032695341 -0.07929707)
(-0.42662398 -0.024643362 -0.079196202)
(-0.4790144 -0.046202751 -0.086859052)
(-0.48029412 -0.038425875 -0.087271451)
(-0.48091579 -0.030671106 -0.087234528)
(-0.53451595 -0.052259231 -0.09471828)
(-0.53567241 -0.044741079 -0.095063279)
(-0.53639074 -0.037010937 -0.095040993)
(-0.59085896 -0.058528911 -0.102311)
(-0.59197485 -0.051067553 -0.10263126)
(-0.59272002 -0.04356649 -0.10264147)
(-0.64791733 -0.064953831 -0.10974451)
(-0.64895339 -0.05767802 -0.11000292)
(-0.6497425 -0.0502865 -0.11003236)
(-0.70541284 -0.071506019 -0.11691098)
(-0.706399 -0.0643291 -0.11714207)
(-0.70719434 -0.057146278 -0.11719428)
(-0.76321063 -0.078145484 -0.12395424)
(-0.76414073 -0.071116825 -0.12414371)
(-0.7649568 -0.064046503 -0.12420428)
(-0.82116516 -0.084887941 -0.13079929)
(-0.82205155 -0.077940323 -0.13096745)
(-0.82286614 -0.070976856 -0.13104473)
(-0.87916114 -0.09166066 -0.13758324)
(-0.88001453 -0.084756843 -0.13772265)
(-0.880838 -0.077914846 -0.13781683)
(-0.93711909 -0.098446762 -0.144305)
(-0.93794898 -0.091639057 -0.14443314)
(-0.9387651 -0.084819729 -0.14450103)
(-0.99503521 -0.10528729 -0.15099242)
(-0.99586646 -0.098503469 -0.1511002)
(-0.99667603 -0.091747507 -0.15120181)
(0.0011099573 0.0029677163 0.0015887066)
(0.0010202723 0.0029659999 -0.00011487972)
(0.0005865533 0.0033476388 -0.0026275748)
(-0.013268692 0.0070304652 -0.00058202294)
(-0.01481982 0.0069494413 -0.0030935635)
(-0.014004995 0.010252242 -0.0057331282)
(-0.027132528 0.011847851 -0.0041343285)
(-0.028151793 0.016839914 -0.0070578526)
(-0.029528599 0.020269543 -0.010103712)
(-0.050731737 0.01614292 -0.0093634772)
(-0.051673909 0.018776069 -0.011570894)
(-0.052144202 0.023620905 -0.013793797)
(-0.077128203 0.018506672 -0.01519113)
(-0.078148102 0.024313638 -0.017459276)
(-0.078720755 0.029451945 -0.019761643)
(-0.1097942 0.020960934 -0.02169617)
(-0.1110186 0.026376624 -0.023810971)
(-0.11152426 0.032847559 -0.02592465)
(-0.14621638 0.022221547 -0.029317694)
(-0.14684484 0.028622994 -0.031467786)
(-0.14780256 0.035017909 -0.033140532)
(-0.18647731 0.022253521 -0.037164808)
(-0.18781165 0.02909654 -0.038684282)
(-0.18839224 0.036399237 -0.040412306)
(-0.23035083 0.02175763 -0.045166414)
(-0.23111552 0.028974746 -0.046955677)
(-0.23205741 0.036370113 -0.048546008)
(-0.27700867 0.020275261 -0.053751206)
(-0.27815462 0.02764371 -0.055185829)
(-0.27885779 0.035384975 -0.05640834)
(-0.32615223 0.017900105 -0.062098847)
(-0.32712385 0.025569808 -0.06335462)
(-0.32804878 0.033328642 -0.064595145)
(-0.37760055 0.014930218 -0.070581059)
(-0.37866777 0.022545539 -0.071736077)
(-0.37940566 0.030367607 -0.072722599)
(-0.43063821 0.011163102 -0.07888488)
(-0.4316076 0.018896238 -0.079844017)
(-0.43251808 0.026676085 -0.080716452)
(-0.48522765 0.0069043599 -0.087063566)
(-0.48626018 0.014519486 -0.087885703)
(-0.48702357 0.022192818 -0.088633066)
(-0.5408925 0.0020652489 -0.094998563)
(-0.54182786 0.0096167638 -0.095694277)
(-0.54267756 0.017164745 -0.096305209)
(-0.59742329 -0.0032066639 -0.10273309)
(-0.59839015 0.004212323 -0.10330159)
(-0.59916426 0.011641863 -0.10380255)
(-0.65458993 -0.008862779 -0.11021808)
(-0.65549208 -0.0015462378 -0.11067107)
(-0.65630263 0.0057121986 -0.11108814)
(-0.71216702 -0.014832283 -0.11748645)
(-0.71308341 -0.0076520107 -0.11785793)
(-0.71383969 -0.00053483386 -0.11817624)
(-0.77001879 -0.021068407 -0.12456671)
(-0.77086758 -0.014006688 -0.12484746)
(-0.77166422 -0.0069987282 -0.12510624)
(-0.82797688 -0.027501732 -0.13149402)
(-0.82887099 -0.020516751 -0.13170616)
(-0.82962804 -0.013630862 -0.13190465)
(-0.88598476 -0.034095014 -0.13828425)
(-0.88680844 -0.027205367 -0.13846591)
(-0.88759037 -0.020377715 -0.13862123)
(-0.9439433 -0.040790567 -0.14505561)
(-0.94479223 -0.033948043 -0.14519321)
(-0.94558185 -0.027186278 -0.14530543)
(-1.0018009 -0.04756861 -0.1517521)
(-1.002634 -0.040754074 -0.15186901)
(-1.0034296 -0.034004546 -0.15196585)
)
;

boundaryField
{
    free
    {
        type            calculated;
    }
    fixed
    {
        type            calculated;
    }
    freeTop
    {
        type            calculated;
    }
}


// ************************************************************************* //
