/*--------------------------------*- C++ -*----------------------------------*\
  =========                 |
  \\      /  F ield         | OpenFOAM: The Open Source CFD Toolbox
   \\    /   O peration     | Website:  https://openfoam.org
    \\  /    A nd           | Version:  6
     \\/     M anipulation  |
\*---------------------------------------------------------------------------*/
FoamFile
{
    version     2.0;
    format      ascii;
    class       pointVectorField;
    location    "1.79";
    object      lm;
}
// * * * * * * * * * * * * * * * * * * * * * * * * * * * * * * * * * * * * * //

dimensions      [1 -2 -1 0 0 0 0];

internalField   nonuniform List<vector> 
28033
(
(0 0 0)
(0 0 0)
(1264.2581 153.57091 42.545072)
(1243.5334 -99.831298 44.036469)
(0 0 0)
(0 0 0)
(1235.3667 -192.29995 42.630492)
(1257.3035 60.55192 44.661678)
(0 0 0)
(0 0 0)
(0 0 0)
(0 0 0)
(0 0 0)
(0 0 0)
(0 0 0)
(0 0 0)
(0 0 0)
(0 0 0)
(0 0 0)
(0 0 0)
(0 0 0)
(0 0 0)
(0 0 0)
(1263.1255 140.01428 43.558276)
(1262.6932 126.08282 44.7444)
(1262.4022 111.32531 45.334301)
(1262.0318 95.935174 45.587657)
(1261.6561 79.766885 45.637641)
(1260.9236 63.040238 45.122681)
(1260.0548 45.925994 44.685614)
(1258.8429 28.602995 44.054937)
(1257.2743 11.165845 43.342371)
(1255.5898 -5.99719 42.757489)
(1253.5162 -22.898469 42.35951)
(1251.4112 -39.261987 42.210782)
(1249.2244 -55.21778 42.309177)
(1247.0891 -70.40682 42.704985)
(1245.1707 -85.274668 43.414029)
(-12.777149 -20.049508 -17.579335)
(-19.837883 -27.67624 -22.485475)
(-28.643922 -35.328927 -24.469699)
(-38.914678 -42.855932 -25.290666)
(-49.878845 -49.457021 -24.634378)
(-62.091043 -55.869469 -23.619996)
(-75.1473 -61.689495 -21.897691)
(-89.089603 -66.795108 -19.980045)
(-103.7585 -71.476484 -17.74929)
(-119.15057 -75.269197 -15.399812)
(-134.94046 -78.434208 -12.911702)
(-151.16708 -80.805284 -10.384187)
(-167.59197 -82.437599 -7.8948765)
(-184.22942 -83.233383 -5.3523278)
(-200.69331 -83.172908 -2.9838111)
(-217.01719 -82.302292 -0.67491546)
(-232.9777 -80.634223 1.4080543)
(-248.57066 -78.119609 3.4403906)
(-263.42816 -74.714528 5.129043)
(-277.63306 -70.550533 6.720707)
(-291.00169 -65.566617 8.0439468)
(-303.39047 -59.756942 9.1818861)
(-314.81891 -53.302511 10.149355)
(-325.10708 -45.970006 10.95176)
(-334.22683 -38.009289 11.583046)
(-342.10988 -29.350761 12.128367)
(-348.68732 -20.095164 12.610092)
(-353.89246 -10.133756 12.980939)
(-357.64838 0.31153401 13.322452)
(-359.92158 11.276818 13.666158)
(-360.53914 22.835482 13.88784)
(-359.53619 34.714191 14.089335)
(-356.76562 46.993806 14.249398)
(-352.08533 59.531911 14.256082)
(-345.49212 72.378579 14.138785)
(-336.87243 85.280987 13.782472)
(-326.19439 98.30515 13.270379)
(-313.34135 111.26992 12.444836)
(-298.35753 124.052 11.297387)
(-281.24475 136.64304 9.8798467)
(-262.02641 148.83269 8.1144062)
(-240.84176 160.60077 6.0731349)
(-217.73638 171.81758 3.7382184)
(-192.9044 182.39351 1.1640855)
(-166.55304 192.26651 -1.554349)
(-138.85893 201.38838 -4.3951088)
(-110.0815 209.71365 -7.2383414)
(-80.434991 217.23682 -10.030615)
(-50.163957 223.9608 -12.678684)
(-19.476495 229.92004 -15.123332)
(11.431839 235.15876 -17.305321)
(42.407488 239.75055 -19.193203)
(73.338802 243.76788 -20.772367)
(104.15818 247.30889 -22.055272)
(134.85624 250.45765 -23.079007)
(165.46388 253.31446 -23.906253)
(196.07042 255.95462 -24.615004)
(226.79048 258.45792 -25.310074)
(257.78358 260.87595 -26.096149)
(289.21533 263.24404 -27.092946)
(321.26754 265.56759 -28.396476)
(354.09923 267.86506 -30.135953)
(387.86656 270.05082 -32.344829)
(422.67567 272.1256 -35.132968)
(458.57742 273.97536 -38.475417)
(495.61557 275.52923 -42.363857)
(533.7047 276.71754 -46.852072)
(572.75924 277.3413 -51.676096)
(612.55608 277.40361 -56.950629)
(652.90622 276.82921 -62.326025)
(693.47834 275.49388 -67.640097)
(734.00316 273.3695 -72.845765)
(774.13242 270.43656 -77.6743)
(813.5068 266.67282 -81.938019)
(851.77707 262.12682 -85.448683)
(888.60298 256.81504 -88.042093)
(923.70019 250.84221 -89.565647)
(956.82103 244.29132 -89.939129)
(987.71169 237.29124 -89.041032)
(1016.3391 229.90377 -86.8586)
(1042.5568 222.43681 -83.449159)
(1066.3421 214.79927 -78.711221)
(1087.8704 207.33744 -72.860163)
(1107.0833 200.01413 -65.862574)
(1124.3634 193.1258 -57.980883)
(1139.8266 186.61496 -49.325701)
(1153.8625 180.6293 -40.056629)
(1166.5862 175.36944 -30.403425)
(1178.678 170.4897 -20.469686)
(1189.9125 166.73401 -10.576878)
(1201.4833 162.91992 -0.67514543)
(1212.6441 160.63638 8.7259129)
(1224.7647 158.00155 17.943374)
(1237.3573 156.26888 26.359076)
(1250.5355 154.97388 34.586415)
(-6.544234 15.755709 20.271829)
(-17.293862 22.280124 18.308376)
(-25.716766 30.592809 22.44865)
(-35.272317 35.619568 20.974762)
(-46.839568 41.95276 20.436057)
(-59.126153 47.476657 18.466974)
(-72.232935 51.815998 16.534841)
(-86.356932 56.112971 13.940429)
(-101.33472 59.41618 11.31146)
(-116.74578 62.061028 8.4552597)
(-132.87171 63.927119 5.4600449)
(-149.21604 64.965555 2.3957975)
(-165.91056 65.252327 -0.79697841)
(-182.65773 64.69041 -4.0244392)
(-199.43738 63.34044 -7.361812)
(-216.0333 61.203601 -10.74093)
(-232.33641 58.233279 -14.176462)
(-248.19173 54.628307 -17.636236)
(-263.53793 50.216064 -21.181697)
(-278.20787 45.235049 -24.681496)
(-292.02973 39.552263 -28.213994)
(-305.03047 33.362508 -31.724221)
(-316.97343 26.587691 -35.181136)
(-327.88085 19.3863 -38.60558)
(-337.58065 11.660958 -41.947585)
(-346.12343 3.6465957 -45.188414)
(-353.21189 -4.9043636 -48.319699)
(-359.04164 -13.62014 -51.30134)
(-363.25233 -22.829323 -54.133771)
(-366.04849 -32.167868 -56.74811)
(-367.0715 -41.898174 -59.168129)
(-366.50461 -51.755729 -61.353148)
(-364.04813 -61.852135 -63.241228)
(-359.75708 -72.086057 -64.826327)
(-353.46937 -82.396704 -66.067182)
(-345.18141 -92.779476 -66.941695)
(-334.80461 -103.06506 -67.33794)
(-322.2422 -113.35766 -67.365133)
(-307.61968 -123.377 -66.91314)
(-290.81085 -133.19981 -66.00218)
(-271.9461 -142.67158 -64.629488)
(-251.06825 -151.74041 -62.823832)
(-228.31319 -160.33559 -60.61314)
(-203.81524 -168.39973 -58.052994)
(-177.76685 -175.89091 -55.211715)
(-150.36838 -182.77813 -52.169628)
(-121.84438 -189.0584 -49.022567)
(-92.434349 -194.73382 -45.873615)
(-62.366238 -199.84035 -42.829458)
(-31.871293 -204.41785 -39.998519)
(-1.1479338 -208.53155 -37.48125)
(29.624098 -212.25053 -35.370128)
(60.314424 -215.65813 -33.739399)
(90.823252 -218.83241 -32.646715)
(121.11418 -221.85622 -32.122627)
(151.18354 -224.79732 -32.177468)
(181.0875 -227.71488 -32.789707)
(210.91516 -230.6463 -33.917098)
(240.79586 -233.6119 -35.489573)
(270.87892 -236.6013 -37.417938)
(301.33163 -239.58687 -39.596957)
(332.31852 -242.51058 -41.904275)
(363.99554 -245.29171 -44.222226)
(396.49291 -247.8336 -46.415094)
(429.90381 -250.01779 -48.37701)
(464.29025 -251.73848 -49.979145)
(499.66079 -252.82781 -51.143825)
(535.90395 -253.223 -51.76985)
(573.00213 -252.71238 -51.911141)
(610.74051 -251.27936 -51.289736)
(648.88561 -248.87711 -50.153603)
(687.23062 -245.34744 -48.395745)
(725.47277 -240.76137 -46.085984)
(763.31883 -235.08641 -43.245625)
(800.4673 -228.39394 -39.959914)
(836.60273 -220.7586 -36.296861)
(871.43935 -212.28492 -32.343869)
(904.76434 -203.134 -28.166191)
(936.31105 -193.42838 -23.858156)
(965.96998 -183.39444 -19.471607)
(993.60409 -173.18567 -15.083908)
(1019.1747 -163.02225 -10.737357)
(1042.6894 -153.085 -6.4719743)
(1064.216 -143.5741 -2.3183732)
(1083.8723 -134.64838 1.7220103)
(1101.8333 -126.48143 5.6389406)
(1118.3049 -119.1941 9.4559452)
(1133.5408 -112.89974 13.189345)
(1147.807 -107.67206 16.871172)
(1161.3986 -103.56335 20.540121)
(1174.6093 -100.57184 24.24708)
(1187.7373 -98.672769 27.9969)
(1201.0208 -97.783026 31.877602)
(1214.7105 -97.79786 35.861868)
(1228.9237 -98.502975 39.941171)
(0 0 0)
(0 0 0)
(0 0 0)
(0 0 0)
(0 0 0)
(0 0 0)
(0 0 0)
(0 0 0)
(0 0 0)
(0 0 0)
(0 0 0)
(0 0 0)
(0 0 0)
(0 0 0)
(0 0 0)
(-12.262242 8.2012398 -16.463062)
(-21.227345 29.408157 -20.58083)
(-28.128652 30.05109 -21.637513)
(-39.734708 42.200842 -23.059083)
(-50.504731 46.530598 -22.522904)
(-63.383758 53.501794 -20.857995)
(-76.755845 58.461515 -19.241867)
(-91.571998 64.023322 -17.185405)
(-106.77713 67.552421 -14.725302)
(-122.84149 71.516114 -12.314623)
(-139.40678 73.973056 -9.7511361)
(-156.38189 75.81195 -7.0433685)
(-173.53576 77.121655 -4.4698227)
(-190.86757 77.159822 -1.7883822)
(-207.96174 76.904688 0.6065109)
(-224.97179 75.432981 3.0440175)
(-241.54153 73.443652 5.0562871)
(-257.3049 70.374464 7.1585357)
(-272.81704 66.881083 8.7372239)
(-286.94795 62.261251 10.223885)
(-300.65322 57.398211 11.422945)
(-313.16097 51.539032 12.324925)
(-324.3486 44.958906 13.069911)
(-334.60553 37.994168 13.569044)
(-343.47207 30.18291 13.941039)
(-351.13269 22.120364 14.131064)
(-357.63013 13.343103 14.337663)
(-362.36511 4.104846 14.338584)
(-366.14418 -5.4587918 14.477626)
(-368.01221 -15.610695 14.46936)
(-368.57039 -25.991906 14.527631)
(-367.48075 -36.682406 14.511576)
(-364.67478 -47.663926 14.473633)
(-360.12704 -58.833946 14.387796)
(-353.61576 -70.089886 14.095408)
(-345.49537 -81.237762 13.759458)
(-334.93909 -92.721219 13.153794)
(-322.58176 -103.79949 12.334304)
(-308.09454 -114.74478 11.193207)
(-291.53361 -125.40346 9.7758562)
(-272.95839 -135.65846 8.0395072)
(-252.42959 -145.45201 6.0017773)
(-230.06706 -154.69294 3.6915446)
(-206.02574 -163.32774 1.1559738)
(-180.48844 -171.28861 -1.5433008)
(-153.66603 -178.55113 -4.3340502)
(-125.78414 -185.08586 -7.1293299)
(-97.079249 -190.89828 -9.848748)
(-67.779 -196.00174 -12.408189)
(-38.097669 -200.44026 -14.739469)
(-8.2214777 -204.26275 -16.787218)
(21.699565 -207.54748 -18.518084)
(51.561174 -210.37251 -19.926527)
(81.309093 -212.83646 -21.029265)
(110.9398 -215.03033 -21.877165)
(140.50447 -217.05853 -22.540556)
(170.09791 -219.00572 -23.119572)
(199.85747 -220.96071 -23.724411)
(229.94856 -222.98794 -24.482606)
(260.55386 -225.14117 -25.518762)
(291.8601 -227.45144 -26.955186)
(324.04244 -229.92825 -28.898777)
(357.25007 -232.56052 -31.430612)
(391.59264 -235.31142 -34.610956)
(427.14058 -238.13687 -38.448957)
(463.87439 -240.94202 -42.945109)
(501.77212 -243.66613 -48.019245)
(540.67329 -246.42905 -53.482078)
(580.49964 -248.15031 -59.401997)
(620.70274 -250.49105 -65.590508)
(661.39902 -251.80269 -71.600266)
(701.92284 -252.7156 -77.445164)
(742.12768 -252.96039 -82.843529)
(781.54447 -252.55851 -87.580907)
(819.85243 -251.45189 -91.469058)
(856.70896 -249.64688 -94.321546)
(891.81367 -247.15775 -95.989878)
(924.9143 -244.02947 -96.36197)
(955.81468 -240.32009 -95.364977)
(984.38574 -236.12515 -92.968067)
(1010.5639 -231.53759 -89.185685)
(1034.3586 -226.68317 -84.074471)
(1055.8452 -221.68299 -77.729031)
(1075.16 -216.67456 -70.274861)
(1092.499 -211.7901 -61.871208)
(1108.1054 -207.15928 -52.689745)
(1122.2581 -202.90836 -42.924513)
(1135.2741 -199.14153 -32.769558)
(1147.4761 -195.95854 -22.423641)
(1159.2083 -193.42639 -12.079226)
(1170.8088 -191.59862 -1.9133899)
(1182.5751 -190.49091 7.9134959)
(1194.8379 -190.08807 17.271798)
(1207.6911 -190.36464 26.126342)
(1221.5389 -191.12796 34.347739)
(1236.8087 -178.49744 43.798927)
(1238.9729 -164.13737 44.650949)
(1240.9558 -149.36385 45.300798)
(1243.5828 -133.74752 45.449977)
(1245.5181 -117.67038 45.301401)
(1247.9879 -100.82893 44.950311)
(1249.5475 -83.885489 44.30071)
(1251.2697 -66.542932 43.705576)
(1252.8244 -49.370222 43.024275)
(1253.4907 -32.017654 42.493806)
(1254.1959 -15.362753 42.115986)
(1254.9166 1.035025 41.922813)
(1255.1595 16.759504 42.239485)
(1255.6671 31.82994 42.59449)
(1256.0486 46.273194 43.755975)
(1242.9247 61.925809 40.110565)
(1228.9268 63.560368 35.526003)
(1215.8009 65.658467 31.19142)
(1202.8078 68.592001 26.934222)
(1190.3519 72.390857 22.739016)
(1177.8824 77.261694 18.780073)
(1165.0867 83.254602 14.714303)
(1151.7679 90.391773 10.715139)
(1137.5076 98.666913 6.6577491)
(1122.109 108.08555 2.4884808)
(1105.2271 118.48991 -1.7440341)
(1086.7097 129.8432 -6.0890948)
(1066.2921 141.95576 -10.545949)
(1043.9176 154.62746 -15.067617)
(1019.4314 167.73817 -19.667263)
(992.80668 180.99762 -24.274171)
(964.06 194.22361 -28.891779)
(933.28097 207.19519 -33.420387)
(900.61713 219.67385 -37.80247)
(866.25429 231.46447 -41.970903)
(830.41253 242.38284 -45.852314)
(793.38239 252.255 -49.37388)
(755.42361 260.97896 -52.487277)
(716.87219 268.4346 -55.109382)
(677.9931 274.61358 -57.236433)
(639.17705 279.485 -58.787388)
(600.43292 282.86879 -59.713227)
(562.38176 285.38071 -60.365139)
(524.73885 286.60722 -60.285216)
(488.13174 286.73888 -59.694865)
(452.28547 286.08686 -58.755748)
(417.39091 284.64515 -57.461815)
(383.3774 282.61739 -55.927759)
(350.18525 280.11915 -54.256792)
(317.70854 277.27685 -52.552153)
(285.81575 274.18633 -50.923328)
(254.36113 270.924 -49.472045)
(223.19082 267.54126 -48.290244)
(192.16712 264.05464 -47.456867)
(161.16647 260.46127 -47.031677)
(130.10163 256.72693 -47.054534)
(98.91753 252.80223 -47.543323)
(67.609857 248.61669 -48.492415)
(36.212045 244.09529 -49.875793)
(4.8124828 239.15363 -51.646172)
(-26.468037 233.71574 -53.74044)
(-57.459825 227.70689 -56.080916)
(-87.977139 221.07362 -58.582414)
(-117.79684 213.77156 -61.153816)
(-146.70609 205.77945 -63.700804)
(-174.46367 197.10809 -66.149963)
(-200.86962 187.75317 -68.39066)
(-225.70971 177.79835 -70.406622)
(-248.80345 167.25293 -72.077547)
(-270.02019 156.24071 -73.40823)
(-289.23041 144.80656 -74.351964)
(-306.38726 133.11335 -74.926961)
(-321.48062 121.14614 -75.047164)
(-334.13765 108.91217 -74.798482)
(-345.03696 97.006322 -74.258123)
(-353.81289 85.006804 -73.287145)
(-360.13461 72.831647 -71.936337)
(-364.97045 61.386549 -70.403928)
(-367.69419 49.838745 -68.594084)
(-368.75652 38.795209 -66.527346)
(-367.80795 27.787557 -64.218035)
(-365.51679 17.676686 -61.67585)
(-361.34616 7.3990036 -58.989418)
(-355.89508 -1.8987922 -56.181645)
(-348.92901 -11.052933 -53.145653)
(-340.6163 -19.586196 -50.013639)
(-331.0603 -27.553767 -46.667221)
(-320.16817 -35.155411 -43.190521)
(-308.20008 -41.872732 -39.641168)
(-295.28561 -48.080312 -35.955645)
(-281.28988 -53.739049 -32.152136)
(-266.52946 -58.396878 -28.259005)
(-251.08778 -62.633963 -24.377084)
(-234.94539 -65.827788 -20.353181)
(-218.59913 -68.35157 -16.411622)
(-201.65253 -70.12835 -12.34206)
(-184.64957 -70.881716 -8.47787)
(-167.65681 -70.966241 -4.5089461)
(-150.88084 -70.081836 -0.69061439)
(-134.10774 -68.63968 3.1281449)
(-117.95228 -66.132984 6.6735597)
(-102.32674 -63.023672 10.190856)
(-87.233554 -59.224347 13.421171)
(-72.965346 -54.817865 16.326727)
(-59.62219 -49.727843 18.92475)
(-47.456016 -43.868596 20.777301)
(-36.572146 -37.5932 21.986656)
(-26.521817 -31.770353 22.325577)
(-18.268314 -23.558268 19.212582)
(-15.291572 -16.977419 13.105093)
(0 0 0)
(0 0 0)
(0 0 0)
(0 0 0)
(0 0 0)
(0 0 0)
(0 0 0)
(0 0 0)
(0 0 0)
(0 0 0)
(0 0 0)
(0 0 0)
(0 0 0)
(0 0 0)
(0 0 0)
(0 0 0)
(0 0 0)
(0 0 0)
(0 0 0)
(0 0 0)
(0 0 0)
(0 0 0)
(0 0 0)
(0 0 0)
(0 0 0)
(0 0 0)
(0 0 0)
(0 0 0)
(0 0 0)
(0 0 0)
(1242.7284 -104.02067 44.227503)
(1241.7038 -108.50579 44.342497)
(1240.6924 -113.121 44.13054)
(1239.6794 -117.895 43.89145)
(1238.5989 -122.78105 43.490584)
(1237.6255 -127.74816 43.01322)
(1236.7283 -132.86033 42.512892)
(1235.9571 -138.09812 42.064437)
(1235.3351 -143.5697 41.695806)
(1234.8623 -149.25363 41.438727)
(1234.5601 -155.30238 41.395759)
(1234.4237 -161.70989 41.485729)
(1234.4641 -168.61113 41.761268)
(1234.5652 -175.99605 42.096068)
(1234.9612 -183.9276 42.554992)
(1262.5702 145.82772 42.455369)
(1261.0767 138.34917 42.144729)
(1259.72 131.35454 41.83539)
(1258.6131 124.73041 41.612626)
(1257.6048 118.49664 41.591361)
(1256.8523 112.52796 41.705654)
(1256.3086 106.8208 42.007783)
(1255.9581 101.26308 42.406097)
(1255.7951 95.846908 42.899916)
(1255.7807 90.517231 43.422293)
(1255.8999 85.230087 43.89288)
(1256.0983 80.073924 44.324401)
(1256.3666 74.886877 44.595252)
(1256.6409 69.951923 44.702114)
(1256.9424 65.067256 44.725428)
(-7.819906 -12.661848 -17.63539)
(-16.739866 -18.499537 -18.47711)
(-25.413932 -26.02105 -21.723886)
(-36.214511 -32.331402 -21.678042)
(-47.09827 -38.054793 -21.794332)
(-59.768292 -43.515463 -20.707132)
(-72.964572 -48.338554 -19.453412)
(-87.379806 -52.845786 -17.768448)
(-102.26603 -56.639253 -15.953352)
(-118.00439 -60.009386 -13.939667)
(-134.12686 -62.651092 -11.808718)
(-150.73474 -64.857967 -9.7100629)
(-167.52285 -66.178867 -7.5456273)
(-184.45217 -67.052107 -5.4571268)
(-201.28361 -67.072863 -3.4166682)
(-217.98831 -66.58723 -1.528865)
(-234.32282 -65.224553 0.26322089)
(-250.17547 -63.257019 1.8447037)
(-265.41097 -60.569696 3.3087196)
(-279.93608 -57.185502 4.5214157)
(-293.60648 -53.069758 5.5859544)
(-306.31072 -48.317243 6.4589305)
(-318.02089 -42.82041 7.1758271)
(-328.5832 -36.723518 7.7389622)
(-337.96422 -29.959654 8.1839499)
(-346.06598 -22.61773 8.5343199)
(-352.88789 -14.606953 8.7899404)
(-358.30063 -6.1593654 9.0215395)
(-362.22691 2.8570297 9.198439)
(-364.65399 12.353014 9.3313498)
(-365.45716 22.182387 9.4396666)
(-364.52756 32.417984 9.4971961)
(-361.83221 42.927636 9.4999328)
(-357.26603 53.696728 9.3865337)
(-350.73597 64.582176 9.1808218)
(-342.08606 75.575875 8.7961449)
(-331.38017 86.628145 8.2015229)
(-318.51286 97.516226 7.4320649)
(-303.40977 108.34358 6.3698955)
(-286.18491 118.95014 5.0706113)
(-266.82958 129.2298 3.5301187)
(-245.44814 139.14758 1.7114711)
(-222.14642 148.68251 -0.33388775)
(-197.10029 157.71036 -2.542379)
(-170.50766 166.22876 -4.9067928)
(-142.58027 174.17913 -7.3309966)
(-113.55462 181.54396 -9.772965)
(-83.66828 188.31579 -12.155926)
(-53.164465 194.48902 -14.420786)
(-22.260291 200.08347 -16.514025)
(8.8442779 205.1173 -18.392129)
(39.99134 209.63195 -20.03293)
(71.063852 213.66167 -21.426289)
(101.99369 217.26177 -22.591042)
(132.76789 220.47476 -23.56016)
(163.42096 223.35721 -24.3897)
(194.03733 225.94857 -25.151459)
(224.74333 228.29772 -25.934344)
(255.69384 230.43073 -26.8276)
(287.06811 232.37191 -27.926081)
(319.04252 234.13352 -29.33047)
(351.80044 235.72749 -31.11109)
(385.48652 237.10236 -33.327339)
(420.21973 238.28866 -36.038929)
(456.07567 239.22804 -39.230588)
(493.07061 239.8468 -42.910369)
(531.15155 240.19351 -47.039538)
(570.22197 240.157 -51.459837)
(610.1043 239.68519 -56.240734)
(650.53019 238.76046 -61.034906)
(691.26071 237.32924 -65.794736)
(731.97166 235.38616 -70.37519)
(772.32513 232.89044 -74.578598)
(811.93667 229.89654 -78.214521)
(850.47185 226.37082 -81.151392)
(887.58881 222.37849 -83.221272)
(922.96723 217.95454 -84.312041)
(956.35631 213.14106 -84.323302)
(987.55523 208.05163 -83.189904)
(1016.3985 202.68753 -80.883053)
(1042.8261 197.25462 -77.425571)
(1066.8087 191.6904 -72.764225)
(1088.4197 186.13464 -67.096198)
(1107.7924 180.78812 -60.46275)
(1125.0502 175.59484 -52.995852)
(1140.5935 170.62238 -44.828562)
(1154.4924 165.92526 -36.110833)
(1167.1855 161.56543 -26.999474)
(1179.0577 157.59197 -17.713669)
(1190.1581 153.95854 -8.2564256)
(1201.5015 150.71311 0.95429674)
(1212.3639 147.9387 10.109142)
(1224.372 145.28909 18.860847)
(1236.5017 143.29803 27.283024)
(1249.5232 141.62686 35.542268)
(-4.4445158 -11.02227 -14.395593)
(-12.859355 -12.84517 -16.79726)
(-23.130378 -20.490959 -18.640294)
(-33.191619 -24.624121 -19.489031)
(-45.043 -29.987365 -19.155057)
(-57.580082 -34.34898 -18.432315)
(-71.295739 -38.75503 -17.297073)
(-85.690709 -42.450912 -15.971837)
(-101.02432 -45.887278 -14.42321)
(-116.94098 -48.715979 -12.719754)
(-133.4089 -51.150504 -11.034524)
(-150.26606 -52.984658 -9.1849166)
(-167.34852 -54.340882 -7.4779776)
(-184.55578 -55.111404 -5.6801843)
(-201.71835 -55.340108 -4.0897)
(-218.70699 -54.978277 -2.4441488)
(-235.26121 -54.023995 -1.1065403)
(-251.44781 -52.510071 0.25204706)
(-266.95925 -50.362469 1.312487)
(-281.75026 -47.610815 2.3020745)
(-295.6582 -44.276681 3.058114)
(-308.66698 -40.308359 3.7134954)
(-320.57431 -35.789763 4.1562869)
(-331.40247 -30.636062 4.5240801)
(-340.99373 -24.972072 4.7535746)
(-349.34425 -18.700119 4.9035619)
(-356.34072 -11.972963 4.9858419)
(-361.92425 -4.7295215 5.0464903)
(-366.04106 2.9477112 5.0272572)
(-368.60147 11.020444 5.0253207)
(-369.50562 19.447322 4.9771266)
(-368.68731 28.180453 4.9039793)
(-366.0758 37.158275 4.7733736)
(-361.5353 46.299694 4.5789132)
(-354.97356 55.585129 4.305497)
(-346.36006 64.927412 3.8674155)
(-335.59178 74.261522 3.3188021)
(-322.62509 83.546722 2.5701287)
(-307.48238 92.712202 1.6260307)
(-290.15713 101.6974 0.48034829)
(-270.69408 110.44932 -0.88489909)
(-249.192 118.92694 -2.4483756)
(-225.76281 127.05406 -4.207323)
(-200.58991 134.83244 -6.098647)
(-173.86238 142.19074 -8.0989439)
(-145.79203 149.12768 -10.163184)
(-116.625 155.60073 -12.233751)
(-86.603104 161.61413 -14.254408)
(-55.964054 167.14758 -16.18238)
(-24.932628 172.21597 -17.9689)
(6.2938101 176.81647 -19.586476)
(37.553747 180.9765 -21.015724)
(68.730926 184.70429 -22.25408)
(99.754771 188.03724 -23.32124)
(130.61393 190.99117 -24.244152)
(161.33751 193.60479 -25.078304)
(192.01649 195.89943 -25.882278)
(222.77013 197.90792 -26.733249)
(253.7581 199.64805 -27.703237)
(285.1556 201.14548 -28.883487)
(317.14606 202.41196 -30.336636)
(349.90658 203.46145 -32.135984)
(383.59155 204.27431 -34.317436)
(418.3056 204.8997 -36.932413)
(454.16142 205.28376 -39.961859)
(491.12816 205.37196 -43.369719)
(529.12705 205.28762 -47.146063)
(568.20848 204.75927 -51.202918)
(608.08168 204.07097 -55.45602)
(648.59879 203.06943 -59.768492)
(689.36452 201.76096 -63.984107)
(730.16073 200.10666 -67.980104)
(770.58298 198.14041 -71.578251)
(810.31085 195.84977 -74.66034)
(848.97841 193.23338 -77.073921)
(886.21919 190.3347 -78.671963)
(921.76629 187.1459 -79.377363)
(955.30965 183.72314 -79.080153)
(986.68373 180.1141 -77.761091)
(1015.6659 176.28598 -75.333627)
(1042.2927 172.43978 -71.904368)
(1066.3678 168.3905 -67.370716)
(1088.1583 164.44899 -61.953262)
(1107.5323 160.40243 -55.561635)
(1124.954 156.51255 -48.465289)
(1140.4743 152.65642 -40.696307)
(1154.485 148.99089 -32.427588)
(1167.0992 145.55015 -23.862506)
(1179.0046 142.18097 -14.944956)
(1190.0043 139.24129 -6.1371131)
(1201.2756 136.22343 2.8503948)
(1212.0089 133.84994 11.478758)
(1223.8745 131.36244 20.087553)
(1235.7576 129.39526 28.370845)
(1248.6979 127.79969 36.498213)
(-3.2207651 -7.9289528 -12.20138)
(-11.77923 -9.9754693 -13.752521)
(-20.212723 -14.855285 -16.297737)
(-31.174302 -18.819557 -16.578363)
(-42.8308 -22.783728 -16.506697)
(-55.855879 -26.766439 -15.835251)
(-69.548959 -30.206918 -15.045233)
(-84.458895 -33.516092 -13.927318)
(-99.890782 -36.225651 -12.660845)
(-116.10657 -38.852653 -11.374967)
(-132.77417 -40.771031 -9.9182319)
(-149.89894 -42.57239 -8.5484045)
(-167.19057 -43.65483 -7.1044042)
(-184.6638 -44.560695 -5.7772943)
(-202.04683 -44.784185 -4.4275871)
(-219.21068 -44.713321 -3.3019015)
(-236.08594 -44.031076 -2.1706644)
(-252.46243 -42.954674 -1.2536557)
(-268.1878 -41.301975 -0.44449432)
(-283.2048 -39.197376 0.18436383)
(-297.37906 -36.548922 0.70589955)
(-310.5616 -33.39137 1.0224483)
(-322.72566 -29.720722 1.2703658)
(-333.73911 -25.544066 1.3669533)
(-343.55373 -20.881909 1.3891403)
(-352.06919 -15.736268 1.3192779)
(-359.24163 -10.152939 1.2233619)
(-364.99437 -4.131462 1.0587863)
(-369.23714 2.2518764 0.90068556)
(-371.90388 9.0078509 0.712858)
(-372.91542 16.033244 0.51999272)
(-372.17265 23.345394 0.29650326)
(-369.59614 30.828651 0.057076872)
(-365.06366 38.494903 -0.23063341)
(-358.54943 46.24707 -0.59841782)
(-349.92235 54.04493 -1.0396175)
(-339.16133 61.874281 -1.5987094)
(-326.21628 69.609564 -2.2811754)
(-311.01375 77.275104 -3.1311297)
(-293.60906 84.775892 -4.1451013)
(-274.08616 92.125379 -5.3096112)
(-252.50718 99.225716 -6.6466103)
(-228.99765 106.10377 -8.1002725)
(-203.74224 112.67016 -9.6657511)
(-176.92721 118.9331 -11.317285)
(-148.77765 124.86295 -13.011948)
(-119.52838 130.43696 -14.701258)
(-89.425978 135.65021 -16.354584)
(-58.703786 140.48282 -17.927256)
(-27.592075 144.93908 -19.39076)
(3.716885 149.00964 -20.723094)
(35.059157 152.70716 -21.914785)
(66.31813 156.02848 -22.968082)
(97.424957 158.99486 -23.902915)
(128.36261 161.60829 -24.747183)
(159.16588 163.89558 -25.551457)
(189.91765 165.86376 -26.363885)
(220.73985 167.53658 -27.25212)
(251.78798 168.93096 -28.281056)
(283.23927 170.06249 -29.514953)
(315.27017 170.95072 -31.015071)
(348.0663 171.60153 -32.828755)
(381.76305 172.04504 -34.994538)
(416.4981 172.26657 -37.532869)
(452.35837 172.30257 -40.428859)
(489.29798 172.09581 -43.639458)
(527.33344 171.77968 -47.234643)
(566.38907 171.31731 -50.917356)
(606.23953 170.58109 -54.81301)
(646.6885 169.65789 -58.629012)
(687.43003 168.52916 -62.357995)
(728.17788 167.21481 -65.820675)
(768.60268 165.69122 -68.920277)
(808.33312 163.98816 -71.486097)
(846.99719 162.08866 -73.396216)
(884.3027 160.01968 -74.557279)
(919.88122 157.78283 -74.865377)
(953.51779 155.39361 -74.2629)
(984.96741 152.86863 -72.685074)
(1014.0838 150.23706 -70.145454)
(1040.7938 147.51881 -66.64208)
(1065.0562 144.69643 -62.160487)
(1086.9309 141.88368 -56.913964)
(1106.5882 139.00154 -50.738712)
(1124.0673 136.24099 -44.053385)
(1139.7039 133.40184 -36.594707)
(1153.713 130.67692 -28.849003)
(1166.4571 127.94189 -20.61229)
(1178.3452 125.38884 -12.326598)
(1189.3664 122.85272 -3.7874054)
(1200.6177 120.47772 4.591161)
(1211.2443 118.3569 12.997194)
(1223.0897 116.20964 21.192702)
(1234.8742 114.47816 29.249777)
(1247.851 113.04397 37.204015)
(-2.6465775 -6.9519115 -9.8156878)
(-10.020314 -7.5987875 -11.882981)
(-18.947472 -11.522172 -13.314103)
(-29.511672 -14.224394 -13.862661)
(-41.434932 -17.450958 -13.860536)
(-54.232479 -20.486107 -13.496986)
(-68.407601 -23.458294 -12.871121)
(-83.212284 -25.988992 -12.018489)
(-98.912999 -28.473738 -11.177218)
(-115.27836 -30.511036 -10.074459)
(-132.17573 -32.317394 -9.1200083)
(-149.41638 -33.754584 -7.9713392)
(-166.95125 -34.883362 -7.0141076)
(-184.59711 -35.680528 -5.8980694)
(-202.11398 -36.051991 -5.0898562)
(-219.54644 -36.140845 -4.1314414)
(-236.55691 -35.773588 -3.4638141)
(-253.11682 -35.058946 -2.8042482)
(-269.0454 -33.904365 -2.3677107)
(-284.27877 -32.355172 -1.9671871)
(-298.58665 -30.360802 -1.8092343)
(-312.00315 -27.943448 -1.6795834)
(-324.32047 -25.10547 -1.7294849)
(-335.53237 -21.817849 -1.8395925)
(-345.49502 -18.134851 -2.0603707)
(-354.19009 -14.018173 -2.307521)
(-361.50654 -9.5458309 -2.627218)
(-367.38523 -4.6832811 -2.9444053)
(-371.74719 0.48054506 -3.2936147)
(-374.5207 5.9635872 -3.6305599)
(-375.60156 11.692844 -3.9841835)
(-374.92561 17.642893 -4.3228066)
(-372.37277 23.764958 -4.6784606)
(-367.89244 30.029877 -5.0700954)
(-361.35841 36.353898 -5.4763198)
(-352.72352 42.75358 -5.964762)
(-341.86849 49.138391 -6.5267889)
(-328.76461 55.50392 -7.1849031)
(-313.52418 61.781718 -7.9370184)
(-296.09589 67.986528 -8.7913081)
(-276.51669 74.025081 -9.7782357)
(-254.88051 79.907725 -10.862995)
(-231.34283 85.585334 -12.052307)
(-206.05538 91.051761 -13.324517)
(-179.21175 96.280865 -14.64167)
(-151.03376 101.24485 -15.984917)
(-121.75729 105.93245 -17.319558)
(-91.62507 110.32872 -18.623292)
(-60.87385 114.41865 -19.862292)
(-29.728369 118.19721 -21.020736)
(1.620326 121.65306 -22.085452)
(33.006863 124.78931 -23.053267)
(64.319196 127.59755 -23.931764)
(95.483386 130.08934 -24.742113)
(126.4874 132.26253 -25.512934)
(157.35916 134.13377 -26.286155)
(188.18252 135.70592 -27.105532)
(219.0751 137.00187 -28.029894)
(250.19174 138.03187 -29.106055)
(281.70054 138.81453 -30.391102)
(313.78422 139.36672 -31.925132)
(346.61235 139.71885 -33.752168)
(380.32811 139.86555 -35.881698)
(415.08563 139.85604 -38.336561)
(450.88457 139.67753 -41.070733)
(487.8356 139.37829 -44.118023)
(525.84849 138.94761 -47.340146)
(564.8008 138.38654 -50.726777)
(604.58761 137.71397 -54.204884)
(644.95011 136.94236 -57.571174)
(685.60959 136.09665 -60.818191)
(726.30544 135.10542 -63.776855)
(766.60071 134.07605 -66.312654)
(806.23827 132.961 -68.366632)
(844.89324 131.77386 -69.802543)
(882.15286 130.49153 -70.527735)
(917.74721 129.13302 -70.479885)
(951.40019 127.70348 -69.574907)
(982.90527 126.18644 -67.811662)
(1012.0851 124.60613 -65.156263)
(1038.9089 122.95527 -61.615873)
(1063.236 121.20449 -57.253233)
(1085.3083 119.48139 -52.097093)
(1104.978 117.60352 -46.232008)
(1122.714 115.76749 -39.699606)
(1138.4555 113.78639 -32.710036)
(1152.7103 111.84474 -25.311876)
(1165.5086 109.8917 -17.604058)
(1177.5223 107.90942 -9.663049)
(1188.5752 106.01084 -1.6805379)
(1199.8887 104.05555 6.376342)
(1210.4423 102.33758 14.338794)
(1222.3411 100.51913 22.207914)
(1234.0013 99.007351 30.036069)
(1247.1344 97.65037 37.734366)
(-2.1462655 -4.9344471 -7.9115199)
(-9.4832423 -5.6988117 -8.8764402)
(-17.764226 -8.3539752 -10.6633)
(-28.30009 -10.682457 -11.074845)
(-39.899343 -12.890844 -11.339896)
(-53.161579 -15.492678 -10.95658)
(-67.162668 -17.600981 -10.587484)
(-82.23745 -19.877588 -10.098377)
(-98.084725 -21.670521 -9.3709662)
(-114.63331 -23.561675 -8.7550642)
(-131.59928 -24.903472 -7.9903216)
(-149.07408 -26.334893 -7.3195207)
(-166.74905 -27.241951 -6.5514127)
(-184.48709 -28.116955 -5.9886092)
(-202.24017 -28.531006 -5.3336528)
(-219.77136 -28.863353 -4.8633705)
(-236.93789 -28.706646 -4.4615983)
(-253.66382 -28.412575 -4.1856236)
(-269.76041 -27.680983 -3.9897546)
(-285.10632 -26.687513 -3.9818902)
(-299.61664 -25.321266 -4.0242241)
(-313.16621 -23.615419 -4.2278904)
(-325.65139 -21.559561 -4.4988903)
(-337.00204 -19.129693 -4.8849484)
(-347.12496 -16.381761 -5.2983274)
(-355.9512 -13.26082 -5.7952027)
(-363.39199 -9.8509904 -6.2936221)
(-369.39128 -6.0974111 -6.8278604)
(-373.85546 -2.1092895 -7.3368204)
(-376.70277 2.1848047 -7.8626688)
(-377.86843 6.641756 -8.3444733)
(-377.22819 11.332329 -8.8283569)
(-374.73597 16.147955 -9.3050564)
(-370.2567 21.084593 -9.7599564)
(-363.74399 26.106243 -10.244478)
(-355.10022 31.177787 -10.742788)
(-344.26768 36.286548 -11.284418)
(-331.37296 41.295853 -11.814924)
(-316.15482 46.318711 -12.464648)
(-298.6837 51.216918 -13.188981)