/*--------------------------------*- C++ -*----------------------------------*\
  =========                 |
  \\      /  F ield         | OpenFOAM: The Open Source CFD Toolbox
   \\    /   O peration     | Website:  https://openfoam.org
    \\  /    A nd           | Version:  6
     \\/     M anipulation  |
\*---------------------------------------------------------------------------*/
FoamFile
{
    version     2.0;
    format      ascii;
    class       pointVectorField;
    location    "1.96";
    object      lm;
}
// * * * * * * * * * * * * * * * * * * * * * * * * * * * * * * * * * * * * * //

dimensions      [1 -2 -1 0 0 0 0];

internalField   nonuniform List<vector> 
3969
(
(-4.0340813e-15 -4.7705825e-17 1.3312818e-16)
(9.2297575e-16 -2.6090405e-16 -6.0252577e-16)
(5691.624 -527.47914 157.07827)
(5515.8584 -1342.6872 76.690133)
(-7.1783695e-15 2.6020842e-15 -1.0366567e-15)
(-4.622429e-15 2.1493156e-15 -1.5432914e-15)
(5599.0125 -1349.8389 77.557436)
(5775.1622 -533.2166 156.61551)
(-6.09887e-15 1.0869625e-16 -2.0095736e-16)
(-3.193382e-15 6.5333688e-16 6.3735029e-17)
(-2.9260211e-15 2.9260844e-16 -4.8432863e-17)
(-1.7497804e-15 -1.5755452e-16 -2.074758e-16)
(-4.3254872e-15 8.6218995e-16 7.3228779e-16)
(-2.4697388e-15 -4.9707839e-16 4.8086129e-16)
(5.2680668e-16 -4.7467027e-16 -5.3018058e-16)
(5664.455 -628.23507 147.09295)
(5638.8662 -729.60916 136.95329)
(5618.0841 -831.77478 126.58888)
(5601.3348 -934.98435 116.34711)
(5585.3858 -1038.6454 106.06447)
(5566.1914 -1141.3628 95.950617)
(5542.1632 -1242.5007 86.22776)
(19.652764 51.908692 58.573056)
(31.448792 92.10843 75.211744)
(60.938245 136.88897 83.604418)
(106.91947 179.75047 86.467069)
(165.17543 222.48917 86.088332)
(238.61858 262.63654 84.007687)
(323.09849 300.42534 80.874193)
(421.10501 335.19528 76.349957)
(529.37079 366.4641 71.476026)
(649.02205 393.6955 65.296008)
(778.098 417.48908 59.245967)
(916.34795 436.43708 52.329489)
(1062.5268 451.2375 45.134042)
(1215.8161 461.45581 38.11776)
(1375.224 466.70816 31.012246)
(1539.0353 467.17956 24.456503)
(1706.9066 463.07122 18.557544)
(1877.1664 454.06449 13.501824)
(2048.9996 440.48678 9.6549984)
(2220.9415 422.48511 7.1883915)
(2392.2182 400.21601 6.3385643)
(2561.5659 374.11516 7.2768547)
(2728.3426 344.26481 9.9887037)
(2891.5747 311.45769 14.542999)
(3050.7497 275.34923 20.866868)
(3205.2671 237.43187 28.821684)
(3354.8191 197.29532 38.269548)
(3499.1831 155.64741 48.927881)
(3638.2313 113.02199 60.431538)
(3771.9841 69.771912 72.626491)
(3900.621 26.345194 85.065819)
(4024.3905 -16.888996 97.472109)
(4143.567 -59.51309 109.48493)
(4258.6427 -101.34386 120.93756)
(4370.093 -141.90229 131.26106)
(4478.0849 -181.20767 140.66993)
(4583.8517 -218.76342 148.56228)
(4687.165 -254.88065 155.05748)
(4789.1185 -289.06944 159.95146)
(4889.5863 -321.47962 163.52501)
(4989.5034 -352.36208 165.54112)
(5088.8857 -381.13231 166.42296)
(5188.0145 -408.62224 166.03371)
(5287.8304 -434.69624 165.02898)
(5386.951 -458.6439 163.17426)
(5487.6345 -482.83897 161.26834)
(5588.1121 -505.18066 158.72107)
(6.2516514 -61.469254 -81.043333)
(29.88687 -101.60667 -86.336162)
(53.975229 -149.45672 -105.64258)
(92.724208 -194.88628 -107.3456)
(146.45159 -244.8806 -112.13612)
(209.94488 -292.82885 -112.49726)
(285.88211 -340.96807 -114.23025)
(371.72191 -387.62215 -114.40828)
(468.25434 -433.50413 -115.2013)
(574.45601 -477.62415 -115.14847)
(689.56052 -520.64361 -114.97462)
(813.69953 -561.90614 -114.53382)
(944.94066 -601.00581 -113.06582)
(1083.8319 -638.56758 -111.06281)
(1228.6273 -673.91848 -108.34433)
(1379.2651 -707.22739 -104.5754)
(1534.2939 -738.36014 -99.883497)
(1693.0883 -767.28182 -94.071224)
(1854.4374 -794.15984 -87.125354)
(2017.7957 -818.9277 -78.971576)
(2181.595 -841.83171 -69.673838)
(2345.6183 -862.86088 -59.236767)
(2508.3289 -882.46729 -47.774335)
(2669.4426 -900.54413 -35.444058)
(2827.9227 -917.61277 -22.436562)
(2983.4128 -933.72482 -8.5821727)
(3135.0777 -949.23405 5.0760302)
(3282.7113 -964.41445 18.972872)
(3425.7399 -979.25552 32.596119)
(3564.018 -994.11244 45.621676)
(3697.6133 -1009.2182 57.816392)
(3826.4261 -1024.5684 68.938699)
(3950.6264 -1040.3715 78.772479)
(4070.4444 -1056.7775 87.14762)
(4186.2549 -1073.7212 93.987961)
(4298.2683 -1091.432 99.161642)
(4407.0926 -1109.7484 102.68559)
(4513.0427 -1128.8286 104.61704)
(4616.7105 -1148.3423 104.9837)
(4718.4033 -1168.5638 104.00148)
(4818.8512 -1189.2531 101.9251)
(4918.1476 -1210.2522 98.738903)
(5017.0799 -1231.7394 94.991043)
(5115.7495 -1253.3447 90.822529)
(5214.6139 -1275.2815 86.692383)
(5313.9595 -1297.2938 82.702124)
(5414.3114 -1319.9604 79.448305)
(-3.9179893e-16 -2.8384427e-17 -1.6191597e-16)
(6.8869455e-16 3.3255846e-16 -2.9305012e-16)
(-3.0379221e-16 -4.0639439e-16 3.7376104e-16)
(8.6048107e-16 -8.7588792e-17 1.0515471e-16)
(5.0258192e-16 -7.4376592e-16 6.4035694e-16)
(-2.9679417e-15 -3.4669267e-16 7.3060073e-16)
(8.9003905e-16 -2.834795e-16 1.0120244e-16)
(26.594079 -38.190199 58.289455)
(42.381089 -114.91982 77.302171)
(67.014165 -129.81116 75.323501)
(118.71606 -193.22956 74.608246)
(174.9484 -231.93278 68.615408)
(247.58225 -281.66392 58.233995)
(329.1749 -327.73231 50.70854)
(422.56587 -374.45277 38.571064)
(525.11142 -420.20844 29.657837)
(637.00652 -465.3755 17.505797)
(757.73615 -511.02771 8.6152953)
(887.72499 -553.1824 -3.9950466)
(1024.5817 -596.84203 -14.60712)
(1168.6923 -639.17736 -25.287177)
(1317.3986 -679.53779 -35.49315)
(1472.0526 -720.32714 -44.548279)
(1629.5358 -758.21356 -52.89177)
(1790.5844 -795.90029 -59.664349)
(1952.8803 -831.16067 -65.030521)
(2116.4248 -865.13852 -68.582467)
(2279.5475 -896.93664 -70.210342)
(2441.8812 -926.84448 -69.798649)
(2602.3044 -954.57102 -67.319844)
(2760.2425 -979.98716 -62.805741)
(2915.1055 -1003.4352 -56.290577)
(3065.8478 -1024.2554 -47.819988)
(3212.7236 -1043.5972 -37.569836)
(3356.1575 -1059.9971 -27.08284)
(3495.1606 -1075.2116 -15.250477)
(3629.8595 -1088.5881 -3.0098344)
(3760.2544 -1100.607 9.4160703)
(3886.458 -1111.5707 21.735648)
(4008.7771 -1121.8406 33.548071)
(4127.3971 -1131.544 44.654176)
(4242.6568 -1141.2078 54.59497)
(4355.0483 -1150.8507 63.55736)
(4464.7477 -1161.4738 70.692313)
(4572.4637 -1172.2593 76.825253)
(4678.1223 -1184.2792 81.144589)
(4782.5209 -1197.3695 84.089016)
(4885.768 -1211.7903 85.658229)
(4988.2019 -1227.501 85.985156)
(5090.0342 -1244.7185 85.40861)
(5191.5464 -1263.2937 84.052307)
(5292.8481 -1283.2371 82.332584)
(5394.2061 -1304.4439 80.440825)
(5495.228 -1326.654 78.734935)
(5625.9753 -1248.6227 87.422958)
(5649.331 -1146.1465 97.287317)
(5667.7629 -1043.0704 106.9129)
(5683.573 -939.17153 116.21887)
(5700.9207 -835.79717 125.84849)
(5723.0475 -734.4309 135.74324)
(5748.9985 -633.26158 145.99042)
(5672.7907 -510.89004 159.20239)
(5573.7416 -489.18423 162.07509)
(5474.657 -467.32429 165.77028)
(5376.0132 -445.55405 169.57081)
(5277.6866 -423.74799 173.64102)
(5179.0625 -401.40946 177.31935)
(5079.9344 -378.56378 180.40602)
(4979.9959 -354.71419 182.6737)
(4878.7989 -329.92327 183.97261)
(4775.7478 -303.58671 183.70181)
(4671.0261 -275.50909 182.05065)
(4563.0719 -245.12667 178.87819)
(4453.0728 -213.98667 174.36211)
(4339.16 -179.80534 167.89739)
(4221.5813 -143.76596 160.04374)
(4099.8586 -105.64706 150.6284)
(3973.653 -65.651452 139.9087)
(3842.721 -23.896008 127.96123)
(3706.8928 18.993336 115.23032)
(3566.1312 63.036757 101.62667)
(3420.3624 107.31036 87.739851)
(3269.8639 151.60861 73.702202)
(3114.5854 195.14993 59.717347)
(2955.2206 237.32831 46.125885)
(2792.1088 277.49356 33.222094)
(2625.7691 315.04996 20.999364)
(2456.9465 349.29897 9.7265026)
(2286.4651 379.70446 -0.5107203)
(2115.1614 405.75146 -9.7288462)
(1943.9708 426.96291 -17.852536)
(1773.9538 443.10092 -25.081057)
(1606.1703 453.97721 -31.192254)
(1441.6608 459.02313 -36.344635)
(1282.085 457.82901 -40.750855)
(1127.4981 452.18896 -45.277954)
(978.98147 440.60085 -47.913673)
(838.68643 424.12886 -51.355298)
(706.4449 401.93212 -53.60878)
(583.11605 376.05655 -56.743396)
(471.43387 343.83147 -58.995194)
(369.48695 309.92166 -61.755919)
(278.05156 271.02001 -64.546236)
(201.35287 229.51666 -67.300329)
(135.51139 185.44081 -68.630546)
(85.285881 141.69205 -68.315192)
(48.765672 92.028926 -63.71206)
(43.545834 53.401707 -42.589166)
(-6.7652979e-16 3.5118239e-16 1.2802193e-16)
(-2.3129286e-15 2.7505878e-16 1.3239036e-16)
(-3.6393531e-15 -1.4253491e-16 -1.5464221e-16)
(-4.9195801e-15 -9.3657526e-16 4.6870719e-16)
(-4.0844143e-15 -8.2232132e-16 1.723462e-16)
(-2.0271537e-15 -1.8079967e-16 2.6438577e-16)
(-2.0670014e-15 8.6459225e-16 1.4474963e-15)
(-4.5036838e-15 1.2268482e-15 -2.065022e-16)
(-1.9919023e-15 1.1694967e-15 -1.6367101e-16)
(-2.9438013e-15 1.1112212e-15 -1.969436e-16)
(-2.4504202e-15 9.597151e-16 -1.1789697e-16)
(-5.2893259e-15 2.5926013e-15 -8.0820905e-16)
(-1.8775489e-15 1.1365606e-15 -5.8525306e-16)
(-7.4714327e-17 -2.094137e-16 9.7564992e-17)
(5526.0092 -1342.2266 76.957557)
(5536.3035 -1342.3012 77.455566)
(5546.7255 -1343.2109 77.654718)
(5557.3611 -1344.5494 77.923896)
(5567.8657 -1346.0443 77.771274)
(5578.5854 -1347.6639 77.412201)
(5588.9377 -1348.767 77.451613)
(5702.2401 -528.09711 157.0446)
(5712.7062 -528.65805 157.35572)
(5722.8814 -529.72754 157.64798)
(5732.9052 -530.95641 157.70481)
(5743.0405 -532.03234 157.64728)
(5753.3017 -532.98474 157.36881)
(5764.0635 -533.35195 156.69279)
(2.3120313 40.48485 51.455764)
(15.165181 68.695496 53.619408)
(42.751574 102.11386 60.88145)
(87.185809 132.59432 62.463242)
(144.63594 162.37951 61.665859)
(217.45235 191.43635 60.03903)
(301.19779 217.1937 56.658958)
(398.25513 241.91823 53.250593)
(506.00702 262.23451 48.376362)
(624.89798 280.71704 43.635156)
(753.08767 295.2348 38.125492)
(890.56928 306.3507 32.243044)
(1036.2022 314.17872 26.364352)
(1188.838 317.88536 20.440291)
(1347.6818 317.84851 14.801561)
(1511.4549 313.96393 9.5961912)
(1679.2391 306.35147 5.1302602)
(1849.6014 294.66263 1.531019)
(2021.6331 279.53701 -0.89936341)
(2194.0747 260.73578 -2.0904075)
(2365.9011 238.64784 -1.6430225)
(2536.0379 213.38124 0.27966946)
(2703.6616 185.34438 3.9890069)
(2867.8026 154.70805 9.2803346)
(3027.9902 121.86193 16.379334)
(3183.4893 87.10384 24.68274)
(3333.939 50.690191 34.530884)
(3479.2337 13.05942 45.257222)
(3618.9935 -25.499895 56.852798)
(3753.4003 -64.480311 68.858036)
(3882.5514 -103.75456 81.050101)
(4006.6394 -142.84519 93.024291)
(4126.0177 -181.57838 104.64196)
(4241.0639 -219.68663 115.44246)
(4352.298 -256.82386 125.28439)
(4460.1515 -293.0537 134.04007)
(4565.3312 -328.01532 141.42414)
(4668.0041 -361.75346 147.27686)
(4769.1129 -393.98556 151.71788)
(4868.7562 -424.92999 154.77827)
(4967.8485 -454.45612 156.47165)
(5066.2084 -482.52727 156.85793)
(5164.7014 -509.41277 156.39403)
(5263.4298 -534.90788 154.92151)
(5361.9649 -559.16916 153.06753)
(5462.0726 -583.11536 151.02667)
(5562.0237 -605.61334 148.76113)
(-13.716088 25.489214 32.736882)
(0.19391259 40.21182 33.189128)
(29.369884 66.259952 37.728923)
(72.999705 83.951543 37.961818)
(131.21639 104.244 37.216951)
(201.74791 121.6073 35.042978)
(285.26303 137.87093 32.98977)
(381.2967 151.74885 28.935479)
(488.01024 163.29659 26.00083)
(605.57733 172.78442 21.315176)
(733.05033 179.09597 17.052147)
(869.51834 183.09939 12.220876)
(1014.1516 183.98543 7.6426809)
(1166.1733 181.83044 3.0335015)
(1324.3284 176.74161 -1.1462805)
(1487.4517 168.73754 -5.0270278)
(1654.5623 157.70315 -8.1122692)
(1824.4296 143.70751 -10.24543)
(1996.1809 126.87807 -11.365323)
(2168.4115 107.27077 -11.085849)
(2340.245 84.986217 -9.4659478)
(2510.4519 60.364872 -6.319679)
(2678.1541 33.478528 -1.6357074)
(2842.6678 4.6373116 4.6313431)
(3003.0946 -26.145621 12.225146)
(3158.9979 -58.362179 21.278148)
(3310.0425 -91.871901 31.293428)
(3455.7711 -126.44364 42.300465)
(3596.0403 -161.60984 53.798419)
(3730.9655 -197.31462 65.630576)
(3860.5777 -233.17216 77.44788)
(3985.0076 -268.96062 89.064791)
(4104.7179 -304.56244 100.09878)
(4219.94 -339.51464 110.27884)
(4331.3248 -373.94516 119.54654)
(4439.1279 -407.51038 127.54615)
(4544.1584 -440.05749 134.22618)
(4646.7565 -471.71245 139.50876)
(4747.7457 -502.11302 143.36306)
(4847.1039 -531.46341 145.90883)
(4945.8095 -559.70551 147.14379)
(5043.8896 -586.57105 147.23888)
(5141.8271 -612.61495 146.48246)
(5240.2515 -637.42384 144.95658)
(5338.3643 -661.20628 143.01756)
(5438.2713 -684.91863 141.03426)
(5537.7023 -707.18383 138.64743)
(-24.309144 12.192214 17.226768)
(-9.705353 19.681009 15.780238)
(17.485257 31.145718 16.10137)
(62.684681 40.255623 15.553184)
(118.98182 48.208158 13.523127)
(191.08442 56.195666 12.047709)
(274.09493 60.653489 8.2802228)
(369.43548 65.456035 6.25672)
(475.45238 67.027546 2.5252736)
(592.66082 67.658356 -1.0844292)
(718.64446 66.129147 -4.6396722)
(853.97598 62.500229 -8.4432008)
(997.2539 57.018246 -12.130232)
(1147.781 49.057809 -15.499371)
(1304.335 39.245641 -18.403319)
(1466.2772 27.012386 -21.097896)
(1632.1763 12.689552 -22.696899)
(1801.195 -3.9038612 -23.701871)
(1971.9414 -22.570974 -23.313101)
(2143.4134 -43.2667 -21.913549)
(2314.4509 -65.88988 -18.961075)
(2484.084 -90.249291 -14.772649)
(2651.6559 -116.23173 -9.0344809)
(2815.8893 -143.87567 -2.0337996)
(2976.486 -172.56766 6.421656)
(3132.5325 -202.54835 15.875551)
(3283.8304 -233.34689 26.35452)
(3429.706 -264.9991 37.70995)
(3570.5044 -297.20747 49.336565)
(3705.8888 -329.71714 61.181974)
(3835.9147 -362.40077 73.012699)
(3960.8882 -395.0748 84.416492)
(4081.0649 -427.51436 95.155912)
(4196.8225 -459.60866 105.08265)
(4308.6454 -491.25939 113.90618)
(4416.9473 -522.19906 121.48319)
(4522.3847 -552.55251 127.73553)
(4625.3358 -582.04431 132.60014)
(4726.4091 -610.69964 136.04808)
(4826.1146 -638.53973 138.1697)
(4924.9997 -665.3605 138.98966)
(5023.3079 -691.30006 138.71981)
(5121.5341 -716.47061 137.66116)
(5220.1384 -740.62169 135.69244)
(5318.6303 -764.15181 133.59689)
(5418.707 -787.27747 131.12751)
(5518.0507 -809.43119 128.73846)
(-26.89881 -1.1753438 -2.7954106)
(-11.93665 -4.115926 -8.444571)
(15.59571 -2.6888201 -9.4814993)
(58.599011 -5.6089734 -10.44663)
(116.41848 -8.2139661 -11.916853)
(186.31039 -11.338691 -14.169854)
(268.27473 -16.849222 -15.183289)
(362.02265 -21.907257 -18.075211)
(466.85985 -29.525746 -20.152027)
(581.67967 -37.185667 -22.607228)
(706.29781 -47.112819 -25.368615)
(840.31905 -57.730299 -28.260508)
(981.90422 -69.971033 -31.053073)
(1130.9461 -83.708602 -33.124562)
(1286.0454 -98.503002 -35.286608)
(1446.4843 -114.98819 -36.403277)
(1610.7843 -132.59634 -36.984073)
(1778.2044 -151.8159 -36.371587)
(1947.3974 -172.19905 -34.791402)
(2117.4869 -193.98694 -31.929639)
(2287.3458 -216.90622 -27.807464)
(2456.1921 -240.8473 -22.500242)
(2622.6089 -265.86226 -15.657414)
(2786.2617 -291.82217 -7.5305978)
(2946.098 -318.66784 1.7111069)
(3101.9261 -346.35703 11.974796)
(3253.0412 -374.59277 23.074929)
(3399.3052 -403.42951 34.646957)
(3540.4133 -432.5858 46.474768)
(3676.3229 -461.99955 58.444522)
(3807.0938 -491.64798 70.118193)
(3932.8827 -521.11907 81.210815)
(4054.0218 -550.71245 91.681075)
(4170.7329 -579.88958 101.06709)
(4283.5889 -608.87445 109.37471)
(4392.93 -637.38704 116.3484)
(4499.3858 -665.50558 122.01473)
(4603.3469 -692.90875 126.15341)
(4705.6028 -719.88809 129.00104)
(4806.1859 -746.10337 130.40448)
(4905.8647 -771.76699 130.80034)
(5004.9165 -796.65068 129.93615)
(5103.7095 -821.05197 128.51861)
(5202.8017 -844.57446 126.20154)
(5301.6248 -867.70046 123.93261)
(5401.9335 -890.4767 121.28228)
(5501.2933 -912.67239 118.8066)
(-27.923951 -15.175639 -21.261281)
(-10.892738 -23.991982 -27.558653)
(13.537311 -36.199156 -30.394609)
(58.076527 -49.393081 -32.776497)
(113.82667 -63.192887 -35.62423)
(183.58846 -77.403855 -36.395592)
(264.44472 -92.927506 -39.181573)
(357.81752 -107.96801 -41.109876)
(460.78292 -124.77583 -43.14429)
(575.04531 -141.28492 -45.586865)
(698.26613 -159.11669 -47.987494)
(830.17806 -176.53552 -49.9572)
(969.87418 -195.58532 -51.315492)
(1117.0044 -214.416 -52.733105)
(1269.9836 -234.41372 -53.219191)
(1428.3245 -254.84443 -53.137708)
(1590.7553 -275.8826 -52.254231)
(1756.3643 -297.54741 -50.426426)
(1923.9408 -319.6371 -47.511389)
(2092.5502 -342.43983 -43.352919)
(2261.1666 -365.44581 -38.11505)
(2428.9043 -389.18699 -31.358615)
(2594.8902 -413.60217 -23.540037)
(2757.6911 -438.2365 -14.588106)
(2917.5296 -463.35546 -4.6632349)
(3073.1204 -488.72522 6.241598)
(3224.395 -514.52639 17.767119)
(3370.8773 -540.66895 29.750178)
(3512.401 -567.00257 41.923996)
(3648.898 -593.57797 54.005714)
(3780.2826 -620.2259 65.675143)
(3906.8772 -646.89479 76.773069)
(4028.7505 -673.66496 87.059886)
(4146.3185 -700.11763 96.176235)
(4259.987 -726.65776 104.22698)
(4370.1899 -752.81441 110.83041)
(4477.3 -778.8276 116.06831)
(4582.171 -804.29464 119.832)
(4685.0385 -829.71418 122.27568)
(4786.2824 -854.59069 123.3882)
(4886.4791 -879.02358 123.18552)
(4985.9871 -902.90461 122.08299)
(5085.191 -926.28354 120.15463)
(5184.485 -949.14006 117.56844)
(5283.8725 -971.70756 114.88955)
(5384.3408 -994.05534 111.8124)
(5484.1957 -1016.2757 109.02407)
(-22.627755 -28.469728 -42.091553)
(-1.9955596 -49.206169 -48.884624)
(22.714518 -73.126586 -56.389331)
(66.094988 -97.700139 -59.662844)
(121.04728 -122.52883 -61.595756)
(188.69623 -147.72398 -63.188192)
(268.51481 -173.5368 -64.949766)
(359.2727 -198.71486 -66.020556)
(460.82401 -224.66467 -67.655006)
(572.40862 -249.70188 -68.695451)
(693.27949 -275.34704 -69.924275)
(822.87024 -300.49253 -70.799155)
(960.39311 -325.77963 -71.666381)
(1104.9964 -350.8189 -71.66539)
(1255.6407 -375.63721 -71.1757)
(1411.719 -400.25599 -69.855411)
(1571.9016 -424.58965 -67.782098)
(1735.4429 -448.66797 -64.545439)
(1901.1208 -472.55305 -60.271923)
(2067.9695 -496.1249 -54.840243)
(2235.0701 -519.5958 -48.12964)
(2401.5221 -542.90694 -40.396436)
(2565.8254 -566.19146 -31.159376)
(2728.4159 -589.01988 -21.198956)
(2887.5094 -611.74491 -10.019025)
(3042.8118 -634.76586 1.7152625)
(3194.0644 -657.60253 13.926487)
(3340.8573 -680.5069 26.520451)
(3482.8499 -703.52768 39.080575)
(3619.9409 -726.66739 51.393349)
(3752.0826 -749.85477 63.185965)
(3879.4727 -773.14504 74.224284)
(4002.2077 -796.53686 84.253784)
(4120.6855 -819.94284 93.106255)
(4235.2456 -843.54566 100.69683)
(4346.2196 -867.03506 106.76751)
(4454.2217 -890.61804 111.4403)
(4559.6013 -914.04182 114.49162)
(4662.9001 -937.52308 116.38875)
(4765.1863 -960.75743 116.56048)
(4865.6496 -984.20273 115.94621)
(4965.367 -1006.9977 114.02842)
(5064.7098 -1029.8089 111.56356)
(5164.0572 -1052.152 108.41843)
(5263.5702 -1074.5109 105.26145)
(5363.6852 -1096.653 101.99441)
(5463.7843 -1118.794 99.084892)
(-11.351432 -47.809558 -57.215777)
(9.3021121 -73.335658 -67.736982)
(32.84072 -110.26441 -78.592677)
(75.823056 -144.40534 -82.215547)
(128.02698 -179.97073 -85.402861)
(195.41417 -216.53377 -86.688293)
(272.59126 -252.45457 -88.514739)
(361.80936 -288.14801 -89.276007)
(460.99085 -323.59485 -90.673165)
(570.15838 -357.58633 -91.188973)
(689.06114 -392.0476 -91.974667)
(815.84648 -424.36766 -92.404992)
(951.0835 -456.88844 -91.871186)
(1093.0472 -487.68337 -91.002771)
(1241.468 -517.71565 -89.413275)
(1395.179 -546.48067 -86.974437)
(1553.304 -574.21629 -83.586474)
(1714.89 -600.80251 -79.127574)
(1878.7854 -626.32107 -73.628954)
(2044.207 -650.71884 -66.886948)
(2210.0406 -674.23662 -59.003833)
(2375.3718 -696.71388 -49.929984)
(2539.2821 -718.45696 -39.683537)
(2701.113 -739.6132 -28.530665)
(2859.9026 -759.93826 -16.622292)
(3015.4385 -780.21441 -4.0186378)
(3167.0084 -799.99265 8.9428068)
(3314.1071 -819.85848 22.175059)
(3456.5379 -839.65044 35.229009)
(3594.0995 -859.44394 47.921882)
(3726.7924 -879.2781 59.882271)
(3854.7356 -899.34676 70.989719)
(3978.0154 -919.56587 80.936379)
(4097.0045 -940.03739 89.623741)
(4211.9538 -960.8213 96.861243)
(4323.3186 -981.7714 102.57336)
(4431.5832 -1003.0528 106.70058)
(4537.1067 -1024.5009 109.30932)
(4640.4588 -1046.1116 110.48537)
(4742.1148 -1067.9301 110.26023)
(4842.4116 -1089.6871 108.83284)
(4941.9709 -1111.5099 106.41039)
(5041.045 -1133.218 103.30905)
(5140.0917 -1154.9002 99.754095)
(5239.3153 -1176.5844 96.175163)
(5338.9919 -1198.1146 92.585734)
(5439.3535 -1219.8055 89.373116)
(-1.8726199e-15 -1.0357256e-16 4.2324109e-16)
(-4.3693994e-15 5.8098526e-16 1.0825799e-16)
(-1.86708e-15 5.0203615e-16 5.7484399e-16)
(-1.1298519e-15 4.4303811e-16 -1.5186772e-16)
(-1.5283164e-15 1.7502349e-16 4.7144117e-17)
(-3.9278597e-15 -6.147074e-18 -1.0233878e-17)
(-3.270765e-15 8.5080195e-17 2.8271762e-17)
(-1.444637e-15 3.1767481e-17 -1.0328492e-16)
(-1.9600489e-15 -2.0641393e-16 2.5996682e-17)
(-1.0758982e-15 -5.0887233e-16 -1.6282415e-16)
(-1.1902312e-15 -6.3217422e-16 -1.0496995e-16)
(-2.2455722e-15 -1.0363924e-16 3.7607835e-16)
(-1.7254929e-15 1.2766475e-16 7.9907906e-17)
(-6.542485e-16 2.4659353e-16 4.7610311e-16)
(-1.0183069e-15 2.0413811e-16 3.0876606e-16)
(-1.2825224e-16 3.2154578e-16 2.6910031e-16)
(-2.4669526e-15 5.8726168e-16 -3.2350189e-17)
(-1.9694108e-15 5.8752001e-16 2.9593509e-16)
(-1.9972486e-15 5.0741204e-16 1.6376266e-16)
(-5.0142844e-16 5.9082617e-16 -1.5096731e-17)
(2.8672985e-17 2.0007103e-16 -2.079567e-16)
(-3.5598279e-15 1.6770216e-16 6.1584209e-17)
(1.5219227e-15 -3.8112137e-16 -3.4960392e-16)
(-8.8364966e-17 -1.5289127e-16 1.7491834e-16)
(2.7397895e-16 -2.6900304e-16 -2.0413732e-16)
(-5.1236454e-16 -3.7600259e-16 -4.411389e-17)
(-1.3114086e-15 -5.3747975e-16 1.2489795e-16)
(2.0041989e-16 -4.4379834e-16 -1.4360784e-16)
(-1.3448657e-15 3.3966264e-16 -2.7012678e-16)
(-2.2010094e-15 1.2158219e-16 1.1470551e-16)
(-1.2722141e-15 -2.3577892e-16 -7.7366055e-17)
(-2.6936153e-15 2.298542e-17 6.0151854e-16)
(-1.8084585e-15 2.5926424e-16 8.2177642e-17)
(-1.0121806e-15 3.7760621e-16 1.5728837e-17)
(-3.5076342e-15 -1.049112e-16 -1.8966684e-16)
(-1.2388067e-16 -2.746004e-16 -1.3203227e-16)
(-1.1077126e-15 -2.2449831e-16 5.9960705e-17)
(-7.9462407e-16 5.2806017e-17 1.8160622e-16)
(-1.481116e-15 2.6347307e-16 -6.003674e-17)
(5.3541372e-16 1.9494005e-16 5.7756958e-17)
(-2.5861876e-15 -7.0653702e-17 -1.8824779e-16)
(-1.6152529e-15 1.8241927e-16 3.8488004e-16)
(-1.0389662e-15 3.299921e-17 2.9700946e-16)
(-3.8817577e-15 -1.9427146e-16 -1.2145786e-15)
(-1.6161979e-15 2.8442108e-16 -1.856842e-16)
(8.1577518e-16 1.8112067e-17 2.0819295e-16)
(-2.485062e-15 2.8178417e-16 -5.4749215e-16)
(-1.8307085e-15 4.4562511e-16 -1.4619564e-16)
(-1.4586292e-15 4.0358521e-16 -4.0281137e-16)
(28.654313 -19.155254 -42.59483)
(34.818218 -23.887504 -29.680037)
(41.205911 -25.211425 -16.670904)
(43.864981 -26.715478 -5.8340868)
(42.980859 -24.85724 5.3125253)
(40.956494 -25.791909 17.420793)
(33.932865 -17.991644 30.463407)
(52.568201 -95.29444 -71.41023)
(66.336594 -102.98143 -43.245853)
(72.814195 -96.937597 -22.982271)
(74.650922 -94.338819 -6.8568755)
(76.102245 -99.282076 9.504637)
(69.471947 -98.208965 28.511275)
(62.521147 -97.877094 52.884502)
(73.38091 -135.72246 -79.279799)
(90.272838 -129.81163 -58.567562)
(101.8292 -133.64375 -32.727366)
(105.19572 -133.49152 -12.31842)
(105.37975 -130.95769 10.960685)
(98.982915 -132.14119 28.867965)
(89.777212 -136.56983 57.976875)
(118.47282 -194.63369 -84.354444)
(134.8956 -196.2861 -62.956759)
(145.34728 -193.88284 -37.207449)
(151.05853 -193.56585 -16.763777)
(151.27271 -193.76898 5.9664028)
(146.63561 -195.75625 30.243861)
(134.31776 -191.2587 51.740118)
(168.83521 -243.64359 -89.171842)
(186.61496 -241.3283 -67.959166)
(199.95668 -242.06183 -43.721167)
(205.58218 -241.0153 -20.858954)
(207.50314 -241.33836 2.3572041)
(202.66015 -240.60841 23.49303)
(193.77822 -240.40565 48.95267)
(234.54232 -294.73839 -90.700023)
(251.23367 -293.78634 -70.398696)
(263.8964 -292.65865 -47.085743)
(271.05297 -293.39722 -26.933935)
(272.80134 -291.98632 -3.4667651)
(269.45781 -290.48329 18.357742)
(260.39132 -287.67358 38.97135)
(308.94522 -341.38753 -93.562308)
(326.73775 -341.67441 -73.376561)
(340.34628 -342.76267 -52.168053)
(347.89614 -342.23807 -31.835407)
(351.16878 -342.30924 -9.8954528)
(349.30509 -342.07312 9.4652122)
(342.52534 -338.21353 32.154801)
(395.53645 -390.27864 -95.064639)
(413.06632 -390.6633 -76.851841)
(426.7119 -390.18173 -56.240605)
(435.24561 -390.71827 -37.074711)
(438.64839 -388.99738 -17.563619)
(438.07522 -386.90971 2.7312269)
(431.80522 -382.82681 21.102465)
(491.47638 -435.35559 -97.297636)
(509.13245 -436.1949 -79.048606)
(523.02611 -437.76325 -61.150832)
(532.0549 -437.27082 -43.165255)
(537.07012 -437.91974 -24.402127)
(537.59029 -434.89753 -6.5589588)
(533.84958 -432.08854 13.056935)
(597.18084 -480.77828 -98.636072)
(614.92457 -481.99589 -82.767881)
(629.06871 -482.10506 -65.497021)
(638.95879 -483.64628 -48.16655)
(644.18754 -482.47235 -31.337008)
(646.19376 -479.95345 -14.392114)
(643.22699 -475.73151 2.5175264)
(712.20549 -523.86061 -99.929827)
(729.52746 -525.39441 -85.042019)
(743.85124 -527.13369 -69.043254)
(753.67609 -526.79549 -54.760518)
(760.71751 -527.26989 -38.458046)
(763.31754 -524.60638 -23.703018)
(762.3525 -522.19326 -6.0382889)
(835.31179 -565.42622 -101.33755)
(852.7428 -567.75308 -87.303018)
(866.8248 -569.30956 -74.270213)
(878.1213 -570.82291 -59.857508)
(885.14289 -570.86429 -45.299004)
(888.83196 -568.40165 -31.976316)
(890.44407 -565.54968 -16.928496)
(966.35319 -605.89605 -101.26139)
(982.87789 -607.97367 -89.318777)
(997.43331 -610.46473 -77.342021)
(1008.4822 -611.08551 -65.077562)
(1016.5659 -611.89735 -52.331625)
(1021.8766 -610.44432 -40.437098)
(1024.4148 -607.57864 -26.85249)
(1103.9022 -643.6925 -101.34932)
(1120.3952 -646.77384 -91.00549)
(1135.2204 -649.59069 -80.873567)
(1146.6153 -651.40519 -70.114483)
(1155.8914 -653.21926 -58.64268)
(1162.0771 -651.65989 -48.458246)
(1166.6445 -649.70996 -36.040913)
(1247.9073 -680.27733 -100.4027)
(1264.068 -683.81507 -91.483929)
(1278.3493 -687.01561 -83.232752)
(1290.2184 -689.26284 -73.613991)
(1299.7844 -691.04312 -64.548462)
(1307.3816 -690.2604 -55.242884)
(1313.2286 -689.19603 -44.989391)
(1397.3673 -714.2796 -98.402797)
(1412.822 -718.48347 -91.531235)
(1427.1638 -722.56738 -84.680518)
(1439.3047 -725.5507 -77.305058)
(1449.6321 -728.47741 -69.234908)
(1458.4271 -728.77785 -61.812327)
(1465.5857 -728.45753 -52.867952)
(1551.0657 -746.39271 -95.605442)
(1565.9582 -751.51643 -90.136551)
(1580.0438 -756.18893 -85.188379)
(1592.0603 -759.7539 -78.945673)
(1603.0451 -763.43851 -72.917792)
(1612.62 -764.23408 -66.781618)
(1621.2478 -765.29625 -59.675156)
(1708.5067 -776.39875 -91.391697)
(1722.7745 -782.28638 -87.931287)
(1736.3447 -787.73559 -84.27577)
(1748.6541 -792.32706 -79.947498)
(1759.9513 -796.7785 -75.457402)
(1770.598 -798.9656 -70.698149)
(1780.2617 -800.95577 -65.280813)
(1868.5463 -804.2755 -86.190829)
(1881.7927 -810.96269 -84.126305)
(1895.1259 -817.25507 -82.022822)
(1907.0818 -822.51998 -79.198861)
(1918.896 -827.93015 -76.217964)
(1930.093 -830.99058 -72.890533)
(1941.0244 -834.52575 -69.249517)
(2030.1773 -830.12661 -79.496844)
(2042.7889 -837.64389 -78.992327)
(2055.3352 -844.77794 -78.406518)
(2067.3659 -851.05241 -77.023929)
(2079.3058 -857.26399 -75.624826)
(2091.2674 -861.75019 -73.61359)
(2103.0156 -866.27686 -71.573054)
(2192.7304 -853.95375 -71.570995)
(2204.1953 -862.31917 -72.500324)
(2216.2774 -870.27383 -73.116624)
(2227.9565 -877.26454 -73.153723)
(2240.0923 -884.44704 -73.106371)
(2252.4134 -889.88315 -72.358558)
(2265.0016 -895.87873 -71.904275)
(2355.043 -875.98849 -62.365221)
(2365.6649 -885.09536 -64.452316)
(2376.9624 -893.82232 -66.343369)
(2388.3918 -901.73028 -67.627784)
(2400.4525 -909.62252 -68.871271)
(2413.1485 -916.38087 -69.3577)
(2426.3158 -923.50675 -70.328181)
(2516.4582 -896.26343 -51.913824)
(2525.9921 -906.09932 -55.081933)
(2536.6255 -915.57896 -58.085038)
(2547.6538 -924.12914 -60.424865)
(2559.6512 -932.86555 -62.864246)
(2572.5361 -940.65848 -64.419578)
(2586.1438 -948.97018 -66.689171)
(2676.0744 -914.94686 -40.371429)
(2684.6981 -925.5192 -44.478911)
(2694.6292 -935.54631 -48.438035)
(2705.1758 -944.81817 -51.576437)
(2716.9025 -954.21438 -55.126469)
(2729.801 -962.927 -57.629283)
(2743.5545 -972.31697 -61.087218)
(2833.2947 -932.46965 -27.949625)
(2841.0627 -943.5442 -32.709115)
(2850.0652 -953.98078 -37.41309)
(2860.0336 -963.94344 -41.323481)
(2871.6575 -973.65858 -45.88907)
(2884.3423 -983.37423 -49.100698)
(2898.419 -993.62657 -53.665407)
(2987.346 -948.70217 -14.703611)
(2994.3544 -960.14866 -20.175437)
(3002.5088 -971.1799 -25.378538)
(3012.3813 -981.50478 -30.298946)
(3023.3949 -991.61034 -34.955509)
(3035.7992 -1001.9393 -39.272001)
(3049.593 -1012.9626 -44.29499)
(3138.1538 -964.24062 -1.1124227)
(3144.2594 -976.04566 -7.0798429)
(3151.8384 -987.11106 -12.278392)
(3160.669 -997.70799 -18.047403)
(3171.862 -1008.1821 -22.97661)
(3183.5388 -1019.4357 -28.232606)
(3197.3554 -1030.7114 -33.164606)
(3284.8912 -979.18897 12.766584)
(3290.1995 -990.81595 6.5080696)
(3297.0351 -1002.2236 1.029827)
(3305.6506 -1012.7984 -5.1112264)
(3315.8151 -1023.6597 -10.46906)
(3327.5213 -1034.5847 -16.186246)
(3340.909 -1046.7039 -21.88974)
(3427.1983 -993.46433 26.433163)
(3432.0326 -1005.1371 20.134688)
(3438.2451 -1016.2987 14.489915)
(3446.2793 -1026.9577 8.1490564)
(3456.1444 -1037.6594 2.5123991)
(3467.4263 -1049.1303 -3.5621082)
(3480.3886 -1061.0235 -9.5803822)
(3565.1746 -1007.7215 39.735545)
(3569.3952 -1018.9588 33.372412)
(3575.203 -1029.9906 27.882001)
(3582.8091 -1040.4112 21.305659)
(3592.2449 -1051.1566 15.6416)
(3603.0574 -1062.2636 9.2915313)
(3615.6818 -1074.2081 3.0520405)
(3698.4729 -1021.8326 52.154947)
(3702.4346 -1032.6852 46.161344)
(3707.885 -1043.2827 40.5932)
(3715.1016 -1053.4665 34.195408)
(3724.1715 -1063.7621 28.487144)
(3734.5287 -1074.728 22.082565)
(3746.7048 -1086.2589 15.737329)
(3827.32 -1036.1321 63.746801)
(3831.0833 -1046.3358 57.99073)
(3836.2636 -1056.4079 52.712306)
(3843.181 -1066.0942 46.436569)
(3851.9026 -1076.0005 40.863746)
(3861.8115 -1086.542 34.457313)
(3873.5681 -1097.5764 28.153991)
(3951.7135 -1050.686 74.018148)
(3955.4313 -1060.1841 68.759953)
(3960.5005 -1069.6479 63.671411)
(3967.2062 -1078.8432 57.723553)