/*--------------------------------*- C++ -*----------------------------------*\
  =========                 |
  \\      /  F ield         | OpenFOAM: The Open Source CFD Toolbox
   \\    /   O peration     | Website:  https://openfoam.org
    \\  /    A nd           | Version:  6
     \\/     M anipulation  |
\*---------------------------------------------------------------------------*/
FoamFile
{
    version     2.0;
    format      ascii;
    class       pointScalarField;
    location    "1.85";
    object      E;
}
// * * * * * * * * * * * * * * * * * * * * * * * * * * * * * * * * * * * * * //

dimensions      [1 -1 -2 0 0 0 0];

internalField   nonuniform List<scalar> 
28033
(
4378.2271
-434.83862
42400.578
8578.8438
3950.5265
4450.6898
13282.053
40812.21
3213.7325
3835.4825
2556.2892
2177.6667
547.07393
311.15623
84.37779
189.02549
-92.473259
-493.11484
-1964.9316
-2859.5681
-3793.3853
-3673.6272
-2919.0042
33441.579
24127.848
23337.698
23891.719
25972.833
28919.331
30552.713
33751.338
35897.804
37511.736
39148.196
39035.023
38474.927
36859.576
30776.531
2632.3593
1770.0825
1314.9034
1047.818
1577.634
1584.3417
1730.5562
1645.9884
2111.2675
1466.0503
2096.8806
1826.2019
2089.4199
1761.5184
1973.0732
1839.4738
1788.6037
1850.5744
1808.0746
1723.947
1845.5433
1572.639
1913.2928
1897.2904
1904.0788
2122.2514
2083.2335
2431.6333
2225.9821
2450.4863
2585.2323
2098.5302
2216.5008
1996.2562
2122.4855
2233.2788
1944.2766
2424.0469
2032.5105
2077.2375
1841.3116
1780.7041
1473.5101
1335.0871
1087.4862
1066.4363
828.67524
981.79659
767.39625
901.2673
663.22017
600.51271
246.85094
-66.256742
-542.65164
-998.61806
-1524.3736
-2012.4731
-2523.2116
-2993.8118
-3541.3274
-4022.7718
-4751.289
-5172.7994
-5806.5724
-6456.0496
-6981.9671
-7361.5853
-7528.6995
-7634.0322
-7608.275
-7494.104
-7353.2131
-7044.8435
-6844.0822
-6514.2317
-6321.7636
-5822.3064
-5576.5453
-5047.4597
-4287.5742
-3712.7685
-2531.3757
-1848.1394
-264.06973
555.1756
2563.8696
3492.0761
5985.2174
6994.4554
9970.9562
11104.73
14358.839
16279.665
28849.285
6993.7265
-4819.6705
3980.8399
-1790.1611
1565.4852
406.80042
281.00163
47.706328
681.00354
-124.22902
763.20892
206.69297
668.08135
447.62546
479.5352
405.48661
411.18621
20.010775
209.89657
257.68446
-64.820846
392.78206
10.10103
661.15032
381.87444
921.33125
532.35195
908.28667
550.46923
729.89052
407.7286
522.79629
441.73803
439.82545
611.06823
658.93907
944.09627
1011.616
1198.8873
1673.0953
1938.3935
2460.2653
2887.1092
3528.6038
4040.1636
4817.0413
5462.3842
6328.1704
7119.1162
8035.2316
8898.2697
9822.4186
10624.606
11495.816
12192.348
12939.44
13609.186
14325.668
15060.046
15947.465
16889.264
18031.901
19253.869
20618.611
22032.455
23410.085
24910.866
26381.926
27686.176
28837.853
30307.66
31023.517
32563.562
33158.013
34280.538
34962.557
35484.124
36101.206
36264.541
36474.716
36490.353
36320.858
36239.935
35924.38
35753.83
35384.973
35129.371
34687.538
34273.584
33728.098
33076.243
32318.586
31462.257
30708.195
24379.631
2226.1928
2880.3862
1880.7657
1994.535
537.26742
422.11829
253.62234
34.011489
44.0441
-426.51404
-724.86257
-1574.0593
-2100.3078
-3376.7519
-1431.8164
3804.2566
9806.1767
-11283.503
4650.2856
-1284.567
-308.47813
779.25577
126.11265
892.41346
1260.6088
942.94674
70.944113
1658.2565
-441.91694
1443.7107
-939.66299
1825.2647
-1386.0333
1230.3375
-997.62249
-179.16059
1069.9313
23.666895
1441.7483
-330.35956
1076.9672
678.94136
551.67754
1274.8467
-148.6068
278.34176
466.75929
531.78749
882.21078
1181.581
2778.0622
1592.9013
3436.625
3802.778
4262.5853
4782.8607
5122.6621
5620.6887
6048.313
6705.3955
7341.0597
8197.5827
9036.1361
9975.9201
10818.615
11616.624
12254.139
12797.574
13168.609
13576.932
13940.655
14443.055
15137.834
15975.026
17089.42
18277.942
19615.01
20914.961
22147.082
23253.202
24240.907
24900.501
24985.639
26971.494
26750.704
27542.719
27918.49
28420.986
28858.401
29119.366
29207.676
29114.476
28895.883
28446.819
28055.5
27548.342
27178.501
26718.719
26466.142
26042.244
25783.737
25290.863
24863.784
24197.999
23529.768
22739.169
21879.21
21186.974
20062.048
27768.116
35315.367
33194.435
36780.311
38391.862
39759.675
36707.394
38265.055
29147.403
32198.632
30041.964
27403.027
23714.156
24935.724
23443.151
29422.463
28587.54
28685.431
29291.064
26816.813
25201.261
23185.985
21375.421
19557.778
17765.83
16123.463
14495.97
13122.082
11791.194
10463.07
9312.1853
8235.3268
7252.2398
6362.3546
5424.6017
4583.8481
3707.587
2931.3294
2089.2547
1446.0731
832.81782
66.270177
1081.5873
-1110.42
-924.45402
-1516.0306
-1638.0835
-1876.4102
-2046.2914
-2104.5437
-2124.5187
-2035.4148
-1886.6128
-1659.6901
-1401.3242
-1109.4499
-857.30115
-606.44296
-453.69771
-325.89869
-299.74905
-283.84455
-335.00884
-363.91772
-403.40377
-392.55228
-403.54321
-294.90902
-289.7653
-141.77143
-158.71055
54.09092
100.30355
414.51558
-238.0227
293.69848
247.5832
93.513431
128.91206
345.86395
721.77643
1003.9347
752.09808
972.65358
670.05036
1208.8567
1411.4562
1094.2782
713.3589
1569.6507
801.25595
1205.5936
1146.3906
1309.7659
1551.5435
1899.2502
1740.9906
718.22099
2827.9417
1044.4462
3019.5513
1625.947
1660.6664
855.32808
2434.5543
1528.9132
209.81165
2811.9853
2725.911
-1941.6919
6659.9891
2051.6355
2926.5831
2171.3017
2939.7734
2063.74
3056.7565
1765.1749
3003.7769
2315.1416
2576.8583
2248.6698
2159.6048
2201.6488
2449.0276
656.90524
-1894.0084
-1184.6788
-2641.7753
-1294.4015
-1464.3279
-2675.1599
-1729.9766
-1375.1583
-2326.9479
-1263.7469
-1458.355
-1745.3496
-1877.2546
-2484.4515
-2878.2453
10618.887
10553.745
10650.742
10701.476
10473.477
10479.578
10447.087
10435.741
10510.116
10430.279
10376.31
10592.861
10708.071
10331.333
11918.099
43104.28
42190.806
42474.227
41880.643
42604.635
42552.588
42583.955
42586.601
42616.19
42598.278
42682.031
42561.284
42609.346
42353.483
42404.438
5044.1067
1697.945
1857.8164
1655.2315
1470.3351
1756.0514
1481.1248
1849.3126
1276.5487
1914.366
754.22689
1412.5172
289.03494
995.33792
-204.31971
467.9042
-9.407092
-50.615221
-102.88712
-301.98625
-231.55185
-770.68788
-599.9619
-1425.9964
-1250.0666
-1864.7153
-1834.6684
-2259.3081
-1998.2857
-2082.8345
-1887.8397
-1637.584
-1135.2571
-929.11596
-431.92845
-539.29095
-217.32257
-317.72281
-49.126258
-145.00025
89.006895
-39.886935
123.47127
266.56589
89.10806
119.14073
-129.48129
-332.59069
-723.77159
-1061.6562
-1499.282
-1792.534
-2041.4854
-2069.5885
-1950.4741
-1618.1744
-1166.9167
-597.63059
-17.368499
538.51786
1002.6095
1397.9051
1691.6206
1945.0177
1968.9754
2177.2883
3000.0986
4013.261
4438.2569
4487.6808
5023.6056
5284.5171
5682.2722
6052.8189
6508.0381
6993.9256
7700.0534
8431.5265
9433.3943
10475.991
11825.874
13000.451
14586.947
15623.121
17199.444
18827.211
20110.379
21567.645
23045.132
24291.073
26110.769
27185.934
29330.576
30338.165
35636.411
3970.8875
1522.9331
2246.3285
1215.5021
2090.1553
1577.9921
1897.9448
1701.8299
1693.7636
1483.5266
1386.3053
1233.4301
962.72406
744.59605
498.51303
553.91231
-63.336208
110.44203
-141.96792
-247.87182
-449.55643
-586.50844
-742.49809
-928.34058
-1104.8378
-1318.6241
-1386.9721
-1613.1068
-1628.4845
-1767.8757
-1568.4963
-1588.4859
-1476.1617
-1487.82
-1222.012
-1149.4947
-815.8897
-606.87475
-660.67459
-672.54178
-635.40526
-596.02201
-463.70581
-550.62014
-521.43095
-372.35807
-398.81244
-362.25597
-382.12186
-444.47848
-526.05846
-581.64941
-629.05241
-586.61129
-494.57589
-288.83134
-43.880355
289.05353
613.47301
969.04831
1267.0969
1613.9645
1860.0484
2063.6249
2514.0423
2817.9098
5499.2507
11658.172
12973.454
13902.736
14919.997
15675.821
16435.969
17205.592
17967.015
18796.104
19620.722
20469.707
21404.438
22180.51
23222.574
23817.521
25034.971
22630.992
19233.61
19703.459
21274.211
21904.879
23781.597
24333.913
26322.379
26867.647
29003.456
28845.02
33121.792
3183.6943
801.52099
2060.5353
1002.0477
1504.8933
1019.229
1175.0572
1248.5932
1045.6727
1127.0023
743.11183
892.41855
304.06468
458.60414
-51.78874
-90.588244
-340.32371
-360.74504
-633.7827
-695.51559
-684.82666
-884.00293
-805.42056
-1108.7378
-1037.6935
-1373.5763
-1338.9159
-1637.6986
-1491.3012
-1679.0421
-1538.8478
-1624.7205
-1283.859
-1257.8885
-947.44405
-908.49525
-903.43841
-1120.7204
-771.92617
-758.93122
-522.9093
-527.23946
-472.58117
-142.83396
119.44635
274.99966
435.32314
551.72863
633.49082
627.39684
702.32487
727.06967
879.6253
1079.6314
1413.5405
1820.9037
2316.9826
2852.2608
3397.7312
3928.2344
4437.1981
4932.832
5300.1613
5850.6716
6245.5405
7053.744
3488.6497
11405.548
12886.989
13586.958
14252.678
14483.737
15119.693
15741.764
16499.522
17071.657
17801.876
18440.776
19174.897
19774.802
20583.289
21196.508
21795.88
23237.042
20305.022
20579.924
21300.774
22455.27
23525.256
24428.685
25988.985
26593.426
28536.746
28899.035
32044.935
1683.8131
978.40901
913.02056
940.0467
778.8523
727.64563
760.44448
681.79159
445.6668
524.7537
387.52754
296.53571
44.384988
171.45092
-322.94124
-99.159402
-583.92983
-424.58265
-708.31033
-513.16686
-841.71743
-644.04067
-893.618
-786.96888
-955.23082
-965.92286
-1081.9936
-1129.0922
-1264.9275
-1287.8128
-1248.0076
-1179.1563
-1043.9979
-993.70615
-678.16028
-685.90574
-273.2663
165.77435
-194.00106
-53.34279
-13.476483
306.85918
447.69356
655.3839
756.07489
1002.8414
1256.8564
1506.9843
1758.7618
2013.1825
2290.2096
2557.5228
2895.1715
3248.2041
3672.6825
4141.5009
4663.0788
5217.1601
5801.9898
6410.9501
7021.474
7624.3431
8229.5504
8930.1919
9404.0347
9995.8869
11608.794
9072.8265
9194.0207
9143.5689
10166.863
11429.917
11777.274
11741.998
12326.682
12942.946
13654.32
14277.058
15094.215
15747.432
16682.409
17264.312
18500.591
18789.607
22403.415
23630.841
25288.85
25620.077
27081.166
27341.423
28950.71
28872.806
31138.851
30082.853
32298.934
1548.0286
-94.599819
795.08261
-160.58352
511.90939
-104.5173
368.05055
-59.978433
210.39348
69.56148
-0.14415353
-94.566483
-150.65162
-286.9831
-447.17957
-451.61387
-662.88767
-558.50832
-800.95806
-661.42321
-781.95188
-568.57433
-724.4364
-539.18823
-731.74837
-704.26052
-827.38064
-947.18971
-958.32944
-984.92993
-948.31654
-921.60503
-762.61622
-658.59206
-468.56443
-453.10832
-249.60244
-1364.2491
-1529.1619
-1355.1361
-793.1842
-735.17085
-378.66108
78.057254
531.45745
1008.6697
1475.4425
1901.8452
2378.9411
2842.4408
3366.8686
3898.0599
4551.0528
5206.539
5986.1877
6783.3101
7661.8612
8557.7103
9486.323
10444.483
11371.111
12339.282
13334.32
14251.773
15179.023
16221.842
17051.559
18165.084
18847.774
19592.017
20676.432
21065.238
21450.87
19574.385
19675.05
20281.014
20888.939
21558.415
22193.69
22834.681
23458.381
24133.271
24673.327
25465.583
25918.847
26799.042
27157.127
27816.139
28364.882
28891.25
29729.626
30166.991
31659.23
30882.292
32215.258
818.59184
-30.07067
378.23807
105.46688
110.15126
86.638592
-49.030559
9.8166987
-87.456533
-85.353809
-147.43382
-117.04668
-325.80944
-273.06467
-528.11236
-530.19564
-738.84935
-662.14357
-866.16254
-524.82693
-841.81811
-447.09977
-769.90408
-445.80084
-828.03829
-516.03704
-945.04164
-715.93392
-976.37401
-888.2383
-969.53999
-851.55641
-769.25875
-647.6189
-509.89338
-360.8181
-131.71488
497.99964
594.32807
1505.9706
1365.3607
1781.5348
1827.1158
2214.6215
2400.5549
2668.7496
2850.5859
3114.298
3332.2274
3597.8085
3867.2825
4194.849
4544.2991
4954.2599
5390.8854
5872.9267
6370.0791
6884.7224
7418.6886
7941.6528
8465.4149
9064.8524
9536.2212
10108.782
10775.794
11208.594
11897.554
12364.118
13105.484
13639.73
14224.937
14351.59
14762.14
16890.525
17829.993
18477.819
19240.374
19932.285
20775.204
21380.085
22338.651
22805.222
23952.333
24264.168
25548.04
25876.13
27310.959
27660.196
29187.616
29382.389
31110.667
30935.675
33027.702
31836.139
32255.441
510.96025
-453.08447
475.27146
-567.81735
111.01727
-469.40894
-34.161605
-454.87143
-62.11186
-453.57953
-185.70952
-609.07027
-457.58665
-820.29783
-832.667
-1022.2263
-1076.8395
-1131.0237
-1230.9605
-1056.3849
-1315.527
-920.01375
-1328.7764
-959.65791
-1353.7827
-1178.0069
-1555.109
-1403.2226
-1718.128
-1532.0498
-1624.3475
-1431.682
-1356.7514
-1264.2521
-1101.8334
-994.18486
-1010.6522
-1089.0742
-661.25509
-172.75668
-352.78411
-84.945798
6.4669176
230.14657
457.02114
670.73355
983.96285
1178.1293
1457.2207
1651.4573
1935.7173
2165.6792
2503.2261
2828.7375
3262.2252
3698.1084
4231.3806
4767.6544
5362.3454
5947.4295
6609.0648
7204.2524
7862.4039
8609.2237
9198.6335
10043.203
10709.479
11582.04
12366.388
13181.679
14053.581
14931.869
15514.642
18474.182
20432.648
21339.6
22186.953
22978.266
23771.901
24554.747
25327.976
26121.201
26857.43
27638.87
28390.885
29039.001
29747.534
30323.544
31039.604
31372.046
32204.503
32241.246
33913.243
32173.979
32490.132
296.7258
-205.66215
335.19669
-23.873647
171.1923
14.984246
49.134441
-39.429477
126.54728
-65.589598
13.287878
-64.577803
-120.58647
-309.6775
-293.12177
-546.2463
-545.68564
-619.62335
-702.70243
-508.72301
-840.78635
-518.45253
-946.19538
-470.05292
-1185.0748
-700.12599
-1300.5431
-992.10987
-1355.8428
-1107.0979
-1309.6626
-1076.2312
-1182.8342
-958.14246
-864.61449
-920.40993
-601.77263
-667.64864
-420.19507
-338.1529
-267.38511
13.443736
220.24224
476.95869
661.83857
971.76095
1167.2509
1453.2982
1691.5054
1985.4037
2253.7304
2580.8693
2913.5856
3290.191
3693.1505
4129.8835
4599.4257
5083.2545
5598.8282
6147.4574
6697.451
7289.4227
7931.6134
8545.7215
9255.7295
9938.3004
10709.689
11465.68
12241.809
13054.691
13855.447
14704.133
15635.03
16249.999
16888.318
17813.901
18658.188
19566.677
20520.243
21324.972
22363.659
23074.488
24208.76
24822.114
26057.491
26649.001
27988.739
28515.07
29890.352
30334.533
31882.169
32029.77
33756.064
32186.382
32406.176
29.21391
-876.93197
213.79089
-829.17438
-180.64841
-839.61358
-250.39237
-792.0792
-201.86285
-854.45372
-398.571
-970.4331
-873.37571
-1359.6135
-1294.2695
-1706.3407
-1560.9796
-1790.8736
-1688.3244
-1588.6152
-1706.6523
-1309.4775
-1599.5363
-1396.4347
-1857.8358
-1497.2817
-2118.2615
-1738.4474
-2159.0116
-1840.1103
-1988.946
-1742.9645
-1680.9551
-1462.1186
-1590.5669
-1199.6381
-1410.309
-1170.6313
-1251.4319
-1149.5637
-1036.9424
-949.00014
-734.03637
-631.55015
-307.93476
-122.84448
172.22063
371.65094
651.45854
840.37157
1108.8424
1318.7733
1600.7212
1861.2685
2193.4954
2528.3345
2929.7723
3332.422
3816.895
4284.0991
4812.5261
5379.91
5945.9333
6600.4835
7246.5497
8019.9017
8731.4152
9578.0617
10425.421
11381.8
12284.587
13330.75
14296.886
15421.752
16222.785
15886.824
17087.236
18032.582
19002.644
20034.52
20998.419
22078.063
23050.961
24164.744
25179.351
26223.787
27224.506
28191.823
29124.289
29955.084
30820.452
31242.419
32677.682
31080.174
32857.602
390.81583
-803.15587
490.49651
-530.47453
203.67229
-213.74325
246.13341
-28.878488
292.29756
240.39399
338.67815
293.30213
352.77947
220.9525
366.70578
150.88663
356.15923
201.22944
357.86239
435.42475
272.72542
268.50914
-284.32492
52.019989
-363.18734
-77.2729
-482.14308
-105.845
-449.62317
-66.872886
-331.10279
37.275862
-91.731691
-17.857044
228.18119
85.808465
290.67447
276.02235
363.60133
510.90678
555.39663
730.6503
806.61913
1004.0676
1047.2321
1214.3603
1266.6713
1403.5356
1465.8111
1582.3707
1655.8671
1763.681
1863.4029
1987.0462
2115.3744
2278.8452
2447.4505
2662.3977
2909.4593
3173.8655
3521.0171
3885.7001
4290.5912
4778.5494
5284.9156
5826.4656
6447.8276
7094.942
7776.912
8472.4473
9215.517
10030.249
10776.598
11510.718
6433.3451
2004.7466
3486.6595
4093.1991
5126.329
6047.8046
7221.4027
8292.6653
9705.0238
10896.773
12537.098
13824.149
15710.963
17050.651
19159.533
20556.532
22804.173
24380.167
26730.381
26997.11
33192.642
323.70617
-1459.5879
-458.27303
-1620.4246
-816.74967
-1351.3689
-891.1968
-1160.7198
-717.13622
-967.68243
-769.48366
-937.93933
-750.51147
-928.04124
-578.17071
-813.38742
-181.26869
-450.34598
179.92125
65.581428
585.14841
-360.7852
-680.70332
-553.93576
-787.64231
-580.68389
-844.63917
-638.86939
-852.2487
-646.71315
-696.13553
-452.63455
-572.42431
-99.331774
-371.64562
-31.067308
-111.17153
33.063755
74.462178
75.410428
174.87614
132.79674
254.90693
227.11967
342.06261
351.04726
443.57066
416.6969
470.55926
413.64767
403.22819
319.46401
280.8223
191.43269
163.95957
134.67252
167.29341
247.5843
387.58639
587.31658
859.88074
1174.0242
1534.797
2005.9279
2422.9413
3028.4826
3554.7849
4228.5878
4891.5644
5697.3979
6499.1438
7402.1843
8283.427
9981.8943
14035.622
5726.3229
7742.0855
8622.2976
9685.1434
10797.307
12014.952
13311.871
14688.637
16164.151
17668.868
19300.076
20873.724
22577.265
24166.006
25868.795
27507.645
28963.421
30856.156
31474.636
37660.072
146.97036
-2175.0489
-1089.9856
-1590.3003
-892.7531
-1073.0177
-490.44532
-652.67205
-228.6512
-144.15743
25.317956
81.500487
461.35158
377.07379
705.05233
847.6619
1145.788
1219.7537
1638.0315
1667.5255
1877.2795
2280.1186
1650.9733
1761.6713
1828.7711
2008.6143
2047.5712
2375.3731
2414.8273
2828.8297
2883.8631
3150.1016
3349.0351
3427.4213
3620.8016
3770.2605
3769.5544
3877.4811
3764.1826
3844.7857
3682.72
3725.9533
3552.6758
3569.2394
3405.0247
3386.7468
3267.6275
3226.1298
3139.9202
3084.0945
2987.7422
2911.5467
2803.3897
2698.4235
2586.6236
2492.846
2404.6144
2357.7737
2340.5043
2371.2346
2440.9288
2567.0865
2696.1969
2915.6714
3075.2597
3366.3171
3593.91
3938.6348
4284.7918
4711.7534
5148.1305
5593.0867
6333.2182
6597.8925
7233.4859
11363.779
13201.703
13849.378
14794.176
15730.22
16785.06
17771.062
18894.478
19956.594
21136.506
22190.494
23394.872
24390.292
25556.041
26594.42
27677.226
28872.931
30432.236
31340.735
38349.143
172.8047
-2834.2683
-1509.6951
-2234.9554
-2045.1423
-2325.5423
-1966.3649
-2281.2474
-1859.0416
-2136.8849
-1845.3161
-1863.1261
-1827.4411
-1707.1004
-1531.2951
-1468.7056
-1170.4814
-1070.3913
-650.9972
-582.70438
-176.70206
-152.21435
611.37321
962.77736
1295.6352
1372.9768
1618.4833
1625.0992
1782.206
1886.0885
1916.7793
2202.6113
2093.922
2424.8092
2340.799
2502.1564
2482.6232
2527.7131
2566.0536
2491.8981
2519.9438
2410.7744
2398.4866
2293.7725
2236.9516
2097.3377
1993.2855
1752.3672
1542.6813
1194.4288
840.27349
391.83754
-51.475054
-543.95244
-971.8188
-1370.6929
-1671.1681
-1865.6664
-1946.015
-1908.6393
-1777.672
-1547.4683
-1315.6545
-932.24086
-743.21745
-255.83795
-103.59002
409.74416
716.95535
1196.7966
1522.674
2293.4185
2458.2249
3399.9881
3844.3727
4697.5744
5010.9891
5751.0278
6558.9974
7582.7474
8643.3664
9938.2055
11305.594
12896.378
14468.931
16272.145
17969.334
19849.865
21621.997
23462.415
25266.958
27049.248
28783.186
30648.584
38014.912
578.98945
-3310.6488
-1397.809
-2431.7451
-1303.5999
-1567.5718
-1095.2496
-1019.4798
-719.16363
-540.19403
-266.77112
-208.20469
155.25726
317.94833
576.09008
873.04002
1203.0622
1415.1011
1980.1611
2130.6655
2725.5564
2960.7316
3238.2321
3580.4999
3814.1813
4160.3229
4345.3992
4614.5977
4727.6216
4828.232
5004.0212
5096.956
5253.3414
5470.0388
5505.6268
5721.2474
5705.7151
5907.3073
5764.9719
5885.9464
5681.5041
5688.5887
5447.2794
5373.7168
5140.7486
5024.4128
4820.5349
4656.8629
4434.7344
4199.7345
3881.9695
3538.7018
3126.1826
2692.435
2246.6278
1832.0625
1451.2861
1148.4237
915.62081
752.43908
632.85884
569.04444
496.71014
457.15369
347.20187
409.40376
212.30015
380.04305
266.83655
371.67774
686.49862
732.21987
1291.3248
1543.016
2077.7359
2546.545
3248.6497
3875.1644
4690.2129
5562.9993
6600.7304
7726.4692
9085.1989
10441.859
12060.977
13604.471
15390.528
17042.687
18905.862
20664.217
22551.508
24495.371
26539.431
29294.986
37833.392
2407.3342
-4002.4865
-887.67562
-2156.1076
-1122.765
-1593.463
-1100.7124
-1187.5756
-1117.8065
-1014.9441
-1336.081
-972.27938
-1103.8159
-799.8478
-527.18954
-203.50213
318.69296
503.13105
1044.1664
987.31957
1518.4222
1107.9801
1510.9035
1002.7371
1313.3503
1149.2079
1431.6864
1630.6759
1998.7393
2531.3168
2826.4127
3406.7545
3652.9903
4032.9912
3948.2062
4216.9112
4156.5202
4090.8899
3951.9291
3704.551
3487.2436
3180.1873
2903.313
2541.8695
2173.7379
1698.2125
1218.9954
633.65092
94.094034
-465.46643
-925.19658
-1280.9518
-1458.5503
-1508.8309
-1352.2865
-1095.5614
-763.47696
-392.6428
-74.511759
160.11567
299.16203
351.41183
286.3841
232.04443
127.91613
175.12901
-35.52438
382.17737
180.73092
931.19586
801.87372
1711.8977
1801.6238
2765.2704
3293.6371
4430.2547
5458.5323
6804.1581
8385.1598
10110.74
11921.6
13929.705
15820.42
17908.531
19785.885
21859.774
23726.336
25789.908
27762.438
29830.347
32003.207
34201.283
36334.955
39155.082
41768.456
582.46126
1021.3266
108.72015
-68.1807
-193.86271
-61.020527
-84.960702
31.051902
-193.85797
507.52351
51.037341
176.00199
858.02566
923.25527
347.3301
2522.371
1946.2856
1529.1678
1717.1148
1294.2205
1410.5746
1239.6055
1226.5831
1484.2331
1284.9748
1324.3952
1686.1515
1610.2477
2170.762
1627.6517
1622.4771
948.40082
212.12028
330.97974
44.255691
-36.773314
52.192929
-125.65936
-53.658135
-20.025641
126.6086
-23.539106
224.08969
852.89914
570.14499
991.60216
955.06311
702.53442
458.67125
530.4173
413.69507
433.41247
378.91318
532.27037
436.63076
607.92446
580.06291
842.55696
1376.2686
149.4653
243.08562
151.24934
-227.28624
-235.55184
-409.66524
-359.09381
-435.93415
-404.40007
-475.31299
-439.17808
-401.00209
-343.85824
-180.48511
-88.219975
168.62617
344.33222
172.46783
18.031513
74.210808
3.4189653
24.283909
-46.650425
-8.7346012
-4.8995046
1.3760388
41.479081
11.353664
66.933102
123.67644
80.462315
-50.410529
-125.35592
-227.55975
-288.82747
-309.12123
-347.57448
-348.02246
-389.53687
-390.11486
-363.72241
-379.12684
-291.89701
-272.81661
-111.1472
-125.79228
84.218456
36.613933
-38.12579
-25.899823
-75.304175
-68.296645
-95.735347
-89.102598
-73.972462
-96.556267
-75.508825
-66.734542
-76.95408
-70.060459
-145.58322
-224.49848
-172.83502
-342.47792
-300.92206
-352.27584
-363.5497
-370.89353
-336.35073
-374.59177
-249.68291
-324.51615
-238.1824
-301.82355
-160.9049
-313.46795
-23.428808
-127.60444
-166.88735
-147.56443
-204.50854
-206.31818
-191.10946
-218.34294
-210.06802
-268.78649
-200.30072
-279.32221
-331.77841
-325.56899
-491.52947
-1220.0798
-1128.2229
-1160.7098
-1191.8359
-1179.3021
-1039.8732
-1140.9836
-1017.1771
-1104.7925
-838.62513
-997.85659
-1069.0277
-1016.0447
-1038.8123
-1180.4316
-1977.767
-1717.7552
-1617.7431
-1799.0797
-1650.3915
-1862.9476
-1772.3445
-1861.2661
-1794.0166
-1790.1501
-1780.0665
-1571.4548
-1878.7223
-1922.435
-1966.5535
-3111.2369
-2187.7674
-2814.8999
-2575.033
-2671.1401
-2587.9429
-2782.6625
-2530.9686
-2504.8455
-2385.5355
-2389.359
-2621.1548
-2658.8502
-2670.5845
-2394.2413
-2762.84
-3071.2362
-2950.4936
-3224.0899
-3346.8765
-3478.8914
-3183.206
-3110.7536
-3124.9185
-3438.6599
-3286.986
-3445.6933
-3557.0583
-3572.3735
-3659.3788
-2896.8141
-2957.1883
-3412.3082
-3512.6073
-3772.2844
-3555.8036
-3461.4252
-3123.0162
-3435.6262
-3420.2321
-3668.8532
-3583.1772
-3306.6726
-2691.7595
-3095.0139
2160.3647
6993.6847
3260.7842
5091.0399
6074.2424
4811.8454
5811.3623
6862.104
4523.6104
5585.184
5605.7444
5671.0504
5432.502
6096.7052
2403.0737
5983.0246
1019.759
3235.9915
3697.8636
2084.9503
4935.8169
4311.0183
4161.1235
5138.6308
2510.3005
3226.0031
1482.253
2367.014
3945.9845
3904.9226
-1513.2974
-1248.398
-2368.6777
-1804.9856
1108.1776
-2366.8701
-2399.7361
-2125.8401
-4517.9786
-901.06745
-2358.0086
968.90839
-1264.3675
-3264.9681
-1129.0989
-1272.4361
866.81545
572.68204
-2115.5778
-1924.4486
-1137.8716
-1845.7735
-1059.7466
-903.79578
-2692.065
-1214.5337
-2003.6165
-657.69482
192.57821
-624.89921
1999.4906
426.73318
-1432.0133
1137.7446
-248.83646
8.1057001
742.85018
102.40041
481.98655
2431.4744
89.472575
1287.0854
-434.62341
123.68604
1669.9316
-1684.1251
-494.78052
-791.20911
-690.65625
-894.26503
-877.03912
-1432.8833
-1455.3215
-1142.9608
-2441.2613
-879.97907
-1789.5772
-1054.5881
-157.99006
-939.32585
-26.249634
436.47398
11.827533
-451.27648
-545.96386
-264.48986
56.078436
-173.95465
85.157539
309.30733
-483.15063
119.2017
-260.47982
-498.80321
917.56413
-24.672798
-575.76452
-198.74403
81.574444
250.89912
-205.19358
-170.22964
-17.391891
-469.60108
-9.9652543
35.409294
-73.1413
26.102024
-415.61238
586.57975
-40.858575
737.08862
393.4363
676.53613
-122.70015
376.2795
142.38542
427.95534
286.80178
332.20412
231.23139
-88.617249
229.75151
92.481047
541.02573
800.04897
-70.322605
436.69542
211.50745
496.83134
170.63146
355.19586
72.656739
-186.61537
610.3693
-210.26376
907.75373
87.153132
378.07728
1270.4274
612.20937
1013.1178
976.70601
1211.1009
763.72544
1154.3606
774.74712
1087.7879
1317.9088
735.56229
1525.3526
914.01908
1093.7631
1273.7849
1484.3067
1681.6546
643.41186
786.47145
768.75054
933.846
755.17364
853.00068
612.54671
352.55451
627.30367
176.5295
470.06918
297.45887
66.641344
1383.416
1164.8492
1142.3758
976.38931
1348.4422
896.05913
1114.2216
931.13289
924.99339
1291.2828
1150.3899
1347.0309
1295.8493
1240.4006
1529.48
1774.9492
1377.4
831.11797
1329.9149
740.79535
967.50688
1129.2904
1169.3663
625.43052
468.98672
406.42582
40.706643
287.40266
-3.9025055
-313.30039
1192.1355
1220.2036
602.62803
670.90635
1213.9761
1165.4432
814.55148
745.09109
752.35857
936.06651
930.49953
1343.2375
1162.7548
1084.8119
1472.9643
1801.9514
905.68332
619.71031
1152.819
759.64724
406.1455
946.66154
855.72758
642.59793
313.98966
260.45763
-357.43762
-103.83817
-76.688431
-441.17454
687.32687
758.4264
115.88296
174.27269
193.5074
705.98611
458.48777
487.19014
81.292688
580.03446
279.40718
799.61789
714.49042
423.96018
22.760335
1812.3586
489.50192
332.42057
504.25889
738.35779
190.10984
365.12343
-2.1178394
480.12409
152.80064
192.45514
-246.44848
-521.87123
-801.61527
-380.96071
-318.99121
576.52255
109.23571
677.49162
175.08362
563.79636
112.21224
790.06769
-129.19651
217.73829
-54.345374
-274.84136
-37.188923
431.40913
-173.26235
1593.8066
546.96389
87.838483
-24.935575
183.86636
48.118047
238.15828
306.64077
178.42682
220.92832
89.050611
501.27012
215.23066
-256.56594
-352.91681
219.8933
901.9545
414.677
834.79219
427.31056
554.81324
85.644621
542.71297
151.30648
358.25732
-310.90633
-46.831312
-305.91809
772.57579
-168.31129
1279.2729
897.64268
718.16727
479.04133
780.40586
329.61301
851.36651
372.00316
601.18664
5.3798616
1115.997
638.9063
736.06109
38.453788
-504.59574
1917.2441
1715.5206
657.8764
1194.1472
613.87362
945.5066
878.68273
784.06438
297.22143
764.11117
283.15758
-106.41854
-145.93218
34.614101
-99.978821
1824.2651
1584.5587
1492.7501
1030.7931
1194.5941
927.1407
488.73839
686.37403
452.86523
634.62359
338.04565
615.61963
896.6223
1197.2775
316.52385
3468.556
2684.4277
1135.4121
1219.3588
682.42757
1147.713
694.28108
1237.3472
699.98964
915.74224
560.34796
1039.0978
747.61777
297.23444
177.43108
2775.6589
2252.4957
1173.6973
1360.772
1191.1565
1142.8938
1201.8737
807.73384
730.85153
757.42091
584.64221
720.97004
869.71175
1614.8637
1240.6104
3115.8224
2570.8723
1254.8994
1642.2732
920.32229
1510.9283
862.46188
1064.3864
872.07916
897.37034
779.31264
1001.5648
34.175362
652.37169
-369.6334
3220.5482
2176.1309
1042.5756
989.46157
1163.0123
821.19985
545.99993
840.57048
331.62831
856.69536
333.23339
903.65509
886.36351
849.55168
986.37589
2422.0353
2155.3159
1138.9883
882.05143
533.70838
724.53439
642.78893
635.80101
424.72233
422.51036
363.00335
348.57293
475.75097
411.3625
-402.94594
2886.1289
1468.4441
408.46186
766.43618
521.21226
540.93206
570.88228
338.24133
123.09536
21.068452
-153.70808
-31.343472
-213.71993
426.81096
0.058939988
1457.4146
1649.7934
931.67275
1044.084
546.48879
780.62822
-76.947623
374.69737
-114.673
565.96518
104.86888
154.53666
-75.777571
-106.6982
-429.10778
1142.45
1332.3657
544.19035
510.5764
357.34543
331.32129
365.38772
279.37893
153.70864
-77.755972
-197.48009
-99.823568
-137.29677
-44.702448
-186.48649
1043.1374
1138.1741
486.35054
682.68185
363.69631
619.24038
157.95123
493.50581
-58.686822
296.58949
-89.080369
245.17236
-57.027818
132.64789
-17.451619
621.64565
1084.8369
611.55773
746.56673
726.96308
613.19754
460.10756
475.92056
344.03993
369.56293
225.71441
244.05354
192.01869
274.84361
69.834403
678.12585
1380.3964
816.19129
1013.5595
1193.1974
911.9111
716.30588
875.5772
671.86127
729.81644
581.719
722.34845
728.00168
718.69796
879.15257
1176.9175
1583.3137
1237.5676
1337.7053
888.82419
1172.0267
970.0415
1074.9025
832.41402
1120.6753
348.09327
981.73935
715.04353
1040.6306
710.97949
1695.9779
1551.4575
1308.8644
1708.658
1565.5668
1635.5811
1221.3609
1516.7754
1118.274
1361.7548
1386.0137
1440.408
1450.4939
1224.7009
1537.6977
1761.1864
2298.7435
2434.745
2179.1639
2258.6429
1972.9151
2058.9776
1839.9647
1864.7887
1828.338
1408.1613
1765.177
1550.6414
1996.1593
1731.9184
2203.6663
2912.5437
2487.9433
2688.8321
2334.8844
2665.8622
2152.0127
2496.3954
2084.3277
2260.1276
2127.81
2124.9085
2295.4332
2228.6302
2207.2411
2855.7364
3122.8003
3109.6514
2927.1796
3070.573
2775.8738
2791.1902
2651.0573
2524.5898
2618.1751
2337.1498
2598.7743
2398.6466
2542.0394
2567.9624
3161.1959
3751.2518
3476.435
3564.2975
3232.5921
3412.2657
3033.6034
3168.8941
2947.0384
2963.7667
2872.2244
2898.3208
2876.4116
2988.0307
2915.4409
3629.8604
4077.0347
4041.787
3703.4107
3821.8791
3616.5231
3496.439
3464.7811
3241.8733
3318.4279
3116.6726
3173.9215
3201.7409
3180.7549
3196.9556
4095.172
4698.8074
4401.1358
4363.1751
4161.606
4171.738
3908.2381
3930.2618
3737.5236
3766.6865
3576.9666
3677.1806
3617.4897
3644.0095
3658.1377
4654.3245
5094.6444
5043.6147
4686.1854
4729.5604
4547.4776
4385.6459
4346.3481
4188.2533
4142.9974
4051.6744
4004.429
4069.5395
4042.5176
4020.9619
5336.6557
5880.6411
5581.1159
5412.3819
5321.9508
5221.2551
4983.1093
5016.2308
4794.9632
4831.8652
4641.7218
4689.7375
4706.3028
4694.1079
4656.408
6243.9358
6547.3438
6363.0516
6024.6762
6060.7023
5809.1041
5687.0315
5596.4814
5499.0952
5383.6754
5348.1486
5274.7663
5360.884
5377.1932
5242.9565
7311.3362
7550.5994
7161.7231
6911.7886
6862.3985
6722.7341
6480.2917
6498.8847
6289.4463
6287.7607
6167.96
6134.1567
6226.1825
6270.7009
6065.2689
8556.5985
8524.0597
8102.8549
7749.7596
7839.2334
7474.3957
7329.7138
7198.1347
7145.3066
7005.6197
6995.9756
6908.7663
7057.399
7152.2091
6843.5554
9893.2373
9663.9915