/*--------------------------------*- C++ -*----------------------------------*\
  =========                 |
  \\      /  F ield         | OpenFOAM: The Open Source CFD Toolbox
   \\    /   O peration     | Website:  https://openfoam.org
    \\  /    A nd           | Version:  6
     \\/     M anipulation  |
\*---------------------------------------------------------------------------*/
FoamFile
{
    version     2.0;
    format      ascii;
    class       pointScalarField;
    location    "1.37";
    object      E;
}
// * * * * * * * * * * * * * * * * * * * * * * * * * * * * * * * * * * * * * //

dimensions      [1 -1 -2 0 0 0 0];

internalField   nonuniform List<scalar> 
3969
(
20643.788
20730.345
-687566.2
-395830.79
22193.926
24620.296
-577010.56
-1060261.9
8526.2922
3879.1314
1722.0019
909.77729
3162.8468
9296.23
18349.56
-366712.52
-363353.36
-379919.4
-398701.51
-411740.25
-418314.18
-311948.1
21973.695
16763.733
16554.531
16974.538
16431.646
16929.911
16227.768
16632.277
15907.231
16178.132
16154.29
16168.329
16248.837
16017.135
15921.116
15571.611
15246.695
14461.801
13634.575
12348.676
10703.864
8818.4242
6316.7163
3681.8751
358.63836
-2982.6962
-7020.7206
-11170.406
-15515.424
-20076.257
-24683.583
-28998.501
-33227.053
-37056.198
-39817.159
-42771.803
-43496.116
-45256.061
-43695.551
-43912.266
-40148.283
-37520.476
-33630.612
-27060.2
-23037.202
-15787.587
8862.2031
21857.308
12200.022
18819.626
14244.52
15246.684
12787.419
11799.065
9534.9267
7577.4056
6116.1552
3387.738
1841.0579
-357.72493
-1831.5489
-3162.0383
-4354.2016
-4667.6829
-5752.4398
-5059.7485
-5005.9516
-3971.8919
-2217.2214
-533.23159
2496.5489
5724.9808
9957.3017
13363.763
18177.923
23456.015
28867.392
35160.854
40758.313
46579.795
51688.725
56277.617
60285.312
62325.554
63949.543
63742.916
62616.3
59497.973
55050.054
49125.042
42094.378
34393.591
25959.343
9489.9827
9526.7262
4257.5715
1365.2632
1742.8079
2657.7735
8430.0617
16609.687
35874.784
24464.197
13439.739
20917.551
16968.084
15046.168
15262.755
10254.992
12498.364
4207.6954
8180.3528
3675.1059
2411.373
1190.0878
-725.85518
-293.55291
-1727.1209
-1130.8319
-1104.3756
-571.30158
517.92848
1709.6074
3623.8031
5606.9069
8404.754
11935.405
16956.44
21204.23
25604.452
29784.916
33746.88
37584.117
40865.072
43939.791
45953.985
47803.553
52896.887
47042.557
47147.085
44669.829
41128.912
37217.912
31592.388
25505.592
18436.191
11067.26
9594.8023
-910305.72
-761311.19
-877396.3
-771234.67
-730337.42
-643498.1
-812411.88
10777.018
1152.8714
-145.75543
-4052.3426
-7926.9686
-11418.009
-14570.931
-17354.884
-19563.802
-20550.653
-21100.804
-24642.137
-23283.265
-22948.867
-21920.272
-20308.406
-18541.715
-16237.878
-13759.784
-11173.938
-8442.8845
-5630.3918
-3007.0549
-612.06266
1781.0602
3908.5514
5929.5
7583.9806
9262.6602
10353.447
11789.517
12000.259
13488.331
14677.622
14649.348
14802.927
15367.496
15372.75
15619.993
15603.168
17243.241
15609.99
17297.538
15779.624
16280.847
16147.826
25280.343
16668.707
15840.235
15436.545
15244.718
15016.291
14686.886
15102.829
13294.523
14362.046
15397.512
16156.024
16463.268
18308.724
15306.436
-442344.26
-441687.93
-441413.62
-441378.41
-441328.06
-440969.23
-441175.86
-780091.47
-778441.44
-778217.13
-777913.43
-777735.71
-778227.25
-779788.39
12683.852
9091.0768
10211.617
10089.511
10113.358
10523.444
10213.387
10650.462
10474.113
10726.732
10593.275
10417.232
10350.699
10045.299
9423.3506
8850.1797
8095.0027
6913.8105
5756.3677
4363.8815
2901.8635
1336.4874
-59.165449
-1701.2452
-2856.8447
-3979.3808
-4833.6269
-5596.5066
-5755.5123
-5961.7427
-5625.0733
-5130.9115
-4570.1365
-3597.5871
-2658.4853
-1563.2422
-329.60721
831.3468
2024.2232
3613.0718
5238.7474
6167.3605
9034.0595
9706.8891
12013.889
16319.726
18887.634
5259.033
3814.5578
4774.3841
4422.3429
4736.4473
4949.3987
4735.2346
5092.1053
4831.7546
4915.827
4656.3161
4741.3704
4615.7955
4277.4161
4215.232
3785.0239
3351.1356
2747.6129
2248.9013
1775.3189
1284.3528
1091.9617
687.90613
853.98679
863.67428
1134.6201
1662.4924
2271.6401
2980.9962
4118.0145
5422.077
6732.0895
8241.5563
9789.58
11371.872
12706.624
14545.749
14795.414
17179.148
16885.663
18997.472
18770.264
20535.521
19814.856
21553.827
18534.182
10417.193
2382.2055
932.64154
1911.1301
1436.1542
1372.6448
1383.7015
1006.4233
1134.5861
548.27194
951.20718
555.62571
599.87143
281.62297
-90.840576
-118.77754
-226.26881
-268.05571
-303.88221
-49.182459
66.273213
470.6136
834.6006
1969.7959
2920.6857
4256.2521
5639.2014
7590.0811
9523.7884
11811.771
14041.313
16266.243
18532.017
20670.021
22692.046
24491.927
26245.996
27269.698
29020.22
29611.614
29846.6
30402.039
28774.757
29053.377
26536.576
25922.158
20991.605
4775.5294
1282.7957
-80.507491
390.29981
-17.233805
-432.11626
-367.40196
-1070.3135
-1010.5931
-1657.1124
-2000.3433
-2449.445
-2237.8049
-2940.4152
-2572.1492
-3158.6595
-2195.7528
-2409.4505
-1412.5163
-1224.3947
-318.39323
407.20289
2018.1263
3366.8622
4512.0004
5640.9329
7285.9401
8528.2651
9997.9776
11615.104
13255.954
15025.95
16923.345
18469.909
20348.901
21808.189
22850.212
24334.391
24626.161
25755.038
26207.055
25712.202
24273.168
23853.014
20467.366
20405.679
14675.822
3553.8541
3133.9863
1233.4559
1994.1682
907.40461
892.52128
518.12165
-369.68615
-291.14589
-1127.6333
-1158.7449
-987.19922
-1319.2908
-924.30478
-1162.6353
-584.99665
-511.65153
-24.406295
383.03464
911.6086
1553.8345
2352.0088
3484.7328
5046.3492
4754.8604
4976.2713
4754.6402
4429.6395
4076.4256
3529.0113
2859.7181
2095.3277
1179.7545
129.14257
-685.54735
-2076.0569
-2667.5482
-3939.9804
-4673.1121
3209.9082
14874.297
13963.223
13686.513
12193.414
10654.527
9130.9443
6296.4146
8149.3946
7881.3166
5713.8852
6392.5681
5754.3439
5653.9487
4878.496
4138.138
3435.3266
2711.3772
2104.2818
1708.3207
1558.4366
1494.7086
1484.4836
1571.8471
1946.9176
2101.1508
2499.3285
2813.6114
3048.7612
3339.804
3166.6508
2730.3867
2623.4234
2058.4067
1332.677
713.72421
-271.20395
-1319.8402
-2442.4765
-3749.7167
-5088.8923
-6452.3022
-7642.222
-9189.9496
-9838.7468
-10980.334
-11719.61
-12095.772
-9800.4215
-9970.8996
-9519.2648
-9280.168
-7453.7549
-5917.6635
-5225.6015
8103.1847
12108.668
9318.6817
10549.34
9106.2656
9509.5164
7814.6531
7399.204
5389.604
5757.337
3380.3798
4231.5283
2120.4927
2685.9313
1840.1684
1890.5341
1598.3728
1477.8671
1384.9842
1173.0879
951.05616
903.11403
381.59391
-251.11456
-767.59263
-930.12386
-926.5031
-1342.3621
-1610.4861
-1984.9928
-2364.6743
-2919.772
-3016.2804
-3429.2224
-3172.9409
-3460.3094
-2421.9279
-2449.1009
-559.10031
-55.494631
-6239.2468
-6214.9009
-3428.5521
-318.82384
4014.4652
7012.746
13355.145
20025.564
4859.9492
4834.9882
3772.4705
3556.8485
3670.4446
3618.1553
5029.5719
2306.9981
1766.4831
1375.5069
1266.4737
1288.857
1432.1386
2030.081
847.33647
485.34285
180.73354
165.51729
138.29063
166.47007
410.86909
424.98672
179.94582
201.76636
184.13023
271.28761
541.2485
856.0569
988.79394
660.25936
508.65555
472.48321
601.44817
880.64164
1436.7254
5247.3269
4006.5311
3823.4213
3660.8586
3972.1839
4541.624
5962.5107
8527.1754
9198.8781
7409.5535
7719.4813
7696.717
8301.4484
11223.802
26804.511
25619.939
27379.337
29753.358
29938.366
31694.109
30445.465
20532.699
21097.853
19353.301
18991.926
22027.299
21971.023
23857.001
18740.369
19877.028
21855.965
20844.735
20724.089
20546.827
22105.624
17875.482
19284.597
17793.675
19124.746
19213.539
20124.68
17832.843
16627.149
17632.546
19571.568
18731.862
18807.976
18658.098
19371.455
15235.432
14673.096
13945.931
14998.323
14344.466
14669.725
14519.462
12658.119
12980.747
14580.766
14184.701
15083.967
14887.819
15476.288
10877.632
10979.802
10283.081
10540.396
9673.105
9727.2538
10056.255
8899.0976
8475.5453
9400.4147
9463.4281
10487.456
11000.748
12119.872
6057.8931
6513.9514
5980.4272
7451.2362
5701.2348
5629.8014
5637.7346
5251.4676
4666.0589
5178.8654
4101.4023
5431.0797
5779.7813
6258.3024
1839.3917
2834.8486
2183.2441
3644.1057
3165.5003
1420.3341
3715.0077
1193.7737
563.75157
1418.1876
623.8181
900.61299
1980.908
1471.2037
-1389.27
-742.72192
-133.29636
-866.35827
602.73706
-1046.1017
685.29032
-1891.3042
-1410.4951
-1782.3048
-1662.6403
-1958.5904
-2075.0419
-1333.3722
-2998.0194
-3157.8365
-2133.8465
-3128.5389
-2057.6863
-2788.5823
-1372.3587
-3903.3778
-3040.2424
-3197.6964
-3549.6833
-3021.3102
-3789.4003
-2455.2977
-3632.1106
-3888.9633
-3182.8127
-3789.6552
-3152.9054
-3855.4718
-2561.2211
-3743.2887
-3598.7985
-3006.3706
-3901.8771
-2957.5688
-3959.2832
-2271.9859
-2958.4274
-3075.5573
-2437.1295
-3070.1887
-2238.0025
-3274.7465
-1836.8661
-1695.0293
-2095.7375
-1140.4416
-2080.934
-1147.0888
-2375.043
-718.71013
-45.938508
-479.72249
499.94808
-486.60872
498.13001
-792.56417
813.0642
2262.942
1647.5072
2646.3688
1771.0926
2715.4989
1501.731
2946.1381
5033.5695
4449.3322
5380.8409
4392.8639
5353.6648
4032.8112
5293.8833
8346.3307
8068.9823
8049.2224
8172.5853
8460.0077
7601.1993
8470.595
12172.272
11874.081
11619.793
11692.064
11602.888
11582.31
12590.196
16814
16258.821
16125.777
15563.341
16225.443
16139.726
17331.606
21779.209
20652.396
21383.188
20097.654
21064.759
19883.454
21915.903
26103.317
26287.694
25408.4
25641.832
25664.476
25572.628
26548.065
32202.945
30764.341
31541.302
30291.585
31051.252
30340.073
31541.416
36923.854
36625.67
36263.533
35555.633
35939.488
35382.088
36483.154
42553.581
41439.304
41613.284
40516.958
40985.543
40275.351
41399.114
47161.798
46416.209
46368.778
45181.569
45558.578
44891.092
45980.3
51527.837
50569.681
50702.605
49364.711
49745.178
48876.456
50101.201
54964.556
54303.456
54290.141
52996.034
53269.791
52729.381
53488.082
58095.048
57053.735
57252.243
55697.507
55934.428
55850.371
56088.15
58895.453
58347.327
58559.866
57361.381
57988.825
51903.782
53699.61
54365.757
54742.95
54525.863
53882.907
53398.138
59766.829
58028.533
58923.745
58168.504
58626.077
57167.757
57713.952
56845.123
57343.993
56928.818
56394.913
56549.702
55826.943
55767.995
55219.279
55602.493
53280.744
52605.82
53203.978
52169.398
52458.366
52164.204
52091.187
48584.215
48145.664
48522.086
47898.001
48089.892
47713.031
47354.038
42525.849
42137.632
42631.582
42072.103
42311.394
42100.895
41736.303
35353.612
35288.406
35643.892
35457.683
35455.056
35585.148
34483.661
27297.39
27334.982
27574.252
27426.414
27738.543
27669.287
26691.932
19195.227
19539.691
19811.341
20036.757
20001.717
20066.183
18780.183
8042.3441
8708.2309
8540.8518
8963.2508
8835.955
8770.7075
8916.8473
-458166.12
-501341.18
-501019.16
-500873.05
-500742.43
-499895.73
-499678.17
-485479.25
-484138.4
-483945.62
-483913.55
-483641.15
-520609.4
-482807.98
-532649.01
-495871.23
-495424.12
-495412.35
-494923.25
-452615.48
-494662.85
-524744.63
-524875.96
-525529.28
-524690.25
-525641.18
-524017.47
-524556.69
-545494.01
-487326.23
-542057.31
-542536.31
-540750.12
-541468.43
-541912.02
-507679.59
-606650.36
-563870.56
-563373.79
-611656.17
-563036.21
-564420.27
-610516.63
-563420.9
-563626.02
-563401.57
-507395.66
-562706.56
-561653.95
21195.13
19372.388
18080.433
17362.24
17488.288
18068.835
17142.711
18362.173
16872.274
16457.263
16237.395
16004.632
15870.927
16713.89
18162.696
18733.762
17974.479
17469.178
18120.21
17454.42
17571.524
17775.648
17690.621
17344.545
17635.409
16975.783
16167.543
16425.124
18193.706
17763.272
18240.362
17699.983
17781.579
17035.109
16763.236
17020.229
16818.112
16636.143
16113.191
16345.951
15623.481
16099.009
17764.353
17002.101
17268.697
16482.112
17042.936
16623.328
16739.288
16458.741
15938.314
16070.608
15632.128
15507.603
15192.933
15828.582
17130.048
16437.078
16657.116
15771.278
16597.349
15673.194
16538.474
16749.271
15767.682
15956.031
15257.092
15793.137
15247.293
15974.355
16527.385
15824.548
16447.36
15451.137
16256.709
15348.961
16119.946
16262.347
15826.469
15751.669
15427.344
15750.751
15518.775
16074.048
16282.766
15467.589
15589.41
15033.117
15636.977
14894.794
15314.189
16105.298
15503.651
15577.535
15065.763
15452.557
15253.11
15378.889
15359.121
15095.245
15165.258
15046.549
15443.103
14538.999
15124.693
15296.204
14453.723
14566.615
14022.628
14886.138
14693.309
14632.936
15093.049
14278.19
14254.187
13998.534
14411.792
13499.957
14040.96
14217.659
13208.275
13666.194
12956.069
13468.149
12852.266
13015.927
13038.849
12328.67
12530.593
11924.568
12550.462
11784.63
12105.216
11786.694
11015.438
11191.2
10747.494
11042.603
10411.108
10667.292
10016.725
9401.1967
9588.3824
8987.8344
9379.6377
8781.9938
9104.2459
8115.9701
7704.737
7548.0107
7156.6021
7375.2864
6781.2038
7184.8396
5539.138
5275.7017
5072.1954
4777.022
4907.5735
4454.3645
4975.0695
2885.161
2987.9823
2429.497
2335.0446
2391.8844
1989.0183
2502.7343
-391.38276
129.44104
-731.78761
-554.83582
-577.47329
-926.94066
-280.83623
-3441.5325
-2919.6775
-3862.6781
-3702.2818
-3620.4684
-4126.0783
-3342.0047
-7272.1186
-6395.998
-7481.0525
-7140.467
-7086.6035
-7575.7029
-6513.3659
-11070.74
-10084.151
-10957.72
-10734.879
-10590.639
-11032.518
-9873.9759
-14739.098
-13651.875
-14973.372
-14411.873
-14299.252
-14711.617
-13296.842
-18827.863
-17518.695
-18794.821
-18089.822
-17966.816
-18330.734
-16623.088
-22350.548
-21368.697
-22472.531
-21745.028
-21613.831
-21978.504
-19842.966
-25971.202
-24939.286
-25920.038
-25282.103
-25102.625
-25251.881
-22896.48
-29092.299
-28279.214
-29189.263
-28472.814
-28205.257
-28460.312
-25462.983
-31765.829
-31239.169
-31871.674
-31158.081
-31010.198
-30899.486
-27994.334
-33783.64
-33500.85
-33943.385
-33464.53
-33374.39
-33593.896
-29756.705
-35597.566
-35310.822
-35545.074
-35315.043
-34807.037
-38811.476
-34467.698
-40331.626
-40665.85
-40963.056
-40813.289
-40007.58
-36251.229
-29327.217
-35373.94
-36253.182
-36135.635
-36143.727
-35712.554
-36680.621
-31399.037
-35028.201
-35087.964
-35330.275
-35123.411
-35347.191
-35185.683
-30380.54
-33574.923
-34448.244
-34186.943
-34025.619
-33998.477
-33755.739
-28889.517
-30653.147
-31003.258
-31095.347
-31197.812
-31393.313
-31525.737
-26691.209
-27584.373
-28214.628
-28334.074
-27953.565
-28239.353
-28185.267
-23626.516
-24001.479
-24794.164
-24475.397
-24656.676
-25014.43
-24809.503
-20124.87
-18856.046
-18735.37
-19168.455
-18955.465
-19336.722
-19057.495
-15846.795
-13997.506
-15089.124
-14851.085
-14960.392
-15058.952
-15136.924
-11541.01
-10073.842
-9165.5922
-9609.9621
-9147.5688
-9322.1263
-9018.9479
-7446.3108
12596.336
11289.147
11550.516
11422.734
11349.29
11899.347
12057.468
17309.376
12194.553
11072.009
11002.426
10795.423
10357.919
10319.548
9558.4321
8914.2306
8666.739
8014.1908
6736.8289
6456.6812
4841.4158
4076.0976
3010.4434
1720.4292
1133.8832
63.654424
-232.02117
-695.27323
-480.5735
51.436963
935.09308
2356.5185
3848.8901
6775.9755
9241.0032
12043.681
15109.206
18187.076
21255.714
23925.159
26463.672
28333.089
30341.32
34804.469
31840.949
31962.566
31237.316
30426.126
29032.664
27165.368
25167.467
22653.353
20208.812
26311.466
5782.9242
6870.6266
4493.2776
4910.6218
6007.2017
5196.992
6229.281
6221.6719
6696.6797
7119.5564
6931.1166
7502.3776
7126.0773
7121.6147
6991.5779
6937.0759
7125.4137
6719.081
6945.5234
6781.7674
6767.263
6843.9431
6772.3214
6948.2595
7195.0547
6594.5553
6303.4973
8429.5283
8766.4558
9331.8153
9971.2912
10600.502
11166.053
11700.024
12204.229
12738.019
12375.893
12004.056
12386.853
11557.403
11305.006
10248.137
9677.9799
8176.0629
7883.1953
4184.2347
9998.6877
2179.1408
2127.1149
916.20933
2353.4033
1108.3344
1677.582
1945.4275
1267.9338
2052.8001
1328.9062
1711.4287
1811.8421
3480.5452
4976.314
5068.5152
5673.8613
6098.5065
6491.973
6867.5825
6953.0281
7022.4226
6797.1373
6489.0589
5790.1209
5296.4457
4160.1277
3313.7253
1766.4635
742.93491
-742.80378
-1983.7921
-3346.9356
-4356.1275
-5369.7917
-6144.6402
-6642.5977
-6837.2379
-6845.8077
-6689.2179
-6081.0083
-5318.3922
-4291.6204
-3204.5646
-1170.5953
-131.82544
2347.2916
510.81223
1045.0036
1207.0492
-526.04671
2263.5069
-537.4873
1606.1523
-1195.6866
716.48125
37.996486
333.43194
1566.7777
850.62351
2609.3202
5662.4645
5760.3384
6719.1038
7143.6183
7436.9618
7770.4842
7793.5062
7523.2497
7099.0317
6190.8315
5449.989
4095.8897
3046.6906
957.01138
-627.56051
-2645.6903
-4554.6032
-6488.7663
-8296.8847
-9989.2714
-11726.88
-12925.718
-14064.036
-14778.916
-15316.379
-14915.932
-14538.76
-13171.379
-11948.59
-8927.5126
-6968.1087
-2477.4348
747.16234
-1184.3083
3348.8166
921.35031
1783.2638
1609.97
1006.8908
1402.8317
1201.4104
2077.4558
329.35185
2683.812
86.992682
2628.5843
1687.7985
2248.0739
2580.2242
2925.7405
3376.6724
3727.1163
3965.5877
3994.2673
3856.8682
3476.6161
3147.0676
2159.9014
983.74662
-648.45076
-1910.2247
-3465.2863
-5060.2796
-6756.3816
-8299.1495
-9864.3964
-11281.381
-12424.688
-13184.565
-13956.782
-13885.968
-13662.39
-12917.749
-11454.675
-9874.9855
-6996.6606
-4430.2406
-604.86864
3140.6696
8241.106
7371.5799
8967.284
7160.7537
3919.0391
6982.8622
3383.9105
5151.0141
4401.8552
1598.3353
4083.3617
1734.0003
2383.2404
1938.2014
662.58806
1847.1834
899.82439
1372.5455
1359.9475
1513.5167
1693.3574
1813.0821
1950.1064
2049.9624
2203.3041
2059.4223
1436.1912
1851.2256
2040.5612
2058.5899
2030.0443
2004.5123
2034.5174
1949.4379
1960.3773
2227.342
2264.8939
2604.7968
3369.3055
3636.4255
5294.5648
5908.2256
7696.8016
8877.2859
10903.776
12340.08
14721.143
15331.828
14977.777
22048.879
10872.595
14391.682
10554.279
12615.431
10074.332
9478.8126
7419.7462
7469.5236
5054.4443
6197.6094
6730.9224
4395.2608
4877.7672
3166.796
3300.5125
2208.1005
1720.3657
1248.2064
480.73145
-112.28477
-962.40182
-1788.4655
-3142.5762
-4071.3144
-4197.3313
-4763.4278
-5165.8344
-5670.6973
-5743.7992
-5800.2393
-5730.3112
-5292.8188
-4621.6953
-3941.0745
-396.45436
-1242.929
894.65838
2386.0082
5045.7097
7523.9784
10541.679
13396.236
17050.397
19707.244
23622.641
25194.325
15264.303
12727.907
12304.813
11908.509
11704.854
11274.262
11105.031
13032.83
13006.698
11653.914
11300.107
10798.888
10873.587
11154.112
12102.133
12674.552
12657.158
12150.034
11912.595
11752.213
11425.79
11999.241
11997.481
11976.355
11909.719
11452.914
11226.907
10419.912
11703.857
12016.726
12117.977
11578.013
11648.56
10921.585
10406.142
11219.209
11269.07
10914.734
11517.836
10716.182
10739.123
10426.223
11309.87
11063.606
11290.26
10565.135
10423.546
10357.242
9931.8849
10723.409
10849.137
10290.534
10882.427
10393.754
10073.308
9742.3765
10780.743
10570.222
10133.055
10528.483
9888.228
10032.017
9486.0977
10121.25
10010.164
9600.6927
9851.9163
9315.5466
9435.1563
8785.0776
9836.1859
9704.8409
9298.0441
9705.2925
9225.6927
9287.3152
8843.7651
9372.8338
8928.4854
8626.6886
8730.4927
8200.3338
8459.4922
7643.6939
8790.9036
8482.6205
7983.8354
8535.3885
8099.2079
8263.8861
7641.1937
8046.729
7480.2307
7520.93
7346.4121
7254.0716
6772.7145
6710.662
7023.3453
6794.1062
6384.7989
6657.4229
6129.8554
6560.2155
5740.5682
6152.1458
5711.9253
5548.5327
5767.9269
5529.2973
5513.0493
4902.2253
4961.991
4488.2069
4292.8188
4561.7087
4229.7028
4283.9937
3760.7998
3816.8218
3442.7439
3267.121
3472.6468
3322.1415
3562.5702
2932.4947
2707.9382
2219.9125
2076.3868
2365.3088
2314.9977
2350.2889
1808.8523
1597.8863
1192.2901
1100.1306
1420.652
1307.5031
1569.3981
1151.099
786.03292
217.47908
291.77177
465.25766
564.89929
760.60151
375.99709
36.962229
-656.43104
-418.93054
-180.03444
-31.327289
226.48811
-28.097468
-239.8968
-1138.7072
-559.04632
-562.76147
-299.63712
-195.37679
-173.58021
-420.79592
-1432.804
-608.58119
-673.64144
-347.87941
-153.20069
103.02352
154.71266
-1278.0313
-256.78549
-341.32327
-107.25855
-63.654092
572.58065
474.21782
-820.74137
614.41026
80.394399
385.71041
454.59965
1279.9032
1671.9228
-40.932381
1449.7437
1182.2087
1372.3592
1625.0054
2957.632
3099.6048
1673.1576
2640.6737
2635.2002
2685.7169
2700.8212
4487.9109
4547.7943
2767.8547
4804.0237
4168.4622
4229.6462
4289.2486
6409.1703
6410.4099
5152.5629
6550.2863
5948.4148
6112.3123
6080.8834
8498.6317
8587.7571
7067.7361
8565.4453
8237.2789
8134.3456
8060.8222
10711.919
10536.754
9359.9765
10830.798
10285.464
10113.077
10069.647
12983.801
12684.704
11735.947
12829.042
12555
12315.621
12285.873
15351.867
14822.787
13857.284
15019.043
14702.549
14392.587
14342.577
17358.98
16533.735
16046.548
16776.598
16632.912
16345.911
16195.085
19471.594
18643.376
17728.887
18463.376
18422.371
17932.16
17514.651
19807.16
18895.484
19020.616
19598.951
19590.223
19513.681
19208.71
26689.228
20778.159
23115.891
23715.743
24159.859
22872.058
24145.907
23491.509
21225.422
21512.953
21500.885
21917.237
21743.674
21689.774
24975.443
22889.533
22361.655
22418.716
22912.977
22250.959
22630.694
25058.763
22476.683
22423.551
22402.663
23053.258
22707.379
22965.416
25306.943
22766.08
22196.551
22300.571
22930.454
22313.692
23026.959
25113.717
23159.328
22724.545
23025.082
23316.887
23222.113
23473.015
24648.552
21714.322
21382.689
21233.706
22069.651
21629.655
22148.767
23614.396
22022.619
21145.113
22166.822
22119.9
22185.358
22487.4
22978.361
22378.027
23067.362
22597.627
23084.361
22904.646
23180.781
23052.707
25297.863
24878.642
25329.14
25087.565
25308.877
25274.156
25456.989
5909.8952
5060.24
4442.7546
4277.2558
3858.1348
3873.5112
3462.1934
5810.1692
6378.1413
5750.8545
5829.4124
5631.527
5662.5174
5553.2016
5676.936
5650.2998
5575.4085
5237.9433
5262.9076
4692.7765
4877.0985
5687.8163
6106.5682
6080.8576
6202.2876
5616.2594
5591.0904
4488.7436
6023.0554
5785.7499
6243.9734
5572.8151
5932.5779
5052.7132
5338.3343
5854.5772
5892.6224
5358.2072
5579.2167
4963.4101
5091.8244
4715.2384
6000.1943
5806.4614
6212.7998
5637.1649
5824.47
5462.2466
5082.7355
6018.6582
6080.2413
5528.367
5693.9711
5404.4631
5219.6712
5163.2395
6068.7455
5869.1102
6001.7073
5697.2004
5294.7352
5471.8436
5092.6157
6040.542
6132.9536
5907.6939
5728.1252
5834.6694
5508.2513
5590.2148
6012.574
6027.1138
5882.2653
5842.3051
5368.5361
5471.3172
5113.3223
5739.7363
6022.1332
5799.9507
5600.8329
5680.1802
5472.4682
5461.385
5585.4803
5829.6098
5896.6255
5887.9109
5431.9999
5541.5175
4951.7923
5492.0612
5411.7284
5715.5847
5275.5508
5173.6936
5285.9314
4804.5529
5427.9282
5354.0138
5404.205
5278.8615
5286.1139
5109.8905
4773.2022
5174.5123
4625.3513
5198.2739
4907.8966
4891.6597
4696.5448
4240.4902
4697.754
4746.061
4949.7321
4568.7198
4710.5067
4498.3223
4442.5853
4500.5731
4365.8076
4646.8357
4432.1797
4441.2012
4235.8814
3867.8332
4164.2097
4072.15
4462.5086
4095.8611
4251.3602
3919.2528
3866.1286
3981.4134
3943.7625
4230.1345
4064.3005
3997.7672
3739.4415
3748.2929
3779.6682
3681.8845
4094.7202
3817.0734
3854.971
3666.0012
3667.5317
3782.45
3923.963
4098.6288
3944.4724
3969.1475
3541.1395
3825.8088
3876.2311
3860.9781
4046.7221
4006.8112
3771.1466
3702.7476
4077.4849
4338.7297
4295.3916
4417.9992
4199.9434
4178.9962
4225.4197
4631.0025
4671.8712
4705.3512
4547.9447
4573.338
4569.5202
4553.8936
5039.9109
5501.9347
5639.7896
5743.7789
5534.744
4978.8251
5484.3204
6171.6389
6862.9847
6458.2483
6158.3121
6017.4921
6637.0966
6504.9742
7433.646
8350.931
7070.9047
6956.962
7168.5216
7191.8626
7807.6569
8456.0152
9188.7657
8778.8904
8811.2008
8267.851
8512.4978
9252.5674
9752.49
11272.305
10086.525
9670.307
9828.1793
10002.223
10750.164
11390.142
12945.382
11372.048
11306.42
11346.327
11350.745
12274.312
13028.174
14736.497
13082.768
12844.229
12909.722
12923.484
14083.96
14797.382
16719.836
14550.86
14340.217
14400.302
14524.809
15608.151
16341.721
18330.057
15970.409
15784.356
15992.128
15933.846
17032.386
17903.966
20054.553
17311.176
17180.799
17289.298
17139.933
18391.297
19363.454
21175.826
18266.302
18340.12
18401.803
18459.942
19708.851
20555.817
22731.406
19702.176
19375.648
19537.131
19076.753
20433.305
21136.659
23067.349
19241.42
20005.632
19698.709
20054.727
21091.974
22023.295
24099.058
20722.529
20887.264
20546.909
20399.007
21492.182
22072.28
23676.017
19379.164
20511.51
19913.897
20439.838
21182.626
22081.716
23640.825
20471.525
20858.36
20432.229
20407.956
21052.797
21768.287
23051.799
19072.495
20100.795
19334.954
19808.037
20349.302
21089.033
22017.678
19167.493
19651.888
19266.055
19589.427
19839.134
20190.363
20161.659
17299.163
17878.456
17400.972
17477.21
17610.33
18246.613
19774.633
17474.169
17753.833
17355.037
17685.844
18035.384
18152.679
14843.428
12686.689
12688.504
12465.778
12573.069
12435.75
12731.313
11915.69
10108.188
10386.417
10004.226
10244.19
10122.062
11000.19
2738.2194
2415.0528
2066.3044
1935.8798
1719.1708
1634.8476
1361.9666
1885.831
2148.2943
2006.6732
1899.4751
1955.9775
1559.6688
1703.3142
2444.2161
2015.077
2002.2877
1835.7519
1703.3983
1392.5127
1605.3238
1929.6485
2254.3316
2730.4884
2817.5464
2665.8413
2759.9681
1880.5986
2467.9966
2196.0079
2151.7478
1347.2043
1581.2964
607.44811
1455.6422
2077.2317
1130.565
1216.8645
1408.9519
1260.6263
1486.8457
1204.9927
2355.6094
1684.54
2402.249
1870.5341
2015.1742
1536.7529
1637.0116
2274.6848
1229.496
1067.9982
557.9655
495.87758
515.91679
583.00004
1952.1906
1167.6415
1744.2998
1517.888
1834.5288
1555.3997
1504.4565
2465.5927
1062.9723
1239.4663
679.76352
635.79612
618.0051
619.07509
2223.6917
900.37992
1389.6017
1003.1774
1171.8126
1001.5631
1111.2354
2784.207
973.00863
1527.0055
916.0559
1166.5408
955.62263
1093.2477
2837.4037
977.65964
1039.8497
1486.6689
1361.2958
1144.324
1658.5885
2106.5888
1726.9569
2024.4591
1367.5503
1830.8748
1514.0613
1854.1644
2308.1025
1887.5766
2181.0333
1873.2754
1610.7654
1731.6324
1798.4754
2587.5631
2338.736
2444.9099
2107.1552
2113.8717
1963.8394
2244.9608
2999.091
2517.2902
2679.7358
2521.2991
2226.0178
2271.995
2488.1953
3213.0835
2715.5594
3018.3644
2735.7576
2675.8706
2652.6966
2903.5971
3613.6153
3146.1715
3355.1449
3134.7719
3036.2398
2894.3513
3310.083
3871.4842
3365.2087
3689.7851
3518.6883
3409.4875
3407.9466
3789.1303
4434.857
3947.3659
4283.0664
4026.2051
4006.9442
3810.624
4231.203
4922.9843
4179.5318
4623.5255
4578.5809
4337.9863
4309.7073
4761.5386
5636.3712
4754.7249
5476.7151
5032.7317
5066.7314
4966.5388
5384.7472
6218.9633
5295.9699
5922.7256
5660.9184
5824.2088
5401.2906
5632.1871
7226.2638
5814.508
6663.7872
6468.9999
6479.2914
5982.5502
6639.4354
8054.2646
6347.6398
7560.5293
6784.7301
7182.3628
6731.5785
6760.1372
9272.3819
7271.3017
8203.2163
7876.0338
8232.6574
7321.0911
7979.18
10219.116
8064.4339
8811.1547
8459.0844
8808.2471
7818.4345
8475.5651
11463.622
8962.5924
9955.0903
9050.9554
9733.7968
8586.2072
9285.4133
12713.212
9618.2595
10265.897
9897.0334
10509.879
9112.3502
10074.404
13815.858
10446.355
11371.822
10799.872
11258.596
10061.075
10908.352
15101.01
11375.416
12057.786
11283.6
12059.482
10678.675
11572.024
16138.862
12095.803
12683.051
12192.66
12827.226
11447.198
12337.574
17106.211
12815.685
13509.872
12857.719
13509.371
12273.791
13075.867
17879.887
13568.613
14158.488
13522.857
14273.659
13095.015
13525.782
18638.167
14313.17
14795.901
14143.733
14912.192
13666.942
13981.019
18803.61
14607.689
15090.867
14728.054
15500.581
14310.192
14441.488
19213.594
15310.681
15892.22
15283.869
16054.856
14894.926
14595.673
18612.856
15725.27
15584.306
15703.119
16108.526
15322.172
14671.765
18677.124
15513.865
15852.69
15758.891
16329.807
15538.604
14481.574
18177.012
16440.643
15983.59
16455.205
16382.068
15760.544
14249.478
17272.397
14722.323
14922.476
15226.362
15389.093
15419.765
13929.68
16639.402
15579.23
15386.14
15848.366
15667.198
15490.532
13025.552
15433.554
13887.119
13639.76
14109.255
13834.654
14008.749
12608.85
14522.818
13353.747
13185.374
13787.085
13290.228
14185.302
11706.433
11538.43
10514.906
10543.1
11048.135
10659.714
11142.979
9706.4458
1554.7111
606.25248
702.84223
849.42931
976.79461
1302.2649
1299.1535
1168.2797
1182.2137
999.03491
1040.5494
860.55373
812.44734
315.49488
513.54936
1404.0102
1515.3012
1782.7317
1653.4342
1574.2961
1425.2369
528.61381
309.13986
42.536447
87.225456
-9.8726351
-52.11207
-167.82175
484.08232
1771.5894
2364.3586
2855.0512
2622.7862
2522.6654
1677.1369
142.22736
-52.074452
-705.43253
-1053.2812
-1223.1259
-1338.7156
-509.71393
125.95666
858.52255
851.55741
1594.8192
1556.9619
1722.5124
1032.8434
123.67473
-328.69383
-753.01318
-605.89279
-736.82863
-1287.5475
-255.6986
618.54961
397.17692
13.885127
605.69303
39.65453
812.57747
414.98231
776.26034
208.65403
381.40338
-342.66382
656.75636
-236.88095
522.65295
907.26161
830.32163
-284.52886
418.08996
-88.253233
269.93352
499.19991
1548.5933
431.63
1441.8797
643.24903
1474.0225
1062.1307
1161.2532
1544.8666
1648.546
1003.6258
345.97053
1207.9783
677.27953
1514.888
2248.3193
1154.7931
1279.7456
1632.3052
2330.927
1612.4988
2059.2209
2192.6108
2281.505
622.55258
1397.441
1827.4085
1732.4359
2320.0747
1406.9155
1902.6379
2625.6416
1875.4055
2760.511
2052.0628
2720.659
1972.0255
2487.482
2939.688
2619.5
2849.5204
2740.1891
3203.6964
2474.2935
2687.8043
3638.5773
3053.0732
3583.6208
3290.9639
3827.7185
3176.8334
3533.8587
4232.2559
3709.6462
4028.5981
3909.4989
4294.089
3660.4825
3715.422
4740.8217
4099.7662
4607.6309
4448.4291
4757.405
4415.0964
4366.3486
5250.1631
4713.6491
5124.4825
4879.399
5272.9093
4903.4623
4463.8155
5627.4335
5045.0698
5320.4545
5319.1626
5523.5765
5357.1967
4954.9204
6063.1545
5228.3951
5771.2911
5682.4774
5847.8262
5677.9981
5133.6838
6032.2029
5591.1244
5887.6867
5863.1774
5700.0084
6311.9007
5281.8854
6225.0016
5773.4038
5925.9399
6029.5531
6059.9271
6535.192
5340.6253
6367.8674
5656.7937
5671.1084
6214.5575
5690.0865
6790.5214
5601.2291
6242.8841
5820.6434
5936.5713
6246.2663
6001.0855
6757.7229
5416.325
6181.8008
5734.4621
5710.4022
6218.8324
5580.8532
7122.1144
5054.0213
6243.1448
5571.1294
5629.731
6293.4361
5457.9234
7304.563
5059.5085
5938.786
5682.8634
5289.0113
6260.8912
5132.4835
7309.2837
4860.297
5716.3664
5509.6933
5295.5273
6345.0214
4757.7038
7490.2566
4873.4387
5676.1974
5555.981
5046.1879
6154.9307
4396.9001
7660.6574
4746.635
5397.0556
5338.1828
4763.0404
6171.5709
3971.3139
7733.9112
4536.8302
5239.6579
5292.8344
4767.181
6130.6733
3724.8141
7953.9094
4531.9532
5182.2319
5200.4969
4561.1723
5919.6994
3247.6333
8051.0453
4474.5104
4919.2948
4980.9708
4368.9424
5708.9007
2929.2027
8086.24
4184.1274
4615.7383
4807.2246
4310.997
5366.8077