/*--------------------------------*- C++ -*----------------------------------*\
  =========                 |
  \\      /  F ield         | OpenFOAM: The Open Source CFD Toolbox
   \\    /   O peration     | Website:  https://openfoam.org
    \\  /    A nd           | Version:  6
     \\/     M anipulation  |
\*---------------------------------------------------------------------------*/
FoamFile
{
    version     2.0;
    format      ascii;
    class       pointScalarField;
    location    "0.74";
    object      p;
}
// * * * * * * * * * * * * * * * * * * * * * * * * * * * * * * * * * * * * * //

dimensions      [1 -1 -2 0 0 0 0];

internalField   nonuniform List<scalar> 
625
(
1245673.8
-1818574.2
9361.8703
12638.322
2064406.4
-3666015.6
11153.808
4366.538
871160.3
-84907.684
-158334.19
-8690.6098
6766.1971
9752.1537
497888.58
554528.81
528244.45
523054.88
454708.55
437839.85
391672.48
351947.9
329759.25
285047.2
258548.61
230550.76
201575.24
177473.34
153794.97
132772.33
110845.52
94951.176
75738.129
60584.541
46360.539
29976.04
21046.817
-630868.87
-398637.37
-548809.56
-424055.17
-388063.86
-389787.08
-329075.85
-305652.69
-283827.12
-251368.68
-228909.17
-202698.14
-182777.1
-158042.92
-138168.43
-117821.99
-98006.36
-80223.356
-62270.572
-46964.763
-31415.858
-17978.961
-4465.842
1289955.1
-149406.65
-384043.79
-672395.15
-851615.18
-610653.83
-517180.03
-617624.16
-439793.27
-412745.46
-385095.17
-346053.53
-316854.76
-272020.44
-245339.36
-211183.49
-183262.46
-156978.63
-131184.54
-109553.78
-88072.095
-68562.739
-51160.057
-34252.466
-20175.954
-4501.6497
9848.2733
5221.9996
-2701.7891
26126.682
35184.292
48630.406
67058.152
87841.147
108150.23
130417.37
153967.96
178146.76
204384.69
229072.36
261674.52
285387.68
318150.79
335847.75
401543.75
418162.16
443881.87
535894.52
499643.36
633077.57
527530.3
595062.19
1272666
1267525.1
1260009.2
-2046389.6
-2055696.8
-2054799.8
18718.823
18558.638
21398.213
-1621.9411
3338.261
346.99366
312713.49
330870.99
333244.7
292900.23
269927.92
264410.73
227727.24
217766.88
190199.24
170941.26
156309.57
136970.95
119864.12
105499.41
91225.875
77406.247
66208.242
55252.844
44187.814
37916.194
27917.353
17998.713
13223.02
-60435.056
-47693.478
-65375.054
-27745.323
-49035.466
-34283.869
-33409.363
-26954.619
-28108.441
-22626.931
-21970.051
-20201.461
-17547.751
-14285.76
-12647.595
-9633.0288
-6759.6173
-4431.6961
-1892.2592
725.05074
1578.6036
6409.0783
7697.7251
-396311.05
-328115.4
-296517.95
-256285.64
-289104.46
-222564.73
-220819.16
-198652.64
-177462.21
-160190.97
-144901.96
-127894.84
-112845.77
-98859.441
-85162.678
-71714.081
-59329.019
-46710.279
-35892.144
-24128.06
-15327.838
-7664.921
1637.384
829485.46
744746.2
744635.49
-118022.58
-80450.6
-159773.44
-88977.371
-172638.88
-319148.38
-966964.96
-960165.07
-1015004.9
-757686.75
-712908.97
-698698.04
-600878.05
-564773.37
-608688.57
-469939.82
-475807.72
-484324.74
-460202.07
-461378.96
-488146.28
-408841.56
-390271.77
-404617.72
-376220.43
-375985.02
-394523.74
-344898.14
-322423.38
-344234.48
-311612.93
-296512.45
-311241.84
-278562.39
-262116.68
-280743.85
-248681.31
-235472.65
-247834.75
-222818.67
-207632.8
-219035.34
-194716.82
-181633.26
-192227.86
-170228.31
-157287.75
-166271.96
-147000.89
-134996.19
-143302.4
-124490.82
-113783.4
-120175.17
-103635.2
-93521.667
-99485.129
-83550.968
-75671.179
-80439.994
-65222.28
-58053.115
-61449.868
-47970.615
-42526.521
-45537.871
-30619.122
-27322.155
-29242.669
-18058.412
-17654.889
-17939.74
-8459.4884
-4314.0275
-6443.5558
-12872.345
-14079.038
-15544.278
4775.08
4170.8693
5614.2373
13736.901
14607.54
13657.891
671801.95
601358.47
623384.05
608500
572680.44
630283.11
629780.18
550570.15
569620.5
531130.97
478894.86
530541.42
508731.95
482494.73
486868.07
470851.13
409348.25
443932.43
420873.41
389372.43
415632.21
393045.28
352097.31
366349.35
349866.16
318217.25
341535.4
314310.45
287307.94
309915.17
285830.89
256294.71
274015.91
252893.69
228059.26
248256.01
222092.39
203114.33
219408.31
196003.11
179039.76
193263.77
169697.98
155700.26
168765.27
145216.82
134264.66
145316.34
123172.17
113920.65
123555.88
102075.27
94808.151
102645.04
81098.392
76270.112
82634.202
64555.533
58129.599
65934.484
47999.199
42791.521
48517.347
32357.214
31936.152
33338.242
27494.625
27945.792
29901.348
306815.89
391174.77
292798.56
326713.54
287193.52
270555.2
260455.43
222794.44
214146.61
188544.58
175496.26
153707.41
137246.76
122794.02
106775.75
93498.822
79263.934
66954.567
54702.252
42441.192
31804.84
20550.152
7681.4243
-65076.171
18006.372
-3869.4839
39214.359
35794.273
37422.46
37771.96
41737.469
32717.271
39937.861
36697.251
35576.704
34247.373
32067.494
30123.311
28177.782
25224.839
23622.67
19718.09
17527.09
15810.706
11655.968
9615.0533
-222411.69
-206442.58
-315400
-276891.59
-263411.76
-269760.39
-225663.97
-213591.44
-180662.79
-165851.11
-146396.46
-126694.18
-111295.6
-94700.189
-81493.941
-68233.248
-56475.285
-45716.311
-36676.901
-26454.027
-19151.385
-9220.3797
-6502.4021
408512.43
493455.41
411750.14
387705.66
410328.38
350325.25
272025.69
290025.53
326057.98
248413.13
329915.68
269734.97
280466.66
245129.97
260667.29
203896.24
251708.99
250355.39
207377.49
235520.52
215105.54
191924.17
201689.75
208424.07
165433.99
187140.93
193349.06
154493.9
175528.79
166009.54
136551.95
153074.21
156070.25
118125.8
139358.95
140789.5
108754.87
122876.22
126212.21
94043.258
107887.67
112081
81701.3
93696.213
98901.482
70491.392
81731.993
85359.623
60604.772
68633.527
73307.718
49872.811
57682.689
60573.092
41371.398
45977.33
50009.487
32433.195
39543.055
39650.872
22919.756
28171.629
27027.776
18874.611
18349.766
21681.845
7390.8573
5142.6822
5469.5299
-102566.63
-126811.03
-106588.69
-46945.943
-17311.832
-49378.292
-3992.299
-18773.64
-34587.197
-3318.0484
-17411.118
-56622.897
-6634.4528
-2379.211
-1332.4971
-1529.7945
16582.775
-25728.387
12926.973
7074.7399
-12278.432
-4848.4421
18770.167
-5779.0046
9876.0573
19851.009
-9379.4549
7959.7618
17288.024
-4.6142608
4581.2667
18710.633
-523.05504
8284.3585
21409.774
2510.178
8163.4981
19484.904
3545.4371
7429.2225
18837.57
5964.8503
7377.9502
19318.334
7328.3813
8495.7606
18302.664
7708.344
8199.5925
16750.355
8806.0149
8240.1955
16419.121
8332.331
9638.6518
13881.134
10154.176
10468.74
13410.555
7073.6719
8614.0627
7400.1663
7360.256
9650.1845
11581.607
8060.6832
10839.042
11964.844
12292.902
-387288.16
-436081.33
-494429.86
-276607.06
-221944.08
-347790.75
-257187.39
-390122.34
-361926.29
-338470.88
-278128.21
-318174.48
-244936.57
-287385.88
-295360.38
-232844.29
-268947.38
-273871.94
-226970.55
-239538.4
-245483.62
-189981.7
-219080.14
-234694.97
-172190.59
-202197.97
-202464
-160443.04
-178559.16
-181349.05
-138411.79
-157960.37
-161031.55
-122894.73
-140198.35
-140894.14
-107628.04
-124876.54
-122663.11
-94036.855
-107424.56
-105353.93
-79513.801
-92777.547
-89562.546
-67717.122
-78605.162
-76144.711
-55637.886
-65751.458
-62245.522
-45119.061
-52527.039
-50263.041
-34104.038
-41836.129
-39503.519
-25960.071
-30394.15
-28686.095
-16626.656
-21500.174
-19393.241
-6955.0008
-8435.5146
-4870.7685
-274.35308
-4684.9577
-4815.8584
)
;

boundaryField
{
    free
    {
        type            calculated;
    }
    fixed
    {
        type            calculated;
    }
    traction
    {
        type            calculated;
    }
}


// ************************************************************************* //
