/*--------------------------------*- C++ -*----------------------------------*\
  =========                 |
  \\      /  F ield         | OpenFOAM: The Open Source CFD Toolbox
   \\    /   O peration     | Website:  https://openfoam.org
    \\  /    A nd           | Version:  6
     \\/     M anipulation  |
\*---------------------------------------------------------------------------*/
FoamFile
{
    version     2.0;
    format      ascii;
    class       pointVectorField;
    location    "0.96";
    object      lm;
}
// * * * * * * * * * * * * * * * * * * * * * * * * * * * * * * * * * * * * * //

dimensions      [1 -2 -1 0 0 0 0];

internalField   nonuniform List<vector> 
625
(
(-3.6361799e-15 2.112754e-16 -3.2990721e-16)
(2.8178306e-17 1.9013092e-16 6.1994168e-17)
(-7652.514 -872.86103 341.28992)
(-7756.0751 837.44862 -256.91402)
(6.5239771e-16 2.739523e-16 -5.5565719e-16)
(-3.7042918e-15 1.4868296e-15 -1.3023874e-15)
(-7113.4485 800.82857 -268.13515)
(-7017.5921 -909.51932 330.88974)
(-1.9658614e-16 -3.2115893e-17 -1.1045223e-16)
(1.4766345e-16 -3.4299605e-16 -2.8648028e-16)
(-1.0135278e-15 7.0169807e-16 1.7538027e-16)
(-7702.1652 -449.66984 193.79459)
(-7598.5583 -22.856437 43.505)
(-7598.7671 398.6179 -104.86549)
(-18.533281 -65.093355 -52.10515)
(-71.125872 -131.16445 -42.529088)
(-156.03271 -198.22444 -42.904174)
(-274.87369 -264.67086 -40.003748)
(-419.61108 -324.85336 -38.774536)
(-604.70166 -390.65433 -36.258566)
(-818.82753 -451.81041 -33.592907)
(-1075.6446 -515.90767 -28.114065)
(-1375.9572 -580.99563 -19.627151)
(-1719.2412 -644.10931 -6.2136923)
(-2108.4017 -707.25406 10.52923)
(-2539.6771 -766.29823 32.484704)
(-3005.9335 -819.01826 59.013052)
(-3497.4431 -864.1 89.244644)
(-4001.4194 -898.90364 122.27316)
(-4504.7721 -923.38136 156.5913)
(-4994.8995 -936.74228 190.42339)
(-5461.7594 -941.47115 222.94796)
(-5894.1871 -936.64498 251.62028)
(-6301.1791 -928.01041 277.63416)
(-6671.906 -914.59933 298.91551)
(-7005.2416 -898.75613 315.8048)
(-7336.1854 -884.97866 330.38181)
(4.0364348 45.125364 66.688784)
(-73.373294 103.61119 19.626068)
(-164.12118 168.13567 5.6441698)
(-285.55956 226.74992 -26.6857)
(-438.75127 279.76431 -54.251803)
(-632.04892 345.2181 -84.873947)
(-850.50548 397.75602 -111.38305)
(-1112.4987 457.55563 -142.36688)
(-1412.6 516.70001 -168.72066)
(-1751.8136 572.50006 -196.90889)
(-2131.9755 629.21293 -222.51497)
(-2548.296 681.20339 -246.90756)
(-2998.2115 729.70677 -268.8334)
(-3475.8862 772.75984 -288.29999)
(-3973.7126 809.72681 -304.48522)
(-4482.5185 839.57168 -316.88213)
(-4991.4837 862.28436 -325.11592)
(-5488.4545 877.01628 -328.47664)
(-5961.4507 884.26479 -327.00674)
(-6399.2518 884.2744 -320.49517)
(-6794.1195 878.08079 -309.3616)
(-7142.5789 866.10615 -294.10622)
(-7451.7591 851.12917 -276.63298)
(-4.8813632e-16 1.9183015e-16 -1.0607077e-16)
(-2.6214496e-15 -5.6404768e-16 7.244144e-16)
(-2.4010456e-15 1.4295629e-15 -1.6975308e-16)
(-8.2272091 38.862561 -64.320375)
(-38.854494 167.74786 -105.89131)
(-97.653542 194.57897 -119.47531)
(-185.12078 277.04083 -146.1565)
(-316.49507 342.18413 -176.86895)
(-466.9694 393.03976 -195.262)
(-656.03049 451.75638 -224.61606)
(-883.92335 506.79491 -246.76007)
(-1144.1499 557.23066 -269.8793)
(-1444.7177 607.75328 -290.29854)
(-1782.6226 653.17146 -308.23996)
(-2156.3994 697.16629 -324.08875)
(-2563.989 735.32725 -336.13578)
(-2999.2252 769.02131 -345.44573)
(-3457.2433 797.85 -351.65936)
(-3928.6575 819.67431 -354.49611)
(-4405.1447 836.31342 -354.40243)
(-4875.6178 846.15921 -351.15148)
(-5329.6848 850.32699 -344.66505)
(-5757.647 848.57313 -334.96273)
(-6151.359 842.05597 -322.41186)
(-6507.0276 830.93521 -306.54076)
(-6810.6929 815.21236 -287.48571)
(-6998.9481 366.13235 -115.10911)
(-6997.1318 -59.239979 33.015951)
(-7051.6809 -487.72205 183.12375)
(-6667.4237 -919.10865 317.71741)
(-6382.0561 -940.28393 304.83863)
(-6047.0122 -956.30414 287.97678)
(-5684.4325 -968.75885 267.76509)
(-5291.8424 -975.49489 245.60432)
(-4870.9406 -974.71745 221.41294)
(-4426.2484 -963.91989 196.57038)
(-3964.8686 -942.30552 171.91872)
(-3496.9455 -908.88507 148.35426)
(-3033.506 -864.33598 126.85516)
(-2585.9875 -809.73632 108.11574)
(-2164.6453 -747.4613 92.655466)
(-1778.0764 -679.94849 80.506888)
(-1431.1809 -611.54374 72.652907)
(-1127.491 -539.38105 65.140543)
(-857.87446 -468.57173 63.606835)
(-633.16358 -402.52962 64.077676)
(-441.99222 -336.98398 64.298773)
(-287.70543 -274.36613 67.670888)
(-164.78915 -212.67468 67.525398)
(-68.779595 -160.96834 72.329944)
(-10.019657 -91.741167 70.151348)
(-2.5000693 -48.401208 47.962909)
(-1.3028228e-15 -3.4252847e-16 3.3068324e-16)
(-2.0449562e-15 -3.5718549e-16 -7.3673077e-16)
(-1.4121951e-15 -1.0527101e-15 6.223458e-16)
(-1.2019486e-15 6.189313e-16 -3.4292956e-16)
(-1.2511779e-16 -6.848356e-17 2.1836215e-16)
(-3.8898857e-17 4.7141393e-16 -3.1043199e-16)
(-7595.5228 828.77532 -259.41779)
(-7434.6748 819.36374 -261.23877)
(-7274.2765 808.84254 -265.06253)
(-7494.1314 -882.15589 337.95728)
(-7335.1182 -890.04337 334.87128)
(-7176.371 -899.11789 333.39232)
(9.6067907 -34.838439 -39.375203)
(-52.994791 -74.728415 -28.104842)
(-145.09236 -116.01066 -40.034055)
(-280.0589 -156.36437 -41.244659)
(-446.59385 -198.34973 -49.473377)
(-655.57237 -238.10794 -54.11609)
(-891.51012 -272.548 -58.610251)
(-1163.4811 -305.80885 -60.315149)
(-1461.5497 -331.71673 -59.205695)
(-1786.4644 -353.38706 -54.560802)
(-2133.3572 -370.38563 -47.394222)
(-2498.3606 -381.44307 -36.831356)
(-2878.9947 -389.06037 -23.948307)
(-3272.4554 -393.30722 -8.5700296)
(-3676.4377 -395.3986 8.4447787)
(-4089.8748 -396.38678 26.961094)
(-4511.5266 -397.36266 46.639621)
(-4942.0385 -399.4345 67.193067)
(-5378.1327 -402.20387 88.066293)
(-5828.6294 -408.25645 110.18251)
(-6287.2459 -415.72985 131.2877)
(-6750.5173 -425.73767 153.08872)
(-7218.9242 -436.80215 173.53522)
(19.407644 -10.807487 -2.065489)
(-52.296073 -14.103922 -9.426793)
(-146.81057 -20.566656 -22.000919)
(-289.26085 -25.941926 -38.413698)
(-472.78251 -27.577365 -53.620894)
(-690.66658 -30.434716 -69.663589)
(-942.21358 -33.662813 -82.803889)
(-1223.4097 -34.565677 -94.883149)
(-1525.7857 -36.500766 -102.27552)
(-1846.1961 -37.251333 -107.27716)
(-2177.0579 -37.924084 -107.36723)
(-2514.8522 -38.061141 -104.94486)
(-2856.7818 -37.61552 -98.931373)
(-3201.5461 -36.822227 -90.697325)
(-3550.9216 -35.382432 -80.551439)
(-3908.4148 -33.735421 -68.92752)
(-4279.9274 -31.699087 -56.47119)
(-4672.2308 -29.759026 -43.221305)
(-5091.8595 -27.325464 -29.719765)
(-5544.8729 -26.168493 -15.36484)
(-6033.0018 -24.113728 -1.6910182)
(-6558.0032 -23.23731 13.62235)
(-7087.1634 -22.702673 28.115145)
(23.063987 14.95233 19.425225)
(-54.993202 41.705132 4.7311134)
(-139.01256 71.002903 -12.486496)
(-279.86791 106.40288 -35.603975)
(-446.20355 143.82811 -58.312021)
(-651.58394 172.56105 -81.672214)
(-893.24921 207.39079 -105.10497)
(-1166.3118 233.63988 -125.61622)
(-1471.9248 258.22447 -144.32861)
(-1806.7195 279.28905 -159.47468)
(-2167.1098 295.2969 -171.22568)
(-2550.009 308.69515 -179.48512)
(-2950.5843 318.55534 -183.88812)
(-3364.9155 326.24173 -185.17483)
(-3788.4028 332.44338 -183.38951)
(-4217.315 337.87362 -179.20185)
(-4648.1715 343.24107 -172.98885)
(-5078.2782 349.122 -165.36215)
(-5506.218 355.72421 -156.59781)
(-5930.7515 363.25846 -147.09317)
(-6352.0961 371.69734 -137.14082)
(-6771.9404 380.86372 -126.62788)
(-7195.222 390.54083 -115.89633)
(-2.5953868e-15 -2.1703571e-16 4.2716933e-18)
(-3.8783653e-15 3.5858996e-16 7.5215743e-16)
(-9.8459492e-16 7.8127033e-16 2.7525688e-16)
(-3.9146975e-16 7.8165185e-18 1.2560621e-16)
(1.6350797e-16 -2.4226884e-16 -1.2066667e-17)
(-1.0304172e-15 -9.2669207e-16 -7.5672327e-16)
(-6.4481012e-16 3.525084e-16 2.7116342e-16)
(-3.5205005e-15 9.4737515e-16 -2.5196009e-17)
(-3.8147498e-15 1.043275e-15 1.2924308e-16)
(-23.132394 23.843999 25.964151)
(-28.119851 31.334995 -6.3718857)
(-22.162287 16.923573 -26.031537)
(-99.231716 141.802 -12.819194)
(-83.709463 142.0413 -37.89204)
(-71.515041 128.02186 -70.550604)
(-166.72863 177.7516 -26.842426)
(-157.17141 171.2348 -52.959402)
(-138.9162 185.1472 -92.121718)
(-287.24392 245.93061 -60.145181)
(-266.30605 257.45689 -88.024442)
(-233.19202 247.3586 -117.88292)
(-435.22485 307.50624 -86.798008)
(-404.62043 306.81127 -111.4428)
(-370.52123 315.61745 -146.84491)
(-611.72179 362.47877 -114.72764)
(-575.75796 367.95428 -143.36386)
(-529.02224 370.98251 -170.92427)
(-824.80887 420.08074 -143.50565)
(-781.85058 428.57131 -167.96213)
(-728.03042 428.42763 -200.45608)
(-1076.9859 478.97021 -171.58695)
(-1022.1119 480.821 -196.07359)
(-961.85308 484.81913 -224.13429)
(-1365.4434 534.31031 -198.1231)
(-1303.5902 539.98447 -221.99916)
(-1232.8521 539.49716 -249.25413)
(-1694.5988 591.77788 -223.83313)
(-1621.8579 592.74982 -246.6213)
(-1542.1893 592.03564 -271.39243)
(-2061.2921 644.38454 -247.75454)
(-1978.6596 644.16138 -269.01757)
(-1889.389 641.31059 -291.58503)
(-2464.9382 695.30882 -269.95146)
(-2371.8449 692.72715 -289.10199)
(-2273.1213 687.87147 -309.24519)
(-2901.9208 741.09345 -289.1444)
(-2798.4008 736.41953 -306.1224)
(-2689.5369 729.62903 -323.77999)
(-3366.4682 782.12184 -305.8866)
(-3251.964 774.96084 -320.56913)
(-3133.4647 765.80787 -335.24433)
(-3851.7465 816.41127 -319.08735)
(-3727.1496 807.47226 -331.05383)
(-3599.125 796.99449 -343.27226)
(-4349.0084 844.03086 -328.61278)
(-4214.4607 833.43003 -338.38436)
(-4077.3855 821.08589 -348.07982)
(-4847.748 864.23094 -334.24124)
(-4704.3546 852.27672 -341.60928)
(-4558.9128 838.93771 -349.22641)
(-5336.6374 876.62445 -335.33481)
(-5185.4411 864.04989 -340.94822)
(-5032.9635 850.07782 -346.98784)
(-5803.7632 881.9421 -332.17565)
(-5646.5623 868.94999 -336.24108)
(-5488.3313 854.83614 -341.02986)
(-6238.8942 880.04786 -324.42969)
(-6077.5211 867.50501 -327.36211)
(-5915.2439 853.68758 -331.51182)
(-6633.8775 872.54849 -312.39189)
(-6470.1392 860.16039 -314.99137)
(-6305.8667 847.1435 -318.90175)
(-6984.9995 859.58752 -296.94218)
(-6820.9371 848.18029 -299.49026)
(-6656.228 836.33607 -302.89529)
(-7292.3964 843.65804 -278.94364)
(-7129.9486 833.266 -281.568)
(-6967.05 822.64606 -284.39139)
(-7539.0579 -458.95866 190.55502)
(-7379.5679 -468.1012 187.82864)
(-7221.1597 -478.04765 185.83092)
(-7444.1283 -31.946693 40.676995)
(-7291.5632 -40.68571 38.237415)
(-7135.4319 -49.632111 35.264155)
(-7459.8367 391.80662 -107.33586)
(-7299.2081 382.57031 -108.78702)
(-7141.6726 373.46454 -112.16458)
(-44.076847 -56.785277 -20.12635)
(-31.914354 -55.098375 2.2827336)
(-35.128105 -39.385122 25.551626)
(-85.36861 -122.88009 -11.093556)
(-73.161542 -112.55717 20.132514)
(-51.906362 -96.841116 46.787077)
(-165.08677 -198.44465 -12.731155)
(-140.9575 -178.82523 11.564228)
(-121.10929 -167.21013 47.26214)
(-271.17203 -251.68349 -10.653516)
(-248.83108 -238.59271 14.28494)
(-218.35533 -220.26237 45.684616)
(-412.71846 -322.32776 -13.907803)
(-382.39557 -302.73488 15.119053)
(-344.91336 -286.58147 42.759955)
(-586.62029 -380.90936 -11.229747)
(-548.61519 -362.79597 10.824916)
(-506.57249 -344.84453 41.195931)
(-794.73459 -444.91792 -11.24018)
(-752.26228 -429.29952 12.816222)
(-703.51532 -410.95663 40.745205)
(-1043.7559 -510.51007 -7.6053928)
(-992.38784 -493.69008 15.537692)
(-935.98377 -475.47917 42.151005)
(-1329.135 -577.36892 -1.0998656)
(-1272.1707 -560.43888 21.447851)
(-1207.3618 -545.46572 43.744843)
(-1663.5381 -642.44208 10.030656)
(-1595.8536 -630.20459 27.717569)
(-1523.2025 -611.71161 52.534754)
(-2042.444 -707.98833 24.748599)
(-1963.6321 -695.30974 42.540053)
(-1880.9483 -680.21221 62.995853)
(-2459.9829 -769.4333 44.04785)
(-2370.4843 -759.2532 58.895777)
(-2277.8227 -744.77711 76.883868)
(-2912.8375 -825.38454 67.710891)
(-2812.337 -816.7909 80.046055)
(-2708.2635 -804.10298 95.104308)
(-3390.9913 -872.89194 95.175706)
(-3279.0397 -866.31557 104.46443)
(-3164.3331 -855.51305 116.4326)
(-3882.6017 -910.3261 125.37279)
(-3759.9497 -905.63715 131.68723)
(-3634.9705 -897.29855 140.77951)
(-4375.3204 -936.64767 157.08407)
(-4242.4963 -934.04747 160.76211)
(-4108.6631 -928.20133 166.93144)
(-4856.8004 -951.82211 189.05774)
(-4715.1797 -951.09311 190.22951)
(-4573.9515 -948.07356 193.9247)
(-5317.0559 -957.09424 219.70467)
(-5167.9992 -958.03311 219.00993)
(-5021.5195 -957.47207 220.64629)
(-5748.9686 -953.0225 248.16926)
(-5596.8953 -956.14957 246.2069)
(-5443.5039 -958.20833 246.2781)
(-6149.0632 -943.28234 273.56191)
(-5989.9811 -947.58722 270.22014)
(-5836.8358 -951.68885 269.33813)
(-6515.2735 -928.7873 294.97515)
(-6353.6732 -934.0541 291.44731)
(-6199.4085 -940.20216 289.99004)
(-6851.4124 -911.39207 312.08561)
(-6690.6811 -917.95733 308.9611)
(-6533.2823 -925.63391 307.18384)
(-7158.5411 -893.33789 326.80943)
(-6998.8864 -901.3813 323.69518)
(-6839.2774 -909.82691 320.9313)
(25.932293 -19.172742 26.67996)
(5.672754 -72.027212 33.888347)
(-50.680689 -78.054485 21.000792)
(-156.2088 -118.67709 20.906306)
(-283.81831 -150.39503 13.515227)
(-451.61311 -186.40347 5.7799598)
(-650.67845 -223.61214 -0.62396999)
(-881.98777 -259.55724 -7.1344524)
(-1149.6421 -295.27353 -10.114332)
(-1446.2318 -328.08966 -13.770488)
(-1774.8278 -357.96167 -12.071417)
(-2131.5041 -383.87359 -9.7003269)
(-2513.2883 -405.93072 -3.6358459)
(-2916.276 -423.98756 5.0704831)
(-3335.2879 -438.32688 16.707055)
(-3765.3108 -449.31068 30.813687)
(-4200.6914 -457.67836 47.069161)
(-4636.1949 -464.01521 65.231326)
(-5066.8041 -468.85025 84.662171)
(-5488.8819 -472.92326 104.76525)
(-5899.4376 -476.45969 125.33858)
(-6298.589 -480.198 145.37363)
(-6661.4775 -481.86065 164.32906)
(44.303193 -6.3817692 -9.9205596)
(11.981162 13.046762 -17.99888)
(-61.062885 28.18589 -34.352922)
(-170.34816 29.687526 -44.593044)
(-313.19354 29.816223 -59.736225)
(-503.24253 33.878948 -79.105418)
(-720.20009 23.818549 -91.34747)
(-973.53544 18.139627 -103.56406)
(-1247.9219 6.8933648 -112.84589)
(-1540.5065 -3.6014492 -117.19341)
(-1845.6568 -15.326026 -118.44408)
(-2156.8896 -25.827274 -115.52647)
(-2471.8548 -34.459004 -109.96063)
(-2789.4325 -42.265519 -101.69082)
(-3111.8193 -47.770586 -91.684438)
(-3443.3926 -51.876287 -80.499947)
(-3790.0513 -54.574949 -68.290859)
(-4158.021 -56.14863 -55.378565)
(-4552.9997 -56.991191 -42.076262)
(-4979.3473 -57.278999 -28.089658)
(-5438.9372 -57.388154 -13.615566)
(-5931.9667 -57.652958 1.4534968)
(-6474.8204 -57.596261 17.262643)
(41.437515 40.837879 -40.504744)
(-13.47859 78.594129 -58.441997)
(-70.6374 147.36798 -88.297934)
(-168.5684 163.55028 -98.994624)
(-306.42892 219.102 -130.83609)
(-481.65991 249.18687 -148.2491)
(-684.64979 277.74993 -168.98974)
(-925.62489 302.85302 -187.26712)
(-1194.8523 319.06643 -200.55159)
(-1495.5295 331.94957 -211.32585)
(-1820.1485 338.53423 -217.38945)
(-2168.0777 341.56247 -219.96344)
(-2534.6487 341.78862 -219.21825)
(-2915.8468 339.22216 -214.89804)
(-3308.3697 336.5904 -208.48501)
(-3708.3433 333.87719 -199.93566)
(-4112.9775 332.07601 -190.14807)
(-4519.9456 331.96464 -179.57241)
(-4928.038 333.54047 -168.87186)
(-5336.463 337.12957 -157.73908)
(-5745.5934 342.48479 -147.15111)
(-6156.1969 348.92481 -136.50215)
(-6566.5327 356.71771 -125.65857)
(-6.6690871 -16.530658 -14.332785)
(1.3911636 -17.485643 1.1525124)
(-2.9513701 -12.372497 16.387344)
(-65.379402 -75.733623 -8.5336065)
(-58.653521 -65.560432 6.1889745)
(-34.572147 -64.192174 23.44249)
(-150.5589 -104.80736 -19.165194)
(-122.50903 -93.763215 -2.6364512)
(-103.79916 -89.630421 12.078901)
(-270.29924 -149.90071 -22.591718)
(-248.42984 -137.35542 -5.0354179)
(-215.70454 -125.34784 8.9936322)
(-428.93241 -187.75465 -28.586994)
(-394.99498 -170.46581 -14.395959)
(-355.82342 -161.67589 1.5430518)
(-620.53895 -224.73231 -36.233074)
(-580.33382 -211.3414 -21.132853)
(-533.0506 -199.85028 -6.5310125)
(-844.09537 -261.45519 -41.575877)
(-797.26589 -247.04036 -26.376668)
(-743.96345 -235.28495 -12.751987)
(-1102.3716 -295.73878 -44.064074)
(-1048.0553 -280.47555 -31.009785)
(-985.03855 -271.10155 -19.304291)
(-1390.9364 -323.16285 -45.86797)
(-1327.799 -312.00332 -34.066286)
(-1258.7268 -303.2591 -21.757859)
(-1709.0406 -349.98816 -43.237981)
(-1637.9166 -339.6396 -32.555932)
(-1560.9273 -331.86161 -22.918878)
(-2053.8436 -370.6556 -38.329463)
(-1973.6934 -361.38313 -29.23961)
(-1887.8607 -357.11569 -21.137265)
(-2421.9091 -387.03571 -30.109713)
(-2332.6983 -380.6162 -23.046927)
(-2239.0647 -378.54156 -16.355248)
(-2811.2586 -399.67969 -19.25214)
(-2712.7354 -394.83871 -13.684856)
(-2610.2099 -395.12134 -8.8597595)
(-3217.3131 -408.40379 -5.6852507)
(-3109.3424 -405.66451 -1.9108556)
(-2998.6903 -408.27535 1.3489973)
(-3636.6666 -414.44037 9.9672595)
(-3519.7387 -413.48095 12.28951)
(-3401.1212 -418.42106 14.21686)
(-4065.6309 -418.41509 27.577506)
(-3940.3326 -419.42415 28.689705)
(-3814.2334 -426.09445 29.276378)
(-4500.6317 -421.54378 46.720221)
(-4367.8316 -423.88724 46.632554)
(-4235.0762 -432.2889 46.149275)
(-4938.8718 -424.01661 67.010357)
(-4799.5129 -428.10879 66.074645)
(-4661.0286 -437.55303 64.789637)
(-5375.4408 -426.91228 87.97331)
(-5236.2449 -432.49751 86.498407)
(-5089.178 -442.80478 84.440356)
(-5845.9409 -433.41681 110.1338)
(-5641.3272 -435.94201 106.79086)
(-5519.6782 -448.24774 104.90626)
(-6285.1424 -438.78057 131.44422)
(-6068.1852 -440.82557 127.56603)
(-5946.6746 -454.3221 125.84164)
(-6687.2333 -443.1109 152.30879)
(-6527.3216 -450.56003 149.18877)
(-6372.7921 -461.83557 146.38204)
(-7112.0142 -450.35519 172.07521)
(-6955.4964 -458.90427 168.90005)
(-6796.2237 -469.28689 166.29547)
(7.1243623 -5.9530541 1.9128258)
(9.3869663 -5.8518107 2.3119231)
(9.4569824 -7.7522722 0.67730983)
(-60.299336 -7.634774 -3.0432139)
(-50.863458 -4.1037326 -4.9565864)
(-25.042022 -2.5140524 -9.5854701)
(-152.90671 -11.435494 -19.661215)
(-131.43623 -0.84238057 -27.586527)
(-109.9876 4.0337533 -27.291451)
(-282.96756 -10.773697 -32.453376)
(-264.83386 4.9754801 -38.169889)
(-226.714 15.658012 -39.400553)
(-461.02095 -14.148971 -52.000416)
(-425.96305 2.0120752 -60.456456)
(-379.7533 6.3445023 -56.038358)
(-667.84727 -15.59889 -68.427543)
(-627.75059 1.1771517 -72.328709)
(-574.82697 10.806782 -74.133245)
(-913.06016 -20.423123 -81.50972)
(-863.86052 -3.0314296 -89.165958)
(-801.35603 6.1887191 -88.655973)
(-1186.6028 -21.815916 -96.084611)
(-1127.6477 -6.860122 -101.96489)
(-1057.4994 -0.32738839 -101.12416)
(-1480.9834 -26.807769 -103.78527)
(-1414.428 -13.445308 -109.14563)
(-1337.7359 -6.5687921 -110.29836)
(-1793.9345 -30.32675 -109.77926)
(-1718.9101 -18.657057 -115.1609)
(-1634.0934 -14.905055 -116.16977)
(-2116.7941 -33.379164 -110.63306)
(-2033.5987 -24.306037 -115.81929)
(-1942.9045 -22.031879 -117.05763)
(-2445.8381 -36.119049 -108.4616)
(-2355.0754 -29.951635 -113.48275)
(-2258.2434 -30.045088 -114.73982)
(-2778.4393 -38.221492 -102.85288)
(-2680.2665 -34.044581 -107.47)
(-2577.6969 -35.759691 -109.07516)
(-3113.2954 -39.393185 -94.688721)
(-3007.9502 -37.308795 -99.118087)
(-2900.3151 -41.202852 -101.06856)
(-3452.9234 -39.716934 -84.540013)
(-3340.9645 -39.659983 -88.755553)
(-3228.3085 -45.062703 -90.767776)
(-3801.0286 -39.485545 -72.920107)
(-3682.9014 -41.043925 -76.923768)
(-3565.2617 -47.719962 -79.380183)
(-4163.7252 -38.57534 -60.336552)
(-4039.8058 -41.46544 -64.253669)
(-3917.3224 -49.297172 -66.857867)
(-4547.3541 -37.194544 -47.002905)
(-4418.3931 -41.606639 -50.809887)
(-4290.612 -50.085165 -53.5579)
(-4958.7322 -35.829619 -33.418833)
(-4824.4152 -40.964788 -36.920464)
(-4691.287 -50.170939 -39.990348)
(-5397.2739 -34.234609 -18.624712)
(-5265.8588 -40.979399 -22.826573)
(-5125.5776 -50.058822 -25.610269)
(-5876.0095 -32.475801 -4.8614905)
(-5742.6078 -40.690612 -7.5875539)
(-5591.8854 -49.322405 -10.964081)
(-6394.3158 -32.315545 10.414317)
(-6243.6392 -39.998079 6.9030184)
(-6093.9134 -49.259265 4.2431561)
(-6935.6645 -31.267841 25.567122)
(-6782.259 -39.79894 22.493817)
(-6627.6533 -49.320165 20.021787)
(4.6393372 20.618683 6.6648865)
(12.808259 14.901857 -4.8065292)
(16.778313 19.866289 -19.110471)
(-72.115815 52.857173 -7.8307773)
(-65.722784 43.505593 -25.143552)
(-45.021046 59.911341 -43.339534)
(-149.07507 91.5887 -28.793385)
(-131.74981 108.77763 -48.260894)
(-114.6671 121.21659 -67.765976)
(-283.05143 132.56542 -50.578181)
(-255.76804 129.68709 -68.304438)
(-225.85656 147.74509 -83.679535)
(-438.86544 164.05336 -76.389729)
(-406.26496 178.17986 -93.548036)
(-368.7898 192.08286 -110.92648)
(-637.37671 199.93685 -97.410992)
(-596.02271 207.93447 -114.72399)
(-548.66356 225.89237 -131.05573)
(-868.02573 231.65321 -121.89191)
(-817.56185 240.18183 -140.21116)
(-762.58049 255.56717 -153.93404)
(-1130.8191 256.70214 -142.03275)
(-1072.9336 267.00581 -156.39601)
(-1008.6919 281.76237 -172.3616)
(-1426.0994 280.68049 -159.6552)
(-1358.6646 287.96803 -175.18248)
(-1285.7635 300.95536 -188.48158)
(-1749.556 298.97584 -174.35189)
(-1673.8221 305.80639 -187.55211)
(-1592.4736 316.94803 -199.74441)
(-2098.4854 312.96738 -184.61294)
(-2013.9592 318.10073 -196.50418)
(-1924.1844 326.76433 -207.81473)
(-2469.9432 323.65127 -191.55403)
(-2376.4093 326.76542 -202.03279)
(-2278.3174 332.8186 -211.69606)
(-2859.1251 330.63008 -194.58598)
(-2757.0106 332.19207 -203.41397)
(-2651.0959 336.17817 -211.88469)
(-3262.5787 335.72619 -194.3655)
(-3151.9429 335.33002 -201.87632)
(-3038.121 336.57485 -209.12623)
(-3675.9343 339.18025 -191.29571)
(-3557.2279 336.97185 -197.57357)
(-3436.0942 336.21796 -203.50826)
(-4095.6026 342.00737 -185.89031)
(-3969.3167 338.28808 -191.00227)
(-3841.0947 335.54931 -196.00276)
(-4518.3706 344.99941 -178.60916)
(-4385.0481 339.88579 -182.93179)
(-4250.4975 335.43503 -187.02632)
(-4941.7428 348.68496 -170.1412)
(-4802.256 342.45642 -173.67207)
(-4661.7706 336.42402 -176.9721)
(-5364.1335 353.35225 -160.59301)
(-5219.0148 345.98359 -163.67808)
(-5073.5627 339.07166 -166.78928)
(-5784.4413 359.03619 -150.73296)
(-5635.1973 351.35333 -153.46728)
(-5485.6021 343.2247 -155.72145)
(-6203.4387 366.19571 -140.38893)
(-6050.3967 357.72696 -142.84177)
(-5897.2453 349.45988 -145.2959)
(-6620.9598 374.1605 -129.52815)
(-6465.6543 365.22735 -131.66441)
(-6309.7725 356.50878 -134.34936)
(-7037.7925 382.59385 -118.56049)
(-6880.6907 373.99062 -121.19511)
(-6723.7621 364.46485 -123.71432)
)
;

boundaryField
{
    free
    {
        type            zeroGradient;
    }
    fixed
    {
        type            fixedValue;
        value           nonuniform List<vector> 
25
(
(-2.5953868e-15 -2.1703571e-16 4.2716933e-18)
(-1.3028228e-15 -3.4252847e-16 3.3068324e-16)
(-1.9658614e-16 -3.2115893e-17 -1.1045223e-16)
(-3.6361799e-15 2.112754e-16 -3.2990721e-16)
(-3.8783653e-15 3.5858996e-16 7.5215743e-16)
(-2.0449562e-15 -3.5718549e-16 -7.3673077e-16)
(-9.8459492e-16 7.8127033e-16 2.7525688e-16)
(-1.4121951e-15 -1.0527101e-15 6.223458e-16)
(-4.8813632e-16 1.9183015e-16 -1.0607077e-16)
(6.5239771e-16 2.739523e-16 -5.5565719e-16)
(-3.9146975e-16 7.8165185e-18 1.2560621e-16)
(1.4766345e-16 -3.4299605e-16 -2.8648028e-16)
(1.6350797e-16 -2.4226884e-16 -1.2066667e-17)
(-1.0304172e-15 -9.2669207e-16 -7.5672327e-16)
(-2.6214496e-15 -5.6404768e-16 7.244144e-16)
(-6.4481012e-16 3.525084e-16 2.7116342e-16)
(-1.0135278e-15 7.0169807e-16 1.7538027e-16)
(-3.5205005e-15 9.4737515e-16 -2.5196009e-17)
(-3.8147498e-15 1.043275e-15 1.2924308e-16)
(-2.4010456e-15 1.4295629e-15 -1.6975308e-16)
(-1.2019486e-15 6.189313e-16 -3.4292956e-16)
(2.8178306e-17 1.9013092e-16 6.1994168e-17)
(-1.2511779e-16 -6.848356e-17 2.1836215e-16)
(-3.8898857e-17 4.7141393e-16 -3.1043199e-16)
(-3.7042918e-15 1.4868296e-15 -1.3023874e-15)
)
;
    }
    freeTop
    {
        type            zeroGradient;
    }
}


// ************************************************************************* //
