/*--------------------------------*- C++ -*----------------------------------*\
  =========                 |
  \\      /  F ield         | OpenFOAM: The Open Source CFD Toolbox
   \\    /   O peration     | Website:  https://openfoam.org
    \\  /    A nd           | Version:  6
     \\/     M anipulation  |
\*---------------------------------------------------------------------------*/
FoamFile
{
    version     2.0;
    format      ascii;
    class       pointVectorField;
    location    "1.93";
    object      u;
}
// * * * * * * * * * * * * * * * * * * * * * * * * * * * * * * * * * * * * * //

dimensions      [0 1 0 0 0 0 0];

internalField   nonuniform List<vector> 
3969
(
(0 0 0)
(0 0 0)
(0.35172386 0.042182272 -0.014264065)
(0.34511464 -0.071861184 -0.018954061)
(0 0 0)
(0 0 0)
(0.34983577 -0.070530126 -0.019021919)
(0.35646746 0.043313819 -0.014459083)
(0 0 0)
(0 0 0)
(0 0 0)
(0 0 0)
(0 0 0)
(0 0 0)
(0 0 0)
(0.3506752 0.027079412 -0.015302304)
(0.34949735 0.012926426 -0.01575093)
(0.34846094 -0.00097162518 -0.016292811)
(0.34760858 -0.014730507 -0.016633147)
(0.34689481 -0.028527406 -0.017085414)
(0.34624331 -0.042476356 -0.017489546)
(0.3458045 -0.05675716 -0.018136525)
(9.8154735e-05 0.00080595253 0.0011217146)
(0.00015986267 0.0015036703 0.0014668459)
(0.00061971769 0.0022602004 0.00150682)
(0.0014204875 0.003029897 0.0014124775)
(0.0024887647 0.0038709654 0.0011498943)
(0.0038275479 0.004663021 0.00089233511)
(0.0054049427 0.0055472233 0.00053177694)
(0.0072237326 0.0063592398 0.00019864903)
(0.0092639855 0.0072806318 -0.00021185115)
(0.011542807 0.0081251232 -0.00057344327)
(0.014031962 0.0090868485 -0.00098913448)
(0.016781413 0.0099966394 -0.0013622627)
(0.019738091 0.01100314 -0.0017776418)
(0.022966461 0.012006804 -0.0021512153)
(0.026446189 0.013089866 -0.0025399004)
(0.030197258 0.014173282 -0.0029131461)
(0.034231332 0.015348866 -0.0032727948)
(0.038569601 0.016538038 -0.0036235247)
(0.043226189 0.017800061 -0.0039637112)
(0.04821639 0.019093414 -0.0042932031)
(0.053567298 0.020440107 -0.0046140371)
(0.059285235 0.02182431 -0.0049273986)
(0.065399848 0.023246621 -0.005234439)
(0.071915425 0.024690414 -0.0055320275)
(0.07885568 0.026149555 -0.0058330831)
(0.086220961 0.027639094 -0.0061217662)
(0.094032835 0.029119999 -0.0064115844)
(0.10230041 0.03059111 -0.0067060524)
(0.11102946 0.032051983 -0.0069963462)
(0.1202105 0.03347127 -0.0072898291)
(0.12985942 0.034856514 -0.0075885062)
(0.13996757 0.036184138 -0.0078906603)
(0.15052831 0.037447668 -0.0082011725)
(0.16153257 0.038631411 -0.0085186589)
(0.17298274 0.039739962 -0.0088488995)
(0.18484137 0.040709828 -0.0091778814)
(0.1971111 0.041660404 -0.0095435275)
(0.20976331 0.042337804 -0.009881473)
(0.22276643 0.043103614 -0.010298286)
(0.23612819 0.043476847 -0.010633539)
(0.24977135 0.043975882 -0.011096833)
(0.26370339 0.044121991 -0.011461323)
(0.27789653 0.044164078 -0.01189721)
(0.29223638 0.044219692 -0.012367042)
(0.30682881 0.043762125 -0.012719169)
(0.32147154 0.043556272 -0.013206442)
(0.33613539 0.04305763 -0.013483515)
(0.00033671816 -0.001433024 -0.0017442766)
(0.00074273968 -0.0024445702 -0.0021372249)
(0.0013248936 -0.0036323775 -0.0025613141)
(0.0019658535 -0.0047196104 -0.0030503444)
(0.0030218341 -0.0059176039 -0.0034353946)
(0.0042672965 -0.0070673748 -0.0038840859)
(0.0057339387 -0.008195414 -0.0043709431)
(0.0074758882 -0.0093252929 -0.004865115)
(0.0094031102 -0.010424717 -0.005425286)
(0.011579608 -0.011515631 -0.0059902196)
(0.013983389 -0.012621982 -0.0065854371)
(0.016613195 -0.013721962 -0.0072193332)
(0.019470906 -0.014829847 -0.0078560808)
(0.022584056 -0.015977229 -0.0085026152)
(0.025944227 -0.017138995 -0.009163953)
(0.029579623 -0.018352556 -0.0098226941)
(0.033489559 -0.019589003 -0.010482801)
(0.037706844 -0.020897399 -0.011136268)
(0.042218217 -0.022232288 -0.011783961)
(0.047083817 -0.023647202 -0.0124139)
(0.052264648 -0.025106378 -0.013030054)
(0.057842285 -0.026631206 -0.013628339)
(0.063775707 -0.028220641 -0.014188824)
(0.07012749 -0.029875886 -0.014736211)
(0.076856718 -0.031571507 -0.015257676)
(0.084045913 -0.033342309 -0.015740765)
(0.091604853 -0.035128444 -0.016189957)
(0.099663881 -0.037011058 -0.016604249)
(0.10815586 -0.038899018 -0.016996518)
(0.117098 -0.04083532 -0.017347683)
(0.12650257 -0.042794492 -0.017667102)
(0.1363531 -0.044785258 -0.017950567)
(0.1466592 -0.046778139 -0.018201998)
(0.15740507 -0.048791765 -0.018422269)
(0.1685895 -0.050784671 -0.018607822)
(0.18019027 -0.052781343 -0.018772323)
(0.192209 -0.054740119 -0.018903833)
(0.20460516 -0.056663962 -0.019004974)
(0.21738993 -0.058562338 -0.019087889)
(0.23051401 -0.06037472 -0.019147022)
(0.24396321 -0.062143597 -0.019183281)
(0.25771551 -0.06383 -0.019202638)
(0.27171421 -0.065400935 -0.019214284)
(0.28597654 -0.066912246 -0.019192366)
(0.30038537 -0.068277765 -0.019181218)
(0.31502874 -0.069529879 -0.019173307)
(0.3297625 -0.07077128 -0.019117119)
(0 0 0)
(0 0 0)
(0 0 0)
(0 0 0)
(0 0 0)
(0 0 0)
(0 0 0)
(0.00025879038 -0.00052088918 0.00098907828)
(0.00047533917 -0.0016279513 0.0011702728)
(0.0010922445 -0.0021451881 0.00092540267)
(0.0021461742 -0.0030081147 0.00065868006)
(0.0033560273 -0.0038075047 0.00022205697)
(0.004884315 -0.004643868 -0.00025211863)
(0.0066091377 -0.0054970361 -0.00076238115)
(0.0085992539 -0.0064014794 -0.00129616)
(0.010761091 -0.0072603512 -0.0018457788)
(0.013186205 -0.0082473979 -0.0023892862)
(0.015799456 -0.0091840758 -0.0029341975)
(0.018626605 -0.010191542 -0.0034695335)
(0.021717926 -0.011228687 -0.0040325434)
(0.025037972 -0.012345669 -0.0045508974)
(0.028579674 -0.013463644 -0.0050818455)
(0.032413913 -0.014718172 -0.0055720782)
(0.036478778 -0.01594549 -0.006074151)
(0.040871101 -0.017338637 -0.0065313051)
(0.045526996 -0.018701562 -0.0070019578)
(0.050537104 -0.02022943 -0.0074311412)
(0.055855925 -0.021743654 -0.0078683426)
(0.061549249 -0.023401348 -0.0082715675)
(0.067599355 -0.025063518 -0.0086818354)
(0.074038616 -0.02683834 -0.0090637508)
(0.080885982 -0.028648657 -0.0094595824)
(0.088178859 -0.030531448 -0.009857468)
(0.095859742 -0.032486429 -0.010225162)
(0.10397197 -0.034469932 -0.010591573)
(0.11252461 -0.036499865 -0.010947901)
(0.12152891 -0.038561563 -0.011308711)
(0.13097737 -0.040642101 -0.011672451)
(0.14087499 -0.042743024 -0.012034924)
(0.15121677 -0.044852216 -0.012401837)
(0.16199783 -0.04695305 -0.012774755)
(0.17320594 -0.049048692 -0.013154367)
(0.18484637 -0.051123512 -0.013536185)
(0.19686786 -0.053130202 -0.01394445)
(0.2092962 -0.055166753 -0.014336566)
(0.22208198 -0.057090022 -0.014755969)
(0.23522754 -0.058972335 -0.015179218)
(0.24868011 -0.060774881 -0.015619147)
(0.26244843 -0.062492216 -0.016062835)
(0.27645198 -0.064103515 -0.016519855)
(0.29071657 -0.065620346 -0.016980545)
(0.30514067 -0.067000178 -0.017452977)
(0.31977728 -0.068269622 -0.017904895)
(0.33445632 -0.069535592 -0.01840555)
(0.3506284 -0.055447773 -0.018676335)
(0.35100892 -0.041259449 -0.018141331)
(0.351645 -0.027265936 -0.017438459)
(0.35238877 -0.013581985 -0.016749905)
(0.35316309 0.00021411339 -0.015919103)
(0.35418029 0.01406334 -0.015302362)
(0.35548059 0.028191125 -0.014654464)
(0.34105657 0.04420651 -0.014757902)
(0.32613428 0.044598257 -0.014708293)
(0.3114717 0.045018828 -0.014754486)
(0.29690439 0.045296019 -0.014735841)
(0.28248992 0.045417097 -0.0147638)
(0.26828293 0.045392152 -0.014773597)
(0.25431859 0.045217067 -0.01476313)
(0.24062002 0.044901243 -0.014745273)
(0.22722949 0.044450547 -0.014709)
(0.21417002 0.043881234 -0.014654089)
(0.2014509 0.043182244 -0.01457528)
(0.1891918 0.042335888 -0.014458373)
(0.17723227 0.041467556 -0.014344917)
(0.16574104 0.040449958 -0.014192143)
(0.15467028 0.039377299 -0.014019658)
(0.14404983 0.038220893 -0.013813897)
(0.13387297 0.037016276 -0.013582072)
(0.12416076 0.035751014 -0.013321236)
(0.11490221 0.034459373 -0.013031632)
(0.10610818 0.033126156 -0.012709019)
(0.09776615 0.031789955 -0.012364949)
(0.089874726 0.030432059 -0.011985792)
(0.082428829 0.029085159 -0.011583073)
(0.075406949 0.027735637 -0.011153095)
(0.068806926 0.026413786 -0.010705892)
(0.062609113 0.025098781 -0.010228782)
(0.056795897 0.023827148 -0.0097466046)
(0.051357176 0.022565643 -0.0092335528)
(0.046266324 0.021355106 -0.0087249251)
(0.041516111 0.020157913 -0.0081939165)
(0.037075008 0.019010521 -0.0076712781)
(0.032942252 0.017876591 -0.0071372485)
(0.029077353 0.016788848 -0.0066176618)
(0.025518839 0.015682011 -0.0060868813)
(0.02219809 0.014637613 -0.0055912336)
(0.019118185 0.013579224 -0.0050879941)
(0.016273587 0.01253228 -0.0046256865)
(0.013670907 0.011478395 -0.0041865429)
(0.011270052 0.010420107 -0.0037716043)
(0.0091376948 0.0093311871 -0.003392383)
(0.0072197713 0.0082265237 -0.0030309849)
(0.0054938034 0.0071252037 -0.0027528781)
(0.0040856157 0.0059372119 -0.0024437329)
(0.0028515365 0.0048098548 -0.0022230216)
(0.0019370396 0.0036133604 -0.0019417584)
(0.0012767469 0.0024364387 -0.0016105835)
(0.0012504609 0.0013992512 -0.00099785545)
(0 0 0)
(0 0 0)
(0 0 0)
(0 0 0)
(0 0 0)
(0 0 0)
(0 0 0)
(0 0 0)
(0 0 0)
(0 0 0)
(0 0 0)
(0 0 0)
(0 0 0)
(0 0 0)
(0.34577699 -0.071956915 -0.019034591)
(0.34643644 -0.071895878 -0.01903905)
(0.34705002 -0.071764355 -0.019027727)
(0.34765916 -0.071636923 -0.018983749)
(0.34825459 -0.071474959 -0.018947224)
(0.34881301 -0.071246445 -0.018906509)
(0.34938402 -0.071061778 -0.018985582)
(0.35254029 0.042641496 -0.014269106)
(0.35317131 0.042788339 -0.014249267)
(0.35378264 0.042967667 -0.014329812)
(0.35439687 0.043131415 -0.014381972)
(0.35498516 0.043279074 -0.014441679)
(0.35554491 0.043368678 -0.014487308)
(0.35615753 0.043543003 -0.014467952)
(-0.00019811116 0.00025489548 0.00087837388)
(-0.00017049923 0.00024627717 0.00093148163)
(0.00025814805 0.00032289563 0.00092108907)
(0.00097696283 0.00043043764 0.00078668141)
(0.0020294263 0.00064991932 0.00053113008)
(0.0033084849 0.00086671179 0.00026405602)
(0.004864839 0.001216762 -9.969524e-05)
(0.0066483581 0.0015671044 -0.0004570053)
(0.0086536209 0.0020389265 -0.00084992304)
(0.010914766 0.0025377612 -0.0012522325)
(0.013371875 0.0031597228 -0.0016699498)
(0.016089596 0.003824951 -0.002085178)
(0.01902137 0.0046098678 -0.0025083234)
(0.022224354 0.0054534202 -0.002914154)
(0.025672866 0.0064003675 -0.0033351713)
(0.02941049 0.0074245558 -0.003730888)
(0.033422772 0.0085469918 -0.0041314853)
(0.037749713 0.0097309603 -0.0045170921)
(0.042389253 0.011003762 -0.0048933716)
(0.047378904 0.012331324 -0.0052633322)
(0.05271952 0.013723799 -0.0056189673)
(0.058439971 0.015158979 -0.0059698172)
(0.06455345 0.016630295 -0.0063059056)
(0.071066966 0.018115197 -0.0066376096)
(0.078022151 0.019626656 -0.0069601416)
(0.085407392 0.021106683 -0.0072856019)
(0.093235744 0.022574099 -0.0075992357)
(0.10151787 0.024012643 -0.0079067227)
(0.11026781 0.025380424 -0.0082170298)
(0.11946536 0.026690312 -0.0085215851)
(0.12913474 0.027914576 -0.00882687)
(0.13925955 0.029037791 -0.0091333347)
(0.14983196 0.030051103 -0.0094411707)
(0.16085398 0.030946283 -0.0097529968)
(0.17230843 0.031694643 -0.010067745)
(0.18415979 0.032313953 -0.010390842)
(0.19644403 0.032785119 -0.010727483)
(0.20907061 0.033066168 -0.011044918)
(0.22208645 0.033248887 -0.01140857)
(0.23542055 0.033182545 -0.011734067)
(0.24903588 0.033069848 -0.012125991)
(0.26296771 0.032616539 -0.012440094)
(0.27710864 0.032220794 -0.012888208)
(0.29144675 0.03149251 -0.013207709)
(0.3060174 0.030622484 -0.013621843)
(0.32056333 0.029793536 -0.01404551)
(0.33539691 0.028390719 -0.014502406)
(-0.0004669017 -0.0002827567 0.00048156075)
(-0.00040633777 -0.00067946397 0.00043596635)
(3.0473859e-05 -0.0010029639 0.00036141382)
(0.0007781409 -0.0012233926 0.00015826799)
(0.001758994 -0.0014559233 -9.817786e-05)
(0.0030558592 -0.0015991524 -0.00039538852)
(0.0045644058 -0.0016412168 -0.00077880264)
(0.0063182239 -0.0016388617 -0.0011165083)
(0.0083073653 -0.0014933823 -0.001560336)
(0.010524048 -0.0013078247 -0.0019534143)
(0.01296961 -0.00096327787 -0.0024073626)
(0.01565617 -0.00059109379 -0.0028273133)
(0.018573571 -4.2632891e-05 -0.0032879202)
(0.021767502 0.00055094409 -0.003723592)
(0.025200749 0.0012898916 -0.004170925)
(0.028913515 0.0020937459 -0.0046047367)
(0.032908588 0.0030202773 -0.0050443316)
(0.037206627 0.0040089471 -0.0054579063)
(0.041835472 0.005092796 -0.0058778683)
(0.046800561 0.006231852 -0.0062784231)
(0.052136243 0.0074329382 -0.0066741782)
(0.057842374 0.0086732397 -0.0070601348)
(0.063941918 0.0099399089 -0.0074332464)
(0.070459985 0.011236742 -0.0078002283)
(0.077403413 0.012510812 -0.0081618832)
(0.084762215 0.01378515 -0.0084923681)
(0.092583355 0.015010107 -0.0088227252)
(0.10086328 0.016188924 -0.009161375)
(0.10958425 0.017302063 -0.0094655933)
(0.11878038 0.018328003 -0.009780795)
(0.12843677 0.019258628 -0.010086496)
(0.13854707 0.020070089 -0.010382363)
(0.1491119 0.020765294 -0.01068352)
(0.16012478 0.021317067 -0.01097645)
(0.17155314 0.021729303 -0.011271452)
(0.18341735 0.021984392 -0.011565837)
(0.1956729 0.022099655 -0.011863775)
(0.20828179 0.0219859 -0.012144501)
(0.22130301 0.02185222 -0.012490362)
(0.23457351 0.021353158 -0.012744729)
(0.24825005 0.020914606 -0.013110748)
(0.26211106 0.020124921 -0.013389027)
(0.27629338 0.019353341 -0.01375253)
(0.29060043 0.018283361 -0.01403946)
(0.30515746 0.017156314 -0.014415534)
(0.31978905 0.015846212 -0.014797526)
(0.3347171 0.014339656 -0.015237201)
(-0.00060062556 -0.00040376476 0.00011426901)
(-0.00054632814 -0.00084605863 1.1336029e-05)
(-5.716107e-05 -0.0012057911 -0.0001545368)
(0.0006296751 -0.00153744 -0.00038071273)
(0.0016878776 -0.001853522 -0.00065596982)
(0.0029477243 -0.0020819922 -0.0010015828)
(0.0044716512 -0.0022584744 -0.0013587966)
(0.0062401608 -0.0023881187 -0.0017778804)
(0.0082233288 -0.0024345902 -0.0022026511)
(0.010457925 -0.0024153706 -0.002643712)
(0.01288839 -0.0023304975 -0.0031078252)
(0.015563178 -0.0021732048 -0.0035655886)
(0.018471085 -0.0019166073 -0.0040576565)
(0.02162375 -0.0016290624 -0.0045100701)
(0.025020851 -0.0012355024 -0.0049879976)
(0.028712229 -0.0007921103 -0.0054569276)
(0.032670843 -0.00027279213 -0.005920205)
(0.036950791 0.00028967927 -0.0063806659)
(0.041537381 0.00091314502 -0.0068297489)
(0.046470576 0.0015704066 -0.0072684948)
(0.051744003 0.0022663383 -0.0076913743)
(0.057394322 0.0029791257 -0.0081036994)
(0.063451563 0.0037201793 -0.0085007894)
(0.069903744 0.004432191 -0.008893418)
(0.07677553 0.0051535378 -0.0092498174)
(0.084089107 0.0058406529 -0.0096197218)
(0.091869289 0.0064990129 -0.0099838155)
(0.10008745 0.0071082902 -0.010314488)
(0.10877448 0.0076603348 -0.010647777)
(0.11792822 0.0081408852 -0.010976016)
(0.12753679 0.0085427096 -0.011280303)
(0.13761316 0.0088553003 -0.01158815)
(0.14814503 0.0090687623 -0.011883825)
(0.15911695 0.0091817024 -0.012173518)
(0.17053511 0.0091710574 -0.012455858)
(0.18236961 0.0090736893 -0.012745353)
(0.19459858 0.0087995326 -0.013008586)
(0.20724348 0.0085017337 -0.013309792)
(0.22023117 0.0079920795 -0.013572452)
(0.23355965 0.0073917969 -0.013827371)
(0.24720618 0.006768279 -0.014157815)
(0.26110814 0.0058276528 -0.01434121)
(0.27530549 0.0050317398 -0.014714968)
(0.28967127 0.0038962896 -0.014904983)
(0.30434373 0.0028005271 -0.015281761)
(0.31903384 0.0015943208 -0.015559927)
(0.33392386 0.00024566636 -0.01588469)
(-0.00060534361 -0.00022621252 -0.00028222316)
(-0.00048197203 -0.00041608036 -0.00049280741)
(-8.2098466e-07 -0.00060377809 -0.00071488925)
(0.00079341275 -0.00080437952 -0.00098083787)
(0.0018243594 -0.00098083025 -0.0012982886)
(0.0031316577 -0.0011608948 -0.0016343885)
(0.0046606999 -0.0012926209 -0.0020577235)
(0.0064293747 -0.0014551677 -0.0024362548)
(0.0084165919 -0.0015403013 -0.0028978167)
(0.010617325 -0.0016763484 -0.0033372274)
(0.013045379 -0.0017437421 -0.0038227609)
(0.015716979 -0.0018371623 -0.0043127389)
(0.018611363 -0.0018861897 -0.0048220998)
(0.021746392 -0.0019711697 -0.0053083895)
(0.025147057 -0.0019944286 -0.0058382396)
(0.028805544 -0.002055804 -0.0063319836)
(0.032745687 -0.0020780389 -0.0068458472)
(0.036980672 -0.0021321066 -0.0073330652)
(0.04153289 -0.0021658458 -0.0078226575)
(0.046412965 -0.0022229489 -0.008295155)
(0.051658799 -0.0022800504 -0.008761183)
(0.057283247 -0.0023456137 -0.0092188623)
(0.063273464 -0.0024453343 -0.0096590808)
(0.069672115 -0.0025368606 -0.010077303)
(0.076499501 -0.0026504619 -0.010500606)
(0.08375967 -0.0027799963 -0.010904127)
(0.091451603 -0.0029381999 -0.011266237)
(0.099594178 -0.0031281045 -0.011624037)
(0.10820059 -0.0033407428 -0.011972878)
(0.11726776 -0.003596516 -0.012287025)
(0.12680039 -0.0038793782 -0.012601757)
(0.1368032 -0.004208283 -0.01289397)
(0.14725678 -0.0045749717 -0.013177916)
(0.158175 -0.0049848996 -0.013444498)
(0.1695261 -0.005427226 -0.013711864)
(0.18131107 -0.0059458789 -0.013947814)
(0.19351545 -0.0064509923 -0.014204764)
(0.20610132 -0.0070594025 -0.014427791)
(0.21906421 -0.0077007477 -0.014640588)
(0.23236125 -0.0083319828 -0.014898601)
(0.24603516 -0.0090731165 -0.015091229)
(0.25994633 -0.0098280183 -0.015314532)
(0.27419976 -0.010535341 -0.01557193)
(0.28862539 -0.011438111 -0.015724718)
(0.30330371 -0.012172909 -0.016008594)
(0.31804855 -0.013076197 -0.016149732)
(0.33304248 -0.0139392 -0.016425394)
(-0.00050830216 -0.00010943332 -0.0006812393)
(-0.00034882978 -5.9354267e-05 -0.00093054944)
(0.00022719603 -0.00010699719 -0.0012154047)
(0.00096343276 -0.00016303981 -0.0014950681)
(0.0020592922 -0.00023483389 -0.0018320818)
(0.0033502497 -0.00032869238 -0.0022083232)
(0.0049108921 -0.00044186612 -0.0026130722)
(0.0066722925 -0.00057994133 -0.0030514838)
(0.008665845 -0.00076558088 -0.0035243442)
(0.010889059 -0.00098618826 -0.0040177778)
(0.013328431 -0.0012350773 -0.0045442237)
(0.015983944 -0.0015493165 -0.0050686917)
(0.018861713 -0.0019093044 -0.0055921244)
(0.021995553 -0.0023269476 -0.0061418222)
(0.025356974 -0.0027962215 -0.0066772282)
(0.028996271 -0.0033350664 -0.0072135229)
(0.032898433 -0.0039126651 -0.007752416)
(0.037106292 -0.0045671219 -0.0082776556)
(0.041609098 -0.0052511755 -0.0088027628)
(0.046452557 -0.0060039848 -0.0093078652)
(0.051634257 -0.006780957 -0.0098074694)
(0.057165147 -0.0076163681 -0.010280978)
(0.063100077 -0.0084739904 -0.010732477)
(0.069419945 -0.0093818112 -0.011187294)
(0.07617166 -0.010312352 -0.01160538)
(0.083331151 -0.011261302 -0.012003089)
(0.090951204 -0.012236887 -0.012382897)
(0.09901638 -0.013208029 -0.012764685)
(0.10754645 -0.014189519 -0.013105578)
(0.11653508 -0.015163472 -0.013444333)
(0.12599791 -0.016134203 -0.013756411)
(0.13592324 -0.017091275 -0.014054756)
(0.14632189 -0.018043207 -0.014329605)
(0.15716993 -0.01895064 -0.014604006)
(0.16847542 -0.01987807 -0.014837813)
(0.18022166 -0.020728873 -0.015089065)
(0.19237449 -0.021587428 -0.015306585)
(0.20496858 -0.022423035 -0.015507445)
(0.21789575 -0.023182666 -0.015746243)
(0.23126799 -0.023924203 -0.015916976)
(0.24490073 -0.024651751 -0.01610745)
(0.2588819 -0.025291914 -0.016290543)
(0.27312879 -0.025950851 -0.016457742)
(0.28760263 -0.026567992 -0.016593612)
(0.30233074 -0.027079356 -0.016790794)
(0.31721995 -0.02763863 -0.016896956)
(0.33223666 -0.028082873 -0.017044018)
(-0.00036487265 -0.00018103646 -0.0010474379)
(-5.6730557e-05 -0.00015743886 -0.0013737799)
(0.00050860499 -0.00029451319 -0.0017040337)
(0.0012955408 -0.00043243938 -0.0020479667)
(0.0023745055 -0.0005906678 -0.0024201006)
(0.0036785372 -0.00080841576 -0.0028048041)
(0.0052178686 -0.0010318029 -0.0032495258)
(0.0069926098 -0.0013465977 -0.0037027149)
(0.0089837603 -0.0016748218 -0.0042055402)
(0.01120145 -0.0021041586 -0.0047084751)
(0.013624316 -0.0025700917 -0.0052543219)
(0.016282923 -0.0031582274 -0.0057951069)
(0.019161823 -0.003787725 -0.0063774246)
(0.022282419 -0.0045374292 -0.0069425818)
(0.025642796 -0.0053454207 -0.0075223426)
(0.029267163 -0.0062662834 -0.0081001571)
(0.033163792 -0.0072521115 -0.0086802642)
(0.037350599 -0.0083384666 -0.0092484533)
(0.041844051 -0.0094944731 -0.0098104619)
(0.046663983 -0.010733106 -0.010359092)
(0.051815443 -0.012049625 -0.010896064)
(0.057360712 -0.013379375 -0.011402876)
(0.063238364 -0.014818478 -0.011914774)
(0.069551257 -0.01632236 -0.012387753)
(0.076247341 -0.01781842 -0.012842366)
(0.083386512 -0.01936633 -0.013285055)
(0.090965807 -0.02089962 -0.013701068)
(0.098983855 -0.022450157 -0.014085487)
(0.10745699 -0.023981878 -0.014453037)
(0.11640139 -0.025509563 -0.014791624)
(0.12580601 -0.027008153 -0.015106066)
(0.13568265 -0.028475767 -0.015395218)
(0.14601959 -0.029892512 -0.015665959)
(0.15682104 -0.031278569 -0.015906819)
(0.1680715 -0.032577823 -0.016139238)
(0.1797577 -0.033843146 -0.016341414)
(0.19188373 -0.03502226 -0.016527923)
(0.20439294 -0.036119132 -0.01670963)
(0.21732696 -0.037174866 -0.01685315)
(0.23059514 -0.038128059 -0.01700473)
(0.24420284 -0.038973029 -0.017136343)
(0.25815644 -0.039735564 -0.017265758)
(0.27234192 -0.040471806 -0.017350442)
(0.28682914 -0.04102395 -0.017474292)
(0.30148559 -0.041538627 -0.01754497)
(0.31635653 -0.041956151 -0.017573491)
(0.33135662 -0.042187194 -0.017591216)
(-7.1568855e-05 -0.00074467771 -0.0013362615)
(0.0002708711 -0.0010260686 -0.0017582316)
(0.00084969645 -0.0016395201 -0.0021528673)
(0.0015775204 -0.0021286705 -0.0025327147)
(0.0026601524 -0.0027009365 -0.0029194381)
(0.0039149336 -0.0032792553 -0.0033418486)
(0.0054560871 -0.0038961743 -0.0037963778)
(0.0071968332 -0.0045367209 -0.0042852878)
(0.009172045 -0.005213854 -0.0048010913)
(0.011365065 -0.0059434739 -0.0053443812)
(0.013777455 -0.0067076432 -0.0059175391)
(0.016422919 -0.0075543147 -0.006501943)
(0.019286252 -0.0084481989 -0.0071051678)
(0.022404599 -0.0094204512 -0.0077064612)
(0.025750362 -0.01045661 -0.0083302174)
(0.029379645 -0.0115763 -0.008941068)
(0.033266232 -0.01276588 -0.0095611993)
(0.037460571 -0.014039057 -0.010163168)
(0.041949845 -0.015387457 -0.010767352)
(0.046771181 -0.016808398 -0.011351478)
(0.051939189 -0.018297747 -0.011924257)
(0.057446049 -0.019855888 -0.012475412)
(0.063371427 -0.021465755 -0.013008939)
(0.069665883 -0.023150508 -0.013509374)
(0.076372407 -0.024860359 -0.014006952)
(0.083507158 -0.026610168 -0.014468952)
(0.091072393 -0.028390847 -0.014884178)
(0.099084053 -0.030175487 -0.015295819)
(0.10755933 -0.031974486 -0.015669997)
(0.11649103 -0.033775714 -0.016014255)
(0.12588275 -0.035564612 -0.016332746)
(0.13574101 -0.03733266 -0.016621909)
(0.14605551 -0.039081846 -0.016880977)
(0.15682775 -0.040778017 -0.017120598)
(0.16804199 -0.042446836 -0.017326252)
(0.17969744 -0.044050887 -0.017514117)
(0.19176135 -0.04558958 -0.017686249)
(0.20425544 -0.047076304 -0.017814995)
(0.21710539 -0.048469852 -0.017956665)
(0.23033139 -0.049797445 -0.018057959)
(0.24388465 -0.051012895 -0.018153735)
(0.25776331 -0.052163628 -0.018218926)
(0.27188683 -0.053208719 -0.018277799)
(0.28629114 -0.054108214 -0.018347814)
(0.30084127 -0.054983167 -0.018334281)
(0.31563392 -0.055648493 -0.018385388)
(0.33049607 -0.056173021 -0.018321571)
(0 0 0)
(0 0 0)
(0 0 0)
(0 0 0)
(0 0 0)
(0 0 0)
(0 0 0)
(0 0 0)
(0 0 0)
(0 0 0)
(0 0 0)
(0 0 0)
(0 0 0)
(0 0 0)
(0 0 0)
(0 0 0)
(0 0 0)
(0 0 0)
(0 0 0)
(0 0 0)
(0 0 0)
(0 0 0)
(0 0 0)
(0 0 0)
(0 0 0)
(0 0 0)
(0 0 0)
(0 0 0)
(0 0 0)
(0 0 0)
(0 0 0)
(0 0 0)
(0 0 0)
(0 0 0)
(0 0 0)
(0 0 0)
(0 0 0)
(0 0 0)
(0 0 0)
(0 0 0)
(0 0 0)
(0 0 0)
(0 0 0)
(0 0 0)
(0 0 0)
(0 0 0)
(0 0 0)
(0 0 0)
(0 0 0)
(0.00073143717 -0.00046386837 -0.00087496577)
(0.00079918856 -0.00050723753 -0.00056567339)
(0.00084923222 -0.00051295775 -0.00031529841)
(0.00085017636 -0.0005234118 -9.948774e-05)
(0.0007813383 -0.00045624017 0.00011922977)
(0.00067830495 -0.00042859778 0.00032801077)
(0.00048908092 -0.00030068535 0.00057272607)
(0.0011527802 -0.0020702958 -0.001732442)
(0.0013907183 -0.0020371472 -0.0011107316)
(0.0014652139 -0.0018552847 -0.00065374178)
(0.0014226298 -0.0017473552 -0.00033333059)
(0.0013876272 -0.0017246502 -2.2983718e-05)
(0.0011831415 -0.0016243216 0.00032175413)
(0.00097245521 -0.0015304868 0.00075642683)
(0.001615712 -0.0031578794 -0.0019942506)
(0.0018608957 -0.0029459515 -0.0015029743)
(0.0020134211 -0.0028038736 -0.0010704464)
(0.0020529438 -0.0026978717 -0.00059317933)
(0.0019839962 -0.0025979022 -0.00019764494)
(0.0018033388 -0.0024937409 0.00017437207)
(0.001563677 -0.0023778373 0.00060727277)
(0.0024121089 -0.0043264554 -0.0025190932)
(0.0027699379 -0.0041416541 -0.0020155647)
(0.0029234272 -0.003928641 -0.0014770025)
(0.0030120662 -0.0037835097 -0.0010254946)
(0.0029382588 -0.0036284048 -0.00059192321)
(0.0028271067 -0.0034431147 -0.00016330749)
(0.0025185992 -0.00329076 0.00026129171)
(0.0034963132 -0.0055391199 -0.0028883286)
(0.0037938576 -0.0052444567 -0.0023822767)
(0.0040173868 -0.0050123412 -0.001914275)
(0.0041186096 -0.0048056083 -0.0014389743)
(0.0041090111 -0.0046308698 -0.00097085443)
(0.0039792745 -0.0044264042 -0.00056734983)
(0.0037557759 -0.0042017308 -0.00013171568)
(0.0047345475 -0.0066202706 -0.0033719446)
(0.0051097387 -0.0063450373 -0.0028746867)
(0.005335558 -0.0060536112 -0.0023687856)
(0.0054858984 -0.0058170188 -0.0019203141)
(0.0054832863 -0.0055926677 -0.0014619344)
(0.005404141 -0.0052849542 -0.0010196725)
(0.0051787959 -0.0050518064 -0.00062144841)
(0.0062707552 -0.0077446521 -0.003855286)
(0.0066518912 -0.0074359877 -0.0033659427)
(0.0069418245 -0.0071321745 -0.0028978302)
(0.0070956275 -0.0068681351 -0.0024306655)
(0.0071452828 -0.0065983489 -0.0019791508)
(0.0070917248 -0.0063275582 -0.0015733219)
(0.0069174408 -0.0059866324 -0.001127838)
(0.0080103951 -0.0088390235 -0.0043719524)
(0.0084228461 -0.0084856932 -0.0038955471)
(0.008726861 -0.0081272819 -0.0034040239)
(0.0089278018 -0.0078338126 -0.0029613061)
(0.0090007276 -0.007544373 -0.0025133006)
(0.0089779199 -0.0072003612 -0.0020737682)
(0.0088198592 -0.0068598759 -0.0016743252)
(0.009978036 -0.0099018105 -0.0049303208)
(0.010427913 -0.0095363354 -0.0044545911)
(0.010780146 -0.0092151682 -0.0039931952)
(0.010999188 -0.0088647641 -0.0035278478)
(0.0111084 -0.0085323246 -0.0030813954)
(0.011111631 -0.0081690675 -0.0026595291)
(0.0110021 -0.0078001431 -0.0022247783)
(0.012193204 -0.011000571 -0.005502836)
(0.012666527 -0.010595385 -0.0050323682)
(0.013032422 -0.01019906 -0.0045565642)
(0.013292505 -0.0098624091 -0.0040962689)
(0.01341887 -0.0095186184 -0.0036562152)
(0.013455598 -0.0091336355 -0.003210189)
(0.013356802 -0.0087390527 -0.002791757)
(0.014608841 -0.012055338 -0.0060999183)
(0.015119674 -0.01165465 -0.0056433882)
(0.015527624 -0.011264911 -0.005160452)
(0.015808639 -0.010893414 -0.0047029636)
(0.015977589 -0.010523248 -0.0042365994)
(0.016030166 -0.010111417 -0.003808969)
(0.01598676 -0.0097253108 -0.0033409725)
(0.017286434 -0.01315503 -0.0067325737)
(0.017838707 -0.012745958 -0.0062499591)
(0.018266624 -0.012331552 -0.0057583924)
(0.01858282 -0.011947589 -0.0052897969)
(0.018769369 -0.011562817 -0.0048200291)
(0.018844421 -0.011146767 -0.0043797953)
(0.018810414 -0.010714345 -0.003891557)
(0.020185405 -0.014247069 -0.0073610183)
(0.020755548 -0.013819548 -0.0068631478)
(0.021220319 -0.013400345 -0.0063889488)
(0.021555689 -0.012995293 -0.0058992456)
(0.021776246 -0.012605242 -0.0054150883)
(0.021864624 -0.012171896 -0.0049610968)
(0.021863655 -0.011757671 -0.0044753629)
(0.02334248 -0.015397973 -0.0080008248)
(0.023945872 -0.014971004 -0.0074937881)
(0.024451071 -0.014540932 -0.0070005167)
(0.024816093 -0.014147432 -0.0064956358)
(0.025060033 -0.013737569 -0.0059961966)
(0.025173931 -0.013312818 -0.0055346807)
(0.02518554 -0.012857977 -0.0050113064)
(0.026739704 -0.016550243 -0.0086522389)
(0.027375955 -0.016113372 -0.0081226907)
(0.027911469 -0.015681347 -0.0076290931)
(0.028292106 -0.015260538 -0.0070934943)
(0.028562692 -0.014851586 -0.0065925273)
(0.028687149 -0.014405403 -0.0060964943)
(0.028717033 -0.013974942 -0.0055641994)
(0.030421336 -0.017768848 -0.0092922091)
(0.031097782 -0.017349036 -0.0087522129)
(0.031658018 -0.016902227 -0.0082318711)
(0.03207855 -0.016510033 -0.0076903896)
(0.032363649 -0.016087401 -0.0071528197)
(0.032513827 -0.01566423 -0.0066480417)
(0.032546805 -0.015200689 -0.006078623)
(0.034372845 -0.019014514 -0.0099411193)
(0.035070228 -0.018578368 -0.0093745873)
(0.03567602 -0.018149338 -0.0088459598)
(0.036098497 -0.017729109 -0.0082694012)
(0.036414901 -0.017315334 -0.0077250376)
(0.036564791 -0.016866866 -0.0071898573)
(0.036614361 -0.016437095 -0.0066006447)
(0.038625657 -0.020326316 -0.010570087)
(0.039374316 -0.019920973 -0.0099938402)
(0.03999637 -0.019479959 -0.0094333607)
(0.040459685 -0.019090287 -0.0088419477)
(0.040784202 -0.018665702 -0.0082668241)
(0.040955014 -0.018252777 -0.0077117797)
(0.041006417 -0.017793753 -0.0070876804)
(0.043193111 -0.021687214 -0.011203252)
(0.043954913 -0.021265331 -0.010593974)
(0.044621059 -0.020844282 -0.010019429)
(0.045085065 -0.020435071 -0.0093990764)
(0.04543897 -0.020030796 -0.0088063546)
(0.045607251 -0.019590868 -0.008223082)
(0.045671885 -0.019168427 -0.0075780763)
(0.048081098 -0.023112246 -0.011806352)
(0.048895495 -0.022721531 -0.011182193)
(0.049573187 -0.022299182 -0.010582703)
(0.050075082 -0.021923591 -0.0099407855)
(0.050434939 -0.021504244 -0.0093195306)
(0.050621359 -0.021106886 -0.008715723)
(0.050683709 -0.020659456 -0.0080374191)
(0.053324584 -0.024598714 -0.012406964)
(0.054149291 -0.024199442 -0.011754859)
(0.054868665 -0.02380363 -0.011134212)
(0.055372803 -0.023406588 -0.010467198)
(0.055760377 -0.023021165 -0.0098268413)
(0.055941467 -0.022597011 -0.0091953257)
(0.056013688 -0.022182144 -0.0084938113)
(0.058918561 -0.026147355 -0.012975219)
(0.059788977 -0.025783481 -0.012305645)
(0.060520091 -0.025383998 -0.011659332)
(0.06105706 -0.025024682 -0.010977123)
(0.061446243 -0.024619362 -0.01030482)
(0.061640761 -0.024234806 -0.0096537786)
(0.061711834 -0.023807483 -0.0089242501)
(0.064903583 -0.027772476 -0.013523629)
(0.06578244 -0.027395016 -0.012832418)
(0.066551124 -0.027025135 -0.012173535)
(0.067086624 -0.026647553 -0.011466557)
(0.067500077 -0.026286503 -0.010774649)
(0.067695116 -0.025889235 -0.010108359)