/*--------------------------------*- C++ -*----------------------------------*\
  =========                 |
  \\      /  F ield         | OpenFOAM: The Open Source CFD Toolbox
   \\    /   O peration     | Website:  https://openfoam.org
    \\  /    A nd           | Version:  6
     \\/     M anipulation  |
\*---------------------------------------------------------------------------*/
FoamFile
{
    version     2.0;
    format      ascii;
    class       pointVectorField;
    location    "0.5";
    object      u;
}
// * * * * * * * * * * * * * * * * * * * * * * * * * * * * * * * * * * * * * //

dimensions      [0 1 0 0 0 0 0];

internalField   nonuniform List<vector> 
28033
(
(0 2.2311308e-19 0)
(0 1.5141787e-18 0)
(1.9099056 -0.13647966 0.0028414674)
(1.8211716 -0.5483144 0.0029300977)
(0 1.3824176e-18 0)
(0 2.2272323e-18 0)
(1.8211593 -0.5486621 0.0026891028)
(1.9098735 -0.1368413 0.0030777768)
(0 4.9180308e-19 0)
(0 1.4439406e-19 0)
(0 1.1641343e-18 0)
(0 -5.5315473e-19 0)
(0 7.3943995e-19 0)
(0 -4.3181963e-19 0)
(0 -1.0237902e-20 0)
(-3.3470101e-19 -1.0918514e-19 0)
(0 2.0166029e-19 0)
(0 9.898286e-20 0)
(0 -3.7801788e-19 0)
(0 3.6573789e-19 0)
(0 4.4014117e-19 0)
(0 -3.5752201e-19 0)
(0 4.6179155e-19 0)
(1.9043654 -0.16220657 0.0028671687)
(1.8988217 -0.18793853 0.0028871819)
(1.8932732 -0.2136741 0.0028955693)
(1.8877211 -0.23941307 0.0028997179)
(1.8821701 -0.26515169 0.0028988453)
(1.8766182 -0.29088962 0.0028941017)
(1.8710711 -0.31663036 0.0028916013)
(1.8655226 -0.34237009 0.0028844225)
(1.859978 -0.3681121 0.0028802949)
(1.8544352 -0.39385495 0.0028750674)
(1.8488902 -0.41959922 0.0028720528)
(1.8433484 -0.44534488 0.0028754726)
(1.8378032 -0.47108966 0.002877607)
(1.8322586 -0.49683131 0.002888723)
(1.8267157 -0.52256946 0.0029058799)
(0.004796788 0.0074086132 0.0081942956)
(0.0059032794 0.011717266 0.011197058)
(0.0076288921 0.016082318 0.013463696)
(0.010150003 0.020606585 0.014863249)
(0.013116297 0.025234989 0.015759812)
(0.016951694 0.029894269 0.016339571)
(0.021429527 0.034646348 0.016695086)
(0.026627245 0.039246579 0.016856468)
(0.032506319 0.043956644 0.016939325)
(0.039079279 0.048466749 0.016924552)
(0.04625695 0.052988943 0.016888226)
(0.054135132 0.057349535 0.016749462)
(0.062588894 0.061662374 0.016696725)
(0.071758845 0.065805192 0.016507483)
(0.081430814 0.069848848 0.016427164)
(0.091823157 0.073730205 0.016211943)
(0.10274012 0.077496131 0.016111337)
(0.11432002 0.081064503 0.015909384)
(0.12642133 0.084497856 0.01576485)
(0.13915616 0.087734433 0.01555604)
(0.15241386 0.090811537 0.015400139)
(0.16625112 0.093668618 0.015178352)
(0.18060733 0.096359513 0.0150023)
(0.19550318 0.09883466 0.01478792)
(0.21088459 0.10110241 0.014584271)
(0.22678183 0.10318408 0.014369611)
(0.24312429 0.10503377 0.014166313)
(0.25995062 0.1067036 0.01395236)
(0.27720644 0.10814181 0.013737916)
(0.29489825 0.10940019 0.013533087)
(0.31300853 0.1104385 0.013321929)
(0.33151488 0.11128864 0.013114807)
(0.35042882 0.11194289 0.012911119)
(0.36971858 0.11239373 0.012707339)
(0.38939202 0.11267192 0.012498725)
(0.40944295 0.11274131 0.012291437)
(0.42984428 0.11263511 0.012089174)
(0.45061628 0.11233247 0.011881572)
(0.4717251 0.11184241 0.011660662)
(0.49318834 0.11116876 0.011447149)
(0.5149755 0.11029247 0.01122201)
(0.5370989 0.10924023 0.010995903)
(0.55953857 0.10797884 0.010757325)
(0.58228989 0.10652861 0.010518613)
(0.60533316 0.1048747 0.010270222)
(0.62866819 0.10302424 0.010016331)
(0.6522698 0.10096974 0.0097562578)
(0.67613687 0.098714226 0.009488792)
(0.70024282 0.096255814 0.0092156183)
(0.72458398 0.093596224 0.0089356714)
(0.74913515 0.090737156 0.0086493617)
(0.77388818 0.087680719 0.0083571914)
(0.79882135 0.084432107 0.008059051)
(0.8239221 0.080994247 0.0077559277)
(0.84917199 0.07737533 0.0074482829)
(0.8745557 0.073580353 0.0071379358)
(0.90005685 0.069619186 0.0068259839)
(0.92565983 0.065499922 0.006514982)
(0.95134904 0.061233289 0.0062074378)
(0.97711036 0.056829375 0.0059063534)
(1.0029295 0.052300705 0.0056147008)
(1.0287951 0.047657105 0.0053358919)
(1.0546931 0.042912768 0.0050737791)
(1.0806202 0.038073357 0.0048279127)
(1.1065582 0.033159439 0.0046081809)
(1.1325111 0.028169505 0.0044049301)
(1.1584693 0.023114968 0.0042290713)
(1.184431 0.018007829 0.0040734515)
(1.2103967 0.012850834 0.0039376183)
(1.2363627 0.0076476765 0.0038239415)
(1.2623349 0.0024010985 0.0037262592)
(1.2883111 -0.002884914 0.0036415995)
(1.3142957 -0.0082097271 0.003566792)
(1.3402866 -0.013574041 0.0034998223)
(1.3662891 -0.018974639 0.0034345589)
(1.3922976 -0.024416396 0.0033718592)
(1.4183166 -0.029891204 0.0033058313)
(1.444339 -0.035407562 0.0032392698)
(1.4703655 -0.040951771 0.0031661966)
(1.4963877 -0.046535181 0.0030945309)
(1.5224068 -0.052140729 0.0030158204)
(1.5484088 -0.057772444 0.0029422548)
(1.5743986 -0.063424337 0.0028664933)
(1.6003608 -0.069088127 0.0027982838)
(1.6263004 -0.074761513 0.0027362219)
(1.6522061 -0.08043196 0.0026847189)
(1.6780831 -0.086105883 0.002645244)
(1.7039239 -0.091761784 0.0026194592)
(1.7297364 -0.097415432 0.0026075384)
(1.7555168 -0.10304189 0.0026115528)
(1.7812752 -0.10866062 0.0026272834)
(1.8070132 -0.11425307 0.0026566156)
(1.8327384 -0.11983105 0.0026952113)
(1.8584611 -0.12539435 0.0027373422)
(1.8841806 -0.13094198 0.0027893485)
(0.0020846059 -0.008589769 -0.0098880206)
(0.0038835686 -0.011621382 -0.011550396)
(0.005122103 -0.016035143 -0.014881826)
(0.0064752405 -0.019767414 -0.015978169)
(0.0092207019 -0.024293044 -0.01716216)
(0.012268983 -0.028987618 -0.01768129)
(0.016081363 -0.033368562 -0.018092478)
(0.020519501 -0.038250438 -0.018161773)
(0.025677283 -0.042975988 -0.018216972)
(0.031302036 -0.047798803 -0.018128223)
(0.037632731 -0.052702944 -0.018004888)
(0.044437783 -0.057598003 -0.017840811)
(0.051869332 -0.06257346 -0.017641222)
(0.059810161 -0.067574154 -0.017452012)
(0.06833535 -0.072595425 -0.017212486)
(0.077379375 -0.077700352 -0.016991281)
(0.086994858 -0.082782748 -0.016723069)
(0.097134099 -0.087957011 -0.016448896)
(0.10781686 -0.093149859 -0.016164014)
(0.11905073 -0.09838447 -0.015842366)
(0.13078427 -0.1036588 -0.015507104)
(0.14306043 -0.10899476 -0.015164791)
(0.15581492 -0.1143224 -0.014790087)
(0.16908331 -0.11974615 -0.014417077)
(0.1828188 -0.12515742 -0.014032391)
(0.197036 -0.13064794 -0.013633505)
(0.21168374 -0.13615184 -0.013264619)
(0.22678839 -0.14170499 -0.012871296)
(0.24230119 -0.1472961 -0.012516024)
(0.25823847 -0.15291536 -0.012147822)
(0.27455962 -0.15859185 -0.011817482)
(0.29128653 -0.16429572 -0.011493055)
(0.30838318 -0.17005481 -0.011192459)
(0.32586698 -0.17584826 -0.010903966)
(0.3437101 -0.18169979 -0.010634423)
(0.36192988 -0.18758996 -0.010379073)
(0.38050463 -0.19352978 -0.01011715)
(0.39944298 -0.19953038 -0.0098752782)
(0.41873625 -0.2055741 -0.0096256156)
(0.43839081 -0.21167638 -0.0093745073)
(0.45839439 -0.21782889 -0.0091137636)
(0.47875073 -0.22403265 -0.0088420532)
(0.4994513 -0.23028755 -0.0085542166)
(0.52049377 -0.23658878 -0.0082501894)
(0.54186931 -0.2429352 -0.0079265116)
(0.56357345 -0.24932183 -0.0075830926)
(0.58559422 -0.25574492 -0.0072202908)
(0.60792501 -0.26219863 -0.0068376587)
(0.63055239 -0.26867853 -0.0064378024)
(0.65346588 -0.27517684 -0.0060218047)
(0.67665188 -0.28168914 -0.0055926664)
(0.70009662 -0.28820704 -0.0051533588)
(0.72378544 -0.29472474 -0.0047070826)
(0.74770328 -0.30123525 -0.0042577101)
(0.77183384 -0.30773173 -0.0038089292)
(0.79616132 -0.31420765 -0.0033648044)
(0.8206692 -0.32065792 -0.0029289245)
(0.84534079 -0.32707573 -0.0025054803)
(0.87016016 -0.33345777 -0.0020974942)
(0.89511129 -0.33979922 -0.0017085116)
(0.92017898 -0.34609779 -0.0013407632)
(0.94534884 -0.35235073 -0.00099708646)
(0.9706079 -0.35855843 -0.00067795172)
(0.99594403 -0.36471948 -0.00038513549)
(1.0213469 -0.37083657 -0.00011769208)
(1.0468078 -0.37691014 0.00012426893)
(1.0723195 -0.38294456 0.00034289162)
(1.0978772 -0.38894256 0.00054170247)
(1.1234753 -0.39490471 0.00071909481)
(1.149112 -0.40083858 0.0008845101)
(1.1747852 -0.40674915 0.0010361927)
(1.2004957 -0.41263279 0.0011807641)
(1.2262415 -0.41850136 0.0013196659)
(1.2520227 -0.42434732 0.0014562718)
(1.2778391 -0.43018024 0.0015935102)
(1.3036886 -0.43599482 0.0017313375)
(1.3295698 -0.44179393 0.0018716781)
(1.3554793 -0.44757505 0.0020135619)
(1.3814131 -0.45333777 0.00215603)
(1.4073659 -0.45907887 0.0022965732)
(1.4333321 -0.46479851 0.0024339208)
(1.4593045 -0.47049223 0.0025633444)
(1.4852773 -0.47616205 0.0026843582)
(1.5112423 -0.48180345 0.0027908836)
(1.5371947 -0.48742055 0.0028838935)
(1.5631272 -0.49301021 0.0029579268)
(1.5890368 -0.49857844 0.0030151732)
(1.6149194 -0.50412443 0.0030524056)
(1.640774 -0.50965524 0.0030727527)
(1.6666005 -0.51517278 0.0030761442)
(1.6924008 -0.52068411 0.0030661027)
(1.7181783 -0.52619311 0.0030453724)
(1.7439376 -0.53170659 0.0030178002)
(1.7696853 -0.53722754 0.0029875338)
(1.795427 -0.54276424 0.0029572339)
(0 -6.1701914e-19 0)
(0 -4.5888846e-19 0)
(0 4.3366409e-19 0)
(0 -2.74483e-19 0)
(0 -2.3437398e-19 0)
(0 1.2918764e-18 0)
(0 -3.7592073e-19 0)
(-8.58813e-19 2.4005998e-19 0)
(0 -2.1522402e-19 0)
(0 5.1750292e-19 0)
(0 6.1377301e-19 0)
(0 2.1431953e-19 0)
(0 1.1423348e-19 0)
(0 -2.3544122e-19 0)
(0 1.6301651e-19 0)
(0.0046995344 -0.0036043002 0.0072405388)
(0.0050931771 -0.013636395 0.011430299)
(0.005028973 -0.014197513 0.013721252)
(0.0070971369 -0.020998296 0.016015756)
(0.0092631069 -0.024075816 0.016976921)
(0.012539263 -0.029258043 0.017522187)
(0.016298642 -0.033519852 0.017906405)
(0.020835108 -0.038591917 0.01804991)
(0.02598084 -0.043143088 0.01806562)
(0.03159941 -0.048189302 0.017986733)
(0.038050306 -0.053052291 0.017919023)
(0.04476914 -0.057940128 0.01771337)
(0.052308895 -0.063098961 0.017596979)
(0.060189499 -0.067947629 0.0173489)
(0.068795888 -0.073283595 0.017196124)
(0.077826123 -0.078127876 0.016956023)
(0.087437839 -0.083547396 0.01676151)
(0.097623002 -0.088515801 0.016469731)
(0.10826798 -0.093964165 0.016268623)
(0.11954371 -0.099095945 0.015972656)
(0.13124292 -0.10448152 0.015745082)
(0.14351242 -0.10982891 0.015449858)
(0.15624484 -0.11522376 0.015203721)
(0.16950105 -0.12063882 0.014922944)
(0.18320504 -0.12607155 0.014653508)
(0.19740127 -0.13157324 0.014389324)
(0.21200488 -0.13706396 0.014125514)
(0.22707522 -0.14264264 0.01387724)
(0.24255996 -0.14819386 0.013628289)
(0.25844278 -0.15383872 0.013401389)
(0.27476324 -0.15947432 0.013170763)
(0.29144993 -0.16517837 0.012959187)
(0.3085412 -0.17090916 0.01274217)
(0.32600116 -0.17670534 0.0125399)
(0.34385696 -0.18253789 0.012333536)
(0.36206096 -0.18841197 0.012126443)
(0.38064344 -0.19438058 0.011922028)
(0.39959749 -0.20037669 0.011711837)
(0.41890415 -0.20643612 0.011496406)
(0.43857433 -0.21255565 0.011269569)
(0.45859618 -0.21873206 0.011036575)
(0.47896752 -0.22496361 0.010792396)
(0.49968334 -0.23124822 0.010538303)
(0.52073694 -0.23758154 0.010273844)
(0.542121 -0.24395941 0.009999734)
(0.56382837 -0.25037674 0.0097159683)
(0.58584929 -0.25682719 0.0094237895)
(0.60817475 -0.26330512 0.0091237158)
(0.630793 -0.26980296 0.00881763)
(0.65369339 -0.2763145 0.008505632)
(0.67686239 -0.28283217 0.0081905332)
(0.70028801 -0.28934897 0.0078714131)
(0.72395518 -0.29585865 0.0075524877)
(0.74785018 -0.30235311 0.0072322576)
(0.77195699 -0.30882849 0.0069154384)
(0.79626103 -0.31527628 0.0066008587)
(0.82074499 -0.3216942 0.0062933225)
(0.84539449 -0.32807595 0.0059923225)
(0.870192 -0.33441907 0.0057018405)
(0.89512343 -0.34072094 0.0054227513)
(0.92017252 -0.34697957 0.0051576559)
(0.94532634 -0.35319457 0.0049077504)
(0.97057086 -0.35936648 0.0046751695)
(0.99589504 -0.3654954 0.0044600896)
(1.0212882 -0.37158424 0.0042638042)
(1.0467418 -0.37763574 0.0040859232)
(1.0722501 -0.38364763 0.003925156)
(1.0977995 -0.38963876 0.0037835696)
(1.1234071 -0.39558507 0.0036564804)
(1.149038 -0.40151564 0.0035400809)
(1.1747192 -0.40742051 0.0034359447)
(1.2004336 -0.41330429 0.0033411871)
(1.2261864 -0.41916696 0.0032512711)
(1.251975 -0.42501212 0.0031657576)
(1.2777986 -0.43083842 0.0030821491)
(1.3036558 -0.43664574 0.0029991844)
(1.3295437 -0.44243344 0.0029158676)
(1.3554596 -0.44820041 0.0028328669)
(1.3813982 -0.45394454 0.002749898)
(1.4073555 -0.45966484 0.0026686784)
(1.4333243 -0.46535968 0.0025905145)
(1.4592993 -0.47102835 0.0025178529)
(1.4852723 -0.47666977 0.0024523526)
(1.5112383 -0.48228517 0.0023969433)
(1.5371892 -0.48787461 0.0023531621)
(1.5631215 -0.49344069 0.0023230309)
(1.5890289 -0.49898596 0.0023075953)
(1.6149104 -0.5045138 0.0023074362)
(1.6407626 -0.51002915 0.0023224862)
(1.6665878 -0.51553533 0.0023512785)
(1.6923862 -0.52103969 0.002392972)
(1.7181629 -0.5265438 0.002443866)
(1.7439222 -0.53205723 0.0025024024)
(1.7696704 -0.5375782 0.0025643855)
(1.7954141 -0.54311442 0.002626886)
(1.8267065 -0.52292168 0.0027228391)
(1.8322538 -0.49717214 0.0027550887)
(1.8378026 -0.47142849 0.0027783857)
(1.8433501 -0.44567374 0.0027980663)
(1.8488988 -0.4199265 0.0028126355)
(1.8544437 -0.39417205 0.0028277632)
(1.8599934 -0.36842893 0.0028388681)
(1.8655367 -0.34268167 0.0028517738)
(1.8710859 -0.31694438 0.0028690958)
(1.876631 -0.29119905 0.0028842389)
(1.8821782 -0.26546944 0.0029051603)
(1.887727 -0.23973184 0.0029250226)
(1.8932641 -0.2139995 0.0029558813)
(1.8988106 -0.18827562 0.0029862353)
(1.9043408 -0.16255191 0.0030289118)
(1.8841611 -0.13130762 0.0031059281)
(1.8584575 -0.1257622 0.0031326084)
(1.8327568 -0.12020869 0.0031643816)
(1.8070523 -0.11464246 0.003193854)
(1.7813407 -0.10906431 0.0032225712)
(1.7556088 -0.10347105 0.0032422421)
(1.7298534 -0.09786503 0.0032501985)
(1.7040666 -0.092245847 0.003243152)
(1.6782454 -0.08661667 0.0032180898)
(1.6523872 -0.080979607 0.003173523)
(1.6264913 -0.07533875 0.003109461)
(1.6005592 -0.069697981 0.0030256586)
(1.5745941 -0.064061953 0.0029239848)
(1.5485989 -0.058435474 0.002806431)
(1.5225826 -0.052824875 0.0026767126)
(1.496548 -0.047231832 0.0025368112)
(1.4705028 -0.041662098 0.0023908795)
(1.4444528 -0.036119822 0.0022418364)
(1.4184037 -0.030606767 0.0020919259)
(1.3923601 -0.025127603 0.0019439369)
(1.3663261 -0.019683055 0.0017986369)
(1.340304 -0.014276645 0.0016563793)
(1.3142949 -0.008908368 0.0015166964)
(1.2883002 -0.0035828684 0.001378551)
(1.2623173 0.0017017424 0.0012388961)
(1.2363484 0.0069397162 0.0010965026)
(1.2103836 0.012128949 0.00094506522)
(1.1844482 0.017252683 0.00079051787)
(1.1584933 0.022343872 0.00060955566)
(1.132564 0.027357037 0.0004200025)
(1.106639 0.032306669 0.00020603269)
(1.0807273 0.037180532 -2.9119746e-05)
(1.0548313 0.041970546 -0.00028907918)
(1.0289582 0.046669125 -0.00057470156)
(1.0031157 0.051266011 -0.00088548452)
(0.97731346 0.055752978 -0.0012209542)
(0.95156351 0.060118804 -0.0015796968)
(0.92587873 0.064355063 -0.0019590142)
(0.9002739 0.068450817 -0.0023564607)
(0.87476432 0.072397944 -0.0027685611)
(0.84936686 0.076186507 -0.0031918595)
(0.82409834 0.079809268 -0.0036222742)
(0.7989766 0.083257791 -0.0040563849)
(0.77401912 0.086526109 -0.0044897589)
(0.74924398 0.089607548 -0.0049191173)
(0.72466839 0.092497675 -0.0053406089)
(0.7003099 0.095191632 -0.0057511768)
(0.67618467 0.097686673 -0.0061477879)
(0.65230922 0.099979634 -0.0065286649)
(0.6286976 0.10207003 -0.0068912129)
(0.60536528 0.1039546 -0.0072354179)
(0.58232242 0.10563829 -0.0075604769)
(0.55958495 0.10711245 -0.0078662204)
(0.5371567 0.10839331 -0.0081577085)
(0.51505561 0.10946047 -0.0084279522)
(0.49328521 0.11033998 -0.0086896602)
(0.47184524 0.11102348 -0.00894208)
(0.4507446 0.11149561 -0.0091908159)
(0.43002383 0.11178196 -0.0094221509)
(0.40962417 0.11189925 -0.0096768642)
(0.38958849 0.11178545 -0.0099263912)
(0.36995265 0.11150989 -0.010173546)
(0.35066168 0.11103207 -0.010439661)
(0.33175022 0.11037394 -0.010721502)
(0.3132285 0.10950014 -0.011017719)
(0.29513742 0.10846108 -0.011316337)
(0.27742079 0.10719949 -0.011627213)
(0.26017009 0.1057609 -0.011949122)
(0.24332254 0.10411025 -0.012282947)
(0.22695827 0.10227576 -0.012622303)
(0.21104688 0.10022818 -0.012952068)
(0.19563091 0.097977182 -0.013295634)
(0.18074617 0.095523631 -0.013602483)
(0.16635593 0.092919743 -0.013929542)
(0.15250232 0.090045615 -0.014234538)
(0.13924002 0.087058022 -0.014502297)
(0.12649377 0.083833784 -0.014802578)
(0.11438003 0.08046734 -0.015012432)
(0.10280602 0.076932776 -0.01529784)
(0.091874455 0.073196504 -0.015468837)
(0.081549864 0.069378227 -0.0157006)
(0.071790504 0.065333089 -0.015837527)
(0.062684965 0.061266939 -0.016074724)
(0.054214458 0.056913351 -0.016141286)
(0.046373729 0.052692326 -0.016339732)
(0.039154175 0.048106387 -0.016371881)
(0.03263243 0.043648017 -0.016426993)
(0.026759451 0.038955687 -0.016351025)
(0.021542436 0.034391661 -0.016229932)
(0.017056938 0.029664799 -0.015900169)
(0.013282334 0.024985443 -0.015294025)
(0.010272265 0.020204728 -0.014394967)
(0.0080619782 0.016041205 -0.013041641)
(0.0060442607 0.011216484 -0.010493928)
(0.0068993217 0.0070610446 -0.0062603436)
(0 6.9369702e-19 0)
(0 2.6359304e-19 0)
(0 6.8415946e-19 0)
(0 6.8871851e-19 0)
(0 7.1781144e-19 0)
(0 4.3167979e-19 0)
(0 1.720862e-20 0)
(0 -3.9115487e-19 -4.2918487e-19)
(0 4.6317901e-20 0)
(0 4.1641377e-19 0)
(0 1.0041078e-18 0)
(0 8.7980787e-19 0)
(0 6.2978074e-19 0)
(0 6.0863408e-19 0)
(0 6.9501002e-19 0)
(0 2.85958e-18 0)
(0 1.2175712e-18 0)
(0 4.46814e-19 0)
(0 8.0647657e-19 0)
(0 -7.0214306e-20 0)
(0 1.8797813e-19 0)
(0 2.1420005e-18 0)
(0 -8.7166106e-19 -3.7797938e-19)
(0 1.2740834e-18 0)
(0 1.5927383e-18 0)
(0 5.2634635e-19 0)
(0 2.1544434e-19 0)
(0 5.0006494e-19 0)
(0 9.0158337e-19 0)
(0 1.1596766e-19 0)
(1.8211628 -0.54828216 0.0029319231)
(1.8211505 -0.54825894 0.0029310836)
(1.8211364 -0.54824149 0.0029249175)
(1.8211219 -0.54823169 0.0029135731)
(1.8211075 -0.54822911 0.0028949527)
(1.8210965 -0.54823338 0.0028721991)
(1.8210887 -0.5482463 0.0028450737)
(1.8210861 -0.54826714 0.0028164197)
(1.8210882 -0.54829613 0.0027864802)
(1.8210946 -0.54833209 0.0027588043)
(1.8211042 -0.54837443 0.0027327608)
(1.8211181 -0.54842248 0.0027121799)
(1.8211312 -0.54847469 0.0026973557)
(1.8211438 -0.54853112 0.0026893069)
(1.8211546 -0.54859208 0.0026883819)
(1.9098651 -0.13651564 0.0028405519)
(1.9098287 -0.13654144 0.0028455345)
(1.9097929 -0.1365661 0.0028578155)
(1.9097575 -0.13659078 0.002877045)
(1.9097236 -0.13661651 0.002900895)
(1.9096934 -0.13664396 0.0029280928)
(1.9096697 -0.13667242 0.0029569769)
(1.9096541 -0.1367019 0.0029855675)
(1.9096483 -0.13673114 0.0030128346)
(1.9096529 -0.13675956 0.0030367396)
(1.909668 -0.13678607 0.0030566539)
(1.9096936 -0.13680894 0.0030708277)
(1.9097274 -0.1368286 0.0030791792)
(1.9097693 -0.13683985 0.003082436)
(1.9098187 -0.13684664 0.0030785214)
(0.0023562777 0.0031414849 0.008161322)
(0.0035206627 0.0045491552 0.0093794497)
(0.0047488393 0.0061230314 0.011739867)
(0.006925996 0.0076215602 0.012629213)
(0.0092331887 0.0090972299 0.013672393)
(0.012594512 0.010719509 0.014155698)
(0.016331602 0.01233328 0.014550299)
(0.02102773 0.014146009 0.014726142)
(0.026102632 0.015888456 0.014857148)
(0.032043693 0.017819426 0.014898749)
(0.038484022 0.019659254 0.014841984)
(0.045669222 0.021686847 0.014840873)
(0.053383822 0.023589585 0.014711631)
(0.061803486 0.025677803 0.014655496)
(0.070765811 0.027653066 0.014517543)
(0.080436433 0.029763196 0.014432426)
(0.090670861 0.03179621 0.014268981)
(0.10152072 0.033913278 0.014174835)
(0.11301018 0.035987172 0.01401335)
(0.12510644 0.038095032 0.013878249)
(0.13779774 0.040181607 0.013725525)
(0.1510916 0.042258327 0.013575126)
(0.16499042 0.044337 0.013399125)
(0.17943982 0.046379952 0.013245112)
(0.19448857 0.0484072 0.013062393)
(0.21008043 0.050402998 0.012889607)
(0.2262223 0.05236733 0.012707007)
(0.24288909 0.054292973 0.012527989)
(0.26008365 0.056174618 0.012343429)
(0.27778106 0.058015802 0.012158555)
(0.29596706 0.059801832 0.011973078)
(0.31464277 0.061538967 0.0117866)
(0.33378855 0.063215146 0.011604315)
(0.35338626 0.064826381 0.011417256)
(0.37344879 0.066372216 0.011230976)
(0.39394234 0.067828714 0.011043608)
(0.41487705 0.069218607 0.010851791)
(0.43622856 0.070503023 0.010658488)
(0.45800981 0.071694112 0.010458855)
(0.48018902 0.072767724 0.010260773)
(0.50277143 0.073720421 0.010056398)
(0.5257321 0.074532947 0.0098428309)
(0.54907454 0.075209082 0.0096301439)
(0.57277466 0.075716718 0.0094076378)
(0.59681613 0.076063972 0.0091801765)
(0.62118755 0.076227402 0.0089486789)
(0.6458665 0.076200332 0.0087092804)
(0.6708366 0.075973378 0.0084667827)
(0.69607457 0.075536364 0.0082171168)
(0.72156163 0.074882216 0.0079632317)
(0.74727268 0.07400486 0.0077033087)
(0.77318695 0.072897987 0.0074396555)
(0.79927965 0.071559539 0.0071705013)
(0.82552824 0.069985559 0.0068988612)
(0.85190832 0.06817712 0.0066240326)
(0.87839703 0.066133182 0.0063487796)
(0.90497104 0.063857653 0.006073891)
(0.93160785 0.061352105 0.0058024847)
(0.95828566 0.058622035 0.0055364961)
(0.98498424 0.055671731 0.0052787808)
(1.0116839 0.052506852 0.0050319154)
(1.0383675 0.049132759 0.0047989953)
(1.0650192 0.045554842 0.0045814356)
(1.0916266 0.041776827 0.0043826521)
(1.1181748 0.037808078 0.0042007317)
(1.1446641 0.033639849 0.0040400761)
(1.1710821 0.029292528 0.0038968402)
(1.1974184 0.024755268 0.0037751679)
(1.2236789 0.020032629 0.0036688167)
(1.2498588 0.015125206 0.0035796617)
(1.2759628 0.010036291 0.0035009242)
(1.3019891 0.0047636566 0.0034327047)
(1.3279401 -0.0006894527 0.0033709621)
(1.353816 -0.0063228976 0.0033145245)
(1.3796195 -0.012133486 0.0032599822)
(1.4053487 -0.018119985 0.0032075829)
(1.4310064 -0.024274399 0.003153232)
(1.4565884 -0.030596872 0.0030990007)
(1.4820967 -0.037073587 0.0030421984)
(1.507526 -0.043705942 0.00298633)
(1.5328775 -0.050474774 0.0029279722)
(1.5581449 -0.057379551 0.0028734061)
(1.5833316 -0.064405793 0.0028201285)
(1.6084302 -0.07154317 0.0027734402)
(1.6334467 -0.078780914 0.0027303319)
(1.6583778 -0.086108046 0.0026971088)
(1.6832299 -0.093514786 0.0026717004)
(1.7080011 -0.10098968 0.0026569034)
(1.7327051 -0.10852424 0.0026525118)
(1.7573392 -0.11610717 0.0026590665)
(1.7819231 -0.12373325 0.0026747018)
(1.8064567 -0.13139049 0.0027008936)
(1.830957 -0.13907419 0.0027330348)
(1.8554369 -0.14677794 0.0027723948)
(1.8798982 -0.15448767 0.0028178571)
(0.00011749573 0.00038592087 0.0071195326)
(0.00076576671 -0.0021816973 0.0084588351)
(0.0023978729 -0.0026367149 0.010010076)
(0.0037213254 -0.0042464153 0.011064697)
(0.0059452137 -0.0050707451 0.011762965)
(0.0086095905 -0.0061821663 0.012199139)
(0.012083507 -0.0068891352 0.012505529)
(0.015991871 -0.0076789968 0.012708853)
(0.020704264 -0.0082019364 0.012856761)
(0.025985374 -0.0086976494 0.012825523)
(0.031873771 -0.0089617411 0.012925072)
(0.038426493 -0.0091626293 0.012797779)
(0.045562622 -0.009142412 0.012828198)
(0.053361077 -0.009036607 0.012688013)
(0.061729997 -0.0087353289 0.012680997)
(0.070807655 -0.0083055125 0.012505999)
(0.080400441 -0.0077065784 0.012487811)
(0.090750373 -0.006962436 0.012329152)
(0.10163506 -0.0060631225 0.01225304)
(0.11322312 -0.0050203703 0.012118864)
(0.12539999 -0.0038214209 0.012015329)
(0.13825743 -0.0024870569 0.011869478)
(0.1517082 -0.0010110524 0.01175602)
(0.16581938 0.00059220548 0.011611814)
(0.18052786 0.0023192837 0.011476005)
(0.19586797 0.0041717789 0.011326225)
(0.21179613 0.0061286889 0.011182417)
(0.22832622 0.0081941826 0.011030386)
(0.24543194 0.010352509 0.010875707)
(0.26311034 0.01260308 0.010718894)
(0.28134497 0.014927382 0.010564462)
(0.30012708 0.017323723 0.010404812)
(0.31943928 0.019778082 0.010242742)
(0.33927775 0.022280854 0.010082617)
(0.35963082 0.024817942 0.0099158193)
(0.38048603 0.027377573 0.0097518112)
(0.40184618 0.029940892 0.009580318)
(0.42368292 0.032496431 0.0094118195)
(0.44598544 0.035022831 0.0092376266)
(0.46876025 0.037513665 0.0090600952)
(0.49197828 0.039930042 0.0088725529)
(0.51563652 0.042279173 0.0086910202)
(0.53972003 0.044508635 0.0084911675)
(0.56420052 0.046630815 0.00830064)
(0.58907274 0.048606611 0.0080967135)
(0.61430832 0.050422168 0.0078933789)
(0.63988455 0.052059205 0.0076837113)
(0.66577936 0.053499982 0.0074720439)
(0.6919647 0.054727189 0.0072539749)
(0.71841434 0.055727234 0.0070346018)
(0.74509877 0.056485908 0.006809506)
(0.77199008 0.056991069 0.0065823648)
(0.79905718 0.057234142 0.0063510512)
(0.82627086 0.057204786 0.0061184582)
(0.85360053 0.056898691 0.005883557)
(0.8810168 0.056309088 0.0056493222)
(0.90848995 0.05543428 0.0054161728)
(0.93599194 0.054270452 0.0051872808)
(0.96349544 0.052818419 0.0049636743)
(0.99097518 0.051075832 0.00474861)
(1.0184068 0.049044229 0.0045442275)
(1.0457702 0.046722713 0.0043521624)
(1.0730449 0.0441108 0.0041755106)
(1.1002161 0.041210866 0.0040131203)
(1.1272706 0.038017376 0.0038692625)
(1.1541999 0.034535067 0.0037416491)
(1.1809832 0.030758036 0.0036334181)
(1.2076318 0.026680256 0.0035375667)
(1.2341396 0.022310006 0.003453539)
(1.2604997 0.017639252 0.0033842845)
(1.2867158 0.012670722 0.0033223873)
(1.3127832 0.0074005197 0.0032707857)
(1.3387067 0.0018339435 0.0032231316)
(1.3644845 -0.0040313286 0.0031807346)
(1.3901208 -0.010188073 0.0031390657)
(1.4156125 -0.016635288 0.0030990365)
(1.4409644 -0.023360607 0.0030562466)
(1.4661716 -0.030363141 0.0030154775)
(1.4912394 -0.037624169 0.002970349)
(1.5161616 -0.045142939 0.0029282812)
(1.5409454 -0.052895337 0.0028824705)
(1.5655835 -0.060879769 0.0028417729)
(1.5900855 -0.069073033 0.0028021096)
(1.614446 -0.077463443 0.0027642857)
(1.6386774 -0.086035978 0.0027357329)
(1.6627751 -0.094776618 0.0027123103)
(1.686752 -0.10366893 0.0026965381)
(1.7106119 -0.11269179 0.0026882351)
(1.7343698 -0.12184049 0.002688813)
(1.7580302 -0.1310867 0.0026970467)
(1.7816135 -0.14042849 0.0027134408)
(1.8051271 -0.14984009 0.0027372418)
(1.8285879 -0.15931171 0.0027659923)
(1.8520163 -0.16883178 0.0028021492)
(1.8754144 -0.17837358 0.0028403323)
(-0.0011631899 -0.0022466109 0.0061530379)
(-0.00073083703 -0.0062818699 0.0070152809)
(-0.00027428554 -0.0093371562 0.0087262058)
(0.0011640644 -0.01250529 0.0093996527)
(0.0029760091 -0.0154693 0.0099283752)
(0.0055985215 -0.018212632 0.010250562)
(0.0084995805 -0.020948805 0.010551928)
(0.012325701 -0.023390936 0.010716124)
(0.016548243 -0.025826085 0.01073947)
(0.021476592 -0.027864765 0.010883254)
(0.026969091 -0.02992723 0.010803106)
(0.033136566 -0.031566244 0.01086547)
(0.039845111 -0.033181195 0.010760518)
(0.047220301 -0.034395562 0.010783194)
(0.055212039 -0.0355055 0.010642824)
(0.063799544 -0.036286516 0.010659013)
(0.073075376 -0.036880388 0.010522915)
(0.082950032 -0.037187256 0.010479735)
(0.093491808 -0.037268344 0.010378993)
(0.10467989 -0.037090359 0.010307585)
(0.11653803 -0.036666464 0.01019904)
(0.12903599 -0.036009527 0.010121501)
(0.14221065 -0.035100141 0.010010105)
(0.15602592 -0.033971215 0.0099121802)
(0.17050713 -0.032601704 0.009798848)
(0.18562639 -0.031026968 0.0096913126)
(0.20139347 -0.029232868 0.0095741338)
(0.2177864 -0.027242685 0.0094536389)
(0.23480499 -0.025058349 0.009333319)
(0.25243114 -0.022701746 0.0092096965)
(0.27065972 -0.020171124 0.0090804796)
(0.28947146 -0.017490587 0.0089501316)
(0.30886727 -0.014668313 0.0088191692)
(0.32882276 -0.011723775 0.0086831559)
(0.34933834 -0.0086725118 0.0085453733)
(0.3703946 -0.0055273815 0.0084048996)
(0.39197681 -0.0023145959 0.0082638407)
(0.41407648 0.0009508874 0.0081196434)
(0.43671323 0.0042395741 0.0079677538)
(0.45983826 0.0075245296 0.0078063922)
(0.48345252 0.010805502 0.0076547051)
(0.50753936 0.014030013 0.0074832188)
(0.5320778 0.017190264 0.0073266147)
(0.55705588 0.020256929 0.0071552343)
(0.58244764 0.02320053 0.0069834001)
(0.60822778 0.026004673 0.0068111381)
(0.63437475 0.02864043 0.0066338789)
(0.66085898 0.031087823 0.0064554977)
(0.68765074 0.03332457 0.0062745071)
(0.71471886 0.03533217 0.0060922379)
(0.74203163 0.037091841 0.0059061464)
(0.76955416 0.038588415 0.0057201196)
(0.79725336 0.039807474 0.0055305344)
(0.82509386 0.040736513 0.005341271)
(0.85304176 0.041366054 0.0051503135)
(0.88106214 0.041686166 0.0049609259)
(0.90912209 0.041690683 0.004772848)
(0.9371889 0.041372817 0.0045888263)
(0.96523192 0.040728023 0.00440954)
(0.99322206 0.039751139 0.004238368)
(1.021133 0.038438777 0.0040753334)
(1.0489408 0.036785992 0.0039238835)
(1.0766238 0.034789591 0.0037839532)
(1.1041658 0.032445372 0.0036572113)
(1.1315504 0.029745896 0.0035452845)
(1.1587635 0.026693822 0.0034457005)
(1.1858087 0.023277531 0.0033626123)
(1.2126527 0.019493458 0.0032843172)
(1.2393205 0.015333607 0.0032286057)
(1.2657944 0.010809111 0.0031764405)
(1.2920768 0.0059048097 0.0031344867)
(1.3181653 0.00062812774 0.003099232)
(1.3440665 -0.0050241503 0.003066529)
(1.369776 -0.011049779 0.0030382917)
(1.3952975 -0.017443847 0.0030092214)
(1.4206291 -0.024199428 0.0029827671)
(1.4457739 -0.031308496 0.0029545798)
(1.4707298 -0.038763048 0.0029274788)
(1.4955011 -0.046547876 0.0028981002)
(1.5200848 -0.054654371 0.0028703593)
(1.5444875 -0.063062998 0.0028407989)
(1.568706 -0.071765051 0.0028155171)
(1.5927493 -0.080733743 0.0027872139)
(1.6166183 -0.089962078 0.0027670714)
(1.6403207 -0.099422896 0.0027476703)
(1.6638595 -0.10910919 0.0027357381)
(1.6872523 -0.11898784 0.0027247953)
(1.7105037 -0.12905083 0.0027223802)
(1.7336311 -0.1392721 0.0027239277)
(1.7566415 -0.14963519 0.0027334825)
(1.7795592 -0.16012047 0.0027467515)
(1.8023912 -0.17070638 0.0027682564)
(1.8251594 -0.18137358 0.0027922677)
(1.8478866 -0.19210706 0.0028230376)
(1.8705745 -0.20287361 0.0028569955)
(-0.0018868165 -0.0031368143 0.0050236302)
(-0.0021800829 -0.0085546878 0.0059921172)
(-0.0016880291 -0.012589918 0.0070704155)
(-0.00056866391 -0.016951784 0.0075673328)
(0.0012479179 -0.020802776 0.0080035973)
(0.0034303546 -0.024708872 0.0083261385)
(0.0065007494 -0.028237293 0.0085146073)
(0.0099964668 -0.031790829 0.0085582505)
(0.014130509 -0.03497917 0.0087591918)
(0.018908356 -0.038112281 0.0086756909)
(0.024268167 -0.040928913 0.008789072)
(0.030218436 -0.043576335 0.0086883574)
(0.036780708 -0.045951153 0.0087604041)