/*--------------------------------*- C++ -*----------------------------------*\
  =========                 |
  \\      /  F ield         | OpenFOAM: The Open Source CFD Toolbox
   \\    /   O peration     | Website:  https://openfoam.org
    \\  /    A nd           | Version:  6
     \\/     M anipulation  |
\*---------------------------------------------------------------------------*/
FoamFile
{
    version     2.0;
    format      ascii;
    class       pointVectorField;
    location    "1.12";
    object      lm;
}
// * * * * * * * * * * * * * * * * * * * * * * * * * * * * * * * * * * * * * //

dimensions      [1 -2 -1 0 0 0 0];

internalField   nonuniform List<vector> 
3969
(
(0 0 0)
(0 0 0)
(-3584.503 1168.8794 118.76863)
(-3352.914 1612.026 50.237771)
(0 0 0)
(0 0 0)
(-3307.4884 1547.4381 50.228388)
(-3538.9231 1105.2122 118.65869)
(0 0 0)
(0 0 0)
(0 0 0)
(0 0 0)
(0 0 0)
(0 0 0)
(0 0 0)
(-3543.9243 1218.8356 109.89571)
(-3478.1917 1259.7927 100.35615)
(-3436.1926 1308.4375 91.396139)
(-3422.7159 1368.4417 83.170088)
(-3423.6516 1435.5903 75.313435)
(-3417.6803 1501.3433 67.31974)
(-3392.5486 1559.7945 58.871025)
(-26.165974 -41.367449 -42.919996)
(-44.581911 -75.951849 -48.457864)
(-74.984637 -109.94 -50.732057)
(-116.66916 -141.66305 -47.841278)
(-166.7725 -170.36898 -44.627424)
(-226.82104 -195.2206 -40.34387)
(-294.35138 -215.72279 -36.195098)
(-369.84209 -231.5971 -32.138279)
(-452.10114 -242.53899 -28.363803)
(-540.70504 -248.3221 -24.905527)
(-635.30409 -248.93198 -22.097047)
(-735.56106 -244.61664 -19.416722)
(-840.64732 -234.54823 -17.487775)
(-950.77681 -219.55017 -15.818673)
(-1064.9907 -198.84901 -14.636543)
(-1183.116 -173.1198 -13.935721)
(-1304.6034 -141.91606 -13.495262)
(-1428.9057 -105.66265 -13.417894)
(-1555.1697 -64.307685 -13.570694)
(-1682.6988 -18.300824 -13.934545)
(-1810.4946 32.124999 -14.374209)
(-1937.7249 86.373486 -14.812356)
(-2063.3244 143.96704 -15.0183)
(-2186.5307 204.10032 -14.929777)
(-2306.2738 266.10483 -14.216141)
(-2421.9856 329.33392 -12.803223)
(-2532.8108 392.69097 -10.417968)
(-2638.2683 455.51606 -7.0080433)
(-2737.9405 517.04713 -2.310464)
(-2831.5869 576.50437 3.4805465)
(-2918.9941 633.37545 10.499121)
(-3000.1227 687.08212 18.509282)
(-3074.9984 737.32914 27.345666)
(-3143.6141 783.93076 36.687791)
(-3206.2939 826.76501 46.401718)
(-3262.8892 865.9241 55.94461)
(-3313.7657 901.70889 65.260646)
(-3359.0785 934.13179 73.968176)
(-3398.8359 963.94116 81.800052)
(-3433.3215 990.96957 88.881923)
(-3462.6759 1016.2274 94.868943)
(-3487.3692 1039.7515 100.0159)
(-3507.1202 1061.2112 104.21887)
(-3523.0115 1082.995 107.6558)
(-3534.6724 1102.1014 110.60498)
(-3543.2416 1121.6639 113.05498)
(-3556.4588 1142.4428 115.60743)
(-0.23419467 45.285657 57.871055)
(-13.85504 69.988629 62.9961)
(-32.513105 101.25817 72.855737)
(-63.395574 130.51708 69.507773)
(-101.89401 162.34296 67.254021)
(-147.66817 193.96126 62.280881)
(-200.32593 226.60387 56.988807)
(-258.42611 258.33834 51.03087)
(-322.96194 291.98302 44.462905)
(-393.24758 325.6039 37.252916)
(-468.58132 360.30939 29.665107)
(-549.25928 395.62508 21.171435)
(-635.6025 432.60585 12.176571)
(-727.09298 470.5644 2.445613)
(-823.20241 509.70645 -7.5706092)
(-924.08609 550.02197 -18.24676)
(-1029.2382 591.54962 -28.977949)
(-1138.0129 633.70847 -39.941099)
(-1250.271 677.15523 -50.723474)
(-1364.882 720.83273 -61.165498)
(-1481.519 765.20494 -70.997104)
(-1599.0696 809.69408 -79.926161)
(-1716.924 854.07395 -87.497961)
(-1834.0597 898.45659 -93.662033)
(-1949.939 942.14625 -98.032672)
(-2063.4154 985.36952 -100.4633)
(-2174.7166 1028.1335 -100.51839)
(-2281.5401 1069.1874 -98.324616)
(-2384.2991 1109.3489 -93.92147)
(-2482.5282 1148.2359 -87.319604)
(-2575.6836 1185.8329 -78.791874)
(-2663.6727 1221.9764 -68.639856)
(-2746.2196 1256.7348 -57.225095)
(-2823.2877 1290.1158 -45.040291)
(-2894.7654 1322.1363 -32.570105)
(-2960.7014 1352.7426 -20.223881)
(-3020.971 1382.1495 -8.4609255)
(-3075.8174 1410.099 2.1947258)
(-3125.0817 1436.8017 11.750449)
(-3168.9491 1462.1115 19.881809)
(-3206.7487 1485.5585 26.695944)
(-3239.8759 1507.6774 32.02398)
(-3267.4557 1528.1083 36.304085)
(-3289.9804 1546.7287 39.530087)
(-3307.7276 1563.533 42.247722)
(-3321.0265 1578.5841 44.697022)
(-3333.4379 1593.4286 47.209604)
(0 0 0)
(0 0 0)
(0 0 0)
(0 0 0)
(0 0 0)
(0 0 0)
(0 0 0)
(-13.884524 29.078615 -44.405261)
(-14.39901 82.109536 -62.948261)
(-27.82224 92.3347 -64.709337)
(-59.01505 134.40884 -64.661334)
(-94.417089 162.7796 -62.310226)
(-139.68032 196.0286 -56.102484)
(-190.02899 231.45088 -53.557914)
(-246.87946 264.06893 -47.327973)
(-308.61932 300.69153 -45.363256)
(-376.00863 334.5315 -40.52809)
(-449.2431 374.17913 -39.419738)
(-527.33535 408.44502 -35.190387)
(-610.19618 447.42308 -33.723253)
(-698.45904 485.78276 -31.694449)
(-791.16805 525.06549 -30.630301)
(-888.78464 564.97345 -29.630196)
(-990.54235 605.08605 -29.357233)
(-1096.3522 645.37287 -29.239533)
(-1205.5912 685.75849 -29.716309)
(-1317.8301 725.61655 -30.375549)
(-1432.3188 765.20356 -31.436736)
(-1548.4537 803.86044 -32.636369)
(-1665.3687 841.80361 -33.962268)
(-1782.5077 878.59695 -35.132409)
(-1898.7113 914.32769 -36.229564)
(-2012.2814 948.39737 -37.145376)
(-2124.395 981.7799 -37.086198)
(-2233.9397 1014.1792 -35.993079)
(-2339.6998 1046.0567 -34.070128)
(-2441.3259 1077.5098 -31.16641)
(-2538.1796 1108.7012 -27.333104)
(-2629.8291 1139.8512 -22.558656)
(-2715.9138 1171.0631 -16.988018)
(-2796.0275 1202.4359 -10.849112)
(-2870.0109 1234.0209 -4.3669118)
(-2938.2052 1265.6983 2.4055997)
(-2998.8593 1296.4006 8.6878561)
(-3054.0882 1327.4526 15.333879)
(-3102.5444 1357.501 20.904342)
(-3144.9681 1386.2615 26.170491)
(-3181.57 1413.6394 30.666316)
(-3212.2743 1438.9899 34.513477)
(-3237.7713 1462.2559 37.755155)
(-3258.1383 1483.1447 40.501132)
(-3274.1127 1501.5676 42.931383)
(-3285.9677 1517.6637 45.240707)
(-3288.4167 1528.6132 47.514357)
(-3343.6685 1494.9003 58.942944)
(-3372.4351 1438.8137 67.408382)
(-3381.5218 1374.8156 75.406756)
(-3374.0977 1305.895 82.95088)
(-3390.6372 1246.5551 91.034004)
(-3433.9024 1198.2048 99.7259)
(-3495.0519 1154.8389 109.46188)
(-3503.5717 1076.2091 116.14532)
(-3506.9178 1058.9736 115.0251)
(-3497.6584 1037.0181 113.56311)
(-3485.764 1014.0154 111.61884)
(-3470.6165 989.54224 108.58013)
(-3451.7143 963.65207 104.47783)
(-3428.8236 936.43202 98.835625)
(-3401.5967 907.78581 91.575349)
(-3369.6431 877.76701 82.481065)
(-3332.7571 846.32697 71.88012)
(-3290.4743 813.154 59.720003)
(-3239.0606 777.02425 46.547244)
(-3188.3951 741.10216 32.418269)
(-3126.5077 701.75932 18.150429)
(-3058.9709 660.3929 3.9465328)
(-2984.3756 616.62692 -9.4280933)
(-2902.7994 570.48249 -21.572342)
(-2814.1451 521.958 -32.060208)
(-2718.7099 471.30303 -40.509989)
(-2616.6682 418.7393 -46.775451)
(-2508.5761 364.67186 -50.630296)
(-2395.0058 309.70366 -52.217585)
(-2276.6509 254.17906 -51.474579)
(-2154.4084 199.01703 -48.817144)
(-2029.1709 144.78633 -44.345901)
(-1901.8828 92.122968 -38.385929)
(-1773.5397 41.808198 -31.300318)
(-1645.1207 -5.6961262 -23.31655)
(-1517.5068 -49.700304 -14.859266)
(-1391.5502 -89.91922 -6.0341401)
(-1268.0293 -125.83257 2.7646246)
(-1147.6392 -157.42886 11.45082)
(-1032.2352 -184.45543 19.675022)
(-919.53571 -205.37664 27.218646)
(-810.43154 -222.03444 34.76663)
(-706.99834 -233.97913 40.88247)
(-609.51922 -240.27578 46.72706)
(-517.03173 -241.7325 51.657054)
(-430.36516 -237.76698 55.761101)
(-350.85632 -227.66217 58.892215)
(-279.14043 -213.42697 61.338239)
(-212.77003 -195.01508 63.494638)
(-157.23278 -169.9682 64.075395)
(-109.13504 -142.55064 63.661998)
(-71.412622 -111.42731 61.012284)
(-43.408362 -74.802183 54.542536)
(-39.081406 -41.984795 35.309957)
(0 0 0)
(0 0 0)
(0 0 0)
(0 0 0)
(0 0 0)
(0 0 0)
(0 0 0)
(0 0 0)
(0 0 0)
(0 0 0)
(0 0 0)
(0 0 0)
(0 0 0)
(0 0 0)
(-3347.0976 1604.2601 50.441897)
(-3341.4477 1596.3026 50.697138)
(-3335.8126 1587.947 50.874365)
(-3330.19 1579.5083 50.832269)
(-3324.5211 1571.0908 50.712693)
(-3318.8698 1562.9175 50.512791)
(-3313.1363 1555.0009 50.222735)
(-3578.9847 1160.8016 118.77585)
(-3573.3306 1152.7693 118.78247)
(-3567.8406 1144.7194 118.96148)
(-3562.4079 1136.6411 119.01766)
(-3556.9027 1128.5923 118.9759)
(-3551.273 1120.6912 118.95815)
(-3545.2778 1112.9193 118.65454)
(-11.99786 -28.669634 -38.589672)
(-30.518674 -56.079146 -36.519419)
(-59.245729 -84.08976 -38.697331)
(-99.640428 -109.73587 -36.986799)
(-149.48244 -132.82657 -34.274848)
(-209.85897 -152.9594 -31.3004)
(-278.61177 -169.23396 -27.758152)
(-355.55301 -181.31676 -25.262459)
(-440.34376 -188.40453 -21.959031)
(-532.03915 -190.92432 -19.966418)
(-630.03818 -188.12352 -17.76892)
(-733.58829 -179.99476 -16.251703)
(-842.60406 -166.48416 -15.008125)
(-955.71763 -147.5392 -14.365611)
(-1072.6739 -122.96884 -14.153819)
(-1192.4775 -93.218263 -14.29273)
(-1314.3696 -58.21756 -14.909324)
(-1437.4716 -18.321367 -15.81967)
(-1560.9041 26.071571 -16.966362)
(-1683.767 74.563709 -18.273834)
(-1805.0987 126.55185 -19.646019)
(-1924.0923 181.42831 -20.873889)
(-2039.8722 238.52122 -21.906304)
(-2151.8212 297.03004 -22.425791)
(-2259.2432 356.36587 -22.339254)
(-2361.7496 415.67447 -21.497637)
(-2459.1495 474.30216 -19.526914)
(-2551.0567 531.67577 -16.465625)
(-2637.4867 587.15858 -12.275509)
(-2718.6712 640.31559 -6.8297274)
(-2794.6216 690.82185 -0.24035864)
(-2865.6082 738.35085 7.3585415)
(-2931.8664 782.88267 15.733382)
(-2993.7073 824.3068 24.719945)
(-3051.3525 862.74966 33.959666)
(-3105.1099 898.48541 43.208301)
(-3155.1149 931.58691 52.2269)
(-3201.822 962.49111 60.77128)
(-3245.0829 991.46895 68.577732)
(-3285.2155 1018.7986 75.765408)
(-3322.3362 1044.96 81.909068)
(-3356.6615 1069.8561 87.519812)
(-3388.0483 1094.1513 92.010124)
(-3417.4288 1117.8501 96.154886)
(-3443.856 1140.618 99.608787)
(-3468.7869 1163.4333 102.74722)
(-3498.7475 1188.2757 105.84724)
(0.48443996 -19.318996 -26.921565)
(-16.218133 -36.275176 -23.563906)
(-46.308485 -60.325667 -25.929918)
(-86.976935 -78.49924 -24.123915)
(-139.60491 -97.13782 -22.592965)
(-202.61997 -112.46072 -20.063759)
(-275.06003 -124.21587 -18.737797)
(-358.16594 -131.62818 -16.147725)
(-448.98046 -134.45792 -15.058443)
(-547.95425 -132.60995 -13.740612)
(-653.18446 -124.80198 -12.986628)
(-764.82088 -112.3628 -12.645816)
(-880.64687 -93.680632 -12.980105)
(-999.62937 -69.737245 -13.803954)
(-1120.5319 -40.158499 -15.056888)
(-1242.5681 -5.9785373 -16.656348)
(-1364.1134 33.127715 -18.602539)
(-1484.0187 76.171101 -20.813716)
(-1601.2211 122.89462 -23.15811)
(-1714.5839 172.41276 -25.580562)
(-1823.2854 224.07078 -27.820778)
(-1926.5693 277.14198 -29.855921)
(-2023.9282 330.7577 -31.343202)
(-2115.0349 384.43877 -32.235501)
(-2199.7651 437.35296 -32.335619)
(-2278.3249 489.16892 -31.362233)
(-2351.0086 539.12079 -29.278263)
(-2417.9838 587.11456 -26.126109)
(-2480.2439 632.73547 -21.671622)
(-2538.1881 675.94058 -16.127404)
(-2592.5834 716.63131 -9.5147489)
(-2644.1717 754.89636 -2.0598236)
(-2693.7503 790.91264 6.0840477)
(-2741.8963 824.8609 14.663921)
(-2789.4119 857.18102 23.399382)
(-2836.6822 888.02238 32.160736)
(-2884.3114 917.90975 40.577506)
(-2932.6415 947.08287 48.673584)
(-2981.9554 976.11887 56.05823)
(-3032.5572 1005.0515 62.917551)
(-3084.1849 1034.4115 69.026694)
(-3137.5495 1064.2852 74.537879)
(-3191.7143 1094.6849 79.443189)
(-3247.5755 1126.2883 83.852468)
(-3304.0214 1158.1893 88.026833)
(-3361.8013 1191.498 91.893649)
(-3420.5802 1225.7267 95.948509)
(11.859519 -11.697636 -16.313652)
(-5.5308711 -22.109616 -13.341425)
(-34.309395 -36.368642 -12.926)
(-77.526981 -47.966783 -11.273319)
(-131.14903 -58.806861 -9.1188942)
(-197.73735 -66.31458 -8.3211087)
(-275.33646 -69.938253 -5.7210139)
(-362.75244 -70.054091 -5.7612461)
(-459.47496 -65.395564 -4.8928641)
(-564.1683 -55.939137 -5.1569867)
(-675.92077 -41.922258 -5.6931066)
(-792.50759 -22.65712 -7.0953446)
(-913.37345 1.6356931 -8.9830859)
(-1035.9183 30.761137 -11.400843)
(-1158.792 64.294782 -14.313385)
(-1280.9758 101.92687 -17.375099)
(-1400.3605 143.0299 -20.849388)
(-1515.6819 187.0117 -24.433294)
(-1625.5313 233.17401 -28.023924)
(-1728.9677 280.55604 -31.439966)
(-1825.1148 328.67105 -34.516198)
(-1913.4713 376.57695 -37.073802)
(-1993.745 423.82926 -38.927252)
(-2066.1277 469.6521 -39.996235)
(-2130.9159 513.83214 -39.979969)
(-2188.5128 555.77857 -38.967661)
(-2239.7543 595.4759 -36.953843)
(-2285.5905 632.8392 -33.674815)
(-2327.2707 667.88036 -29.293953)
(-2365.8429 700.74946 -23.902452)
(-2402.5032 731.71454 -17.590511)
(-2438.5019 761.05339 -10.51952)
(-2474.8928 789.18898 -2.8768659)
(-2512.7891 816.57959 5.1041225)
(-2553.1078 843.5837 13.293726)
(-2596.658 870.79819 21.410248)
(-2644.1833 898.57103 29.367054)
(-2696.0907 927.42748 36.999725)
(-2752.8561 957.60528 44.129905)
(-2814.6123 989.54806 50.940226)
(-2881.5196 1023.5383 56.996797)
(-2953.4725 1059.4723 62.920193)
(-3029.8657 1097.8899 67.960123)
(-3111.1063 1138.4392 73.138544)
(-3195.6042 1181.1297 77.697242)
(-3284.0083 1225.9524 82.470813)
(-3368.0951 1270.0586 86.895321)
(14.330142 -2.095495 -1.1733161)
(-0.50082153 -3.4277982 4.8511273)
(-28.569211 -9.3822057 5.6749395)
(-70.12379 -11.410915 7.1792828)
(-124.78353 -11.490954 7.7742471)
(-192.09353 -10.090153 9.2054647)
(-268.65815 -3.599425 7.9578058)
(-357.12853 4.9743422 7.9046392)
(-453.24965 18.778275 6.4200208)
(-558.32186 35.534292 4.258871)
(-668.79168 57.255635 1.8939726)
(-785.28002 82.645144 -1.5978636)
(-904.53081 112.05591 -4.9786469)
(-1025.5215 144.83426 -9.5368404)
(-1146.4122 180.83662 -14.137203)
(-1265.595 219.29986 -19.260826)
(-1381.4825 259.90945 -24.484176)
(-1492.5268 301.91809 -29.659814)
(-1597.6293 344.76451 -34.687876)
(-1695.7522 387.70147 -39.258468)
(-1786.1975 430.43554 -43.321219)
(-1868.5747 472.09707 -46.613468)
(-1942.8628 512.1793 -48.965496)
(-2008.9163 550.80496 -50.380288)
(-2067.2694 587.34845 -50.665283)
(-2118.8532 621.97082 -49.760843)
(-2164.5771 654.42863 -47.397731)
(-2205.5092 684.91494 -43.863607)
(-2242.8055 713.54677 -39.135894)
(-2277.6873 740.61988 -33.355629)
(-2311.5014 766.49103 -26.652628)
(-2345.4616 791.48113 -19.193733)
(-2380.794 816.17666 -11.240489)
(-2418.5547 840.86987 -2.9145828)
(-2459.7886 866.18999 5.505354)
(-2505.2822 892.47185 13.897123)
(-2555.749 920.25815 22.025681)
(-2612.0561 949.9924 29.801768)
(-2673.1161 981.55405 37.115209)
(-2741.1283 1015.9429 43.825261)
(-2814.7458 1052.9163 50.030021)
(-2894.363 1092.7588 55.640497)
(-2979.135 1135.3598 60.80023)
(-3069.2313 1180.8723 65.609702)
(-3163.0872 1228.7247 70.14091)
(-3260.9036 1279.0342 74.636683)
(-3351.5842 1327.516 78.965107)
(18.792974 8.2215804 11.519889)
(3.5578923 11.721214 18.259194)
(-22.22411 16.13329 20.160292)
(-62.821817 23.839867 22.123166)
(-115.30689 32.759902 23.457608)
(-178.67798 45.123433 22.259029)
(-251.90766 60.175395 22.005008)
(-334.90942 78.259849 19.922827)
(-425.5145 99.572671 17.510543)
(-523.52861 123.58281 14.302882)
(-626.97933 150.93565 10.284186)
(-736.27827 180.32648 5.4520197)
(-848.19614 212.96951 -0.12217494)
(-962.55565 247.17336 -6.2349189)
(-1077.2524 283.75386 -12.679452)
(-1191.3829 321.56664 -19.471916)
(-1303.6497 360.7533 -26.131472)
(-1412.8079 400.38962 -32.758103)
(-1517.9287 440.5377 -39.042757)
(-1617.9939 480.33104 -44.700023)
(-1712.4854 520.05559 -49.911036)
(-1804.3354 559.47213 -53.917823)
(-1888.5096 597.77286 -57.151351)
(-1961.4784 633.22115 -59.007687)
(-2027.8602 667.03284 -59.436505)
(-2088.3506 699.17817 -58.543468)
(-2143.6068 729.76658 -56.342786)
(-2194.5134 758.9659 -52.907992)
(-2242.0196 786.88533 -48.176815)
(-2287.19 813.77163 -42.33089)
(-2330.9829 839.87854 -35.469475)
(-2374.4916 865.50309 -27.820855)
(-2418.5952 891.03612 -19.576477)
(-2464.2346 916.77218 -10.934562)
(-2512.1355 943.13531 -2.1329814)
(-2562.9379 970.44984 6.6069507)
(-2617.2824 999.09656 15.108779)
(-2677.7068 1030.245 23.218445)
(-2762.5778 1071.0511 30.956864)
(-2830.7169 1106.2634 37.988863)
(-2898.3189 1141.7285 44.194979)
(-2970.2879 1179.7721 49.91834)
(-3045.3909 1220.0151 54.829889)
(-3123.2836 1262.261 59.45475)
(-3203.2229 1306.4335 63.538396)
(-3285.0892 1352.2256 67.692736)
(-3360.5853 1396.3788 71.491587)
(16.834603 19.543472 28.626763)
(0.028560614 31.646347 35.084154)
(-22.715267 45.422351 39.175622)
(-60.422351 60.575394 40.640744)
(-108.03243 78.872752 39.525866)
(-165.03935 98.066842 38.003385)
(-230.48847 120.86388 35.530621)
(-304.15258 144.39346 31.84545)
(-384.05924 171.07725 28.024242)
(-470.87814 198.63134 22.701143)
(-562.01144 228.72066 17.316349)
(-659.69782 260.69196 10.964282)
(-760.65222 294.28729 4.1298431)
(-864.99836 329.20486 -3.2879581)
(-971.59136 365.5653 -11.11333)
(-1080.017 402.89811 -19.14317)
(-1189.218 441.36453 -27.277778)
(-1298.5843 480.39106 -35.350807)
(-1407.1526 520.10691 -43.061141)
(-1514.2987 559.94975 -50.350964)
(-1619.5724 600.08545 -56.984689)
(-1720.0661 639.55833 -62.311792)
(-1824.6672 680.83893 -67.311335)
(-1916.6312 718.51093 -70.35242)
(-2004.4491 755.43774 -72.092561)
(-2087.7433 791.33358 -72.24983)
(-2166.5568 826.23627 -70.716671)
(-2241.5434 860.12931 -67.683369)
(-2312.7039 893.09021 -63.023499)
(-2380.3696 924.96425 -56.890355)
(-2445.0948 955.91459 -49.446737)
(-2507.3185 986.07588 -40.886163)
(-2567.5209 1015.6298 -31.531352)
(-2626.2305 1044.7096 -21.600855)
(-2683.8568 1073.6889 -11.495444)
(-2740.8182 1102.5951 -1.4130619)
(-2797.486 1131.8069 8.3117174)
(-2854.4265 1161.602 17.40914)
(-2916.4069 1194.088 25.8972)
(-3014.6789 1242.1873 33.723421)
(-3058.9892 1269.3389 40.130379)
(-3113.7722 1301.4308 45.667196)
(-3166.799 1333.7742 50.296971)
(-3219.2012 1366.7604 54.239099)
(-3270.6204 1400.2172 57.691701)
(-3321.0051 1434.0154 60.874699)
(-3369.2921 1467.5283 63.939616)
(11.540792 36.140793 39.36679)
(-2.926534 48.712653 47.769795)
(-23.148376 70.494629 53.374279)
(-58.381998 91.861383 53.700896)
(-101.04335 116.10012 51.880917)
(-152.60768 141.62631 49.10479)
(-211.42819 168.99029 45.228093)
(-276.57478 197.05223 40.499406)
(-348.17492 227.12919 35.547611)
(-425.49485 257.27778 29.22392)
(-507.87436 290.07163 22.942513)
(-595.7579 322.85994 15.443178)
(-688.18075 358.0591 7.6170269)
(-785.00094 393.85423 -0.78278651)
(-885.7831 431.1254 -9.6346957)
(-990.17415 469.63235 -18.795762)
(-1097.6682 509.29827 -28.111188)
(-1207.6806 550.08389 -37.406808)
(-1319.6672 591.75573 -46.507774)
(-1432.995 634.32432 -55.208209)
(-1546.7976 677.3804 -63.182661)
(-1660.6049 721.03852 -70.383347)
(-1773.0331 764.68159 -76.336934)
(-1884.3676 808.32946 -80.898755)
(-1992.8872 851.704 -84.034549)
(-2098.6363 894.56306 -85.28158)
(-2200.4788 936.46437 -84.773951)
(-2298.0677 977.52423 -82.360229)
(-2391.1646 1017.2135 -77.928758)
(-2479.5356 1055.3959 -71.660919)
(-2563.155 1092.0358 -63.752406)
(-2641.949 1127.1187 -54.461814)
(-2716.0166 1160.5712 -44.155949)
(-2785.5806 1192.5318 -33.132341)
(-2850.6968 1223.0971 -21.880987)
(-2911.6903 1252.4165 -10.680865)
(-2968.7707 1280.633 0.057295498)
(-3021.9815 1308.0035 10.004088)
(-3072.3157 1334.9501 18.895234)
(-3122.1167 1362.5682 26.809152)
(-3159.2939 1385.7241 33.411982)
(-3199.1992 1410.9757 38.939306)
(-3234.9988 1435.4781 43.365562)
(-3267.6864 1459.5154 47.062649)
(-3297.163 1483.0219 50.060069)
(-3323.8548 1505.8613 52.889651)
(-3351.6885 1529.6756 55.673068)
(0 0 0)
(0 0 0)
(0 0 0)
(0 0 0)
(0 0 0)
(0 0 0)
(0 0 0)
(0 0 0)
(0 0 0)
(0 0 0)
(0 0 0)
(0 0 0)
(0 0 0)
(0 0 0)
(0 0 0)
(0 0 0)
(0 0 0)
(0 0 0)
(0 0 0)
(0 0 0)
(0 0 0)
(0 0 0)
(0 0 0)
(0 0 0)
(0 0 0)
(0 0 0)
(0 0 0)
(0 0 0)
(0 0 0)
(0 0 0)
(0 0 0)
(0 0 0)
(0 0 0)
(0 0 0)
(0 0 0)
(0 0 0)
(0 0 0)
(0 0 0)
(0 0 0)
(0 0 0)
(0 0 0)
(0 0 0)
(0 0 0)
(0 0 0)
(0 0 0)
(0 0 0)
(0 0 0)
(0 0 0)
(0 0 0)
(-18.561096 13.796045 31.117689)
(-23.052503 17.372115 20.974315)
(-27.379303 18.704413 10.969717)
(-29.03562 19.451868 2.6754257)
(-27.820457 18.068806 -5.8989358)
(-25.255808 18.530517 -15.082722)
(-20.187634 11.465584 -24.667766)
(-32.696457 64.868852 52.249669)
(-42.265834 72.494283 29.828597)
(-46.450374 69.05754 14.234942)
(-46.738846 66.967533 1.770418)
(-46.509472 70.024639 -11.285982)
(-40.173292 68.183984 -25.525035)
(-33.769689 65.968831 -44.684388)
(-49.566313 96.35186 54.071666)
(-60.953648 93.65086 37.912781)
(-68.54647 97.480555 18.40518)
(-68.786084 96.899876 3.1728695)
(-67.1312 94.007731 -14.908872)
(-59.329926 94.072758 -28.177984)
(-49.050934 95.398625 -51.3203)
(-80.480054 135.06211 53.591087)
(-90.112158 137.66144 37.99206)
(-95.863415 136.33998 19.279087)
(-97.289726 136.51945 3.6413794)
(-94.649055 136.38592 -13.247509)
(-87.614924 137.03442 -31.612699)
(-75.223024 132.12689 -48.095794)
(-115.78142 169.30212 52.393677)
(-126.10682 170.75628 37.605962)
(-132.96372 173.78475 19.764636)
(-133.70654 172.7607 3.2003126)
(-131.41738 172.64203 -13.862343)
(-123.60329 171.11168 -29.183614)
(-112.86473 169.95912 -48.319237)
(-160.95591 202.89028 48.51993)
(-168.92638 204.1503 34.641548)
(-173.9635 204.65114 18.403371)
(-174.65145 206.18237 3.9583174)
(-171.49509 204.70597 -12.783804)
(-164.47789 204.17023 -28.125958)
(-153.33711 200.26122 -42.874884)
(-210.86011 235.36054 44.372862)
(-218.1963 238.86937 31.562112)
(-223.1459 242.84027 17.008728)
(-223.38155 243.35623 3.3886701)
(-220.84245 243.53658 -11.98585)
(-214.3092 243.74661 -25.545579)
(-204.07595 239.36843 -41.040516)
(-267.9155 269.31051 39.799156)
(-274.03217 273.03878 28.087594)
(-277.48525 274.85953 14.7809)
(-277.46029 276.13413 2.0376372)
(-274.12428 275.17298 -11.089944)
(-267.91027 273.04788 -24.196763)
(-258.29571 269.78006 -36.098247)
(-330.59661 302.90587 34.33717)
(-335.14079 306.85993 23.662381)
(-337.97646 311.34646 12.39792)
(-337.57375 312.14898 1.2532539)
(-334.61367 313.44946 -10.722043)
(-328.77986 311.9333 -22.344924)
(-319.8862 308.45871 -35.030366)
(-398.56931 337.10301 28.454531)
(-402.2778 341.80016 19.331216)
(-404.07838 344.51191 8.8783632)
(-403.40332 347.02887 -1.5374593)
(-399.84418 346.38969 -12.012846)
(-394.56053 344.61015 -21.990488)
(-385.88576 341.46327 -31.880319)
(-472.64849 372.25345 21.807801)
(-474.89379 376.99241 13.648555)
(-475.79021 381.27802 4.6135495)
(-474.09543 382.23144 -3.2132728)
(-470.83587 382.82253 -12.609417)
(-465.08028 382.04472 -20.738979)
(-458.17276 379.83372 -31.280581)
(-551.52213 407.65735 14.898048)
(-552.72094 412.98648 7.4134667)
(-552.23872 416.68615 1.0185129)
(-550.82216 418.78597 -6.821224)
(-547.07172 419.50768 -14.548054)
(-541.61706 417.6026 -21.423474)
(-535.19267 415.87723 -28.757723)
(-635.82827 445.03194 6.7197518)
(-635.44933 449.55127 1.2773583)
(-634.65778 453.97471 -4.4282862)
(-632.24975 455.53499 -10.327048)
(-628.43001 456.22756 -16.29868)
(-623.66696 456.06255 -21.675829)
(-617.1411 453.0705 -28.23897)
(-725.22026 482.55184 -1.3501456)
(-723.68435 487.30804 -5.7362725)
(-721.88005 491.4807 -9.8295159)
(-718.75634 492.87599 -14.300555)
(-715.21113 494.44085 -18.997373)
(-710.08932 492.84449 -22.992317)
(-704.68122 491.42688 -27.841552)
(-819.4506 521.65417 -10.317173)
(-816.76424 526.08553 -13.340635)
(-813.82743 529.72299 -15.947677)
(-810.64505 531.71281 -19.237928)
(-806.39907 532.37976 -22.018881)
(-802.02556 531.9097 -24.89667)
(-796.62405 530.27024 -27.981308)
(-918.53721 561.35294 -19.705026)
(-914.37037 565.11353 -21.170613)
(-910.89046 569.0715 -22.654364)
(-906.72576 570.23041 -24.07263)
(-902.76258 571.48286 -25.800774)
(-898.23211 570.74012 -26.945623)
(-893.40562 569.51659 -28.534967)
(-1021.6949 601.82251 -29.241601)
(-1016.6269 605.57509 -29.616152)
(-1011.958 608.60159 -29.463723)
(-1007.6239 609.94871 -29.833864)
(-1003.2328 610.92831 -29.74775)
(-999.09793 610.35369 -29.688989)
(-994.53351 609.32267 -29.629171)
(-1129.0046 643.34711 -39.137303)
(-1122.5807 646.07765 -37.941281)
(-1117.3383 648.93703 -36.795896)
(-1112.2768 649.81677 -35.504856)
(-1107.9599 650.58824 -34.154543)
(-1103.8178 649.93395 -32.709065)
(-1099.6888 649.06362 -30.980622)
(-1239.5041 685.16728 -48.752015)
(-1232.2769 687.38329 -46.550641)
(-1226.0542 689.45846 -44.059725)
(-1220.7498 689.95408 -41.537551)
(-1216.1507 690.42739 -38.782676)
(-1212.2409 689.80719 -36.046377)
(-1208.4289 689.05761 -32.753948)
(-1352.8674 727.50272 -58.291166)
(-1344.659 728.75445 -54.865111)
(-1337.8629 730.12735 -51.296008)
(-1332.0271 730.13328 -47.478837)
(-1327.4383 730.23578 -43.497564)
(-1323.586 729.38505 -39.540971)
(-1320.2093 728.59441 -34.75846)
(-1468.2475 770.0214 -67.205411)
(-1459.4408 770.36579 -62.81138)
(-1451.8709 770.8287 -58.212612)
(-1445.8868 770.2932 -53.315366)
(-1441.0897 769.79383 -48.167028)
(-1437.4362 768.74465 -43.125961)
(-1434.3862 767.83573 -36.983312)
(-1584.9715 812.47744 -75.337213)
(-1575.5382 811.73444 -70.072144)
(-1567.5956 811.29533 -64.622534)
(-1561.2569 810.04834 -58.74668)
(-1556.44 808.9699 -52.608866)
(-1552.8932 807.53961 -46.574902)
(-1550.2649 806.41149 -39.256666)
(-1702.1156 854.7605 -82.315444)
(-1692.4487 853.02166 -76.436654)
(-1684.0095 851.53138 -70.226085)
(-1677.6488 849.52241 -63.592391)
(-1672.7571 847.58578 -56.569)
(-1669.3852 845.74719 -49.821488)
(-1667.0971 844.25625 -41.479878)
(-1819.0325 896.83387 -87.960568)
(-1809.1258 893.73433 -81.595877)
(-1800.67 891.20927 -74.776102)
(-1794.1208 888.22437 -67.641517)
(-1789.1434 885.70788 -59.976709)
(-1785.926 883.31807 -52.534152)
(-1783.9966 881.34239 -43.398714)
(-1934.7491 938.12818 -92.087935)
(-1924.9559 934.05737 -85.192238)
(-1916.3776 930.48273 -78.193609)
(-1909.6605 926.58639 -70.550791)
(-1905.1067 923.1588 -62.344685)
(-1901.8752 919.88742 -54.606819)
(-1900.5451 917.21439 -45.00697)
(-2048.6531 979.03029 -94.17805)
(-2039.0246 973.83277 -87.182359)
(-2030.5565 968.93518 -80.112098)
(-2024.4775 964.42575 -71.599438)
(-2019.9172 960.11214 -64.184585)
(-2016.3806 955.8738 -55.76246)
(-2014.747 952.39981 -46.264359)
(-2160.2399 1019.4283 -94.253648)
(-2150.6508 1012.9111 -87.587957)
(-2142.5718 1006.8513 -80.034517)
(-2135.7646 1000.9629 -72.172939)
(-2131.8084 995.72273 -64.135589)
(-2128.381 991.04175 -55.368729)
(-2127.5052 986.70189 -46.339652)
(-2268.0443 1058.6321 -92.259625)
(-2259.3037 1050.7935 -85.657868)
(-2251.0422 1043.7835 -78.170248)
(-2245.3407 1037.1723 -70.667084)
(-2240.7523 1031.1528 -62.320619)
(-2238.0561 1025.5296 -54.262151)
(-2237.03 1020.1949 -45.042307)
(-2372.1222 1096.9952 -88.12019)
(-2363.6473 1088.1768 -81.533731)
(-2356.3509 1080.1517 -74.76793)
(-2350.5261 1072.8145 -67.14478)
(-2346.6025 1065.7438 -59.516486)
(-2343.8007 1059.4288 -51.587091)
(-2343.0195 1052.9179 -42.736479)
(-2471.5025 1134.5094 -81.724946)
(-2463.9824 1124.69 -75.711451)
(-2457.0342 1115.8525 -69.246809)
(-2451.7634 1107.6413 -62.141127)
(-2447.9787 1099.8377 -54.990241)
(-2445.36 1092.6792 -47.484232)
(-2444.7377 1085.2762 -39.216903)
(-2566.1559 1170.9551 -73.605621)
(-2559.2798 1160.396 -68.00793)
(-2553.0663 1150.8437 -62.118926)
(-2548.1534 1142.0072 -55.527693)
(-2544.7043 1133.4969 -49.073136)
(-2542.1927 1125.6618 -42.108747)
(-2541.669 1117.3046 -34.632535)
(-2655.5231 1206.4318 -63.835957)
(-2649.4687 1195.3691 -58.815714)
(-2643.8834 1185.2449 -53.528911)
(-2639.3924 1175.8498 -47.629113)
(-2636.176 1166.7607 -41.870353)
(-2633.7596 1158.2612 -35.588241)
(-2633.2616 1149.1535 -28.973232)
(-2739.494 1240.9715 -52.896929)
(-2734.1542 1229.5553 -48.459638)
(-2729.1812 1219.0352 -43.844339)
(-2725.0717 1209.2243 -38.640859)
(-2722.1028 1199.667 -33.658192)
(-2719.7495 1190.633 -28.145255)
(-2719.1959 1180.8866 -22.437265)
(-2817.8396 1274.4929 -41.197394)
(-2813.1236 1262.9461 -37.351203)
(-2808.7262 1252.1766 -33.423407)
(-2804.9685 1242.0911 -28.934041)
(-2802.154 1232.199 -24.792808)
(-2799.7948 1222.7276 -20.039741)
(-2799.1203 1212.5125 -15.279691)
(-2890.4391 1307.0345 -29.213528)
(-2886.274 1295.5247 -25.942339)
(-2882.3535 1284.6762 -22.678749)
(-2878.8568 1274.4011 -18.943294)
(-2876.1308 1264.3051 -15.572239)
(-2873.8018 1254.4861 -11.52825)
(-2872.8372 1244.0881 -7.8261158)
(-2957.3223 1338.4744 -17.33652)
(-2953.5146 1327.2356 -14.578119)
(-2949.9319 1316.3721 -11.977384)
(-2946.616 1306.1223 -8.9330872)
(-2943.9169 1295.9004 -6.2140186)
(-2941.2966 1285.8581 -3.1475249)
(-2940.0658 1275.4432 -0.32930595)
(-3018.2816 1368.9208 -6.0557074)
(-3014.7993 1357.966 -4.0552383)
(-3011.3544 1347.2182 -1.7607125)
(-3008.3205 1337.0089 0.3913127)
(-3005.3033 1326.7736 2.6375713)
(-3002.8344 1316.94 4.8817794)
(-3001.0598 1306.1622 6.8329226)
(-3073.8118 1398.3901 4.2530468)
(-3070.1317 1387.5651 5.8817383)
(-3066.8636 1377.1218 7.4986726)
(-3063.5394 1366.9658 9.3367924)
(-3060.7948 1356.8767 10.653664)
(-3057.2283 1346.8075 12.740656)
(-3055.5751 1336.5686 14.390862)
(-3122.9654 1426.0643 13.392739)
(-3119.5559 1415.7982 14.881099)
(-3116.193 1405.5557 16.143353)
(-3112.9758 1395.7343 17.410508)
(-3109.6982 1385.7438 18.527386)
(-3106.6478 1375.9571 19.702942)
(-3104.0534 1365.7706 20.424713)
(-3166.7984 1452.408 21.247664)
(-3163.0822 1442.5412 22.390556)
(-3159.6891 1432.7542 23.194375)
(-3156.1415 1423.0788 24.239977)
(-3152.7508 1413.2965 24.698671)
(-3149.2398 1403.7439 25.591664)
(-3145.8772 1393.8978 26.105698)
(-3204.9907 1477.2236 27.752504)
(-3201.1739 1467.8081 28.567577)
(-3197.3392 1458.1832 29.283689)
(-3193.6446 1448.7751 29.85161)
(-3189.8212 1439.2375 30.223624)
(-3185.937 1429.903 30.767991)
(-3182.1886 1420.4163 30.852782)
(-3237.5889 1500.1441 32.912064)
(-3233.391 1491.0948 33.569034)
(-3229.3552 1481.8336 34.07099)
(-3225.3143 1472.6314 34.48664)
(-3221.131 1463.3548 34.640838)
(-3216.9866 1454.2465 34.865959)
(-3212.6144 1445.1143 34.827928)
(-3264.9706 1521.2612 36.91046)
(-3260.5023 1512.4476 37.454355)
(-3256.088 1503.3681 37.886033)
(-3251.7473 1494.4396 38.063784)
(-3247.22 1485.4011 38.147055)
(-3242.6882 1476.5164 38.22265)
(-3237.8479 1467.7223 38.085195)
(-3287.2423 1540.2759 40.03954)
(-3282.3736 1531.7143 40.566677)
(-3277.6246 1522.9513 40.823048)
(-3272.9503 1514.1976 40.940409)
(-3268.1052 1505.3292 40.998373)
(-3263.2626 1496.6824 40.92309)
(-3258.046 1488.1614 40.757845)
(-3304.7847 1557.3223 42.604721)
(-3299.6628 1548.9455 43.029244)