/*--------------------------------*- C++ -*----------------------------------*\
  =========                 |
  \\      /  F ield         | OpenFOAM: The Open Source CFD Toolbox
   \\    /   O peration     | Website:  https://openfoam.org
    \\  /    A nd           | Version:  6
     \\/     M anipulation  |
\*---------------------------------------------------------------------------*/
FoamFile
{
    version     2.0;
    format      ascii;
    class       pointScalarField;
    location    "1.94";
    object      E;
}
// * * * * * * * * * * * * * * * * * * * * * * * * * * * * * * * * * * * * * //

dimensions      [1 -1 -2 0 0 0 0];

internalField   nonuniform List<scalar> 
3969
(
185.59338
1946.6781
-212699.39
-157606.35
1678.3643
2393.6556
-216167.05
-345133.57
-1447.5885
-473.25445
140.1833
97.400298
811.18049
2533.8293
3302.2586
-122173.86
-131655.66
-136836.4
-136371.6
-129785.61
-124393.94
-92327.232
1709.8642
1371.5264
1985.5076
3157.9727
3827.0386
5287.7949
5923.6033
7588.8353
7761.6221
9227.3056
10044.037
10780.108
11682.114
11893.381
12462.709
12273.119
12367.381
11721.509
10965.536
9708.7907
7848.4242
5730.8568
2732.3583
-396.36459
-4631.3512
-8714.3954
-13770.69
-19085.096
-24496.877
-30334.189
-36145.559
-41626.288
-47054.918
-51869.408
-55690.73
-59210.658
-60529.71
-62815.727
-61211.992
-61639.466
-56948.682
-54292.307
-49130.433
-41338.41
-36324.636
-26851.53
-335.12476
6231.7223
358.29046
7456.4696
3546.6453
5980.8457
4181.9151
4178.7499
2500.9684
1094.853
237.8378
-2560.2992
-3471.9975
-6154.931
-7053.1396
-8589.3225
-9472.2677
-9629.5093
-10610.109
-9445.1446
-9144.244
-7517.9175
-5278.4296
-2788.4781
1063.1622
5220.4558
10569.854
14813.135
21076.717
27772.435
34280.486
42089.78
48963.874
56102.567
62326.499
67905.413
72675.112
75033.893
76839.053
75940.111
73933.087
69979.382
63647.076
55741.898
45696.1
35000.669
23759.547
1594.1382
102.61632
-92.061635
24.501135
104.98085
-401.87905
762.22181
1170.8205
6568.6766
7555.278
-2729.0503
6631.5136
3873.9887
3166.0243
4916.8432
701.11654
4036.9547
-3629.8548
1488.3045
-2703.9337
-3145.4776
-4608.411
-5879.0737
-5661.1242
-6544.7427
-6062.16
-5558.7445
-4893.9954
-3371.2369
-1990.5145
381.22603
2579.3512
5968.7962
10491.617
16920.41
22237.53
27703.043
33134.051
38255.818
43243.001
47642.14
51652.775
54337.745
57522.509
62211.987
56146.549
55561.927
52196.175
47133.902
41419.032
33499.155
24882.913
15015.906
4599.4931
3292.1473
-290477.73
-243057.74
-286149.87
-259765.86
-252555.97
-228020.88
-273296.7
-611.35398
-5480.3073
-7295.8483
-12380.235
-16994.324
-21154.603
-24988.653
-28190.645
-30615.046
-32052.907
-31960.934
-36504.191
-33730.41
-33070.986
-31314.139
-29159.941
-26641.998
-23730.225
-20625.14
-17413.228
-14105.382
-10838.637
-7979.2901
-5281.4125
-2692.9484
-394.11179
1675.1668
3313.3521
4972.6776
5905.3407
7293.6675
7322.8646
8767.7936
9357.5292
9000.0106
8815.0766
8668.8359
8113.1581
7839.1638
7030.3718
7454.1149
4929.9012
5765.8511
2866.3829
4091.81
1114.1233
4683.1336
229.23517
-54.805573
-27.991856
202.77054
315.68936
412.72491
-154.04963
174.16131
126.26974
-697.72712
-831.76708
-470.07942
382.74043
-692.04601
-171959.51
-172142.01
-172094.71
-172601.25
-173112.64
-172851.63
-173618.27
-243561.72
-244841.61
-245255.74
-245652.82
-246004.32
-247285.91
-247836.79
1043.4819
-968.89705
348.5259
655.94344
524.13233
1708.153
1414.5164
2601.6038
2582.8792
3455.393
3516.641
3796.5277
4116.1694
4090.5112
3798.5708
3477.6022
3124.8723
2096.1263
1332.2848
121.35528
-1024.1475
-2396.1111
-3543.3891
-5107.9755
-6111.5523
-7310.4756
-8163.4292
-9032.52
-9457.1874
-9895.8689
-9784.6759
-9477.879
-9059.9298
-8064.0273
-7118.1988
-5761.4794
-4055.0266
-2903.8945
-947.83233
745.16725
3209.0081
3872.8519
7793.7571
8406.1069
10703.513
14771.928
14148.037
101.70213
-1224.9286
-609.04515
-1112.3288
-814.04268
-569.65248
-769.45429
-305.19627
-531.82169
-349.23702
-487.70169
-210.47373
-446.97173
-581.8478
-550.17426
-879.33099
-1165.6701
-1579.5844
-1870.4419
-2083.7282
-2435.1869
-2320.2327
-2671.1325
-2238.3257
-2100.5825
-1665.2955
-874.71434
15.96728
872.15574
2384.6355
3996.5773
5696.8038
7733.2251
9658.7219
11894.673
13627.725
16073.09
16453.339
19509.158
19004.177
21368.478
20667.726
22129.016
20290.294
21297.365
17172.165
7702.4798
556.09218
-778.05427
-266.9011
-864.33953
-1274.7589
-1133.6073
-1686.0209
-1434.4747
-2017.4527
-1651.1654
-2130.3891
-2070.1605
-2667.4767
-2716.0393
-2936.5768
-2952.3536
-2884.3474
-2776.9282
-2213.6886
-1933.3398
-1128.7005
-584.82103
943.05876
2199.3456
3870.7702
5627.3455
8070.0612
10219.947
13097.011
15861.035
18576.205
21573.417
24210.971
26961.775
29203.861
31514.991
32657.291
34700.824
34909.214
34736.936
34557.043
31750.091
30504.11
26068.187
22699.502
16293.286
809.37607
611.20886
-520.90363
-106.3885
-912.86732
-1258.4927
-1338.0464
-2170.0908
-2380.0227
-3030.5174
-3796.7272
-4239.0433
-4122.9402
-4951.8061
-4466.2339
-5209.4097
-3937.1476
-4339.9364
-3027.4757
-2900.7319
-1708.1934
-823.42876
1131.4584
2716.1681
4098.7278
5526.3554
7558.7115
9144.2933
10973.08
12984.371
14837.31
16889.187
18880.567
20556.169
22332.915
23707.646
24428.165
25583.765
25311.056
26438.444
26060.02
24671.497
21728.447
19998.266
14745.417
12965.891
5473.0803
-5253.8448
1142.3292
-386.63478
433.16141
-901.29976
-850.85717
-1340.6766
-2073.0774
-2009.449
-2571.6893
-2834.0895
-2045.4863
-2455.0836
-1851.4691
-1957.7474
-1283.8009
-1036.0251
-468.92443
105.26487
792.16475
1612.5575
2408.1717
3936.0573
5748.3024
5216.6271
5169.3873
4486.5196
3633.0838
2679.5643
1431.0106
31.052139
-1585.3496
-3330.4534
-5275.5466
-7043.5485
-9235.5612
-10827.105
-12901.697
-13935.127
-2755.4953
10748.688
7536.4227
6592.0497
4352.077
1800.313
-518.27161
-5367.7169
-4428.6514
2132.0047
654.66121
1563.7269
1333.8595
1440.3086
1147.2821
979.63245
524.77006
630.14621
47.589139
573.87287
327.88419
991.06533
1316.8243
1596.9662
2351.8098
2584.0181
3216.2939
3532.9379
3742.5491
3980.7481
3242.1583
2439.751
1830.6459
639.88544
-897.62995
-2224.4544
-4232.0344
-6264.0662
-8454.2304
-10739.912
-13116.721
-15290.259
-17347.271
-19449.559
-20689.347
-22234.936
-23238.642
-24052.027
-20941.604
-22086.435
-21789.231
-21568.206
-19836.374
-18243.302
-16925.694
-1631.1619
2855.8932
-123.67491
2205.5682
813.11781
1813.4559
1053.5878
1442.7257
322.28864
1538.7965
-171.35181
1694.9473
-455.43236
1028.0017
154.2044
801.35592
462.76089
589.12713
468.63437
130.10479
-168.05328
-672.38159
-1238.4642
-2683.9912
-3397.9895
-4184.7839
-4722.0483
-5425.144
-6112.7878
-6902.0267
-7613.8446
-8308.4601
-8728.1549
-9219.9428
-9157.042
-9464.5266
-8608.5273
-8639.1408
-6911.0403
-7289.179
-15832.923
-15242.351
-11968.268
-8566.3598
-3795.6614
-417.6779
6555.2298
15632.212
-1074.8054
-1239.5688
-1334.496
-1442.9071
-1229.0976
-1248.2864
-1119.0551
-397.54898
-701.47498
-800.7984
-858.17102
-833.27002
-686.12199
-748.01812
-43.860054
-253.82829
-323.86219
-390.93816
-339.30195
-306.79869
-399.46562
-20.183992
-170.3309
-107.69685
-140.22117
-111.86749
59.105308
-26.359348
-121.41467
-272.76183
-346.01038
-415.48434
-411.44605
-333.12438
-311.34572
1055.2401
507.08856
493.52435
269.45155
336.33577
335.51866
334.26994
836.41359
1227.8543
225.24022
-18.388894
-62.609626
-134.11819
378.92159
7036.3376
8186.6505
8012.8913
8791.4071
8658.1891
8016.5828
6859.5274
4644.6765
5105.3456
2960.5572
2321.4351
4569.7011
3072.9261
5648.9421
4699.4299
4723.4674
6862.2337
5251.9339
4459.6251
3615.6555
5697.8032
6080.9355
6345.5341
4078.1753
4788.0391
4603.1586
5727.5678
3430.5187
5821.0563
5993.9894
7460.1763
6056.1461
5958.4157
5714.692
7017.5885
5889.391
4548.2073
3056.9178
3890.8378
2866.9952
3502.6064
3183.141
4125.4185
4065.8283
5391.8797
4551.3291
5404.1147
4993.0815
5929.4285
3353.5856
3041.0915
1820.8739
1951.7415
737.61656
852.31649
944.45138
2001.751
1279.9263
2100.0677
1684.3135
2869.431
2975.2862
4410.9152
-361.72896
-171.83426
-1297.1477
429.67075
-1769.3341
-1779.9027
-2008.1406
-681.06485
-1712.5099
-890.14349
-2625.7308
-1138.063
-1356.9039
-279.95432
-4022.335
-2745.9635
-4221.6666
-2570.9017
-3320.927
-5416.5059
-2528.3919
-4578.6212
-5407.092
-4404.9283
-5325.0038
-5261.6689
-4111.9454
-4588.5047
-7044.0758
-6259.5902
-5789.4713
-6888.2346
-5314.9553
-7300.2094
-5065.9573
-7566.8948
-6781.9764
-7518.973
-7185.6866
-7790.8676
-7800.4245
-6789.5854
-8350.7558
-8472.0761
-7546.5537
-8761.876
-7703.9477
-8616.282
-6885.4239
-9350.4957
-8048.4957
-8585.667
-8858.7885
-8425.9989
-9256.3335
-7515.2597
-8676.456
-8871.094
-8291.5067
-8963.5295
-8453.1873
-9181.7114
-7646.4622
-8642.8864
-8235.5184
-7853.7806
-8814.8226
-7880.9626
-8927.2133
-6933.171
-7468.1253
-7397.0778
-7063.8699
-7578.5542
-6922.3587
-7941.429
-6325.0163
-5714.4421
-6005.8837
-5264.7753
-6187.553
-5385.5955
-6563.46
-4743.6876
-3616.6299
-3834.2126
-3264.2097
-4102.1856
-3255.276
-4496.5538
-2842.1213
-524.91911
-1096.7877
-467.11167
-1183.3411
-413.61875
-1583.3084
-171.45835
2941.8755
2370.1815
2918.4637
2130.7281
2926.22
1610.9091
2703.3155
7181.6767
6867.2869
6462.8086
6599.0541
6877.4541
6027.2874
6704.5949
11957.506
11571.756
10983.065
10975.705
10622.257
10827.949
11906.317
17222.105
16923.873
16664.53
16113.146
16604.065
16522.331
17786.762
23170.206
22359.098
22998.23
21929.317
22675.762
21351.454
23540.514
28539.808
29232.088
28120.955
28811.619
28379.476
28475.723
29330.063
35976.515
34815.938
35566.742
34799.731
35119.947
34571.635
35704.07
41829.484
42031.639
41507.933
41505.888
41316.6
41123.146
41940.99
48772.124
48032.457
48141.221
47825.996
47711.401
47386.256
48140.743
54499.725
54187.744
54051.831
53804.915
53587.378
53410.996
54107.599
60035.749
59469.391
59530.973
59211.967
58844.033
58604.711
59353.404
64320.915
64004.318
63922.692
63730.02
63545.328
63692.484
63623.095
68322.577
67692.341
67647.136
67382.805
66511.805
67289.195
67354.746
69246.842
69115.791
69200.528
69087.722
69479.312
62386.774
63343.444
63358.537
63869.797
63893.724
63852.935
63063.479
71783.202
69208.694
69001.559
68449.657
68661.35
68241.463
68228.787
68061
67856.322
66315.115
66007.46
65779.077
66084.205
65386.994
65601.514
65273.661
61219.21
60813.295
61010.16
60841.451
60503.652
60918.578
60125.366
54824.394
54403.986
54492.01
54538.534
54269.126
54541.799
53496.334
46683.391
46447.215
46541.826
46548.996
46293.21
46512.427
45497.919
36876.184
36815.17
36825.705
37002.475
36540.422
37241.802
35482.979
25925.739
26066.047
26020.307
26064.571
26154.544
26207.765
24648.333
15077.031
15452.064
15282.203
15700.524
15192.921
15574.655
13794.424
931.81834
1617.2854
1581.6517
1724.5038
1788.3637
1599.0183
1407.8913
-154896.13
-167642.41
-167521.72
-167756.79
-168329.78
-168164.39
-168519.22
-174202.9
-173574.69
-173823.17
-174254.85
-174446.05
-186607.57
-174317.16
-184845.45
-173406.66
-173323.69
-173817.14
-173781.14
-161128.85
-175179.38
-177045.32
-177461.38
-178463.24
-178162.89
-179461.02
-178727.47
-179549.62
-171668.02
-149608.06
-170146.31
-171063.24
-170154.98
-171069.58
-172028.56
-152748.77
-187178.1
-174305.78
-174341.88
-192524.9
-175008.41
-177331.69
-191581.98
-174918.84
-175829.66
-175804.09
-156246.66
-176089.65
-175939.35
1584.875
2130.988
2347.281
2549.1296
2753.5516
3244.8894
2025.1507
537.27178
401.73808
635.93141
1215.5442
858.21883
487.86487
1446.6604
2546.699
3175.2526
2916.0314
2699.0896
3954.6427
3318.7713
4308.2574
3102.959
2999.7105
2760.4361
3538.6012
3042.785
2742.4894
3586.2914
5334.8843
4884.4861
5618.1175
5264.1048
5926.3581
5533.226
5956.757
5110.2605
5052.713
4846.3328
4673.5995
5124.7975
4556.8623
5648.1198
7564.3142
6853.5321
7427.2411
7122.0991
7702.8978
7690.4117
7910.9961
7096.8423
6877.6675
6948.8248
6740.9738
6888.0232
6762.5597
7654.4554
8970.0264
8407.7056
8822.6362
8182.6779
9197.5558
8274.6656
9223.2625
9675.3223
8736.8812
9139.4415
8710.4199
9270.03
8954.6233
9593.1227
10187.349
9561.2699
10242.583
9412.5947
10241.996
9482.4947
9992.3701
10600.498
10227.789
10282.376
10307.465
10742.148
10630.404
11080.055
11170.954
10445.905
10721.424
10231.891
10960.784
10151.367
10440.296
11448.52
10963.706
11160.637
10837.638
11250.02
11299.421
11091.636
11138.753
10926.439
11199.075
11279.368
11768.503
10798.252
10978.369
11346.807
10609.153
10855.516
10295.344
11319.591
11317.698
10757.934
11411.593
10795.137
10793.711
10732.082
11223.988
10405.713
10612.681
10770.208
9810.5068
10304.736
9757.8599
10290.635
9841.1548
9624.4294
9616.1996
9010.6131
9238.8704
8719.0088
9516.1806
8851.6433
8897.2232
8402.5421
7650.9967
7819.3097
7549.0743
7924.2212
7423.119
7399.3553
6472.1489
5772.4887
6117.3394
5581.6703
6178.5732
5697.7321
5830.8536
4388.4694
3889.9118
3849.1299
3560.1222
3949.442
3454.6206
3739.4241
1511.9491
1000.6556
1026.3838
737.04524
1133.1014
775.1856
1314.4138
-1507.4083
-1822.7257
-2097.8359
-2198.7084
-1912.991
-2114.5704
-1504.3338
-5399.0084
-5405.9613
-5821.0839
-5832.4303
-5487.2139
-5649.7274
-4805.1246
-9076.1406
-9261.1193
-9738.7812
-9716.0667
-9340.3147
-9574.2058
-8481.1442
-13736.35
-13592.341
-14242.716
-13983.779
-13740.626
-13840.376
-12327.326
-18426.751
-18158.56
-18750.842
-18583.991
-18174.715
-18325.784
-16479.468
-23152.272
-22956.355
-23613.196
-23408.542
-22993.42
-23078.169
-20848.733
-28324.389
-27726.504
-28689.356
-28199.168
-27806.591
-27842.115
-25147.997
-32921.961
-32748.865
-33436.976
-32989.729
-32618.741
-32680.018
-29415.343
-37703.353
-37338.423
-38052.628
-37651.378
-37332.113
-37135.843
-33445.815
-41898.288
-41676.434
-42394.38
-41932.456
-41474.877
-41423.353
-37114.169
-45549.37
-45506.654
-46062.524
-45569.749
-45416.701
-44996.345
-40553.876
-48475.564
-48545.287
-49007.812
-48700.389
-48409.982
-48311.461
-43041.562
-50876.419
-50866.573
-51164.233
-51116.728
-50570.332
-56539.757
-50752.165
-57842.106
-58650.263
-59424.541
-59110.305
-58360.667
-52100.555
-42601.864
-51024.951
-52309.521
-52092.757
-52351.583
-51714.553
-53163.489
-46187.55
-51072.142
-51138.191
-51746.756
-51480.654
-51757.583
-51407.932
-44927.335
-49547.534
-50799.002
-50521.237
-50424.154
-50181.236
-49713.166
-43306.493
-45739.728
-46187.811
-46463.08
-46643.923
-46765.47
-46921.296
-40694.359
-42513.271
-43456.638
-43650.188
-43240.999
-43322.986
-42936.791
-36959.562
-37561.873
-38596.934
-38193.207
-38569.352
-38699.65
-38494.35
-32615.936
-31450.927
-31505.355
-32093.087
-31910.915
-31998.139
-31472.702
-27340.146
-25678.665
-27212.077
-26883.27
-27180.441
-26913.286
-26952.451
-22131.508
-20356.076
-19468.507
-19744.227
-19510.457
-19596.352
-19294.851
-17107.043
1200.2518
-48.597808
-225.37203
-374.52644
-396.00778
-89.905652
479.28439
-557.00716
-28.676235
191.63009
845.08847
554.26179
1526.4509
905.10916
1505.6329
693.75928
886.49351
578.84319
-913.04522
-619.66159
-2603.0964
-3073.9304
-3977.7078
-5215.2516
-5416.5492
-6467.4654
-6356.7177
-6624.6461
-6052.6773
-5216.6692
-3953.1246
-2304.834
-352.0418
2707.0218
5700.4208
8838.7368
12373.306
16037.119
19728.389
23122.235
26531.147
29217.209
31525.143
38507.167
35446.037
35606.373
35152.101
34343.536
32783.86
30366.336
27657.35
23966.509
20216.735
21949.778
-1115.15
112.5903
-1225.545
-702.6872
785.84516
-216.93964
1208.1454
1296.4411
1657.6521
2648.0576
1982.4594
3201.3935
2660.0322
2855.6293
3234.7967
3090.0543
3684.9863
3487.6286
3970.0022
4179.577
4379.6489
4797.8649
4963.9865
5409.3293
5836.803
5559.5141
4921.9926
7541.649
8167.3731
8890.8403
9673.9531
10389.806
11213.743
11804.287
12503.24
13633.904
12619.037
13353.51
13397.088
12376.488
11878.552
10321.766
9135.0385
6649.9117
5296.3254
-356.51897
4869.7095
-113.18651
-364.0179
-1558.9814
5.2995203
-1724.1465
-150.26971
-1012.9956
-877.65652
-503.44985
-1000.8208
-734.38533
149.516
2008.4803
4288.101
4396.4685
5124.7938
5913.1023
6336.4856
6718.2694
6904.6032
6828.4651
6539.7917
6072.8595
5172.2367
4534.0981
3204.1703
2239.5676
342.3369
-602.28787
-2221.8871
-3541.8115
-4903.3503
-6056.8935
-7152.3297
-8088.9088
-8854.9142
-9376.4419
-9865.3029
-10132.761
-10198.851
-10189.736
-9981.0619
-9837.4871
-8780.3268
-8934.0553
-7379.6681
-6172.9047
282.68041
492.18392
-1231.2711
1036.0974
-1546.2097
1014.5732
-2547.6628
1015.1443
-1352.0811
494.17432
979.39332
750.70464
2398.9889
6727.4045
6444.747
7610.9948
8007.9755
8113.624
8396.795
8213.5548
7727.014
6969.1019
5730.3199
4610.0494
2756.7794
1187.3822
-1643.3178
-3761.3833
-6633.5209
-9350.9626
-12083.758
-14725.163
-17257.119
-19699.082
-21631.964
-23425.276
-24654.972
-25714.298
-25706.099
-25801.516
-24726.029
-23879.334
-21097.015
-19661.074
-15160.384
-13289.921
-11716.092
823.55116
-66.28218
-77.432265
388.09934
-385.7948
167.73773
-185.0105
1945.9302
-534.07211
3013.027
-191.57328
2994.8096
2032.8389
2974.1698
3232.7188
3855.606
4158.8588
4618.8561
4681.4671
4633.8007
4220.2954
3556.1792
2910.5983
1429.9091
-452.70166
-3017.4475
-4885.9671
-7374.2794
-9771.7619
-12269.5
-14659.446
-17094.011
-19313.79
-21229.596
-22795.166
-24176.904
-24885.789
-24986.209
-24937.113
-23713.322
-22463.791
-19636.927
-17308.856
-13088.367
-9296.8449
-4857.8396
-6670.2966
2100.726
2139.9995
-1076.7912
2215.5679
-668.40951
475.16259
1699.6749
-1751.3153
1635.2413
-88.249379
317.02274
993.70688
-798.63767
1106.272
257.17646
778.93436
1077.1542
1157.8695
1496.6543
1476.9828
1536.5898
1375.3465
1248.7173
693.34964
-356.85581
-220.92284
-582.02089
-1042.7528
-1534.8837
-2030.1643
-2402.6432
-2949.5081
-3190.248
-3179.9506
-3221.6412
-3233.3381
-2280.7604
-2356.1079
-706.48577
-240.61646
1318.1526
2197.9169
4076.4775
5052.0304
7365.289
6471.5445
5369.0447
4840.6395
11.604769
2989.5593
8.6362831
3144.5209
907.07712
2117.7962
129.69695
1859.4912
-15.118179
1874.2022
3424.0432
1273.8552
2713.0179
966.64107
1772.1269
635.36213
436.878
-141.74719
-865.22646
-1621.4438
-2568.9519
-3642.2709
-5188.7054
-6470.1289
-6720.1749
-7820.8371
-8524.2334
-9478.2134
-9946.2247
-10499.697
-10940.181
-10901.988
-10716.915
-10143.321
-6489.6111
-9015.4649
-6325.1835
-4920.5171
-2169.8419
529.43368
3848.1758
7083.5658
11162.382
14021.185
18217.129
21561.288
-651.95273
-77.324779
-179.19323
-21.802856
-67.905488
-199.00329
-102.79587
-540.73315
-605.00376
-869.80059
-861.25887
-1001.9512
-836.41133
-231.98309
98.268678
-52.447324
344.91425
215.1947
296.99869
399.26562
824.23531
909.41693
603.50003
674.7126
856.26259
747.19193
969.4615
961.49042
1110.2551
940.20062
1373.0795
741.97881
1365.895
770.18716
1023.7952
1589.5702
1684.0139
1251.8809
2262.4072
1682.1644
2063.7087
2339.3896
1936.1998
1356.8064
2154.4558
1383.5128
1597.9014
1648.0715
1500.103
2069.0342
2467.2923
1917.7287
2719.2861
2635.2333
2402.0195
2485.6473
2411.0563
2040.2048
2041.3017
2602.0215
2113.8091
2469.9883
2018.7976
2154.9427
2189.0886
2048.9472
2298.9255
2142.9583
2251.9846
1762.2878
2080.0394
2065.3585
1856.6523
2505.6197
2236.5966
2454.8004
2079.5129
2006.2684
1572.6323
1624.584
1611.0694
1422.2927
1625.7895
818.79448
1461.5761
1357.8218
973.03016
1712.128
1504.0496
1732.186
1190.5513
1088.0745
492.72258
892.57067
607.15663
814.52445
143.12219
105.03048
86.381391
92.047202
-350.65755
124.07121
-381.44421
278.63023
-685.93667
-362.90071
-799.0869
-854.47589
-474.09724
-631.03349
-703.97424
-1462.39
-1504.2437
-1934.5059
-1979.2942
-1628.2161
-1955.3302
-1855.821
-2565.4964
-2326.7367
-2607.4985
-2714.4162
-2391.9063
-2558.5177
-2225.5749
-3092.95
-3097.4315
-3535.4746
-3647.6435
-3275.4699
-3372.9635
-3363.2412
-4184.3971
-3975.3213
-4191.0496
-4344.2024
-3877.9443
-4142.269
-3846.7696
-4571.3196
-4376.3355
-4745.0005
-4780.4233
-4531.784
-4615.3732
-4468.7096
-5188.9532
-4891.6602
-5244.7533
-5225.2737
-4864.8697
-4994.4135
-4747.2275
-5367.0868
-4773.6175
-5248.028
-5009.7474
-4922.3559
-4977.2976
-4992.5923
-5320.0752
-4759.9054
-5223.8158
-4867.6207
-4694.674
-4771.5087
-4674.4893
-4807.4878
-3806.0324
-4644.0488
-4119.3418
-4048.8715
-4211.3847
-4392.7804
-4166.2776
-3205.2093
-3864.6005
-3087.9773
-3411.367
-3449.5765
-3747.1805
-3137.8824
-1814.1316
-2800.3175
-1778.1127
-2034.5669
-2225.4688
-2221.2157
-1370.2755
-53.312487
-885.56863
-564.04507
-360.59079
-652.90899
-1027.7099
512.60901
1654.9502
484.88716
1921.6747
1508.2369
1090.7792
898.2168
2735.627
3856.9678
3249.3287
3836.264
3477.1121
3279.4678
2909.4834
5144.84
6413.0821
5287.5121
6150.0581
6104.4049
5594.4865
5227.6418
7833.2478
8745.0482
7922.2296
8810.8605
8470.3292
7967.7114
7642.7673
10634.113
11412.018
10626.233
11190.199
11118.178
10568.851
10315.073
13493.821
14101.254
13114.939
13893.786
13715.604
13146.317
12750.328
16301.083
16326.327
15789.793
16155.99
16188.059
15657.056
15586.602
19181.85
19248.653
17919.419
18533.115
18523.105
17890.486
16983.144
19530.958
19970.94
19472.209
19580.057
19703.283
19302.668
18853.747
28530.247
21965.1
24771.732
25496.042
25855.027
24462.244
25832.954
25475.52
23264.357
23727.416
23488.036
24060.754
23495.704
23473.37
27368.727
25076.109
24082.23
24169.254
24673.538
23847.825
24290.972
27695.941
25126.542
24917.244
24606.246
25347.57
24682.207
24841.885
28098.909
24984.651
23967.6
23946.025
24694.853
23802.608
24797.994
27952.486
25657.867
24947.712
25157.539
25399.757
25144.928
25442.348
27278.839
23568.809
23006.648
22469.7
23494.781
22776.214
23484.19
25775.653
23068.421
21869.404
22832.588
22815.811
22685.972
23089.056
24203.202
22496.286
22930.102
22205.975
22955.395
22482.946
22889.57
23069.206
20736.842
19803.059
20195.038
20096.657
20124.261
20082.835
20279.551
-795.02955
185.27976
28.584133
186.81176
-142.03509
36.389288
-591.3224
-1512.2736
-1306.7863
-1394.4408
-1071.9576
-1011.0625
-684.91078
-651.59351
-972.83487
-1272.344
-1255.6302
-1305.3532
-954.39385
-1242.3904
-417.27784
-1004.4128
-745.66459
-792.4703
-401.52247
-779.13474
-240.99264
-951.41925
-63.249368
-534.13359
70.374978
-573.25526
279.01907
-502.3041
430.90549
-274.97172
-228.4428
-677.3781
-139.88285
-764.81906
-148.1622
-248.5704
280.70673
-61.460274
702.15237
115.08064
607.85133
466.82647
231.53005
261.58318
476.5708
-10.199133
517.78819
278.0557
319.12496
457.25075
521.75633
165.69564
692.16603
514.17879
114.63133
564.46534
207.69847
438.01926
740.63467
807.51255
797.81853
1023.8931
818.29804
1026.8743
604.22608
595.94526
724.2721
854.62643
338.78454
588.48777
267.45894
304.79002
725.10155
820.2909
790.89881
970.55588
883.97892
948.41677
314.66902
607.63566
1037.5432
1198.5526
710.43133
953.35146
248.42697
289.21998
240.86665
875.2422
449.44992
359.88858
689.50941
116.1337
387.45381
400.00839
687.64056
648.62233
876.07308
764.20851
359.05029
284.19957
-285.93025
708.10226
350.04907
444.66267
339.02616
-218.62814
-93.209873
201.4041
595.09515
210.39395
517.29085
383.90589
307.25546
114.52131
24.629852
546.97819
333.25397
417.12988
342.77023
-99.702978
-71.034411
-81.287822
572.88968
146.06518
493.04932
223.61241
128.94671
224.07183
195.35787
641.6811
498.36361
489.81663
323.52858
345.95561
275.82348
81.482149
745.90926
424.89408
611.11001
552.93419
541.26422
766.55228
808.98625
1089.2783
938.85251
1103.4859
715.02128
1068.0126
1155.6197
904.01387
1245.8618
1277.3394
1109.9087
1206.4933
1688.2858
2119.8535
1766.4438
2020.1394
1815.2419
1833.4446
2109.876
2629.5719
2744.6252
2367.3858
2441.2715
2391.4272
2441.4656
2579.7243
3323.5027
3977.8799
3668.8408
3934.889
3645.3928
2924.1247
3864.81
4654.794
5842.4441
4593.5885
4665.698
4310.5508
5126.6666
5037.3865
6564.9592
7617.7159
5524.0274
5615.0223
5923.76
5790.7988
6611.1796
7881.2869
8723.9799
7750.8067
7807.211
7082.7359
7350.5869
8282.7455
9485.4316
11183.379
9283.9802
8939.5538
8994.7429
9150.991
10033.637
11484.973
13209.724
10856.412
10941.387
10834.9
10806.75
11850.511
13627.85
15412.482
13030.225
12814.426
12763.139
12713.003
14045.139
15726.624
17939.396
14866.877
14733.935
14622.769
14737.328
15889.878
17907.802
19932.598
16780.509
16576.364
16663.345
16581.064
17981.902
19884.772
22355.252
18605.607
18451.661
18445.525
18280.863
19543.085
21830.469
23770.347
19926.397
20068.282
19970.133
20031.579
21675.296
23668.013
26090.95
22124.85
21569.743
21689.105
21171.344
22817.727
24564.354
26620.476
21491.094
22378.246
21714.301
22327.985
23567.584
25831.939
28145.805
23884.993
24017.649
23593.4
23384.609
24892.711
26335.222
27580.632
22023.459
23357.456
22551.558
23313.053
24417.173
26166.97
27610.545
23445.106
23737.366
23179.578
23174.549
24085.519
25559.49
26513.383
21326.204
22520.681
21489.352
22137.864
23000.88
24351.7
24767.421
20982.814
21518.359
20923.241
21411.96
21818.023
22598.74
21692.569
17949.768
18594.016
17939.498
18116.678
18348.758
19399.649
20181.574
17042.614
17424.153
16870.282
17264.71
17697.788
17965.477
13375.074
10538.813
10534.639
10157.14
10356.648
10136.681
10255.699
8290.5759
5726.1777
6158.2957
5675.9342
5961.6481
5862.8206
6831.5415
70.230653
533.96331
412.98968
409.01128
349.34229
318.02292
85.098367
-894.25283
-910.25338
-872.23616
-925.23747
-631.70281
-801.86637
-389.67165
-611.85774
-1195.6862
-1125.5152
-1230.2275
-1180.9979
-1257.6512
-613.57562
-950.6843
-760.66964
-270.26356
-84.497382
-25.240394
279.15015
-233.2195
-437.1537
-1001.7681
-936.36343
-1835.0586
-1353.815
-2324.5881
-1035.2362
-689.40045
-1639.5434
-1277.4741
-1122.2699
-1035.6174
-494.07779
-802.42794
-755.68031
-1282.5949
-337.49174
-1029.9997
-469.31376
-1405.0044
-849.61356
-599.42582
-1506.3578
-1536.2444
-1876.951
-1937.8534
-1695.0344
-1507.5416
-1019.1604
-1663.0249
-820.75709
-1054.5159
-410.84346
-931.15374
-884.82467
-95.904086
-1379.8025
-1251.5768
-1629.9447
-1707.9899
-1729.8691
-1669.0692
-466.20025
-1753.0502
-1149.8173
-1437.5951
-1065.8703
-1351.1846
-1135.6213
360.38816
-1245.5042
-867.50854
-1112.8107
-957.74765
-1044.559
-1011.1526
401.03612
-1279.9553
-1332.3739
-734.60914
-666.85336
-1067.7677
-412.01375
-352.57073
-125.58943
142.32102
-489.5312
5.6559726
-235.1899
-31.548202
251.36809
-6.1802713
322.31996
158.20466
-151.27133
-37.97201
-78.109937
571.15735
716.16884
750.43361
570.55778
590.37291
364.96023
606.84915
1277.6492
991.01605
1178.3746
1153.0682
707.31884
832.36339
854.77539
1563.5777
1306.9421
1717.428
1440.1341
1370.932
1403.2306
1466.3589
2280.199
2031.0326
2199.4458
2049.1007
1833.1272
1764.7644
1903.4841
2653.9597
2297.0542
2700.1288
2546.0861
2307.6857
2454.6049
2559.611
3532.1758
3175.0102
3490.8026
3204.3186
3056.3637
2926.138
3096.1922
4238.6715
3437.5381
3906.8647
3881.5085
3369.1584
3560.9947
3758.3392
5236.4545
4234.6137
5001.3332
4356.7485
4311.4474
4302.9721
4492.4114
6030.5318
4868.9587
5490.5382
5143.6983
5173.509
4770.0304
4798.8823
7318.6962
5575.5436
6432.0884
6075.022
5994.8736
5515.9152
6048.8794
8433.3304
6298.5242
7427.6095
6457.8818
6843.2762
6352.1493
6241.435
9892.6326
7325.2872
8298.9481
7715.7011
8170.9838
7105.3315
7769.9392
11082.121
8453.971
9069.7045
8620.4531
8824.1435
7872.4854
8382.4497
12739.057
9664.7824
10463.91
9345.5101
10135.916
8928.3305
9482.5185
14229.681
10463.505
11056.33
10545.747
11106.398
9723.7668
10520.365
15616.229
11669.726
12508.691
11814.74
12237.196
11107.033
11598.639
17320.865
12952.953
13552.149
12645.027
13324.979
12023.639
12535.462
18586.776
13993.749
14478.708
13917.812
14472.509
13288.443
13568.174
20002.726
15090.816
15643.568
14928.564
15452.944
14245.37
14474.83
20853.271
15989.321
16499.693
15837.228
16433.904
15516.702
15191.688
21977.797
17074.524
17379.046
16594.821
17312.066
16087.673
15696.28
22018.125
17190.526
17501.262
17199.25
17818.71
16788.951
16078.658
22467.442
17946.011
18309.386
17636.613
18230.978
17166.744
16084.842
21352.286
17861.312
17469.223
17580.556
17909.813
17229.354
15791.133
20899.347
17146.938
17178.131
17118.034
17516.456
16873.994
15036.707
19626.862
17342.923
16463.436
17079.304
16754.029
16276.5
13916.897
17628.452
14421.226
14284.744
14700.428
14644.802
14802.571
12588.234
15574.739
14004.587
13475.287
14056.297
13617.089
13544.652
10274.986
12810.635
10685.808
10187.868
10755.75
10291.07
10575.6
8450.4423
9697.2285
8096.0447
7821.3588
8480.7629
7760.3434
8780.5822
5507.9154
5267.6262
3872.1049
3909.2593
4310.6605
3746.4263
4332.8724
1933.1055
-3413.4461
-4515.4043
-4362.5283
-4186.8386
-4215.9394
-3773.7607
-4127.9401
263.06354
411.25248
255.50382
349.67109
234.19498
279.31869
-10.278535
-427.98145
-92.611013
5.4229615
288.01991
248.11308
437.05511
546.4809
-424.92653
-1003.4918
-1239.0699
-1233.1656
-1187.5486
-1130.6793
-1005.3379
-571.03618
184.15864
598.19602
905.04429
869.53069
960.94519
444.92687
-748.56491
-1177.248
-1641.3222
-2201.3155
-2224.6266
-2270.2993
-1387.1963
-734.99051
-397.62765
-205.83492
638.83598
713.85061
693.89684
438.85441
-690.8772
-1144.6363
-1809.548
-1577.2962
-1941.6513
-2172.0649
-1404.4939
-233.67285
-468.8982
-541.1298
11.079948
-324.49481
575.61299
179.60728
88.029791
-563.34645
-388.58582
-1264.9868
-200.60869
-1310.3809
-472.32299
127.43561
-9.556085
-841.31186
-54.176903
-521.81746
242.06571
518.58248
1003.7544
-481.18518
1096.679
-154.31321
942.90711
497.08011
332.54315
1064.7577
980.07017
682.39176
-248.53688
966.89821
409.44069
1646.3112
1954.75
225.32552
969.38205
1057.8129
1966.5057
1345.0326
1438.344
1978.6258
1490.5694
-173.74438
690.08376
1228.5557
1231.9421
1969.3291
752.74555
998.78246
2211.8022
1146.1961
2383.0766
1494.7539
2258.186
1462.3475
1789.7397
2510.5882
2083.3522
2270.2333
2207.0468
2869.4207
1984.4439
1880.0825
3173.28
2392.7115
3065.1279
2806.3027
3582.6172
2810.2971
3017.4181
3856.3066
3164.2083
3545.686
3398.9112
4080.8064
3245.7005
3085.3394
4278.0965
3443.4542
4141.7256
3971.2899
4527.1011
4106.9772
3913.1075
4882.0214
4154.3169
4730.4795
4318.9302
5057.2707
4497.7683
3933.2204
5167.8748
4417.3812
4833.41
4821.2473
5304.4199
4960.3594
4511.568
5672.085
4562.4396
5373.9903
5177.4154
5568.3605
5184.8016
4673.0621
5456.5522
4971.3034
5439.4299
5323.7229
5365.8036
5858.4608
4835.3229
5638.1019
5216.1465
5339.6503
5462.9474
5719.452
6102.1309
4752.1877
5759.4398
4900.6343
4931.5057
5578.3026
5074.8969
6438.412
4953.6287
5471.2622
5052.3458
5172.9072
5498.9806
5372.0766
6434.9351
4625.8451
5312.4856
4868.2374
4648.6566
5305.8386
4588.2464
6796.8085
4235.3639
5209.3036
4482.4416
4602.6512
5188.3393
4352.5224
6950.0016
4037.0034
4668.4503
4408.8768