/*--------------------------------*- C++ -*----------------------------------*\
  =========                 |
  \\      /  F ield         | OpenFOAM: The Open Source CFD Toolbox
   \\    /   O peration     | Website:  https://openfoam.org
    \\  /    A nd           | Version:  6
     \\/     M anipulation  |
\*---------------------------------------------------------------------------*/
FoamFile
{
    version     2.0;
    format      ascii;
    class       pointVectorField;
    location    "1.99";
    object      lm;
}
// * * * * * * * * * * * * * * * * * * * * * * * * * * * * * * * * * * * * * //

dimensions      [1 -2 -1 0 0 0 0];

internalField   nonuniform List<vector> 
28033
(
(0 0 0)
(0 0 0)
(4680.4195 219.42924 -98.954267)
(4505.178 -1153.9883 -81.188907)
(0 0 0)
(0 0 0)
(4500.9031 -1083.5186 -82.114753)
(4675.9015 290.62821 -100.90623)
(0 0 0)
(0 0 0)
(0 0 0)
(0 0 0)
(0 0 0)
(0 0 0)
(0 0 0)
(0 0 0)
(0 0 0)
(0 0 0)
(0 0 0)
(0 0 0)
(0 0 0)
(0 0 0)
(0 0 0)
(4668.2982 132.15117 -98.649262)
(4656.0375 45.269589 -98.52927)
(4643.9521 -40.987394 -97.72061)
(4631.9705 -126.59597 -96.682573)
(4620.2584 -211.56326 -95.267142)
(4609.0398 -296.07186 -93.447352)
(4598.0419 -380.22854 -91.63024)
(4587.6094 -464.36624 -89.602161)
(4577.4528 -548.54557 -87.645422)
(4567.4714 -633.18309 -85.780477)
(4557.8277 -718.31137 -84.217235)
(4547.9849 -804.12596 -83.039739)
(4538.2025 -890.65314 -81.961449)
(4527.9858 -978.0538 -81.460406)
(4517.1485 -1066.1266 -81.276881)
(16.251081 26.173382 26.666342)
(21.578559 39.081038 36.14224)
(29.456849 53.157768 41.960869)
(40.252546 67.408249 45.354171)
(52.999253 81.304754 46.494891)
(68.657508 95.54489 46.674727)
(86.742286 109.17158 45.767597)
(107.23556 122.38282 44.178044)
(130.01897 135.0739 42.158188)
(154.90152 146.96468 39.790174)
(181.54878 158.04751 37.223502)
(209.85142 168.31152 34.5616)
(239.50124 177.64914 32.092245)
(270.39138 186.04811 29.59542)
(302.03501 193.45998 27.494657)
(334.37268 199.96781 25.623761)
(367.15732 205.62183 24.224852)
(400.26423 210.37739 23.138348)
(433.39067 214.38472 22.58719)
(466.52701 217.67337 22.418646)
(499.55822 220.37546 22.711926)
(532.43845 222.53993 23.360937)
(565.14335 224.30519 24.350827)
(597.73691 225.74396 25.588517)
(630.21765 226.94996 27.037477)
(662.73039 228.02749 28.540186)
(695.3179 229.03058 30.084125)
(728.15459 230.07992 31.534358)
(761.33987 231.16157 32.833774)
(795.00402 232.36495 33.895529)
(829.30666 233.74615 34.653969)
(864.33451 235.26387 35.09619)
(900.19826 236.94969 35.144862)
(936.95646 238.75774 34.899917)
(974.73209 240.74057 34.170273)
(1013.5331 242.83781 33.116436)
(1053.3666 244.98734 31.755)
(1094.2926 247.20082 30.095711)
(1136.2202 249.35879 28.1653)
(1179.169 251.50258 26.074515)
(1223.0444 253.52945 23.859901)
(1267.8295 255.42179 21.561428)
(1313.3992 257.12554 19.268094)
(1359.6853 258.61328 17.058994)
(1406.5916 259.85713 14.953191)
(1454.0061 260.82278 13.059757)
(1501.8385 261.50192 11.399239)
(1549.9712 261.87812 10.049764)
(1598.3122 261.9477 9.0450844)
(1646.748 261.71389 8.437855)
(1695.1933 261.18933 8.2611037)
(1743.5504 260.38893 8.5473993)
(1791.7473 259.34117 9.3192592)
(1839.7121 258.07804 10.588635)
(1887.3977 256.63839 12.360556)
(1934.7692 255.07086 14.623915)
(1981.8142 253.42809 17.357455)
(2028.547 251.76665 20.526432)
(2075.0022 250.1507 24.077589)
(2121.2476 248.64558 27.953478)
(2167.3754 247.327 32.056599)
(2213.511 246.23646 36.33143)
(2259.8029 245.48127 40.618823)
(2306.4353 245.08681 44.866387)
(2353.5903 245.13124 48.925735)
(2401.5317 245.64975 52.62747)
(2450.4337 246.67999 55.951469)
(2500.566 248.24509 58.736767)
(2552.2632 250.40206 60.84142)
(2605.6275 253.02126 62.120237)
(2661.0021 256.19459 62.591849)
(2718.5294 259.81295 62.202366)
(2778.4041 263.79044 60.862153)
(2840.7795 268.11964 58.545577)
(2905.797 272.62191 55.291673)
(2973.4657 277.2574 51.093335)
(3043.9099 281.83415 46.028938)
(3116.9623 286.25517 40.156231)
(3192.7653 290.33807 33.559891)
(3270.9792 294.0224 26.316752)
(3351.6312 297.00874 18.618522)
(3434.4521 299.30643 10.425879)
(3519.2316 300.71761 2.0049282)
(3605.7589 301.17344 -6.6954117)
(3693.7617 300.56737 -15.440494)
(3782.9719 298.71208 -24.19255)
(3872.9935 295.77278 -32.858044)
(3963.7652 291.39647 -41.367169)
(4054.6112 286.11137 -49.64659)
(4145.7992 279.15549 -57.668177)
(4236.3367 271.7043 -65.381239)
(4326.8034 262.53286 -72.674804)
(4416.2813 252.97297 -79.721244)
(4504.9595 242.54142 -86.19713)
(4592.9902 231.4972 -92.514018)
(8.9743116 -29.673623 -36.272478)
(19.006662 -41.043086 -39.393128)
(26.39538 -57.001323 -50.615214)
(34.53187 -68.699767 -53.205282)
(47.106363 -83.421826 -56.305518)
(61.172983 -97.65342 -56.883378)
(77.737487 -110.89738 -56.718369)
(96.662355 -124.60231 -55.341266)
(118.0688 -137.61493 -53.346994)
(141.07943 -149.95804 -50.736872)
(166.33644 -161.96608 -47.58908)
(192.92413 -173.02601 -44.124908)
(221.1785 -183.6803 -40.249117)
(250.52129 -193.49348 -36.310242)
(280.94541 -202.68745 -32.09015)
(312.15107 -211.28245 -27.93472)
(343.93459 -219.18035 -23.73595)
(376.11042 -226.70619 -19.694769)
(408.53277 -233.71782 -15.837187)
(441.05506 -240.35766 -12.254695)
(473.48663 -246.81914 -9.0067734)
(505.85671 -253.04435 -6.1726268)
(538.01166 -259.22171 -3.7812645)
(569.9971 -265.41908 -1.8599185)
(601.78862 -271.68254 -0.44180368)
(633.47369 -278.13069 0.46335525)
(665.02677 -284.74634 0.84676993)
(696.67171 -291.6385 0.79107967)
(728.36371 -298.77108 0.24429721)
(760.36876 -306.19664 -0.64604898)
(792.70617 -313.87843 -1.9073115)
(825.55081 -321.83489 -3.4150168)
(858.97798 -330.00276 -5.1499875)
(893.14698 -338.37283 -7.0059319)
(928.09581 -346.87472 -8.9206209)
(963.93818 -355.49662 -10.87123)
(1000.7412 -364.12287 -12.675926)
(1038.5789 -372.8025 -14.37609)
(1077.3722 -381.38395 -15.895683)
(1117.2226 -389.89027 -17.179174)
(1158.059 -398.24795 -18.192858)
(1199.8873 -406.4377 -18.898282)
(1242.6302 -414.42802 -19.283922)
(1286.255 -422.19901 -19.32594)
(1330.6708 -429.74542 -19.023006)
(1375.8166 -437.06097 -18.3695)
(1421.5956 -444.16172 -17.375945)
(1467.927 -451.05763 -16.051367)
(1514.7141 -457.78569 -14.418484)
(1561.8663 -464.37489 -12.50174)
(1609.29 -470.87858 -10.336062)
(1656.895 -477.34699 -7.9615492)
(1704.5948 -483.84776 -5.4271696)
(1752.3084 -490.44873 -2.7880441)
(1799.9634 -497.23084 -0.10745855)
(1847.4971 -504.27546 2.5460942)
(1894.8592 -511.67123 5.0971425)
(1942.0167 -519.50891 7.4682754)
(1988.9525 -527.87779 9.5778781)
(2035.6712 -536.87013 11.345998)
(2082.2024 -546.5687 12.695619)
(2128.5979 -557.05712 13.553263)
(2174.9382 -568.40127 13.857225)
(2221.3311 -580.66972 13.554439)
(2267.9165 -593.90507 12.611061)
(2314.8459 -608.12762 10.999765)
(2362.3048 -623.38302 8.7223528)
(2410.5357 -639.62304 5.7978395)
(2459.6414 -656.90914 2.2475121)
(2510.0206 -675.09402 -1.8449391)
(2561.886 -694.17797 -6.4174069)
(2615.3428 -714.08888 -11.385483)
(2670.7356 -734.6985 -16.639335)
(2728.2486 -755.93334 -22.068098)
(2788.0583 -777.65228 -27.551187)
(2850.3484 -799.73524 -32.970138)
(2915.2298 -822.0488 -38.211546)
(2982.7787 -844.4427 -43.183023)
(3053.0552 -866.80346 -47.776349)
(3126.034 -888.97088 -51.937414)
(3201.6555 -910.83556 -55.61187)
(3279.8272 -932.26784 -58.766269)
(3360.3864 -953.16256 -61.413186)
(3443.1425 -973.42177 -63.556265)
(3527.8659 -992.96015 -65.264449)
(3614.2803 -1011.7159 -66.587301)
(3702.1106 -1029.6216 -67.628566)
(3791.0205 -1046.6536 -68.487885)
(3880.709 -1062.7822 -69.271072)
(3970.8287 -1078.0029 -70.117966)
(4061.07 -1092.3341 -71.129316)
(4151.1055 -1105.8298 -72.417231)
(4240.6839 -1118.5316 -74.081838)
(4329.6012 -1130.6656 -76.137492)
(4417.7373 -1142.2539 -78.578012)
(0 0 0)
(0 0 0)
(0 0 0)
(0 0 0)
(0 0 0)
(0 0 0)
(0 0 0)
(0 0 0)
(0 0 0)
(0 0 0)
(0 0 0)
(0 0 0)
(0 0 0)
(0 0 0)
(0 0 0)
(17.50523 -12.841323 26.293948)
(22.533654 -47.705778 38.645015)
(26.459551 -50.03153 43.959529)
(37.908092 -72.193707 49.897268)
(48.796327 -82.554946 51.043915)
(64.571781 -98.610906 50.561072)
(81.277224 -111.77295 49.365545)
(101.57392 -126.99199 47.360977)
(123.13593 -139.67579 44.42004)
(147.07481 -153.77825 41.392889)
(172.75421 -166.32223 38.238847)
(199.6173 -178.14033 34.80801)
(228.11476 -190.23788 31.61136)
(257.32307 -200.37254 28.493281)
(287.5983 -211.12027 25.787939)
(318.24042 -219.97487 23.358346)
(349.48222 -228.97887 21.59457)
(380.586 -236.49839 19.965642)
(412.20889 -244.13581 19.191337)
(443.32457 -250.48865 18.769465)
(474.67622 -256.94499 18.799952)
(505.77 -262.66934 19.397505)
(536.63745 -267.90319 20.308266)
(567.41105 -273.09815 21.521226)
(598.19409 -278.07982 22.911673)
(628.93938 -282.97932 24.436671)
(659.89833 -288.05044 25.857483)
(691.08245 -293.00628 27.395524)
(722.62408 -298.37215 28.519515)
(754.77728 -303.86797 29.607947)
(787.46363 -309.75324 30.256535)
(820.93049 -315.91463 30.591666)
(855.22375 -322.50776 30.536283)
(890.40236 -329.45916 30.094671)
(926.5931 -336.80466 29.302944)
(963.60486 -344.31565 28.135951)
(1001.8411 -352.54637 26.632687)
(1040.9399 -360.80866 24.931842)
(1081.0287 -369.39748 22.969795)
(1122.0565 -378.21353 20.905844)
(1163.9405 -387.16886 18.761139)
(1206.6336 -396.25225 16.619045)
(1250.0551 -405.38433 14.549789)
(1294.1194 -414.53256 12.615297)
(1338.7428 -423.63651 10.883799)
(1383.8316 -432.66246 9.4099544)
(1429.2942 -441.56172 8.2498109)
(1475.039 -450.31161 7.4498898)
(1520.9722 -458.87351 7.0531538)
(1567.0084 -467.23921 7.0937339)
(1613.0602 -475.3853 7.601278)
(1659.0517 -483.31831 8.5965285)
(1704.9108 -491.0332 10.091774)
(1750.5792 -498.55431 12.09235)
(1796.0073 -505.89604 14.590313)
(1841.1659 -513.10346 17.570677)
(1886.0379 -520.21132 21.001541)
(1930.6336 -527.28647 24.844231)
(1974.98 -534.38423 29.039681)
(2019.1356 -541.59112 33.522511)
(2063.1799 -548.98127 38.20777)
(2107.2246 -556.65543 43.004047)
(2151.4047 -564.70131 47.804147)
(2195.8857 -573.22665 52.497634)
(2240.8474 -582.31953 56.963313)
(2286.5134 -592.08573 61.088767)
(2333.0565 -602.6591 64.747933)
(2380.9238 -613.88651 67.778623)
(2429.6452 -626.17651 70.151292)
(2480.7456 -639.45504 71.834631)
(2533.1834 -653.60556 72.584928)
(2587.875 -668.7435 72.39784)
(2644.7687 -684.91617 71.315492)
(2704.0805 -701.96608 69.239234)
(2765.9399 -719.91201 66.219931)
(2830.4377 -738.63739 62.274839)
(2897.6209 -758.04169 57.453525)
(2967.5052 -778.00104 51.82515)
(3040.0544 -798.37854 45.474608)
(3115.194 -819.01484 38.493469)
(3192.8074 -839.76087 30.990255)
(3272.7418 -860.44538 23.0693)
(3354.8107 -880.91687 14.847036)
(3438.7977 -901.01391 6.4227341)
(3524.4647 -920.59755 -2.0916394)
(3611.5504 -939.53984 -10.60938)
(3699.7862 -957.7211 -19.036069)
(3788.8806 -975.07081 -27.300233)
(3878.5598 -991.49613 -35.330799)
(3968.5193 -1006.9989 -43.069833)
(4058.494 -1021.5248 -50.470422)
(4148.2004 -1035.1688 -57.492096)
(4237.3944 -1047.9332 -64.106537)
(4325.9407 -1060.0562 -70.353359)
(4413.481 -1071.5895 -76.203692)
(4512.908 -995.95188 -84.158657)
(4523.662 -908.26486 -86.093944)
(4534.0346 -820.94671 -87.72377)
(4543.685 -734.69443 -88.853016)
(4553.5359 -648.86869 -89.694243)
(4562.9913 -563.94688 -90.279646)
(4572.9241 -479.25436 -90.609796)
(4582.9751 -394.91559 -90.930454)
(4593.1864 -310.62925 -91.330804)
(4604.2147 -226.42356 -91.751826)
(4615.4732 -141.62287 -92.469845)
(4626.9469 -56.442128 -93.32194)
(4639.2927 29.278648 -94.889797)
(4651.2162 116.16872 -96.43682)
(4663.7578 203.07102 -98.779541)
(4588.3184 302.59991 -98.756279)
(4499.8698 313.69002 -96.51846)
(4410.6958 324.23963 -94.747544)
(4320.783 334.06559 -93.287853)
(4229.9565 343.08362 -92.284367)
(4138.7588 351.10783 -91.592091)
(4047.383 358.04903 -90.986362)
(3956.1288 363.82304 -90.496052)
(3865.3591 368.33411 -89.879213)
(3775.3885 371.54312 -89.085093)
(3686.5222 373.3929 -87.961903)
(3599.0911 373.9152 -86.468855)
(3513.3204 373.05868 -84.492505)
(3429.5087 370.93504 -82.056906)
(3347.825 367.55853 -79.06401)
(3268.5305 363.01866 -75.531635)
(3191.737 357.41109 -71.4319)
(3117.523 350.86813 -66.876022)
(3045.9433 343.51966 -61.896296)
(2976.9959 335.54369 -56.605298)
(2910.6456 327.0713 -51.079727)
(2846.7968 318.32167 -45.45034)
(2785.3468 309.41648 -39.818027)
(2726.1065 300.61252 -34.341984)
(2668.9758 291.92905 -29.008059)
(2613.6194 283.69183 -24.13155)
(2559.8871 276.12094 -19.688398)
(2507.7534 268.87347 -15.520291)
(2456.721 262.4614 -12.148802)
(2406.6926 256.89234 -9.3072804)
(2357.4604 252.15406 -7.0585036)
(2308.8454 248.31958 -5.4445761)
(2260.6795 245.37548 -4.416478)
(2212.8127 243.30633 -3.9463165)
(2165.1276 242.07664 -3.9834455)
(2117.5232 241.62511 -4.4646695)
(2069.9234 241.88505 -5.32251)
(2022.275 242.76637 -6.482842)
(1974.5441 244.18087 -7.8719761)
(1926.7159 246.02444 -9.414374)
(1878.7939 248.19763 -11.041517)
(1830.7946 250.59349 -12.686634)
(1782.7498 253.11398 -14.291905)
(1734.7013 255.6578 -15.804385)
(1686.7016 258.13627 -17.180713)
(1638.8115 260.4622 -18.38298)
(1591.097 262.56111 -19.381902)
(1543.6345 264.3647 -20.152028)
(1496.4987 265.81487 -20.679174)
(1449.7685 266.87327 -20.948419)
(1403.5396 267.48321 -20.950061)
(1357.8627 267.65472 -20.689875)
(1312.8691 267.33413 -20.161142)
(1268.5631 266.56425 -19.37389)
(1225.0769 265.29974 -18.348087)
(1182.4511 263.61432 -17.081418)
(1140.742 261.52315 -15.627108)
(1099.8548 259.0089 -13.980556)
(1060.1127 256.24156 -12.197706)
(1021.1607 253.22508 -10.367914)
(983.1398 249.9625 -8.4163895)
(946.10992 246.58965 -6.5164117)
(909.80621 243.13703 -4.7044203)
(874.31288 239.61572 -2.9591004)
(839.37994 236.32993 -1.4956219)
(805.08687 232.92337 -0.12374924)
(771.14428 229.87224 0.73329368)
(737.55901 226.78862 1.4392891)
(704.16751 223.94087 1.6263823)
(670.83635 221.27909 1.374617)
(637.4696 218.7423 0.72195066)
(604.06255 216.39908 -0.53309376)
(570.52407 213.92513 -2.0182788)
(536.75269 211.45264 -4.1012662)
(502.96047 208.8867 -6.621624)
(468.94577 206.02105 -9.3560534)
(434.98412 202.78785 -12.590501)
(401.069 199.1349 -15.886982)
(367.32833 194.87761 -19.542919)
(334.15199 189.89008 -23.159144)
(301.41613 184.21232 -26.929035)
(269.3785 177.74474 -30.565905)
(238.46819 170.30626 -34.152154)
(208.95438 161.83531 -37.479689)
(180.53792 152.83277 -40.702102)
(154.033 142.49574 -43.361742)
(129.50327 131.39431 -45.775034)
(106.88526 119.70412 -47.607897)
(86.495895 107.19467 -48.771892)
(68.640993 94.124149 -49.19551)
(53.287447 80.287811 -48.352293)
(40.963318 66.015467 -46.336331)
(30.781956 53.237292 -42.745865)
(22.763651 37.824406 -34.650529)
(23.450244 24.530552 -21.037481)
(0 0 0)
(0 0 0)
(0 0 0)
(0 0 0)
(0 0 0)
(0 0 0)
(0 0 0)
(0 0 0)
(0 0 0)
(0 0 0)
(0 0 0)
(0 0 0)
(0 0 0)
(0 0 0)
(0 0 0)
(0 0 0)
(0 0 0)
(0 0 0)
(0 0 0)
(0 0 0)
(0 0 0)
(0 0 0)
(0 0 0)
(0 0 0)
(0 0 0)
(0 0 0)
(0 0 0)
(0 0 0)
(0 0 0)
(0 0 0)
(4505.3444 -1151.5947 -81.402613)
(4505.585 -1148.8939 -81.818956)
(4505.8355 -1145.8031 -82.10126)
(4505.9905 -1142.3817 -82.385686)
(4506.1765 -1138.6533 -82.462592)
(4506.181 -1134.6496 -82.426899)
(4506.0907 -1130.3913 -82.255433)
(4505.8558 -1125.9515 -82.053653)
(4505.4797 -1121.2999 -81.795291)
(4504.9878 -1116.5074 -81.587629)
(4504.399 -1111.535 -81.425169)
(4503.711 -1106.4006 -81.408368)
(4502.9907 -1101.0275 -81.47099)
(4502.2713 -1095.4986 -81.666286)
(4501.5244 -1089.703 -81.964854)
(4681.3139 225.39446 -98.978253)
(4681.7948 231.1911 -98.971568)
(4682.2715 236.80072 -98.957959)
(4682.6796 242.19546 -99.080682)
(4683.0753 247.43292 -99.306598)
(4683.3397 252.50634 -99.630963)
(4683.4737 257.40706 -100.01835)
(4683.4382 262.15808 -100.41508)
(4683.217 266.71486 -100.79762)
(4682.7917 271.0661 -101.09894)
(4682.1571 275.17239 -101.30266)
(4681.3023 278.94552 -101.37234)
(4680.2598 282.4332 -101.28251)
(4679.0158 285.43581 -101.1552)
(4677.6618 288.14389 -100.88497)
(9.2462399 19.189065 26.763907)
(16.047896 30.83688 30.345955)
(23.365248 44.131569 36.629861)
(34.53987 56.27013 38.325047)
(46.72564 68.162865 40.070364)
(62.694937 80.032435 39.877273)
(80.482329 91.281402 39.295342)
(101.35915 102.58638 37.853019)
(124.00516 113.02368 36.224701)
(149.01961 123.21298 34.223946)
(175.82859 132.54061 31.992053)
(204.31866 141.47677 29.931122)
(234.1628 149.3937 27.731466)
(265.15083 156.85835 25.825983)
(297.05122 163.36162 24.033583)
(329.62232 169.33244 22.656041)
(362.6546 174.39547 21.500349)
(395.87781 178.92354 20.818283)
(429.24764 182.69783 20.430967)
(462.54769 185.9658 20.501197)
(495.74006 188.62555 20.890579)
(528.72719 190.83671 21.617564)
(561.5362 192.65242 22.600134)
(594.15287 194.10287 23.819822)
(626.6583 195.29712 25.144211)
(659.1207 196.28208 26.549478)
(691.65266 197.12874 27.926599)
(724.38125 197.88632 29.221381)
(757.4261 198.58903 30.341823)
(790.93025 199.34914 31.228063)
(825.04056 200.09064 31.864804)
(859.83739 200.92247 32.155765)
(895.47172 201.82763 32.129808)
(931.98615 202.85538 31.752297)
(969.5245 203.91109 31.045209)
(1008.1009 205.06872 29.973418)
(1047.6986 206.29711 28.648596)
(1088.3935 207.51871 27.068786)
(1130.1454 208.76366 25.238201)
(1172.9093 209.99346 23.286979)
(1216.6376 211.15023 21.233956)
(1261.2617 212.23034 19.109889)
(1306.7327 213.19588 17.042033)
(1352.9334 214.01669 15.021898)
(1399.7686 214.66228 13.158633)
(1447.1436 215.12377 11.473644)
(1494.9468 215.37833 10.039619)
(1543.0771 215.4168 8.8926321)
(1591.4235 215.23266 8.0836255)
(1639.8835 214.82939 7.6465704)
(1688.3583 214.20939 7.6161219)
(1736.7546 213.38753 8.0161241)
(1784.9903 212.3793 8.8653498)
(1832.9947 211.20819 10.171155)
(1880.712 209.90015 11.934138)
(1928.1042 208.4901 14.138623)
(1975.1553 207.00974 16.763654)
(2021.8695 205.50136 19.769892)
(2068.2829 204.00475 23.107933)
(2114.4491 202.56658 26.710872)
(2160.4679 201.22634 30.509779)
(2206.445 200.02414 34.414327)
(2252.5402 199.02284 38.309007)
(2298.928 198.23074 42.134959)
(2345.792 197.6968 45.711185)
(2393.3958 197.45412 48.974734)
(2441.9415 197.5008 51.877947)
(2491.6656 197.91057 54.122066)
(2542.8229 198.64748 55.897978)
(2595.7473 199.69939 56.760781)
(2650.5655 201.08684 56.936028)
(2707.5376 202.72742 56.252028)
(2766.8526 204.5981 54.7054)
(2828.6917 206.65027 52.253916)
(2893.1629 208.79453 48.951181)
(2960.3467 210.98165 44.778393)
(3030.3076 213.06328 39.833599)
(3102.9976 215.02286 34.139049)
(3178.4023 216.65405 27.8125)
(3256.3752 217.96443 20.906056)
(3336.8178 218.70866 13.571373)
(3419.5331 218.90198 5.8193177)
(3504.2792 218.4057 -2.1796398)
(3590.797 217.12742 -10.322834)
(3678.8948 214.93781 -18.518119)
(3768.2229 211.88427 -26.706364)
(3858.5328 207.88137 -34.823258)
(3949.5393 202.9229 -42.801534)
(4040.7408 196.98237 -50.560299)
(4132.2413 190.15135 -58.163875)
(4223.1858 182.40616 -65.38546)
(4313.9782 173.81754 -72.464063)
(4403.7139 164.53854 -79.185477)
(4492.7533 154.58057 -85.726434)
(4580.8002 143.73393 -92.173296)
(2.8765099 16.950511 23.030668)
(9.026972 22.642278 27.209989)
(18.65488 36.355976 30.813947)
(28.502074 45.066482 33.362952)
(41.775091 56.083321 33.95775)
(57.157799 65.640099 33.92601)
(75.563421 75.7165 33.153163)
(95.965835 84.952479 32.042351)
(118.96371 93.984564 30.665732)
(144.00911 102.47352 28.811218)
(170.91992 110.49551 27.234193)
(199.4814 117.90886 25.285127)
(229.42337 124.82215 23.699413)
(260.59475 131.07533 22.034957)
(292.57223 136.76224 20.798273)
(325.31852 141.8172 19.602416)
(358.36292 146.31741 18.914939)
(391.82202 150.19481 18.401736)
(425.23521 153.54481 18.330168)
(458.696 156.36915 18.513716)
(491.92695 158.68626 19.047083)
(525.02682 160.60951 19.81432)
(557.8643 162.09741 20.842276)
(590.54935 163.27176 21.997241)
(623.05492 164.13024 23.272987)
(655.52189 164.79305 24.5582)
(688.01692 165.22169 25.821899)
(720.68505 165.55138 26.958851)
(753.63572 165.77633 27.934981)
(787.0419 165.95528 28.683688)
(820.97895 166.11081 29.174536)
(855.63845 166.29671 29.363023)
(891.09527 166.51963 29.233085)
(927.43866 166.76086 28.815606)
(964.77148 167.07369 28.040506)
(1003.12 167.45273 27.003984)
(1042.5527 167.86404 25.702539)
(1083.036 168.31792 24.171357)
(1124.5806 168.77985 22.466838)
(1167.1644 169.2602 20.640336)
(1210.7257 169.69585 18.718029)
(1255.2094 170.09565 16.77235)
(1300.5177 170.42193 14.882965)
(1346.5915 170.64853 13.080652)
(1393.323 170.76794 11.413255)
(1440.6005 170.75236 9.9412489)
(1488.333 170.59254 8.7118172)
(1536.3988 170.27166 7.765359)
(1584.6998 169.78884 7.1436529)
(1633.123 169.13782 6.8755115)
(1681.573 168.32065 6.9916598)
(1729.9496 167.34476 7.5091048)
(1778.1727 166.21617 8.4430106)
(1826.1643 164.95033 9.7952873)
(1873.8686 163.56251 11.560754)
(1921.2432 162.07112 13.723757)
(1968.2669 160.49724 16.256944)
(2014.9442 158.86744 19.120573)
(2061.3015 157.20286 22.262817)
(2107.396 155.53358 25.626207)
(2153.3165 153.88417 29.128691)
(2199.1692 152.28329 32.696012)
(2245.1134 150.76746 36.218902)
(2291.3132 149.33474 39.641462)
(2337.9636 148.04791 42.773559)
(2385.3011 146.89777 45.662595)
(2433.5406 145.97202 47.971963)
(2482.8349 145.29478 49.888648)
(2533.6591 144.62206 51.149575)
(2586.1314 144.15017 51.721515)
(2640.5463 143.88417 51.559145)
(2697.0695 143.75544 50.614034)
(2755.9559 143.73657 48.865193)
(2817.3412 143.83464 46.29331)
(2881.3813 143.94673 42.940446)
(2948.1563 144.07601 38.791542)
(3017.7299 144.10062 33.964066)
(3090.064 144.01616 28.442038)
(3165.1631 143.64449 22.39255)
(3242.8887 143.0551 15.789337)
(3323.1134 141.95674 8.8605587)
(3405.6947 140.52361 1.5347226)
(3490.3366 138.38426 -5.921596)
(3576.9069 135.71108 -13.69092)
(3665.1046 132.34899 -21.437159)
(3754.5188 128.24006 -29.119378)
(3844.9074 123.32684 -36.749788)
(3936.1128 117.55333 -44.194092)
(4027.4546 111.1386 -51.595222)
(4119.2282 103.68685 -58.643322)
(4210.3686 95.784881 -65.671671)
(4301.3396 86.873905 -72.357583)
(4391.4522 77.417031 -78.942017)
(4480.4971 67.421331 -85.436054)
(4568.9292 56.43431 -91.739903)
(-0.64600554 12.63078 19.556562)
(5.7202696 18.119355 22.226581)
(12.624876 27.878201 26.314903)
(23.626023 35.926455 27.649876)
(36.500979 44.499442 27.982696)
(52.649804 53.052896 27.669766)
(70.62161 60.945529 27.106505)
(91.591174 68.801759 26.140571)
(114.54101 76.016365 24.710964)
(139.67403 83.212525 23.531212)
(166.62663 89.565399 21.947287)
(195.28428 95.87781 20.666709)
(225.33025 101.37407 19.229647)
(256.47335 106.6623 18.202334)
(288.60888 111.25026 17.096913)
(321.31121 115.50753 16.507889)
(354.58454 119.1301 15.960396)
(387.9853 122.3697 15.868848)
(421.56558 125.07564 15.944173)
(455.02905 127.35742 16.382595)
(488.39061 129.20229 17.019025)
(521.52681 130.63981 17.920279)
(554.44832 131.71558 18.945804)
(587.13743 132.46032 20.126576)
(619.68721 132.92547 21.332202)
(652.14348 133.13542 22.556007)
(684.6238 133.13579 23.700199)
(717.23949 132.99686 24.719838)
(750.14167 132.70986 25.557993)
(783.43607 132.3579 26.182061)
(817.2912 131.94287 26.538195)
(851.81335 131.52316 26.607032)
(887.11245 131.08323 26.402704)
(923.30046 130.68651 25.881024)
(960.45286 130.31663 25.082576)
(998.63383 129.9807 24.032613)
(1037.8519 129.69403 22.732923)
(1078.1402 129.42889 21.25244)
(1119.5185 129.1991 19.611252)
(1161.9155 128.962 17.858876)
(1205.3022 128.74201 16.068322)
(1249.6287 128.47795 14.282348)
(1294.8043 128.18269 12.526101)
(1340.7429 127.8328 10.892508)
(1387.3487 127.3931 9.4024714)
(1434.5273 126.87298 8.1113472)
(1482.161 126.23955 7.0619402)
(1530.15 125.49327 6.2898271)
(1578.3773 124.61987 5.8319132)
(1626.7421 123.61755 5.7125741)
(1675.1366 122.48131 5.9591109)
(1723.4674 121.21422 6.5818315)
(1771.6457 119.81526 7.5944672)
(1819.596 118.29528 8.9906431)
(1867.2583 116.65568 10.766545)
(1914.5869 114.91008 12.899328)
(1961.5616 113.06778 15.359854)
(2008.1792 111.14271 18.107096)
(2054.4688 109.14354 21.093002)
(2100.4809 107.09525 24.247951)
(2146.3018 105.00034 27.509233)
(2192.0367 102.89126 30.788059)
(2237.8464 100.76377 34.004538)
(2283.8721 98.660243 37.061475)
(2330.3416 96.569643 39.868972)
(2377.4392 94.535404 42.315326)
(2425.4921 92.576097 44.37866)
(2474.7584 90.623972 45.885391)
(2525.1981 88.67474 46.787243)
(2577.3998 86.925389 47.011867)
(2631.4916 85.219968 46.535482)
(2687.7034 83.580521 45.305899)
(2746.2419 81.991255 43.338289)
(2807.283 80.427712 40.586853)
(2870.9569 78.850595 37.137073)
(2937.3816 77.240112 32.9625)
(3006.5964 75.501094 28.170549)
(3078.6194 73.654226 22.772282)
(3153.3928 71.562606 16.888364)
(3230.8493 69.233527 10.558341)
(3310.8352 66.532112 3.922238)
(3393.1814 63.4937 -3.0393353)
(3477.6934 59.909547 -10.044853)
(3564.1091 55.84071 -17.374141)
(3652.1811 51.180253 -24.350188)
(3741.5539 45.988251 -31.646875)
(3832.0429 40.090992 -38.67746)
(3923.2352 33.604544 -45.758541)
(4014.7764 26.361013 -52.541185)
(4106.6318 18.541224 -59.325315)
(4197.9132 10.046728 -65.821781)
(4289.1675 0.87715916 -72.269027)
(4379.3462 -8.8726354 -78.558614)
(4468.6318 -19.057798 -84.837144)
(4557.2813 -30.143586 -91.119811)
(-2.5881669 11.018878 15.58072)
(1.726359 13.614872 18.57118)
(9.2294198 21.588173 20.550312)
(19.643571 27.257289 21.678742)
(32.9697 34.475224 21.67649)
(48.461565 40.845755 21.610657)
(67.037288 47.424826 21.025032)
(87.740917 53.459687 19.973557)
(110.79326 59.455114 19.24634)
(135.9418 64.88506 17.968992)
(162.9708 70.138476 17.069728)
(191.63231 74.911316 15.870303)
(221.63254 79.376901 15.118868)
(252.9146 83.415778 14.172722)
(284.93751 87.053938 13.737671)
(317.8148 90.295896 13.256582)
(350.9558 93.106561 13.206841)
(384.52398 95.542113 13.28446)
(418.04767 97.523108 13.680725)
(451.62023 99.160689 14.265369)
(484.973 100.36689 15.080976)
(518.17493 101.26533 16.035391)
(551.08932 101.77704 17.138734)
(583.84319 102.0358 18.294585)
(616.38666 101.95797 19.478879)
(648.85492 101.68505 20.622294)
(681.31335 101.17014 21.668218)
(713.91635 100.50741 22.566589)
(746.74828 99.681709 23.289705)
(779.9873 98.781937 23.770305)
(813.73737 97.793738 24.00217)
(848.13958 96.771649 23.976328)
(883.31214 95.737637 23.655203)
(919.34775 94.703764 23.073733)
(956.34065 93.687869 22.231586)
(994.33029 92.711483 21.154863)
(1033.4009 91.756222 19.867303)
(1073.5474 90.850316 18.44007)
(1114.7333 89.955093 16.860301)
(1156.942 89.107996 15.236285)
(1200.1643 88.254706 13.557575)
(1244.2997 87.401697 11.899301)
(1289.3066 86.538594 10.324844)
(1335.0876 85.632945 8.8646363)
(1381.5513 84.677876 7.5602382)
(1428.5913 83.663315 6.4608054)
(1476.1057 82.570793 5.5994645)
(1523.9806 81.390505 5.0148522)
(1572.1102 80.110999 4.7311921)
(1620.3841 78.726639 4.7753656)
(1668.6998 77.227268 5.1633222)
(1716.9585 75.61163 5.9054217)
(1765.0727 73.874506 7.0067454)
(1812.9646 72.015615 8.459786)
(1860.572 70.032406 10.255454)
(1907.849 67.929747 12.365435)
(1954.7718 65.705421 14.761625)
(2001.3369 63.365427 17.400267)
(2047.5693 60.913157 20.227035)
(2093.5193 58.35598 23.182407)
(2139.2677 55.698472 26.194976)
(2184.9253 52.947151 29.188716)
(2230.6368 50.122238 32.075387)
(2276.546 47.217252 34.779993)
(2322.9072 44.25712 37.197459)
(2369.8536 41.261686 39.256015)
(2417.667 38.18075 40.905595)
(2466.6646 35.152983 41.939039)
(2516.9716 32.040327 42.501008)
(2568.9345 28.982633 42.351521)
(2622.7804 25.836505 41.570101)
(2678.6905 22.782812 40.079904)
(2736.9366 19.649581 37.856298)
(2797.6609 16.518272 34.995193)
(2861.0179 13.31447 31.452223)
(2927.1292 10.071659 27.286393)
(2996.0341 6.7101961 22.570192)
(3067.7534 3.2346846 17.312187)
(3142.2427 -0.44367637 11.655011)
(3219.4391 -4.3203523 5.6035772)
(3299.1717 -8.5036347 -0.71317413)
(3381.3467 -12.968667 -7.2487917)
(3465.6488 -17.887218 -13.91111)
(3551.9587 -23.16952 -20.655577)
(3639.8314 -28.982145 -27.449523)
(3729.2042 -35.220386 -34.148945)
(3819.5577 -42.025278 -40.775193)
(3910.8741 -49.397155 -47.268586)
(4002.3983 -57.260826 -53.715288)
(4094.3811 -65.785857 -59.947534)
(4185.8306 -74.73655 -66.152118)
(4277.2194 -84.362438 -72.207385)
(4367.642 -94.42913 -78.228768)
(4457.0841 -104.8381 -84.295504)
(4545.8624 -115.95279 -90.304418)
(-4.6042413 7.5112371 12.008363)
(-0.55210912 9.599094 13.082535)
(5.9190578 15.28296 15.156287)
(16.287796 19.971414 15.842948)
(29.060199 24.875596 15.91398)
(45.271095 30.018645 15.543142)
(63.595483 34.729477 14.7445)
(84.504899 39.509607 14.346405)
(107.62105 43.658914 13.298186)
(132.86578 47.991777 12.69671)
(159.86943 51.605311 11.764973)
(188.5214 55.2914 11.275663)
(218.64857 58.393523 10.50358)
(249.77076 61.376192 10.299462)
(281.96772 63.884469 9.8992546)
(314.67951 66.168977 10.001512)
(347.98862 68.035474 10.09777)
(381.44839 69.603418 10.564456)
(415.07435 70.798784 11.120978)
(448.60734 71.676625 11.955299)
(482.03504 72.204201 12.870381)
(515.22107 72.422066 13.972737)
(548.21083 72.328071 15.102706)
(580.94622 71.958383 16.296483)
(613.51677 71.309323 17.453648)
(645.96934 70.461875 18.545149)
(678.43299 69.373431 19.511183)
(710.97501 68.146184 20.331227)
(743.77544 66.755438 20.932482)
(776.93442 65.280018 21.311511)
(810.59914 63.700633 21.446671)
(844.9001 62.096554 21.307252)
(879.94459 60.451014 20.910539)
(915.84496 58.810476 20.264436)
(952.67058 57.171663 19.378599)
(990.51156 55.585609 18.270043)
(1029.383 53.989182 17.020811)
(1069.2566 52.467997 15.602081)
(1110.2105 50.982603 14.091283)
(1152.2493 49.495482 12.512866)
(1195.2708 48.039204 10.934568)
(1239.2486 46.594756 9.4109119)
(1284.0876 45.146594 7.9555127)
(1329.7069 43.688012 6.6334352)
(1376.0202 42.196137 5.4832737)
(1422.9239 40.669665 4.5398659)
(1470.3106 39.08248 3.8404395)
(1518.0724 37.431876 3.4105628)
(1566.0982 35.700525 3.2774134)
(1614.2802 33.882181 3.4579709)
(1662.5134 31.961592 3.9676326)
(1710.6996 29.936226 4.8096003)
(1758.749 27.791482 5.9869154)
(1806.5835 25.524011 7.4872951)
(1854.1382 23.124899 9.2965115)
(1901.3674 20.588933 11.38573)
(1948.2432 17.908458 13.723788)
(1994.7617 15.083333 16.261604)
(2040.9446 12.105011 18.950778)
(2086.8409 8.97703 21.725656)
(2132.5245 5.6937313 24.522625)
(2178.1175 2.2626877 27.262567)
(2223.7202 -1.3131804 29.865656)
(2269.5652 -5.0375678 32.266708)
(2315.7589 -8.8805985 34.350036)
(2362.5937 -12.858727 36.090518)
(2410.2653 -16.940139 37.36943)