/*--------------------------------*- C++ -*----------------------------------*\
  =========                 |
  \\      /  F ield         | OpenFOAM: The Open Source CFD Toolbox
   \\    /   O peration     | Website:  https://openfoam.org
    \\  /    A nd           | Version:  6
     \\/     M anipulation  |
\*---------------------------------------------------------------------------*/
FoamFile
{
    version     2.0;
    format      ascii;
    class       pointScalarField;
    location    "0.55";
    object      p;
}
// * * * * * * * * * * * * * * * * * * * * * * * * * * * * * * * * * * * * * //

dimensions      [1 -1 -2 0 0 0 0];

internalField   nonuniform List<scalar> 
28033
(
1305773.8
-2097794
-49.804434
143.09616
2447112.4
-2952880.6
331.50145
-319.17623
1126172.8
980123.26
838817
674378.66
488413.52
314892.86
140385.76
-50518.649
-238806.8
-406404.91
-613202.91
-714637.97
-953344.43
-1155200.4
-1155861.4
-749.96461
-1349.0703
-2009.4311
-1751.576
-2013.1822
-1362.3294
-1025.8906
-344.08023
394.87602
835.84769
1555.6649
1929.8325
2024.8785
1580.7712
894.58277
359682.24
378164.52
346498.89
369087.79
359668.83
369750.07
371168.09
372466.94
371944.71
374300.71
371641.83
369782.45
369485.61
367560.96
364735.07
361227.43
359739.18
355790.49
352140.29
347864.18
344310.94
338425.44
334695.48
328515.72
322887.53
317423.42
311401.55
305193.28
299137.31
293138.17
287278.25
281448.76
276284.19
271121.71
265329.39
261370.16
256894.97
253527.17
248664.08
245214.29
240685.53
236658.22
232241.07
228296.83
223536
219116.85
214040.99
209158.21
203705.4
198487.84
192820.55
187378.72
181767.53
176322.35
170964.15
165796.89
160853.16
156140.67
151678.88
147497.74
143514.42
139684.09
135888.39
132524.53
128897.35
125093.05
121993.63
117824.79
112800.27
107546.91
102181.67
96515.444
90304.83
83954.139
77227.483
70413.646
63462.101
56665.526
49814.385
43436.53
37193.223
31429.809
26061.454
20982.266
16806.297
12914.659
9879.0485
7154.7942
5010.8239
3236.5626
1988.7581
944.0782
426.85119
121.03614
-129.94491
-354237.68
-295641.37
-355448.66
-314579.92
-361013.46
-353699.52
-364188.58
-359049.6
-367907.4
-361308.71
-365603.27
-361849.45
-361083.93
-360031.44
-357596.85
-355027.78
-352642.42
-349066.64
-345758.19
-342583.84
-337419.67
-334662.93
-328467.23
-324854.9
-319198.16
-313716.99
-308910.62
-302337.49
-297800.96
-291011.01
-285630.96
-280161.37
-274708.65
-270109.31
-265261.49
-261643.36
-256237.38
-252903.41
-248387.72
-245114.76
-241119
-237591.02
-233697.18
-229960.68
-225820
-221712.18
-217224.96
-212613.91
-207746.42
-202682.69
-197462.27
-192112.97
-186693.03
-181282.65
-175892.97
-170639.33
-165521.03
-160606.48
-155899.31
-151428.49
-147150.12
-143083.98
-139122.45
-135259.06
-131400.42
-127478.59
-123446.09
-119343.94
-114908.8
-109132.07
-104847.47
-98512.638
-92853.962
-86475.008
-79935.848
-73094.149
-66225.051
-59293.365
-52390.056
-45760.21
-39321.705
-33267.166
-27607.471
-22471.661
-17809.239
-13760.437
-10219.878
-7289.6888
-4870.8006
-2964.9042
-1533.3853
-589.448
103.84784
281.81695
368.33792
2004261.9
1884054.6
1341028.8
1357326.3
921952.72
525631.05
294404.9
-106423.76
-418864.15
-803254.67
-1089057.5
-1458922.3
-1831151.6
-2108856.8
-2252955.1
-604669.38
-452867.94
-194461.47
-429365.08
-350733.07
-376367.65
-368316.55
-383914.89
-372102.13
-380100.46
-388835.27
-371651.2
-387733.95
-370097.45
-383579.93
-375088.61
-371221.2
-364129.83
-360819.61
-356960.98
-352070
-342253.39
-343735.88
-337631.09
-331421.34
-329361.45
-315714.31
-316723.18
-303769.64
-302136.72
-296310.61
-291313.61
-285501.95
-280948.05
-277195.2
-267971.93
-266780.39
-263123.75
-259022.79
-255141.33
-251283.13
-247371.91
-243383.84
-239198.02
-234890.97
-230370.7
-225564.39
-220544.52
-215295.2
-209907.43
-204361.83
-198753.91
-193132.52
-187543.09
-182068.74
-176708.57
-171598.99
-166669.68
-161991.49
-157582.21
-153327.75
-149309.89
-145334.83
-141456.56
-137485.24
-133448.52
-129663.61
-124901.67
-116245.11
-115101.56
-108631.87
-102387.56
-96037.162
-89131.014
-81994.432
-74689.303
-67317.802
-60010.526
-52781.149
-45830.604
-39194.671
-33000.463
-27256.789
-22122.282
-17500.707
-13512.208
-10063.516
-7224.1197
-4861.2215
-3038.2452
-1627.152
-607.23328
4.7418591
463.75907
539.53962
705.62055
1721.8319
1762.348
1960.1952
1515.0029
1207.6512
768.65168
-50.737438
-829.68303
-1293.1635
-1398.0717
-2336.8792
-1151.9008
-1309.6148
-488.34343
91.886501
-376.28697
-209.31818
475.11573
1147.4805
2473.5806
4154.3082
6349.7891
8877.5562
12285.045
15935.87
20281.558
25273.248
30797.002
36832.09
43280.466
50228.086
57271.982
64616.076
71949.879
79250.235
86402.261
93333.709
99753.101
105654.31
110400.02
113672.36
124971.55
124568.4
130516.53
134280.56
138019.14
141538.28
145230.94
148960.55
152872.8
157100.53
161532.73
166339.07
171372.19
176707.05
182186.17
187875.37
193543.01
199272.76
204866.02
210346.15
215584.94
220667.57
225373.2
229955.63
234158.49
238371.21
242403.86
245977.49
249956.92
253568.1
255248.47
263312.72
266793.65
269046.74
277825.69
281196.93
287340.37
289110.56
300703.01
301429.74
312769.96
316383.82
323692.8
328722.47
330724.97
341756.6
345346.98
345653.17
355400.97
354373.29
361409.19
361361.74
366903.57
373514.75
367739.53
371037.29
375150.7
380659.12
375294.27
380104.99
375852.09
375646.77
367518.22
362180.3
377301.17
367471.07
336105.89
428755.14
971124.56
1035749.3
1092724.1
1137633.9
1160771.5
1195535.5
1194671.3
1209789
1196768.8
1168193.9
1188061.1
1113353.1
1071235.2
1129664.6
883060.52
-1693256.5
-2134546.3
-2106212.1
-2268874.8
-2211396.2
-2111380.7
-2424473.4
-2588426.5
-2420520.7
-2431825.1
-2333902.3
-2252717.2
-2123421
-2100217.5
-1983941.3
-401.00294
-530.35326
-670.12851
-835.00015
-823.16819
-857.70134
-857.74458
-857.64975
-839.18371
-829.14834
-774.96333
-599.17137
-515.52227
-242.78442
-191.38005
-64.795935
266.23885
563.2921
812.23218
921.69132
996.53727
1054.6364
1066.7722
1048.5022
979.22244
947.45746
727.47934
656.35882
358.91583
-117.52906
339331.85
346024.18
309245.59
312573.49
318878.5
324752.42
327282.37
330706.12
332809.85
333311.35
332623.7
334945.19
331728.04
331081.65
328451.96
328735.12
324040.94
322551.37
318921.21
315762.75
312454.22
308520.45
303620.6
299403.69
294136.24
289550.29
283715.25
278688.81
273092.65
267980.36
262044.3
256789.5
252474.24
247035.22
243002.44
238052.08
233880.53
229075.21
225233.62
221568.03
217774.31
213656.75
209718.15
205396.03
201034.67
196654.34
191874.75
187225.92
182177.43
177249.45
172082.04
167040.19
161916.9
156950.64
152061.58
147355.32
142818.22
138479.9
134350.59
130394
126581.7
122817.07
119260.8
115701.47
111444.17
107858.32
103537.05
99233.431
94496.043
90031.65
85295.771
80006.21
74550.972
69052.172
63276.23
57646.168
51936.286
46435.733
40968.246
35995.692
30988.032
26527.685
22467.726
18876.141
15377.225
12365.613
9770.3483
7427.0941
5549.868
3996.7973
2613.0094
1631.5126
691.0043
103.65323
-714.00643
316521.23
290906.7
255325.01
265058.94
266121.25
270072.17
272277.88
277147.06
278759.79
281512.59
281523.15
282794.74
281776.26
282677.73
280471.38
279466.55
277066.99
276063.92
272774.61
270591.93
267130.36
263454.9
260173.64
256403.39
252361.72
247817.85
243819.35
239172.79
234635.42
229905.5
225678.68
221180.14
216578.81
212298.84
208214.52
204036.19
200061.91
196367.43
192661.89
188890.12
185000.01
181697.13
177205.56
173589.91
169395.95
165435.55
161111.49
156941.89
152458.7
148171.01
143668.96
139354.43
134987.06
130782.81
126664.85
122691.58
118862.16
115193.4
111643
108224.03
104868.98
101590.49
98431.598
95062.521
91709.496
89332.938
86176.136
82464.375
79145.102
75259.31
70968.571
66640.368
62185.906
57542.141
52877.448
48362.588
43679.655
39336.311
34924.817
30906.337
26905.657
23237.029
20059.965
15974.76
13243.689
10697.773
8402.0405
6536.7533
5023.0901
3500.2425
2454.5342
1366.2422
519.64855
-17.868331
-1195.9132
253029.16
245462.03
208142.27
219756.43
215647.05
221516.08
225270.21
229378.04
230162.38
232907.85
233604.3
235390.5
234580.64
234826.19
233731.98
233695.17
231422.31
230424.77
228063.09
226339.29
223766.45
221398.88
218446.71
215379.98
211743.53
208498.95
204684.31
200854.41
197106.39
193222.27
189267.47
185325.72
181681.66
177911.63
174465.97
170857.52
167789.1
164650.87
161501.37
158092
154680.79
151318.05
148298.9
144925.92
141548.13
137981.81
134348.18
130673.7
126906.86
123161.92
119339.9
115630.69
111884.49
108287.48
104741.97
101324.28
98031.808
94850.732
91772.969
88798.922
85890.9
83036.733
80195.765
77185.696
74585.99
71903.504
69559.954
65500.524
63024.347
59722.066
56503.96
52690.533
48763.058
45112.586
41340.955
37669.258
34134.1
30652.873
27375.988
24242.16
21245.592
18612.912
15841.724
13545.928
11465.78
9181.341
7300.2378
5812.7382
4431.9912
3139.7431
2155.9964
1103.9106
326.05131
-634.97005
-1585.889
197799.56
195852.6
158807.79
171923.38
164584.13
172595.69
173839.28
177365.56
178616.16
182232.83
182399.55
184525.06
183307.84
185460.79
183460.5
184281.98
182092.19
182396.57
179899.79
178974.46
176475.12
174744.21
172127.41
169705.94
167223.07
164417.68
161660.57
158716.44
155754.31
152649.26
149778.1
146691.4
143747.79
140724.05
138220.27
134741.91
132264.14
128558.83
125611.52
122834.69
120596.05
117762.85
114853.18
111869.46
108998.67
106025.83
103037.44
100059.16
97014.125
94026.999
91030.448
88127.494
85255.5
82501.662
79816.699
77253.244
74772.511
72387.338
70075.709
67835.248
65638.011
63447.234
61226.544
59114.212
56843.819
54623.046
52356.47
49774.138
46909.477
44436.469
41999.163
39047.577
36821.186
34190.417
31435.146
28733.995
26073.285
23532.334
21015.062
18669.973
16420.24
14335.97
12272.627
10322.405
8685.0033
7485.5534
6153.816
5021.075
3898.7716
2856.7768
2008.0465
1102.5109
259.84818
-311.45963
-1411.2347
155303.94
140929.53
113792.34
124584.03
122123.87
126287.89
128335.38
131149.11
131681.41
133997.9
134580.59
135259.64
135825.03
136050.67
135337.95
135668.97
134058.53
134035.85
132188.03
131606.8
129956.28
128714.94
126756.56
125330.69
123234.78
121217.27
119083.93
116875.38
114675.64
112510.92
110216.36
107972.41
105791.26
103756.8
101598.15
99425.92
99111.588
98878.672
97243.199
97291.652
94511.173
92427.225
90447.874
88205.91
85967.792
83596.071
81213.353
78808.889
76410.93
74032.414
71665.704
69383.891
67115.908
64937.427
62823.652
60778.246
58798.948
56884.343
55029.282
53203.585
51446.435
49590.845
47954.813
46136.297
44221.354
42647.824
40792.497
38760.991
36636.198
34673.624
32747.237
30714.56
27690.861
25427.41
23295.169
21255.002
19430.675
17537.232
15757.039
14068.626
12405.903
10946.502
9435.4071
8266.8465
6910.827
5828.9723
4719.3415
3918.6558
2961.7609
2258.3398
1583.0601
755.19473
257.79332
-420.34137
-1366.3155
90826.906
91991.164
69624.635
81284.2
75488.235
78363.486
80265.25
82530.934
81701.162
85144.304
83539.735
86033.388
84346.482
86047.482
84426.474
85444.081
83820.722
84582.663
82663.672
82817.699
81141.151
80486.62
79151.541
78173.246
76729.803
75536.416
74291.092
72892.039
71592.542
70086.872
68769.517
67318.087
66055.769
64612.468
63165.554
62261.213
61639.845
61276.747
61925.907
61465.126
61298.75
59720.953
58181.915
56649.681
55070.956
53438.514
51791.896
50203.077
48588.095
47032.359
45508.745
44049.276
42623.297
41277.701
39982.017
38723.973
37536.5
36367.536
35233.876
34118.07
33003.941
31944.483
30790.734
29660.608
28682.939
27288.917
26384.164
25071.317
23897.274
22835.216
21450.124
20191.735
19147.87
16821.169
15299.166
14248.034
13023.453
11968.781
10874.84
9908.9385
8848.9695
7995.7631
7019.3913
6276.1549
5350.1174
4839.6646
3902.6612
3374.3081
2509.8918
1996.7714
1296.1062
731.1207
189.59894
-314.75331
-931.62811
39040.169
34914.302
28307.316
35833.369
30997.925
32981.128
34368.728
34661.102
34354.926
34865.529
35424.273
34870.914
35154.919
35596.114
34627.257
35581.925
34315.851
35061.852
33804.029
34514.63
33279.047
33686.898
32758.025
32603.395
31873.052
31575.909
30830.783
30364.284
29683.73
29211.779
28634.342
28119.127
27579.453
26958.862
26684.977
26077.607
25717.265
25505.067
24225.895
23425.944
23070.736
22565.992
21775.422
21340.177
20722.008
20134.584
19481.031
18941.717
18316.778
17799.937
17266.536
16796.89
16340.591
15931.373
15544.255
15160.153
14823.037
14450.547
14103.598
13725.724
13365.309
12947.26
12527.258
12126.024
11599.022
11205.842
10623.925
10157.481
9580.7713
9062.9
8537.6715
8067.3389
7231.8404
7192.4332
6959.4363
6525.3855
6019.231
5608.7214
5188.6652
4759.061
4331.9157
3981.1311
3510.4095
3216.7123
2712.1199
2463.8746
1907.3226
1831.1603
1257.8301
1244.4069
712.30578
559.83843
158.99406
-124.35736
-427.24299
-21676.086
-13530.303
-17258.872
-11565.971
-13599.037
-12727.294
-13341.824
-12382.079
-15860.673
-12924.722
-15645.74
-14545.23
-15438.069
-14774.386
-15749.826
-14502.028
-15741.464
-14263.217
-15289.568
-14172.865
-14737.07
-13793.635
-14499.485
-13787.13
-13890.63
-13559.555
-13367.216
-13139.318
-12882.627
-12694.105
-12440.946
-12283.733
-12068.717
-11720.587
-11559.671
-11428.929
-10862.941
-10887.828
-10563.922
-10673.889
-10441.41
-10174.095
-10253.163
-10131.048
-10023.9
-9982.5818
-9866.1664
-9706.6566
-9572.4484
-9378.4022
-9171.7642
-8922.4793
-8666.8043
-8379.3221
-8061.3459
-7767.5797
-7421.9977
-7113.6944
-6792.0948
-6476.0455
-6179.9588
-5893.9351
-5598.8106
-5340.5514
-5052.1537
-4820.8839
-4514.706
-4260.621
-3981.2161
-3651.2817
-3370.6256
-3082.2325
-2780.2707
-2433.9336
-2076.9806
-1652.9779
-1302.4799
-912.43222
-586.53709
-256.89975
44.667086
306.82147
537.82603
731.61082
851.35307
1021.4429
971.87364
1129.473
809.82621
976.71444
487.8151
520.29147
200.02011
116.47873
-52.57963
-66354.785
-65141.587
-56145.221
-54916.239
-55668.786
-58795.62
-58206.932
-61545.611
-61718.437
-63323.394
-63425.705
-64267.578
-64348.76
-63820.311
-64361.275
-63113.051
-63765.093
-61863.166
-62942.442
-60750.145
-61463.467
-59838.623
-59842.921
-57962.493
-57780.356
-56190.882
-55711.393
-54353.474
-53578.483
-52406.876
-51460.208
-50428.316
-49307.571
-48344.555
-47406.764
-46218.754
-45500.101
-44369.63
-43508.274
-42508.894
-41643.698
-40694.51
-39965.041
-38990.551
-38139.756
-37289.263
-36426.226
-35484.744
-34603.14
-33633.97
-32655.456
-31637.361
-30627.971
-29565.324
-28515.072
-27488.922
-26428.484
-25442.714
-24458.253
-23526.887
-22635.909
-21789.885
-20993.888
-20219.816
-19530.272
-18790.244
-18119.899
-17401.316
-16726.088
-15940.358
-15259.427
-14318.612
-13431.801
-12492.382
-11996.978
-11185.092
-10090.785
-9079.7513
-8044.5155
-7026.7796
-6048.9052
-5095.4916
-4249.0358
-3432.1337
-2745.6642
-2090.8302
-1665.1699
-1053.9383
-1007.5733
-328.31016
-547.89491
-8.6108662
-105.68827
79.364127
311.83614
-120779.33
-117725.84
-99250.41
-101718.23
-104144.26
-105944.95
-109284.37
-109520.64
-114072.33
-113433.28
-114945.91
-115651.68
-115423.98
-114900.75
-115323.96
-113516.83
-113638.14
-111737.03
-111439.14
-109160.31
-108873.44
-105297.57
-104063.44
-101575
-100608.83
-98527.02
-97141.151
-95076.933
-93520.639
-91661.934
-90065.072
-88286.25
-86724.133
-85122.121
-83347.884
-82039.164
-80279.557
-78941.734
-77370.064
-76060.04
-74617.115
-73206.221
-71789.481
-70396.695
-68922.205
-67479.701
-65962.354
-64397.051
-62857.389
-61243.8
-59616.928
-57988.614
-56348.135
-54694.383
-53071.461
-51466.911
-49862.357
-48329.757
-46803.8
-45321.711
-43877.665
-42462.002
-41057.568
-39674.734
-38300.764
-36898.988
-35504.861
-34096.139
-32586.339
-31093.218
-29442.732
-27799.49
-25981.232
-23775.79
-21190.423
-19658.771
-17611.56
-15853.663
-14063.099
-12385.872
-10680.882
-9161.2772
-7633.989
-6309.4112
-5047.6519
-3982.0838
-3041.0928
-2182.8604
-1688.7907
-822.81921
-854.76493
19.143417
-6.7130574
271.41866
727.75341
-174870.51
-141060.72
-130889.12
-135003.25
-139183.79
-142408.95
-145639.14
-148856.93
-152330.12
-152731.33
-154362.64
-155015.55
-154838.39
-154110.29
-154327.17
-151732.25
-152505.52
-149000.25
-149332.23
-146543.02
-146674.78
-146288.99
-146403.22
-143661.92
-142907.42
-139423.54
-137919.8
-134658.12
-132636.76
-129809.5
-127518.72
-125019.65
-122820.78
-120277.39
-118164.11
-115761.96
-113694.85
-111481.49
-109402.85
-107293.6
-105250.72
-103129.94
-101127.1
-99003.487
-96914.399
-94777.811
-92655.559
-90440.353
-88256.443
-85985.342
-83715.272
-81407.109
-79091.446
-76756.176
-74438.485
-72128.746
-69843.811
-67612.426
-65413.173
-63282.982
-61215.488
-59203.564
-57275.099
-55369.961
-53577.201
-51708.852
-49908.877
-48017.782
-46198.081
-44221.185
-42231.755
-40230.729
-37944.229
-35437.518
-32876.972
-30728.763
-27474.962
-24765.809
-22150.496
-19663.712
-17222.556
-14826.349
-12583.032
-10456.178
-8517.6076
-6757.4935
-5220.3008
-3882.2203
-2795.1758
-1814.1403
-1215.405
-502.52086
-159.61878
366.08654
1077.1853
-202794.64
-194429.56
-181020.29
-178287.29
-185094.74
-186324.71
-193464.79
-195611.84
-198577.08
-200409.13
-201866.6
-201446.32
-202138.33
-200432.29
-200277.03
-198325.97
-197066.35
-194410.83
-193642.27
-189850.23
-189420.32
-185215.88
-187068.26
-184845.41
-182578.98
-179220.52
-176694.25
-172915.09
-170175.63
-166602.35
-163884.02
-160597.03
-157893.02
-155026.62
-152233.21
-149731.07
-147005.52
-144550.48
-141986.96
-139581.52
-137043.82
-134640.94
-132129.28
-129635.18
-127067.47
-124445.91
-121787.15
-119019.07
-116234.15
-113392.58
-110505.73
-107609.64
-104714.35
-101824.61
-98974.287
-96177.858
-93433.592
-90768.334
-88171.189
-85655.626
-83184.948
-80794.293
-78400.225
-76018.016
-73674.986
-71190.727
-68802.822
-66284.951
-63596.795
-60813.561
-57933.666
-54794.041
-51545.815
-48322.839
-44607.441
-41640.301
-38023.077
-34312.369
-30627.637
-27134.944
-23652.316
-20372.58
-17248.521
-14378.828
-11717.072
-9359.8469
-7249.8783
-5452.2472
-3904.4986
-2603.6838
-1672.4384
-614.7743
-249.53975
495.01039
1195.3166
-283729.98
-258523.44
-223109.32
-238864.92
-235956.52
-247182.97
-248106.19
-254146.99
-255284.28
-257816.23
-258129.07
-258659.6
-257463.8
-256748.41
-255025.44
-252612.49
-250906.98
-247320.98
-245532.09
-241403.61
-239377.18
-235006.46
-231240.16
-226221.4
-223201.35
-218841.61
-216031.44
-211319.03
-207957.54
-203655.57
-200173.41
-196013.27
-192944.44
-189247.45
-186122.77
-182714.18
-179486.16
-176351.68
-173312.36
-170201.2
-167224.01
-164130.7
-161061.67
-157912.15
-154737.58
-151483.53
-148204.18
-144813.78
-141418.04
-137948.06
-134433.44
-130907.56
-127366.15
-123818.71
-120303.11
-116822
-113382.51
-110015.64
-106714.01
-103488.68
-100337.96
-97270.157
-94233.877
-91266.297
-88343.245
-85290.904
-82450.665
-79276.937
-76210.346
-72954.072
-69549.519
-66044.064
-62386.896
-58468.86
-54490.169
-50487.232
-46349.763
-42078.369
-37752.7
-33521.487
-29370.956
-25372.371
-21581.456
-18045.41
-14776.766
-11849.602
-9239.9891
-6982.7045
-5064.8473
-3466.4102
-2199.4531
-1087.1446
-495.52165
419.9513
1222.1113
-311473.72
-295058.52
-254497.44
-275189.16
-279442.52
-287142.09
-290578.34
-297242.2
-298477.38
-299948.44
-302545.03
-300635.67
-301045.91
-299935.94
-297075.51
-295817.69
-293408.84
-289071.61
-287536.66
-282593.86
-279385.15
-275632.94
-271494.44
-267978.46
-262882.55
-258494.41
-253752.65
-248847.13
-244973.69
-239853.85
-235793.47
-231012.31
-227041.4
-222666.11
-219044.8
-215609.26
-211930.55
-208739.44
-205270.38
-202095.12
-198793.68
-195530.98
-192217.81
-188794.8
-185291.79
-181633.15
-177846.25
-173923.61
-169875.7
-165725.06
-161486.77
-157214.8
-152921.78
-148655.59
-144446.73
-140332.47
-136321.66
-132452.79
-128704.16
-125107.42
-121607.17
-118223.67
-114862.09
-111574.02
-108169.95
-104688.73
-101235.86
-97477.531
-93624.822
-89542.571
-85282.437
-80638.961
-75798.357
-70877.908
-65561.708
-60255.113
-54799.878
-49365.17
-43962.251
-38724.895
-33626.928
-28789.56
-24236.314
-20045.3
-16205.184
-12812.071
-9799.8632
-7257.7348
-5087.8995
-3326.5675
-1979.3953
-825.81259
-142.32672
545.63085
1091.7762
-439166.85
-285675.36
-312888.16
-315381.88
-327566.97
-325405.87
-336556.92
-339171.46
-340510.42
-343278.38
-342702.55
-343932.65
-341688.83
-340587.16
-337869.92
-335679.98
-333622.09
-329381.07
-326709.17
-321662.35
-317856.32
-313066.91
-309611.02
-304006.07
-300361.31
-293478.58
-289163.28
-282605.61
-278813.08
-273142.03
-268556.55
-263259.19
-258592.73
-253528.31
-248749.49
-245281.84
-241365.98
-237542.55
-233738.92
-230037.21
-226309.13
-222585.53
-218746.4
-214807.6
-210756.03
-206526.72
-202174.63
-197662.59
-192998.82
-188240.71
-183369.18
-178460.57
-173532.16
-168621.39
-163786.95
-159044.81
-154431.15
-149961.46
-145657.45
-141492.4
-137477.87
-133562.95
-129735.63
-125921
-121997.6
-118017.07
-113839.62
-109514.42
-105509.53
-100798.04
-95779.668
-90350.937
-85057.226
-79111.294
-73156.691
-67027.176
-60892.93
-54633.231
-48525.383
-42496.212
-36732.383
-31246.191
-26156.278
-21454.767
-17239.169
-13485.723
-10246.298
-7487.5695
-5185.396
-3386.2203
-1954.4334
-847.6389
-242.99436
348.74628
784.64734
709555.05
730349.09
711898.2
731039.25
736066.88
742101.7
765976.47
751680.03
743921.13
743282.48
737888.73
714013.58
704830.47
749449.26
621451.48
671893.32
690061.24
660561.36
682421.38
684410.36
698893.13
680472.46
704924.2
698189.78
702417.93
689811.9
684997.86
685870.52
696467.17
584605.18
500542.99
575539.77
507873.75
532679.46
532543.86
527578.34
534555.64
529590.05
534566.46
526946.59
526189.34
530079.08
496232.74
549522.18
491114.44
425453.84
440599.6
439683.49
432892.18
448838.05
442654.05
451908.79
449935.47
447005.29
448807.96
449630.51
434671.93
435370.34
470966.35
320750.62
296603.23
340946.34
298328
326264.11
312445.11
327223.98
320721.93
323212.3
322582.3
323587.09
318861.15
318573.84
316862.59
326069.12
286126.87
214235
221079.65
209544.78
216212.01
217514.34
218585.85
217013.54
217732.5
219097.64
218752.25
210689.73
221983.3
206227.99
221584.96
209410.64
97208.615
99499.339
103951.51
97716.402
103780.62
104229.99
103510.9
102272.33
101984.74
102792.48
100191.86
95777.985
106094.47
93408.172
107860.6
-10115.162
-15579.149
-16407.115
-11182.336
-14426.612
-12539.724
-14167.168
-13266.225
-15535.367
-8193.1925
-24978.134
-7071.8751
-2738.9417
-29108.274
32914.575
-113255.02
-126320.69
-108685.55
-119902.06
-115401.58
-117512.19
-117099.98
-118238.04
-119059.43
-112637.47
-125554.01
-109014.35
-110899.88
-136280.4
-35901.246
-202871.19
-245677.57
-217918.78
-226063.81
-226005.18
-228476.34
-231679.19
-230165.78
-236417.89
-223754.02
-251363.24
-216919.53
-218754.36
-259480.67
-152498.38
-321836.44
-378478.88
-322210.17
-356605.52
-339540.44
-350329.81
-346056.41
-348454.63
-349475.16
-337013.22
-344917.75
-337888.45
-320584.85
-352982.11
-233556.1
-451697.74
-428291.99
-431898.08
-417839.68
-438787.24
-436949.31
-442169.47
-445335.06
-447570.29
-441851.14
-464530.13
-405811.34
-430364.23
-472121.7
-343338.57
-518224.77
-570998.6
-501925.36
-528554.18
-503422.03
-522223.54
-515842.32
-516726.52
-512571.31
-507883.89
-514822.86
-519523.23
-473476.37
-568996.33
-307658.07
-636479.98
-748961.29
-655856.78
-703829.69
-724597.26
-716746.6
-722461.46
-757828.81
-739241.59
-759150.87
-713572.71
-697608.78
-715867.08
-696551.49
-646743.65
-699064.59
-614031.33
-557541.89
-561365.34
-584146.62
-627960.05
-600494.69
-581410.91
-558529.58
-553235.32
-564662.19
-568552.39
-568349.46
-635079.82
-568678.94
-626222.53
-586575.92
-696526.94
-732296.96
-760326.18
-826678.37
-793920.44
-742629.27
-844363.56
-826681.37
-800359.72
-758161.92
-727514.58
-691655.65
-580877.04
-441834.04
-445169.26
-498342.01
-514819.47
-531719.89
-552144.66
-566665.3
-583819.54
-603945.89
-572321.63
-560927.61
-525229.18
-530377.9
-523695.2
-529972.54
-355067.18
-409748.29
-399038.87
-440062.58
-467942.12
-452495.29
-475946.94
-471153.36
-455163.65
-477572.88
-457977
-465784.72
-450062.12
-397073.33
-415388.96
-360591.07
-412294.14
-414996.18
-425527.72
-436714.25
-445981.87
-449104.99
-453066.34
-452662.77
-441408.39
-442433.28
-431747.89
-413481.11
-407178.58
-383422.67
-387085.95
-422917.22
-412135.84
-442259.51
-446540.32
-456003.85
-465054.79
-463815.84
-467077.52
-466518.37
-453745.98
-445021.15
-424952.5
-408516.39
-402130.32
-374888.92
-391979.48
-400504.48
-416363.16
-422796.36
-434021.92
-432892.09
-435149.78
-435725.55
-428048.52
-426740.18
-416849.7
-404830.8
-395859.9
-374827.96
-375495.74
-403116.46
-402738.11
-417827.51
-420025.55
-429190.42
-431911.38
-433553.88
-433471.69
-429237.65
-420805.58
-416259.84
-405095.72
-389782.91
-393010.9
-379351.8
-385770.62
-395744.81
-400515.9
-413004.48
-414220.34
-418295.57
-420077.33
-417927.16
-416000.47
-411136.71
-404727.51
-396665.99
-386343.74
-376941.82
-373973.31
-390425.26
-392574.37
-403532.7
-403054.08
-412542.92
-409622.48
-413524.16
-412072.25
-407627.51
-404828.25
-398392.35
-393095.91
-386309.38
-380315.62
-376723.3
-379652.17
-386124.8
-387613.93
-394341.41
-395255.48
-399027.07
-398640.05
-397963.79
-398429.71
-392611.27
-391268.33
-385436.63
-380036.7
-376342.81
-371645.98
-381380.65
-382351.35
-389813.27
-391124.84
-396888.83
-395162.12
-399248.08
-397598.8
-395532.85
-395095.46
-391906.44
-386891.92
-384687.07
-381060.97
-373092.41
-373955.41
-379197.43
-379558.31
-383125.75
-382893.31
-386134.74
-386627.33
-387321.98
-386517.52
-385280.38
-383100.78
-381433.88
-378263.49
-376741.78
-371639.41
-373173.94
-373734.58
-378787.97
-379282.84
-383741.44
-383328.88
-385654.61
-385190.97
-385339.59
-382881.17
-383043.75
-378709.1
-378570.04
-376125.66
-367743.57
-369744.35
-372753.85
-372287.43
-375540.79
-375056.05
-375919.39
-377947.51
-377935.51
-376711.55
-377049.1
-376430.26
-374766.82
-373698.26
-373680.78
-366666.64
-366753.66
-369173.85
-370564.6
-372475.21
-372772.2
-374338.34
-374598.85
-376075.26
-376619.53
-375562.98
-375381.41
-372621.17
-373725.02
-372994.21
-362740.86
-364417.41
-366700.89
-366523.72
-367764.51
-367745
-371119.43
-368312.29
-368958.41
-368596.26
-368111.61
-368283.2
-364139.85
-365757.54
-364611.12
-360974.82
-361039.35
-363276.18
-362255.41
-365641.9
-365908.07
-365990.88
-367199.12
-367510.42
-368155.19
-367424.1
-368860.37
-367779.4
-366087.96
-368701.43
-358604.91
-358036.7
-360261.13
-358977.86
-361049.3
-360923.84
-363102.92
-361613.53
-362327.87
-362014.55
-361378.23
-361178.79
-361351.49
-358695.37
-359643.79
-353975.52
-354656.28
-356684.06
-357131.37
-357779.26
-357542.21
-356925.08
-359316.04
-358430.96
-359411.82
-358273.52
-360017.77
-358403.37
-360273.63
-360102.1
-350226.28
-351175.85
-352282.07
-352228.84
-353203.62
-353825.62
-354740.02
-353460.5
-355521.49
-353887.52
-353270.86
-355096.48
-352388.34
-353869.08
-352594.14
-347523.85
-346564.62
-348654.35
-347606.31
-349449.42
-347847.11
-350071.15
-350299.35
-349488.2
-350532.21
-349667.23
-351418.14
-349432.96
-350678.37
-351037.89
-340016.3
-343042.11
-342654.1
-343611.85
-343645.96
-343970.09
-344713.3
-344411.99
-345477.69
-344909.98
-344819.21
-346112.6
-344518.95
-342727.15
-345695.26
-337913.49
-337037.04
-338369.28
-338221.63
-339228.67
-338513.24
-339573.08
-339605.42
-339022.71
-340624.86
-339526.51
-340156.07
-338621.1
-340619.15
-340531.63
-331283.18
-331250.8
-332434.77
-332888.58
-333090.29
-333235.99
-333995.4
-332965.76
-334329.32
-334070.84
-333709.75
-335531.9
-333730.55
-334046.88
-334318.77
-326200.95
-326261.99
-326408.7
-326765.53
-327247.31
-326732.1
-328078.95
-327640.61
-327738.77
-328470.51
-326411.72
-328799.46
-327883.23
-327884.93
-328893.87
-321447.84
-318946.32
-321052.64
-319522.66
-321300.1
-320308.51
-321522.4
-320852.72
-321735.08
-321888.07
-322671.16
-322228.82
-320992.41
-323481.83
-321791.83
-314179.5
-313630.4
-313842.92
-314255.37
-313692.17
-314951.42
-314590.56
-315202.43
-314850.28
-315288.41
-314973.45
-316723.8
-314404.17
-315531.1
-317512.63
-309328.1
-306554.25
-307211.23
-307555.83
-308362.51
-307822.83
-308127.3
-307885.58
-308784.02
-308618.82
-308944.86
-309677.78
-308562.12
-311255.38
-309412.17
-301510.27
-301825.62
-301717.2
-300778.61
-301465.26
-301387.36
-301529.4
-301891.36
-301763.05
-302456.31
-301887.99
-302977.74
-302644.95
-302706.5
-305336.3
-297359.57
-293978.81
-295597.1
-294588.9
-295601.96
-294541.24
-295101.03
-295194.39
-295741.35
-295284.28
-295799.62
-296635.67
-295690.9
-298173.04
-298074.39
-291107.36
-288824.58
-289340.99
-288849.42
-288882.51
-289279.75
-289012.6
-288779.45
-288801.86
-289899.51
-289582.53
-290781.3
-289886.95
-291383.02
-292053.17
-285755.51
-282595.11
-283668.42
-282902.04
-283081.78
-283317.36
-282989.99
-283236
-283026.49
-283655.15
-283539.92
-284782.43
-284103.03
-285971.83
-286247.47
-280261.92
-277387.35
-278132.3
-277463.14
-277789.39
-277452.37
-277571.4
-277457.91
-277770.27
-278131.89
-278139.81
-279250.64
-278700.32
-280376.37
-280745.73
-274990.24
-272279.08
-272960.33
-272396.65
-272448.39
-272357.84
-272432.05
-272437.04
-272593.78
-272972.19
-272970.43
-274057.79
-273693.84
-275410.44
-275741.57
-269851.65
-267641.76
-268297.29
-267362.55
-267687.52
-267853.63
-267473.14
-267987.05
-267650.17
-268641.71
-267966.77
-269578.19
-268562.37
-270700.1
-270081.21
-264492.81
-264078.13
-263313.22
-264321.97
-263014.65
-263536.13
-263250.47
-263414.81
-263530.33
-263956.76
-263959.1
-264781.22
-264923.86
-265739.52
-267357.24
-261881.78
-258726.73
-259872.18
-259115.11
-259903.62
-259072.94
-259814.59
-259261.74
-259986.81
-259618.87
-259990.56
-261106.94
-260474.32
-261997.58
-262159.36
-257305.52
-255622.95
-255912.11
-255990.08
-255578.61
-256033.46
-255643.4
-256107.18
-256016.62
-256321.27
-256252.75
-257239.62
-256933.69
-257853.06
-258308.15
-254082.93
-251567.03
-252586.38
-252184.71
-252526.14
-252356.32
-252582.09
-252576.12
-252637.73
-253084.24
-252816.66
-253944.63
-253265.91
-254229.37
-254556.26
-250055.16
-248370.71
-249106.82
-249136.41
-249139.2
-249375.04
-249359.92
-249410.88
-249592.75
-249851.05
-249655.26
-250471.59
-250002.63
-250614.25
-251066.37
-246686.12
-244858.99
-245877.68
-245737.88
-246015.28
-246054.05
-246176.23
-246265.73
-246357.71
-246711.13
-246351.98
-247233.62
-246636.22
-247062
-247468.88
-242975.12
-241575.39
-242449.69
-242608.44
-242778.92
-242974.26
-243112.41
-243103.85
-243275.73
-243471.68
-243193.99
-243917.24
-243321
-243443.15