/*--------------------------------*- C++ -*----------------------------------*\
  =========                 |
  \\      /  F ield         | OpenFOAM: The Open Source CFD Toolbox
   \\    /   O peration     | Website:  https://openfoam.org
    \\  /    A nd           | Version:  6
     \\/     M anipulation  |
\*---------------------------------------------------------------------------*/
FoamFile
{
    version     2.0;
    format      ascii;
    class       pointVectorField;
    location    "1.58";
    object      u;
}
// * * * * * * * * * * * * * * * * * * * * * * * * * * * * * * * * * * * * * //

dimensions      [0 1 0 0 0 0 0];

internalField   nonuniform List<vector> 
28033
(
(0 0 0)
(0 0 0)
(0.27097623 0.038302608 0.0083185362)
(0.2669627 -0.050381907 0.007150614)
(0 0 0)
(0 0 0)
(0.26766338 -0.053440925 0.0072528701)
(0.27168755 0.03520793 0.0080634021)
(0 0 0)
(0 0 0)
(0 0 0)
(0 0 0)
(0 0 0)
(0 0 0)
(0 0 0)
(0 0 0)
(0 0 0)
(0 0 0)
(0 0 0)
(0 0 0)
(0 0 0)
(0 0 0)
(0 0 0)
(0.2706174 0.032207455 0.0079974389)
(0.27018471 0.026533725 0.0079396786)
(0.26976375 0.0209867 0.0078314634)
(0.26941767 0.015506994 0.0077990192)
(0.26908822 0.01009799 0.0077659245)
(0.26878051 0.0047296355 0.0077486523)
(0.26851164 -0.00061059908 0.0077450093)
(0.26826404 -0.0059410092 0.007747845)
(0.26804335 -0.011271457 0.0077417569)
(0.26784404 -0.016629537 0.0077409476)
(0.26766954 -0.022005177 0.0077179735)
(0.26750629 -0.027448737 0.0076731041)
(0.26738412 -0.032941479 0.0076153822)
(0.26723112 -0.038549713 0.0075397932)
(0.26716108 -0.044285319 0.0073846686)
(-6.3993537e-05 -4.2114049e-05 2.2522294e-05)
(-0.00023951862 -3.2478398e-05 0.00012004815)
(-0.00045408983 6.3157377e-05 0.00023187865)
(-0.00061629711 0.00010610922 0.00032390176)
(-0.00083607168 0.0002638553 0.00042266754)
(-0.00098511506 0.00036502694 0.00051940066)
(-0.0011665128 0.00057478664 0.0006145835)
(-0.0012869372 0.0007197938 0.00070869737)
(-0.0014263941 0.00098290094 0.00080273925)
(-0.0015007233 0.001186519 0.00090406104)
(-0.0015860957 0.0014826165 0.00099477858)
(-0.0016084127 0.0017473895 0.0010931944)
(-0.0016241047 0.0020892896 0.001192649)
(-0.0015669113 0.0024128823 0.0012851891)
(-0.0015061997 0.002791565 0.0013901731)
(-0.0013641329 0.0031685547 0.001473039)
(-0.0011959763 0.0036042395 0.0015777598)
(-0.00095667929 0.0040247767 0.001665217)
(-0.00067920099 0.004503637 0.0017618195)
(-0.00031779077 0.0049822627 0.0018419926)
(8.5067064e-05 0.0055025158 0.0019398298)
(0.00057454601 0.0060272904 0.002014078)
(0.0011226141 0.0065923512 0.0021050444)
(0.0017494415 0.0071640181 0.0021849388)
(0.0024513254 0.0077672756 0.0022647951)
(0.0032343091 0.0083816017 0.0023437432)
(0.0040949481 0.0090216423 0.0024237764)
(0.0050401219 0.0096758824 0.002502921)
(0.0060770579 0.010350796 0.0025780766)
(0.0071934787 0.011034056 0.0026600153)
(0.0084081615 0.011745665 0.0027375359)
(0.0097119001 0.012458168 0.0028146525)
(0.011109631 0.013193484 0.0028991012)
(0.012605956 0.013929106 0.002978036)
(0.014199113 0.014686167 0.0030628064)
(0.015894395 0.015444932 0.0031409496)
(0.0176887 0.016213605 0.0032272714)
(0.019591489 0.016990731 0.0033117375)
(0.021595907 0.017765186 0.0033899239)
(0.023710915 0.018550828 0.0034731707)
(0.02593125 0.019329324 0.0035529091)
(0.028261041 0.020114215 0.0036327399)
(0.030703196 0.020891618 0.0037074102)
(0.033256838 0.021669669 0.0037825753)
(0.035919854 0.022435404 0.0038529026)
(0.038697186 0.023197375 0.003920723)
(0.041581602 0.023946147 0.0039857155)
(0.044580073 0.024683227 0.0040462676)
(0.047682599 0.025405848 0.0041045707)
(0.050896134 0.026111547 0.004158928)
(0.054210231 0.02679994 0.0042107019)
(0.057629473 0.027466903 0.004259743)
(0.061144957 0.028115007 0.0043066547)
(0.064757963 0.028737339 0.0043519318)
(0.068461652 0.029339775 0.004395844)
(0.072254396 0.029914394 0.0044396528)
(0.076131007 0.030467192 0.0044830016)
(0.080088482 0.030992688 0.0045274679)
(0.084121883 0.03149543 0.0045728504)
(0.088228514 0.031971318 0.0046203654)
(0.09240345 0.032425548 0.0046700069)
(0.096644628 0.032854858 0.0047224456)
(0.10094623 0.03326376 0.0047787585)
(0.10531014 0.033648737 0.0048374984)
(0.10972647 0.034018985 0.0049020106)
(0.11420031 0.034366017 0.0049691759)
(0.11872465 0.034697389 0.0050415853)
(0.12329857 0.035014329 0.0051195741)
(0.12792129 0.035315005 0.0051999618)
(0.13259203 0.035605717 0.0052897286)
(0.13731009 0.03588306 0.0053817868)
(0.14207272 0.036145857 0.0054823982)
(0.14688378 0.036409527 0.0055833773)
(0.15173933 0.036644722 0.005697077)
(0.15664197 0.036899681 0.0058056285)
(0.16159307 0.037105318 0.0059327402)
(0.1665858 0.037352593 0.0060481203)
(0.17163624 0.0375302 0.0061862938)
(0.17671979 0.037763721 0.0063082529)
(0.18186943 0.037918011 0.0064553424)
(0.18705166 0.038124246 0.0065800358)
(0.19229387 0.038261712 0.0067343398)
(0.19758117 0.038428888 0.0068616145)
(0.20291332 0.038543218 0.0070173723)
(0.20830218 0.038665861 0.0071483282)
(0.21373044 0.03875793 0.0072941457)
(0.21921939 0.038817096 0.007426548)
(0.22473621 0.038874647 0.0075667308)
(0.23031881 0.038882224 0.0076859788)
(0.23592019 0.038896539 0.0078173969)
(0.24158931 0.038820942 0.0079465075)
(0.24727431 0.038842977 0.0080312086)
(0.25301635 0.038689133 0.0081968589)
(0.25883151 0.038650646 0.0082672823)
(0.26464051 0.038572293 0.0084227685)
(-9.2122302e-05 0.00010123131 0.00011679893)
(-0.00034023281 9.8444878e-05 -3.0984936e-05)
(-0.00057422931 0.00013788065 -0.0001106796)
(-0.00076967561 2.6024501e-05 -0.00021234549)
(-0.00099554957 6.0956521e-07 -0.00032923063)
(-0.0011677708 -0.00013674365 -0.00041052028)
(-0.0013461181 -0.00022987456 -0.00052874694)
(-0.0014822119 -0.00040047196 -0.00060607471)
(-0.0016160066 -0.00054864232 -0.00072248398)
(-0.001710412 -0.00075399416 -0.00080265581)
(-0.0017782353 -0.00095947354 -0.00090896706)
(-0.001824755 -0.0012019808 -0.00099781169)
(-0.0018177284 -0.0014634618 -0.0010906576)
(-0.0017890112 -0.0017549676 -0.0011867768)
(-0.0017083026 -0.0020587976 -0.0012751308)
(-0.001590091 -0.0024057593 -0.001371776)
(-0.0014211837 -0.0027508942 -0.0014588313)
(-0.0011975109 -0.0031498741 -0.0015504187)
(-0.00092617895 -0.0035427961 -0.0016377342)
(-0.0005817794 -0.0039878767 -0.0017269978)
(-0.00019244208 -0.0044242676 -0.0018048002)
(0.00027971143 -0.0049173991 -0.0018948988)
(0.00079471805 -0.0053889882 -0.0019675212)
(0.0014098522 -0.0059258774 -0.0020463385)
(0.0020633883 -0.0064404141 -0.0021189801)
(0.0028369873 -0.0070132323 -0.0021796022)
(0.0036486229 -0.0075717361 -0.0022512241)
(0.0045796878 -0.0081731779 -0.0022987454)
(0.0055633162 -0.0087741489 -0.0023607477)
(0.0066595176 -0.0094012475 -0.0023975133)
(0.0078250704 -0.010043394 -0.0024437338)
(0.0090960057 -0.010696159 -0.0024731858)
(0.010449179 -0.01137208 -0.0025038857)
(0.011904696 -0.012052835 -0.0025212696)
(0.013453965 -0.012757977 -0.0025364515)
(0.01509955 -0.013464299 -0.0025446099)
(0.01685088 -0.014193282 -0.002538527)
(0.018700425 -0.014928546 -0.0025319615)
(0.020655499 -0.015676668 -0.0025137979)
(0.022713403 -0.016432253 -0.0024892196)
(0.024881592 -0.017199662 -0.0024545575)
(0.027152603 -0.017971076 -0.0024126769)
(0.029537165 -0.018751923 -0.0023596949)
(0.03202685 -0.019535094 -0.0022990532)
(0.034629314 -0.020323451 -0.00222723)
(0.037340085 -0.021112773 -0.0021462)
(0.040160924 -0.02190267 -0.0020548842)
(0.04309079 -0.022691422 -0.001953316)
(0.046128403 -0.023477375 -0.0018419477)
(0.049272211 -0.024258547 -0.0017206686)
(0.052520575 -0.025034405 -0.0015900721)
(0.055870678 -0.025802521 -0.0014507025)
(0.059319772 -0.026561969 -0.0013032011)
(0.062865247 -0.027311837 -0.0011483869)
(0.066502598 -0.028050532 -0.00098742726)
(0.070228969 -0.0287772 -0.00082115062)
(0.074040199 -0.029491902 -0.00065082431)
(0.077931992 -0.030192763 -0.00047760739)
(0.081900373 -0.030880539 -0.00030284235)
(0.08594203 -0.031554741 -0.00012710668)
(0.090051633 -0.032214898 4.7550588e-05)
(0.094227038 -0.032861947 0.00022137241)
(0.098463676 -0.033495626 0.00039236662)
(0.1027591 -0.034116898 0.00056104824)
(0.10710962 -0.034725398 0.0007255634)
(0.11151437 -0.035324197 0.00088759135)
(0.11596985 -0.035910191 0.0010446406)
(0.12047438 -0.036489177 0.0011995549)
(0.12502858 -0.037056233 0.0013489285)
(0.1296285 -0.037616178 0.001500154)
(0.13427631 -0.038171735 0.0016461581)
(0.13896975 -0.038717068 0.0017922491)
(0.14371268 -0.039261808 0.0019388359)
(0.14849807 -0.039796571 0.0020844064)
(0.15333697 -0.040333106 0.0022359869)
(0.15821806 -0.040860704 0.0023855902)
(0.1631534 -0.041390997 0.0025453319)
(0.16813486 -0.041912771 0.0027050445)
(0.17316993 -0.042438088 0.0028761057)
(0.17825418 -0.042954266 0.0030504419)
(0.18339281 -0.043474127 0.0032366075)
(0.18858282 -0.043984441 0.0034286485)
(0.19382612 -0.044495946 0.0036326171)
(0.19912384 -0.044998441 0.0038445623)
(0.20447182 -0.045497231 0.0040670841)
(0.20987531 -0.045988378 0.0042998502)
(0.21532691 -0.046469699 0.0045416144)
(0.22083077 -0.046941674 0.0047917935)
(0.22638103 -0.047404094 0.0050532323)
(0.2319806 -0.047850413 0.0053185904)
(0.23761934 -0.048284922 0.0055925673)
(0.24331257 -0.04871102 0.0058703209)
(0.24904048 -0.049127756 0.0061631335)
(0.2548505 -0.049520689 0.006436599)
(0.26073368 -0.04997845 0.0067660782)
(0 0 0)
(0 0 0)
(0 0 0)
(0 0 0)
(0 0 0)
(0 0 0)
(0 0 0)
(0 0 0)
(0 0 0)
(0 0 0)
(0 0 0)
(0 0 0)
(0 0 0)
(0 0 0)
(0 0 0)
(-0.00010391302 6.3486498e-05 -0.00011151019)
(-0.0003315057 0.00015919461 -1.8309448e-05)
(-0.00052917472 0.00010147156 5.6359874e-05)
(-0.00073312759 5.6551477e-05 0.00013674834)
(-0.00093806342 1.1724633e-06 0.00021453938)
(-0.0010832988 -0.00015299768 0.00029077497)
(-0.0012666426 -0.00022896579 0.00038870658)
(-0.0013824784 -0.00042224357 0.00045337419)
(-0.0015145305 -0.00056225795 0.00056100297)
(-0.0015842281 -0.00080059643 0.00063110143)
(-0.0016562492 -0.0009848103 0.00073409634)
(-0.001687602 -0.00125479 0.00080669995)
(-0.0016727445 -0.0015212005 0.00092024764)
(-0.0016459875 -0.001802298 0.00098007716)
(-0.0015338959 -0.0021620597 0.001105706)
(-0.0014303553 -0.0024586394 0.0011668361)
(-0.0012282122 -0.0028795258 0.0012840653)
(-0.0010129184 -0.0032192655 0.0013416038)
(-0.0007150908 -0.0036928401 0.001456141)
(-0.00036447272 -0.0040931197 0.0015119618)
(3.2725351e-05 -0.0045860755 0.0016181043)
(0.00053142654 -0.0050657095 0.0016753073)
(0.0010590358 -0.0055825311 0.0017692768)
(0.0017011294 -0.0061365389 0.0018386588)
(0.0023671946 -0.0066671499 0.001911864)
(0.0031654047 -0.007287669 0.0019859581)
(0.0039897611 -0.0078512553 0.0020545169)
(0.0049483909 -0.0085161219 0.0021265533)
(0.0059425698 -0.0091223829 0.0021953414)
(0.0070653451 -0.0098196624 0.0022677558)
(0.008239405 -0.010473598 0.0023366373)
(0.0095342909 -0.011196061 0.002407027)
(0.010896873 -0.011894537 0.0024784493)
(0.012374187 -0.012643988 0.0025484222)
(0.013931115 -0.013378815 0.0026230852)
(0.015593449 -0.014142308 0.0026899383)
(0.017356092 -0.014921593 0.0027646312)
(0.019220265 -0.015709989 0.0028367597)
(0.021183675 -0.016504869 0.0029067336)
(0.023256974 -0.017317272 0.00297682)
(0.0254325 -0.018131468 0.0030439331)
(0.027718021 -0.018958805 0.0031105841)
(0.03011075 -0.01978744 0.003172205)
(0.032613743 -0.020624605 0.0032337527)
(0.035225133 -0.021460762 0.0032886694)
(0.037947794 -0.022302273 0.0033431851)
(0.040778355 -0.023139509 0.0033909448)
(0.04371862 -0.023978023 0.0034374625)
(0.04676565 -0.024810169 0.0034780369)
(0.049918701 -0.025638777 0.0035172204)
(0.053174929 -0.026458808 0.0035517589)
(0.05653289 -0.027271368 0.0035845571)
(0.059988664 -0.028073061 0.0036149251)
(0.063539739 -0.028863545 0.0036437386)
(0.067182618 -0.02964212 0.0036719683)
(0.070913376 -0.030406203 0.0036995664)
(0.074728453 -0.03115744 0.0037283442)
(0.078624108 -0.031893132 0.0037576019)
(0.082596049 -0.032614715 0.003789361)
(0.086641136 -0.033321188 0.0038231217)
(0.090755038 -0.034013456 0.0038601689)
(0.09493497 -0.034691434 0.0039004512)
(0.099177028 -0.035356487 0.0039449817)
(0.10347876 -0.036008587 0.0039934019)
(0.1078373 -0.036649715 0.0040466483)
(0.1122499 -0.037280078 0.0041046677)
(0.11671587 -0.037901521 0.0041672742)
(0.12123051 -0.038516845 0.0042373479)
(0.12579845 -0.039118714 0.0043080442)
(0.1304096 -0.039723729 0.0043883442)
(0.13507099 -0.040318511 0.0044724167)
(0.13977809 -0.040912196 0.004563284)
(0.1445321 -0.041501275 0.004657828)
(0.14933298 -0.042089905 0.004759405)
(0.15417991 -0.042675375 0.0048649261)
(0.15907461 -0.043260553 0.0049765396)
(0.16401607 -0.043843259 0.0050918353)
(0.16900633 -0.044424956 0.0052126008)
(0.17404451 -0.045004247 0.0053362835)
(0.17913236 -0.045580404 0.0054646146)
(0.18426949 -0.046153332 0.0055942297)
(0.18945776 -0.046720873 0.0057275836)
(0.19469563 -0.047282355 0.005860463)
(0.19998578 -0.04783622 0.0059953465)
(0.20532561 -0.048380084 0.006128214)
(0.21071719 -0.04891395 0.0062616814)
(0.21615722 -0.049432509 0.0063906908)
(0.22164835 -0.049940024 0.0065198334)
(0.2271842 -0.050426058 0.006642131)
(0.23277056 -0.050901342 0.0067646972)
(0.23839595 -0.051349724 0.0068770817)
(0.24407681 -0.051793532 0.0069927294)
(0.24978982 -0.052209187 0.0070903175)
(0.25559954 -0.05262719 0.007193754)
(0.26143209 -0.053087922 0.0072562216)
(0.26790623 -0.047351561 0.0071661627)
(0.26798202 -0.041677425 0.0071405312)
(0.26809398 -0.036038954 0.0071895084)
(0.26823854 -0.030570119 0.007234751)
(0.26838874 -0.02512377 0.0073381191)
(0.2685605 -0.019752868 0.0074254849)
(0.26875452 -0.01440139 0.0075522812)
(0.26896537 -0.0090647038 0.0076660447)
(0.2692284 -0.0037466347 0.0077840578)
(0.26947258 0.0016053243 0.0079020865)
(0.26978651 0.0069689634 0.0079979648)
(0.27010912 0.01238032 0.0080838073)
(0.27047203 0.017853406 0.0081604597)
(0.27081724 0.023425658 0.0081912178)
(0.27133536 0.029064539 0.0082014836)
(0.26539177 0.035488165 0.0075935278)
(0.25947606 0.035514536 0.0073179331)
(0.25367945 0.0356389 0.0070173738)
(0.24791432 0.035727741 0.0067455378)
(0.24220043 0.035802413 0.0064542387)
(0.23652456 0.035855482 0.0061776295)
(0.23089157 0.035887398 0.0059043794)
(0.2252995 0.035900197 0.005635966)
(0.21975462 0.035889056 0.0053791922)
(0.21425566 0.035863258 0.0051268849)
(0.20880579 0.035815308 0.0048875442)
(0.20340577 0.035753551 0.0046554176)
(0.1980562 0.035673993 0.0044342813)
(0.19275643 0.035581907 0.0042196598)
(0.18751 0.035474795 0.0040167521)
(0.18231505 0.035356066 0.0038219777)
(0.17717196 0.035224901 0.0036365858)
(0.17207908 0.035081711 0.0034581157)
(0.16703642 0.034928649 0.003286235)
(0.16204347 0.034762482 0.0031204007)
(0.15709826 0.034587627 0.002958664)
(0.1522018 0.034398912 0.0028008108)
(0.14735101 0.034201486 0.0026446554)
(0.14254793 0.033989017 0.0024902792)
(0.13778967 0.033766832 0.002335692)
(0.13307751 0.033529858 0.0021797556)
(0.12840973 0.033278197 0.0020221906)
(0.12379703 0.033009551 0.0018651827)
(0.11922083 0.03272992 0.0017006274)
(0.11469821 0.032429448 0.0015347934)
(0.11022452 0.03211279 0.0013642651)
(0.10580322 0.031776556 0.0011903936)
(0.1014358 0.03142084 0.0010130638)
(0.097125788 0.031043761 0.00083229767)
(0.092875911 0.030645502 0.00064906605)
(0.088689778 0.03022459 0.00046415273)
(0.084571052 0.029781037 0.00027795731)
(0.080523826 0.029313892 9.2317693e-05)
(0.076552117 0.028823671 -9.24856e-05)
(0.072660121 0.028309454 -0.00027457544)
(0.068852023 0.027772571 -0.0004535422)
(0.065132014 0.027212236 -0.0006272669)
(0.061503804 0.026630554 -0.00079601435)
(0.057971399 0.026026781 -0.00095720848)
(0.054537894 0.025404053 -0.0011117313)
(0.051206675 0.02476132 -0.0012570128)
(0.047980103 0.024102866 -0.001394368)
(0.044860667 0.02342727 -0.0015213925)
(0.041850011 0.022739637 -0.0016397965)
(0.038949683 0.022038332 -0.0017471756)
(0.036160397 0.021329031 -0.0018460332)
(0.033482753 0.020609663 -0.0019335039)
(0.030917124 0.019886252 -0.0020126481)
(0.028463394 0.019156341 -0.0020810364)
(0.026119154 0.018427901 -0.0021417183)
(0.023887897 0.017692997 -0.0021901427)
(0.02176152 0.016967748 -0.0022350657)
(0.019745104 0.016237392 -0.0022642151)
(0.017842236 0.015507341 -0.0022888483)
(0.016033906 0.014796758 -0.0023075445)
(0.014327501 0.014086406 -0.0023160217)
(0.012741545 0.013371293 -0.0023125724)
(0.01123325 0.012686122 -0.0023083912)
(0.0098333262 0.012000106 -0.0022969987)
(0.008523508 0.011323721 -0.0022737176)
(0.0073171583 0.010658113 -0.0022492028)
(0.0061910132 0.010012836 -0.0022092135)
(0.0051644195 0.0093732175 -0.0021737672)
(0.0042184154 0.0087507384 -0.0021245903)
(0.0033563522 0.0081488477 -0.0020780091)
(0.0025788303 0.0075534136 -0.0020205319)
(0.0018749108 0.0069856524 -0.0019601645)
(0.0012562597 0.0064207642 -0.0018947373)
(0.00070342052 0.0058923757 -0.0018287961)
(0.00021855462 0.0053773121 -0.0017598259)
(-0.00019112207 0.0048709936 -0.0016821526)
(-0.00054820872 0.0044127294 -0.0016147984)
(-0.00083534972 0.0039401659 -0.0015289644)
(-0.0010751255 0.0035334299 -0.0014611091)
(-0.0012534823 0.0031032668 -0.0013733634)
(-0.0013910705 0.0027512359 -0.0013023015)
(-0.0014722388 0.0023583599 -0.001205092)
(-0.0015298868 0.0020610035 -0.0011420129)
(-0.0015257589 0.0017099234 -0.0010407836)
(-0.0015060999 0.0014725942 -0.00097949807)
(-0.0014398038 0.001175884 -0.00087590286)
(-0.0013606339 0.00097721966 -0.00080334576)
(-0.0012413652 0.00073051747 -0.00070079507)
(-0.0011107975 0.00057194907 -0.00062647192)
(-0.0009550966 0.00039419731 -0.00052480539)
(-0.0007851068 0.00026887339 -0.00043255992)
(-0.00061238446 0.00014823803 -0.00033395927)
(-0.00040143436 6.5340075e-05 -0.00022807544)
(-0.00023225794 1.826957e-05 -0.00012338217)
(-3.186385e-05 -3.7865104e-05 -4.848542e-06)
(0 0 0)
(0 0 0)
(0 0 0)
(0 0 0)
(0 0 0)
(0 0 0)
(0 0 0)
(0 0 0)
(0 0 0)
(0 0 0)
(0 0 0)
(0 0 0)
(0 0 0)
(0 0 0)
(0 0 0)
(0 0 0)
(0 0 0)
(0 0 0)
(0 0 0)
(0 0 0)
(0 0 0)
(0 0 0)
(0 0 0)
(0 0 0)
(0 0 0)
(0 0 0)
(0 0 0)
(0 0 0)
(0 0 0)
(0 0 0)
(0.26709192 -0.050712376 0.0071385759)
(0.26717071 -0.050972841 0.0071303638)
(0.26722998 -0.051195665 0.007120695)
(0.2672953 -0.051415321 0.0071247238)
(0.26735432 -0.051623838 0.0071307601)
(0.26741191 -0.051825113 0.0071495893)
(0.26746185 -0.052020303 0.0071670101)
(0.26750817 -0.052210551 0.0071939839)
(0.26754978 -0.052399261 0.0072156929)
(0.26758303 -0.052582603 0.0072381033)
(0.2676246 -0.052771651 0.0072592555)
(0.26764537 -0.052937952 0.0072701268)
(0.26767822 -0.053115824 0.00727663)
(0.26770066 -0.053269676 0.0072756522)
(0.26773547 -0.05343184 0.0072615991)
(0.27115695 0.038276545 0.0083054241)
(0.27122403 0.038104819 0.0083244193)
(0.27128374 0.037942782 0.0083015935)
(0.27135669 0.037774778 0.0082844384)
(0.27140826 0.037590537 0.0082646211)
(0.27146782 0.03740683 0.0082307389)
(0.27152089 0.037224855 0.0082018457)
(0.27157004 0.037035958 0.008166355)
(0.2716143 0.036847647 0.0081341465)
(0.27165206 0.036655613 0.0081061034)
(0.27168703 0.036455945 0.0080801624)
(0.27171394 0.036252953 0.0080610443)
(0.27174366 0.036047551 0.0080639685)
(0.27176198 0.035797506 0.0080340863)
(0.27179782 0.035611254 0.0080552127)
(-5.7102895e-05 7.7486394e-05 5.403637e-05)
(-0.00028491102 0.00015276349 0.00015906562)
(-0.00048375472 0.00022484108 0.00022000909)
(-0.0006712943 0.00031203592 0.00030493933)
(-0.00089302111 0.00042424069 0.00039119532)
(-0.0010591229 0.00054870053 0.00047863136)
(-0.0012388238 0.00070012088 0.00054806587)
(-0.0013787241 0.00087737497 0.00064319767)
(-0.0015287773 0.0010620767 0.00072043054)
(-0.0016133063 0.0012925885 0.00080278823)
(-0.0017116216 0.0015100296 0.00088786556)
(-0.0017403417 0.0017932974 0.00097554582)
(-0.001762435 0.0020488278 0.0010531485)
(-0.0017247675 0.0023743651 0.0011433666)
(-0.0016702739 0.0026720864 0.0012236557)
(-0.0015369691 0.0030426851 0.0013115977)
(-0.0013778522 0.0033869304 0.0013883121)
(-0.0011590955 0.0037854923 0.0014756599)
(-0.00087899614 0.0041863663 0.001550234)
(-0.0005350234 0.0046183758 0.0016319463)
(-0.0001391601 0.0050621281 0.0017064677)
(0.00033941014 0.0055292177 0.0017856712)
(0.00088019482 0.0060188528 0.0018550852)
(0.0014931335 0.0065181465 0.001930403)
(0.0021892292 0.0070463153 0.0019992255)
(0.0029582255 0.0075805072 0.0020739846)
(0.0038133703 0.0081447151 0.0021397407)
(0.0047484517 0.0087103429 0.0022136875)
(0.0057753387 0.0093010567 0.0022818493)
(0.0068850688 0.0099037755 0.0023551027)
(0.008089351 0.010514802 0.0024244747)
(0.0093866755 0.011142099 0.0024986535)
(0.010777162 0.011778582 0.0025718195)
(0.012262619 0.012424613 0.0026473002)
(0.013849449 0.013081407 0.0027217425)
(0.015537194 0.013739491 0.0028004489)
(0.017326919 0.014411345 0.0028771735)
(0.019218095 0.015080189 0.0029525944)
(0.021220511 0.015756211 0.0030324932)
(0.023326461 0.01643382 0.0031097132)
(0.025544088 0.017110249 0.0031875601)
(0.027870355 0.017780948 0.0032627086)
(0.030307364 0.018457505 0.0033380277)
(0.032858494 0.019120095 0.0034099754)
(0.035517719 0.019781508 0.0034804619)
(0.038291615 0.020433274 0.0035496235)
(0.041175505 0.021074245 0.0036141544)
(0.044170263 0.021704699 0.003678864)
(0.04727383 0.022321591 0.0037389031)
(0.050485246 0.022923473 0.0037981592)
(0.053801008 0.023510135 0.0038540772)
(0.057219891 0.024078333 0.0039094764)
(0.060737594 0.024629264 0.0039619216)
(0.064351901 0.025159431 0.004014754)
(0.068058207 0.025670998 0.0040656232)
(0.071853494 0.026159849 0.0041175524)
(0.075733196 0.026629631 0.0041687646)
(0.079693825 0.027076343 0.0042216344)
(0.083730635 0.027503132 0.0042751864)
(0.087840627 0.027907963 0.004331107)
(0.092019042 0.028293271 0.0043884372)
(0.09626287 0.028658114 0.0044490577)
(0.10056827 0.029003819 0.0045123606)
(0.10493339 0.029331038 0.0045790134)
(0.10935182 0.029644053 0.0046483218)
(0.11382802 0.029934517 0.0047240493)
(0.11835522 0.030218752 0.0048010515)
(0.12292801 0.030481436 0.004885692)
(0.12755348 0.030735488 0.0049733599)
(0.13222165 0.03097399 0.0050665291)
(0.13694073 0.03120434 0.0051618046)
(0.14170174 0.0314216 0.0052649316)
(0.14651408 0.031633611 0.0053697333)
(0.15136699 0.031828486 0.0054831904)
(0.15627079 0.032025841 0.0055975154)
(0.16121884 0.032196125 0.0057219959)
(0.16621335 0.032381552 0.0058437495)
(0.17125915 0.03252442 0.0059799243)
(0.1763461 0.032695565 0.0061071581)
(0.18149214 0.032813456 0.0062524722)
(0.18667407 0.032955706 0.0063865641)
(0.19191939 0.033057876 0.0065345664)
(0.19720385 0.033159006 0.0066744664)
(0.20254108 0.033234088 0.0068231517)
(0.20792702 0.033304196 0.0069602994)
(0.21336404 0.033338747 0.007109432)
(0.21885245 0.033361072 0.0072486975)
(0.22437808 0.033361545 0.0073848431)
(0.22996114 0.033340256 0.0075193911)
(0.2355724 0.033270064 0.0076612346)
(0.24124092 0.033226394 0.0077604774)
(0.24693243 0.033106175 0.0079022302)
(0.25268978 0.032937125 0.0079966395)
(0.25848859 0.032835156 0.0080656175)
(0.26438717 0.03249089 0.0081168147)
(-0.00010558622 7.2788263e-05 9.7735247e-05)
(-0.00030611302 0.00015494709 0.00013358407)
(-0.00049220196 0.00025235591 0.00019247078)
(-0.00071443871 0.00031339384 0.00027731728)
(-0.00092762841 0.00044890474 0.00033541188)
(-0.001098146 0.00054699259 0.00039707281)
(-0.0012966971 0.00070444011 0.00047685813)
(-0.0014558841 0.00083846728 0.00054368551)
(-0.0015890601 0.0010377557 0.00060954255)
(-0.0017049974 0.0011977988 0.00068822018)
(-0.0017974867 0.0014313006 0.00076167359)
(-0.0018423839 0.0016390051 0.00082092921)
(-0.0018720276 0.0018992853 0.00091060554)
(-0.001851406 0.0021452163 0.00097123932)
(-0.0017905831 0.0024393502 0.0010577455)
(-0.001671639 0.0027278606 0.0011079822)
(-0.0015349302 0.0030497379 0.0012037754)
(-0.0013042049 0.0033770718 0.001256011)
(-0.001044298 0.0037376605 0.0013359128)
(-0.00071165416 0.004092617 0.0013962033)
(-0.00032117766 0.0044906292 0.0014717754)
(0.00014860393 0.0048831287 0.0015251925)
(0.00067123886 0.0053111391 0.0015988775)
(0.0012848694 0.005737491 0.0016580875)
(0.0019655089 0.0061945254 0.0017247013)
(0.0027305238 0.0066550437 0.0017821592)
(0.0035723181 0.0071396899 0.0018486564)
(0.0045027598 0.0076255928 0.0019116069)
(0.0055185512 0.0081403294 0.0019728191)
(0.0066214098 0.0086496695 0.0020383178)
(0.0078177422 0.0091841463 0.0021042431)
(0.0091077304 0.0097200689 0.0021685062)
(0.010486929 0.010270598 0.0022388686)
(0.011971715 0.010824688 0.0023055398)
(0.013549525 0.011386445 0.0023788795)
(0.015231255 0.011955674 0.0024484115)
(0.017016204 0.012527419 0.002520395)
(0.018906063 0.013102598 0.0025962434)
(0.020898794 0.013678042 0.0026698318)
(0.023002438 0.014258512 0.0027434673)
(0.025210952 0.014831175 0.0028180779)
(0.027533228 0.015409027 0.0028939299)
(0.029969301 0.015977177 0.0029619707)
(0.03251181 0.016542656 0.0030377209)
(0.035170108 0.017103074 0.0031062705)
(0.037940933 0.017652797 0.0031760264)
(0.040821486 0.01819485 0.0032436817)
(0.043815134 0.018725654 0.0033099499)
(0.046916937 0.019244719 0.0033736822)
(0.050127295 0.019749818 0.0034371664)
(0.053442337 0.020242219 0.0034982291)
(0.056861221 0.020716679 0.0035589009)
(0.060378708 0.021177979 0.0036180983)
(0.063993814 0.021619096 0.003677389)
(0.067700505 0.022045455 0.00373591)
(0.071497081 0.022450987 0.0037953197)
(0.075377743 0.022841083 0.003854438)
(0.079339777 0.023209497 0.0039156326)
(0.08337784 0.023562791 0.0039771969)
(0.087489533 0.023895097 0.0040411658)
(0.091668712 0.024211994 0.0041068442)
(0.095914267 0.024509998 0.0041752045)
(0.1002209 0.024792137 0.004246495)
(0.10458554 0.025058979 0.0043195368)
(0.10900704 0.025311937 0.0043974238)
(0.1134832 0.025547267 0.0044792447)
(0.11800182 0.025776356 0.0045616756)
(0.12257749 0.025982876 0.0046529157)
(0.12719972 0.02618443 0.0047414037)
(0.13187133 0.026371064 0.0048388167)
(0.136589 0.026554323 0.0049371126)
(0.14135134 0.026719614 0.0050456368)
(0.14616114 0.026887047 0.0051513445)
(0.15101401 0.027028926 0.0052724647)
(0.15591739 0.027185187 0.0053835041)
(0.16086251 0.027301282 0.0055183101)
(0.16585918 0.027447383 0.0056335072)
(0.17090088 0.027535744 0.0057816873)
(0.17599227 0.027670603 0.0058994563)
(0.18113245 0.027728823 0.0060608626)
(0.18632248 0.027843568 0.0061808504)
(0.19156237 0.02788352 0.0063452838)
(0.196853 0.027952579 0.0064806036)
(0.20219404 0.027973416 0.0066322771)
(0.20759224 0.028008909 0.0067715282)
(0.21302771 0.027994055 0.0069290896)
(0.2185242 0.0279842 0.0070650803)
(0.2240486 0.027940003 0.0072137603)
(0.22964886 0.027854045 0.0073567511)
(0.23525603 0.027788312 0.0074733371)
(0.2409478 0.027645848 0.00761166)
(0.24664092 0.027483695 0.0077224337)
(0.25242084 0.027313468 0.0078093058)
(0.25823273 0.027063422 0.007891021)
(0.2641625 0.026778226 0.0079368671)
(-0.00015180336 9.5259444e-05 0.00010505836)
(-0.00036627031 0.00018154086 0.00015096562)
(-0.00059189025 0.00024896587 0.00022420548)
(-0.00079762855 0.000350983 0.00026503513)
(-0.00099581807 0.00046141126 0.00030203714)
(-0.0011934067 0.00056487772 0.00038068699)
(-0.0014009691 0.00068169195 0.0004262302)
(-0.0015276041 0.00084380916 0.00047687665)
(-0.0017020293 0.00095594894 0.00054438588)
(-0.0018108598 0.0011588173 0.00060229208)
(-0.0019108002 0.001304881 0.00064930769)
(-0.0019592412 0.0015319925 0.0007250639)
(-0.0020058821 0.0017019118 0.00077606696)
(-0.0019749595 0.0019632062 0.000841221)
(-0.0019288089 0.0021719353 0.00088945452)
(-0.0018320416 0.0024442289 0.00096858467)
(-0.0016781859 0.0026954777 0.0010137994)
(-0.0014678901 0.0029915964 0.0010763953)
(-0.0012186239 0.0032757832 0.0011337501)
(-0.0008850894 0.0035930817 0.0011948984)
(-0.00050112386 0.0039191087 0.0012418998)
(-4.5787938e-05 0.0042507544 0.0013071557)
(0.00048069733 0.0046122567 0.0013557654)
(0.0010826607 0.0049661846 0.0014136329)
(0.0017571385 0.0053584894 0.0014605504)
(0.0025123078 0.0057361802 0.0015219809)
(0.0033520582 0.0061492112 0.0015709491)
(0.0042727811 0.006556732 0.0016261677)
(0.0052816901 0.0069871416 0.0016805694)
(0.0063786623 0.0074163289 0.0017402554)
(0.0075703581 0.0078656793 0.0017929041)
(0.0088476252 0.0083127507 0.0018570649)
(0.010230091 0.0087751654 0.00191488)
(0.011701897 0.0092369729 0.0019792102)
(0.013275215 0.0097105439 0.0020429743)
(0.014950832 0.010183656 0.0021081232)
(0.016726452 0.010662271 0.002178648)
(0.018602862 0.011140999 0.0022473925)
(0.020597988 0.011623349 0.0023167636)
(0.022693726 0.012098856 0.0023865905)
(0.024902761 0.012579821 0.0024592029)
(0.027220935 0.013054522 0.0025255338)
(0.029650116 0.013525607 0.0026023548)
(0.032192718 0.013992587 0.0026718784)
(0.034849523 0.014451753 0.0027411404)
(0.03761582 0.014903389 0.0028129637)
(0.040496511 0.015347596 0.0028803281)
(0.043487384 0.015780781 0.0029493111)
(0.046588444 0.016203924 0.0030160241)
(0.049797093 0.016614655 0.0030836857)
(0.053112276 0.017013356 0.0031484454)
(0.05652972 0.01739729 0.0032155525)
(0.060047932 0.017768833 0.003279572)
(0.063662383 0.01812302 0.0033463212)
(0.067369915 0.018464557 0.0034110867)
(0.071166716 0.01878792 0.0034781625)
(0.075048175 0.019097588 0.0035446781)
(0.079010932 0.019389217 0.0036138077)
(0.083050233 0.019667365 0.003682472)
(0.087162339 0.019927278 0.0037548676)
(0.091343136 0.020174344 0.0038272116)
(0.095589715 0.020404505 0.003903125)
(0.099896701 0.020621866 0.0039803488)
(0.10426317 0.020825007 0.004060089)
(0.10868665 0.021015272 0.0041437327)
(0.11315738 0.021190695 0.0042286025)
(0.11768919 0.021367382 0.0043178297)
(0.1222639 0.021516552 0.0044118518)
(0.12688957 0.021661174 0.0045083328)
(0.13155801 0.021798073 0.0046103796)
(0.13627481 0.021923092 0.0047136785)
(0.14103483 0.022042204 0.0048237613)
(0.14584469 0.022150617 0.0049349669)
(0.15069538 0.022253787 0.0050530749)
(0.1555982 0.022347169 0.0051724042)
(0.16054125 0.022430957 0.0053011353)
(0.16553946 0.022511134 0.0054268899)
(0.17057726 0.022572864 0.0055664926)
(0.175672 0.022636878 0.0056991877)
(0.1808091 0.022675186 0.0058477503)
(0.1860013 0.022723956 0.0059836521)
(0.19124314 0.022726004 0.0061461516)
(0.19653043 0.022758025 0.0062794328)
(0.20188161 0.022730487 0.0064459677)
(0.20726803 0.022720366 0.0065884808)
(0.21271716 0.022668895 0.006750657)
(0.21820519 0.022624422 0.0068878049)