/*--------------------------------*- C++ -*----------------------------------*\
  =========                 |
  \\      /  F ield         | OpenFOAM: The Open Source CFD Toolbox
   \\    /   O peration     | Website:  https://openfoam.org
    \\  /    A nd           | Version:  6
     \\/     M anipulation  |
\*---------------------------------------------------------------------------*/
FoamFile
{
    version     2.0;
    format      ascii;
    class       pointVectorField;
    location    "0.33";
    object      u;
}
// * * * * * * * * * * * * * * * * * * * * * * * * * * * * * * * * * * * * * //

dimensions      [0 1 0 0 0 0 0];

internalField   nonuniform List<vector> 
3969
(
(0 0 0)
(0 0 0)
(0.89099415 0.037902666 0.0012345625)
(0.86823844 -0.17354537 0.00047721528)
(0 0 0)
(0 0 0)
(0.86882091 -0.17374778 0.00035494765)
(0.89158636 0.037532332 0.00097358958)
(0 0 0)
(0 0 0)
(0 0 0)
(0 0 0)
(0 0 0)
(0 0 0)
(0 0 0)
(0.88785995 0.010698263 0.00070717326)
(0.8847038 -0.01559504 0.00075401081)
(0.88169553 -0.041664575 0.00069499933)
(0.87887453 -0.067627923 0.0008328907)
(0.87617759 -0.093642767 0.00085757307)
(0.87351299 -0.11980321 0.00093354004)
(0.87103164 -0.14628031 0.00078701786)
(0.0033164885 0.0067029618 0.0068697286)
(0.0054797349 0.011321618 0.008389874)
(0.0094368094 0.016292092 0.0090339449)
(0.01494654 0.021182398 0.0090693398)
(0.021678742 0.025839056 0.0088398294)
(0.029738589 0.030315755 0.0084741693)
(0.038850857 0.034432881 0.0080941616)
(0.049083285 0.038293089 0.007650624)
(0.060222293 0.041757975 0.0072548933)
(0.072283202 0.044933991 0.0068199768)
(0.085134604 0.047782065 0.006452479)
(0.098747009 0.050341417 0.0060723285)
(0.11301923 0.052589295 0.0057275411)
(0.12792053 0.054628439 0.0054216267)
(0.1434035 0.056389552 0.0051414031)
(0.15939091 0.057964811 0.0049053527)
(0.17588931 0.059358067 0.0047170279)
(0.19286189 0.060589163 0.0045651712)
(0.21029834 0.061678783 0.0044539284)
(0.22818785 0.062644238 0.0043763887)
(0.24653466 0.063489798 0.0043289755)
(0.2653383 0.064237606 0.0043027297)
(0.28460539 0.06487337 0.0042905687)
(0.30434291 0.065408661 0.0042883269)
(0.3245509 0.065824149 0.0042807737)
(0.345235 0.0661462 0.0042727646)
(0.36638934 0.066332109 0.0042509451)
(0.38802098 0.066394892 0.0042077633)
(0.41011296 0.066319681 0.0041469507)
(0.43264681 0.066101655 0.0040657329)
(0.45561167 0.065735714 0.0039621973)
(0.47898623 0.065224523 0.003841132)
(0.50274145 0.064555393 0.0037058084)
(0.5268521 0.063745784 0.0035618174)
(0.55130761 0.062789974 0.0034092038)
(0.57605467 0.061670048 0.0032685593)
(0.60110337 0.060475328 0.0031079359)
(0.62640478 0.059024796 0.0029834542)
(0.6519632 0.057627138 0.0028101959)
(0.67775573 0.055866028 0.0027194713)
(0.7037617 0.05422897 0.0025244509)
(0.72997442 0.052256453 0.0024287065)
(0.75637723 0.050214604 0.0022693757)
(0.78293181 0.048169239 0.0020796121)
(0.80964469 0.045677534 0.0019959515)
(0.83647171 0.043401142 0.001778397)
(0.86328583 0.040885199 0.0017518848)
(0.00068949314 -0.0060840982 -0.0080669008)
(0.004067492 -0.010132555 -0.0079646117)
(0.0075610851 -0.01493086 -0.009200638)
(0.012619737 -0.01923989 -0.0087562635)
(0.019216874 -0.023995687 -0.0085430087)
(0.026779759 -0.028398642 -0.0079707579)
(0.035550338 -0.03280028 -0.0075029192)
(0.045229585 -0.036942535 -0.0069535591)
(0.055887778 -0.041022117 -0.0064732049)
(0.067390668 -0.044870471 -0.0059818449)
(0.079673218 -0.048642974 -0.005551945)
(0.092703321 -0.052229716 -0.0051511391)
(0.10637866 -0.055717787 -0.0047954603)
(0.12069227 -0.059082378 -0.0044635088)
(0.13556621 -0.06236973 -0.0042010068)
(0.15098559 -0.065565707 -0.0039626361)
(0.16691973 -0.068723356 -0.0037800553)
(0.18331268 -0.071823924 -0.0036277283)
(0.2002029 -0.074938744 -0.0035095214)
(0.217525 -0.078026067 -0.0034197446)
(0.23531888 -0.081175585 -0.0033403713)
(0.25356389 -0.084314249 -0.0032853093)
(0.27227518 -0.087543646 -0.0032127286)
(0.29145334 -0.090803428 -0.0031533454)
(0.31108712 -0.09411552 -0.0030875055)
(0.33120545 -0.097489108 -0.0030074747)
(0.35175896 -0.10089832 -0.0029130318)
(0.37282159 -0.1043838 -0.0028062014)
(0.39434036 -0.10788761 -0.0026988513)
(0.4163035 -0.11142581 -0.0025708312)
(0.43871254 -0.1149892 -0.0024381921)
(0.46153161 -0.11856916 -0.0022957021)
(0.48475353 -0.12214686 -0.002151458)
(0.50834623 -0.12573457 -0.0020064147)
(0.53229883 -0.12930283 -0.0018576434)
(0.55657174 -0.1328718 -0.0017200648)
(0.58116884 -0.13641765 -0.0015792579)
(0.60604366 -0.13994374 -0.001436975)
(0.63121077 -0.14347206 -0.0012997056)
(0.65663004 -0.14695098 -0.0011608438)
(0.6823045 -0.15042859 -0.0010130001)
(0.70821677 -0.15386766 -0.00085910783)
(0.73434097 -0.15724751 -0.00070216963)
(0.76069293 -0.16061782 -0.00051171306)
(0.787192 -0.16389338 -0.00032559624)
(0.81392537 -0.16710791 -0.00013740697)
(0.8407605 -0.17035822 0.00011319019)
(0 0 0)
(0 0 0)
(0 0 0)
(0 0 0)
(0 0 0)
(0 0 0)
(0 0 0)
(0.0027395173 -0.0040402969 0.0062902751)
(0.0046587666 -0.012266922 0.0083728457)
(0.0076084089 -0.01376571 0.008289609)
(0.013264591 -0.020193315 0.0085009065)
(0.019509933 -0.02407416 0.0082123771)
(0.027230835 -0.028728681 0.0076008027)
(0.035949197 -0.033106656 0.0073052551)
(0.045663564 -0.037219777 0.0066762227)
(0.056297137 -0.041310564 0.0063476045)
(0.0677411 -0.045110606 0.0058304538)
(0.080047959 -0.048961608 0.005560727)
(0.093043179 -0.052360895 0.0050748451)
(0.10680241 -0.05593955 0.004767774)
(0.12110618 -0.05922388 0.0044311544)
(0.13601383 -0.062523361 0.0041618696)
(0.15144506 -0.065720866 0.0039306513)
(0.16738133 -0.068875307 0.0037368068)
(0.18379968 -0.072008967 0.0035882019)
(0.20068285 -0.075132084 0.0034743317)
(0.21802687 -0.078262517 0.003389948)
(0.23582663 -0.081417036 0.0033358194)
(0.25408024 -0.084604873 0.0033017681)
(0.27279953 -0.08783204 0.0032793293)
(0.29197054 -0.091098833 0.0032675504)
(0.31163401 -0.094439895 0.0032420105)
(0.33179199 -0.097804034 0.0031938329)
(0.35236764 -0.10126485 0.003181589)
(0.37341876 -0.10471694 0.003136033)
(0.39493194 -0.10822585 0.0030880836)
(0.41690073 -0.11175188 0.0030136296)
(0.43930263 -0.11529704 0.0029216202)
(0.46212546 -0.11885861 0.0028176015)
(0.48534343 -0.122425 0.0027006435)
(0.50893892 -0.12599005 0.0025758098)
(0.53288379 -0.12955443 0.0024476322)
(0.55716766 -0.13311958 0.0023211989)
(0.581748 -0.13663029 0.0021880763)
(0.60662916 -0.14019747 0.0020682996)
(0.63178417 -0.14369988 0.0019413607)
(0.65720985 -0.14720013 0.0018154376)
(0.68287797 -0.15067535 0.0016819259)
(0.70879976 -0.15411936 0.0015444889)
(0.7349243 -0.15751767 0.0013965597)
(0.76127902 -0.1608795 0.0012379938)
(0.78779454 -0.16416403 0.0010669146)
(0.81452368 -0.16739164 0.00090274813)
(0.84130873 -0.17065867 0.00068737003)
(0.87172212 -0.14651626 0.00021765085)
(0.87413873 -0.12010312 0.0002627117)
(0.87678564 -0.093898289 0.00046308509)
(0.87951341 -0.067996417 0.0006432117)
(0.88224983 -0.041972627 0.00096595949)
(0.88523814 -0.015959697 0.0010874828)
(0.88850602 0.010303495 0.001245639)
(0.86405511 0.040517283 0.00046501288)
(0.83698899 0.042954064 0.00030055343)
(0.81018379 0.045422385 5.6765292e-05)
(0.78347749 0.047747877 -0.00011334303)
(0.75690478 0.049935473 -0.00031603047)
(0.73050292 0.051984429 -0.00049828997)
(0.7042938 0.053894886 -0.00066018176)
(0.67828304 0.055671068 -0.00081877539)
(0.65249952 0.057312488 -0.00096788702)
(0.62695197 0.058827184 -0.0011113003)
(0.60164155 0.060194887 -0.0012535387)
(0.57665838 0.061404614 -0.0013796803)
(0.55188978 0.062516929 -0.0015328172)
(0.52746583 0.063446373 -0.0016735323)
(0.50336242 0.064244867 -0.0018226347)
(0.47961759 0.06488235 -0.0019697364)
(0.45624472 0.065376868 -0.0021170055)
(0.43327648 0.065718487 -0.0022650816)
(0.4107254 0.065923469 -0.002407459)
(0.38861859 0.065985495 -0.0025440804)
(0.36696282 0.065928326 -0.0026763474)
(0.34577647 0.065741839 -0.0027961585)
(0.32506187 0.065449172 -0.0029080379)
(0.30481954 0.06504437 -0.0030120658)
(0.28505613 0.064536992 -0.0031094735)
(0.26576386 0.063928453 -0.003202485)
(0.246939 0.063213273 -0.0032982735)
(0.22857873 0.062391238 -0.0033990857)
(0.21067997 0.061445733 -0.0035133901)
(0.19324012 0.060373901 -0.003650736)
(0.17626698 0.059150545 -0.0038154373)
(0.15977003 0.057769919 -0.0040109305)
(0.14376283 0.056202869 -0.0042466717)
(0.12834591 0.054359219 -0.0044878117)
(0.1134786 0.052338641 -0.0048351691)
(0.099160303 0.050056085 -0.0051359218)
(0.085591094 0.04748221 -0.0055466669)
(0.072700235 0.0446135 -0.005949077)
(0.060612601 0.041462018 -0.0064234445)
(0.049502916 0.037875078 -0.0068485381)
(0.039313906 0.0340781 -0.0073245948)
(0.029978111 0.02996044 -0.0078241905)
(0.022096869 0.025429311 -0.0082206956)
(0.015174767 0.020821784 -0.0085131783)
(0.0098136688 0.016041932 -0.0084344758)
(0.0058147203 0.010641919 -0.0078095858)
(0.0053705623 0.0064826255 -0.0051711339)
(0 0 0)
(0 0 0)
(0 0 0)
(0 0 0)
(0 0 0)
(0 0 0)
(0 0 0)
(0 0 0)
(0 0 0)
(0 0 0)
(0 0 0)
(0 0 0)
(0 0 0)
(0 0 0)
(0.86835616 -0.17379679 0.00039706544)
(0.86848364 -0.17391279 0.00038504404)
(0.86857324 -0.1739596 0.00039099973)
(0.86866141 -0.17402668 0.00042046924)
(0.86874077 -0.17406054 0.0004463722)
(0.86879265 -0.17404099 0.00047116547)
(0.86885463 -0.17406314 0.00039589372)
(0.89130594 0.038139815 0.0012211714)
(0.8914096 0.038091264 0.0012361999)
(0.89149673 0.038073661 0.0011518897)
(0.89158791 0.038040013 0.0010966442)
(0.8916573 0.037997174 0.0010306732)
(0.8916982 0.037902579 0.00097543533)
(0.8918055 0.037894555 0.00097674938)
(0.0011765619 0.0047681746 0.0062003795)
(0.0036225809 0.0080601285 0.006148785)
(0.0073867776 0.011996627 0.0068478768)
(0.012823262 0.015577216 0.0068426873)
(0.019510922 0.019048061 0.0066873298)
(0.027595474 0.022383511 0.006474531)
(0.036735327 0.025440341 0.0061356184)
(0.046958825 0.028302442 0.0058875855)
(0.058160787 0.030839287 0.0055335574)
(0.070238038 0.033179441 0.005265214)
(0.083110701 0.035231582 0.0049630336)
(0.096713227 0.037049658 0.0046916798)
(0.1110088 0.038672083 0.0044283869)
(0.1258981 0.04006834 0.0041983953)
(0.14136923 0.041273173 0.0039933887)
(0.15735412 0.04231596 0.0038164592)
(0.17383356 0.043204855 0.0036746877)
(0.19077839 0.043941994 0.0035614217)
(0.20817946 0.044559049 0.0034771595)
(0.22603249 0.045052247 0.0034160741)
(0.24433322 0.045437238 0.0033812482)
(0.26308577 0.045712049 0.0033594959)
(0.28229835 0.045880556 0.0033566927)
(0.30196809 0.045939439 0.0033565542)
(0.32212295 0.045898705 0.0033619786)
(0.34274927 0.045729429 0.0033534482)
(0.36384547 0.045449688 0.0033439419)
(0.3854164 0.045055137 0.0033209682)
(0.40745219 0.044521718 0.0032831147)
(0.42993036 0.043869806 0.0032279962)
(0.45284679 0.043086342 0.0031576399)
(0.47617377 0.04217054 0.0030717704)
(0.49988376 0.041126059 0.0029760036)
(0.5239622 0.039962182 0.0028683981)
(0.54837731 0.038657298 0.0027608954)
(0.57308894 0.037249718 0.0026473682)
(0.59812072 0.035716685 0.0025287686)
(0.62338547 0.034049762 0.0024341015)
(0.64893708 0.032306452 0.0023118861)
(0.67471022 0.030383911 0.0022248296)
(0.70069329 0.028447419 0.0020892033)
(0.72691257 0.026226044 0.0020267306)
(0.75330897 0.024098895 0.0018406399)
(0.77986916 0.021680059 0.0017750126)
(0.80661773 0.019156164 0.0016187909)
(0.83339154 0.016687896 0.0014499072)
(0.86037949 0.013672789 0.0012477198)
(-0.00055659168 0.0031943887 0.0042692926)
(0.0017927882 0.0049435371 0.0041911589)
(0.0058356419 0.0081402101 0.0046970503)
(0.011193485 0.010413055 0.0046643705)
(0.01803093 0.0128709 0.0045917719)
(0.026020238 0.015109242 0.0043805499)
(0.035155346 0.017153655 0.0042569457)
(0.045410196 0.018999136 0.0040052702)
(0.056565623 0.020621402 0.003856522)
(0.068622462 0.022081777 0.0036452754)
(0.081473353 0.023282373 0.0034748663)
(0.09507208 0.024362661 0.0032880005)
(0.10932537 0.025222277 0.0031319984)
(0.12421204 0.025939074 0.0029926279)
(0.13964991 0.026494463 0.0028608204)
(0.1555996 0.026940056 0.0027438874)
(0.17203482 0.027249557 0.0026432982)
(0.18893394 0.027449029 0.0025719988)
(0.20629081 0.027535415 0.0025113355)
(0.22409888 0.027524118 0.0024747565)
(0.24235463 0.027405248 0.0024497991)
(0.26106263 0.027191783 0.0024393395)
(0.28021689 0.026877226 0.002435989)
(0.29985142 0.026474722 0.0024396925)
(0.31994629 0.025952004 0.002437874)
(0.34050749 0.025340257 0.0024542196)
(0.36154824 0.024606719 0.0024546061)
(0.38306679 0.023761219 0.0024393308)
(0.40503212 0.022808177 0.0024279135)
(0.42746225 0.021734532 0.0023943129)
(0.45032187 0.020548154 0.0023503015)
(0.473594 0.019245412 0.0023010057)
(0.49725771 0.017835014 0.0022345321)
(0.52128976 0.016314785 0.0021676062)
(0.54565131 0.014687131 0.0020972052)
(0.5703418 0.012963072 0.0020204024)
(0.59532328 0.011143821 0.0019507435)
(0.62054996 0.0091788621 0.0018921256)
(0.64609502 0.0072299209 0.001787875)
(0.67179624 0.0050184149 0.0017626513)
(0.69782475 0.0028915914 0.0016489629)
(0.72398337 0.00050241041 0.0016119957)
(0.75040982 -0.001831682 0.0014987377)
(0.77694124 -0.0044182257 0.0014662919)
(0.80368931 -0.0070157903 0.001335014)
(0.83053883 -0.0097920995 0.001212009)
(0.85765147 -0.012741002 0.00101442)
(-0.0017105551 0.001756952 0.0025466784)
(0.00071765302 0.0028126798 0.0024083598)
(0.004498974 0.0044387754 0.0026001581)
(0.010030513 0.0057742185 0.0025721063)
(0.016780586 0.0070200474 0.0024690578)
(0.024871367 0.0082403179 0.0024368467)
(0.034092608 0.0091425972 0.0022447842)
(0.044291996 0.010011874 0.0022307586)
(0.055480795 0.010665552 0.0021053848)
(0.067524586 0.011188033 0.0020325842)
(0.080349057 0.011591666 0.0019416997)
(0.093884602 0.011840983 0.0018621208)
(0.10809506 0.011989109 0.0017869633)
(0.12290023 0.011997573 0.001720937)
(0.1382671 0.011931533 0.0016655592)
(0.15416134 0.011748467 0.0015977085)
(0.1705398 0.011473977 0.001554505)
(0.18738949 0.011106142 0.001513828)
(0.20469175 0.010649468 0.0014891396)
(0.22243443 0.010113183 0.0014751564)
(0.24061312 0.0094859033 0.001477442)
(0.25923699 0.0087778488 0.0014860001)
(0.27833813 0.0079904075 0.0015034399)
(0.29788727 0.007092478 0.0015201737)
(0.31790738 0.0061169117 0.001556862)
(0.33840448 0.0050372824 0.0015718054)
(0.35939289 0.0038620394 0.0015809804)
(0.38083814 0.0025830609 0.0016009996)
(0.40275564 0.0012064334 0.0016016289)
(0.42512661 -0.00027967976 0.0015935291)
(0.44792367 -0.001857911 0.0015848882)
(0.47114503 -0.003539099 0.0015605943)
(0.49475333 -0.0053136714 0.001532136)
(0.51872895 -0.0071757413 0.0014995662)
(0.54305024 -0.009137397 0.0014624667)
(0.56769275 -0.011155315 0.0014161273)
(0.5926178 -0.013311963 0.0013897063)
(0.6178544 -0.015457464 0.0013254173)
(0.64332978 -0.017769856 0.0012994805)
(0.66905364 -0.020130455 0.0012763903)
(0.69502736 -0.022489721 0.0011894975)
(0.72118282 -0.025105927 0.0012288864)
(0.74759496 -0.027581556 0.0011043801)
(0.77414931 -0.030345635 0.0011358883)
(0.80097872 -0.033075344 0.0010016065)
(0.82785798 -0.035896928 0.00095404003)
(0.85490305 -0.03885233 0.00086593679)
(-0.0020506867 0.0003880144 0.00053123093)
(0.0002689674 0.00040189654 8.874235e-05)
(0.0040925467 0.00094962366 0.00017870425)
(0.0094581257 0.0010877761 0.00021193051)
(0.016312593 0.0011976695 0.00028856745)
(0.024336133 0.0013115351 0.00024638363)
(0.033432476 0.0011465401 0.00039944294)
(0.043604109 0.0010362047 0.00039055753)
(0.054690528 0.00071415509 0.0004626517)
(0.066649502 0.0003813153 0.00050918807)
(0.079387795 -0.00010126323 0.0005261407)
(0.092899198 -0.00062667916 0.00054664661)
(0.10703614 -0.0012516096 0.00052948873)
(0.12179945 -0.0019472017 0.00055128573)
(0.13711854 -0.0026953087 0.00052511154)
(0.15296219 -0.0035110455 0.0005297244)
(0.16927923 -0.0043884039 0.00051812967)
(0.18606691 -0.0053315435 0.00052140164)
(0.20329775 -0.0063406609 0.0005227511)
(0.22097655 -0.0074134596 0.00052991924)
(0.23911011 -0.0085586501 0.00053642318)
(0.25771848 -0.0097623418 0.00054552165)
(0.27674105 -0.011059879 0.00055683245)
(0.29623934 -0.012418464 0.00058710848)
(0.3162062 -0.013862002 0.00059583281)
(0.33665407 -0.015386895 0.00061668833)
(0.35756252 -0.01700362 0.00065249914)
(0.37894456 -0.018712672 0.00068032798)
(0.40079251 -0.02050598 0.00069702973)
(0.42308971 -0.022394952 0.00072690811)
(0.44582483 -0.024361692 0.00073617941)
(0.46897909 -0.026420116 0.00075093992)
(0.49252105 -0.028553324 0.0007555502)
(0.5164403 -0.03076145 0.00076028041)
(0.54069827 -0.033033797 0.00075609543)
(0.5652792 -0.035394224 0.00076592274)
(0.59016666 -0.037776785 0.00075489501)
(0.61532361 -0.040258418 0.00076180722)
(0.64074731 -0.042803264 0.00078243622)
(0.66641376 -0.045343816 0.00075060777)
(0.6923561 -0.048015417 0.00078387403)
(0.71847557 -0.050712025 0.00078532624)
(0.74487995 -0.053386123 0.0007551407)
(0.77142422 -0.056262624 0.00082451982)
(0.7981906 -0.058998074 0.00077341853)
(0.8250411 -0.061912886 0.00085986257)
(0.85211673 -0.064811681 0.00081660715)
(-0.0022715941 -0.00098476294 -0.0013926115)
(0.00031117098 -0.0015179083 -0.0019277398)
(0.0038298898 -0.0023822229 -0.0018975734)
(0.0093189167 -0.0033349268 -0.0018648702)
(0.016092676 -0.004381779 -0.0018556166)
(0.024059286 -0.0054560724 -0.0016298841)
(0.033176072 -0.0066269514 -0.0015603028)
(0.043290496 -0.007800257 -0.0014069725)
(0.054331336 -0.0090484836 -0.001275881)
(0.066250494 -0.010328102 -0.0011576219)
(0.078954894 -0.011644603 -0.0010648659)
(0.092348528 -0.012961431 -0.00096120712)
(0.10640858 -0.014353237 -0.00085243117)
(0.12108663 -0.015733036 -0.0007761986)
(0.13630713 -0.017173712 -0.0006969963)
(0.15205213 -0.018631364 -0.00062592795)
(0.16829032 -0.020126675 -0.00058400967)
(0.18498971 -0.021649561 -0.0005368123)
(0.20214778 -0.023215737 -0.00050592737)
(0.21974688 -0.024819147 -0.00047201414)
(0.23780615 -0.026468935 -0.00044266467)
(0.25627413 -0.028184507 -0.00040080645)
(0.27522332 -0.029943887 -0.00035872156)
(0.29463414 -0.031795635 -0.00032366088)
(0.31453033 -0.03370515 -0.00028025486)
(0.33488392 -0.035693189 -0.00022416963)
(0.35572863 -0.037761702 -0.00017423771)
(0.37704298 -0.039902973 -0.00013266476)
(0.39882268 -0.042121016 -8.0850027e-05)
(0.42105314 -0.04441187 -3.7950925e-05)
(0.44372326 -0.046774317 5.5862234e-06)
(0.46680846 -0.049204933 4.8021138e-05)
(0.49029195 -0.051701393 8.7956216e-05)
(0.51414247 -0.054239193 0.00011814733)
(0.53834106 -0.056860781 0.00016365511)
(0.56287026 -0.059489996 0.00018336561)
(0.58768346 -0.062192157 0.00021963826)
(0.61281483 -0.064941959 0.00026078479)
(0.63816781 -0.06769191 0.00026152527)
(0.66384945 -0.070492604 0.00031391733)
(0.6897048 -0.073346813 0.00034972277)
(0.71583405 -0.076171826 0.00037798824)
(0.742168 -0.079083066 0.00042977723)
(0.76869032 -0.082002772 0.00050270155)
(0.79544549 -0.084879918 0.00052422908)
(0.82236826 -0.08784866 0.00062615793)
(0.84940902 -0.090747402 0.00069534414)
(-0.0018412977 -0.0023903694 -0.0036403393)
(0.0010446342 -0.0041200018 -0.004043669)
(0.0045784607 -0.0062288438 -0.0043379763)
(0.010051284 -0.0083285473 -0.0043475442)
(0.016710637 -0.010563515 -0.0040768544)
(0.024596451 -0.012702689 -0.0038660284)
(0.033601442 -0.014961019 -0.003583592)
(0.043609205 -0.017106847 -0.0032924431)
(0.054544747 -0.019313877 -0.0030418451)
(0.066344683 -0.021439846 -0.0027604878)
(0.078924234 -0.023590176 -0.00254531)
(0.09221945 -0.025706557 -0.0023289092)
(0.10618043 -0.027821642 -0.0021632714)
(0.12074465 -0.029911863 -0.0019939886)
(0.13586736 -0.032002457 -0.0018588335)
(0.15151573 -0.034073388 -0.0017439347)
(0.16765721 -0.036158877 -0.001654356)
(0.18426759 -0.038235831 -0.001573228)
(0.20133533 -0.040349793 -0.0015134081)
(0.21884895 -0.042467236 -0.0014579626)
(0.23680719 -0.044654288 -0.0014155132)
(0.2552468 -0.046811642 -0.0013608777)
(0.2741047 -0.049078497 -0.0013375101)
(0.29345227 -0.051432641 -0.0012785968)
(0.31325831 -0.053808033 -0.0012323775)
(0.33353768 -0.056261673 -0.0011840671)
(0.35430557 -0.058759347 -0.0011311452)
(0.37553443 -0.061329356 -0.0010599283)
(0.39722863 -0.06395816 -0.00099711873)
(0.41938046 -0.066655543 -0.00092311569)
(0.4419659 -0.069408088 -0.00085045198)
(0.46497207 -0.072213874 -0.00077345029)
(0.48837197 -0.075060749 -0.00070185546)
(0.51214626 -0.077963078 -0.00062248229)
(0.53626992 -0.080876497 -0.00055689667)
(0.56071279 -0.083843477 -0.00048094786)
(0.58547597 -0.086823401 -0.00040858626)
(0.61050301 -0.089811348 -0.00034808594)
(0.63583072 -0.092855169 -0.00026321499)
(0.6613939 -0.095885834 -0.00019857994)
(0.68720073 -0.098914108 -0.00012107006)
(0.71327763 -0.10193958 -5.1139364e-05)
(0.73951951 -0.10502669 6.5717298e-05)
(0.76603416 -0.10800737 0.00013831231)
(0.7926916 -0.11102513 0.00027021885)
(0.81956263 -0.11400826 0.00044556692)
(0.84656969 -0.11686387 0.00063845358)
(-0.00096237462 -0.0042434422 -0.0052938715)
(0.0020375065 -0.0065354384 -0.0059753529)
(0.0055221983 -0.0100257 -0.0065797846)
(0.010976213 -0.013230302 -0.0064218613)
(0.017469486 -0.016556703 -0.0062030343)
(0.025325218 -0.019903526 -0.0058351867)
(0.034196872 -0.023174051 -0.0054643702)
(0.044094616 -0.026393389 -0.005070423)
(0.05491868 -0.02953141 -0.0047133055)
(0.0665786 -0.032571669 -0.0043414694)
(0.079069978 -0.035572548 -0.0040256931)
(0.092226641 -0.038461796 -0.0037337655)
(0.1060773 -0.041317261 -0.0034612756)
(0.12051947 -0.044093456 -0.0032187892)
(0.13554105 -0.046819723 -0.003015968)
(0.15107781 -0.049502554 -0.0028422116)
(0.1671214 -0.052155409 -0.0026958242)
(0.18362861 -0.054791835 -0.0025816432)
(0.20060146 -0.057423814 -0.0024854644)
(0.21802185 -0.060066541 -0.0024129154)
(0.23590315 -0.062718928 -0.0023503704)
(0.2542145 -0.065423193 -0.002291284)
(0.27302812 -0.068147962 -0.0022428788)
(0.29227936 -0.070954984 -0.0021813254)
(0.31200403 -0.073790419 -0.0021351441)
(0.33220129 -0.076690033 -0.0020690872)
(0.35287834 -0.079648886 -0.0019793267)
(0.374026 -0.082655082 -0.0019014661)
(0.39564433 -0.085718059 -0.0018116582)
(0.41771313 -0.088831103 -0.0017124234)
(0.44021689 -0.091983141 -0.0016105876)
(0.46314305 -0.095169906 -0.0015039035)
(0.48646074 -0.098390846 -0.0013935921)
(0.51015627 -0.1016191 -0.001288383)
(0.53419647 -0.10487748 -0.0011777725)
(0.558571 -0.10813649 -0.0010715825)
(0.58324265 -0.11139538 -0.00097644584)
(0.60822464 -0.11467217 -0.00086055554)
(0.63346006 -0.11792942 -0.00077194178)
(0.65896566 -0.12119437 -0.0006635842)
(0.68471754 -0.12442798 -0.00055996659)
(0.71071871 -0.12767198 -0.00043633795)
(0.73691434 -0.13088569 -0.00030792783)
(0.76336035 -0.13402763 -0.00019447739)
(0.78993027 -0.13721074 1.0256411e-05)
(0.81674926 -0.14024647 0.00015066896)
(0.84366494 -0.14319573 0.00041246179)
(0 0 0)
(0 0 0)
(0 0 0)
(0 0 0)
(0 0 0)
(0 0 0)
(0 0 0)
(0 0 0)
(0 0 0)
(0 0 0)
(0 0 0)
(0 0 0)
(0 0 0)
(0 0 0)
(0 0 0)
(0 0 0)
(0 0 0)
(0 0 0)
(0 0 0)
(0 0 0)
(0 0 0)
(0 0 0)
(0 0 0)
(0 0 0)
(0 0 0)
(0 0 0)
(0 0 0)
(0 0 0)
(0 0 0)
(0 0 0)
(0 0 0)
(0 0 0)
(0 0 0)
(0 0 0)
(0 0 0)
(0 0 0)
(0 0 0)
(0 0 0)
(0 0 0)
(0 0 0)
(0 0 0)
(0 0 0)
(0 0 0)
(0 0 0)
(0 0 0)
(0 0 0)
(0 0 0)
(0 0 0)
(0 0 0)
(0.0031095091 -0.0020283702 -0.0041453957)
(0.0037505192 -0.0025652079 -0.0027758799)
(0.0044392535 -0.0026857388 -0.0014456321)
(0.0047071143 -0.0028440166 -0.00033803958)
(0.0045829961 -0.0026279241 0.00077884883)
(0.0043653828 -0.0027232701 0.0019745369)
(0.003601591 -0.001898596 0.0033260957)
(0.0063719981 -0.010065841 -0.0064279623)
(0.0077236339 -0.010954376 -0.0036577159)
(0.0082745159 -0.010285946 -0.0016724315)
(0.0083593963 -0.0099477182 -0.00011857171)
(0.0084644523 -0.01047709 0.0014788858)
(0.0076697501 -0.010365389 0.0033463782)
(0.0068823118 -0.010373942 0.0058425912)
(0.0093776052 -0.014033734 -0.0066240431)
(0.010918046 -0.013529857 -0.00468137)
(0.011960122 -0.013960074 -0.0022108929)
(0.01212497 -0.01392333 -0.00022108598)
(0.011967591 -0.013640187 0.0019737427)
(0.011170839 -0.013784146 0.0036828158)
(0.010100383 -0.014312216 0.0065476341)
(0.014926442 -0.019704601 -0.006588511)
(0.01634857 -0.019940095 -0.0045792393)
(0.017122087 -0.019737252 -0.002141677)
(0.017451623 -0.019693676 -0.00024052903)
(0.017237478 -0.019750546 0.0018715563)
(0.016566462 -0.020001878 0.0042189423)
(0.015062329 -0.0197086 0.0062522729)
(0.021083507 -0.024364153 -0.0064085718)
(0.022498248 -0.024266061 -0.0044875728)
(0.023513981 -0.024421427 -0.0022680446)
(0.023744448 -0.024334726 -0.00015472151)
(0.023620266 -0.024382698 0.0019709702)
(0.022825887 -0.024407566 0.0039408158)
(0.021657588 -0.024530844 0.0063112812)
(0.028727351 -0.028999214 -0.0059858945)
(0.029943227 -0.028995738 -0.0041373953)
(0.030762396 -0.028933405 -0.002026876)
(0.031072305 -0.029021506 -0.00018680004)
(0.030831332 -0.02897213 0.0019033475)
(0.030165081 -0.028948728 0.0039272908)
(0.028865208 -0.028907469 0.0058023176)
(0.037254395 -0.03326026 -0.0056355318)
(0.038487836 -0.033395697 -0.0038514019)
(0.039347713 -0.033568758 -0.0019449319)
(0.039590024 -0.033584863 -0.00015936047)
(0.039473134 -0.033630602 0.0018270415)
(0.038803622 -0.033751615 0.0035715267)
(0.037685251 -0.033600777 0.0055825184)
(0.046893666 -0.037543173 -0.005212925)
(0.048004956 -0.037652319 -0.0035930433)
(0.048736818 -0.037649645 -0.0017592676)
(0.049017771 -0.037728789 -7.3721629e-05)
(0.048808692 -0.037680853 0.0016750025)
(0.048209468 -0.037600112 0.0034565027)
(0.047098899 -0.037503612 0.0050984443)
(0.057410615 -0.041508718 -0.0048525071)
(0.05847175 -0.041654215 -0.0032562788)
(0.059201551 -0.04185913 -0.0016466295)
(0.05942159 -0.041842498 -8.0014693e-05)
(0.059307207 -0.041952956 0.0015670273)
(0.058727877 -0.04187271 0.003156133)
(0.057746379 -0.041803847 0.0048591746)
(0.068810313 -0.04541065 -0.0044690665)
(0.069785979 -0.045542339 -0.0030581134)
(0.070437577 -0.045572541 -0.0014940553)
(0.070707984 -0.045717462 1.8821127e-05)
(0.070513314 -0.045666696 0.0015315135)
(0.070003248 -0.045584529 0.0030258133)
(0.069040934 -0.045474343 0.0044940653)
(0.081011028 -0.049100864 -0.0041394428)
(0.081927507 -0.049246651 -0.0027818362)
(0.082559312 -0.049408903 -0.0013346677)
(0.082739204 -0.049401557 -3.3561351e-05)
(0.082657849 -0.049440579 0.0014168135)
(0.082136803 -0.049395287 0.0027352181)
(0.081273035 -0.049342849 0.0042555195)
(0.093953154 -0.052663556 -0.0038535569)
(0.094813839 -0.05281748 -0.0025338123)
(0.095342514 -0.052907438 -0.0012961309)
(0.095603959 -0.052982179 3.828643e-05)
(0.095447098 -0.05298692 0.0013550753)
(0.094933135 -0.052896593 0.0025967784)
(0.094220579 -0.052806139 0.0039142668)
(0.1075666 -0.056133028 -0.0035688166)
(0.10833115 -0.056234303 -0.0023714176)
(0.10890105 -0.056387158 -0.0011842011)
(0.10908945 -0.05640013 2.011552e-05)
(0.10897262 -0.056416678 0.001248803)
(0.10855359 -0.056411754 0.0023721728)
(0.10783234 -0.056260145 0.0036320626)
(0.12178641 -0.059454238 -0.0033424335)
(0.12252552 -0.059578028 -0.0022040317)
(0.12307052 -0.059686433 -0.0011228287)
(0.12322504 -0.05971348 2.7607786e-05)
(0.12317274 -0.059762192 0.0011615277)
(0.12272268 -0.059674439 0.0022184429)
(0.1221055 -0.05957041 0.0034039907)
(0.1366112 -0.062713084 -0.0031458826)
(0.13732632 -0.062820122 -0.0020707357)
(0.13780901 -0.062916838 -0.0010691611)
(0.13800755 -0.062972797 3.1199634e-05)
(0.13790945 -0.062965266 0.0010642697)
(0.13753897 -0.062926032 0.0020865281)
(0.13693273 -0.062803506 0.00317639)
(0.15198887 -0.065872903 -0.0029702843)
(0.15264109 -0.065972325 -0.0019634986)
(0.1531458 -0.066085664 -0.0010088368)
(0.153297 -0.066108158 5.7552128e-06)
(0.15324831 -0.066136554 0.0010154355)
(0.15287725 -0.066082047 0.0019514981)
(0.15232109 -0.065978224 0.003004349)
(0.16786085 -0.068989159 -0.002839663)
(0.16851829 -0.069105843 -0.0018709488)
(0.16897796 -0.069190615 -0.00097961144)
(0.16914255 -0.069232724 1.4715579e-05)
(0.16908792 -0.069249745 0.00094567677)
(0.16874752 -0.069203303 0.001856422)
(0.16821326 -0.069099737 0.0028569347)
(0.18424986 -0.072082212 -0.0027221117)
(0.18486161 -0.072182324 -0.001810155)
(0.1853316 -0.072281209 -0.00093322732)
(0.18547571 -0.072320158 2.3493261e-06)
(0.18544342 -0.072339901 0.00090530981)
(0.1851059 -0.072293495 0.0017800736)
(0.18460287 -0.072202124 0.0027407226)
(0.20109628 -0.07516075 -0.0026419544)
(0.20170729 -0.075272039 -0.0017462894)
(0.20215353 -0.075357218 -0.00090782574)
(0.20230067 -0.07540311 4.9275728e-06)
(0.20226904 -0.075418046 0.00087206087)
(0.20194666 -0.075383594 0.0017243553)
(0.20146605 -0.07530239 0.0026517925)
(0.21841589 -0.078254757 -0.0025657787)
(0.21900683 -0.078356069 -0.0017007781)
(0.21945363 -0.07845264 -0.00087885606)
(0.21959308 -0.078503446 7.437658e-06)
(0.21957471 -0.078519901 0.00085458112)
(0.21925829 -0.078494566 0.0016849149)
(0.21879423 -0.078411018 0.0025892197)
(0.2361937 -0.081373714 -0.0025113905)
(0.23678179 -0.081485841 -0.0016583472)
(0.23721306 -0.081578533 -0.00085341248)
(0.2373589 -0.081627111 1.7383455e-05)
(0.23734125 -0.081648422 0.00084345348)
(0.23703315 -0.081619221 0.0016621114)
(0.2365817 -0.081545808 0.0025494856)
(0.25443254 -0.084533163 -0.0024571777)
(0.25500745 -0.084645712 -0.0016190253)
(0.25544207 -0.084738283 -0.00081975135)
(0.25558331 -0.084797388 2.8774936e-05)
(0.25557107 -0.084809988 0.00085069058)
(0.2552665 -0.08479254 0.0016536311)
(0.25482751 -0.084723186 0.002528054)
(0.27312932 -0.08775028 -0.0024019344)
(0.27370684 -0.087861146 -0.0015711141)
(0.27412892 -0.087957696 -0.00079351295)
(0.27427472 -0.088010183 5.1157869e-05)
(0.27426193 -0.088037491 0.00085753951)
(0.27396982 -0.088020508 0.001648311)
(0.27353769 -0.087947776 0.0025167957)
(0.29229661 -0.091006655 -0.0023379223)
(0.29286852 -0.09113601 -0.0015311476)
(0.29328258 -0.091215936 -0.00075349337)
(0.29342925 -0.091289922 7.7027948e-05)
(0.29342251 -0.091300636 0.00086962553)
(0.29313236 -0.091277155 0.0016598313)
(0.292704 -0.091210379 0.0025159733)
(0.31191732 -0.094336643 -0.0022917509)
(0.31250426 -0.09445514 -0.0014725304)
(0.31289048 -0.094536188 -0.00072133886)
(0.31306122 -0.094615243 0.00010979862)
(0.31303391 -0.094620405 0.00088237559)
(0.31276071 -0.094628315 0.0016683628)
(0.31234137 -0.094563122 0.002497018)
(0.33201186 -0.097719429 -0.0022144522)
(0.3325989 -0.097827209 -0.0014273667)
(0.33296809 -0.097929371 -0.00067433823)