/*--------------------------------*- C++ -*----------------------------------*\
  =========                 |
  \\      /  F ield         | OpenFOAM: The Open Source CFD Toolbox
   \\    /   O peration     | Website:  https://openfoam.org
    \\  /    A nd           | Version:  6
     \\/     M anipulation  |
\*---------------------------------------------------------------------------*/
FoamFile
{
    version     2.0;
    format      ascii;
    class       pointScalarField;
    location    "0.74";
    object      p;
}
// * * * * * * * * * * * * * * * * * * * * * * * * * * * * * * * * * * * * * //

dimensions      [1 -1 -2 0 0 0 0];

internalField   nonuniform List<scalar> 
625
(
657387.74
-942569.25
-4450.1846
-122.44038
1131760.6
-1900674.4
1116.206
-719.59814
448729.39
42806.053
-55277.497
2721.8008
2621.6925
1024.5611
282061.15
283612.89
267467.43
247848.48
204615.34
191298.13
156908.64
132644.12
119423.1
93075.179
80848.628
67253.404
57864.684
49254.647
43550.362
38300.283
33065.713
29481.373
22906.532
20188.407
13986.948
8263.8661
2116.6703
-306986.36
-176136.88
-241922.88
-170885.51
-156808.37
-150446.74
-124426.23
-111153.57
-98849.649
-84363.984
-72739.021
-58814.889
-49482.448
-37311.323
-27194.945
-17699.108
-8659.1039
-1577.0854
4256.6421
8155.033
9417.7368
7475.9036
6690.8909
620349.91
-57556.344
-241973
-330950.78
-412750.23
-287074.12
-243056.38
-287685.6
-201978.83
-193371.39
-174484.76
-149595.3
-130817.69
-103601.19
-88671.888
-66262.686
-52649.134
-40033.909
-27388.015
-19880.431
-12744.41
-7615.0523
-4364.2642
-2835.0005
-676.84521
285.51718
90.476884
689.89868
969.48895
546.39863
2673.3899
4347.3934
9126.8377
15019.539
21624.657
29100.626
37077.959
46500.249
55539.553
66703.323
79267.145
91538.035
101989.8
131438.09
142551.99
166048.13
178786.37
226080.27
212346.97
263736.73
287799.49
265292.18
712595.88
674743.18
606685.52
-1066008.5
-1066974.7
-1055655
-4272.5872
-940.33467
-2529.3111
-2803.8443
-2786.9785
-2662.485
141854.08
158234.77
157948.07
137415.71
128478.53
122248.83
101722.75
95858.462
81538.789
70046.341
63409.444
54701.799
47194.146
40733.229
36000.155
30016.048
25762.088
20656.747
15271.877
10698.267
7202.4468
3505.2539
1006.2218
-15865.407
6802.791
-10003.34
10435.92
-2351.9407
3351.4065
127.36937
2671.5422
535.6109
-1015.7544
-460.34619
-1629.9581
-1423.9066
-327.00223
515.73926
1188.1349
2538.6823
2848.9201
3749.7736
2688.9399
3776.9313
3050.9235
3425.7223
-180331.45
-149912.04
-138836.24
-114321.48
-132261.72
-94748.359
-93737.088
-77489.881
-67521.795
-55765.364
-44297.82
-34978.142
-26096.252
-18807.936
-12656.609
-7692.2861
-3568.2877
-790.64282
1334.7162
1913.2618
791.40302
1681.4052
1488.9618
373674.47
342781.59
369386.29
-569.64869
13977.387
-40839.299
-64845.408
-114490.29
-184914.71
-451161.15
-449722.1
-475648.01
-340581.38
-322576.63
-304911.54
-270822
-257561.26
-272852.54
-210880.56
-211590.98
-214233.71
-207562.92
-211212.75
-224070.71
-184003.81
-178390.77
-181888.83
-165190.49
-161651.61
-176221.59
-143536.44
-141962
-151479.49
-125559.2
-123851.8
-130534.38
-106640.14
-104355.84
-112087.7
-86871.148
-84780.111
-91283.425
-70909.194
-68973.438
-74580.588
-53889.441
-52326.511
-56369.258
-39988.102
-38024.484
-41354.658
-27293.931
-25744.58
-29140.299
-16784.693
-15671.519
-17499.641
-8230.6731
-6640.8303
-8261.6768
-1735.8295
-589.81169
-1609.6634
3011.9289
4187.5556
3730.1434
4786.1281
5920.1144
6271.7959
6282.8376
7699.4936
7511.6077
3466.8027
5294.6247
4544.4193
2980.0497
3752.9906
5464.7092
1563.9203
1370.7162
1379.9532
352.83037
857.55074
2589.3124
4813.6729
3379.6633
4408.7013
337990.09
323036.66
329094.48
316500.48
292658.62
282421.35
298668.81
272277.75
275446.82
243200.77
224773.03
230122.1
225268.77
214528.85
198955.25
201004.2
167231.29
177651.38
167818.48
153484.41
157468.69
152228
131193.14
133169.02
127765.34
110872.9
111453.7
111044.12
94280.985
100232.91
96561.274
80876.348
84491.883
83486.123
66258.287
74056.829
69563.727
57974.106
63922.615
60363.936
49642.998
55312.575
50663.895
43420.588
48006.453
42228.526
37424.339
41290.709
34913.185
32534.796
35236.393
27217.274
27208.711
29136.089
20612.343
22493.927
23259.815
14752.205
18107.872
17759.008
9194.7183
10990.733
12035.675
4414.9719
7711.6431
7901.7144
-393.44662
629.19598
2051.4463
164774.89
185308.09
153122.42
158998.21
152829.31
130523.75
117399.01
101726.31
88011.56
71812.291
63367.978
49517.344
39080.006
31468.172
23763.686
18052.295
13116.496
9248.7609
6501.5894
4208.9706
3371.4006
1688.8813
-1251.8394
-36703.628
3793.7595
-9169.4064
7296.4725
10564.33
-1563.8944
3206.7836
3602.2064
415.83102
2265.0385
4841.8378
3760.1707
4950.5479
4645.8685
5073.9247
4482.4757
4182.0753
3981.8968
3028.0288
2905.8862
2104.2934
951.15187
735.63133
-148677.25
-144662.44
-175599.96
-140043.65
-125782.82
-114723.55
-85651.309
-76444.078
-61163.186
-51375.992
-43387.911
-36688.895
-33089.794
-26616.264
-23521.434
-18966.19
-14522.987
-10095.063
-6544.6575
-2125.2529
18.855438
1531.8383
2545.9328
232648.82
228968.33
194900.85
199764.26
189474.85
175271.16
153387.7
144180.18
168760.21
141614.59
162700.13
128336.84
154819.73
119793.21
131052.35
112071.4
122585.3
125361.98
113808.64
115522
105834.4
101974.08
92475.568
93270.013
81256.532
82480.339
86501.559
73039.511
76173.412
70336.215
59702.484
60271.823
57862.064
47178.421
51740.752
49524.056
39179.171
42985.696
39400.028
31655.36
34301.239
31308.113
23814.296
26676.697
23620.145
18201.27
20717.727
17280.947
12900.886
14855.718
11319.029
8729.9844
9983.0998
6749.6456
5255.6206
6530.9899
2947.5973
4415.5948
2743.7233
419.97821
-354.53218
1331.0007
-2755.9329
328.37756
-438.91668
-1375.8124
-440.32511
7.5557499
-2368.3927
-12832.23
-41449.173
-15080.108
-5062.5548
18173.863
9753.9715
15211.767
8893.5643
6731.4557
4860.5306
1825.5341
-5034.8985
-154.5132
4096.1147
13141.782
-1895.9074
11991.067
3127.7278
7484.991
4941.4954
-190.24883
-2351.9769
2904.8978
3367.7718
1833.0814
8179.4577
1837.3088
6350.895
5521.8626
681.01148
5283.3755
4585.6265
-195.59816
7313.5803
6715.1714
1197.7804
8207.9994
6630.5271
-1396.8584
8283.2572
4790.8971
-1853.1598
6463.8293
5387.5831
-2632.3249
6042.3793
4156.333
-3892.6717
3945.0987
3237.8168
-4575.3768
2395.4346
1963.6365
-5109.5668
605.61949
1315.7803
-4077.6469
1688.1116
-661.81687
-5038.8219
-1775.9051
-1449.2052
-360.3641
-1366.0651
1433.6644
-502.55754
1380.3479
1668.34
1137.9699
-220426.85
-245076.93
-288512.81
-142275.89
-124020.35
-194584.04
-131329.73
-188238.62
-191186.45
-160714.12
-121213.38
-159398.02
-107020.89
-112204.71
-134093.65
-98204.342
-95034.882
-124315.82
-85500.819
-78007.877
-99912.173
-68679.87
-64588.818
-85641.491
-53336.999
-52544.872
-69131.82
-45103.573
-45735.236
-58228.599
-36483.242
-39151.976
-47054.447
-29630.911
-33291.961
-39237.539
-23558.121
-31592.1
-33697.571
-20155.632
-27692.925
-27904.559
-16368.633
-24703.06
-23227.506
-13927.391
-20845.317
-20388.175
-11355.465
-17299.667
-16634.409
-9585.0374
-12334.194
-13476.659
-6770.4121
-8433.2842
-10306.168
-6193.0207
-2975.8581
-7188.9111
-555.9775
-2668.5301
-3880.1579
-540.88587
2718.3701
-656.51413
515.1258
1734.6092
-1642.4987
)
;

boundaryField
{
    free
    {
        type            calculated;
    }
    fixed
    {
        type            calculated;
    }
    freeTop
    {
        type            calculated;
    }
}


// ************************************************************************* //
