/*--------------------------------*- C++ -*----------------------------------*\
  =========                 |
  \\      /  F ield         | OpenFOAM: The Open Source CFD Toolbox
   \\    /   O peration     | Website:  https://openfoam.org
    \\  /    A nd           | Version:  6
     \\/     M anipulation  |
\*---------------------------------------------------------------------------*/
FoamFile
{
    version     2.0;
    format      ascii;
    class       pointScalarField;
    location    "1.85";
    object      p;
}
// * * * * * * * * * * * * * * * * * * * * * * * * * * * * * * * * * * * * * //

dimensions      [1 -1 -2 0 0 0 0];

internalField   nonuniform List<scalar> 
625
(
-108387.99
137349.44
5009.5716
6316.3543
-128247.28
279513.99
4737.7458
-662.79527
-57256.415
-6838.6557
4602.8815
-16244.403
1119.6036
4231.9871
-32564.967
-35409.508
-24726.798
-17554.408
-8645.738
-4.2721734
8631.7677
17149.796
24756.018
31494.407
38088.737
43911.193
48060.255
51616.585
53450.77
54784.227
52621.892
52200.188
47899.785
42218.09
36504.3
25483.862
17767.57
34550.898
17467.706
15861.764
2610.4913
-6831.6073
-13507.479
-24044.592
-30051.475
-39007.448
-45004.704
-50976.735
-55834.795
-59570.856
-61444.028
-62540.393
-61866.049
-59388.025
-55810.945
-50320.664
-43726.509
-35626.253
-25310.609
-12724.54
-55194.042
11975.87
29632.913
44193.25
49348.136
20753.008
15054.506
6882.9402
-7186.1449
-10521.883
-23964.328
-31195.375
-39589.125
-45664.789
-53014.228
-56311.657
-60712.377
-62127.712
-62500.312
-61243.326
-57888.23
-52673.944
-46225.853
-36547.768
-27678.002
-13691.317
4305.8616
514.32365
-9037.6795
24324.086
29266.111
37480.798
47169.724
56614.091
62164.789
66833.412
69968.73
70546.274
69971.111
67431.25
63457.92
58140.437
50560.087
43456.583
36681.237
24925.313
18871.607
6099.367
-2902.9
-14125.724
-14932.947
-34223.91
-109391.42
-108467.14
-96817.075
162392.34
173529.22
173175.13
15141.804
14081.472
16766.193
-7569.9598
-1042.8088
-5112.3317
-20713.351
-18232.936
-14736.843
-9838.08
-4467.7762
934.90592
6207.8928
10722.957
15285.077
20022.576
23626.353
26729.87
29335.191
31020.95
32493.674
32013.375
31840.003
30271.49
27054.083
25780.607
20123.697
11229.612
7950.8454
-2001.0587
-3494.5328
-4677.6154
-6931.6299
-7193.9217
-9088.649
-10206.126
-11186.282
-11882.235
-12700.846
-13479.426
-13515.26
-13745.225
-13250.98
-13070.004
-12058.165
-10965.694
-9933.3214
-8231.1566
-6465.6962
-5620.1637
-1203.964
1310.8608
16099.454
7291.2138
1343.8797
-3683.1393
-7511.9543
-14873.453
-19863.689
-24590.744
-29056.29
-33061.486
-36312.144
-38945.639
-40423.138
-41634.192
-41105.006
-39950.471
-37926.072
-34177.509
-30362.606
-24875.512
-18661.824
-13595.106
-4241.0355
-54966.658
-42795.499
-37521.956
-4153.7643
-966.5985
10249.978
4712.0172
18934.048
29716.28
56389.427
55905.316
62712.962
37342.377
39765.686
39312.287
14861.46
16319.202
21091.418
3356.7614
7212.3826
7621.8932
-4459.3105
-779.03579
2575.8376
-13968.234
-11687.385
-9718.7653
-23060.212
-19317.655
-17325.378
-32252.803
-26637.818
-27088.028
-39779.46
-34943.254
-35046.674
-47057.504
-42175.567
-42530.842
-53361.541
-47857.178
-48535.808
-58428.334
-53110.446
-54216.145
-62279.457
-56743.456
-58209.004
-64608.453
-59407.971
-60946.211
-65753.903
-60416.552
-62427.953
-64755.03
-60144.829
-61930.781
-62581.994
-57864.085
-60075.012
-58163.806
-54643.796
-56652.603
-52839.741
-49236.709
-50810.132
-45226.034
-42457.095
-44303.23
-35496.177
-33647.987
-34964.184
-26402.941
-26763.548
-26675.491
-18022.783
-14896.372
-16798.668
-21328.945
-22974.516
-24282.551
160.86899
-362.69697
898.43631
7709.4177
8381.0156
6689.64
-43493.017
-36129.431
-33654.41
-35145.076
-32909.76
-32303.706
-24628.599
-19609.183
-16550.106
-13450.719
-9650.4385
-7310.0882
-4868.8223
-3856.9129
2428.083
6567.567
7805.279
12847.991
15824.66
15067.876
22497.262
25247.474
23070.526
29679.189
32663.128
31268.281
40285.748
41778.149
37545.457
47410.795
49046.52
43874.327
53927.015
54847.788
48988
59493.223
59562.52
53240.813
63702.823
62996.73
56172.236
66354.88
64953.244
57624.262
67630.283
64852.067
57777.526
66954.855
63348.543
56268.206
65040.633
60317.24
53425.86
60828.145
53972.045
48251.73
54869.632
48420.04
40716.843
48741.075
40325.727
34763.098
39857.957
29126.74
27987.504
28734.672
26830.652
27710.101
29269.177
-9957.2988
-7022.9977
-4106.4078
-180.21925
6546.0674
9926.1213
15512.411
20803.476
24525.67
28664
32261.536
34971.99
36838.608
38459.631
38409.076
38288.781
36152.689
34229.273
30549.615
25384.089
20243.43
12371.087
2363.816
5670.6516
2192.7345
1576.5917
1324.3821
2385.4026
3492.2333
4579.4048
5383.0032
6712.2311
7541.8661
8561.6357
9032.3989
9693.6993
9824.2072
10050.964
9845.9283
9402.3055
9552.0635
8101.8321
7749.8553
7881.149
5872.8131
4632.3757
17228.178
17604.911
21839.849
11667.332
10257.686
4436.2663
-2565.2302
-4241.8321
-10261.104
-14424.639
-18346.603
-21660.345
-25088.304
-27068.746
-29240.922
-30120.543
-30243.672
-29540.864
-28285.585
-24562.985
-21314.115
-14386.72
-12459.796
-31772.411
-28976.851
-24748.52
-17572.306
-16960.891
-12189.705
-10556.957
-8201.3734
-4859.7099
-6800.3836
-4687.1681
-2186.9364
-1102.856
3763.1549
6281.6868
2341.3095
7749.4916
10605.126
7216.292
13097.763
15106.812
10271.587
18577.915
21598.324
15678.707
22615.73
25402.155
17493.717
27081.163
29344.434
20981.617
30432.911
32604.094
23274.022
33396.497
35564.609
25492.035
35449.969
37343.662
26789.978
36753.85
38477.909
27586.187
37021.627
38744.098
27275.726
36754.007
37940.463
27253.107
35323.586
36456.252
25171.548
33052.523
33136.524
22892.079
28814.515
30205.464
18803.235
28141.596
26018.268
14125.87
20046.262
17859.681
11735.377
11897.098
14777.89
2133.0011
-393.42977
308.77468
241.54887
5699.9025
8094.9414
-3823.5652
-5374.043
307.98635
-7763.8056
-4179.5387
438.03955
-5050.8958
-2710.4532
1968.4839
-6057.4226
-4437.9388
-499.4278
-5790.3897
-4142.5936
224.2889
-6314.3856
-2847.5593
424.78701
-5512.9376
-2624.8981
-584.57804
-5821.0386
-2521.6801
-704.36192
-5508.8186
-1799.5704
-296.22411
-5377.018
-1085.4345
-957.49656
-4724.739
-626.66108
-856.24167
-4490.9776
69.739688
-925.46413
-3531.3585
534.46925
-1013.7311
-3238.2666
1067.9341
-716.85498
-2050.3445
1953.0611
-825.58041
-1145.2028
2104.8263
-569.16824
-598.15237
2634.7253
-900.17902
952.99872
2478.3104
738.76399
2286.9401
3962.2482
-1420.2817
1119.9059
-595.4293
-1051.3458
4170.7228
4323.1905
840.26262
5034.337
6077.6387
5968.196
17337.763
27105.728
27678.539
9697.8349
10762.973
18311.13
5687.0514
18901.99
19490.303
4467.9242
5146.8762
8754.9048
-4587.9505
2272.2604
4606.0598
-8504.1019
-3628.7671
342.15654
-12222.242
-8862.4527
-5191.3338
-17993.241
-14837.417
-11610.174
-21554.469
-19767.508
-14068.553
-26283.765
-23691.039
-19666.423
-29036.927
-28210.913
-23619.29
-32028.504
-31601.406
-26991.365
-34177.578
-34530.704
-30050.883
-35491.748
-36511.511
-32336.242
-35786.031
-37819.662
-33464.77
-35621.83
-37948.199
-34462.093
-34058.526
-37716.902
-33828.13
-32138.453
-35504.263
-32081.292
-28334.3
-32884.083
-30132.477
-24994.461
-29626.83
-26282.973
-19515.59
-24447.709
-21574.139
-13288.847
-15612.028
-11338.786
-6256.6733
-11064.02
-9429.967
)
;

boundaryField
{
    free
    {
        type            calculated;
    }
    fixed
    {
        type            calculated;
    }
    traction
    {
        type            calculated;
    }
}


// ************************************************************************* //
