/*--------------------------------*- C++ -*----------------------------------*\
  =========                 |
  \\      /  F ield         | OpenFOAM: The Open Source CFD Toolbox
   \\    /   O peration     | Website:  https://openfoam.org
    \\  /    A nd           | Version:  6
     \\/     M anipulation  |
\*---------------------------------------------------------------------------*/
FoamFile
{
    version     2.0;
    format      ascii;
    class       pointScalarField;
    location    "0.88";
    object      p;
}
// * * * * * * * * * * * * * * * * * * * * * * * * * * * * * * * * * * * * * //

dimensions      [1 -1 -2 0 0 0 0];

internalField   nonuniform List<scalar> 
3969
(
1580585.5
-2353818.7
10518.83
7960.2577
2892192.6
-4994226.4
8674.6959
5601.5302
1191987.9
838536.29
423053.54
-53680.251
-406089.86
-931144.08
-1040891.6
-7796.2756
-1274.5293
-575.48811
5048.5659
10336.428
14435.795
14291.621
510947.2
585283
573388.36
594305.33
584704.39
582591
569205.39
553589.34
540916.21
519619.28
506406.34
489893.2
472556.53
457931.89
443008.29
426531.77
413558.94
397922.25
384469.1
368790.02
355014.92
339865.23
325510.21
311399.09
295365.95
280232.78
264246.56
249384.57
235053.81
219229.15
204451.51
189826.48
174762.76
160299.36
146307.27
132661.37
118017.42
105809.55
91503.403
80253.181
66987.379
55987.523
45735.085
34102.798
27786.131
19951.992
13933.549
-517600.86
-439896.21
-549491.08
-487628.55
-549141.67
-506389.29
-521594.54
-491547.92
-491145.7
-470932.11
-459501.49
-449886.36
-428353.28
-422819.25
-405456.33
-393405.87
-380702.12
-364459.43
-353982.34
-338873.54
-324434.87
-313352.44
-296590.14
-284718.73
-269096.6
-254686.56
-238718.47
-223153.09
-208973.55
-193714.93
-181381.06
-166166.06
-153266.56
-138886.61
-126029.04
-112538.18
-100303.18
-86934.712
-75578.233
-62993.734
-51585.038
-41520.968
-31793.821
-22695.546
-14028.902
-7554.7372
-849.91715
2182582.8
1611441.6
710488.12
-148673.69
-819083.69
-1774936.5
-1434604.6
-649042.33
-718968.25
-458193.17
-663672.22
-568200.53
-588996.24
-566319.4
-557551.7
-534445.05
-500174.82
-532611.78
-488745.08
-493805.2
-473607.39
-459114.78
-447224.26
-427177.5
-413982.88
-396204.21
-378333.56
-364294.89
-348095.09
-332919.28
-317061.79
-303570.91
-290853.87
-275500.46
-256448.97
-242137.34
-225947.75
-209020.06
-193207.72
-177197.62
-161038.89
-145986.83
-131571.04
-113144.86
-100549.69
-87428.527
-73836.95
-60495.811
-48911.269
-36690.918
-25978.093
-16484.562
-7865.0258
-291.89435
19398.934
13131.693
11354.908
6466.3833
-828.14336
-1552.5441
-9261.3912
24587.188
22394.016
26434.312
35527.347
44809.433
54857.73
66161.648
77274.736
90173.583
102012.48
112174.28
134058.52
144505.78
159123.53
174585.76
190206.36
205303.25
221638.57
236810.11
253072.5
269756.91
284814.7
301181.57
317472.74
333641.37
349990.63
365880.08
380421.91
397141
411271.02
427617.54
440269.5
448575.93
473580.9
498137.52
495376.92
523670.27
525174.25
546803.98
571701.28
595956.4
581449.99
618437.03
587556.18
590655.7
613365.41
595510.75
1324732.5
1438691.1
1516435.9
1492418
1491599.3
1495628
1241164.4
-1815076.4
-2342230.6
-2715340.4
-2899532.2
-2773724.4
-2746234.8
-2038915.5
8450.313
9252.3545
10040.815
11343.773
10983.86
9535.8714
9435.9015
2822.938
4155.7593
3535.4187
2790.0505
4114.6314
8293.9845
4102.7218
442924.35
454500.56
457104.87
462467.76
460667.33
458042.14
445878.08
443039.79
423782.46
421592.5
405643.44
390853.86
384418.57
371183.43
359418.52
348092.04
336488.12
323679.3
310867.51
298354.5
286034.7
272423.41
259863.34
246908.47
235192.59
221212.62
208399.7
196245.29
183205.04
170570.1
158555.44
146191.09
134432.67
122960.16
111884.16
100668.96
89814.933
79799.094
69861.415
61273.525
51535.548
44445.25
35290.32
28983.994
23154.313
14758.235
8491.3594
280305.98
276596.53
282339.71
295242.76
298438.67
306799.01
297793.46
294688.36
287619.22
283813.57
273502.25
268088.32
257478.82
248001.86
241620.35
231522.94
223857.52
213776.51
205405.28
195843.38
185777.32
175818.66
166165.76
157256.94
147555.79
139745.6
131895.46
122190.35
115329.23
107204.25
99874.448
92669.728
85622.489
78941.752
72383.753
66062.621
59955.812
54600.527
48044.199
43185.532
36838.206
32331.322
26263.062
22609.645
17479.427
11667.214
5880.6945
120128.14
138078.75
132508.55
140387.33
139913.29
144660.16
140851.29
143757.55
137921.91
136531.66
134017.6
130622.56
126245.4
120700.57
115352.07
111977.9
108485.51
104057.67
100741.13
96182.57
93226.64
89418.729
85284.677
80664.798
77066.233
72172.803
67699.521
64453.358
60484.785
56425.474
52631.51
48751.605
44998.881
41285.281
38101.948
34410.056
31303.059
27931.816
24630.966
22425.466
19030.874
17832.632
14114.833
13227.071
10551.848
7304.424
6284.591
-16593.364
-20330.335
-24860.351
-15565.689
-25892.803
-20168.738
-27256.181
-23704.058
-25409.268
-15754.861
-21280.365
-15626.964
-17377.172
-13834.719
-12497.98
-10363.862
-9944.2518
-8492.6611
-7915.8862
-7776.9538
-7405.5676
-8664.7969
-11017.308
-9975.3808
-8766.8387
-8127.2384
-6635.6025
-5559.8638
-4590.4689
-3415.7214
-2234.9349
-1140.407
-263.78605
824.31472
1751.5272
2907.3854
3147.3567
4069.1042
4959.8138
5709.5129
6284.3112
6635.1965
5829.7636
7434.4894
6419.5027
7319.063
8184.1979
-172927.18
-154726.84
-157997.79
-168184.85
-178559.91
-176078.67
-179627.82
-173815.75
-173707.24
-161587.78
-163261.59
-149318.1
-150338.12
-137907.21
-135991.93
-126609.75
-122773.1
-115714.4
-110485.72
-105066.77
-96496.391
-86326.13
-80679.574
-70991.062
-67697.501
-64914.977
-58460.948
-53043.114
-48537.386
-43930.469
-39378.841
-35724.692
-31510.612
-28204.218
-24283.201
-21243.103
-18604.898
-14740.373
-15688.105
-12936.989
-11028.567
-8436.4556
-5779.6324
-2866.9344
-810.30223
2703.3002
6853.0679
-317299.38
-297648.04
-301834.53
-325814.89
-330898.12
-329534.71
-328024.58
-317592.56
-316328.18
-300439.66
-298582.32
-284335.97
-278538.9
-269797.5
-260502.48
-249015.78
-240174.89
-229195.03
-219737.51
-209905.61
-197479.95
-188249.97
-171212.01
-158825.62
-147413.74
-137614.07
-129081.53
-119521.28
-110553.25
-101764.65
-94042.4
-85545.298
-77872.791
-70213.949
-62985.033
-55824.899
-48974.972
-42875.337
-36617.752
-31476.574
-26054.145
-20805.703
-15114.376
-10056.227
-4917.1726
766.69058
8266.6397
-524417.53
-363885.66
-439247.91
-437251.67
-461852.35
-448106.9
-453202.9
-437937.56
-439555.62
-414592.87
-416600.74
-398318.16
-387131.54
-373111.29
-358778.68
-345503.18
-330205.16
-318778.94
-304471.47
-291882.39
-279274.97
-265675.32
-252818.44
-240356.79
-226960.64
-214855.31
-204525.03
-189833.81
-176849.95
-164090.99
-151908.23
-139481.58
-127295.7
-115717.12
-103879.64
-92680.461
-82074.684
-71493.586
-62430.5
-51252.746
-42010.892
-33123.818
-25125.3
-17996.721
-11109.177
-4366.1355
3882.8702
1040662
942717.17
985059.51
987891.28
991366.7
964309.32
910707.7
643923.27
697722.24
668686.76
681860.53
685881.88
671032.75
666056.05
319903.28
381276.78
329548.47
355099.34
339962.74
335650.75
360774.7
39568.655
-5636.7204
-27248.18
8652.1832
-15528.789
-59486.177
88129.563
-208025.8
-221225.59
-231022.97
-201731.66
-220083.83
-211174.76
-111430.58
-670237.72
-720312.62
-709982.66
-733332.34
-749162.17
-734579.22
-682072.96
-766707.23
-725800.03
-608916.14
-628558.15
-584956.59
-543971.14
-615906.86
-883840.15
-926982.27
-1052518.3
-1090442.1
-1118458.3
-1093964.8
-836396.17
-664079.95
-771940.64
-783328.81
-803840.75
-840342.96
-799817.29
-729102.57
-570005.11
-653606.3
-687303.15
-695107.14
-695854.42
-643978.96
-681312.63
-562666.67
-626681.83
-611172.39
-656771.71
-630811.2
-625142.85
-587666.96
-571552.41
-608954.58
-628672.1
-634794.8
-634809.81
-604269.29
-614011.78
-554580.14
-548779.72
-560907.79
-576649.24
-576008.58
-562377.16
-555197.05
-531580.88
-552012.76
-559572.75
-571860.92
-564802.99
-567098.93
-563034.82
-527793.63
-523315.36
-523924.7
-533671.84
-530773.9
-531913.11
-527167.25
-507328.69
-514309.16
-516711.12
-524842.44
-526639.32
-529879.97
-529045.63
-500069.83
-495923.9
-493560.87
-499869.51
-498959.6
-492208.83
-496088.07
-482254.14
-486703.45
-481139.08
-488671.34
-486841.48
-486517.72
-494958.63
-465198.64
-466814.55
-464790.42
-473212.43
-471514.76
-464155.22
-478274.31
-458470.72
-447139.73
-456751.14
-454119.17
-459065.84
-455454.27
-469029.14
-435973.17
-434990.27
-443025.7
-440317.27
-447394.69
-437514.96
-450030.41
-427800.58
-420621.06
-430375.5
-424902.91
-431525.7
-424853.96
-438328.06
-409997.84
-404167.34
-415792.5
-410014.89
-420656.52
-412389.66
-424825.8
-395207.17
-392977.86
-402131.74
-397094.71
-406884.78
-397559.03
-407815.28
-381200.63
-378490.94
-389396.92
-382589.67
-394149.44
-383177.46
-395286.38
-366314.45
-365634.56
-375663.68
-368235.1
-379685.65
-369059.46
-380827.14
-351708.77
-351500.82
-361571.91
-354192.74
-366479.37
-355489.22
-367156.04
-338611.09
-337161.67
-347504.49
-339617.36
-351582.18
-340918.25
-352160.6
-323606.98
-323261.68
-332717.94
-325721.46
-337365.69
-326679.73
-338428.35
-310234.75
-308359.83
-318763.99
-311230.2
-321356.01
-312452.48
-323058.03
-294759.11
-295491.97
-303040.29
-295526.52
-307254.79
-298441.37
-309524.39
-280038.45
-282097.21
-284794.88
-283126.3
-290503.56
-284307.02
-293756.82
-263315
-267757.49
-266313.59
-270630.89
-274962.37
-273207.2
-280354.49
-252486.37
-251976.11
-253238.68
-254773.54
-257540.44
-256378.86
-263611.85
-237843.37
-236380.94
-238084.89
-239840.76
-241703.44
-242110.75
-245608.08
-221967.13
-220614.45
-222708.91
-223117.42
-224252.93
-226897.11
-228447.7
-207382.25
-205272.14
-208019.53
-207535.39
-209896.81
-211594.75
-212654.09
-191471.8
-190906.15
-191977.77
-192105.63
-193405.67
-195299.45
-196300.64
-177202.18
-175412.31
-176942.13
-176644.95
-178027.48
-179906.64
-181015.88
-161699.34
-160902.5
-161627.54
-161536.33
-162630.88
-164697.34
-165759.91
-147386.84
-146206.14
-146894.92
-146733.44
-147666.29
-149632.23
-150276.63
-132686.51
-131895.57
-132086.18
-131877.4
-132538.38
-135027.38
-135668.16
-118606.55
-118044.04
-117883.88
-118175.93
-118661.38
-119602.91
-121103.58
-105195.94
-103707.54
-104375.38
-102898.29
-104736.42
-107052.3
-107183.97
-92092.006
-91826.309
-90454.076
-91219.28
-90659.651
-92606.344
-93391.701
-78841.931
-78023.993
-77322.023
-77439.886
-77597.655
-79467.209
-79733.738
-67083.741
-65736.8
-65863.239
-65132.189
-65275.85
-67123.141
-67696.137
-54488.115
-54186.368
-53420.826
-52831.956
-53182.158
-54860.249
-54955.828
-43803.351
-43491.448
-42438.952
-42446.634
-42245.857
-43727.584
-43941.741
-32807.482
-32708.595
-31591.649
-31712.15
-31035.051
-32802.634
-32800.412
-23638.904
-23091.255
-22460.123
-22144.949
-21721.936
-23247.23
-22848.563
-15200.023
-15232.59
-14341.449
-14173.807
-13713.855
-14477.936
-13865.492
-9294.4739
-8732.5544
-8542.3401
-8127.7945
-7645.4801
-8605.0206
-8125.2277
-4142.0183
-3993.5912
-3697.9597
-2720.2724
-3666.0437
-3554.5296
-2224.1847
-14932.462
-17344.521
-19572.712
-19617.353
-18079.143
-16995.561
-14778.727
-8194.985
-8880.9629
-9088.5938
-9806.6074
-8719.6008
-6892.7966
-5857.9163
-4067.3307
-5490.3353
-5909.1178
-5594.6994
-5020.1829
-3333.8019
-2585.7624
5669.1679
6059.9603
5957.6037
5981.1159
7107.1524
6425.6778
7862.6857
12914.41
12956.083
13421.117
14457.783
14114.505
13949.908
13455.383
17830.414
20193.237
20665.991
21064.464
22319.131
19740.357
19145.329
20704.863
21283.932
22899.923
23117.963
22619.375
21554.452
20468.445
631291.17
627624.92
698752.82
684688.67
702440.75
667618.26
650860.11
659063.59
673537.26
702765.86
696501.13
706952.75
667570.84
653230.66
637427.9
642055.89
662291.59
663244.05
662940
635858.15
626370.21
606467.21
623160.24
636459.54
640531.07
638534.21
621268.15
623422.91
606358.98
609842.24
615558.95
619665.1
617501.02
611229.4
600641.13
582002.01
583659.51
593112.08
586916.74
591975.55
575503.36
579288.92
575269.38
575294.31
577020.66
576075.69
585830.19
572805.97
583373.95
551125.01
545586.6
556069.38
538767.13
551306.87
543826.32
548149.47
539562.22
543604.88
542598.13
537856.59
546619.99
537247.39
548062.23
525381.72
516489.36
518666.48
510540.34
521681.08
510604.53
523641.41
509437.97
502521.02
512331.19
500167.4
511442.09
501850.58
511067.16
489697.82
489667.74
490173.48
480694.08
490730.69
481754.55
494129.48
480229.59
470964.26
474609.08
467201.61
475429.77
466692.72
467122.77
462887.29
457292.11
458424.93
453247.84
459225.88
454592.64
463107.48
447272.31
443609.09
440505.18
439962.58
442175.43
437766.32
444906.45
436780.57
426923.9
427587.39
423635.89
429924.54
423438.79
427956.71
419883.6
413225.99
412443.11
410510.52
412654.9
407550.5
413113.84
405338.88
397689.47
399039.22
394973.89
398109.63
393953.67
397454.43
390019.15
383926.96
384315.19
380131.3
383624.1
379178.61
383371.2
375833.18
368395.86
369570.67
365653.88
368720.33
364224.66
367919
361514.67
353302.55
355658.48
350934.36
354235.22
349779.54
353407.53
346396.68
338566.96
341310.06
336444.07
339271.97
334225.18
338261.21
332007.36
323921.96
327397.01
321860.67
324540.41
319759.91
323885.38
316562.12
309425.16
312397.37
306824.7
309032.84
303973.36
308336.09
302058.83
293168.87
297681.91
291180.85
293690.19
288710.27
293524.01
286731.84
277793.26
282791.33
275832.7
278277.24
273437.69
277563.6
270799.53
263020.55
266899.48
260710.92
262323.55
257761.64
262389.93
256092.45
247986.77
251225.68
245638.23
247177.13
242839.89
247147.46
239396.68
231765.38
236179.97
229926.36
230958.11
226739.69
231007.79
223759.2
217762.93
220163.35
214859.54
215565.6
212054.96
215682.41
208487.02
202245.42
204824.47
199772.2
200117.4
196442.97
200072.24
192488.4
187471.89
189065.8
184618.15
184299.36
181325.8
184637.01
177233.24
172728.22
174082.84
169865.34
169268.96
166799.32
170012.13
162141.83
158368.8
158919.89
155296.41
154417.18
152381.02
154556.62
147329.87
143947.35
144245.51
141081.4
139515.53
138384.65
139829.38
132095.85
129981.08
129820.19
126628.54
125757.95
124414.44
125839.48
118406.25
116975.41
114863.2
113752.81
111558.53
110608.73
112910.79
104738.58
103888.13
101984.04
100362.24
99076.027
96546.541
100026.96
90811.421
90309.777
87958.698
87350.613
85674.44
84569.761
86880.91
78820.335
78687.958
76508.472
75970.839
73752.637
72767.588
74919.899
65768.01
65527.889
63378.037
63099.439
61177.016
61637.353
62835.883
54916.636
54946.544
52973.457
52845.557
51297.239
51119.536
52246.461
44349.224
44368.074
42407.088
42784.229
40767.054
41209.143
41591.115
33555.738
33311.121
32095.558
32323.736
31264.928
31713.251
32755.127
27309.315
28595.933
27980.041
28369.032
26976.231
26678.234
25930.273
21153.555
21407.122
20534.735
20560.562
20613.138
21447.777
20382.214
23075.856
25609.633
26116.333
26915.504
26630.927
27026.745
25306.124
595960.66
496746.17
478148.54
479425.15
488091.98
493545.27
467515.23
470667.17
454857.81
448750.2
430582.09
419415.35
405507.74
386616.68
377550.59
363689.41
348640.73
336103.45
322415.32
309489.46
296170.2
282501.94
269393.87
256396.75
243056.91
230165.32
215718.11
202846.64
189846.32
176731.75
163908.47
151411.05
138918.16
126903.06
116233.69
103022.54
92315.439
83587.61
72580.428
63428.753
54788.738
46149.428
38620.911
30957.249
24168.369
17059.254
7094.2151
351414.38
371190.4
278238.61
326010.05
358200.03
337477.65
350854.88
330363.9
333894.15
318867.85
311229.54
303862.84
285560.32
281854.31
271888.26
263256.38
252787.54
241611.5
232850.56
221747.43
211551.3
201329.48
191055.43
180101.87
169592.22
157522.06
150620.69
139447.18
130333.05
121251.29
112261.02
103796.25
95252.113
87944.207
78962.322
72709.012
65484.755
58243.436
51958.875
45643.795
39858.49
33807.747
28586.461
23117.507
18412.439
12582.636
6613.3267
162130.02
211253.41
116317.27
191090.93
156162.75
148886.52
149790.34
145488.21
143946.83
135261.02
142319.06
134670.27
142165.1
136064.54
134863.41
132722.49
126515.86
122243.42
117615.43
110591.44
105537.6
99852.989
94093.278
88732.814
83570.417
78452.136
74041.57
67523.923
63157.014
58105.934
53555.136
49303.213
45371.205
41267.139
37421.748
34445.764
30904.346
27990.905
24901.688
22892.418
20456.447
17922.654
15982.159
13878.239
11677.433
10064.291
3313.3967
-31941.715
38344.032
-18136.674
23513.711
-12535.366
8509.4687
-1453.5219
-13857.908
-7923.163
-2268.4201
-8670.6161
1857.9036
-2905.123
7798.3117
9088.9052
10573.88
10388.686
11138.476
11049.305
10421.996
11158.451
10926.567
10936.996
10975.338
10002.883
9394.4234
8367.991
8535.9287
7786.8953
7621.5596
7155.0078
7639.28
7058.1328
7218.4012
7030.5242
7171.7031
6701.6306
6818.7639
6556.2778
6951.7106
6651.5878
6568.3498
6851.9729
6292.5479
7329.5631
5827.0506
4833.5386
-284500.22
-130092.73
-163319.97
-113105.04
-159620.85
-128173.82
-154402.12
-144562.36
-135276.14
-140028.15
-125127.08
-132086.82
-119586.96
-123048.84
-117137.71
-112912.07
-109024.24
-104085.89
-99621.197
-95025.898
-90194.424
-85679.818
-80967.041
-76733.114
-71826.529
-68782.986
-63155.64
-58643.621
-54792.606
-50837.245
-46921.497
-43045.509
-39262.736
-35172.923
-31782.101
-28160.23
-24674.215
-21015.589
-18022.266
-14400.368
-11486.252
-8013.5382
-5505.9259
-2103.7993
328.63956
3790.5634
5010.0219
-438231.39
-313554.16
-273096.51
-280319.89
-303280.46
-292751.88
-312578.24
-282231.3
-311503.11
-294813.3
-300338.97
-286444.92
-278495.8
-273016.84
-260405.95
-251769.72
-239508.59
-227922.26
-216964.27
-206819.19
-197057.69
-186446.32
-176348.03
-162646.7
-150174.6
-137868.23
-129796.43
-120327.71
-111885.15
-103033.73
-95480.964
-87162.966
-79438.129
-71838.137
-64610.664
-57628.52
-50502.186
-44035.613
-37890.835
-31422.208
-25730.406
-20119.354
-14485.762
-9592.8976
-4236.7976
1135.0428
6515.844
-537646.17
-396838.22
-416770.6
-411547.38
-458848.19
-452508.53
-455413.55
-447290.76
-447031.18
-430339.82
-415357.49
-410405.04
-393954.99
-382143.89
-369369.37
-357774.03
-347489.6
-334272.47
-324576.76
-311075.03
-298594.88
-285093.78
-272068.38
-257502.18
-245267.74
-223922.93
-212336.95
-199731.59
-187583.27
-175784.09
-163894.96
-151300.09
-139775.67
-127686.62
-115841.04
-104585.83
-93450.668
-82513.473
-71639.362
-61026.686
-51536.608
-41026.211
-32741.653
-23447.24
-14928.369
-6620.4821
522.33012
729842.83
806692.88
781511.17
816598.14
802410.56
762404.06
710914.73
533536.84
609728.95
602652.49
619010.89
602909.73
582963.51
533390.29
500720.21
545608.35
556727.88
567683.97
554171.29
548521.87
526371.61
489798.29
503507.95
507998.7
522462.4
499066.23
509731.42
466892.27
475551.07
485884.74
495862.46
490190.08
487240.61
482177.38
454918.22
467333.68
484231.75
466519.59
485853.7
469029.94
470719.05
470434.32
459700.16
454728.29
453816.6
458235.13
440640.71
454492.96
447361.5
443947.45
465003.7
445306.95
456622.13
449255.23
448891.17
444475.02
444094.8
437065.39
418429.2
437772.27
420586.79
429187.06
426343.94
425119.19
427387.51
423524.51
432868.28
415621.44
426669.2
420546.27
412837.44
420287.53
402841.68
411709.92
400476.44
408819.72
406229.96
409660.6
403014.68
394200.5
401140.58
394003.79
395587.12
392305.52
393011.24
391916.26
382893.86
392636.84
379093.06
386202.92
389077.82
381046.08
377796.43
372996.27
377354.48
365538.65
372305.77
371447.14
371918.51
366153.39
362891.22
362332.19
357383.02
361424.44
358149.18
355862.99
352942.37
350932.61
351603.57
343550.36
344451.37
347412.63
342856.01
341158.96
337732.57
339455.34
331089.12
335464.26
334368.13
330880.47
328821.45
326426.66
325079
319721.34
321340.61
321853.9
316879.45
317204.01
311890.29
313761.3
306977.68
308521.7
307764.76
304800.72
303786.4
300402.01
300630.82
294784.15
295970.95
295913.16
288783.81
292524.48
286814.35
288001.57
281824.97
283071.42
282033.01
276380.85
280031.79
273784.56
274505.51
269275.49
270173.86
269943.67
261866.01
267293.88
259517.44
261331.57
255932.3
257988.26
255858.75
248306.24
253777.39
246131.8
247622.87
243655.67
244496.7
242712.47
233090.5
242190.9
232434.92
235673.15
230399.19
232930.69
229892
221612.81
228609.56
220482.77
221093.19
219073.73
218938.64
217144.46
209486.62
214941
207223.48
208838.54
206577.09
206679.62
204545.43
195749
200324.43
196169.68
195294.82
193169.17
193755.13
190847.84
182854.76
190162.09
181747.93
182738.92
181384.11
181747.75
178960.13
171728.37
175357.72
170369.69
170459.8
169143.58
169119.74
166345.82
158917.08
163057.2
157698.04
157688.34
156559.12
156831.33
154150.47
147333.58
150356.37
146313.72
145822.14
145128.92
145345
142541.44
135785.95
138180.53
134364.73
133659.09
133427.21
133589.62
130644.11
124555.55
126012.6
123011.55
122126.95
122138.3
121919.46
119091.93
113296.68
114018.85
111822.71
110610.98
111016.87
111038.02
108592.62
102696
103013.69
101264.36
99838.617
100548.07
100460.08
97896.386
92963.553
91806.102
90706.237
88641.002
90401.184
88924.279
88484.822
82796.104
80602.911
80706.617
79090.417
78675.448
80485.919
77742.065
73104.329
69956.084
70843.245
69010.969
70181.857
70472.072
68955.68
63217.771
61463.101
61616.636
60064.398
60257.558
61134.272
59501.964
54632.278
51397.938
52485.508
50005.522
51676.172
51905.651
51026.551
45989.471
44266.371
44897.216
43279.938
44421.099
43906.166
43259.405
37303.271
34420.184
35413.741
33394.925
34505.423
34856.778
35363.248
31011.091
29470.683
30746.093
28718.818
30283.675
29878.121
29178.673
22447.035
21254.668
21216.246
20117.071
21043.649
20859.715
21403.302
15645.475
14357.936
15474.629
14000.709
15039.247
15114.25
14098.547
7815.4904
5182.5918
5010.0603
4751.9443
5611.5893
4682.4289
7544.0491
472034.96
501337.22
545290.25
537546.88
550944.44
505339.84
503460.62
378391.1
442892.67
458046.62
468388.06
465347.73
436357.95
414751.01
363762.09
335456.01
375254.62
361226.74
376280.44
341487.93
350150.35
319524.76
328376.37
342995.42
335778.69
341649.83
332343.48
305805.5
331711.96
326969.59
337040.16
326411.84
342768.49
322037.39
330862.88
313754.47
307440.15
310168.65
305099.28
300697.97
313428.96
308117.38
313250.25
312855.83
324673.88
306339.5
320865.06
319705.17
312369.02
306447.03
297565.78
295468.01
289399.54
298325.74
293466.2
300439.76
301613.97
288843.66
303487
291461.24
292464.78
297430.75
298556.44
286828.33
286320.86
290952.28
273162.86
284367.26
284821.66
289805.78
285779.26
279232.02
278325.79
269635.26
276476.03
277450.66
277730.45
277121.93
265263.33
276343.79
262061.19
272448.14
267601.32
278100.09
266244.27
260212.97
269006.36
250060.24
260980.49
256382.98
262201.49
259394.69
253537.55
258302.41
243326.63
253435.03
252027.93
248820.71
249358.47
247136.91
246349.3
234920.52
244197.46
239998.56
239853.28
241367.69
238070.61
236851.37
229806.46
232875.47
233641.46
230113.91
232649.53
230368.97
229287.24
219753.41
224571.29
226022.34
223882.35
223065.58
221783.96
218362.88
212470.17
215314.59
216234.31
212179.52
215618.27
212090.98
210670.93
204177.59
206797.88
207540.05
205129.08
205162.36
203095.31
201447.79
195597.27
197435.52
198006.29
195703.58
197866.84
194204.82
192653.83
186811.36
188699.76
189205.77
187580.67
189585.87
184850.34
183124.79
178373.63
179905.24
180270.21
178054.74
181678.43
174968.05
174583.82
170082.84
171848.87
170511.6
169789.26
173046.45
166271.99
166554.36
162456.99
163124.8
161630.25
161628.65
164582.39
157598.18
157906.7
153514.84
154892.14
152216.23
152941.77
155781.54
149359.85
147036.65
147938.99
144424.74
143450.37
145179.81
145196.51
140856.83
139846.8
136272.47
137552.75
133263.65
135397.78
138372.5
131705.26
131583.48
128829.06
129117.26
125443.28
127423.49
128999.31
123258.61
123857.92
120144.54
121447.82
116295.02
118766.29
120384.61
115519.5
114738.85
112466.39
112204.33
108318.74
110192.08
111868.7
107746.49
107434.69
104715.28
104819.43
100666.89
102277.95
103498.77
100430.86
99048.893
97220.025
96707.916
93032.114
94035.866
95624.348
92949.59
91568.535
89826.205
89365.783
85365.641
86107.597
87539.325
85728.33
83861.255
82834.981
81692.33
78175.633
78966.861
79922.04
78998.784
76990.837
75862.402
74989.515
71647.436
72541.208
72443.572
72240.445
69472.4
69319.596
67721.909
64730.241
64224.09
65131.29
65471.264
62858.43
62451.207
61130.937
58112.446
58213.216
57793.141
59634.725
56013.91
56408.136
54672.089
52354.938
52180.498
51191.999
52575.268
50080.474
49848.538
48630.176
47042.925
45715.154
44774.807
47290.244
43679.059
43915.839
42539.878
40683.103
39716.834
39103.798
40505.121
37581.622
38309.916
36919.985
35631.647
34602.151
32719.338
35062.203
31742.26
32796.277
30975.179
30107.25
29677.528
27910.673
29137.77
26429.173
27353.611
25666.504
25552.309
24736.879
22532.634
23867.941
21247.41
22240.915
21115.011
20800.067
20431.289
16783.204
18153.444
15831.984
16967.526
15575.256
15604.688
15419.712
11343.179
11513.903
9484.2713
10289.771
9801.9377
10205.456
10270.782
6111.9174
4135.5717
2386.4779
3002.3985
3235.2978
3155.2124
4764.3215
265688.78
285910.02
266322.81
298784.52
275040.3
260294.17
242709.55
195027.75
277729.24
264187.81
282788.61
247885.33
263528.61
211329.49
178642.39
168796.51
172510.81
176209.19
169108.47
156620.73
152816.01
149838.97
180439.93
179044.05
194293.55
168549.19
186908.88
152024.1
166146.31
151604.68
154596.25
142907.9
143148.73
138691.5
140566.31
147389.68
165884.96
144796.78
152148.59
148574.61
148423.64
147361.33
157353.19
156405.68
130998.66
141630.9
139729.63
133684.44
141766.04
149170.36
159102.83
131444.49
143432.78
134367.85
131651.62
142376.17
151388.43
158512.68
129054.63
136419.89
133184.55
133742.31
139185.63
151304.95
153958.1
123761.52
131410.93
132684.09
127511.1
136015.22
147190.68
150929.21
120981.87
133844.22
129025.08
129006.04
132435.72
139829.13
145564.74
117719.54
127683.61
125168.35
121932.16
129960.96
134730.51
147550.12
113867.28
126385.69
121276
121123.07
123960.69
131395.31
137396.81
114308.76
122089.6
122986.85
110928.93
127460.3
128145.93
132138.45
109627.72
119808.42
116803.67
109791.07
121601.64
123016.71
124773.73
110661.7
112959.31
114050.22
105702.69
119205.36
115700.18
122024.13
105118.89
110412.39
109197.17
102890.29
112481.61
113267.37
115628.18
102094.78
106225.14
105417.59
99012.861
107590.46
106171.4
111993.22
97939.814
102625.82
100339.18
94984.275
102529.47
102561.45
107230.43
93874.949
97723.798
95629.545
91107.062
98392.616
96639.25
102476.88
89267.452
93523.99
90932.626
87657.842
92275.994
91625.628
96824.932
85146.234
88974.687
86841.457
82476.731
87952.936
86502.189
91847.922
80920.483
85406.293
80608.409
78947.406
82727.951
81446.28
86091.336
77019.81
79128.078
75443.067
74584.075
77208.35
76822.91
80985.974
72211.749
74596.073
70408.474
70915.316
72027.99
72506.968
74293.936
69047.169
68663.765
65807.103
66106.629
66764.678
68391.62
71020.919
63983.716
66294.969
60025.301
63382.653
61301.817
63964.83
67703.47
59597.861
61271.469
56893.994
58313.434
58187.239
59684.348
62242.115
55245.393
56905.632
52302.266
54034.818
53911.441
56174.018
57982.218
52040.507
53085.255
48923.953
50377.572
50176.322
52509.982
53865.654
47849.849
49270.243
44703.311
46663.445
46299.447
49125.175
49682.469
44411.622
45541.573
41378.759
43065.639
42343.779
45757.136
45628.011
40866.701
41925.33
37824.671
39360.831
39455.786
42614.938
41954.499
37769.255
38664.341
34738.338
36691.195
36295.126
39566.347
38123.553
34552.4
35020.596
31675.68
32938.383
32925.852
36325.042
34696.404
31352.215
32037.534
28721.726
30315.477
30432.529
33906.312
31181.199
28838.299
28787.104
26480.455
26830.876
28200.778
30429.531
28319.853
25558.302
26426.903
23306.497
24813.62
25606.174
28341.927
24979.637
23143.518
23080.956
21279.942
22145.125
22987.333
25453.373
22922.097
20674.136
21634.071
19142.229
19874.268
20443.254
22633.373
18351.772
18113.669
17514.266
16432.902
17194.098
18812.415
20045.468
18174.135
17255.464
17175.483
15878.747
16196.536
16633.786
17339.908
13336.791
13411.239
12645.498
12248.503
12734.693
14515.118
14949.029
13255.856
13663.809
13360.817
12728.655
13257.646
13286.622
11297.125
8739.7259
9050.3164
7842.1668
8026.7667
8392.4424
9082.5676
9338.3607
8437.139
7918.1335
8018.8475
8210.3249
8497.3395
9073.9958
5449.1086
1585.6262
2015.0651
1669.4496
1450.2669
1906.0846
3192.3343
-7622.9979
-21980.23
-15880.493
-8996.0328
-17376.39
-20248.347
4727.5164
-10463.268
-13726.045
-15978.649
-11703.142
-19704.978
-13306.467
-17311.281
11845.182
-38837.361
-35068.491
-48573.191
-33683.272
-49097.046
-11645.62
-13261.837
-28701.958
-13723.523
-23401.62
-26141.273
-9865.7593
-27259.015
-3912.425
-14582.949
-16454.769
-44301.115
-12426.424
-50629.909
-4409.7433
-5479.6843
-24985.068
-33096.413
-25333.578
-28517.222
-21037.903
-16160.944
-5529.8991
-19288.583
-5810.5971
-31109.29
-14638.114
-25172.188
-10729.342
-2545.4512
-15342.763
-21870.173
-22769.779
-19906.205
-17938.837
-12906.816
83.166744
-21519.652
-11617.36
-25863.846
-15375.671
-19071.054
-16690.871
-6637.9635
-14418.241
-13560.304
-24145.552
-17618.657
-17646.107
-13025.62
-3692.1861
-14511.01
-14435.973
-24276.826
-17619.126
-19154.442
-13273.671
-3913.9998
-12608.552
-16097.03
-19072.774
-18459.2
-12627.886
-12305.947
-1412.5685
-14805.642
-14673.488
-21172.674
-15558.078
-16151.787
-13036.436
-3074.0262
-13065.141
-5667.6244
-14861.655
-19717.591
-12162.85
-17063.622
646.10876
-6044.3461
-17343.198
-13897.386
-20104.388
-12810.78
-12943.245
-3253.7177
-6858.7906
-16370.239
-10553.734
-21081.234
-10711.959
-12994.049
-252.03303
-6938.7235
-13495.761
-8501.0711
-19354.056
-10092.982
-10496.029
-1928.133
-5960.0705
-12161.854
-7320.3938
-18762.181
-9241.394
-11043.207
-172.79657
-3994.2527
-10438.267
-6632.0402
-17153.57
-8515.9817
-9114.2613
168.6118
-3434.464
-10197.141
-5908.2297
-16262.885
-6982.7662
-9939.3259
1268.7596
-2314.4134
-8762.1679
-4847.1378
-13713.801
-6840.646
-8919.8637
2483.9576
-532.40715
-7878.0817
-3303.8158
-13578.096
-5813.2337
-8301.1492
3022.8225
306.07923
-5834.5332
-4137.1613
-11814.976
-4903.7621
-7573.097
4855.1414
1064.7257
-4391.5024
-3351.0255
-8999.2355
-3623.9469
-6736.7481
5105.6058
1850.4966
-2498.7387
-2953.967
-6038.4765
-3802.134
-5861.654
5591.4948
4764.4936
-1483.9073
-1168.3235
-3940.3293
-3321.2323
-4394.5191
7719.7056
4503.4496
5.0096062
-1096.8555
-2780.3869
-2701.3829
-4424.5573
7781.9532
4534.0896
1104.3526
-577.9655
-2051.4549
-1841.3379
-4266.4482
8571.0709
5261.0793
2491.661
849.15206
-126.92497
-874.9509
-3198.5474
8580.1793
6115.6045
3300.2587
1364.5982
152.41863
-268.68702