/*--------------------------------*- C++ -*----------------------------------*\
  =========                 |
  \\      /  F ield         | OpenFOAM: The Open Source CFD Toolbox
   \\    /   O peration     | Website:  https://openfoam.org
    \\  /    A nd           | Version:  6
     \\/     M anipulation  |
\*---------------------------------------------------------------------------*/
FoamFile
{
    version     2.0;
    format      ascii;
    class       pointScalarField;
    location    "1.81";
    object      E;
}
// * * * * * * * * * * * * * * * * * * * * * * * * * * * * * * * * * * * * * //

dimensions      [1 -1 -2 0 0 0 0];

internalField   nonuniform List<scalar> 
625
(
237.18569
-927.31297
-32844.468
-36656.489
-100.75682
-528.72717
-57026.433
-70739.032
-773.43172
622.16549
737.08295
-48524.292
-66753.246
14044.801
2790.3484
1156.2054
3256.0851
7863.7701
8989.9293
15505.163
18270.377
20174.369
20276.076
14253.359
2988.4242
-13411.277
-35519.974
-60591.761
-85942.074
-110033.15
-127089.03
-137909.5
-133592.47
-120988.6
-99457.905
-71565.496
-23497.875
2889.039
-2689.4194
4058.961
-1156.2489
-9427.0591
-9639.3711
-20555.079
-23196.429
-25303.638
-24581.737
-17227.573
-5843.1499
13277.738
37947.882
68332.867
101454.4
134110.45
160886.5
177637.6
179893.92
162896.22
131532.07
72147.194
305.26362
60.011508
-1231.68
3549.512
8613.0853
-6651.7764
-4447.6646
432.55783
-18740.631
-16566.892
-21085.472
-21427.399
-17724.977
-11969.954
2442.4199
17334.82
38398.975
61226.218
85451.948
108985.18
127862.82
138611.58
138397.68
123379.07
96403.708
64502.058
-38383.116
-93936.036
-79887.839
-13707.967
-33830.967
-52598.695
-68646.241
-78426.657
-80156.816
-76549.939
-67029.75
-54237.391
-39355.607
-25200.527
-11461.963
-1619.2636
6593.933
11217.729
12105.316
11060.667
9530.5929
8702.429
3092.4851
7021.9286
212.95023
3465.8557
393.72911
-576.30922
-1213.3484
-1303.444
-2228.9037
-2942.9512
-44420.324
-42323.885
-46602.267
-41883.563
-42470.257
-41571.251
457.40952
-1220.6454
-3424.0049
-4767.742
-9918.3056
-12305.245
-17555.338
-20146.481
-21465.864
-20089.112
-13909.599
-4108.3465
10855.799
30114.325
52258.949
75638.38
97214.515
114113.06
124521.83
120920.85
112373.95
89770.989
41160.402
276.54432
-1787.902
-2102.2602
-4891.8438
-4884.4228
-5708.4148
-6969.1047
-4987.749
-4380.4232
-661.72978
2494.2775
8028.7301
14084.087
20930.871
27999.402
34064.298
38931.642
40239.658
39913.038
31279.18
24352.447
6509.17
-13066.707
1795.6573
-145.25893
2468.5112
4392.012
9249.5537
11470.961
19062.094
20131.783
22044.918
19182.412
11551.665
124.96618
-17119.533
-37663.07
-61155.745
-84851.008
-107419.48
-123162.32
-133570.45
-128376.7
-114031.44
-85793.64
-33887.099
-249.7364
-783.73941
-813.25937
68.22697
-132.87094
126.4877
62.155579
-679.29122
-1074.8743
4886.1218
5513.0882
2905.3322
4936.4788
2131.2539
2618.6237
1446.6201
-2234.9724
1470.2573
-1972.8887
-1793.5915
-6308.8629
-2649.0209
-6593.6944
-2783.5344
-12479.694
-11394.495
-12917.592
-14846.613
-16990.706
-15242.981
-18997.259
-23560.327
-21696.23
-22514.927
-22256.005
-24492.324
-19141.101
-20570.727
-19892.411
-13709.217
-12455.458
-14788.343
315.18109
21.82711
-590.84876
17678.049
19090.069
17694.234
42557.327
43055.541
41316.151
71422.551
71624.12
70183.129
102755.95
102210.45
100428.98
133159.24
131681.06
130087.29
157531.01
155375.85
154134.99
171634.56
169345.73
168090.45
171092.6
167921.69
167166.2
153155.28
150736.18
150626.39
118050.08
119730.14
117932.86
69593.297
68874.854
71635.452
-59082.778
-58029.034
-56520.454
-65904.583
-72402.379
-74513.319
-10834.753
-6272.1795
-6426.9111
1397.5066
3348.3524
1396.6288
321.87759
81.358263
333.77911
6321.3766
4721.6511
6185.2663
6396.9932
5861.3046
6238.1066
11919.339
11285.905
10939.963
15686.543
11632.826
13591.292
18428.433
17474.42
17045.419
20458.174
18022.3
19244.682
20046.03
16138.539
16534.039
12789.89
12424.919
13878.467
3069.5574
1819.4003
4568.1996
-12268.582
-12511.755
-8052.2131
-32077.416
-31627.598
-25249.261
-54160.554
-53264.306
-44684.616
-76684.941
-75467.669
-64703.243
-97453.594
-95893.821
-83769.351
-112088.03
-111491.66
-98218.161
-120890.3
-119968.77
-106710.33
-119055.79
-120462.61
-106433.81
-104651.72
-112994.98
-97284.634
-82902.733
-92136.65
-79001.476
-60900.755
-60215.041
-55404.041
-17832.904
-18613.697
-17352.854
-1011.9384
-114.58806
-4738.5539
-4018.6371
-10261.29
-13001.792
-16222.459
-21580.706
-20346.026
-18830.231
-12714.848
-1756.2594
12904.939
31243.816
51874.344
72453.979
90764.423
104235.57
109531.72
106667.47
92600.213
69018.94
46638.331
402.89553
1649.7586
-707.60606
5024.5526
6431.2294
13001.499
16714.705
20014.539
23216.027
22260.808
19064.834
13774.314
3895.7967
-6741.747
-20008.917
-33729.525
-46324.759
-57450.453
-64819.728
-68407.003
-66897.592
-62673.094
-43275.858
1420.0751
620.29926
4048.1632
259.56705
8271.7966
10542.66
12196.576
17926.841
13937.67
12430.39
1275.9657
-11109.514
-30050.805
-50324.486
-73057.995
-94383.378
-112334.32
-124061.82
-126921.05
-117793.45
-98615.614
-64661.742
-22869.809
-373.84584
-274.40569
-408.50256
-591.20657
-738.62534
-508.70789
-3461.0078
-4272.2988
-3525.1266
-5239.9062
-4580.6861
-4159.0432
-9132.9201
-10137.92
-8963.0409
-13669.864
-13127.589
-13943.997
-18292.258
-18238.051
-16914.793
-20855.289
-20740.373
-21786.83
-22253.493
-22466.313
-22741.791
-19766.19
-19188.088
-19998.097
-11882.88
-12758.345
-13839.924
-1083.126
-1221.0201
-1937.0021
16418.23
15602.161
14172.718
37202.075
35971.989
34514.518
60880.083
59401.892
57716.97
85307.285
83645.172
81390.547
106917.97
105298.52
103134.61
123827.73
122687.21
119713.05
132305.86
130689.07
128547.59
124800.77
132040.12
126021.65
113348.72
117182.14
113114.08
90052.576
89665.858
87417.515
46558.894
46753.011
47444.086
-200.04271
-145.01129
-21.995219
-231.17318
482.12513
524.0948
-1187.1336
-3693.3492
-1749.9004
-1039.1512
1190.5375
989.01248
2203.0005
-157.28878
301.27911
1870.7902
2957.9904
4127.2277
4658.4163
5229.922
5854.4956
7727.9713
8199.9981
7774.0993
8496.5376
9214.7109
10466.307
11455.265
12239.278
12218.639
12104.126
11770.621
11721.266
12799.745
12320.656
12077.013
12800.202
11307.678
9642.9922
11482.382
8928.2711
7438.515
10109.238
6548.2642
3935.6304
7233.4597
2100.1072
0.93897887
4131.9852
-1625.5913
-4709.9306
57.755798
-7912.3946
-9476.0916
-4984.6593
-12713.198
-14643.423
-11541.686
-17907.721
-19721.06
-30892.841
-2010.3397
-22316.818
-26482.309
-31826.697
-32030.044
-30775.194
-36286.325
-33855.592
3210.9167
3001.6481
2910.413
792.39259
350.98409
1619.9768
3044.0217
4335.9847
5971.3515
7490.2741
3230.6155
4992.9544
8672.8255
7892.9816
10129.643
13577.243
11118.604
13312.546
19764.191
15447.732
16874.382
20350.805
17296.62
20615.249
22606.475
17998.609
20152.114
18839.437
14601.812
16959.393
10999.606
5581.3949
8321.4955
-1502.9416
-7191.7298
-4436.1633
-19553.477
-25674.1
-22435.209
-40745.591
-46852.209
-43607.288
-64895.081
-70632.904
-66903.956
-88775.678
-93177.37
-89648.69
-109831.88
-113169.46
-109674.44
-125123.81
-126337.13
-122984.29
-131651.25
-130473.81
-128372.85
-125181.11
-123540.62
-121636.6
-108511.51
-105223.44
-105168.91
-75649.049
-72430.693
-73232.308
-31816.881
-26714.217
-28400.556
)
;

boundaryField
{
    free
    {
        type            zeroGradient;
    }
    fixed
    {
        type            zeroGradient;
    }
    traction
    {
        type            zeroGradient;
    }
}


// ************************************************************************* //
