/*--------------------------------*- C++ -*----------------------------------*\
  =========                 |
  \\      /  F ield         | OpenFOAM: The Open Source CFD Toolbox
   \\    /   O peration     | Website:  https://openfoam.org
    \\  /    A nd           | Version:  6
     \\/     M anipulation  |
\*---------------------------------------------------------------------------*/
FoamFile
{
    version     2.0;
    format      ascii;
    class       pointScalarField;
    location    "0.02";
    object      E;
}
// * * * * * * * * * * * * * * * * * * * * * * * * * * * * * * * * * * * * * //

dimensions      [1 -1 -2 0 0 0 0];

internalField   nonuniform List<scalar> 
3969
(
2355.7231
2450.725
20483.064
20633.83
2461.2037
2513.6601
20113.873
20544.49
976.36566
299.63991
8.9994931
-45.108063
119.02797
552.29413
1436.7545
20030.139
20392.448
20556.406
20898.757
20856.109
20900.825
20407.305
2116.8541
1212.2096
952.3141
734.518
520.99944
384.98191
307.0517
328.84063
430.18972
577.86839
797.52121
1041.1937
1304.2154
1563.1799
1875.3434
2155.2208
2448.0279
2772.8185
3100.3731
3444.4064
3803.0506
4176.9941
4568.0644
4974.0916
5400.6817
5841.4764
6300.9153
6778.6574
7275.6669
7796.4261
8345.4454
8927.0388
9539.0782
10189.44
10824.473
11454.531
12051.662
12567.725
12910.819
13339.25
13692.16
14193.799
14840.502
15534.988
16635.456
17974.255
19064.712
2197.5092
1063.5582
1267.7967
824.62915
740.87084
561.50607
480.37676
479.11708
508.40485
648.5853
784.27424
984.9681
1215.3145
1470.0411
1730.8823
2012.3633
2306.5568
2613.7215
2935.0131
3272.3431
3620.3356
3986.1708
4371.1617
4771.3697
5192.0647
5620.9765
6094.0769
6552.4991
7048.8223
7554.3378
8094.0353
8653.785
9259.5717
9909.7341
10597.113
11341.873
12084.49
12716.169
13139.614
13505.273
13742.591
14018.649
14433.798
15079.093
16044.615
17282.438
18813.762
1097.8818
378.99954
-0.32435355
-23.382077
81.818569
406.34072
1261.1395
3474.5556
2424.1749
308.14196
1081.2174
469.17535
397.90834
356.48511
247.35567
493.00826
432.64061
739.60317
1008.0391
1233.9729
1530.018
1826.2983
2114.0683
2423.1685
2741.3045
3068.9203
3412.7135
3768.6354
4140.4596
4527.8401
4924.5083
5340.3539
5725.2276
6210.0344
6661.8184
7145.9049
7652.1171
8190.5865
8754.8252
9354.9888
10008.09
10681.795
11391.158
12228.624
12558.819
13052.583
13225.287
13354.246
13702.695
14353.828
15356.562
16583.195
17918.25
19132.814
19803.655
20115.865
20447.289
19788.473
20852.237
20314.185
19835.414
18963.417
17571.763
16465.356
15497.949
14742.098
14261.037
13891.857
13582.136
13248.124
12751.704
12260.731
11653.728
10883.97
10248.202
9595.8894
8985.867
8412.2616
7869.2972
7353.4505
6856.1774
6378.9843
5923.8961
5480.6337
5060.4891
4653.3319
4262.039
3887.1599
3525.9313
3178.3957
2853.0764
2529.4899
2208.1521
1934.1314
1664.5495
1368.3894
1118.6978
885.28294
651.19038
525.96651
398.02375
371.91311
451.37635
573.67995
858.03955
1070.0076
1222.3839
2604.8065
1656.8402
1834.0465
1811.9428
1809.9241
1808.3941
1735.2704
1779.5339
1806.8614
1937.5195
2112.2157
2217.3653
2174.7872
2128.562
1774.9257
20734.118
20624.085
20658.372
20597.022
20522.66
20319.062
20389.53
20525.624
20709.394
20759.553
20712.294
20736.569
20561.598
20639.178
1278.3246
709.09132
632.41008
475.60519
341.71548
255.90667
221.77912
282.29596
424.71791
640.38461
891.32886
1157.0719
1437.1726
1715.6259
2006.0216
2306.2944
2618.0296
2938.8882
3271.1916
3617.1276
3977.9616
4353.2647
4744.3216
5152.8075
5577.6899
6017.7884
6478.1336
6955.1118
7450.4233
7966.8694
8507.2198
9075.4882
9677.5576
10306.163
10958.722
11609.4
12221.698
12755.365
13258.057
13690.609
14062.139
14550.063
15015.626
15660.274
16745.692
17827.22
18660.11
559.87771
381.27579
452.58365
383.09755
327.72245
267.94702
243.00403
283.18018
400.31872
588.20377
828.25714
1096.0168
1371.9913
1657.9086
1951.8397
2253.7635
2563.3023
2885.0254
3219.8079
3566.9366
3929.5522
4307.5939
4701.4986
5109.4049
5533.7166
5975.0686
6433.2212
6913.5824
7411.8784
7932.6327
8478.885
9055.59
9661.8428
10296.308
10940.969
11566.738
12145.671
12649.665
13081.81
13437.27
13835.049
14231.777
14897.077
15463.973
16658.276
17838.394
18240.631
214.98427
221.99684
312.99957
291.52202
256.56396
216.30167
204.88294
242.71212
360.65009
545.54912
783.61578
1052.0237
1330.0273
1616.2715
1909.0695
2213.022
2525.8832
2850.1417
3185.5228
3533.1098
3895.5634
4267.9214
4655.2536
5060.981
5488.1631
5937.3018
6400.9759
6882.3056
7383.5866
7909.5377
8462.5447
9049.0359
9665.1032
10316.325
10974.744
11617.624
12213.348
12716.899
13154.945
13528.291
13915.32
14340.089
14899.544
15540.521
16523.13
17740.967
17971.899
136.21459
199.0268
269.98064
260.63529
228.00165
185.70386
168.12221
207.8142
316.97417
502.81671
744.07154
1014.0958
1297.5435
1587.4027
1884.4273
2188.3189
2500.7426
2825.1096
3159.3386
3508.6656
3870.4184
4241.5053
4637.6283
5049.0365
5477.1921
5914.9241
6371.1162
6850.2097
7348.9066
7873.6023
8425.3268
9010.4563
9627.6771
10278.432
10935.055
11569.555
12136.822
12607.938
12985.961
13314.554
13672.552
14033.208
14713.928
15359.626
16405.542
17695.629
17915.052
220.82956
251.06022
290.00219
270.35672
219.1957
164.80804
137.77102
174.62085
289.54994
482.10028
719.30505
988.07046
1261.9518
1548.8508
1840.0116
2139.9608
2450.1615
2771.1131
3102.9157
3448.3333
3806.7625
4180.2751
4600.9757
5009.7929
5432.053
5878.3814
6337.7687
6815.7172
7318.4672
7842.9337
8399.126
8989.1337
9613.8288
10279.996
10953.231
11617.217
12223.218
12743.085
13090.587
13410.849
13836.862
14228.597
14822.531
15442.489
16322.013
17498.235
17964.492
597.31389
500.46092
458.9606
403.75132
323.11456
258.17254
229.51291
269.55059
386.811
571.37941
801.19981
1062.7843
1333.293
1613.262
1899.5373
2195.5049
2502.0318
2819.8206
3151.1615
3493.9828
3854.8798
4204.935
4628.9564
5041.9219
5476.6847
5913.3169
6364.2866
6848.8614
7339.3586
7861.2415
8407.5852
8986.0263
9606.8592
10264.827
10942.373
11621.371
12234.171
12736.021
13145.59
13396.025
13696.627
14068.08
14678.456
15368.474
16368.628
17619.9
18426.46
946.68676
579.14613
525.59137
391.59172
269.17171
212.40767
204.1964
293.33506
450.56288
661.22541
914.70392
1173.6857
1446.0778
1721.85
2006.7672
2298.5844
2601.9988
2916.8583
3247.2828
3580.7687
3951.9894
4308.2269
4673.644
5078.9792
5493.5713
5936.9182
6387.5568
6862.82
7352.4789
7867.5241
8406.6981
8976.5719
9582.8328
10223.578
10887.376
11558.535
12220.414
12827.906
13313.914
13768.354
14097.149
14511.241
15002.321
15574.949
16432.753
17336.116
18524.461
631.13375
722.09913
657.79161
658.55497
661.02436
661.68782
729.84077
234.76863
254.27409
248.84653
250.1402
245.10321
250.28016
241.67973
40.267808
56.836821
60.028469
70.105324
63.858582
54.850269
36.757283
-16.749856
5.3256716
16.255025
21.753903
13.422964
10.067828
-25.112604
61.08771
66.040414
72.112844
75.420635
76.28661
82.685925
59.199745
335.6526
299.67065
292.46974
301.54449
301.49492
315.54441
345.5813
706.84416
707.77279
653.86012
653.97025
644.10953
692.49517
873.1686
2653.8552
2472.5607
2716.7785
2913.9361
2880.2813
2970.497
2730.6738
2254.9751
2552.1307
2163.2462
1978.7846
2370.081
2266.1149
2398.3428
1099.6822
976.09843
1178.3998
1158.6254
1064.5497
997.15841
1273.7903
1074.8828
1195.9516
1101.6348
1102.6095
1106.6626
1176.5322
983.66257
753.10396
681.61196
734.94983
699.98155
675.82273
629.21607
774.52219
566.20465
530.74462
504.92291
537.891
481.50152
612.79339
549.78766
473.83652
409.02965
438.55265
407.29955
396.21961
350.65734
504.04534
377.58666
366.13421
371.34619
362.37724
417.93601
383.83705
434.24941
449.66599
443.92506
375.50151
416.49776
405.75881
429.41422
497.82533
497.81187
535.87254
612.54116
564.26958
552.72731
533.44508
586.04863
730.811
754.75087
730.70596
730.85405
717.12405
736.23188
753.62844
929.57102
950.42567
965.46095
969.92796
957.89374
948.92679
1002.468
1155.9018
1213.0771
1221.4193
1211.2231
1217.8988
1227.4648
1259.6751
1417.0978
1468.6198
1476.5647
1483.6652
1476.6509
1481.8886
1514.014
1687.8169
1750.1537
1758.6547
1760.054
1758.2332
1770.6504
1807.7673
1975.6392
2034.9365
2043.6611
2047.0446
2047.7732
2061.8813
2095.8368
2271.7409
2334.6285
2340.4933
2344.4985
2346.2862
2361.3554
2393.2966
2581.769
2643.3534
2650.9866
2654.6067
2657.9871
2673.8911
2707.2017
2904.4109
2966.8935
2972.6536
2975.8626
2980.813
2997.0955
3030.9736
3241.8129
3303.1385
3309.9903
3313.6384
3319.2969
3335.3979
3369.4707
3594.7367
3655.254
3662.729
3663.5689
3671.1434
3686.3825
3721.9201
3962.4513
4023.2139
4030.8924
4030.9501
4040.6357
4053.6448
4089.9106
4350.6885
4406.5037
4414.1535
4412.4108
4424.2705
4436.7671
4476.3017
4750.292
4805.2861
4813.9875
4813.7712
4827.7393
4836.9017
4876.3378
5165.2774
5226.909
5225.5617
5234.6983
5243.4875
5254.5019
5293.6256
5599.214
5658.5045
5659.9322
5681.9523
5686.5652
5678.4026
5699.1942
6054.3727
6109.3705
6109.8237
6099.3148
6109.7121
6114.6959
6151.2817
6516.739
6563.6083
6568.6278
6578.3475
6583.1899
6571.577
6611.555
6996.2397
7053.1861
7041.5001
7062.0012
7060.957
7071.2754
7098.8492
7516.1266
7550.9425
7558.8609
7562.0981
7564.7211
7567.5348
7599.3658
8039.0402
8085.8691
8080.6403
8088.8092
8094.072
8096.4273
8132.9914
8604.8958
8641.267
8636.4767
8645.8565
8650.3991
8655.5755
8700.0937
9207.7294
9238.491
9228.8991
9235.2225
9239.8833
9246.987
9296.0373
9862.4604
9877.3596
9857.5846
9857.2164
9854.4702
9876.1294
9947.2467
10556.983
10551.81
10516.614
10506.997
10518.73
10556.893
10611.121
11304.588
11240.303
11177.487
11157.599
11165.967
11209.167
11324.712
11929.171
11815.057
11766.413
11753.81
11811.945
11795.434
12032.486
12421.581
12382.163
12283.1
12287.772
12304.828
12470.107
12479.287
12906.692
12789.87
12674.664
12644.841
12632.6
12684.655
12765.424
13105.461
13010.5
12910.771
12920.265
12863.414
13007.375
12991.053
13287.768
13287.892
13230.883
13238.563
13162.375
13305.987
13120.482
13581.529
13739.266
13723.102
13762.694
13649.642
13793.757
13478.922
14184.368
14494.695
14533.203
14573.838
14465.387
14562.817
14177.685
15095.916
15513.001
15597.834
15659.32
15573.034
15595.983
15239.376
16337.005
16750.666
16869.033
16912.113
16868.057
16787.049
16547.923
17811.755
18153.069
18253.585
18288.649
18234.579
18076.854
17978.844
19352.073
19453.745
19515.772
19515.204
19431.282
19332.799
19254.966
20058.268
20134.242
20168.186
20159.603
20192.076
20115.782
20032.316
20953.52
20916.12
20918.292
20961.616
20868.746
20762.888
20880.104
21424.968
21100.348
21154.767
21103.68
21054.746
20724.645
21277.73
21200.243
20812.444
20704.365
20684.362
20553.621
20585.918
21047.402
21260.507
20741.278
20828.79
20795.677
20795.588
20737.66
20931.706
20851.965
20474.15
20479.745
20416.841
20418.647
20194.887
20596.231
20345.784
20259.19
20321.634
20230.702
20181.511
20116.622
20083.162
2001.9906
1947.6628
1878.8227
1822.8917
1886.1098
1896.128
1815.0708
1447.6231
1327.4056
1321.842
1308.0977
1344.4697
1251.7313
1409.1192
1206.8164
1232.8788
1208.8669
1178.565
1225.1736
1125.46
1241.1385
924.4298
907.72825
919.75383
913.11195
915.11217
903.24853
953.08773
683.73042
641.09935
639.95527
624.28536
655.97381
611.67444
742.84228
516.90481
483.55884
480.0962
469.46461
483.09487
462.13298
588.13054
412.99362
372.95256
372.7134
400.31758
401.13165
409.89623
445.51529
418.86182
394.61312
391.95231
376.73837
393.99418
414.25395
503.0614
459.7857
463.08055
473.60822
474.33632
484.60322
472.06094
557.11393
631.57183
648.84522
641.02897
640.37476
641.4667
646.42367
666.65808
829.54762
841.09278
844.32464
844.03407
853.99628
847.48159
882.16659
1075.8303
1077.2029
1079.8448
1085.6338
1089.5293
1084.9615
1100.6923
1287.3425
1335.1939
1335.9967
1340.6884
1344.1422
1343.1029
1435.0649
1617.5282
1615.1157
1589.7238
1609.0867
1605.8641
1638.6859
1613.3761
1855.6637
1882.9611
1915.5574
1890.6077
1897.1849
1859.2625
1949.5414
2145.6054
2178.7344
2165.6248
2183.5567
2179.3093
2221.3095
2219.1199
2469.5452
2485.5373
2482.7877
2479.7937
2479.7085
2470.6734
2505.3233
2772.9402
2790.5727
2792.0524
2792.2308
2790.3081
2803.7696
2838.1422
3101.9009
3123.7691
3119.8132
3120.6597
3120.6866
3130.2148
3163.1665
3445.1023
3464.7249
3462.0316
3463.8975
3462.0855
3474.3159
3507.623
3802.2993
3823.4752
3819.3587
3820.8305
3819.1243
3832.3603
3865.0112
4177.7936
4197.3801
4193.3197
4194.595
4192.9678
4205.6944
4239.2587
4567.8894
4587.0494
4583.4678
4584.6545
4583.2732
4594.9245
4628.1195
4977.1101
4995.0688
4991.428
4992.3516
4989.4796
4999.5269
5036.4628
5402.7554
5417.512
5414.2392
5414.9451
5409.8231
5423.4624
5455.8332
5842.8526
5857.9614
5857.0933
5854.3216
5851.9973
5862.6005
5898.1131
6303.119
6320.1105
6314.7936
6312.3974
6310.1513
6319.5722
6355.2794
6781.3884
6794.2571
6791.3511
6787.5958
6788.269
6793.2719
6833.7951
7277.9972
7291.8683
7287.4725
7283.7054
7283.9358
7290.6161
7331.7783
7798.2223
7809.2063
7804.0755
7799.5579
7805.5009
7807.4672
7853.1152
8345.6216
8353.4705
8348.1478
8343.4039
8351.7916
8350.7731
8400.8217
8926.0061
8929.9193
8921.5825
8914.0395
8928.8919
8927.4514
8982.2175
9542.115
9537.7999
9525.6805
9519.4466
9544.2359
9536.8477
9598.5451
10193.845
10175.354
10155.361
10151.757
10170.28
10176.791
10255.174
10836.348
10802.681
10786.79
10773.824
10810.836
10847.908
10883.377
11493.606
11441.651
11398.191
11378.835
11429.021
11439.451
11524.66
12075.197
11934.089
11893.099
11923.833
11936.171
12013.188
12178.026
12480.085
12468.546
12396.849
12425.906
12435.684
12597.23
12488.664
12930.056
12864.272
12776.855
12815.367
12739.003
12914.899
12818.742
13259.174
13256.757
13175.577
13243.695
13059.725
13371.988
13106.561
13615.898
13667.978
13589.141
13694.173
13439.812
13801.268
13412.285
14100.865
14231.091
14188.53
14294.79
13965.433
14322.023
13892.21
14738.742
14968.892
14935.933
15046.1
14741.369
15028.735
14591.472
15574.397
15836.867
15868.77
15945.989
15716.811
15785.368
15517.459
16732.106
16957.118
16992.675
17038.328
16910.471
16837.705
16798.829
18121.947
18396.918
18456.095
18488.773
18438.802
18234.405
18196.044
19251.434
19289.096
19354.218
19393.482
19389.337
19274.581
19245.127
2017.5448
1148.929
827.95233
608.66037
413.64649
347.95917
287.28304
380.54501
517.23998
744.31149
1010.0637
1271.2752
1545.3581
1818.8814
2106.3189
2407.3505
2713.621
3039.7731
3368.2361
3713.6401
4075.6657
4450.5363
4841.7463
5249.0636
5668.8819
6119.7003
6567.7229
7044.8564
7535.575
8046.4287
8577.8789
9133.7302
9722.1845
10341.999
11024.504
11667.162
12359.007
12994.984
13567.682
13979.009
14315.045
14636
15017.824
15587.635
16347.856
17302.838
18477.906
875.74507
985.61018
590.70842
603.34306
530.94446
456.47622
416.77322
421.56655
480.39758
633.02672
822.07639
1070.0479
1344.8875
1627.5435
1929.4631
2225.5766
2538.4994
2865.859
3196.0381
3543.6091
3906.9515
4281.9992
4673.2904
5080.498
5502.5356
5956.8717
6400.855
6879.6376
7388.7291
7909.07
8461.1863
9045.1002
9670.3423
10349.592
11062.705
11786.487
12487.695
13048.807
13417.425
13606.023
13708.467
13853.448
14246.082
14844.38
15949.722
17280.025
17917.806
257.77751
380.66912
256.23151
346.45357
272.82699
267.93031
268.09074
303.25029
413.38497
577.04904
793.95805
1050.958
1318.1424
1584.4426
1869.6778
2169.4346
2479.3025
2801.1317
3133.2812
3485.0101
3846.6546
4224.9327
4617.1909
5024.7969
5450.4581
5896.7461
6364.1443
6836.148
7340.1997
7867.4857
8419.7207
9005.8783
9629.4514
10291.074
10989.509
11697.974
12334.217
12845.045
13208.797
13472.692
13697.191
14081.583
14584.212
15417.254
16330.171
17694.542
17781.904
105.11221
244.99272
290.52221
351.1476
286.95293
249.60043
244.19778
284.97756
381.55956
538.574
761.54599
1017.664
1288.5473
1589.0361
1885.6478
2187.9526
2497.5735
2818.2175
3152.879
3500.8683
3859.3623
4234.3855
4621.4212
5023.7209
5448.7054
5891.2603
6360.3272
6838.359
7340.8553
7865.4709
8421.3236
9009.9517
9636.0645
10308.079
11010.562
11710.264
12363.306
12888.558
13254.217
13481.788
13699.351
13979.265
14480.169
15079.879
16033.287
17184.676
17668.644
195.78152
242.58825
313.96526
310.57613
309.57001
267.79168
278.79444
311.74697
406.47768
571.08224
782.6695
1024.7677
1303.3806
1577.1227
1869.7376
2162.1129
2469.3227
2788.8403
3119.6622
3465.006
3823.755
4198.9669
4592.2957
4996.9456
5423.2823
5871.8686
6326.7284
6813.3341
7314.768
7841.5466
8395.1856
8980.6365
9607.2305
10272.139
10975.939
11683.434
12335.28
12859.147
13210.624
13442.342
13633.736
13973.858
14449.251
15235.94
16125.265
17570.698
18012.231
492.87341
561.85941
403.10288
494.24307
364.45735
364.32681
331.3786
362.20093
466.94645
580.3072
809.1798
1076.69
1338.0611
1624.4428
1911.0538
2207.128
2514.697
2833.3922
3163.4201
3508.042
3866.2907
4239.3467
4633.6631
5022.0121
5437.3918
5876.4232
6351.8213
6822.0746
7323.3732
7841.4292
8391.0373
8968.8553
9585.392
10249.863
10956.862
11669.239
12359.466
12896.954
13292.448
13520.932
13724.466
14007.448
14541.256
15242.796
16215.141
17411.158
18412.165
1265.4494
545.89883
707.60335
385.41455
405.91419
325.90294
317.70358
449.98265
537.44189
780.09851
1044.9895
1280.3364
1540.6715
1807.2433
2078.8661
2371.5846
2670.256
2982.9602
3309.6661
3650.3589
4006.5981
4377.0319
4764.3965
5166.7822
5560.0974
5969.4856
6435.8058
6919.1054
7408.1094
7926.8339
8459.0462
9022.8116
9619.8393
10259.301
10940.952
11636.258
12361.127
13073.286
13606.329
13991.509
14259.206
14515.848
14865.327
15412.792
16180.905
17262.748
18587.422
1554.3008
1408.2854
1410.9872
1385.4535
1389.9555
1369.6199
1391.8552
1147.0338
1205.8144
1166.8331
1148.7166
1132.4289
1106.564
1157.1088
837.44421
938.18234
937.76465
931.57209
910.21027
925.84724
909.28878
658.56186
695.25113
729.653
727.80927
729.48185
696.42919
705.58505
478.49113
488.28102
515.99552
524.63993
512.48481
512.23349
507.88594
381.01723
372.17599
409.1886
414.95538
417.14261
419.90302
388.69967
347.74604
344.99408
365.45206
370.83954
372.42857
360.26309
341.74332
405.43603
409.65121
436.78076
450.02229
448.95323
428.59548
401.00137
542.88036
563.76396
584.14515
593.67442
590.74328
574.44628
525.42931
743.12715
774.08179
793.22282
800.07469
798.0616
785.07441
736.25942
981.79793
1013.8152
1031.5989
1041.5853
1037.624
1028.8455
987.09963
1244.6265
1276.1298
1292.9569
1296.7158
1292.4369
1285.5917
1246.437
1522.9979
1550.19
1560.9138
1562.6762
1558.5841
1549.2589
1511.7194
1796.8477
1825.6789
1836.4774
1836.9334
1828.7896
1818.9156
1791.0915
2087.2019
2103.1698
2105.4342
2106.3403
2110.8196
2108.2411
2087.6166
2386.9813
2405.3093
2398.9571
2393.7053
2392.526
2393.5302
2372.1799
2685.8505
2703.7247
2702.8108
2700.6336
2699.2775
2695.1759
2675.379
3003.6775
3015.7777
3014.3028
3013.7282
3013.4028
3017.4017
2999.512
3333.7564
3345.9014
3342.6011
3340.8345
3341.3865
3343.1218
3327.9461
3676.855
3689.1034
3685.7193
3684.3799
3684.2928
3687.5923
3673.4673
4036.3539
4048.173
4043.2305
4041.6597
4042.1086
4046.6361
4031.6055
4411.28
4422.3252
4417.2717
4415.6323
4416.1327
4420.0582
4407.0898
4803.3542
4813.3435
4808.6161
4805.9669
4805.9302
4811.1968
4797.8009
5210.9159
5220.4016
5217.3955
5212.7736
5213.303
5217.0976
5204.2997
5635.4624
5643.5195
5639.3508
5635.088
5635.5342
5637.8417
5626.3072
6074.6049
6084.2506
6082.1254
6077.0978
6077.967
6080.3599
6072.0979
6534.8558
6545.5899
6537.8554
6533.4337
6529.7312
6538.2802
6521.4148
7008.2422
7017.651
7012.0553
7007.4722
7007.9207
7009.7636
7001.7799
7503.0681
7509.8493
7502.5007
7499.4358
7497.5577
7505.1014
7491.433
8014.3092
8019.936
8012.1633
8009.632
8008.1894
8015.008
8004.4503
8549.6353
8551.4419
8542.0751
8539.9117
8536.7917
8546.6775
8536.3057
9110.3594
9106.5447
9094.0712
9092.0834
9089.0592
9101.8757
9092.5389
9703.6083
9690.2822
9672.7352
9670.598
9667.2057
9683.1556
9676.0682
10324.465
10297.805
10275.18
10272.909
10269.438
10291.035
10289.337
10973.256
10932.431
10899.359
10897.153
10889.653
10914.79
10922.582
11616.938
11553.52
11518.18
11509.494
11505.877
11561.299
11594.667
12239.437
12156.867
12125.995
12101.036
12121.801
12158.539
12204.043
12800.207
12725.024
12678.997
12659.418
12662.608
12712.285
12689.6
13277.359
13222.307
13172.653
13145.425
13142.039
13208.319
13197.203
13684.882
13661.631
13624.585
13596.504
13604.019
13667.88
13613.183
14070.592
14072.501
14054.932
14008.514
14025.316
14062.935
14005.029
14510.376
14597.653
14582.522
14526.364
14541.148
14531.439
14447.819
15001.651
15102.936
15100.461
15045.006
15060.783
15019.734
14961.889
15661.713
15805.02
15804.019
15753.839
15755.304
15695.641
15663.654
16668.117
16827.019
16806.971
16786.1
16779.949
16708.135
16639.148
17615.128
17742.354
17725.152
17713.84
17686.255
17604.989
17591.654
18715.509
18812.312
18815.353
18890.699
18889.798
18823.379
18730.492
668.51491
609.11326
595.62634
587.7874
585.66928
580.75728
565.84856
696.81538
856.29356
852.0039
865.60895
865.7869
844.57762
805.40717
605.39354
671.20652
688.87228
691.93072
695.19121
661.13076
667.11142
521.82343
548.99321
584.32834
582.41031
575.03975
566.62391
546.52465
459.31363
449.89377
464.74558
465.5198
469.87141
467.15514
473.7814
406.87308
379.6154
383.42732
381.02469
381.89667
375.02155
381.91568
379.67289
361.56577
350.46939
360.36422
347.65523
346.47149
347.74414
414.59551
403.84714
391.59162
403.05168
386.0804
387.04427
372.5999
508.42031
510.73522
500.24653
510.41605
493.38533
483.99991
468.68308
675.9649
685.3062
677.80942
689.30773
672.6978
662.92799
635.61002
893.25866
906.20087
901.87569
911.58734
896.70342
876.6012
855.50493
1143.2747
1159.584
1156.2832
1167.6569
1150.9375
1141.4926
1115.0324
1410.8716
1425.4311
1422.4095
1434.7714
1423.7963
1416.4264
1391.9165
1690.0806
1703.2348
1702.7552
1709.2898
1701.5237
1694.0863
1676.9693
1977.1598
1985.2797
1987.2384
1995.0318
1988.6405
1985.4205
1965.2164
2272.053
2283.3206
2283.0072
2285.2621
2279.6866
2278.6787
2266.9288
2579.8075
2585.9933
2586.9926
2589.4216
2587.3379
2587.5448
2571.6161
2896.935
2905.032
2902.472
2903.2545
2901.0657
2904.6815
2895.7032
3227.3135
3234.4097
3233.425
3233.6607
3230.3503
3234.5886
3223.5427
3571.3881
3577.5186
3576.4361
3577.2759
3574.3903
3579.2637
3571.2069
3930.9474
3936.7294
3934.405
3935.0109
3931.224
3937.2135
3928.7376
4305.4029
4311.6548
4308.7301
4310.6097
4305.5854
4310.7321
4304.3231
4695.4173
4700.9757
4697.9582
4701.3771
4695.9402
4702.4756
4694.7221
5102.8247
5107.2622
5105.7055
5108.0714
5104.4599
5109.8017
5101.7431
5528.7067
5532.7214
5530.0794
5530.1417
5529.327
5531.7827
5526.26
5970.9359
5973.2758
5970.0774
5969.7201
5968.255
5970.018
5969.2816
6429.4531
6431.0081
6430.845
6430.1226
6424.9645
6434.3413
6421.7247
6907.8744
6908.2811
6906.2058
6906.3147
6903.6103
6906.3245
6904.0528
7407.1295
7405.8682
7404.4741
7404.0629
7399.9462
7409.2773
7399.364
7925.7532
7924.5041
7919.8635
7919.1128
7917.3209
7926.1544
7917.1811
8471.412
8464.832
8459.3588
8458.781
8456.7602
8468.2043
8459.0385
9046.1938
9034.2249
9025.4984
9023.4313
9023.658
9038.5697
9026.6892
9656.0505
9634.3157
9622.7116
9619.3419
9619.4163
9637.7279
9627.8908
10298.488
10267.234
10249.714
10241.178
10244.131
10276.11
10258.157
10960.993
10914.116
10892.026
10877.306
10891.767
10929.434
10921.197
11610.158
11556.333
11522.319
11513.259
11524.6
11579.054
11548.91
12211.041
12143.198
12101.828
12091.509
12087.865
12191.891
12156.525
12716.227
12621.078
12580.203
12566.818
12583.841
12692.962
12664.005
13107.788
13022.189
12992.467
12960.954
12981.577
13103.253
13054.772
13427.721
13344.424
13326.549
13291.321
13296.458
13418.657
13394.419
13772.241
13701.94
13694.611
13654.379
13638.666
13736.981
13726.186
14124.834
14092.769
14087.199
14066.482
14020.012
14077.071
14122.465
14727.046
14716.335
14750.054
14730.569
14671.288
14666.883
14729.148
15343.463
15376.749
15414.255
15435.2
15377.869
15311.141
15413.994
16459.02
16541.622
16584.517
16614.617
16576.201
16457.067
16550.955
17592.549
17714.811
17809.377
17866.025
17858.832
17751.144
17848.571
18394.144
18447.382
18607.863
18713.669
18743.205
18639.694
18508.134
266.55563
270.08707
276.92798
274.32221
269.34325
244.35117
220.06425
342.06153
442.55051
453.60717
458.58714
448.3411
411.77726
397.52445
380.81517
396.73039
395.99567
402.08574
388.67246
356.79378
364.67244
348.23897
340.73859
379.25854
388.29001
377.64346
362.89686
360.21702
324.5006
285.12688
284.62863
280.4158
278.83355
272.39578
297.38432
299.06031
229.53113
240.43457
227.25564
235.33506
240.39326
239.20921
287.65739
223.427
243.57781
243.21993
246.77556
242.33189
246.34839
329.33699
282.55177
299.87929
295.6822
297.8758
292.52339
282.70411
433.8218
405.67917
426.30759
427.56312
426.948
414.80683
394.69688
600.63702
592.46293
612.81963
615.75327
611.00747
595.49512
572.52137
822.74618
822.6531
842.66389
846.62737
842.81012
827.53804
797.17111
1076.9334
1080.5627
1098.0283
1103.1923
1102.1701
1084.8687
1060.4256
1346.7101
1353.2272
1372.2744
1372.6373
1372.6113
1353.786
1335.0792
1633.0008
1639.0834
1652.5332
1651.5456
1649.2583
1634.7911
1619.7735
1928.3262
1929.4942
1932.5442
1933.0769
1933.1135
1917.3876
1909.704
2225.266
2224.1433
2223.9277
2227.633
2226.352
2214.7586
2208.7537
2533.0939
2528.119
2525.8531
2527.9935
2528.4726
2520.0317
2517.0567
2851.0454
2846.2133
2842.3613
2842.098
2843.4625
2835.804
2836.2887
3183.6303
3176.4545
3172.0395
3172.2854
3173.6944
3167.8397
3168.145
3528.2885
3520.8704
3515.0502
3514.536
3517.0846
3513.0691
3515.3677
3887.5038
3880.6547
3874.6533
3873.3893
3875.2185
3872.1414
3875.0566
4261.414
4255.7756
4248.4734
4247.5814
4249.4405
4248.7632
4251.984
4653.3989
4646.1448
4639.5121
4637.7103
4639.8011
4640.6749
4643.6275
5062.4253
5055.5054
5050.8327
5048.1679
5045.5956
5046.565
5047.5
5487.2627
5478.0567
5476.2911
5472.4109
5471.9402
5469.7904
5468.7735
5929.3436
5920.523
5915.7533
5912.9622
5915.2886
5909.1895
5910.5429
6389.6343
6380.9443
6372.7894
6371.6867
6375.8183
6369.137
6373.552
6867.5196
6858.2585
6852.2512
6849.1371
6849.959
6849.5836
6849.7109
7366.2818
7353.3459
7348.6147
7347.0841
7349.5894
7346.5531
7348.6241
7888.6387
7875.528
7867.7477
7863.7429
7866.8034
7866.8757
7868.8546
8437.2749
8419.7995
8410.0729
8406.5057
8410.8721
8411.1601
8413.2306
9015.3918
8992.5946
8979.4834
8973.2507
8976.6504
8981.8516
8985.4933
9628.1324
9597.996
9580.0402
9570.5014
9576.9579
9587.5405
9588.4115
10275.672
10233.052
10205.809
10193.999
10198.911
10212.926
10219.84
10936.802
10881.226
10848.261
10833.774
10837.337
10864.015
10867.787
11586.291
11518.349
11479.091
11454.724
11462.236
11499.097
11511.817
12178.807
12097.668
12052.932
12022.769
12040.984
12080.14
12093.056
12664.146
12595.343
12545.384
12515.943
12532.918
12578.737
12578.651
13059.893
13015.178
12950.577
12926.517
12933.388
12981.269
12973.556
13409.71
13387.19
13313.076
13297.584
13302.001
13343.421
13314.807
13743.899
13763.937
13697.83
13675.875
13671.705
13705.159
13661.946
14169.044
14260.959
14198.741
14202.391
14185.822
14211.38
14136.062
14709.124
14825.003
14802.498
14812.281
14793.49
14805.903
14712.142
15435.564
15611.2
15606.885
15660.716
15617.529
15629.301
15530.854
16407.124
16569.293
16597.881
16662.164
16631.24
16660.052
16555.983
17658.483
17879.022
17955.354
18011.095
17971.755
17956.475
17939.614
18335.438
18303.11
18529.643
18619.525
18612.477
18558.219
18404.743
144.1226
175.11812
191.91271
194.82182
187.95017
171.27513
120.07477
236.69427
317.98583
340.91996
353.81079
343.35875
325.13681
276.89206
294.23711
322.185
340.83768
350.51493
345.3272
326.58707
307.30536
293.6104
286.80442
310.48172
315.72924
313.95164
310.03723
319.9367
279.23988
243.32642
245.81858
248.73495
238.98532
235.10945
262.72437
271.75888
210.65432
213.47986
222.723
215.60775
217.47545
275.69293
253.85205
200.10462
204.82154
203.29186
212.51479
217.20934
242.14704
302.80876
271.25049
285.45761
281.29474
284.88508
276.63935
289.11879
407.02755
390.37368
411.68416
405.62226
411.49702
401.1112
396.4374
580.70745
575.73252
605.26645
598.41671
607.41931
587.11054
564.30533
804.92904
807.3551
837.99728
831.65497
837.33486
815.17727
790.91408
1061.7055
1070.0328
1098.8328
1094.6119
1097.6351
1075.8318
1051.8199
1337.5545
1346.0687
1371.0945
1368.2565
1368.0026
1343.1044
1323.665
1622.0332
1631.6587
1654.3489
1649.6262
1644.5383
1633.0075
1608.8303
1913.8275
1920.5952
1936.5141
1937.8624
1932.5554
1923.25
1905.1938
2211.593
2218.5232
2226.4944
2228.2689
2225.7076
2219.2717
2204.492
2519.3944
2523.1025
2530.5691
2533.4792
2529.7442
2524.75
2512.9275
2837.6387
2841.4129
2847.2111
2848.5103
2845.0575
2841.2917
2833.3531
3169.5317
3171.7006
3176.1394
3176.6239
3174.6184
3172.298
3165.5066
3512.3586
3516.136
3518.9474
3518.5187
3516.6631
3514.5889
3510.4564
3872.6462
3873.5903
3878.434
3877.0718
3875.1661
3873.1645
3869.678
4246.0974
4249.6244
4252.1267
4250.5601
4248.7491
4245.2947
4242.4203
4637.65
4639.0632
4638.8203
4642.124
4638.5624
4637.3108
4631.9135
5044.4394
5044.4739
5046.0956
5047.7043
5046.9597
5042.7034
5036.7522
5470.9807
5467.2549
5467.7879
5463.9232
5466.5489
5466.8717
5460.0492
5908.5883
5908.1882
5910.1809
5902.0689
5905.6007
5906.1082
5904.2186
6365.9045
6367.615
6366.6228
6365.201
6364.8139
6368.8227
6360.0652
6840.5624
6846.6082
6842.4654
6841.8832
6843.9962
6842.87
6840.1112
7340.3266
7344.7096
7338.5138
7338.5422
7337.6271
7339.3184
7339.3407
7860.2441
7863.3292
7856.2089
7856.6701
7857.2612
7861.7852
7858.9931
8407.8374
8409.1401
8398.1663
8398.0215
8399.1556
8404.6356
8404.5491
8985.4213
8982.8844
8968.155
8965.4267
8968.8507
8982.018
8979.6518
9599.4684
9591.3028
9568.8678
9565.0617
9570.1457
9583.4119
9581.9646
10241.996
10224.582
10195.521
10188.09
10195.468
10221.886
10220.246
10902.271
10875.242
10836.269
10821.885
10835.114
10872.151
10874.417
11538.312
11503.74
11451.696
11438.892
11455.212
11510.196
11514.857
12113.059
12070.173
12009.912
11995.833
12012.562
12091.369
12097.343
12580.418
12536.496
12465.262
12451.783
12471.621
12568.369
12579.969
12976.19
12899.236
12842.828
12820.094
12839.582
12944.865
12963.028
13283.574
13197.76
13156.22
13131.374
13145.566
13249.395
13284.279
13642.951
13583.288
13559.482
13531.793
13533.359
13603.806
13652.907
14051.869
13993.147
13990.68
13968.579
13970.437
14000.48
14085.511
14695.384
14686.376
14733.005
14706.007
14708.477
14651.144
14748.186
15412.044
15405.82
15465.301
15451.903
15461.988
15347.179
15489.931
16432.32
16477.761