/*--------------------------------*- C++ -*----------------------------------*\
  =========                 |
  \\      /  F ield         | OpenFOAM: The Open Source CFD Toolbox
   \\    /   O peration     | Website:  https://openfoam.org
    \\  /    A nd           | Version:  6
     \\/     M anipulation  |
\*---------------------------------------------------------------------------*/
FoamFile
{
    version     2.0;
    format      ascii;
    class       pointScalarField;
    location    "1.81";
    object      E;
}
// * * * * * * * * * * * * * * * * * * * * * * * * * * * * * * * * * * * * * //

dimensions      [1 -1 -2 0 0 0 0];

internalField   nonuniform List<scalar> 
28033
(
1209.0995
110.95448
30020.7
29027.726
1562.8794
5144.2853
30057.168
30606.47
9.4677126
-292.66845
-519.67885
291.61247
-192.59237
140.34214
53.824099
165.35518
-14.199372
46.554787
-398.46823
-63.677397
-178.00888
-284.49508
-1144.2309
31806.903
30720.052
30621.091
30033.303
29381.36
29457.417
28250.219
28809.63
28555.706
28264.649
28957.043
28696.921
29252.062
29910.89
30807.268
1381.0791
565.23093
90.473237
-82.341656
122.45679
90.267321
151.66576
-68.479542
255.35462
-75.744292
251.67721
157.63152
172.94264
95.960198
-39.874401
-240.05829
-524.78696
-371.60561
-590.96434
-550.80984
-508.59019
-539.94938
-403.23995
-229.67009
-452.19435
-200.65238
-462.57221
-290.98246
-672.51511
-597.86439
-599.39854
-941.77108
-1147.051
-1099.7942
-1207.3288
-915.56682
-1369.1389
-1122.3733
-1325.5184
-1497.5556
-1662.6127
-1741.3243
-1870.6562
-1835.3164
-1740.9729
-1432.9991
-1250.0604
-693.66145
-434.68447
157.29287
445.15936
940.66801
1215.1881
1585.5161
1855.3613
2180.6657
2472.0557
2819.7069
3157.3589
3540.7463
3902.1313
4309.5846
4630.6655
5108.9149
5476.8797
5892.0911
6367.599
6840.9085
7464.2706
8318.8738
8953.0657
9829.2132
10584.367
11552.8
12430.427
13382.507
14276.407
15334.624
16158.658
17153.582
18163.47
19052.789
20167.378
20753.032
21932.278
22556.679
23705.136
24277.276
25539.157
25892.505
27421.796
27477.98
29254.611
29437.244
30359.338
8167.9452
-3823.2362
5299.6012
-996.43013
2397.6858
1585.2341
1125.1688
1116.4951
1638.8887
933.66028
1891.3382
1352.3045
2299.5251
1878.7465
2313.0373
2087.7413
2221.3905
1952.1031
1915.7802
1936.1205
1497.0186
1864.3909
1302.9015
2360.2256
1657.4573
2533.8263
1793.4344
2264.0156
1576.4124
1733.5505
926.5381
899.0687
411.37481
255.82487
3.8960309
118.86117
-0.094227867
45.820529
-74.510907
302.43149
224.77339
481.92832
520.19517
798.19786
867.63149
1228.5432
1414.19
1830.6525
2140.6986
2559.634
2895.4983
3256.0002
3484.6637
3735.772
3827.6127
3947.1159
3995.3764
4074.2711
4175.7437
4371.0056
4615.2745
4986.4809
5428.9352
5956.9127
6553.1534
7171.5103
7885.5811
8629.6624
9496.3512
10107.907
11058.109
11739.214
12879.8
13573.942
14658.831
15505.236
16375.05
17331.328
18070.908
18928.793
19709.525
20393.27
21251.798
21928.859
22798.002
23548.31
24457.517
25242.414
26168.224
26972.503
27822.639
28556.277
29260.497
29825.515
30160.28
380.41821
159.91412
-534.55567
666.282
-144.69047
180.88084
202.60648
46.878519
102.42018
-56.584487
-56.901381
-260.33241
-553.47236
-1193.735
-212.00472
5922.8097
10990.103
-10594.927
4610.6761
-432.62749
-727.38917
1292.4321
911.54392
1608.7102
2083.1927
1736.9681
992.50735
2764.425
208.9158
2740.618
214.79669
3747.1155
-609.18403
3350.0161
-64.04517
2102.6434
2827.2309
1345.1813
3330.8996
848.75847
3027.37
2003.3654
1816.7098
2405.8742
32.404822
267.99537
156.65733
-67.450263
317.84766
546.98583
2224.372
465.70657
1917.2059
1783.6049
1883.9604
1892.6607
1799.4955
1758.2644
1732.2156
1904.0789
2111.9186
2500.7735
2900.6174
3344.282
3696.2146
3964.5063
4082.534
4101.002
3997.8079
3918.234
3852.6639
3915.2684
4146.8896
4523.4985
5106.1939
5748.857
6523.1827
7239.168
7960.3824
8593.4861
9157.3358
9724.4751
9971.0503
10677.248
11224.158
11930.453
12471.238
13282.332
14076.547
14852.993
15612.39
16340.805
17049.337
17670.057
18370.841
19015.663
19802.876
20543.71
21461.41
22276.784
23243.305
24046.115
24925.474
25604.958
26310.011
26849.694
27393.003
27952.865
28335.451
29553.871
30972.248
30958.265
29477.344
29119.545
28990.042
28255.467
28303.988
27822.961
29544.458
27556.216
29419.794
27847.812
31433.556
28876.176
31906.073
31119.107
28789.029
29268.002
27879.771
27296.229
26306.614
25482.608
24591.501
23659.056
22818.207
21887.959
21066.212
20293.936
19376.952
18628.165
17803.753
16996.263
16175.121
15321.935
14460.601
13598.957
12721.097
11900.64
10993.53
10460.071
9426.6482
8875.189
7236.2297
7830.4859
6786.176
6344.8709
5700.228
5141.3606
4628.9702
4160.6993
3775.0996
3450.5443
3208.5552
3008.1266
2862.5232
2702.9778
2562.2593
2353.5196
2141.4946
1847.3208
1562.2582
1223.7463
924.82541
623.67576
398.89624
151.20522
80.928594
-122.1586
-153.44193
-322.95161
-272.82373
-890.13164
-316.84143
-942.08575
-1085.2701
-221.84427
-970.41924
-627.3087
-635.15942
-13.867485
244.06875
-102.97486
434.20474
-20.11656
673.49048
737.88042
447.22457
-512.04503
890.64967
-133.89393
-190.12059
394.58888
-85.437402
855.5949
416.40927
364.32095
-72.680179
1340.6846
-655.12906
1913.2732
14.203469
-331.00916
-248.43693
1035.386
32.538776
-802.68437
940.85221
2436.7844
-2660.1636
6003.3357
243.65917
1089.6956
429.16321
1014.5342
269.52198
1130.0595
-11.195417
1056.6746
523.28163
847.05474
401.58321
363.85673
222.30751
478.63299
-1295.1591
-1445.944
-973.34289
-2503.0355
-1176.1754
-1370.5899
-2645.8652
-1537.0906
-1156.7718
-2235.2571
-1116.8593
-1255.119
-1522.6761
-1581.4416
-2124.5721
-2432.4116
29938.589
29901.712
29921.579
29777.716
29730.877
29652.552
29606.388
29568.73
29602.934
29618.554
29721.798
29694.21
29835.414
29491.015
30456.73
30955.539
30475.492
30737.281
30372.297
30548.515
30434.713
30419.882
30387.027
30423.391
30411.532
30541.697
30463.637
30585.184
30451.12
31016.563
3383.3862
-664.42464
100.881
-15.681671
-184.91219
170.38685
-78.335158
294.52507
-142.84167
484.20709
-475.37267
151.40415
-791.27919
-35.478798
-1072.3442
-202.62381
-544.75283
-142.64684
-301.90845
36.657837
-64.839479
-149.51676
-131.70027
-707.46603
-700.46064
-1161.2384
-1204.7379
-1545.011
-1294.1438
-1198.7363
-1009.2288
-599.19679
-4.6460072
315.96194
832.71641
789.34905
1082.1531
1019.38
1214.0753
1109.2745
1366.8157
1298.7997
1452.7453
1628.3685
1522.771
1587.5707
1423.6337
1309.299
1057.5581
901.33357
709.98477
700.16104
790.59385
1102.2863
1581.0193
2240.6388
3017.4654
3865.9649
4719.4563
5525.4704
6234.0628
6861.2112
7321.3086
7770.0754
8021.8575
8331.9034
8821.9374
8971.1058
9498.6946
9485.273
9987.8588
10321.205
10817.024
11326.575
11874.826
12525.279
13278.507
14060.841
15058.31
15997.468
17202.203
18271.998
19466.025
20551.641
21539.604
22689.597
23549.812
24459.816
25314.692
25952.792
27029.598
27443.181
28919.078
29239.458
30835.61
2606.628
-897.76295
452.56579
-666.06406
401.22555
-143.81071
314.52277
70.602322
213.94824
23.68053
83.297153
-55.434578
-135.50744
-261.1785
-283.4336
-79.908482
-552.8963
-115.55674
-278.14903
-64.535132
-238.58095
-114.19512
-383.69889
-308.18049
-530.52336
-599.27029
-744.57468
-758.73242
-794.30148
-761.36737
-613.62578
-391.25419
-412.76018
-311.67564
-114.66773
-63.467099
186.20759
353.95358
315.63807
283.65208
317.70027
358.14937
498.56077
438.09325
507.02797
650.8552
703.98373
796.27202
897.7902
972.55669
1080.7366
1232.1128
1421.852
1696.6439
2035.3303
2463.8218
2937.0124
3472.3933
4018.7279
4558.2389
5080.5437
5567.117
6006.7271
6420.6422
6873.8086
7292.5818
7533.9936
8555.8899
8846.6754
9392.5116
10094.515
10614.651
11188.686
11846.117
12531.696
13294.566
14112.58
14975.408
15958.557
16817.449
17995.135
18771.024
20026.295
20569.585
22305.647
23114.275
24262.093
24812.754
26092.25
26430.09
27807.023
27998.954
29652.02
28995.715
31778.245
2150.0352
-907.18851
576.98308
-475.14036
162.53874
-169.22054
44.335396
243.12445
192.63539
357.75169
94.152845
335.3247
-77.986881
220.84836
-131.27529
7.2722529
-13.230463
202.09144
27.234188
242.57213
194.49053
291.25749
250.76466
194.54494
75.480719
-41.631204
-50.981505
-218.73885
-82.564865
-127.5922
77.066389
3.5371511
354.11009
432.23708
643.28215
698.10491
609.93934
345.83668
508.06878
454.71219
612.57151
608.76446
548.21334
756.36283
928.19511
1017.9643
1115.4852
1206.5835
1283.2903
1316.7521
1441.2776
1539.7689
1758.3649
2021.5105
2402.0082
2839.0156
3358.5052
3907.0499
4468.8975
5011.7225
5527.5116
6006.8128
6406.3141
6842.2533
7179.7622
7514.5341
8049.9962
8320.0346
9067.5026
9350.8823
9984.6746
10406.061
11170.283
11843.855
12598.254
13351.934
14172.265
15090.986
15955.264
16930.883
17940.25
18890.784
19810.069
21164.379
21918.504
22466.585
23206.945
24196.698
24977.438
25632.174
26768.843
27008.851
28565.164
28248.991
32049.943
1148.4936
-131.70592
128.30245
3.9410092
94.849579
-24.815587
193.01526
104.13622
12.824799
22.192294
40.21462
-61.375515
-217.78517
-45.98745
-468.23383
-41.174935
-563.5591
-146.13708
-509.65058
-61.688851
-479.63118
-136.57012
-548.62307
-314.47587
-625.54666
-484.80854
-754.88198
-604.92171
-765.42377
-643.24685
-683.33914
-488.266
-400.68766
-397.94607
-177.99077
-243.81815
-30.724897
573.87255
502.46044
499.55962
471.54496
572.38672
647.3982
707.40641
714.07193
800.14997
930.23235
1061.5973
1216.6034
1386.0103
1587.039
1779.4129
2030.4318
2283.0278
2588.5957
2921.4937
3295.8422
3691.4722
4122.6924
4552.6353
5002.7017
5435.8796
5847.6675
6300.3523
6703.5629
7115.4608
7576.0909
7971.1276
8625.968
8824.1209
9731.2495
10308.139
10732.616
11244.406
12044.664
12796.37
13630.864
14443.871
15379.941
16253.665
17267.776
18108.893
19350.641
19996.801
21280.322
22018.523
23604.019
24088.931
25482.084
25807.319
27373.607
27241.72
29527.538
28129.494
32991.808
1178.5948
-590.15516
410.23585
-513.49248
216.31015
-285.72456
230.68184
-103.09984
219.9612
147.29684
114.38792
42.240765
34.033682
-48.910767
-117.98511
-48.29422
-166.73405
84.954371
-138.97051
137.21551
-110.10898
225.51744
-81.351185
204.15059
-115.50088
-9.8323484
-125.10674
-155.89194
-155.23461
-125.80847
-14.855586
32.26894
133.25906
245.91914
335.47064
321.46184
534.83567
-90.299527
-138.37543
-182.43925
114.72805
16.433325
134.70481
275.8946
440.81885
596.58843
767.11282
881.99699
1049.666
1189.2251
1377.1157
1550.4617
1815.7906
2059.1117
2398.2694
2736.045
3129.7015
3527.4068
3947.0184
4362.7836
4770.388
5179.238
5576.5192
6028.1147
6315.5979
6906.5898
7315.4287
7618.0643
8304.1536
8832.9161
9641.3743
10065.785
11111.314
12388.325
13013.843
13856.611
14609.391
15529.903
16398.56
17318.387
18287.047
19245.949
20143.734
21235.272
22033.193
23032.065
23594.916
24467.127
25184.637
25872.32
26852.076
27294.826
29015.924
27973.852
33431.612
625.79325
-221.17303
325.92593
22.099809
95.363909
72.561242
19.519083
39.920547
31.942148
-26.417985
-43.835142
-6.5359108
-203.58591
-48.29073
-339.18109
-127.86809
-434.28008
-149.68302
-469.74386
-52.767822
-411.69909
-24.541712
-420.02948
-72.933631
-526.28102
-116.10631
-581.99464
-254.0834
-511.03557
-310.52336
-427.3744
-328.39987
-272.61159
-237.25319
-191.26362
-97.374432
-61.397274
284.74885
199.42276
486.0725
354.79178
544.06284
485.50305
663.20828
731.43584
851.96966
927.77831
1081.8197
1210.6259
1382.0791
1564.7967
1786.6411
2028.7344
2314.7498
2622.0838
2967.023
3322.9436
3694.8151
4087.0039
4459.1068
4828.8057
5258.639
5595.371
5945.7781
6507.8692
6753.5136
7285.135
7762.479
8341.066
8816.9071
9410.9731
10064.903
10769.93
10879.932
11514.087
12288.411
13151.172
14007.348
14918.176
15815.777
16826.419
17627.717
18829.022
19460.304
20762.173
21364.083
22783.751
23356.019
24843.698
25226.985
26975.425
26902.106
29220.335
28068.349
33734.448
457.84956
-523.58022
489.4433
-497.77159
197.88014
-296.86914
135.8925
-197.07305
151.3984
-117.08343
95.183717
-206.97716
-66.862375
-289.61554
-278.9547
-316.43694
-359.68181
-276.11615
-384.95875
-141.27975
-401.38243
-26.373554
-409.63806
-72.281643
-365.18697
-212.10711
-451.20275
-284.7915
-501.51104
-324.44378
-417.75019
-230.73313
-217.74551
-155.31961
-69.809948
-19.048986
-136.81287
-77.929566
-216.25216
5.5047035
-177.69293
-31.894557
-16.324457
125.88173
267.396
410.40536
661.34632
811.92582
1054.7093
1210.4927
1457.7426
1626.8882
1901.4908
2130.1562
2455.8385
2762.6813
3150.873
3525.8044
3952.4561
4335.7638
4811.3306
5171.3074
5588.5805
6096.3048
6402.4812
6960.8361
7409.5671
7953.8416
8505.3026
9069.9317
9903.956
10340.769
11279.9
12045.139
13043.84
13881.737
14767.637
15583.879
16534.75
17409.679
18357.687
19356.633
20215.934
21276.684
22100.839
23060.172
23801.248
24650.95
25390.418
26002.873
26941.984
27196.299
29268.288
27948.382
34102.914
369.98135
-184.25277
382.8483
9.9829942
198.07262
35.67957
101.05996
-26.168902
114.71593
-29.431696
26.186263
17.160857
-23.978159
-29.481947
-71.665812
-73.654895
-139.81714
-69.270294
-146.67293
-23.993077
-240.12165
-53.685027
-318.4452
102.81542
-430.67469
42.538333
-390.52203
-70.546964
-373.15882
-123.5625
-325.68307
-152.2113
-285.78722
-157.79178
-125.7109
-230.29454
4.9601829
-127.72379
-7.0436384
24.525937
-9.3440205
103.35751
167.76059
263.14024
306.47959
482.71673
567.36212
748.66579
889.70373
1088.0967
1255.1206
1471.492
1685.9628
1922.2451
2190.2504
2474.0574
2794.4574
3122.2149
3475.6169
3861.4861
4218.3435
4601.9013
5045.0712
5365.5105
5845.0709
6243.7
6723.1356
7202.7784
7749.3815
8349.5348
8876.9349
9596.9515
10330.247
10821.264
11403.437
12117.033
12958.643
13777.67
14700.409
15514.005
16546.726
17277.146
18419.645
19080.303
20277.498
20934.448
22194.089
22850.224
24167.982
24816.785
26424.484
26877.728
29035.602
28191.413
33804.202
201.19244
-695.22779
321.69886
-589.53724
-77.572971
-565.19877
-108.85114
-499.06518
-91.252154
-474.43465
-177.20865
-535.84115
-440.32941
-721.1429
-702.4906
-890.33539
-838.54081
-939.35745
-882.9304
-805.19072
-781.28842
-446.7105
-518.05745
-469.70937
-619.56019
-435.00082
-777.18869
-562.99258
-846.67905
-641.92687
-803.03693
-614.41919
-659.15719
-454.27694
-646.61054
-318.53565
-588.73892
-413.27924
-569.73033
-550.71111
-562.15512
-567.1912
-459.55603
-423.43681
-176.28441
-47.460643
223.80649
396.72987
675.37906
854.29229
1118.989
1311.4659
1577.3992
1807.9098
2117.8203
2413.4003
2784.6965
3132.3581
3570.9878
3937.1697
4367.9806
4797.0329
5162.8374
5622.0643
6033.2707
6516.6802
6973.746
7525.2152
8112.9254
8704.4862
9456.3761
10144.238
10961.076
11781.368
13021.525
13749.587
14679.587
15545.496
16428.061
17376.007
18224.971
19264.382
20083.292
21145.857
21966.155
22958.915
23744.554
24663.015
25397.605
26227.607
27005.272
27477.996
29140.987
28269.766
33689.415
728.67049
-318.7315
747.27495
-174.56179
411.86668
64.238649
360.61873
70.981544
291.41297
258.14185
276.31001
283.43051
335.21687
256.23986
341.53799
192.5229
312.44348
145.23703
326.85677
198.9268
204.08252
83.478853
-130.63727
83.376269
-94.286004
69.264199
-176.44125
86.308531
-219.88449
41.649646
-218.7088
-13.654045
-124.53771
-120.56983
36.436975
-83.903201
25.31327
22.791195
10.000111
123.55049
95.689859
224.53928
225.53056
409.71222
420.03229
627.63763
712.7516
921.14279
1055.5926
1266.382
1430.2649
1641.9385
1847.2559
2083.1373
2333.0399
2618.7374
2915.9533
3256.0588
3605.4184
3962.5792
4374.7591
4740.0904
5158.9419
5574.7129
6015.7094
6425.6037
6941.7734
7447.1122
7984.8031
8572.7814
9176.2583
9822.2028
10482.695
11145.058
11954.57
12414.113
13463.187
14100.871
15160.596
15897.947
16998.003
17730.474
18864.667
19566.531
20711.07
21357.467
22554.295
23136.014
24408.176
24995.006
26328.72
27059.83
28693.319
28815.829
33577.039
412.20827
-660.23198
118.57707
-879.93037
-177.69168
-732.1247
-373.65064
-675.04238
-320.75116
-587.73048
-536.38135
-682.92132
-705.03507
-953.07116
-835.23897
-1198.5951
-818.5337
-1276.8616
-798.38331
-1189.1187
-690.31973
-1354.6644
-911.16867
-898.13268
-1013.302
-1073.612
-1195.2637
-1285.8784
-1489.509
-1455.7054
-1645.5649
-1450.9211
-1675.4155
-1283.0943
-1567.0361
-1258.8171
-1361.9839
-1239.9071
-1227.6012
-1242.2603
-1152.0803
-1192.673
-1017.9711
-979.76406
-750.42532
-611.68994
-350.50487
-193.94766
63.932657
219.06886
430.29713
577.60126
779.67109
944.23379
1186.5894
1429.5305
1753.9609
2097.2233
2507.7503
2939.1643
3399.4262
3878.4076
4350.9925
4874.7197
5337.2121
5917.1547
6445.3657
7023.1918
7626.2562
8292.6217
9000.0125
9725.2329
10481.63
11443.628
12238.438
13268.557
13944.923
14942.315
15739.585
16700.346
17600.06
18587.987
19528.879
20554.527
21495.411
22547.324
23449.243
24496.992
25362.71
26343.749
27283.152
28005.577
29299.331
29386.518
32598.346
1032.5304
-904.77143
71.255929
-386.13274
169.60255
-77.910615
327.63859
157.60639
404.48199
427.07495
403.04463
404.71354
531.69402
286.9165
396.08595
335.2647
345.66517
285.46342
440.41525
332.2209
405.74329
589.85682
496.14572
295.70092
305.79188
340.68669
246.78025
373.8651
287.45786
434.08776
428.42175
472.09682
616.71949
627.50916
758.23932
887.04767
831.09519
966.39354
812.19102
943.59313
762.14743
901.54077
760.04895
926.30743
887.07726
1076.1554
1164.442
1378.0583
1552.5226
1790.9425
2004.0047
2266.7995
2521.4334
2813.102
3120.8795
3468.4432
3827.8353
4222.2582
4628.711
5032.1821
5445.485
5843.6605
6222.4067
6600.8336
6964.3764
7339.348
7725.5774
8160.2538
8646.5374
9180.5616
9731.6011
10314.52
11094.114
11564.124
12418.878
13133.561
13889.157
14768.466
15638.403
16516.046
17472.626
18323.84
19263.335
20092.229
20992.18
21744.939
22616.694
23300.533
24150.728
24897.649
25800.645
26737.672
28280.816
28925.816
32661.345
1233.3378
-777.70617
190.88859
-539.17795
-457.60502
-784.87268
-513.83111
-948.46701
-657.04784
-932.0141
-917.71087
-938.65275
-1225.5822
-1201.8324
-1377.411
-1517.2701
-1480.7138
-1706.9567
-1424.2624
-1749.5912
-1393.4054
-1718.0648
-1437.8979
-1736.7877
-1429.5856
-1921.3222
-1857.2816
-2225.0283
-2373.6356
-2454.3081
-2705.3183
-2518.812
-2734.9641
-2436.0396
-2513.735
-2298.7616
-2225.9232
-2127.6615
-1961.0213
-1978.0695
-1781.4826
-1772.2006
-1580.3414
-1470.22
-1266.4954
-1107.6597
-881.32882
-748.87202
-559.10594
-467.91731
-348.87008
-285.64105
-181.9433
-88.117725
89.739881
305.74308
618.58807
1002.8355
1459.4807
1978.0719
2531.7804
3121.9379
3687.8324
4325.397
4852.9584
5521.6688
6033.9691
6697.1483
7295.7956
7949.9288
8562.8594
9395.3968
9892.5052
10850.697
11440.117
12379.211
13052.225
13912.493
14688.47
15637.525
16514.25
17535.673
18527.137
19642.049
20670.036
21849.048
22883.383
24065.873
25117.344
26240.405
27331.455
28341.677
29419.917
30023.75
31811.272
1773.4294
-1465.8732
32.525065
-1056.2007
-45.599221
-337.16805
19.493237
61.479993
333.93278
349.54919
485.82672
347.01353
526.669
352.69926
345.89668
261.52663
274.90668
78.627289
525.98935
170.05751
722.16824
506.35815
621.04559
529.43891
461.98406
390.5877
379.9084
145.32299
111.20837
-137.28241
-78.122105
-174.93542
-49.325167
112.67899
75.402002
352.40036
328.78606
569.62088
427.38924
629.40659
466.92396
600.8917
504.74839
647.00592
673.58042
874.60903
1025.785
1265.7305
1475.0048
1711.4163
1904.8019
2104.5389
2279.7656
2467.5783
2670.0344
2920.4677
3214.8382
3567.7993
3979.8074
4430.3611
4907.0324
5404.2889
5895.7442
6376.331
6847.861
7356.401
7814.0745
8394.7305
8854.8081
9410.489
10113.389
10638.788
11476.615
12090.266
12895.593
13599.335
14440.192
15206.895
16063.661
16890.607
17770.468
18650.606
19589.795
20464.57
21435.878
22275.825
23219.634
23991.733
24853.956
25587.533
26348.834
27137.063
27998.975
29163.265
30976.452
3320.2816
-2864.0041
90.149599
-1537.2168
-247.43884
-1025.1135
-437.39594
-613.44219
-741.62731
-807.54646
-1506.4576
-1433.4992
-1883.0189
-1977.9699
-1907.1296
-2044.221
-1606.8832
-1933.9602
-1221.4777
-1914.3871
-1124.7697
-2296.259
-1706.3219
-2862.4646
-2514.372
-3049.1335
-2824.7585
-2779.2953
-2427.7346
-1884.3857
-1573.8565
-873.84131
-550.0148
-120.64672
-108.0112
213.06628
216.57991
186.54868
228.36351
99.85703
140.55371
84.518747
127.24581
96.89002
90.139014
-12.684834
-96.26598
-260.58042
-350.24661
-421.10727
-355.61601
-154.64892
239.46585
778.07331
1503.4624
2312.0038
3174.6136
4035.5887
4821.2656
5500.9853
6061.4428
6505.2119
6815.62
7090.4754
7287.0953
7514.5717
7605.9277
7922.9008
8020.7618
8571.9016
8702.2516
9314.4865
9572.0209
10294.038
10807.687
11693.563
12504.157
13547.038
14662.851
15880.103
17071.864
18391.137
19488.642
20735.594
21675.11
22752.405
23543.653
24490.934
25269.376
26174.849
27106.54
28187.362
29166.186
30585.641
31304.074
-1012.499
-372.26946
-1126.1569
-1263.7772
-1348.3057
-1196.5528
-1272.7786
-1123.7536
-1258.0688
-571.9793
-1111.0535
-972.00415
-546.38095
-614.27306
-1482.5577
185.37241
110.39303
-187.42802
82.902801
-285.71359
-198.11992
-329.80877
-378.94806
-116.5092
-336.35191
-303.8562
13.744944
-251.93574
84.85902
-709.7597
-117.64869
-577.86751
-983.91308
-821.15874
-1033.2185
-1080.0578
-987.40333
-1151.957
-1095.3218
-1058.3555
-945.32797
-1134.6576
-1061.3501
-733.11501
-1084.6036
-23.865685
86.259793
-37.208069
-231.94986
-157.53975
-238.1416
-232.11385
-282.55058
-141.18173
-243.66767
-123.5043
-177.80468
-50.016904
214.18236
-826.31411
-142.99598
-240.72846
-505.88965
-502.59025
-658.22088
-611.20412
-685.08261
-638.31855
-737.75931
-706.50088
-684.31568
-640.89267
-562.64561
-566.13553
-430.92078
238.59654
106.64627
-18.681369
35.676502
-32.123974
-12.131643
-84.644416
-42.882702
-45.562078
-41.801226
-14.896155
-65.047458
-39.88005
-25.446588
-111.70266
-63.601448
-123.8873
-226.52058
-278.21435
-295.25212
-334.34671
-333.68054
-375.54861
-376.06833
-345.5246
-357.31245
-264.65651
-244.2953
-97.072859
-176.88284
98.991965
49.255874
-29.58185
-11.95286
-61.275614
-53.26509
-78.441196
-72.678992
-58.092739
-86.556869
-67.127489
-64.055367
-93.354592
-66.784623
-143.182
-263.06826
-208.26096
-379.56499
-344.37305
-396.14928
-410.34631
-413.44611
-384.12753
-412.35817
-317.45951
-350.6484
-271.85427
-288.44521
-118.75516
-205.49288
136.82573
32.35831
-55.94924
-46.193612
-108.53415
-109.14938
-95.988419
-116.07264
-108.0509
-160.83957
-74.504892
-158.44566
-132.85029
-32.817134
-280.14532
-638.54825
-557.50806
-714.48466
-718.05048
-773.34455
-663.74684
-748.12422
-644.6211
-712.97269
-533.63572
-582.67221
-589.46675
-468.15212
-291.17161
-492.39881
-511.06875
-555.52996
-580.58856
-820.94998
-715.30019
-901.80601
-826.61642
-902.11845
-853.13108
-817.67369
-782.96586
-687.33231
-655.02238
-508.80582
-641.28239
-1181.7564
-483.86613
-1206.6583
-1063.5017
-1198.8251
-1120.9937
-1311.9683
-1115.9864
-1053.7737
-993.83895
-930.788
-1080.7178
-954.48703
-644.61081
-615.77122
-525.87423
-970.70395
-1126.5198
-1291.8939
-1407.2976
-1492.4572
-1233.8096
-1165.3092
-1177.2196
-1521.0796
-1361.6785
-1506.7449
-1537.4456
-1370.6351
-1804.0773
-1753.346
-1945.2848
-2536.2191
-2676.2531
-2898.549
-2664.9477
-2639.5238
-2467.8476
-2746.3285
-2752.4099
-2880.8024
-2737.9653
-2390.5929
-1679.5089
-1869.7122
3746.5913
8401.6486
4805.0571
6675.0807
7623.7873
6474.921
7407.6856
8530.6173
6358.0388
7328.0018
7359.7707
7162.3506
7092.3656
7725.3027
4180.9138
7084.0202
2086.9936
4497.0836
4793.2656
3486.9802
6076.46
5554.8779
5358.4444
6245.5797
3775.3086
4493.8418
2861.2785
3618.6298
5328.0521
5140.8086
-208.30898
269.92768
-985.3421
-483.25285
2432.6228
-1020.4117
-1086.7886
-901.67218
-3231.0794
250.4408
-1191.512
2224.4791
-130.87968
-2151.4131
-41.765866
-525.40944
1080.5203
1096.1869
-1643.6762
-1333.2265
-455.2162
-1279.8371
-427.33024
-207.26118
-2062.3761
-530.1073
-1483.6767
75.221988
838.99511
-589.84815
2990.9996
1371.0412
-841.25844
2092.5213
271.07695
633.9106
1472.3701
767.66865
1235.6313
3277.1442
780.58474
1981.4369
-0.701655
809.8348
2790.3569
-1279.5834
-151.30219
-133.4742
-306.5853
-447.0322
-401.85765
-1117.6631
-1119.5357
-846.37
-2324.8811
-575.60149
-1465.9763
-715.40796
395.39559
-852.45926
579.12101
1030.4882
544.31134
-92.99602
-135.33204
299.72883
544.45206
377.48035
546.99003
859.57479
-120.73834
646.64263
228.03976
-12.034907
1597.2309
640.795
-66.562127
311.805
918.86347
926.01905
425.51515
455.15222
672.34924
-23.54775
865.30815
757.04045
705.40103
770.49495
346.90151
1925.4816
590.09263
1481.8035
1036.2632
1383.8268
347.67591
994.9076
666.35667
1019.7066
945.65932
848.82025
808.64296
475.51154
827.82728
976.22555
786.87616
1686.9909
546.97626
1041.561
913.02996
1201.684
829.69008
1078.105
862.33443
288.30134
1608.8369
407.20296
1745.235
985.77255
1219.0236
2334.6474
1487.2677
2029.8586
1662.0839
2177.0388
1532.2292
2068.6047
1583.5579
1767.2827
2158.2077
1362.406
2399.0936
1716.9354
1971.9892
2236.2007
2685.4245
2722.0514
1427.5615
1842.0356
1672.752
1806.786
1667.3976
1634.9386
1342.4478
746.89353
1391.7242
591.61781
1024.1131
868.38694
780.81083
2200.3479
2261.04
2328.1946
1681.4662
2482.3756
1790.1728
2039.9837
1938.6103
1718.8914
2185.5896
2069.2444
2312.2629
2229.2273
2389.1158
2684.3547
3048.0146
2660.6169
2004.3308
2313.8642
1630.5732
1920.881
2287.8141
2083.0652
1490.9408
934.01578
997.35451
355.31879
713.44408
437.59371
133.1385
2095.8312
2550.9582
1753.2689
1560.8589
2587.2554
2332.1065
1829.2512
1444.7877
1899.0606
1995.9223
2187.6123
2708.3225
2522.5133
2756.6629
3147.3619
3526.4591
2179.3491
2027.3876
2197.3864
2028.5871
1140.3536
2091.0797
1869.443
1397.5327
951.55005
926.50325
-79.68472
258.01613
78.483421
-167.22432
1587.3939
1850.7781
1032.9476
1113.7598
1569.1454
1937.1714
1692.7446
1359.6054
1098.2719
1700.1878
1556.0647
2270.5365
2194.4904
2066.5323
1785.0965
3596.5439
1632.7461
1612.0329
1256.4751
1508.3872
917.976
1441.8705
1095.64
1531.94
962.88419
1106.2388
214.46849
142.08465
-87.524092
134.43765
474.37102
1820.0259
1333.0993
1718.2195
1472.9103
1607.6767
1111.8991
1881.21
1033.8836
1300.1086
1233.966
1122.5872
1453.48
1836.3664
1446.3321
3352.7218
1276.0899
1083.9142
813.65966
1412.3077
1111.4375
1652.5598
1153.9508
1290.0251
1252.8195
1275.1439
1548.6674
1357.5834
965.8141
658.56508
1231.4097
2247.7627
1622.8031
2003.8219
1670.4148
1649.4015
1439.2613
1758.7396
1634.4243
1519.0286
1097.0331
999.32615
964.53651
2003.9218
1391.5137
2915.1853
1734.9239
1995.6129
1462.6551
2186.6024
1535.1087
2465.7838
1462.8265
2025.1213
1102.2948
2666.5212
1897.9132
2254.2108
1341.7869
611.95047
3406.2952
3240.2545
1736.3737
2378.4919
1844.439
2133.7006
1899.6373
2081.6636
1615.9998
2078.4401
1573.9101
1117.9685
1134.6152
1276.5297
1437.9949
3276.738
2555.3771
2841.7946
2101.3657
2598.2727
2017.2026
1845.6924
1548.2795
1706.5059
1711.6113
1681.2621
1906.754
2427.285
2557.9571
1870.1753
5187.5528
4048.2257
2240.9643
2121.8907
1952.6567
2319.1423
1881.6352
2504.6128
2082.5136
2031.0728
1886.5709
2075.4503
2184.8309
1554.6001
1495.8913
4316.4723
3131.6398
2267.7448
2258.0525
2383.1183
1944.1531
2496.8038
1561.3375
1869.0805
1561.0767
1724.7821
1577.2847
1786.597
2816.9121
2793.7856
4633.9824
3384.4153
2416.3477
2487.3282
2092.3396
2379.7335
1791.8465
1898.8483
1918.6096
1695.2573
1890.9423
1795.412
850.6605
1537.2147
374.70497
4540.1224
2674.1571
1610.5832
1013.5208
2043.9492
998.30724
979.95442
1087.102
811.44387
1216.7867
926.15254
1344.0996
1750.8542
1442.4251
1927.704
3552.3711
2242.4591
1668.583
1145.5662
774.51825
807.83693
1005.6899
756.12079
775.76905
613.21016
706.90233
631.57377
1078.6377
795.86696
-104.54067
3730.0949
1312.5228
276.20432
460.53097
656.53521
336.04662
276.50625
199.02626
144.89814
-23.642814
-102.4397
-209.43512
-250.72941
747.4563
227.04312
1848.4716
1175.9917
934.78106
891.55566
485.82237
490.29937
-317.23108
86.549671
-260.64218
600.27625
107.50032
52.939447
-67.247268
-269.52957
-489.77849
1105.7432
727.41539
230.4375
-173.14509
35.040243
-197.70127
-21.942463
-262.20545
-33.800335
-535.12598
-325.77646
-616.21353
-251.04234
-462.3299
-316.03694
879.25823
173.63389
-160.39853
-120.67024
-60.798666
-64.986868
-267.8173
-100.56317
-428.20168
-185.3787
-403.27946
-133.95868
-355.81757
-331.68747
-291.84482
159.73568
-79.470402
-124.7229
-216.83595
24.319784
-272.02577
-87.285359
-372.65847
-63.633587
-402.29475
-88.022023
-471.19007
-132.57785
-386.84005
-304.83816
-3.7233528
-14.25359
-65.944418
19.120841
273.26336
6.6156561
-5.0539837
54.692729
11.738443
38.590781
58.350787
139.00876
198.19658
83.521659
396.74548
558.05096
-167.62795
153.74144
150.88538
-237.64177
31.792599
-46.489383
59.892778
-81.782688
281.71976
-277.44366
193.47573
-0.35042291
248.60992
-22.565587
755.71643
28.33822
9.4311636
424.48947
304.58127
534.23509
126.28622
440.53339
170.60566
320.34172
722.02737
387.1181
709.69034
277.34655
787.69622
712.73124
412.10301
1148.1065
760.16569
1111.0284
586.54651
911.65352
552.02181
816.10614
622.61071
578.27763
687.29294
585.98884
885.39238
816.57663
899.72459
1186.0132
947.99917
1060.5543
874.10602
1138.9029
738.17655
999.20567
763.71069
814.45358
912.53231
740.2866
1149.1794
838.93167
1011.4135
1387.9359
981.45576
1326.0275
934.24154
1363.7259
865.06759
1078.5106
803.69478
890.10796
886.1104
767.55663
941.43085
877.75242
839.26063
1098.4824
1362.209
1401.5789
1319.6666
1307.8629
1139.0249
1222.5399
953.81682
1013.7963
971.93952
862.79557
985.60381
847.41214
1013.7313
928.85181
1056.86
1439.9155
1268.4002
1507.1718
1006.4173
1346.0147
1012.0166
1032.8841
933.23368
854.83665
874.69109
813.38286
765.91579
966.8737
737.40348
968.90372
1530.3088
1525.8009
1408.8363
1283.495
1229.5436
1168.9154
1014.8119
981.98533
949.35354
895.37511
867.65928
863.15415
948.85593
776.59319
998.16907
1644.4561
1439.3886
1611.1777
1141.2252
1352.0389
1117.964
1053.9785
993.41581
947.5129
865.08624
913.21627
766.44636
983.70935
765.56589
949.51328
1908.3157
1800.5671
1663.3494
1431.3171
1469.9189
1345.2218
1203.9227
1215.4454
1110.156
1127.3003
1048.7413
1025.1238
1178.7365
981.72795
1139.0403
2378.046
1997.8914
1975.4817
1579.4956
1726.1596
1488.9879
1440.187
1356.1571
1357.3182
1232.3547
1304.3918
1176.357
1391.8799
1242.0845
1299.6219
3031.5193
2559.5685
2279.9075
1997.1395
2029.8507
1919.2082
1746.1419
1791.493
1655.0617
1671.4356
1646.8608
1568.4842
1788.0974
1675.2649
1653.3634
3833.9777
3067.039
2719.7958
2351.2712
2481.658
2193.6088
2114.5859
2020.493
2020.6348
1923.1979
1986.5128
1878.3571
2144.6469
2103.6074
1974.5669
4720.8907
3728.3945