/*--------------------------------*- C++ -*----------------------------------*\
  =========                 |
  \\      /  F ield         | OpenFOAM: The Open Source CFD Toolbox
   \\    /   O peration     | Website:  https://openfoam.org
    \\  /    A nd           | Version:  6
     \\/     M anipulation  |
\*---------------------------------------------------------------------------*/
FoamFile
{
    version     2.0;
    format      ascii;
    class       pointVectorField;
    location    "1.81";
    object      lm;
}
// * * * * * * * * * * * * * * * * * * * * * * * * * * * * * * * * * * * * * //

dimensions      [1 -2 -1 0 0 0 0];

internalField   nonuniform List<vector> 
28033
(
(-1.780536e-14 4.8656612e-16 1.3104288e-15)
(-5.4375576e-15 3.3318594e-15 9.9433006e-16)
(8321.141 1163.923 -14.693172)
(8330.4224 -1112.8956 27.135166)
(-1.338461e-14 3.0090723e-15 -2.870051e-16)
(-1.2587315e-14 4.9008913e-15 -4.4266115e-15)
(8315.5994 -1130.1063 17.874965)
(8296.067 1146.5695 -6.2184347)
(-5.6329745e-15 1.0535579e-15 6.7193838e-16)
(-2.4534443e-15 3.0423504e-16 5.8836893e-16)
(-5.4923298e-15 2.4302826e-15 8.9528572e-16)
(-2.6209443e-15 -1.1537891e-15 -6.7979696e-16)
(-7.2548563e-15 1.5542294e-15 1.0013199e-15)
(-4.7613589e-15 -9.2108094e-16 -7.3952737e-16)
(-1.132389e-15 -2.2256662e-17 -6.4484848e-16)
(-7.4239857e-16 -2.4218299e-16 -3.6669977e-16)
(-1.1196198e-15 4.5550132e-16 8.383863e-16)
(-2.3465882e-16 2.2667819e-16 1.4996246e-15)
(-4.0583243e-15 -8.7236639e-16 -1.3429605e-15)
(-5.8237189e-15 8.4462789e-16 7.5519031e-16)
(-5.1611762e-15 1.0100276e-15 9.7613867e-16)
(-1.7679952e-15 -8.1010255e-16 4.5192313e-16)
(-4.4158752e-15 1.0299569e-15 -9.452958e-16)
(8322.2508 1028.0675 -7.158093)
(8325.0189 891.01424 0.220637)
(8328.1123 751.53659 5.3773791)
(8331.4367 609.77918 9.3141944)
(8334.5176 465.46386 11.69862)
(8336.8624 319.45824 12.344942)
(8338.9163 171.78583 12.546473)
(8339.5877 23.711438 11.822175)
(8339.5271 -124.62345 10.91342)
(8338.7874 -271.66075 10.155127)
(8336.9269 -417.30124 10.194358)
(8335.1289 -560.70069 11.594837)
(8332.8337 -701.98852 13.5885)
(8330.8676 -840.43541 17.090244)
(8329.9459 -976.98835 21.949436)
(18.461939 21.499148 20.617713)
(35.789222 31.485994 21.544968)
(54.484055 39.243969 17.040398)
(74.475224 42.984483 11.629407)
(91.948555 46.399608 5.1764942)
(107.76222 47.614011 -1.162818)
(119.9489 48.749726 -5.8219808)
(128.65 49.176033 -9.5906418)
(133.12101 50.11783 -11.158101)
(133.57227 51.423491 -10.853099)
(130.0586 54.096384 -8.2784749)
(123.2006 58.122165 -4.1859115)
(113.49592 64.271585 1.9618987)
(101.91526 72.553994 9.1703992)
(89.448956 83.580715 17.608231)
(77.504119 97.040836 25.8755)
(66.730081 113.24437 34.53683)
(58.3037 131.66862 42.676099)
(53.59813 153.04297 49.704144)
(53.116173 176.05228 55.474044)
(57.598349 201.10758 59.965346)
(67.729992 227.41702 62.489446)
(83.403561 254.72713 63.828996)
(105.06442 282.81748 63.326714)
(132.26269 310.99995 61.524619)
(164.7799 339.25925 58.758822)
(202.12235 366.9907 55.463857)
(243.73962 394.49438 51.645751)
(288.891 421.04724 48.202617)
(336.83716 446.99861 45.448107)
(387.30808 472.51855 43.684322)
(439.10403 497.20744 43.287542)
(492.44869 521.44247 44.779665)
(546.91703 545.60843 47.514797)
(602.12482 569.67213 52.667176)
(658.72965 593.82141 59.436767)
(716.34939 618.1906 67.603719)
(775.90893 643.14338 77.200577)
(837.81595 668.51314 87.647794)
(902.6435 694.40061 98.382763)
(971.3313 720.71327 108.99497)
(1044.3707 747.41285 118.96103)
(1122.6134 774.35655 127.65692)
(1206.5972 801.25085 134.56866)
(1296.7508 827.89551 139.43616)
(1393.4311 854.00704 141.72801)
(1496.6299 879.29493 141.39638)
(1606.276 903.54128 138.30261)
(1721.9619 926.49167 132.56124)
(1843.179 948.00416 124.37227)
(1969.1565 967.94585 114.08487)
(2099.0633 986.30119 102.14271)
(2231.9163 1003.0887 89.072469)
(2366.751 1018.4309 75.448643)
(2502.5819 1032.4939 61.858811)
(2638.5329 1045.5146 48.875055)
(2773.8278 1057.7599 37.015302)
(2907.8797 1069.5293 26.72318)
(3040.2789 1081.1184 18.333137)
(3170.8557 1092.8163 12.071607)
(3299.6486 1104.8524 8.0173677)
(3426.9088 1117.4626 6.1501809)
(3553.0874 1130.7144 6.2696917)
(3678.878 1144.6741 8.0732933)
(3804.7814 1159.3608 11.374449)
(3931.9698 1174.5584 15.224631)
(4061.0475 1190.0497 19.700897)
(4192.7494 1205.5604 23.818644)
(4327.9376 1220.7481 27.571211)
(4467.0531 1235.1983 29.77973)
(4610.4856 1248.59 30.731787)
(4758.4831 1260.3744 29.837559)
(4910.8312 1270.2245 27.033217)
(5067.3342 1277.84 22.227159)
(5227.4093 1282.9601 15.563695)
(5390.3542 1285.4173 7.2455185)
(5555.267 1285.1491 -2.3458897)
(5721.2133 1282.2562 -12.829518)
(5887.006 1276.8437 -23.692782)
(6051.8979 1269.1344 -34.392321)
(6214.6138 1259.7196 -44.518679)
(6374.5342 1248.6984 -53.462444)
(6530.9873 1236.8036 -60.983681)
(6683.4325 1224.3874 -66.627051)
(6831.7185 1212.0749 -70.197745)
(6975.8628 1200.3616 -71.650892)
(7116.1557 1189.6007 -70.957927)
(7253.0889 1180.3343 -68.379535)
(7387.4408 1172.6217 -64.01446)
(7519.8174 1167.0012 -58.348091)
(7651.6159 1162.9438 -51.716156)
(7783.0881 1161.2142 -44.462482)
(7915.7207 1160.7461 -37.181204)
(8049.8719 1161.2278 -29.825654)
(8185.1071 1162.7875 -22.474548)
(18.318177 -31.649981 -34.661502)
(40.48118 -43.266786 -34.312197)
(64.493491 -53.057416 -34.613325)
(81.912397 -60.557651 -33.901869)
(100.34761 -64.113392 -32.980288)
(114.42495 -68.038043 -32.755756)
(125.822 -69.910777 -33.037854)
(133.33301 -71.942916 -35.185246)
(136.64243 -73.437046 -38.711566)
(136.0042 -75.787866 -44.178997)
(131.63706 -79.095061 -51.233697)
(123.86566 -83.950346 -60.015625)
(113.63663 -90.882265 -70.191759)
(101.53956 -99.949404 -81.387809)
(88.807429 -111.67732 -93.386939)
(76.269189 -125.96985 -105.64133)
(65.197737 -143.09224 -117.67197)
(56.654545 -162.54536 -129.28272)
(51.47416 -184.55661 -139.85261)
(50.422485 -208.50024 -149.17893)
(54.547808 -234.14716 -156.81933)
(63.919186 -261.20412 -162.9335)
(78.818964 -288.89531 -166.90042)
(99.748646 -317.24923 -169.20753)
(125.97095 -345.53957 -169.70525)
(157.51491 -373.50879 -168.34378)
(193.96887 -401.07155 -165.82154)
(234.55468 -427.67168 -161.81215)
(278.95952 -453.65178 -157.08981)
(326.21666 -478.59826 -151.55061)
(376.00732 -503.04326 -145.81734)
(427.7636 -526.68711 -139.94341)
(481.17885 -550.10526 -134.13854)
(535.89788 -573.45087 -128.58789)
(592.05857 -596.96922 -123.44036)
(649.68373 -621.10219 -118.39643)
(708.84327 -645.99916 -113.90857)
(770.10927 -672.00738 -109.65791)
(834.01547 -699.05813 -105.43626)
(901.11502 -727.52358 -101.20822)
(971.95021 -757.12985 -96.792032)
(1047.1774 -787.90115 -92.076348)
(1127.2989 -819.5272 -86.901999)
(1212.7776 -851.76468 -81.224624)
(1303.8971 -884.16869 -74.987499)
(1400.833 -916.34484 -68.220104)
(1503.5417 -947.78388 -60.994418)
(1611.8455 -978.0339 -53.436136)
(1725.3619 -1006.6143 -45.723023)
(1843.5771 -1033.1336 -38.066145)
(1965.8375 -1057.232 -30.705995)
(2091.4034 -1078.6755 -23.892821)
(2219.4773 -1097.301 -17.87248)
(2349.2647 -1113.0867 -12.868184)
(2479.9985 -1126.0997 -9.0655015)
(2611.0094 -1136.5366 -6.5943068)
(2741.7428 -1144.6735 -5.5186857)
(2871.8092 -1150.8811 -5.8248989)
(3000.996 -1155.5763 -7.4188134)
(3129.2898 -1159.2177 -10.122719)
(3256.8643 -1162.2627 -13.684576)
(3384.0793 -1165.1521 -17.787208)
(3511.4437 -1168.2745 -22.0636)
(3639.588 -1171.956 -26.116181)
(3769.2076 -1176.4162 -29.558004)
(3901.0378 -1181.7939 -31.995195)
(4035.7043 -1188.1357 -33.111613)
(4174.0054 -1195.2764 -32.621015)
(4316.1472 -1203.1868 -30.307397)
(4462.5252 -1211.3188 -26.217115)
(4613.3962 -1219.6291 -20.314602)
(4768.4606 -1227.4812 -12.631159)
(4927.5418 -1234.6584 -3.4876714)
(5090.0086 -1240.6295 6.7957987)
(5255.1955 -1245.0894 17.843419)
(5422.2411 -1247.6867 29.214174)
(5590.188 -1248.2178 40.451786)
(5758.0236 -1246.5302 51.095376)
(5924.7299 -1242.6026 60.692429)
(6089.3621 -1236.5155 68.881776)
(6251.0801 -1228.4491 75.347097)
(6409.1909 -1218.6993 79.874091)
(6563.2127 -1207.6239 82.349867)
(6712.8699 -1195.6626 82.766347)
(6858.1359 -1183.2701 81.233933)
(6999.2151 -1170.9377 77.960003)
(7136.5466 -1159.1173 73.2488)
(7270.7605 -1148.2356 67.472784)
(7402.6598 -1138.6444 61.061335)
(7533.1487 -1130.6025 54.442868)
(7663.1771 -1124.27 48.07209)
(7793.6782 -1119.6563 42.272632)
(7925.4113 -1116.5964 37.332167)
(8058.9184 -1114.8802 33.359188)
(8194.1916 -1113.7572 30.106393)
(3.2927448e-15 -1.3239155e-15 2.3845803e-16)
(2.4470133e-15 -9.6672015e-16 3.215493e-17)
(-9.0574249e-15 9.0550918e-16 6.4029168e-16)
(-1.2642219e-16 -5.721845e-16 4.4370095e-16)
(-7.6811722e-15 -4.9270561e-16 4.1193361e-16)
(-7.3893964e-15 2.7533729e-15 -1.0951501e-15)
(-3.2915852e-15 -8.1743692e-16 3.8364228e-16)
(-1.9032499e-15 5.3200654e-16 -8.2319016e-17)
(-4.7409759e-15 -4.8623412e-16 4.3918642e-16)
(-1.2869644e-14 1.1845665e-15 6.4228907e-16)
(-9.6157521e-15 1.4157374e-15 5.9836601e-16)
(-9.4077204e-15 4.9518432e-16 1.1192419e-15)
(-5.982767e-15 2.6210694e-16 3.0473736e-16)
(-1.1478475e-14 -5.3386198e-16 1.6580808e-15)
(-5.257323e-15 3.6289085e-16 2.8600704e-16)
(18.47289 -11.555208 22.711685)
(35.190005 -33.27723 22.339194)
(58.314147 -40.342414 12.982364)
(79.526694 -45.401111 9.12324)
(97.363166 -48.240838 1.0175215)
(113.30254 -52.609774 -3.8824685)
(125.26969 -52.884211 -8.0314978)
(132.83406 -55.457221 -11.003366)
(136.52819 -57.2904 -10.069699)
(135.81337 -59.896295 -8.184146)
(130.49184 -63.962846 -3.6832311)
(123.02316 -70.314163 2.8936013)
(111.96552 -77.408554 11.039057)
(99.744497 -88.317908 20.183143)
(87.28832 -100.92191 30.421255)
(74.861443 -116.34015 39.935867)
(64.594158 -134.89384 49.814189)
(57.924771 -155.72199 58.301248)
(53.881476 -179.27406 65.487541)
(56.530528 -205.41429 70.814437)
(62.523596 -232.18918 74.857134)
(75.422723 -261.60201 76.086325)
(94.226702 -292.66509 75.952172)
(119.06698 -323.57707 73.796422)
(148.93632 -355.17757 70.248462)
(184.57122 -386.94332 65.840151)
(223.89881 -418.08324 60.803429)
(267.7712 -449.83538 55.422359)
(314.28393 -479.90808 50.937358)
(363.00277 -510.09188 46.90533)
(413.7434 -539.27199 44.567258)
(465.1929 -567.94003 43.937658)
(517.46177 -596.10876 45.206321)
(570.27726 -623.95177 48.70127)
(623.38037 -651.48181 53.868519)
(677.38876 -679.25442 61.305581)
(732.31514 -706.374 70.397497)
(788.88561 -734.29858 80.428512)
(847.78411 -762.24626 91.392493)
(909.72607 -790.43167 102.43714)
(975.54556 -818.82693 113.14458)
(1046.0337 -847.22893 122.85725)
(1121.8742 -875.54847 131.09105)
(1203.6921 -903.47637 137.33696)
(1291.9019 -930.82144 141.24354)
(1386.7696 -957.23295 142.5171)
(1488.3196 -982.48025 141.04331)
(1596.3866 -1006.2399 136.79798)
(1710.5735 -1028.3134 129.93581)
(1830.3076 -1048.479 120.70516)
(1954.8421 -1066.6407 109.50588)
(2083.314 -1082.7262 96.803798)
(2214.7828 -1096.7899 83.165226)
(2348.2808 -1108.9295 69.174057)
(2482.8792 -1119.3523 55.443867)
(2617.7206 -1128.3068 42.548089)
(2752.0918 -1136.1134 31.015516)
(2885.4406 -1143.1135 21.279846)
(3017.4234 -1149.6666 13.66893)
(3147.9132 -1156.1224 8.380266)
(3277.0043 -1162.7925 5.4717279)
(3405.0056 -1169.9425 4.863125)
(3532.4093 -1177.7614 6.3426174)
(3659.8629 -1186.3571 9.574262)
(3788.0915 -1195.7363 14.153912)
(3917.943 -1205.8518 19.57862)
(4050.1218 -1216.5563 25.375585)
(4185.469 -1227.1156 30.737198)
(4324.059 -1237.9869 35.666334)
(4467.5014 -1248.88 39.546806)
(4614.8161 -1258.2816 41.821842)
(4766.621 -1266.7536 42.441899)
(4922.599 -1273.6082 41.2951)
(5082.2472 -1278.5115 38.34845)
(5245.0109 -1281.2262 33.730806)
(5410.0477 -1281.5518 27.674377)
(5576.4335 -1279.4079 20.501763)
(5743.1619 -1274.811 12.608862)
(5909.1998 -1267.8871 4.4313775)
(6073.5588 -1258.8696 -3.5732727)
(6235.3346 -1248.0803 -10.963569)
(6393.7751 -1235.9217 -17.336641)
(6548.3048 -1222.8503 -22.359463)
(6698.5783 -1209.3562 -25.783836)
(6844.4797 -1195.9358 -27.470171)
(6986.1481 -1183.062 -27.389277)
(7123.9547 -1171.1676 -25.629554)
(7258.4916 -1160.6062 -22.386473)
(7390.5283 -1151.6518 -17.948967)
(7520.9645 -1144.4577 -12.679566)
(7650.7752 -1139.0649 -6.9774777)
(7780.8999 -1135.3678 -1.2529601)
(7912.2386 -1133.1263 4.1565202)
(8045.1937 -1131.8616 9.0132208)
(8180.3448 -1131.0479 13.131938)
(8314.7124 -994.78967 19.836764)
(8315.301 -858.71409 21.604084)
(8316.5803 -721.1306 22.126851)
(8318.4077 -579.80692 21.164044)
(8319.2473 -437.1691 18.706553)
(8320.5971 -291.09915 15.431435)
(8320.1632 -144.37257 10.679902)
(8319.5532 3.6874783 5.9589356)
(8318.077 151.91203 1.0738388)
(8315.161 299.90699 -3.6421702)
(8311.3857 446.20175 -7.1680059)
(8308.641 590.42962 -10.339978)
(8303.4535 733.12286 -10.669206)
(8300.8323 872.01503 -10.983873)
(8297.2676 1009.7498 -8.3496668)
(8158.9867 1145.5635 0.15487667)
(8022.8171 1144.5423 5.76829)
(7888.5335 1144.6872 12.445025)
(7755.9172 1146.2878 19.491812)
(7625.0069 1149.4782 27.481887)
(7494.771 1154.5307 35.926083)
(7364.2578 1161.2897 44.350065)
(7232.6401 1169.597 52.415519)
(7098.9245 1179.1629 59.579614)
(6962.3481 1189.6218 65.399216)
(6822.2378 1200.5053 69.470301)
(6678.1262 1211.3931 71.430507)
(6529.7851 1221.7398 71.061984)
(6377.269 1231.0873 68.264293)
(6220.787 1239.0443 63.016482)
(6060.7648 1245.1953 55.381209)
(5897.8794 1249.3029 45.58384)
(5732.9879 1251.177 34.030224)
(5567.0531 1250.7252 21.113288)
(5401.1043 1247.9731 7.3878726)
(5236.1869 1243.0573 -6.6340596)
(5073.2664 1236.1681 -20.380441)
(4913.2724 1227.6135 -33.323198)
(4756.8221 1217.719 -45.040259)
(4604.609 1206.9536 -55.053077)
(4456.8093 1195.4925 -63.068542)
(4313.3271 1184.1762 -68.966079)
(4175.4395 1171.5382 -72.766361)
(4040.4775 1161.3532 -73.741036)
(3909.4705 1150.6318 -73.529515)
(3781.4081 1140.8125 -71.14218)
(3655.639 1131.6394 -67.335898)
(3531.2557 1123.0616 -62.491711)
(3407.5591 1114.8725 -57.014417)
(3283.8184 1106.8147 -51.366003)
(3159.4408 1098.5647 -45.969253)
(3033.9788 1089.7511 -41.223792)
(2907.1681 1079.9919 -37.463897)
(2778.9442 1068.9072 -34.950904)
(2649.4521 1056.1548 -33.859256)
(2519.0376 1041.442 -34.264954)
(2388.2356 1024.5548 -36.152556)
(2257.7307 1005.3613 -39.410543)
(2128.3315 983.83392 -43.854746)
(2000.9052 960.03591 -49.230747)
(1876.3492 934.14001 -55.252053)
(1755.5114 906.39433 -61.602852)
(1639.1735 877.13382 -67.980411)
(1527.9636 846.74895 -74.11055)
(1422.3855 815.66257 -79.755209)
(1322.695 784.29334 -84.735548)
(1229.0394 753.16647 -89.022446)
(1141.2714 722.47083 -92.413149)
(1059.1409 692.83313 -95.258863)
(982.33595 664.27673 -97.29016)
(910.03051 637.2505 -98.963721)
(841.72898 611.40788 -100.36442)
(776.98867 587.89674 -101.88764)
(715.31101 563.93988 -102.90944)
(655.54325 543.05195 -104.92711)
(597.67887 522.58285 -107.36021)
(541.82391 501.9521 -109.64907)
(486.71982 482.75189 -113.19755)
(433.04151 463.23482 -117.27179)
(381.21214 443.28803 -121.66991)
(331.2665 422.87356 -126.34918)
(283.4601 401.68747 -130.9124)
(238.96377 379.56243 -135.5399)
(197.36295 356.93459 -139.73638)
(160.26467 333.11461 -142.88657)
(127.80696 308.77848 -145.21514)
(100.15699 283.78935 -145.88601)
(78.901104 258.42526 -145.48362)
(62.414018 234.16184 -143.12371)
(51.779547 210.14882 -139.02052)
(47.215046 186.3911 -133.36041)
(46.870369 165.97294 -126.04543)
(51.705029 145.10779 -117.23434)
(59.798244 128.74724 -107.44988)
(70.248999 112.93959 -96.932483)
(83.044171 100.32131 -85.75564)
(96.11342 90.009334 -74.825623)
(108.32342 82.881274 -64.966676)
(118.91786 76.421812 -54.707586)
(127.50602 73.078287 -46.799722)
(132.69522 70.281375 -40.048661)
(133.39876 69.515488 -34.584222)
(131.29585 67.535173 -31.022402)
(123.99124 66.975629 -29.487399)
(113.84478 64.630484 -28.840728)
(99.516257 62.48021 -29.157283)
(82.711095 57.199383 -30.297072)
(65.227593 52.159193 -30.396595)
(43.398874 41.567828 -28.067277)
(33.490632 31.152395 -20.476921)
(-6.8708141e-15 1.5083581e-15 1.9262289e-16)
(-1.2504183e-14 5.7375616e-16 8.4327435e-16)
(-8.3449101e-15 1.4891922e-15 5.3018253e-16)
(-4.9731758e-15 1.4991158e-15 6.2376313e-16)
(-3.4146159e-15 1.5624416e-15 3.1576894e-17)
(2.0582335e-15 9.3962624e-16 -5.746342e-16)
(2.2101935e-15 3.7457559e-17 -1.1841335e-16)
(2.4553765e-15 -8.5141669e-16 -9.3419562e-16)
(1.2987427e-15 1.0081898e-16 1.7950851e-15)
(-4.5074861e-15 9.063971e-16 1.0710522e-15)
(-5.2682467e-15 2.1856155e-15 1.0652666e-15)
(-7.4917339e-15 1.915055e-15 2.2418828e-16)
(-9.400838e-15 1.3708275e-15 6.2833768e-16)
(-6.2048683e-15 1.3247981e-15 5.4317906e-16)
(-6.971104e-15 1.5128103e-15 7.5678131e-16)
(-1.2693866e-14 6.2923345e-15 -2.1364834e-15)
(-5.2452578e-15 2.6791924e-15 -5.3037742e-16)
(-1.0752404e-15 9.8318743e-16 -1.0111087e-16)
(-2.7353382e-15 1.7746034e-15 7.3085398e-17)
(1.0178949e-15 -1.5450237e-16 -4.119182e-16)
(-1.4303492e-15 4.136346e-16 -3.3264033e-16)
(-1.0059749e-14 4.7133437e-15 -1.6449855e-15)
(2.9801421e-15 -1.9180379e-15 -8.3172098e-16)
(-4.79756e-15 2.8035442e-15 1.1420498e-15)
(-5.4778068e-15 3.5047253e-15 -3.934403e-16)
(-1.8117877e-15 1.1581936e-15 -9.1309836e-16)
(-3.9812639e-16 4.7407236e-16 -2.2932148e-16)
(-1.5272242e-15 1.100363e-15 -2.2557932e-16)
(-4.1024849e-15 1.9838802e-15 2.8069696e-17)
(-5.3424143e-16 2.551799e-16 -1.9455919e-16)
(8326.618 -1110.0093 27.137902)
(8322.9404 -1107.2689 27.751645)
(8319.0525 -1104.9798 28.131397)
(8315.3771 -1103.394 28.194345)
(8311.8074 -1102.4698 27.709905)
(8308.889 -1102.1584 26.639194)
(8306.6685 -1102.5924 25.207434)
(8305.2878 -1103.5789 23.490694)
(8304.7519 -1105.2098 21.719108)
(8305.0038 -1107.3201 20.068001)
(8305.862 -1109.9301 18.744355)
(8307.3428 -1113.0129 17.897361)
(8309.0387 -1116.5994 17.523347)
(8310.9662 -1120.5201 17.562361)
(8313.0691 -1125.2678 17.829891)
(8314.6351 1156.2696 -14.433502)
(8309.0293 1149.0847 -14.380551)
(8303.4132 1142.5743 -14.310151)
(8298.2655 1136.7631 -13.634984)
(8293.2569 1131.6251 -12.561452)
(8289.1443 1127.3684 -11.096166)
(8285.9365 1124.1168 -9.4744064)
(8283.8375 1121.9468 -7.8215474)
(8282.878 1120.9804 -6.3410197)
(8283.0356 1121.2692 -5.1896588)
(8284.1647 1122.7851 -4.5227881)
(8286.0481 1125.6541 -4.3559092)
(8288.4025 1129.4581 -4.7142281)
(8290.9518 1134.6557 -5.446135)
(8293.4387 1140.2071 -6.0380297)
(13.277521 10.829899 17.855843)
(31.812564 16.521138 15.539724)
(51.831579 22.592852 12.646892)
(72.139264 27.19578 8.5901878)
(90.19078 31.793276 2.8120364)
(106.23857 35.742697 -1.9345169)
(118.52006 39.619962 -6.4241897)
(127.30608 43.870985 -9.5661598)
(131.47911 47.845083 -11.000704)
(131.74543 53.196101 -11.057056)
(127.62355 58.591918 -9.2252136)
(120.12898 65.716096 -5.819038)
(109.69632 73.484313 -1.1827584)
(97.346888 83.36772 4.6968161)
(83.986643 94.019476 11.25585)
(70.99934 106.90318 18.197106)
(59.366757 120.996 24.979137)
(50.025508 137.16402 31.505334)
(44.53919 154.28974 37.196371)
(43.282902 173.28261 41.83894)
(47.135555 193.20475 45.305021)
(56.710943 214.29597 47.50236)
(72.036853 236.3899 48.275451)
(93.238177 258.84244 47.989477)
(120.41046 281.98576 46.50624)
(152.85282 305.23936 44.364477)
(190.16816 328.88925 41.630573)
(231.73608 352.23194 38.876057)
(277.07151 375.67843 36.34883)
(325.15857 399.09174 34.446715)
(375.49063 422.0774 33.401359)
(427.63858 445.10112 33.780781)
(481.07134 467.89321 35.479401)
(535.48867 490.70291 38.684452)
(590.76919 513.27893 43.689345)
(647.19039 535.83148 50.037526)
(704.80347 558.45279 57.611963)
(764.20145 580.85672 66.455999)
(825.97919 603.40003 75.817284)
(890.73685 625.63222 85.581468)
(959.31387 647.85763 95.064514)
(1032.4409 669.75196 104.05411)
(1110.6456 691.30484 111.79223)
(1194.7582 712.42745 118.10445)
(1285.1714 732.98823 122.45008)
(1382.1334 752.88587 124.68034)
(1485.7538 772.05878 124.56784)
(1595.8652 790.45379 122.08357)
(1712.1069 808.02038 117.28311)
(1833.9064 824.77031 110.35865)
(1960.5044 840.72007 101.59339)
(2091.0183 855.92864 91.370189)
(2224.4616 870.4767 80.132963)
(2359.8295 884.46662 68.371751)
(2496.1287 898.01864 56.588009)
(2632.4589 911.25933 45.271082)
(2768.0404 924.31886 34.867694)
(2902.2786 937.31678 25.760819)
(3034.7742 950.35895 18.244899)
(3165.366 963.52449 12.522783)
(3294.1059 976.8551 8.6720844)
(3421.2869 990.38802 6.6764108)
(3547.3767 1004.0321 6.3914688)
(3673.0658 1017.7498 7.6158884)
(3798.969 1031.4744 9.9699149)
(3926.2579 1044.8726 13.087911)
(4055.5397 1057.8522 16.702474)
(4187.6043 1070.3704 20.008285)
(4323.101 1081.9103 23.139182)
(4462.8938 1092.3968 24.956038)
(4607.0781 1101.6976 25.758097)
(4755.8785 1109.3509 25.086356)
(4909.1946 1115.3787 22.785728)
(5066.7197 1119.6016 18.854142)
(5227.8699 1121.932 13.342905)
(5391.9005 1122.3848 6.4821224)
(5557.8703 1121.0061 -1.5015914)
(5724.7667 1117.8914 -10.226973)
(5891.5253 1113.2447 -19.296908)
(6057.0665 1107.2023 -28.2842)
(6220.4215 1100.1985 -36.807032)
(6380.7211 1092.2583 -44.362087)
(6537.3876 1083.8695 -50.678572)
(6689.8556 1075.279 -55.487453)
(6837.9727 1066.9071 -58.630916)
(6981.8508 1058.8237 -60.030618)
(7121.6446 1051.3978 -59.618302)
(7258.0784 1044.7769 -57.562546)
(7391.7541 1039.1051 -54.011804)
(7523.4934 1034.5086 -49.174951)
(7654.6604 1030.9977 -43.466838)
(7785.3375 1028.5609 -36.934302)
(7917.6552 1027.2575 -30.115931)
(8051.0569 1026.5997 -22.766446)
(8186.0171 1027.3561 -15.08909)
(11.523597 5.6617178 12.570099)
(29.308221 7.7701249 11.46099)
(49.939276 12.84541 8.9699475)
(69.93314 16.67747 5.3698579)
(87.678119 21.66654 0.33984316)
(103.6793 26.053644 -4.1125785)
(115.9391 31.300342 -8.1530059)
(124.11438 36.38098 -11.118179)
(128.2894 42.093438 -12.605287)
(128.0528 48.20162 -13.223036)
(123.66069 55.030758 -11.70782)
(115.72759 62.491692 -9.6305735)
(104.93696 70.974126 -5.6859833)
(92.138349 80.174072 -1.379942)
(78.374686 90.605702 4.1000842)
(65.027448 101.93553 9.2635216)
(52.754965 114.52238 15.07466)
(43.366353 127.94214 20.055959)
(37.178833 142.66564 24.747224)
(35.636673 158.166 28.397241)
(39.148624 174.72749 31.317691)
(48.322045 192.07555 32.886713)
(63.314405 210.07466 33.705797)
(84.351204 228.76523 33.323455)
(111.10452 247.84772 32.273185)
(143.27364 267.53057 30.44934)
(180.34355 287.31073 28.466854)
(221.79262 307.40494 26.386658)
(266.78076 327.68484 24.547034)
(314.69253 347.98732 23.296345)
(365.00271 368.3515 23.044803)
(416.98264 388.73771 23.755409)
(470.19895 409.06919 25.753746)
(524.54663 429.25059 29.164952)
(579.90105 449.44329 33.902771)
(636.22107 469.39996 40.006872)
(694.06738 489.12506 47.242822)
(753.63827 508.67387 55.368373)
(815.54666 527.80623 64.090194)
(880.58788 546.60977 73.084664)
(949.43708 564.92711 81.745961)
(1022.7772 582.80305 90.140029)
(1101.5021 600.02187 97.171264)
(1185.9633 616.73038 103.01011)
(1276.7646 632.71723 107.19496)
(1374.1261 648.10131 109.47185)
(1478.1056 662.83802 109.6786)
(1588.5524 676.99569 107.79169)
(1705.0813 690.59676 103.84516)
(1827.1165 703.7416 98.014122)
(1953.8949 716.49613 90.524825)
(2084.5331 728.97292 81.720402)
(2218.0472 741.262 71.970811)
(2353.4394 753.47076 61.710256)
(2489.7259 765.68611 51.367495)
(2626.0168 777.99213 41.376173)
(2761.5485 790.44677 32.126159)
(2895.7384 803.09183 23.961023)
(3028.209 815.93962 17.147139)
(3158.8051 828.9732 11.869039)
(3287.6118 842.1493 8.2172395)
(3414.9126 855.39096 6.1763169)
(3541.2236 868.5734 5.6690688)
(3667.1804 881.57942 6.4762231)
(3793.5564 894.3178 8.3084639)
(3921.3317 906.37108 10.974115)
(4050.9166 917.7213 13.891446)
(4183.5184 928.38134 17.044389)
(4319.7991 937.89832 19.628269)
(4460.2996 946.22494 21.554114)
(4605.3274 953.24928 22.463744)
(4754.9266 958.69633 22.193523)
(4909.1069 962.6322 20.547396)
(5067.4471 964.98752 17.494836)
(5229.3902 965.79204 13.105909)
(5394.1362 965.12601 7.4930933)
(5560.7474 963.07115 0.89596265)
(5728.2011 959.7971 -6.3959214)
(5895.3853 955.47185 -14.074302)
(6061.254 950.24411 -21.721549)
(6224.8448 944.44072 -29.051363)
(6385.2662 938.07892 -35.656331)
(6541.8323 931.61683 -41.183961)
(6694.2058 925.33704 -45.579402)
(6842.3091 919.003 -48.279026)
(6985.9727 912.95364 -49.667398)
(7125.5446 907.40853 -49.451172)
(7261.5964 902.48563 -47.842192)
(7394.9981 898.23931 -44.762351)
(7526.2944 894.8668 -40.639015)
(7657.1285 892.13533 -35.455072)
(7787.4545 890.51631 -29.527697)
(7919.2533 889.68363 -23.11822)
(8052.5512 889.33256 -15.77245)
(8187.0656 890.52348 -8.4995213)
(10.700015 3.7771515 9.326212)
(27.326666 4.7370254 7.8431221)
(47.238962 8.0914251 5.6232284)
(66.288887 10.707968 2.8804117)
(84.078771 15.291983 -2.0263085)
(100.0428 19.742207 -5.5794682)
(111.43601 24.701864 -9.3995306)
(120.14227 30.443572 -12.054478)
(123.80428 35.971575 -14.02897)
(123.47612 42.829259 -14.516817)
(118.902 49.221474 -14.193449)
(110.95782 57.098585 -12.484889)
(99.90382 64.60142 -10.083478)
(86.981171 73.58334 -6.6509711)
(73.195417 82.509419 -3.0613656)
(59.449289 92.603173 1.2882517)
(47.344068 103.00028 5.2164663)
(37.452523 114.3994 9.1758596)
(31.28951 126.26957 12.538839)
(29.458757 138.94508 15.392571)
(32.73356 152.25967 17.360473)
(41.617392 166.10483 18.649827)
(56.405466 180.71115 19.02795)
(77.071542 195.64609 18.752076)
(103.54563 211.297 17.789447)
(135.42191 227.16357 16.489995)
(172.25814 243.56826 14.984434)
(213.30058 260.24036 13.460778)
(258.10545 277.16687 12.333959)
(305.81589 294.31985 11.770964)
(355.87412 311.57978 11.955761)
(407.66797 328.96731 13.108422)
(460.92875 346.2833 15.469584)
(515.28058 363.61345 18.938987)
(570.62303 380.72148 23.675358)
(627.09166 397.61556 29.49038)
(684.92499 414.25912 36.263216)
(744.57485 430.43837 43.869772)
(806.87224 446.22068 51.929421)
(872.20932 461.33253 60.114404)
(941.40181 476.0048 68.270829)
(1015.1486 489.94764 75.774312)
(1094.1947 503.18943 82.509648)
(1179.0812 515.87136 87.961568)
(1270.209 527.87427 92.059463)
(1367.8595 539.28767 94.445713)
(1472.0889 550.21457 95.049239)
(1582.7177 560.72528 93.804473)
(1699.3723 570.93655 90.757011)
(1821.4617 580.96926 86.028499)
(1948.2399 590.94347 79.820718)
(2078.8204 600.97797 72.409685)
(2212.2393 611.18134 64.114233)
(2347.5081 621.64205 55.297861)
(2483.6614 632.43078 46.332153)
(2619.8268 643.58676 37.587828)
(2755.2566 655.1233 29.409493)
(2889.3883 667.02149 22.09898)
(3021.8528 679.22961 15.898163)
(3152.5208 691.67009 10.986357)
(3281.4687 704.22662 7.4492498)
(3409.0103 716.77867 5.3060608)
(3535.6594 729.14061 4.5154657)
(3661.9998 741.21607 4.8195562)
(3789.0018 752.70985 6.2664088)
(3917.0912 763.50114 8.1605124)
(4047.6791 773.66143 10.96769)
(4181.2461 782.70102 13.201577)
(4318.0826 790.13145 15.559811)
(4459.3483 796.65563 17.342558)
(4605.0865 801.70571 18.425575)
(4755.4469 805.45417 18.537611)
(4910.3123 807.87247 17.541702)
(5069.2642 808.99702 15.444101)
(5231.7205 808.85264 12.180391)
(5396.8984 807.6091 7.9430355)
(5563.8429 805.36884 2.8099552)
(5731.5408 802.28616 -2.9445972)
(5898.8923 798.52431 -9.0748168)
(6064.8611 794.24647 -15.283525)
(6228.4594 789.60821 -21.29908)
(6388.8561 784.74646 -26.745139)
(6545.4569 779.8232 -31.552771)
(6697.7036 775.11249 -35.379554)
(6845.3364 770.30799 -37.916972)
(6988.9211 765.74012 -39.196638)
(7128.2789 761.74117 -39.312975)
(7264.26 758.26666 -38.120607)
(7397.4189 755.29447 -35.778267)
(7528.5916 752.93383 -32.321894)
(7659.2114 751.1763 -27.997995)
(7789.1647 750.17011 -22.719486)
(7920.8221 749.90874 -16.902972)
(8053.8227 749.92385 -10.106151)
(8188.2063 751.22847 -2.9264875)
(11.150978 1.4358037 5.2900034)
(27.504885 1.0355446 3.7977993)
(46.368043 3.5237092 1.6428663)
(64.64301 5.0486916 -0.87897107)
(82.04854 9.3379347 -5.1929315)
(96.611378 12.4121 -8.1393589)
(108.57563 17.482117 -11.821072)
(116.3594 22.247371 -14.566952)
(119.86022 27.894211 -16.095665)
(119.3274 33.66315 -17.527811)
(114.76976 40.034431 -17.215113)
(106.48085 46.620107 -16.822016)
(95.471754 53.693407 -14.885266)
(82.625246 61.150429 -13.185574)
(68.598946 68.889284 -10.11439)
(55.144095 77.156514 -7.6785562)
(42.700835 85.787549 -4.5468497)
(33.01783 94.836186 -2.0137842)
(26.623623 104.3616 0.52420689)
(24.7433 114.31577 2.2965553)
(27.786015 124.72728 3.7941989)
(36.540966 135.64551 4.4663244)
(50.982305 146.9564 4.7624145)
(71.427782 158.78924 4.3691064)
(97.539621 170.97646 3.7260008)
(129.11426 183.63251 2.7289981)
(165.49867 196.66624 1.6996712)
(206.32172 209.99651 0.81909615)
(250.71412 223.64762 0.29880966)
(298.14641 237.53563 0.26608799)
(347.94812 251.59184 1.0257315)
(399.62793 265.73236 2.6537386)
(452.73641 279.8829 5.2567841)
(507.00288 293.98675 8.8772185)
(562.44606 307.84641 13.546856)
(619.01991 321.51817 19.145808)
(677.26786 334.75607 25.597147)
(737.61634 347.57087 32.669371)
(800.20415 359.69086 40.165349)
(865.94069 371.45578 47.870599)
(935.582 382.41409 55.30135)
(1009.8122 392.77766 62.34517)
(1089.277 402.45858 68.574763)
(1174.5473 411.52454 73.788129)
(1265.9967 420.01527 77.766202)
(1363.8956 427.99147 80.278209)
(1468.275 435.60221 81.232033)
(1578.9545 442.94497 80.576827)
(1695.5536 450.16909 78.331263)
(1817.4942 457.41398 74.605769)
(1944.0392 464.81746 69.553443)
(2074.3212 472.50836 63.412874)
(2207.4019 480.59366 56.440616)
(2342.314 489.15941 48.952927)
(2478.1247 498.25847 41.256053)
(2613.9837 507.91267 33.677558)
(2749.1734 518.10775 26.508875)
(2883.1485 528.79522 20.021251)
(3015.5656 539.89053 14.434323)
(3146.2984 551.28454 9.9098259)
(3275.4404 562.82636 6.5464404)
(3403.3135 574.37163 4.3899095)
(3530.3742 585.727 3.3571923)
(3657.338 596.7172 3.4289759)
(3784.8721 607.12958 4.3515473)
(3913.9078 616.95607 5.9933428)
(4044.9844 625.7042 8.0726978)
(4179.3028 633.53803 10.390568)
(4317.2227 640.18662 12.52155)
(4459.2737 645.63866 14.329714)
(4605.8458 649.77136 15.578506)
(4756.8355 652.67905 16.08282)
(4912.2102 654.22286 15.800873)
(5071.6492 654.49709 14.543861)
(5234.4571 653.8279 12.402872)
(5399.9024 652.16321 9.3054914)
(5566.9854 649.74267 5.4635557)
(5734.7219 646.68888 1.0134288)
(5902.0376 643.17631 -3.8372912)
(6067.8883 639.33737 -8.8485768)
(6231.3584 635.35103 -13.766538)
(6391.5895 631.30394 -18.371987)
(6547.9715 627.378 -22.431607)
(6700.1389 623.61136 -25.704969)
(6847.8786 620.25912 -27.974861)
(6991.2426 616.98126 -29.36765)
(7130.543 614.20823 -29.683161)