/*--------------------------------*- C++ -*----------------------------------*\
  =========                 |
  \\      /  F ield         | OpenFOAM: The Open Source CFD Toolbox
   \\    /   O peration     | Website:  https://openfoam.org
    \\  /    A nd           | Version:  6
     \\/     M anipulation  |
\*---------------------------------------------------------------------------*/
FoamFile
{
    version     2.0;
    format      ascii;
    class       pointVectorField;
    location    "0.82";
    object      lm;
}
// * * * * * * * * * * * * * * * * * * * * * * * * * * * * * * * * * * * * * //

dimensions      [1 -2 -1 0 0 0 0];

internalField   nonuniform List<vector> 
625
(
(-3.6361799e-15 2.112754e-16 -3.2990721e-16)
(2.8178306e-17 1.9013092e-16 6.1994168e-17)
(-6100.6459 221.58008 2.3962561)
(-6095.4745 1270.6199 74.982702)
(6.5239771e-16 2.739523e-16 -5.5565719e-16)
(-3.7042918e-15 1.4868296e-15 -1.3023874e-15)
(-6158.4109 1247.7576 69.029754)
(-6163.0606 199.39359 -0.81189062)
(-1.9658614e-16 -3.2115893e-17 -1.1045223e-16)
(1.4766345e-16 -3.4299605e-16 -2.8648028e-16)
(-1.0135278e-15 7.0169807e-16 1.7538027e-16)
(-5968.8236 466.749 18.293107)
(-5938.8326 717.63112 35.083513)
(-6061.8907 998.53111 55.506482)
(-29.026505 -95.240552 -92.762822)
(-92.347962 -180.31714 -100.58009)
(-207.84442 -257.77205 -106.01421)
(-366.00978 -322.18737 -103.15563)
(-555.9333 -370.55906 -101.61531)
(-784.56157 -407.73559 -94.924994)
(-1043.0964 -432.35873 -87.899202)
(-1334.3267 -444.50971 -77.315172)
(-1656.3488 -446.30377 -66.416054)
(-2004.8896 -436.08704 -52.488088)
(-2377.7241 -415.64009 -38.81891)
(-2765.623 -383.79809 -24.576981)
(-3160.4403 -342.52316 -11.520837)
(-3550.1419 -292.68261 0.059433578)
(-3925.3484 -236.51261 9.2362725)
(-4275.1394 -176.72833 15.459834)
(-4594.1991 -115.95058 19.439197)
(-4877.2205 -55.441544 19.557733)
(-5123.3305 0.80665032 19.39673)
(-5341.1154 52.901171 15.392643)
(-5530.9011 100.88335 12.091337)
(-5696.212 143.99807 8.4078507)
(-5861.9596 182.80205 5.3081207)
(12.496007 73.255817 105.99692)
(-59.524536 154.13486 89.551245)
(-170.68975 241.65844 100.50092)
(-309.95837 317.2297 95.767041)
(-481.03736 387.02016 98.561748)
(-688.02601 463.15448 98.67537)
(-918.12946 530.27714 103.31598)
(-1181.4862 600.22581 104.41231)
(-1469.488 668.23371 108.31609)
(-1785.3564 733.55942 109.84545)
(-2122.6503 797.68868 111.2495)
(-2480.2631 858.10949 110.63264)
(-2851.8301 914.75264 108.9559)
(-3231.6415 967.12689 105.79333)
(-3613.4006 1014.7755 101.44314)
(-3989.0756 1057.589 96.491486)
(-4351.0051 1095.8287 91.086285)
(-4691.048 1128.9598 86.350497)
(-5002.4456 1158.5548 81.842214)
(-5279.1539 1183.3246 78.983263)
(-5519.7076 1205.868 76.453105)
(-5723.5533 1224.9513 75.695201)
(-5908.2876 1246.5998 73.810064)
(-4.8813632e-16 1.9183015e-16 -1.0607077e-16)
(-2.6214496e-15 -5.6404768e-16 7.244144e-16)
(-2.4010456e-15 1.4295629e-15 -1.6975308e-16)
(-20.87079 47.488237 -68.343572)
(-95.016436 186.75728 -66.104618)
(-226.28354 231.12073 -38.657568)
(-374.31785 306.51148 -18.561146)
(-565.74022 385.8197 -5.735906)
(-779.72416 440.57798 17.495145)
(-1019.9043 509.48442 31.332929)
(-1288.9296 573.52168 51.25594)
(-1585.3753 637.77466 68.465021)
(-1903.2935 700.96018 84.589387)
(-2244.0476 762.51539 99.938472)
(-2601.2607 822.92572 112.63822)
(-2971.3079 879.68824 122.7357)
(-3347.7297 933.0059 129.75916)
(-3724.0559 982.29871 133.12815)
(-4093.0722 1026.5035 133.01452)
(-4447.3488 1066.3144 129.50428)
(-4779.6379 1101.0867 122.9084)
(-5083.8314 1131.576 114.35659)
(-5355.1102 1157.9145 104.04901)
(-5591.3359 1181.206 93.795955)
(-5793.5413 1201.9452 83.874025)
(-5946.7059 1217.2308 75.991688)
(-6153.2658 982.2096 52.063086)
(-5995.9729 695.23413 34.04407)
(-6063.6095 447.05034 17.521265)
(-5921.7299 160.55202 0.95979878)
(-5796.6303 122.88456 2.2174247)
(-5630.3076 80.695696 1.0431102)
(-5440.7476 31.930261 -0.48790433)
(-5222.3289 -22.069935 -2.5117619)
(-4970.7924 -80.830926 -4.9545031)
(-4683.9384 -143.44743 -7.2072824)
(-4363.678 -206.7459 -9.7115001)
(-4013.7494 -268.83311 -11.873274)
(-3641.4438 -326.3592 -14.057123)
(-3255.6322 -376.93271 -15.725537)
(-2866.4243 -418.36462 -17.057812)
(-2482.8143 -449.1461 -17.697494)
(-2123.1465 -469.62825 -17.508568)
(-1768.5377 -474.75317 -16.001031)
(-1442.699 -470.15188 -11.813458)
(-1147.6844 -453.37642 -7.2931403)
(-880.68448 -423.61611 0.045080737)
(-645.44689 -383.78598 11.369914)
(-434.90931 -326.10584 22.202749)
(-265.05255 -263.98932 40.451452)
(-130.06328 -175.9201 53.412087)
(-63.359222 -94.340586 53.611166)
(-1.3028228e-15 -3.4252847e-16 3.3068324e-16)
(-2.0449562e-15 -3.5718549e-16 -7.3673077e-16)
(-1.4121951e-15 -1.0527101e-15 6.223458e-16)
(-1.2019486e-15 6.189313e-16 -3.4292956e-16)
(-1.2511779e-16 -6.848356e-17 2.1836215e-16)
(-3.8898857e-17 4.7141393e-16 -3.1043199e-16)
(-6111.9142 1262.0522 72.552276)
(-6127.0745 1256.5683 72.217205)
(-6143.7653 1250.0692 70.656648)
(-6115.2944 217.18504 1.665476)
(-6130.6181 211.18155 1.1386048)
(-6146.5829 205.40044 -0.10926978)
(6.2581832 -53.261521 -59.325666)
(-59.452974 -102.87123 -52.583105)
(-176.77201 -149.00073 -59.76503)
(-341.37286 -184.41743 -60.394872)
(-545.70365 -210.81183 -60.632699)
(-793.02202 -224.24497 -56.135651)
(-1068.0402 -224.21177 -49.624373)
(-1372.0028 -211.67924 -40.07843)
(-1693.1616 -188.00645 -28.375339)
(-2026.2633 -152.72725 -16.034908)
(-2363.7392 -110.03638 -3.2246689)
(-2697.3636 -60.881419 8.3552255)
(-3022.472 -8.6143952 18.625529)
(-3334.2719 44.931667 26.657289)
(-3631.0077 97.927635 32.215279)
(-3911.6779 148.50402 35.790553)
(-4178.8533 197.05766 36.831389)
(-4434.486 241.98008 36.546511)
(-4682.4009 283.6485 34.91139)
(-4930.5759 323.97036 32.038776)
(-5182.44 360.74355 29.561227)
(-5437.3472 397.2762 25.941106)
(-5708.6501 432.23419 22.550991)
(37.039747 -14.973519 -11.801861)
(-41.263907 -21.789461 -5.7064443)
(-167.00633 -26.674447 -7.7903153)
(-343.53081 -22.723643 -7.721381)
(-565.42512 -6.2636991 -3.0989944)
(-819.22852 15.942745 1.7059451)
(-1100.2657 45.561521 8.4742818)
(-1398.1106 81.303128 15.924427)
(-1702.994 120.45824 23.854826)
(-2008.699 161.71227 31.66855)
(-2307.3792 203.20814 38.111581)
(-2596.0221 244.26458 43.569452)
(-2872.0579 283.84728 47.419029)
(-3136.2391 321.80035 49.606046)
(-3391.0043 358.32787 50.58299)
(-3641.2058 393.91405 50.308282)
(-3892.7101 429.38905 49.122531)
(-4151.4734 465.40809 47.578635)
(-4424.1142 503.36599 45.536783)
(-4714.1587 543.28839 43.396225)
(-5025.9731 586.66564 41.380598)
(-5357.5929 632.39659 39.498232)
(-5683.1408 678.59188 37.54206)
(42.708548 34.421311 41.649263)
(-44.731649 68.922844 48.899705)
(-165.41371 112.05547 51.423008)
(-336.62434 163.40751 53.968946)
(-539.97636 216.98217 56.982788)
(-774.32699 266.45158 59.412389)
(-1033.1349 319.72188 62.800171)
(-1310.5432 368.68699 65.994828)
(-1602.8974 415.34354 69.654952)
(-1906.0033 459.82316 71.909973)
(-2216.9831 500.96649 74.093961)
(-2532.3593 540.10471 75.230786)
(-2850.1417 576.98251 75.527294)
(-3167.8728 612.35778 75.092998)
(-3483.7141 647.09118 73.782897)
(-3796.2449 681.24858 71.900685)
(-4103.3959 716.08539 69.391642)
(-4404.7462 751.66782 66.686799)
(-4698.7235 788.46885 63.901258)
(-4985.6813 827.11246 61.190365)
(-5265.1474 867.72992 59.178928)
(-5538.8673 909.06869 57.342342)
(-5797.3883 952.90955 55.785922)
(-2.5953868e-15 -2.1703571e-16 4.2716933e-18)
(-3.8783653e-15 3.5858996e-16 7.5215743e-16)
(-9.8459492e-16 7.8127033e-16 2.7525688e-16)
(-3.9146975e-16 7.8165185e-18 1.2560621e-16)
(1.6350797e-16 -2.4226884e-16 -1.2066667e-17)
(-1.0304172e-15 -9.2669207e-16 -7.5672327e-16)
(-6.4481012e-16 3.525084e-16 2.7116342e-16)
(-3.5205005e-15 9.4737515e-16 -2.5196009e-17)
(-3.8147498e-15 1.043275e-15 1.2924308e-16)
(-29.87007 30.578636 47.79267)
(-44.535864 41.963915 14.882807)
(-42.406311 32.26376 -20.609577)
(-110.34621 174.44365 55.96516)
(-120.34701 178.31606 18.029815)
(-120.7534 177.32018 -27.270275)
(-212.63881 239.00429 64.22723)
(-233.73365 236.59112 28.231307)
(-242.72292 253.08317 -10.535328)
(-347.6995 315.65621 64.802298)
(-374.86743 322.52951 35.615663)
(-381.59336 319.16224 4.8591061)
(-527.2522 392.684 72.4072)
(-551.69574 393.70795 47.567931)
(-566.70537 398.31178 19.097852)
(-725.944 460.25261 77.856008)
(-755.94449 460.64424 54.615669)
(-773.46595 457.26202 33.476491)
(-959.83803 529.12785 84.036188)
(-989.46118 529.37234 68.36295)
(-1011.7727 527.94745 47.737902)
(-1219.8021 597.84945 90.880309)
(-1251.5471 593.07529 76.745707)
(-1274.822 589.78073 62.706664)
(-1507.5228 663.24861 97.226712)
(-1538.3586 659.62504 87.986859)
(-1565.2662 654.12432 77.257098)
(-1819.9944 729.56468 103.43705)
(-1851.7898 723.22199 97.151551)
(-1881.3674 717.26397 90.356916)
(-2155.674 792.10275 108.08153)
(-2187.9071 784.9368 105.41352)
(-2217.8805 777.48892 102.43402)
(-2510.3293 852.65753 111.03358)
(-2541.1815 843.91504 112.30628)
(-2572.7872 836.31018 112.31301)
(-2878.675 908.91064 112.74308)
(-2909.2769 899.66072 116.97675)
(-2940.8191 891.76025 119.6793)
(-3255.633 961.28403 112.34239)
(-3284.6664 951.18561 119.38267)
(-3316.0683 943.22497 124.52459)
(-3634.1325 1008.6186 110.34628)
(-3661.6522 998.63531 119.73967)
(-3692.2503 990.78587 126.32913)
(-4006.8671 1051.2923 107.00953)
(-4032.7172 1041.3341 117.78993)
(-4062.0297 1033.5584 125.21417)
(-4366.2032 1088.9188 102.53042)
(-4390.2205 1079.528 113.86265)
(-4417.891 1071.6782 121.5319)
(-4704.41 1121.7924 97.507141)
(-4726.7892 1112.9648 108.5343)
(-4752.3158 1105.3805 115.43432)
(-5014.623 1150.6539 92.319396)
(-5035.3024 1142.7953 102.07463)
(-5058.8069 1134.8792 108.0116)
(-5291.8327 1175.3423 87.470079)
(-5311.3047 1168.0732 95.191975)
(-5332.3298 1160.5144 99.248794)
(-5533.0555 1197.6833 83.143836)
(-5550.6525 1190.9672 88.160123)
(-5570.1192 1183.4209 90.853383)
(-5738.3716 1217.0576 79.032061)
(-5755.6945 1211.1952 81.764127)
(-5773.4725 1204.231 82.906952)
(-5912.2615 1236.0606 75.151284)
(-5928.9119 1230.6017 76.290162)
(-5945.0208 1223.8122 75.80859)
(-5994.7373 462.8189 18.547854)
(-6009.7327 456.78466 18.481923)
(-6026.4654 451.39107 17.605188)
(-5935.9535 710.09294 35.154126)
(-5960.0213 705.2526 35.146174)
(-5975.3402 700.15677 34.057439)
(-6075.2327 992.38778 54.58869)
(-6096.1862 986.59862 54.296056)
(-6112.306 981.87118 53.011859)
(-69.983539 -73.662387 -47.220746)
(-78.094931 -85.184565 -20.923146)
(-83.923257 -89.760964 12.554561)
(-130.42681 -168.70396 -57.506737)
(-147.38325 -176.27023 -21.695717)
(-149.26262 -178.99949 18.198119)
(-253.60513 -254.02536 -66.695325)
(-274.05331 -256.37395 -35.597576)
(-283.01893 -267.3134 6.9522663)
(-405.44109 -314.36321 -69.147097)
(-429.36078 -320.88015 -39.147719)
(-440.00928 -327.54604 -6.455517)
(-600.38507 -368.81866 -72.475539)
(-628.70891 -376.37333 -46.037659)
(-643.26432 -383.02661 -16.004422)
(-826.21628 -407.11499 -70.277837)
(-853.48751 -412.83994 -48.55671)
(-875.21911 -422.45852 -22.19023)
(-1084.0682 -433.29047 -67.186881)
(-1115.3899 -442.08071 -47.578566)
(-1137.1453 -448.66545 -26.061928)
(-1374.2545 -448.99258 -60.751419)
(-1404.3027 -456.49794 -45.587393)
(-1429.6312 -465.35713 -26.795297)
(-1691.8448 -452.32143 -53.61014)
(-1723.9891 -461.30975 -39.879213)
(-1750.6631 -469.47628 -27.573407)
(-2036.56 -444.97878 -43.317459)
(-2069.1284 -452.81291 -36.097766)
(-2098.3879 -462.07434 -25.126886)
(-2407.5421 -425.7959 -32.991826)
(-2437.4819 -434.48631 -26.949457)
(-2465.6161 -442.33538 -21.307727)
(-2792.0665 -396.0462 -21.790138)
(-2820.0309 -403.5547 -19.968234)
(-2848.5077 -411.70237 -17.43212)
(-3182.657 -355.32604 -11.658483)
(-3209.6319 -362.48975 -12.080387)
(-3236.9324 -370.13794 -13.076816)
(-3569.9966 -305.67714 -2.2014594)
(-3595.1366 -312.39941 -5.3721561)
(-3621.0027 -319.50177 -8.8581974)
(-3943.2249 -249.36853 5.23471)
(-3966.3803 -255.14203 0.65292518)
(-3991.1787 -261.95199 -5.0741081)
(-4292.8408 -188.28445 10.844833)
(-4314.4127 -193.80798 4.8971126)
(-4338.0841 -200.16485 -1.8840636)
(-4612.6033 -126.0849 13.961092)
(-4632.3716 -130.87648 8.1428324)
(-4655.4105 -136.80566 0.65406294)
(-4897.8092 -63.898056 15.318469)
(-4916.1823 -69.056132 9.601093)
(-4938.4893 -74.975253 2.354278)
(-5148.0933 -5.9219198 15.127064)
(-5166.8783 -10.859854 9.8699777)
(-5187.6331 -15.919335 3.5893059)
(-5365.7164 47.779965 12.863731)
(-5382.1197 42.71911 9.3774613)
(-5403.4302 37.397203 4.0253666)
(-5556.1266 96.731999 10.53669)
(-5570.7442 91.661361 7.8930022)
(-5591.6015 86.035539 4.0202536)
(-5723.6795 139.86436 8.2000029)
(-5738.6555 133.90152 5.7385988)
(-5757.451 128.06252 3.5813543)
(-5875.503 178.08451 4.6029586)
(-5890.5541 172.29875 2.9528529)
(-5906.85 166.46086 1.7886825)
(-7.5565844 -24.716057 35.629297)
(-97.453047 -105.2085 31.498224)
(-218.70486 -131.75531 21.463368)
(-396.03272 -176.23218 17.332472)
(-606.30001 -205.88886 11.621766)
(-850.5245 -222.35634 7.1330538)
(-1128.4047 -232.11261 4.6396048)
(-1431.2131 -226.4867 4.4349043)
(-1758.0526 -210.04067 5.8840038)
(-2102.7781 -180.67223 7.9537115)
(-2458.2474 -142.49566 11.85822)
(-2818.568 -94.731458 15.931253)
(-3176.4847 -41.246733 19.660015)
(-3525.4928 15.422626 23.294498)
(-3860.2537 73.303096 25.915236)
(-4176.3047 129.67994 27.659005)
(-4470.8671 183.10594 28.434659)
(-4743.0837 232.35936 28.345834)
(-4993.4289 276.75602 27.452805)
(-5224.1728 316.57911 26.032665)
(-5439.6432 352.22488 24.151248)
(-5643.3577 384.58658 21.772159)
(-5819.6826 413.91367 19.316912)
(12.525927 -15.380609 0.79520858)
(-80.302305 -31.895241 3.9368131)
(-224.96446 -28.307308 -1.9840386)
(-419.45558 -35.123876 1.1204035)
(-655.74529 -24.389375 2.9398723)
(-926.7723 -9.4977253 6.8011291)
(-1224.0917 14.891467 12.91509)
(-1535.8688 44.616598 21.174069)
(-1855.6461 83.386571 28.262128)
(-2169.9788 123.68382 36.636925)
(-2474.233 167.21067 43.958335)
(-2761.8606 211.74094 48.799264)
(-3030.7953 254.27623 52.653948)
(-3283.1063 295.65485 54.175823)
(-3522.1842 334.5703 54.245473)
(-3754.0602 371.88944 52.92565)
(-3986.0872 407.9764 50.851552)
(-4224.8604 443.98219 48.109084)
(-4477.1027 480.50526 45.324837)
(-4746.8752 518.76386 42.604126)
(-5038.3798 559.70469 40.284913)
(-5350.5371 602.97989 37.960578)
(-5719.8096 653.41724 36.556251)
(27.09369 26.186039 -34.304802)
(-91.650357 40.637524 -27.062316)
(-233.00737 112.62091 -30.284604)
(-416.21357 139.33404 -8.9963689)
(-637.54981 196.2656 0.4601657)
(-881.83492 244.39795 13.728349)
(-1149.4065 289.65033 28.975184)
(-1434.8099 339.22719 40.445646)
(-1731.1258 382.1654 53.116478)
(-2036.3812 426.42394 63.836076)
(-2346.386 467.58892 72.116171)
(-2658.7063 507.3056 79.174254)
(-2971.2817 545.57234 83.921605)
(-3282.3681 582.85045 86.928129)
(-3589.9661 619.55012 88.06952)
(-3893.1737 656.0767 87.663968)
(-4190.87 692.7227 85.67848)
(-4482.2218 729.76337 82.474315)
(-4767.311 767.61917 78.210915)
(-5045.9801 806.47693 73.368253)
(-5319.4066 846.44046 67.540973)
(-5589.0739 887.6456 62.043658)
(-5860.8493 931.72461 56.872615)
(-16.478369 -24.421297 -29.44794)
(-23.342542 -27.614634 -15.377041)
(-29.213948 -27.040969 7.317075)
(-96.371101 -96.965644 -30.989669)
(-116.37147 -100.30326 -12.680095)
(-115.44104 -100.09388 15.22957)
(-215.04024 -136.7684 -36.965788)
(-234.43174 -137.38688 -18.41839)
(-241.01342 -141.50763 1.6705493)
(-375.11912 -176.81264 -40.174785)
(-403.22617 -182.70338 -22.544585)
(-411.90245 -182.50699 -0.66401624)
(-578.34982 -203.38466 -40.144188)
(-607.54456 -206.99751 -25.442983)
(-623.06167 -210.94332 -5.5564278)
(-817.26951 -218.37713 -39.221198)
(-849.59738 -225.14957 -24.649779)
(-867.541 -228.79729 -7.0972269)
(-1087.5012 -221.66247 -34.681542)
(-1121.6117 -229.60215 -22.242053)
(-1144.472 -234.33671 -8.6617492)
(-1386.4901 -213.21346 -27.572432)
(-1421.1339 -220.81518 -17.673158)
(-1446.4717 -226.66616 -5.571866)
(-1706.3537 -191.4099 -18.870019)
(-1740.2263 -201.38668 -11.239742)
(-1768.193 -208.43939 -1.8864889)
(-2040.9654 -160.1758 -8.8943297)
(-2074.7975 -170.88062 -2.9771864)
(-2103.9756 -176.46939 3.1727386)
(-2384.8109 -119.31762 1.565695)
(-2416.4334 -129.42522 5.4233591)
(-2446.2686 -136.73951 8.729839)
(-2729.5245 -71.453415 11.405882)
(-2759.6503 -81.92655 13.28808)
(-2789.2735 -88.388434 14.924523)
(-3070.2955 -19.082536 20.074949)
(-3097.6148 -28.917875 20.814712)
(-3126.5537 -35.261376 20.03773)
(-3400.5244 35.868263 27.267821)
(-3425.5798 26.37935 26.355028)
(-3452.9259 20.764848 24.480867)
(-3716.8834 90.911753 32.169635)
(-3739.2333 82.244099 30.493365)
(-3765.2212 76.930385 27.60213)
(-4016.2822 144.55448 35.326723)
(-4036.7098 136.47674 32.729581)
(-4061.0017 131.64288 29.544632)
(-4298.3908 195.67088 36.3284)
(-4317.1308 187.9799 33.508708)
(-4340.1319 183.34992 30.147376)
(-4563.9552 242.93303 36.023201)
(-4581.5991 235.76734 32.815681)
(-4602.9248 231.29161 29.890366)
(-4813.395 286.18754 34.240342)
(-4834.1278 279.55386 31.264375)
(-4852.8411 275.29047 28.722733)
(-5079.9832 328.58916 31.714858)
(-5051.1823 318.77028 28.636902)
(-5092.1827 315.36325 27.045807)
(-5315.234 365.10546 28.912227)
(-5284.3312 355.01542 26.23163)
(-5324.4575 351.72894 24.907128)
(-5523.7361 397.77218 25.08256)
(-5536.1354 391.0749 23.096606)
(-5553.9318 386.28213 22.634524)
(-5754.3437 430.02212 21.773214)
(-5770.8513 423.89433 20.466282)
(-5786.6439 418.43009 20.255225)
(8.3515775 -7.7127 -4.1258243)
(-3.6919068 -13.960926 -0.79697945)
(-11.634353 -11.389427 0.43376173)
(-79.073171 -18.942753 1.2595819)
(-94.407156 -26.059806 3.510834)
(-94.891528 -21.006471 4.6593706)
(-212.12724 -23.522627 -2.7355107)
(-231.40724 -27.615912 -5.0496329)
(-242.2564 -24.51688 -0.19620787)
(-387.61241 -17.252361 -1.0012489)
(-415.47891 -25.410252 -0.046633692)
(-426.05955 -18.693104 0.98303477)
(-612.24552 -6.503798 1.5346413)
(-641.43702 -13.180277 -0.21876202)
(-657.29806 -10.463063 4.0263682)
(-866.70874 14.704027 5.4566014)
(-898.50274 5.4800864 6.131409)
(-919.87209 7.9184165 7.1217367)
(-1149.7626 41.154874 12.59854)
(-1184.3553 32.623842 11.159987)
(-1206.9897 34.26836 13.848863)
(-1449.5452 75.724753 18.845856)
(-1484.0102 65.7772 18.830178)
(-1509.7595 63.955626 21.31552)
(-1755.8419 112.44008 27.006444)
(-1791.4349 102.80863 27.414741)
(-1818.7125 101.2894 29.119973)
(-2063.1468 153.08877 34.852886)
(-2097.1754 144.40074 34.32751)
(-2125.8429 140.91084 36.37417)
(-2361.6573 194.73721 41.245597)
(-2394.7918 186.39762 41.01152)
(-2422.9698 181.93907 44.124302)
(-2648.6521 235.91229 46.717445)
(-2679.0996 228.37863 46.6655)
(-2707.6001 223.34695 49.069927)
(-2921.0609 276.00177 50.599448)
(-2949.1124 269.48201 50.268729)
(-2976.2431 264.03862 52.911063)
(-3179.8743 314.58284 52.665888)
(-3204.7862 308.88208 52.362327)
(-3231.0378 302.89304 54.83626)
(-3428.1723 351.56788 53.29934)
(-3450.3156 346.31977 53.05667)
(-3475.1808 340.55798 55.189245)
(-3670.8156 387.50245 52.718678)
(-3690.3996 382.71494 52.331835)
(-3714.066 376.71304 54.108897)
(-3914.3487 423.12027 51.04282)
(-3932.1481 418.05721 50.832245)
(-3954.1952 412.64046 52.282379)
(-4164.8186 458.77652 48.893533)
(-4181.1359 454.17336 48.680698)
(-4202.1088 448.51095 49.545674)
(-4428.6509 496.59465 46.39723)
(-4444.5257 490.96663 46.164119)
(-4464.0961 486.00749 46.710015)
(-4707.1607 535.37252 43.691043)
(-4728.1506 530.71658 43.69525)
(-4744.8807 524.8953 43.968548)
(-5002.0552 576.29343 41.583528)
(-5046.9255 574.98005 42.562704)
(-5045.8743 566.60652 41.083429)
(-5336.7731 622.93237 39.190353)
(-5351.2673 616.37732 38.986642)
(-5367.4181 611.97007 38.846394)
(-5679.8056 670.56867 37.127341)
(-5695.9686 664.67032 37.042983)
(-5712.383 659.40316 36.558781)
(8.293002 22.777045 20.532268)
(5.2714301 21.995825 1.585628)
(2.8556319 17.371498 -15.371545)
(-95.70826 64.618319 30.664904)
(-110.87435 52.395863 6.0269864)
(-110.50155 55.284708 -9.4231201)
(-214.68843 114.64185 33.464939)
(-237.63654 124.58629 12.112159)
(-245.35809 117.9375 -7.9673243)
(-387.30789 168.49621 38.036304)
(-410.7161 164.05393 18.368304)
(-422.14394 159.77271 2.82689)
(-589.27209 216.52229 41.329896)
(-618.15516 220.08823 25.127873)
(-634.12055 211.28977 13.536401)
(-822.5803 268.72911 47.642468)
(-852.93411 269.95649 34.207083)
(-871.72102 260.56131 23.928882)
(-1079.9301 319.32171 52.524361)
(-1111.8109 318.85704 42.05587)
(-1134.2677 307.09728 35.210302)
(-1355.7652 366.50911 58.597799)
(-1387.6238 366.20603 52.376865)
(-1413.3649 354.61774 46.279324)
(-1645.9649 412.87318 64.884161)
(-1678.4129 410.8859 59.668481)
(-1706.6754 398.41794 55.706221)
(-1946.5212 456.34002 69.341401)
(-1978.5687 453.25219 67.127969)
(-2008.123 440.74086 65.855571)
(-2254.2449 496.78793 73.678818)
(-2285.3554 493.0233 73.511224)
(-2316.3984 480.87794 73.174709)
(-2566.2603 535.52274 76.818066)
(-2596.1289 530.50902 78.028311)
(-2627.4229 519.021 79.125241)
(-2880.101 571.953 78.574818)
(-2908.342 566.37381 80.963414)
(-2939.4783 555.79246 83.230392)
(-3193.7389 607.31682 79.269204)
(-3220.3269 600.82397 82.524684)
(-3250.7976 591.22007 85.398416)
(-3505.4166 641.70539 78.760083)
(-3530.2206 634.70242 82.329635)
(-3559.586 626.30679 85.744156)
(-3813.6423 675.82938 77.230132)
(-3836.8005 668.57792 80.841332)
(-3864.4972 661.18415 84.696842)
(-4117.0593 710.41905 74.690775)
(-4138.4744 702.96431 78.297314)
(-4164.4887 696.49759 82.158069)
(-4414.7272 745.53838 71.719021)
(-4434.8982 738.32623 74.76518)
(-4458.7994 732.5012 78.518696)
(-4706.1668 782.16094 68.184819)
(-4724.8416 775.07245 70.739904)
(-4746.7758 769.56066 74.381494)
(-4990.9089 820.11119 64.47174)
(-5009.1216 813.61236 66.657238)
(-5028.9178 808.36341 69.696242)
(-5269.7813 860.12876 61.483833)
(-5286.7514 853.59361 62.867199)
(-5304.4409 848.10165 64.570635)
(-5543.3896 902.05508 58.437865)
(-5559.8505 895.52152 58.93987)
(-5576.5077 890.16504 59.893236)
(-5812.8173 945.86075 55.756696)
(-5828.6648 940.19739 55.907094)
(-5844.8754 934.91347 56.443105)
)
;

boundaryField
{
    free
    {
        type            zeroGradient;
    }
    fixed
    {
        type            fixedValue;
        value           nonuniform List<vector> 
25
(
(-2.5953868e-15 -2.1703571e-16 4.2716933e-18)
(-1.3028228e-15 -3.4252847e-16 3.3068324e-16)
(-1.9658614e-16 -3.2115893e-17 -1.1045223e-16)
(-3.6361799e-15 2.112754e-16 -3.2990721e-16)
(-3.8783653e-15 3.5858996e-16 7.5215743e-16)
(-2.0449562e-15 -3.5718549e-16 -7.3673077e-16)
(-9.8459492e-16 7.8127033e-16 2.7525688e-16)
(-1.4121951e-15 -1.0527101e-15 6.223458e-16)
(-4.8813632e-16 1.9183015e-16 -1.0607077e-16)
(6.5239771e-16 2.739523e-16 -5.5565719e-16)
(-3.9146975e-16 7.8165185e-18 1.2560621e-16)
(1.4766345e-16 -3.4299605e-16 -2.8648028e-16)
(1.6350797e-16 -2.4226884e-16 -1.2066667e-17)
(-1.0304172e-15 -9.2669207e-16 -7.5672327e-16)
(-2.6214496e-15 -5.6404768e-16 7.244144e-16)
(-6.4481012e-16 3.525084e-16 2.7116342e-16)
(-1.0135278e-15 7.0169807e-16 1.7538027e-16)
(-3.5205005e-15 9.4737515e-16 -2.5196009e-17)
(-3.8147498e-15 1.043275e-15 1.2924308e-16)
(-2.4010456e-15 1.4295629e-15 -1.6975308e-16)
(-1.2019486e-15 6.189313e-16 -3.4292956e-16)
(2.8178306e-17 1.9013092e-16 6.1994168e-17)
(-1.2511779e-16 -6.848356e-17 2.1836215e-16)
(-3.8898857e-17 4.7141393e-16 -3.1043199e-16)
(-3.7042918e-15 1.4868296e-15 -1.3023874e-15)
)
;
    }
    freeTop
    {
        type            zeroGradient;
    }
}


// ************************************************************************* //
