/*--------------------------------*- C++ -*----------------------------------*\
  =========                 |
  \\      /  F ield         | OpenFOAM: The Open Source CFD Toolbox
   \\    /   O peration     | Website:  https://openfoam.org
    \\  /    A nd           | Version:  6
     \\/     M anipulation  |
\*---------------------------------------------------------------------------*/
FoamFile
{
    version     2.0;
    format      ascii;
    class       pointScalarField;
    location    "0.82";
    object      p;
}
// * * * * * * * * * * * * * * * * * * * * * * * * * * * * * * * * * * * * * //

dimensions      [1 -1 -2 0 0 0 0];

internalField   nonuniform List<scalar> 
625
(
452786.54
-579051.64
-1368.6408
-993.92616
747480.84
-1328097.7
-795.68924
-229.08086
324809.76
66572.73
36177.504
1828.3509
1445.3858
-270.36533
191814.15
194049.87
180356.6
168480.35
134331.42
127051.54
98663.679
81142.955
70686.708
52123.47
42034.853
32329.64
24074.873
17278.301
12046.33
7777.8403
4722.3869
2581.8747
680.50102
1855.4384
1430.3763
1131.8656
821.23858
-198525.27
-107592.54
-154358.67
-104975.77
-98955.293
-96119.287
-79541.761
-69814.629
-62338.148
-51375.627
-43931.986
-33566.938
-27187.217
-19216.759
-12968.888
-7532.0231
-3012.8605
416.97274
1972.6809
4561.1116
3641.3096
2862.1317
1861.4781
405439.15
-86133.17
-204762.48
-231420.21
-279594.28
-195413.87
-159381.26
-191990.27
-121153.89
-117727.12
-102271.42
-79069.003
-66025.033
-44834.894
-35434.403
-18801.138
-10917.254
-4257.055
2339.2744
4011.489
5318.1132
5281.2123
4163.4645
1798.8377
733.16216
-1162.4979
-953.00098
1458.9044
959.71522
311.40536
1099.4574
2396.2551
5068.7985
8424.1773
11441.144
16623.536
21157.529
27889.49
34387.918
42364.64
51325.208
59887.262
67551.851
84603.299
91397.908
108600.88
115321.91
144808.16
130367.8
169899.25
181773.9
160728.56
511283.6
431870.83
372900.96
-687223.46
-691676.83
-653389.61
-4012.327
-2102.6562
-3036.1773
51.155834
-1547.4903
-1616.4279
110725.93
122496.38
119684.83
101229.43
93595.231
86223.908
69019.956
63915.005
51553.288
40690.779
34978.498
26884.762
20676.012
15143.483
11599.048
8039.1026
6011.3233
4101.7589
3093.4769
2193.9224
2222.9831
1369.108
732.18359
-2110.1469
16783.045
-879.11844
14198.624
2663.525
5770.1107
1972.9654
2696.5496
-5.4773369
-2027.1325
-2358.724
-3756.159
-4271.7908
-4055.6146
-3601.0932
-3369.6718
-2407.8319
-2065.0534
-632.02786
-793.57556
1189.231
712.57852
1523.1742
-98898.241
-83154.233
-78635.458
-61426.697
-77708.154
-50854.475
-52933.658
-43226.137
-37424.789
-31429.799
-23884.341
-19092.364
-14109.42
-10196.035
-7048.8412
-4736.0481
-2662.9655
-1429.2743
248.89221
-342.38875
-772.2239
897.93338
-181.45819
261090.53
224776.14
242237.73
17309.904
10319.073
-28465.986
-10478.924
-53784.815
-120398.35
-297803.64
-302766.96
-315631.95
-211292.93
-211323.29
-201349.49
-174329.31
-172774.37
-186999.46
-129187.78
-135921.95
-143470.2
-129055.64
-136777.82
-151635.01
-111947.08
-111793.08
-115958.35
-99054.153
-99547.986
-109591.71
-83909.647
-83251.414
-90723.994
-71606.253
-69771.567
-74924.961
-59144.562
-55655.346
-60085.571
-45659.634
-40566.637
-44926.507
-35306.954
-30691.181
-33624.143
-24771.409
-19392.674
-21127.696
-16711.834
-10865.475
-11725.501
-9726.6448
-4164.0007
-5382.1933
-4689.3069
284.77121
106.19778
-1095.6323
3711.4087
3648.6871
1148.5467
5410.1966
4989.3641
2901.9745
5743.5259
5570.2048
2663.4134
5196.496
5111.1641
2854.6781
4187.0838
4086.0469
1156.1012
3302.1778
1862.7378
1845.8178
1546.0469
2135.9602
1204.6218
839.75269
604.27145
125.90308
319.17369
873.7797
2156.4153
926.08833
771.50375
233760.37
206672.73
215777.05
216069.22
187593.35
180427.28
204988.23
174956.61
177446.6
163343.65
145813.66
149577.7
152004.84
138333.29
127722.86
132145.08
106377.33
111675
107255.97
96032.48
100933.83
95762.55
80652.005
83658.31
77828.866
67517.468
69719.353
63087.865
56317.644
60382.936
52519.686
45521.387
50353.782
41313.838
35752.89
42855.611
30814.978
29114.038
35388.884
23468.653
22344.632
28888.72
16259.342
17218.308
23394.986
10981.453
12282.754
18322.676
6917.8054
8640.524
14372.828
3481.4225
5484.75
11048.184
2019.6809
3450.6732
8202.3899
880.9126
2106.2393
6281.125
488.93432
560.70538
5204.0449
-37.452117
1280.3799
3035.228
-853.8534
-613.51964
842.70106
97295.447
111310.89
88511.244
95272.89
93287.805
80029.671
72070.749
62143.77
55416.415
44740.98
40149.402
31090.769
24866.558
20017.284
15102.832
11728.201
8399.0282
5830.7121
3979.401
2201.1922
1481.5196
225.89024
-110.13483
-42697.534
-10112.706
-10018.889
2816.469
11446.188
2094.8165
8266.1476
9945.3827
8477.997
9568.2304
11886.303
11817.779
12207.755
11796.369
11686.953
10250.565
9021.9919
7584.6949
5924.8112
4255.4937
2713.3657
1649.938
867.28498
-114273.87
-109765.99
-118810.07
-96829.712
-84963.264
-78186.352
-54030.234
-46362.735
-34559.355
-25132.774
-16417.374
-9580.5328
-5454.0009
1089.609
3928.2988
7065.81
9129.5576
10457.178
9876.4138
9441.0034
7588.5211
5385.6922
3124.1351
167299.13
162287.95
120304.81
139854.28
125358.74
112777.64
104213.54
102637.04
115017.38
95075.657
112147.51
78953.796
104729.96
79875.806
82778.788
71017.421
82656.987
82804.359
73633.762
78146.961
67318.112
65048.42
60091.626
60507.159
47791.099
52865.951
56305.4
42969.983
47550.314
47019.167
31976.323
35931.273
37176.478
22682.19
29292.001
32162.888
16642.219
23041.445
25017.265
11286.746
17221.343
20178.704
6626.6982
12755.29
15117.298
3753.3417
9498.5513
11690.418
1417.8516
6940.5155
8729.1641
355.84136
5349.1934
6251.4312
-134.37795
4138.8512
4372.1759
-379.42827
2733.0134
3177.3371
-1698.0187
3802.3478
653.10074
-645.2966
340.81871
157.0258
-12.8029
1621.4222
324.2567
8504.9434
-32316.124
-14631.496
9555.1658
15625.916
4815.9418
23313.019
11670.099
-3134.6371
15893.614
4733.3743
-7855.129
9890.0906
9603.6936
7854.1041
7974.6647
15683.275
844.39444
14390.53
10563.276
-874.69521
4174.9156
7414.4545
3363.8798
5510.0442
11867.364
3666.9586
6468.5421
9553.8285
3266.6926
3711.2633
7703.2999
2656.0935
3387.745
8403.301
4559.3757
2131.0253
7775.8777
3203.268
1445.1635
5830.3888
2804.4811
-607.98561
5503.8343
2533.2292
-953.76786
4042.258
1797.4563
-2236.3101
3278.9576
954.42105
-1858.4091
1931.3026
105.80677
-2906.8422
965.35197
-91.718079
-519.04045
72.080772
-1083.7189
-3645.4556
122.39737
-377.91089
-1301.6623
1098.4873
-634.21115
503.58629
1113.617
398.34438
-129310.19
-150420.45
-194634.42
-72893.214
-75961.473
-122428.44
-71275.737
-119116.53
-121557.1
-93326.504
-77651.325
-97203.293
-58385.118
-71092.514
-82860.068
-53899.511
-61837.342
-76107.531
-47994.514
-50826.368
-59003.017
-37308.994
-42506.354
-47619.623
-28379.442
-31816.696
-35782.294
-23068.914
-27583.074
-28477.734
-17907.73
-21613.961
-19631.207
-14033.094
-15587.081
-12779.578
-9685.2804
-12563.366
-8927.8458
-7408.7615
-8376.0798
-4139.8567
-4796.3851
-4978.9909
-411.84438
-3121.0205
-1505.8706
1400.5794
-1210.1397
716.27488
3474.9642
-549.9654
3080.5089
4145.0078
794.14959
3578.9846
5280.885
-598.19376
6134.8173
4066.5957
3683.9628
3354.2351
4126.4626
718.6882
3462.0553
1798.6001
1228.0668
1718.3627
1433.9327
)
;

boundaryField
{
    free
    {
        type            calculated;
    }
    fixed
    {
        type            calculated;
    }
    freeTop
    {
        type            calculated;
    }
}


// ************************************************************************* //
