/*--------------------------------*- C++ -*----------------------------------*\
  =========                 |
  \\      /  F ield         | OpenFOAM: The Open Source CFD Toolbox
   \\    /   O peration     | Website:  https://openfoam.org
    \\  /    A nd           | Version:  6
     \\/     M anipulation  |
\*---------------------------------------------------------------------------*/
FoamFile
{
    version     2.0;
    format      ascii;
    class       pointScalarField;
    location    "1.08";
    object      E;
}
// * * * * * * * * * * * * * * * * * * * * * * * * * * * * * * * * * * * * * //

dimensions      [1 -1 -2 0 0 0 0];

internalField   nonuniform List<scalar> 
625
(
69208.713
64071.746
-879279.99
-403597.45
61451.106
71448.408
-606710.1
-1308730.5
21005.529
6371.881
34891.322
-474454.86
-464463.86
-345529.31
90910.17
77957.311
69698.482
61531.99
49974.606
41981.969
33646.631
26067.079
20561.03
14932.388
11228.722
7463.6391
4662.9468
2637.994
1049.7228
-284.26976
-393.1378
-1124.3682
-849.33577
-1428.7189
-1280.1107
-2026.7348
-28.43565
70641.166
45671.137
51072.25
41529.345
34995.781
30489.23
21493.368
18450.994
13774.652
9381.0299
7660.0092
4103.1767
2701.002
909.91947
-120.87796
-1184.5321
-1540.2962
-2169.4065
-1604.9102
-2907.0791
-871.13853
-2359.9652
-952.44884
16542.036
5489.6145
36832.838
122454.59
119621.73
75506.296
80768.292
69860.742
40254.205
44300.897
28514.821
25878.461
19999.107
13254.241
10826.6
6030.9314
3784.6067
1297.8429
-711.83544
-2178.5625
-3474.5424
-4885.5936
-5669.4324
-6600.4393
-7436.5011
-12487.906
-906000.41
-997823.94
-963694.61
-6279.8688
-5772.5039
-3480.2343
-3965.9384
-4152.665
-4159.4544
-4420.5706
-3694.8112
-3072.0797
-1314.2868
36.353117
3638.8633
6215.1971
12327.544
17299.674
20114.139
30387.885
36789.793
47374.849
53791.745
69139.979
71123.865
85251.871
60187.399
57791.74
56739.821
52273.11
52826.642
56180.198
-455298.59
-454876.07
-456266.5
-985934.28
-986896.03
-986865.14
40458.908
31918.652
31164.672
25751.332
21537.328
18015.817
14084.85
10973.08
9100.5666
6448.1585
4938.3043
3395.9451
2331.6457
1833.0231
989.17575
931.52503
677.76416
444.9956
1300.1035
892.54285
2016.1246
2471.8215
5774.7397
11442.694
9613.14
12240.821
9778.9662
10007.912
10424.323
8094.5132
9185.4927
7563.2442
7265.7445
7086.1415
6504.9051
6231.4507
5824.7757
5412.6558
5218.6679
4925.6074
4789.2518
4774.7372
3848.2842
5694.1422
3390.69
8729.271
21034.323
20310.141
19776.835
16412.167
16653.771
14242.824
11899.115
10866.164
8423.2206
7957.9673
5639.3838
5104.1146
3910.1709
3377.0188
2681.1315
2697.1328
2134.279
2679.8911
1982.0214
3605.8932
2317.5829
4514.0109
5869.0762
13829.529
13908.306
12216.101
4110.998
3754.0829
6503.1285
16603.48
19457.253
21068.156
89052.701
93485.419
104793.42
97024.84
95807.685
97036.53
64181.436
60846.166
68550.926
59150.051
65459.311
67068.629
49979.693
45361.432
53159.775
40935.689
39248.481
40996.841
34843.824
32364.733
39512.598
27993.418
21538.601
27340
23656.898
19102.938
23160.314
20496.397
11805.546
17726.138
15287.206
9110.4121
13309.962
13071.834
5726.2119
10199.468
9705.2694
2820.8293
7285.1721
7764.6664
1008.3119
4908.1812
5777.5552
-829.56701
3130.7388
4186.8382
-1930.9689
1575.0598
2790.0302
-2878.2834
273.29535
1670.0087
-3540.9492
-723.70136
594.24235
-3907.316
-1697.8702
-717.63736
-4692.9473
-2826.9049
-1191.0083
-4310.1355
-3154.5624
-1994.8175
-4241.6916
-3826.5789
-5102.7276
-6698.7622
-5200.9307
-639368.1
-637266.7
-637633.65
-568226.63
-624665.65
-624657.42
-654844.87
-604354.36
-604596.69
89660.396
78149.367
75151.288
84577.533
77593.01
78089.828
75147.529
67066.752
63911.225
63504.379
56377.089
55763.032
52419.76
49954.804
47301.598
43575.375
38866.439
37490.279
35180.244
32925.316
31807.715
28828.839
25629.373
25434.849
22196.221
19585.554
18793.029
15861.259
16188.81
13976.199
12789.61
11687.809
10453.174
8795.5118
7742.9338
7109.2383
5850.0932
5184.3103
4686.5702
3862.579
3055.5212
2637.4939
1864.5264
1328.9152
1294.5267
784.57479
343.42185
176.60481
84.430265
-447.30276
-337.6014
-438.25474
-738.36938
-794.37667
-558.63448
-670.16392
-772.82549
-662.5847
-687.51104
-934.2198
-398.86235
-912.24689
-847.33905
-4438.5716
-3855.1295
-3339.2942
-3742.5894
-5277.8223
-5185.5191
53620.185
49003.959
44929.812
38158.734
35706.767
28471.243
26693.997
21816.323
17246.878
16554.569
13326.814
10596.131
8847.6387
7148.414
5683.1959
4645.3721
3529.1529
3085.811
2202.1664
2018.8967
2264.9471
2481.8361
6850.9764
7243.3527
24192.723
6898.3684
15763.139
10767.439
8843.6974
10029.201
7129.4506
8125.4447
6341.4196
6423.8841
5733.1712
5620.5963
5534.1795
5399.2587
5452.7773
5641.3692
5857.6163
6099.768
6536.1317
7440.6749
5307.2302
11147.965
41824.647
18188.913
22784.946
24800.786
16866.939
17247.131
13054.861
11550.273
6834.4587
5762.5247
3894.4177
2525.8208
1714.3544
1061.8078
674.56788
616.35425
786.99361
1030.3228
1578.7854
2464.9807
2374.6422
4922.8167
3519.8984
50857.263
43990.931
42625.702
45215.668
43919.284
40443.559
39605.404
38632.846
34970.094
34101.739
31279.766
30433.738
29502.648
29016.164
27194.955
25093.594
22784.625
21908.333
21476.619
20439.167
19597.301
17630.686
16969.869
15832.58
14513.013
13931.901
13340.394
12248.029
11030.25
10976.68
10262.128
9547.0263
9319.4316
8270.4648
7810.3483
7301.4319
6886.393
6455.171
6069.9411
5746.534
5202.9238
4929.0896
4579.3603
4301.5414
4090.4326
4147.0994
3655.4231
3304.941
3090.009
2901.7066
2828.23
3019.6054
2707.2325
2234.5532
2416.9381
1930.5088
2196.6031
1547.3489
1622.7131
1386.2408
2641.7011
2363.6722
2283.9719
2922.2414
3719.6216
2890.1854
7261.2339
5687.0502
6919.4299
11260.592
10074.11
7665.5224
18317.686
24374.777
23925.63
11077.364
8133.767
7161.0277
11953.201
13861.7
14804.032
10269.275
9312.5168
9916.6351
10159.414
7822.3386
8241.7515
7795.7165
7503.7864
8820.6831
8240.3684
5638.8042
5790.3782
6941.3826
4953.1255
6577.2183
6442.1843
4625.4354
5240.9138
5943.2648
3930.5844
4807.0649
5339.382
3634.5494
4361.5312
5207.6175
3306.8823
3829.6302
4811.9624
3068.8487
3659.453
4735.7586
3015.8121
3412.3945
4593.9757
3077.8098
3340.721
4594.6598
3116.6141
3219.9587
4712.4804
3320.8405
3473.106
4717.2395
3801.8181
3565.9261
4593.0597
4030.5504
3703.3443
6749.5816
4155.2991
5790.8633
3582.3588
3340.914
2118.7417
8939.9508
8091.0904
8519.4067
26426.748
30387.809
34885.754
19504.441
21889.349
28896.225
18524.5
26630.65
27373.723
18049.746
21872.86
24482.864
14518.179
19852.397
20379.668
11147.972
17303.983
18593.378
9979.8939
13707.977
13502.553
6390.5014
11878.823
13223.804
5067.6165
9994.0231
10030.646
3398.2597
8190.6729
8300.3085
2198.3733
6322.3568
6527.6137
1574.8356
5286.0058
5417.9423
571.14277
4223.5909
4452.1921
391.40062
3562.7813
3764.7433
35.689733
2939.7028
3505.145
166.9338
2932.1964
3194.7521
260.00941
2302.7184
3149.5026
624.44158
3112.2598
3612.6146
918.7898
2314.4882
3181.3399
1929.9782
4333.6956
4760.2512
928.87094
2388.4799
2974.1389
3164.5088
5579.4549
6492.0966
3780.5157
4265.0576
3517.1698
)
;

boundaryField
{
    free
    {
        type            zeroGradient;
    }
    fixed
    {
        type            zeroGradient;
    }
    traction
    {
        type            zeroGradient;
    }
}


// ************************************************************************* //
