/*--------------------------------*- C++ -*----------------------------------*\
  =========                 |
  \\      /  F ield         | OpenFOAM: The Open Source CFD Toolbox
   \\    /   O peration     | Website:  https://openfoam.org
    \\  /    A nd           | Version:  6
     \\/     M anipulation  |
\*---------------------------------------------------------------------------*/
FoamFile
{
    version     2.0;
    format      ascii;
    class       pointScalarField;
    location    "1.5";
    object      p;
}
// * * * * * * * * * * * * * * * * * * * * * * * * * * * * * * * * * * * * * //

dimensions      [1 -1 -2 0 0 0 0];

internalField   nonuniform List<scalar> 
28033
(
155495.45
-195715.07
5948.0345
2091.3252
309731.19
-249977.22
3529.3563
404.79274
133907.21
120775.2
109722.42
89217.696
66138.705
46340.936
22995.284
667.14371
-21653.098
-41848.667
-64703.74
-74797.366
-105551.12
-121223.74
-125594.64
-14687.382
-8814.7611
-9707.3274
-6263.4689
-5729.113
-3441.1257
-1330.4828
1181.3288
3448.1489
5983.8542
8581.3469
10050.455
11890.711
12750.853
11233.313
37046.991
45968.008
43718.099
49802.672
47718.643
52613.865
53744.337
55949.5
57358.901
60273.957
60686.349
62500.255
64467.205
66354.494
67239.944
68707.548
70992.928
72101.113
74108.412
75619.47
77703.692
79114.788
81950.938
83396.613
85831.703
88110.169
90597.527
92732.826
95441.534
97757.893
100428.83
103099.34
105930.44
108428.23
110865.59
113437.58
116371.05
119088.99
120936.64
123673.12
125457.5
127139.69
128806.73
130570.03
131644.65
133021.87
133770.42
134638.46
135000.58
135424.39
135369.74
135325.21
134915.09
134391.59
133639.12
132684.04
131588.13
130272
128786.04
127190.26
125389.28
123446.12
121242.9
119261.75
116925.95
114368.36
112327.83
109629.95
106386.43
103166.68
99975.628
96763.238
93107.679
89644.827
85666.328
82111.825
77722.954
74106.247
69577.317
65782.481
61254.106
57461.006
52852.93
48372.411
44251.328
39817.8
36019.196
32226.681
27427.524
24353.939
21294.74
15985.229
16381.403
14682.777
11806.5
-37767.796
-34561.79
-42170.756
-38791.519
-45107.762
-43691.785
-48131.481
-46740.066
-50404.35
-49430.316
-52756.427
-52390.027
-54617.852
-55796.685
-57618.516
-58692.479
-60815.334
-62264.817
-64009.011
-66443.018
-68007.879
-70727.328
-72445.115
-75604.141
-77121.8
-80362.805
-82370.876
-85101.53
-87594.763
-90244.732
-92539.173
-95454.696
-97530.263
-100410.12
-102707
-105481.29
-107393.31
-109991.84
-111952.65
-114155.96
-116097.27
-117890.52
-119608.16
-121133.12
-122484.18
-123715.33
-124714.2
-125556.94
-126194.25
-126655.39
-126889.29
-126958.33
-126794.63
-126492.92
-125934.72
-125256.83
-124363.13
-123315.94
-122092.33
-120732.4
-119186.3
-117516.04
-115683.52
-113690.06
-111552.54
-109246.85
-106941.6
-104441.18
-101985.14
-98326.857
-95963.986
-92270.249
-89278.553
-85669.829
-82206.304
-78428.604
-74660.447
-70808.164
-66781.033
-62776.467
-58719.955
-54595.919
-50408.365
-46369.144
-42147.996
-38048.506
-33987.413
-30038.534
-25887.486
-22281.993
-18682.927
-14959.79
-11936.902
-10352.307
-7177.0393
263103.57
260125.03
197701.79
205897.12
150592.39
99885.026
74649.452
19763.562
-14536.802
-64970.74
-95029.033
-137494.86
-176798.37
-201578.21
-221646.21
-48699.756
-46502.791
-26708.3
-48990.38
-44488.345
-48618.683
-50274.039
-51583.98
-55684.129
-55687.883
-59780.34
-56898.176
-63389.383
-59778.758
-67378.124
-65984.552
-71309.136
-66937.087
-73293.75
-70538.611
-74285.815
-74537.384
-79622.913
-80770.34
-81968.482
-86135.491
-86581.589
-91188.88
-92177.401
-96056.088
-97802.823
-101405.92
-103470.39
-106581.84
-109877.35
-110296.74
-114495.29
-117032.47
-119397.51
-121740.86
-123910.58
-125898.07
-127821.32
-129447.33
-130953.42
-132301.46
-133320.02
-134238.24
-134857.11
-135316.31
-135530.67
-135554.76
-135335.64
-134951.73
-134337.67
-133489.64
-132526.29
-131298.07
-129903.22
-128360.54
-126590.78
-124694.85
-122579.62
-120343.64
-117894.54
-115362.19
-112963.71
-109994.73
-103988.16
-103778.81
-100205.04
-96472.385
-92980.675
-89174.84
-85276.285
-81283.509
-77176.509
-73084.588
-68816.536
-64527.095
-60203.628
-55873.637
-51425.452
-47144.476
-42746.215
-38444.063
-34139.984
-30023.382
-25821.507
-21963.648
-18219.981
-14685.731
-12414.703
-9772.3327
-8863.3561
13986.003
15152.488
11387.988
12487.069
7560.7868
7583.7723
3056.4577
1271.7962
-1854.0135
-4676.5205
-4657.8622
-8703.7323
-8080.7559
-12878.648
-10435.859
20894.947
16530.584
16650.287
19651.025
22029.054
25884.64
29528.108
33588.899
37533.607
41847.049
46042.044
50275.94
54592.704
58975.398
63429.928
67681.96
72168.73
76362.591
80582.168
84721.942
88695.312
92658.73
96420.49
99995.21
103203.21
105895.33
107539.45
115355.3
114494.01
118486.87
120913.32
123277.17
125299.84
127347.18
129112.95
130725.06
132205.25
133456.28
134572.37
135490.35
136214.42
136741.43
137102.63
137209.24
137156.05
136867.73
136383.76
135693.88
134781.52
133717.84
132380.09
130932.25
129247.04
127613.87
125480.3
123388.47
121126.1
117570.74
117328.19
114039.31
110189.25
109849.15
105872.6
103823.73
99400.467
99163.742
93976.069
93737.369
89524.825
88219.201
84938.496
81510.026
80865.429
78180.802
75174.776
73821.978
71214.185
69258.265
67717.794
66848.126
66063.265
60839.18
60600.223
59363.211
61413.927
57488.366
56500.207
53295.929
53218.383
50796.369
48026.48
50002.283
46722.074
40226.306
51772.633
96437.759
107433.62
114543.65
120163.13
121815.54
127224.81
126541.73
128708.33
126025.83
121969.16
125476.77
115396.92
108596.36
123672.4
83330.51
-145857.75
-175772.59
-174203.97
-185549.43
-183491.51
-173697.97
-200600.41
-215188.83
-199659.99
-201534.55
-190534.53
-182347.4
-167999.55
-165130.27
-159394.56
1387.5898
1298.0887
2074.5095
2465.6378
3673.8507
4407.2715
4669.1243
4789.333
4874.3029
4467.6849
4126.9561
3235.203
2759.644
2242.2817
2410.2623
-1227.5127
1748.6379
948.7413
376.8202
-507.20284
-650.4837
-1182.6782
-1097.096
-888.28006
-654.65317
297.2823
955.06429
1281.0225
4694.7261
-620.10747
39258.641
43607.782
39140.773
41100.403
44019.34
47220.443
48340.05
50977.22
52486
53887.79
55580.795
57861.264
58494.693
59971.09
61311.305
63712.726
64101.166
66012.35
67529.785
68941.932
70809.695
72736.258
74065.056
76026.121
77993.19
79954.795
81950.502
84247.504
86486.604
88856.442
91287.597
93306.815
95870.446
97999.098
100529.17
103140.17
105219.16
107207.66
109570.39
111613.4
113672.44
115454.15
117004.45
118395.57
119540.55
120670.32
121360.9
122114.12
122429.23
122706.1
122651.09
122501.15
122052.61
121485.86
120678.12
119718.53
118566.69
117233.73
115765.67
114128.19
112321.5
110329.57
108325.29
106189.15
103390.93
101070.5
98139.489
95352.776
92396.233
89543.286
86560.049
83503.499
80129.733
77140.859
73527.546
70393.852
66665.966
63565.961
59592.787
56541.007
52696.91
49336.122
45840.869
42635.023
38859.582
35362.323
32106.628
28279.65
25282.476
22599.767
18474.101
16181.009
13832.352
7511.9546
2344.5809
39362.786
36978.122
32558.085
35891.026
37140.528
39217.667
40230.633
42521.537
43882.112
46200.785
46864.993
48764.623
49843.426
51822.337
52542.671
53949.024
54910.901
56687.338
57471.414
58950.693
60275.629
61248.074
62870.623
64398.18
66055.124
67405.105
69436.576
71046.539
72968.119
74775.751
76817.896
78779.833
80874.595
82904.194
85139.459
86883.811
88798.996
90746.36
92509.064
94186.934
95693.524
97352.317
98205.592
99525.419
100360.95
101235.88
101751.34
102279.8
102433.4
102574.95
102408.56
102177.36
101679.87
101096.48
100315.15
99389.594
98320.247
97121.1
95774.487
94317.818
92701.279
91024.569
89306.955
87330.735
85370.479
84259.145
82830.108
80825.567
78797.257
76449.48
73910.495
71456.284
68612.197
66085.189
62784.007
60403.425
56948.871
54533.099
50944.295
48668.138
45082.386
42327.245
39306.399
35257.395
32156.396
29271.914
25794.272
23334.657
20609.229
17266.182
14655.295
12081.719
7815.4619
3841.1777
-3111.5071
30920.291
32258.488
27448.389
30499.065
31020.065
33201.316
34167.692
36424.051
37714.406
38661.543
40169.162
41693.309
42640.24
43526.988
44812.865
45929.38
46880.829
47837.115
48909.789
50065.354
51172.361
52256.078
53671.684
54719.354
55978.024
57351.68
58754.054
60081.207
61751.231
63190.209
64913.932
66478.02
68229.818
69866.531
71525.223
73306.504
75078.001
76698.476
78381.219
79744.152
80967.843
82204.813
83540.326
84485.029
85366.659
86024.19
86528.441
86892.468
87065.384
87106.163
86958.5
86702.302
86228.184
85687.685
84945.357
84089.119
83116.612
82002.843
80769.24
79427.461
77977.189
76430.926
74770.924
72891.933
71306.783
69659.693
68231.432
65524.139
64171.713
62219.186
60212.941
57906.551
55414.026
53225.536
50925.384
48532.642
46257.919
43777.093
41571.036
39000.573
36648.894
34443.716
31508.545
29441.908
27483.854
24713.976
22040.42
19957.199
17313.779
14890.601
12751.165
8963.9227
6676.6355
999.84876
-1792.798
25211.295
27145.724
21335.219
24554.324
24452.681
26132.859
26978.729
29212.082
29512.995
31429.782
32328.154
33749.289
34056.358
35908.696
36089.745
37609.742
37848.864
39318.483
39731.827
40817.077
41300.076
42396.33
43112.234
43936.98
45078.313
45953.947
47122.353
48219.132
49409.565
50547.835
51949.717
53091.716
54484.478
55689.416
57293.458
58203.248
59665.831
60543.356
61616.905
62568.115
63885.309
64704.637
65366.06
65911.698
66441.742
66865.126
67122.637
67331.75
67360.937
67313.116
67104.28
66841.285
66398.116
65926.166
65283.085
64598.072
63790.56
62908.384
61925.427
60895.781
59772.132
58569.697
57301.241
56059.62
54686.327
53310.624
52002.649
50157.116
48469.965
47019.043
45630.525
43798.921
42592.463
40937.911
39101.437
37347.959
35474
33816.715
31806.082
30138.217
28230.253
26476.872
24419.92
22520.711
20510.095
19295.569
17307.658
15478.807
13531.919
11701.451
9150.8176
7082.1149
4117.0748
880.85539
-3340.9812
19924.342
20086.43
16632.775
18926.057
19047.038
20450.117
21619.772
22642.347
23517.78
24562.57
25582.975
26120.844
27357.948
27717.567
28727.682
29273.35
29726.457
30528.307
30975.69
31511.227
32326.952
32878.123
33500.243
34241.178
35001.89
35594.338
36517.045
37159.947
38136.927
38974.42
39965.768
40809.452
41885.65
42915.816
43831.082
44775.071
46426.119
47684.962
48943.79
50933.63
51124.392
51890.916
52698.233
53206.313
53718.954
54023.005
54208.83
54328.14
54351.957
54237.934
54065.622
53821.348
53437.653
53029.672
52505.536
51919.718
51265.237
50518.808
49742.646
48857.253
47972.918
46880.927
46034.602
44781.357
43649.406
42632.106
41376.855
40102.523
38704.694
37493.704
36196.954
34848.048
32722.013
31132.881
29507.431
28117.245
26874.097
25442.103
24161.053
22898.228
21368.221
20299.695
18715.189
17771.584
16109.063
15179.2
13258.309
12245.775
10435.845
8808.12
7187.1309
5421.301
3646.6029
435.09797
-2326.8442
11654.122
14093.109
10572.988
13046.375
12904.214
14491.22
14247.442
16286.092
16247.171
17605.782
17728.676
19082.728
18783.462
20111.95
19959.389
20786.201
20864.126
21838.3
21542.163
22433.543
22491.611
22855.563
23211.491
23582.218
23945.57
24357.391
24888.642
25283.501
25933.232
26311.301
26989.327
27455.657
28235.997
28622.797
29367.777
30040.534
30969.491
31535.795
33695.369
34332.408
35482.62
35732.915
36085.859
36394.68
36621.313
36757.228
36823.368
36858.252
36799.189
36692.88
36536.419
36326.482
36042.04
35736.2
35373.548
34942.945
34501.341
33993.813
33443.955
32856.81
32231.374
31595.181
30851.1
30142.05
29485.064
28526.432
27945.529
27027.823
26244.533
25479.131
24572.01
23565.565
22700.543
20807.225
19589.177
18911.955
17992.658
17302.124
16319.104
15831.097
14495.374
14315.492
12702.512
12573.082
10913.893
10897.147
9093.7228
9053.0195
7298.2563
7104.8698
5751.8397
4565.0234
3017.6929
795.24654
-639.85465
5102.3307
6843.8523
5266.3756
7310.8065
7472.7014
7602.334
8441.0382
9575.6111
9441.9781
9948.2387
10886.533
10626.048
11419.99
11588.21
11690.065
12151.321
12134.784
12292.883
12328.58
12647.102
12498.417
12806.84
12863.899
12949.89
13203.749
13256.068
13505.973
13638.802
13944.66
14064.523
14499.423
14708.122
15017.66
15287.779
15751.608
15900.806
16370.003
16778.256
16737.377
16889.697
17179.014
17413.346
17483.479
17738.504
17823.65
17959.838
17924.418
18002.608
17924.47
17904.723
17810.319
17726.465
17572.305
17463.591
17267.329
17083.522
16876.627
16635.376
16369.521
16094.091
15795.964
15439.57
15129.449
14754.982
14340.405
14013.451
13515.151
13137.218
12667.11
12260.21
11800.299
11424.25
10722.583
10600.059
10433.729
10064.943
9595.8312
9167.8115
8821.5587
8359.3072
7916.3
7667.7556
6897.1473
6988.5092
5965.1798
6170.8415
5103.2327
5396.5022
4313.3485
4336.0449
3049.4273
2655.9558
2179.1621
1348.7286
786.95595
-2465.885
1027.0897
-844.53922
1935.4319
905.06869
2389.7857
2080.2451
3153.6239
2286.6355
3540.1242
2932.4935
3594.1241
3186.118
3497.3444
3209.0026
3519.3571
2815.0696
3355.9091
2720.8734
2771.4817
2405.4323
2410.8392
1890.642
1911.737
1618.7251
1414.238
1388.7292
1156.3489
1106.7194
891.13184
986.95178
634.74727
785.39028
656.49835
671.32385
488.48319
789.42435
386.39544
676.49371
375.23554
442.7201
421.04219
262.82048
126.46279
75.302082
-67.999421
-190.73548
-241.83058
-351.29128
-431.85477
-509.0269
-561.5709
-638.30244
-672.43987
-714.68403
-753.14918
-767.68235
-782.6739
-805.86819
-795.16342
-809.35605
-807.1412
-790.3323
-786.22432
-743.64009
-745.95446
-657.36351
-643.43011
-576.70853
-493.22072
-445.11305
-365.74026
-388.40648
-256.44951
-210.29206
-5.0406344
36.824612
250.62065
344.66378
514.985
653.18423
738.83357
916.58973
1014.1874
984.28819
1373.3106
923.87156
1727.9279
846.40654
1969.5451
1449.0533
2562.0507
2402.8845
2105.7109
2603.7558
-8498.9174
-6046.9523
-5938.8667
-5071.1038
-4871.255
-4507.8322
-5077.9941
-4391.9626
-4836.3993
-5032.2418
-4687.6964
-5282.7481
-5476.0171
-5419.5728
-5924.1139
-6265.1836
-6676.5707
-6778.9318
-7847.2661
-7696.7758
-8534.9954
-8695.5293
-9440.4914
-9611.3633
-10351.26
-10559.047
-11142.768
-11541.377
-11916.46
-12300.301
-12652.386
-13048.588
-13200.865
-13672.509
-13867.083
-14101.236
-14433.447
-14589.342
-14784.44
-14955.013
-15122.976
-15233.2
-15459.898
-15474.28
-15580.904
-15648.695
-15757.308
-15730.939
-15803.008
-15791.342
-15774.349
-15701.74
-15679.316
-15552.184
-15457.923
-15336.238
-15182.226
-15015.047
-14863.314
-14653.116
-14459.925
-14265.608
-14030.961
-13804.645
-13597.9
-13309.698
-13063.8
-12759.041
-12457.865
-12078.293
-11805.049
-11269.389
-10857.293
-10373.131
-10238.214
-9893.512
-9259.361
-8757.0463
-8230.5804
-7722.53
-7105.0332
-6653.4764
-5982.3692
-5451.4715
-4974.4636
-3999.4896
-3944.1645
-2352.4957
-2699.0685
-801.52699
-1272.7627
-61.619013
25.434523
1875.3114
3739.6836
-15033.25
-11850.918
-11749.384
-9831.6406
-10896.988
-10546.529
-11367.429
-10760.78
-12245.489
-11764.926
-12495.648
-13125.163
-13370.932
-13793.826
-14850.523
-14992.789
-15951.155
-16497.327
-17472.225
-17826.663
-19127.093
-19210.8
-20497.925
-20884.614
-22055.665
-22570.156
-23613.996
-24114.179
-24924.503
-25707.167
-26325.208
-27094.687
-27702.642
-28471.32
-28791.949
-29718.399
-29919.338
-30721.213
-31002.368
-31632.77
-32009.346
-32467.012
-32780.263
-33189.203
-33455.077
-33723.404
-33940.344
-34055.526
-34195.405
-34248.143
-34239.975
-34202.468
-34129.725
-33965.744
-33788.473
-33565.626
-33270.168
-32956.972
-32607.518
-32175.356
-31753.686
-31278.88
-30738.043
-30205.799
-29615.895
-28992.499
-28330.746
-27677.985
-26913.22
-26213.748
-25348.706
-24478.791
-23641.218
-22001.748
-20225.311
-19151.92
-17889.174
-17041.796
-15918.917
-15122.166
-13767.559
-13216.721
-11645.57
-11084.432
-9734.26
-8626.4088
-7952.4503
-5915.2082
-5984.2766
-3251.9215
-3332.1652
-1323.4817
120.62313
2316.6373
4521.8398
-20803.612
-17024.619
-15734.359
-15678.484
-16371.191
-16327.632
-17115.532
-17540.051
-18129.933
-18824.965
-19444.924
-20059.46
-20769.799
-21544.757
-22492.611
-22839.222
-24521.259
-24644.816
-26452.87
-27007.099
-29147.275
-29983.944
-32042.419
-32643.276
-34667.614
-35096.88
-36750.409
-37258.254
-38729.409
-39402.7
-40479.004
-41415.243
-42323.594
-43114.242
-43987.466
-44747.152
-45453.042
-46189.296
-46764.366
-47381.824
-47907.46
-48331.933
-48778.14
-49118.023
-49408.12
-49609.844
-49839.656
-49899.088
-49997.626
-49958.521
-49909.444
-49757.31
-49597.634
-49320.166
-49034.378
-48671.236
-48262.635
-47795.476
-47295.147
-46720.92
-46130.303
-45474.371
-44774.859
-44050.414
-43303.328
-42456.176
-41578.184
-40622.352
-39671.758
-38579.774
-37479.895
-36429.158
-35077.839
-33572.128
-31636.861
-30747.938
-28568.13
-26902.809
-25357.833
-23852.759
-22381.594
-20722.441
-19258.71
-17605.405
-15972.635
-14510.357
-12626.822
-11271.565
-9325.5972
-7558.5374
-5925.6614
-3330.4951
-1280.9164
1724.722
6687.2674
-25943.71
-22386.672
-21670.002
-20697.248
-21800.319
-21871.285
-23444.555
-23490.625
-25261.813
-25294.553
-26970.464
-27241.556
-28940.05
-29042.107
-30861.903
-31394.97
-32984.161
-33630.009
-35775.896
-36064.905
-38616.361
-39239.733
-42124.278
-43286.365
-45431.214
-46316.416
-48325.197
-49255.602
-50924.745
-51937.582
-53521.959
-54662.187
-55963.82
-57316.979
-58287.596
-59650.435
-60478.655
-61680.03
-62479.953
-63494.142
-64207.086
-65056.937
-65695.426
-66357.36
-66874.998
-67325.335
-67733.887
-67983.122
-68187.292
-68309.654
-68321.767
-68250.584
-68113.599
-67862.279
-67537.59
-67145.996
-66646.709
-66077.288
-65445.933
-64712.668
-63914.298
-63046.566
-62066.084
-61052.6
-59946.22
-58761.167
-57559.942
-56279.769
-54858.962
-53388.835
-51913.681
-50170.335
-48508.041
-46741.855
-44676.293
-43454.114
-41377.19
-39121.309
-36956.443
-34791.53
-32503.681
-30255.111
-27931.734
-25625.919
-23229.972
-21072.097
-18395.011
-16490.409
-13840.605
-11459.638
-9511.0392
-5621.2082
-2895.0072
2558.4526
8013.8517
-33920.977
-29847.047
-28057.823
-28744.255
-30029.2
-30857.89
-32075.347
-33396.38
-34374.105
-35482.171
-36568.563
-38182.974
-38891.995
-40362.641
-41593.136
-42763.497
-44282.874
-45471.892
-47307.052
-48360.106
-50825.412
-51678.654
-53896.052
-54751.799
-56985.775
-58051.106
-60638.048
-61574.459
-63757.713
-65029.533
-66919.878
-68102.202
-70006.734
-71315.575
-72875.698
-74241.643
-75484.367
-76789.341
-77921.118
-78993.776
-80009
-80898.604
-81688.586
-82377.763
-82981.089
-83440.117
-83880.047
-84094.544
-84312.64
-84362.78
-84327.679
-84163.23
-83942.784
-83560.329
-83123.059
-82569.802
-81918.199
-81176.627
-80358.831
-79421.175
-78427.751
-77326.059
-76147.212
-74883.424
-73537.577
-72084.458
-70623.499
-68915.209
-67291.485
-65478.462
-63540.772
-61614.378
-59501.506
-57299.468
-55007.123
-52790.114
-50415.716
-47926.597
-45308.751
-42664.662
-39988.11
-37228.553
-34478.049
-31663.11
-28909.631
-26018.392
-23235.426
-20516.912
-17331.943
-14947.095
-11389.495
-8288.3857
-4933.8959
43.061117
6080.4105
-36245.733
-34371.191
-30993.006
-33460.399
-34337.395
-35887.487
-37558.721
-38628.179
-39943.577
-41132.569
-43117.935
-43606.632
-45643.815
-46786.073
-48103.324
-49499.859
-51434.892
-52112.706
-54730.024
-55753.669
-57872.245
-59538.578
-61998.561
-63989.146
-66194.198
-68158.573
-70235.698
-72170.112
-74518.863
-76329.352
-78422.047
-80326.962
-82234.25
-84090.155
-85984.907
-88008.21
-89575.36
-91415.74
-92854.422
-94438.358
-95778.059
-97094.946
-98260.921
-99330.487
-100273.29
-101074.5
-101741.42
-102269.66
-102658.34
-102909.19
-103000.9
-102968.98
-102792.37
-102472.81
-102016.05
-101437.62
-100715.62
-99873.234
-98906.877
-97818.192
-96608.878
-95285.01
-93843.306
-92248.998
-90541.242
-88652.757
-86751.391
-84690.401
-82663.243
-80310.165
-78042.287
-75453.919
-72762.15
-70146.319
-67119.299
-64201.471
-61094.706
-57949.021
-54687.154
-51460.097
-48120.009
-44733.734
-41359.049
-37953.591
-34463.592
-31128.133
-27663.073
-24275.509
-20821.449
-17844.682
-13628.576
-11259.383
-6774.1389
-1868.6745
5569.4454
-47711.684
-34816.602
-38920.151
-38984.487
-41505.916
-42445.349
-44464.218
-44977.872
-47154.593
-48347.899
-49489.056
-51439.003
-52687.393
-53942.678
-55494.654
-57178.73
-58846.705
-60352.42
-62762.394
-63587.391
-66058.957
-67642.797
-70229.599
-72379.087
-75673.639
-76846.351
-80015.844
-81500.508
-84718.978
-86400.279
-89099.3
-91229.62
-93562.314
-95634.214
-97789.072
-100327.87
-102232.15
-104339.8
-106174.54
-108016.55
-109688.12
-111255.21
-112677.17
-113921.01
-115088.18
-115989.69
-116842.69
-117447.76
-117931.01
-118210.18
-118344.33
-118280.83
-118077.73
-117669.87
-117129.95
-116416.17
-115543.92
-114519.2
-113362.47
-112037.76
-110594.38
-109016.61
-107289.4
-105409.28
-103368.39
-101082.59
-98679.685
-96213.193
-94118.723
-91392.5
-88619.14
-85472.462
-82600.002
-79261.819
-75957.751
-72521.199
-69126.518
-65422.718
-61815.915
-58035.493
-54230.027
-50360.554
-46563.41
-42583.362
-38777.62
-34955.083
-31025.339
-27379.034
-23720.384
-20202.876
-16538.722
-14323.315
-10074.708
-6449.6976
725.46508
79640.032
81819.588
77996.759
80991.517
80776.972
82103.638
83888.682
83727.011
81273.016
83260.454
81989.535
79225.304
79538.584
89740.478
67966.664
79216.516
81122.414
77871.848
79400.728
78109.367
80829.48
78888.785
81840.775
80945.18
81334.525
81164.714
80748.439
82041.869
86553.421
71905.35
64150.46
73505.222
63751.478
67487.918
67278.348
66218.353
67038.694
66405.867
67219.333
66508.758
67235.138
67892.558
63505.055
74985.325
66079.783
53680.942
56899.233
56313.669
54937.835
56993.729
55979.28
57443.03
56846.736
57428.08
57576.319
57667.39
57295.078
57368.875
66803.844
41361.146
39555.327
45562.6
40575.35
44622.086
40821.295
44741.503
42773.03
44024.973
43024.167
44142.656
43348.574
44534.671
45955.998
48324.844
42038.06
31063.55
34125.347
31424.702
33385.638
33256.181
33486.656
32552.172
33014.432
33048.278
33483.685
31561.191
34375.023
31637.262
36082.567
34396.491
14938.414
16228.53
17992.988
15881.558
17527.186
17804.94
17344.404
16367.474
18021.773
17087.996
17576.935
17971.948
19280.71
22262.725
17911.585
1855.7768
4153.5791
2717.1079
5238.3353
3840.8202
5172.3436
4140.9374
4632.0028
5076.4746
4643.0814
3568.2727
5487.764
7145.6483
3429.5251
11119.398
-9085.3642
-9182.3628
-5570.439
-8101.3889
-6079.4179
-6955.95
-6377.8196
-7693.904
-6533.0781
-8217.8868
-8934.9425
-6100.9714
-8161.2642
-7938.1252
1201.0451
-22065.03
-22985.673
-21373.649
-20201.422
-20896.417
-19628.482
-21203.071
-20613.912
-20961.54
-20012.356
-22543.116
-19433.14
-18206.636
-24842.738
-10653.098
-35015.435
-39810.525
-32587.283
-36834.094
-33042.25
-35734.317
-34448.962
-35433.327
-34301.248
-34475.159
-35220.679
-33094.236
-34111.618
-34492.408
-23849.6
-48884.735
-41201.453
-43038.642
-37512.467
-41367.123
-39740.982
-41004.433
-40475.593
-40666.107
-41804.803
-42776.99
-39497.536
-39716.377
-47045.163
-33902.845
-59935.699
-63535.714
-54253.437
-57723.631
-53360.47
-55968.369
-54283.729
-54293.196
-55020.166
-53394.774
-56292.988
-54599.597
-51196.45
-59981.379
-37213.435
-68516.367
-71298.158
-64425.003
-64223.814
-67599.441
-66278.649
-67270.59
-70747.865
-68080.888
-71287.55
-64461.049
-64734.85
-64444.829
-66819.074
-57025.295
-83920.388
-70994.64
-64217.765
-63072.002
-64469.235
-70482.435
-65875.374
-64616.598
-63719.934
-62052.956
-63185.753
-63637.376
-64642.32
-71392.73
-66726.58
-52309.774
-51708.663
-57141.885
-61933.514
-63197.659
-68420.989
-67495.822
-63332.96
-70942.372
-69296.813
-67097.781
-62206.747
-61115.008
-55356.656
-51167.557
-45842.191
-43353.984
-46671.221
-47695.654
-48052.537
-51022.98
-51714.853
-53578.125
-55331.352
-52493.768
-51432.699
-47881.028
-49717.014
-48847.09
-52515.115
-41268.564
-45316.515
-45429.962
-48326.907
-52108.768
-50216.287
-52182.742
-52212.142
-49917.817
-52606.622
-51056.289
-51673.654
-50799.022
-45757.401
-46548.746
-42660.048
-46492.034
-46680.834
-46421.539
-47707.012
-47934.234
-48310.795
-48453.053
-48775.592
-47383.073
-48070.588
-47847.267
-45915.643
-45807.833
-44609.789
-47025.785
-50710.772
-51287.772
-52310.594
-53642.286
-54363.699
-54816.957
-54828.113
-55301.512
-55444.35
-53948.784
-53090.95
-51039.681
-50244.69
-48688.782
-47795.818
-48589.201
-48225.912
-50264.473
-51288.621
-51817.775
-51931.237
-52155.63
-52835.189
-52059.268
-52088.19
-51380.256
-49961.881
-49494.928
-48308.01
-48436.588
-51447.21
-51436.708
-52174.314
-53924.642
-54894.971
-55337.641
-55496.403
-56147.095
-55525.016
-54885.961
-54864.992
-53369.086
-52716.331
-52946.231
-50640.519
-50153.387
-51913.511
-51034.598
-52983.586
-52572.849
-53204.606
-53354.299
-53503.036
-52988.677
-52746.017
-52457.237
-52080.731
-51466.332
-50975.311
-50212.042
-53461.736
-53226.181
-54686.574
-55189.623
-56493.251
-56339.671
-56927.74
-57965.547
-56306.587
-56801.653
-56344.061
-55577.304
-55178.986
-53689.775
-53181.261
-52427.93
-53498.593
-52996.814
-54195.97
-53957.548
-54913.846
-54783.776
-54582.474
-55570.152
-55101.033
-55377.638
-54957.735
-54980.909
-54617.658
-52931.632
-54822.975
-54549.935
-55796.999
-56034.582
-56880.571
-56638.049
-57681.218
-57649.512
-57414.103
-57908.608
-57893.712
-57498.332
-58052.096
-57965.352
-55334.331
-54853.195
-55686.595
-55655.272
-56579.882
-56079.355
-57151.984
-57644.558
-58053.599
-58227.784
-58665.016
-58804.233
-59070.67
-58972.953
-58833.136
-56582.65
-56675.962
-56723.547
-57531.277
-57443.905
-58440.088
-58427.471
-59080.328
-59199.214
-59684.912
-59623.482
-60335.607
-59609.765
-60465.456
-60738.638
-57717.958
-57556.112
-58241.101
-57960.51
-58617.763
-58519.681
-59221.947
-59301.518
-59915.145
-59781.483
-60536.559
-60704.475
-60975.347
-61743.438
-61578.313
-59179.624
-59138.598
-59895.882
-59626.703
-60825.165
-60249.279
-60308.381
-61715.377
-61786.156
-62439.632
-62408.788
-63048.993
-62705.9
-63749.286
-64179.176
-60619.205
-60494.154
-61231.902
-60914.996
-61284.122
-60955.694
-62428.948
-61838.502
-62290.959
-62392.02
-62910.84
-63329.369
-62607.531
-63774.413
-63281.077
-62510.107
-62132.089
-62798.728
-62321.129
-63405.518
-63138.476
-63524.813
-64104.737
-64043.988
-64753.198
-64879.479
-65822.469
-65507.374
-66747.804
-67192.242
-64031.247
-64024.73
-64263.221
-64054.513
-64636.893
-64566.819
-65431.955
-65343.098
-65776.68
-65928.739
-66237.838
-66514.421
-67495.307
-66566.424
-67387.695
-66130.265
-65755.025
-66404.703
-66183.333
-66801.524
-66337.375
-66703.248
-67211.197
-67182.563
-67819.32
-67893.253
-68793.149
-68623.951
-70293.329
-70385.991
-67493.568
-67907.552
-67865.203
-68119.58
-68263.549
-68387.052
-68991.137
-68791.941
-69623.239
-69401.805
-69814.065
-70180.456
-70181.243
-70736.101
-70889.048
-70274.868
-69682.841
-70384.299
-69658.594
-70751.595
-69987.342
-71057.038
-71152.355
-71120.329
-71563.327
-71691.166
-72630.276
-72575.4
-74127.815
-74290.681
-71090.696
-72417.601
-71778.531
-72277.512
-72217.009
-72539.584
-72684.316
-73026.22
-73337.147
-73697.337
-73940.626
-74377.443
-74138.463
-74688.936
-74931.513
-74647.222
-74066.08
-74659.748
-74272.078
-74852.876
-74601.402
-75076.559
-75197.626
-75481.109
-75610.121
-76118.072
-76489.441
-76641.203
-77508.05
-77491.586
-76014.037
-76609.177
-76390.339
-76779.788
-76904.934
-76731.31
-77626.031
-77192.646
-77978.214
-78071.612
-78190.509
-79137.232
-78827.224
-79803.608
-79639.586
-79320.131
-78883.689
-79269.526
-78965.433
-79521.599
-79330.734
-80022.069
-79901.501
-80216.978
-80431.108
-80159.685
-80812.664
-81292.306
-81379.762
-82035.969
-81466.776
-80978.079
-81787.996
-81277.364
-81960.755
-81634.274
-82103.634
-82110.267
-82597.785
-82842.805
-83239.31
-83794.856
-83170.163
-84843.362
-84114.422
-84133.209
-83561.73
-84301.386
-83866.395
-84351.527
-84375.304
-84861.235
-85059.525
-85161.008
-85414.307
-85484.819
-86047.483
-85742.839
-86254.778
-86789.897
-86678.908
-86022.968
-86366.909
-86840.378
-86991.89
-86964.525
-87404.139
-87387.928
-87942.848
-88016.787
-88374.885
-88617.569
-88522.354
-89500.705
-89083.192
-89098.428
-89131.589
-89427.849
-89125.476
-89800.381
-89751.803
-90166.657
-90306.67
-90434.041
-90694.869
-90610.79
-91061.396
-91278.504
-91547.14
-91787.812
-92026.449
-91245.734
-92184.091
-91784.679
-92576.296
-92151.961
-92755.413
-92904.823
-93436.75
-93350.38
-93433.453
-94039.257
-93629.522
-94529.089
-94529.871
-94773.313
-94176.883
-94770.8
-94741.012
-95193.006
-95214.474
-95704.072
-95650.557
-96122.632
-96344.681
-96373.511
-96762.705
-96446.599
-96964.019
-97073.503
-97279.17
-96673.78
-97494.365
-97327.072
-97919.769
-98139.589
-98403.016
-98528.571
-98674.417
-98884.465
-99020.907
-99437.603
-99229.181
-99886.449
-99806.423
-100122.03
-99469.115
-100209.46
-100129.32
-100834.79
-100734.8
-101261.63
-101256.67
-101680.92
-101818.56
-101882.99
-102220.7
-102024.19
-102403.79
-102497.16
-102579.49
-102114.83
-102864.33
-102911.72
-103508.87
-103587.4
-104056.3
-104068.16
-104460.52
-104555.5
-104647.83
-104963.26
-104828.33
-105075.77
-105259.32
-105088.31
-104829.13
-105527.56
-105368.94
-106118.88
-106461.34
-106646.7
-107056.22
-107090.13
-107489.68
-107287.23
-107851.05
-107259.67
-108060.72
-107497.86
-107110.67
-107724.09
-107887.79
-108696.93
-108760.2
-109182.95
-109467.33
-109618.57
-109882.78
-110209.17
-110068.47
-110366.32
-110208.73
-110395.05
-110763.97
-110413.62
-109702.03
-110782.76
-110790.05
-111753.06
-111567.24
-112310.99
-112147.16
-112738.71
-112664.18
-112784.47
-113119.46
-112773.4
-113012.79
-113024.12
-112552.76
-112478.96
-113156.75
-113572.78
-113979.93
-114415.02
-114661.68
-114976.21
-115207.89
-115258.51
-115303.71
-115615.4
-115338.49
-115501.72
-115521.21
-115023.77
-114540.12
-115538.58
-115782.06
-116494.72
-116638.59
-117210.86
-117294.5
-117586.61
-117777.98
-117748.4
-118089.31
-117709.73
-117900.63
-117861.75
-117152.04
-116899.42
-117855.15
-118253.6
-118844.51
-119197.68
-119652.57
-119722.43
-120140.55
-120170.72
-120189.36
-120415.46
-120124.31
-120155.39
-120206.52
-119219.12
-118934.58
-119948.14
-120274.72
-120979.76
-121245.51
-121719.65
-121892.42
-122230.81
-122350.87
-122302.53
-122604.91
-122220.14
-122313.35
-122288.88
-121186.08
-120942.99
-121959.99
-122416.55
-123104.69
-123392.83
-123958.68
-124021.3
-124435.18
-124448.97
-124460.96
-124647.59
-124343.83
-124255.11
-124307.81
-122971.74
-122698.27
-123774.47
-124189.07
-124855.04
-125244.81
-125722.49
-125872.46
-126236.84
-126328.14