/*--------------------------------*- C++ -*----------------------------------*\
  =========                 |
  \\      /  F ield         | OpenFOAM: The Open Source CFD Toolbox
   \\    /   O peration     | Website:  https://openfoam.org
    \\  /    A nd           | Version:  6
     \\/     M anipulation  |
\*---------------------------------------------------------------------------*/
FoamFile
{
    version     2.0;
    format      ascii;
    class       pointVectorField;
    location    "1.66";
    object      u;
}
// * * * * * * * * * * * * * * * * * * * * * * * * * * * * * * * * * * * * * //

dimensions      [0 1 0 0 0 0 0];

internalField   nonuniform List<vector> 
28033
(
(0 0 0)
(0 0 0)
(0.070569273 0.01504001 0.0024843067)
(0.0701429 -0.013846446 0.0016832483)
(0 0 0)
(0 0 0)
(0.070747018 -0.01399989 0.0018242798)
(0.071206473 0.014847421 0.0022983774)
(0 0 0)
(0 0 0)
(0 0 0)
(0 0 0)
(0 0 0)
(0 0 0)
(0 0 0)
(0 0 0)
(0 0 0)
(0 0 0)
(0 0 0)
(0 0 0)
(0 0 0)
(0 0 0)
(0 0 0)
(0.070465891 0.012681395 0.0021922875)
(0.070267004 0.010734554 0.0021583536)
(0.070069633 0.0089136119 0.0020706499)
(0.069948618 0.0071646459 0.0020594038)
(0.069840142 0.0054818356 0.0020426156)
(0.069748383 0.003844447 0.0020460659)
(0.069694436 0.0022327723 0.0020573742)
(0.069658473 0.0006346996 0.002080179)
(0.069648641 -0.00096181886 0.0020920552)
(0.069660983 -0.0025825555 0.0021134527)
(0.069697538 -0.0042164214 0.0021128932)
(0.069751468 -0.0059162244 0.0020936399)
(0.069845979 -0.0076592202 0.0020619055)
(0.069920478 -0.0095180523 0.0020140746)
(0.070082877 -0.011495401 0.0018883562)
(0.00049668843 0.00078100745 0.000726053)
(0.00072864191 0.0010969602 0.0009549487)
(0.0010023538 0.0014595306 0.0010792033)
(0.001361583 0.0017698456 0.0011445636)
(0.0017215416 0.002117754 0.0011502068)
(0.0021657093 0.0023993374 0.0011474264)
(0.0026259152 0.0027292744 0.0011032562)
(0.0031423462 0.0029731638 0.0010675279)
(0.003682504 0.003268114 0.0010068286)
(0.0042681362 0.0034774181 0.00095597507)
(0.0048598469 0.0037145467 0.00089303806)
(0.0054887451 0.0038881033 0.00083689651)
(0.0061202497 0.0040700856 0.00078199037)
(0.0067854435 0.0042008236 0.00072483344)
(0.0074288338 0.0043217329 0.00068423737)
(0.0080999423 0.0044025237 0.00063040797)
(0.0087521328 0.0044790741 0.00060297295)
(0.0094134113 0.0045070638 0.00056203811)
(0.010048201 0.0045304466 0.00054642293)
(0.010683495 0.0045177742 0.00052039787)
(0.011287986 0.0044949597 0.00051854585)
(0.011879435 0.0044400653 0.00050969556)
(0.012442379 0.00438321 0.00052116818)
(0.012977265 0.0042924901 0.00053294849)
(0.013484161 0.0042055607 0.00055906132)
(0.013957008 0.0040929091 0.00058915577)
(0.014398464 0.0039838985 0.00062999058)
(0.014802481 0.003857336 0.00067964371)
(0.015177604 0.0037377705 0.00073508583)
(0.015512955 0.003607796 0.00079904276)
(0.015819838 0.003486647 0.00087022178)
(0.016092429 0.0033641621 0.00094595843)
(0.016336421 0.0032503141 0.0010286207)
(0.016553355 0.0031445025 0.0011133828)
(0.016743133 0.0030468774 0.001206522)
(0.01691312 0.0029642995 0.0012955435)
(0.017064596 0.0028916953 0.0013897194)
(0.017201562 0.0028378225 0.0014855206)
(0.017325445 0.0027946696 0.0015782132)
(0.017445284 0.0027728123 0.001669828)
(0.017557935 0.0027650389 0.0017612727)
(0.017671078 0.0027765145 0.0018489345)
(0.017787907 0.0028048208 0.0019327379)
(0.017911561 0.0028537362 0.0020136853)
(0.018043958 0.0029170879 0.0020900152)
(0.018190506 0.0030006131 0.002162201)
(0.018350332 0.0031001968 0.002230512)
(0.0185303 0.0032165815 0.002294163)
(0.018727413 0.0033496207 0.0023543956)
(0.018949188 0.0034975052 0.0024109396)
(0.01919202 0.0036612177 0.0024641152)
(0.019462324 0.0038375246 0.0025150481)
(0.019757316 0.0040293561 0.0025632734)
(0.020081817 0.0042309567 0.002610302)
(0.020434219 0.004447474 0.0026553583)
(0.020817538 0.0046719706 0.002700456)
(0.021231721 0.0049091097 0.0027439958)
(0.021678286 0.0051540643 0.0027881598)
(0.02215805 0.005408951 0.0028314014)
(0.022671937 0.005670401 0.0028754598)
(0.023221223 0.0059410731 0.0029182084)
(0.02380673 0.006216333 0.002961969)
(0.024428744 0.0064998439 0.00300439)
(0.025090765 0.0067857658 0.0030462225)
(0.025790366 0.0070806237 0.0030868737)
(0.026529649 0.0073764621 0.0031269789)
(0.027314437 0.0076784974 0.0031619614)
(0.028136055 0.0079819783 0.0031976207)
(0.029004429 0.0082890292 0.0032299191)
(0.029910951 0.0085997569 0.0032603989)
(0.030869474 0.0089123454 0.0032854236)
(0.03186351 0.0092226346 0.0033119379)
(0.032914105 0.0095444972 0.0033264799)
(0.034001426 0.0098493438 0.0033480684)
(0.035142115 0.010182183 0.0033523761)
(0.036329598 0.010475851 0.0033700573)
(0.037558969 0.010818538 0.0033625188)
(0.038850551 0.01109982 0.0033756775)
(0.040170128 0.011443355 0.0033588149)
(0.041563445 0.011718306 0.0033649291)
(0.042981514 0.012047811 0.0033394728)
(0.04446776 0.012320439 0.0033389879)
(0.045992054 0.012626967 0.0033053451)
(0.047568122 0.012889609 0.0032949378)
(0.049194188 0.013167306 0.0032587861)
(0.05086159 0.013423357 0.0032311264)
(0.052592486 0.013654628 0.0031902243)
(0.054346996 0.013887431 0.0031544543)
(0.05617279 0.014089879 0.0030936725)
(0.058014897 0.014287312 0.0030501937)
(0.059930988 0.014426476 0.002996337)
(0.061855276 0.014649227 0.0029062181)
(0.063852167 0.014718117 0.0028907638)
(0.0659112 0.01490447 0.002787188)
(0.06797565 0.015046768 0.0027633223)
(0.00022504373 -0.00065075091 -0.00082302194)
(0.00054449579 -0.00091601398 -0.00082964723)
(0.00079883696 -0.0012393722 -0.00105047)
(0.0010970099 -0.0014917368 -0.0010434635)
(0.0014679631 -0.0017495583 -0.0010826399)
(0.0018918755 -0.0020300276 -0.0010328332)
(0.0023415667 -0.0022289471 -0.0010038099)
(0.0028518784 -0.0024703831 -0.00091575906)
(0.0033911809 -0.0026437609 -0.00084637707)
(0.0039637244 -0.0028308242 -0.00074027164)
(0.004569139 -0.0029656991 -0.00064431306)
(0.0051897165 -0.003099433 -0.00052706116)
(0.0058370821 -0.0031923758 -0.0004136383)
(0.0064912057 -0.0032762978 -0.00029104823)
(0.0071601632 -0.0033214495 -0.0001686038)
(0.0078294095 -0.0033599381 -4.1769091e-05)
(0.0085013421 -0.003355888 8.2979477e-05)
(0.0091649668 -0.0033512113 0.00020955458)
(0.0098223989 -0.003306501 0.00033240507)
(0.010468094 -0.0032605671 0.0004541724)
(0.01109151 -0.0031798255 0.00057107507)
(0.011700184 -0.0031009488 0.00068270449)
(0.012274163 -0.002987872 0.00078748964)
(0.012832056 -0.0028834979 0.00088726209)
(0.013344434 -0.0027487807 0.0009761077)
(0.01384414 -0.0026273745 0.0010607055)
(0.014290947 -0.0024823866 0.0011287772)
(0.014720428 -0.0023495021 0.001194416)
(0.015099998 -0.0022051984 0.0012430473)
(0.015456706 -0.0020692951 0.0012863139)
(0.015769796 -0.0019359716 0.0013158055)
(0.016057806 -0.0018059816 0.0013374117)
(0.016308954 -0.0016904223 0.0013479516)
(0.016534512 -0.0015771858 0.0013496386)
(0.016733981 -0.0014845511 0.0013432262)
(0.01690631 -0.00139513 0.0013266458)
(0.017065529 -0.0013313472 0.0013063359)
(0.017202608 -0.0012724772 0.0012760324)
(0.017331613 -0.0012377235 0.0012429896)
(0.017446474 -0.0012136005 0.0012026789)
(0.017561103 -0.0012107691 0.0011605012)
(0.017668509 -0.0012214644 0.0011133078)
(0.017782683 -0.0012516614 0.0010656035)
(0.017897526 -0.0012964822 0.0010146036)
(0.018024 -0.0013587366 0.00096410576)
(0.018159682 -0.0014361032 0.00091250358)
(0.018310675 -0.0015284839 0.00086176529)
(0.018478015 -0.0016356876 0.00081186999)
(0.018664968 -0.0017564343 0.00076355887)
(0.018873072 -0.0018902258 0.00071719849)
(0.019105243 -0.0020368638 0.00067338051)
(0.019362461 -0.0021951617 0.00063221315)
(0.019646959 -0.002364712 0.00059430046)
(0.019960444 -0.0025454153 0.00055974011)
(0.020303634 -0.0027362652 0.00052865327)
(0.020678411 -0.0029368994 0.00050137139)
(0.02108605 -0.0031476752 0.00047780525)
(0.021526918 -0.003367205 0.00045795361)
(0.02200254 -0.0035959007 0.00044166162)
(0.022514166 -0.0038336234 0.00042914434)
(0.023061433 -0.0040793563 0.00041941561)
(0.023646415 -0.0043336849 0.00041318248)
(0.024269106 -0.0045958697 0.00040913687)
(0.024930415 -0.0048658486 0.00040781916)
(0.025630547 -0.0051427959 0.00040774621)
(0.026371679 -0.0054280381 0.00041040145)
(0.027152133 -0.0057180161 0.00041259281)
(0.027973866 -0.0060161258 0.00041721393)
(0.028837152 -0.0063178725 0.00041966987)
(0.029741443 -0.0066252123 0.00042695681)
(0.03069155 -0.0069406509 0.00043107797)
(0.031681631 -0.0072545796 0.00043669484)
(0.032720111 -0.0075775366 0.00044257924)
(0.033798405 -0.007898589 0.00044794952)
(0.034927916 -0.0082255134 0.00045626376)
(0.03609821 -0.0085504447 0.00046238389)
(0.037319389 -0.0088786587 0.00047365369)
(0.038586131 -0.0092040726 0.00048373624)
(0.039901864 -0.0095303997 0.00049898985)
(0.041265852 -0.0098521825 0.000515569)
(0.042679553 -0.01017297 0.00053736749)
(0.044143144 -0.010487329 0.00056287041)
(0.045654824 -0.010797474 0.00059354466)
(0.047219936 -0.011100141 0.00063073814)
(0.048829241 -0.011393656 0.00067138997)
(0.050494422 -0.01168016 0.00072240307)
(0.052201207 -0.011951352 0.00077582327)
(0.053961797 -0.012213434 0.00083855709)
(0.055763432 -0.012460699 0.00090778722)
(0.057616881 -0.012692114 0.00098322514)
(0.059505496 -0.012907035 0.0010635641)
(0.061452835 -0.013111595 0.0011510344)
(0.063434571 -0.013306827 0.0012540604)
(0.065501423 -0.013469415 0.001338588)
(0.067646943 -0.013695552 0.001483213)
(0 0 0)
(0 0 0)
(0 0 0)
(0 0 0)
(0 0 0)
(0 0 0)
(0 0 0)
(0 0 0)
(0 0 0)
(0 0 0)
(0 0 0)
(0 0 0)
(0 0 0)
(0 0 0)
(0 0 0)
(0.00044024528 -0.00031074529 0.00063020551)
(0.00069303699 -0.0011243405 0.00082691556)
(0.00091635976 -0.0011809559 0.00088920825)
(0.0012988431 -0.0016732809 0.00095731885)
(0.0016730215 -0.0018706641 0.00094626315)
(0.0021303753 -0.0022060155 0.0008868352)
(0.0026138301 -0.0024375594 0.00084239897)
(0.0031461323 -0.002724661 0.00076446729)
(0.0037148503 -0.0029266049 0.00069593524)
(0.0042998694 -0.0031603011 0.00061214456)
(0.0049287867 -0.0033330733 0.00054395851)
(0.0055616846 -0.0034994534 0.00045787776)
(0.0062240299 -0.0036423294 0.00039741947)
(0.0068862662 -0.0037441548 0.00031499498)
(0.00756844 -0.0038489901 0.00026548058)
(0.0082388258 -0.0038911235 0.00019859255)
(0.0089233072 -0.0039473003 0.00015782179)
(0.0095826582 -0.003937586 0.00010131492)
(0.010248218 -0.0039452345 7.573059e-05)
(0.010886528 -0.0038948729 3.7651565e-05)
(0.011511929 -0.0038483373 2.4113265e-05)
(0.012121646 -0.0037741545 6.7082925e-06)
(0.012692634 -0.0036690459 5.5516722e-06)
(0.013248268 -0.0035783198 1.2328212e-05)
(0.013761407 -0.0034282424 2.2965848e-05)
(0.014254926 -0.0033287173 4.8542218e-05)
(0.014707224 -0.0031550559 7.8959853e-05)
(0.015128034 -0.003034096 0.00011962824)
(0.015514195 -0.0028600019 0.00016617186)
(0.015864451 -0.0027240973 0.00022469059)
(0.016181118 -0.0025543035 0.00028243344)
(0.016467674 -0.0024251401 0.00035471196)
(0.016722654 -0.0022681883 0.00042581222)
(0.016950842 -0.0021486331 0.00050557549)
(0.017151777 -0.0020150193 0.00058737179)
(0.01733394 -0.0019143274 0.00067058731)
(0.017496282 -0.0018092115 0.00075745105)
(0.017641265 -0.0017327718 0.0008449139)
(0.017776691 -0.001662975 0.00093058525)
(0.017902995 -0.0016167272 0.0010172286)
(0.018025508 -0.0015826612 0.0010999928)
(0.018146641 -0.0015704129 0.0011823221)
(0.018271011 -0.0015733313 0.0012595766)
(0.018401022 -0.0015965956 0.0013355699)
(0.018539855 -0.0016357614 0.0014056943)
(0.018691271 -0.0016948877 0.0014741232)
(0.018856484 -0.0017691699 0.0015369073)
(0.019039238 -0.0018622439 0.0015975746)
(0.019240974 -0.0019703117 0.0016534817)
(0.019463829 -0.0020949658 0.0017074802)
(0.019709396 -0.0022341186 0.0017580254)
(0.019979821 -0.0023880695 0.001806559)
(0.020275772 -0.0025554374 0.0018535802)
(0.020599009 -0.0027354881 0.001898746)
(0.020950879 -0.0029285323 0.0019436779)
(0.021331968 -0.003131753 0.0019873144)
(0.021743796 -0.0033470124 0.0020316032)
(0.022187423 -0.0035713021 0.0020750379)
(0.02266333 -0.0038055169 0.002119345)
(0.023173281 -0.0040481407 0.0021633348)
(0.023717581 -0.0042990871 0.0022077477)
(0.024297744 -0.0045573149 0.0022519962)
(0.024914299 -0.0048227387 0.0022961709)
(0.025568729 -0.0050946262 0.0023397258)
(0.026261586 -0.0053722664 0.0023824092)
(0.026993827 -0.0056560923 0.0024242396)
(0.027767988 -0.0059455275 0.0024632819)
(0.028582179 -0.0062382605 0.0025032404)
(0.029435749 -0.0065330051 0.0025349822)
(0.030340278 -0.0068415987 0.0025704577)
(0.031282172 -0.0071447291 0.0026000301)
(0.032271347 -0.0074556204 0.0026268727)
(0.033305805 -0.0077686784 0.0026494173)
(0.034386246 -0.0080852465 0.0026695352)
(0.03551352 -0.0084037013 0.0026845007)
(0.03668857 -0.0087245619 0.002696555)
(0.037911073 -0.0090465948 0.0027040064)
(0.039182135 -0.0093689805 0.0027078295)
(0.040502219 -0.0096920549 0.0027074654)
(0.04187034 -0.010012623 0.0027032205)
(0.043289044 -0.010332461 0.0026941643)
(0.044756072 -0.010647795 0.0026817249)
(0.046273155 -0.010958911 0.0026637738)
(0.047839262 -0.011263741 0.002641914)
(0.049454985 -0.011560481 0.0026143344)
(0.051118365 -0.011848746 0.0025830139)
(0.052830493 -0.012123867 0.0025438845)
(0.054589856 -0.012389884 0.0025025006)
(0.056393518 -0.012636672 0.0024516661)
(0.058245987 -0.012874913 0.0023993591)
(0.06013638 -0.013088527 0.0023356751)
(0.0620829 -0.013299434 0.0022745426)
(0.06406141 -0.01348422 0.0021935955)
(0.066139715 -0.013670525 0.0021206715)
(0.068244754 -0.01389875 0.0020055514)
(0.070729867 -0.011644104 0.001718103)
(0.070582093 -0.0097261418 0.0016683669)
(0.070458 -0.0078282842 0.0017008684)
(0.070394585 -0.0061095228 0.0017214431)
(0.070321589 -0.004398784 0.0018069507)
(0.070291996 -0.0027731852 0.0018692294)
(0.070272724 -0.0011513021 0.0019744905)
(0.070279519 0.00044601124 0.0020623221)
(0.070328486 0.0020398125 0.0021571237)
(0.070369975 0.003653434 0.0022499359)
(0.070465857 0.0052950915 0.0023233293)
(0.070571526 0.0069695512 0.0023858074)
(0.070709986 0.0087146979 0.002444715)
(0.070828951 0.010541267 0.0024552098)
(0.071113533 0.012451398 0.0024519526)
(0.068659357 0.014866446 0.0020184921)
(0.066508434 0.014660537 0.0019289485)
(0.064469338 0.01455332 0.0018229036)
(0.062470849 0.014414687 0.001743633)
(0.060525792 0.014264051 0.0016500266)
(0.058622321 0.014095004 0.0015688481)
(0.056764321 0.013907466 0.0014933424)
(0.054947562 0.013704279 0.0014203342)
(0.053181217 0.013479894 0.0013584795)
(0.051458286 0.013245293 0.0012984423)
(0.049786634 0.01299095 0.0012493066)
(0.048162039 0.012728376 0.0012025423)
(0.046587036 0.012450638 0.0011645923)
(0.045062925 0.012165525 0.0011296118)
(0.043587986 0.011870532 0.0011017497)
(0.042163739 0.01156898 0.0010772522)
(0.04078929 0.011261128 0.001058463)
(0.039463782 0.010947829 0.0010417322)
(0.03818659 0.010632097 0.0010286981)
(0.036958662 0.010311289 0.0010177907)
(0.035776322 0.0099915515 0.0010085489)
(0.034642825 0.0096675409 0.0010010285)
(0.033552659 0.0093474262 0.00099370987)
(0.03251085 0.0090238179 0.00098819495)
(0.031509626 0.0087062855 0.00098184269)
(0.030556488 0.008387532 0.00097656582)
(0.029639092 0.0080771562 0.00097204611)
(0.028782793 0.0077566288 0.00097275863)
(0.027946317 0.0074595796 0.00096448377)
(0.02716539 0.0071531693 0.00096522618)
(0.026419187 0.0068588897 0.00096263576)
(0.025714663 0.0065680035 0.00096354492)
(0.025049286 0.0062838861 0.00096607446)
(0.024422721 0.0060060766 0.00097048318)
(0.023834051 0.005735416 0.00097766279)
(0.023282596 0.0054717564 0.00098754791)
(0.022767454 0.0052158081 0.0010002202)
(0.022287927 0.004967529 0.0010162402)
(0.021842804 0.0047276807 0.0010353849)
(0.021431309 0.0044960389 0.0010578222)
(0.02105208 0.0042736563 0.0010833961)
(0.020704258 0.0040602899 0.0011124145)
(0.020386097 0.0038570386 0.0011440007)
(0.020096634 0.0036637542 0.00117884)
(0.019833876 0.0034818366 0.0012157791)
(0.019596599 0.0033108008 0.001255381)
(0.019382378 0.0031527099 0.001296369)
(0.01918988 0.003006521 0.0013393798)
(0.019016028 0.0028748561 0.0013828114)
(0.018859479 0.0027564334 0.0014273453)
(0.018716526 0.0026536188 0.0014716441)
(0.018585113 0.0025657019 0.0015151151)
(0.018462165 0.002494175 0.0015582308)
(0.018344329 0.0024380932 0.0015987758)
(0.018226846 0.0024008854 0.0016357445)
(0.018109446 0.0023769889 0.0016721826)
(0.017986147 0.0023716977 0.0017018628)
(0.017853364 0.0023841695 0.0017273913)
(0.017706177 0.0024120439 0.0017472881)
(0.017547251 0.0024497941 0.0017622223)
(0.017364978 0.0025103444 0.0017659491)
(0.017159331 0.0025775063 0.0017643647)
(0.016928982 0.0026584196 0.0017522605)
(0.016669636 0.002748382 0.0017315126)
(0.016380105 0.002850631 0.0016999365)
(0.016053836 0.0029547688 0.0016593186)
(0.015697763 0.0030635273 0.0016049961)
(0.015302056 0.0031786857 0.0015422059)
(0.01487332 0.0032825103 0.0014704423)
(0.014409666 0.0033988412 0.0013826633)
(0.013909395 0.0034963337 0.0012910429)
(0.013381064 0.0035980485 0.0011846967)
(0.012816603 0.0036830051 0.0010729764)
(0.012225559 0.0037566566 0.00095447971)
(0.011612313 0.0038199447 0.00082505249)
(0.010973631 0.0038634398 0.0006965132)
(0.010316854 0.0038943894 0.00055356539)
(0.009649747 0.0038956793 0.00042252571)
(0.0089658822 0.0038951782 0.0002703103)
(0.0082885679 0.0038441893 0.00013643193)
(0.0075989218 0.0038149711 -1.409977e-05)
(0.0069153293 0.0037001335 -0.00014013232)
(0.0062429359 0.0036265799 -0.00029133609)
(0.0055848236 0.0034654656 -0.00041416071)
(0.0049395806 0.0033509894 -0.00055506126)
(0.0043222833 0.0031416173 -0.00066302463)
(0.0037306346 0.0029690208 -0.00078337313)
(0.0031675197 0.0027226789 -0.00087445113)
(0.0026418886 0.0025024393 -0.00096618064)
(0.0021579651 0.0022281683 -0.0010275913)
(0.0017238493 0.0019491556 -0.0010639449)
(0.0013398984 0.0016426799 -0.0010665318)
(0.0010052348 0.0013720846 -0.0010303048)
(0.00071317221 0.0010010975 -0.00085869657)
(0.0006603532 0.00070210269 -0.00055275799)
(0 0 0)
(0 0 0)
(0 0 0)
(0 0 0)
(0 0 0)
(0 0 0)
(0 0 0)
(0 0 0)
(0 0 0)
(0 0 0)
(0 0 0)
(0 0 0)
(0 0 0)
(0 0 0)
(0 0 0)
(0 0 0)
(0 0 0)
(0 0 0)
(0 0 0)
(0 0 0)
(0 0 0)
(0 0 0)
(0 0 0)
(0 0 0)
(0 0 0)
(0 0 0)
(0 0 0)
(0 0 0)
(0 0 0)
(0 0 0)
(0.070267476 -0.013981892 0.0016750882)
(0.07033996 -0.014050966 0.0016714806)
(0.070389507 -0.014085207 0.0016676364)
(0.070446687 -0.01411822 0.001676603)
(0.070498505 -0.014142511 0.0016862982)
(0.07054853 -0.014161158 0.0017096235)
(0.070592966 -0.014176257 0.001727412)
(0.070634027 -0.014186406 0.0017580251)
(0.070671736 -0.014198184 0.001778433)
(0.070701065 -0.014203129 0.0018033635)
(0.070741499 -0.014216156 0.0018233418)
(0.070757334 -0.014204436 0.0018363903)
(0.0707877 -0.014206304 0.001842823)
(0.070805617 -0.014181799 0.0018440527)
(0.070833381 -0.014164251 0.0018315399)
(0.070733396 0.015199073 0.0024760917)
(0.070793689 0.015207564 0.0024983791)
(0.070844669 0.015224651 0.0024811976)
(0.070908264 0.015235432 0.0024700578)
(0.070950657 0.015228228 0.0024564525)
(0.071001148 0.015222157 0.0024293719)
(0.071045498 0.015217475 0.0024068101)
(0.071087265 0.015206331 0.0023773209)
(0.071124976 0.015196595 0.0023504589)
(0.071158003 0.015184143 0.0023265996)
(0.071189372 0.015165707 0.0023046214)
(0.071214865 0.015145559 0.0022875105)
(0.071243681 0.015125195 0.0022921418)
(0.071265126 0.015062987 0.0022649789)
(0.071301638 0.015066444 0.0022863788)
(0.00015807395 -0.0014119214 0.00072649569)
(0.00030636365 -0.003047295 0.00079044827)
(0.00044020495 -0.0046167656 0.00094751767)
(0.00067179528 -0.0062038146 0.000977175)
(0.00088062329 -0.0077697573 0.0010179857)
(0.0011981282 -0.0093090127 0.0010058312)
(0.0015213623 -0.01080207 0.00098156371)
(0.001914824 -0.012262331 0.00095666463)
(0.0023182397 -0.013668596 0.00091181658)
(0.0027945852 -0.015015911 0.00086779313)
(0.0032609604 -0.016318288 0.00082332539)
(0.0037986624 -0.017533172 0.00077688056)
(0.0043259851 -0.018705729 0.00073077586)
(0.0049014086 -0.019775411 0.0006900841)
(0.0054610714 -0.020795046 0.00065094732)
(0.0060736247 -0.021697597 0.00061737877)
(0.0066609475 -0.022543224 0.00058620458)
(0.0072685992 -0.023276253 0.00056562825)
(0.0078724796 -0.023918517 0.00054304313)
(0.008477683 -0.024461054 0.00053455942)
(0.0090662401 -0.024900538 0.00052780618)
(0.0096532681 -0.025232792 0.0005317307)
(0.010222178 -0.025454692 0.00053805857)
(0.010770986 -0.025569093 0.00055588756)
(0.0113036 -0.025563012 0.00057830203)
(0.011809854 -0.025450508 0.00061065821)
(0.012294935 -0.025214348 0.00064896949)
(0.012751238 -0.024868087 0.00069467964)
(0.013182311 -0.024398625 0.00074776132)
(0.013585426 -0.023819466 0.00080800659)
(0.013961524 -0.023118764 0.00087320465)
(0.014312751 -0.02230754 0.00094500417)
(0.014637722 -0.021381813 0.0010209494)
(0.014940231 -0.020348451 0.0011019355)
(0.015223229 -0.019204215 0.0011840708)
(0.015485982 -0.017960757 0.0012726212)
(0.01573815 -0.016616366 0.00135913)
(0.015974676 -0.015175565 0.0014459067)
(0.016204433 -0.013650233 0.0015364101)
(0.016431125 -0.01203608 0.0016213176)
(0.016655454 -0.01034753 0.0017068756)
(0.016883383 -0.0085898834 0.0017889519)
(0.017115474 -0.0067634212 0.0018680244)
(0.017359028 -0.0048862785 0.0019429855)
(0.017612229 -0.0029573234 0.0020144606)
(0.0178822 -0.00098916244 0.0020823393)
(0.018168665 0.0010108084 0.0021447091)
(0.018474487 0.0030345864 0.0022050929)
(0.018801805 0.0050733827 0.0022600632)
(0.019152173 0.0071175234 0.0023129592)
(0.019526442 0.0091601706 0.002361819)
(0.019926606 0.011189865 0.0024094247)
(0.020352615 0.013200773 0.0024536118)
(0.020806349 0.015181315 0.0024975607)
(0.0212873 0.017126065 0.0025392246)
(0.021797114 0.019023067 0.0025811471)
(0.022335433 0.02086846 0.0026215689)
(0.02290343 0.022650223 0.0026626166)
(0.023500825 0.024364021 0.0027029034)
(0.024128686 0.026000906 0.0027433686)
(0.024787359 0.027555273 0.0027831395)
(0.025476331 0.029019556 0.0028233177)
(0.026198039 0.030388916 0.0028618682)
(0.026950978 0.031657217 0.0029003289)
(0.027735595 0.032821541 0.0029366462)
(0.028555121 0.033872882 0.0029722904)
(0.02940871 0.034812373 0.0030054457)
(0.030293111 0.035634266 0.0030378567)
(0.031213424 0.036336224 0.0030676513)
(0.032167153 0.036914629 0.0030930379)
(0.033158484 0.037372131 0.0031149769)
(0.034180963 0.037700453 0.0031346386)
(0.035244475 0.037910414 0.0031492373)
(0.036338168 0.037982805 0.0031638616)
(0.037473829 0.03794588 0.0031708305)
(0.038642924 0.037762277 0.0031796585)
(0.03984876 0.037483498 0.0031781709)
(0.041097331 0.037046449 0.0031837252)
(0.042372733 0.036532637 0.0031720616)
(0.043701373 0.035856007 0.0031735743)
(0.045051059 0.035103689 0.0031559559)
(0.046455371 0.034213523 0.0031477112)
(0.047886679 0.03322953 0.0031264268)
(0.04936162 0.032131815 0.003110678)
(0.050869871 0.030948599 0.0030790788)
(0.052424818 0.029653932 0.0030554847)
(0.054015924 0.028278624 0.003022278)
(0.055638687 0.026822232 0.0029801133)
(0.057307796 0.025285053 0.0029402855)
(0.059004412 0.023654906 0.0029028898)
(0.060740662 0.022011812 0.0028253925)
(0.0625094 0.020252956 0.0027896105)
(0.064336029 0.018429787 0.0027065587)
(0.066199237 0.016644923 0.0025998119)
(0.068180291 0.014623152 0.0024738442)
(-0.00010819123 -0.0031030957 0.00060848742)
(-0.00010120335 -0.0065295475 0.00070505193)
(-1.1507668e-05 -0.009698832 0.00080924601)
(4.3827719e-05 -0.012979811 0.00087627323)
(0.00018878004 -0.016107124 0.00088094782)
(0.00037188066 -0.019228525 0.00088068621)
(0.00058700712 -0.022226903 0.00086671873)
(0.00085736582 -0.025170008 0.00084569073)
(0.0011811448 -0.027963211 0.00080276003)
(0.0015262948 -0.030692678 0.00078407062)
(0.0019218134 -0.033245581 0.00073951977)
(0.0023529813 -0.035693983 0.00070226783)
(0.002806328 -0.037968581 0.00067412684)
(0.0032903147 -0.040106949 0.00063777177)
(0.0038059467 -0.042055436 0.00061399218)
(0.0043413406 -0.043843046 0.00057670919)
(0.0048752628 -0.045439238 0.00057187432)
(0.0054513422 -0.046844178 0.0005409122)
(0.0060177537 -0.048048461 0.00053881563)
(0.0065941242 -0.049058257 0.00052749081)
(0.0071732147 -0.049844086 0.00053240266)
(0.0077547197 -0.050430375 0.00053077208)
(0.0083211929 -0.05078761 0.00054950522)
(0.0088879991 -0.050937474 0.00056475955)
(0.0094403348 -0.050854223 0.00059106865)
(0.0099771851 -0.050560263 0.00062171195)
(0.010497504 -0.050033552 0.00066056927)
(0.01099856 -0.049296115 0.00070516444)
(0.011482348 -0.048329152 0.00075479057)
(0.011939341 -0.047155115 0.00081260419)
(0.012381439 -0.045759843 0.00087367152)
(0.012797508 -0.044162335 0.00094015213)
(0.013194636 -0.042358473 0.0010126619)
(0.013575358 -0.040357836 0.0010853745)
(0.013935365 -0.038170288 0.0011659958)
(0.014282657 -0.035800235 0.001243911)
(0.014617909 -0.03325722 0.0013240254)
(0.014943299 -0.030553812 0.0014071186)
(0.015263828 -0.027697548 0.0014870962)
(0.015583766 -0.02469966 0.0015654586)
(0.015900538 -0.021576394 0.0016450173)
(0.016225871 -0.018334522 0.0017209693)
(0.016560629 -0.014992342 0.0017894761)
(0.016901804 -0.011561447 0.0018606004)
(0.017260209 -0.0080549766 0.0019240701)
(0.017635048 -0.0044917424 0.0019852392)
(0.018027142 -0.00088212463 0.0020426078)
(0.018442031 0.0027550876 0.002096037)
(0.018878133 0.0064068413 0.002145623)
(0.019338867 0.010054979 0.002192974)
(0.019823574 0.013687366 0.0022368077)
(0.020335009 0.017283376 0.0022792745)
(0.020871315 0.020833721 0.0023190488)
(0.021435507 0.024316539 0.0023586573)
(0.022025097 0.02772272 0.0023963767)
(0.022642794 0.03103252 0.0024345345)
(0.023286465 0.034236476 0.0024714172)
(0.023957602 0.037315401 0.0025096313)
(0.024655137 0.040262173 0.0025463742)
(0.02538022 0.04305854 0.0025842676)
(0.026130868 0.045696992 0.0026215833)
(0.026909454 0.048163207 0.0026588225)
(0.027714319 0.050449623 0.0026953964)
(0.028544549 0.052544409 0.0027312038)
(0.029403879 0.054442617 0.0027656091)
(0.030288466 0.056128855 0.0028001966)
(0.031196849 0.057610712 0.0028296935)
(0.032132619 0.058865269 0.0028611491)
(0.03309909 0.05989701 0.002885964)
(0.034090407 0.060701763 0.0029094134)
(0.035110407 0.061279579 0.0029292069)
(0.036155057 0.061616996 0.002950092)
(0.037229368 0.061733632 0.0029617031)
(0.038329893 0.061597222 0.0029801313)
(0.039457621 0.06125762 0.0029800482)
(0.040614566 0.060650482 0.0029978024)
(0.041795954 0.059861536 0.0029871119)
(0.043011756 0.058796063 0.0030031351)
(0.044246263 0.057573433 0.0029814023)
(0.045522542 0.056068133 0.0029977589)
(0.046813923 0.054427838 0.002966276)
(0.048147545 0.052524809 0.0029741535)
(0.049501617 0.050473516 0.0029483889)
(0.050893232 0.0482085 0.002934089)
(0.052313282 0.045797991 0.0029041384)
(0.053760187 0.043194499 0.002890156)
(0.05524198 0.040463617 0.0028506175)
(0.056742492 0.037571975 0.0028248755)
(0.058299207 0.034536909 0.0027901151)
(0.059849883 0.031421404 0.0027293119)
(0.061473784 0.02815525 0.0026885407)
(0.063095737 0.024794134 0.0026236667)
(0.064788382 0.021385235 0.0025307247)
(0.066519136 0.017852976 0.0024405383)
(0.068355299 0.014277055 0.0023149307)
(-0.00025041451 -0.004311042 0.00051288637)
(-0.00032138906 -0.008808543 0.00058077477)
(-0.0004135194 -0.013191243 0.0007225609)
(-0.00038121108 -0.017511759 0.00073692633)
(-0.00032910601 -0.021757179 0.00075612543)
(-0.00022452893 -0.025916491 0.00076280034)
(-8.3740592e-05 -0.029956933 0.00074891679)
(0.00014407882 -0.033859901 0.00072225829)
(0.00036100604 -0.037654865 0.00071220923)
(0.00066554391 -0.041246093 0.00068064059)
(0.00098634927 -0.044699536 0.00065004704)
(0.0013645727 -0.047932985 0.00063230883)
(0.0017505381 -0.050999831 0.00060484647)
(0.0022062489 -0.05380747 0.00058144714)
(0.0026594949 -0.056425034 0.00055868398)
(0.0031529835 -0.058779332 0.00055277894)
(0.0036674915 -0.060897168 0.00053207117)
(0.0042092428 -0.062745496 0.00052600261)
(0.0047460625 -0.064337357 0.00052486336)
(0.0053184259 -0.065646453 0.00052654481)
(0.0058854876 -0.066675051 0.00052901139)
(0.0064602605 -0.06742684 0.00054727214)
(0.0070356116 -0.067875679 0.00056110858)
(0.0076119006 -0.068046279 0.00058497076)
(0.0081756269 -0.067907832 0.00061208829)
(0.0087345765 -0.067490511 0.00064870286)
(0.0092806381 -0.066765113 0.00068628365)
(0.0098141991 -0.065760351 0.00073158101)
(0.010327224 -0.06445737 0.00078232204)
(0.010828899 -0.0628789 0.00083752935)
(0.011308728 -0.061014089 0.00089544088)
(0.011770384 -0.058885724 0.00096205898)
(0.012218383 -0.056486285 0.0010265242)
(0.012645227 -0.053838765 0.0010983424)
(0.013058845 -0.050943098 0.0011700575)
(0.013460907 -0.047814405 0.0012432168)
(0.013852631 -0.044467944 0.001319972)
(0.014234683 -0.04091103 0.0013943371)
(0.014617953 -0.03716288 0.0014678724)
(0.014994886 -0.033238638 0.0015419347)
(0.01537825 -0.029150677 0.0016123812)
(0.015765911 -0.024918528 0.0016777502)
(0.016161818 -0.020560153 0.0017466501)
(0.016571394 -0.016091231 0.0018073609)
(0.016997558 -0.011533414 0.0018644892)
(0.017438634 -0.006904569 0.0019207545)
(0.017901935 -0.0022229209 0.0019700556)
(0.018386014 0.0024888348 0.0020181933)
(0.018893771 0.0072135274 0.0020616901)
(0.019425587 0.011928304 0.0021039354)
(0.019983415 0.016615587 0.0021417357)
(0.020566465 0.021252107 0.0021799977)
(0.021176247 0.025821936 0.0022142262)
(0.021812134 0.03030017 0.0022499286)
(0.022474322 0.034673359 0.0022826587)
(0.02316297 0.038916916 0.0023168503)
(0.023876892 0.043017127 0.0023496754)
(0.024616971 0.046952739 0.002383611)
(0.02538204 0.050710282 0.0024161887)
(0.026171535 0.054269365 0.0024507836)
(0.026986149 0.057619407 0.0024832549)
(0.027824599 0.060742297 0.0025168464)
(0.028686171 0.063627274 0.002549175)
(0.029571894 0.066261162 0.0025802842)
(0.030481709 0.068632973 0.0026114538)
(0.031409441 0.070731718 0.0026391532)
(0.032367108 0.072559179 0.0026664504)
(0.033346363 0.074088991 0.0026918345)
(0.034341456 0.075328922 0.0027154026)
(0.035362057 0.076268418 0.0027368882)
(0.036401895 0.076907066 0.0027544376)
(0.037463448 0.077241936 0.002771328)
(0.038550247 0.077271834 0.0027820076)
(0.03964894 0.076998189 0.002793344)
(0.04077953 0.076423255 0.0027990515)
(0.041920838 0.075541764 0.0028071927)
(0.043095044 0.074375915 0.0028044962)
(0.044279547 0.072903656 0.0028108768)
(0.045498276 0.071164676 0.0028020174)