/*--------------------------------*- C++ -*----------------------------------*\
  =========                 |
  \\      /  F ield         | OpenFOAM: The Open Source CFD Toolbox
   \\    /   O peration     | Website:  https://openfoam.org
    \\  /    A nd           | Version:  6
     \\/     M anipulation  |
\*---------------------------------------------------------------------------*/
FoamFile
{
    version     2.0;
    format      ascii;
    class       pointVectorField;
    location    "1.65";
    object      u;
}
// * * * * * * * * * * * * * * * * * * * * * * * * * * * * * * * * * * * * * //

dimensions      [0 1 0 0 0 0 0];

internalField   nonuniform List<vector> 
625
(
(0 3.1689389e-19 0)
(0 2.8517909e-19 0)
(-1.3105972 -0.31884006 -0.14616195)
(-1.3510062 -0.037257689 -0.14758603)
(0 4.1090354e-19 0)
(0 2.2301092e-18 0)
(-1.3576814 -0.0096303408 -0.14795637)
(-1.3172545 -0.29119238 -0.14660684)
(0 -4.8170919e-20 0)
(2.2148175e-19 -5.1446289e-19 0)
(0 1.0524833e-18 0)
(-1.3207283 -0.24839358 -0.14651616)
(-1.3307687 -0.17801626 -0.14687333)
(-1.3409184 -0.10763995 -0.1472441)
(-0.004428502 -0.018672165 -0.01632773)
(-0.017051283 -0.036061514 -0.017573002)
(-0.036952051 -0.05474751 -0.019810449)
(-0.06634103 -0.072066622 -0.022122381)
(-0.10001036 -0.088410029 -0.025482917)
(-0.14193342 -0.10470762 -0.029295943)
(-0.18737735 -0.11990376 -0.034119828)
(-0.23851147 -0.13439737 -0.039130448)
(-0.2932682 -0.14905645 -0.044875654)
(-0.35167832 -0.16220995 -0.050710339)
(-0.41286144 -0.17571819 -0.056889315)
(-0.47657328 -0.188333 -0.063318922)
(-0.54226896 -0.20073877 -0.069844274)
(-0.60943024 -0.21261217 -0.076525302)
(-0.67788523 -0.22423592 -0.083269121)
(-0.74713121 -0.23543555 -0.090109039)
(-0.81703349 -0.24643609 -0.096962169)
(-0.88733298 -0.25709179 -0.10391754)
(-0.9578411 -0.26765807 -0.11082719)
(-1.0284336 -0.27800183 -0.11786164)
(-1.0990955 -0.28826098 -0.12488048)
(-1.1696336 -0.29846761 -0.13193465)
(-1.2401678 -0.30862683 -0.13905183)
(0.0010260089 0.012555131 0.018450095)
(-0.017669463 0.027386154 0.011472329)
(-0.040922242 0.040968019 0.0096075621)
(-0.072664872 0.052956178 0.0031154084)
(-0.11093116 0.06132381 -0.0029508288)
(-0.1567702 0.069497261 -0.010144463)
(-0.20595004 0.073456834 -0.01735313)
(-0.2610225 0.076489994 -0.02536076)
(-0.31937741 0.077228598 -0.033131635)
(-0.38062608 0.07579591 -0.041373339)
(-0.44482373 0.07316727 -0.049489814)
(-0.5107077 0.068877172 -0.057637189)
(-0.5783245 0.063302101 -0.06572369)
(-0.64698733 0.056757364 -0.073668505)
(-0.71658815 0.049203815 -0.081560192)
(-0.78665031 0.040988345 -0.089250336)
(-0.85715205 0.032150724 -0.096891779)
(-0.92776714 0.022863565 -0.10432712)
(-0.99849933 0.013244467 -0.1117512)
(-1.0691371 0.0033568838 -0.1189759)
(-1.1398035 -0.0066729867 -0.12624111)
(-1.2102598 -0.016821471 -0.13335339)
(-1.2807174 -0.027038449 -0.14049865)
(0 2.8772778e-19 0)
(-3.9319361e-18 -8.4602025e-19 0)
(0 2.1442143e-18 0)
(-0.0064028019 0.010212633 -0.01390185)
(-0.023016734 0.042339303 -0.018863759)
(-0.044984758 0.049581864 -0.018091205)
(-0.07712941 0.06876838 -0.021488317)
(-0.11634449 0.080512924 -0.026304126)
(-0.16103492 0.089788955 -0.02945835)
(-0.21112024 0.096385389 -0.035327827)
(-0.26641606 0.10129426 -0.040584539)
(-0.32435689 0.10260813 -0.046482177)
(-0.38663216 0.1029486 -0.0527534)
(-0.45022934 0.10032126 -0.059037144)
(-0.51675012 0.096832699 -0.065629028)
(-0.58416537 0.091331264 -0.072202506)
(-0.65311108 0.084962228 -0.078926279)
(-0.72269115 0.077403764 -0.085653297)
(-0.79289849 0.069143567 -0.092461411)
(-0.86342568 0.060202361 -0.099265162)
(-0.93413978 0.050821374 -0.1061328)
(-1.0049028 0.041093161 -0.11301342)
(-1.0756443 0.031114557 -0.11992748)
(-1.1462965 0.021018323 -0.12688478)
(-1.2168722 0.01082336 -0.13387741)
(-1.287313 0.00058774366 -0.1408929)
(-1.3475729 -0.08002044 -0.14760377)
(-1.3373906 -0.15042523 -0.14726227)
(-1.3273781 -0.22075465 -0.14694263)
(-1.2468472 -0.28097038 -0.13952902)
(-1.1762899 -0.2708208 -0.13243935)
(-1.1057555 -0.26054325 -0.12532598)
(-1.0351121 -0.25023394 -0.1181243)
(-0.9644979 -0.23975775 -0.11086857)
(-0.89396344 -0.22911157 -0.10350983)
(-0.82362472 -0.21826272 -0.096037779)
(-0.75365727 -0.20713315 -0.088468501)
(-0.68426236 -0.1957728 -0.080758196)
(-0.61566426 -0.18407675 -0.072946388)
(-0.54819498 -0.17213285 -0.065009841)
(-0.48222377 -0.15984925 -0.057030921)
(-0.417973 -0.14743629 -0.048891885)
(-0.35614175 -0.13455735 -0.040914742)
(-0.29746698 -0.12161163 -0.032962419)
(-0.24152762 -0.10831565 -0.025106383)
(-0.18965599 -0.09559905 -0.017246132)
(-0.14258448 -0.081550316 -0.010375101)
(-0.10080695 -0.0684087 -0.0030536667)
(-0.06486871 -0.054349046 0.0024389344)
(-0.034414454 -0.041537616 0.0082541596)
(-0.013943127 -0.02500725 0.012747255)
(-0.0049739809 -0.014246758 0.010917192)
(0 -5.1376156e-19 0)
(0 -5.3574576e-19 -1.1050292e-18)
(0 -1.5789695e-18 0)
(0 9.2834068e-19 0)
(0 -1.0271911e-19 3.2752337e-19)
(0 7.0707804e-19 0)
(-1.3526766 -0.030338761 -0.14767704)
(-1.3543567 -0.023421008 -0.1477863)
(-1.3560094 -0.016503803 -0.14786297)
(-1.312258 -0.31191494 -0.14627334)
(-1.3139267 -0.30500488 -0.14638005)
(-1.3155835 -0.29808198 -0.14650124)
(0.0029052382 -0.010362702 -0.011480475)
(-0.011200703 -0.019382175 -0.0099727607)
(-0.03223201 -0.02944269 -0.013322087)
(-0.062747759 -0.039200962 -0.015924715)
(-0.098282694 -0.049267314 -0.020014705)
(-0.14158101 -0.059728191 -0.024756281)
(-0.18866148 -0.069699547 -0.029913379)
(-0.24130452 -0.080398529 -0.035732583)
(-0.29724467 -0.09091908 -0.041837397)
(-0.35693259 -0.10143808 -0.048309757)
(-0.41922501 -0.11239873 -0.054945236)
(-0.48387484 -0.12299273 -0.061792669)
(-0.55026885 -0.13382066 -0.068702323)
(-0.61811024 -0.14451807 -0.075683721)
(-0.68701322 -0.15521104 -0.082730298)
(-0.75664585 -0.16581012 -0.089765972)
(-0.82683908 -0.17633251 -0.096847873)
(-0.89729721 -0.18677713 -0.10391647)
(-0.96793845 -0.1971752 -0.11098133)
(-1.0386088 -0.20745279 -0.11810552)
(-1.1092734 -0.21772537 -0.12514783)
(-1.1798218 -0.22794974 -0.132289)
(-1.2503353 -0.23816335 -0.13938975)
(0.0055616456 -0.0026901887 -0.0012109253)
(-0.01093378 -0.0031829691 -0.0027190325)
(-0.03225335 -0.0063097169 -0.0056095586)
(-0.063140851 -0.0089025412 -0.010030458)
(-0.10050856 -0.01233566 -0.014711635)
(-0.14406688 -0.016740831 -0.020073741)
(-0.19254906 -0.022149825 -0.025996221)
(-0.24615601 -0.028122571 -0.032487639)
(-0.30302933 -0.035008717 -0.039214675)
(-0.36367072 -0.042446554 -0.046132095)
(-0.42657718 -0.050637182 -0.053285932)
(-0.49187527 -0.059149259 -0.060512318)
(-0.55882067 -0.06823673 -0.067795978)
(-0.62709082 -0.077564742 -0.075096636)
(-0.69633797 -0.087194421 -0.082407538)
(-0.76624836 -0.096992482 -0.089656043)
(-0.83662226 -0.10694912 -0.096920746)
(-0.90721037 -0.11699581 -0.10409458)
(-0.97796196 -0.12710676 -0.11129193)
(-1.048658 -0.13723979 -0.11841347)
(-1.1193679 -0.14742141 -0.12554576)
(-1.1899173 -0.15761759 -0.13265324)
(-1.2604436 -0.16781803 -0.13975558)
(0.0059760209 0.0047858479 0.0057000932)
(-0.012284858 0.0100359 0.0038706181)
(-0.033044941 0.014976561 0.00088007051)
(-0.065839899 0.019425416 -0.0040060588)
(-0.10335658 0.022951554 -0.0090433849)
(-0.14786976 0.023587353 -0.015153933)
(-0.19761832 0.024099826 -0.021871229)
(-0.25169043 0.022289234 -0.028888692)
(-0.3095264 0.019379146 -0.036081775)
(-0.37083777 0.015267292 -0.043701291)
(-0.43438899 0.0098524152 -0.05126521)
(-0.50036139 0.0036444934 -0.058980686)
(-0.56769476 -0.0035231999 -0.06663383)
(-0.6364013 -0.011347959 -0.074279604)
(-0.70590533 -0.019758737 -0.081851229)
(-0.77606592 -0.028672105 -0.089350563)
(-0.84656432 -0.037920789 -0.096781212)
(-0.91729586 -0.047488058 -0.10412852)
(-0.98806327 -0.057246572 -0.11140872)
(-1.0588435 -0.067164834 -0.11865206)
(-1.1295131 -0.0772009 -0.1258005)
(-1.2000937 -0.087296895 -0.13297827)
(-1.2705679 -0.097433136 -0.1400932)
(0 -3.2553383e-19 0)
(0 5.3785234e-19 1.1281678e-18)
(0 1.1718345e-18 0)
(-5.8716904e-19 1.1724067e-20 0)
(2.4524709e-19 -3.6338123e-19 -1.8098904e-20)
(-1.5455321e-18 -1.3899539e-18 0)
(0 5.2873056e-19 0)
(0 1.4209766e-18 -3.7791723e-20)
(0 1.5648177e-18 0)
(-0.0064100576 0.0056589648 0.0082409235)
(-0.0092921574 0.0082356645 0.001809089)
(-0.0092333413 0.0061787001 -0.0040985205)
(-0.027173066 0.03377607 0.0045699436)
(-0.027659614 0.03568123 -0.0019714535)
(-0.027721023 0.035402898 -0.010242664)
(-0.046051262 0.042326955 0.0023842496)
(-0.048788663 0.043075295 -0.0037961262)
(-0.049820545 0.048822394 -0.01210356)
(-0.079163133 0.056986491 -0.0035262583)
(-0.081638249 0.061707725 -0.0092106166)
(-0.080619224 0.063294442 -0.015473352)
(-0.11704611 0.066644842 -0.0087927143)
(-0.11857569 0.069545239 -0.013467315)
(-0.11961572 0.075382665 -0.020411866)
(-0.16132242 0.074292793 -0.015047908)
(-0.16393532 0.079525118 -0.020254827)
(-0.16378193 0.084102424 -0.025021127)
(-0.21102679 0.079533284 -0.022284326)
(-0.21280317 0.08476417 -0.025650545)
(-0.21351528 0.09057147 -0.031146326)
(-0.26553108 0.082992766 -0.029174989)
(-0.26715293 0.088191647 -0.032712144)
(-0.26813769 0.094467839 -0.036949988)
(-0.32302117 0.083375217 -0.036774285)
(-0.32505983 0.089587347 -0.039732045)
(-0.32564039 0.096052778 -0.043515082)
(-0.38454484 0.082826407 -0.044329694)
(-0.38616853 0.08914201 -0.046833018)
(-0.38731374 0.095791175 -0.050061483)
(-0.44790265 0.080015765 -0.052028721)
(-0.44973791 0.086446827 -0.054215218)
(-0.4507668 0.093428794 -0.056943138)
(-0.51382064 0.075928059 -0.059805561)
(-0.51548015 0.082702836 -0.061556784)
(-0.51668649 0.089625426 -0.063803978)
(-0.58094243 0.070408282 -0.067462812)
(-0.58265928 0.077162487 -0.068903509)
(-0.5839736 0.084309139 -0.070806392)
(-0.64953376 0.063892943 -0.075117072)
(-0.65117326 0.070802695 -0.07631058)
(-0.65251563 0.077856851 -0.077784986)
(-0.71879948 0.056336375 -0.082693473)
(-0.72043911 0.06324022 -0.083585887)
(-0.72191653 0.070396652 -0.084776591)
(-0.78877058 0.048115263 -0.090138855)
(-0.7904205 0.055087504 -0.090868695)
(-0.79189617 0.062153966 -0.09179107)
(-0.85908866 0.039246819 -0.097553092)
(-0.8606997 0.046180961 -0.098092992)
(-0.86224893 0.053268756 -0.098773014)
(-0.92961079 0.029916202 -0.1048369)
(-0.93124492 0.03688785 -0.10524492)
(-0.93282093 0.043919646 -0.10576227)
(-1.0002346 0.020272343 -0.11209055)
(-1.0018645 0.027212242 -0.11239073)
(-1.0034708 0.034218748 -0.11275281)
(-1.0708627 0.010342451 -0.11924183)
(-1.0725062 0.017289829 -0.11947883)
(-1.0741215 0.024266611 -0.11973605)
(-1.1414244 0.00028800738 -0.12640455)
(-1.1430557 0.0072145863 -0.12656816)
(-1.1447017 0.014160781 -0.12673959)
(-1.2119182 -0.0098858497 -0.13348305)
(-1.2136002 -0.0029432353 -0.13362142)
(-1.2152466 0.0039835433 -0.13376026)
(-1.2823552 -0.020113551 -0.14058786)
(-1.2840067 -0.013176375 -0.14068673)
(-1.2856652 -0.0062787509 -0.14080067)
(-1.3223834 -0.2414727 -0.14662441)
(-1.324053 -0.23455247 -0.14673421)
(-1.3257085 -0.22763999 -0.14684032)
(-1.3324143 -0.17109742 -0.14696995)
(-1.3340914 -0.16419098 -0.14706649)
(-1.3357173 -0.15729471 -0.14716337)
(-1.3426119 -0.10070351 -0.14733477)
(-1.3442689 -0.093781583 -0.14743392)
(-1.3459389 -0.086872995 -0.14751268)
(-0.012424673 -0.015186367 -0.0075093543)
(-0.010982196 -0.015769543 -0.0021442313)
(-0.01215779 -0.013574877 0.0048516784)
(-0.023176441 -0.032998262 -0.0089104366)
(-0.023540919 -0.031468511 -0.00078337909)
(-0.021391831 -0.028916822 0.0067137672)
(-0.043612784 -0.053290036 -0.01168703)
(-0.043067792 -0.049570175 -0.0056606401)
(-0.042344752 -0.047204848 0.0031144052)
(-0.071390883 -0.067596466 -0.014722142)
(-0.072396071 -0.064041942 -0.0091220602)
(-0.070653636 -0.060232095 -0.001972421)
(-0.10535432 -0.08536579 -0.019326621)
(-0.10615946 -0.08064391 -0.013346904)
(-0.10506469 -0.075968384 -0.0075303482)
(-0.1464788 -0.099862031 -0.023676458)
(-0.14728143 -0.093860648 -0.019706032)
(-0.14670545 -0.089304589 -0.013917929)
(-0.19173936 -0.11471814 -0.029192504)
(-0.19280342 -0.1094916 -0.025175096)
(-0.19261736 -0.10351312 -0.020536697)
(-0.24254821 -0.12929739 -0.035086988)
(-0.24385288 -0.1226832 -0.031737185)
(-0.24379693 -0.11665977 -0.027729621)
(-0.29671217 -0.14298124 -0.041444161)
(-0.29845299 -0.13646457 -0.038282305)
(-0.29849272 -0.13000002 -0.035363953)
(-0.35512387 -0.15637492 -0.047846349)
(-0.35657847 -0.14941517 -0.045907802)
(-0.3572784 -0.14286489 -0.042812241)
(-0.41597795 -0.16935641 -0.054616059)
(-0.41764806 -0.16252431 -0.052582479)
(-0.41828493 -0.15559658 -0.050441824)
(-0.47952449 -0.18201184 -0.061445193)
(-0.48111835 -0.17482057 -0.060043364)
(-0.48211734 -0.16799134 -0.058261921)
(-0.54487579 -0.1941156 -0.068469022)
(-0.5466287 -0.18710184 -0.067288186)
(-0.54769836 -0.18007922 -0.065955528)
(-0.61193164 -0.2060404 -0.075445112)
(-0.61361172 -0.19888891 -0.074648211)
(-0.61487139 -0.19187172 -0.073635366)
(-0.68011958 -0.21749758 -0.08255459)
(-0.68188285 -0.21040735 -0.081943745)
(-0.68320828 -0.2033862 -0.081251431)
(-0.74926073 -0.22869895 -0.089579824)
(-0.75097677 -0.22161958 -0.089233189)
(-0.75240996 -0.21459629 -0.08876313)
(-0.81900674 -0.23961838 -0.096697507)
(-0.82074393 -0.23256899 -0.096473059)
(-0.82222888 -0.22557192 -0.096209439)
(-0.88920075 -0.25028906 -0.10374136)
(-0.89090336 -0.24328532 -0.1036664)
(-0.89244623 -0.23630466 -0.10355611)
(-0.95961267 -0.26079157 -0.11082414)
(-0.96133281 -0.25379581 -0.11085361)
(-0.9629141 -0.24683707 -0.11084101)
(-1.0301717 -0.27112136 -0.11792436)
(-1.0318631 -0.26418798 -0.1179622)
(-1.0334665 -0.2572421 -0.11804202)
(-1.1007765 -0.28135683 -0.12496657)
(-1.1024689 -0.27441278 -0.12508795)
(-1.1040879 -0.26748834 -0.12521131)
(-1.1713073 -0.29156158 -0.13205921)
(-1.1729582 -0.28464611 -0.13219693)
(-1.1746114 -0.27773188 -0.13232068)
(-1.2418398 -0.30169587 -0.13916584)
(-1.2435038 -0.29477768 -0.13929039)
(-1.2451695 -0.28787509 -0.13940612)
(0.0024690874 -0.0034027811 0.0058839503)
(-0.009982106 -0.014037057 0.0039581203)
(-0.030669055 -0.014321568 -0.00073301227)
(-0.063233295 -0.022659321 -0.0045866608)
(-0.099152121 -0.02938948 -0.0097713907)
(-0.14336769 -0.036553298 -0.016160701)
(-0.19154157 -0.045434519 -0.022559058)
(-0.24484361 -0.053923245 -0.029632779)
(-0.30151398 -0.063793692 -0.036749052)
(-0.36178086 -0.073415143 -0.044299453)
(-0.42444213 -0.083897351 -0.05172791)
(-0.48953701 -0.094210325 -0.059406479)
(-0.55621293 -0.10500793 -0.066975466)
(-0.62426036 -0.11572065 -0.074539664)
(-0.69334505 -0.12652169 -0.082070831)
(-0.76309226 -0.13729563 -0.089492121)
(-0.83334475 -0.14799067 -0.096876453)
(-0.90387514 -0.15862046 -0.10416774)
(-0.97453959 -0.16915424 -0.11139993)
(-1.0452341 -0.17959493 -0.11856749)
(-1.1159151 -0.18996466 -0.12570832)
(-1.1864587 -0.2002585 -0.13279405)
(-1.257013 -0.21052269 -0.13988371)
(0.0047359705 -0.0013186975 -0.0022927275)
(-0.010736224 0.0033649485 -0.0028902672)
(-0.034443101 0.0068555398 -0.0069195212)
(-0.066315526 0.006685015 -0.010021146)
(-0.10275135 0.0059809208 -0.01445348)
(-0.14827384 0.0055848624 -0.021015201)
(-0.19637999 0.00068247753 -0.026135336)
(-0.25090905 -0.002718162 -0.033132225)
(-0.30802944 -0.0090683298 -0.039707055)
(-0.36906396 -0.015281561 -0.046925749)
(-0.43215847 -0.023186592 -0.053902162)
(-0.4979154 -0.03115737 -0.06133224)
(-0.56485572 -0.040208798 -0.068496645)
(-0.63339236 -0.049351422 -0.075891097)
(-0.70267256 -0.059105287 -0.083109514)
(-0.77268766 -0.06891377 -0.090393043)
(-0.84309247 -0.079006158 -0.097597238)
(-0.91374559 -0.089144861 -0.10475756)
(-0.98449195 -0.099346533 -0.11190674)
(-1.0552359 -0.10958905 -0.1190009)
(-1.1259486 -0.11979234 -0.12608855)
(-1.1964906 -0.13002602 -0.13315016)
(-1.2670866 -0.14024314 -0.1401988)
(0.0043032659 0.007789214 -0.0081244106)
(-0.016054816 0.015918412 -0.010038595)
(-0.037906543 0.02993642 -0.015254003)
(-0.068758039 0.03267226 -0.016005534)
(-0.10706935 0.041864471 -0.02214101)
(-0.15266348 0.044479957 -0.026282435)
(-0.20144912 0.046549308 -0.031601747)
(-0.25699947 0.046997297 -0.03775884)
(-0.31445397 0.045060379 -0.043862717)
(-0.37636845 0.041884967 -0.050339832)
(-0.44005099 0.037245547 -0.057036564)
(-0.50618684 0.031356778 -0.063813786)
(-0.57370485 0.024521237 -0.070716581)
(-0.64251852 0.016746472 -0.07763)
(-0.71214889 0.0083725128 -0.084595069)
(-0.78237353 -0.00057429289 -0.091569511)
(-0.85296946 -0.0099258805 -0.098545393)
(-0.92372945 -0.019567582 -0.10551841)
(-0.99458034 -0.029424476 -0.11252)
(-1.0653809 -0.039420851 -0.11948985)
(-1.1360979 -0.049499663 -0.12651639)
(-1.2067156 -0.059648357 -0.13351328)
(-1.2772003 -0.069794014 -0.14057553)
(-0.0020912679 -0.0040036759 -0.0048057041)
(-0.0019358419 -0.0045576937 -0.0014884432)
(-0.0033298224 -0.0030993126 0.0026909246)
(-0.016952189 -0.018531162 -0.005516765)
(-0.018828532 -0.016581404 -0.0014202609)
(-0.016330394 -0.015041218 0.0028907804)
(-0.038458775 -0.025991448 -0.0086954498)
(-0.037177049 -0.023236651 -0.0050987606)
(-0.037400877 -0.020482711 -0.0024223872)
(-0.067457145 -0.036314851 -0.012085959)
(-0.069295206 -0.032753328 -0.0086256527)
(-0.068350104 -0.027981079 -0.006392556)
(-0.1036862 -0.045514005 -0.016112414)
(-0.10415387 -0.040708587 -0.01401197)
(-0.10405146 -0.036039531 -0.011121429)
(-0.14594447 -0.054907287 -0.021745902)
(-0.14732868 -0.050056009 -0.019319878)
(-0.14682254 -0.044451408 -0.017525404)
(-0.19302836 -0.064767942 -0.027204766)
(-0.19403896 -0.059366751 -0.025364707)
(-0.1943939 -0.052870952 -0.023640839)
(-0.24507941 -0.075026439 -0.033479534)
(-0.2467625 -0.068547093 -0.032010364)
(-0.24693388 -0.062243616 -0.030667874)
(-0.30107858 -0.084772351 -0.039959484)
(-0.30239258 -0.078696407 -0.038873701)
(-0.30293367 -0.071814475 -0.037569453)
(-0.36035804 -0.095426639 -0.046876075)
(-0.36180885 -0.088858784 -0.045875361)
(-0.3626921 -0.081719506 -0.044964513)
(-0.42232931 -0.10592201 -0.053753069)
(-0.42395145 -0.099091061 -0.053003226)
(-0.42480175 -0.091939868 -0.052340163)
(-0.48675085 -0.11640932 -0.060917792)
(-0.48834094 -0.10956943 -0.060430673)
(-0.48946849 -0.10240473 -0.059840001)
(-0.5528951 -0.12714326 -0.068048629)
(-0.55457251 -0.12019225 -0.067640883)
(-0.55577555 -0.11291536 -0.067318748)
(-0.62055976 -0.13775628 -0.07524276)
(-0.6222002 -0.13076418 -0.075060379)
(-0.62354727 -0.12354715 -0.074792078)
(-0.6892447 -0.14838214 -0.082444691)
(-0.69095511 -0.1413647 -0.082324875)
(-0.69234436 -0.13416739 -0.082214433)
(-0.75877271 -0.15894522 -0.089627199)
(-0.76042679 -0.15195996 -0.08963431)
(-0.76191321 -0.14479662 -0.089580855)
(-0.82878225 -0.16945578 -0.096804728)
(-0.83047748 -0.16246016 -0.096857429)
(-0.8320015 -0.15534873 -0.096892785)
(-0.89917862 -0.17988388 -0.10394786)
(-0.90084436 -0.1729179 -0.10406765)
(-0.90240329 -0.16584475 -0.10413674)
(-0.96970406 -0.19026948 -0.11107658)
(-0.97138672 -0.18329764 -0.11121922)
(-0.97299587 -0.17628051 -0.11133604)
(-1.0403396 -0.20051895 -0.11820745)
(-1.0420214 -0.19360712 -0.11836469)
(-1.0436191 -0.18661741 -0.11847234)
(-1.1109519 -0.21080416 -0.1252863)
(-1.1126421 -0.20392145 -0.12545566)
(-1.1142559 -0.19693644 -0.12559751)
(-1.1815057 -0.22102419 -0.13242987)
(-1.1831476 -0.2140975 -0.13256902)
(-1.1847996 -0.20715509 -0.13268521)
(-1.2520007 -0.2312426 -0.13951154)
(-1.2536699 -0.22433128 -0.1396326)
(-1.255335 -0.21741149 -0.13974959)
(0.001408189 -0.0012806424 0.00019095998)
(0.00011139156 -0.0018524071 0.00036172365)
(-0.0012132381 -0.00083030345 0.00012808097)
(-0.015983813 -0.0020040137 -0.00094649675)
(-0.017434459 -0.0010420813 -0.00089625818)
(-0.014988207 0.00078944493 -0.0014037768)
(-0.038054824 -0.0040396516 -0.0044928481)
(-0.039061789 -0.0013704402 -0.0059755149)
(-0.038879938 0.0019206087 -0.0055842481)
(-0.068137957 -0.004956838 -0.0083837774)
(-0.071322601 -0.001218037 -0.0094320207)
(-0.069883346 0.0035200383 -0.0089897211)
(-0.10555079 -0.0085840273 -0.013845337)
(-0.10724554 -0.0042112144 -0.015061412)
(-0.10620618 8.536253e-05 -0.013738048)
(-0.14856237 -0.012031546 -0.019204363)
(-0.15097792 -0.0065187791 -0.01983322)
(-0.15028265 -0.00095154126 -0.019769521)
(-0.19688614 -0.017061331 -0.02516426)
(-0.19878172 -0.011375041 -0.026487456)
(-0.19861627 -0.005134117 -0.025682756)
(-0.25003087 -0.022426616 -0.032026398)
(-0.25225994 -0.016009818 -0.032823378)
(-0.25195273 -0.010103776 -0.032250833)
(-0.30667561 -0.029043393 -0.038784827)
(-0.30859819 -0.022800494 -0.039422304)
(-0.30892548 -0.01582258 -0.039176731)
(-0.36688621 -0.036396826 -0.045832538)
(-0.36900245 -0.029331641 -0.046647544)
(-0.3693385 -0.022719071 -0.046363126)
(-0.42968012 -0.044118907 -0.053111697)
(-0.43155572 -0.03734731 -0.053783339)
(-0.43227493 -0.030208701 -0.053470263)
(-0.49468255 -0.052636687 -0.060419997)
(-0.49663743 -0.045523881 -0.061021518)
(-0.49745564 -0.038572467 -0.060877787)
(-0.56143849 -0.061538532 -0.067782738)
(-0.56326469 -0.054555886 -0.068332637)
(-0.56431271 -0.047300281 -0.068177251)
(-0.62947343 -0.070806756 -0.075133089)
(-0.63133796 -0.063631045 -0.075622459)
(-0.63246206 -0.056576185 -0.075539876)
(-0.69857745 -0.080365691 -0.082499276)
(-0.70034267 -0.073323932 -0.082900412)
(-0.70162938 -0.066159919 -0.082860295)
(-0.76831624 -0.090146535 -0.089764004)
(-0.77007654 -0.083045349 -0.090144678)
(-0.77143848 -0.075981999 -0.090135288)
(-0.83856825 -0.10008061 -0.097061698)
(-0.84028521 -0.093044682 -0.097361693)
(-0.84174033 -0.085957939 -0.097385804)
(-0.90906801 -0.1101176 -0.1042385)
(-0.91077016 -0.10307138 -0.10450953)
(-0.91227575 -0.096084004 -0.10456291)
(-0.97971777 -0.12021418 -0.11144397)
(-0.98139605 -0.11323352 -0.11166627)
(-0.98296615 -0.10623614 -0.11173801)
(-1.0503913 -0.13036834 -0.11855965)
(-1.0520664 -0.12337855 -0.11875034)
(-1.0536516 -0.11644318 -0.11883609)
(-1.121049 -0.14056668 -0.12569311)
(-1.1226857 -0.13352848 -0.12581658)
(-1.1243317 -0.1266725 -0.12596327)
(-1.1915704 -0.15069591 -0.13277647)
(-1.1932199 -0.14379366 -0.13292769)
(-1.1948722 -0.13685188 -0.13301077)
(-1.2621018 -0.1609124 -0.13986772)
(-1.2637675 -0.15399229 -0.13998462)
(-1.2654198 -0.14711825 -0.14010028)
(0.00041030093 0.0043092301 0.0024732357)
(0.00042286654 0.0041771409 -4.1812651e-05)
(6.7093445e-06 0.0043186118 -0.0033675076)
(-0.019773578 0.011013558 0.0010856491)
(-0.021585472 0.010272212 -0.0025011317)
(-0.020272922 0.013376598 -0.0059989371)
(-0.040044236 0.01804735 -0.0021630092)
(-0.04134954 0.022770285 -0.0059312697)
(-0.042520394 0.025520569 -0.0099566598)
(-0.072583986 0.023742001 -0.0066936348)
(-0.073671014 0.025572283 -0.009708686)
(-0.074127318 0.02975498 -0.012621284)
(-0.1092583 0.026720163 -0.011747433)
(-0.11064242 0.031902335 -0.014646639)
(-0.11115957 0.036141723 -0.017562082)
(-0.1536436 0.029153072 -0.017329845)
(-0.15513601 0.033697994 -0.020022771)
(-0.15572282 0.039179507 -0.022637783)
(-0.20271029 0.029631125 -0.023976745)
(-0.20364058 0.035146024 -0.026592143)
(-0.20480665 0.040426574 -0.028626504)
(-0.25628528 0.028226604 -0.03077693)
(-0.25796615 0.034136445 -0.032611599)
(-0.2588312 0.040353578 -0.034672176)
(-0.31397118 0.025785976 -0.037668018)
(-0.31511275 0.032068038 -0.039751107)
(-0.31641038 0.038297086 -0.04157345)
(-0.37469177 0.021876538 -0.045200746)
(-0.37621679 0.028270345 -0.046829379)
(-0.37736747 0.034928146 -0.048208105)
(-0.43797422 0.016673419 -0.052534871)
(-0.43939232 0.023451551 -0.053914966)
(-0.44084184 0.03014716 -0.055271368)
(-0.50355988 0.010581657 -0.060078156)
(-0.50509074 0.017359753 -0.061309617)
(-0.50641424 0.024214015 -0.062366279)
(-0.57061038 0.0034815709 -0.067568911)
(-0.5720886 0.010465428 -0.068571291)
(-0.57365476 0.017381211 -0.069473141)
(-0.6390365 -0.0042723451 -0.075074562)
(-0.64061311 0.0026947749 -0.075901859)
(-0.64208454 0.0096370097 -0.076667571)
(-0.70833251 -0.012692739 -0.082500885)
(-0.70985441 -0.0056744118 -0.083191022)
(-0.71146586 0.0012795545 -0.083803006)
(-0.77826839 -0.021588584 -0.089896351)
(-0.77986203 -0.014587343 -0.090452042)
(-0.78143914 -0.0076036273 -0.090941196)
(-0.84863013 -0.030871197 -0.097220699)
(-0.85020069 -0.023855338 -0.097650238)
(-0.85184531 -0.016909433 -0.098061009)
(-0.91920784 -0.040447099 -0.10447705)
(-0.92083312 -0.033461557 -0.10483853)
(-0.9224472 -0.026520831 -0.10514522)
(-0.98990212 -0.050237696 -0.11169727)
(-0.99149049 -0.043273869 -0.11196508)
(-0.99315469 -0.036341036 -0.1122194)
(-1.0605794 -0.060182549 -0.11887274)
(-1.0622535 -0.053223185 -0.11907776)
(-1.0638784 -0.046312742 -0.11927667)
(-1.1312153 -0.070231047 -0.12597759)
(-1.1328357 -0.063305932 -0.12616465)
(-1.134481 -0.05640066 -0.12633186)
(-1.2017731 -0.080343451 -0.13312373)
(-1.2034457 -0.073419636 -0.13327047)
(-1.2051002 -0.066538144 -0.13340164)
(-1.2722253 -0.090499147 -0.14020773)
(-1.2738874 -0.083574468 -0.14032696)
(-1.2755409 -0.076662726 -0.14042916)
)
;

boundaryField
{
    free
    {
        type            calculated;
    }
    fixed
    {
        type            calculated;
    }
    freeTop
    {
        type            calculated;
    }
}


// ************************************************************************* //
