/*--------------------------------*- C++ -*----------------------------------*\
  =========                 |
  \\      /  F ield         | OpenFOAM: The Open Source CFD Toolbox
   \\    /   O peration     | Website:  https://openfoam.org
    \\  /    A nd           | Version:  6
     \\/     M anipulation  |
\*---------------------------------------------------------------------------*/
FoamFile
{
    version     2.0;
    format      ascii;
    class       pointVectorField;
    location    "0.63";
    object      u;
}
// * * * * * * * * * * * * * * * * * * * * * * * * * * * * * * * * * * * * * //

dimensions      [0 1 0 0 0 0 0];

internalField   nonuniform List<vector> 
625
(
(0 0 0)
(0 0 0)
(2.3898999 -0.26232654 0.04631965)
(2.2339744 -0.79763931 0.025794406)
(0 0 0)
(0 0 0)
(2.2460068 -0.81733465 0.024490737)
(2.4017606 -0.28244158 0.045742877)
(0 0 0)
(0 0 0)
(0 0 0)
(2.3502288 -0.39676119 0.040365265)
(2.3112019 -0.52943884 0.035938767)
(2.2730529 -0.66277095 0.03081747)
(0.0075752812 0.025160042 0.022312734)
(0.027327484 0.050443101 0.02346888)
(0.061898949 0.074145956 0.024106547)
(0.11143866 0.094874553 0.023625934)
(0.17038889 0.11068316 0.023471452)
(0.24237933 0.12274835 0.022837416)
(0.32224861 0.12995818 0.022956971)
(0.41100052 0.13247803 0.022834033)
(0.50720618 0.13108228 0.023359616)
(0.60953489 0.12500048 0.023516287)
(0.71775405 0.11532312 0.024345581)
(0.83089214 0.10172262 0.025243851)
(0.94830225 0.084680167 0.026325237)
(1.0695257 0.064418931 0.027629826)
(1.1939705 0.041203254 0.029100699)
(1.3211596 0.015158347 0.030746142)
(1.4507304 -0.013156547 0.032412308)
(1.5821185 -0.044091196 0.034389638)
(1.715158 -0.076658935 0.036117117)
(1.8490815 -0.11116858 0.038209351)
(1.9840211 -0.14729398 0.040282499)
(2.1192476 -0.18431301 0.042288535)
(2.2542443 -0.22271641 0.044755637)
(-0.0040942484 -0.020699582 -0.030316571)
(0.016039171 -0.042594475 -0.024512103)
(0.047124485 -0.070245298 -0.027188551)
(0.087992271 -0.095212044 -0.024468739)
(0.13891078 -0.11993884 -0.023120114)
(0.20183234 -0.148771 -0.020977455)
(0.27070712 -0.17524553 -0.019714377)
(0.34955836 -0.20435774 -0.017320716)
(0.43496992 -0.23475096 -0.015690778)
(0.52734106 -0.26558854 -0.01343936)
(0.62563622 -0.29840953 -0.011349332)
(0.72949745 -0.33211937 -0.0089863739)
(0.83822724 -0.36712992 -0.0066586162)
(0.95134485 -0.4032493 -0.0041441003)
(1.068469 -0.44040531 -0.0015376447)
(1.1890412 -0.47849241 0.0011450883)
(1.3127547 -0.5173813 0.0039900833)
(1.4391496 -0.55686987 0.0068474073)
(1.5678878 -0.59689447 0.0099109266)
(1.6985615 -0.63712705 0.012894253)
(1.8309041 -0.67759774 0.016113911)
(1.9643429 -0.71783548 0.019197851)
(2.0987205 -0.7578573 0.022346938)
(0 0 0)
(0 0 0)
(0 0 0)
(0.0041866958 -0.013427691 0.0203911)
(0.020869133 -0.054567618 0.024521623)
(0.053691774 -0.069673652 0.019129999)
(0.094396577 -0.097653758 0.016117763)
(0.14889434 -0.12889687 0.01612952)
(0.21040191 -0.15260525 0.012386415)
(0.28092006 -0.18302881 0.012095978)
(0.35984668 -0.21313701 0.010414576)
(0.44579274 -0.24429602 0.0098618907)
(0.53837084 -0.27693233 0.0094166646)
(0.63692025 -0.31030909 0.0090834478)
(0.74088255 -0.3454574 0.0092474791)
(0.84967864 -0.38131579 0.0095512207)
(0.96291924 -0.41847516 0.010091715)
(1.0800476 -0.45652915 0.010896619)
(1.2006846 -0.49540639 0.01186306)
(1.3244191 -0.53502828 0.013018875)
(1.4508694 -0.57516879 0.014342417)
(1.5796169 -0.61565882 0.015787085)
(1.7104006 -0.65637879 0.017376536)
(1.8426427 -0.6969897 0.019079449)
(1.9762873 -0.73757569 0.020905716)
(2.1105857 -0.77758017 0.022856658)
(2.2853191 -0.6823012 0.02977511)
(2.3227313 -0.54922036 0.035241592)
(2.3620117 -0.41713421 0.041022308)
(2.2663047 -0.24288915 0.042201998)
(2.1306922 -0.20432295 0.038963345)
(1.9953165 -0.16676818 0.03560621)
(1.8603223 -0.1302395 0.032129667)
(1.7260326 -0.095191512 0.028682024)
(1.5928954 -0.061816951 0.025214262)
(1.461255 -0.030319938 0.021810628)
(1.3315388 -0.0010722831 0.018449736)
(1.2041469 0.025831884 0.015172256)
(1.0795338 0.050021913 0.011953517)
(0.95811573 0.071270662 0.0088694065)
(0.84053585 0.089422725 0.0057899767)
(0.72708306 0.10394824 0.0028712027)
(0.61873266 0.11520453 -0.00012708249)
(0.51567455 0.12202456 -0.0025817877)
(0.41970673 0.1242537 -0.0054915524)
(0.33012214 0.12357256 -0.0084259555)
(0.24889378 0.11709835 -0.010662218)
(0.17796292 0.10603719 -0.013471989)
(0.11606206 0.090446081 -0.015224535)
(0.066393172 0.073010279 -0.019338698)
(0.02936909 0.04801718 -0.018884283)
(0.014079522 0.022956372 -0.015962299)
(0 0 0)
(0 0 0)
(0 0 0)
(0 0 0)
(0 0 0)
(0 0 0)
(2.2366979 -0.80293645 0.025242005)
(2.2398851 -0.80796577 0.025239183)
(2.2426389 -0.81291079 0.024866823)
(2.3933837 -0.2669278 0.04622581)
(2.3963812 -0.27213924 0.045932602)
(2.3993485 -0.27696064 0.045835276)
(-0.0035243942 0.014011921 0.015444376)
(0.016229009 0.027621324 0.012090931)
(0.05040684 0.039587693 0.012835648)
(0.097467023 0.04854154 0.012268582)
(0.15548604 0.05447365 0.012412229)
(0.22561084 0.056718306 0.012544891)
(0.30338544 0.054983296 0.012709231)
(0.39034255 0.050077493 0.013304863)
(0.48405896 0.041197156 0.013868847)
(0.5846381 0.028798247 0.014627774)
(0.6908254 0.013347616 0.01573085)
(0.80197354 -0.0054845248 0.016873969)
(0.91761195 -0.027095975 0.018253665)
(1.037166 -0.051442582 0.019814715)
(1.1600573 -0.07835952 0.02152227)
(1.285924 -0.10745666 0.023342145)
(1.4142669 -0.13876311 0.025340806)
(1.5446771 -0.17184815 0.027423703)
(1.6768858 -0.20648258 0.029513445)
(1.810237 -0.24272801 0.03191405)
(1.9447519 -0.28005871 0.033959705)
(2.079687 -0.31809501 0.036418241)
(2.2149447 -0.35751683 0.038644545)
(-0.0086200388 0.0027634272 8.8468891e-05)
(0.012625641 0.0030785135 -0.0017268312)
(0.044368582 0.0039562577 -0.0010429076)
(0.089777131 0.0022958486 -7.9575484e-05)
(0.14676424 -0.0029628207 0.00026780349)
(0.2134873 -0.010142858 0.0010408675)
(0.28934147 -0.0201951 0.0018426952)
(0.37373686 -0.033496805 0.0029130247)
(0.4649822 -0.049342975 0.0038988035)
(0.56319757 -0.068013193 0.0052769469)
(0.66686687 -0.089304091 0.0066599798)
(0.77591411 -0.11313617 0.0082460817)
(0.8894689 -0.13929078 0.010012562)
(1.0070969 -0.16765812 0.01190479)
(1.1282564 -0.19802729 0.013918014)
(1.2525702 -0.23023539 0.01608704)
(1.3795258 -0.264101 0.018361306)
(1.5088089 -0.29934782 0.020691897)
(1.6399965 -0.33595985 0.023188147)
(1.7725963 -0.3734691 0.025637952)
(1.9065732 -0.41187549 0.028210309)
(2.0411319 -0.45085399 0.030846485)
(2.1765911 -0.4902987 0.033383443)
(-0.01132004 -0.009444484 -0.010748559)
(0.010579629 -0.018196328 -0.011824992)
(0.040238995 -0.028429979 -0.011860762)
(0.08553139 -0.042372525 -0.011182666)
(0.13974509 -0.05833282 -0.010555634)
(0.20446068 -0.074366493 -0.00942906)
(0.27822322 -0.094423119 -0.0081403264)
(0.35963178 -0.11525325 -0.0068531326)
(0.44856729 -0.13840849 -0.0053916405)
(0.54400521 -0.16375384 -0.0037067688)
(0.64529929 -0.19080447 -0.0020320276)
(0.7519674 -0.21990317 -7.768158e-05)
(0.86325 -0.25068513 0.0019261912)
(0.97880562 -0.28310986 0.0040589337)
(1.098056 -0.31709191 0.0063550464)
(1.2206616 -0.35238259 0.0087313547)
(1.3460724 -0.38890639 0.011233238)
(1.4740797 -0.42649505 0.013853117)
(1.6040648 -0.46485336 0.01650022)
(1.7359285 -0.50399405 0.01934092)
(1.8690306 -0.54353076 0.022038826)
(2.0032335 -0.58330986 0.024947634)
(2.1380886 -0.62316456 0.027796592)
(0 0 0)
(0 0 0)
(0 0 0)
(0 0 0)
(0 0 0)
(0 0 0)
(0 0 0)
(0 0 0)
(0 0 0)
(0.0081516955 -0.0088034984 -0.013439532)
(0.011663471 -0.011821857 -0.0030390404)
(0.010610803 -0.0084559759 0.0065645481)
(0.031059605 -0.050167849 -0.013597687)
(0.03144266 -0.051092061 -0.0021614862)
(0.030445319 -0.049314874 0.012170027)
(0.057449952 -0.07056086 -0.015213128)
(0.061268174 -0.069906285 -0.0041918799)
(0.062078852 -0.07477624 0.009443718)
(0.097739211 -0.097735207 -0.013387415)
(0.1024363 -0.10053815 -0.0034809705)
(0.10085286 -0.098930376 0.0073558292)
(0.15009713 -0.12558143 -0.013335709)
(0.15329415 -0.12647371 -0.004835264)
(0.15402313 -0.12924397 0.0065695181)
(0.20973806 -0.15198885 -0.012504625)
(0.21426857 -0.15384157 -0.0035520347)
(0.21463763 -0.15477911 0.0052843867)
(0.27967008 -0.18008041 -0.011220686)
(0.2837275 -0.18315589 -0.0047097921)
(0.28467934 -0.18480343 0.0050301928)
(0.35750402 -0.20972168 -0.010301642)
(0.36149288 -0.21105297 -0.0036088468)
(0.36263424 -0.21364084 0.0041300572)
(0.44249027 -0.23933619 -0.0089342401)
(0.4463392 -0.24264206 -0.0032444454)
(0.44769793 -0.24466279 0.0041396543)
(0.53434873 -0.2712029 -0.00762598)
(0.5381947 -0.27404505 -0.0023476197)
(0.53990495 -0.27678339 0.0041695059)
(0.63221346 -0.30365879 -0.0060055124)
(0.6360257 -0.30709178 -0.0013646294)
(0.63774884 -0.30985783 0.0044727826)
(0.7356674 -0.33774434 -0.0042836804)
(0.73931429 -0.34125646 -0.00019372257)
(0.74133027 -0.34436942 0.0050645261)
(0.843967 -0.3727054 -0.0024634399)
(0.84763383 -0.37650971 0.0011893517)
(0.84969425 -0.37995499 0.0058659521)
(0.95678523 -0.40896854 -0.00044585597)
(0.96031734 -0.41299195 0.0027514382)
(0.96251813 -0.41661434 0.0068316236)
(1.0735273 -0.44615434 0.0016860067)
(1.0770108 -0.4503623 0.0044545441)
(1.0793174 -0.45427928 0.0080420271)
(1.1938129 -0.48428589 0.0039305098)
(1.1972408 -0.48869149 0.0063305511)
(1.1996152 -0.4927903 0.0094221206)
(1.3172148 -0.5231627 0.006336825)
(1.3205598 -0.52770203 0.0083610095)
(1.323035 -0.53202462 0.010946106)
(1.4433407 -0.56266647 0.0088191002)
(1.4466606 -0.56736956 0.010479165)
(1.4491988 -0.57184832 0.012649813)
(1.5717977 -0.60261485 0.011439137)
(1.5750393 -0.60737742 0.012776767)
(1.5776512 -0.61201698 0.014459276)
(1.7022591 -0.64282023 0.01411)
(1.7054725 -0.64771464 0.015116305)
(1.7081585 -0.65245894 0.016394596)
(1.8342579 -0.68312893 0.016909435)
(1.8374004 -0.68797778 0.017577476)
(1.8401702 -0.69282188 0.018440986)
(1.96758 -0.72330657 0.019684028)
(1.9707087 -0.72829504 0.020093615)
(1.9735423 -0.73324013 0.020553442)
(2.1017357 -0.76332435 0.022498338)
(2.1047462 -0.76818932 0.022546637)
(2.1077809 -0.77306406 0.022745522)
(2.3537645 -0.40155946 0.040854296)
(2.3568279 -0.40660567 0.040775357)
(2.3596116 -0.41158924 0.040878181)
(2.3142711 -0.53434126 0.035945096)
(2.3173364 -0.53953893 0.035622922)
(2.3200395 -0.54425505 0.035432763)
(2.2760437 -0.66806549 0.030457382)
(2.2792068 -0.6730405 0.030327492)
(2.2820546 -0.67781163 0.030095617)
(0.018580084 0.020283361 0.010977018)
(0.01887809 0.022640561 0.003680871)
(0.020244683 0.022253483 -0.0049535532)
(0.035927729 0.047466801 0.012802547)
(0.039085202 0.047854573 0.00080677001)
(0.038727158 0.046570699 -0.0095141903)
(0.073452268 0.07266993 0.012763346)
(0.074216339 0.071953982 0.0040504056)
(0.075112096 0.072275645 -0.0089525079)
(0.11952615 0.091367805 0.013165676)
(0.1228136 0.090915413 0.0035551291)
(0.12296652 0.091303414 -0.0070083811)
(0.18002269 0.10884039 0.013967508)
(0.18362924 0.10742852 0.0043475955)
(0.18366035 0.10678171 -0.0047787669)
(0.25104952 0.11942677 0.013666857)
(0.25326736 0.11765653 0.0064950339)
(0.25463329 0.11724198 -0.003344961)
(0.33044444 0.12637177 0.014573043)
(0.33370345 0.12476758 0.0071035331)
(0.33481804 0.12368643 -0.0014260501)
(0.41907735 0.128854 0.015187995)
(0.42206872 0.12687828 0.0084307852)
(0.42306013 0.12590595 0.00077265322)
(0.51435849 0.12748499 0.016281415)
(0.51746705 0.12431593 0.0099502854)
(0.51919052 0.12291332 0.0030017809)
(0.61675687 0.1207855 0.01708768)
(0.61962905 0.11826748 0.011860871)
(0.62131313 0.11614545 0.0050661169)
(0.72440074 0.11083179 0.018478285)
(0.72730944 0.10795383 0.013283383)
(0.72913433 0.10578092 0.0074460437)
(0.83712088 0.097123279 0.019872051)
(0.84009295 0.09390023 0.015286139)
(0.84209327 0.091391443 0.010009594)
(0.95419249 0.079924253 0.021496007)
(0.9571808 0.0764208 0.0173515)
(0.95922703 0.073657623 0.012576325)
(1.0750792 0.059525492 0.023265982)
(1.0780338 0.055786114 0.019569643)
(1.0801865 0.052742323 0.015285584)
(1.1991943 0.036177822 0.025230257)
(1.2021544 0.032206933 0.021900281)
(1.2044236 0.028892903 0.018120916)
(1.3261009 0.010089148 0.027246633)
(1.3290903 0.0059187295 0.024370231)
(1.3314066 0.0023726944 0.021022042)
(1.455389 -0.018380131 0.02948958)
(1.4583327 -0.022751292 0.026927063)
(1.4607724 -0.026602297 0.024049697)
(1.5865412 -0.049236227 0.03171846)
(1.5895453 -0.053741108 0.029542734)
(1.5920267 -0.057731299 0.027105035)
(1.719254 -0.081848628 0.03404707)
(1.7222256 -0.086551482 0.03231672)
(1.7248229 -0.090836736 0.030249033)
(1.8530463 -0.11639222 0.036633073)
(1.8561269 -0.12115664 0.034933233)
(1.8587602 -0.1256304 0.033393155)
(1.9877514 -0.1524119 0.038892985)
(1.9907691 -0.15736878 0.037725064)
(1.993442 -0.16191574 0.036570976)
(2.122717 -0.18962338 0.041219925)
(2.1257222 -0.19431202 0.040531515)
(2.1285286 -0.1991978 0.039679766)
(2.2581563 -0.22765825 0.044049948)
(2.2610456 -0.23266767 0.043359217)
(2.2639548 -0.23773798 0.042930918)
(-0.00021565663 0.0077723437 -0.0104101)
(0.021563067 0.029575104 -0.01070453)
(0.053789366 0.035785035 -0.0078432066)
(0.1036813 0.045030268 -0.0079838049)
(0.16267985 0.049520359 -0.0059494993)
(0.23257258 0.050534477 -0.0046118654)
(0.31176201 0.047937216 -0.0029863469)
(0.39864298 0.041568704 -0.0011241334)
(0.49318225 0.03162875 0.0006261803)
(0.59385311 0.018261223 0.0027846969)
(0.7002068 0.0016142613 0.0046826328)
(0.8116521 -0.018319218 0.0070696683)
(0.92745987 -0.040945995 0.0093851542)
(1.0471494 -0.066304662 0.011839446)
(1.1702224 -0.094143678 0.014458568)
(1.296225 -0.12417674 0.017122109)
(1.4247219 -0.15620735 0.019928814)
(1.5553415 -0.1900404 0.022771377)
(1.6876236 -0.2253708 0.025711475)
(1.8212981 -0.26202767 0.028653037)
(1.9559055 -0.29976408 0.031675513)
(2.0909903 -0.33822624 0.034637153)
(2.2266396 -0.37770233 0.037844118)
(-0.0071334027 0.0037255873 0.0015510159)
(0.014596353 0.0055545539 -4.5040084e-05)
(0.04951808 0.00097051917 0.0013315073)
(0.09688736 -9.0823378e-05 0.00026027692)
(0.15389306 -0.0070060999 0.00060574532)
(0.22222254 -0.015667776 0.0013466126)
(0.29851227 -0.026842381 0.0016705812)
(0.38340509 -0.041287356 0.0026152991)
(0.4752316 -0.058543244 0.003675775)
(0.57354811 -0.078189249 0.0047201965)
(0.67760801 -0.10072764 0.0061104102)
(0.78681232 -0.12575443 0.0076451127)
(0.90048486 -0.15288052 0.0092784709)
(1.0182637 -0.18231784 0.011153304)
(1.1395349 -0.21359097 0.013130784)
(1.2639211 -0.24668422 0.015243598)
(1.3910187 -0.28129116 0.01751561)
(1.5203748 -0.31731664 0.019820918)
(1.651656 -0.35442698 0.022319253)
(1.7844515 -0.39250414 0.02478732)
(1.9184545 -0.43128295 0.027355239)
(2.0530349 -0.4705383 0.029957912)
(2.1889374 -0.51030362 0.032541773)
(-0.010297682 -0.0086906555 0.009120255)
(0.016194792 -0.013874036 0.0088998285)
(0.048287578 -0.034055626 0.012108075)
(0.092570624 -0.041856273 0.0080052236)
(0.14904581 -0.061791218 0.0091669162)
(0.21430559 -0.07957715 0.008151934)
(0.28815819 -0.099460762 0.0074380539)
(0.37051107 -0.12297001 0.0077308143)
(0.45947347 -0.14663521 0.0074792956)
(0.55535217 -0.17361629 0.0079398191)
(0.6567031 -0.20184272 0.008446228)
(0.7635033 -0.23208343 0.0091416086)
(0.87486611 -0.26402049 0.010155589)
(0.99050277 -0.29751624 0.011268919)
(1.1097947 -0.33248006 0.012621463)
(1.2324142 -0.3686888 0.01412195)
(1.357909 -0.40604803 0.015770734)
(1.4858884 -0.44432958 0.017549881)
(1.6159757 -0.48335974 0.019477456)
(1.7478322 -0.52296541 0.021411267)
(1.8809388 -0.56282733 0.023573119)
(2.0152598 -0.60295425 0.025562617)
(2.149987 -0.64278063 0.027950901)
(0.0039865799 0.0068522264 0.0069802514)
(0.0041929059 0.0076094971 0.0027244156)
(0.0069564587 0.0065913478 -0.004144407)
(0.026568661 0.026976362 0.005553048)
(0.030146434 0.027002688 -0.00026760568)
(0.028075914 0.027089713 -0.0064280514)
(0.06085804 0.036912876 0.0060783848)
(0.061916979 0.036225915 0.0012990477)
(0.06259776 0.03558354 -0.0039177727)
(0.10682227 0.046596633 0.0064178456)
(0.11049061 0.045997231 0.0012766264)
(0.110188 0.044798613 -0.0037640293)
(0.1656004 0.051694561 0.006239356)
(0.16862901 0.050374771 0.002271246)
(0.16916963 0.049225228 -0.0023453879)
(0.23425384 0.053347263 0.0072586655)
(0.2375294 0.052129174 0.0031856745)
(0.23764843 0.050617875 -0.0011271208)
(0.31191915 0.051653476 0.0077918802)
(0.31525543 0.050129534 0.0039754861)
(0.31628944 0.048309089 0.00030359768)
(0.39817319 0.046431194 0.0086009465)
(0.40160116 0.043964562 0.005372105)
(0.40247475 0.041920967 0.0015770138)
(0.49157453 0.03686949 0.009719651)
(0.49497009 0.034824342 0.0064989593)
(0.49618374 0.032712565 0.0035235751)
(0.59162589 0.024657638 0.010778951)
(0.59502434 0.021920002 0.0079566629)
(0.59631982 0.019267077 0.0050305999)
(0.69736333 0.0088420893 0.012210411)
(0.70059304 0.0057861228 0.0096741401)
(0.70213229 0.0032295202 0.0069600684)
(0.80809147 -0.010147568 0.013692232)
(0.81142156 -0.013313855 0.011351295)
(0.81311465 -0.016392909 0.0089781445)
(0.92340784 -0.031874758 0.015368276)
(0.92666458 -0.035421054 0.013281416)
(0.92843888 -0.038670725 0.01117281)
(1.0425867 -0.056433051 0.017227117)
(1.0458014 -0.060146708 0.015352853)
(1.047712 -0.063678196 0.013430887)
(1.1651667 -0.083395447 0.019195355)
(1.1683668 -0.087371998 0.017532418)
(1.1703914 -0.091125193 0.01585445)
(1.290754 -0.11264613 0.021312136)
(1.2939059 -0.11681497 0.01986854)
(1.296013 -0.12080571 0.01836423)
(1.4187833 -0.14394669 0.023553563)
(1.4219223 -0.14829774 0.022275328)
(1.4241656 -0.15251855 0.021004866)
(1.5489987 -0.17708689 0.02586327)
(1.5521156 -0.18163599 0.024819414)
(1.5544025 -0.18597729 0.023692567)
(1.6809143 -0.21171747 0.02827347)
(1.6839394 -0.21639902 0.027370802)
(1.6864192 -0.22104382 0.026496297)
(1.8139993 -0.24792657 0.03081351)
(1.8172051 -0.25279206 0.03009539)
(1.8196567 -0.25742828 0.029263941)
(1.9482353 -0.28515884 0.033099279)
(1.9515833 -0.29001686 0.03277301)
(1.954018 -0.29481952 0.032157023)
(2.0831116 -0.32329645 0.035839591)
(2.0861129 -0.32811466 0.035511793)
(2.0887416 -0.33316932 0.034960764)
(2.2183333 -0.36228135 0.038360747)
(2.2212229 -0.36735394 0.038098743)
(2.2240955 -0.37236484 0.037896386)
(-0.0024242177 0.0019560185 -0.00068287468)
(-0.00037474689 0.0024978045 -0.0013938677)
(0.0016038639 0.0029221501 0.00022484703)
(0.020932851 0.0031956903 -0.0032621473)
(0.023731383 0.0040034588 -0.0021948579)
(0.021451282 0.0030010637 -0.0014548257)
(0.054268257 0.0025906768 -0.001871407)
(0.056548799 0.0014769094 5.6871623e-05)
(0.056752512 0.0013493972 1.605448e-05)
(0.098544497 -0.00040579948 -0.0019584991)
(0.10365054 -0.0017090289 -0.00061591233)
(0.10228205 -0.00305365 -0.00044769741)
(0.15584145 -0.0052513653 -0.00094655594)
(0.15962395 -0.0073054105 0.00097349597)
(0.15879701 -0.007456249 -0.00037727702)
(0.22194036 -0.013251061 -0.00018905208)
(0.22602707 -0.015459591 0.00077998622)
(0.22594166 -0.016555592 0.00066571847)
(0.29748773 -0.023476859 0.00039150612)
(0.30154268 -0.02636819 0.0019709681)
(0.30163413 -0.027710697 0.00084114064)
(0.38139494 -0.037329874 0.0017863795)
(0.38538703 -0.04015336 0.002795993)
(0.38557985 -0.041144785 0.0020588015)
(0.47226838 -0.0531458 0.0026966403)
(0.47606807 -0.056433847 0.0036530335)
(0.47689981 -0.058380857 0.0028997531)
(0.57000974 -0.072194293 0.0041486005)
(0.57382044 -0.075742692 0.005111534)
(0.57469153 -0.077567034 0.004327892)
(0.6733556 -0.093775643 0.0056516269)
(0.67697462 -0.09737238 0.0063991871)
(0.67817699 -0.099723073 0.0055691896)
(0.78199343 -0.11773644 0.0072490552)
(0.78562001 -0.1216545 0.0079334148)
(0.78700414 -0.12422696 0.0072193044)
(0.89522007 -0.14406632 0.0091154107)
(0.89876168 -0.14818618 0.0097076409)
(0.90024531 -0.15107215 0.0089454681)
(1.0124907 -0.17260235 0.011046651)
(1.0159503 -0.17690819 0.011524695)
(1.0176553 -0.18002085 0.010838994)
(1.1333837 -0.2030603 0.013154503)
(1.1367823 -0.20751433 0.013563367)
(1.138616 -0.21097211 0.01290751)
(1.2573851 -0.23538837 0.015369763)
(1.260719 -0.24001022 0.015693689)
(1.2626989 -0.24368905 0.015069599)
(1.3840996 -0.2692828 0.017721004)
(1.3873724 -0.27402675 0.017966772)
(1.389476 -0.27798585 0.01740006)
(1.513141 -0.30462328 0.020126649)
(1.5163314 -0.30952509 0.020320113)
(1.5186031 -0.31365242 0.019767225)
(1.6440461 -0.34117602 0.022679501)
(1.6472368 -0.34611606 0.022767249)
(1.64958 -0.35053454 0.022329143)
(1.7765668 -0.37871266 0.025170987)
(1.779567 -0.38393168 0.025309066)
(1.7821195 -0.38832721 0.02482091)
(1.910406 -0.41706658 0.027995723)
(1.9130855 -0.4221747 0.027706946)
(1.9159727 -0.42684604 0.027498376)
(2.0445258 -0.45609108 0.030479958)
(2.0476028 -0.46099836 0.030502306)
(2.0502069 -0.46590659 0.030043054)
(2.1798501 -0.49531757 0.033131164)
(2.1829879 -0.50054754 0.032975499)
(2.1859108 -0.5052874 0.032789321)
(-0.002514386 -0.006327324 -0.0048391843)
(-0.002778864 -0.0057309562 -0.00031777099)
(-0.0028059989 -0.0052424155 0.0042434159)
(0.022494299 -0.017543992 -0.0068767602)
(0.02531166 -0.014288594 -0.00045257277)
(0.023375118 -0.015899342 0.0047032435)
(0.05158023 -0.030399176 -0.0067842106)
(0.054888076 -0.03429616 -0.00055368888)
(0.055372098 -0.033974798 0.0056589393)
(0.096678225 -0.046165383 -0.006689128)
(0.099252977 -0.044896208 -0.00095647281)
(0.099650595 -0.045915366 0.0037671731)
(0.15003753 -0.060769459 -0.0058847261)
(0.15350534 -0.063249873 -0.00083490209)
(0.15439227 -0.063480341 0.0037575856)
(0.21429461 -0.078856309 -0.0057331554)
(0.21759252 -0.080530016 -0.00092943795)
(0.21863698 -0.081669987 0.0030471646)
(0.28731344 -0.09870879 -0.0045609116)
(0.29054339 -0.10051112 -9.2333367e-05)
(0.29210693 -0.10127478 0.003268304)
(0.36825831 -0.11968112 -0.0036593298)
(0.37143441 -0.12213458 -0.00016523327)
(0.37329307 -0.12401991 0.0032866583)
(0.45658981 -0.14335699 -0.0026373856)
(0.45983119 -0.14590261 0.00099034892)
(0.46189279 -0.14760818 0.0039999109)
(0.55152811 -0.16881463 -0.0011584344)
(0.5547689 -0.17159875 0.001839903)
(0.55693771 -0.17380525 0.004416725)
(0.65233287 -0.19600927 0.00018508005)
(0.65551138 -0.19916876 0.002919358)
(0.65792886 -0.20170291 0.0053530989)
(0.75854615 -0.22529223 0.0018711652)
(0.76173108 -0.22863444 0.004315893)
(0.76418853 -0.23145756 0.0063702827)
(0.86941227 -0.25615908 0.0036400461)
(0.87253042 -0.25979389 0.0057538609)
(0.87513319 -0.26292023 0.0076193002)
(0.98457809 -0.28873444 0.005542385)
(0.98770544 -0.29254056 0.0074174425)
(0.99034241 -0.29594775 0.0090500474)
(1.1034758 -0.32275224 0.0076263428)
(1.1065503 -0.32677841 0.0092377689)
(1.1092814 -0.33048137 0.010648451)
(1.2257102 -0.35811892 0.0098030789)
(1.2287918 -0.36237177 0.011196649)
(1.231541 -0.36628785 0.012390455)
(1.3508346 -0.39469014 0.012131412)
(1.3538537 -0.39907294 0.013274812)
(1.3566926 -0.40321927 0.014299804)
(1.4784838 -0.4322373 0.014547504)
(1.4815398 -0.43683269 0.015508168)
(1.4844019 -0.4411698 0.016302647)
(1.6082211 -0.47064758 0.017061073)
(1.6112033 -0.47532532 0.017794061)
(1.61411 -0.47979806 0.018447366)
(1.739754 -0.50966219 0.01971589)
(1.7427977 -0.51450331 0.02022366)
(1.745769 -0.51912789 0.020658828)
(1.8725848 -0.54910859 0.022242692)
(1.8755421 -0.55394124 0.02265162)
(1.8785382 -0.55863406 0.022961889)
(2.006571 -0.58882783 0.025034913)
(2.0095778 -0.59378526 0.025297394)
(2.012688 -0.59857317 0.025369075)
(2.141097 -0.62857748 0.027716716)
(2.1440974 -0.63334733 0.027745418)
(2.147094 -0.63835295 0.027631766)
)
;

boundaryField
{
    free
    {
        type            calculated;
    }
    fixed
    {
        type            calculated;
    }
    traction
    {
        type            calculated;
    }
}


// ************************************************************************* //
