/*--------------------------------*- C++ -*----------------------------------*\
  =========                 |
  \\      /  F ield         | OpenFOAM: The Open Source CFD Toolbox
   \\    /   O peration     | Website:  https://openfoam.org
    \\  /    A nd           | Version:  6
     \\/     M anipulation  |
\*---------------------------------------------------------------------------*/
FoamFile
{
    version     2.0;
    format      ascii;
    class       pointVectorField;
    location    "1.95";
    object      lm;
}
// * * * * * * * * * * * * * * * * * * * * * * * * * * * * * * * * * * * * * //

dimensions      [1 -2 -1 0 0 0 0];

internalField   nonuniform List<vector> 
625
(
(-3.6361799e-15 2.112754e-16 -3.2990721e-16)
(2.8178306e-17 1.9013092e-16 6.1994168e-17)
(7175.5949 363.17754 551.80692)
(6990.7376 -1386.3562 547.2546)
(6.5239771e-16 2.739523e-16 -5.5565719e-16)
(-3.7042918e-15 1.4868296e-15 -1.3023874e-15)
(7030.3616 -1635.8118 555.0682)
(7215.5036 112.39085 561.95652)
(-1.9658614e-16 -3.2115893e-17 -1.1045223e-16)
(1.4766345e-16 -3.4299605e-16 -2.8648028e-16)
(-1.0135278e-15 7.0169807e-16 1.7538027e-16)
(7113.4445 -74.051744 549.02285)
(7072.3532 -508.78399 548.97735)
(7042.786 -948.09268 549.08594)
(0.63982687 46.497884 49.366747)
(41.732038 99.847141 40.906681)
(117.88805 157.67416 29.108882)
(233.50105 215.49908 10.149468)
(374.50158 270.05911 -7.9868637)
(553.5414 325.57045 -27.269935)
(757.16707 376.84673 -42.093477)
(992.65214 425.29185 -55.099928)
(1255.4251 470.81275 -61.919983)
(1542.7454 509.62908 -64.874441)
(1855.6549 545.46178 -59.975957)
(2190.7333 574.1043 -48.470149)
(2547.1427 596.48723 -29.477029)
(2921.158 611.39738 -2.8381845)
(3312.0767 618.67278 31.179741)
(3716.117 617.81366 72.318344)
(4131.4826 609.03115 119.44291)
(4555.8697 591.61978 172.91821)
(4986.2756 567.59095 229.78648)
(5420.6044 535.81879 291.20128)
(5858.3391 497.99474 354.94864)
(6295.3617 456.52266 419.45667)
(6732.624 409.43768 485.83195)
(-2.8893045 -62.081833 -82.134964)
(46.157146 -129.81416 -78.07589)
(117.20384 -202.27754 -102.23583)
(217.98385 -271.7904 -113.8548)
(348.48275 -333.77625 -130.43324)
(513.43632 -402.35461 -143.13207)
(700.53532 -460.41914 -155.89674)
(920.19975 -521.68093 -161.36044)
(1166.0283 -581.74344 -164.44638)
(1436.6463 -638.02416 -159.64603)
(1733.5639 -696.52317 -148.34385)
(2053.5205 -753.68421 -129.42433)
(2395.5386 -810.16945 -102.83112)
(2757.7415 -866.77756 -68.209034)
(3138.4687 -922.82487 -25.99445)
(3534.859 -978.51452 23.110325)
(3945.2124 -1033.4784 78.756112)
(4366.4487 -1087.7647 139.32933)
(4796.4442 -1140.8828 204.48746)
(5232.0324 -1192.7087 271.95777)
(5671.7582 -1243.4837 341.72253)
(6111.5873 -1292.521 410.9589)
(6553.068 -1340.1017 480.52406)
(-4.8813632e-16 1.9183015e-16 -1.0607077e-16)
(-2.6214496e-15 -5.6404768e-16 7.244144e-16)
(-2.4010456e-15 1.4295629e-15 -1.6975308e-16)
(3.6003006 -25.161824 44.367446)
(45.193981 -113.49798 43.566457)
(126.64644 -151.72812 19.413816)
(234.25344 -218.47601 -2.4001579)
(378.21021 -289.89316 -17.297169)
(547.37946 -354.77758 -40.313296)
(742.46153 -426.1596 -52.011447)
(969.95924 -503.74129 -65.688272)
(1218.7596 -580.13631 -71.0031)
(1495.8067 -661.61148 -71.460556)
(1793.6346 -742.37817 -65.463273)
(2116.1455 -826.36816 -51.797775)
(2457.4885 -909.27215 -31.203046)
(2819.3724 -992.23698 -3.1132499)
(3197.8393 -1073.7845 32.189188)
(3591.91 -1152.6427 74.299017)
(3999.0192 -1228.5964 122.40941)
(4417.0503 -1300.3461 176.0138)
(4843.5768 -1367.8037 233.8906)
(5276.3437 -1429.9972 295.17638)
(5712.8008 -1487.7151 359.01425)
(6151.1844 -1540.2511 424.03854)
(6588.8025 -1588.7066 489.79167)
(7082.9948 -1198.5108 557.12304)
(7108.4945 -759.25392 557.83502)
(7157.6499 -325.61165 560.0447)
(6773.8038 158.82946 494.16239)
(6334.663 206.36236 424.51742)
(5894.0273 252.01034 354.38311)
(5453.2782 296.66292 283.90498)
(5014.6527 338.49242 215.17387)
(4580.4885 377.24193 149.38177)
(4153.0227 411.73714 87.860661)
(3734.9764 441.38793 31.828231)
(3328.7926 465.39803 -17.606597)
(2936.8899 483.31765 -59.851616)
(2561.9436 494.17964 -93.879695)
(2205.8607 498.25302 -120.16006)
(1870.789 495.46437 -138.85997)
(1558.5906 483.92657 -147.94629)
(1272.8759 462.79913 -151.41163)
(1010.2297 438.89041 -148.99677)
(776.64347 405.78372 -141.40269)
(571.44616 362.6935 -128.29154)
(397.81841 314.75898 -114.61633)
(253.05255 258.37525 -97.506545)
(139.50133 200.93598 -84.319659)
(62.910292 127.95816 -68.755596)
(38.177835 63.359442 -40.230968)
(-1.3028228e-15 -3.4252847e-16 3.3068324e-16)
(-2.0449562e-15 -3.5718549e-16 -7.3673077e-16)
(-1.4121951e-15 -1.0527101e-15 6.223458e-16)
(-1.2019486e-15 6.189313e-16 -3.4292956e-16)
(-1.2511779e-16 -6.848356e-17 2.1836215e-16)
(-3.8898857e-17 4.7141393e-16 -3.1043199e-16)
(7000.5782 -1449.7743 548.93162)
(7010.5622 -1512.2096 550.87567)
(7019.7674 -1573.7683 553.18223)
(7185.7038 300.57918 554.346)
(7196.2281 238.3588 555.77322)
(7206.0089 176.33965 559.34496)
(-20.532284 22.183981 26.486478)
(20.249023 44.629303 9.2329307)
(94.115163 69.345153 -1.6936057)
(205.87043 94.554548 -20.226309)
(344.18003 120.06716 -36.90551)
(520.6179 146.25011 -53.036811)
(720.99989 168.07797 -67.12477)
(954.25144 190.88358 -77.983075)
(1212.1576 209.53195 -84.027768)
(1499.1369 225.01637 -84.07691)
(1809.7728 237.21119 -77.642865)
(2143.6414 243.84821 -64.570463)
(2498.1663 246.08298 -43.731013)
(2871.5826 242.59568 -15.732261)
(3261.3726 233.30172 19.925951)
(3664.7396 218.1158 62.124784)
(4079.977 196.87483 110.94711)
(4503.374 170.08389 165.08254)
(4933.9426 138.13822 223.49199)
(5368.3609 101.2743 286.01091)
(5805.6512 60.487759 350.03031)
(6242.589 17.360362 416.54179)
(6681.4238 -28.45501 483.28604)
(-28.196535 -6.0019806 -12.514834)
(20.534511 -17.158183 -25.131356)
(90.19342 -20.577302 -39.467774)
(198.40346 -25.974027 -52.995454)
(337.82983 -31.304211 -69.50051)
(507.05749 -35.806444 -84.000642)
(705.10639 -39.848463 -97.133884)
(933.6828 -45.842001 -105.26481)
(1187.7784 -52.885884 -109.18547)
(1469.123 -62.021804 -107.59475)
(1773.9306 -73.07769 -99.559299)
(2102.6714 -87.307945 -84.106224)
(2452.6408 -104.4504 -61.331056)
(2822.1816 -125.31382 -31.111988)
(3208.963 -149.83808 6.5670156)
(3610.8915 -178.09016 50.954312)
(4025.4474 -210.21278 101.80309)
(4450.001 -245.63244 157.80989)
(4882.7081 -284.76645 218.54443)
(5319.763 -326.12819 282.09323)
(5760.8881 -370.6229 348.90483)
(6201.8479 -415.78643 415.33597)
(6642.8639 -462.81387 482.97744)
(-26.303284 -37.186386 -37.963447)
(24.433653 -72.170059 -50.475914)
(90.03476 -106.88 -66.181416)
(200.5289 -143.89993 -80.73658)
(334.34595 -181.17136 -97.532472)
(500.96917 -211.53491 -111.97661)
(696.92156 -246.94429 -123.06576)
(920.00181 -278.52733 -130.87131)
(1169.2247 -310.97493 -134.34528)
(1445.7334 -343.90841 -131.05786)
(1745.8653 -377.32677 -121.47569)
(2070.1316 -412.33986 -104.44259)
(2415.4126 -448.77942 -80.250043)
(2781.184 -486.82904 -48.363149)
(3164.8295 -526.90657 -9.0852683)
(3564.6903 -568.72968 37.068422)
(3978.0563 -612.61202 89.657227)
(4402.8108 -658.02431 147.64414)
(4835.9342 -704.9899 209.9816)
(5275.3407 -753.24102 276.04779)
(5717.7019 -802.08518 343.39849)
(6161.3835 -851.22336 412.32215)
(6602.6569 -900.76226 480.98805)
(-2.5953868e-15 -2.1703571e-16 4.2716933e-18)
(-3.8783653e-15 3.5858996e-16 7.5215743e-16)
(-9.8459492e-16 7.8127033e-16 2.7525688e-16)
(-3.9146975e-16 7.8165185e-18 1.2560621e-16)
(1.6350797e-16 -2.4226884e-16 -1.2066667e-17)
(-1.0304172e-15 -9.2669207e-16 -7.5672327e-16)
(-6.4481012e-16 3.525084e-16 2.7116342e-16)
(-3.5205005e-15 9.4737515e-16 -2.5196009e-17)
(-3.8147498e-15 1.043275e-15 1.2924308e-16)
(23.911331 -24.461964 -34.365732)
(28.649301 -28.92659 -7.8768195)
(22.564396 -19.150854 15.488903)
(80.292591 -131.18606 -47.277717)
(77.023722 -123.83222 -19.626972)
(72.242836 -112.69217 15.852393)
(140.04079 -183.21179 -68.627452)
(148.80611 -170.94165 -38.053936)
(149.17411 -174.1088 -5.0080834)
(246.8474 -257.60436 -81.868234)
(257.22044 -252.31644 -55.153603)
(253.57837 -236.37575 -25.807412)
(380.33757 -323.94657 -101.32974)
(390.1115 -310.97658 -75.954299)
(393.02102 -305.68586 -44.270152)
(541.50996 -389.05215 -117.29647)
(556.30981 -381.36656 -90.060375)
(559.55317 -372.21643 -63.434552)
(733.02887 -453.61377 -129.13466)
(748.59559 -449.85768 -107.95014)
(754.25373 -442.80255 -76.111596)
(953.4548 -521.2017 -138.85596)
(968.54087 -513.98733 -116.43789)
(976.90723 -513.08141 -90.01692)
(1197.2853 -581.91274 -142.00395)
(1215.1749 -585.21897 -122.07031)
(1223.9153 -586.42629 -94.636442)
(1469.5738 -648.47698 -139.99792)
(1487.6845 -654.62574 -120.53806)
(1498.5371 -661.03258 -94.998377)
(1764.6805 -711.99539 -129.90063)
(1783.5454 -723.94287 -112.23405)
(1794.5738 -736.12581 -87.78163)
(2084.0936 -776.29564 -112.55257)
(2102.6228 -794.67855 -96.647323)
(2114.9512 -812.50626 -73.48728)
(2423.941 -839.98872 -87.647725)
(2442.8156 -864.47942 -73.113443)
(2455.3425 -888.74081 -51.318882)
(2784.7351 -903.64603 -54.548497)
(2802.8311 -934.16503 -41.574154)
(2815.3508 -964.39248 -21.811463)
(3162.6466 -966.07064 -14.001995)
(3180.1641 -1002.6043 -2.8252872)
(3192.9743 -1039.0877 15.208658)
(3556.8431 -1027.654 33.488681)
(3573.6854 -1069.7804 43.268087)
(3585.9767 -1111.6291 59.2893)
(3964.4895 -1087.7346 87.531755)
(3980.1707 -1134.7667 95.683866)
(3992.3237 -1181.7219 109.44147)
(4383.2389 -1145.9257 146.66768)
(4398.1427 -1197.2766 153.37742)
(4409.7108 -1248.5804 165.18033)
(4810.8197 -1202.1619 210.25966)
(4824.4599 -1257.1383 215.71979)
(4835.6953 -1312.0046 225.20877)
(5244.4613 -1255.9216 276.69857)
(5257.4028 -1313.6351 280.9638)
(5268.0979 -1371.2366 288.49979)
(5682.1274 -1307.6015 345.07152)
(5693.8498 -1367.1647 348.39086)
(5704.2262 -1426.7772 354.1751)
(6121.2 -1356.5366 413.68381)
(6132.3588 -1417.6542 416.53203)
(6142.5335 -1478.6912 420.6643)
(6560.7278 -1403.771 482.33174)
(6571.2206 -1465.8772 484.54838)
(6581.0741 -1527.0454 487.61198)
(7125.2514 -136.83393 551.82587)
(7135.4308 -199.27503 553.8101)
(7145.0744 -261.64166 557.13982)
(7080.1397 -571.78769 551.14815)
(7090.9013 -634.23422 552.60273)
(7099.9993 -696.25938 555.72171)
(7051.3641 -1012.1271 550.79899)
(7062.3162 -1074.4199 552.18026)
(7071.6191 -1136.6552 554.95371)
(31.563149 43.048659 26.180957)
(37.583376 51.264856 8.1367353)
(48.626647 50.255045 -11.864331)
(71.78763 103.04802 13.851813)
(81.595941 113.93017 -12.812993)
(81.481553 114.42479 -41.97602)
(151.05754 173.49863 1.6308231)
(156.44744 179.90653 -22.443136)
(162.69878 187.12276 -57.616748)
(261.39311 223.07459 -18.75687)
(270.99863 235.72588 -41.48565)
(272.58981 241.53405 -74.033655)
(403.89076 286.38453 -34.961852)
(413.09312 293.80121 -63.461397)
(413.99073 302.23642 -90.431974)
(581.13286 334.71545 -55.917527)
(587.19988 341.45071 -75.649962)
(590.45161 348.92725 -107.5422)
(783.71789 384.64665 -70.309225)
(791.49756 390.71679 -93.412134)
(793.75944 395.25185 -121.31197)
(1018.9942 429.30349 -82.752601)
(1025.3123 430.63575 -103.87981)
(1027.3185 432.57345 -131.49799)
(1277.0755 470.49649 -88.16689)
(1286.6238 465.02538 -113.14751)
(1286.3154 464.22679 -134.19934)
(1566.846 503.58374 -91.653082)
(1571.9866 494.0084 -107.5292)
(1574.8434 487.32837 -134.61651)
(1877.3525 532.56435 -84.73575)
(1883.8239 518.28183 -104.33033)
(1884.649 506.96213 -125.92827)
(2212.179 555.22327 -72.451351)
(2217.0883 533.91419 -88.900499)
(2219.3959 517.3007 -109.33393)
(2566.3641 570.20522 -51.262146)
(2572.2018 543.50996 -67.117587)
(2573.8017 520.50709 -84.803212)
(2940.0044 578.75097 -22.973741)
(2945.1354 545.53524 -36.510507)
(2947.3855 516.66453 -52.40567)
(3329.2383 579.26752 13.607096)
(3334.8251 540.42487 1.3362992)
(3337.2813 505.94642 -11.765065)
(3732.3887 572.58318 56.784506)
(3738.2107 528.38998 46.910688)
(3741.2948 488.21549 36.018797)
(4146.9307 558.29561 107.16336)
(4153.1481 509.2496 98.775154)
(4156.7984 464.31268 90.681906)
(4570.1329 536.80433 162.53027)
(4576.8796 484.01725 156.52919)
(4581.4399 434.45134 150.76496)
(4999.7049 509.15189 222.99509)
(5007.4283 452.56817 218.77228)
(5012.801 399.43288 215.41545)
(5433.7768 474.55426 287.10473)
(5442.1942 416.23347 284.08148)
(5448.454 359.93533 283.13478)
(5870.3179 435.79624 352.7231)
(5879.5344 375.11362 351.88579)
(5886.5062 316.73456 352.74062)
(6307.3971 392.99237 419.32061)
(6316.4123 331.8104 420.46332)
(6324.7989 271.30876 422.44475)
(6744.4928 346.53067 487.78056)
(6754.0555 284.34912 489.80853)
(6763.6421 222.89619 491.84597)
(0.23297348 22.896116 -31.888364)
(40.095367 92.632231 -48.614665)
(111.65732 110.04703 -56.662663)
(227.4184 145.75121 -74.115147)
(367.46933 171.24932 -90.905744)
(543.66373 188.09206 -103.62811)
(746.05245 203.09665 -116.61458)
(979.17845 207.25678 -124.27062)
(1239.3496 209.20642 -127.4505)
(1525.411 200.9612 -123.917)
(1835.8474 189.69584 -115.66814)
(2169.9885 168.54389 -96.686223)
(2524.9608 144.54254 -72.377004)
(2898.5816 113.96599 -39.256796)
(3289.2078 78.936267 1.210565)
(3693.6819 39.996819 48.5833)
(4109.9538 -2.2196789 102.27093)
(4535.4032 -46.793943 161.0875)
(4967.3606 -93.040224 224.04441)
(5403.8971 -139.99291 289.93691)
(5842.7213 -187.16223 357.36426)
(6281.1926 -234.23692 425.34768)
(6719.974 -279.92228 493.37604)
(-20.605555 12.712477 -3.373036)
(24.349786 29.786654 -21.805594)
(106.80622 20.534813 -30.672707)
(220.05178 26.954389 -51.481173)
(360.40728 20.960711 -68.347376)
(537.22049 5.7541137 -81.025059)
(736.9388 -5.0535507 -96.365994)
(969.98414 -28.890911 -103.83255)
(1226.0616 -53.954559 -108.08949)
(1509.523 -85.622316 -105.60905)
(1815.5512 -120.42007 -96.88784)
(2146.0699 -161.76732 -80.286621)
(2495.6693 -204.87845 -57.216088)
(2865.3664 -252.58255 -25.397371)
(3251.2896 -302.13665 12.828728)
(3652.2601 -353.86238 58.367506)
(4065.6062 -406.52276 109.87898)
(4489.0084 -459.786 166.48659)
(4920.1093 -512.59149 227.71958)
(5356.474 -564.68023 291.53439)
(5796.2283 -615.75224 357.68638)
(6236.0788 -664.82992 424.77812)
(6679.9625 -713.27099 491.84015)
(-27.500554 -16.974038 13.936312)
(31.014968 -24.436382 3.2506671)
(108.6331 -67.325988 -2.1522358)
(218.4896 -83.327441 -27.47771)
(360.68284 -127.24527 -39.089056)
(535.42357 -164.53002 -57.535711)
(732.50798 -207.62843 -71.145872)
(963.03772 -257.30273 -79.866373)
(1214.5173 -307.47622 -85.111088)
(1494.8293 -363.4378 -83.665515)
(1796.2452 -421.68464 -76.046328)
(2121.3887 -482.77047 -61.533879)
(2466.874 -546.3383 -39.249105)
(2831.9324 -610.89881 -10.071461)
(3214.6021 -676.7319 26.330478)
(3612.6814 -742.41406 69.579779)
(4024.4273 -807.46856 118.76795)
(4446.949 -871.10644 173.36583)
(4878.5318 -932.66897 232.43981)
(5315.9523 -991.80788 294.47753)
(5757.2562 -1047.8801 359.6224)
(6199.8007 -1101.042 424.96045)
(6642.6786 -1151.467 492.09072)
(1.647625 13.969211 12.762932)
(4.1249278 16.839374 1.0249713)
(13.987971 17.705835 -11.955275)
(48.336993 56.863206 -4.4919587)
(59.145231 63.27713 -17.555837)
(56.659923 66.879695 -36.160042)
(125.06555 79.979485 -16.238587)
(126.93533 87.370729 -30.983016)
(133.44705 98.662203 -44.547359)
(232.6018 110.36282 -35.370046)
(245.1275 119.8326 -50.665511)
(246.03892 126.72027 -62.750172)
(375.40089 134.9644 -53.896135)
(382.59598 142.67505 -65.228895)
(385.98699 153.26348 -80.362929)
(547.8291 157.70614 -69.195625)
(557.6966 165.93886 -82.677844)
(560.19821 174.54211 -95.031496)
(748.87305 178.5622 -83.777771)
(758.20618 184.28432 -97.18732)
(761.99273 189.37501 -108.69461)
(980.33477 197.5519 -95.109007)
(991.00293 196.29293 -106.68889)
(993.87744 200.45527 -117.6113)
(1239.3133 208.70619 -100.78539)
(1248.7485 207.1075 -111.27538)
(1252.3491 205.76091 -122.6882)
(1524.3953 219.57873 -100.21308)
(1533.7561 211.91209 -111.31228)
(1538 204.18681 -119.99327)
(1833.6512 224.84736 -93.394006)
(1843.2573 210.59393 -103.73357)
(1847.0137 198.93307 -111.75707)
(2166.2561 224.64262 -79.571554)
(2175.6583 204.91034 -88.226567)
(2180.0074 186.70974 -95.539376)
(2519.7195 219.91515 -57.607947)
(2529.0413 193.7522 -65.701559)
(2533.2867 169.03131 -71.124086)
(2891.9912 209.43612 -28.344001)
(2900.8859 177.15827 -34.510953)
(2905.538 146.2387 -39.354077)
(3280.4235 193.52504 8.8875835)
(3289.3238 155.30223 3.7425893)
(3294.0953 118.40588 0.42991161)
(3682.874 172.27187 52.867141)
(3691.4806 128.76773 49.452332)
(3696.7022 85.985048 47.073006)
(4096.563 145.88728 103.55898)
(4105.2098 97.276373 101.40585)
(4110.808 49.726784 100.33161)
(4519.1184 114.59465 159.50773)
(4527.8291 62.143478 158.93171)
(4533.8936 9.9697226 158.63723)
(4948.3365 79.614815 220.13524)
(4957.0431 22.978054 220.59946)
(4963.9713 -32.360852 221.50389)
(5381.5292 39.647875 284.09638)
(5390.9634 -18.642024 285.91724)
(5397.9149 -76.902731 287.13031)
(5817.216 -2.1618417 349.93519)
(5827.8239 -61.803397 352.8486)
(5835.1225 -122.38817 354.58611)
(6254.2215 -46.407891 417.68689)
(6263.5237 -107.69193 420.49862)
(6271.9775 -169.43662 422.70007)
(6691.0926 -91.397838 485.56662)
(6700.9284 -153.56152 488.07164)
(6710.5469 -215.68412 490.53493)
(-11.817018 1.1547245 -7.4294737)
(-5.4797725 5.0500158 -5.5379882)
(0.90730778 7.1082831 -2.7542779)
(41.616238 -4.187675 -26.105907)
(48.847304 4.7136699 -23.342233)
(44.149264 10.076704 -22.757402)
(116.471 -6.0061749 -39.18108)
(124.54416 1.165277 -32.704391)
(125.64355 12.267934 -33.542152)
(223.86048 -13.495772 -56.871247)
(238.43789 -3.9846017 -52.400022)
(236.42359 4.4945688 -52.556716)
(364.65872 -16.011018 -72.441792)
(376.92743 -7.7177145 -66.529289)
(375.45325 5.816177 -71.172815)
(533.77102 -23.747565 -88.496785)
(548.03802 -17.725345 -85.87344)
(548.31715 -6.9746806 -85.726472)
(732.93184 -30.125788 -102.96421)
(747.10076 -26.505599 -97.166513)
(748.29048 -19.100452 -99.939297)
(961.0503 -41.581209 -111.06529)
(976.1605 -41.609559 -107.1394)
(976.95786 -34.801984 -109.7867)
(1214.6254 -52.637327 -115.7219)
(1229.7576 -56.842313 -112.90979)
(1232.4824 -57.067905 -113.81182)
(1495.6384 -67.11734 -114.5577)
(1511.0695 -78.287956 -110.62243)
(1513.4975 -81.140851 -111.77294)
(1800.4243 -85.733678 -106.4299)
(1815.1093 -101.045 -102.1345)
(1818.7241 -111.55693 -103.99526)
(2128.1437 -106.48835 -90.763681)
(2142.9854 -128.55196 -86.854478)
(2146.7615 -144.1973 -87.739181)
(2477.1869 -130.84932 -67.545542)
(2491.2756 -158.63768 -63.418985)
(2495.6753 -181.54173 -64.219407)
(2845.0736 -158.66052 -36.707662)
(2858.8337 -192.89637 -32.482148)
(2863.4774 -221.56051 -33.045667)
(3230.4315 -189.7706 1.8360863)
(3243.3277 -229.44603 5.8294817)
(3248.6554 -264.70907 5.7959134)
(3630.373 -224.05545 47.067295)
(3642.7346 -269.13822 51.269723)
(3648.4219 -310.14717 51.454403)
(4042.996 -261.36481 99.008603)
(4054.5723 -311.12063 102.93482)
(4060.9704 -357.47992 103.56572)
(4465.5409 -301.34743 156.02109)
(4476.6635 -355.06827 159.89571)
(4483.6011 -405.88734 160.73398)
(4896.0471 -343.48331 217.75295)
(4906.6419 -400.44906 221.32647)
(4914.1837 -455.36377 222.80748)
(5331.6895 -387.71434 282.28503)
(5341.5169 -447.6434 285.92348)
(5349.9739 -504.44499 287.21266)
(5770.2453 -432.84538 350.09545)
(5781.6351 -494.92527 351.52294)
(5789.6911 -553.83661 354.46296)
(6210.1914 -479.39622 416.75942)
(6219.9564 -540.49513 419.98806)
(6229.203 -602.57767 421.74114)
(6651.0219 -526.08987 484.97144)
(6660.988 -588.53093 487.50004)
(6670.907 -650.07288 489.6414)
(-7.1248482 -19.497475 -16.684245)
(-7.7964075 -16.853454 -5.6465628)
(-7.8195064 -13.147 6.308827)
(52.191893 -55.99377 -33.847224)
(58.942902 -43.05699 -18.271895)
(51.014328 -39.859204 -5.2432561)
(118.72509 -92.162543 -48.682003)
(126.15067 -91.174291 -32.623708)
(126.8811 -78.689534 -16.407073)
(230.93468 -130.7568 -65.905349)
(238.11772 -115.46018 -51.499928)
(239.43608 -106.61987 -38.73494)
(364.45684 -163.48738 -82.809103)
(374.65521 -158.25967 -68.946553)
(377.33057 -144.82793 -54.928563)
(533.19678 -200.78537 -100.20918)
(544.34941 -192.0881 -85.919296)
(548.56627 -182.48493 -73.022959)
(728.67271 -237.70542 -112.08254)
(739.35752 -231.97183 -97.767327)
(746.81945 -222.98325 -86.404669)
(951.89366 -273.15772 -121.2716)
(964.9191 -271.82372 -110.04708)
(972.56287 -268.34595 -97.018886)
(1202.0804 -311.94876 -126.40855)
(1214.2996 -314.49003 -113.12652)
(1224.1287 -313.5558 -100.99598)
(1477.7015 -351.35117 -123.74328)
(1491.1193 -357.73188 -111.91339)
(1501.155 -363.93429 -100.80458)
(1776.9182 -391.35171 -115.30039)
(1790.2141 -404.66524 -104.23563)
(1801.9733 -415.73186 -92.637629)
(2099.9887 -433.71786 -99.230412)
(2113.3547 -452.16773 -88.457571)
(2125.0915 -469.65457 -77.878554)
(2443.729 -477.28857 -75.738118)
(2456.6926 -502.19165 -65.599895)
(2469.5113 -526.25032 -55.533417)
(2807.5708 -522.61798 -44.465914)
(2820.3973 -553.27953 -35.015083)
(2832.9648 -583.75381 -25.451862)
(3189.1623 -569.34614 -5.7252368)
(3201.4386 -605.94649 3.1590076)
(3214.4014 -642.54856 11.871367)
(3586.5731 -617.39414 40.064408)
(3598.4785 -659.27096 48.252849)
(3611.1355 -701.8502 56.131347)
(3997.5797 -666.50155 92.394391)
(4008.9501 -713.4567 99.715414)
(4021.6001 -761.02094 106.8185)
(4419.7607 -716.26843 150.07655)
(4430.9328 -767.4324 156.77689)
(4443.0752 -819.54439 162.79272)
(4850.791 -766.70063 212.48864)
(4861.2742 -821.41606 218.15249)
(4873.0984 -876.95719 223.50315)
(5287.6352 -816.84034 278.24333)
(5298.4894 -874.34666 283.08044)
(5309.8176 -932.75507 287.26269)
(5728.6859 -866.85981 345.78517)
(5738.751 -926.44426 349.9927)
(5749.6399 -986.48646 353.76557)
(6170.9072 -916.37154 414.60937)
(6181.3102 -977.20732 418.00519)
(6191.614 -1038.5178 421.18634)
(6612.7103 -965.06872 483.45263)
(6622.6533 -1027.0112 486.13283)
(6632.8412 -1089.021 488.57718)
)
;

boundaryField
{
    free
    {
        type            zeroGradient;
    }
    fixed
    {
        type            fixedValue;
        value           nonuniform List<vector> 
25
(
(-2.5953868e-15 -2.1703571e-16 4.2716933e-18)
(-1.3028228e-15 -3.4252847e-16 3.3068324e-16)
(-1.9658614e-16 -3.2115893e-17 -1.1045223e-16)
(-3.6361799e-15 2.112754e-16 -3.2990721e-16)
(-3.8783653e-15 3.5858996e-16 7.5215743e-16)
(-2.0449562e-15 -3.5718549e-16 -7.3673077e-16)
(-9.8459492e-16 7.8127033e-16 2.7525688e-16)
(-1.4121951e-15 -1.0527101e-15 6.223458e-16)
(-4.8813632e-16 1.9183015e-16 -1.0607077e-16)
(6.5239771e-16 2.739523e-16 -5.5565719e-16)
(-3.9146975e-16 7.8165185e-18 1.2560621e-16)
(1.4766345e-16 -3.4299605e-16 -2.8648028e-16)
(1.6350797e-16 -2.4226884e-16 -1.2066667e-17)
(-1.0304172e-15 -9.2669207e-16 -7.5672327e-16)
(-2.6214496e-15 -5.6404768e-16 7.244144e-16)
(-6.4481012e-16 3.525084e-16 2.7116342e-16)
(-1.0135278e-15 7.0169807e-16 1.7538027e-16)
(-3.5205005e-15 9.4737515e-16 -2.5196009e-17)
(-3.8147498e-15 1.043275e-15 1.2924308e-16)
(-2.4010456e-15 1.4295629e-15 -1.6975308e-16)
(-1.2019486e-15 6.189313e-16 -3.4292956e-16)
(2.8178306e-17 1.9013092e-16 6.1994168e-17)
(-1.2511779e-16 -6.848356e-17 2.1836215e-16)
(-3.8898857e-17 4.7141393e-16 -3.1043199e-16)
(-3.7042918e-15 1.4868296e-15 -1.3023874e-15)
)
;
    }
    freeTop
    {
        type            zeroGradient;
    }
}


// ************************************************************************* //
