/*--------------------------------*- C++ -*----------------------------------*\
  =========                 |
  \\      /  F ield         | OpenFOAM: The Open Source CFD Toolbox
   \\    /   O peration     | Website:  https://openfoam.org
    \\  /    A nd           | Version:  6
     \\/     M anipulation  |
\*---------------------------------------------------------------------------*/
FoamFile
{
    version     2.0;
    format      ascii;
    class       pointScalarField;
    location    "1.91";
    object      p;
}
// * * * * * * * * * * * * * * * * * * * * * * * * * * * * * * * * * * * * * //

dimensions      [1 -1 -2 0 0 0 0];

internalField   nonuniform List<scalar> 
625
(
17544.18
-220120.37
1162.3605
1040.3352
257754.28
14728.454
115.22316
70.332861
7545.2289
-77055.88
-60912.141
-241.02236
-210.38177
136.46781
5475.4498
5799.1941
9811.1463
5170.1246
10582.114
4459.3664
8164.4604
6134.762
6721.9499
5698.3011
5750.253
4933.1008
4145.8725
3787.0042
2702.6152
2172.3833
1827.9526
550.31443
772.54127
408.30828
90.771334
430.00427
530.24885
-58658.101
-59771.845
-61026.989
-56486.147
-53937.212
-53070.597
-49232.305
-46065.573
-44341.629
-40900.985
-37274.677
-34756.558
-30730.134
-27397.435
-23731.351
-19885.499
-16512.72
-12757.198
-9317.7998
-6398.6313
-3495.1816
-1515.445
-433.8933
202123.78
124317.09
53457.551
-1764.6889
-4731.5706
-5934.6668
1255.6121
2548.6456
686.91695
8813.68
5989.2791
1531.1484
9055.2509
2753.8711
8883.8673
4688.4146
7738.0143
6086.1535
7163.9341
5875.0901
6139.9704
5190.7537
4572.294
3695.5535
2144.0683
789.76528
588.76064
75.243151
-743.96118
1263.4122
2897.7056
6927.5123
10827.357
14929.601
20137.182
24120.248
30503.697
34085.101
40338.51
44109.376
49901.683
51702.975
58287.432
60711.483
64105.554
65301.693
69992.486
71503.627
74420.357
77431.569
74203.986
71012.984
35730.238
97983.895
105091.46
-159283
-86232.482
-74345.018
1000.9275
187.59786
612.82046
633.89929
-105.54923
-36.654941
-2817.7588
-4194.1428
-3288.9518
-1050.9573
-3665.9759
-1808.1419
-928.86597
-829.5691
-3123.4356
-982.15244
-2411.2469
-1747.6647
-2460.2326
-1518.988
-2238.6226
-1047.8122
-1165.0404
-390.40682
693.05838
1299.5868
1611.8709
1465.9607
1187.3954
-30014.315
-35727.641
-30092.501
-28672.262
-27947.996
-25935.58
-24948.696
-24351.929
-22699.743
-19977.574
-19292.598
-16615.505
-14869.797
-12317.949
-10459.247
-7897.7936
-6120.6816
-3754.8244
-2284.9845
-509.89719
414.1845
769.05698
985.60227
-48646.239
-48415.916
-45438.907
-45717.908
-41818.339
-40652.216
-38868.059
-36829.56
-34456.957
-31360.12
-30013.576
-26235.013
-23999.081
-20513.015
-17896.449
-14585.708
-11531.421
-8686.4099
-5969.1629
-3578.5904
-1392.4085
-150.97309
551.63457
29252.245
64249.971
76987.152
-34232.507
1219.4634
20237.869
-39776.269
-20391.76
23718.926
-68059.333
-45185.4
-30497.609
-63126.082
-37916.351
-21794.871
-42091.837
-23157.086
-17068.561
-47987.633
-27859.155
-15422.805
-42820.252
-21621.097
-12548.482
-40123.023
-23048.306
-12182.83
-38779.431
-21629.757
-10335.333
-36523.034
-17235.539
-8588.9619
-33991.231
-17589.808
-8443.7939
-31475.889
-14701.965
-6821.2208
-28926.625
-14731.194
-6400.3295
-26514.99
-11929.248
-4875.4528
-23411.669
-11221.71
-4256.7739
-20816.543
-9064.9515
-3483.4503
-17605.625
-8222.9753
-2522.2012
-14990.06
-6034.6327
-1660.3177
-11824.069
-5073.7377
-1179.7752
-9078.2169
-3226.968
-282.51687
-6372.0291
-2227.39
6.4853748
-4044.2312
-1003.0057
761.79547
-2215.6541
-217.68189
969.66566
-373.52326
350.10831
1314.8406
389.425
351.80201
402.01224
-202.76104
-720.22641
-1143.1931
-196.39404
-435.33339
-1547.6181
197.37853
-243.44855
-710.08746
33371.463
43792.574
55793.182
27973.385
38443.309
59015.672
23631.327
40013.232
61144.311
26512.463
36586.063
60048.323
21294.296
35393.189
56152.783
23192.132
35040.618
56641.061
22994.263
33818.923
53367.265
21873.907
31878.375
51838.651
17359.267
29846.995
47863.025
19733.161
29977.861
46755.757
17290.032
25821.731
42200.466
15331.969
24840.337
39360.186
14461.952
21609.557
35162.698
12229.833
19645.323
31653.091
10910.817
16299.953
26734.046
9264.687
14039.031
23065.686
7638.219
10876.357
18599.917
6094.672
8661.8538
14692.719
5007.6936
5886.8161
10937.835
3336.4935
3308.4933
7611.1141
2160.9585
1779.5661
4830.9173
912.91003
339.27978
2229.1598
703.24984
697.07618
574.00187
69310.288
63060.189
52927.611
51192.065
51957.285
47943.876
47521.657
46000.003
42346.047
40001.018
38166.427
34818.223
32008.36
28264.268
25701.795
21690.895
18505.911
15136.704
11734.58
8625.1139
5526.7392
3161.6269
1854.4613
45225.816
45477.202
32155.486
40261.347
34936.589
36608.902
33881.73
34491.157
30747.973
32851.019
28028.453
29085.672
24608.522
24832.103
20610.129
19144.484
15729.029
13321.805
10252.895
7505.148
4966.7133
2852.0822
1203.8682
27190.94
31448.38
21918.257
24186.944
22338.946
22470.412
19057.287
21633.166
21148.705
19876.741
19887.668
18270.238
17998.482
16023.166
14652.745
12909.284
11096.197
9051.2509
7202.5052
4964.4125
3578.0938
2135.0796
441.34626
11793.565
41886.961
55203.154
7480.9454
35623.903
52189.724
8551.5259
29281.947
46860.141
7187.1031
28802.97
44519.764
6058.5684
27574.252
44527.967
8235.2707
26854.372
43568.09
5272.49
23433.787
40103.162
2481.5362
23496.269
38822.669
6859.3307
23918.479
38731.093
3908.3844
19363.761
34139.947
3070.3074
19074.437
32808.091
3692.9526
17859.665
30083.161
3241.8683
16017.879
27783.279
2949.4412
14196.758
24340.309
3146.3904
12918.089
22265.313
3139.0843
10916.86
19149.553
2840.2199
9711.2299
16459.894
3347.825
8047.4439
13556.897
3027.5159
6496.6658
11031.844
2303.4522
5561.6118
8442.6391
2296.4931
4678.6773
6530.6695
2118.5182
3449.3718
3780.0922
1436.2303
1731.7759
2486.2051
-23472.956
4356.1027
27077.892
-20414.127
8321.2861
16700.922
-12530.912
3725.4595
20277.694
-17731.377
5705.3316
15271.545
-12127.742
4607.0848
20672.489
-13024.594
5044.9499
16751.794
-14457.678
2841.1728
17751.635
-12185.176
8136.8394
18536.479
-10320.283
3806.5647
15485.304
-11793.827
5945.8753
16692.23
-9028.4076
5159.9797
16002.016
-8871.6363
6307.9992
15261.937
-6461.1199
5089.3066
14573.086
-6101.4241
6296.9167
14156.082
-3614.4657
5294.5816
13392.129
-3134.8406
5850.3811
12377.709
-1031.6676
5199.7729
11343.748
-284.94936
5080.0169
10152.074
789.07034
4307.7103
8405.5604
820.8623
4242.5482
7402.0037
1673.3159
3386.2546
4172.7797
1770.0375
1683.6016
3072.1201
1162.4892
1407.1957
1575.8503
-29669.232
-5829.8054
10046.553
-30319.935
-12580.426
2478.6574
-28492.718
-17954.692
3895.4611
-28721.484
-11755.504
6288.1462
-27378.426
-12761.522
4514.1662
-27047.997
-12813.766
5570.9077
-25577.563
-9897.4402
8111.6025
-22633.6
-10039.93
3674.0542
-22014.255
-9776.7608
7566.0937
-20128.351
-7190.9375
6468.9259
-17556.382
-6138.1455
7451.8563
-15489.623
-5121.4233
6976.9431
-13485.674
-3577.123
7722.8812
-11095.867
-2466.4954
7581.6174
-9171.8832
-1173.3709
7328.7207
-6633.5914
-340.27956
7082.8118
-5049.334
528.64677
6533.1801
-3127.2139
901.17724
5744.7908
-1868.8129
1587.8208
5113.3844
-133.96663
1544.3073
3798.5188
-182.01064
2137.9567
2704.3762
513.70592
1247.4563
1857.5265
451.20474
1022.5461
1585.6261
)
;

boundaryField
{
    free
    {
        type            calculated;
    }
    fixed
    {
        type            calculated;
    }
    freeTop
    {
        type            calculated;
    }
}


// ************************************************************************* //
