/*--------------------------------*- C++ -*----------------------------------*\
  =========                 |
  \\      /  F ield         | OpenFOAM: The Open Source CFD Toolbox
   \\    /   O peration     | Website:  https://openfoam.org
    \\  /    A nd           | Version:  6
     \\/     M anipulation  |
\*---------------------------------------------------------------------------*/
FoamFile
{
    version     2.0;
    format      ascii;
    class       pointVectorField;
    location    "1.91";
    object      u;
}
// * * * * * * * * * * * * * * * * * * * * * * * * * * * * * * * * * * * * * //

dimensions      [0 1 0 0 0 0 0];

internalField   nonuniform List<vector> 
625
(
(0 3.7732898e-19 0)
(0 3.3011912e-19 0)
(0.18584897 -0.0017031073 -0.17980779)
(0.1849066 -0.044726229 -0.17123456)
(0 4.9162978e-19 0)
(0 2.5815416e-18 0)
(0.17826795 -0.0010040685 -0.17222532)
(0.17916742 0.042033376 -0.18078146)
(0 -5.7663155e-20 0)
(2.5024807e-19 -5.8128195e-19 0)
(0 1.1790991e-18 0)
(0.18560293 -0.01247975 -0.1776849)
(0.1853468 -0.023245561 -0.17557559)
(0.18508926 -0.033902727 -0.17339986)
(-0.00027267291 0.00039757997 0.00092891695)
(0.00057333618 0.001155497 0.00017441665)
(0.0032381794 0.0010895215 -0.0018779454)
(0.0061046583 0.0019298491 -0.0048962021)
(0.010552349 0.0018984802 -0.0083765818)
(0.01509823 0.0025345022 -0.013029465)
(0.021003594 0.0024108336 -0.018041059)
(0.027222641 0.0029151953 -0.024004084)
(0.034394172 0.0026373792 -0.030486763)
(0.042056568 0.0029541735 -0.037808977)
(0.05041598 0.0026722362 -0.045571078)
(0.059217717 0.0026844879 -0.054028194)
(0.068540706 0.0023900227 -0.062952748)
(0.078298528 0.0022036024 -0.072401615)
(0.088370022 0.0018594382 -0.082253136)
(0.098779653 0.0015528167 -0.092483756)
(0.10939757 0.0011472755 -0.10299003)
(0.12019824 0.00081506058 -0.11378317)
(0.13112073 0.00036848514 -0.12467946)
(0.14211055 -3.2838807e-05 -0.13572215)
(0.15311201 -0.00041000926 -0.14683119)
(0.16409413 -0.00084191944 -0.15783951)
(0.1749956 -0.0012416756 -0.16886956)
(0.00095593445 -0.0024578566 -0.0019670852)
(0.0026126819 -0.0053183673 -0.0025253448)
(0.0053003306 -0.008580452 -0.0035945011)
(0.0081028598 -0.011289093 -0.0062837573)
(0.012407371 -0.014579409 -0.0089765948)
(0.017018572 -0.017026402 -0.012954921)
(0.022622452 -0.02012132 -0.017373362)
(0.028795653 -0.02250563 -0.022646498)
(0.035689498 -0.025097471 -0.028512234)
(0.043296188 -0.02754183 -0.035095418)
(0.051281096 -0.029743909 -0.042310243)
(0.059985416 -0.031853292 -0.050082567)
(0.068993823 -0.033839991 -0.058459449)
(0.078538298 -0.035574457 -0.067289748)
(0.088334446 -0.037211319 -0.076630741)
(0.098532442 -0.038615705 -0.086300149)
(0.10890247 -0.039875484 -0.096377841)
(0.11953563 -0.040927716 -0.10665916)
(0.13026141 -0.041856194 -0.11721988)
(0.14116971 -0.042606098 -0.12787641)
(0.15204711 -0.043235124 -0.13869689)
(0.16304187 -0.043773181 -0.14950594)
(0.17393504 -0.044239717 -0.16042926)
(0 3.4650182e-19 0)
(-4.4782722e-18 -9.6357337e-19 0)
(0 2.4159498e-18 0)
(-0.0010360268 6.4978475e-05 0.0011851109)
(-0.00067745444 0.00031009221 0.00054170911)
(0.0013021684 -0.00017038959 -0.00096138843)
(0.0041580637 0.00034420324 -0.0036181063)
(0.0078055713 0.00030098721 -0.0068194712)
(0.012109259 0.00062669338 -0.010717702)
(0.017472646 0.00062197976 -0.015564356)
(0.02316574 0.00091128705 -0.020933691)
(0.030157112 0.00067092249 -0.027012573)
(0.037106132 0.0013097737 -0.033948228)
(0.04535165 0.00090413359 -0.041262243)
(0.053570014 0.0014408768 -0.049416815)
(0.062732062 0.0011568242 -0.057918145)
(0.07204088 0.0014412996 -0.067077189)
(0.081914331 0.0012643589 -0.076557971)
(0.092005104 0.0013396977 -0.086518705)
(0.10241727 0.0011627653 -0.096719061)
(0.11300236 0.0010688729 -0.1072323)
(0.1237557 0.00084652291 -0.11790624)
(0.13459334 0.00059168402 -0.12870832)
(0.14551045 0.00028215413 -0.13961394)
(0.15643667 -0.0001000334 -0.15049287)
(0.16733013 -0.00050949958 -0.16138666)
(0.17845998 0.0098349476 -0.17437299)
(0.17872299 0.020525602 -0.17649218)
(0.17893816 0.031314224 -0.17862814)
(0.16836704 0.04250577 -0.16994632)
(0.15761453 0.042857359 -0.15899423)
(0.14684097 0.043124922 -0.14805284)
(0.13613359 0.043175443 -0.13709549)
(0.12548204 0.043061403 -0.12620153)
(0.11493911 0.042716451 -0.11543334)
(0.10454053 0.042120762 -0.10482128)
(0.094347995 0.041318143 -0.094479906)
(0.084377016 0.040197129 -0.084404046)
(0.074749793 0.038900003 -0.074727066)
(0.065445409 0.037238749 -0.065419738)
(0.05657375 0.035497699 -0.056685686)
(0.048231573 0.03326383 -0.048272714)
(0.040255843 0.03114986 -0.040758057)
(0.033202067 0.028494865 -0.033410178)
(0.026410313 0.025920968 -0.027141476)
(0.020684776 0.022734337 -0.021139148)
(0.015207189 0.02006105 -0.016359188)
(0.011186243 0.016517821 -0.011643735)
(0.0072909011 0.013375711 -0.0082413106)
(0.0046181923 0.0098294884 -0.0055180351)
(0.0028973369 0.0065474268 -0.0030224696)
(0.0023488631 0.0029002451 -0.0014355897)
(0 -6.162013e-19 0)
(0 -6.4088488e-19 -1.3218891e-18)
(0 -1.8890285e-18 0)
(0 1.0746335e-18 0)
(0 -1.1890614e-19 3.7913624e-19)
(0 8.1850315e-19 0)
(0.18324399 -0.033782571 -0.17149121)
(0.18159549 -0.022849647 -0.17171997)
(0.17995212 -0.011952752 -0.1719748)
(0.18420395 0.0093272795 -0.18003143)
(0.18252931 0.020226169 -0.18023097)
(0.18084045 0.031110505 -0.18053136)
(-0.00059703866 -0.0021090184 0.00025364345)
(0.00023641533 -0.0044755447 -0.00075716683)
(0.0026100239 -0.0067777054 -0.0027687986)
(0.0055027192 -0.0082437953 -0.0053890152)
(0.0097598697 -0.0097068022 -0.0089084727)
(0.014356865 -0.010382491 -0.013180805)
(0.020327574 -0.010716817 -0.018145576)
(0.02648914 -0.01043069 -0.023847942)
(0.03380521 -0.0099341368 -0.030224592)
(0.041577501 -0.0087951574 -0.037362269)
(0.050068704 -0.00769269 -0.045017428)
(0.05901757 -0.0062358138 -0.053330699)
(0.068538219 -0.0049401161 -0.062155129)
(0.078400428 -0.0036625003 -0.071465663)
(0.088636865 -0.002700096 -0.081216007)
(0.099124922 -0.0020523418 -0.091297796)
(0.10979221 -0.0018346307 -0.10170491)
(0.12062176 -0.0020909627 -0.11232632)
(0.13148702 -0.0028522799 -0.12308192)
(0.14239255 -0.0040738411 -0.13400222)
(0.15327671 -0.0057119705 -0.14491134)
(0.16412415 -0.0077370637 -0.15586233)
(0.17488763 -0.010024443 -0.16679494)
(-0.00020076209 -0.0010294882 -0.00065873353)
(0.00089772499 -0.0021033613 -0.0018854881)
(0.0035163327 -0.0037349405 -0.0034450222)
(0.0065263679 -0.0047404068 -0.006172425)
(0.010739908 -0.0063357787 -0.0094358102)
(0.015521072 -0.0073040306 -0.013617929)
(0.021231964 -0.0088766649 -0.018310958)
(0.027438121 -0.0098363572 -0.023964134)
(0.03460003 -0.011289507 -0.030096571)
(0.042144218 -0.012278716 -0.036981463)
(0.050459679 -0.013597808 -0.044424004)
(0.059188124 -0.014591873 -0.052507335)
(0.068431375 -0.015733625 -0.061081802)
(0.078082371 -0.016694307 -0.070161989)
(0.088089314 -0.017671788 -0.079691891)
(0.098400813 -0.018525411 -0.08957172)
(0.10894828 -0.019332875 -0.099821864)
(0.11969875 -0.020071847 -0.11027179)
(0.13054874 -0.02069732 -0.12098927)
(0.14153358 -0.021320564 -0.13179175)
(0.1525051 -0.021796875 -0.1427511)
(0.1635171 -0.022322282 -0.15365452)
(0.17448502 -0.022770611 -0.16462961)
(9.4513192e-05 0.00044244447 -0.0011242726)
(0.0016193626 0.00041791636 -0.0021783247)
(0.0044312408 -0.00033651952 -0.0036777428)
(0.0073615249 -0.0011284415 -0.0063208968)
(0.011776823 -0.0024348598 -0.0094658676)
(0.016479852 -0.004358595 -0.01339387)
(0.022166248 -0.0065077958 -0.018170179)
(0.028348567 -0.0092347411 -0.023522754)
(0.035378317 -0.012418078 -0.029510513)
(0.042729535 -0.015714893 -0.036263937)
(0.050905655 -0.019424494 -0.043489236)
(0.059331363 -0.022957912 -0.051390652)
(0.068433462 -0.026551585 -0.059740997)
(0.07779744 -0.029806715 -0.068643116)
(0.087652221 -0.03271949 -0.077959201)
(0.097762165 -0.035120928 -0.087692517)
(0.10821182 -0.036944253 -0.097763682)
(0.11886395 -0.038132646 -0.10813416)
(0.12972185 -0.038658526 -0.11874088)
(0.14071782 -0.038590996 -0.12952279)
(0.1518036 -0.037925008 -0.14042921)
(0.16293022 -0.036882485 -0.1513828)
(0.17404102 -0.035435094 -0.16241541)
(0 -3.8726185e-19 0)
(0 6.4547138e-19 1.3539032e-18)
(0 1.4029332e-18 0)
(-6.6519653e-19 1.328205e-20 0)
(2.7783739e-19 -4.1167009e-19 -2.0504024e-20)
(-1.7509287e-18 -1.5746746e-18 0)
(0 5.9314719e-19 0)
(0 1.5940979e-18 -4.2395988e-20)
(0 1.7518288e-18 0)
(0.0012583092 -0.001088812 -0.00023874253)
(0.00075425012 -0.00080375519 0.00073950354)
(-4.6185234e-05 -0.00014868112 0.0011258062)
(0.0028014051 -0.004138087 -0.0010378122)
(0.0018886702 -0.0023838794 -0.00033330954)
(0.00090371438 -0.0008386344 0.00052394097)
(0.0049015217 -0.0065220552 -0.0023645842)
(0.0039616596 -0.0044059152 -0.0015152384)
(0.0029210811 -0.0020104579 -0.0011115329)
(0.0077915643 -0.0085300948 -0.0049824146)
(0.0070196404 -0.0054202618 -0.0041890624)
(0.0058073903 -0.0026583521 -0.0035934542)
(0.011922795 -0.010908453 -0.0078903202)
(0.010790963 -0.0073355461 -0.0070680033)
(0.0095061488 -0.003268292 -0.006799968)
(0.016320464 -0.012835241 -0.011801159)
(0.015228258 -0.0080745942 -0.01111171)
(0.013835435 -0.0036555265 -0.010804188)
(0.021859936 -0.014877668 -0.016444209)
(0.020784731 -0.0098101519 -0.015733392)
(0.019353294 -0.0044313357 -0.015420043)
(0.027894331 -0.016596558 -0.021681066)
(0.026619021 -0.010756883 -0.021060119)
(0.024989163 -0.0048838784 -0.020822209)
(0.034884559 -0.018813745 -0.027681037)
(0.033476845 -0.012301533 -0.027148497)
(0.032023784 -0.0057201422 -0.026930668)
(0.042090997 -0.020248221 -0.034361495)
(0.04077837 -0.013093192 -0.033832558)
(0.039071282 -0.0059602862 -0.033728429)
(0.050312828 -0.022135321 -0.041624171)
(0.048820044 -0.01450688 -0.041197722)
(0.047184421 -0.0066779306 -0.041135121)
(0.0587023 -0.023514218 -0.049554378)
(0.057245062 -0.015185649 -0.049180866)
(0.055545965 -0.006998796 -0.049149868)
(0.067837245 -0.025060679 -0.057971269)
(0.066296798 -0.016400823 -0.057641757)
(0.064574955 -0.0075589058 -0.057717521)
(0.077201071 -0.026280688 -0.066935013)
(0.075656291 -0.017050503 -0.066716079)
(0.073950118 -0.0079280289 -0.066794034)
(0.087059605 -0.027538976 -0.07634467)
(0.085484687 -0.018026566 -0.076139069)
(0.08374428 -0.0083845918 -0.076297095)
(0.097152275 -0.028577118 -0.086117666)
(0.095547297 -0.018619306 -0.086022602)
(0.093833954 -0.0087529534 -0.086214909)
(0.10753295 -0.029535169 -0.096269113)
(0.10591852 -0.019378104 -0.096207704)
(0.10419825 -0.0091602572 -0.09643269)
(0.11809482 -0.030379482 -0.10663341)
(0.11645869 -0.019921271 -0.10665758)
(0.11476086 -0.0095307148 -0.10692373)
(0.12881968 -0.031105599 -0.1172629)
(0.12717723 -0.020510443 -0.11733798)
(0.12548151 -0.0099004071 -0.11761037)
(0.13964285 -0.031754709 -0.12798554)
(0.13797237 -0.020974294 -0.12811713)
(0.1362973 -0.01027645 -0.12841342)
(0.15051288 -0.032287465 -0.13883749)
(0.14885973 -0.02148561 -0.13903724)
(0.14719179 -0.01066949 -0.13932808)
(0.16144602 -0.032829695 -0.14971655)
(0.15977709 -0.021913823 -0.14994884)
(0.15811334 -0.011040123 -0.15021904)
(0.17232283 -0.033261642 -0.16064222)
(0.17065007 -0.022323637 -0.1608785)
(0.16899722 -0.011450326 -0.16113676)
(0.18395039 -0.0014609028 -0.17790128)
(0.18230195 0.0094690026 -0.17810428)
(0.1806117 0.020387709 -0.17838534)
(0.18370838 -0.012225997 -0.17578232)
(0.18204886 -0.0013118742 -0.17597424)
(0.18040684 0.0096103006 -0.17626756)
(0.18340669 -0.022923589 -0.17362501)
(0.18177402 -0.012017374 -0.17384326)
(0.18011727 -0.0010798959 -0.17411878)
(0.00063805699 0.00074100962 0.00079280203)
(0.0015437041 0.0013827005 0.00045946789)
(0.0018016064 0.0021634086 -5.605268e-05)
(0.001858573 0.0022438457 -5.9696253e-06)
(0.0022903081 0.0038887097 -0.00073388498)
(0.0029171038 0.0048363628 -0.0017957455)
(0.0039523349 0.0034044208 -0.0020474754)
(0.0048343879 0.0052667302 -0.0028683227)
(0.0049648318 0.0073991401 -0.004062745)
(0.0070778322 0.0048604174 -0.0050285675)
(0.0072933284 0.0078989199 -0.0058682897)
(0.0076569621 0.010321145 -0.0068464069)
(0.011028787 0.0056571572 -0.0086336342)
(0.011542601 0.0091517546 -0.0093281156)
(0.011574432 0.01262811 -0.010328947)
(0.015699766 0.0070201378 -0.013172253)
(0.015825071 0.01159529 -0.013943866)
(0.015867389 0.015418812 -0.014976328)
(0.021414238 0.0076129886 -0.018225105)
(0.021550963 0.012450278 -0.018980015)
(0.021301416 0.017424505 -0.019883234)
(0.027515659 0.0085430489 -0.024229787)
(0.027364788 0.014508347 -0.02491135)
(0.027150892 0.019801832 -0.02587499)
(0.034495725 0.0093457251 -0.0307098)
(0.034349153 0.015678968 -0.03133779)
(0.033970561 0.021871053 -0.032238339)
(0.042022557 0.010055217 -0.037998496)
(0.041704057 0.017217018 -0.038716776)
(0.041189103 0.023823675 -0.039535558)
(0.050250915 0.010441855 -0.045809195)
(0.049769366 0.017999372 -0.046398945)
(0.049189415 0.025344195 -0.047201163)
(0.058849806 0.010920516 -0.054237406)
(0.058331943 0.019197864 -0.054849387)
(0.057592421 0.026963381 -0.055618519)
(0.06808316 0.011262372 -0.063193783)
(0.067348482 0.019904754 -0.063744267)
(0.066548432 0.028269486 -0.064456014)
(0.07759782 0.011467359 -0.072610224)
(0.076830632 0.020648446 -0.073142254)
(0.075892318 0.029423546 -0.073807776)
(0.087575159 0.011613019 -0.082496723)
(0.086619642 0.021134382 -0.082960302)
(0.085604179 0.030344297 -0.083592934)
(0.097782983 0.011631375 -0.092680181)
(0.09675637 0.021527107 -0.093138296)
(0.095623331 0.031112337 -0.093716228)
(0.10827357 0.011589942 -0.10324173)
(0.10709949 0.021755449 -0.10362734)
(0.10589365 0.031636789 -0.10417002)
(0.11892333 0.011452261 -0.11397211)
(0.11767116 0.021833108 -0.11433759)
(0.11635139 0.032012627 -0.11483842)
(0.12973289 0.011223452 -0.12490344)
(0.12834447 0.021821661 -0.12524124)
(0.12695798 0.032197994 -0.12570317)
(0.14059812 0.010970552 -0.13593872)
(0.13914787 0.021649883 -0.13623496)
(0.13767369 0.032218647 -0.13666207)
(0.15151878 0.010620904 -0.14703247)
(0.14995583 0.021437605 -0.1472942)
(0.14843715 0.032113459 -0.14768927)
(0.16242764 0.010211684 -0.15804888)
(0.16084859 0.021063481 -0.15834438)
(0.15925842 0.031855509 -0.15869006)
(0.17332412 0.0098121745 -0.16912293)
(0.17169819 0.020720533 -0.16940695)
(0.17003151 0.031557044 -0.16967862)
(0.00032978869 -0.00074463625 -0.0016662454)
(0.0014070482 0.0010829268 -0.0030432148)
(0.0030324279 0.0021372778 -0.0049252871)
(0.0054852137 0.0032925646 -0.007541599)
(0.0093804955 0.0050760278 -0.011066329)
(0.013464011 0.0074176112 -0.015295379)
(0.018879808 0.0097010058 -0.020165853)
(0.024693409 0.013043872 -0.025955045)
(0.031573753 0.016018686 -0.032275277)
(0.038879693 0.019799585 -0.039304462)
(0.04697302 0.023247594 -0.046951778)
(0.055556739 0.027026553 -0.055262947)
(0.064648978 0.030320014 -0.064009145)
(0.074195662 0.033457446 -0.073281459)
(0.084042136 0.036069118 -0.082989137)
(0.094202647 0.038089245 -0.093004099)
(0.10455721 0.039474933 -0.10334932)
(0.11505571 0.040127634 -0.11388919)
(0.12566119 0.040070873 -0.12459623)
(0.136314 0.03931262 -0.13540349)
(0.14697038 0.037946971 -0.14624186)
(0.15766859 0.036062952 -0.15710023)
(0.16826805 0.033793187 -0.1679068)
(-0.00061457266 0.0007822964 -0.00078457264)
(0.00037714365 0.0038121353 -0.0021275767)
(0.0020677909 0.0048517756 -0.0037835346)
(0.0048837287 0.0071119702 -0.0065925873)
(0.008787406 0.0084414581 -0.0097436275)
(0.012817994 0.010679645 -0.014223996)
(0.018425511 0.011636325 -0.018755802)
(0.024092977 0.013792148 -0.024677689)
(0.03100524 0.014661077 -0.030650687)
(0.038122812 0.016494154 -0.037881487)
(0.046257957 0.0172887 -0.045216371)
(0.054577366 0.018740993 -0.05353603)
(0.063666949 0.019383759 -0.062060444)
(0.073032104 0.020437991 -0.071346312)
(0.082835546 0.020921706 -0.080833778)
(0.092932546 0.021531912 -0.090834775)
(0.10328199 0.021817789 -0.10106776)
(0.11382291 0.022042206 -0.11156016)
(0.12452229 0.022071981 -0.12225442)
(0.135301 0.021970699 -0.13303271)
(0.14613444 0.021773231 -0.14390848)
(0.15703372 0.021418081 -0.15479738)
(0.16785243 0.021008083 -0.16565899)
(-0.0010500554 0.0024017663 -0.00036709168)
(-0.00028929549 0.0056389011 -0.0012268124)
(0.0018331533 0.0083952486 -0.0029076749)
(0.0048153376 0.010309288 -0.0053827865)
(0.0086241108 0.012190493 -0.0088668262)
(0.0128182 0.013446949 -0.012852145)
(0.018460978 0.013752087 -0.017658991)
(0.023936704 0.014168871 -0.02319051)
(0.030920111 0.013474764 -0.029385144)
(0.037857825 0.012697885 -0.036201012)
(0.04584813 0.01141941 -0.043627191)
(0.054029835 0.0099940893 -0.051639542)
(0.062951947 0.0084988614 -0.060172052)
(0.072143459 0.0070084809 -0.069192464)
(0.081835699 0.0057328731 -0.078637703)
(0.091824937 0.0047139717 -0.088495722)
(0.10212288 0.0040713856 -0.098661204)
(0.11268329 0.0038180461 -0.1091076)
(0.12341073 0.004017367 -0.11978413)
(0.13430972 0.0046140555 -0.13057569)
(0.14529736 0.005604905 -0.14152569)
(0.15634632 0.0068294546 -0.15247733)
(0.16739703 0.0083084448 -0.16344165)
(-2.5993115e-05 -0.0017175493 0.00031744431)
(0.00021871237 -0.0014839935 9.742917e-05)
(0.00045038924 -0.00090524107 -0.00026987)
(0.0011133098 -0.0034433698 -0.00079171225)
(0.0012532438 -0.0019258586 -0.0011011501)
(0.0016661628 -0.00094184078 -0.0019907924)
(0.0033005069 -0.0044723699 -0.0027518097)
(0.0039248578 -0.0025588707 -0.003366032)
(0.0036485784 -0.00024517763 -0.0038750467)
(0.0062545457 -0.0055190762 -0.0055109608)
(0.0061634481 -0.0024376952 -0.005845698)
(0.0060805903 0.00021195245 -0.0066390621)
(0.010225286 -0.0059857922 -0.0088939283)
(0.010373819 -0.0024050795 -0.0094537319)
(0.010066281 0.0011857958 -0.010018508)
(0.014783076 -0.0060170317 -0.013295588)
(0.014599057 -0.0014698953 -0.013673672)
(0.01431329 0.0026249093 -0.014387304)
(0.020513089 -0.0055304031 -0.018191646)
(0.020372137 -0.0006154237 -0.018643437)
(0.01976963 0.0045142994 -0.019205694)
(0.026603751 -0.0047069231 -0.023960384)
(0.026160459 0.0013706927 -0.024343314)
(0.025653745 0.0068443846 -0.025020892)
(0.033712297 -0.0032350731 -0.030279894)
(0.033311899 0.0030274329 -0.030786445)
(0.032612336 0.0094392845 -0.031364055)
(0.041342 -0.0016959212 -0.037499388)
(0.040789972 0.0054759267 -0.037840443)
(0.039964665 0.01232446 -0.038462329)
(0.049707842 0.00017698657 -0.045106623)
(0.049020333 0.0077829844 -0.045514657)
(0.04814883 0.015395768 -0.046108824)
(0.058492406 0.0021552263 -0.053476417)
(0.057734608 0.010399546 -0.053876922)
(0.056745177 0.018435732 -0.05444822)
(0.067882084 0.0040244014 -0.062277135)
(0.066982835 0.012693276 -0.062654555)
(0.065929162 0.021367353 -0.063244454)
(0.077577228 0.0057513586 -0.071636693)
(0.076630616 0.014907641 -0.072041591)
(0.075471303 0.023958961 -0.072569875)
(0.087707881 0.0071517882 -0.081375151)
(0.086617038 0.016696784 -0.081757463)
(0.085407891 0.026213246 -0.082299161)
(0.098023397 0.0081619149 -0.091498869)
(0.096886409 0.018032895 -0.091899201)
(0.095583956 0.02788357 -0.09238991)
(0.10861211 0.0086613558 -0.10191143)
(0.10735205 0.018838974 -0.10229756)
(0.10599844 0.028989988 -0.10277559)
(0.11928902 0.0086448465 -0.11255226)
(0.11796857 0.019017462 -0.11293758)
(0.116545 0.029433552 -0.11337134)
(0.13008179 0.008019864 -0.12333658)
(0.12867037 0.018634216 -0.1237198)
(0.12718354 0.029217267 -0.12414048)
(0.14090447 0.0069628222 -0.13425956)
(0.13942283 0.01763815 -0.13463817)
(0.13789876 0.028378969 -0.13499567)
(0.15172307 0.0053281352 -0.14518791)
(0.15013969 0.016111905 -0.1455424)
(0.14859078 0.026953049 -0.14588671)
(0.16250085 0.0033311619 -0.15614538)
(0.16092107 0.014193784 -0.15648471)
(0.15931674 0.025086574 -0.15679402)
(0.17325396 0.001029928 -0.16707468)
(0.17161543 0.011919547 -0.16735846)
(0.1699518 0.022843228 -0.16761847)
(-6.1563999e-05 -0.0002960224 -7.2314777e-05)
(6.0767427e-05 2.9664774e-05 0.00017722964)
(-2.0253476e-05 0.00055699536 0.00011515196)
(0.001475477 -0.00099988525 -0.0013002647)
(0.0014156231 0.00054249511 -0.0010561056)
(0.0013245502 0.0016511535 -0.0015183915)
(0.003736806 -0.0014820102 -0.0030037047)
(0.0036859198 0.00041839722 -0.0030241431)
(0.0031946628 0.0027511583 -0.0032266509)
(0.0068730568 -0.0019806227 -0.0056841729)
(0.0064349515 0.0012845292 -0.0056551173)
(0.005955043 0.004002856 -0.0058260375)
(0.010743458 -0.00257741 -0.0090412187)
(0.01048209 0.00091895243 -0.0090430049)
(0.009987511 0.0045458687 -0.0091203199)
(0.015506077 -0.0030172884 -0.013232935)
(0.014953681 0.0017036824 -0.013154304)
(0.014245778 0.0058672168 -0.013473197)
(0.021039633 -0.0036912394 -0.017913441)
(0.020517332 0.0013110396 -0.018033559)
(0.019699779 0.0065176287 -0.018125353)
(0.027177278 -0.0040947288 -0.023653923)
(0.0263732 0.002045713 -0.023681038)
(0.025617813 0.0074452253 -0.023922498)
(0.034167774 -0.0047146073 -0.029799092)
(0.033449815 0.0016181549 -0.029829841)
(0.032458422 0.0081075822 -0.030052613)
(0.041648557 -0.0052713711 -0.036712806)
(0.04067015 0.0021069081 -0.036876856)
(0.039709504 0.0089060519 -0.037109771)
(0.049792213 -0.0057787418 -0.044219677)
(0.048870664 0.0018494877 -0.044379209)
(0.047752893 0.0094762772 -0.044598551)
(0.058453423 -0.0063412363 -0.05234077)
(0.057339685 0.0020980691 -0.052529022)
(0.056213214 0.010045707 -0.052810707)
(0.067555372 -0.0068748707 -0.060980186)
(0.066456157 0.0018165404 -0.061212235)
(0.065219993 0.010459298 -0.061476742)
(0.077140478 -0.007419486 -0.070106709)
(0.075911617 0.0019140518 -0.070373629)
(0.074648658 0.010866384 -0.070661142)
(0.087021907 -0.0079295235 -0.079703731)
(0.085773774 0.0016417598 -0.07997219)
(0.084426723 0.01110301 -0.080278666)
(0.097260325 -0.0084498155 -0.089626931)
(0.095929095 0.0015414786 -0.089940125)
(0.094537164 0.01129194 -0.090245449)
(0.1077123 -0.0089497696 -0.099937212)
(0.10633909 0.0012622844 -0.10024191)
(0.10488526 0.011367943 -0.10055916)
(0.11837357 -0.0094342678 -0.11043326)
(0.11693881 0.0010255742 -0.11074784)
(0.1154354 0.011350295 -0.11106869)
(0.12916773 -0.0099191428 -0.12118658)
(0.12768015 0.00070731862 -0.12150776)
(0.12613223 0.011258912 -0.12183308)
(0.1400525 -0.010345694 -0.13203091)
(0.13853098 0.00039582327 -0.13233738)
(0.13693151 0.011046068 -0.13263622)
(0.15099313 -0.010843605 -0.14300608)
(0.14934422 6.0488528e-05 -0.14320972)
(0.14775922 0.010781203 -0.14358992)
(0.16193457 -0.011292329 -0.15391481)
(0.16033895 -0.00044531724 -0.15421523)
(0.1586873 0.010473651 -0.15449514)
(0.17285105 -0.011746022 -0.16489619)
(0.17121017 -0.00082783922 -0.16515585)
(0.16952348 0.010052732 -0.16541205)
(0.00038459846 0.0013034211 -0.00018013246)
(2.58581e-05 0.001785463 0.0002533553)
(-0.00020813868 0.0020933479 0.0002817599)
(0.0019023905 0.0015306368 -0.0012961752)
(0.0014845476 0.0028278452 -0.00082360649)
(0.00091530865 0.0041818296 -0.00085446315)
(0.0044248883 0.0017453563 -0.0028260591)
(0.0040382944 0.0041568161 -0.0027007322)
(0.0029386803 0.006285089 -0.0025356285)
(0.0073555827 0.0016951549 -0.0054849207)
(0.006734602 0.0045052626 -0.0050652393)
(0.0059561808 0.0074560602 -0.0049755779)
(0.011576362 0.0010316169 -0.0086871239)
(0.011022621 0.0048985907 -0.0084919339)
(0.0099184144 0.0083786792 -0.0084453605)
(0.016162987 3.2782336e-05 -0.012653585)
(0.015323476 0.0043857225 -0.012413526)
(0.014200945 0.0089125094 -0.012405539)
(0.021710443 -0.0014930505 -0.017476944)
(0.021057827 0.0036976542 -0.017305838)
(0.019683785 0.0087268893 -0.01734146)
(0.027833278 -0.0035243232 -0.022912174)
(0.026745623 0.0023202244 -0.022706683)
(0.025550466 0.0081019106 -0.022684703)
(0.034635278 -0.0059440031 -0.028911158)
(0.033811623 0.00048453422 -0.028842882)
(0.032274315 0.0069817639 -0.028970839)
(0.041997808 -0.008664162 -0.03577664)
(0.040812163 -0.0016198662 -0.035707516)
(0.039446683 0.0054721043 -0.035745363)
(0.050005605 -0.011715611 -0.043041472)
(0.048957386 -0.0040574777 -0.042992972)
(0.047341192 0.0036358454 -0.043168614)
(0.058397172 -0.014705032 -0.051024085)
(0.057125949 -0.0065997677 -0.051067264)
(0.055633326 0.0016194056 -0.051190607)
(0.067374718 -0.017774512 -0.059439171)
(0.066178912 -0.009134219 -0.059500523)
(0.064498589 -0.0003611517 -0.059690399)
(0.076702889 -0.020547991 -0.068422983)
(0.075336678 -0.011505106 -0.068539678)
(0.073758216 -0.002308556 -0.068741577)
(0.086447036 -0.023048218 -0.077801843)
(0.085128393 -0.013608105 -0.077961174)
(0.083422073 -0.0039974798 -0.078190177)
(0.096521964 -0.025084681 -0.087614125)
(0.095077914 -0.015325066 -0.087817706)
(0.093439606 -0.0053561885 -0.088049342)
(0.10687882 -0.026612059 -0.097754325)
(0.10545031 -0.016548223 -0.097980008)
(0.10373416 -0.006291827 -0.098246593)
(0.11748632 -0.027551479 -0.1081866)
(0.11595307 -0.017255247 -0.10845754)
(0.11429299 -0.0067613389 -0.10870316)
(0.12826431 -0.027897401 -0.11885791)
(0.12675436 -0.01741293 -0.11912378)
(0.12505399 -0.006751566 -0.11940944)
(0.13922752 -0.027703868 -0.1296905)
(0.137595 -0.017061843 -0.12998446)
(0.13592639 -0.0062542578 -0.13023032)
(0.15023007 -0.026981735 -0.1406399)
(0.14861782 -0.01622522 -0.14090816)
(0.14697064 -0.0053579129 -0.14119992)
(0.16131652 -0.025866294 -0.1516212)
(0.15967217 -0.015046508 -0.15190698)
(0.15802055 -0.0041329636 -0.15220097)
(0.17240017 -0.024450968 -0.16267183)
(0.17073405 -0.013567371 -0.16292709)
(0.16907287 -0.0026256073 -0.16316775)
)
;

boundaryField
{
    free
    {
        type            calculated;
    }
    fixed
    {
        type            calculated;
    }
    freeTop
    {
        type            calculated;
    }
}


// ************************************************************************* //
