/*--------------------------------*- C++ -*----------------------------------*\
  =========                 |
  \\      /  F ield         | OpenFOAM: The Open Source CFD Toolbox
   \\    /   O peration     | Website:  https://openfoam.org
    \\  /    A nd           | Version:  6
     \\/     M anipulation  |
\*---------------------------------------------------------------------------*/
FoamFile
{
    version     2.0;
    format      ascii;
    class       pointScalarField;
    location    "1.84";
    object      E;
}
// * * * * * * * * * * * * * * * * * * * * * * * * * * * * * * * * * * * * * //

dimensions      [1 -1 -2 0 0 0 0];

internalField   nonuniform List<scalar> 
625
(
600.11109
-6162.4969
24983.785
22746.471
5055.1767
41.055432
24500.465
24819.868
-758.09195
-1388.3086
-1501.1726
25253.666
19495.622
23567.635
2275.8698
67.572493
-383.17412
1897.6316
-2154.9085
1720.7976
-253.06342
-148.28818
1418.4598
80.440553
567.34565
932.52461
1969.7686
2114.1762
3988.1863
5004.9834
6936.2863
8971.8016
11916.494
13922.712
18192.331
18940.982
23432.634
6229.7503
-4672.744
11911.457
7760.2732
3974.365
14561.876
4726.5153
10323.467
10626.122
8086.1682
11777.226
10782.249
12148.057
12572.781
14023.446
14829.723
16354.699
17677.436
19609.21
20354.117
23581.073
23156.107
26021.467
705.46599
671.30024
-2099.6624
7510.8043
23696.385
-6464.1182
11185.107
19788.693
5017.6943
11772.087
14078.328
10472.421
16593.81
11270.377
16431.862
14977.699
16564.584
18092.001
17916.988
19897.641
20070.766
21207.273
21613.919
22218.307
22720.969
24682.82
22748.425
16843.952
26229.43
25310.942
19811.123
18975.718
15898.112
13690.957
11259.22
9115.1116
7223.3993
5640.3871
4443.7075
2466.735
2962.7029
656.44571
2023.8132
-358.60438
-1116.9758
344.15542
469.60491
-639.45038
-5840.1492
5496.3129
-2620.3558
6127.215
567.11531
713.90345
-317.53713
-4804.7775
-4269.4817
-4508.7553
21942.415
23612.62
22828.166
24144.787
25021.772
24578.732
4484.9418
443.40881
870.75423
460.41726
-1450.5466
489.88517
-1238.7631
-210.43556
-845.0855
-701.30186
715.97246
682.42137
1715.3284
2505.2779
3862.2693
5060.5751
7132.7774
8756.975
11376.512
13606.363
16749.054
18188.767
24969.305
871.03062
-611.41622
988.33031
-1097.7555
722.95609
879.12668
-798.80746
1498.3616
15.061438
2055.7541
1118.2767
2064.6281
2684.486
3711.8531
4645.4343
6102.6116
7404.6094
8951.0139
11225.767
12401.499
15630.369
16709.629
25504.448
321.9206
-4423.0608
-3812.401
-5298.8377
-4057.1433
-8458.2715
-4835.7955
-6834.7898
-6966.4288
-5214.3497
-6504.4709
-4002.7484
-4000.9119
-2257.853
-1358.6457
819.21734
2426.3463
5270.5364
7425.1913
11788.501
14267.672
19478.937
24922.155
-758.35616
-319.84883
-985.31142
-1012.7208
-924.07591
187.28262
-1071.3345
-2040.8453
-1764.1161
6381.7183
9983.6353
8503.8516
11408.684
7641.3333
11953.713
3998.2668
-1804.7791
6909.2608
10010.037
11836.84
4600.8242
14523.505
6764.8337
17028.773
10116.044
14147.099
11449.711
14213.501
9766.7522
13156.93
12952.472
8579.8385
15461.478
11605.225
13778.591
12148.109
15437.282
11418.64
16868.348
12522.888
13555.745
14062.261
15996.746
13268.017
16193.686
14534.186
14528.979
17110.298
16954.948
15291.739
17094.847
17056.911
16248.729
18955.145
18144.214
17429.805
19188.414
19240.421
18473.454
20122.639
19820.425
19433.433
20953.041
20925.745
20882.715
21677.214
21415.519
21723.63
21971.05
22229.165
22646.838
22518.073
22198.663
23385.642
22981.231
23923.207
24257.406
23824.803
25551.454
26333.339
25486.885
18517.757
19442.655
16875.452
25370.518
25690.776
24649.007
1634.4376
5466.876
1941.9355
-2194.7225
-2252.0149
-1381.4724
4521.5733
1723.3475
6195.6939
-776.11996
-1081.1271
-1718.4395
3855.0773
1113.8839
3135.1193
2979.8626
-1974.7336
3207.1701
2477.6635
1083.7964
2947.2472
3400.314
-321.5098
3058.3646
3046.5037
1647.5464
2126.2919
4526.1576
-290.63647
5657.6849
3499.8835
1919.6458
3365.8712
5591.8728
1618.8266
5261.9281
5050.819
3077.1088
5388.7034
6693.2561
3642.8884
6492.358
7707.2665
5328.1266
7995.6486
8909.9795
6618.3472
9209.0202
10852.922
8624.3603
10983.65
12320.133
10522.21
12809.359
14899.456
13321.773
14848.949
16126.475
15350.329
16518.654
19507.093
19010.152
19299.198
20064.272
19290.135
19726.753
24139.364
24049.021
24412.935
2439.2721
-293.8693
-4119.4584
168.9816
-5568.8801
-2502.8663
-3155.7785
-3275.2417
-3494.6081
-1427.5565
-2308.2485
-297.13439
14.504089
1353.0656
2695.8634
4356.6757
6085.9138
8425.1958
10776.083
13699.68
17515.178
19679.485
27184.299
610.72725
3696.8665
-1606.7275
4761.4668
918.13029
6450.4147
3172.246
5592.3245
5624.2204
5825.6724
5726.7228
7495.4646
6537.3755
8541.6491
9147.1592
10342.275
12036.199
13497.556
15388.735
16907.383
19525.489
18576.845
28891.623
942.26835
-5153.4603
-928.48534
-10491.235
-3685.1394
-4301.3615
-10160.727
-1789.9966
-9715.0998
-2990.5991
-6481.1769
-4044.2083
-3979.586
-2736.9857
-1441.138
432.15457
2562.3393
5178.3952
8522.8943
12340.972
16316.387
21176.769
25683.32
1371.222
2212.2062
1744.5056
104.09541
340.8678
220.75807
-442.33015
-2888.0833
-1495.311
-564.61215
147.29178
158.14945
636.9876
-3263.6971
-749.31894
-32.267181
-132.30198
-598.19489
89.858083
-2601.8893
-625.67904
729.42396
-189.66744
219.90855
1163.6991
-2473.5438
-1040.2472
1624.3413
193.51989
1402.5866
2435.5475
-51.784638
80.000416
2465.686
504.74468
2348.0588
3819.1533
1733.9899
2496.0425
4621.2582
2559.8872
3867.5545
5719.7628
3760.1507
4782.2577
7098.6882
5362.6845
6423.2337
8617.5858
6946.3949
7764.5325
10221.489
9097.4528
9629.3914
12429.631
11219.715
11698.381
13426.064
14412.66
13574.116
15768.755
18425.323
16417.481
19386.342
18376.722
17601.797
24938.739
25276.575
25375.006
-142.44626
261.10937
504.00949
1388.145
2743.8526
3122.5187
885.56552
-1824.3068
65.174657
1290.7154
3776.9403
4045.8643
3676.5494
870.59097
744.41388
1999.5028
2583.2198
3681.3033
2935.8503
1983.1516
2221.3339
4326.2541
3050.5501
2525.1955
2871.7241
2229.3669
2996.1652
4579.2581
3659.8719
3179.5757
4800.5112
2818.8982
3729.58
5502.9649
3926.4813
4535.9179
6406.7613
4692.056
5080.1174
6928.7153
5247.2505
5621.9982
8285.2011
6627.5792
7101.5104
9127.0248
7497.99
7763.056
10589.498
9175.6193
9389.6989
11848.634
10444.989
10574.046
13770.993
12685.545
12545.333
15492.774
13753.674
13781.757
19176.698
14785.199
17441.703
18196.408
17306.215
16864.517
26063.813
26542.996
26786.288
3290.0634
3358.2809
2623.78
-4753.8813
-7017.1379
-5574.2355
-2582.258
940.97623
2217.5498
-1667.5172
-7607.7481
-5424.5055
-4610.3742
-4247.5613
-1871.1705
-2722.414
-6929.8376
-3083.5692
-1244.9527
-6832.3114
-3459.1367
-4291.0846
-6515.8893
-1257.2858
-831.10692
-7231.9778
-2590.2527
-1728.7181
-6111.227
-887.34026
-1469.4044
-6296.9551
-845.7857
-223.28719
-4809.6198
-296.45747
-5.3273372
-4801.1239
705.6239
1473.2978
-3002.413
1589.6426
2615.0546
-2108.4427
2766.7613
4221.7312
-9.6336277
4460.0522
6174.6792
2002.4904
6288.3495
8394.174
4877.179
8533.6315
11047.39
7396.8124
10896.04
13856.971
12010.34
14364.356
17048.211
14759.851
16464.235
20810.724
20867.437
22207.163
25394.542
24328.498
24909.002
)
;

boundaryField
{
    free
    {
        type            zeroGradient;
    }
    fixed
    {
        type            zeroGradient;
    }
    freeTop
    {
        type            zeroGradient;
    }
}


// ************************************************************************* //
