/*--------------------------------*- C++ -*----------------------------------*\
  =========                 |
  \\      /  F ield         | OpenFOAM: The Open Source CFD Toolbox
   \\    /   O peration     | Website:  https://openfoam.org
    \\  /    A nd           | Version:  6
     \\/     M anipulation  |
\*---------------------------------------------------------------------------*/
FoamFile
{
    version     2.0;
    format      ascii;
    class       pointScalarField;
    location    "0.88";
    object      p;
}
// * * * * * * * * * * * * * * * * * * * * * * * * * * * * * * * * * * * * * //

dimensions      [1 -1 -2 0 0 0 0];

internalField   nonuniform List<scalar> 
3969
(
-10601.615
147349.75
28.144058
285.15425
-48611.339
80208.866
530.06739
-101.04935
18730.782
27189.652
36107.032
40662.345
37904.504
49264.875
37782.59
-373.13291
-398.06649
-402.83466
79.91645
509.92612
673.63679
570.12382
4731.7466
13378.596
17812.574
25895.586
29975.785
37674.054
40232.33
47071.519
49969.933
53040.113
56647.807
58753.095
60026.482
62328.949
63059.734
63372.904
64383.019
63597.76
63775.65
62498.501
61930.003
60543.714
59308.173
57719.744
55982.462
54047.811
51929.809
49811.836
47822.29
45195.161
42832.71
40211.112
37456.521
34515.237
31740.427
28625.589
25424.179
22421.546
19004.995
16022.726
12926.432
10005.02
7418.3393
4807.0272
2887.5949
1473.153
42.356209
13389.209
12276.706
2705.6802
270.38024
-8939.6762
-8422.9601
-19502.669
-20722.355
-28710.635
-31524.086
-37229.976
-41017.713
-42963.382
-46791.107
-48420.45
-50412.209
-51992.354
-52478.843
-53378.602
-53578.651
-52653.75
-52942.19
-50867.529
-50057.944
-47604.814
-45801.584
-42800.161
-40290.443
-37345.373
-34493.949
-31878.561
-28753.422
-25965.953
-22887.829
-19952.774
-17007.617
-14216.793
-11519.592
-9026.0139
-6771.0077
-4774.3588
-3362.3218
-2103.4318
-1257.9373
-505.83011
-32.12818
239.93028
-12716.102
-14416.615
-3897.6324
-19976.985
-17350.106
-9863.0635
-18432.322
10184.9
1097.6692
-16181.699
-13814.63
-24832.455
-28074.34
-34455.948
-37611.355
-45164.889
-38453.613
-54401.064
-50318.105
-56016.064
-58941.878
-56980.255
-61769.689
-58120.509
-60514.665
-58327.531
-58014.6
-56777.563
-55920.739
-54317.17
-53043.48
-51445.609
-50355.514
-48374.103
-45951.352
-44139.038
-41791.316
-39155.782
-36588.1
-33931.085
-30883.907
-28052.112
-24983.996
-21731.75
-18637.559
-15803.072
-12802.782
-9877.4196
-7503.7111
-5079.8465
-3137.8882
-1530.5959
-320.69331
569.70525
711.52834
535.26621
786.20304
-319.69598
-92.492004
-485.89933
-871.8788
632.09081
1552.5931
2255.4985
3705.735
5305.4497
7197.0089
9360.5357
11760.074
14607.497
17395.719
19505.098
25097.509
27525.296
30776.715
34513.068
37764.705
41089.683
44376.555
47555.896
50571.379
53813.995
56373.418
59167.308
61353.794
63642.922
65050.486
66490.084
66511.244
67436.828
66307.061
66216.103
64367.795
61440.192
61105.302
59558.086
53140.489
52701.234
44732.178
42762.878
38518.419
33472.831
24645.051
22007.669
6719.9992
9837.8609
-3991.3865
-9029.265
-15689.253
-33437.629
-37483.425
-43889.547
-45397.946
-50871.127
-68820.899
136847.01
149844.64
140937.87
142486.25
120654
100864.79
106748.46
-229.30976
-100.33885
131.16519
502.8071
686.18976
763.26456
440.90677
-451.21092
-560.56934
-450.70834
-491.46748
-89.067249
213.72163
-111.46009
9431.0262
17287.883
19821.451
22331.011
27042.079
29258.889
34016.534
37391.517
39553.417
43777.834
46406.771
46665.078
51061.28
50842.333
52305.803
52493.327
52780.292
52173.91
51630.359
50744.452
49923.374
48499.239
47412.333
46069.215
44884.075
43159.154
41597.418
40035.164
38139.299
36202.989
34260.805
32093.006
29907.908
27681.597
25402.295
22955.787
20523.499
18055.312
15594.642
13297.133
10750.314
8656.9466
6328.2733
4596.703
2858.7874
1539.0312
227.04754
9361.8589
18633.889
15509.366
18574.845
21598.231
24559.572
25014.875
28295.72
29579.029
32522.952
32753.658
34928.977
35470.606
35653.496
36846.507
36364.897
36674.312
35587.341
35329.9
34287.917
33198.5
32117.522
31050.678
30075.543
28947.483
28067.193
27255.723
25979.626
25085.135
23895.241
22849.892
21596.934
20451.197
19196.335
17915.744
16586.506
15184.088
13800.325
12178.098
10597.637
8818.4131
7222.1401
5419.5711
3928.467
2418.2012
1389.7294
215.0395
11983.883
17697.321
11902.2
14566.673
16465.687
15547.804
16551.586
17655.627
18706.168
18910.445
20633.76
20449.176
21291.121
20671.842
21052.165
20436.462
20417.83
19463.479
19467.77
18299.446
18247.198
17522.507
17280.154
16660.506
16540.131
16040.276
15718.099
15418.42
15095.363
14572.711
14128.202
13466.046
12913.342
12149.145
11519.026
10728.882
9879.2464
9021.4286
7870.0756
6951.2119
5688.3185
4735.0814
3329.079
2584.6436
1500.9382
966.3297
293.50611
7800.9463
13295.357
9155.5619
11480.177
10393.459
9902.2985
7422.6916
7596.7595
5391.6389
8236.5284
4548.965
6123.0031
4605.3866
4852.6423
4554.5157
3877.2757
3501.9348
2802.662
2462.7841
1620.7986
1436.0753
733.4204
289.67128
408.24982
737.16226
938.38599
1452.1784
1890.915
2345.3725
2725.2746
3235.4558
3544.023
3942.1617
4245.4805
4579.9786
4778.7549
4823.6927
4734.4286
4615.3414
4467.3473
3962.6837
3410.9175
2619.1613
2127.2652
1172.2361
905.76578
366.51621
7178.6539
12767.802
5412.9308
6070.7289
2916.8972
968.59348
-1292.2902
-2434.1377
-4962.5034
-4720.6648
-8714.1195
-7179.9821
-10648.726
-9846.1091
-11956.391
-12007.331
-12829.382
-13448.041
-13459.573
-14179.119
-13201.608
-12795.705
-11934.969
-10572.638
-9927.8426
-9534.1935
-8134.0319
-7113.1019
-6000.79
-5045.96
-3906.4824
-3148.7571
-2101.7855
-1303.0983
-479.85453
274.49965
810.50007
1407.5721
909.94919
1031.7817
907.79389
921.12457
606.78402
508.12241
105.95143
269.92707
382.95528
9678.3472
10990.453
4858.513
2575.5356
-830.51053
-3723.8261
-8493.5556
-10526.694
-15801.172
-17184.437
-21558.847
-22821.032
-25368.917
-27238.006
-28586.405
-29466.993
-30425.842
-30968.32
-31068.592
-31472.453
-30318.075
-30306.414
-27945.416
-26514.484
-24603.55
-23211.924
-21421.613
-19678.721
-17818.514
-16027.097
-14351.02
-12546.38
-10834.783
-9193.9187
-7555.4435
-5982.6965
-4532.9522
-3306.7697
-2412.6054
-1886.0612
-1098.6141
-650.17657
-360.52612
-18.040399
-20.641953
247.93634
366.50545
11101.72
4648.4675
-859.0178
-1293.8126
-8438.4757
-10712.035
-18117.951
-19519.977
-28010.113
-27450.552
-34404.436
-36511.704
-39165.191
-40784.618
-42616.26
-43866.329
-44664.232
-45091.334
-45784.193
-44990.672
-45200.638
-43637.182
-42942.854
-41131.936
-39493.591
-37421.868
-35712.468
-33118.12
-30662.856
-28191.595
-25716.128
-23214.558
-20638.914
-18154.748
-15607.46
-13156.659
-10709.765
-8651.1582
-6750.7391
-4765.7415
-3318.8221
-2161.8102
-1411.3776
-713.14757
-491.51964
-71.784777
76.151905
-2019.3354
-6098.2836
-9351.8069
-14629.782
-14038.062
-16608.904
-17460.19
8524.9443
1240.4401
-1490.4868
-6341.6752
-6422.719
-11180.687
-8572.0731
20733.955
20139.675
12808.685
6998.2336
4364.3732
-523.36038
1279.1118
23239.998
24125.803
14766.846
13295.594
6734.2246
-3087.2789
4236.677
25220.892
22651.542
16709.523
11497.924
7543.3468
-1283.5176
397.14622
26992.467
39533.179
28063.636
29255.213
22802.304
19170.487
23393.072
32350.244
19566.748
28453.792
27006.858
17489.802
17955.437
6142.2326
36367.959
30021.025
26415.211
26551.336
25398.688
21174.973
16961.236
22504.91
30389.382
27115.539
23746.316
27594.305
18007.136
15583.976
-6821.5892
-11832.982
-11962.159
-11497.602
-15652.704
-18261.461
-12763.186
-1717.1017
1103.6429
-1529.3684
-2780.2099
-3355.457
-4886.7187
-10592.033
-9242.2761
-12774.793
-17365.426
-18836.874
-20323.7
-21788.742
-21670.277
-16512.869
-16643.862
-19663.003
-21022.805
-24726.535
-24481.202
-26806.275
-19734.307
-22853.866
-24347.749
-27476.57
-29032.738
-29339.479
-31291.652
-26999.302
-28310.881
-30434.372
-32262.892
-33267.3
-34174.6
-34937.357
-30542.455
-33821.931
-34247.475
-37958.029
-39749.061
-41247.61
-42527.528
-36918.038
-37804.364
-38974.443
-40167.601
-41725.207
-40704.126
-42609.999
-40265.251
-42808.248
-42278.506
-44732.993
-45968.104
-46842.617
-48830.485
-43060.363
-44926.808
-45822.901
-48229.481
-48797.577
-48304.426
-50202.341
-48506.399
-47444.442
-48934.628
-49523.069
-50872.645
-50581.747
-53346.323
-48974.149
-49835.027
-52227.391
-53301.322
-53650.787
-53199.282
-54622.222
-52439.294
-52239.413
-53808.316
-53112.425
-54024.799
-53456.134
-55371.436
-53549.838
-53432.089
-55287.21
-55358.682
-56601.204
-55788.764
-57340.484
-54719.121
-54785.381
-56171.355
-55728.9
-56464.962
-55065.375
-56352.255
-55618.313
-55629.395
-56987.189
-56379.075
-57719.481
-56065.902
-57714.326
-55839.426
-55788.344
-56990.453
-56117.238
-57248.343
-55162.502
-56765.907
-55780.37
-55971.104
-57041.045
-56099.969
-57403.111
-55239.981
-56960.999
-55529.384
-55060.856
-56315.382
-54998.64
-56373.608
-53985.251
-55645.339
-54554.321
-54535.166
-55462.355
-54429.584
-55672.513
-53280.318
-55039.494
-53541.768
-52891.18
-54248.423
-52844.222
-53940.705
-51755.139
-53377.215
-51790.909
-51800.769
-52548.105
-51324.284
-52659.151
-50644.871
-52269.989
-49888.455
-49924.184
-50110.029
-49762.159
-50348.051
-48866.744
-50115.4
-47272.412
-47953.221
-47410.275
-48143.623
-48409.821
-47805.311
-48636.878
-45477.384
-45411.432
-45477.187
-45683.002
-45945.562
-45476.393
-46462.704
-42905.513
-42736.653
-43052.014
-43241.536
-43399.108
-43435.252
-43958.379
-40061.983
-39986.253
-40383.798
-40438.198
-40701.082
-41038.15
-41466.083
-37249.757
-37137.352
-37651.013
-37806.646
-38285.584
-38625.927
-39035.011
-34117.585
-34428.347
-34689.885
-34991.898
-35401.334
-35813.721
-36342.216
-31250.256
-31436.101
-31734.471
-32146.487
-32561.747
-33139.572
-33694.048
-28065.045
-28454.945
-28675.075
-29178.213
-29617.724
-30294.196
-30930.183
-24977.526
-25394.314
-25585.617
-26181.225
-26574.065
-27401.156
-27931.693
-21861.318
-22343.847
-22450.104
-23082.375
-23504.789
-24467.981
-24988.526
-18771.499
-19210.664
-19333.482
-20056.071
-20419.889
-21005.078
-22026.201
-15736.733
-16092.359
-16324.211
-16650.822
-17502.582
-18659.338
-19029.35
-12876.812
-13601.052
-13393.805
-14290.705
-14399.255
-15476.702
-15907.425
-10209.618
-10573.972
-10583.07
-11209.411
-11575.411
-12687.5
-12934.166
-7763.7602
-8197.8583
-8168.8587
-8735.404
-8960.5143
-10104.573
-10386.874
-5497.0138
-5956.0022
-5869.3595
-6322.4465
-6665.6931
-7700.9599
-7887.2262
-3822.6016
-4214.6854
-4017.0685
-4549.988
-4684.6949
-5629.9361
-5827.2936
-2249.5696
-2514.8392
-2328.2374
-2718.3278
-2822.9671
-3725.0634
-3910.7372
-1296.1581
-1434.0946
-1266.1151
-1565.604
-1607.6797
-2324.2272
-2430.5868
-348.26831
-326.53454
-201.66219
-311.2056
-368.36107
-893.16051
-985.37371
66.038427
155.59843
231.68696
215.742
212.16419
-97.882098
-283.17681
365.18
515.45942
464.65815
617.54807
628.96986
421.3385
496.49525
-981.51152
-1133.9547
-1003.7838
-813.15748
-454.56032
-385.64499
-367.79027
-1182.0999
-1232.262
-910.80441
-885.84683
-549.12215
-302.26344
-522.69238
-946.98356
-1050.0582
-785.30823
-552.89097
-298.00824
-151.20339
-342.99329
-373.31009
-406.76653
-344.32761
-166.88711
176.22328
246.45745
235.88532
324.92248
176.23367
465.88789
728.16879
1074.8887
1108.5248
927.3344
556.46713
530.28078
574.3006
887.71559
1155.9805
1207.8253
876.69728
428.06532
444.38504
465.83698
832.45682
1108.7464
991.36507
1112.7584
372.88802
-6393.9559
-4471.6493
-10655.675
-9408.8165
-10578.8
-4390.0347
10390.944
6688.3681
5321.4442
4646.8248
782.7949
1524.0004
-3221.3516
17422.181
14070.74
12253.598
10551.989
8906.7478
11457.409
6263.38
20948.356
21593.559
17636.218
17421.443
16494.623
13731.419
13124.24
30537.419
28421.499
26658.986
26158.185
23168.82
24789.393
18856.806
33148.641
33783.29
31435.252
30259.273
28051.334
25056.093
22502.798
40959.58
39967.906
37764.928
37585.628
35966.804
33141.759
34058.973
43571.549
43006.816
42573.219
38951.653
39239.284
37386.483
34579.783
48962.715
50521.648
48503.394
46203.192
46216.196
44148.286
43026.809
53429.372
52095.532
49838.748
49414.881
48867.675
46509.887
45599.632
56468.537
55469.573
56426.764
54398.282
54091.464
51749.345
51583.536
58452.468
59329.54
57886.427
56376.183
56199.949
54566.762
54103.328
61992.372
60424.265
60612.109
59106.771
59436.019
56976.613
56049.193
63251.613
62740.498
62248.235
61656.486
60925.643
59899.338
59794.015
64112.718
64257.8
63378.172
63310.112
62617.419
61500.92
61429.484
65767.397
64347.555
64380.902
63769.382
64133.377
62940.241
62639.951
65667.395
65168.729
65126.679
64901.686
64755.779
63763.37
63932.13
65559.081
64903.262
65184.095
64864.083
64920.753
64219.519
64144.286
65212.694
64937.309
65290.894
64847.81
65226.08
64616.29
64954.621
64540.225
64074.74
64598.833
64287.965
64712.882
64060.006
64378.595
63886.115
63242.342
64053.014
63586.214
64253.692
63627.401
64161.995
62484.282
61847.136
62827.211
62390.9
63036.961
62243.339
62925.603
61218.765
60507.806
61660.594
61000.902
61783.324
61028.953
61869.168
59563.678
58765.519
59820.165
59066.029
59862.815
58917.618
59817.452
57825.871
56696.113
58000.741
57037.323
57943.714
56879.503
57859.619
55822.069
54447.542
55761.943
54672.751
55452.05
54358.243
55264.84
53530.308
52339.694
53386.637
52215.598
52912.837
51712.097
52686.096
51423.905
49874.431
50709.956
49620.433
50187.285
48956.751
49759.18
48702.377
47210.244
48188.6
46856.916
47251.246
45952.101
46673.263
46136.629
44761.313
45302.727
44021.3
44236.603
43036.172
43568.03
43475.871
42024.363
42475.817
41151.372
41237.554
39954.002
40328.03
40581.983
39213.917
39416.615
38113.607
37971.163
36690.1
37011.766
37585.831
36307.068
36369.615
35040.283
34676.647
33601.163
33798.141
34522.168
33284.136
33174.31
31825.608
31513.661
30453.132
30351.756
31439.052
30291.623
29958.391
28732.569
28018.838
26977.588
26664.418
27855.122
26774.463
26447.563
25092.038
24616.647
23873.332
23611.765
24878.07
24024.61
23073.138
22266.884
21500.92
20474.577
20521.68
21396.05
20745.264
19782.468
18972.733
18149.307
17097.188
17219.955
17958.31
17424.499
16355.132
15750.235
14862.008
14216.425
14208.417
14968.504
14517.465
13529.943
13005.428
12066.127
11587.526
11426.483
11800.602
11487.747
10528.934
10127.962
9245.04
9071.5334
8850.9449
9079.9698
8830.8469
7969.6659
7700.0849
6924.6109
6895.1694
6667.7332
6602.3659
6421.242
5622.9621
5550.4724
4822.5333
5015.446
4792.3914
4282.3408
4073.4281
3619.09
3591.7977
3100.9223
3400.3801
3191.9561
2565.8958
2457.5684
2116.4398
2040.1542
1653.4107
1906.0999
1863.2019
1275.6176
1225.2764
1031.4377
1084.4118
1088.102
1360.3695
1402.531
433.04495
454.58611
401.31043
480.76185
347.23676
506.06361
459.51317
-3652.5033
2766.7748
6987.1904
10166.144
16644.168
21185.217
24145.348
29945.96
33620.951
39125.769
41200.151
45135.98
48003.786
48918.254
51720.742
52898.344
53421.951
54413.557
54413.034
54319.583
53743.773
52626.717
51283.271
49663.854
47681.273
45526.837
42912.66
40466.35
37915.482
35246.934
32602.675
29950.564
27181.851
24442.425
22117.913
18867.322
16315.457
14443.288
11837.619
9926.5414
8151.5264
6473.8326
5049.3998
3765
2694.5829
1543.8206
148.65352
-5602.1093
-7766.409
5503.2401
1651.9933
11337.137
12701.719
18337.442
19126.893
26897.267
26008.199
31504.361
33361.257
34660.593
37275.344
38830.059
39808.509
41062.115
40798.901
41651.618
41024.331
40782.917
39712.01
38754.966
37036.256
35471.926
33012.818
31846.737
29521.131
27501.856
25440.054
23442.322
21398.344
19363.744
17553.332
15322.914
13538.513
11790.875
10053.239
8297.3569
7051.0173
5723.638
4445.4873
3574.7587
2629.2007
1884.6017
1051.2442
173.71428
-5720.3147
-1479.8887
5398.1788
-274.67014
6226.2965
4488.8011
9930.805
9108.2572
13137.034
11692.4
16794.347
15682.624
19346.816
19292.265
20761.673
21980.541
22184.177
22938.47
23218.207
22940.957
22745.538
22247.259
21432.81
20481.549
19396.673
18169.573
17040.969
15471.767
14174.85
12833.819
11547.266
10273.398
9168.7707
7882.0774
6761.5998
5791.7239
4798.9313
4010.1641
3209.4245
2966.0544
2422.9355
2111.2145
1979.387
1678.6637
1471.0837
1154.6896
95.037655
-9851.6134
-6157.9819
-3361.8913
-5544.0179
-798.74993
-3812.94
107.7155
-1144.9143
42.975063
1546.537
1734.6117
1767.948
3717.1594
3760.8177
5524.5165
5213.9746
6388.01
6677.444
7292.9976
7208.9865
7815.3384
7615.1819
7582.5639
7244.7034
6791.0991
6052.9233
5457.522
4870.9384
4286.532
3711.5536
3175.2404
2840.5667
2313.6594
1929.9593
1603.5072
1249.9914
947.37237
729.00119
596.12921
625.2899
584.74423
594.35522
831.55611
694.34507
964.67506
588.15355
305.37844
-9751.9886
-5657.9199
-3228.3196
-8420.2362
-2605.1325
-8719.488
-7675.2862
-9811.9598
-8061.8036
-10826.742
-8359.4786
-12348.5
-9645.0314
-12019.413
-11219.53
-11435.508
-11048.584
-10545.398
-10308.042
-9751.7538
-9173.9255
-8984.4674
-8578.7292
-8481.9263
-8347.4137
-8499.878
-8182.4037
-8048.2149
-7915.952
-7790.364
-7504.8671
-7261.3195
-6935.4168
-6521.8249
-6163.6578
-5741.5521
-5196.2154
-4623.8981
-4009.205
-3218.7064
-2480.006
-1670.8282
-926.05699
-256.62224
241.99291
661.49905
205.87502
-9016.0277
-4481.8757
-11028.714
-9958.5646
-13162.449
-15728.923
-17819.291
-18905.368
-23086.301
-24391.039
-26579.747
-29991.174
-28845.932
-32114.403
-30089.593
-31931.76
-30174.499
-30358.104
-29109.379
-28555.991
-27504.619
-26763.359
-25537.819
-24131.633
-22578.148
-21343.025
-20454.083
-19538.926
-18637.25
-17622.415
-16686.28
-15549.435
-14428.709
-13268.692
-12078.689
-10896.861
-9605.1825
-8361.7831
-7077.5313
-5736.2279
-4437.2697
-3259.9366
-1969.0976
-1147.3863
-157.7485
264.47403
411.61801
-9308.7666
-12067.455
-9308.7528
-18910.819
-16295.304
-23340.104
-26666.409
-28926.978
-34989.506
-36327.359
-40021.378
-40883.304
-42780.377
-43859.372
-45015.32
-45198.809
-46269.013
-45275.988
-45737.024
-44544.097
-44074.13
-42859.221
-42081.422
-40722.172
-39974.524
-37496.24
-36166.247
-34652.783
-33167.379
-31681.41
-30029.164
-28178.964
-26384.536
-24425.463
-22415.944
-20336.008
-18012.729
-16115.82
-13746.444
-11479.636
-9258.7933
-6975.0933
-5077.2272
-3222.3529
-1805.1265
-495.00066
-274.14496
10054.526
11896.109
1401.7461
2413.3379
-3850.8378
-7326.8076
-5972.1641
15056.315
10666.493
7782.9043
4498.0259
3200.8331
4759.981
-4285.3464
15614.226
16587.218
10221.512
9069.88
9348.5273
3531.4028
5089.5736
23867.792
19780.494
18992.721
18705.817
14131.928
13166.55
10467.095
26244.486
24471.355
23851.458
21431.414
18147.504
17962.624
12160.012
30840.382
28732.032
26050.43
25221.679
24773.556
20575.214
22214.824
35875.91
31872.031
32761.399
31985.683
26885.378
29953.302
25506.956
37281.463
38198.917
36850.183
33664.57
33858.001
31478.312
29292.097
43875.043
40828.611
37174.732
40560.471
36971.509
35963.824
33471.821
45196.367
41668.928
45233.958
42998.484
40539.475
39838.205
39237.889
46585.888
48605.502
45801.529
45011.897
42976.56
43612.156
40620.165
51429.814
48343.272
47940.208
47676.005
47217.568
45321.872
44028.594
51994.834
51331.573
50589.417
51547.574
48038.793
48725.956
47302.125
53047.026
51840.55
52844.666
51393.946
50381.143
50306.797
48884.845
54661.452
53893.981
53312.656
52964.546
52037.503
51969.3
50400.344
54788.684
53576.675
54834.055
53982.277
52967.8
52431.566
52114.598
54261.725
54671.541
54437.508
54551.064
53306.416
53357.845
52571.663
54657.701
54315.491
54989.984
54398.773
53791.849
53700.367
53574.774
53409.145
54257.535
53852.96
54285.373
53436.788
53481.902
52914.483
53166.617
53342.06
53637.869
53768.89
53174.966
53127.14
53162.924
51135.682
52531.21
52303.693
52735.154
52037.147
52242.832
52006.364
50300.319
51656.15
51284.663
51632.027
51177.542
51165.572
51412.985
48562.154
50147.217
49433.002
50079.104
49379.535
49788.08
49587.533
46960.547
48712.604
48011.252
48519.579
48114.131
48113.413
47979.373
44981.157
47204.632
45893.67
46793.613
45917.634
46221.545
46044.322
43531.278
45410.638
44383.193
44600.882
44245.879
44087.572
43901.53
41949.271
43376.857
42175.057
42688.663
42064.016
41998.985
41537.202
39944.146
41158.652
40518.759
40415.317
39772.413
39598.193
39075.693
37961.201
39583.519
38031.424
38180.202
37501.997
37332.092
36625.293
36245.733
37119.399
36054.735
35897.414
35262.504
34857.923
34096.977
34099.404
34946.284
33683.909
33509.738
32729.917
32379.914
31446.032
32048.472
32569.273
31500.785
31065.284
30376.494
29911.818
28965.093
29868.338
30172.947
29023.764
28563.948
27932.36
27488.015
26377.179
27734.11
27736.248
26728.619
26084.88
25494.349
24801.999
23542.134
25301.07
25041.127
24042.103
23344.491
22885.87
22163.9
21229.408
22998.885
22515.454
21744.605
20942.868
20485.982
19925.226
18865.044
20659.308
20131.417
19268.623
18274.523
18165.396
17000.083
16228.568
18230.075
16961.525
16566.158
15731.03
14975.34
14998.561
13795.411
15822.229
14625.042
14327.431
13407.844
13235.478
12748.377
11733.269
13357.397
12304.239
11858.831
11085.742
10707.383
10447.919
9466.1993
10978.824
9767.4329
9524.0247
8662.6897
8679.649
8335.1196
7713.746
8800.8945
7892.15
7659.5706
6981.8617
6962.5573
6637.1683
6111.3701
6517.4601
5589.2515
5475.6455
4826.3837
4917.4253
4750.4139
4506.3811
4858.0438
4224.0603
4187.4676
3574.0099
3748.688
3526.3867
3309.0129
2871.0524
2418.0903
2250.3137
1876.7945
2073.9814
1952.8602
1974.5812
1644.6751
1331.2775
1332.9725
1106.0024
1297.2846
1211.839
1089.1168
205.4411
-69.282323
-130.85096
-209.00377
-33.144785
-136.78974
143.34185
20031.36
15239.687
12144.65
8669.4379
4273.6013
-923.93894
-75.456184
14517.335
2054.1574
1787.2022
-1945.5668
-4564.8111
-6136.8866
-3504.422
15825.231
12680.589
13227.521
10779.908
7487.4131
6815.6912
713.85948
17666.095
14436.824
12294.115
10154.119
8007.75
5256.619
8649.0442
21816.563
18652.704
16839.476
14559.589
12378.051
14117.639
9057.3093
23653.293
21105.299
19976.338
17560.922
16336.172
15169.751
12295.816
26612.534
25983.615
24631.942
22006.723
20724.168
20318.93
17604.588
29921.045
27488.938
25062.457
23391.887
23598.609
20953.37
18758.421
32096.536
29157.932
30224.51
28988.483
26589.197
25831.115
23881.495
32112.793
32872.507
32436.666
28556.435
28420.063
27874.444
26402.284
35817.795
35057.176
32735.926
31696.761
32193.193
30699.824
27880.68
37539.325
34604.512
36048.746
33982.592
34165.203
31445.687
32052.764
36930.117
37034.552
37936.94
34698.519
35314.557
33952.941
32996.28
38607.5
37945.846
38074.788
35553.948
37000.346
35452.685
33773.634
38604.154
38879.925
38786.071
37345.022
38060.845
36448.106
35252.797
38759.085
38509.654
38857.324
37575.869
37768.239
37243.683
35691.409
38748.267
39360.642
39590.273
38039.697
38735.221
38446.327
37222.866
38234.328
38614.32
38550.148
37861.673
38318.913
38027.097
36836.276
38142.436
38354.998
38805.246
38078.028
38459.091
38457.271
37576.888
36841.576
37368.023
37857.913
37264.256
37680.657
37720.161
37043.683
36502.975
36886.827
37364.393
36857.391
37311.958
37461.508
37022.36
35620.324
35575.381
36149.428
35779.824
36256.94
36376.948
35964.915
34740.024
34515.363
35304.412
34957.409
35506.488
35391.35
35265.466
33740.623
33256.222
34131.901
33693.408
34129.123
33930.464
33998.8
32691.544
32200.719
32926.88
32388.03
32928.139
32453.038
32659.612
31629.028
30927.069
31122.733
31474.066
31075.019
30889.939
31322.67
30155.011
29677.947
30101.511
29289.678
29793.526
28877.878
29070.928
29129.36
28212.879
28580.336
27962.345
28139.62
27339.89
27384.608
27900.126
26921.945
27317.962
26284.542
26650.982
25414.426
25498.306
26544.363
25553.936
25574.54
24747.064
24739.24
23659.523
23504.115
25210.364
24204.47
24212.007
23169.527
23166.363
21916.257
21642.385
23752.052
22836.306
22530.014
21593.246
21410.149
20157.306
19763.283
22405.703
21443.652
21043.151
20052.865
19742.821
18415.891
17712.171
20799.62
19904.722
19294.923
18359.81
17959.735
16490.242
16005.997
19248.51
18465.087
17737.958
16915.039
16298.395
15025.166
14391.639
17625.563
16945.075
16057.413
15210.069
14532.949
13121.927
12260.049
15867.172
15261.799
14161.897
13497.914
12691.706
11500.463
10627.071
14117.241
13771.411
12565.983
11951.829
11190.089
9953.1076
9256.4939
12217.809
12006.498
10928.838
10268.167
9582.1397
8648.8909
7510.3177
10440.383
10411.75
8984.94
8589.2559
7854.9725
6841.8605
6004.6953
8752.6563
8606.0477
7422.2439
7256.8628
6443.3756
5790.6518
5086.3739
6811.7475
7008.065
5764.5962
5751.114
4937.0518
4504.8773
3877.3369
5408.7057
5471.6292
4306.9679
4458.0075
3682.4744
3486.8733
3006.9197
3717.025
3785.7003
2863.3699
3157.3274
2508.0991
2498.0286
2205.4817
2544.3674
2520.0362
1832.7922
2051.8237
1553.3526
1623.7664
1520.3273
1257.1461
1205.7931
690.23496
975.9402
773.59995
858.26775
882.79963
389.36524
73.258202
-91.260446
25.873926
150.68554
-39.920572
291.00874
19674.468
18493.978
11778.724
10771.919
3754.119
223.68674
-1341.2479
14083.885
11420.681
10682.377
6117.972
2050.7296
4529.766
-3916.2752
11976.244
15039.718
14196.862
10118.928
9405.8254
6157.6926
-1308.5118
16989.141
14076.872
11144.392
8512.1458
5042.1751
3959.2651
4317.2534
17287.096
13618.902
14320.88
11769.603
8198.1446
11007.163
259.77764
16045.052
15661.544
13932.881
11030.601
12570.143
6532.3879
6518.1838
21230.684
16820.823
15027.453
15011.344
12201.714
12153.913
8966.8866
20098.314
16261.686
16943.846
14086.29
13630.262
11063.598
10021.965
20893.122
20030.636
18101.788
17478.677
15835.932
15022.353
13004.601
23486.72
19376.552
18402.78
16396.359
17194.213
14168.859
14178.643
23298.988
21433.227
19017.796
19965.051
18448.833
17366.201
15577.135
22654.218
21133.747
20261.311
19510.17
19485.41
16503.301
17850.461
23308.641
23817.857
19942.04
20941.763
19207.055
18949.314
18098.199
24114.128
22590.793
21477.888
21034.673
21906.028
18395.188
20181.787
23240.817
23460.863
20799.333
22352.837
20996.945
19189.276
20567.164
23522.637
22826.428
22505.431
21494.713
22018.818
19968.932
21912.609
21946.257
23631.394
21191.891
22162.331
21876.973
20423.159
21349.536
22639.146
22353.339
21683.423
21890.145
22159.014
20441.223
22052.947
20723.902
22466.124
21017.144
21905.908
21558.954
20691.772
21706.716
20822.453
21805.471
20832.534
21248.327
21519.624
20508.554
21964.584
19615.328
21218.084
19913.315
20916.453
20741.556
20337.241
21150.154
19038.71
20353.878
19606.987
20226.877
20432.087
19675.777
20863.498
18134.66
19702.669
18728.643
19657.424
19214.141
19111.466
19949.369
17543.828
18872.378
18319.45
18626.584
18543.552
18343.107
18981.432
16808.835
18182.965
17278.049
17782.881
17471.325
17457.904
17852.095
16338.714
17116.824
16871.611
16716.336
16619.456
16435.413
16585.34
15717.872
16763.053
15840.864
16138.627
15340.854
15601.118
15324.737
15274.137
16216.409
15060.015
15147.396
14610.692
14379.17
14313.941
14618.599
15421.531
14145.424
14239.909
13438.547
13194.873
13072.051
14222.761
14635.557
13453.397
13344.77
12567.449
12159.727
11992.53
13597.915
13936.056
12518.702
12499.572
11459.257
11125.593
10864.258
13131.87
13098.677
11771.085
11563.188
10552.8
10076.375
9697.0363
12505.83
12263.292
10813.39
10618.798
9506.9752
8962.0574
8737.9234
11907.311
11360.202
10053.477
9771.2553
8615.9814
8125.1095
7837.7197
11265.236
10516.385
9199.8391
8767.5004
7632.5396
7036.8845
6702.714
10502.979
9533.9061
8238.3686
7802.8955
6715.8726
6162.9091
5958.6948
9780.5566
8646.2267
7470.3096
6970.113
6002.3014
5206.5521
5192.5745
8824.3626
7724.0681
6518.9062
6165.6807
5009.0314
4539.678
4454.5102
8039.2298
6756.1718
5652.4211
5237.46
4294.4096
3839.4156
3591.6989
7145.6464
5920.8589
4864.3517
4649.9696
3649.99
3159.839
3074.2801
6056.2223
4635.0481
4065.1558
3702.9747
2923.9825
2748.0835
2731.8118
5065.3709
4214.4213
3567.0553
3261.1731
2600.5004
2384.2947
2145.5855
3989.4146
2839.7639
2480.9105
2286.4412
1762.9887
1787.901
1828.1281
3101.8097
2461.5733
2370.6847
2229.0358
1745.8375
1934.6554
1651.7861
2013.9429
1403.8864
1393.2635
1114.6887
924.93717
1123.4168
877.51063
1362.1495
1187.0962
1089.41
1231.4909
1141.4734
1252.0762
1034.6244
286.59309
-235.70488
30.93117
24.762736
10.372928
167.99313
267.95571
19848.339
12179.13
8425.9215
6927.6341
2592.8191
-1288.5677
-3930.3385
13822.745
9738.475
7989.7192
4631.0525
1964.0113
-1551.7052
-2705.899
14198.437
10586.926
8673.8687
5372.1704
4724.6865
-1412.0738
-2982.3894
12889.703
8511.8966
5071.7497
3207.1499
311.77334
-1378.0213
-1715.7197
9405.0614
5972.7087
6540.4847
2651.1214
4073.4169
-215.46154
-3496.0716
10033.068
8338.6621
6677.4056
5191.9483
1624.8761
1367.9348
483.86945
10799.131
5629.3025
7457.9255
1399.0383
2446.8696
1139.1778
-1930.1381
10085.375
8965.3821
5335.4057
5304.3608
3337.1236
2343.9944
69.160766
11572.993
5592.7132
6512.3123
4376.6173
2955.1391
2088.5265
431.04774
7973.9556
6854.0187
5989.412
3908.8905
3049.207
2536.5841
619.01238
8548.2324
6929.7262
6037.4347
4713.1182
4043.1511
3161.369
1553.3682
8079.3376
6435.1678
4826.8033
4304.5932
3203.4409
3050.4427
2198.6217
7977.0718
6108.1717
5498.1134
5106.4221
4290.7613
4498.9039
1349.9314
6573.9279
5412.9465
5591.7232
4497.7373
3916.2289
3253.1226
2331.4571
6555.1344
6058.7357
4722.142
5066.1906
3390.7657
4386.5216
3049.2691
5355.1496
4967.0758
4516.8412
4370.9295
3415.5718
4156.2475
3038.7515
5480.1504
5070.2591
4380.7055
5188.6282
3635.9675
4691.2211
3692.5857
4550.8504
4097.1193
4293.3047
4712.8121
3311.6593
4355.6989
3702.7414
4186.9514
4712.4525
4255.5212
4947.8125
3594.4002
4979.0553
4441.2701
4054.4952
3889.8425
3705.3643
4426.7953
3365.6822
4755.1809
4028.5907
3581.6117
4012.9414
3738.3591
4747.442
3753.9655
4906.9115
4419.8044
3665.7407
3768.0704
3527.6031
4384.7219
3308.0753
4623.7728
4243.0924
3380.7557
3928.3852
3637.6634
4210.5903
3546.5637
4733.0832
4300.0629
3704.4038
3697.2673
3548.961
3833.0454
3640.3046
4389.276
4028.9765
3676.1868
3880.9246
3637.3311
3809.8925
3825.1155
4007.4943
3863.6635
3886.567
4234.4661
3659.253
3753.3969
3786.2165
3559.213
3713.1542
4379.2847
4279.5754
3713.7688
3607.9076
3617.3624
3323.5698
3178.2836
4514.26
4229.5895
3778.4882
3404.5341
3434.8601
3005.1015
2686.1618
4813.2971
4445.7425
3909.0828
3463.5615
3430.7285
2782.6054
2357.8751
4952.7968
4549.5218
3934.9485
3372.2737
3127.6625
2575.5462
2014.1389
5160.8218
4674.8062
4071.4713
3331.9595
3092.2337
2478.2126
1552.9379
5262.2283
4769.622
4025.8885
3339.6719
2885.4593
2256.0558
1172.194
5430.802
4816.8618
4155.6074
3385.6337
2780.5808
2277.8216
951.84158
5463.925
4882.0467
4180.7903