/*--------------------------------*- C++ -*----------------------------------*\
  =========                 |
  \\      /  F ield         | OpenFOAM: The Open Source CFD Toolbox
   \\    /   O peration     | Website:  https://openfoam.org
    \\  /    A nd           | Version:  6
     \\/     M anipulation  |
\*---------------------------------------------------------------------------*/
FoamFile
{
    version     2.0;
    format      ascii;
    class       pointVectorField;
    location    "0.04";
    object      u;
}
// * * * * * * * * * * * * * * * * * * * * * * * * * * * * * * * * * * * * * //

dimensions      [0 1 0 0 0 0 0];

internalField   nonuniform List<vector> 
625
(
(0 7.6653306e-21 0)
(0 6.8965669e-21 0)
(0.23558295 0.01688783 -0.0004446142)
(0.23516741 -0.019271268 0.00044574176)
(0 9.9398399e-21 0)
(0 5.3931363e-20 0)
(0.23533418 -0.019640689 -0.00016058187)
(0.23595901 0.01716036 -5.2428088e-06)
(0 -1.1653436e-21 0)
(5.3550078e-21 -1.2438735e-20 0)
(0 2.5442906e-20 0)
(0.2354114 0.0077581914 -0.00038432326)
(0.23532161 -0.0011864005 -0.00010326289)
(0.2353023 -0.010090905 0.000242839)
(0.0027303674 0.0061240175 0.004616719)
(0.0077924606 0.011450306 0.004892974)
(0.015772185 0.016010618 0.004173495)
(0.025981888 0.019601656 0.003307316)
(0.037938551 0.022059759 0.0022880748)
(0.050832891 0.023339809 0.0012480577)
(0.063962831 0.023716873 0.00042874897)
(0.076677977 0.023419367 -0.00011725374)
(0.08869467 0.022800349 -0.0003479373)
(0.10001105 0.022104131 -0.0003710172)
(0.11079866 0.021477708 -0.00028664836)
(0.12126407 0.020950217 -0.0002013786)
(0.13156773 0.020493503 -0.00016938289)
(0.14173635 0.020050312 -0.00019150119)
(0.1517087 0.019589463 -0.00022298368)
(0.16139902 0.019127505 -0.00020788486)
(0.1707981 0.018709846 -0.00011461539)
(0.17998794 0.018378761 2.6898971e-05)
(0.18913686 0.018146085 0.00014309762)
(0.19840302 0.017955433 0.00016260657)
(0.20778784 0.017760468 9.1594269e-06)
(0.21726914 0.017453376 -0.00015613532)
(0.2266267 0.017139915 -0.00029784879)
(0.00069077709 -0.0048061172 -0.0061267062)
(0.0066015074 -0.00949138 -0.0046382097)
(0.015030647 -0.014335356 -0.0040683501)
(0.024871943 -0.017784265 -0.0029257567)
(0.036592004 -0.020499542 -0.0018166518)
(0.049295096 -0.02220373 -0.0007582932)
(0.062197386 -0.022925828 0.0001088523)
(0.074968723 -0.022965728 0.00069452455)
(0.087073784 -0.022548769 0.00095073352)
(0.098570598 -0.021959112 0.00094616612)
(0.1095148 -0.021392368 0.00080496824)
(0.1201152 -0.020938616 0.00063046587)
(0.13052361 -0.020596933 0.00049993746)
(0.1407817 -0.020310537 0.00044068614)
(0.15082567 -0.020028808 0.00042710311)
(0.16055409 -0.019742392 0.00040345584)
(0.16993637 -0.019489448 0.00031926212)
(0.17907659 -0.01932602 0.00016662367)
(0.18818931 -0.019276489 -3.6653729e-06)
(0.19746008 -0.019313833 -0.00011046229)
(0.20695698 -0.019364441 -9.3704035e-05)
(0.21654765 -0.019351736 4.6989767e-05)
(0.2260382 -0.019279553 0.00025176976)
(0 6.9609992e-21 0)
(-9.5073535e-20 -2.0456623e-20 0)
(0 5.183842e-20 0)
(0.0020323063 -0.0031216063 0.0043680561)
(0.0074798241 -0.011427187 0.0045614147)
(0.015313678 -0.01381549 0.0030152859)
(0.025537769 -0.017966247 0.0022214571)
(0.037131741 -0.020550185 0.0015064829)
(0.049507089 -0.022154415 0.00058619637)
(0.062346193 -0.022754007 7.2800861e-05)
(0.074846914 -0.022813104 -0.00041538212)
(0.086975756 -0.022368301 -0.00062876126)
(0.098438564 -0.021768857 -0.00064874486)
(0.10941262 -0.021204665 -0.00056189348)
(0.12004316 -0.020755419 -0.00045040481)
(0.13047958 -0.020417334 -0.00037436579)
(0.14076804 -0.02011264 -0.00036408559)
(0.15084056 -0.019782485 -0.00038554129)
(0.16057721 -0.019425084 -0.00037409746)
(0.16993874 -0.019122057 -0.00027908444)
(0.17905757 -0.01897542 -0.00011748012)
(0.18818682 -0.019032076 1.5671037e-05)
(0.1975415 -0.019221559 2.7717419e-05)
(0.20711913 -0.019412719 -9.4880042e-05)
(0.2167279 -0.019503072 -0.00026194635)
(0.22613658 -0.01951417 -0.00028293789)
(0.23543782 -0.010298086 -0.00014306774)
(0.2355112 -0.0011740155 -0.0001600238)
(0.235777 0.0079116853 -7.9158204e-05)
(0.2267611 0.017353068 -2.5124272e-05)
(0.21743032 0.017708641 -3.0250802e-05)
(0.20795994 0.017925178 -7.928853e-05)
(0.19850779 0.017952606 -0.0001248551)
(0.18919628 0.017926351 -9.7281396e-05)
(0.18001299 0.017990517 -1.100681e-05)
(0.17080947 0.018250344 0.00010044309)
(0.16141237 0.01869 0.00017934158)
(0.15170934 0.019220911 0.0002004743)
(0.14171594 0.019745901 0.00018504077)
(0.13151781 0.020234221 0.00018251146)
(0.12118344 0.020722392 0.0002343255)
(0.11068887 0.021277784 0.00033435936)
(0.099890363 0.021882474 0.00043088629)
(0.088489816 0.022618809 0.00042804233)
(0.076525224 0.023064454 0.00026807954)
(0.063897667 0.023193904 -0.00012632102)
(0.050889521 0.022509369 -0.00080079188)
(0.038297216 0.02114319 -0.0016297423)
(0.026290098 0.018533768 -0.0026392956)
(0.015877388 0.015107365 -0.0034737533)
(0.0083241602 0.010303818 -0.0040770074)
(0.0036229485 0.0057208132 -0.0037925261)
(0 -1.2428354e-20 0)
(0 -1.2959799e-20 -2.673088e-20)
(0 -3.8195592e-20 0)
(0 2.2450326e-20 0)
(0 -2.4840855e-21 7.9205905e-21)
(0 1.7099469e-20 0)
(0.23507159 -0.019418838 0.0002624812)
(0.23518683 -0.019575773 2.4239912e-05)
(0.23528009 -0.019641946 -0.00011303937)
(0.2355959 0.017089375 -0.00028548609)
(0.23574142 0.017203411 -9.8974949e-05)
(0.23587526 0.017203317 -3.9397616e-05)
(0.00056285056 0.0022844853 0.0031367804)
(0.0059738732 0.0042968366 0.0021803342)
(0.013928783 0.006117488 0.0020489083)
(0.024403892 0.0075140876 0.0016502835)
(0.036556095 0.0085403647 0.0012679177)
(0.049742676 0.0091523542 0.00084241969)
(0.063151149 0.0095560163 0.00046587296)
(0.076139458 0.0097593113 0.00018915784)
(0.088363317 0.0098786222 1.9275791e-05)
(0.099797254 0.0099542149 -3.8410728e-05)
(0.11064673 0.010044592 -4.329229e-05)
(0.12115006 0.010150945 -3.0970831e-05)
(0.13148263 0.010263049 -3.6909852e-05)
(0.14168569 0.010361973 -6.3287508e-05)
(0.15169148 0.010435522 -8.8730596e-05)
(0.16140549 0.01048075 -8.6358183e-05)
(0.17080678 0.010481301 -3.5733895e-05)
(0.17997674 0.010415468 3.0615113e-05)
(0.18911179 0.010246568 8.4393799e-05)
(0.19833816 0.00992141 7.1165933e-05)
(0.20772428 0.009491461 -1.8866014e-05)
(0.21720824 0.0089569957 -0.0001412235)
(0.22653302 0.0083725919 -0.00022353538)
(-0.00031775334 0.00039357791 0.00019624537)
(0.0051181866 0.00058335948 6.1594827e-05)
(0.013392609 0.00089399177 0.0001842985)
(0.023880775 0.0008934575 0.00027684865)
(0.036114111 0.00068424635 0.00030095091)
(0.049310145 0.00044483378 0.0003377472)
(0.062743979 0.00023627033 0.00035278444)
(0.075779091 8.722523e-05 0.00033990165)
(0.088065551 2.5110038e-05 0.00032202968)
(0.099562844 6.1455444e-06 0.00028653039)
(0.11044226 -2.4702052e-07 0.00025213748)
(0.1209519 -2.4932329e-05 0.00021225588)
(0.13126803 -8.1523068e-05 0.0001734681)
(0.14143856 -0.00016874885 0.00013932574)
(0.15139788 -0.00026988717 0.00011772309)
(0.16105984 -0.00035841213 0.0001113483)
(0.17041526 -0.00041783784 0.00012083623)
(0.17957152 -0.00044955891 0.00012259518)
(0.18873053 -0.0004779535 0.00011403033)
(0.19803159 -0.00054176079 7.2521169e-05)
(0.20748417 -0.00066289133 -7.3014216e-06)
(0.21701297 -0.00081465475 -5.1798948e-05)
(0.22641488 -0.00098727262 -3.782807e-05)
(-0.00078157458 -0.0012808749 -0.0020828137)
(0.0052115546 -0.0024756686 -0.0022818618)
(0.013481549 -0.0040599313 -0.0018502663)
(0.024101291 -0.0057093815 -0.0014017399)
(0.036287385 -0.0071044964 -0.00083365382)
(0.049388639 -0.0081871849 -0.00028381179)
(0.062687082 -0.0089806821 0.0001430722)
(0.075605196 -0.0094709841 0.00044299798)
(0.087810321 -0.0097398755 0.00057790416)
(0.099255358 -0.0098955465 0.0005939723)
(0.11011437 -0.01003132 0.00053262626)
(0.12061739 -0.010204969 0.00044741715)
(0.13094056 -0.010423179 0.00037165269)
(0.14112902 -0.010669832 0.00031760022)
(0.15110806 -0.010916947 0.00027957368)
(0.16077482 -0.011134207 0.00024075005)
(0.17010139 -0.01129561 0.00019079298)
(0.17921643 -0.011366273 0.0001279894)
(0.18832425 -0.011338743 7.5142179e-05)
(0.19763396 -0.01117967 2.9807855e-05)
(0.20714918 -0.010947453 3.6339997e-05)
(0.21675754 -0.010648584 7.8963517e-05)
(0.2262552 -0.010333433 0.00011500406)
(0 -7.8747884e-21 0)
(0 1.3011972e-20 2.7293155e-20)
(0 2.8348843e-20 0)
(-1.419697e-20 2.8347241e-22 0)
(5.9297498e-21 -8.7860768e-21 -4.3760752e-22)
(-3.736892e-20 -3.3607243e-20 0)
(0 1.2781918e-20 0)
(0 3.4351724e-20 -9.1360466e-22)
(0 3.7828322e-20 0)
(0.0029794918 -0.0022372748 -0.0025279858)
(0.0036402161 -0.0028840598 -0.0005055078)
(0.0032508884 -0.0022115313 0.0014631938)
(0.0093503973 -0.010717298 -0.0024572362)
(0.0094538504 -0.010714781 -0.00012181208)
(0.0091167296 -0.010383343 0.0022592609)
(0.016395855 -0.014533722 -0.0019550497)
(0.016835544 -0.01425314 -0.00022268446)
(0.016789813 -0.014681871 0.0015605468)
(0.026054586 -0.018335511 -0.0014605375)
(0.026708476 -0.018242588 -9.4772926e-05)
(0.026242426 -0.018173858 0.0010966656)
(0.037492275 -0.02100936 -0.00088338644)
(0.037677239 -0.020886856 -9.0235759e-05)
(0.037664161 -0.020925215 0.0007078142)
(0.049590473 -0.022588209 -0.00035736633)
(0.049854308 -0.02238922 1.591992e-05)
(0.049737492 -0.022393435 0.00031770233)
(0.062299366 -0.023169367 9.0759894e-05)
(0.062292587 -0.023168939 8.848494e-05)
(0.062316114 -0.023106614 2.5931345e-05)
(0.074735985 -0.023112492 0.00040911713)
(0.074752626 -0.022999966 0.00010008146)
(0.07471721 -0.023001378 -0.00015366167)
(0.086811965 -0.022547766 0.00052541635)
(0.086721947 -0.022506317 0.00011397061)
(0.086736486 -0.022506909 -0.00026666629)
(0.098300752 -0.021863074 0.00051898412)
(0.09819702 -0.021840517 0.00010021525)
(0.098238724 -0.021850192 -0.00028401205)
(0.10930116 -0.021249761 0.00044271032)
(0.10922106 -0.021239763 8.4331975e-05)
(0.10925111 -0.02126009 -0.00024922839)
(0.119974 -0.020794255 0.00034991735)
(0.11990639 -0.020784653 6.8991404e-05)
(0.119928 -0.020807456 -0.00019600247)
(0.13042783 -0.020475177 0.00027866719)
(0.13037444 -0.020458726 5.8306155e-05)
(0.13039142 -0.020481131 -0.00015796205)
(0.14070093 -0.020214118 0.00024192515)
(0.14065643 -0.020184028 5.0706896e-05)
(0.14067557 -0.020202122 -0.00014780562)
(0.15073308 -0.019939349 0.00022765704)
(0.15069716 -0.019889215 4.4971126e-05)
(0.15072365 -0.019900537 -0.00015688587)
(0.16044572 -0.019634186 0.00020724194)
(0.16042311 -0.019560396 3.879109e-05)
(0.16045034 -0.019561797 -0.00015633787)
(0.16983843 -0.019349377 0.0001523602)
(0.16983386 -0.0192612 2.9867384e-05)
(0.16984752 -0.019250625 -0.00012158611)
(0.17903537 -0.019169176 5.7412623e-05)
(0.17905423 -0.019090233 9.8162195e-06)
(0.1790452 -0.019067631 -5.3103949e-05)
(0.18823683 -0.019148457 -5.3886264e-05)
(0.18827597 -0.019112311 -2.7056578e-05)
(0.18825456 -0.019077929 6.9160672e-06)
(0.1975917 -0.019259109 -0.00013477819)
(0.19764539 -0.019284807 -7.7642403e-05)
(0.19763307 -0.019247699 1.2439116e-05)
(0.20710228 -0.019402427 -0.00013904121)
(0.20714845 -0.019487504 -0.00012047598)
(0.20716381 -0.019454262 -5.7042732e-05)
(0.21661222 -0.01947772 -5.5258283e-05)
(0.21663475 -0.019597241 -0.00011708064)
(0.21668142 -0.019578959 -0.00014893546)
(0.22596141 -0.019446137 9.6961514e-05)
(0.22600196 -0.019554348 -5.570999e-05)
(0.22607229 -0.019578788 -0.00018047454)
(0.23538227 0.0079165064 -0.00031444564)
(0.23553624 0.0079734392 -0.00019518541)
(0.23567756 0.0079368064 -0.0001083462)
(0.23520383 -0.0011195694 -0.00013700967)
(0.23530564 -0.0011329629 -0.00010820259)
(0.23545394 -0.0011822075 -0.00011713263)
(0.23511325 -0.010134926 0.00016246178)
(0.23524295 -0.010223559 4.3740466e-05)
(0.23536598 -0.01028566 -7.9816241e-05)
(0.0049967729 0.0053980612 0.0020043644)
(0.0051265186 0.0055997618 0.00039359439)
(0.0051403206 0.0055075956 -0.0015735396)
(0.0098527009 0.010999799 0.0023106344)
(0.01006755 0.010860724 9.4530546e-05)
(0.0099055189 0.0107938 -0.0019797921)
(0.017326456 0.015885961 0.0020693846)
(0.017915302 0.015552033 0.00038983944)
(0.017639632 0.015550574 -0.001804742)
(0.027287142 0.019610701 0.0017410543)
(0.027542056 0.019266253 0.00021310262)
(0.027317898 0.019051797 -0.001286236)
(0.038626149 0.022084542 0.0012576086)
(0.038943724 0.021853702 0.00036624403)
(0.038824674 0.021636782 -0.00063731775)
(0.051121976 0.02354441 0.00077145373)
(0.051249217 0.023206174 0.00026635702)
(0.051180596 0.022979253 -0.00024863665)
(0.063856555 0.023884737 0.00033072546)
(0.063896068 0.023636587 0.0002045591)
(0.063826158 0.023393686 6.5322628e-05)
(0.076375311 0.0235727 4.2588166e-05)
(0.076323358 0.023357015 0.00015103438)
(0.076311062 0.023178056 0.00024408372)
(0.088370125 0.022866199 -0.00012770738)
(0.088241698 0.022742584 6.0907392e-05)
(0.088275832 0.022595389 0.00026157707)
(0.099704185 0.022169745 -0.00015879912)
(0.09960071 0.022000789 4.1885769e-05)
(0.099606553 0.021881125 0.00026289764)
(0.11056825 0.021494652 -0.00013156647)
(0.11048153 0.021355206 2.1809992e-05)
(0.11050265 0.021253371 0.00018685615)
(0.12111295 0.020964792 -9.6482732e-05)
(0.12103953 0.0208224 4.947771e-06)
(0.12105919 0.020718492 0.00011865092)
(0.13145634 0.020515265 -8.6549428e-05)
(0.13139683 0.020361658 -1.1290657e-05)
(0.13141634 0.020252003 7.8846673e-05)
(0.14163221 0.020071181 -0.00010441938)
(0.14158414 0.019901423 -2.9689176e-05)
(0.1416043 0.019782818 6.7811306e-05)
(0.15159336 0.019589617 -0.00012590151)
(0.15155841 0.019400901 -4.9403643e-05)
(0.15157436 0.019269655 6.7556408e-05)
(0.16128063 0.019087884 -0.00011632911)
(0.16126988 0.018886489 -5.3880377e-05)
(0.16127152 0.018744682 5.8763988e-05)
(0.17069948 0.018633778 -4.8590082e-05)
(0.17071757 0.018441338 -3.1562349e-05)
(0.17071045 0.018297531 3.4625766e-05)
(0.17993825 0.018301502 5.3713882e-05)
(0.17999377 0.018141455 1.9054669e-05)
(0.1799879 0.018018676 3.1214108e-06)
(0.18914345 0.018105309 0.00014869954)
(0.18921816 0.01800694 7.3015106e-05)
(0.18924189 0.017917514 -2.3549385e-05)
(0.19843076 0.018013097 0.00016250421)
(0.19851041 0.017970915 8.6907175e-05)
(0.19856906 0.017917597 -4.5568443e-05)
(0.20782145 0.017892062 6.7459432e-05)
(0.2078689 0.017913588 3.6782004e-05)
(0.2079711 0.017874543 -6.033301e-05)
(0.21722792 0.017646274 -6.3559751e-05)
(0.21727422 0.01770825 -5.2189448e-05)
(0.2173734 0.017672468 -9.7699771e-05)
(0.22651964 0.017331295 -0.00019546938)
(0.22658278 0.017436798 -0.00011970668)
(0.22668412 0.017405533 -7.2640174e-05)
(0.00050436337 0.00099534613 -0.0024495852)
(0.0064854356 0.0042119684 -0.0017935344)
(0.014045456 0.0054653962 -0.0015651505)
(0.024778139 0.0069368391 -0.0011824343)
(0.036797348 0.0078534906 -0.00073798725)
(0.049836488 0.0086531328 -0.00039618314)
(0.063091499 0.0091942823 -0.00013278709)
(0.075980932 0.0095438772 3.2394976e-05)
(0.088167339 0.0097574086 9.0664788e-05)
(0.099646663 0.0099182696 0.0001174439)
(0.11052753 0.010036635 7.5476797e-05)
(0.12106649 0.010131599 5.1267953e-05)
(0.13143387 0.010213293 3.2526862e-05)
(0.14167655 0.010257161 3.1666966e-05)
(0.15171288 0.010259419 2.4023049e-05)
(0.16143316 0.010241151 -5.7886951e-06)
(0.17081009 0.010231276 -5.081546e-05)
(0.17996237 0.010227066 -9.0476269e-05)
(0.1890998 0.010177903 -0.00010613248)
(0.19838662 0.0099928906 -0.00010758401)
(0.2078445 0.0096271318 -0.00010572186)
(0.21734066 0.009091961 -0.0001122861)
(0.22664583 0.0084825251 -9.7290963e-05)
(-0.00021287606 0.00072616298 7.7088992e-05)
(0.0059740022 0.0011301389 -0.0003082421)
(0.014041876 0.00097423679 -0.00012520513)
(0.024750658 0.00093448838 -0.0001727771)
(0.036685186 0.00074525297 -9.1067453e-05)
(0.0496499 0.00049895273 -5.0215043e-05)
(0.062793665 0.00033620314 -3.7572908e-05)
(0.075627335 0.00022217877 -5.7646227e-05)
(0.087831138 0.00016257523 -7.0544797e-05)
(0.099333534 0.00014380985 -9.952434e-05)
(0.1102574 0.00012650671 -0.00010909533)
(0.12082688 8.7649346e-05 -0.00011123386)
(0.13120656 1.2363959e-05 -0.00011172393)
(0.14144283 -9.8443653e-05 -0.0001111516)
(0.15144983 -0.00023069401 -0.00011294834)
(0.16111112 -0.00035183229 -0.00011174804)
(0.17041279 -0.00042339452 -9.3946134e-05)
(0.17950574 -0.00043697098 -6.3394347e-05)
(0.18864127 -0.00042135596 -3.8785551e-05)
(0.19799212 -0.00045037208 -5.0894432e-05)
(0.20753747 -0.0005808692 -9.4939169e-05)
(0.21710301 -0.00080016391 -0.0001642674)
(0.22644545 -0.0010323948 -0.0001835554)
(-0.00070729877 -0.0010366304 0.0018442255)
(0.006245849 -0.0021077173 0.0018978043)
(0.014438017 -0.0045946481 0.0020728946)
(0.024964729 -0.0057114207 0.0011818151)
(0.036997711 -0.0072158074 0.00096241682)
(0.049810017 -0.0082446457 0.00043049236)
(0.062834488 -0.0089164572 4.5613968e-05)
(0.075560866 -0.009357993 -0.00021681093)
(0.087652612 -0.0095834486 -0.00038316907)
(0.099075669 -0.0097308171 -0.000423725)
(0.10995718 -0.0098710674 -0.00038316314)
(0.12050071 -0.01004698 -0.00031901282)
(0.13087097 -0.010265623 -0.00026048065)
(0.1411104 -0.010504681 -0.00022461653)
(0.15113417 -0.010743481 -0.00020358993)
(0.1608109 -0.010964944 -0.00017689188)
(0.17010678 -0.01114634 -0.00013034684)
(0.17917056 -0.011253729 -7.6395461e-05)
(0.18827261 -0.011248175 -4.6160845e-05)
(0.19763114 -0.011124341 -6.8971741e-05)
(0.20723117 -0.010926219 -0.00014702168)
(0.21684861 -0.010707985 -0.00018862868)
(0.22627632 -0.010515668 -0.00023432493)
(0.0015815929 0.00088862197 0.0012395196)
(0.001856204 0.0010900936 0.00028292378)
(0.0019882656 0.00094371702 -0.00096741971)
(0.00775221 0.0042838608 0.00106555)
(0.0081947759 0.0041634001 0.00013787619)
(0.0078605065 0.0041695024 -0.0011475468)
(0.015471206 0.0061297711 0.00094798176)
(0.015832546 0.0059728652 7.5480425e-05)
(0.015548464 0.0058340301 -0.00083245141)
(0.025606738 0.0077112529 0.00083746501)
(0.025975701 0.0075199356 0.00018901004)
(0.025709399 0.0073922943 -0.00057061626)
(0.03732535 0.008712752 0.00067211491)
(0.037594867 0.0085186665 0.00023248188)
(0.037424355 0.0083826799 -0.00032510453)
(0.050070979 0.0093676726 0.00052516661)
(0.050222708 0.0092237263 0.00023826021)
(0.050121313 0.0090756758 -7.0244069e-05)
(0.063131729 0.0097354748 0.00032724726)
(0.063159179 0.0096030514 0.00021674136)
(0.063118399 0.0094960849 6.5636801e-05)
(0.075902469 0.0099048269 0.0001830734)
(0.07584612 0.0098164023 0.00015943166)
(0.075841935 0.009738414 0.00012710836)
(0.088051246 0.009989922 6.9988115e-05)
(0.087952668 0.009918382 0.0001039123)
(0.087967363 0.009862702 0.00013999525)
(0.099503853 0.010041855 1.7508056e-05)
(0.099397306 0.0099841191 5.3851892e-05)
(0.099430617 0.0099531019 0.00010786073)
(0.11042146 0.010122898 -1.6336447e-06)
(0.11032848 0.010067985 2.3907314e-05)
(0.11035788 0.010038179 6.5042735e-05)
(0.12098869 0.010235891 -6.2362553e-06)
(0.12091684 0.010181401 2.4112422e-06)
(0.12094144 0.010143589 2.7600586e-05)
(0.13136562 0.010356503 -1.9227628e-05)
(0.1313121 0.010294948 -1.533721e-05)
(0.1313346 0.010247441 5.1861843e-06)
(0.14158933 0.010453505 -4.3069492e-05)
(0.1415514 0.010380426 -3.1292205e-05)
(0.1415744 0.010320934 -4.6979758e-06)
(0.15160137 0.0105067 -6.524826e-05)
(0.15157853 0.010414469 -4.3362793e-05)
(0.15159858 0.010344221 -8.2314816e-06)
(0.16132323 0.010512542 -6.420467e-05)
(0.1613185 0.010402879 -4.0341592e-05)
(0.16132596 0.010326819 -1.1221101e-05)
(0.17074186 0.010474152 -2.6463961e-05)
(0.17076085 0.01036101 -1.8950016e-05)
(0.17075073 0.010288587 -1.3963929e-05)
(0.17994764 0.010390368 2.9363157e-05)
(0.17999626 0.010291572 1.3546471e-05)
(0.17997696 0.010236618 -1.8271328e-05)
(0.18910699 0.010224699 7.118608e-05)
(0.18918641 0.010170357 2.8219751e-05)
(0.1891734 0.010134774 -3.3819647e-05)
(0.19834753 0.0099608731 6.2070924e-05)
(0.19843536 0.009941147 -3.5192377e-06)
(0.19846268 0.0099256824 -7.2750914e-05)
(0.2077238 0.0095812144 -2.1219701e-05)
(0.20780472 0.0095938079 -7.222488e-05)
(0.20786529 0.0095746581 -0.00012146594)
(0.2171382 0.0090879654 -0.00013569858)
(0.21721064 0.0091204863 -0.00015135673)
(0.21728503 0.0090922777 -0.00016175184)
(0.22639089 0.008525325 -0.00021981931)
(0.22646266 0.0085747039 -0.00019084316)
(0.22656274 0.0085354818 -0.00015302815)
(0.00089691725 0.00034249525 1.7777779e-05)
(0.0012781463 0.00053386599 -0.0001591534)
(0.0013573568 0.00042631672 -1.6510278e-05)
(0.0069588424 0.00069812712 -4.9987501e-05)
(0.0073426384 0.0008025594 -0.00012750731)
(0.0069481268 0.00068746201 -0.0001934062)
(0.015026391 0.00088313562 -4.8310895e-06)
(0.01534584 0.00084962025 8.4130433e-05)
(0.015174886 0.0007545931 -9.3493471e-05)
(0.02523131 0.00083505746 0.00011624136)
(0.025637279 0.00075094762 0.00012995122)
(0.025403639 0.00064977965 -1.3908695e-05)
(0.037037986 0.00068011974 0.00020352252)
(0.037258918 0.00059298148 0.00021080914)
(0.037119844 0.00055256108 2.0413342e-05)
(0.049771136 0.00050087306 0.0002595755)
(0.049884785 0.0004192748 0.00021765818)
(0.049827317 0.00035732273 6.6520287e-05)
(0.062814607 0.00033025795 0.00027954173)
(0.06282165 0.00024648183 0.00020503492)
(0.062790192 0.00020949708 5.2889215e-05)
(0.075591882 0.00022083956 0.00027010561)
(0.075510064 0.0001719309 0.00016778339)
(0.075524009 0.00013971817 3.3322282e-05)
(0.087766681 0.00017900922 0.00023571912)
(0.087648235 0.00013896071 0.00012049116)
(0.087673236 9.8604755e-05 3.7152224e-06)
(0.099256912 0.00016958177 0.00019852899)
(0.099136113 0.00014120627 8.5015889e-05)
(0.099168814 9.8150935e-05 -1.546537e-05)
(0.11019216 0.0001612081 0.00016353829)
(0.11009044 0.00013342384 5.4775074e-05)
(0.11011947 8.7101946e-05 -2.915647e-05)
(0.12077006 0.00013159258 0.00013156664)
(0.120693 0.00010470724 3.5422617e-05)
(0.12071637 5.3282107e-05 -3.6531128e-05)
(0.13114156 6.7841256e-05 0.00010179718)
(0.13108905 3.7764316e-05 1.8758845e-05)
(0.13111025 -1.9636032e-05 -4.2470699e-05)
(0.14134576 -2.9069336e-05 7.5383889e-05)
(0.14131448 -6.3412344e-05 4.7070936e-06)
(0.14133866 -0.00012734098 -4.8864215e-05)
(0.15132326 -0.00014338738 5.715695e-05)
(0.15130841 -0.00018591882 -3.5487644e-06)
(0.15133516 -0.00025707936 -5.4750956e-05)
(0.16099857 -0.0002518368 5.3959145e-05)
(0.1609953 -0.00030067507 1.4637457e-06)
(0.16101538 -0.00037640711 -5.3252551e-05)
(0.17037311 -0.00033313369 6.7552443e-05)
(0.17038023 -0.00038289232 1.9360168e-05)
(0.1703839 -0.00045278169 -3.7860092e-05)
(0.17956225 -0.00038663526 8.220148e-05)
(0.17958169 -0.00042542668 3.8065389e-05)
(0.17957095 -0.00047556333 -1.6468366e-05)
(0.18874437 -0.0004368978 7.9202326e-05)
(0.18878612 -0.00045714815 2.895528e-05)
(0.18877567 -0.00047751163 -1.3197118e-05)
(0.19805156 -0.00050977441 4.3784541e-05)
(0.19811311 -0.00051051214 -2.6803725e-05)
(0.19812322 -0.00051769828 -5.0543079e-05)
(0.20746872 -0.00063445908 -3.61955e-05)
(0.20757026 -0.00062852914 -9.624566e-05)
(0.20758235 -0.00063907301 -0.00012562864)
(0.21693018 -0.00079683458 -8.7887564e-05)
(0.2169917 -0.00079173559 -0.00016498053)
(0.21705025 -0.00081883307 -0.00019116047)
(0.22623004 -0.0009451184 -9.4482161e-05)
(0.2262713 -0.00094984767 -0.00015966766)
(0.22635874 -0.0010045009 -0.00018422338)
(0.00090688076 -0.00072732999 -0.00095057298)
(0.00081860955 -0.00060718259 -2.9790634e-05)
(0.00071369969 -0.00052957399 0.00080694592)
(0.0075129342 -0.0025385782 -0.0013412953)
(0.0077983634 -0.0021424189 -0.00011434688)
(0.0074535239 -0.0022560414 0.00085724142)
(0.015333716 -0.0045738468 -0.0011271734)
(0.015737404 -0.004786563 -0.00019810666)
(0.015603919 -0.004793307 0.00076618183)
(0.025571059 -0.0062688157 -0.00076032875)
(0.025877374 -0.0062147646 -5.6681641e-05)
(0.025728251 -0.0061538352 0.00059961334)
(0.037232814 -0.007546418 -0.00042932432)
(0.037501667 -0.007658254 -1.1069088e-05)
(0.037419371 -0.0075982093 0.00033530783)
(0.049860179 -0.0085517079 -8.6325452e-05)
(0.049999971 -0.0086227307 4.0428609e-05)
(0.049954673 -0.0085586569 0.00020186038)
(0.062766489 -0.0091646481 0.00018364745)
(0.062811924 -0.0092475858 0.00010388201)
(0.062804516 -0.009171942 4.3702116e-05)
(0.07542228 -0.0094978371 0.00034587314)
(0.075391746 -0.0095626983 0.00012632358)
(0.075396639 -0.0095278125 -7.1601264e-05)
(0.087506601 -0.0096451611 0.00040519879)
(0.087428996 -0.0096906722 0.00012500027)
(0.087451516 -0.0096951585 -0.00013195527)
(0.098946431 -0.0097220376 0.00038970298)
(0.098855491 -0.0097605786 0.00011714305)
(0.09888348 -0.0097887351 -0.00014735164)
(0.10986282 -0.0098266989 0.00033451963)
(0.10977708 -0.0098593285 0.00010088791)
(0.10980265 -0.0099086644 -0.00013060624)
(0.12043627 -0.01000049 0.0002714806)
(0.12036486 -0.010030287 8.3756636e-05)
(0.12038553 -0.010089095 -0.00010569418)
(0.13081397 -0.010238759 0.00021725921)
(0.13075953 -0.010266647 6.4677772e-05)
(0.13077891 -0.010325949 -8.8962273e-05)
(0.14103001 -0.010508984 0.00017790465)
(0.14099315 -0.010532176 4.5238079e-05)
(0.14101861 -0.010586822 -8.6907843e-05)
(0.15101789 -0.01077175 0.00014852419)
(0.15099817 -0.010788335 2.7615159e-05)
(0.15103195 -0.010836858 -9.1589312e-05)
(0.1606904 -0.010994701 0.00012143829)
(0.16068588 -0.011003068 1.7313837e-05)
(0.16071705 -0.011047278 -8.624209e-05)
(0.17004322 -0.011153981 9.2393118e-05)
(0.1700519 -0.011157644 1.660414e-05)
(0.17005979 -0.011197957 -5.7936406e-05)
(0.17920569 -0.0112306 5.9939031e-05)
(0.17922841 -0.011235424 2.1634042e-05)
(0.17920195 -0.011270481 -1.6170127e-05)
(0.18837541 -0.011219943 2.8911015e-05)
(0.18841894 -0.011233003 1.5291921e-05)
(0.18836731 -0.011259692 8.7486896e-06)
(0.19771848 -0.011107665 2.2975868e-07)
(0.1977867 -0.011144432 -1.6773354e-05)
(0.19773798 -0.011161443 -1.6720051e-05)
(0.20722159 -0.010929304 -7.0162291e-06)
(0.20729318 -0.010979284 -5.5163477e-05)
(0.2072745 -0.011003174 -9.1894504e-05)
(0.21674385 -0.010688674 5.9939724e-06)
(0.21680346 -0.010757792 -9.175899e-05)
(0.21682486 -0.010789325 -0.00015952143)
(0.2260947 -0.010399082 6.6556729e-05)
(0.22613636 -0.010489128 -7.4868985e-05)
(0.22621264 -0.010540048 -0.00018177097)
)
;

boundaryField
{
    free
    {
        type            calculated;
    }
    fixed
    {
        type            calculated;
    }
    freeTop
    {
        type            calculated;
    }
}


// ************************************************************************* //
