/*--------------------------------*- C++ -*----------------------------------*\
  =========                 |
  \\      /  F ield         | OpenFOAM: The Open Source CFD Toolbox
   \\    /   O peration     | Website:  https://openfoam.org
    \\  /    A nd           | Version:  6
     \\/     M anipulation  |
\*---------------------------------------------------------------------------*/
FoamFile
{
    version     2.0;
    format      ascii;
    class       pointVectorField;
    location    "1.97";
    object      lm;
}
// * * * * * * * * * * * * * * * * * * * * * * * * * * * * * * * * * * * * * //

dimensions      [1 -2 -1 0 0 0 0];

internalField   nonuniform List<vector> 
28033
(
(0 0 0)
(0 0 0)
(3485.3274 -112.96772 -120.07308)
(3455.195 -418.58587 -109.60029)
(0 0 0)
(0 0 0)
(3457.7469 -295.76386 -111.64188)
(3494.1519 10.894291 -118.14847)
(0 0 0)
(0 0 0)
(0 0 0)
(0 0 0)
(0 0 0)
(0 0 0)
(0 0 0)
(0 0 0)
(0 0 0)
(0 0 0)
(0 0 0)
(0 0 0)
(0 0 0)
(0 0 0)
(0 0 0)
(3483.4576 -129.57357 -118.12158)
(3482.7426 -146.77051 -116.29236)
(3482.1275 -164.77345 -115.41318)
(3481.8011 -184.16446 -114.91963)
(3481.1945 -204.39997 -115.11087)
(3480.323 -225.32365 -115.67334)
(3479.241 -247.01391 -116.36001)
(3477.3916 -268.69313 -117.25655)
(3475.2899 -290.36403 -117.9336)
(3472.7246 -311.47291 -118.44931)
(3469.6419 -331.84005 -118.43056)
(3466.5746 -351.26738 -117.68574)
(3463.094 -369.55833 -116.81002)
(3459.8567 -386.56552 -114.91534)
(3457.0981 -402.48955 -112.47474)
(20.650575 31.073261 30.616069)
(27.840603 45.815099 41.596651)
(37.102761 61.151627 48.393249)
(48.998409 76.741224 52.772411)
(62.214824 91.660567 54.863606)
(77.830325 106.96266 56.092096)
(95.355147 121.61099 56.445362)
(114.73494 135.90138 56.26846)
(135.91967 149.69373 55.873127)
(158.72539 162.80672 55.305232)
(182.98583 175.21722 54.647312)
(208.63267 186.97738 53.918304)
(235.53791 197.95789 53.343817)
(263.69237 208.22413 52.603696)
(292.8697 217.69517 51.959389)
(323.11259 226.49493 51.17985)
(354.36215 234.61018 50.403651)
(386.61151 242.04175 49.419659)
(419.74532 248.88213 48.298281)
(453.79563 255.12551 46.942835)
(488.75232 260.87958 45.395199)
(524.53999 266.10684 43.549736)
(561.14218 270.89636 41.522884)
(598.56845 275.31182 39.224721)
(636.62591 279.27258 36.77545)
(675.38711 282.97607 34.186097)
(714.63675 286.24891 31.591255)
(754.39798 289.33298 28.975839)
(794.43955 292.01945 26.52469)
(834.70963 294.49599 24.316186)
(875.10636 296.72617 22.421728)
(915.43805 298.7162 20.945086)
(955.69957 300.46962 19.973545)
(995.72558 302.06142 19.505272)
(1035.4915 303.49202 19.642294)
(1075.0348 304.80393 20.440921)
(1114.2066 305.97139 21.68558)
(1153.1552 307.10257 23.529686)
(1191.8811 308.24123 25.818835)
(1230.4995 309.32741 28.454545)
(1269.1459 310.49606 31.329413)
(1307.9718 311.72034 34.318171)
(1347.1077 313.05864 37.286716)
(1386.7527 314.50603 40.105697)
(1427.095 316.11571 42.636911)
(1468.3012 317.84591 44.766674)
(1510.5478 319.7236 46.39252)
(1553.9698 321.71682 47.440183)
(1598.7069 323.80231 47.850983)
(1644.8399 325.93583 47.603139)
(1692.4467 328.06895 46.692591)
(1741.5492 330.13128 45.143626)
(1792.1545 332.05267 43.001831)
(1844.223 333.74374 40.32831)
(1897.698 335.11223 37.199346)
(1952.487 336.05646 33.69698)
(2008.4784 336.47047 29.905085)
(2065.5421 336.2457 25.906356)
(2123.5284 335.26613 21.776808)
(2182.2759 333.43531 17.577304)
(2241.6144 330.63333 13.36034)
(2301.3598 326.76851 9.1706203)
(2361.3355 321.75333 5.0134974)
(2421.3165 315.50434 0.93276442)
(2481.135 307.98463 -3.1349106)
(2540.5818 299.05385 -7.0886573)
(2599.3619 288.84195 -11.015561)
(2657.352 277.17845 -14.942387)
(2714.2926 264.19236 -18.901682)
(2769.9258 249.81629 -22.844911)
(2823.9953 234.2338 -26.767632)
(2876.3187 217.47477 -30.747025)
(2926.6183 199.65437 -34.667374)
(2974.6652 180.89544 -38.564593)
(3020.2836 161.37301 -42.401222)
(3063.2609 141.25525 -46.158189)
(3103.4833 120.74996 -49.794297)
(3140.8052 100.04362 -53.29891)
(3175.2087 79.40277 -56.655266)
(3206.6207 58.958859 -59.839466)
(3235.1464 39.047523 -62.845976)
(3260.8678 19.833558 -65.754554)
(3283.9298 1.4795378 -68.531263)
(3304.6299 -15.769184 -71.247021)
(3323.0764 -31.871919 -73.957094)
(3339.7167 -46.434406 -76.713713)
(3354.8218 -59.541998 -79.626378)
(3368.8857 -71.084665 -82.719553)
(3382.2036 -80.960306 -86.142864)
(3395.3574 -89.356953 -89.840706)
(3408.4277 -96.011338 -94.065659)
(3422.366 -101.57296 -98.618732)
(3436.5511 -105.39717 -103.69455)
(3452.3719 -108.78847 -109.21539)
(3468.8005 -111.11522 -114.99162)
(7.6227266 -25.707173 -32.07845)
(16.842801 -36.572713 -35.167362)
(24.506137 -50.588111 -43.938583)
(33.542095 -61.800409 -45.570213)
(46.497571 -74.819133 -47.104741)
(60.972158 -87.642675 -46.651759)
(77.859292 -99.663213 -45.364615)
(96.694344 -111.99266 -43.223928)
(117.71527 -123.91695 -40.58361)
(140.09341 -135.36054 -37.596075)
(164.35629 -146.75134 -34.318681)
(189.75263 -157.54491 -31.003282)
(216.60649 -168.26897 -27.592378)
(244.46565 -178.54231 -24.400264)
(273.42109 -188.56588 -21.226753)
(303.24514 -198.31766 -18.40942)
(333.8956 -207.69763 -15.798117)
(365.32127 -216.89002 -13.527168)
(397.42372 -225.76016 -11.630982)
(430.20318 -234.25858 -10.078478)
(463.57699 -242.55778 -8.8358135)
(497.57677 -250.43504 -7.998623)
(532.12481 -257.98414 -7.3841955)
(567.24248 -265.18497 -7.0363302)
(602.90361 -271.96535 -6.9183306)
(639.08334 -278.3633 -6.8561064)
(675.74346 -284.35854 -6.9558215)
(712.86915 -289.93256 -6.9822662)
(750.39162 -295.15914 -7.0303308)
(788.27572 -299.99095 -6.9343559)
(826.44093 -304.57595 -6.7463495)
(864.85017 -308.85853 -6.407766)
(903.42104 -312.98631 -5.9161422)
(942.09858 -317.00763 -5.2760718)
(980.81019 -321.00602 -4.5297476)
(1019.5596 -325.0895 -3.6444581)
(1058.2103 -329.33439 -2.7726013)
(1096.8343 -333.876 -1.8831223)
(1135.3965 -338.7225 -1.0565766)
(1173.9626 -344.04219 -0.33658723)
(1212.5249 -349.83106 0.20685464)
(1251.2069 -356.17094 0.5430188)
(1290.0628 -363.08055 0.6277242)
(1329.2343 -370.57191 0.44532826)
(1368.8259 -378.63718 -0.016915909)
(1408.9915 -387.2427 -0.74736229)
(1449.8636 -396.34511 -1.7252123)
(1491.593 -405.87214 -2.9092244)
(1534.3154 -415.74986 -4.247613)
(1578.1627 -425.87991 -5.673548)
(1623.2499 -436.16634 -7.1123681)
(1669.675 -446.49889 -8.4813262)
(1717.5138 -456.77239 -9.6949341)
(1766.818 -466.8763 -10.66706)
(1817.6136 -476.70849 -11.315729)
(1869.8989 -486.16864 -11.563906)
(1923.6447 -495.16433 -11.347406)
(1978.794 -503.61265 -10.609989)
(2035.2641 -511.43485 -9.3146918)
(2092.9432 -518.56622 -7.4367448)
(2151.6983 -524.9429 -4.9718547)
(2211.3697 -530.51677 -1.9320582)
(2271.7766 -535.23604 1.652208)
(2332.7158 -539.07169 5.7298605)
(2393.9698 -541.9747 10.240562)
(2455.286 -543.92872 15.086982)
(2516.4228 -544.92235 20.187631)
(2577.1526 -544.94076 25.450318)
(2637.1181 -543.91406 30.739065)
(2696.0508 -541.95781 35.854404)
(2753.6387 -538.96289 40.742213)
(2809.6833 -535.10941 45.267114)
(2863.821 -530.28533 49.262575)
(2915.8054 -524.66548 52.588174)
(2965.3589 -518.24347 55.116201)
(3012.2811 -511.14845 56.725787)
(3056.3592 -503.48448 57.305322)
(3097.4192 -495.35092 56.759007)
(3135.3842 -486.9205 55.006549)
(3170.148 -478.29695 51.995675)
(3201.7431 -469.66672 47.699246)
(3230.2067 -461.17495 42.11056)
(3255.6573 -452.97307 35.257966)
(3278.283 -445.22934 27.202468)
(3298.3208 -438.07354 18.025014)
(3316.0666 -431.64557 7.8523887)
(3331.8798 -426.05256 -3.1763693)
(3346.1477 -421.39187 -14.88119)
(3359.3046 -417.72227 -27.07028)
(3371.8022 -415.09339 -39.527381)
(3384.1013 -413.48761 -52.049504)
(3396.6283 -412.90796 -64.385048)
(3409.8093 -413.2727 -76.38172)
(3423.9212 -414.32673 -87.908126)
(3438.9525 -416.25699 -98.885975)
(0 0 0)
(0 0 0)
(0 0 0)
(0 0 0)
(0 0 0)
(0 0 0)
(0 0 0)
(0 0 0)
(0 0 0)
(0 0 0)
(0 0 0)
(0 0 0)
(0 0 0)
(0 0 0)
(0 0 0)
(16.445641 -11.903985 24.484901)
(21.362684 -44.114454 36.147348)
(26.564826 -47.595175 40.488903)
(38.323643 -67.636029 46.187932)
(49.504846 -77.361841 47.427481)
(65.170778 -92.159277 47.74153)
(81.430384 -103.84191 47.610736)
(100.69572 -117.38073 46.971098)
(120.95652 -128.63242 46.011415)
(143.14345 -140.83994 44.98962)
(166.76001 -151.80862 44.115681)
(191.37126 -162.13322 43.088484)
(217.56401 -172.63604 42.275996)
(244.43878 -181.63011 41.360673)
(272.79044 -191.22977 40.653633)
(301.75486 -199.25979 39.770884)
(331.89351 -207.70678 39.007781)
(362.79421 -215.08437 37.99046)
(394.78517 -222.5991 36.872651)
(427.53853 -229.54271 35.619439)
(461.24485 -236.30386 34.093959)
(495.76969 -242.76554 32.312847)
(531.11396 -249.20986 30.333092)
(567.24328 -255.34116 28.091715)
(604.14054 -261.43675 25.661193)
(641.62395 -267.41755 23.158118)
(679.78984 -273.13789 20.486403)
(718.20491 -279.0739 17.916283)
(757.20469 -284.62578 15.444405)
(796.14422 -290.30987 13.157576)
(835.41977 -295.83388 11.238914)
(874.50533 -301.23346 9.7332239)
(913.55938 -306.59681 8.6978019)
(952.3444 -311.82218 8.2404025)
(990.81469 -316.96404 8.3145117)
(1029.0936 -322.27371 9.0813053)
(1066.8613 -327.18589 10.36193)
(1104.4655 -332.3193 12.198853)
(1141.7996 -337.44414 14.493214)
(1179.0085 -342.658 17.135375)
(1216.224 -348.01709 20.035075)
(1253.5885 -353.56028 23.039343)
(1291.2792 -359.34466 26.022837)
(1329.4795 -365.42158 28.839313)
(1368.3749 -371.82943 31.36439)
(1408.1488 -378.6063 33.469725)
(1448.9728 -385.77314 35.063749)
(1491.0005 -393.3441 36.059726)
(1534.3608 -401.30875 36.410992)
(1579.1578 -409.65432 36.086087)
(1625.4607 -418.33497 35.088716)
(1673.3105 -427.30574 33.441393)
(1722.713 -436.48771 31.192341)
(1773.6455 -445.80432 28.405868)
(1826.0533 -455.14784 25.159619)
(1879.8602 -464.41685 21.540655)
(1934.9618 -473.48084 17.635783)
(1991.2402 -482.22342 13.534447)
(2048.5564 -490.50114 9.3140626)
(2106.7624 -498.19163 5.0480264)
(2165.6965 -505.1505 0.79252455)
(2225.1885 -511.25996 -3.4053724)
(2285.0633 -516.38638 -7.5178379)
(2345.1298 -520.42298 -11.519991)
(2405.1961 -523.25806 -15.414323)
(2465.0664 -524.83259 -19.18575)
(2524.5061 -524.9277 -22.885673)
(2583.3012 -523.79795 -26.436755)
(2641.4436 -521.26201 -29.9437)
(2698.0125 -516.9805 -33.308968)
(2753.6332 -511.42942 -36.713362)
(2807.4964 -504.43958 -39.909242)
(2859.5662 -496.04075 -43.102673)
(2909.5604 -486.40676 -46.161257)
(2957.2643 -475.58233 -49.104231)
(3002.4718 -463.72366 -51.916185)
(3045.0232 -450.98513 -54.571557)
(3084.7734 -437.54221 -57.064423)
(3121.6386 -423.59582 -59.386162)
(3155.5747 -409.35413 -61.544558)
(3186.5935 -395.0426 -63.553945)
(3214.765 -380.8919 -65.44542)
(3240.2142 -367.1302 -67.259785)
(3263.1293 -353.99193 -69.054116)
(3283.7493 -341.68627 -70.893366)
(3302.3649 -330.4263 -72.852635)
(3319.3124 -320.38111 -75.011943)
(3334.9579 -311.71769 -77.451028)
(3349.7003 -304.54118 -80.246686)
(3363.9392 -298.94677 -83.463846)
(3378.085 -294.95319 -87.156522)
(3392.5142 -292.55094 -91.346029)
(3407.5701 -291.63743 -96.03525)
(3423.45 -292.08783 -101.12951)
(3440.3041 -293.60602 -106.4672)
(3459.8467 -278.51048 -111.03903)
(3462.5829 -261.13086 -110.38372)
(3466.1658 -243.46393 -110.44514)
(3469.8733 -224.18045 -111.07379)
(3473.6593 -204.39068 -112.20893)
(3477.4203 -183.39335 -113.67296)
(3480.7745 -161.99328 -115.47044)
(3483.7611 -140.38906 -117.34261)
(3486.2251 -118.60827 -118.856)
(3488.2742 -97.171556 -120.42663)
(3489.6024 -76.396342 -121.3866)
(3490.9662 -56.787846 -122.06156)
(3491.0225 -37.710794 -121.67854)
(3492.2332 -20.945021 -121.10189)
(3492.3975 -4.4250616 -119.55313)
(3478.5849 12.671375 -107.1226)
(3463.7157 14.386363 -96.349527)
(3449.5944 16.308492 -84.871715)
(3436.833 18.657537 -72.996476)
(3424.9052 21.680887 -60.5112)
(3413.4315 25.546721 -47.934587)
(3402.0471 30.394138 -35.308893)
(3390.2437 36.319405 -22.899378)
(3377.6275 43.421156 -10.955799)
(3363.6883 51.6685 0.41069746)
(3348.127 61.12923 10.939901)
(3330.4484 71.707221 20.536422)
(3310.4889 83.368451 29.08426)
(3287.8664 96.020914 36.539394)
(3262.4022 109.50049 42.760065)
(3233.886 123.72678 47.694973)
(3202.2471 138.54826 51.341265)
(3167.4625 153.78778 53.759348)
(3129.5317 169.30371 54.953299)
(3088.5276 184.92072 55.021274)
(3044.5837 200.49769 54.014252)
(2997.8314 215.86824 52.059882)
(2948.5214 230.90163 49.257528)
(2896.7891 245.4627 45.737776)
(2843.0234 259.46983 41.579509)
(2787.3024 272.76572 37.104085)
(2730.1892 285.1535 32.08469)
(2671.6099 296.96476 26.925873)
(2612.0905 307.52515 21.943491)
(2551.8418 317.37026 16.826475)
(2491.1248 326.1188 11.912336)
(2430.2606 333.80914 7.3215174)
(2369.435 340.45338 3.0960465)
(2308.8983 346.00986 -0.66419142)
(2248.8659 350.48764 -3.913927)
(2189.5264 353.89844 -6.6065027)
(2131.0513 356.26694 -8.7236434)
(2073.5899 357.62583 -10.262543)
(2017.2666 358.02716 -11.237976)
(1962.1798 357.53236 -11.684117)
(1908.4039 356.21887 -11.648843)
(1855.9844 354.17668 -11.195615)
(1804.942 351.50797 -10.397033)
(1755.2689 348.32552 -9.3351237)
(1706.9344 344.74984 -8.0954167)
(1659.8797 340.90617 -6.7653412)
(1614.0301 336.92126 -5.4277584)
(1569.2849 332.91842 -4.1627639)
(1525.5359 329.01422 -3.0357296)
(1482.6596 325.31449 -2.1058276)
(1440.5221 321.90593 -1.4116522)
(1399.0049 318.87155 -0.9851453)
(1357.9706 316.22999 -0.81823955)
(1317.2822 314.06839 -0.95351754)
(1276.9162 312.29966 -1.2736736)
(1236.6565 311.02409 -1.8567332)
(1196.4925 310.07304 -2.568858)
(1156.4541 309.51466 -3.4221893)
(1116.3581 308.98438 -4.2478311)
(1076.2731 308.86568 -5.1837204)
(1036.2304 308.61596 -6.0096361)
(996.18974 308.29429 -6.7532362)
(956.21994 307.9385 -7.355831)
(916.35302 307.25659 -7.8655515)
(876.66925 306.10457 -8.1569358)
(837.23064 304.66315 -8.4008117)
(798.02038 302.62407 -8.4158705)
(759.21959 300.08141 -8.4438623)
(720.72972 296.9674 -8.4230124)
(682.73493 293.17081 -8.378638)
(645.17791 288.81413 -8.4418593)
(608.08067 283.7831 -8.6851867)
(571.6435 278.21153 -9.074476)
(535.54994 271.99619 -9.7713649)
(500.17853 265.22921 -10.811356)
(465.36337 257.94701 -12.061969)
(431.13175 250.07183 -13.866318)
(397.64803 241.73132 -15.811869)
(364.76568 232.86458 -18.310933)
(332.81296 223.48381 -21.01544)
(301.66603 213.52642 -24.022119)
(271.30623 203.19882 -27.237159)
(242.13494 192.34708 -30.733202)
(214.23778 180.79024 -34.10965)
(187.36034 169.06714 -37.645542)
(162.08619 156.54112 -40.93341)
(138.45189 143.51912 -44.030887)
(116.43249 130.26664 -46.691291)
(96.194444 116.47361 -48.795916)
(78.130926 102.30578 -50.136392)
(62.178647 87.508583 -50.155027)
(48.834241 72.424243 -48.894919)
(37.429574 58.851665 -45.773345)
(27.694803 42.321809 -37.612843)
(27.429037 28.131214 -23.353295)
(0 0 0)
(0 0 0)
(0 0 0)
(0 0 0)
(0 0 0)
(0 0 0)
(0 0 0)
(0 0 0)
(0 0 0)
(0 0 0)
(0 0 0)
(0 0 0)
(0 0 0)
(0 0 0)
(0 0 0)
(0 0 0)
(0 0 0)
(0 0 0)
(0 0 0)
(0 0 0)
(0 0 0)
(0 0 0)
(0 0 0)
(0 0 0)
(0 0 0)
(0 0 0)
(0 0 0)
(0 0 0)
(0 0 0)
(0 0 0)
(3453.928 -407.55328 -109.43105)
(3452.9212 -396.98854 -108.9992)
(3452.0335 -387.03749 -108.57286)
(3451.2649 -377.64602 -108.36756)
(3450.5993 -368.74736 -108.41284)
(3450.2099 -360.34254 -108.72075)
(3450.0817 -352.3632 -109.20502)
(3450.2533 -344.79962 -109.8041)
(3450.7221 -337.59622 -110.44728)
(3451.4509 -330.75669 -111.03112)
(3452.3428 -324.2399 -111.56229)
(3453.4971 -318.01394 -111.85257)
(3454.5882 -312.08694 -111.99244)
(3455.7085 -306.41714 -111.95805)
(3456.6507 -300.8835 -111.67094)
(3484.4342 -107.53318 -120.2009)
(3483.8166 -101.45409 -120.28117)
(3483.1098 -95.307352 -120.2917)
(3482.4368 -88.915661 -120.06119)
(3481.7453 -82.349139 -119.72177)
(3481.2809 -75.54081 -119.17589)
(3481.0756 -68.503294 -118.59387)
(3481.2069 -61.200253 -117.96956)
(3481.6906 -53.623218 -117.40934)
(3482.5594 -45.736635 -116.9989)
(3483.7593 -37.491025 -116.7436)
(3485.3372 -28.825462 -116.77825)
(3487.1747 -19.728984 -117.06534)
(3489.1933 -10.028475 -117.38648)
(3491.5741 0.094060404 -118.06206)
(12.326146 22.41135 31.360017)
(21.463182 35.970973 35.77085)
(30.367103 51.020642 43.331504)
(42.679793 64.853379 45.981076)
(55.415243 78.235813 48.670049)
(71.388919 91.596558 49.55618)
(88.667374 104.32845 50.144969)
(108.45437 117.09335 50.05155)
(129.55491 129.04832 49.91155)
(152.52857 140.76328 49.536063)
(176.96393 151.67934 49.006292)
(202.79575 162.22228 48.649847)
(229.88951 171.85602 48.091507)
(258.13323 181.05229 47.663405)
(287.52659 189.3891 47.098327)
(317.94612 197.24329 46.571172)
(349.36064 204.28769 45.857327)
(381.65898 210.86857 45.097779)
(414.94787 216.73826 44.095042)
(449.08376 222.18527 42.932988)
(484.09748 227.05802 41.54235)
(519.94164 231.49128 39.914896)
(556.58474 235.57152 38.058994)
(593.96933 239.22128 36.031609)
(632.072 242.59272 33.799288)
(670.79627 245.65906 31.49685)
(710.04648 248.50824 29.128774)
(749.74557 251.10416 26.811133)
(789.79104 253.49874 24.627908)
(830.04538 255.78812 22.643853)
(870.39065 257.83243 20.961477)
(910.74504 259.76993 19.682295)
(950.99476 261.55945 18.828523)
(991.0349 263.26308 18.466116)
(1030.8359 264.77854 18.663933)
(1070.3203 266.21773 19.349208)
(1109.501 267.54691 20.549006)
(1148.4195 268.76167 22.239107)
(1187.1157 269.93932 24.270941)
(1225.6755 270.95976 26.684108)
(1264.2492 271.99017 29.228744)
(1302.9571 272.97277 31.928352)
(1341.9616 273.86869 34.57116)
(1381.4422 274.77781 37.06801)
(1421.6037 275.66757 39.289994)
(1462.6079 276.55445 41.142849)
(1504.6301 277.45 42.541415)
(1547.8253 278.33833 43.404967)
(1592.3247 279.22005 43.700565)
(1638.2298 280.0697 43.398902)
(1685.6175 280.86226 42.503981)
(1734.5262 281.55636 41.038589)
(1784.9643 282.10488 39.04562)
(1836.9081 282.44513 36.582134)
(1890.3015 282.50871 33.719301)
(1945.0632 282.21673 30.530194)
(2001.0859 281.48185 27.094237)
(2058.2427 280.21346 23.486725)
(2116.3863 278.31565 19.773432)
(2175.3603 275.69741 16.01322)
(2234.9875 272.25931 12.256495)
(2295.0939 267.91794 8.5351633)
(2355.4755 262.60227 4.8625203)
(2415.9392 256.23706 1.2581078)
(2476.2798 248.75546 -2.2686666)
(2536.2995 240.16 -5.7568166)
(2595.6946 230.39496 -9.2457736)
(2654.3366 219.4756 -12.661357)
(2711.9486 207.40203 -16.156555)
(2768.209 194.21423 -19.547324)
(2823.0005 180.05499 -23.016427)
(2875.9753 164.93037 -26.47927)
(2926.9193 148.99408 -29.947172)
(2975.5996 132.33991 -33.433932)
(3021.8036 115.12772 -36.905748)
(3065.3214 97.495016 -40.342193)
(3106.0259 79.623481 -43.740366)
(3143.7658 61.673352 -47.080941)
(3178.5052 43.819092 -50.342816)
(3210.1867 26.237647 -53.53226)
(3238.8855 9.112416 -56.659989)
(3264.6593 -7.4175624 -59.760774)
(3287.7335 -23.146945 -62.758691)
(3308.3132 -38.110069 -65.820941)
(3326.6513 -51.919892 -68.953743)
(3342.9184 -64.689157 -72.215569)
(3357.6678 -76.256117 -75.646435)
(3371.235 -86.607993 -79.289956)
(3384.0541 -95.759254 -83.208029)
(3396.5868 -103.66676 -87.469006)
(3409.1033 -110.40394 -92.046464)
(3422.3694 -116.12638 -96.976724)
(3435.9744 -120.58493 -102.22637)
(3451.2951 -124.65819 -107.63359)
(3466.9427 -127.24625 -113.13366)
(5.3862809 20.068516 27.349219)
(13.513552 26.990489 32.813755)
(24.906748 42.549382 37.65194)
(35.889982 53.083197 41.169802)
(49.736497 65.723968 42.739127)
(65.181921 77.032787 43.716506)
(83.081059 88.781177 44.072846)
(102.46057 99.723337 44.196931)
(123.9246 110.43884 44.189786)
(146.9851 120.60548 43.797194)
(171.55056 130.29375 43.726054)
(197.51293 139.36452 43.286426)
(224.73453 147.90628 43.108692)
(253.21107 155.78785 42.716584)
(282.69763 163.08445 42.459289)
(313.29314 169.74854 41.964047)
(344.75206 175.86525 41.527577)
(377.2715 181.36047 40.843863)
(410.56976 186.35249 40.063183)
(444.83037 190.84781 39.041916)
(479.85739 194.86095 37.835276)
(515.74297 198.52684 36.38765)
(552.37784 201.77005 34.76296)
(589.77435 204.75874 32.919467)
(627.82878 207.42527 30.948832)
(666.50134 209.95157 28.863813)
(705.69664 212.19839 26.75829)
(745.34247 214.36338 24.695491)
(785.29785 216.36633 22.734726)
(825.47516 218.27832 20.978727)
(865.76675 220.06827 19.526569)
(906.04634 221.79186 18.396277)
(946.2233 223.43175 17.664957)
(986.19909 224.93549 17.421728)
(1025.9484 226.38377 17.585187)
(1065.3843 227.72099 18.303345)
(1104.5646 228.91751 19.428645)
(1143.4431 230.0168 20.971008)
(1182.106 230.9663 22.873915)
(1220.6357 231.79355 25.057748)
(1259.1763 232.47955 27.3639)
(1297.8188 233.06375 29.802165)
(1336.7717 233.49579 32.175912)
(1376.183 233.83629 34.371966)
(1416.2526 234.07061 36.337609)
(1457.1446 234.21754 37.957261)
(1499.0454 234.28709 39.149739)
(1542.1013 234.28304 39.858687)
(1586.4542 234.21536 40.049584)
(1632.2084 234.07217 39.698317)
(1679.4494 233.84733 38.814689)
(1728.2193 233.51574 37.419938)
(1778.5392 233.04757 35.555495)
(1830.3876 232.39834 33.277714)
(1883.721 231.51796 30.64918)
(1938.4618 230.34151 27.742307)
(1994.5112 228.79767 24.629006)
(2051.7435 226.81281 21.375715)
(2110.0221 224.29829 18.048559)
(2169.1827 221.17933 14.697347)
(2229.0601 217.365 11.369419)
(2289.4663 212.7809 8.0902699)
(2350.1997 207.37301 4.8676473)
(2411.0941 201.0373 1.7529186)
(2471.8554 193.78021 -1.3383685)
(2532.3682 185.58144 -4.3429357)
(2592.2395 176.26439 -7.2170886)
(2651.4659 166.09956 -10.2054)
(2709.6597 154.91014 -13.102913)
(2766.5056 142.90473 -16.055823)
(2821.8398 129.92097 -19.02244)
(2875.3592 116.24323 -22.059755)
(2926.8472 101.8783 -25.141575)
(2976.026 86.959129 -28.267937)
(3022.6954 71.61253 -31.415457)
(3066.6432 55.955434 -34.608331)
(3107.7166 40.154737 -37.818874)
(3145.7786 24.3216 -41.037083)
(3180.7697 8.6202105 -44.265084)
(3212.6459 -6.8022749 -47.515175)
(3241.4611 -21.85159 -50.760561)
(3267.3242 -36.355605 -54.064373)
(3290.3206 -50.167638 -57.401378)
(3310.7976 -63.160939 -60.702508)
(3328.7139 -75.58143 -64.123813)
(3344.8697 -86.878257 -67.852085)
(3359.3296 -97.207975 -71.741556)
(3372.6049 -106.55688 -75.867638)
(3385.0409 -114.85766 -80.27545)
(3397.2046 -122.15215 -84.932875)
(3409.247 -128.41264 -89.922113)
(3422.1454 -133.80443 -95.08565)
(3435.2073 -138.01408 -100.59746)
(3450.3112 -141.89991 -105.98529)
(3465.4271 -144.31235 -111.61935)
(1.4638631 15.634738 23.990415)
(9.4998877 22.277804 28.008282)
(18.084599 33.813041 33.373201)
(30.157289 43.645269 35.70328)
(43.631788 53.944877 36.956748)
(59.84842 64.339307 37.643351)
(77.371325 74.040141 38.113467)
(97.332197 83.679324 38.31208)
(118.81691 92.677261 38.125085)
(142.0111 101.58038 38.258821)
(166.70686 109.63657 38.019982)
(192.81431 117.52752 38.047498)
(220.22762 124.60641 37.837984)
(248.73517 131.34924 37.844258)
(278.43643 137.37227 37.567669)
(309.06168 142.98539 37.452411)
(340.76282 147.93322 37.036953)
(373.25103 152.47063 36.630402)
(406.73186 156.45703 35.949802)
(440.98906 160.0369 35.140436)
(476.10102 163.20115 34.090542)
(511.99964 166.0052 32.85449)
(548.65136 168.51005 31.38857)
(586.00616 170.74808 29.770743)
(624.03096 172.78313 27.990782)
(662.64668 174.63421 26.12716)
(701.77542 176.35507 24.241868)
(741.31622 177.99091 22.370531)
(781.19329 179.51984 20.629566)
(821.28638 181.0127 19.076428)
(861.47359 182.42087 17.768131)
(901.67786 183.81286 16.772026)
(941.77422 185.10024 16.177057)
(981.71005 186.35764 15.962932)
(1021.4059 187.49909 16.202024)
(1060.8072 188.54897 16.861345)
(1099.9165 189.47228 17.904675)
(1138.7604 190.25908 19.353643)
(1177.4178 190.9025 21.08446)
(1215.9342 191.36014 23.04573)
(1254.4378 191.65903 25.17694)
(1293.0756 191.77553 27.354463)
(1331.9753 191.69457 29.46995)
(1371.353 191.47273 31.419312)
(1411.35 191.08844 33.150429)
(1452.1703 190.5592 34.545992)
(1493.9712 189.89978 35.554771)
(1536.9222 189.12674 36.117361)
(1581.1519 188.24963 36.207202)
(1626.7813 187.27282 35.806499)
(1673.8901 186.19822 34.929456)
(1722.5356 185.01382 33.594868)
(1772.7379 183.70196 31.849625)
(1824.4888 182.23389 29.742268)
(1877.7471 180.57016 27.337783)
(1932.4457 178.6607 24.702905)
(1988.4873 176.44942 21.90279)
(2045.7584 173.87189 19.00461)
(2104.1161 170.85496 16.065034)
(2163.4091 167.33421 13.132981)
(2223.4642 163.22842 10.249399)
(2284.0953 158.48567 7.4313822)
(2345.1133 153.02441 4.7125777)
(2406.3122 146.81707 2.0784045)
(2467.4083 139.79524 -0.49258526)
(2528.391 132.00178 -2.9281553)
(2588.6565 123.23659 -5.4296306)
(2648.1395 113.65863 -7.9231522)
(2706.782 103.37855 -10.264883)
(2764.0529 92.280802 -12.734713)
(2819.8223 80.573469 -15.205425)
(2873.769 68.234802 -17.775187)
(2925.6294 55.3864 -20.373375)
(2975.2014 42.105496 -23.040625)
(3022.2403 28.481939 -25.834283)
(3066.5021 14.677614 -28.682452)
(3107.8812 0.76438644 -31.636149)
(3146.2006 -13.097326 -34.668356)
(3181.4131 -26.820692 -37.803688)
(3213.4882 -40.273256 -41.019029)
(3242.443 -53.370501 -44.347038)
(3268.3805 -65.961456 -47.802538)
(3291.5161 -78.022262 -51.396906)
(3311.8273 -89.310184 -55.075444)
(3329.8962 -100.03769 -59.145064)
(3345.9902 -110.03581 -63.276935)
(3360.3411 -119.19627 -67.672616)
(3373.4174 -127.46848 -72.314079)
(3385.6503 -134.91664 -77.211227)
(3397.524 -141.48382 -82.384963)
(3409.2963 -147.20867 -87.78472)
(3421.8377 -152.14775 -93.399243)
(3434.5541 -156.07216 -99.131468)
(3449.3546 -159.7598 -104.78912)
(3464.1139 -162.09205 -110.40169)
(-0.7101519 13.974709 19.995444)
(5.0164818 17.713157 24.346263)
(13.998244 27.326404 27.647033)
(25.363149 34.714327 29.82056)
(39.252504 43.656552 30.768674)
(54.824481 51.895419 31.653596)
(72.936146 60.284626 32.065558)
(92.702875 68.146023 32.088852)
(114.32801 75.92299 32.485441)
(137.62961 83.062446 32.397058)
(162.45249 89.951886 32.665814)
(188.67799 96.264628 32.623391)
(216.11637 102.1789 32.873736)
(244.85289 107.54376 32.824751)
(274.53372 112.44461 32.977668)
(305.38341 116.82773 32.852818)
(337.01605 120.74379 32.763029)
(369.71425 124.20863 32.439767)
(403.15256 127.21663 31.991983)
(437.50312 129.87213 31.338115)
(472.60038 132.13437 30.482313)
(508.50649 134.14165 29.412273)
(545.10447 135.84191 28.159896)
(582.43685 137.39062 26.728327)
(620.3812 138.71234 25.161016)
(658.91274 139.97061 23.521191)
(697.93138 141.09268 21.831094)
(737.38235 142.19268 20.192512)
(777.13418 143.21941 18.656458)
(817.09538 144.25064 17.284894)
(857.18025 145.23994 16.152298)
(897.2566 146.21347 15.328248)
(937.26368 147.1386 14.830788)
(977.09197 148.01798 14.712785)
(1016.7013 148.81506 14.977286)
(1056.0299 149.50791 15.633336)
(1095.1336 150.08384 16.64628)
(1134.0075 150.48414 18.007109)
(1172.6215 150.67886 19.604558)
(1211.1157 150.73084 21.449819)
(1249.6196 150.55039 23.358684)
(1288.2182 150.17371 25.315874)
(1327.1204 149.5824 27.206238)
(1366.4701 148.7884 28.946775)
(1406.4418 147.79929 30.45068)
(1447.2133 146.63078 31.64641)
(1488.9592 145.30416 32.474342)
(1531.8344 143.83543 32.892714)
(1575.9805 142.24246 32.875395)
(1621.5136 140.53754 32.417086)
(1668.5224 138.72922 31.528073)
(1717.0658 136.81505 30.23629)
(1767.1728 134.78978 28.582892)
(1818.8393 132.63126 26.62011)
(1872.0324 130.31417 24.409061)
(1926.6887 127.79891 22.011906)
(1982.7211 125.0401 19.493736)
(2040.0148 121.98509 16.914089)
(2098.4362 118.57155 14.32844)
(2157.8341 114.7456 11.780162)
(2218.034 110.44012 9.3019163)
(2278.8556 105.59829 6.9244933)
(2340.1081 100.16832 4.6519192)
(2401.5329 94.116895 2.4704791)
(2463.0311 87.377198 0.42763245)
(2524.158 79.995866 -1.6009007)
(2584.8974 71.866683 -3.5035138)
(2644.9081 63.201851 -5.3706916)
(2703.8805 53.789023 -7.294375)
(2761.5271 43.726454 -9.2453082)
(2817.6492 33.11964 -11.255874)
(2871.9366 22.025384 -13.328981)
(2924.2186 10.47405 -15.463485)
(2974.203 -1.4630403 -17.811803)
(3021.4815 -13.566681 -20.224413)
(3066.0535 -25.819309 -22.844788)
(3107.654 -38.103123 -25.588794)
(3146.1966 -50.32567 -28.512241)
(3181.5899 -62.381884 -31.583338)
(3213.8014 -74.190385 -34.840801)
(3242.8698 -85.649793 -38.283648)
(3268.9139 -96.658341 -41.916596)
(3291.9971 -107.22834 -45.759774)
(3312.4842 -117.12068 -49.831296)
(3330.5568 -126.43003 -54.088028)
(3346.5385 -135.09453 -58.66288)
(3360.7383 -143.08106 -63.493534)
(3373.6915 -150.33762 -68.613169)
(3385.7112 -156.90631 -73.993057)
(3397.3902 -162.71235 -79.61796)
(3408.8311 -167.79915 -85.477498)
(3421.15 -172.20972 -91.445257)
(3433.4313 -175.74424 -97.552104)
(3448.179 -179.12331 -103.52064)
(3462.732 -181.34797 -109.56475)
(-3.0378223 10.536612 16.476058)
(2.2738234 13.622961 18.952041)
(10.091982 20.912596 22.360322)
(21.251228 27.276963 24.134565)
(34.554519 33.883228 25.092738)
(50.7774 40.82453 25.671767)
(68.693059 47.336506 25.801246)
(88.676352 53.897522 26.394454)
(110.4394 59.781614 26.383811)
(133.88349 65.738769 26.833322)
(158.79899 70.925764 26.95066)
(185.08003 76.015336 27.427475)
(212.75065 80.445524 27.54442)
(241.42383 84.597117 28.012037)
(271.35423 88.186261 28.091442)
(302.11924 91.423006 28.368551)
(333.98098 94.185155 28.318207)
(366.60971 96.568403 28.27312)
(400.1675 98.570427 27.948502)
(434.48976 100.24605 27.50808)
(469.62734 101.61571 26.79786)
(505.48598 102.74515 25.939387)
(542.08774 103.66099 24.846346)
(579.33848 104.42703 23.608645)
(617.21655 105.05511 22.23514)
(655.64802 105.63689 20.766782)
(694.57926 106.13434 19.27757)
(733.8928 106.64918 17.818824)
(773.52411 107.12392 16.452821)
(813.37953 107.63981 15.243464)
(853.32778 108.12003 14.264207)
(893.31013 108.62581 13.545294)
(933.20321 109.08769 13.138584)
(972.94793 109.5226 13.080912)
(1012.4874 109.86955 13.368791)
(1051.7735 110.1156 14.014732)
(1090.8307 110.27949 14.954007)
(1129.5701 110.21271 16.226759)
(1168.1135 110.02516 17.711196)
(1206.6215 109.57096 19.353106)
(1245.0936 108.89524 21.095324)
(1283.7195 107.99841 22.862104)
(1322.6024 106.85045 24.541882)
(1361.93 105.48321 26.071165)
(1401.8676 103.89027 27.378791)
(1442.5976 102.10224 28.393832)
(1484.2836 100.13031 29.071659)
(1527.0865 98.003932 29.371046)
(1571.1468 95.741178 29.276822)
(1616.583 93.364845 28.783231)
(1663.4879 90.886307 27.90866)
(1711.925 88.317054 26.677954)
(1761.9287 85.654614 25.137088)
(1813.5013 82.890393 23.335107)
(1866.6148 80.007279 21.331902)
(1921.215 76.975045 19.188061)
(1977.2155 73.760121 16.964332)
(2034.5114 70.316348 14.719226)
(2092.9696 66.597081 12.50138)
(2152.4436 62.550314 10.352511)
(2212.7538 58.123777 8.303944)