/*--------------------------------*- C++ -*----------------------------------*\
  =========                 |
  \\      /  F ield         | OpenFOAM: The Open Source CFD Toolbox
   \\    /   O peration     | Website:  https://openfoam.org
    \\  /    A nd           | Version:  6
     \\/     M anipulation  |
\*---------------------------------------------------------------------------*/
FoamFile
{
    version     2.0;
    format      ascii;
    class       pointVectorField;
    location    "1.05";
    object      u;
}
// * * * * * * * * * * * * * * * * * * * * * * * * * * * * * * * * * * * * * //

dimensions      [0 1 0 0 0 0 0];

internalField   nonuniform List<vector> 
28033
(
(0 4.6440525e-19 0)
(0 3.1801084e-18 0)
(-0.96925907 -0.2210667 0.0071602447)
(-1.0012131 0.029942773 0.0067281471)
(0 2.8720228e-18 0)
(0 4.677678e-18 0)
(-1.0006248 0.028817296 0.0068374493)
(-0.9686156 -0.22215577 0.0070454511)
(0 1.0055731e-18 0)
(0 2.9037852e-19 0)
(0 2.3195943e-18 0)
(0 -1.1012392e-18 0)
(0 1.4834414e-18 0)
(0 -8.7912989e-19 0)
(0 -2.1242973e-20 0)
(-7.0858569e-19 -2.3115265e-19 0)
(0 4.3475531e-19 0)
(0 2.1635403e-19 0)
(0 -8.3263406e-19 0)
(0 8.0615893e-19 0)
(0 9.6402542e-19 0)
(0 -7.7320606e-19 0)
(0 9.8304709e-19 0)
(-0.97128807 -0.20526008 0.0071802663)
(-0.97327316 -0.18946342 0.0072044865)
(-0.9752416 -0.17369814 0.0071984612)
(-0.97718802 -0.1579739 0.0071795785)
(-0.97912817 -0.14229406 0.0071361421)
(-0.98107141 -0.12664549 0.0070766051)
(-0.98301294 -0.11103342 0.0070078487)
(-0.98497856 -0.09543608 0.0069316925)
(-0.98695599 -0.079847477 0.0068561318)
(-0.98895443 -0.064249366 0.0067860982)
(-0.99097844 -0.048633529 0.0067316575)
(-0.99301503 -0.032985447 0.0066997193)
(-0.99507172 -0.017305738 0.0066759793)
(-0.99713395 -0.0015824074 0.0066801768)
(-0.99918732 0.014176158 0.0067006527)
(-0.0012190613 -0.0025469968 -0.002821869)
(-0.00091944517 -0.0039060561 -0.0042269683)
(-0.00090323645 -0.0054040316 -0.0052536777)
(-0.001176436 -0.0071261109 -0.0060003853)
(-0.0017089585 -0.0088086981 -0.0065226084)
(-0.0025509497 -0.010708758 -0.0069104009)
(-0.003734177 -0.012576113 -0.0071892477)
(-0.0052035531 -0.014559655 -0.007369901)
(-0.007011725 -0.016530472 -0.0075040867)
(-0.0091053242 -0.018582055 -0.0075739253)
(-0.01152486 -0.020608121 -0.0076031394)
(-0.014221264 -0.022699007 -0.0075898064)
(-0.017228171 -0.024759551 -0.0075687083)
(-0.02050658 -0.026866521 -0.0075045328)
(-0.024078485 -0.028950745 -0.0074301126)
(-0.027905781 -0.031062037 -0.0073385244)
(-0.032013186 -0.033159066 -0.0072431798)
(-0.036369336 -0.035272952 -0.0071404573)
(-0.040991149 -0.037386325 -0.0070214358)
(-0.045846588 -0.039507869 -0.0069141342)
(-0.050955895 -0.041636655 -0.0068051115)
(-0.056301184 -0.043779666 -0.0066900205)
(-0.061886567 -0.045921684 -0.0065906019)
(-0.067712042 -0.048101802 -0.0064842974)
(-0.073773459 -0.050274077 -0.0063811063)
(-0.080076043 -0.052485846 -0.0062805101)
(-0.086620757 -0.054693011 -0.0061866703)
(-0.093410652 -0.056950631 -0.0060784818)
(-0.10044925 -0.059197458 -0.0059715751)
(-0.10773741 -0.061481409 -0.0058632311)
(-0.11528004 -0.063783666 -0.0057348009)
(-0.12307257 -0.066093752 -0.0056017113)
(-0.13111735 -0.068425275 -0.0054599816)
(-0.13942281 -0.070755547 -0.0053065713)
(-0.14797228 -0.073110171 -0.0051305179)
(-0.15676895 -0.075457557 -0.0049502604)
(-0.16579677 -0.077814375 -0.0047645245)
(-0.1750632 -0.080169567 -0.0045646698)
(-0.18454706 -0.082519768 -0.0043561287)
(-0.19424237 -0.084872942 -0.0041523249)
(-0.20414172 -0.087215146 -0.0039437511)
(-0.21423159 -0.089560985 -0.0037417897)
(-0.22450654 -0.091900275 -0.0035425788)
(-0.23495701 -0.094240489 -0.0033539175)
(-0.24557503 -0.096581585 -0.003173427)
(-0.25635665 -0.098928165 -0.0030042884)
(-0.26729685 -0.10128213 -0.0028451752)
(-0.27839505 -0.10364957 -0.0026959032)
(-0.28965072 -0.10603146 -0.0025541809)
(-0.30106555 -0.10843427 -0.0024180827)
(-0.31264302 -0.11085873 -0.0022841742)
(-0.32438668 -0.11330991 -0.0021492616)
(-0.33630205 -0.11578723 -0.002009531)
(-0.34839313 -0.11829461 -0.0018616653)
(-0.36066547 -0.12082911 -0.0017022482)
(-0.37312191 -0.12339291 -0.0015286274)
(-0.38576579 -0.12598145 -0.0013390983)
(-0.39859738 -0.1285942 -0.001132356)
(-0.41161642 -0.13122595 -0.00090856001)
(-0.4248195 -0.13387398 -0.00066877997)
(-0.43820255 -0.13653212 -0.00041493017)
(-0.45175849 -0.13919729 -0.00014966292)
(-0.4654787 -0.14186341 0.00012286782)
(-0.4793572 -0.14452652 0.00040078418)
(-0.49337666 -0.14718195 0.00067482918)
(-0.50753592 -0.14982862 0.00094983621)
(-0.52181628 -0.15245574 0.0012108173)
(-0.53621349 -0.15507014 0.0014639445)
(-0.55071421 -0.15766893 0.0017085539)
(-0.56531686 -0.16024949 0.0019337331)
(-0.58000828 -0.16281257 0.0021450249)
(-0.59478963 -0.16535973 0.0023439335)
(-0.6096541 -0.16789279 0.0025314285)
(-0.62460313 -0.17041245 0.0027099774)
(-0.63963361 -0.17292032 0.002882156)
(-0.65474832 -0.17541776 0.003053071)
(-0.6699456 -0.17790453 0.003224294)
(-0.68522878 -0.18038324 0.0034016847)
(-0.70059504 -0.18285097 0.0035859528)
(-0.71604763 -0.18530821 0.0037812146)
(-0.73158228 -0.18775316 0.0039895187)
(-0.74719632 -0.19018152 0.0042082338)
(-0.7628864 -0.19259182 0.0044406242)
(-0.77864192 -0.19497937 0.0046830114)
(-0.79445952 -0.19734625 0.004932866)
(-0.81032916 -0.1996767 0.0051885875)
(-0.82623767 -0.20197754 0.0054429966)
(-0.84217026 -0.20424082 0.0056945141)
(-0.85812186 -0.20646265 0.0059353185)
(-0.87406425 -0.20865031 0.0061653657)
(-0.89000855 -0.21078794 0.0063732123)
(-0.90591153 -0.2128995 0.0065671112)
(-0.92180375 -0.2149628 0.0067307821)
(-0.93763721 -0.21701287 0.0068833146)
(-0.95345441 -0.21903771 0.0070130209)
(-0.00080369719 0.0027207578 0.0035458592)
(-0.0013722801 0.004031047 0.0040313268)
(-0.0014982787 0.0058236602 0.005424752)
(-0.0017949402 0.0073889398 0.0059826953)
(-0.0026040143 0.0093414912 0.0065307717)
(-0.0035664362 0.011306984 0.0068996824)
(-0.0049095924 0.013287528 0.007154268)
(-0.0065383139 0.015364859 0.0073379182)
(-0.0085412751 0.017467405 0.0074462265)
(-0.010802878 0.019555426 0.007527208)
(-0.013429041 0.021695734 0.0075556484)
(-0.016327752 0.023794647 0.00757555)
(-0.019558057 0.025913234 0.0075592766)
(-0.023069972 0.028003099 0.0075539459)
(-0.026878295 0.030074222 0.0075210844)
(-0.030971066 0.032124116 0.0075065747)
(-0.035335086 0.034140662 0.0074807398)
(-0.03998037 0.036126113 0.0074625228)
(-0.044884254 0.038091703 0.0074612693)
(-0.050041906 0.03999778 0.0074625217)
(-0.05547265 0.04189851 0.0074722508)
(-0.061143518 0.043745064 0.0075024177)
(-0.067074992 0.045566159 0.0075323968)
(-0.073258643 0.047349124 0.0075743941)
(-0.079696823 0.049103064 0.0076267001)
(-0.086380289 0.050804448 0.0076727173)
(-0.093338844 0.052492269 0.0077312493)
(-0.10053755 0.054113897 0.007773702)
(-0.10801772 0.055719455 0.0078227432)
(-0.11574408 0.057257894 0.0078495287)
(-0.12375311 0.05876843 0.0078739462)
(-0.13201101 0.060216152 0.0078832298)
(-0.14054072 0.061612526 0.0078779656)
(-0.1493293 0.062954043 0.0078585793)
(-0.15836879 0.064228727 0.0078252081)
(-0.16766064 0.065444811 0.0077840584)
(-0.17718346 0.066583097 0.0077232385)
(-0.18695244 0.067670585 0.0076635478)
(-0.19692667 0.068674024 0.0075981994)
(-0.20712599 0.069618432 0.0075329235)
(-0.21751622 0.070490486 0.0074730429)
(-0.228105 0.071298791 0.0074204092)
(-0.23886932 0.072042279 0.0073807538)
(-0.249813 0.072726054 0.0073546433)
(-0.26092 0.073351721 0.0073466436)
(-0.27219316 0.073923291 0.0073558702)
(-0.28362438 0.074443792 0.0073844614)
(-0.29521628 0.074915276 0.0074303184)
(-0.30696718 0.075340545 0.0074928801)
(-0.31888121 0.075720409 0.0075687421)
(-0.33096025 0.07605541 0.0076552777)
(-0.34320969 0.076345155 0.0077481307)
(-0.35563311 0.076588214 0.0078435214)
(-0.36823523 0.076782196 0.0079368823)
(-0.38101954 0.076924251 0.0080242103)
(-0.39398877 0.077010859 0.0081016392)
(-0.40714364 0.077037831 0.0081659814)
(-0.42048436 0.07700158 0.0082145977)
(-0.43400794 0.076897896 0.0082459272)
(-0.44771052 0.076723461 0.0082590648)
(-0.46158599 0.076475397 0.0082542192)
(-0.47562684 0.076151675 0.0082323401)
(-0.48982352 0.075750936 0.0081954283)
(-0.50416689 0.075273375 0.0081456175)
(-0.5186451 0.074719464 0.0080864898)
(-0.53324851 0.074091142 0.0080205234)
(-0.5479654 0.073391096 0.0079522601)
(-0.56278703 0.072622556 0.0078831917)
(-0.57770216 0.071787067 0.0078194236)
(-0.59270314 0.070889203 0.0077574642)
(-0.60778762 0.069938865 0.0077058899)
(-0.62294422 0.068927496 0.0076609829)
(-0.63817621 0.067869231 0.0076247)
(-0.65347637 0.066758569 0.0075958239)
(-0.66884575 0.065600951 0.007573838)
(-0.68428351 0.064395694 0.0075558369)
(-0.69978881 0.063142254 0.0075406017)
(-0.71536329 0.061841026 0.0075242457)
(-0.73100314 0.060489282 0.0075057836)
(-0.7467105 0.059086766 0.0074817149)
(-0.76247926 0.057629991 0.0074510612)
(-0.77830782 0.056118634 0.0074114769)
(-0.794189 0.054550174 0.0073632574)
(-0.81011677 0.052924672 0.0073056994)
(-0.82608126 0.051241143 0.0072404534)
(-0.84207395 0.049501389 0.0071685959)
(-0.85808231 0.04770647 0.007093201)
(-0.87409604 0.04586023 0.0070167324)
(-0.89010206 0.043966179 0.0069432561)
(-0.90608951 0.042030366 0.0068759673)
(-0.92204707 0.040058693 0.0068186825)
(-0.93796605 0.038058703 0.0067746242)
(-0.95384004 0.036038652 0.0067452486)
(-0.969668 0.03400912 0.006730724)
(-0.98545666 0.031972779 0.0067283695)
(0 -1.2636172e-18 0)
(0 -9.2269044e-19 0)
(0 8.6426735e-19 0)
(0 -5.461241e-19 0)
(0 -4.7026511e-19 0)
(0 2.6279692e-18 0)
(0 -7.8020638e-19 0)
(-1.8165655e-18 5.0777606e-19 0)
(0 -4.6408836e-19 0)
(0 1.1306149e-18 0)
(0 1.351257e-18 0)
(0 4.7263093e-19 0)
(0 2.5016916e-19 0)
(0 -5.0954699e-19 0)
(0 3.4636282e-19 0)
(-0.0016358753 0.0011601434 -0.0025468986)
(-0.0016089753 0.0046714534 -0.0042025654)
(-0.0013369424 0.0051191794 -0.0050574328)
(-0.0019538987 0.0077435383 -0.0060785999)
(-0.0024334107 0.0091607398 -0.0065359233)
(-0.003550132 0.011308336 -0.0069345073)
(-0.0047592692 0.013185216 -0.0071826051)
(-0.0064854747 0.015324329 -0.0074097944)
(-0.0083712912 0.017304098 -0.0074969547)
(-0.010697022 0.019464264 -0.0075951557)
(-0.013290394 0.021516396 -0.0076281369)
(-0.016145873 0.023576504 -0.0076392312)
(-0.019405729 0.025691942 -0.0076079344)
(-0.022850016 0.027688397 -0.0075817359)
(-0.026706198 0.029773482 -0.0075015318)
(-0.030744894 0.031720346 -0.0074491165)
(-0.035114009 0.033715317 -0.007359061)
(-0.039756545 0.035648141 -0.0072706452)
(-0.044643131 0.037544262 -0.0071755865)
(-0.049830835 0.039438197 -0.0070799953)
(-0.055237486 0.041262133 -0.0069874712)
(-0.060903662 0.043068384 -0.0068950652)
(-0.06686042 0.044869225 -0.0067997196)
(-0.073026987 0.046595081 -0.0067049656)
(-0.079490894 0.048341247 -0.0066176056)
(-0.086168868 0.050002488 -0.0065226133)
(-0.093118537 0.051660372 -0.0064328561)
(-0.10033745 0.053280923 -0.0063324307)
(-0.10779387 0.054849581 -0.006236019)
(-0.11553595 0.056396022 -0.0061228909)
(-0.12353957 0.057896003 -0.00601171)
(-0.13178412 0.059322704 -0.0058828701)
(-0.14031244 0.060724336 -0.0057464882)
(-0.14907737 0.062041767 -0.0055985156)
(-0.15811803 0.063322739 -0.0054368595)
(-0.16736298 0.064496662 -0.0052725034)
(-0.17689344 0.065657345 -0.0050898292)
(-0.18662804 0.066703222 -0.004905412)
(-0.19658973 0.067698112 -0.0047141471)
(-0.2067599 0.068611475 -0.0045181759)
(-0.21713354 0.06946157 -0.004325158)
(-0.22769569 0.070236966 -0.0041313053)
(-0.23844353 0.070951193 -0.0039446649)
(-0.24936478 0.071598692 -0.0037615402)
(-0.26045764 0.072190971 -0.0035891262)
(-0.27171414 0.072724509 -0.0034219176)
(-0.28313531 0.073209741 -0.0032655139)
(-0.29471759 0.073644148 -0.0031141767)
(-0.30646379 0.074035124 -0.0029705746)
(-0.31837517 0.074381136 -0.0028288702)
(-0.33045574 0.07468579 -0.0026895551)
(-0.34270894 0.074947348 -0.0025473888)
(-0.35513939 0.075166171 -0.0024007936)
(-0.36775089 0.075339887 -0.0022462022)
(-0.38054625 0.075465742 -0.0020812919)
(-0.39352818 0.075541306 -0.001904164)
(-0.40669642 0.075561647 -0.0017130081)
(-0.42005048 0.075524207 -0.0015079637)
(-0.43358683 0.075423895 -0.0012883684)
(-0.44730091 0.075258098 -0.0010561636)
(-0.46118581 0.075022922 -0.00081241252)
(-0.47523347 0.074716474 -0.00056021423)
(-0.48943423 0.074336698 -0.00030204203)
(-0.5037778 0.073883043 -4.1705574e-05)
(-0.51825305 0.073355318 0.00021780611)
(-0.53284959 0.07275514 0.00047323618)
(-0.54755565 0.07208157 0.00072087177)
(-0.56236748 0.071346425 0.000960622)
(-0.57725981 0.070529504 0.001183904)
(-0.59224654 0.069668837 0.0014018557)
(-0.60731201 0.068733285 0.0016034781)
(-0.62244869 0.06774573 0.0017947575)
(-0.63766074 0.066701087 0.0019777324)
(-0.65294278 0.065604078 0.0021530617)
(-0.66829579 0.064454506 0.0023251054)
(-0.68371932 0.063253724 0.0024970123)
(-0.69921432 0.062001863 0.0026718511)
(-0.71478012 0.060698414 0.0028532773)
(-0.73041666 0.059342578 0.0030437505)
(-0.74612172 0.057933384 0.0032458057)
(-0.76189275 0.056469783 0.003460231)
(-0.7777245 0.054950424 0.0036881761)
(-0.7936117 0.053375229 0.0039282122)
(-0.80954525 0.051743158 0.0041794896)
(-0.82551696 0.050055678 0.0044388842)
(-0.84151517 0.048313038 0.0047035336)
(-0.85752878 0.046518358 0.0049690815)
(-0.87354534 0.044674023 0.0052314657)
(-0.88955233 0.042784561 0.0054861032)
(-0.90553837 0.040855045 0.0057284427)
(-0.92149166 0.038890953 0.0059551927)
(-0.93740463 0.036900268 0.0061627911)
(-0.95327 0.034889039 0.0063507528)
(-0.96908841 0.032866688 0.0065200016)
(-0.98486335 0.030840455 0.006675952)
(-0.99860056 0.013051648 0.0068974819)
(-0.99655079 -0.0027025777 0.0069581645)
(-0.99448417 -0.01843024 0.006998915)
(-0.99242995 -0.034102804 0.007018228)
(-0.99038589 -0.049755293 0.0070193483)
(-0.9883554 -0.065362244 0.0070056438)
(-0.9863535 -0.080962403 0.0069770892)
(-0.98436269 -0.096553216 0.0069425467)
(-0.98239551 -0.11214783 0.0069152178)
(-0.98043674 -0.12776047 0.0068832893)
(-0.97850037 -0.14340151 0.006871)
(-0.97653748 -0.15908587 0.0068665827)
(-0.97460684 -0.17479802 0.0068937701)
(-0.97261767 -0.1905716 0.0069266098)
(-0.97064267 -0.2063587 0.006990902)
(-0.95282332 -0.22012866 0.0070281579)
(-0.93700542 -0.21810935 0.0069955324)
(-0.92116625 -0.21607338 0.0069823836)
(-0.90528503 -0.21401077 0.0069779109)
(-0.88937537 -0.21191683 0.0069953757)
(-0.87344459 -0.20978401 0.0070228338)
(-0.85750318 -0.20761203 0.0070654286)
(-0.84156572 -0.20539905 0.0071147018)
(-0.8256425 -0.20314575 0.0071699862)
(-0.80974838 -0.20085471 0.0072270895)
(-0.79389236 -0.19852771 0.0072831731)
(-0.7780883 -0.19616853 0.0073347827)
(-0.76234111 -0.19378131 0.0073822227)
(-0.7466582 -0.19136889 0.0074247714)
(-0.73104975 -0.18893547 0.0074597676)
(-0.71551842 -0.18648609 0.007487295)
(-0.70006773 -0.18402285 0.0075079202)
(-0.68469817 -0.1815481 0.0075244095)
(-0.66941076 -0.17906499 0.0075381623)
(-0.65420534 -0.176573 0.0075511249)
(-0.63908114 -0.17407477 0.0075662268)
(-0.62403841 -0.17156811 0.0075850001)
(-0.60907668 -0.169055 0.0076096295)
(-0.59419836 -0.16653065 0.0076408406)
(-0.57940364 -0.16399929 0.0076810807)
(-0.56469808 -0.16145596 0.0077269373)
(-0.55008385 -0.1588943 0.0077834991)
(-0.53559428 -0.15632263 0.0078343481)
(-0.521182 -0.15374195 0.007899334)
(-0.50690477 -0.15114272 0.0079596665)
(-0.49275262 -0.14853388 0.0080193497)
(-0.4787408 -0.14591416 0.0080703332)
(-0.46487759 -0.14328601 0.0081123796)
(-0.45117441 -0.14065266 0.0081409878)
(-0.4376394 -0.13801746 0.0081538628)
(-0.42428053 -0.13538442 0.0081491434)
(-0.41110395 -0.13275705 0.0081252708)
(-0.3981137 -0.13013979 0.0080825455)
(-0.38531224 -0.12753551 0.0080212281)
(-0.37269962 -0.1249483 0.0079438091)
(-0.36027458 -0.12237973 0.0078523573)
(-0.34803364 -0.11983292 0.0077514042)
(-0.33597294 -0.11730762 0.007644111)
(-0.32408681 -0.11480579 0.0075363631)
(-0.31237048 -0.11232507 0.0074315516)
(-0.30081796 -0.10986649 0.0073358334)
(-0.28942558 -0.10742563 0.0072517647)
(-0.27818887 -0.10500313 0.0071847351)
(-0.26710707 -0.10259293 0.0071356457)
(-0.25617834 -0.10019604 0.0071081856)
(-0.24540643 -0.097805077 0.007100997)
(-0.23479212 -0.095423367 0.0071161171)
(-0.22434471 -0.093040375 0.0071486704)
(-0.2140666 -0.090665538 0.0072012355)
(-0.20397158 -0.088284371 0.0072630313)
(-0.19406646 -0.08590971 0.0073390061)
(-0.18435769 -0.083536344 0.0074168291)
(-0.17485775 -0.081155129 0.0074954446)
(-0.1656162 -0.078771375 0.0075631012)
(-0.15655125 -0.076418399 0.00763977)
(-0.14774068 -0.074048021 0.0076909872)
(-0.13923052 -0.07167555 0.0077225519)
(-0.13090198 -0.069351091 0.0077497428)
(-0.12286698 -0.067009381 0.0077564982)
(-0.11506586 -0.064688155 0.0077448669)
(-0.10757405 -0.062367691 0.0077190702)
(-0.10027137 -0.060101342 0.0076703298)
(-0.093299659 -0.057797957 0.007616924)
(-0.086514365 -0.055567728 0.0075700051)
(-0.080009581 -0.053313931 0.0075035378)
(-0.073738309 -0.051091964 0.0074485942)
(-0.06769735 -0.04887756 0.0073949076)
(-0.061939764 -0.046659026 0.0073393949)
(-0.056359884 -0.044487364 0.0073172524)
(-0.051037987 -0.042296004 0.0072950414)
(-0.045975579 -0.040110781 0.0072829604)
(-0.041105873 -0.037952035 0.0072993868)
(-0.036528888 -0.035772043 0.0073133272)
(-0.032148323 -0.033624572 0.0073513059)
(-0.028060364 -0.031456196 0.0073900136)
(-0.024238947 -0.029283114 0.0074293753)
(-0.020633278 -0.027174495 0.0074852445)
(-0.017331448 -0.025026079 0.0075182296)
(-0.014339552 -0.022889571 0.0075387888)
(-0.011596185 -0.020802173 0.0075459479)
(-0.0091550091 -0.018727416 0.0075214163)
(-0.0070655961 -0.016623 0.007448048)
(-0.0052405393 -0.014658151 0.0073374048)
(-0.0037425435 -0.012654142 0.007147569)
(-0.0025652267 -0.010757949 0.006881202)
(-0.0017219348 -0.0088336051 0.0064604791)
(-0.001265099 -0.0070413549 0.0059009815)
(-0.0010270897 -0.00548811 0.0052054945)
(-0.0011438247 -0.0037723911 0.003893748)
(-0.002054853 -0.002403958 0.0020250314)
(0 1.4396592e-18 0)
(0 5.4762417e-19 0)
(0 1.4213663e-18 0)
(0 1.4308379e-18 0)
(0 1.4912795e-18 0)
(0 8.9683054e-19 0)
(0 3.5751537e-20 0)
(0 -8.1263853e-19 -8.9164725e-19)
(0 9.6227131e-20 0)
(0 8.6511483e-19 0)
(0 2.0860706e-18 0)
(0 1.827833e-18 0)
(0 1.3083925e-18 0)
(0 1.2644595e-18 0)
(0 1.4439086e-18 0)
(0 6.0057472e-18 0)
(0 2.5571673e-18 0)
(0 9.3840772e-19 0)
(0 1.6937783e-18 0)
(0 -1.4746549e-19 0)
(0 3.9479543e-19 0)
(0 4.4986724e-18 0)
(0 -1.83068e-18 -7.9383987e-19)
(0 2.6758555e-18 0)
(0 3.345101e-18 0)
(0 1.1054431e-18 0)
(0 4.5248051e-19 0)
(0 1.0502464e-18 0)
(0 1.8935235e-18 0)
(0 2.4355761e-19 0)
(-1.0012297 0.029942341 0.006730712)
(-1.0012388 0.029938205 0.0067434579)
(-1.0012457 0.029924237 0.0067585186)
(-1.0012486 0.029899435 0.0067699866)
(-1.001248 0.029864535 0.006777646)
(-1.0012392 0.029820261 0.006780478)
(-1.0012212 0.029766039 0.0067808415)
(-1.0011925 0.029702532 0.0067798369)
(-1.0011529 0.029629437 0.0067788826)
(-1.0011019 0.029545928 0.0067813252)
(-1.0010414 0.029451211 0.0067852334)
(-1.0009686 0.029345969 0.0067954319)
(-1.0008911 0.029227886 0.0068078492)
(-1.0008062 0.029098597 0.0068219631)
(-1.0007195 0.028960179 0.0068361605)
(-0.9692372 -0.22120718 0.0071579216)
(-0.96920588 -0.22133796 0.0071473811)
(-0.96917787 -0.22146319 0.0071313132)
(-0.96914867 -0.22157717 0.0071175111)
(-0.96912307 -0.22168246 0.007105888)
(-0.96909344 -0.22177491 0.0070996034)
(-0.96906025 -0.22185583 0.0070954252)
(-0.96902226 -0.22192523 0.0070942438)
(-0.96897939 -0.22198407 0.0070934891)
(-0.96893177 -0.22203266 0.0070918469)
(-0.96888085 -0.22207213 0.0070883284)
(-0.96882744 -0.2221023 0.0070808503)
(-0.96877372 -0.22212577 0.0070702617)
(-0.96872241 -0.22214062 0.0070590068)
(-0.96867079 -0.22215214 0.0070481135)
(-0.00049819963 -0.0023964429 -0.0029166502)
(-0.0003189414 -0.0036319609 -0.003665027)
(-0.00022232424 -0.0051579456 -0.004626808)
(-0.00050470497 -0.0065883478 -0.005139143)
(-0.00094876823 -0.0080559741 -0.0056583881)
(-0.0018067588 -0.0096128836 -0.0059602763)
(-0.0029314669 -0.011174983 -0.0062234819)
(-0.0044270126 -0.012836747 -0.006374801)
(-0.0062078247 -0.014502013 -0.0064965308)
(-0.008305412 -0.016219966 -0.0065645213)
(-0.010734983 -0.017956152 -0.0065821304)
(-0.013441716 -0.019723996 -0.0065911774)
(-0.016461265 -0.021502526 -0.0065557024)
(-0.019750363 -0.023303151 -0.0065126113)
(-0.023347273 -0.025111397 -0.006443154)
(-0.027196834 -0.026936727 -0.0063688254)
(-0.031328624 -0.02876796 -0.006278852)
(-0.035701738 -0.030619244 -0.006186494)
(-0.040351057 -0.032462462 -0.0060873779)
(-0.045231949 -0.034340394 -0.0059848886)
(-0.050365896 -0.036211796 -0.0058850181)
(-0.055740378 -0.038100673 -0.0057826162)
(-0.061350071 -0.040011345 -0.0056820688)
(-0.067198519 -0.04192484 -0.0055857515)
(-0.073293068 -0.043859182 -0.0054852546)
(-0.079626211 -0.045809821 -0.0053907339)
(-0.086198125 -0.047781591 -0.0052890278)
(-0.093019395 -0.049762433 -0.0051912187)
(-0.10009817 -0.051762754 -0.00508681)
(-0.10741823 -0.053793306 -0.0049732065)
(-0.11500056 -0.055819541 -0.0048566356)
(-0.12284083 -0.057878623 -0.0047292594)
(-0.13093416 -0.05994558 -0.0045951393)
(-0.13927773 -0.062031184 -0.0044465053)
(-0.14787501 -0.064125378 -0.0042913476)
(-0.15672224 -0.06623311 -0.0041238596)
(-0.16579833 -0.06835717 -0.0039492213)
(-0.1751106 -0.070476757 -0.0037703665)
(-0.18464695 -0.072618789 -0.0035809181)
(-0.19438865 -0.074760479 -0.003395473)
(-0.20433569 -0.076908732 -0.003209678)
(-0.21447159 -0.079062404 -0.0030224577)
(-0.22479005 -0.081223408 -0.002843065)
(-0.23528302 -0.083390126 -0.0026686607)
(-0.24594088 -0.085564533 -0.0025017894)
(-0.25676091 -0.087747745 -0.002343259)
(-0.26773833 -0.089941587 -0.0021925959)
(-0.27887324 -0.092148305 -0.002048667)
(-0.29016454 -0.094369472 -0.0019110102)
(-0.30161569 -0.096608452 -0.0017763808)
(-0.31322941 -0.09886626 -0.0016434355)
(-0.32501078 -0.10114614 -0.0015081903)
(-0.33696464 -0.10344875 -0.0013690475)
(-0.34909637 -0.10577649 -0.0012217907)
(-0.36141072 -0.10812907 -0.0010651517)
(-0.37391143 -0.11050805 -0.0008959722)
(-0.3866011 -0.11291155 -0.00071378532)
(-0.39948036 -0.11534003 -0.0005169181)
(-0.41254829 -0.11779065 -0.00030653491)
(-0.42580131 -0.12026171 -8.2705883e-05)
(-0.43923472 -0.12274992 0.00015202734)
(-0.4528409 -0.12525294 0.00039610596)
(-0.46661157 -0.127766 0.00064568835)
(-0.48053791 -0.1302859 0.00089757388)
(-0.49460485 -0.13280855 0.0011494235)
(-0.50881231 -0.13533396 0.0013975705)
(-0.52314165 -0.1378558 0.0016360305)
(-0.5375763 -0.1403661 0.0018662532)
(-0.5521188 -0.14286935 0.0020851173)
(-0.56675796 -0.14535952 0.0022914183)
(-0.58148696 -0.14783983 0.0024864143)
(-0.59630399 -0.15030775 0.0026714261)
(-0.61120334 -0.15276471 0.0028471424)
(-0.62618565 -0.15521013 0.0030142896)
(-0.64124951 -0.15764294 0.0031774225)
(-0.65639717 -0.16006739 0.0033388839)
(-0.6716274 -0.16248055 0.0035012776)
(-0.68694269 -0.16488598 0.003668625)
(-0.70234245 -0.16728156 0.0038422169)
(-0.71782712 -0.16966898 0.0040252887)
(-0.73339364 -0.17204629 0.0042179377)
(-0.74903973 -0.17441364 0.0044206524)
(-0.76475987 -0.17676602 0.0046347343)
(-0.78054325 -0.1791076 0.0048559179)
(-0.79638755 -0.18142651 0.0050841743)
(-0.81228294 -0.18373173 0.0053139986)
(-0.82821214 -0.18601103 0.0055444966)
(-0.84416524 -0.18826624 0.0057710193)
(-0.8601289 -0.19049463 0.0059905797)
(-0.8760863 -0.19269151 0.0061980272)
(-0.89203347 -0.1948591 0.0063927681)
(-0.90794561 -0.19699526 0.0065720467)
(-0.92383498 -0.19909631 0.0067349415)
(-0.93967068 -0.20117666 0.0068886944)
(-0.95549018 -0.20322057 0.0070315846)
(0.00030247856 -0.0021541092 -0.0025720603)
(0.00051091535 -0.0028112245 -0.003361502)
(0.00036965453 -0.0044378702 -0.0039440941)
(0.00021110066 -0.0055474156 -0.0045026597)
(-0.00033252109 -0.00690354 -0.0048471066)
(-0.001120937 -0.0081960085 -0.0051137954)
(-0.0023052694 -0.0095729358 -0.0053057111)
(-0.0037476632 -0.010961974 -0.0054427922)
(-0.005550439 -0.012363295 -0.0055542527)
(-0.0076601109 -0.013823575 -0.0055830014)
(-0.010085983 -0.01527325 -0.005629939)
(-0.012805857 -0.016771229 -0.0056107075)
(-0.015833244 -0.018269042 -0.0055957547)
(-0.019153857 -0.019798605 -0.0055452549)
(-0.022749358 -0.021329168 -0.0054944903)
(-0.026625823 -0.022886962 -0.0054200709)
(-0.030767937 -0.024453269 -0.0053426604)
(-0.035174938 -0.026032197 -0.0052586571)
(-0.039831614 -0.027622645 -0.0051682166)
(-0.044744917 -0.029237839 -0.0050742583)
(-0.049899519 -0.030847438 -0.0049807824)
(-0.055294161 -0.032496324 -0.0048845949)
(-0.060934615 -0.034135369 -0.0047916919)
(-0.066812757 -0.03581317 -0.0046964129)
(-0.072934818 -0.037483684 -0.0046048742)
(-0.079294123 -0.039198784 -0.0045075555)
(-0.085903797 -0.040903834 -0.0044151048)
(-0.092762047 -0.042647471 -0.0043192469)
(-0.099868422 -0.044396454 -0.0042154191)
(-0.10723212 -0.046173493 -0.0041103409)
(-0.11485189 -0.047959017 -0.0040009214)
(-0.12272853 -0.049772918 -0.003880816)
(-0.13085892 -0.051599554 -0.003751942)
(-0.13924611 -0.053443034 -0.0036187258)
(-0.14788825 -0.055306365 -0.0034729541)
(-0.1567715 -0.057187775 -0.003321706)
(-0.16589769 -0.059080047 -0.0031651615)
(-0.17525472 -0.060991021 -0.0030005224)
(-0.18482824 -0.062912795 -0.0028326409)
(-0.19461295 -0.064849848 -0.0026649101)
(-0.20460105 -0.066796514 -0.0024918276)
(-0.21477576 -0.068757616 -0.0023237625)
(-0.22513481 -0.070727249 -0.0021582013)
(-0.2356657 -0.072710527 -0.0019979094)
(-0.24636264 -0.074703703 -0.0018418042)
(-0.25722073 -0.076710967 -0.0016931644)
(-0.26823736 -0.078729615 -0.0015489953)
(-0.2794097 -0.080763755 -0.0014116611)
(-0.29074015 -0.082812868 -0.0012771104)
(-0.30222971 -0.08488059 -0.0011459588)
(-0.31388311 -0.086966433 -0.0010144018)
(-0.32570401 -0.089074945 -0.00088157884)
(-0.33769882 -0.09120492 -0.0007441317)
(-0.34987142 -0.093360706 -0.00060040124)
(-0.36222792 -0.095541053 -0.00044808025)
(-0.37477074 -0.097748944 -0.00028569113)
(-0.38750343 -0.099982721 -0.00011204607)
(-0.40042562 -0.10224429 7.3267017e-05)
(-0.41353679 -0.1045306 0.0002699693)
(-0.4268327 -0.1068423 0.00047734717)
(-0.44030915 -0.10917583 0.00069353427)
(-0.45395735 -0.1115302 0.00091734924)
(-0.46777043 -0.11389981 0.0011440708)
(-0.48173666 -0.11628508 0.0013744312)
(-0.49584545 -0.11867949 0.0016023495)
(-0.51009154 -0.12108755 0.0018270226)
(-0.52444105 -0.12348284 0.0020388275)
(-0.5389186 -0.1258845 0.0022493465)
(-0.5535023 -0.12828508 0.0024544018)
(-0.56817882 -0.13068127 0.0026443636)
(-0.5829455 -0.13307119 0.0028257165)
(-0.59779653 -0.13545223 0.0029967081)
(-0.61273057 -0.13782524 0.0031587076)
(-0.62774796 -0.14018902 0.0033149509)
(-0.64284661 -0.14254423 0.0034674261)
(-0.6580275 -0.14489224 0.0036181412)
(-0.6732912 -0.14723089 0.0037699405)
(-0.68863929 -0.14956494 0.0039259807)
(-0.70407083 -0.15189168 0.0040873375)
(-0.71958609 -0.15421293 0.0042558455)
(-0.73518282 -0.15652955 0.0044334063)
(-0.75085607 -0.15883858 0.0046185442)
(-0.76660503 -0.16114048 0.0048121222)
(-0.78241601 -0.16343145 0.0050189883)
(-0.7982879 -0.16572468 0.0052261548)
(-0.8142006 -0.167992 0.0054342816)
(-0.83014911 -0.17024795 0.0056424116)
(-0.84611585 -0.17248491 0.0058486497)
(-0.86209518 -0.17470001 0.0060465727)
(-0.87806234 -0.17689315 0.0062395893)
(-0.89402201 -0.17905645 0.0064168769)
(-0.90994103 -0.18119563 0.00659014)
(-0.92584095 -0.1832983 0.0067427756)
(-0.94167865 -0.18538082 0.0069004344)
(-0.95750537 -0.18742471 0.0070404141)
(0.00077811377 -0.001672862 -0.0023128765)
(0.00098538404 -0.0023279449 -0.002839246)
(0.0010876721 -0.0035904324 -0.0033955574)
(0.00079810975 -0.0046058465 -0.0037954137)
(0.00028909729 -0.0056902156 -0.0040421051)
(-0.00059780632 -0.0068343409 -0.0042288126)
(-0.0017385558 -0.0079373967 -0.0043950532)
(-0.0032272143 -0.0090795719 -0.0045128633)
(-0.0050409593 -0.010235818 -0.0045598919)
(-0.0071515668 -0.011421484 -0.0046260627)
(-0.0095889438 -0.012611637 -0.004630433)
(-0.012317576 -0.013834751 -0.004636462)
(-0.015369789 -0.015071171 -0.0046033991)
(-0.018680394 -0.016321168 -0.0045802653)
(-0.022306428 -0.017593919 -0.0045183375)
(-0.026189287 -0.018881813 -0.0044651277)
(-0.030360599 -0.020182571 -0.0043897368)
(-0.034769103 -0.021501856 -0.0043204189)
(-0.039463515 -0.022836463 -0.0042329663)
(-0.044385273 -0.024186883 -0.0041508312)
(-0.049566681 -0.025551602 -0.0040648069)
(-0.054988369 -0.026936667 -0.0039747711)
(-0.060654269 -0.028332472 -0.0038865493)
(-0.066556261 -0.029751395 -0.0037971711)
(-0.072706745 -0.031181671 -0.0037072514)
(-0.079098719 -0.032637562 -0.0036148956)
(-0.085740098 -0.034101172 -0.0035266078)
(-0.092625513 -0.035597061 -0.003428356)
(-0.099771522 -0.037099085 -0.003333625)
(-0.10716787 -0.038632719 -0.0032324946)
(-0.11482325 -0.040175585 -0.0031274255)
(-0.12273731 -0.04175106 -0.0030120597)
(-0.13090737 -0.043335134 -0.0028983475)
(-0.13933653 -0.044950245 -0.002772181)
(-0.14801272 -0.046580889 -0.0026414034)
(-0.15693632 -0.048231676 -0.0025057343)
(-0.16609263 -0.049905638 -0.0023627649)
(-0.17547977 -0.051593222 -0.0022170409)
(-0.18509397 -0.053306812 -0.0020669511)
(-0.19492017 -0.055032336 -0.001911779)
(-0.20494202 -0.056781187 -0.0017605899)
(-0.2151583 -0.058542362 -0.0016071486)
(-0.22555415 -0.060322907 -0.0014577159)
(-0.23612299 -0.062116008 -0.0013109603)
(-0.2468579 -0.063925928 -0.0011677658)
(-0.25775433 -0.065751601 -0.0010279859)
(-0.26880816 -0.067591903 -0.00089337374)
(-0.28001931 -0.069450171 -0.00076088304)
(-0.29138803 -0.071325082 -0.00063175303)
(-0.30291692 -0.073219595 -0.00050287459)
(-0.3146094 -0.075133822 -0.00037441536)
(-0.32647062 -0.077071001 -0.00024271782)
(-0.33850528 -0.079030759 -0.00010809555)
(-0.35071881 -0.081017136 3.334607e-05)
(-0.36311579 -0.083029068 0.00018094536)
(-0.37569972 -0.085070111 0.00033787552)
(-0.38847307 -0.087139043 0.00050302315)
(-0.40143603 -0.089237846 0.00067829583)
(-0.4145874 -0.091364795 0.00086179496)
(-0.42792363 -0.093520747 0.0010541633)
(-0.44143917 -0.095702506 0.0012527571)
(-0.4551268 -0.097909484 0.0014567937)
(-0.46897828 -0.10013796 0.001662862)
(-0.48298204 -0.10238687 0.001871932)
(-0.49713064 -0.10465064 0.0020760813)