/*--------------------------------*- C++ -*----------------------------------*\
  =========                 |
  \\      /  F ield         | OpenFOAM: The Open Source CFD Toolbox
   \\    /   O peration     | Website:  https://openfoam.org
    \\  /    A nd           | Version:  6
     \\/     M anipulation  |
\*---------------------------------------------------------------------------*/
FoamFile
{
    version     2.0;
    format      ascii;
    class       pointVectorField;
    location    "0.65";
    object      lm;
}
// * * * * * * * * * * * * * * * * * * * * * * * * * * * * * * * * * * * * * //

dimensions      [1 -2 -1 0 0 0 0];

internalField   nonuniform List<vector> 
625
(
(-3.6361799e-15 2.112754e-16 -3.2990721e-16)
(2.8178306e-17 1.9013092e-16 6.1994168e-17)
(-4944.516 1087.3713 238.88179)
(-4343.4189 2519.7131 210.37788)
(6.5239771e-16 2.739523e-16 -5.5565719e-16)
(-3.7042918e-15 1.4868296e-15 -1.3023874e-15)
(-4299.2001 2471.6918 211.95966)
(-4898.7722 1042.3093 235.9697)
(-1.9658614e-16 -3.2115893e-17 -1.1045223e-16)
(1.4766345e-16 -3.4299605e-16 -2.8648028e-16)
(-1.0135278e-15 7.0169807e-16 1.7538027e-16)
(-4792.5972 1447.4375 233.07364)
(-4641.5746 1802.533 225.71787)
(-4493.7947 2159.7838 217.70288)
(8.1210686 -12.826848 -19.311126)
(10.19615 -30.907198 -29.150545)
(2.1883594 -50.510121 -44.265908)
(-20.449144 -70.840066 -56.436388)
(-55.355559 -89.999392 -65.232703)
(-113.97017 -110.79072 -69.337853)
(-190.92261 -127.9365 -67.956178)
(-293.69102 -143.66624 -61.406157)
(-423.14861 -154.5992 -49.648604)
(-579.06151 -159.5355 -32.826724)
(-764.3104 -156.60827 -14.335187)
(-977.77335 -143.32323 6.4099107)
(-1219.0781 -117.46011 28.059001)
(-1486.8993 -77.597138 49.569588)
(-1778.6131 -21.907336 70.843769)
(-2092.0706 50.174707 91.530555)
(-2423.0289 139.08483 111.55067)
(-2769.0924 243.58873 131.45523)
(-3125.0694 362.6685 150.85928)
(-3487.7436 494.36251 170.28468)
(-3854.9152 635.96858 189.06072)
(-4220.6563 782.33653 207.15866)
(-4584.7336 935.95078 223.31223)
(18.799996 -1.9363607 10.146707)
(11.099799 7.5822826 -8.8497635)
(4.0720865 33.564971 -12.84855)
(-9.7852537 60.941313 -21.705409)
(-34.12114 97.333577 -25.382686)
(-75.120591 149.81113 -25.254358)
(-125.71977 204.86342 -18.135021)
(-197.15116 273.74521 -9.4518834)
(-288.89655 353.8997 6.502337)
(-402.21328 443.23559 24.07186)
(-540.86051 545.68709 44.249283)
(-705.23094 659.30728 64.714174)
(-896.49833 784.83609 84.743993)
(-1115.059 921.58029 103.07045)
(-1359.8614 1068.4677 119.39165)
(-1630.02 1223.9382 133.19366)
(-1923.0617 1385.9056 145.02157)
(-2236.6055 1552.3344 154.88697)
(-2566.8246 1720.2544 163.6522)
(-2910.9823 1887.9897 171.9129)
(-3264.1316 2052.9987 180.19484)
(-3622.8823 2214.014 189.08983)
(-3984.4929 2369.4813 199.20674)
(-4.8813632e-16 1.9183015e-16 -1.0607077e-16)
(-2.6214496e-15 -5.6404768e-16 7.244144e-16)
(-2.4010456e-15 1.4295629e-15 -1.6975308e-16)
(6.5099152 8.5204713 -16.051757)
(16.311652 44.792187 -40.640143)
(18.386625 47.045591 -56.68702)
(16.9594 74.026024 -73.747534)
(-5.642028 108.32551 -91.189814)
(-39.667234 133.52644 -96.452926)
(-87.709145 179.08295 -101.78216)
(-162.1754 234.27466 -98.727537)
(-253.73297 300.44869 -91.051063)
(-368.8682 382.0265 -78.417737)
(-509.33909 478.27772 -61.595546)
(-673.83998 589.74192 -41.987436)
(-865.38544 716.16727 -20.306314)
(-1082.6295 855.14862 2.4944751)
(-1325.7362 1006.0378 25.685437)
(-1593.7148 1165.378 48.922456)
(-1884.4632 1331.1214 71.864676)
(-2195.8474 1500.4458 94.320689)
(-2524.5925 1670.5799 116.30802)
(-2867.2942 1839.4456 137.50664)
(-3219.8712 2004.9568 157.94811)
(-3578.5948 2165.7137 177.0963)
(-3939.5314 2321.1086 194.59579)
(-4449.3936 2111.3696 218.08591)
(-4595.2351 1755.0688 223.17845)
(-4747.136 1402.3303 228.61478)
(-4539.6169 890.98041 223.90107)
(-4175.3353 737.4332 212.89066)
(-3808.331 588.57905 203.99065)
(-3441.7596 445.74677 196.17261)
(-3078.2322 311.47418 189.20998)
(-2721.872 188.51851 181.95799)
(-2376.814 79.359798 173.8027)
(-2046.862 -14.527057 163.93708)
(-1735.8583 -91.484121 151.57107)
(-1447.2254 -150.89845 136.30388)
(-1183.3109 -192.6668 118.32223)
(-946.60037 -217.56539 97.760866)
(-737.63494 -225.98492 75.524392)
(-555.86014 -223.18739 54.632484)
(-405.35352 -203.75957 31.457)
(-279.24195 -180.12188 14.408635)
(-179.37325 -148.99934 0.5652677)
(-102.25877 -117.18626 -7.7334624)
(-48.114887 -82.997004 -12.928471)
(-10.509954 -51.448936 -12.976579)
(10.429816 -30.30244 -6.4691718)
(20.938135 -7.225119 -0.34479937)
(15.594862 0.74278207 1.5403506)
(-1.3028228e-15 -3.4252847e-16 3.3068324e-16)
(-2.0449562e-15 -3.5718549e-16 -7.3673077e-16)
(-1.4121951e-15 -1.0527101e-15 6.223458e-16)
(-1.2019486e-15 6.189313e-16 -3.4292956e-16)
(-1.2511779e-16 -6.848356e-17 2.1836215e-16)
(-3.8898857e-17 4.7141393e-16 -3.1043199e-16)
(-4331.0946 2509.4649 211.42121)
(-4320.5696 2498.1741 210.88856)
(-4308.6188 2485.8412 211.48584)
(-4934.4557 1074.9521 237.73443)
(-4923.5184 1064.0906 237.73095)
(-4911.2454 1052.6191 236.66944)
(15.626932 -13.787869 -18.288442)
(15.592261 -26.640432 -22.69971)
(9.4659495 -36.294321 -37.188265)
(-8.8040686 -43.654691 -46.144702)
(-40.165375 -50.650884 -55.061041)
(-91.939456 -53.81898 -57.966093)
(-161.06658 -53.173694 -56.618767)
(-254.83841 -49.496565 -49.892285)
(-372.99422 -38.079531 -38.160422)
(-518.37638 -19.843353 -22.22626)
(-691.4938 7.7396465 -3.5595453)
(-892.32565 46.648602 17.255168)
(-1121.2495 98.118045 38.628001)
(-1377.0175 163.61443 60.161734)
(-1657.7507 243.74306 81.008815)
(-1961.3279 338.88176 100.87572)
(-2284.2219 448.02204 119.87018)
(-2623.7138 570.00971 137.97939)
(-2975.1287 703.44671 155.10066)
(-3335.772 844.93207 171.85362)
(-3700.9099 993.21366 188.16108)
(-4066.6459 1143.6684 203.03139)
(-4432.7959 1297.2912 217.99397)
(18.037684 -6.8618572 -6.8496705)
(15.254203 -10.432699 -15.379988)
(12.901358 -10.645657 -26.926095)
(-3.0290539 -8.4902797 -37.034994)
(-32.650928 0.69187281 -42.360421)
(-77.623128 13.503172 -44.42161)
(-141.52198 31.799134 -41.0277)
(-227.4438 57.782607 -32.797512)
(-336.20436 90.831105 -19.840403)
(-470.77698 132.53374 -3.6349716)
(-632.13338 184.56708 15.564077)
(-821.01861 247.54553 35.510187)
(-1037.8181 323.0971 56.022037)
(-1281.6098 411.58987 75.730684)
(-1551.2646 513.33333 94.389607)
(-1844.513 627.93374 111.64882)
(-2158.6004 754.30809 127.74011)
(-2490.4971 891.09072 142.56147)
(-2836.0538 1035.9781 156.74422)
(-3191.7802 1186.5336 170.87692)
(-3553.7368 1341.0388 183.8246)
(-3918.238 1496.1418 197.93523)
(-4284.0465 1651.965 211.52817)
(20.952941 -3.3626388 -3.6323441)
(16.382677 -0.10124824 -13.261553)
(15.848839 8.7133 -22.381935)
(-1.0942923 26.446429 -30.36755)
(-25.848727 51.8225 -35.017793)
(-66.911726 80.858388 -35.796557)
(-125.14511 121.0911 -31.447808)
(-202.44237 166.94272 -22.594288)
(-302.49984 222.15604 -9.4444377)
(-426.70329 286.98759 7.4842128)
(-577.29663 362.02246 26.462898)
(-754.9289 448.32638 46.695943)
(-960.33862 546.8072 66.876312)
(-1193.0252 657.4403 86.178756)
(-1452.07 780.15614 104.09605)
(-1735.3532 914.2251 120.24617)
(-2040.6536 1058.0295 134.80469)
(-2364.5344 1209.8217 147.90735)
(-2703.5959 1367.0346 160.24699)
(-3054.0338 1528.1377 171.40336)
(-3411.9948 1689.153 183.35053)
(-3773.581 1850.1871 194.47876)
(-4135.5323 2007.7795 206.44625)
(-2.5953868e-15 -2.1703571e-16 4.2716933e-18)
(-3.8783653e-15 3.5858996e-16 7.5215743e-16)
(-9.8459492e-16 7.8127033e-16 2.7525688e-16)
(-3.9146975e-16 7.8165185e-18 1.2560621e-16)
(1.6350797e-16 -2.4226884e-16 -1.2066667e-17)
(-1.0304172e-15 -9.2669207e-16 -7.5672327e-16)
(-6.4481012e-16 3.525084e-16 2.7116342e-16)
(-3.5205005e-15 9.4737515e-16 -2.5196009e-17)
(-3.8147498e-15 1.043275e-15 1.2924308e-16)
(10.418054 0.051630895 4.2548639)
(7.173176 2.3236869 -4.6301299)
(5.0743051 -2.1027315 -7.3989259)
(3.4684222 29.009584 -18.244784)
(7.7564996 29.880272 -22.243056)
(7.6406814 25.948641 -32.251391)
(2.3071392 38.784852 -24.915734)
(1.8670699 35.138795 -33.279495)
(4.9341586 42.028651 -48.38385)
(-13.079212 66.535167 -38.2056)
(-10.094906 70.232291 -49.671158)
(-1.460425 63.202532 -63.631419)
(-40.644936 105.7385 -44.13356)
(-35.405128 102.07639 -57.522885)
(-26.912599 101.39612 -77.179298)
(-78.138685 148.05081 -45.633894)
(-73.837716 143.77672 -64.511543)
(-62.295163 137.02101 -82.795782)
(-132.17032 202.29179 -42.8944)
(-129.50069 198.18723 -61.76891)
(-116.65615 186.70559 -86.975369)
(-207.66411 269.3406 -34.225802)
(-200.24762 259.02038 -56.514457)
(-188.65052 246.99314 -79.976551)
(-299.01459 345.30553 -20.259407)
(-294.52317 335.61768 -44.083768)
(-282.31984 318.74433 -70.680927)
(-414.36834 434.76377 -3.2146793)
(-410.15064 422.20402 -28.448475)
(-396.82603 404.32772 -56.165642)
(-553.48517 536.42801 16.583725)
(-549.25047 522.94412 -9.70079)
(-536.4926 503.6107 -38.149893)
(-717.27001 650.51139 37.094264)
(-713.69435 636.33918 10.826025)
(-700.66299 616.85369 -17.799615)
(-907.86082 777.25147 57.826513)
(-903.9899 763.04915 31.982689)
(-890.86497 743.7583 3.8521824)
(-1124.1743 915.06969 77.349673)
(-1120.2774 900.90138 52.675077)
(-1107.0573 882.49556 25.795451)
(-1366.7326 1063.1212 95.397311)
(-1362.2858 1049.4591 72.493421)
(-1348.7409 1032.174 47.542611)
(-1633.8534 1219.3468 111.55004)
(-1628.7273 1206.0814 90.962564)
(-1615.1425 1190.1079 68.573625)
(-1923.9358 1381.6284 126.03355)
(-1917.9839 1368.8498 108.2189)
(-1904.2393 1354.0574 88.832243)
(-2234.2685 1547.7009 139.02253)
(-2227.406 1535.2293 124.27947)
(-2213.7574 1521.5142 108.2679)
(-2561.9084 1714.9576 151.1549)
(-2554.0662 1702.7579 139.55833)
(-2540.6051 1689.937 127.05364)
(-2903.2387 1881.4153 162.59988)
(-2894.5368 1869.2976 154.16671)
(-2881.4915 1857.0414 145.17088)
(-3254.4447 2045.0057 174.04599)
(-3244.9906 2033.1959 168.70488)
(-3232.3372 2021.2003 162.66871)
(-3612.0046 2204.6384 185.80896)
(-3601.7925 2192.4789 182.72172)
(-3589.7734 2180.7717 179.47268)
(-3972.5442 2359.0625 198.26637)
(-3961.4978 2347.4735 197.1225)
(-3950.2691 2335.3713 195.47035)
(-4782.6622 1435.5016 231.60165)
(-4771.7808 1424.4553 230.64375)
(-4759.359 1412.7503 229.62685)
(-4630.5898 1790.7001 224.68079)
(-4619.5482 1779.6945 224.22853)
(-4607.515 1766.9533 223.84356)
(-4481.8745 2149.7096 217.78069)
(-4471.3488 2138.4914 218.17655)
(-4459.4825 2125.5911 217.88167)
(2.8988819 -5.3460448 -12.307878)
(7.9344406 -6.2169073 -7.8234708)
(4.4333088 -1.7323138 -2.1391098)
(5.1376253 -20.363439 -20.759415)
(6.0949403 -17.949825 -11.377703)
(10.922836 -14.115233 -6.0454357)
(-6.7898413 -42.841097 -34.871441)
(-2.6206768 -36.497151 -26.65977)
(-1.1881157 -34.885054 -16.397371)
(-25.763408 -58.984878 -45.478147)
(-27.146522 -56.686089 -34.9732)
(-22.447822 -54.10223 -23.598406)
(-65.571155 -84.705267 -54.474402)
(-65.528628 -81.3953 -40.749322)
(-60.90012 -82.002224 -27.173082)
(-122.21879 -105.36925 -56.437552)
(-122.33269 -106.1071 -41.927973)
(-117.59921 -108.58416 -25.24597)
(-200.80264 -127.05608 -54.12464)
(-201.63993 -130.54723 -37.537247)
(-196.60612 -136.25032 -18.399265)
(-304.24959 -145.52591 -45.802438)
(-304.26448 -153.00522 -27.318075)
(-298.09449 -161.40489 -6.0006476)
(-432.64343 -161.22791 -32.303929)
(-433.21859 -170.17741 -11.493376)
(-425.23404 -182.55607 9.971253)
(-590.29243 -167.14402 -13.856751)
(-587.78792 -181.24256 6.1806897)
(-580.41281 -194.70965 32.650036)
(-775.01858 -165.39153 6.1904487)
(-771.94092 -180.83992 27.732188)
(-763.23039 -197.195 53.286379)
(-987.98067 -152.51777 28.182815)
(-983.60251 -170.30043 49.777202)
(-973.8976 -187.2623 76.005133)
(-1228.4625 -126.93607 50.372377)
(-1222.7814 -145.1519 71.721312)
(-1212.3155 -163.20655 97.542698)
(-1494.8814 -86.590793 71.830711)
(-1488.3077 -104.932 92.431979)
(-1476.8102 -122.99798 116.86894)
(-1785.2796 -30.494983 92.343096)
(-1777.5513 -48.208432 111.30174)
(-1765.4357 -66.005487 134.03943)
(-2096.639 41.902045 111.20827)
(-2088.2043 25.245236 128.42128)
(-2075.591 8.0951186 148.51491)
(-2425.9459 130.66737 129.11356)
(-2416.7064 115.24403 143.86262)
(-2403.8957 99.010583 160.84271)
(-2769.2909 234.85571 145.96228)
(-2759.6731 220.92704 157.8232)
(-2746.722 205.55499 171.64507)
(-3123.2179 353.24373 161.93513)
(-3113.2274 340.33609 171.43334)
(-3100.2443 325.82969 181.56524)
(-3483.7507 484.29522 177.47158)
(-3473.5943 472.26237 184.42867)
(-3460.9164 458.57596 191.08764)
(-3847.659 624.4386 193.68384)
(-3837.1883 612.99237 197.50022)
(-3824.649 600.00418 201.25366)
(-4211.9843 771.25026 208.87334)
(-4201.035 759.82416 210.69933)
(-4189.0366 747.79486 211.88144)
(-4574.9607 923.86756 223.35884)
(-4563.8085 912.69604 223.94381)
(-4551.977 901.37324 223.93158)
(16.537889 -1.1594285 -3.9227991)
(23.457542 -10.672697 -7.6902357)
(20.619414 -12.466216 -20.319571)
(2.2374432 -30.432198 -23.661808)
(-28.513785 -46.402207 -27.284936)
(-77.396614 -64.976615 -25.723119)
(-146.88635 -80.711754 -20.11156)
(-237.84063 -91.828803 -8.8785145)
(-355.40341 -95.258544 5.6739104)
(-496.52877 -88.019847 23.535383)
(-665.85934 -66.637941 42.869213)
(-863.31266 -32.069566 63.273525)
(-1087.7118 20.159164 82.738972)
(-1339.617 88.546755 100.95616)
(-1616.6372 173.45558 117.64943)
(-1917.1202 274.18761 132.35007)
(-2238.0222 388.9367 145.50662)
(-2575.9402 515.96879 157.51788)
(-2926.9845 653.08228 168.88528)
(-3287.6064 797.60242 179.94545)
(-3653.2179 947.04607 191.57267)
(-4020.1339 1099.5513 203.81649)
(-4387.5422 1252.2545 215.7551)
(21.504599 1.0433612 -10.226634)
(27.274479 11.183963 -21.778867)
(25.747369 13.084413 -32.492709)
(13.152195 9.0190398 -41.328893)
(-10.961145 5.2192 -47.347029)
(-54.966734 4.8688056 -50.010182)
(-116.39754 7.1343602 -46.887984)
(-201.18133 16.951257 -39.041717)
(-309.08939 36.781385 -27.081507)
(-441.89517 67.814019 -10.653508)
(-602.43965 113.28149 7.4645938)
(-789.539 172.75634 27.99739)
(-1004.5427 249.09075 48.208752)
(-1246.376 339.84372 68.392034)
(-1513.9751 445.98784 87.461558)
(-1805.4299 565.28211 105.23846)
(-2118.0598 696.4573 121.91198)
(-2448.6743 837.12653 137.4906)
(-2793.6436 985.07109 152.32635)
(-3148.9215 1138.003 166.61271)
(-3510.5863 1293.363 181.13669)
(-3874.5821 1449.035 194.7108)
(-4240.2886 1605.4378 209.30371)
(21.873442 15.420754 -15.490724)
(21.983374 22.386977 -27.272336)
(28.2552 44.643623 -45.036347)
(21.422959 42.59475 -53.715712)
(-1.4799312 60.447553 -65.675592)
(-40.21477 76.039605 -69.959493)
(-95.702847 96.500754 -69.969071)
(-173.49952 128.08111 -65.232085)
(-273.78235 168.71541 -55.296579)
(-398.74562 222.66629 -41.885491)
(-549.43935 290.58529 -25.139654)
(-726.78597 373.4984 -6.4119053)
(-931.2507 471.98131 13.415642)
(-1162.2998 585.09523 33.742145)
(-1419.1981 711.89047 53.990633)
(-1700.1943 850.73992 73.825542)
(-2003.0425 999.20566 93.285714)
(-2324.8842 1155.0845 112.17152)
(-2662.1686 1315.6599 130.72981)
(-3011.3715 1478.6442 149.06941)
(-3368.3659 1641.352 166.61053)
(-3729.2177 1802.8555 184.78762)
(-4090.8289 1960.5676 200.55185)
(9.4913051 -3.8874599 -10.576147)
(12.413958 -3.9100227 -6.8419772)
(9.2935032 -1.5631994 -2.4550279)
(9.0994217 -19.358966 -16.613136)
(9.183819 -15.236755 -13.704723)
(14.454709 -14.458917 -11.089544)
(2.9704185 -24.265957 -30.970692)
(7.6468174 -20.232947 -27.330944)
(8.7385937 -18.710479 -24.30762)
(-15.222576 -35.431964 -40.903316)
(-15.291634 -32.513535 -35.311903)
(-10.44329 -30.542702 -30.920961)
(-49.359239 -43.821055 -47.825116)
(-48.144856 -41.142272 -42.207666)
(-43.236881 -42.746143 -36.113097)
(-100.61859 -49.491577 -51.049819)
(-99.858079 -51.410789 -43.523342)
(-93.419359 -55.662607 -35.703228)
(-171.61155 -53.513701 -48.454218)
(-171.62658 -58.320207 -39.395309)
(-164.92713 -65.228774 -30.462665)
(-266.38726 -52.849824 -40.257776)
(-265.72733 -60.334273 -30.312469)
(-257.3702 -71.171637 -20.274948)
(-384.93663 -44.045473 -27.752459)
(-384.06646 -55.776868 -16.747755)
(-375.57633 -69.114514 -5.2772003)
(-530.52605 -28.786895 -10.46254)
(-529.41845 -42.990407 1.3404636)
(-519.5144 -58.175946 13.083917)
(-703.23806 -2.5434582 9.2180114)
(-701.11121 -18.276717 21.234966)
(-690.31219 -35.632272 32.912723)
(-903.37056 35.511546 30.613753)
(-900.51573 18.405351 42.412893)
(-888.831 0.3688808 54.358927)
(-1131.2059 86.877868 52.252902)
(-1127.3357 69.63279 63.504399)
(-1114.7484 51.122671 74.978612)
(-1385.3199 152.6703 73.42803)
(-1380.4417 135.716 83.840778)
(-1366.9947 117.63826 94.194595)
(-1664.2342 233.38949 93.479029)
(-1658.1693 217.19474 102.47558)
(-1644.3112 199.75852 111.86621)
(-1965.4169 328.78554 112.03667)
(-1958.5057 313.66797 119.70938)
(-1944.2332 297.21076 127.59338)
(-2286.2469 438.12351 129.41791)
(-2278.1972 424.30517 135.33726)
(-2263.8923 408.74934 141.66672)
(-2622.9672 560.16425 145.55851)
(-2614.2991 547.36401 149.75062)
(-2600.1427 532.78429 154.60156)
(-2972.4285 693.03343 160.77884)
(-2962.6912 681.36766 163.639)
(-2948.9354 667.28087 166.75425)
(-3330.0474 834.0953 175.74325)
(-3320.8159 823.05407 176.77757)
(-3306.8773 809.85247 178.71063)
(-3692.6922 981.61297 190.27654)
(-3683.5766 970.57186 189.80349)
(-3670.0945 958.01816 191.13916)
(-4057.6658 1132.6163 204.05033)
(-4046.9967 1121.5269 203.71903)
(-4034.2539 1109.4153 203.81957)
(-4422.8784 1285.087 217.70993)
(-4411.7638 1274.1904 217.20156)
(-4399.8472 1262.4586 216.52231)
(14.509838 -2.0330834 -3.6914483)
(14.136483 -1.0923639 -4.1886939)
(12.11501 -2.4191993 -5.1961025)
(12.72538 -2.9440742 -12.726524)
(12.791578 -0.7701316 -15.215866)
(18.886678 1.1248633 -18.037241)
(7.4059009 -2.812105 -27.435292)
(11.067278 1.291535 -32.10515)
(12.707906 2.2974329 -31.956295)
(-6.9855036 -0.26954265 -36.76103)
(-7.9493107 4.2682418 -39.934326)
(-1.1169117 5.2075066 -41.116482)
(-39.067099 5.9085642 -44.215986)
(-35.87014 7.4276796 -49.204277)
(-28.822505 3.1573921 -47.971016)
(-83.878315 16.118419 -46.669064)
(-82.492831 14.530571 -49.601749)
(-74.952151 8.7597376 -50.653214)
(-149.50474 31.023513 -42.803628)
(-147.85677 26.81522 -46.894329)
(-138.64641 17.207619 -47.508373)
(-236.01273 54.101111 -34.88576)
(-234.00952 45.579985 -38.441379)
(-224.49217 32.527397 -39.39567)
(-345.41418 83.75745 -21.121897)
(-344.23046 72.877582 -24.699121)
(-333.79357 57.21149 -26.24442)
(-480.75755 123.72953 -4.391118)
(-479.18788 110.18235 -7.9804706)
(-467.68386 92.265566 -9.6132471)
(-642.1437 174.43679 15.427244)
(-640.34295 159.52615 11.540544)
(-628.02719 140.29088 9.6884277)
(-830.70966 237.16509 36.136204)
(-828.67562 221.18856 32.013407)
(-815.4581 201.54286 30.545343)
(-1046.7002 312.80255 57.118022)
(-1043.9534 297.02847 52.995124)
(-1029.8546 277.26827 51.500094)
(-1289.2585 401.93379 77.166181)
(-1285.585 386.4517 72.936232)
(-1270.9618 367.52016 71.582819)
(-1557.1616 504.38734 96.009839)
(-1552.5865 489.8644 91.722967)
(-1537.4105 471.79668 90.816728)
(-1848.4934 619.55695 113.13302)
(-1842.7478 605.94354 109.04468)
(-1827.33 589.19506 108.33687)
(-2160.4453 746.31095 128.97484)
(-2153.493 733.79119 125.05631)
(-2138.2357 718.05871 124.64998)
(-2489.8363 883.05322 143.51169)
(-2481.9683 871.20024 139.89803)
(-2466.8626 856.7092 139.85885)
(-2833.4915 1027.433 157.25539)
(-2824.3979 1016.4046 154.29961)
(-2809.8863 1002.6052 154.21262)
(-3187.1049 1177.4019 171.00034)
(-3176.6101 1166.9277 168.02145)
(-3163.1587 1153.8829 168.17445)
(-3547.589 1331.5984 183.36771)
(-3535.2478 1320.178 182.28874)
(-3523.395 1308.2974 182.2268)
(-3909.7062 1485.7459 197.49069)
(-3898.7589 1474.4154 195.88761)
(-3886.2126 1462.3875 195.94513)
(-4273.7126 1640.795 211.2251)
(-4262.6677 1629.8144 210.25748)
(-4251.1481 1617.5791 209.86405)
(15.085417 4.6208557 -3.2990522)
(17.087375 2.4595063 -5.9041889)
(15.549579 4.8440758 -8.9312143)
(10.974776 9.3276575 -15.407233)
(10.28537 4.8469046 -20.485832)
(13.909064 12.479186 -24.655286)
(10.993525 19.593716 -28.316285)
(13.421224 26.785002 -34.780883)
(15.242038 31.090955 -40.72159)
(-6.6100179 38.038365 -37.304359)
(-2.7019798 32.94508 -44.90388)
(3.6769509 37.903354 -50.721211)
(-31.87367 56.184366 -45.631136)
(-28.427405 56.121554 -53.893556)
(-20.962038 56.490592 -61.797423)
(-74.471139 84.493285 -46.808147)
(-71.074527 80.210946 -56.434764)
(-60.717191 77.501353 -64.709834)
(-133.63567 119.97054 -44.377553)
(-130.3058 111.56683 -55.883234)
(-119.03461 105.54556 -64.820772)
(-212.80427 161.7263 -36.551134)
(-209.51222 152.03279 -47.478232)
(-197.33773 142.16477 -58.493976)
(-314.26771 214.51089 -23.613427)
(-311.31501 201.74898 -36.275525)
(-298.04916 188.42499 -47.739799)
(-439.65344 277.18465 -6.9900359)
(-436.42713 262.67888 -20.083511)
(-423.22188 247.09541 -32.325861)
(-590.63931 351.31268 12.340554)
(-587.44622 335.90044 -1.2838344)
(-573.87384 318.24719 -14.133575)
(-768.1703 437.98492 33.098378)
(-764.2895 421.86889 19.110539)
(-751.06348 403.35349 6.0817198)
(-972.65326 537.25696 53.95092)
(-968.17124 521.31544 40.049065)
(-954.99301 502.46544 27.114854)
(-1203.7105 649.29294 74.225749)
(-1198.263 633.89816 60.604035)
(-1185.4976 615.35331 48.034213)
(-1460.4527 773.44921 93.113618)
(-1454.1144 758.80622 80.175978)
(-1441.4463 740.91686 68.430929)
(-1741.1274 908.63523 110.42836)
(-1733.5822 894.89168 98.57764)
(-1721.3747 877.91073 87.732049)
(-2043.3388 1053.1291 126.23426)
(-2034.9182 1040.3082 115.64401)
(-2022.9072 1024.24 106.18755)
(-2364.2639 1205.0316 140.71062)
(-2354.7721 1192.8513 131.68897)
(-2343.2264 1177.6977 123.62671)
(-2700.2885 1362.0284 154.22213)
(-2690.2345 1350.4383 146.91806)
(-2678.8571 1336.0402 140.35835)
(-3047.9758 1521.8115 167.11709)
(-3037.2586 1510.4428 161.54644)
(-3026.3656 1496.5929 156.66523)
(-3403.7219 1682.112 180.05674)
(-3392.6064 1670.923 175.77121)
(-3382.0858 1657.5627 172.37645)
(-3763.301 1841.4657 192.5304)
(-3752.2301 1830.339 189.89074)
(-3741.5272 1817.2954 187.96849)
(-4124.0332 1998.2479 205.60889)
(-4112.6316 1986.783 204.09493)
(-4101.8925 1973.9072 202.89065)
)
;

boundaryField
{
    free
    {
        type            zeroGradient;
    }
    fixed
    {
        type            fixedValue;
        value           nonuniform List<vector> 
25
(
(-2.5953868e-15 -2.1703571e-16 4.2716933e-18)
(-1.3028228e-15 -3.4252847e-16 3.3068324e-16)
(-1.9658614e-16 -3.2115893e-17 -1.1045223e-16)
(-3.6361799e-15 2.112754e-16 -3.2990721e-16)
(-3.8783653e-15 3.5858996e-16 7.5215743e-16)
(-2.0449562e-15 -3.5718549e-16 -7.3673077e-16)
(-9.8459492e-16 7.8127033e-16 2.7525688e-16)
(-1.4121951e-15 -1.0527101e-15 6.223458e-16)
(-4.8813632e-16 1.9183015e-16 -1.0607077e-16)
(6.5239771e-16 2.739523e-16 -5.5565719e-16)
(-3.9146975e-16 7.8165185e-18 1.2560621e-16)
(1.4766345e-16 -3.4299605e-16 -2.8648028e-16)
(1.6350797e-16 -2.4226884e-16 -1.2066667e-17)
(-1.0304172e-15 -9.2669207e-16 -7.5672327e-16)
(-2.6214496e-15 -5.6404768e-16 7.244144e-16)
(-6.4481012e-16 3.525084e-16 2.7116342e-16)
(-1.0135278e-15 7.0169807e-16 1.7538027e-16)
(-3.5205005e-15 9.4737515e-16 -2.5196009e-17)
(-3.8147498e-15 1.043275e-15 1.2924308e-16)
(-2.4010456e-15 1.4295629e-15 -1.6975308e-16)
(-1.2019486e-15 6.189313e-16 -3.4292956e-16)
(2.8178306e-17 1.9013092e-16 6.1994168e-17)
(-1.2511779e-16 -6.848356e-17 2.1836215e-16)
(-3.8898857e-17 4.7141393e-16 -3.1043199e-16)
(-3.7042918e-15 1.4868296e-15 -1.3023874e-15)
)
;
    }
    freeTop
    {
        type            zeroGradient;
    }
}


// ************************************************************************* //
