/*--------------------------------*- C++ -*----------------------------------*\
  =========                 |
  \\      /  F ield         | OpenFOAM: The Open Source CFD Toolbox
   \\    /   O peration     | Website:  https://openfoam.org
    \\  /    A nd           | Version:  6
     \\/     M anipulation  |
\*---------------------------------------------------------------------------*/
FoamFile
{
    version     2.0;
    format      ascii;
    class       pointScalarField;
    location    "0.96";
    object      p;
}
// * * * * * * * * * * * * * * * * * * * * * * * * * * * * * * * * * * * * * //

dimensions      [1 -1 -2 0 0 0 0];

internalField   nonuniform List<scalar> 
3969
(
1714429.6
-2488231.8
10431.105
7064.8741
3105918.7
-5285423.2
7334.2365
5434.1478
1273561.9
899990.63
468436.77
-34013.965
-398837.28
-958685.48
-1065853.5
-7777.9377
-686.00071
64.900286
4945.2117
9384.6681
13141.389
13029.483
549587.78
623621.03
606421.18
624620.7
609999.68
604161.58
585100.9
564658.8
546507.48
520116.06
501430.87
480310.91
458217.29
439175.07
419545.48
398742.85
381579.63
362348.9
345445.5
326857.3
310536.71
293289.75
277149.11
261568.31
244916.69
229502.54
213794.45
199254.36
185562.34
170911.87
157576.69
144652.84
131647.83
119678.43
108118.74
97416.108
86122.772
77312.81
66778.789
59240.93
49774.272
42780.46
36004.606
28054.789
24196.733
18518.62
13810.758
-546225.58
-453622.2
-564617.68
-496176.98
-554511.41
-506488.31
-518403.21
-482466.22
-478807.61
-453554.54
-438134.88
-424554.55
-399001.25
-389914.46
-368258.7
-353333.92
-337431.11
-318223.74
-305669.28
-288011.69
-272120.74
-259369.15
-242156.24
-229292.08
-213701.59
-199651.8
-184343.64
-170448.34
-157487.85
-144054.24
-133480.79
-120614.39
-110182.04
-98724.365
-88815.786
-78689.175
-69851.308
-60151.168
-52253.011
-43558.294
-35763.44
-28941.919
-22511.045
-16203.67
-10277.668
-6051.525
-1051.0432
2335973.9
1735841.8
785564.34
-116957.43
-819698.32
-1835783.6
-1482677.5
-689805.04
-751814.81
-475165.39
-681951.42
-579440.42
-594949.74
-567694.59
-552606.91
-525481.97
-482532.82
-513915.64
-463895.21
-464093.07
-439208.77
-419984.35
-403842.36
-378870.13
-362300.72
-340784.39
-319978.18
-303452.61
-285342.67
-268425.11
-251901.23
-237235.82
-223951.88
-209244.28
-190964.31
-177722.47
-163295.11
-148531.96
-135259.65
-122257.75
-109372.63
-97830.882
-87229.256
-73780.257
-65205.47
-56295.698
-47512.804
-38980.353
-31858.32
-24102.89
-17509.31
-11743.029
-6212.5132
-1174.881
17865.996
11873.717
9696.1991
6867.7076
-697.76913
-959.01669
-8432.8104
24276.553
21168.611
24178.192
30784.178
37599.342
44588.886
52728.937
60525.157
69888.868
78585.59
86830.06
101918.12
110967.19
122755.2
135288.6
148406.97
161591.82
176081.04
189745.61
205042.91
220997.51
235775.68
252305.77
268993.28
286288.6
304064.22
321737.48
338622.7
357909.48
375300.17
394476.71
411398.59
422932.27
452739.7
482020.15
483442.8
517523.5
522963.33
549674.29
580558.36
610739.95
599013.08
643353.56
615014.86
622475.07
653543.22
638324.7
1452347.1
1569937.9
1649971.5
1621525.6
1621317.9
1624216.4
1359563.6
-1939379.4
-2502894.4
-2901983.2
-3097121.5
-2965655
-2929861.3
-2189560.9
7810.5944
8360.5737
8780.8732
9730.1401
9402.6352
7950.9343
8025.0555
3032.7841
4798.7574
4051.8942
3378.5916
4161.2336
7861.374
3756.3845
475888.33
487644.55
486831.56
488834.73
483690.56
476942.85
460655.77
454092.55
430143.7
424535.77
404195.46
385171.34
374286.29
356875.08
340992.83
325957.5
311073.01
295074.28
279506.37
264673.46
250349.93
235215.61
221478.03
207673.24
195399.33
181471.81
168866.57
157306.42
145104.23
133687.57
123003.96
112211.35
102341.38
92793.375
83883.551
75123.224
66906.618
59458.362
52266.541
46245.798
39418.563
34739.684
28147.531
23883.835
19919.376
13263.248
8256.574
304057.51
299053.84
304245.46
316217.73
317165.2
323342.23
311496.03
305650.93
295801.12
288992.31
275629.12
267494.84
254237.18
242438.76
233675.13
221231.63
211361.59
199166.93
189067.24
178002.02
166755.45
155901.44
145493.26
136060.96
126239.65
118123.18
110189.78
101015.52
94311.772
86704.878
79884.542
73339.41
67037.254
61194.053
55609.989
50372.948
45396.373
41274.2
36243.512
32930.003
28246.142
25279.601
20890.882
18884.251
14977.749
10579.869
5589.8672
135691.96
153957.69
148697.13
155729.42
154205.09
157704.18
152662.66
154559.72
146833.13
144095.37
140154.45
135040.52
129325.7
122600.97
116023.58
111078.45
106100.19
100439.65
95922.953
90319.339
86332.574
81620.206
76905.286
71670.068
67365.103
62346.673
57896.159
54393.53
50544.139
46656.864
43118.365
39518.906
36197.143
32923.493
30226.683
27112.658
24752.659
22053.399
19719.52
18140.908
15702.248
15051.411
12398.167
11835.83
9674.9533
6916.9009
6002.2016
-8068.7288
-11391.181
-16260.885
-5825.8456
-16915.156
-10353.217
-17331.909
-13873.782
-15382.483
-4997.9066
-11188.187
-4890.8307
-7045.0532
-3547.3769
-2307.3039
-398.35025
-260.0189
911.09947
1204.5793
998.97946
1292.0553
124.51046
-2297.8616
-1840.681
-898.11768
-472.48798
369.27081
1017.6689
1473.6544
2006.6929
2599.9876
2991.7915
3277.9461
3675.291
3970.9612
4469.225
4343.7414
4797.6474
5207.8888
5516.9352
5919.9873
6139.742
5383.2979
6905.3758
6065.3573
7081.285
7719.2375
-170973.12
-152119.06
-154294.57
-163350.1
-173703.3
-169191.23
-172078.4
-164369.11
-163319.23
-149477.27
-150127.99
-134462.18
-134908.7
-120796.43
-118436.08
-108000.06
-103634.7
-96007.721
-90315.722
-84757.997
-76053.947
-66644.032
-60847.753
-52206.512
-48931.454
-46426.34
-40794.577
-36243.338
-32572.362
-28907.647
-25340.749
-22756.236
-19603.011
-17415.787
-14660.008
-12701.185
-11063.584
-8373.4873
-9455.2995
-7450.4528
-5965.0229
-4419.7411
-2279.5974
-348.3701
1135.6798
3621.5464
6551.8805
-325580.8
-302685.05
-304015.3
-326759.69
-330152.27
-326342.04
-322310.75
-308979.57
-305236.57
-286140.23
-282110.08
-265790.28
-256903.72
-245747.03
-234451.44
-220748.25
-210163.88
-197488.76
-186747.49
-175655.71
-162915.8
-153219.47
-136505.03
-124583.22
-113837.46
-104924.57
-97035.389
-88542.035
-80746.519
-73302.208
-66935.538
-60086.689
-54083.413
-48221.142
-42803.513
-37698.833
-32829.622
-28578.205
-24062.678
-20590.999
-17122.474
-13696.494
-9669.3023
-6437.8015
-2668.1891
1685.0759
7889.1457
-543224.16
-369715.23
-445875.17
-439478.41
-463957.53
-445757.76
-448004.37
-428357.39
-427276.27
-397262.44
-396803.92
-374327.31
-359464.74
-342510.18
-324921.25
-308948.08
-290965.38
-277496.53
-261195.37
-246877.12
-233219.07
-218463.29
-204864.91
-191892.97
-178758.69
-167150.78
-156722.6
-143431.33
-131808.98
-120726.87
-110308.39
-100063.66
-90238.15
-81176.823
-72104.517
-63814.071
-56260.028
-48694.841
-42628.681
-35041.41
-28762.22
-22875.007
-17308.29
-12809.8
-7670.6544
-2917.9732
3899.1386
1124886.8
1017070.1
1062853.5
1064894
1067328.6
1036485.4
982005.94
698684.11
754229.19
723688.21
736648.84
740378.71
724553.5
718105.99
355068.6
420511.96
365703.65
391286.99
375073.67
369183.44
391972.78
56606.076
11603.914
-13705.298
24217.543
-2831.6169
-48449.323
105658.2
-198084.85
-213106.12
-225388.37
-193931.26
-215566.75
-204470.28
-101889.66
-689591.35
-749233.29
-740329.98
-766641.49
-784365.03
-767604.59
-713579.49
-787263.04
-744999.99
-627484.18
-647421.28
-600436.22
-558472.39
-630051.54
-946326.98
-993141.43
-1127456
-1168747.2
-1199580.7
-1169360.1
-895236.16
-695792.38
-814232.52
-827831.81
-849986.95
-889238.4
-844299.66
-769349.32
-588731.33
-678273.34
-715861.54
-724675.64
-725878.66
-670031.9
-710041.33
-570827.97
-640615.22
-625560.21
-674407.76
-647760.72
-641989.95
-603192.54
-577293.42
-618645.16
-639632.43
-646614.01
-647354.89
-614754.69
-626204.12
-554919.8
-549799.02
-563126.33
-580003.63
-579760.11
-566541.47
-559138.72
-527281.35
-548739.13
-557094.51
-569997.1
-562951.87
-566494.92
-561767.89
-518977.67
-514890.69
-515552.7
-525567.6
-523178.8
-524314.56
-520212.64
-494075.18
-501037.83
-503463.17
-512673.74
-514535.19
-518536.86
-516953.2
-482468.69
-478159.43
-475560.55
-481160.49
-480891.09
-473909.24
-477831.96
-459518.5
-464357.02
-458331.29
-465941.5
-464744.88
-465411.11
-472353.53
-438750.88
-439348.3
-437305.26
-445303.62
-443459.37
-437844.53
-451404.46
-428248.05
-415328.08
-424448.25
-422280.69
-426771.99
-425568.45
-438441.88
-400821.85
-398403.49
-406475.5
-403844.57
-410648.58
-402529.71
-414251.26
-389347.85
-380393.15
-389760.02
-384612.01
-390518.17
-385922.61
-398606.56
-367705.01
-360048.23
-371537.8
-365786.8
-375638.66
-369437.74
-380920.48
-349796.65
-345788.09
-354313.78
-349251.36
-358096.2
-350739.6
-359809.71
-332940.38
-328209.33
-338380.21
-331359.11
-342046.95
-332843.39
-343895.38
-315413.82
-312913.28
-321700.49
-314134.54
-324510.63
-315701.86
-326326.96
-298575.45
-296332.77
-305134.48
-297599.53
-308815.39
-299528.18
-309934.12
-283529.39
-280297.65
-289024.2
-281025.63
-291727.49
-282667.07
-292710.29
-267101.75
-264872.87
-272565.83
-265562.35
-275793.71
-266845.11
-277255.75
-252531.77
-248890.48
-257413.38
-250007.01
-258884.72
-251348.11
-260582.2
-236435.58
-235299.43
-241316.92
-233995.31
-243701.57
-236363.8
-245827.27
-221468.39
-221488.14
-223377.56
-220750.84
-227353.54
-221917.45
-230285.84
-205375.49
-207521.38
-205840.42
-208406.37
-211615.45
-210362.28
-216566.74
-194691.24
-192603.93
-193235
-194039.89
-195552.48
-194546.28
-200230.47
-180898.64
-178268.9
-179288.83
-179920.31
-180905.29
-181176.23
-183535.06
-166654.95
-164195.33
-165651.06
-165024.53
-165348.05
-167397.57
-168109.08
-153854.88
-150679.34
-152717.91
-151352.2
-152625.67
-153949.25
-154323.71
-140109.05
-138304.44
-139074.8
-138147.89
-138601.85
-140095.03
-140315.98
-128226.46
-125372.96
-126622.2
-125316.45
-125912.01
-127259.96
-127598.01
-115579.3
-113601.18
-114219.14
-113136.42
-113501.2
-114933.06
-115279.5
-104288.51
-102018.86
-102669.6
-101476.71
-101807.64
-103093.91
-103122.87
-92879.547
-91026.197
-91239.843
-90132.028
-90295.63
-91838.458
-91908.428
-82352.982
-80764.597
-80740.858
-80044.104
-80186.931
-80744.384
-81109.367
-72519.861
-70521.459
-70914.285
-69275.988
-69909.894
-71275.917
-70981.788
-63167.896
-61878.1
-61048.243
-60839.57
-60290.558
-61287.79
-61578.318
-53906.445
-52582.926
-52100.988
-51576.19
-51484.045
-52341.944
-52344.242
-46118.191
-44331.595
-44598.394
-43499.954
-43442.281
-44285.689
-44392.676
-37590.401
-36797.265
-36340.371
-35498.16
-35557.299
-36247.491
-36115.188
-30529.681
-29920.626
-29336.329
-28949.849
-28748.132
-29273.575
-29230.474
-23346.977
-23058.036
-22383.999
-22277.524
-21691.233
-22349.608
-22186.248
-17206.846
-16690.291
-16476.367
-16074.737
-15750.782
-16267.257
-15794.297
-11818.083
-12023.116
-11514.26
-11418.282
-10984.106
-10925.702
-10313.603
-8281.8915
-8004.1225
-8131.9863
-7828.4345
-7421.3526
-7768.5846
-7127.5491
-4564.2005
-4640.7944
-4463.8484
-3791.6573
-4600.6408
-4227.4632
-2647.7173
-14421.263
-16625.729
-19035.259
-19223.727
-18120.933
-17217.102
-14912.988
-6508.3328
-7058.1273
-7608.6625
-8298.0494
-7584.3768
-6210.4707
-4837.7054
-3178.1707
-4364.4292
-5095.5803
-4982.6514
-4628.2088
-3046.8615
-2020.6498
5724.6422
6324.2048
6152.3163
6122.6063
6934.9829
6223.4599
7546.4225
11696.925
11944.125
11973.24
12832.251
12171.965
11972.263
11669.654
16172.362
18510.414
18932.547
19127.297
20164.671
17596.222
17153.964
19341.418
19978.986
21446.181
21421.098
20642.302
19879.279
18537.104
680095.22
675788.67
751117.54
736434.89
753957.94
715547.61
696413.56
703341.89
719128.84
748587.5
741125.68
752887.1
710124.47
695434.46
674268.34
677990.66
699804.68
699937.54
699341.34
670103.1
660098.86
637473.96
654566.03
668146.69
672022.29
669796.5
650941.94
653032.64
632959.8
635710.26
641649.54
645655.51
643168.77
635533.8
625201.48
603265.93
604655.3
613748.82
606998.3
612117.43
594278.12
598157.82
591706.1
590951.53
592376.87
591588.21
600760.19
587019.43
597585.22
562041.23
556074.69
566068.29
548162.5
560602.9
552411.35
556864.41
545482.93
548942.8
547384.44
542231.64
550702.22
540839.75
551933.07
526055.23
516764.97
518209.09
510126.03
520529.72
509290.85
522218.77
504866.1
497481.53
506697.61
494573.17
505017.86
495604.85
504391.02
480222.31
479946.35
479167.61
470092.07
479221.08
470300.68
482424.77
465275.36
456340.98
459038.51
451763.75
459035.07
450096.65
451272.14
443241.31
437946.03
437577.8
433256.89
438217.59
434443.43
442383.86
422810.91
419696.83
415904.05
415185.95
416825.21
412390.32
419689.37
407558.92
398789.32
398536.43
395221.17
400251.78
394760.83
398963.92
386528.58
381219.99
379282.9
378098.26
379003.12
374983.39
379986.63
368036.56
362230.59
362124.02
359285.39
361037.69
358172.8
360983.48
349374.91
345165.49
344183.07
341235.81
343302.9
340308.22
343835.64
331987.89
326805.52
326498.71
324028.59
325683.27
322811.87
325765.18
315179.29
309387.68
310147.21
306919.17
308803.01
306087.89
309048.32
297838.78
292564.45
293646.15
290405.72
291843.89
288722.04
292099.42
281799.8
276394.07
278246.92
274330.5
275703.64
272780.89
276433.13
265211.19
260658.44
262004.32
258228.69
259224.56
256076.9
260104.05
249723.43
243868.42
246563.11
242115.35
243377.37
240387.55
244751.25
234112.98
228297.71
231346.93
226699.61
227884.8
224995.67
228847.99
218233.33
213617.64
215899.34
211712.62
212570.72
209738.88
214039.84
204092.68
198834.99
200747.28
197005.47
198011.74
195317.54
199604.3
188280.54
183595.1
186595.89
182533.26
183080.26
180582.26
184639.1
174048.55
170651.58
171993.31
168700.66
169105.5
167230.28
170711.73
160389.43
156583.64
158262.6
155255.49
155457.52
153461.19
157004.31
146352.53
143578.67
144580.95
142095.96
141840.03
140570.92
143759.44
133548.4
131000.3
131976.83
129610.99
129411.12
128363.75
131369.19
121036.94
118986.87
119346.98
117607.14
117079.11
116353.33
118773.57
109076.25
107109.43
107621.9
106021.25
105294.09
105508.14
107385.22
97399.659
96559.324
96562.071
95093.049
94833.109
94649.795
96189.32
87010.579
86096.617
85154.208
84889.466
83757.811
84024.945
86284.301
76858.138
76606.659
75754.594
75100.858
74905.328
73877.108
76779.172
67051.192
66777.607
65754.57
65772.8
65372.927
65056.896
67219.439
58747.049
58863.23
57834.986
57899.427
56877.835
56640.089
58690.914
49716.981
49534.601
48687.215
48806.922
48162.119
48902.194
50131.043
42745.769
42986.55
42083.606
42255.534
41718.446
41571.556
42717.967
35633.864
35794.813
34957.966
35394.576
34396.594
34542.278
35079.356
28304.859
28490.222
27979.127
28243.427
27847.873
27755.222
28882.804
24573.512
26152.186
26093.571
26559.165
25729.713
24891.492
24186.447
20367.839
20852.616
20409.442
20418.577
20539.635
20795.621
19699.655
23074.058
25637.271
26374.927
27088.257
26943.292
27071.386
25467.558
634190.83
527400.04
504798.94
503324.12
507525.25
510178.14
478785.23
477941.19
458116.28
447728.51
425333.5
410332.12
392546.89
370049.97
358041.83
340534.41
322940.16
307806.27
291971.36
277085
262266.79
247335.92
233294.02
219750.01
206107.85
193254.87
179360.97
166990.25
155008.86
143128.47
131733.72
120947.32
110445.85
100515.31
91506.208
81572.948
72999.504
66087.703
58039.766
51079.04
44641.84
38210.178
32578.705
26665.424
21276.137
15411.439
7044.6648
376628.49
398823.16
296508.12
345382.78
376137.19
351928.97
362880
339636.62
340227.32
322343.82
311743.58
301706.41
280458.78
274795.75
261859.37
251464.29
238678.01
225679.03
215242.86
202658.87
191306.2
180060.54
169100.95
157787.33
146878.25
135313.02
127999.05
117531.99
109065.68
100704.23
92616.7
85180.241
77815.049
71482.039
64155.406
59173.615
53175.889
47392.999
42682.353
37621.499
33313.768
28792.199
24760.599
20494.764
16769.343
12045.137
6543.9896
179279.97
229268.02
125861.49
205788.06
167402.72
158755.7
157944.13
152501.11
149644.69
139253.92
145512.42
136122.53
142641.74
135414.41
133394.63
130332.58
123136.9
118286.39
112998.04
105463.65
99993.011
94004.888
88022.971
82493.561
77356.773
72338.981
67661.595
61577.547
57448.168
52888.025
48776.172
45105.291
41606.097
38153.454
34917.716
32354.251
29307.453
26886.236
24231.436
22169.633
20113.201
17665.471
15635.699
13568.744
11271.97
9468.8714
3225.6504
-23177.77
49324.996
-13696.766
31763.857
-7539.457
15238.642
4678.5273
-7263.1425
-2069.884
5430.9513
-2117.6551
9914.5985
5173.5644
15911.675
17343.276
18740.826
18788.828
19633.913
19484.285
18812.026
19464.004
19035.829
18787.27
18554.905
17448.057
16552.789
15521.365
15437.147
14566.181
14009.748
13425.708
13568.202
12777.912
12674.271
12125.242
11936.08
11158.51
10926.665
10171.523
10047.363
9382.9994
8740.7666
8452.2933
7561.0947
7722.6637
6224.712
4615.2328
-290886.09
-128188.28
-165628.75
-109811.7
-159336.14
-124665.29
-151185.99
-139829.97
-129028.57
-132660.78
-116747.54
-121837.49
-107403.72
-109116.54
-101847.74
-96379.973
-91105.833
-85180.852
-79853.666
-74392.497
-69012.782
-64011.121
-59066.985
-54560.845
-49323.365
-45904.802
-40904.937
-36755.288
-33503.62
-30083.823
-26808.061
-23676.401
-20695.737
-17584.416
-15167.368
-12583.059
-10402.066
-8110.6648
-6442.6449
-4396.4385
-3044.9127
-1210.3241
-279.0755
1444.1407
2528.0634
4486.0175
5141.4049
-456790.87
-321080.4
-278705.05
-283683.24
-306268.62
-292381.59
-311880.88
-276881.66
-306024.51
-284737.38
-286724.98
-268956.01
-257813.3
-249294.81
-233847.38
-222170.23
-207312.95
-193747.04
-180863.96
-169223.91
-158380.21
-147056.42
-136504.09
-123610.4
-111831.59
-100926.07
-93318.227
-84840.042
-77275.662
-69624.635
-63284.66
-56441.372
-50312.34
-44441.867
-39072.505
-34033.142
-29164.52
-24827.488
-20922.002
-17052.485
-13584.305
-10408.922
-7218.3042
-4343.8452
-1182.3506
2417.1272
6402.5299
-557769.47
-404480.38
-427849.22
-417544
-465401.6
-456869.8
-456662.03
-444722.78
-441307.73
-419205.54
-400704.51
-390171.3
-370000.27
-353917.55
-337027.54
-322074.1
-308396.91
-291831.6
-279418.47
-263373.69
-248724.65
-233596.26
-219503.36
-204083.4
-191356.36
-170823.09
-159895.79
-148075.98
-136694.91
-125910.22
-115351.64
-104453.29
-94783.994
-84970.595
-75661.216
-67142.816
-59175.079
-51232.764
-44039.665
-37068.921
-31141.474
-24554.248
-19772.282
-14038.126
-8675.0068
-3532.1068
1566.0591
783660.06
865641.47
839504.42
876285.6
860210.45
817004.91
761098.62
569124.29
649704.77
643023.3
659119.62
641793.96
619515.31
568606.4
530921.09
579199
590110.37
602280.09
586969
580990.25
555991.35
516520.85
530525.94
535107.73
549605.78
525205.33
535465.74
490965.08
498209.89
508815.38
518479.63
512309.21
508552.75
503094.9
474411.63
486089.68
503021.06
484666.17
504058.66
486087.14
487561.6
487185.39
474480.15
468790.43
467864.7
471255.19
453106.96
466774.88
459487.43
454334.84
475606.06
454820.34
466130.9
458095.36
457195.84
452433.4
450797.63
442764.9
424076.46
443041.2
425519.2
433538.37
430225.16
426857.87
428748.68
424973.41
433483.02
416163.4
426615.64
420329.37
410635.84
417406.96
400325
408212.15
397344.92
404880.08
401881.9
403007.34
395909.86
387628
393834.96
386698.31
387852.31
384395.17
382553.84
380442.47
372254.65
381653.08
367864.49
375611.54
377366.78
366129.54
362554.84
358712.49
362115.96
350896.51
357507.56
355976.8
353210.29
347585.01
344247.99
344077.33
339284.53
343576.87
340033.57
334060.43
330361.83
329326.77
329507.39
322227.77
323055.52
325758.71
317581.77
315072.14
312908.92
313993.67
307120.92
311157.67
310259.19
302778.01
299690.98
298783.5
296905.44
292788.31
294246.22
295106.97
286052.54
285284.08
281649.33
282999.3
277728.66
279238
278893.46
271861.49
269567.71
267993.97
267713.67
263475.09
264655.05
265160.97
253920.92
256184.31
252515.87
253295.27
248845.3
250164.15
249666.4
240159
242106.52
238078.32
238467.21
235055.51
236040.34
236511.14
224486.16
228048.33
222751.96
224296.77
220788.89
223106.83
221482.31
210339.56
213853.15
208649.1
209888.8
207810.4
208988.32
207819.75
195074.93
201381.54
194795.64
197549.53
194251.69
197079.73
194745.04
183291.3
187947.88
182709.27
183039.94
182779.24
183313.72
182138.21
171233.54
174511.22
169303.11
170994.52
170177.28
171038.38
169866.95
157847.48
160831.8
158669.49
158488.4
157502.24
159070.07
156966.21
145911.45
151319.51
145337.49
146539.9
146473.47
147633.33
145893.92
135664.48
137678.39
134873.44
135408.61
135252.75
136067.57
134549.92
123944.32
126860.6
123650.52
124062.56
124006.12
125185.54
123753.76
113921.86
115979.15
113802.76
113772.58
114187.92
115172.97
113630.09
103977.31
105701.69
103522.1
103514.78
104043.94
104944
103426.59
94528.379
95604.996
94213.277
93980.975
94684.887
95420.963
94215.206
85443.517
86315.252
85338.102
84905.012
85760.839
86775.045
85383.434
77128.646
77629.622
76880.563
76300.774
77486.908
77924.54
76646.208
69576.876
68964.146
68852.215
67899.678
69467.401
69401.016
69655.046
61988.017
61418.423
61524.485
60981.047
61358.142
62641.417
61475.163
55054.459
53267.568
54329.628
53460.027
54550.362
55196.158
54800.414
47905.425
47430.29
47942.336
47104.68
47768.755
48463.732
48070.169
42177.888
40478.248
41567.448
40081.602
41547.535
41887.288
41654.575
36056.086
35596.373
36321.878
35508.14
36565.657
36100.969
36046.866
30126.926
28461.132
29459.961
28275.084
29134.868
29546.244
30285.615
25793.097
25223.319
26455.246
25246.678
26508.981
26277.994
25753.95
19755.493
19063.277
19284.668
18713.24
19367.517
19282.251
19771.122
14097.072
13298.2
14489.738
13391.43
14150.125
14337.527
13473.026
8036.8314
5776.0959
5788.0302
5685.5466
6284.8079
5510.7073
7985.5056
508685.85
541150.71
589402.86
579607.75
593135.44
544569.17
538925.93
407240.32
477309.18
493697.76
503354.31
500223.04
468454.34
443940.39
388792.37
358940.73
400721.34
385712.8
401194.22
364031.46
372542.48
340223.69
349357.93
364287.4
356004.41
361521.25
351405.11
322718.39
350358.05
345629.29
355625
343984.52
360888.67
338410.03
347386.95
329310.15
322867.78
324969.45
319514.76
314388.92
327272.6
321240.66
326812.73
326557.73
337973.06
318656.54
333310.51
331735.89
322766.76
317185.48
308029.52
305211.23
299213.76
307697.35
302274.66
308119.2
309711.21
296822.42
311490.03
298831.26
299089.37
303879.74
303928.37
291780.68
292024.83
295888.15
277785.46
288712.05
288615.42
292438.5
288095.5
282347.16
280658.37
272055.89
278293.5
278681.03
277668.35
276443.82
265825.54
275997.68
262045.09
271736.58
266697.55
275852.16
262581.04
258198.29
266215.98
247291.05
257627.94
252769.94
256681.98
253395.27
248903.33
252720.15
238301.52
247990.8
246290.2
241627.55
240678.94
239889.81
238580.14
227759.94
236101.77
231818.56
230199.45
230057.11
228401.62
226611.6
220700.47
222627
223919.24
218455.89
219029.71
218626.05
216929.11
208641.39
212246.87
214159.86
210503.34
207262.79
208090.15
204019.09
199699.96
201187.69
202939.19
197173.8
198086.03
196568.9
194603.06
189661.57
191054.44
192675.86
188710.88
185742.88
186005.95
183755.67
179736.07
180295.22
181872.65
178043.82
177059.72
175812.86
173680.58
169717.08
170385.85
171939.74
169015.86
167354.08
165319.32
163049.25
160246.44
160574.55
162099.41
158660.11
158461.7
154710.29
153660.35
151083
151726.28
151560.52
149799.47
149092.87
145315.52
144933.02
142730.05
142465.65
142033.07
141249.32
140053.66
136081.38
135822.16
133444.3
134057.08
132464.04
132781.29
130862.38
127539.06
125398.99
126850.4
123569.11
123429.81
124384
120788.3
118892.22
117603.36
116366.64
116673.95
114092.42
115449.07
113670.6
109964.88
109940.82
108172.72
108644.28
106001.91
107756.29
104818.26
101750.73
102059.99
100216.41
101117.84
97625.365
99632.732
96566.607
94287.161
93634.657
92906.37
92522.719
90254.645
91835.423
88809.754
87164.669
86889.185
85669.793
85787.098
83359.122
84770.858
81294.4
80352.463
79090.414
78825.345
78432.933
76409.364
77442.195
74356.756
73466.077
72559.264
72190.963
71973.038
69743.706
70938.625
67382.503
67269.463
65928.714
66137.088
65445.258
63819.634
64726.634
61178.388
61355.871
60059.857
59960.174
59781.43
57860.381
59312.36
54920.27
55585.142
53769.845
54604.412
53681.105
52537.888
52856.449
49290.592
50219.808
48814.172
49011.38
48756.394
47044.445
48165.982
43729.926
45578.148
43146.348
44259.642
43289.48
42502.845
43134.687
38881.539
39981.258
38741.355
39127.939
38733.75
38199.645
38481.074
34239.134
36341.501
34245.856
34869.275
34338.334
33702.138
33913.071
30298.005
31263.971
29792.721
30589.853
30213.178
29680.173
29823.502
25964.905
27680.445
25841.189
26816.79
25992.3
25668.94
26222.168
22642.759
23321.702
22113.187
22766.953
22106.43
22262.666
22292.539
19256.444
20293.319
18965.721
19604.515
19318.895
18998.209
18996.871
14587.614
15660.964
14462.275
15232.98
14545.125
14450.49
14496.759
10785.93
11113.853
10031.118
10494.182
10370.319
10609.361
10457.858
5961.8495
4188.3039
2908.729
3253.8099
3512.1809
3492.8254
4762.2739
293699.05
316582.85
296030.37
329655.97
304695
287119.42
266276.08
215576.25
303783.37
289703.09
308425.55
272199.65
285999.37
231349.75
196630.01
185635
189306.87
193221.61
185396.82
170828.15
167094.41
164730.38
196980.61
194954.61
210373.07
183311.78
201882.99
164448.27
180378.51
164816.99
167595.36
154788.8
155067.71
149717.06
151623.71
160093.38
179343.86
156516.37
163905.5
159234.81
158937.76
157378.59
169430.65
167158.56
140792.22
151554.94
149218.94
141817.17
149848.46
159936.38
169199.41
140824.43
152375.62
142367.89
138628.86
149830.09
161039.52
167028.94
136986.54
143673.47
140182.08
139966.45
144922.1
159982.46
160834.04
130486.53
137429.35
138626.49
132091.33
140590.15
154587.13
156118.25
126540.09
138901
133703.46
132914.24
136083.3
145685.61
149244.98
122206.37
131088.16
128558.58
124080.05
131912.65
139627.91
149870.01
116841.49
129046.84
123649.08
122784.16
125327.76
134233.07
137954.48
115804.07
123572
123934.15
111505.8
127614.83
128663.39
131595.62
109777.17
120000.15
116783.51
109650.94
121184.77
122245.16
122893.86
109936.37
112002.95
113022.76
104645.19
117818.72
113543.83
118813.05
103296.64
108265.43
107315.3
101084.83
110305.3
110140.72
111187.39
99381.746
103055.2
102723.62
96479.499
104605.24
101782.5
106320.14
94279.179
98503.808
96875.855
91718.258
98903.919
97386.047
100634.84
89572.158
92861.933
91579.264
87370.821
94347.389
90625.288
94994.497
84260.227
87986.459
86323.835
83450.589
87719.062
85100.832
88782.648
79647.312
82929.974
81819.6
77984.448
83147.051
79391.012
83362.376
74872.297
78919.912
75411.609
74214.963
77799.71
74092.074
77271.585
70503.718
72681.432
70049.115
69969.128
72438.053
69156.03
71948.352
65573.111
67892.945
64817.279
66131.298
67077.821
64720.017
65389.691
61922.265
62410.409
60271.698
61502.21
62141.083
60200.793
61983.31
57215.632
59519.636
54704.181
58425.628
57031.749
55897.372
58426.799
52770.729
54472.228
51570.184
53548.301
53879.88
51463.781
53145.454
48436.719
50439.027
47381.797
49499.932
49979.142
47965.443
49206.138
45629.486
46732.039
44124.999
46076.263
46399.471
44258.323
45460.585
41470.432
43175.415
40233.997
42631.328
42749.883
41046.939
41533.15
38391.012
39812.033
37231.149
39447.007
39210.775
37733.775
38060.005
35277.79
36710.288
34121.839
36285.624
36503.37
34947.929
34893.346
32530.842
33755.01
31349.458
33742.415
33583.114
32033.174
31595.903
29716.526
30728.836
28729.938
30710.72
30776.676
29358.346
28914.835
27212
28309.215
26407.72
28464.495
28485.396
27313.284
26063.309
25080.864
25625.288
24359.68
25549.397
26364.025
24543.338
23824.834
22504.905
23693.635
21898.954
23791.105
24127.084
22877.893
21286.632
20739.553
21106.754
20269.55
21569.122
22000.058
20615.276
19844.627
18801.675
19932.212
18538.567
19708.047
19716.533
18637.488
16463.55
16796.345
16647.25
16333.893
17202.869
18118.356
16715.571
16357.76
16042.301
16406.149
15746.346
16246.393
16390.824
14967.637
12750.313
13138.688
12769.022
12814.072
13246.322
14363.383
12989.343
12473.038
12921.409
12964.78
12745.536
13025.055
13017.864
10339.15
8745.3859
9096.9129
8312.2123
8587.8866
8711.839
9456.8362
8670.9308
8086.1217
7725.488
7741.4276
8049.1014
8193.8988
8880.6387
5536.1209
2327.7402
2509.0426
2171.1669
1999.5893
2116.9112
3407.1529
7880.5831
-8398.7498
-1542.3966
5073.6068
-4392.4692
-8092.5318
16974.675
314.45436
-1208.3767
-3538.8731
996.98809
-8543.4276
-2837.2023
-8599.9215
23484.063
-31150.732
-26834.229
-41340.862
-26391.402
-43516.429
-4123.8088
-4633.1644
-20568.373
-4571.8324
-14919.491
-18948.634
-1676.3554
-21960.266
6096.4764
-5182.0511
-7438.6543
-37578.932
-4383.6573
-45650.209
2692.4437
4490.2727
-16581.616
-25864.845
-17429.404
-21768.756
-14274.034
-10035.482
4618.1555
-10120.546
3726.2132
-23157.164
-6275.7003
-17654.899
-3624.8022
7750.6229
-5552.7217
-12687.707
-14087.196
-11172.596
-10099.4
-6032.5844
11108.388
-11684.785
-1646.5856
-16662.001
-6481.4764
-10796.056
-9101.8723
4061.6638
-3837.3825
-3112.6528
-14185.941
-8106.3254
-8497.4042
-5038.7099
7130.0829
-3514.9102
-3763.9894
-14011.116
-7716.3269
-10184.433
-4804.2075
6909.3287
-1376.5078
-4912.9143
-7992.6355
-8081.5185
-2358.7997
-3760.149
8997.4882
-3040.5849
-3278.5207
-10118.889
-4795.7026
-5795.3359
-4261.4907
7158.9757
-1015.3323
4960.8099
-3000.6599
-8848.6987
-1139.8422
-8001.8736
10677.648
5140.6743
-5369.8705
-1865.2821
-8973.2086
-1457.674
-3318.7309
6256.9367
4470.6475
-4822.2181
1684.0959
-9630.8131
1137.1602
-3078.2685
9313.6617
4229.0676
-1920.8203
3576.8739
-7612.693
1843.4593
-348.94656
6993.0638
5008.049
-798.66889
4807.2729
-6813.3674
2768.4376
-628.14408
8493.5801
6749.2621
815.09421
5369.2008
-5179.9187
3515.8621
1640.9153
8359.9619
6999.3998
871.22959
5943.0071
-4265.7411
5091.4577
809.54385
8977.1973
7748.9449
1997.9472
6661.2408
-1820.4296
4976.9045
1923.5776
9736.3301
9015.9471
2547.6235
7895.4605
-1844.6555
5804.6689
2533.8903
9954.7992
9257.6676
4062.6877
6830.0202
-378.64261
6465.921
3170.638
11088.984
9464.3569
5082.3668
7213.6177
1807.6731
7188.3787
3544.4817
11108.017
9473.8318
6416.8042
7186.4598
4202.3253
6864.442
4195.575
10954.484
11344.293
7162.875
8050.4451
5707.3553
6914.3261
5358.9761
12333.854
10701.536
7771.9234
7925.8033
6248.7341
7417.8865
4955.0845
11860.519
10220.981
8372.8197
7855.1967
6614.5225
7707.7914
4806.2387
12138.273
10392.748
9076.8918
8677.7852
7893.561
8153.3879
5671.9497
11620.669
10633.478
9281.141
8618.0474
7641.5246
8127.0754
5757.1325
11408.32
10509.289
9315.8558
8743.7421
8306.4728
8615.4017
5972.8297
10883.389
10402.878
9404.3399
9171.982
8230.9041
8856.2207
5787.5446
10608.631