/*--------------------------------*- C++ -*----------------------------------*\
  =========                 |
  \\      /  F ield         | OpenFOAM: The Open Source CFD Toolbox
   \\    /   O peration     | Website:  https://openfoam.org
    \\  /    A nd           | Version:  6
     \\/     M anipulation  |
\*---------------------------------------------------------------------------*/
FoamFile
{
    version     2.0;
    format      ascii;
    class       pointVectorField;
    location    "0.79";
    object      lm;
}
// * * * * * * * * * * * * * * * * * * * * * * * * * * * * * * * * * * * * * //

dimensions      [1 -2 -1 0 0 0 0];

internalField   nonuniform List<vector> 
3969
(
(0 0 0)
(0 0 0)
(1897.5501 -1010.9423 111.83777)
(1535.4238 -1536.7122 27.504399)
(0 0 0)
(0 0 0)
(1597.9586 -1593.5491 27.177485)
(1959.6662 -1065.3457 111.02211)
(0 0 0)
(0 0 0)
(0 0 0)
(0 0 0)
(0 0 0)
(0 0 0)
(0 0 0)
(1819.6473 -1055.2642 100.12162)
(1738.0833 -1095.2705 87.985472)
(1693.504 -1157.5608 77.657722)
(1681.759 -1244.5561 68.487327)
(1678.9724 -1343.14 59.330261)
(1657.7982 -1431.1705 49.07339)
(1605.1818 -1493.0562 38.325786)
(-3.2424215 -8.1078238 -6.6357654)
(-6.4527303 -11.193324 -8.3476324)
(-11.269572 -15.364719 -10.080908)
(-17.880267 -18.548113 -11.175955)
(-26.364341 -20.873205 -11.921096)
(-36.916372 -21.823269 -11.660986)
(-49.266647 -20.841302 -11.024334)
(-63.239469 -17.977154 -8.8684541)
(-77.782688 -12.405824 -6.4828782)
(-93.084491 -4.9309911 -2.659544)
(-107.90561 5.4434175 1.952373)
(-121.21585 18.40933 6.9870059)
(-132.33815 33.910807 12.732257)
(-139.8888 51.480834 18.752654)
(-142.45809 70.929061 24.797778)
(-139.52452 91.325722 30.895989)
(-129.57004 112.01727 36.614359)
(-111.7124 132.26064 41.943957)
(-85.167369 150.828 46.739814)
(-49.299001 166.74366 50.857953)
(-3.8241871 178.79196 54.427457)
(51.291127 186.00133 57.347098)
(115.74314 187.20389 59.796544)
(188.89348 181.68744 61.788192)
(269.70712 168.63074 63.56092)
(357.19564 147.9539 65.210943)
(449.708 119.34499 67.024493)
(545.8422 82.810244 69.002583)
(643.90311 38.998809 71.304499)
(742.20474 -11.307948 74.132037)
(839.33021 -67.29667 77.381029)
(933.92184 -127.82639 81.121153)
(1024.8277 -191.63337 85.199852)
(1111.3061 -257.66907 89.524305)
(1192.7296 -324.46046 93.926857)
(1268.8359 -391.16176 98.061113)
(1339.7125 -456.76474 101.95311)
(1405.3329 -520.32143 105.32282)
(1466.2679 -581.61006 107.99692)
(1522.5263 -639.51747 110.029)
(1575.0705 -694.68437 111.37359)
(1623.9011 -746.00235 112.26058)
(1669.5933 -794.47621 112.36736)
(1713.1867 -839.82739 112.43711)
(1753.8991 -881.47472 111.93306)
(1793.6544 -922.15009 111.36346)
(1834.7163 -960.996 110.62634)
(2.1298426 6.8188844 9.3144477)
(-3.9532091 8.658831 2.680824)
(-8.2574413 15.423536 3.503873)
(-13.84628 18.62236 -3.0677006)
(-21.929126 26.26714 -6.2244798)
(-32.195107 32.984646 -12.053212)
(-43.387327 39.086559 -16.790156)
(-56.687919 45.797147 -22.687978)
(-71.462049 51.559442 -28.613767)
(-87.17241 56.045056 -35.015028)
(-104.10312 59.668763 -41.536694)
(-121.2162 60.732219 -49.01142)
(-138.29121 60.141991 -56.010157)
(-154.60702 56.459078 -63.650159)
(-168.98919 49.382726 -71.241529)
(-181.0359 38.74985 -78.657796)
(-189.2302 23.592301 -85.660018)
(-193.3183 4.276541 -92.04046)
(-191.59547 -20.511073 -97.359636)
(-183.86255 -50.062261 -101.54534)
(-169.03379 -85.341584 -104.09067)
(-146.43752 -125.77629 -105.02974)
(-115.9829 -171.86243 -103.79489)
(-77.120213 -222.93109 -100.65731)
(-30.248073 -278.6704 -95.550411)
(24.678802 -338.60317 -88.386718)
(86.785667 -402.0682 -79.40325)
(155.91797 -469.02684 -68.799074)
(230.84354 -537.76838 -57.03036)
(310.35862 -607.79579 -44.302418)
(393.30465 -678.40158 -31.239537)
(478.32479 -748.48466 -18.270511)
(564.27472 -817.55033 -5.8972833)
(649.82819 -884.77748 5.4317176)
(734.12553 -949.69607 15.332492)
(815.95952 -1011.9003 23.483234)
(895.0706 -1071.1502 30.002163)
(970.415 -1127.1024 34.296903)
(1042.0416 -1179.5322 37.065974)
(1109.78 -1229.173 38.181839)
(1173.3729 -1275.2153 38.139618)
(1233.2104 -1318.2318 36.934321)
(1289.3755 -1358.5561 35.265655)
(1342.0703 -1396.0306 33.212492)
(1391.6265 -1431.218 31.245852)
(1438.4686 -1464.2888 29.433047)
(1485.421 -1498.5648 28.284477)
(0 0 0)
(0 0 0)
(0 0 0)
(0 0 0)
(0 0 0)
(0 0 0)
(0 0 0)
(-3.7861342 8.1694671 -10.575099)
(-3.2696741 23.974173 -18.649184)
(-3.7967693 18.620378 -22.957892)
(-2.0419001 29.02127 -27.753642)
(-9.2412608 35.617713 -30.418632)
(-13.726801 37.501364 -32.833449)
(-22.050178 44.825396 -33.202126)
(-33.10219 47.396175 -34.284184)
(-44.08597 50.480703 -31.949549)
(-58.736487 54.054375 -31.239233)
(-72.613722 51.7371 -27.221611)
(-87.758922 52.327877 -24.581971)
(-103.17556 47.425805 -19.709167)
(-116.89681 40.90597 -15.890943)
(-129.37558 31.229899 -11.880877)
(-138.35927 16.396772 -8.5487389)
(-144.1661 -1.8432059 -5.7651718)
(-145.10561 -26.055458 -3.9551754)
(-140.84516 -55.276999 -2.9174439)
(-130.48154 -90.39499 -2.8715024)
(-113.54142 -131.31941 -3.5589402)
(-89.517251 -178.04747 -4.9364965)
(-58.054174 -230.29086 -6.8437212)
(-19.13528 -287.59901 -9.0024628)
(27.426098 -350.0731 -11.542422)
(81.812591 -416.18766 -14.10048)
(141.13695 -485.1751 -15.01856)
(207.56045 -555.89142 -15.794431)
(279.39828 -627.85475 -15.586308)
(355.87355 -699.91025 -14.493223)
(435.97051 -771.17835 -12.398743)
(518.55702 -840.82683 -9.2711746)
(602.6469 -908.24587 -5.3214492)
(687.22777 -972.89034 -0.69330031)
(771.34664 -1034.3963 4.1703768)
(854.14781 -1092.9901 9.3368383)
(934.9447 -1148.8349 13.565281)
(1012.7621 -1199.7776 18.192462)
(1087.5657 -1249.2332 21.141238)
(1158.6872 -1295.4119 23.899738)
(1225.8301 -1339.0065 25.562627)
(1289.044 -1380.0916 26.471443)
(1347.9606 -1418.8675 26.902636)
(1402.8612 -1455.387 26.938906)
(1453.8722 -1489.8558 26.792638)
(1501.3369 -1522.4854 26.662781)
(1541.6377 -1549.5011 26.543577)
(1669.0318 -1550.5059 38.345702)
(1720.9715 -1486.4224 49.503106)
(1738.9697 -1396.1696 58.949853)
(1733.596 -1290.4932 67.219784)
(1750.0504 -1207.3833 76.017155)
(1800.1372 -1148.9704 86.298392)
(1884.6191 -1110.8622 98.506457)
(1897.283 -1015.6067 112.0169)
(1866.1757 -982.13213 114.8892)
(1826.7735 -943.56785 117.80676)
(1785.3346 -903.04727 120.64304)
(1741.2575 -860.37771 123.52206)
(1693.9571 -815.09044 125.92415)
(1642.9279 -767.01965 127.53295)
(1587.7933 -715.99043 128.14187)
(1528.0759 -661.99587 127.29332)
(1463.3794 -604.84511 124.81152)
(1393.8957 -545.19412 120.39173)
(1317.8937 -481.13623 113.92888)
(1239.0482 -418.57208 106.05715)
(1153.6764 -352.34953 95.820093)
(1064.2348 -286.66313 84.281997)
(970.91697 -221.78394 71.398122)
(874.69472 -159.0747 57.788366)
(776.68192 -99.713366 43.744411)
(678.06322 -45.129 29.978619)
(580.40237 3.811837 16.580773)
(485.05747 45.982911 4.3164368)
(393.54646 80.796134 -6.6979154)
(307.2945 107.94112 -16.20213)
(227.43074 127.29018 -24.041123)
(155.20653 139.08463 -30.125967)
(91.322814 143.79513 -34.459531)
(36.374405 142.25908 -37.215141)
(-9.3703631 135.27692 -38.401115)
(-45.99324 124.05088 -38.384212)
(-73.677405 109.59429 -37.255008)
(-93.12955 93.133618 -35.285304)
(-104.97107 75.667739 -32.862097)
(-110.53764 58.906511 -30.019421)
(-109.55361 41.564314 -26.628265)
(-104.16127 26.566 -23.52422)
(-95.788549 13.956474 -20.277059)
(-84.691071 3.5070544 -17.494902)
(-72.435312 -4.5960274 -14.787019)
(-59.375764 -9.5864734 -11.910366)
(-46.571238 -13.500485 -9.7159354)
(-34.556463 -14.684715 -6.8280034)
(-23.836616 -13.682598 -4.9063982)
(-14.850429 -12.837469 -2.5080177)
(-7.2668208 -9.6107033 -0.37889715)
(-2.5449061 -7.6426718 1.212037)
(2.0073484 -3.2630421 2.9701855)
(1.0673 -2.6725811 2.9132549)
(0 0 0)
(0 0 0)
(0 0 0)
(0 0 0)
(0 0 0)
(0 0 0)
(0 0 0)
(0 0 0)
(0 0 0)
(0 0 0)
(0 0 0)
(0 0 0)
(0 0 0)
(0 0 0)
(1543.336 -1542.9121 27.681542)
(1551.0711 -1549.514 27.848503)
(1558.7965 -1556.631 27.778267)
(1566.6002 -1564.0536 27.596553)
(1574.3854 -1571.4173 27.390283)
(1582.2725 -1579.0793 26.763391)
(1590.2782 -1586.2066 27.08213)
(1904.8028 -1018.3884 111.61179)
(1912.4 -1025.2698 111.64556)
(1919.835 -1032.3114 111.82966)
(1927.26 -1039.3042 111.84493)
(1934.928 -1046.1563 111.79257)
(1942.7115 -1052.8536 111.65399)
(1950.9722 -1059.4021 111.12731)
(-1.2415684 -3.4956098 -6.4446745)
(-6.339941 -6.5593185 -4.415559)
(-9.7261409 -9.4670497 -8.1780812)
(-17.058298 -11.54612 -8.9201065)
(-23.905758 -11.830678 -10.859128)
(-34.969102 -11.407784 -11.461673)
(-46.585215 -9.1201638 -11.386781)
(-60.749828 -5.19819 -10.732427)
(-75.837142 0.65672541 -9.1030932)
(-91.876251 8.6001138 -6.4561881)
(-108.02095 19.118245 -3.2649519)
(-123.39744 31.379602 0.57206843)
(-136.88779 46.156899 5.1041308)
(-147.32603 62.213931 9.8715812)
(-153.42056 79.437071 14.741391)
(-153.82996 97.23758 19.41844)
(-147.53531 114.6033 23.935515)
(-133.15685 130.5051 28.027814)
(-110.03357 143.82711 31.611292)
(-77.343596 153.47007 34.640172)
(-34.893186 158.3303 37.178873)
(17.296922 157.37497 39.201775)
(78.918561 149.82942 40.931597)
(149.05052 135.0656 42.43745)
(226.89431 112.76373 44.034502)
(310.91576 82.787315 45.62535)
(399.64392 45.558279 47.688953)
(491.74212 1.4544044 50.106639)
(585.25744 -48.586076 53.131389)
(678.78339 -103.54766 56.670966)
(770.94928 -162.43821 60.797474)
(860.47618 -224.01326 65.321745)
(946.44445 -287.17232 70.194589)
(1028.2134 -350.83563 75.14935)
(1105.2578 -413.99363 79.946061)
(1177.6034 -476.09224 84.529692)
(1245.2368 -536.21966 88.585054)
(1308.3699 -594.06962 91.920865)
(1367.4562 -649.42792 94.648928)
(1422.9445 -701.90408 96.608468)
(1475.4314 -751.90104 97.971838)
(1525.0294 -798.95263 98.68375)
(1572.9237 -843.91807 99.026698)
(1619.0009 -886.35582 98.975571)
(1663.6643 -926.81472 98.776772)
(1708.3787 -966.5087 98.63225)
(1756.7075 -1006.648 98.766316)
(0.5792226 -4.1133396 -5.1546613)
(-3.2918461 -4.4613389 -5.5482416)
(-8.5563873 -8.6421572 -8.1744563)
(-14.351964 -8.2111067 -9.8322877)
(-23.883612 -9.0100659 -11.015842)
(-34.727994 -7.7509002 -12.02185)
(-48.359882 -4.8904885 -12.512427)
(-63.566348 -0.5538149 -12.734659)
(-80.664188 5.9201448 -11.722218)
(-98.942309 14.506251 -10.384454)
(-117.32995 24.745173 -8.5113699)
(-135.26712 37.272268 -5.7829702)
(-151.42508 51.197323 -2.8283038)
(-164.38587 66.114096 0.51806073)
(-172.78692 81.540707 3.9613859)
(-175.64509 96.820995 7.2511506)
(-171.24689 110.69235 10.299068)
(-158.79255 122.26559 13.054202)
(-137.22467 130.34556 15.405725)
(-106.09522 133.91055 17.43138)
(-65.282138 131.97259 19.102403)
(-14.919892 123.86075 20.594083)
(44.031091 109.03789 22.059582)
(111.07609 87.22669 23.657967)
(184.56672 58.34794 25.425945)
(263.33022 22.921847 27.753774)
(345.81191 -18.690185 30.408459)
(430.3016 -65.649038 33.737356)
(515.55655 -116.86788 37.508093)
(600.08948 -171.5214 41.776786)
(682.87174 -228.45894 46.422652)
(762.89666 -286.73656 51.331344)
(839.70805 -345.49536 56.334293)
(912.81803 -403.87563 61.151331)
(982.35291 -461.50988 65.832839)
(1048.322 -517.6935 69.947759)
(1111.1201 -572.4118 73.637509)
(1171.1967 -625.34341 76.619147)
(1229.2417 -676.80155 79.132358)
(1285.5934 -726.34253 80.903509)
(1340.9261 -774.84822 82.456823)
(1395.8431 -821.72158 83.341013)
(1450.6546 -868.11722 84.235055)
(1506.1522 -913.59278 84.811052)
(1562.1791 -958.70338 85.422518)
(1619.9826 -1004.5097 86.194995)
(1679.2433 -1050.0698 86.92912)
(-0.065338762 -2.3584864 -2.9729796)
(-4.1069332 -4.6335259 -3.2176046)
(-7.1696647 -5.9100523 -6.4594428)
(-15.235261 -6.3599282 -8.0749422)
(-24.439855 -5.6564136 -10.42029)
(-36.514942 -3.4126355 -12.282009)
(-50.981509 0.13086783 -14.037673)
(-67.644138 5.4751313 -15.061637)
(-86.6307 12.445766 -15.569276)
(-106.27353 21.085637 -15.731622)
(-127.019 31.659475 -14.979257)
(-147.09944 43.45203 -13.778955)
(-165.1913 56.311586 -12.574947)
(-180.11952 69.214204 -10.838259)
(-190.38538 81.855199 -9.0125209)
(-194.37531 93.420095 -7.610943)
(-191.1678 102.67719 -6.0072737)
(-179.60393 108.87296 -4.8403611)
(-159.09351 110.85967 -3.6050898)
(-129.43366 108.10327 -2.5831454)
(-90.617135 99.827452 -1.4053565)
(-43.331186 85.618532 -0.12575133)
(12.225 65.227836 1.4450711)
(74.361204 38.604865 3.2443108)
(142.21756 6.3423747 5.7332912)
(214.28172 -31.350183 8.5253385)
(289.24633 -73.698283 11.923822)
(365.60224 -119.81936 15.975952)
(442.24048 -169.00646 20.491424)
(518.05349 -220.35324 25.411071)
(592.25688 -273.02759 30.700505)
(664.30776 -326.4633 36.129524)
(733.86415 -380.03649 41.549991)
(800.97651 -433.41429 46.855711)
(865.70748 -486.28228 51.795559)
(928.44394 -538.57626 56.337998)
(989.71755 -590.24467 60.317044)
(1050.0622 -641.49333 63.771875)
(1110.0496 -692.32901 66.604975)
(1170.3602 -743.16404 68.937066)
(1231.6094 -794.13872 70.742048)
(1294.2702 -845.41576 72.087544)
(1358.6604 -897.56412 73.383484)
(1425.574 -950.33636 74.138302)
(1494.2507 -1004.1225 75.253565)
(1566.3641 -1059.7023 76.186687)
(1636.7745 -1113.3896 77.119221)
(2.8968306 -0.87247635 -2.2815522)
(0.42950903 -2.0167358 -4.2538791)
(-5.5188844 -3.7551782 -6.0957869)
(-12.442541 -2.9472854 -9.1473328)
(-23.332807 -2.0993363 -11.432489)
(-36.36868 0.53311845 -14.415384)
(-52.57529 4.6230371 -16.26806)
(-70.897062 10.415745 -18.497323)
(-91.302577 17.224527 -20.024396)
(-113.17493 25.844989 -20.893053)
(-135.44242 35.031767 -21.869761)
(-156.33839 45.224538 -22.589379)
(-175.32536 55.377823 -23.294244)
(-190.74931 64.876316 -23.420299)
(-201.43999 73.65476 -24.084039)
(-205.85025 80.226499 -24.161685)
(-203.4014 84.42427 -24.426153)
(-192.83364 84.901106 -24.363281)
(-174.17905 81.475143 -24.131379)
(-146.77738 73.289252 -23.546326)
(-111.12721 60.127204 -22.619191)
(-67.144072 41.645785 -21.173024)
(-16.695602 18.018023 -19.193669)
(40.188062 -10.412737 -16.410904)
(102.06892 -43.630354 -13.123996)
(167.88796 -81.04855 -9.0486624)
(236.46624 -122.13839 -4.2180665)
(306.75282 -166.37072 1.1163663)
(377.82043 -213.07853 6.8674022)
(448.86351 -261.70147 12.99745)
(519.29402 -311.75547 19.297583)
(588.6545 -362.7547 25.590567)
(656.76325 -414.48809 31.81867)
(723.56472 -466.49625 37.66209)
(789.21066 -518.95969 43.180956)
(853.99927 -571.55436 48.042196)
(918.32692 -624.54823 52.378867)
(982.73823 -677.91442 55.954422)
(1047.3621 -731.78743 58.93952)
(1113.1666 -786.44089 61.149446)
(1180.4715 -842.04423 62.954913)
(1249.4285 -898.63474 64.2112)
(1320.5944 -956.61217 65.326542)
(1394.1885 -1015.6718 65.940301)
(1469.7844 -1076.3184 67.039389)
(1548.8193 -1138.8123 67.590071)
(1623.5006 -1197.9027 68.50293)
(5.5399898 -0.64448085 -0.5384618)
(-0.89673661 -4.1167175 -0.47528676)
(-5.0772984 -2.656915 -3.89989)
(-13.492795 -1.6227697 -7.0030537)
(-25.205102 1.1061015 -10.14215)
(-37.948763 5.1807236 -13.886098)
(-55.056753 9.8698654 -17.099965)
(-72.779158 16.28496 -20.600408)
(-93.727929 22.457374 -23.416193)
(-114.79538 30.250585 -26.656648)
(-136.62757 37.522647 -29.651522)
(-157.3705 45.840652 -32.176788)
(-176.01866 52.187908 -34.422024)
(-191.30443 58.60064 -36.876336)
(-202.20382 62.461573 -38.798552)
(-207.60486 64.473809 -40.565381)
(-206.37277 63.335285 -42.116356)
(-198.12552 58.932728 -43.1241)
(-182.14308 50.702697 -43.717425)
(-158.56088 38.163339 -43.543113)
(-126.9793 21.568409 -42.864082)
(-88.970671 0.14895303 -41.055065)
(-43.313676 -25.798703 -38.693354)
(8.5481787 -56.272883 -35.373504)
(65.869629 -90.890358 -31.127009)
(127.55871 -129.15298 -26.123101)
(192.92142 -170.97685 -20.456029)
(260.98892 -215.75225 -14.257151)
(330.92942 -263.10582 -7.5121799)
(402.07962 -312.6165 -0.44529394)
(473.72934 -363.93971 6.8418719)
(545.48054 -416.72356 14.164428)
(616.83087 -470.67835 21.381936)
(687.72679 -525.46023 28.223882)
(757.87539 -581.1076 34.693556)
(827.48345 -637.1884 40.452514)
(896.49899 -693.87755 45.498697)
(966.122 -751.44637 49.798238)
(1043.2818 -815.53938 53.533049)
(1114.5419 -875.41537 56.267751)
(1183.8072 -933.77617 58.024472)
(1254.1579 -992.85807 59.227823)
(1325.4114 -1052.3196 59.768821)
(1397.7864 -1112.356 60.033816)
(1471.1915 -1173.0305 60.144286)
(1546.2244 -1234.5029 59.943185)
(1616.9609 -1292.6241 59.982824)
(5.0994566 0.76901036 3.1228646)
(-1.1081469 0.57438911 0.67529003)
(-5.0916048 3.3851767 -3.0854204)
(-13.630191 5.2875928 -5.7778871)
(-23.825313 10.011776 -10.519452)
(-36.844101 13.67926 -14.131558)
(-52.118521 19.035854 -18.435562)
(-69.323165 24.727064 -22.634142)
(-88.335422 30.204409 -26.520035)
(-108.0083 36.488678 -30.914942)
(-128.25559 41.55607 -34.930711)
(-147.58579 46.160318 -39.147119)
(-165.47314 49.588802 -43.430116)
(-180.59109 51.408886 -47.368408)
(-192.22056 51.103498 -51.245055)
(-199.09781 48.372787 -54.747615)
(-200.65223 42.555531 -57.927982)
(-195.93394 33.565062 -60.30486)
(-184.634 20.61677 -62.136254)
(-166.15739 3.9143898 -62.918846)
(-140.54692 -17.307461 -62.964785)
(-107.01781 -42.353819 -61.413424)
(-67.191272 -72.469847 -59.685348)
(-19.868069 -107.27205 -55.827678)
(33.708865 -145.73941 -51.240653)
(92.772488 -188.28388 -45.566458)
(157.12921 -234.38649 -38.786701)
(225.67857 -283.78904 -31.128259)
(297.75362 -336.11342 -22.851049)
(372.41764 -391.06742 -14.025944)
(448.89563 -448.05121 -4.939892)
(526.42306 -506.66903 4.2103481)
(604.28584 -566.44492 13.130007)
(681.87052 -626.88262 21.544103)
(758.74103 -687.76897 29.330702)
(834.42772 -748.40769 36.06287)
(908.89457 -808.95251 41.86099)
(981.8777 -868.82816 46.284429)
(1054.993 -929.29378 49.972314)
(1140.2128 -1000.528 52.643933)
(1205.6664 -1055.4513 53.824687)
(1273.063 -1111.7494 53.93019)
(1338.9782 -1166.9346 53.647187)
(1404.0039 -1220.9736 52.702987)
(1468.0244 -1274.2972 51.816034)
(1531.5703 -1326.7175 50.766461)
(1592.9306 -1377.5741 50.138572)
(4.3341499 2.0823217 5.4332805)
(-2.0148203 3.2465268 1.7548838)
(-5.8924253 7.3511877 0.064042923)
(-13.211847 11.424357 -4.1325851)
(-23.099455 16.373419 -8.9182083)
(-34.088185 21.524121 -12.732635)
(-48.072109 27.381935 -18.281736)
(-63.225778 33.039449 -22.611475)
(-80.368019 38.040867 -28.097749)
(-98.449639 43.55951 -33.257728)
(-116.88432 46.425753 -38.726723)
(-135.73821 49.763059 -44.572302)
(-153.0169 50.036487 -49.886441)
(-169.08039 49.292522 -55.854232)
(-182.09705 45.523978 -61.201508)
(-191.75516 39.084474 -66.546514)
(-196.69819 29.223162 -71.247838)
(-196.42758 15.692247 -75.376481)
(-189.95085 -1.9300586 -78.651965)
(-176.74963 -23.840761 -80.924965)
(-156.14313 -50.45228 -81.979863)
(-128.16846 -81.651677 -81.66711)
(-91.855652 -117.98974 -79.989388)
(-48.328481 -159.24036 -76.732929)
(2.976018 -204.92808 -72.202303)
(61.269009 -255.24646 -65.945558)
(126.19942 -309.61818 -58.41959)
(196.99513 -367.65225 -49.754599)
(272.51054 -428.94934 -40.072947)
(351.65044 -492.66222 -29.633521)
(433.40125 -558.12586 -18.773846)
(516.5667 -624.66482 -7.8669513)
(600.11114 -691.42369 2.7388725)
(683.09326 -757.8362 12.699073)
(764.59784 -823.24453 21.729284)
(844.09851 -886.93996 29.41954)
(921.03465 -948.97713 35.82389)
(995.05994 -1008.4448 40.607949)
(1066.2316 -1065.6455 43.977125)
(1135.4118 -1121.3848 45.948738)
(1198.9752 -1171.8635 46.553162)
(1261.4741 -1221.6103 46.237411)
(1321.2597 -1268.6822 45.169357)
(1378.6997 -1313.8199 43.704328)
(1434.0043 -1356.9729 42.139891)
(1487.4451 -1398.4377 40.595302)
(1540.3319 -1439.6122 39.396918)
(0 0 0)
(0 0 0)
(0 0 0)
(0 0 0)
(0 0 0)
(0 0 0)
(0 0 0)
(0 0 0)
(0 0 0)
(0 0 0)
(0 0 0)
(0 0 0)
(0 0 0)
(0 0 0)
(0 0 0)
(0 0 0)
(0 0 0)
(0 0 0)
(0 0 0)
(0 0 0)
(0 0 0)
(0 0 0)
(0 0 0)
(0 0 0)
(0 0 0)
(0 0 0)
(0 0 0)
(0 0 0)
(0 0 0)
(0 0 0)
(0 0 0)
(0 0 0)
(0 0 0)
(0 0 0)
(0 0 0)
(0 0 0)
(0 0 0)
(0 0 0)
(0 0 0)
(0 0 0)
(0 0 0)
(0 0 0)
(0 0 0)
(0 0 0)
(0 0 0)
(0 0 0)
(0 0 0)
(0 0 0)
(0 0 0)
(-1.9529123 1.2379155 4.316286)
(-2.2582147 2.9849447 2.2960128)
(-3.9670829 3.0069839 0.05769748)
(-4.4711229 3.1564793 -2.0859614)
(-4.0849811 2.8980795 -3.4132547)
(-4.1516038 3.6524076 -4.8383507)
(-4.4158719 0.70974657 -5.9168636)
(-5.7956154 15.096814 1.8309288)
(-6.7170638 19.586079 -1.809432)
(-7.6032731 17.20774 -4.2910623)
(-7.627131 15.93395 -6.5973446)
(-7.8440214 17.812272 -8.7679882)
(-6.7061836 17.478052 -11.185906)
(-6.0264258 17.710662 -14.991742)
(-10.151697 16.088492 -0.042910718)
(-13.294234 14.439472 -2.2181534)
(-13.838691 17.597513 -7.0591567)
(-12.784831 17.092143 -10.474413)
(-12.319016 15.500376 -13.349023)
(-10.726054 14.943314 -15.415072)
(-8.5128736 17.747935 -21.773371)
(-14.186419 23.868683 -6.1103094)
(-14.151385 25.325518 -7.9067104)
(-13.712123 24.961221 -12.884438)
(-13.071136 24.626007 -14.233545)
(-11.954778 24.550717 -17.446105)
(-9.431763 26.202342 -22.118122)
(-6.4000684 25.72832 -24.037251)
(-22.882012 32.468497 -8.8853512)
(-23.061729 32.794338 -11.976999)
(-22.920586 34.56682 -15.040997)
(-21.233343 34.002317 -18.693431)
(-19.538953 33.786638 -21.422425)
(-17.234149 33.011336 -24.343898)
(-14.206038 34.408465 -28.230484)
(-30.873956 36.40205 -14.78178)
(-30.152355 37.649521 -17.144486)
(-28.873194 37.795505 -20.262591)
(-27.440382 38.203577 -22.920197)
(-24.876463 37.85835 -25.172942)
(-22.600464 39.090935 -28.876953)
(-18.491706 37.79691 -30.864674)
(-41.855162 45.209238 -18.844813)
(-40.199034 45.791263 -21.284758)
(-38.427596 46.59259 -24.016669)
(-35.406903 46.317326 -25.289246)
(-33.409623 45.675394 -28.43442)
(-29.445389 45.059984 -29.805037)
(-26.706757 45.782515 -32.017801)
(-53.682216 49.930121 -24.532443)
(-51.133131 51.009672 -26.165994)
(-48.272935 51.793642 -27.578085)
(-46.291292 51.351904 -28.818217)
(-43.270047 51.212716 -30.271532)
(-40.698097 50.566125 -31.940863)
(-37.47492 49.573182 -33.404389)
(-66.959068 56.282491 -29.532794)
(-63.453509 57.02707 -30.087223)
(-60.448256 56.212429 -31.186668)
(-56.76612 55.595338 -31.664708)
(-53.861899 54.423584 -32.179452)
(-50.122068 53.354943 -32.209559)
(-47.240373 52.852195 -32.448071)
(-81.719465 60.194983 -35.0133)
(-77.162253 60.32507 -34.915121)
(-72.838871 60.610849 -34.784343)
(-69.185191 59.081317 -33.910421)
(-66.198199 58.777361 -33.513635)
(-63.285175 57.702197 -32.642724)
(-60.937512 56.722658 -32.169013)
(-96.665704 62.981104 -40.547882)
(-91.010908 62.8563 -39.356273)
(-86.420258 61.754885 -37.424386)
(-82.660363 60.884493 -36.021538)
(-79.246745 59.239827 -34.035214)
(-76.212927 57.515817 -32.170108)
(-73.970299 56.272331 -29.925596)
(-112.35914 64.184986 -46.82025)
(-105.88434 63.03692 -43.899041)
(-100.33865 61.696734 -41.230868)
(-95.405512 59.393628 -37.990849)
(-92.019015 57.893926 -34.258204)
(-89.869302 57.021681 -31.604443)
(-87.514894 55.460771 -27.988607)
(-127.47082 61.886718 -52.152169)
(-120.26216 60.508007 -48.432823)
(-113.57458 58.046227 -44.054212)
(-109.05616 56.452899 -39.604078)
(-105.4013 54.796421 -34.774306)
(-102.90971 52.661591 -30.421212)
(-101.73792 51.939802 -24.663267)
(-142.25085 57.647799 -58.870449)
(-133.732 54.889084 -53.311613)
(-126.33467 51.912491 -47.785063)
(-121.03909 49.31101 -41.751615)
(-117.00364 46.488496 -35.141344)
(-115.12703 45.460538 -29.41887)
(-114.16852 43.994153 -21.988044)
(-154.95844 48.73389 -64.929017)
(-145.44073 45.350955 -57.988387)
(-137.37205 41.800062 -51.019252)
(-131.70769 38.663964 -43.305573)
(-127.80412 36.47783 -35.594319)
(-126.01418 34.660675 -28.123848)
(-125.77079 33.661191 -19.287492)
(-165.39222 36.772034 -71.155473)
(-155.04538 32.416477 -62.914073)
(-146.00068 27.552324 -54.489371)
(-140.08683 24.044963 -45.787466)
(-135.75969 20.756639 -36.213556)
(-134.25085 18.910306 -27.787159)
(-134.19965 18.089047 -17.161434)
(-172.64225 19.938196 -77.083715)
(-161.22088 14.227313 -67.436791)
(-151.61759 8.8518436 -58.104037)
(-145.28951 4.6772661 -47.627977)
(-140.82771 1.1079 -37.305677)
(-139.30153 -0.60086423 -27.353128)
(-139.55953 -1.6595826 -15.464645)
(-175.47967 -1.6040427 -82.416869)
(-163.48507 -8.2593082 -72.021928)
(-153.10075 -14.737317 -61.294659)
(-146.48124 -19.740598 -50.126225)
(-141.71629 -23.6602 -38.573953)
(-140.23026 -25.87477 -27.635219)
(-140.55653 -26.656532 -14.629304)
(-173.42726 -28.221858 -87.207061)
(-160.74169 -36.0028 -75.702216)
(-149.93795 -43.427932 -64.443219)
(-142.97989 -48.811181 -52.283459)
(-137.95462 -53.524021 -39.988308)
(-136.31429 -55.750808 -28.266348)
(-136.55178 -56.990923 -14.40753)
(-165.42893 -60.019839 -90.762089)
(-152.35296 -69.053379 -78.876963)
(-141.2235 -77.30026 -67.04729)
(-133.9303 -83.710881 -54.350968)
(-128.63899 -88.828269 -41.604822)
(-126.75472 -91.570048 -29.258636)
(-126.79339 -92.80194 -14.894374)
(-150.78879 -97.376714 -93.227479)
(-137.60309 -107.32763 -81.048942)
(-126.24397 -116.62702 -68.965916)
(-118.66642 -123.46902 -56.067851)
(-113.15718 -129.3694 -43.055103)
(-110.90285 -132.33016 -30.484075)
(-110.66456 -134.134 -15.910633)
(-129.02044 -139.86505 -94.132123)
(-115.85247 -151.0009 -82.024027)
(-104.40846 -160.99423 -70.044455)
(-96.730702 -168.70046 -57.210409)
(-90.928816 -175.13144 -44.317438)
(-88.352514 -178.72186 -31.761779)
(-87.668279 -181.01378 -17.301173)
(-99.574482 -187.74738 -93.297911)
(-86.63996 -199.62664 -81.647054)
(-75.410721 -210.40067 -70.071263)
(-67.565849 -218.72917 -57.651342)
(-61.676437 -225.98449 -45.148619)
(-58.591573 -230.12652 -32.963082)
(-57.398155 -233.1052 -18.953086)
(-62.183387 -240.2082 -90.69735)
(-49.817024 -253.12186 -79.860831)
(-38.805786 -264.40453 -68.974747)
(-31.073723 -273.62118 -57.132425)
(-24.840484 -281.25882 -45.46405)
(-21.31634 -286.02366 -33.759001)
(-19.655222 -289.83327 -20.575667)
(-17.054333 -297.2841 -86.557443)
(-5.0421591 -310.79621 -76.43381)
(5.2560091 -322.37378 -66.51025)
(13.129819 -332.34817 -55.480093)
(19.182689 -340.41477 -45.022466)
(23.033813 -346.44577 -34.040505)
(25.236179 -351.39027 -22.377948)
(35.828283 -358.05347 -80.390377)
(47.129309 -371.98667 -71.53642)
(56.613099 -384.28739 -62.742523)
(64.468989 -394.69101 -52.544514)
(70.375554 -403.24447 -43.810373)
(75.126852 -410.04384 -33.805154)
(78.110389 -415.83353 -24.002394)
(96.016434 -422.14565 -72.62285)
(106.48427 -436.40699 -65.38017)
(115.28289 -449.12042 -57.146798)
(123.07713 -459.86655 -49.311369)
(129.29758 -469.19713 -40.860614)
(134.00634 -476.74303 -32.206444)
(137.17684 -483.23898 -23.633023)
(163.29681 -489.0368 -63.367729)
(172.30361 -503.14963 -57.320588)
(180.65589 -516.24831 -50.563073)
(187.86447 -526.83796 -44.230716)
(194.0107 -536.88262 -36.939621)
(199.17177 -544.77368 -30.137317)
(202.66045 -552.82894 -22.819284)
(236.18865 -557.27644 -52.820177)
(244.2159 -571.5124 -47.97677)
(251.49646 -584.32783 -43.039139)
(258.57376 -595.40738 -37.70252)
(264.31458 -605.71331 -32.321065)
(269.87085 -614.47923 -26.779174)
(273.74787 -623.31913 -21.154155)
(313.98844 -626.7166 -41.262671)
(320.8253 -640.44499 -38.036849)
(327.4988 -653.33712 -34.211979)
(333.97122 -664.33695 -30.543921)
(339.67224 -675.01921 -26.511566)
(345.4659 -684.24933 -22.498521)
(349.66746 -693.93865 -18.506656)
(395.36837 -696.08977 -29.374653)
(401.31044 -709.5014 -27.325758)
(407.16153 -721.96002 -24.923679)
(413.26025 -733.02156 -22.519703)
(418.8823 -743.79568 -19.981331)
(424.75827 -753.4969 -17.296445)
(429.36646 -763.83868 -14.963641)
(479.29434 -764.92467 -17.372848)
(484.41051 -777.6684 -16.564336)
(489.65034 -789.77163 -15.206332)
(495.36998 -800.70089 -14.147508)
(500.87519 -811.46455 -12.807273)
(506.80081 -821.56201 -11.418466)
(511.79058 -832.29865 -10.505524)
(564.48503 -832.40492 -5.8499904)
(568.97516 -844.49592 -5.9759342)
(573.65299 -856.12549 -5.6480593)
(579.03168 -866.83642 -5.6445067)
(584.46514 -877.53989 -5.379664)
(590.46494 -887.801 -5.0821888)
(595.81421 -898.73053 -5.3916768)
(649.78889 -898.05933 4.8156508)
(653.81022 -909.45489 3.9191049)
(658.13577 -920.49196 3.4916607)
(663.30985 -930.92329 2.6243494)
(668.7853 -941.37271 2.068972)
(674.70554 -951.77186 1.4393048)
(680.37622 -962.70174 0.20893147)
(734.14518 -961.40917 14.265343)
(737.92975 -972.01181 12.850356)
(742.02691 -982.52489 11.838062)
(747.04154 -992.61856 10.292648)
(752.41553 -1002.8608 9.1354498)
(758.40329 -1013.121 7.7060338)
(764.55991 -1023.8068 5.842874)
(816.49716 -1022.0882 22.17458)
(820.25129 -1032.0391 20.404966)
(824.35436 -1041.937 19.0354)
(829.26032 -1051.6701 16.995612)
(834.94991 -1061.5298 15.554861)
(840.83555 -1071.6965 13.433117)
(847.24451 -1082.324 11.363569)
(896.32281 -1080.0689 28.427849)
(900.32129 -1089.2304 26.481661)
(904.30329 -1098.6157 24.888483)
(909.453 -1107.9267 22.617644)
(915.04485 -1117.776 20.992873)
(921.23286 -1126.822 18.831216)
(927.81748 -1137.5664 16.062761)
(972.92508 -1134.2178 32.912784)
(976.84856 -1143.4889 30.959776)
(981.49808 -1152.3208 29.510289)
(986.51418 -1161.3307 27.211861)
(992.48988 -1170.6142 25.236405)
(998.38607 -1180.7762 22.973185)
(1005.7578 -1189.9714 20.722321)
(1045.4758 -1186.8037 35.631121)
(1050.0824 -1194.9927 34.014694)
(1054.9074 -1203.3445 32.439066)
(1060.2281 -1212.1135 30.152576)
(1066.4868 -1221.0337 28.513932)
(1072.8487 -1230.0866 26.254435)
(1080.2233 -1238.9917 23.70738)
(1114.4068 -1235.3264 36.986955)
(1119.3962 -1243.2227 35.43706)
(1124.611 -1251.3082 34.036179)
(1130.3149 -1259.8562 31.989291)
(1136.8598 -1268.3501 30.542742)
(1143.1789 -1277.2718 28.078118)
(1151.032 -1285.8858 26.219038)
(1179.1634 -1281.1744 36.972565)
(1184.6701 -1288.7663 35.799097)
(1190.3767 -1296.611 34.553893)
(1196.4199 -1304.8698 32.732123)
(1203.109 -1313.0947 31.373527)
(1209.8874 -1321.7792 29.347592)
(1217.8838 -1329.9643 27.627377)
(1239.9179 -1324.0461 35.950165)
(1245.9059 -1331.4563 35.152077)
(1252.1372 -1339.1903 34.001881)
(1258.4386 -1347.1296 32.584054)
(1265.5837 -1355.2604 31.524141)
(1272.5002 -1363.5782 29.621435)
(1280.6673 -1371.4076 28.222741)
(1296.781 -1364.3788 34.489463)
(1303.2387 -1371.622 33.944387)
(1309.8563 -1379.1184 32.957575)
(1316.5933 -1386.9501 31.877577)
(1323.9183 -1394.855 30.912837)
(1331.0629 -1402.8601 29.363739)
(1339.4287 -1410.4973 28.284138)
(1349.9865 -1402.0218 32.640946)
(1356.836 -1409.1433 32.310333)
(1363.9184 -1416.5656 31.529534)
(1370.91 -1424.2671 30.720557)
(1378.4453 -1431.9861 30.03293)
(1385.8465 -1439.8256 28.754196)
(1394.197 -1447.3107 27.944302)
(1399.7946 -1437.447 30.874257)
(1406.9837 -1444.5296 30.68062)