/*--------------------------------*- C++ -*----------------------------------*\
  =========                 |
  \\      /  F ield         | OpenFOAM: The Open Source CFD Toolbox
   \\    /   O peration     | Website:  https://openfoam.org
    \\  /    A nd           | Version:  6
     \\/     M anipulation  |
\*---------------------------------------------------------------------------*/
FoamFile
{
    version     2.0;
    format      ascii;
    class       pointVectorField;
    location    "1.92";
    object      u;
}
// * * * * * * * * * * * * * * * * * * * * * * * * * * * * * * * * * * * * * //

dimensions      [0 1 0 0 0 0 0];

internalField   nonuniform List<vector> 
28033
(
(0 0 0)
(0 0 0)
(0.32801698 0.039724481 -0.0055370996)
(0.32250158 -0.064281632 -0.0061607071)
(0 0 0)
(0 0 0)
(0.32300564 -0.06374281 -0.0060895386)
(0.32852806 0.040215951 -0.0057759883)
(0 0 0)
(0 0 0)
(0 0 0)
(0 0 0)
(0 0 0)
(0 0 0)
(0 0 0)
(0 0 0)
(0 0 0)
(0 0 0)
(0 0 0)
(0 0 0)
(0 0 0)
(0 0 0)
(0 0 0)
(0.32755289 0.03265005 -0.0058299601)
(0.32701493 0.026003831 -0.0058636513)
(0.32648915 0.019489703 -0.0059422997)
(0.3260396 0.013050109 -0.0059439793)
(0.32560832 0.0066891281 -0.0059417701)
(0.32520353 0.00037304647 -0.0059215324)
(0.32483908 -0.0059093806 -0.0058859162)
(0.32450211 -0.012181433 -0.0058423642)
(0.32419371 -0.01845311 -0.0058076786)
(0.32391007 -0.024755789 -0.0057680567)
(0.32365365 -0.031079847 -0.0057529124)
(0.32340781 -0.037478989 -0.0057625753)
(0.3232031 -0.043932101 -0.0057857396)
(0.32296452 -0.050508033 -0.0058307713)
(0.32280241 -0.057216273 -0.0059566746)
(0.00048413635 0.00086389662 0.00093271154)
(0.00054627386 0.0013251577 0.0013280121)
(0.00070837556 0.0017739596 0.0015904301)
(0.00096532485 0.0022756887 0.0017572538)
(0.0012871621 0.0027642187 0.0018475282)
(0.001710315 0.0032601248 0.0019067827)
(0.0022040439 0.0037755972 0.0019073225)
(0.0027880238 0.004263032 0.0019050611)
(0.0034380449 0.0047758666 0.0018677069)
(0.0041755522 0.0052569849 0.0018275619)
(0.0049683133 0.0057537082 0.0017611975)
(0.0058409688 0.0062217455 0.0017051686)
(0.0067700819 0.0067020237 0.0016225797)
(0.007771666 0.0071535262 0.0015508257)
(0.0088256885 0.007613003 0.0014582352)
(0.0099475417 0.008047022 0.0013732264)
(0.011119343 0.0084895041 0.0012740719)
(0.012356915 0.0089068605 0.0011818131)
(0.013639942 0.0093309312 0.0010721713)
(0.014986032 0.0097348136 0.00096975879)
(0.016374957 0.010146238 0.00085969598)
(0.017823231 0.010536636 0.00074688077)
(0.019315137 0.010938463 0.00063279866)
(0.020859832 0.011323611 0.00051945828)
(0.022449527 0.011717286 0.00039879947)
(0.024088592 0.01210046 0.00028435959)
(0.025770478 0.012493866 0.0001665164)
(0.027499363 0.012879753 5.3244918e-05)
(0.029275371 0.013277978 -6.3816618e-05)
(0.031092851 0.013670449 -0.00017099459)
(0.032957128 0.014081564 -0.00027999328)
(0.034868529 0.01448779 -0.00038373862)
(0.036823039 0.014914219 -0.00047943457)
(0.038827965 0.015339989 -0.00057308198)
(0.040879237 0.015786833 -0.00065705152)
(0.042982954 0.016239972 -0.00074017449)
(0.045136501 0.016710645 -0.00081036608)
(0.047347355 0.017195374 -0.00087454335)
(0.049613999 0.017694168 -0.00093615053)
(0.051942822 0.018211258 -0.00098600565)
(0.054332561 0.018742736 -0.001030722)
(0.056789481 0.019293474 -0.0010670985)
(0.059317894 0.019859812 -0.0010994683)
(0.061920157 0.020445233 -0.0011231932)
(0.064599835 0.021044664 -0.0011434612)
(0.067362623 0.021661704 -0.0011580945)
(0.070209344 0.022293332 -0.0011684834)
(0.073147745 0.022938644 -0.0011763048)
(0.076177148 0.023597426 -0.0011808715)
(0.079305639 0.024266563 -0.001184443)
(0.082532315 0.024946454 -0.0011869318)
(0.085864119 0.025632444 -0.0011898234)
(0.089300716 0.026326274 -0.0011936454)
(0.092847072 0.027021099 -0.0011994312)
(0.096503551 0.027720125 -0.0012080896)
(0.1002731 0.028415481 -0.0012200644)
(0.10415626 0.029109921 -0.0012365961)
(0.10815459 0.029796951 -0.0012578066)
(0.11226788 0.030477824 -0.0012848258)
(0.11649693 0.031146931 -0.0013175725)
(0.1208407 0.031805489 -0.0013570859)
(0.12529923 0.032448763 -0.0014032882)
(0.12986966 0.033077271 -0.0014562462)
(0.13455465 0.033685835 -0.0015174416)
(0.13934525 0.034279317 -0.0015836315)
(0.14424803 0.034848572 -0.0016598799)
(0.14925359 0.035396662 -0.0017415064)
(0.15436159 0.035922384 -0.0018287363)
(0.15957027 0.036425444 -0.0019265428)
(0.16487631 0.036904878 -0.0020263143)
(0.17027638 0.037360498 -0.00213333)
(0.17576706 0.037786547 -0.0022427725)
(0.1813476 0.038198915 -0.0023619049)
(0.18701306 0.038567188 -0.0024780915)
(0.1927609 0.038939084 -0.0026071776)
(0.19859201 0.039245012 -0.0027268038)
(0.20449293 0.039576256 -0.0028638979)
(0.21048035 0.03982054 -0.0029853866)
(0.21652227 0.040105961 -0.0031274296)
(0.22265282 0.040294151 -0.0032491981)
(0.2288307 0.04052155 -0.0033957306)
(0.23508494 0.040662419 -0.0035155977)
(0.24139284 0.040821965 -0.0036629105)
(0.24775592 0.040911932 -0.0037826252)
(0.25417912 0.04100332 -0.0039260524)
(0.26064723 0.041045195 -0.0040528204)
(0.26717371 0.04105101 -0.0041907442)
(0.2737286 0.041038634 -0.0043175483)
(0.28034316 0.04097391 -0.0044609581)
(0.2869723 0.04090348 -0.0045883096)
(0.29366083 0.040740501 -0.0047126915)
(0.30035641 0.040669178 -0.0048759565)
(0.30710138 0.040416127 -0.0049526816)
(0.31390684 0.040280482 -0.0051211033)
(0.32070205 0.04010117 -0.0051978501)
(0.00032976711 -0.0009825074 -0.0012257828)
(0.00063731745 -0.0014163806 -0.0013518362)
(0.00087765715 -0.0020168337 -0.001712094)
(0.0010737334 -0.0024624672 -0.0018662827)
(0.001464966 -0.003059104 -0.001984322)
(0.0018775879 -0.003609602 -0.0020686737)
(0.0023702807 -0.0041755175 -0.0021207695)
(0.0029572181 -0.0047501689 -0.0021548808)
(0.0036064476 -0.0053181467 -0.0021813611)
(0.004331825 -0.0058882988 -0.002196991)
(0.0051236241 -0.006450473 -0.0022167912)
(0.0059834934 -0.0070110684 -0.0022312783)
(0.0069048311 -0.0075612596 -0.0022523958)
(0.0078904055 -0.0081111757 -0.0022759742)
(0.0089320274 -0.0086465784 -0.0023051302)
(0.010035252 -0.0091825204 -0.0023401314)
(0.011188895 -0.0097028353 -0.0023834069)
(0.012403507 -0.010223633 -0.0024295917)
(0.013665742 -0.010732143 -0.0024887756)
(0.014981718 -0.011236095 -0.0025523979)
(0.016347938 -0.011731378 -0.0026227268)
(0.017761636 -0.012225173 -0.0027062625)
(0.019221853 -0.012705219 -0.0027915797)
(0.020731662 -0.01319023 -0.0028892539)
(0.022281148 -0.013662056 -0.0029944657)
(0.023882065 -0.014137643 -0.0031038276)
(0.025521067 -0.01460587 -0.003227113)
(0.027208026 -0.015075844 -0.0033508142)
(0.028934881 -0.015544239 -0.0034886017)
(0.03070709 -0.016012924 -0.0036269105)
(0.032522537 -0.016487555 -0.0037751162)
(0.034380858 -0.016961244 -0.0039284795)
(0.036286344 -0.017445744 -0.0040870948)
(0.038235093 -0.017931193 -0.004250481)
(0.040234586 -0.018431222 -0.0044172908)
(0.042278059 -0.0189345 -0.0045909578)
(0.044380071 -0.019455806 -0.0047595219)
(0.046530206 -0.019985969 -0.0049365978)
(0.048740007 -0.020533082 -0.0051111304)
(0.051005442 -0.021093262 -0.0052875231)
(0.053337604 -0.021673964 -0.0054613062)
(0.055730746 -0.022269365 -0.0056346647)
(0.058197745 -0.022887332 -0.0058036758)
(0.060733411 -0.023522546 -0.0059702453)
(0.063349301 -0.024180857 -0.0061309833)
(0.066042832 -0.024858672 -0.0062868951)
(0.068822864 -0.025559275 -0.0064357816)
(0.07168911 -0.026280572 -0.0065777552)
(0.074648786 -0.027024301 -0.0067113612)
(0.077702119 -0.027788317 -0.0068365593)
(0.080855568 -0.028573976 -0.0069521493)
(0.084109373 -0.029378964 -0.0070582672)
(0.087468758 -0.030203539 -0.0071539963)
(0.090934313 -0.031045995 -0.0072395143)
(0.094509588 -0.03190558 -0.0073144406)
(0.098195036 -0.032780343 -0.0073789972)
(0.10199327 -0.033669702 -0.0074331767)
(0.10590388 -0.034571091 -0.007477379)
(0.10992818 -0.035483518 -0.0075122445)
(0.11406602 -0.036405227 -0.007537688)
(0.11831637 -0.037333802 -0.007555548)
(0.12267937 -0.038268561 -0.0075650998)
(0.12715281 -0.039206282 -0.007568986)
(0.13173614 -0.040147066 -0.0075660563)
(0.1364261 -0.041086453 -0.0075598516)
(0.14122274 -0.042026958 -0.0075480177)
(0.14612153 -0.042961386 -0.0075353997)
(0.1511214 -0.043894781 -0.0075184974)
(0.15621915 -0.044818018 -0.0075041353)
(0.1614114 -0.045734804 -0.0074826036)
(0.16669804 -0.046646496 -0.0074662354)
(0.17207282 -0.047543431 -0.0074476672)
(0.17753837 -0.048434186 -0.0074295156)
(0.18308516 -0.049308851 -0.0074127055)
(0.18871978 -0.05017495 -0.0073931381)
(0.19442983 -0.051023458 -0.0073772273)
(0.200223 -0.051862069 -0.0073556418)
(0.20608929 -0.052680997 -0.0073371329)
(0.21203238 -0.053489302 -0.0073123168)
(0.21804593 -0.054276032 -0.0072879201)
(0.22413143 -0.055050883 -0.0072571359)
(0.23028432 -0.055803386 -0.0072239746)
(0.23650257 -0.056540986 -0.0071845734)
(0.24278635 -0.057256923 -0.0071403751)
(0.24912739 -0.057953143 -0.0070912349)
(0.25553024 -0.05862981 -0.0070348529)
(0.2619838 -0.05928138 -0.0069747548)
(0.26849126 -0.059912564 -0.006909555)
(0.27504387 -0.060520589 -0.0068376304)
(0.28164341 -0.061102618 -0.006765455)
(0.28827739 -0.061661096 -0.006689009)
(0.29496043 -0.062203414 -0.0066118285)
(0.30167115 -0.062727355 -0.0065236961)
(0.30845687 -0.063222687 -0.0064572182)
(0.31530923 -0.063778445 -0.0063366185)
(0 0 0)
(0 0 0)
(0 0 0)
(0 0 0)
(0 0 0)
(0 0 0)
(0 0 0)
(0 0 0)
(0 0 0)
(0 0 0)
(0 0 0)
(0 0 0)
(0 0 0)
(0 0 0)
(0 0 0)
(0.00054344945 -0.00039068493 0.00084461801)
(0.00061496093 -0.0014849845 0.0013269285)
(0.00069932076 -0.0016340491 0.001503311)
(0.0010112585 -0.0023281038 0.0017581833)
(0.0013061481 -0.0027449766 0.0018213779)
(0.00174389 -0.0032556086 0.0018583772)
(0.0022469292 -0.0037799983 0.0018605943)
(0.0028336987 -0.0042727924 0.0018436905)
(0.0034959492 -0.0047857467 0.0017856795)
(0.0042252679 -0.0052857623 0.0017360309)
(0.0050402916 -0.0057950619 0.0016596521)
(0.005892686 -0.0062683845 0.0015836743)
(0.0068414544 -0.006772737 0.0014951251)
(0.0078262431 -0.0072353972 0.0014025754)
(0.0088934821 -0.0077189502 0.0013015013)
(0.010003067 -0.008175779 0.0012033993)
(0.011177128 -0.0086316235 0.0010924728)
(0.01240853 -0.0090922102 0.00098302824)
(0.013687426 -0.0095261794 0.00086869756)
(0.015029259 -0.0099800832 0.00074711643)
(0.016411263 -0.010406103 0.00063288789)
(0.017849436 -0.010841689 0.00050574774)
(0.019334636 -0.011273082 0.00038193217)
(0.020871905 -0.01170763 0.00025586961)
(0.022446188 -0.012129437 0.00012967775)
(0.024078894 -0.012574544 3.7430499e-06)
(0.025738952 -0.012989477 -0.00012063146)
(0.027464074 -0.013449226 -0.00024459053)
(0.029211207 -0.01387099 -0.00036532623)
(0.031021772 -0.014340508 -0.00048157519)
(0.032857997 -0.014783912 -0.00059712687)
(0.034753244 -0.015266914 -0.00070352996)
(0.036678883 -0.015734483 -0.00080867391)
(0.038663194 -0.016240377 -0.00090416695)
(0.040681868 -0.016739531 -0.00099543604)
(0.042755314 -0.017263136 -0.0010790142)
(0.044877953 -0.017803115 -0.0011572434)
(0.047053905 -0.018366102 -0.0012240796)
(0.049280605 -0.01893822 -0.0012881442)
(0.051569632 -0.019541454 -0.0013410847)
(0.053914881 -0.020155854 -0.0013900521)
(0.05632758 -0.020800667 -0.0014292712)
(0.058804888 -0.021460002 -0.0014650614)
(0.061355603 -0.022148673 -0.0014919199)
(0.063978835 -0.022853681 -0.001516498)
(0.066682904 -0.023587 -0.0015336538)
(0.06946747 -0.024337321 -0.0015495759)
(0.07233984 -0.025113912 -0.0015601473)
(0.075301082 -0.025907845 -0.0015706361)
(0.078356654 -0.026725067 -0.0015778633)
(0.081508381 -0.027558904 -0.0015862601)
(0.084760991 -0.028412906 -0.0015938425)
(0.088115847 -0.02928173 -0.0016035682)
(0.091576764 -0.030167022 -0.0016148471)
(0.095145182 -0.031065076 -0.0016293743)
(0.098823375 -0.03197539 -0.0016473562)
(0.10261251 -0.032895709 -0.0016696509)
(0.106514 -0.033824514 -0.0016969195)
(0.110528 -0.034759814 -0.0017294484)
(0.11465523 -0.035700061 -0.0017679334)
(0.11889506 -0.036643406 -0.001812483)
(0.12324731 -0.037588192 -0.0018635864)
(0.12771066 -0.038532993 -0.001921109)
(0.13228413 -0.039476127 -0.0019854834)
(0.13696594 -0.0404164 -0.002056411)
(0.14175426 -0.041352639 -0.0021340315)
(0.14664733 -0.042283857 -0.002218278)
(0.1516438 -0.043210347 -0.0023073508)
(0.15673577 -0.0441193 -0.0024058099)
(0.16192916 -0.045040084 -0.0025063545)
(0.16721647 -0.045937071 -0.0026131784)
(0.17259422 -0.046830833 -0.0027244982)
(0.17806283 -0.047713297 -0.0028411658)
(0.18361769 -0.048587269 -0.0029603983)
(0.18925651 -0.049449346 -0.0030841161)
(0.19497751 -0.050301751 -0.0032099442)
(0.20077707 -0.05114154 -0.0033389579)
(0.20665373 -0.051969783 -0.003469266)
(0.21260424 -0.052784882 -0.0036019174)
(0.21862647 -0.053585698 -0.0037349089)
(0.22471783 -0.054372441 -0.0038700091)
(0.23087624 -0.055142371 -0.0040046333)
(0.23709833 -0.055895765 -0.0041411055)
(0.24338264 -0.056630217 -0.00427698)
(0.24972518 -0.057344599 -0.0044145458)
(0.25612424 -0.058038457 -0.0045509608)
(0.26257489 -0.058707161 -0.0046900337)
(0.26907706 -0.059355777 -0.004826769)
(0.27562233 -0.059973228 -0.0049673114)
(0.28221467 -0.060572877 -0.0051039219)
(0.28884069 -0.061136493 -0.0052470213)
(0.29551572 -0.06169077 -0.0053820027)
(0.30221489 -0.062209229 -0.0055312081)
(0.30900321 -0.062728554 -0.0056698787)
(0.31580511 -0.063285602 -0.0058460341)
(0.32335029 -0.056681514 -0.0062160183)
(0.32351941 -0.050034936 -0.0062813705)
(0.32371671 -0.043424666 -0.0062680885)
(0.32394515 -0.036996521 -0.006254338)
(0.32417703 -0.030592041 -0.0061799227)
(0.32443132 -0.024273976 -0.0061184413)
(0.32471005 -0.017976198 -0.0060154071)
(0.3250084 -0.011697447 -0.0059242154)
(0.32536017 -0.005436868 -0.00583097)
(0.3257 0.00085638081 -0.0057354331)
(0.32611188 0.0071667467 -0.0056664948)
(0.32653244 0.013530399 -0.0056082849)
(0.32700155 0.019957695 -0.0055651412)
(0.32744741 0.026498289 -0.0055691007)
(0.32807094 0.03310163 -0.0055987571)
(0.32126046 0.040599446 -0.0060305031)
(0.31436317 0.040726454 -0.0060865949)
(0.30758264 0.040946192 -0.0061712022)
(0.30082408 0.041126708 -0.006227586)
(0.2941083 0.041287434 -0.0063085758)
(0.28742439 0.041418191 -0.0063762407)
(0.28077646 0.041519471 -0.0064452799)
(0.27416595 0.041590427 -0.0065119972)
(0.26759953 0.041626072 -0.006570994)
(0.26107873 0.041633622 -0.0066288689)
(0.25460821 0.041604932 -0.0066775026)
(0.2481914 0.041547178 -0.0067224931)
(0.24183034 0.04145561 -0.0067607347)
(0.23552694 0.041334909 -0.0067966705)
(0.22928753 0.041181473 -0.0068251852)
(0.22311311 0.0409986 -0.0068498037)
(0.21700673 0.040785271 -0.0068691283)
(0.21096908 0.040541634 -0.0068860405)
(0.2050035 0.040270063 -0.0069004813)
(0.19911215 0.039967499 -0.0069128312)
(0.1932963 0.039639165 -0.0069247575)
(0.18755994 0.03928005 -0.0069357071)
(0.18190326 0.038897141 -0.006947541)
(0.17633108 0.038483892 -0.0069589992)
(0.17084376 0.038048817 -0.0069716834)
(0.16544568 0.037586682 -0.0069848628)
(0.16013393 0.037101186 -0.0069993031)
(0.15493611 0.036584065 -0.0070076962)
(0.14981335 0.036060348 -0.0070225076)
(0.14480144 0.035505142 -0.0070328645)
(0.13988947 0.034935788 -0.0070427271)
(0.13508429 0.034346921 -0.0070483903)
(0.13038602 0.033743391 -0.0070507053)
(0.12579818 0.03312483 -0.007048181)
(0.12132186 0.032494959 -0.0070400968)
(0.11695887 0.031854373 -0.0070253005)
(0.11271024 0.031206231 -0.0070034975)
(0.10857675 0.030551659 -0.0069732081)
(0.1045587 0.029893835 -0.0069345747)
(0.10065583 0.029233706 -0.0068862773)
(0.096867741 0.028574682 -0.0068287509)
(0.093193184 0.02791737 -0.0067606713)
(0.089630811 0.02726528 -0.0066832015)
(0.086178605 0.026618495 -0.0065947816)
(0.082834378 0.025980744 -0.00649727)
(0.079595335 0.025351203 -0.0063890072)
(0.076458632 0.024733922 -0.0062724413)
(0.073420808 0.02412712 -0.0061458688)
(0.0704786 0.023534806 -0.0060121164)
(0.067628069 0.022954692 -0.0058696203)
(0.064865634 0.02239012 -0.0057213318)
(0.062187032 0.021838867 -0.00556614)
(0.059588964 0.021303119 -0.0054063665)
(0.057066897 0.020780529 -0.0052418922)
(0.054615825 0.020274852 -0.005075998)
(0.052236158 0.019777215 -0.0049039696)
(0.049918808 0.019299114 -0.0047359192)
(0.047663837 0.0188273 -0.0045622699)
(0.045469522 0.018367702 -0.0043923181)
(0.043329803 0.017918832 -0.004223143)
(0.041238278 0.017480382 -0.0040584641)
(0.039208433 0.017040875 -0.0038906181)
(0.037216112 0.016618548 -0.003737021)
(0.035277948 0.016190058 -0.0035805294)
(0.033380254 0.015771625 -0.0034339976)
(0.031534297 0.015349737 -0.0032893558)
(0.029724351 0.014933162 -0.003154731)
(0.027967159 0.014509382 -0.003024965)
(0.026245436 0.014089341 -0.0029055174)
(0.024572936 0.013660544 -0.0027914645)
(0.022940321 0.01323242 -0.0026873273)
(0.021354101 0.012795001 -0.0025907511)
(0.019816684 0.012354836 -0.002500938)
(0.018321069 0.0119032 -0.0024211619)
(0.016871621 0.011449927 -0.0023511884)
(0.015481744 0.010980929 -0.0022852121)
(0.014124761 0.0105125 -0.002232794)
(0.012840699 0.010024917 -0.0021823764)
(0.011586739 0.0095396998 -0.00214536)
(0.010410235 0.0090334343 -0.0021111023)
(0.0092769559 0.0085252528 -0.0020840372)
(0.0082027524 0.0080074347 -0.0020674375)
(0.0071881126 0.0074793963 -0.0020502292)
(0.0062475417 0.0069397335 -0.0020411055)
(0.0053570446 0.0063955032 -0.0020306331)
(0.0045385342 0.0058497373 -0.002026882)
(0.0038012811 0.0052781199 -0.0020116956)
(0.00311731 0.0047316154 -0.0020037574)
(0.0025258343 0.004156799 -0.001969464)
(0.0019936496 0.0036048546 -0.0019362804)
(0.0015725854 0.0030171346 -0.0018542277)
(0.0012152272 0.0024812809 -0.0017417315)
(0.00095624528 0.0019431885 -0.0015827968)
(0.00075721482 0.0013921084 -0.0012541535)
(0.0008362062 0.00090450476 -0.00074345417)
(0 0 0)
(0 0 0)
(0 0 0)
(0 0 0)
(0 0 0)
(0 0 0)
(0 0 0)
(0 0 0)
(0 0 0)
(0 0 0)
(0 0 0)
(0 0 0)
(0 0 0)
(0 0 0)
(0 0 0)
(0 0 0)
(0 0 0)
(0 0 0)
(0 0 0)
(0 0 0)
(0 0 0)
(0 0 0)
(0 0 0)
(0 0 0)
(0 0 0)
(0 0 0)
(0 0 0)
(0 0 0)
(0 0 0)
(0 0 0)
(0.32261762 -0.064403261 -0.0061730761)
(0.32268369 -0.064452545 -0.0061840789)
(0.32273246 -0.064462752 -0.0061950863)
(0.32278668 -0.064468262 -0.0061937348)
(0.32283633 -0.064460349 -0.0061882181)
(0.32288313 -0.064443905 -0.0061706982)
(0.32292286 -0.064418374 -0.0061535554)
(0.32295768 -0.064386344 -0.0061275807)
(0.3229875 -0.064350203 -0.0061061801)
(0.32300779 -0.064306241 -0.0060861732)
(0.32303664 -0.064265487 -0.0060663109)
(0.32304267 -0.064199114 -0.0060592098)
(0.32306195 -0.064141295 -0.0060558806)
(0.32306954 -0.06405659 -0.0060612383)
(0.32309027 -0.063977748 -0.0060789845)
(0.3281957 0.039930339 -0.0055499893)
(0.3282566 0.03999179 -0.0055299821)
(0.32830931 0.040061619 -0.0055490903)
(0.32837426 0.040122912 -0.0055633294)
(0.32841711 0.040166346 -0.0055803566)
(0.32846653 0.040208194 -0.0056125768)
(0.32850795 0.040250253 -0.0056402421)
(0.32854431 0.040284109 -0.0056753645)
(0.32857439 0.040317604 -0.0057074522)
(0.32859704 0.040346483 -0.0057356865)
(0.32861575 0.040367152 -0.0057617478)
(0.32862604 0.040383905 -0.0057806453)
(0.32863853 0.040397735 -0.0057772862)
(0.32863939 0.040366422 -0.0058061486)
(0.32865876 0.040398753 -0.0057849217)
(0.00023067949 0.00070070478 0.00094987774)
(0.00035860879 0.0011156359 0.0011264728)
(0.00051935291 0.0015491565 0.0013827516)
(0.00076344837 0.0019740209 0.0014975801)
(0.0010806732 0.0023897301 0.0015939128)
(0.001496894 0.0028108566 0.0016258582)
(0.0019946997 0.0032461788 0.0016363855)
(0.0025679455 0.0036589702 0.0016325131)
(0.0032260733 0.0041012664 0.0015955519)
(0.0039577315 0.0045097083 0.0015549448)
(0.004752993 0.0049385979 0.0015041122)
(0.0056299853 0.0053426903 0.0014379481)
(0.0065599815 0.005757781 0.0013704494)
(0.0075618201 0.0061466293 0.0012950111)
(0.008618227 0.0065462024 0.0012135327)
(0.0097452479 0.006925429 0.0011258164)
(0.010916382 0.0073067766 0.0010383642)
(0.012155435 0.0076720606 0.0009406451)
(0.013440796 0.0080399554 0.00084283312)
(0.014788983 0.0083957152 0.0007397912)
(0.016177285 0.0087510118 0.00063429591)
(0.017628163 0.0090966738 0.00052587208)
(0.019118394 0.0094466711 0.00041463562)
(0.020663062 0.0097858864 0.00030126567)
(0.02225139 0.010131646 0.00018590879)
(0.023888437 0.01047098 7.282388e-05)
(0.025568262 0.0108178 -4.4671058e-05)
(0.027295191 0.011159819 -0.00015740144)
(0.029065548 0.011510961 -0.0002720127)
(0.030880661 0.011864762 -0.00038113122)
(0.032739497 0.012223129 -0.00049099837)
(0.034646094 0.012589844 -0.0005943477)
(0.036594331 0.012964852 -0.00069489783)
(0.038591479 0.013347209 -0.00078992714)
(0.040635681 0.013743038 -0.00088100208)
(0.042731452 0.014145167 -0.00096349407)
(0.044878208 0.014564408 -0.0010423265)
(0.04707729 0.01499193 -0.0011156139)
(0.049336613 0.015433867 -0.0011789965)
(0.05165325 0.015890145 -0.0012383778)
(0.054034186 0.016359349 -0.0012895541)
(0.056482536 0.016839373 -0.0013360306)
(0.058998371 0.017338752 -0.0013748003)
(0.061591335 0.017846315 -0.0014096465)
(0.064258993 0.018369646 -0.0014384917)
(0.067010519 0.018904594 -0.0014619463)
(0.069846775 0.019450506 -0.0014829484)
(0.072773014 0.020007463 -0.0014987822)
(0.075792411 0.020573415 -0.0015132637)
(0.078909204 0.021147223 -0.0015249294)
(0.082126096 0.021727852 -0.0015361318)
(0.085447128 0.022312807 -0.0015462093)
(0.088874321 0.022901442 -0.0015575421)
(0.092411049 0.023490732 -0.0015692374)
(0.096058807 0.024080306 -0.0015837267)
(0.099819938 0.024666239 -0.0016000868)
(0.1036953 0.025248983 -0.0016205113)
(0.1076864 0.025824289 -0.0016444446)
(0.11179306 0.026392153 -0.0016732533)
(0.11601598 0.026949274 -0.0017067582)
(0.12035434 0.027495222 -0.0017462691)
(0.12480749 0.028027545 -0.0017911507)
(0.1293742 0.028544734 -0.0018423516)
(0.13405376 0.029045194 -0.0018994326)
(0.13884073 0.029530906 -0.001964116)
(0.14374152 0.029993381 -0.0020335272)
(0.14874722 0.030442214 -0.0021090554)
(0.15385062 0.03086639 -0.0021902417)
(0.15905808 0.031271877 -0.002276147)
(0.16436068 0.031653065 -0.0023696626)
(0.16976084 0.032015841 -0.0024689098)
(0.17524956 0.032353797 -0.0025714044)
(0.18083132 0.032674047 -0.0026805667)
(0.18649485 0.032964784 -0.002790072)
(0.19224477 0.033243502 -0.0029063581)
(0.19807428 0.033482921 -0.0030206749)
(0.2039787 0.033722144 -0.0031432021)
(0.20996358 0.033907239 -0.0032585992)
(0.21601102 0.034105311 -0.0033864736)
(0.22214045 0.034238905 -0.0035016831)
(0.22832057 0.034383259 -0.0036304222)
(0.23458073 0.034476173 -0.0037481408)
(0.24088879 0.034555884 -0.0038749749)
(0.24725949 0.034600448 -0.0039937688)
(0.25368186 0.034628206 -0.0041231608)
(0.26016206 0.034612851 -0.0042392102)
(0.26669047 0.034575866 -0.0043639591)
(0.27325727 0.034510639 -0.0044878708)
(0.27987447 0.034415718 -0.0046114156)
(0.28651638 0.034267916 -0.0047232574)
(0.29320608 0.034140394 -0.0048735661)
(0.29991058 0.033933074 -0.0049771684)
(0.30667126 0.033672709 -0.00512459)
(0.31346216 0.033478532 -0.0052929978)
(0.32034471 0.033035463 -0.0054774365)
(2.1890491e-05 0.0005963315 0.00081057479)
(0.00013428642 0.00085513246 0.00099188699)
(0.00032846471 0.0012586882 0.0011842332)
(0.00056321514 0.0016295189 0.0012888003)
(0.00089866846 0.0019825144 0.0013467336)
(0.0013178908 0.0023552821 0.0013754809)
(0.0018003786 0.0027131779 0.0013837775)
(0.0023936325 0.0030759236 0.0013689748)
(0.0030456807 0.0034420848 0.0013259352)
(0.0037756817 0.0037881779 0.0013052808)
(0.0045805153 0.0041501474 0.0012325214)
(0.005455282 0.0044921775 0.001186424)
(0.0063866619 0.0048377027 0.0011108616)
(0.00739032 0.0051691417 0.0010477282)
(0.0084550067 0.0055051002 0.00095783169)
(0.0095742408 0.0058221887 0.00088664303)
(0.010754754 0.0061457663 0.00078887915)
(0.011990297 0.0064521278 0.00070502822)
(0.013281536 0.0067649535 0.00060258233)
(0.014623133 0.0070598451 0.00050779057)
(0.016018331 0.0073643919 0.00040018465)
(0.017463027 0.0076533575 0.00029636237)
(0.018955691 0.0079520719 0.00018397683)
(0.020496864 0.0082368516 7.59401e-05)
(0.02208545 0.0085324422 -3.9076477e-05)
(0.023718829 0.008818898 -0.00015263005)
(0.025396657 0.0091155869 -0.00026822057)
(0.027119168 0.0094049082 -0.00037998333)
(0.028887012 0.0097091505 -0.00049607681)
(0.030696123 0.010005511 -0.00060586183)
(0.032551574 0.010318339 -0.00071632109)
(0.034451205 0.010629437 -0.00082281278)
(0.036392984 0.010954069 -0.00092487279)
(0.038386248 0.011281403 -0.0010248373)
(0.040422557 0.011620838 -0.0011166035)
(0.042510959 0.011968309 -0.0012077146)
(0.044649814 0.012327234 -0.0012907415)
(0.046844 0.012694448 -0.0013669664)
(0.049091823 0.013074058 -0.0014389839)
(0.051401339 0.013465779 -0.0015047901)
(0.0537714 0.013866228 -0.0015639771)
(0.056208349 0.014279936 -0.0016159475)
(0.058718211 0.01470413 -0.0016671285)
(0.061297935 0.015138203 -0.001707334)
(0.063957274 0.015584083 -0.0017456581)
(0.06669867 0.016037665 -0.0017781807)
(0.069524637 0.016501003 -0.001806529)
(0.072441444 0.016971539 -0.0018313683)
(0.075451096 0.017449211 -0.0018535668)
(0.078558509 0.017931554 -0.0018730528)
(0.081766118 0.018419291 -0.0018911475)
(0.085078409 0.018907875 -0.0019082767)
(0.088496734 0.019399794 -0.0019251939)
(0.092025534 0.019889148 -0.0019426364)
(0.095665071 0.020378445 -0.00196124)
(0.099418953 0.020862125 -0.0019815509)
(0.10328709 0.021342578 -0.0020047974)
(0.10727163 0.021813783 -0.0020304532)
(0.11137186 0.02227868 -0.0020603047)
(0.11558929 0.022731581 -0.0020939379)
(0.1199218 0.023174558 -0.0021321867)
(0.12437031 0.023603761 -0.0021753837)
(0.12893248 0.0240188 -0.0022230723)
(0.13360663 0.024419522 -0.0022773432)
(0.13839194 0.024805843 -0.0023365362)
(0.14328843 0.025171531 -0.0023987939)
(0.14827703 0.025525326 -0.0024700022)
(0.15337922 0.025852958 -0.0025422944)
(0.15858314 0.026164707 -0.0026273619)
(0.16388636 0.026455806 -0.0027124787)
(0.16928382 0.026732854 -0.0028049032)
(0.17477208 0.026982615 -0.0028967693)
(0.18035071 0.027222926 -0.0029986607)
(0.18601443 0.027427213 -0.0030944724)
(0.19176409 0.027633958 -0.0032071704)
(0.19759151 0.027789699 -0.0033034968)
(0.20349863 0.027963271 -0.003425201)
(0.20948081 0.028068595 -0.0035202318)
(0.21553361 0.028208723 -0.0036497728)
(0.22165888 0.02826244 -0.0037405151)
(0.22784838 0.028361886 -0.0038750513)
(0.23410476 0.028377061 -0.0039680769)
(0.2404207 0.028412487 -0.0040914333)
(0.24679721 0.028390136 -0.0042006632)
(0.25323619 0.028377633 -0.004321192)
(0.25971499 0.02830337 -0.0044224338)
(0.26625362 0.028231346 -0.0045432105)
(0.27281982 0.02811468 -0.004649721)
(0.27945656 0.027955372 -0.0047594044)
(0.28609454 0.027808653 -0.0048921505)
(0.29281006 0.027581856 -0.0049997615)
(0.29951578 0.027333677 -0.0051330858)
(0.3063013 0.027070936 -0.0052841196)
(0.31310404 0.026729516 -0.0054416198)
(0.32001824 0.026345446 -0.0056287649)
(-0.00010944851 0.00047191553 0.0006999515)
(-3.0593171e-05 0.0006744211 0.00084290612)
(0.00013566844 0.00099509383 0.0010087711)
(0.00038991932 0.0013052961 0.0010628155)
(0.0007307577 0.0015975714 0.0011157639)
(0.0011316373 0.0018991754 0.0011324395)
(0.0016488222 0.0022074047 0.0011264354)
(0.0022263287 0.0024990202 0.0011009108)
(0.0028777767 0.0027982545 0.0010863984)
(0.0036177607 0.0030835584 0.0010314837)
(0.0044199376 0.0033823141 0.00098783065)
(0.0052915541 0.0036536014 0.00093092979)
(0.0062271036 0.0039413889 0.00087090068)
(0.0072369269 0.0042104215 0.00079398008)
(0.0082903456 0.0044819375 0.00072975386)
(0.0094204736 0.0047429436 0.00064322746)
(0.010594438 0.0050041845 0.00056443052)
(0.011836564 0.0052569062 0.00047265992)
(0.01311993 0.0055072822 0.00038277602)
(0.014469105 0.0057533692 0.00028434465)
(0.01585821 0.0059984286 0.00018535202)
(0.017306522 0.0062366801 8.1203103e-05)
(0.018794854 0.006478682 -2.4518053e-05)
(0.020338431 0.0067128394 -0.00013339862)
(0.021920997 0.0069559772 -0.00024683591)
(0.02355356 0.0071897552 -0.00035692209)
(0.025228034 0.0074341944 -0.00047204374)
(0.026948921 0.0076742505 -0.00058576688)
(0.028709751 0.0079226592 -0.00070023028)
(0.030517241 0.0081707269 -0.00081083455)
(0.03236735 0.0084284252 -0.00092460682)
(0.03425974 0.0086869442 -0.0010302682)
(0.036199941 0.0089556003 -0.0011382309)
(0.038184104 0.0092280193 -0.0012389716)
(0.040214056 0.0095119187 -0.0013383773)
(0.042296141 0.0098001256 -0.0014317703)
(0.044425876 0.010099909 -0.0015191506)
(0.046607795 0.010405806 -0.0016031976)
(0.048852154 0.010723667 -0.0016817066)
(0.05115243 0.011044804 -0.0017551511)
(0.053515966 0.011380323 -0.001821614)
(0.055946126 0.011722333 -0.001886743)
(0.058445345 0.012073429 -0.0019398863)
(0.06101835 0.012432293 -0.0019915802)
(0.063670502 0.012798846 -0.0020389188)
(0.06640238 0.01317203 -0.0020794198)
(0.069221415 0.013551914 -0.0021178832)
(0.07212948 0.013936711 -0.0021512821)
(0.075131641 0.014326084 -0.002182404)
(0.078230704 0.014718357 -0.0022096787)
(0.081431222 0.015113059 -0.0022364174)
(0.084735365 0.015507827 -0.0022599015)
(0.088147091 0.015903149 -0.002284381)
(0.091668325 0.016295005 -0.0023068722)
(0.095301486 0.016685196 -0.0023312088)
(0.099048784 0.017069125 -0.0023555197)
(0.10291082 0.017448301 -0.0023822417)
(0.10688945 0.01781855 -0.0024101648)
(0.11098443 0.018181651 -0.0024420578)
(0.11519631 0.018532847 -0.0024756519)
(0.11952432 0.018874527 -0.0025142231)
(0.12396834 0.019202321 -0.0025557824)
(0.128526 0.019517704 -0.0026019875)
(0.13319663 0.019819066 -0.0026539632)
(0.13798029 0.020104872 -0.0027081127)
(0.14286609 0.020372289 -0.0027701604)
(0.14786897 0.020638598 -0.0028335367)
(0.15297257 0.020871578 -0.0029073233)
(0.15817383 0.021086605 -0.0029772162)
(0.16347251 0.021291164 -0.003055133)
(0.16886658 0.021474912 -0.0031381328)
(0.17435278 0.021643856 -0.0032234808)
(0.17993141 0.02179287 -0.0033150354)
(0.18559161 0.021928253 -0.0034077136)
(0.19133983 0.022042362 -0.0035043191)
(0.19716437 0.022138752 -0.0036000356)
(0.20307284 0.02222043 -0.0037029854)
(0.20905027 0.022276386 -0.0037992068)
(0.21510663 0.022323516 -0.0039053496)
(0.22122841 0.022338426 -0.0040012612)
(0.22742014 0.022353622 -0.0041115833)
(0.23367866 0.022316689 -0.0041995221)
(0.23999075 0.022299919 -0.0043164691)
(0.24637897 0.022219457 -0.0044033577)
(0.25280429 0.02214794 -0.0045118185)
(0.25929749 0.022032236 -0.0046018388)
(0.26582784 0.021915632 -0.0047159469)