/*--------------------------------*- C++ -*----------------------------------*\
  =========                 |
  \\      /  F ield         | OpenFOAM: The Open Source CFD Toolbox
   \\    /   O peration     | Website:  https://openfoam.org
    \\  /    A nd           | Version:  6
     \\/     M anipulation  |
\*---------------------------------------------------------------------------*/
FoamFile
{
    version     2.0;
    format      ascii;
    class       pointScalarField;
    location    "0.97";
    object      E;
}
// * * * * * * * * * * * * * * * * * * * * * * * * * * * * * * * * * * * * * //

dimensions      [1 -1 -2 0 0 0 0];

internalField   nonuniform List<scalar> 
625
(
65084.36
70501.832
-892079.55
-444502.87
60717.704
69210.32
-678891.13
-1371947.4
20019.336
9319.7786
43683.853
-492025.29
-507589.01
-355361.86
87955.583
76235.196
71345.381
67940.644
62379.312
61631.175
58717.919
56222.771
51548.257
43640.349
31526.659
14724.094
-4861.7856
-26305.012
-46895.56
-65521.253
-77759.131
-85757.377
-82710.843
-77175.198
-64778.069
-47629.663
-18092.071
72336.697
47588.252
46505.37
37305.685
26521.619
17791.814
9245.1091
2491.3471
-1577.5063
-3659.708
-1261.1366
3692.7961
13288.646
26023.331
42054.28
58398.996
75382.184
87694.226
96519.064
97069.785
86143.431
71008.48
37094.645
17593.101
5950.3896
36290.244
117014.43
109047.68
65975.025
68340.682
57409.351
31253.989
34544.475
22522.695
21964.863
21893.847
23574.25
29659.649
33734.395
39289.686
43219.117
46803.545
50277.499
52709.717
53328.447
52157.272
45314.036
34613.522
15313.857
-984156.78
-1049994.6
-999926.08
-13062.989
-31995.499
-42230.209
-53082.18
-60397.26
-61652.329
-60480.855
-52442.579
-41818.625
-27199.263
-11967.968
4045.0955
17703.992
30046.913
38867.997
44078.892
49622.703
51847.081
58594.648
61951.672
71207.013
73125.091
85705.936
56154.782
55290.927
56109.793
53782.166
54529.975
57652.71
-504354.61
-504548.86
-508292.78
-1009087.3
-1010457.5
-1015314.3
38311.931
31936.728
31332.637
25931.908
19346.354
12239.608
5559.8072
-1252.8566
-4800.088
-7361.6495
-6300.7453
-2740.6579
4025.2689
13129.817
23761.279
35286.415
46652.077
55891.913
64300.528
63317.872
62779.04
52580.048
24795.653
12284.286
6397.0589
7613.307
3229.9775
3534.6539
3917.7525
3439.3784
6157.3634
6532.8781
8410.5164
10192.787
11739.959
14218.374
17310.087
21383.062
25788.633
30549.966
32526.331
34497.201
28342.389
26292.338
12592.937
652.75877
28417.785
27258.054
30803.549
29355.454
30787.768
31333.015
30093.806
29720.79
26461.216
22333.462
14028.674
3432.8666
-10284.442
-25604.351
-41719.264
-55941.356
-68202.318
-74268.463
-77762.159
-70833.232
-61216.775
-44175.199
-13858.298
13279.837
13538.007
12599.016
5176.224
4586.9026
6962.4174
19906.568
22016.579
22629.268
89061.118
88894.938
97669.559
92923.391
90008.484
87074.038
62133.094
58192.965
60967.205
53883.052
58142.191
56434.095
42308.647
40028.364
43419.385
30251.479
32822.018
32391.226
23529.73
24082.451
29782.811
17058.346
15316.802
16524.282
11917.475
14196.805
13818.562
11898.731
11696.388
12283.485
13393.424
14221.652
14367.21
19289.761
18540.01
19882.609
27101.036
24462.403
27376.003
37898.435
32173.089
36616.514
50072.304
40344.698
47101.368
63014.139
49292.697
57872.436
74932.508
58119.618
68166.527
84776.813
66162.157
76653.94
89619.545
71053.216
81080.775
87597.775
70814.489
79684.132
78231.655
64748.479
72115.083
60158.495
55320.545
59265.104
30808.373
26554.395
32528.571
-661141.88
-660424.71
-660452.17
-604659.72
-666287.58
-668685.75
-690727.94
-638122.49
-638624.11
85317.256
78172.574
75255.174
81097.247
76780.596
77636.675
75284.978
68333.42
66155.237
68669.638
62972.443
62801.826
63343.326
60545.031
58006.133
62488.24
55086.466
54451.271
59437.936
55355.832
53762.551
58035.653
52151.835
50171.094
51578.265
48372.963
44115.551
42621.709
40904.982
37133.738
32430.047
29546.355
25644.927
15502.7
13871.26
10223.084
-3258.279
-3552.8837
-6400.4918
-22918.64
-22725.994
-24473.023
-41915.319
-41140.464
-40964.561
-57617.041
-56846.668
-55381.179
-68717.236
-68530.735
-64897.969
-74003.801
-73851.957
-70424.97
-73860.154
-75477.203
-69386.983
-64999.421
-69987.249
-63394.522
-52757.084
-58014.687
-52642.168
-41866.028
-41769.076
-40322.298
-14505.245
-15407.189
-14291.078
53270.248
49912.173
41505.413
32715.33
26332.031
15724.294
11080.947
6297.5887
2579.3656
5229.2123
8732.0257
13323.043
20945.682
28984.89
37308.285
45566.242
52259.916
57796.871
58977.73
57282.896
49521.884
37065.166
27146.211
9235.692
25616.069
10307.045
23208.933
23090.76
26296.285
31064.401
30709.237
31050.11
26518.069
22041.125
14898.642
7857.1985
30.973653
-8112.0222
-16293.053
-23860.51
-30787.343
-35693.661
-37649.25
-36753.125
-31964.786
-21082.599
42489.866
26761.033
33041.246
33822.229
30382.476
28900.17
26562.109
24196.896
18227.683
12124.203
3349.7995
-8352.1849
-20773.274
-34163.48
-46475.575
-56594.22
-63403.344
-66308.845
-63790.55
-56442.155
-44807.408
-25305.413
-4951.6628
48421.129
42415.321
42008.643
44526.498
43738
41061.581
38658.496
37742.068
34070.696
30770.478
27773.768
26503.654
23063.398
22716.957
20676.579
15076.649
13863.105
11163.181
8977.2833
7747.2873
4735.6844
2247.4735
1988.2151
-509.62006
-116.01755
-914.20583
-3657.9567
-734.2272
-2304.3084
-3915.9565
1867.5587
527.64111
-584.15597
6603.8692
5392.5486
4496.5024
13983.425
12688.012
12798.655
23236.902
21883.978
22531.836
33631.602
32630.853
33697.266
44915.482
43990.776
44895.664
55045.013
54668.966
55725.376
64586.518
64454.614
63948.221
69708.442
68184.191
69543.429
67058.996
71373.418
68964.715
64078.16
64609.723
63327.81
51551.184
52755.272
51935.344
27929.4
27379.795
28952.732
11045.964
9950.6375
8130.5497
16180.27
23023.477
22639.888
9423.048
7099.476
6508.3818
10489.243
15269.242
15709.326
12515.085
12831.797
13891.464
13545.92
15374.927
16141.147
14816.269
18001.175
19431.776
17000.221
18513.729
19364.456
16908.071
18905.559
20894.395
16959.452
18467.186
19146.132
16012.232
16636.842
17333.354
14814.225
14530.976
14405.293
13652.29
12267.764
11213.075
12225.832
9884.6289
8480.3801
11037.298
7809.1952
5514.9907
9478.8836
5068.8496
3017.7704
7708.6468
2612.2424
90.799472
5227.1934
-1490.5262
-2528.5757
2152.865
-4373.6104
-5685.4616
-2666.916
-7097.9683
-8806.974
-13860.841
3571.0425
-8633.7756
-9473.6479
-15122.108
-14038.4
-12968.481
-18521.31
-17541.005
32490.62
34324.643
38069.492
28540.505
33354.903
40969.522
29134.283
35923.67
39016.132
29844.426
31309.414
36369.354
27856.622
30115.344
34702.955
26452.6
28099.675
32414.73
26575.628
25224.527
28656.701
23268.345
23115.479
27501.793
20771.893
20069.811
22861.531
15294.692
14621.102
16921.67
7470.4571
6687.4617
8588.9302
-2933.182
-3393.544
-2177.7711
-16255.193
-15402.508
-14849.72
-30491.308
-28206.967
-28749.412
-45171.961
-40846.994
-42180.444
-58387.906
-51408.413
-54242.133
-68236.674
-59952.307
-63157.033
-74587.681
-63691.767
-67390.206
-74426.692
-62910.798
-67321.435
-67449.509
-57794.588
-60859.26
-57349.596
-48291.286
-52177.905
-37060.843
-30087.77
-34199.677
-12999.549
-7120.5819
-9215.0305
)
;

boundaryField
{
    free
    {
        type            zeroGradient;
    }
    fixed
    {
        type            zeroGradient;
    }
    traction
    {
        type            zeroGradient;
    }
}


// ************************************************************************* //
