/*--------------------------------*- C++ -*----------------------------------*\
  =========                 |
  \\      /  F ield         | OpenFOAM: The Open Source CFD Toolbox
   \\    /   O peration     | Website:  https://openfoam.org
    \\  /    A nd           | Version:  6
     \\/     M anipulation  |
\*---------------------------------------------------------------------------*/
FoamFile
{
    version     2.0;
    format      ascii;
    class       pointVectorField;
    location    "1.25";
    object      lm;
}
// * * * * * * * * * * * * * * * * * * * * * * * * * * * * * * * * * * * * * //

dimensions      [1 -2 -1 0 0 0 0];

internalField   nonuniform List<vector> 
28033
(
(0 0 0)
(0 0 0)
(-6646.8287 1294.2758 -19.507297)
(-5747.4323 3513.5496 1.717011)
(0 0 0)
(0 0 0)
(-5748.2486 3529.4807 -2.562886)
(-6646.2587 1309.073 -11.63148)
(0 0 0)
(0 0 0)
(0 0 0)
(0 0 0)
(0 0 0)
(0 0 0)
(0 0 0)
(0 0 0)
(0 0 0)
(0 0 0)
(0 0 0)
(0 0 0)
(0 0 0)
(0 0 0)
(0 0 0)
(-6502.0606 1413.9772 -16.436619)
(-6321.4044 1520.6795 -13.063275)
(-6173.3122 1629.4273 -11.067519)
(-6069.9445 1745.6965 -9.6204121)
(-6017.3613 1874.7184 -8.9719609)
(-6013.2151 2019.6373 -8.9228475)
(-6048.0079 2180.6422 -9.0838905)
(-6106.5826 2355.4882 -9.4708582)
(-6170.2569 2538.5228 -9.8559054)
(-6219.9404 2722.6078 -10.009934)
(-6239.6201 2899.4835 -9.597269)
(-6217.308 3061.4104 -8.4864429)
(-6148.5446 3202.7071 -7.0146049)
(-6035.2486 3320.8679 -4.5133277)
(-5891.4074 3419.786 -1.4951389)
(3.8608792 2.311562 -0.58641456)
(8.7662723 1.2147756 -2.2769882)
(12.336648 -0.53478979 -4.1748466)
(15.150502 -2.9637988 -5.2855364)
(17.044176 -6.0317549 -6.5049495)
(17.845862 -9.5972448 -7.2432247)
(17.749417 -13.707625 -8.064889)
(16.444565 -18.171461 -8.4448797)
(14.307606 -23.265715 -8.9351761)
(10.90621 -28.728981 -9.2805575)
(6.4892083 -34.806438 -9.5663954)
(0.87833405 -41.279719 -9.8964082)
(-5.9631906 -48.343162 -10.334873)
(-14.1231 -55.871815 -10.844029)
(-23.689435 -63.896424 -11.482356)
(-34.703817 -72.335863 -12.28581)
(-47.411225 -81.139611 -13.235066)
(-61.703665 -90.210766 -14.438552)
(-77.994109 -99.598941 -15.622018)
(-96.155594 -109.0399 -17.017794)
(-116.41855 -118.47637 -18.455513)
(-138.90403 -127.87845 -19.862265)
(-163.61967 -136.91586 -21.302865)
(-190.74545 -145.77231 -22.628972)
(-220.21734 -154.00156 -23.791818)
(-252.11529 -161.76617 -24.855596)
(-286.41675 -168.77124 -25.712784)
(-323.11353 -175.14372 -26.368543)
(-362.09967 -180.61295 -26.834105)
(-403.32279 -185.31185 -27.184473)
(-446.76469 -189.22566 -27.348316)
(-492.18328 -192.27119 -27.466093)
(-539.65613 -194.60128 -27.574588)
(-589.03615 -196.14192 -27.676029)
(-640.33581 -197.1267 -27.84955)
(-693.51192 -197.49413 -28.180821)
(-748.49029 -197.32066 -28.679254)
(-805.50471 -196.72731 -29.337472)
(-864.49496 -195.71144 -30.16169)
(-925.65019 -194.27237 -31.185337)
(-989.08713 -192.40506 -32.309672)
(-1054.9772 -190.11414 -33.547683)
(-1123.4833 -187.25812 -34.763459)
(-1194.7715 -183.78127 -35.970781)
(-1268.9397 -179.52928 -37.027385)
(-1346.1384 -174.36937 -37.903561)
(-1426.369 -168.14201 -38.523866)
(-1509.6731 -160.68205 -38.8449)
(-1595.9501 -151.85035 -38.846467)
(-1685.0983 -141.50149 -38.522632)
(-1776.8998 -129.54469 -37.900055)
(-1871.1175 -115.90168 -37.026476)
(-1967.4365 -100.55492 -35.977625)
(-2065.5146 -83.52389 -34.844833)
(-2164.9893 -64.87681 -33.739963)
(-2265.4777 -44.735021 -32.78139)
(-2366.6227 -23.252224 -32.08992)
(-2468.082 -0.62616695 -31.784626)
(-2569.5623 22.925502 -31.969732)
(-2670.8235 47.161773 -32.731379)
(-2771.6948 71.847439 -34.134788)
(-2872.0763 96.749878 -36.220106)
(-2971.9333 121.63417 -38.981042)
(-3071.3367 146.36795 -42.392871)
(-3170.3653 170.73523 -46.48023)
(-3269.264 194.62463 -50.91447)
(-3368.1732 218.16119 -55.93818)
(-3467.4577 241.02279 -61.114926)
(-3567.2942 263.53611 -66.591902)
(-3668.1115 285.65099 -71.986639)
(-3770.0974 307.62295 -77.151984)
(-3873.573 329.53079 -82.116952)
(-3978.709 351.66395 -86.604655)
(-4085.7561 374.20834 -90.511973)
(-4194.8303 397.46563 -93.740329)
(-4305.9514 421.63201 -96.153282)
(-4419.247 447.05689 -97.744925)
(-4534.4487 473.89044 -98.375167)
(-4651.6957 502.45972 -98.121521)
(-4770.492 532.86868 -96.8595)
(-4890.8072 565.41284 -94.739911)
(-5012.1756 600.16673 -91.678373)
(-5134.2659 637.18803 -87.821129)
(-5256.5838 676.50857 -83.185474)
(-5378.9381 718.1594 -77.95554)
(-5500.5255 762.21156 -72.242071)
(-5620.8739 808.31133 -66.1388)
(-5739.7543 856.60192 -59.811663)
(-5856.1589 906.44735 -53.486982)
(-5970.283 958.15263 -47.180659)
(-6080.8706 1010.6444 -41.228625)
(-6188.4717 1064.5201 -35.744249)
(-6291.944 1118.5157 -30.695501)
(-6391.5889 1172.6762 -26.642804)
(-6492.0304 1227.602 -22.948932)
(-2.600488 9.8408444 9.9603348)
(-1.3924452 13.17984 13.677711)
(0.52560442 18.18303 18.342743)
(4.2268246 23.275583 21.949067)
(6.2617079 29.310587 25.310995)
(8.6559894 36.196208 28.607242)
(10.259507 43.205756 31.52764)
(11.352175 51.041108 34.688353)
(11.858912 59.188537 37.831701)
(11.816899 67.673675 41.083823)
(11.000127 76.826363 44.439905)
(9.5900577 86.150956 47.927806)
(7.1013958 96.219628 51.269748)
(3.8753837 106.64895 54.852915)
(-0.50806293 117.56713 58.094538)
(-6.0288429 129.26638 61.439993)
(-12.872903 141.30379 64.317217)
(-21.301601 154.35632 67.01728)
(-31.224101 167.87549 69.273916)
(-43.046206 182.32403 71.146825)
(-56.687024 197.4014 72.391713)
(-72.406159 213.52628 73.296909)
(-90.096089 230.07214 73.498983)
(-110.13695 247.89404 73.258253)
(-132.17241 266.12791 72.514156)
(-156.59814 285.37011 71.222443)
(-182.97593 305.21654 69.749673)
(-211.64318 325.82355 67.751488)
(-242.1094 347.05211 65.829837)
(-274.62066 368.89404 63.57982)
(-308.73316 391.38089 61.590423)
(-344.58881 414.39351 59.609547)
(-381.86142 437.98495 57.987277)
(-420.60832 462.15341 56.628878)
(-460.59288 486.91146 55.741218)
(-501.92072 512.29065 55.292286)
(-544.4801 538.36966 55.241458)
(-588.36469 565.29374 55.679822)
(-633.65331 592.99949 56.472191)
(-680.49801 621.73639 57.568277)
(-729.02315 651.49272 58.866427)
(-779.48737 682.42157 60.230306)
(-832.06048 714.57623 61.533305)
(-887.00598 748.03947 62.63796)
(-944.50832 782.84172 63.414547)
(-1004.787 819.01329 63.744008)
(-1067.971 856.53241 63.540575)
(-1134.1819 895.36432 62.733966)
(-1203.4472 935.43566 61.303749)
(-1275.7465 976.64677 59.256215)
(-1350.9771 1018.8802 56.643579)
(-1428.9694 1061.9969 53.552769)
(-1509.4882 1105.852 50.104246)
(-1592.2377 1150.3014 46.446185)
(-1676.8839 1195.2064 42.7446)
(-1763.0569 1240.4496 39.178004)
(-1850.3761 1285.9366 35.921203)
(-1938.4702 1331.6058 33.143719)
(-2026.9795 1377.432 30.994634)
(-2115.5917 1423.4332 29.595575)
(-2204.0413 1469.6612 29.038977)
(-2292.1238 1516.212 29.380353)
(-2379.7028 1563.2144 30.633895)
(-2466.7256 1610.8249 32.779928)
(-2553.1961 1659.2182 35.760547)
(-2639.1997 1708.5804 39.489625)
(-2724.8626 1759.1087 43.843031)
(-2810.4605 1810.9464 48.715762)
(-2896.083 1864.4083 53.887859)
(-2982.204 1919.3662 59.248675)
(-3069.0784 1976.223 64.622528)
(-3156.9082 2034.7496 69.848111)
(-3246.0775 2095.1946 74.751777)
(-3336.9207 2157.4029 79.181509)
(-3429.6146 2221.3593 83.017286)
(-3524.4794 2286.9042 86.117411)
(-3621.649 2353.8834 88.381425)
(-3721.2958 2422.0742 89.73624)
(-3823.4772 2491.2283 90.09159)
(-3928.2359 2561.0449 89.431141)
(-4035.4811 2631.2087 87.726028)
(-4145.1388 2701.3668 84.98501)
(-4256.9732 2771.1671 81.251521)
(-4370.753 2840.2217 76.586041)
(-4486.1266 2908.1631 71.087976)
(-4602.7108 2974.6127 64.879617)
(-4720.0553 3039.2116 58.106236)
(-4837.6589 3101.6178 50.95038)
(-4954.9865 3161.5328 43.581572)
(-5071.4894 3218.6796 36.231419)
(-5186.5907 3272.8557 29.07449)
(-5299.7133 3323.9327 22.332733)
(-5410.378 3371.8066 16.180946)
(-5518.0559 3416.7785 10.703276)
(-5629.6503 3463.1065 5.9341751)
(0 0 0)
(0 0 0)
(0 0 0)
(0 0 0)
(0 0 0)
(0 0 0)
(0 0 0)
(0 0 0)
(0 0 0)
(0 0 0)
(0 0 0)
(0 0 0)
(0 0 0)
(0 0 0)
(0 0 0)
(-4.2341886 2.911051 -5.8345274)
(0.10474379 11.792141 -12.945412)
(5.0874841 12.683292 -16.656238)
(7.7519011 19.221031 -21.504088)
(12.126897 23.318216 -24.037417)
(13.43788 29.852075 -26.271539)
(16.023664 35.529374 -28.010633)
(16.138521 43.094061 -29.103777)
(17.019521 50.190711 -30.238838)
(15.805452 59.155454 -30.808305)
(14.58286 67.817418 -31.501119)
(12.649312 77.488557 -32.053827)
(9.2193736 88.400062 -32.714098)
(5.9000381 98.955587 -33.292126)
(0.39620002 112.03033 -34.23763)
(-4.8160164 123.65443 -35.028289)
(-12.279371 138.26047 -36.352088)
(-20.235903 151.63003 -37.17898)
(-30.167279 167.65594 -38.730303)
(-41.384696 182.8965 -39.722394)
(-54.233567 199.66246 -41.224414)
(-69.270543 217.10737 -42.190473)
(-85.942488 235.19757 -43.389111)
(-104.95446 253.79959 -44.137134)
(-125.84616 272.93558 -44.727559)
(-149.24924 292.9505 -45.094235)
(-174.43851 312.90884 -45.035363)
(-202.26538 334.35259 -44.93135)
(-231.71138 355.03124 -44.346898)
(-263.46605 377.23731 -43.754878)
(-297.06359 399.37917 -42.990551)
(-332.42279 422.1335 -42.165336)
(-369.44245 445.38263 -41.365103)
(-408.03457 469.16629 -40.658593)
(-448.6401 494.36775 -40.197532)
(-489.17133 518.17937 -39.758965)
(-532.28074 544.5664 -39.739543)
(-576.49852 571.24257 -39.932185)
(-622.12977 598.95457 -40.40599)
(-669.35868 627.70971 -41.077139)
(-718.28466 657.65367 -41.936211)
(-769.11613 688.84229 -42.876703)
(-822.04106 721.36581 -43.829477)
(-877.27839 755.26244 -44.690425)
(-935.03026 790.56198 -45.372936)
(-995.4849 827.25674 -45.782966)
(-1058.7929 865.31144 -45.857396)
(-1125.0582 904.66151 -45.540892)
(-1194.3245 945.2103 -44.818404)
(-1266.5731 986.84226 -43.691036)
(-1341.7119 1029.4171 -42.206574)
(-1419.5837 1072.7874 -40.428075)
(-1499.9625 1116.7997 -38.459545)
(-1582.5707 1161.3037 -36.416731)
(-1667.0781 1206.1667 -34.440143)
(-1753.1365 1251.2725 -32.670123)
(-1840.3688 1296.5373 -31.253793)
(-1928.415 1341.91 -30.323107)
(-2016.9257 1387.3787 -29.99641)
(-2105.5921 1432.9728 -30.365677)
(-2194.1528 1478.7598 -31.493328)
(-2282.4093 1524.8489 -33.407333)
(-2370.2258 1571.3813 -36.099587)
(-2457.5523 1618.5257 -39.522779)
(-2544.3821 1666.4714 -43.606314)
(-2630.8365 1715.4227 -48.239748)
(-2716.9724 1765.6742 -53.305332)
(-2804.3258 1817.6871 -58.530368)
(-2889.3757 1870.2119 -63.850082)
(-2976.477 1925.1157 -69.220765)
(-3063.8776 1981.7381 -74.29156)
(-3152.6522 2040.2956 -78.841173)
(-3242.7229 2100.8763 -82.90185)
(-3334.4784 2163.3134 -86.221306)
(-3428.1669 2227.6243 -88.727042)
(-3523.9923 2293.655 -90.329965)
(-3622.1289 2361.2315 -90.962899)
(-3722.6857 2430.1288 -90.599352)
(-3825.7209 2500.0718 -89.225009)
(-3931.2219 2570.7512 -86.868227)
(-4039.1089 2641.8152 -83.56777)
(-4149.2453 2712.8938 -79.396031)
(-4261.4177 2783.5896 -74.444592)
(-4375.3514 2853.4986 -68.822967)
(-4490.716 2922.2095 -62.661166)
(-4607.1148 2989.3275 -56.103008)
(-4724.114 3054.4561 -49.30634)
(-4841.2191 3117.2545 -42.435149)
(-4957.9339 3177.3771 -35.660197)
(-5073.6931 3234.5819 -29.159371)
(-5187.9814 3288.6156 -23.088364)
(-5300.2193 3339.3978 -17.614373)
(-5409.918 3386.8185 -12.862145)
(-5516.672 3431.1082 -8.8321092)
(-5610.609 3466.5671 -5.6411193)
(-5894.8365 3437.7357 -1.6785665)
(-6048.9573 3345.3881 -1.0450281)
(-6150.8031 3221.1831 -0.96526346)
(-6215.5576 3078.4354 -1.7153799)
(-6235.0824 2915.3517 -2.9783668)
(-6210.5261 2736.6205 -4.6172854)
(-6161.0561 2552.6762 -6.5454369)
(-6110.6802 2374.4205 -8.4602499)
(-6036.5222 2193.3981 -9.9913588)
(-5997.1261 2030.6131 -11.601852)
(-6014.6845 1889.9038 -12.770282)
(-6071.5202 1761.677 -13.703959)
(-6177.4279 1646.1009 -13.80019)
(-6330.9673 1537.8329 -13.817415)
(-6528.5364 1434.9597 -12.665522)
(-6496.3369 1243.2772 -7.0006016)
(-6411.6948 1191.0586 -2.3292967)
(-6311.0051 1136.2061 3.1331773)
(-6206.3438 1081.3635 9.2956555)
(-6097.7224 1026.9013 16.124637)
(-5985.673 973.20179 23.3991)
(-5870.4947 920.673 30.837446)
(-5752.6889 869.57579 38.36133)
(-5632.7179 820.26632 45.651564)
(-5511.1534 772.94079 52.614562)
(-5388.4308 727.80457 59.026464)
(-5265.1333 684.98613 64.773366)
(-5141.6862 644.55139 69.755181)
(-5018.534 606.52599 73.938589)
(-4896.1071 570.87942 77.122353)
(-4774.892 537.54544 79.31903)
(-4655.0934 506.42496 80.47381)
(-4536.9869 477.33057 80.651083)
(-4420.7759 450.05234 79.88454)
(-4306.5738 424.37427 78.225091)
(-4194.4673 400.04746 75.758228)
(-4084.4228 376.78651 72.603139)
(-3976.3935 354.35289 68.858524)
(-3870.2439 332.44837 64.700328)
(-3765.7986 310.9035 60.158201)
(-3662.7629 289.39118 55.656372)
(-3562.1102 267.54103 51.090691)
(-3460.0175 246.03282 46.29903)
(-3360.3224 223.56421 42.35001)
(-3260.2906 200.83579 38.734483)
(-3160.653 177.67224 35.632844)
(-3060.8389 154.01145 33.273252)
(-2960.7337 130.01632 31.66961)
(-2860.2159 105.78437 30.888851)
(-2759.2294 81.481868 30.936424)
(-2657.805 57.303115 31.794149)
(-2556.0386 33.468321 33.40091)
(-2454.1092 10.20194 35.671634)
(-2352.2558 -12.264882 38.485971)
(-2250.7787 -33.719614 41.706116)
(-2150.0199 -53.960336 45.176207)
(-2050.3507 -72.826283 48.735813)
(-1952.1514 -90.183514 52.222894)
(-1855.7973 -105.9476 55.488962)
(-1761.6363 -120.07165 58.400481)
(-1669.9799 -132.55891 60.851641)
(-1581.0831 -143.446 62.763141)
(-1495.1425 -152.81436 64.093895)
(-1412.2826 -160.76395 64.83204)
(-1332.5668 -167.42932 65.005351)
(-1255.9753 -172.93111 64.662351)
(-1182.4609 -177.44997 63.904496)
(-1111.8792 -181.05128 62.793083)
(-1044.0934 -183.95296 61.507551)
(-978.92888 -186.16562 60.094851)
(-916.18215 -187.83553 58.726089)
(-855.63901 -188.99419 57.496992)
(-799.00459 -190.177 56.649207)
(-740.60873 -189.79456 55.686922)
(-686.00532 -189.65421 55.419315)
(-634.3427 -189.29551 55.571206)
(-581.77515 -187.46353 55.683817)
(-532.40704 -185.68771 56.49308)
(-484.68201 -183.22045 57.476104)
(-439.45344 -180.40663 58.78932)
(-394.97164 -176.25044 59.999608)
(-353.49832 -172.16545 61.424378)
(-313.58998 -166.71364 62.627555)
(-276.22238 -161.22784 63.811541)
(-241.26951 -154.97323 64.692315)
(-208.7888 -148.29155 65.276383)
(-178.73279 -141.22387 65.410674)
(-151.36629 -133.42874 65.084539)
(-126.29271 -125.93412 64.409206)
(-103.71603 -117.9865 63.050589)
(-83.62728 -109.71866 61.387278)
(-65.715571 -101.95274 59.107125)
(-50.036379 -93.679109 56.569448)
(-36.369399 -85.998968 53.476977)
(-24.506179 -78.07071 50.210527)
(-14.644868 -70.591038 46.67554)
(-6.1749866 -63.381564 43.00791)
(0.89740171 -56.279328 39.162859)
(6.4402993 -49.394982 35.308839)
(10.872915 -43.01407 31.61584)
(14.178414 -36.71543 27.858947)
(16.403052 -30.870503 24.311455)
(17.658514 -25.298779 20.941233)
(17.998022 -20.030972 17.808245)
(17.439847 -15.284756 14.785832)
(15.993985 -10.875507 11.922404)
(13.721034 -6.9984238 9.1485633)
(10.457673 -3.5036104 6.5904574)
(6.7346599 -1.4881608 3.9531366)
(2.1523437 0.91278204 0.76377933)
(0 0 0)
(0 0 0)
(0 0 0)
(0 0 0)
(0 0 0)
(0 0 0)
(0 0 0)
(0 0 0)
(0 0 0)
(0 0 0)
(0 0 0)
(0 0 0)
(0 0 0)
(0 0 0)
(0 0 0)
(0 0 0)
(0 0 0)
(0 0 0)
(0 0 0)
(0 0 0)
(0 0 0)
(0 0 0)
(0 0 0)
(0 0 0)
(0 0 0)
(0 0 0)
(0 0 0)
(0 0 0)
(0 0 0)
(0 0 0)
(-5747.0708 3518.6868 2.216736)
(-5747.1768 3523.2618 2.7857558)
(-5747.5053 3527.1137 3.0257529)
(-5747.9362 3530.3348 3.0364747)
(-5748.4956 3533.0125 2.6245978)
(-5748.9268 3535.1355 1.9152604)
(-5749.2509 3536.7596 0.94472742)
(-5749.3934 3537.9392 -0.093199798)
(-5749.3453 3538.6389 -1.1945717)
(-5749.1408 3538.9267 -2.1487233)
(-5748.7975 3538.727 -2.9337687)
(-5748.3868 3538.0588 -3.3728095)
(-5748.0084 3536.8186 -3.5257448)
(-5747.8202 3535.0403 -3.3270512)
(-5747.6832 3532.7091 -2.7760173)
(-6650.3269 1292.9856 -19.624596)
(-6653.0694 1291.9581 -19.741788)
(-6655.605 1291.3829 -19.698734)
(-6657.7194 1291.2253 -19.330211)
(-6659.6098 1291.3738 -18.674858)
(-6661.0146 1291.7699 -17.738779)
(-6661.9606 1292.371 -16.623236)
(-6662.3955 1293.1166 -15.418115)
(-6662.3017 1294.0313 -14.212159)
(-6661.6576 1295.1155 -13.128678)
(-6660.4671 1296.4214 -12.228798)
(-6658.6836 1298.0653 -11.637659)
(-6656.4235 1300.0411 -11.364281)
(-6653.551 1302.6329 -11.336652)
(-6650.2565 1305.7448 -11.688454)
(3.2322576 -1.0618334 -0.11209639)
(9.0489051 -1.9225209 -2.1234589)
(12.604845 -3.1252817 -2.7048188)
(15.895048 -4.8474655 -3.7815944)
(17.883147 -7.116791 -4.5379968)
(19.160838 -9.8750032 -5.2983125)
(19.33739 -12.966215 -5.70284)
(18.569258 -16.779379 -6.0883198)
(16.87653 -20.770065 -6.3862297)
(14.184446 -25.458968 -6.5977972)
(10.316186 -30.4172 -6.7000621)
(5.4834476 -36.052866 -7.0069232)
(-0.69843135 -41.94753 -7.1385756)
(-7.9331128 -48.496281 -7.5201476)
(-16.701351 -55.252679 -7.9230311)
(-26.784731 -62.596609 -8.5481663)
(-38.59724 -70.091877 -9.2202894)
(-51.903297 -78.039931 -10.165723)
(-67.22743 -85.942409 -11.158823)
(-84.432238 -94.122341 -12.320525)
(-103.75841 -102.16354 -13.554951)
(-125.3501 -110.10626 -14.860074)
(-149.25557 -117.84739 -16.13043)
(-175.54928 -125.16853 -17.419107)
(-204.42839 -132.06626 -18.558221)
(-235.80165 -138.38375 -19.656254)
(-269.73529 -144.10891 -20.521306)
(-306.17546 -149.05782 -21.316936)
(-345.14645 -153.26272 -21.879455)
(-386.50959 -156.75951 -22.336938)
(-430.16285 -159.33043 -22.627993)
(-476.09508 -161.21159 -22.864414)
(-524.1244 -162.28651 -23.046043)
(-574.16762 -162.69004 -23.209198)
(-626.19909 -162.39313 -23.445122)
(-680.14784 -161.44549 -23.73839)
(-735.96203 -159.97141 -24.16823)
(-793.70227 -157.87985 -24.732032)
(-853.47691 -155.28854 -25.437216)
(-915.28542 -152.09045 -26.302463)
(-979.358 -148.32609 -27.25774)
(-1045.7961 -143.88888 -28.281548)
(-1114.7651 -138.71584 -29.340758)
(-1186.4149 -132.66364 -30.329772)
(-1260.9052 -125.65435 -31.221022)
(-1338.3429 -117.52903 -31.947035)
(-1418.7729 -108.16212 -32.450139)
(-1502.2146 -97.436311 -32.705825)
(-1588.5833 -85.241074 -32.691257)
(-1677.7566 -71.503808 -32.408534)
(-1769.5173 -56.179081 -31.891047)
(-1863.5962 -39.26352 -31.180777)
(-1959.6638 -20.793621 -30.353246)
(-2057.3445 -0.84918697 -29.488604)
(-2156.2465 20.452255 -28.690785)
(-2255.9561 42.95437 -28.055551)
(-2356.0888 66.480072 -27.693059)
(-2456.2707 90.826349 -27.692891)
(-2556.1965 115.78309 -28.140401)
(-2655.6024 141.14412 -29.09576)
(-2754.3163 166.71505 -30.611161)
(-2852.2261 192.31129 -32.681852)
(-2949.3172 217.79499 -35.321422)
(-3045.659 243.0632 -38.489188)
(-3141.3038 267.99593 -42.083037)
(-3236.7539 292.67271 -46.083015)
(-3331.4494 316.97337 -50.452029)
(-3426.6595 341.03759 -54.84579)
(-3522.3199 364.92168 -59.517415)
(-3618.6856 388.75795 -63.862507)
(-3716.0226 412.7306 -68.128796)
(-3814.6694 436.97457 -72.052924)
(-3914.8514 461.73208 -75.560047)
(-4016.8036 487.16574 -78.53029)
(-4120.628 513.52041 -80.916389)
(-4226.4551 540.93864 -82.607152)
(-4334.2838 569.69963 -83.610563)
(-4444.0607 599.8365 -83.825275)
(-4555.7272 631.67009 -83.330492)
(-4669.0279 665.13251 -82.021473)
(-4783.8298 700.48106 -80.041143)
(-4899.8659 737.67949 -77.328679)
(-5016.3935 776.66195 -73.95915)
(-5132.9243 817.39189 -70.066724)
(-5251.2297 860.33447 -65.747563)
(-5368.2837 904.7396 -61.033409)
(-5484.4729 950.69064 -56.047279)
(-5599.4601 998.0128 -50.932985)
(-5712.6195 1046.4548 -45.779709)
(-5823.8586 1095.7774 -40.669572)
(-5932.3897 1145.8111 -35.898869)
(-6038.2511 1196.1318 -31.276102)
(-6140.7568 1246.6251 -27.148004)
(-6240.0249 1296.9181 -23.406812)
(-6347.9141 1349.9923 -19.850462)
(4.2102396 -0.020765727 -0.29179564)
(8.9857183 -1.4974689 -0.89601268)
(12.985869 -2.5793988 -1.1626337)
(16.191787 -4.0779208 -1.9518338)
(18.809868 -5.8718795 -2.6006828)
(20.213454 -7.8583088 -2.9133998)
(20.814663 -10.543068 -3.3213648)
(20.584234 -13.28077 -3.5163506)
(19.406122 -16.675899 -3.8016197)
(17.088959 -20.326624 -3.6945842)
(13.961303 -24.573946 -3.970163)
(9.6453877 -29.082404 -3.838279)
(4.239933 -34.212505 -4.0334846)
(-2.465906 -39.630967 -4.1280345)
(-10.437447 -45.541513 -4.4759497)
(-19.96061 -51.737809 -4.7307613)
(-30.94604 -58.338474 -5.3371381)
(-43.748944 -65.064852 -6.0051077)
(-58.361888 -72.030219 -6.7863816)
(-75.026698 -79.024907 -7.7792762)
(-93.828737 -85.958929 -8.8216582)
(-114.94591 -92.804524 -9.9581331)
(-138.47497 -99.307373 -11.126627)
(-164.58653 -105.51636 -12.331633)
(-193.30129 -111.12456 -13.460718)
(-224.6927 -116.28749 -14.503903)
(-258.77205 -120.65258 -15.451475)
(-295.53828 -124.35708 -16.305862)
(-334.9297 -127.2367 -16.948883)
(-376.84762 -129.30425 -17.496599)
(-421.22775 -130.52713 -17.925536)
(-467.93163 -130.94758 -18.244713)
(-516.79131 -130.57053 -18.480793)
(-567.7364 -129.37777 -18.734841)
(-620.67735 -127.48347 -18.95066)
(-675.47704 -124.90691 -19.259311)
(-732.15883 -121.61234 -19.638148)
(-790.67281 -117.70511 -20.131557)
(-851.0023 -113.12159 -20.750651)
(-913.33057 -107.88222 -21.469803)
(-977.68287 -101.89844 -22.243377)
(-1044.2802 -95.160991 -23.137052)
(-1113.2438 -87.48973 -23.963145)
(-1184.6927 -78.880195 -24.810724)
(-1258.8155 -69.141147 -25.540423)
(-1335.6946 -58.198362 -26.148469)
(-1415.3832 -45.920965 -26.570086)
(-1497.8738 -32.235576 -26.796864)
(-1583.0839 -17.054043 -26.796381)
(-1670.8602 -0.35954569 -26.596485)
(-1760.97 17.866462 -26.209256)
(-1853.1143 37.569422 -25.685286)
(-1946.9407 58.684004 -25.087774)
(-2042.0437 81.083407 -24.486369)
(-2138.0129 104.62739 -23.968164)
(-2234.4139 129.13544 -23.614797)
(-2330.8513 154.42313 -23.513694)
(-2426.9512 180.28269 -23.732716)
(-2522.4109 206.52658 -24.339086)
(-2616.9811 232.96546 -25.377309)
(-2710.5146 259.43789 -26.866798)
(-2802.9274 285.80003 -28.810608)
(-2894.2408 311.9748 -31.210203)
(-2984.5584 337.85486 -33.973007)
(-3073.946 363.46427 -37.123641)
(-3163.1679 388.79978 -40.503253)
(-3250.3007 413.58899 -43.976955)
(-3349.5259 439.82022 -47.824122)
(-3442.2713 465.28485 -51.480074)
(-3533.341 490.68557 -55.067517)
(-3625.2423 516.22074 -58.418806)
(-3718.3889 542.25094 -61.490368)
(-3813.1192 568.93154 -64.195456)
(-3909.6399 596.38924 -66.433496)
(-4008.1329 624.8816 -68.198504)
(-4108.6711 654.43897 -69.361112)
(-4211.3412 685.35593 -70.010289)
(-4316.067 717.56317 -69.981798)
(-4422.8586 751.38485 -69.45111)
(-4531.4673 786.60123 -68.215469)
(-4641.8338 823.58417 -66.54803)
(-4753.643 862.00379 -64.252034)
(-4867.1775 902.27281 -61.52968)
(-4966.8226 941.29191 -58.079393)
(-5068.9045 981.84021 -54.360982)
(-5181.8957 1025.777 -50.604525)
(-5296.2803 1071.2755 -46.656749)
(-5410.382 1117.8857 -42.625479)
(-5523.474 1165.23 -38.478134)
(-5635.6746 1213.5122 -34.52909)
(-5746.0045 1262.0475 -30.564684)
(-5854.6626 1310.9837 -26.842895)
(-5961.1979 1360.2565 -23.391897)
(-6065.101 1409.0532 -19.960761)
(-6176.7176 1460.9698 -16.842861)
(5.2632641 -0.11769615 0.12319089)
(10.021184 -1.0981693 -0.41758621)
(13.943514 -2.1600177 -0.199003)
(17.437698 -3.3063213 -0.81202737)
(19.913446 -4.6565965 -0.7817132)
(21.502084 -6.4203072 -1.1201387)
(22.656104 -8.1439459 -1.2331149)
(22.581752 -10.453953 -1.4139221)
(21.718686 -12.91064 -1.1800122)
(20.013268 -15.999898 -1.3355312)
(17.284968 -19.165845 -1.0303654)
(13.437657 -23.083777 -1.0323777)
(8.4491028 -27.090054 -0.83380952)
(2.3510606 -31.752046 -0.89278327)
(-5.3060659 -36.562243 -0.75085679)
(-14.203576 -41.896549 -1.0797183)
(-24.959631 -47.309051 -1.2495443)
(-37.25187 -53.093297 -1.7363439)
(-51.655075 -58.863435 -2.2754582)
(-68.003115 -64.744497 -3.0662604)
(-86.698349 -70.49388 -3.8541109)
(-107.71505 -76.050852 -4.8899842)
(-131.34825 -81.306756 -5.8794758)
(-157.51656 -86.099118 -7.0028151)
(-186.50013 -90.408493 -8.0046884)
(-218.21073 -94.035532 -9.0894113)
(-252.76265 -96.943677 -10.024377)
(-290.03607 -99.106574 -10.879824)
(-330.06228 -100.3643 -11.601345)
(-372.67517 -100.80987 -12.257971)
(-417.78752 -100.3197 -12.73414)
(-465.21613 -99.018596 -13.1349)
(-514.82605 -96.786795 -13.475839)
(-566.48325 -93.801987 -13.752872)
(-619.98112 -90.00344 -14.021414)
(-675.26584 -85.437489 -14.313558)
(-732.18123 -80.200666 -14.659031)
(-790.7281 -74.222632 -15.067513)
(-851.03106 -67.511536 -15.55444)
(-913.0109 -60.0187 -16.080342)
(-976.81524 -51.794873 -16.744137)
(-1042.5776 -42.658249 -17.370239)
(-1110.4276 -32.590608 -18.074095)
(-1180.5148 -21.480493 -18.709702)
(-1252.9627 -9.2175736 -19.294928)
(-1327.8781 4.2768587 -19.775705)
(-1405.2953 19.103153 -20.127843)
(-1485.2083 35.311078 -20.322633)
(-1567.5152 52.951183 -20.368285)
(-1652.0535 72.012553 -20.262573)
(-1738.5775 92.477466 -20.035017)
(-1826.7768 114.25983 -19.719416)
(-1916.2878 137.26939 -19.374239)
(-2006.7039 161.35359 -19.044865)
(-2097.6113 186.36318 -18.812307)
(-2188.5837 212.10763 -18.725911)
(-2279.2435 238.4057 -18.859355)
(-2369.2331 265.06537 -19.253617)
(-2458.2828 291.91917 -19.966943)
(-2546.1802 318.79767 -21.006102)
(-2632.8148 345.58437 -22.401224)
(-2718.1483 372.17061 -24.13644)
(-2802.2583 398.50789 -26.195092)
(-2885.2678 424.54917 -28.523251)
(-2967.2848 450.30825 -31.134961)
(-3050.7153 476.1633 -33.813236)
(-3120.7463 499.62184 -36.736199)
(-3226.1806 528.82503 -39.836309)
(-3312.5055 555.28172 -42.773433)
(-3397.0375 581.32157 -45.512033)
(-3482.1645 607.81812 -48.046004)
(-3568.6211 634.80734 -50.337144)
(-3656.9675 662.55918 -52.30463)
(-3747.5397 691.21369 -53.887993)
(-3840.2753 720.91046 -55.100323)
(-3935.4557 751.74778 -55.858103)
(-4033.0892 783.89976 -56.203804)
(-4133.3138 817.38462 -56.06473)
(-4235.9881 852.35034 -55.511716)
(-4341.1665 888.76682 -54.495491)
(-4448.5939 926.74568 -53.106916)
(-4558.1176 966.13399 -51.270262)
(-4670.0839 1007.2158 -49.225767)
(-4783.2202 1049.622 -46.641951)
(-4875.0557 1088.3337 -44.042862)
(-4985.3304 1131.8805 -41.032295)
(-5101.9544 1177.8802 -38.088947)
(-5219.6379 1224.9986 -34.957779)
(-5337.6139 1273.0636 -31.898225)
(-5455.6366 1321.8425 -28.773731)
(-5572.9973 1371.1495 -25.767943)
(-5689.9271 1420.9967 -22.843948)
(-5805.658 1471.2002 -20.014966)
(-5920.0396 1521.2799 -17.191436)
(-6039.3813 1573.7958 -14.351845)
(5.9685974 0.48541729 0.74185994)
(10.582519 0.059571874 0.90217427)
(14.600684 -0.77726541 1.3795088)
(17.896441 -1.4281949 1.4383472)
(20.594722 -2.654386 1.3598262)
(22.803774 -3.4394255 1.2728542)
(23.901273 -4.8672194 1.2351722)
(24.242904 -6.2956616 1.6094611)
(23.928763 -8.2719905 1.4100462)
(22.470834 -10.27422 1.9781649)
(20.095331 -12.90646 2.025129)
(16.627499 -15.706933 2.5635199)
(12.149676 -18.977997 2.6262186)
(6.1209099 -22.558541 3.2039256)
(-0.96542479 -26.462599 3.0839708)
(-9.9001903 -30.649881 3.3986476)
(-20.230189 -35.058795 3.2673056)
(-32.617621 -39.629502 3.0947416)
(-46.834255 -44.219298 2.7492313)
(-63.347419 -48.826924 2.2468363)
(-82.083945 -53.215113 1.6031708)
(-103.39932 -57.4253 0.80039892)
(-127.24152 -61.164588 -0.045088679)
(-153.89466 -64.514641 -1.0235148)
(-183.33028 -67.148196 -1.9864443)
(-215.63178 -69.161608 -3.0125545)
(-250.77356 -70.355702 -3.8957982)
(-288.74145 -70.712936 -4.8349441)
(-329.4188 -70.148374 -5.6061907)
(-372.68893 -68.704931 -6.3129721)
(-418.38965 -66.317977 -6.8919919)
(-466.3454 -63.017853 -7.4236802)
(-516.37293 -58.847943 -7.8197331)
(-568.2487 -53.847471 -8.1984948)
(-621.85231 -47.975301 -8.5037606)
(-676.98035 -41.42826 -8.8388568)
(-733.61353 -34.028576 -9.1353849)
(-791.70558 -25.932843 -9.4731272)
(-851.07067 -17.082958 -9.8812125)
(-911.86227 -7.5657358 -10.383681)
(-974.18151 2.8134578 -10.833634)
(-1038.1136 14.046049 -11.377126)
(-1103.8127 26.193089 -11.887521)
(-1171.4067 39.364823 -12.392727)
(-1241.0304 53.627871 -12.864251)
(-1312.7514 69.07482 -13.272741)
(-1386.6228 85.760246 -13.591132)
(-1462.6077 103.72527 -13.826922)
(-1540.6106 122.98897 -13.962283)
(-1620.4603 143.52487 -14.015606)
(-1701.9142 165.29051 -14.00027)
(-1784.6642 188.18915 -13.948808)
(-1868.3605 212.11602 -13.895368)
(-1952.6127 236.91697 -13.88009)
(-2037.0301 262.44307 -13.954037)
(-2121.2216 288.50988 -14.150085)
(-2204.8418 314.95613 -14.519511)
(-2287.5789 341.60678 -15.087129)
(-2369.2119 368.3163 -15.884001)
(-2449.5725 394.95226 -16.914896)
(-2528.6058 421.42559 -18.197157)
(-2606.3296 447.66352 -19.704744)
(-2682.8535 473.63098 -21.422372)
(-2758.372 499.35846 -23.338227)
(-2833.1653 524.85557 -25.360642)
(-2907.2991 550.17129 -27.509085)
(-2982.958 575.74768 -29.726524)
(-3053.9672 600.47061 -31.811136)
(-3131.2378 626.47344 -33.962768)
(-3208.5195 652.57505 -35.929073)
(-3286.1204 679.05167 -37.766103)
(-3365.231 706.04715 -39.339708)
(-3448.1134 734.22271 -40.658309)
(-3534.0644 763.54995 -41.819962)
(-3622.0385 793.89349 -42.646706)
(-3712.9827 825.49324 -43.175585)
(-3807.1236 858.50975 -43.411614)
(-3904.591 892.97693 -43.277522)
(-4005.3916 929.04589 -42.890532)
(-4109.5503 966.65997 -42.126406)
(-4216.9671 1005.9579 -41.142609)
(-4327.5889 1046.8203 -39.817754)
(-4441.1912 1089.3752 -38.332052)
(-4557.518 1133.3939 -36.532018)
(-4678.5379 1179.5545 -34.592898)
(-4798.7805 1226.1709 -32.484898)
(-4921.9539 1274.4076 -30.348594)
(-5047.2456 1323.9213 -28.140353)
(-5173.8217 1374.4272 -25.865456)
(-5301.6944 1425.976 -23.631834)
(-5430.1179 1478.2643 -21.398024)
(-5559.1224 1531.2585 -19.179549)
(-5688.1937 1584.9515 -17.00503)
(-5816.8808 1638.6232 -14.703557)
(-5946.8564 1693.6932 -12.464236)
(6.887938 1.1698132 1.5357571)
(11.575232 0.91021453 2.0355799)
(15.888974 0.592716 2.6738862)
(19.321791 0.24530144 2.687541)
(22.489439 0.024987553 2.9962669)
(24.266052 -0.56944248 3.1640063)
(25.764812 -1.1369281 3.7797715)
(26.401437 -2.058452 3.6787002)
(26.186079 -2.9211028 4.4898664)
(24.906224 -4.4229543 4.7655835)
(22.917144 -5.8743488 5.5010622)
(19.688469 -7.9199945 5.8550932)
(15.180192 -10.031231 6.7485132)
(9.6120267 -12.645767 6.9929686)
(2.3458654 -15.331326 7.7009196)
(-6.312554 -18.413166 7.9729221)
(-16.857799 -21.491933 8.2727233)
(-29.190033 -24.785145 8.2934456)
(-43.746972 -27.949979 8.3216712)
(-60.418954 -31.102403 7.9458373)
(-79.661653 -33.951334 7.623008)
(-101.33864 -36.50007 6.9491577)
(-125.85375 -38.574235 6.3161928)
(-153.04859 -40.081512 5.4100179)
(-183.19292 -40.890518 4.5783933)
(-216.12502 -40.992971 3.6131876)
(-251.9932 -40.175126 2.7065511)
(-290.54387 -38.532774 1.7699726)
(-331.82266 -35.909829 0.97206353)
(-375.53313 -32.399921 0.16407115)