/*--------------------------------*- C++ -*----------------------------------*\
  =========                 |
  \\      /  F ield         | OpenFOAM: The Open Source CFD Toolbox
   \\    /   O peration     | Website:  https://openfoam.org
    \\  /    A nd           | Version:  6
     \\/     M anipulation  |
\*---------------------------------------------------------------------------*/
FoamFile
{
    version     2.0;
    format      ascii;
    class       pointScalarField;
    location    "1.71";
    object      p;
}
// * * * * * * * * * * * * * * * * * * * * * * * * * * * * * * * * * * * * * //

dimensions      [1 -1 -2 0 0 0 0];

internalField   nonuniform List<scalar> 
28033
(
-389271.78
476483.14
37.260143
-76.066638
-655375.83
748756.77
-324.95455
275.68061
-337374.89
-297771.45
-260279.3
-219776.03
-161292.82
-113918.96
-64274.197
-13688.534
41845.918
87785.297
139800
167000.57
230245.83
276524.11
264027.96
652.45308
1270.4981
1983.9819
1859.5555
1999.1282
1441.9001
1122.6604
399.58315
-228.83025
-755.90483
-1387.7103
-1703.426
-1803.877
-1430.4301
-791.52611
-88569.033
-107912.4
-96002.398
-109922.74
-101779.12
-109448.68
-108654.97
-111553.76
-110634.63
-114283.66
-111603.86
-112449.34
-112458.68
-113231.46
-111492.85
-111678.77
-112593.87
-111931.25
-112309.17
-112631.88
-113612.49
-113762.21
-115666.01
-115823.07
-117291.42
-118245.58
-119667.32
-119907.23
-121090.64
-121202.4
-121953.88
-121302.22
-121645.56
-120736.07
-119967.43
-118630.67
-117526.7
-116355.87
-114259.1
-112894.47
-111044.04
-109233.17
-107782.58
-106406.31
-105076.66
-104107.55
-103163.57
-102517.28
-101869.75
-101472.01
-100961.23
-100565.8
-100030
-99367.944
-98538.006
-97423.774
-96046.929
-94323.559
-92252.855
-89832.97
-87068.359
-83946.168
-80506.431
-76926.045
-72995.08
-69178.177
-65423.961
-61231.769
-56912.892
-52763.533
-48804.39
-45107.794
-41574.624
-38240.43
-35072.008
-32164.634
-29410.675
-26899.368
-24425.563
-22241.887
-20036.63
-17971.165
-15934.805
-13797.706
-11876.357
-9924.4167
-8187.6468
-6390.1104
-4796.1999
-3169.1031
-2041.4658
-682.68339
-221.41176
237.05133
434.56438
98151.392
82993.229
97442.869
88980.972
101398.87
97869.583
105531.17
101851.48
107555.65
104675.86
108470.77
106331.58
107985.96
107847.83
108350.18
108001.07
108825.33
108846.75
109832.54
110390.43
111039.91
112525.88
113172.19
115218.2
116029.41
117435.6
118947.37
119706.42
121106.6
121282.14
122269.06
122156.09
122522.67
121961.74
122128.73
121065.75
120001.33
119198.53
117786.72
116489.38
115300.05
113693.12
112562.01
111110.57
110031.4
108800.29
107884.09
106819.23
106045.51
105086.25
104316.71
103337.29
102405.17
101239.26
99973.318
98432.729
96705.891
94654.1
92360.559
89751.744
86870.563
83719.19
80323.308
76719.357
72938.006
69036.081
65089.484
61151.488
57397.484
53175.623
49507.763
45742.972
42352.281
38982.473
35905.869
32970.308
30228.935
27669.187
25224.118
22974.139
20795.1
18728.873
16720.695
14803.639
12900.244
11096.659
9302.5906
7612.2608
5988.5588
4463.0886
3090.1089
1918.4806
849.72973
212.10414
-55.752136
-542957.13
-524883.78
-365181.7
-374656.7
-241727.63
-130502.64
-61840.868
50757.434
136099.73
240324.08
314844.46
405152.65
497802.16
554333.67
583828.49
148369.02
127487.03
67846.908
122130.29
107786.58
114210.53
111867.36
118156.51
116601.19
122639.38
122634.55
118723.88
123094.96
118280.39
123107.69
118977.92
121082.82
119198.04
120085.18
121254.05
122473.29
121079.21
121595.88
127753.76
122339.88
129253.85
124688.08
131550.83
127507.27
132167.45
130377.14
132039.4
130369.43
131189.32
130074.92
126263.45
126770.94
125723.81
123389.26
122080.16
119828.53
118353.9
116384.06
115025.82
113376.28
112349.77
111088.25
110298.85
109419.54
108844.42
108180.59
107642.78
106981.07
106260.51
105346.05
104188.63
102812.84
101062.39
99022.157
96619.691
93868.062
90796.446
87417.271
83780.495
79896.613
75883.562
71978.32
67728.429
63318.138
59286.19
55577.993
51735.566
48073.827
44706.036
41465.992
38435.362
35595.723
32958.803
30404.695
28012.486
25650.615
23402.975
21123.793
18945.906
16714.855
14554.191
12360.721
10272.047
8183.6095
6260.4017
4435.6889
2825.4756
1508.3299
414.73546
-160.03564
-948.16539
-1800.2506
-1776.1516
-2149.8872
-1435.6909
-1393.3015
-471.97043
242.76423
1036.1489
1761.2905
1423.4061
2888.6918
1393.1721
1769.6788
560.3373
57.477304
635.96488
527.031
-84.066335
-670.14988
-1753.8622
-2914.5355
-4308.5474
-5673.0177
-7376.8901
-8980.9923
-10618.357
-12481.793
-14406.528
-16403.66
-18478.142
-20742.147
-23051.541
-25609.854
-28292.312
-31214.409
-34356.911
-37696.444
-41195.113
-45066.291
-48828.988
-51956.491
-58182.953
-61470.672
-65748.121
-69915.76
-74097.097
-78032.403
-81775.971
-85295.661
-88480.854
-91410.898
-93935.954
-96222.869
-98087.042
-99752.725
-101032.51
-102224.4
-103059.63
-103949.36
-104557.44
-105341.91
-105905.61
-106782.2
-107434.38
-108519.65
-109363.17
-110614.82
-111696.98
-113029.81
-114238.49
-115478.03
-114874.05
-119629.58
-118269.11
-117686.52
-122253.59
-120588.32
-120327.55
-118626.88
-121729.34
-116785.49
-119822.12
-117450.95
-116081.41
-115509.82
-112317.03
-113633.49
-110150.99
-109343.49
-108900.71
-108333.43
-107241.89
-107306.14
-108925.63
-108726.67
-104600.23
-105361.97
-107068.12
-109376.58
-107401.2
-106554.08
-105208.89
-103336.75
-101140.61
-96631.662
-105724.63
-93957.627
-82298.38
-102547.21
-250916.55
-277049.59
-290170.87
-311790.56
-306024.47
-325296.07
-312866.59
-324401.32
-308557.94
-294529.29
-305506.7
-274718.95
-257484.35
-273945.45
-185166.2
380095.26
479728.67
482896.17
519084.45
514553.99
487032.89
564618.45
608624.41
572903.08
581022.9
562068.89
547051.66
516987.36
519612.96
495997.6
558.60527
682.32578
573.95449
364.04929
69.945874
-181.55999
-354.07606
-481.47904
-487.89379
-414.69124
-289.28465
-160.45084
64.454672
0.71063637
147.82016
59.299984
-34.087791
-21.206753
116.21137
326.48602
510.22541
579.91482
597.49969
511.44108
379.847
121.40931
-63.57455
-293.01772
-431.67534
28.06954
-83398.785
-100847.09
-88587.01
-90161.916
-94288.018
-98105.793
-99271.164
-100866.18
-102266.65
-101897.34
-102120.74
-103648.11
-102745.24
-102375.43
-102072.17
-103385.4
-101939.58
-102529.8
-102738.53
-102984.38
-103584.57
-104375.06
-104806.19
-105438.88
-106547.38
-107076.87
-107886.58
-108426.3
-109302.24
-109371.73
-109416.2
-109186.36
-109403.53
-108512.79
-107823.43
-106768.03
-105677.26
-103955.41
-102821.76
-101485.68
-100113.92
-98542.034
-97229.561
-95909.994
-94721.411
-93772.627
-92798.709
-92149.495
-91431.911
-90938.901
-90372.659
-89900.082
-89294.908
-88638.718
-87802.562
-86779.686
-85515.166
-83982.13
-82165.042
-80052.945
-77642.435
-74926.575
-72019.103
-68881.08
-65457.728
-61985.208
-57923.552
-54476.296
-50964.602
-47494.896
-44064.255
-40835.761
-37662.947
-34755.122
-31907.2
-29330.919
-26870.983
-24590.579
-22384.861
-20450.649
-18403.36
-16625.719
-14763.57
-13025.684
-11238.63
-9602.2842
-7967.9845
-6427.5252
-4949.5215
-3674.4824
-2414.9484
-1364.5004
-589.71068
189.05642
808.12826
-81443.252
-86343.654
-72866.044
-78264.863
-80019.881
-81812.206
-81619.181
-84023.59
-84531.44
-86282.866
-85750.498
-87014.41
-86307.304
-87542.954
-86780.118
-86976.376
-86679.527
-87374.185
-87159.681
-87315.234
-88031.142
-87695.346
-88727.703
-89018.3
-90006.1
-89944.447
-91147.427
-91257.179
-91757.158
-91836.775
-92285.331
-91959.323
-91776.715
-91118.77
-90669.339
-89749.283
-88994.627
-87831.068
-86859.265
-85575.011
-84359.825
-83305.273
-81939.882
-80966.542
-79952.802
-79168.912
-78362.787
-77797.507
-77178.21
-76750.305
-76248.503
-75820.223
-75296.532
-74715.143
-74010.345
-73137.214
-72080.917
-70816.643
-69312.879
-67579.589
-65610.269
-63399.068
-61053.549
-58486.596
-55820.291
-53510.494
-51070.251
-47883.254
-45342.158
-42342.689
-39468.185
-36732.441
-33972.737
-31299.942
-28786.235
-26504.145
-24184.872
-22198.178
-20151.876
-18387.337
-16541.197
-14901.487
-13335.667
-11532.23
-9857.6387
-8294.4158
-6834.8745
-5550.7545
-4365.8457
-3150.5214
-2224.2025
-1112.9493
-579.87638
326.8495
1093.6145
-67286.484
-76004.683
-60202.579
-67043.931
-66285.745
-68391.35
-68958.704
-71726.074
-71761.115
-72203.393
-72523.899
-73300.742
-72974.7
-72954.674
-72783.021
-73149.08
-73027.478
-72799.449
-73072.458
-73071.406
-73638.669
-73516.131
-74565.165
-74398.71
-75175.874
-75253.465
-76179.812
-75865.551
-76799.191
-76377.063
-76823.101
-76291.768
-76457.866
-75827.53
-75630.703
-74687.583
-74263.188
-73233.555
-72534.55
-71277.306
-70325.59
-69175.773
-68473.517
-67402.974
-66722.735
-65901.313
-65292.511
-64699.174
-64244.3
-63806.914
-63429.533
-63050.727
-62643.609
-62178.095
-61627.5
-60927.654
-60102.143
-59083.799
-57871.649
-56469.547
-54858.76
-53034.793
-51090.475
-48851.101
-46669.988
-44623.288
-42586.008
-39794.433
-37555.889
-35390.397
-33110.125
-30759.218
-28389.01
-26301.379
-24255.706
-22329.992
-20572.534
-18820.409
-17234.134
-15692.187
-14166.457
-12865.342
-11334.028
-9893.6008
-8634.9909
-7304.9563
-5989.2471
-5000.4361
-3901.4473
-2906.8286
-2044.2499
-999.70178
-473.63966
769.51073
1416.5954
-51933.134
-63651.681
-46717.046
-55011.626
-51815.467
-53986.351
-54283.901
-56189.798
-55499.268
-57230.275
-57055.648
-58144.733
-57037.863
-58438.968
-57468.212
-58305.274
-57292.915
-58216.846
-57894.136
-58112.538
-58119.514
-58354.963
-58708.478
-58556.791
-59426.365
-59256.585
-59894.268
-59916.548
-60348.888
-60160.817
-60630.766
-60133.677
-60238.304
-59606.902
-59538.285
-58401.939
-58297.578
-56792.847
-56096.806
-55098.807
-54622.928
-53626.905
-52883.053
-52024.228
-51426.551
-50806.36
-50313.97
-49886.608
-49546.79
-49235.52
-48977.926
-48723.225
-48451.23
-48141.221
-47752.09
-47273.587
-46671.435
-45934.714
-45041.088
-44000.007
-42796.974
-41433.092
-39936.66
-38307.898
-36655.101
-34742.535
-33175.675
-31278.825
-28832.613
-27113.033
-25304.234
-23371.325
-21810.005
-20115.514
-18522.794
-17018.325
-15596.516
-14296.609
-13022.935
-11825.585
-10710.899
-9628.1924
-8516.7771
-7334.0383
-6397.7731
-5686.8448
-4772.3867
-3929.925
-3080.9112
-2272.8968
-1564.8642
-750.5129
-217.65695
617.18472
1313.1943
-45065.213
-47600.642
-37184.706
-41912.995
-40272.213
-41605.436
-42094.542
-43279.532
-42919.291
-43602.971
-43918.311
-43628.665
-43899.386
-43861.951
-43821.606
-43690.481
-43566.243
-43651.298
-43413.478
-43254.459
-43746.644
-43457.159
-43868.667
-43810.585
-44447.457
-43962.58
-44905.293
-44275.745
-45028.019
-44519.776
-44971.981
-44319.183
-44658.985
-43996.283
-43999.249
-43206.563
-43912.644
-43519.406
-43293.664
-43656.232
-42695.36
-42065.892
-41668.351
-40973.131
-40558.048
-40009.352
-39626.826
-39239.141
-38988.871
-38704.97
-38529.763
-38330.082
-38152.89
-37929.465
-37683.243
-37346.373
-36938.075
-36412.192
-35779.138
-35006.53
-34136.719
-33065.548
-31976.342
-30747.573
-29241.243
-28082.799
-26484.495
-24982.384
-23369.018
-21874.768
-20405.075
-18658.391
-16471.343
-15116.502
-13774.941
-12537.683
-11520.884
-10507.565
-9553.932
-8698.0608
-7818.6987
-7069.8003
-6223.1237
-5579.8047
-4738.5548
-4117.1796
-3393.4213
-2824.8075
-2140.6518
-1599.7444
-1055.6337
-332.68526
-106.1991
768.15817
1175.431
-27230.957
-34689.503
-23820.454
-29514.602
-27084.037
-27920.311
-27718.056
-29211.287
-27912.512
-29538.227
-28596.015
-29544.517
-28400.573
-29619.928
-28212.334
-29024.79
-28196.324
-28929.848
-27940.224
-28734.413
-28130.151
-28284.235
-28356.61
-28306.842
-28439.59
-28415.753
-28718.048
-28496.32
-28957.696
-28515.278
-28908.555
-28430.565
-28667.797
-28045.647
-28067.649
-27574.301
-27788.67
-27576.538
-27608.127
-27432.526
-27748.184
-27052.117
-26699.778
-26185.986
-25893.694
-25498.741
-25283.702
-25050.255
-24944.068
-24816.739
-24794.566
-24740.069
-24722.211
-24667.943
-24608.431
-24459.703
-24286.557
-24000.526
-23646.811
-23182.698
-22624.919
-21989.157
-21238.167
-20375.124
-19606.565
-18494.122
-17665.031
-16613.32
-15611.756
-14644.144
-13506.448
-12388.351
-11393.66
-10108.274
-9058.6733
-8348.4221
-7606.7565
-6989.1581
-6368.7295
-5848.0098
-5256.5709
-4792.2343
-4266.0053
-3817.9257
-3288.0221
-2946.3273
-2374.1935
-1959.9819
-1441.7543
-1007.6165
-586.33512
-96.411398
117.04912
695.116
955.17371
-16809.409
-18585.956
-13341.322
-17259.944
-14563.538
-15034.137
-15049.368
-15681.303
-14903.928
-14825.366
-15474.075
-14237.022
-15016.536
-14419.73
-14300.221
-14299.209
-14107.995
-13748.952
-13673.856
-13652.549
-13367.322
-13461.248
-13461.823
-13181.22
-13633.34
-13113.706
-13625.803
-13110.417
-13569.954
-12975.255
-13522.258
-12819.361
-13213.508
-12543.205
-12815.571
-12138.206
-12236.474
-11759.944
-11472.382
-10522.477
-10596.681
-10151.004
-9958.7278
-9658.8644
-9601.6545
-9386.0809
-9354.5907
-9302.6311
-9354.4053
-9390.5867
-9528.8375
-9627.785
-9786.8294
-9915.5585
-10051.082
-10132.497
-10206.842
-10204.974
-10159.432
-10042.871
-9882.4032
-9621.9807
-9323.9234
-9000.7696
-8532.0526
-8162.2914
-7643.5047
-7169.0743
-6653.9664
-6160.4314
-5680.7927
-5197.156
-4590.2008
-4441.4906
-4133.0563
-3810.7258
-3395.4454
-3114.9161
-2818.3086
-2537.4795
-2258.9328
-2038.1691
-1725.4788
-1533.5017
-1205.749
-1032.2951
-681.86261
-601.13163
-280.04055
-215.78393
41.556362
202.66175
256.18282
592.94691
435.2535
1759.4988
-5478.5028
-28.809096
-3995.7708
-1758.0547
-2655.8968
-1589.1703
-2567.1578
-419.73902
-1857.0405
-451.20399
-952.82622
25.802756
-420.11015
561.97888
76.621452
1242.7827
483.2137
1529.2217
1140.7152
1857.7227
1566.0381
2284.5799
2049.1437
2413.3078
2485.209
2400.1662
2724.5547
2501.4396
2865.3615
2607.0129
3118.4724
2787.1628
3277.3754
3055.5216
3599.4713
3278.7438
3842.1987
3717.5461
4308.8243
4259.1942
4493.8461
4627.6967
4848.0145
4806.8307
4959.6413
4884.1599
4842.6877
4690.0638
4552.3126
4294.4745
4055.1202
3742.3693
3436.7643
3086.6863
2770.4061
2422.8917
2121.7873
1834.902
1567.7475
1358.7751
1174.926
1013.0475
929.66293
823.92504
809.00605
767.18285
764.89164
784.97859
767.01696
816.44661
868.03414
887.4585
830.73074
772.54751
719.49708
726.08765
635.87628
609.52215
512.5905
459.17241
385.08773
325.46211
260.04312
242.50755
175.03153
204.24154
162.64634
294.87401
263.06602
418.1203
406.84079
381.77809
321.06202
74.24828
11657.508
10164.35
10518.857
9206.7596
10383.72
10845.609
11583.369
11902.384
12501.014
13629.423
12808.657
14585.024
14081.871
14690.155
14842.951
15519.636
15349.392
15841.426
16436.31
16280.813
16813.683
16959.861
17133.447
17415.994
17507.815
17785.238
17801.571
18229.367
17952.127
18547.318
18176.966
18761.892
18325.168
18911.943
18541.483
18958.376
18722.801
19080.404
18779.797
19069.097
18843.868
18999.359
18847.165
18869.578
18638.012
18611.88
18341.816
18151.161
17828.684
17550.885
17121.974
16742.773
16269.148
15798.289
15267.247
14763.984
14194.549
13665.664
13102.708
12565.956
12020.368
11500.586
10987.201
10481.534
10025.655
9531.2476
9078.7814
8628.8424
8183.2988
7737.8553
7338.1588
6855.4962
6480.2868
5955.4144
5579.3948
5272.0513
4870.2249
4493.5214
4096.7967
3742.2299
3416.948
3083.0041
2820.0255
2533.2048
2327.1796
2067.3134
1931.6895
1657.195
1599.2844
1224.1484
1186.2733
810.62725
592.17576
250.75172
-236.29347
27457.424
25119.05
22965.073
21513.901
23642.371
23865.525
25228.926
24897.13
27435.819
26640.55
27926.155
28515.965
28804.856
29008.342
30160.283
29733.606
30608.854
30721.402
31280.569
31222.423
32259.104
31584.832
32463.806
32501.25
33073.224
33272.078
33582.411
33776.431
33853.738
34229.684
34068.696
34449.393
34214.184
34543.121
34149.987
34490.556
34060.295
34280.956
33914.734
34037.816
33767.173
33747.173
33465.879
33413.083
33097.164
32938.77
32605.491
32310.006
31924.008
31533.492
31021.678
30525.317
29922.856
29286.766
28580.769
27848.272
27031.818
26203.895
25323.887
24407.796
23472.068
22525.446
21539.881
20580.685
19594.987
18615.206
17648.094
16712.089
15767.596
14870.211
13939.314
13081.39
12199.806
11033.38
9668.9908
8989.0712
8337.6152
7624.7703
6956.7947
6366.2482
5724.7557
5207.1377
4634.2586
4167.1126
3663.2015
3248.5396
2818.5533
2428.9075
2103.8105
1621.3852
1467.3434
878.07105
602.31796
91.246647
-368.60918
42394.488
36294.185
31888.585
32828
34950.385
34852.65
36406.351
37524.203
38310.558
39427.864
39676.536
40823.661
40718.626
41675.267
41818.863
42068.282
42915.848
42837.765
43727.308
44160.102
45086.666
46171.564
47151.23
48074.697
48666.383
49043.135
49373.607
49745.347
49785.812
50247.244
50006.734
50541.686
50151.743
50520.185
50013.859
50267.805
49730.42
49852.368
49285.906
49285.285
48757.624
48578.92
48094.884
47851.156
47319.994
46995.463
46463.846
46022.752
45438.515
44899.915
44216.733
43563.55
42778.388
41979.644
41074.429
40143.927
39099.11
38036.236
36872.755
35676.558
34410.774
33112.994
31763.992
30392.678
29017.8
27612.745
26209.38
24791.356
23388.915
21975.163
20633.533
19319.331
17996.181
16638.304
15524.005
13796.953
12541.293
11429.411
10388.954
9438.0373
8556.3871
7700.3473
6912.9182
6153.5176
5463.0619
4790.7286
4184.2947
3600.0566
3049.3508
2520.7416
1999.7428
1423.6748
820.00493
65.449273
-916.33948
54473.807
49986.977
46635.833
44999.678
47304.188
47136.692
49884.01
50281.454
52075.389
52686.369
53992.801
54249.026
55351.228
55261.556
56165.824
56419.139
56835.422
57178.787
58104.638
57992.449
59527.447
59714.742
61978.02
62866.624
63722.287
64267.858
64967.091
65329.486
65633.488
65938.012
66056.691
66226.005
66094.558
66222.481
65788.856
65782.971
65192.99
64987.502
64367.386
64052.546
63387.239
63023.959
62405.318
61972.24
61387.34
60907.593
60347.804
59806.83
59199.245
58602.999
57893.049
57166.271
56327.51
55416.748
54390.284
53276.479
52026.556
50684.013
49217.119
47652.617
45972.059
44235.06
42377.649
40492.832
38562.547
36591.974
34595.209
32664.006
30713.935
28821.352
26985.152
25152.072
23406.955
21779.138
20219.389
18886.328
17269.52
15797.322
14440.285
13155.027
11911.347
10721.447
9587.9967
8494.8412
7458.4188
6456.6599
5516.506
4630.1064
3776.8064
3011.6536
2281.791
1536.7099
902.14462
30.35859
-1029.3018
74521.508
66586.087
60105.7
62421.132
63584.932
65707.294
66942.56
69173.05
69826.538
71587.997
71861.377
73673.792
73061.52
74607.156
74103.292
75216.138
75124.711
75928.947
76126.179
76863.342
77526.265
78281.495
78666.671
79212.229
79694.479
80490.163
81102.812
81581.29
81836.576
82347.406
82223.854
82501.873
82209.209
82385.604
81759.525
81762.605
80881.563
80684.221
79813.998
79369.466
78544.116
77998.124
77152.396
76570.993
75767.47
75143.491
74385.414
73702.593
72923.988
72184.462
71303.119
70430.983
69412.516
68332.971
67104.355
65783.822
64293.15
62697.984
60940.799
59063.006
57051.984
54938.089
52701.116
50402.087
48052.106
45625.362
43214.4
40808.219
38395.454
35996.654
33657.606
31414.222
29235.167
27105.758
25075.618
23124.908
21251.29
19475.024
17784.407
16167.604
14625.636
13160.111
11752.765
10420.566
9143.3388
7936.7486
6804.2933
5729.5205
4735.8273
3811.712
2928.623
2101.7328
1248.102
202.837
-781.9224
82590.339
79211.464
69589.091
74122.674
75791.175
78294.503
80171.012
81960.565
83392.227
84416.934
86087.777
86156.604
87203.54
87665.508
87523.947
88273.309
88489.47
88602.403
89632.895
89941.639
90762.622
91601.454
92699.814
93966.786
94756.594
95761.765
96580.012
97251.826
98110.358
98489.786
98834.987
98943.81
98739.534
98625.413
98246.765
97844.717
96988.23
96403.022
95346.825
94582.253
93532.986
92630.761
91660.861
90781.077
89883.46
89071.743
88248.294
87487.268
86699.541
85928.078
85081.802
84201.5
83200.146
82090.99
80818.858
79391.501
77760.545
75943.698
73911.067
71691.531
69263.376
66675.597
63913.811
61031.624
58037.865
54927.962
51829.127
48800.738
45763.158
42709.416
39875.846
37046.924
34318.353
31778.824
29289.478
26974.72
24759.036
22677.485
20713.791
18844.425
17057.735
15348.169
13699.776
12112.721
10579.489
9107.6404
7689.8291
6350.5425
5074.8941
3890.4087
2825.9873
1802.1856
936.78469
140.01288
-567.13499
111127.53
81442.262
88058.445
85956.302
92451.535
91728.433
95313.37
96196.273
97923.665
99294.523
99685.295
101697.15
101070.27
102316.38
101619.01
103011.1
102352.87
103131.59
103923.88
104523.86
105073.41
106396.28
107050.34
108538.72
109619.91
110409.11
111546.5
112306.06
113271.31
113978.87
114170.83
114413.32
114022.06
113780.16
113028.53
113014.61
111665.89
110933.27
109654.3
108693.32
107364.96
106316.09
105095.79
104042.91
102985.76
102028.99
101106.53
100259.62
99394.597
98568.229
97662.236
96718.212
95639.787
94425.802
93031.103
91434.54
89598.91
87528.891
85210.476
82636.383
79835.504
76816.522
73613.084
70236.749
66767.204
63099.205
59441.196
55695.958
52260.909
48878.484
45551.105
42235.223
39149.351
36181.248
33354.473
30710.558
28224.673
25832.525
23598.464
21433.157
19374.225
17395.54
15479.918
13626.63
11843.944
10106.272
8464.3991
6888.2757
5411.9634
4099.2208
2887.1866
1851.5833
1096.7235
324.81989
-354.48643
-173341.22
-193773.83
-179753.26
-185523.02
-183749.63
-185068.8
-190320.73
-184838.96
-177810.15
-183884.17
-174614.15
-166227.93
-166216.46
-178716.13
-135614.91
-184270.18
-195277.73
-180193.46
-188588.69
-181597.99
-190042.76
-180341.94
-188151.43
-184077.24
-182745.44
-178804.59
-176578.68
-174570.01
-180312.18
-147986.28
-144125.9
-170132.17
-135942.15
-145488.6
-145333.43
-138096.87
-141130.1
-137252.35
-137447.06
-134129.33
-133108.89
-132900.66
-122254.75
-137959.15
-124211.69
-126238.47
-131705.27
-128983.29
-122377.59
-127951.17
-123308.68
-125364.66
-123227.13
-121798.53
-119117.12
-119617.75
-111517.68
-114909.18
-121196.02
-79515.459
-90034.467
-104466.9
-83826.181
-95031.715
-81793.228
-92221.06
-83698.221
-85723.221
-81445.831
-81835.519
-78868.237
-78552.574
-79055.121
-80979.106
-72485.921
-72980.749
-77635.097
-66832.476
-69616.229
-67890.785
-67538.17
-63960.272
-63290.253
-63885.892
-61527.144
-57067.754
-59660.038
-53220.962
-55842.302
-53944.859
-38807.908
-37108.156
-37882.958
-31666.497
-32242.306
-30769.9
-29398.694
-26110.881
-25722.423
-23756.965
-22418.627
-20443.705
-23373.235
-18040.221
-24384.963
-8387.3966
-10997.269
-3193.178
-6947.3146
-1740.2057
-3139.7524
764.75547
714.36961
2861.6722
2427.8334
9797.8988
5039.191
4459.4688
16753.785
-3676.6822
16488.347
21977.8
18663.301
25684.712
24278.174
27575.991
28247.152
31657.068
31388.574
33996.111
38229.795
33777.957
37237.565
46737.013
12938.573
44289.332
54180.499
52428.002
53479.316
56781.292
57197.565
61318.828
60596.349
64813.832
61658.496
71486.278
63304.285
64267.217
82266.403
42530.552
73879.135
92611.601
79163.972
91658.35
86620.588
93633.488
92035.109
96144.387
95336.007
96593.579
99088.086
97116.859
96495.264
108063.56
66857.967
110066.02
100376.75
108882.62
100969.97
111036.03
109775.18
113785.59
114306.53
117016.47
117739.7
124964.16
112938.95
119762.03
137814.12
93280.309
130115.71
146719.13
128638.12
139619.23
132846.96
140297.38
138770
140233.38
141303.62
142450.57
145036.7
146111.31
136797.72
162711.09
91838.2
159301.04
176846.73
164798.99
169983.47
180076.84
178981.8
181576.17
191685.45
188974.81
193887.48
183807.9
182699.2
187927.39
190388.4
164394.72
179301.63
153109.23
138037.41
139123.15
145182.66
158040.32
151933.48
148480.57
142332.96
143049.44
146238.94
148914.23
152806.55
169747.8
157671.09
142513.38
138852.12
159853.34
171211.91
174616.68
192416.75
186700.44
174614.83
199737.39
196418.86
190680.09
182229.91
177935.85
168932.92
153202.71
108357.33
108307.47
117926.27
119890.6
124459.76
128864.68
132518.05
138699.92
142589.85
136953.28
135188.59
127917.13
132028.66
132477.9
138998.92
100502.38
113464.75
114652.67
122556.9
131677.1
127834.14
133432.25
133658.64
128803.25
135173.92
130877.19
133112.76
129955.12
118312.17
120901.17
98995.717
108981.72
111328.35
112131.86
115664.45
117473.64
118330.69
119128.54
119509.73
117346.42
118921.95
117999.21
113575.53
113750.8
109582.66
107662.34
118757.04
119134.35
125078.09
127305.64
129897.88
131858.27
132260.2
133065.5
133927.49
130488.78
129016.78
123862.19
122061.91
119322.04
107742.08
110593.39
111878.41
116826.9
119302.27
122000.16
121921.92
123236.59
124284.53
122883.78
122923.21
121230.5
118109.76
116775.02
112778.5
107658.7
115371.33
116407.49
119572.61
122330.58
125300.44
126173.68
127101.84
127922.9
126885.9
125343.07
125095.29
122444.6
119742.42
120551.64
110604.29
111483.97
115424.84
115520.68
119512.99
119561.33
121223.46
121979.54
122130.77
121375.82
120840.16
119974.24
118357.1
116763.4
114975.93
108723.12
115214.41
115801.13
119494.29
120586.91
123924.6
123424.92
124925.92
126133.27
123874.4
124426.77
122933.46
121686.6
120059.09
117347.13
111691.59
111898.14
114281.24
114170.24
116588.58
116734.96
118548.63
118788.72
118245.13
120027.75
118899.94
119440.8
118201.55
117706.1
117231.9
109743.13
113745.53
113852.85
117055.76
118078.32
120170.63
120227.52
122199.4
122702.12
121857.22
123217.08
122623.14
121874.37
121439.36
121208.88
111925.59
111543.71
113526.94
113903.41
115557.46
115330.2
117329.53
118020.04
118809
119195.41
119803.91
119394.25
119637.76
118972.52
119341.21
111446.63
112443.69
112522.92
114490.83
115099.61
117028.18
117433.66
118769.86
119372.46
119845.8
120151.25
120765.67
120023.3
120418.75
120293.9
111500.91
110967.89
112977.66
112659.94
114484.19
114317.2
115487.51
115835.01
116899.51
116771.71
117821.03
117937.09
118215.6
118634.52
119440.99
111130.02
111435.88
112564.39
113007.63
114625.08
114883.74
114768.04
117936.98
117558.65
118380.47
119075.38
119500.89
119317.02
120293.93
119949.66
111434.07
110849.86
112838
111888.83
113374.18
112825.22
115505.58
114239.98
115574.59
115332.76
115908.69
116498.83
116316.15
116820.26
117077.37
111764.07
111180.77
112288.71
112298.75
113677.55
114274.85
114406.13
116020.11
115880.5
116944.76
117637.77
118571.44
118465.36
119905.12
120037.72
111982.2
111869.33
112444.77
112406.71
113836.15
113771.04
114989.13
115142.17
115780.35
116024.51
116443.85
116784.89
116214.69
117944.77
117605.13
112177.52
112059.09
113150.89
113096.04
114099.09
114101.61
114713.82
115690.14
115739.93
116719.58
117613.96
118139.8
117980.73
119243.94
119800.52
113277.23
113005.58
113657.32
113586.66
114719.57
114871.2
116149.98
116366.77
117112.45
117434.77
116956.59
118580.54
117327.04
119247.67
119097.33
114212.89
113931.1
114662.59
114501.17
115754.22
115746.02
117011.32
117377.44
117376.85
118052.6
117833.29
119204.88
118625.03
120866.52
120599.54
114692.8
115207.13
115513.25
115862.47
116630
116854.62
117939.3
117974.03
118618.4
119632.43
119898.55
120567.43
120202.58
120761.45
121249.51
116690.3
116293.45
117057.54
117285.96
118206.26
118269.06
119090.11
119513.54
119932.08
119849.62
120565.51
121055.8
121855.21
122272.52
122745.2
117294.02
117808.1
118244.05
118752.53
119474.08
119885.03
120816.95
121112.43
121636.22
122405.16
121345.44
123613.19
122944.33
124052.92
123485.21
119005.17
119182.84
119870.05
120357.41
121165.51
121338.37
122473.63
122391.87
123052
123092.87
123087.8
123802.57
124306.18
123759.42
125138.77
120750.39
120454.28
121541.89
121499.99
122642.11
122881.9
123616.74
124019.28
124313.8
125093.11
125350.42
126523.97
124821.52
127319.56
126107.84
121398.74
121599.08
122577.87
123166.76
123784.99
124526.66
125189.4
125606.48
125867.49
126292.44
126271.02
126817.67
126169.42
126339.63
127174.88
123303.53
123086.13
123956.93
124335.68
125612.93
125894.35
126603.07
126881.17
127485.54
127707.67
127890.39
128164.43
127909.55
129078.39
128211.72
123551.96
124222.88
125346.89
125619.13
126436
127103.31
127574.89
128070.58
128231.64
128660.08
128342.59
129130.22
128560.22
128672.11
129036.69
125463.32
124935.25
126097.9
126924.52
127594.57
127883.97
128652.19
128870.17
129328.76
129684.24
129238.83
130274.88
129193.26
129926.23
129863.81
125404.41
125536.1
126654.84
127101.25
127959.96
128562.46
129120.88
129341.24
129595.3
130084.4
129851.51
130376.7
129749.69
129701.16
129964.68
126177.25
125796.03
127071.62
127595.81
128299.54
129039.65
129304.43
129751.68
129814.34
130351.63
129906.77
130796.01
129863.36
130370.71
130059.92
125808.83
125821.15
126906.68
127343.18
128281.43
128617.9
129203.79
129360.5
129775.11
129953.6
129830.84
130216.93
129676.77
129521.37
129535.39
125826.02
125479.07
126687.96
127113.33
127844.24
128364.31
128802.19
129106.2
129265.04
129639.51
129226.55
129976.41
129099.12
129383.56
129148.86
124628.18
124975.23
125848.28
126116.81
126925.47
127472.41
127775.12
128117.75
128296.13
128537.29
128356.25
128758.77
128073.54
128220.69
127804.06
123948.48
124092.6
124816.83
125919.58
125771.01
126530.92
126761.72
126995.97
127171.55
127494.3
127063.71
127715.19
127040.54
127071.93
127398.64
123433.51
122747.91
123650.89
123914.06
124742.25
124783.14
125387.32
125379.98
125683.25
125693.09
125663.25
126236.61
125498.36
125730.04
125612.98
121707.28
121575.25
122214.09
122770.59
122915.49
123597.76
123656.56
124105.15
124103.26
124409.13
124132.79
124613.95
124046.41
124154.44
124051.35
120549.74
119818.41
120688.52
120820.3
121343.16
121526.76
121926.2
122008.51
122157.31
122373.95
122175.87
122682.38
122075.24
122326.65
122255.15
119001.28
118358.41
119044.18
119240.74
119524.89
119941.23
120141.67
120304.25
120467.95
120652.31
120458.64
120895.11
120401.74
120690.49
120552.91
117407.78
116596.25
117259.57
117258.71
117637.61
117824.84
118080.64
118213.72
118355.13
118557.04
118394.76
118840.54
118397.36
118685.34
118682.39
115968.13
115021.58
115607.39
115637.46
115921.32
116159.48
116411.41
116490.3
116660.17
116834.57
116685.6
117127.73
116681.21
117063.52
116976.64
114439.15
113404.22
113959.22
113862.91
114128.65
114341.06
114514.34
114615.28
114764.22
114942.05
114812.07
115235.87
114870.27
115223.58
115273.29
113122.62
111963.53
112490.71
112347.04
112657.83
112819.62
113023.32
113100.46
113259.17
113437.37
113305.03
113754.74
113357.43
113796.26
113772.59
111804.18
110627.73
111094.46
110935.13
111166.56
111351.41
111500.05
111576.2
111723.48
111886.51
111771.61
112184.43
111874.69
112248.24
112323.58
110732.38
109435.29
109968.29
109730.97
110024.26
110193.96
110356.06
110443.8
110590.22
110762.2
110636.91
111072.98
110731.36
111109.94
111166.38
109643.71
108450.71
108914.52
108706.17
108956.21
109147.18
109281.45
109364.8
109481.32
109661.14
109533.04