/*--------------------------------*- C++ -*----------------------------------*\
  =========                 |
  \\      /  F ield         | OpenFOAM: The Open Source CFD Toolbox
   \\    /   O peration     | Website:  https://openfoam.org
    \\  /    A nd           | Version:  6
     \\/     M anipulation  |
\*---------------------------------------------------------------------------*/
FoamFile
{
    version     2.0;
    format      ascii;
    class       pointVectorField;
    location    "1.07";
    object      lm;
}
// * * * * * * * * * * * * * * * * * * * * * * * * * * * * * * * * * * * * * //

dimensions      [1 -2 -1 0 0 0 0];

internalField   nonuniform List<vector> 
3969
(
(-4.0340813e-15 -4.7705825e-17 1.3312818e-16)
(9.2297575e-16 -2.6090405e-16 -6.0252577e-16)
(-5921.195 -2006.7547 -215.19532)
(-6251.2138 -808.60045 -191.8808)
(-7.1783695e-15 2.6020842e-15 -1.0366567e-15)
(-4.622429e-15 2.1493156e-15 -1.5432914e-15)
(-6305.9353 -686.59527 -192.48127)
(-5976.4444 -1887.3806 -215.6306)
(-6.09887e-15 1.0869625e-16 -2.0095736e-16)
(-3.193382e-15 6.5333688e-16 6.3735029e-17)
(-2.9260211e-15 2.9260844e-16 -4.8432863e-17)
(-1.7497804e-15 -1.5755452e-16 -2.074758e-16)
(-4.3254872e-15 8.6218995e-16 7.3228779e-16)
(-2.4697388e-15 -4.9707839e-16 4.8086129e-16)
(5.2680668e-16 -4.7467027e-16 -5.3018058e-16)
(-5961.7623 -1860.8851 -213.54886)
(-6003.5864 -1713.4948 -212.01078)
(-6045.722 -1563.8356 -209.07865)
(-6087.3338 -1413.0096 -205.73841)
(-6128.5802 -1261.2822 -201.96259)
(-6169.478 -1109.7346 -198.32055)
(-6210.0118 -958.62216 -194.78661)
(12.339097 0.55226296 -7.5863657)
(25.336947 -7.4155873 -12.808536)
(32.27993 -24.069581 -16.195446)
(29.998083 -43.402623 -16.604503)
(21.885543 -67.803577 -16.999074)
(4.7211902 -95.62099 -16.694471)
(-19.296393 -127.13024 -16.883083)
(-52.900445 -162.26076 -16.723061)
(-94.801085 -200.5122 -16.935118)
(-146.47882 -241.21458 -16.834999)
(-207.20584 -285.18818 -17.501578)
(-277.36556 -331.0998 -18.009858)
(-356.88382 -379.11402 -18.975172)
(-444.93289 -429.21889 -20.860838)
(-542.33542 -480.43888 -23.191139)
(-647.68172 -532.76767 -26.297275)
(-761.6463 -586.20825 -30.094844)
(-883.93192 -640.11312 -34.029274)
(-1014.8921 -694.68727 -37.772136)
(-1154.3582 -749.5034 -40.640135)
(-1302.7593 -804.68951 -42.197025)
(-1459.7866 -860.13853 -41.82854)
(-1625.4452 -915.71248 -39.346848)
(-1799.1876 -971.4697 -34.662753)
(-1980.1651 -1026.8582 -27.995392)
(-2167.2733 -1082.3228 -19.944408)
(-2359.2196 -1136.9056 -11.147462)
(-2554.6759 -1190.5556 -2.3074598)
(-2752.048 -1242.8732 5.5980311)
(-2949.659 -1293.3416 11.998897)
(-3146.3301 -1341.9808 16.272548)
(-3340.8377 -1388.4414 18.058325)
(-3532.1564 -1432.8625 17.32104)
(-3719.6264 -1475.3405 14.000029)
(-3902.7518 -1515.9222 8.0315452)
(-4081.1066 -1555.293 0.077958691)
(-4254.3795 -1593.4702 -10.360662)
(-4422.7858 -1630.7177 -23.209497)
(-4586.2256 -1667.6501 -37.472088)
(-4744.7857 -1703.8928 -54.203694)
(-4899.1866 -1740.5043 -72.350584)
(-5049.1699 -1777.0268 -92.478463)
(-5197.1507 -1813.3572 -113.41035)
(-5341.3812 -1851.257 -135.11341)
(-5486.2645 -1888.3942 -156.63259)
(-5630.0007 -1927.2819 -177.3569)
(-5774.6704 -1966.8275 -196.94155)
(-2.6603117 20.559501 28.039456)
(5.6345937 40.187552 44.463503)
(11.077224 61.051381 60.574217)
(8.4657155 89.373264 73.451671)
(-1.0202144 116.40973 84.928242)
(-18.723862 146.21229 94.352985)
(-46.969946 176.86214 102.34305)
(-84.332655 207.49364 108.35108)
(-132.75114 238.27716 113.29403)
(-191.95449 268.10036 116.32642)
(-261.96691 296.81612 118.32658)
(-343.31355 323.80732 119.14144)
(-435.21656 348.46711 118.49245)
(-537.93788 370.74924 116.6415)
(-651.34538 390.5445 113.66431)
(-774.96734 407.3523 109.51279)
(-908.85039 421.34551 104.41726)
(-1052.0942 432.29415 98.703242)
(-1204.8944 440.20032 92.54465)
(-1366.3494 444.67312 86.470324)
(-1536.1423 445.69819 80.578915)
(-1713.556 442.2039 75.429784)
(-1897.9595 434.32574 70.622489)
(-2088.3936 421.00087 66.717558)
(-2283.5505 401.68034 63.119248)
(-2482.7967 376.20545 59.478408)
(-2684.2977 344.09622 55.516416)
(-2887.6888 305.7387 50.914007)
(-3090.8366 260.98817 45.223306)
(-3292.6 210.81348 38.214541)
(-3492.0017 155.81335 29.966291)
(-3687.7272 96.878462 20.494106)
(-3879.0354 34.941607 10.085087)
(-4065.2147 -29.068673 -1.0680788)
(-4245.8498 -94.353808 -12.700362)
(-4420.7817 -160.00477 -24.528788)
(-4590.331 -225.62214 -36.999611)
(-4754.3227 -290.15037 -49.110863)
(-4913.4113 -353.48764 -62.02703)
(-5068.457 -415.00184 -75.199282)
(-5219.9154 -474.01379 -89.064811)
(-5368.5065 -530.4486 -103.11068)
(-5515.382 -583.77515 -117.89115)
(-5661.1195 -634.0791 -132.6966)
(-5806.8776 -681.14048 -147.80766)
(-5953.2883 -725.51171 -162.73245)
(-6101.215 -767.66709 -177.43386)
(-3.9179893e-16 -2.8384427e-17 -1.6191597e-16)
(6.8869455e-16 3.3255846e-16 -2.9305012e-16)
(-3.0379221e-16 -4.0639439e-16 3.7376104e-16)
(8.6048107e-16 -8.7588792e-17 1.0515471e-16)
(5.0258192e-16 -7.4376592e-16 6.4035694e-16)
(-2.9679417e-15 -3.4669267e-16 7.3060073e-16)
(8.9003905e-16 -2.834795e-16 1.0120244e-16)
(1.6188104 4.4306461 -11.095228)
(13.595395 21.840134 -19.543063)
(17.136109 39.391083 -20.308875)
(10.826985 64.910415 -20.380974)
(0.95806816 89.821968 -18.262122)
(-21.853999 121.57115 -14.995017)
(-49.520683 152.64329 -13.807242)
(-90.310765 185.99223 -9.4814009)
(-138.70713 219.93658 -9.1279087)
(-199.91019 252.73612 -5.1546375)
(-270.87177 286.61961 -5.5784541)
(-352.45122 315.83162 -3.1066168)
(-446.18522 345.22567 -2.6877691)
(-550.16868 371.46909 -2.4925395)
(-663.83947 393.97579 -3.1627079)
(-788.15294 414.65752 -5.0770383)
(-921.11983 430.12457 -7.5429393)
(-1063.83 442.74254 -10.639147)
(-1215.2499 450.26199 -13.701875)
(-1375.6409 453.61656 -16.082286)
(-1544.7554 451.88096 -17.281247)
(-1722.2232 445.2708 -16.612827)
(-1907.7728 433.43809 -13.786091)
(-2100.3706 416.41995 -8.676663)
(-2299.6188 394.40979 -1.3912016)
(-2503.2067 366.9307 7.2907102)
(-2709.5963 335.76187 16.072931)
(-2917.5584 298.92014 25.200441)
(-3125.3771 258.13444 33.255681)
(-3331.3783 213.32861 39.79907)
(-3534.1348 165.14133 44.211948)
(-3732.6292 114.12961 46.109789)
(-3926.0975 60.869265 45.471136)
(-4114.01 5.8834018 42.2829)
(-4296.3204 -50.17373 36.781312)
(-4472.6283 -106.45568 28.87198)
(-4644.8222 -162.42279 19.25612)
(-4809.8043 -218.57551 6.9392452)
(-4971.0266 -272.65815 -6.9516584)
(-5127.626 -325.62489 -23.294321)
(-5279.987 -376.58251 -41.576177)
(-5429.2554 -425.82246 -61.709461)
(-5575.8143 -472.91301 -83.400426)
(-5720.8691 -518.34762 -105.98034)
(-5865.4602 -561.95741 -128.84625)
(-6010.5898 -604.39395 -151.17883)
(-6157.6356 -645.80884 -172.21491)
(-6266.0455 -834.83584 -196.45654)
(-6225.6154 -985.15929 -199.87189)
(-6185.8168 -1136.3235 -202.72058)
(-6143.3036 -1288.4015 -204.67953)
(-6101.9742 -1439.6206 -206.79523)
(-6059.0889 -1590.4561 -208.81129)
(-6017.2513 -1739.2301 -212.05974)
(-5828.0608 -1846.5105 -199.12781)
(-5680.9021 -1806.1089 -181.91205)
(-5534.4287 -1767.5645 -165.21271)
(-5386.8628 -1731.3121 -148.67528)
(-5238.0439 -1696.9327 -132.5579)
(-5086.9253 -1664.6646 -117.28781)
(-4932.9015 -1634.0251 -102.96848)
(-4775.3715 -1604.5918 -89.782045)
(-4613.7564 -1575.97 -77.498639)
(-4447.8244 -1547.6523 -66.309602)
(-4277.8316 -1519.1671 -56.062367)
(-4101.5462 -1490.1671 -46.031014)
(-3921.8719 -1460.2247 -36.824197)
(-3736.8599 -1428.9501 -27.801743)
(-3548.0863 -1395.8406 -19.188972)
(-3355.624 -1360.6657 -10.917585)
(-3160.6204 -1322.9614 -3.1168813)
(-2964.144 -1282.4482 4.175779)
(-2767.3945 -1238.8348 10.900161)
(-2571.7359 -1191.9901 17.178414)
(-2378.3955 -1141.981 23.188121)
(-2188.6138 -1088.9124 29.125113)
(-2003.4591 -1033.3226 35.347462)
(-1823.8385 -975.61895 42.052775)
(-1650.6305 -916.67517 49.461997)
(-1484.2083 -857.13376 57.639112)
(-1325.1763 -797.85442 66.573708)
(-1173.7786 -739.36559 75.900522)
(-1030.4823 -682.40862 85.433653)
(-895.25343 -627.08994 94.630838)
(-768.60882 -573.95855 103.26535)
(-650.59618 -522.97471 110.64918)
(-541.57066 -474.13331 116.31857)
(-443.10558 -425.56095 120.29771)
(-353.09886 -381.38394 123.79701)
(-272.18071 -338.57659 123.06685)
(-202.01817 -297.32862 122.34907)
(-141.04557 -258.15576 119.28513)
(-89.914808 -221.28731 114.26325)
(-49.219999 -185.33206 107.8384)
(-17.589646 -154.61323 99.87428)
(5.9339009 -124.26897 89.64822)
(19.55069 -97.111397 79.154166)
(25.316347 -71.775711 65.024568)
(23.685427 -50.166196 51.858797)
(15.04747 -28.842458 34.682543)
(-6.6369561 -10.841427 13.006538)
(-6.7652979e-16 3.5118239e-16 1.2802193e-16)
(-2.3129286e-15 2.7505878e-16 1.3239036e-16)
(-3.6393531e-15 -1.4253491e-16 -1.5464221e-16)
(-4.9195801e-15 -9.3657526e-16 4.6870719e-16)
(-4.0844143e-15 -8.2232132e-16 1.723462e-16)
(-2.0271537e-15 -1.8079967e-16 2.6438577e-16)
(-2.0670014e-15 8.6459225e-16 1.4474963e-15)
(-4.5036838e-15 1.2268482e-15 -2.065022e-16)
(-1.9919023e-15 1.1694967e-15 -1.6367101e-16)
(-2.9438013e-15 1.1112212e-15 -1.969436e-16)
(-2.4504202e-15 9.597151e-16 -1.1789697e-16)
(-5.2893259e-15 2.5926013e-15 -8.0820905e-16)
(-1.8775489e-15 1.1365606e-15 -5.8525306e-16)
(-7.4714327e-17 -2.094137e-16 9.7564992e-17)
(-6257.9249 -795.10954 -192.24341)
(-6263.7076 -781.18869 -192.09808)
(-6269.3036 -767.3606 -191.44322)
(-6275.1374 -753.17429 -191.01553)
(-6281.4949 -738.4036 -190.94253)
(-6288.748 -722.46717 -191.26944)
(-6297.173 -705.50841 -192.27287)
(-5927.0016 -1989.5228 -214.7083)
(-5933.2601 -1973.6768 -213.91638)
(-5939.7418 -1959.1081 -213.68725)
(-5946.735 -1945.2813 -213.90712)
(-5954.1115 -1931.5413 -214.48459)
(-5961.5935 -1917.4852 -215.14706)
(-5969.0602 -1902.6524 -215.70715)
(14.124611 -8.0253262 -4.2653779)
(31.130806 -15.082168 -6.9242483)
(39.294654 -25.667334 -5.8451152)
(39.282404 -37.929014 -5.5543084)
(31.76958 -53.89042 -3.9168691)
(15.624245 -73.41268 -3.1051672)
(-8.2131541 -95.294554 -1.8005313)
(-41.60427 -120.98945 -1.2670423)
(-84.217817 -148.44223 -0.48892727)
(-136.63371 -179.27853 -0.54846511)
(-198.36963 -212.5823 -0.51077485)
(-270.06772 -247.79457 -0.9291222)
(-351.36814 -286.24678 -1.9245584)
(-441.64758 -325.91059 -3.533987)
(-541.34632 -367.5116 -5.8925528)
(-649.66242 -410.797 -8.8260747)
(-766.67611 -455.17946 -12.397035)
(-892.34471 -500.30003 -16.229977)
(-1026.7531 -546.31676 -19.817998)
(-1169.9766 -592.8579 -22.76679)
(-1322.0317 -640.03783 -24.605831)
(-1482.8364 -687.7705 -24.873106)
(-1652.154 -736.35634 -23.410859)
(-1829.2967 -785.59884 -20.11162)
(-2013.692 -835.95814 -15.256698)
(-2204.1244 -886.8604 -9.148645)
(-2398.9655 -938.39537 -2.4775824)
(-2597.0265 -990.5383 3.9563955)
(-2796.6742 -1042.4077 9.6107439)
(-2996.1276 -1094.0244 13.817898)
(-3194.2778 -1144.837 16.100016)
(-3389.8146 -1194.511 16.255961)
(-3581.7227 -1242.9381 14.14689)
(-3769.5023 -1289.8126 9.624306)
(-3952.4124 -1335.4383 3.1820315)
(-4130.2642 -1379.61 -5.5240076)
(-4302.9956 -1422.791 -15.982735)
(-4470.3071 -1464.8747 -28.583649)
(-4632.7139 -1506.1872 -42.616466)
(-4790.2006 -1546.779 -58.681055)
(-4943.3614 -1587.1437 -75.979006)
(-5092.6163 -1626.4104 -95.172316)
(-5239.2849 -1665.9247 -114.80889)
(-5383.1466 -1704.4892 -135.59242)
(-5527.4359 -1743.188 -155.89543)
(-5670.5049 -1781.9064 -175.89267)
(-5815.2733 -1821.3107 -195.0244)
(19.070116 -1.8797903 1.2445405)
(34.062284 -5.5142425 3.1676689)
(41.862171 -11.77754 5.5850518)
(41.802318 -18.034317 7.9911885)
(34.917648 -27.860255 9.8298798)
(19.940729 -39.458544 12.301969)
(-3.9415571 -53.866396 13.579792)
(-37.270378 -70.830159 15.564616)
(-79.944639 -89.956101 15.739649)
(-132.53839 -112.04098 16.726181)
(-195.56218 -135.91728 16.547373)
(-268.24864 -162.78092 16.200342)
(-350.99163 -191.68375 14.966079)
(-443.50118 -222.68621 13.069234)
(-545.44639 -255.69603 10.472929)
(-656.14505 -290.4524 7.4548106)
(-775.89991 -326.58737 3.7674219)
(-904.44312 -363.84024 -0.11735723)
(-1042.0637 -402.17259 -3.8247044)
(-1188.5641 -441.39297 -7.0426473)
(-1344.032 -481.50055 -9.2397569)
(-1508.2278 -522.79014 -10.098052)
(-1680.5942 -565.24437 -9.4167945)
(-1860.9213 -609.35414 -7.3015328)
(-2047.9759 -654.82571 -3.75668)
(-2240.565 -702.15865 0.39512623)
(-2437.6727 -750.9086 5.1107284)
(-2637.534 -801.05181 9.6573434)
(-2838.4762 -852.24237 13.15727)
(-3039.24 -903.95345 15.526457)
(-3238.3541 -955.78955 16.145158)
(-3434.514 -1007.2911 14.825512)
(-3626.9832 -1058.0498 11.419798)
(-3814.8587 -1107.9605 6.1214025)
(-3997.7382 -1156.8002 -1.1619069)
(-4175.3713 -1204.4923 -10.273673)
(-4347.5989 -1251.381 -20.974111)
(-4514.2782 -1296.9632 -33.50329)
(-4676.0569 -1342.0541 -47.363444)
(-4832.6992 -1385.9043 -62.89201)
(-4985.4342 -1429.4022 -79.679396)
(-5133.9428 -1471.4347 -97.815829)
(-5280.4715 -1513.1276 -116.65106)
(-5424.1231 -1553.6575 -136.14646)
(-5568.2945 -1593.8146 -155.49507)
(-5711.2711 -1633.4708 -174.73722)
(-5855.9736 -1673.5499 -193.35089)
(24.323466 2.9646476 5.2573612)
(37.683731 3.709837 8.5713138)
(44.513866 2.9309052 14.424738)
(44.347979 1.6085065 17.415378)
(37.898076 -1.3289551 21.89848)
(21.58205 -6.7099757 24.911365)
(-2.6209503 -12.966258 28.457437)
(-36.696074 -22.424766 30.233168)
(-80.332706 -32.989192 32.1874)
(-134.79947 -46.300842 33.447206)
(-198.32637 -61.961204 33.697619)
(-272.59294 -79.478554 33.552448)
(-356.68874 -99.861734 32.652022)
(-450.61472 -121.91483 30.815067)
(-554.03458 -146.53929 28.250141)
(-667.05196 -172.91989 25.271954)
(-789.28055 -200.99533 21.426865)
(-920.71112 -230.50506 17.553533)
(-1061.2632 -261.35764 13.476858)
(-1210.5927 -293.47045 9.9437237)
(-1368.8161 -326.94959 7.0996222)
(-1535.462 -361.99875 5.4387455)
(-1710.5799 -399.10252 4.9647129)
(-1893.0815 -437.9812 5.8345762)
(-2082.1381 -479.41079 7.6178185)
(-2276.6587 -523.17492 10.373188)
(-2475.4195 -569.38573 13.407989)
(-2676.5579 -617.78244 15.952599)
(-2878.8264 -667.93912 17.80076)
(-3080.6425 -719.41857 18.467003)
(-3280.4876 -771.80763 17.457778)
(-3477.3715 -824.44676 14.73668)
(-3670.26 -877.01606 10.244849)
(-3858.3898 -929.18931 3.9901431)
(-4041.4435 -980.53381 -3.9653717)
(-4218.9388 -1031.2371 -13.394993)
(-4390.8841 -1080.8977 -24.314049)
(-4557.3986 -1129.7946 -36.706901)
(-4718.7004 -1177.6343 -50.314404)
(-4875.1446 -1224.3864 -65.522927)
(-5027.2595 -1270.3598 -81.522121)
(-5175.8299 -1314.651 -99.231679)
(-5321.77 -1358.5584 -116.9655)
(-5465.5272 -1400.4826 -136.11656)
(-5609.2142 -1442.1916 -154.47393)
(-5752.1944 -1482.577 -173.40534)
(-5897.1894 -1523.2778 -191.11412)
(23.134791 7.4723191 12.950917)
(33.646469 13.368892 20.053883)
(41.061749 17.859914 25.79854)
(40.564686 22.789054 31.17042)
(32.972017 26.003082 36.059079)
(17.604902 27.862215 40.581848)
(-7.0061262 28.827676 43.560932)
(-40.72702 27.06729 46.760395)
(-85.01249 24.799796 48.337788)
(-138.71687 19.504597 49.298895)
(-203.43864 13.184491 49.765468)
(-278.94712 3.765399 49.772868)
(-364.43298 -7.5551952 48.907278)
(-460.38373 -20.994457 46.996025)
(-566.0063 -37.136231 44.736685)
(-681.45501 -55.075726 41.322078)
(-806.0558 -75.19592 37.571522)
(-940.14807 -96.848019 33.252438)
(-1083.1907 -120.27279 28.916035)
(-1235.3587 -145.41333 24.994541)
(-1396.4824 -172.44692 21.724167)
(-1566.2488 -201.94228 19.461542)
(-1743.5638 -233.48586 18.295141)
(-1928.2353 -267.91248 18.039795)
(-2119.1391 -305.2702 18.989298)
(-2315.2915 -345.84064 20.325917)
(-2515.067 -389.42018 21.606201)
(-2717.2188 -435.86902 22.56758)
(-2920.1911 -484.82276 22.748464)
(-3122.4734 -535.8828 21.599989)
(-3322.7804 -588.39189 19.050636)
(-3519.9355 -641.88776 14.905186)
(-3712.9556 -695.80484 9.1523581)
(-3901.1366 -749.76656 1.8536778)
(-4084.0154 -803.43046 -6.8435285)
(-4261.2625 -856.4849 -16.87772)
(-4432.9095 -909.02485 -28.078813)
(-4598.9603 -960.48806 -40.541591)
(-4759.8708 -1011.0912 -54.169229)
(-4915.5992 -1060.6271 -68.748461)
(-5067.608 -1109.1301 -84.531498)
(-5215.6401 -1155.995 -101.14928)
(-5361.6242 -1201.8242 -118.45773)
(-5505.3186 -1245.7313 -136.35052)
(-5649.3053 -1288.9345 -153.95738)
(-5792.8038 -1330.5539 -171.74635)
(-5938.1546 -1372.0089 -188.68392)
(21.073189 14.303896 19.346086)
(31.610301 25.077423 24.84793)
(38.064799 35.603004 33.652521)
(36.81541 45.944962 40.306227)
(30.115099 55.246312 46.992486)
(13.558249 63.410053 52.140362)
(-10.986696 71.212705 57.093104)
(-46.322855 76.755601 60.935128)
(-90.669448 82.234601 63.427588)
(-146.60732 85.048546 65.822787)
(-212.66795 86.409814 67.363828)
(-289.10247 84.990368 67.502781)
(-376.21612 82.43198 66.493444)
(-473.60711 76.669951 64.995345)
(-581.03372 69.306644 62.201706)
(-698.32615 59.493517 58.684703)
(-825.41667 47.57116 54.58181)
(-961.824 33.713147 49.996311)
(-1107.559 17.655109 45.311695)
(-1262.2076 -0.46882532 40.961621)
(-1425.7022 -21.023413 36.911526)
(-1597.0191 -44.05492 33.8448)
(-1776.4149 -70.309085 31.590056)
(-1962.8977 -99.523713 30.379615)
(-2155.5311 -132.79987 29.837324)
(-2352.7749 -169.80034 29.565931)
(-2553.7663 -210.71219 29.386039)
(-2756.8539 -255.28464 28.830861)
(-2960.4918 -303.21004 27.353759)
(-3163.2916 -353.91909 24.823132)
(-3363.9243 -406.78841 20.864038)
(-3561.2949 -461.28859 15.529019)
(-3754.3869 -516.62043 8.6975)
(-3942.5083 -572.60377 0.67062824)
(-4125.2461 -628.37937 -8.6853923)
(-4302.2447 -684.07204 -19.018499)
(-4473.4971 -739.08884 -30.372681)
(-4639.29 -793.37506 -42.846505)
(-4799.5117 -846.4948 -56.048625)
(-4955.2051 -898.73401 -70.354524)
(-5106.8779 -949.43479 -85.366192)
(-5255.242 -998.46212 -101.62765)
(-5401.0946 -1045.9954 -118.04893)
(-5545.4345 -1091.4425 -135.46295)
(-5689.4836 -1135.7572 -152.23985)
(-5833.3671 -1178.0492 -169.69934)
(-5979.1015 -1219.9103 -185.8243)
(16.151929 16.216854 23.51854)
(23.006548 32.780411 33.617433)
(29.469397 48.040429 44.253984)
(28.335067 64.438278 52.624478)
(20.443596 79.28777 60.773945)
(3.9369051 94.964036 67.294988)
(-21.962419 109.79324 73.10857)
(-57.34693 123.56484 77.419113)
(-103.34794 137.06262 80.722725)
(-159.79623 148.12366 83.065568)
(-226.95604 158.38839 84.175399)
(-304.96581 166.3521 84.356063)
(-393.70149 172.42035 83.806139)
(-492.84468 176.0799 81.932332)
(-602.15044 177.31797 79.239746)
(-721.58058 176.11156 75.530057)
(-850.71931 172.49865 71.24855)
(-989.40505 166.43818 66.238842)
(-1137.3724 158.02449 61.190444)
(-1294.2344 146.91074 56.20847)
(-1459.8154 133.35516 51.608278)
(-1633.4138 115.64688 47.943451)
(-1814.4897 95.304383 44.907036)
(-2002.6836 71.075903 42.588975)
(-2196.1921 41.974108 40.97128)
(-2394.2951 8.6400196 39.746564)
(-2595.8019 -29.644998 38.376683)
(-2799.0138 -72.293694 36.244008)
(-3002.6799 -119.00079 33.381909)
(-3205.4608 -169.22037 29.227986)
(-3405.9373 -222.34347 23.801903)
(-3603.0631 -277.73175 16.996857)
(-3795.832 -334.62043 8.9268226)
(-3983.6405 -392.55648 -0.20645686)
(-4165.9186 -450.82121 -10.397688)
(-4342.4321 -509.17274 -21.271535)
(-4513.349 -567.08861 -33.012225)
(-4678.522 -624.27662 -45.320807)
(-4838.8095 -680.55971 -58.621927)
(-4994.2883 -735.38516 -72.171631)
(-5145.8335 -788.55825 -87.127554)
(-5294.0248 -839.92985 -102.44159)
(-5440.1334 -889.28079 -118.52346)
(-5584.6389 -936.63172 -134.84404)
(-5728.9174 -982.05267 -151.2415)
(-5873.5272 -1025.7175 -167.63271)
(-6019.9425 -1068.0627 -183.04105)
(6.3990198 25.112069 27.642408)
(14.752516 44.111126 38.980414)
(21.381355 63.336205 51.401479)
(19.484736 83.470843 62.257833)
(12.154218 104.33069 71.861823)
(-5.7853334 126.16652 79.552041)
(-31.510104 147.57927 86.775868)
(-68.33941 169.18406 91.667096)
(-115.01614 190.20819 96.108524)
(-172.5288 209.77131 98.766274)
(-241.33267 228.68964 100.42391)
(-320.38742 244.95198 101.31562)
(-411.03997 260.06278 100.36853)
(-511.59746 272.1617 98.789433)
(-623.03603 282.0627 95.843654)
(-744.4161 289.29808 92.076333)
(-875.90177 294.01036 87.316501)
(-1016.9281 296.16221 82.061164)
(-1167.2566 295.61385 76.534278)
(-1326.5834 292.20384 71.052826)
(-1494.2753 285.40222 66.049692)
(-1669.9051 275.29632 61.491013)
(-1852.9822 260.46646 57.80313)
(-2042.35 241.54121 54.619798)
(-2236.9329 217.11445 52.186978)
(-2435.8681 187.29265 49.573874)
(-2637.9028 151.87391 46.699023)
(-2841.3728 111.14696 43.284225)
(-3045.2139 65.511749 38.991028)
(-3247.8482 15.437269 33.434222)
(-3448.0811 -38.304522 26.685029)
(-3644.8767 -94.991092 18.669008)
(-3837.1861 -153.77163 9.5596462)
(-4024.4949 -214.06895 -0.42399205)
(-4206.1483 -274.94184 -11.240296)
(-4382.1229 -336.37886 -22.477588)
(-4552.3871 -397.18098 -34.446801)
(-4717.1463 -457.56054 -46.848818)
(-4876.7497 -516.6814 -59.7194)
(-5032.1644 -574.43609 -73.40694)
(-5183.439 -630.24996 -87.6666)
(-5331.8792 -683.7772 -102.62514)
(-5478.0731 -735.04241 -117.94146)
(-5623.0902 -783.70617 -133.74872)
(-5767.8948 -830.1231 -149.42152)
(-5913.2981 -874.30673 -165.15401)
(-6060.6034 -916.84484 -180.28931)
(-1.8726199e-15 -1.0357256e-16 4.2324109e-16)
(-4.3693994e-15 5.8098526e-16 1.0825799e-16)
(-1.86708e-15 5.0203615e-16 5.7484399e-16)
(-1.1298519e-15 4.4303811e-16 -1.5186772e-16)
(-1.5283164e-15 1.7502349e-16 4.7144117e-17)
(-3.9278597e-15 -6.147074e-18 -1.0233878e-17)
(-3.270765e-15 8.5080195e-17 2.8271762e-17)
(-1.444637e-15 3.1767481e-17 -1.0328492e-16)
(-1.9600489e-15 -2.0641393e-16 2.5996682e-17)
(-1.0758982e-15 -5.0887233e-16 -1.6282415e-16)
(-1.1902312e-15 -6.3217422e-16 -1.0496995e-16)
(-2.2455722e-15 -1.0363924e-16 3.7607835e-16)
(-1.7254929e-15 1.2766475e-16 7.9907906e-17)
(-6.542485e-16 2.4659353e-16 4.7610311e-16)
(-1.0183069e-15 2.0413811e-16 3.0876606e-16)
(-1.2825224e-16 3.2154578e-16 2.6910031e-16)
(-2.4669526e-15 5.8726168e-16 -3.2350189e-17)
(-1.9694108e-15 5.8752001e-16 2.9593509e-16)
(-1.9972486e-15 5.0741204e-16 1.6376266e-16)
(-5.0142844e-16 5.9082617e-16 -1.5096731e-17)
(2.8672985e-17 2.0007103e-16 -2.079567e-16)
(-3.5598279e-15 1.6770216e-16 6.1584209e-17)
(1.5219227e-15 -3.8112137e-16 -3.4960392e-16)
(-8.8364966e-17 -1.5289127e-16 1.7491834e-16)
(2.7397895e-16 -2.6900304e-16 -2.0413732e-16)
(-5.1236454e-16 -3.7600259e-16 -4.411389e-17)
(-1.3114086e-15 -5.3747975e-16 1.2489795e-16)
(2.0041989e-16 -4.4379834e-16 -1.4360784e-16)
(-1.3448657e-15 3.3966264e-16 -2.7012678e-16)
(-2.2010094e-15 1.2158219e-16 1.1470551e-16)
(-1.2722141e-15 -2.3577892e-16 -7.7366055e-17)
(-2.6936153e-15 2.298542e-17 6.0151854e-16)
(-1.8084585e-15 2.5926424e-16 8.2177642e-17)
(-1.0121806e-15 3.7760621e-16 1.5728837e-17)
(-3.5076342e-15 -1.049112e-16 -1.8966684e-16)
(-1.2388067e-16 -2.746004e-16 -1.3203227e-16)
(-1.1077126e-15 -2.2449831e-16 5.9960705e-17)
(-7.9462407e-16 5.2806017e-17 1.8160622e-16)
(-1.481116e-15 2.6347307e-16 -6.003674e-17)
(5.3541372e-16 1.9494005e-16 5.7756958e-17)
(-2.5861876e-15 -7.0653702e-17 -1.8824779e-16)
(-1.6152529e-15 1.8241927e-16 3.8488004e-16)
(-1.0389662e-15 3.299921e-17 2.9700946e-16)
(-3.8817577e-15 -1.9427146e-16 -1.2145786e-15)
(-1.6161979e-15 2.8442108e-16 -1.856842e-16)
(8.1577518e-16 1.8112067e-17 2.0819295e-16)
(-2.485062e-15 2.8178417e-16 -5.4749215e-16)
(-1.8307085e-15 4.4562511e-16 -1.4619564e-16)
(-1.4586292e-15 4.0358521e-16 -4.0281137e-16)
(-6.4248484 5.4000809 16.12203)
(-7.3555416 4.9658417 12.202521)
(-7.1710357 5.1292838 7.9480064)
(-6.6880402 5.0901178 4.6972746)
(-5.6028843 4.2637381 0.66553461)
(-3.4782671 3.714548 -3.4229546)
(0.058947185 1.835925 -6.6137326)
(0.4831554 28.097767 37.337506)
(-3.0077971 25.909256 26.303673)
(-4.546898 24.646127 17.043894)
(-4.1707555 23.622874 10.571127)
(-2.123798 22.56897 3.5381972)
(1.1851941 21.188364 -4.0086799)
(6.0257509 18.666063 -10.997115)
(3.9415415 50.852758 49.025517)
(-0.49755609 46.950832 38.372835)
(-3.1880144 44.820621 27.2261)
(-3.2781764 43.56404 18.52357)
(-2.1758949 42.147944 7.452932)
(2.7691073 41.603495 -1.0824752)
(8.2879343 38.71509 -11.755822)
(-1.4922844 80.25661 61.120585)
(-7.2209283 77.273016 49.084087)
(-11.072648 74.532638 37.12165)
(-11.954816 72.458397 25.328387)
(-9.938247 70.693521 13.651346)
(-5.5795709 68.707975 3.1638922)
(0.84495466 66.047447 -9.0834725)
(-10.912164 107.44782 71.469965)
(-18.116759 103.44547 58.325515)
(-22.402601 100.23963 44.852904)
(-23.651469 98.051994 32.309748)
(-22.577348 96.399979 18.923979)
(-17.698922 94.435643 7.5173177)
(-10.735547 91.777014 -6.2663603)
(-31.737906 140.08125 80.226042)
(-39.303074 136.44448 66.928502)
(-44.764729 133.21608 52.181187)
(-45.857427 130.7545 39.607195)
(-45.0901 127.93055 24.789366)
(-39.43352 124.90568 11.913813)
(-32.494039 122.70984 -1.6411335)
(-59.469283 169.75712 87.477392)
(-68.184448 166.42623 72.936163)
(-73.618073 163.21301 58.843623)
(-75.949291 160.62325 44.458885)
(-74.639444 158.42168 30.207478)
(-70.395803 157.22953 16.634315)
(-62.195136 153.90153 0.35969406)
(-98.67254 202.82727 93.146838)
(-107.66501 199.68152 79.130744)
(-114.13457 196.48106 63.250747)
(-116.09181 193.85928 48.994034)
(-114.51172 190.65315 34.571696)
(-110.23891 188.67867 19.558766)
(-101.46175 186.43731 5.1780001)
(-147.36846 233.52367 97.750782)
(-157.00961 230.27002 82.440365)
(-163.53003 228.0295 67.998747)
(-165.92447 225.29874 53.171982)
(-165.0012 223.73731 37.831245)
(-160.28219 221.7478 23.17567)
(-152.06443 220.53198 6.3597178)
(-207.08225 264.80248 100.72904)
(-216.82947 261.96223 86.21776)
(-223.59849 258.5859 70.816927)
(-226.72438 257.39891 55.677547)
(-225.30385 254.94195 40.87853)
(-220.77632 253.43981 25.580584)
(-212.04792 252.01569 10.101872)
(-277.52938 293.78723 102.52649)
(-287.75758 291.14564 88.001749)
(-294.88773 289.26525 72.218718)
(-297.31345 286.62249 58.097094)
(-296.81587 285.53598 42.485812)
(-291.96247 284.42025 28.008762)
(-284.02028 285.17657 10.608797)
(-359.01807 321.19383 103.7946)
(-369.35802 319.31105 88.443228)
(-376.24333 317.09401 74.037484)
(-379.83193 316.01386 58.919865)
(-378.80591 314.72075 43.617043)
(-373.95646 314.26123 29.269213)
(-366.29106 314.32009 12.170293)
(-451.57712 347.01277 102.88535)
(-461.23973 344.75877 87.943246)
(-468.86885 343.29465 73.641848)
(-471.4863 341.12532 58.824495)
(-471.0837 340.74048 43.978619)
(-466.34725 340.92378 29.769279)
(-458.79412 341.99828 13.132327)
(-554.12131 369.68622 101.6034)
(-563.95749 368.05273 86.783527)
(-571.98488 366.53247 72.726331)
(-574.68788 365.53244 58.103881)
(-574.78581 365.60378 43.198493)
(-570.07592 366.1043 29.604929)
(-563.02883 367.74238 12.656666)
(-667.55126 390.3387 98.686892)
(-677.39541 388.6699 83.862633)
(-684.96586 387.17099 70.219969)
(-687.63439 385.99759 55.510797)
(-687.62997 386.00504 41.535859)
(-683.04618 386.75274 27.667197)
(-676.08912 389.37088 11.675779)
(-791.02184 407.44118 94.719814)
(-800.49619 406.01833 80.359996)
(-808.25026 404.71534 66.774071)
(-810.89947 404.07871 52.807993)
(-811.07589 404.41239 38.510983)
(-806.66465 405.93294 25.366002)
(-799.96282 408.90196 9.39626)
(-924.26757 421.86827 89.877979)
(-933.708 420.58023 75.56615)
(-941.11524 419.23219 62.412376)
(-943.41885 418.41076 48.278402)
(-943.74458 418.92677 34.713778)
(-939.1867 420.2421 21.62234)
(-932.81014 424.08983 6.2673907)
(-1067.2036 432.98056 84.233212)
(-1076.2868 431.74618 70.47067)
(-1083.3404 430.30016 57.3285)
(-1085.7006 429.94131 43.820299)
(-1085.8573 430.28495 30.488993)
(-1081.4647 432.24424 17.60435)
(-1075.1404 436.05106 2.7084317)
(-1219.2515 440.8611 78.473471)
(-1227.9124 439.45287 64.850439)
(-1234.6678 438.08321 52.106194)
(-1236.6431 437.37761 38.904383)
(-1236.9196 437.89887 25.870424)
(-1232.4315 439.60433 13.325257)
(-1226.47 443.78878 -0.99901271)
(-1379.9587 445.14342 72.64226)
(-1388.3155 443.6427 59.528667)
(-1394.5337 442.00946 47.285981)
(-1396.5832 441.59746 34.47693)
(-1396.7061 441.81436 21.989072)
(-1392.4663 443.83635 9.7432947)
(-1386.5895 447.5436 -4.0381843)
(-1548.9961 445.6024 67.416356)
(-1556.8327 443.74919 54.915596)
(-1562.7597 442.1831 43.095705)
(-1564.6233 441.38205 30.923153)
(-1564.9022 441.70055 18.90169)
(-1560.8033 443.32117 7.1418375)
(-1555.3214 446.8197 -5.9821819)
(-1725.5554 441.71927 62.979288)
(-1733.0364 439.7563 51.146)
(-1738.5578 437.83229 40.106085)
(-1740.5337 437.19259 28.656662)
(-1740.8582 437.12284 17.321904)
(-1737.2033 438.78392 6.2123261)
(-1732.242 441.60254 -6.1319532)
(-1909.0904 433.29017 59.36551)
(-1916.0912 430.85909 48.522947)
(-1921.3933 428.99742 38.484303)
(-1923.4852 428.03143 27.897036)
(-1924.1602 428.07586 17.424679)
(-1921.2091 429.32768 7.2109481)
(-1916.9089 431.53258 -4.2338994)
(-2098.5334 419.2976 56.67085)
(-2105.293 416.99965 47.07527)
(-2110.3514 414.84716 38.179791)
(-2112.7427 414.09718 28.555699)
(-2113.7712 413.76262 19.3088)
(-2111.5429 414.71102 10.022198)
(-2108.237 416.34679 -0.16873042)
(-2292.9042 400.02425 54.848958)
(-2299.5306 397.45529 46.409327)
(-2304.184 395.53595 39.000507)
(-2307.1794 394.57926 30.48466)
(-2308.56 394.1963 22.674158)
(-2307.696 395.03355 14.575153)
(-2305.7255 396.15123 6.0472124)
(-2491.2554 374.66269 53.032746)
(-2497.4996 372.19459 46.396781)
(-2502.2126 370.62243 40.340504)
(-2505.7058 369.49018 33.246395)
(-2507.509 369.22523 26.973534)
(-2507.928 369.45102 20.451452)
(-2507.198 370.12092 13.485839)
(-2692.3139 343.12019 51.045119)
(-2698.0233 341.1125 46.458735)
(-2703.0344 339.81738 41.388676)
(-2706.5777 338.67385 36.781805)
(-2709.6544 338.26619 31.29604)
(-2711.0449 338.58697 26.400832)
(-2711.7724 339.22019 20.778575)
(-2894.77 305.2643 48.428999)
(-2899.8967 304.22733 45.608018)
(-2905.0804 303.15901 42.330945)
(-2908.8591 302.49745 39.452711)
(-2912.6246 302.43152 35.472158)
(-2915.0633 302.15814 32.572636)
(-2917.6605 303.10754 28.459967)
(-3096.8493 261.82854 44.836604)
(-3101.8981 261.60567 43.652185)
(-3106.7664 261.29193 42.539597)
(-3111.0511 260.86537 40.9141)
(-3115.3814 261.08338 39.00848)
(-3119.2187 261.05161 37.526028)
(-3123.2151 262.05683 35.148335)
(-3297.894 213.02864 39.608223)
(-3302.2957 213.90635 40.652431)
(-3307.2539 214.24362 40.859684)
(-3311.773 214.44263 41.253139)
(-3316.8025 215.14838 40.852129)
(-3321.655 215.2045 41.016189)
(-3327.1063 216.62569 40.310877)
(-3496.2329 159.61377 33.257319)
(-3500.3842 161.61781 35.873291)
(-3505.1499 162.83607 37.942464)
(-3509.9224 163.73401 39.77785)
(-3515.4236 164.85655 41.024834)
(-3521.2391 165.441 42.572666)
(-3527.9129 167.30737 43.456592)