/*--------------------------------*- C++ -*----------------------------------*\
  =========                 |
  \\      /  F ield         | OpenFOAM: The Open Source CFD Toolbox
   \\    /   O peration     | Website:  https://openfoam.org
    \\  /    A nd           | Version:  6
     \\/     M anipulation  |
\*---------------------------------------------------------------------------*/
FoamFile
{
    version     2.0;
    format      ascii;
    class       pointVectorField;
    location    "0.49";
    object      u;
}
// * * * * * * * * * * * * * * * * * * * * * * * * * * * * * * * * * * * * * //

dimensions      [0 1 0 0 0 0 0];

internalField   nonuniform List<vector> 
3969
(
(0 0 0)
(0 0 0)
(1.7668093 -0.086323654 0.0062057808)
(1.667669 -0.51965832 0.0035575466)
(0 0 0)
(0 0 0)
(1.6691993 -0.5223356 0.0031803262)
(1.7682692 -0.089232056 0.0058142408)
(0 0 0)
(0 0 0)
(0 0 0)
(0 0 0)
(0 0 0)
(0 0 0)
(0 0 0)
(1.7539312 -0.14122425 0.0054248618)
(1.7412062 -0.19518355 0.0051905343)
(1.7287199 -0.24894226 0.0049219217)
(1.716464 -0.30260803 0.0048420634)
(1.7043471 -0.35635203 0.0046758883)
(1.6922492 -0.41030549 0.0045293131)
(1.680219 -0.4646526 0.0041347563)
(0.0036891534 0.0087461747 0.0095327578)
(0.0057144632 0.015336852 0.011965889)
(0.010298478 0.022802578 0.013394822)
(0.017361525 0.030165017 0.013866885)
(0.026289394 0.037571016 0.01407614)
(0.037551916 0.044757001 0.013989006)
(0.050560835 0.051677743 0.013953648)
(0.065722112 0.058320357 0.013737795)
(0.082596234 0.064557163 0.013642981)
(0.10140718 0.070409945 0.013392847)
(0.12192421 0.075905062 0.013307076)
(0.14422423 0.080977726 0.013109608)
(0.16819785 0.085609622 0.012958692)
(0.1938464 0.089886345 0.012829599)
(0.22117932 0.093659428 0.012672165)
(0.25005768 0.097015199 0.012543505)
(0.28056249 0.099913172 0.012430381)
(0.31262972 0.10233256 0.012307186)
(0.34625774 0.10425684 0.012185697)
(0.38140037 0.10565859 0.012052646)
(0.41805165 0.10651504 0.011913503)
(0.45616355 0.10681807 0.011754359)
(0.49570546 0.10652195 0.011579956)
(0.53663646 0.10561973 0.011383582)
(0.57888238 0.10407833 0.011163399)
(0.6224181 0.1019357 0.010933791)
(0.6671494 0.099128607 0.010686687)
(0.71305126 0.095674063 0.01041816)
(0.76003321 0.091565088 0.010142978)
(0.80801502 0.086812905 0.0098630925)
(0.85694379 0.081423997 0.0095747982)
(0.90674522 0.075410547 0.0092870174)
(0.95733703 0.068781431 0.0090019346)
(1.0086591 0.061568733 0.0087153923)
(1.0606399 0.053784143 0.0084425518)
(1.1131968 0.045422521 0.0081812098)
(1.1662835 0.03662125 0.0079094731)
(1.2197833 0.027179129 0.0076908234)
(1.2737082 0.017482229 0.0074260545)
(1.3278998 0.007098917 0.007264342)
(1.3824058 -0.0034108184 0.0070113845)
(1.4370524 -0.014497239 0.0068820238)
(1.4918767 -0.025863697 0.0067151047)
(1.5467707 -0.03733607 0.0065519409)
(1.6016838 -0.049455416 0.0065308124)
(1.6566078 -0.061332819 0.0064197258)
(1.711393 -0.073545029 0.0065474631)
(0.00027701816 -0.0084805488 -0.011317628)
(0.0037910597 -0.014210921 -0.011695839)
(0.0072594082 -0.021238734 -0.014225126)
(0.013326579 -0.028089744 -0.01392938)
(0.021652518 -0.035710593 -0.014215483)
(0.031568919 -0.043199917 -0.013782968)
(0.043502429 -0.050941711 -0.013595592)
(0.056995725 -0.058643291 -0.013208968)
(0.072270076 -0.066547878 -0.012958196)
(0.089202638 -0.074498006 -0.012631355)
(0.10765508 -0.082602294 -0.012421964)
(0.1278047 -0.090865281 -0.012211938)
(0.14937355 -0.099269876 -0.012040605)
(0.17254796 -0.10786868 -0.011853264)
(0.19717817 -0.11670847 -0.011729281)
(0.22333405 -0.12574174 -0.011577127)
(0.25098775 -0.13506953 -0.011452109)
(0.28006596 -0.1445976 -0.011308663)
(0.31066273 -0.15447842 -0.011149345)
(0.34266025 -0.16456886 -0.010980816)
(0.37609414 -0.1750418 -0.010764437)
(0.4109679 -0.18570888 -0.010548876)
(0.44720059 -0.1967798 -0.010239583)
(0.48482448 -0.20808267 -0.0099388473)
(0.52372891 -0.21965509 -0.0095983424)
(0.56395463 -0.23149571 -0.0092201398)
(0.60534339 -0.24354266 -0.0087903264)
(0.64803069 -0.25591308 -0.00832812)
(0.69186244 -0.2684434 -0.0078678266)
(0.73678098 -0.28117481 -0.0073525815)
(0.78276311 -0.29409584 -0.0068252689)
(0.82971851 -0.30717188 -0.0062651831)
(0.87762238 -0.32038075 -0.0056893439)
(0.92639013 -0.33370996 -0.005092174)
(0.97598556 -0.34711734 -0.0044784153)
(1.0263259 -0.36060573 -0.0038536399)
(1.0773759 -0.37411854 -0.0032185067)
(1.1290427 -0.38764438 -0.0025659794)
(1.18129 -0.40119493 -0.0019184223)
(1.2340505 -0.41468037 -0.0012697655)
(1.287253 -0.42814591 -0.00061708207)
(1.3408466 -0.44153148 1.8427802e-05)
(1.3947638 -0.4548025 0.00064363595)
(1.4489561 -0.46800173 0.0012584545)
(1.5033316 -0.48103481 0.0018400519)
(1.557911 -0.49394985 0.002380019)
(1.6125412 -0.5068018 0.00293066)
(0 0 0)
(0 0 0)
(0 0 0)
(0 0 0)
(0 0 0)
(0 0 0)
(0 0 0)
(0.0033222418 -0.0055800248 0.0087519382)
(0.0047390048 -0.017335737 0.01243805)
(0.0075085506 -0.019627673 0.012994658)
(0.014404843 -0.029667061 0.013793196)
(0.022204536 -0.035949013 0.013948148)
(0.03248015 -0.04381394 0.013438143)
(0.044303774 -0.051616276 0.013537217)
(0.057991189 -0.059145794 0.012899175)
(0.073236721 -0.067269328 0.012948531)
(0.090164996 -0.074952862 0.01239353)
(0.10868358 -0.08346338 0.01255679)
(0.12874416 -0.091242732 0.012085636)
(0.15052075 -0.099906012 0.011968187)
(0.17375466 -0.10841331 0.011712245)
(0.19847043 -0.11721905 0.01151171)
(0.22472354 -0.12635071 0.011329577)
(0.25241659 -0.13562093 0.011127304)
(0.28159472 -0.14526605 0.010940957)
(0.31221758 -0.15514902 0.010741566)
(0.34428756 -0.16534776 0.010527115)
(0.37777984 -0.17584028 0.010306372)
(0.41267472 -0.18663817 0.010067184)
(0.44896506 -0.19772578 0.0098030373)
(0.48658841 -0.2090863 0.009526136)
(0.52557812 -0.2208002 0.0091881458)
(0.56594689 -0.23274275 0.0087830732)
(0.6073479 -0.2450195 0.0084998971)
(0.64999949 -0.25742941 0.0081616885)
(0.69379815 -0.27009784 0.007839797)
(0.73870833 -0.28294408 0.0074931239)
(0.78465865 -0.29596625 0.0071403939)
(0.83160117 -0.3091501 0.0067966473)
(0.87947161 -0.32246181 0.0064536733)
(0.92822394 -0.33588199 0.0061164867)
(0.97778272 -0.34937871 0.005790062)
(1.0281089 -0.36297719 0.0054790898)
(1.0791377 -0.37650375 0.0051666067)
(1.1307424 -0.39018067 0.0049034024)
(1.1829738 -0.40374296 0.0046305716)
(1.2356993 -0.41731001 0.0043941303)
(1.2888691 -0.43080021 0.0041667438)
(1.3424477 -0.4442246 0.0039713988)
(1.3963337 -0.45752603 0.0037940527)
(1.450515 -0.47072999 0.0036454418)
(1.5048814 -0.48377364 0.0035220528)
(1.5594466 -0.49668819 0.0034478239)
(1.6140002 -0.50954888 0.0033652635)
(1.681826 -0.46739295 0.0032751125)
(1.6937741 -0.41309104 0.0035594951)
(1.7058869 -0.3591383 0.0040175352)
(1.717966 -0.30545043 0.00449144)
(1.7301803 -0.25179717 0.005085455)
(1.7426246 -0.19804029 0.0054727702)
(1.7554484 -0.14416034 0.0058597933)
(1.7130405 -0.07650393 0.0050448593)
(1.6579948 -0.064309142 0.0045997636)
(1.6031161 -0.052212398 0.0040238209)
(1.5481916 -0.040294044 0.0034813403)
(1.493282 -0.028620079 0.0028579752)
(1.4384635 -0.017233175 0.0022249002)
(1.3837873 -0.0061657168 0.0015843108)
(1.3292996 0.0045449776 0.0009289294)
(1.2750778 0.014866672 0.00026545199)
(1.2211766 0.024781792 -0.00038923983)
(1.1676251 0.034214157 -0.0010446462)
(1.1146387 0.043089993 -0.0016552903)
(1.0620298 0.051589908 -0.0023122297)
(1.0100744 0.059455233 -0.002918481)
(0.95876388 0.066780315 -0.0035271695)
(0.90818488 0.07349969 -0.0041033876)
(0.85839603 0.079619202 -0.0046634004)
(0.80948172 0.085102325 -0.0052037231)
(0.7614998 0.089958488 -0.0057168363)
(0.71453267 0.094152222 -0.0062054261)
(0.66863838 0.097718232 -0.006673573)
(0.62389426 0.10060891 -0.0071035358)
(0.58036081 0.10287343 -0.0075062416)
(0.53808228 0.10448859 -0.0078831628)
(0.49714026 0.10548468 -0.0082297118)
(0.45757282 0.10586645 -0.0085390076)
(0.41942521 0.10566233 -0.0088281389)
(0.38274229 0.10488299 -0.0090790211)
(0.34755685 0.1035564 -0.0093147152)
(0.31389213 0.10170125 -0.0095273944)
(0.28178318 0.099343406 -0.0097306296)
(0.25122977 0.096506066 -0.0099296307)
(0.22225454 0.093236791 -0.010127614)
(0.19501345 0.0893153 -0.010239278)
(0.16939784 0.085098208 -0.010533352)
(0.14528871 0.080492313 -0.010634223)
(0.12302831 0.075398772 -0.010955762)
(0.10237206 0.069883878 -0.011168683)
(0.083499544 0.064102537 -0.011547211)
(0.066591198 0.057650054 -0.011755981)
(0.051506629 0.051144407 -0.012082819)
(0.038086008 0.044198999 -0.012396448)
(0.027067724 0.036962342 -0.012640483)
(0.017776075 0.02958645 -0.012602214)
(0.010975421 0.022415984 -0.012225975)
(0.0061332856 0.014412583 -0.011021946)
(0.0065963928 0.0083598367 -0.006952678)
(0 0 0)
(0 0 0)
(0 0 0)
(0 0 0)
(0 0 0)
(0 0 0)
(0 0 0)
(0 0 0)
(0 0 0)
(0 0 0)
(0 0 0)
(0 0 0)
(0 0 0)
(0 0 0)
(1.6678399 -0.52029095 0.0034414811)
(1.6680584 -0.52079127 0.0033852972)
(1.668264 -0.52118957 0.0033691109)
(1.6684595 -0.52157898 0.00336482)
(1.6686531 -0.52190621 0.0033740756)
(1.6688307 -0.52214548 0.0033739584)
(1.6690075 -0.52241774 0.003252085)
(1.767327 -0.086433796 0.0061844671)
(1.7675777 -0.086783424 0.006173885)
(1.7678109 -0.08710039 0.006073316)
(1.7680281 -0.087447211 0.0059926414)
(1.7682 -0.0878083 0.0059033705)
(1.7683153 -0.088222314 0.0058363672)
(1.7684866 -0.088591756 0.0058357013)
(0.00078834293 0.0067602502 0.0086500204)
(0.0030045648 0.011695245 0.0088617936)
(0.0072438291 0.017555179 0.010138129)
(0.014043094 0.023039314 0.010522542)
(0.022807216 0.028464618 0.010630063)
(0.033964905 0.033880178 0.010696484)
(0.046846405 0.038908263 0.010556265)
(0.061807847 0.043839278 0.010565072)
(0.078591586 0.048260605 0.010346928)
(0.097208164 0.052497341 0.010309848)
(0.11753233 0.056304735 0.010157868)
(0.13957989 0.059725033 0.010038744)
(0.16334204 0.062845588 0.0099192777)
(0.18870394 0.06549798 0.0098067049)
(0.21572793 0.067744346 0.0097108442)
(0.24433417 0.06958446 0.0095997432)
(0.27451893 0.070986826 0.0095152336)
(0.30625063 0.071905524 0.0094248291)
(0.33952981 0.072362136 0.0093325494)
(0.37432549 0.07230735 0.0092336459)
(0.4106123 0.071740991 0.0091331317)
(0.44835458 0.070628254 0.0090153971)
(0.48752906 0.0689636 0.0088957574)
(0.52806536 0.066721008 0.0087567748)
(0.56996491 0.063910667 0.0086196395)
(0.61313678 0.060474229 0.008441926)
(0.65751911 0.056464 0.0082752601)
(0.70307594 0.051856006 0.0080963776)
(0.74972463 0.04663511 0.0079126333)
(0.79738923 0.04084077 0.0077231467)
(0.84602107 0.034464505 0.0075346645)
(0.89553834 0.027515049 0.0073470064)
(0.94586784 0.020022734 0.0071627693)
(0.99695499 0.012000041 0.0069832547)
(1.0487131 0.0034531156 0.0068165841)
(1.1010691 -0.0055542954 0.0066512606)
(1.1539888 -0.015035888 0.0064951766)
(1.2073451 -0.024963779 0.0063769562)
(1.2611488 -0.03524994 0.0062359297)
(1.3152636 -0.045974734 0.0061581473)
(1.3696707 -0.056924975 0.0060302467)
(1.4242814 -0.068358278 0.0060145075)
(1.4791018 -0.079847564 0.0058818691)
(1.5339484 -0.091734218 0.0059107034)
(1.5889385 -0.10384644 0.0058602496)
(1.643812 -0.11587967 0.005833756)
(1.6987164 -0.12854779 0.0057878477)
(-0.0017692973 0.004512102 0.0059440084)
(0.00038101167 0.0072605941 0.0058553341)
(0.0049024572 0.0120584 0.0068708906)
(0.011509559 0.015465829 0.0070126972)
(0.020417448 0.019362 0.0072016237)
(0.031181554 0.022909104 0.0071237346)
(0.043960716 0.02626234 0.0072598287)
(0.058790108 0.029348721 0.0070422887)
(0.075315361 0.032096785 0.0071466734)
(0.093693977 0.034634699 0.0070092231)
(0.11380018 0.036692406 0.0069818919)
(0.13562028 0.038560383 0.0068934)
(0.15908709 0.039967733 0.0068507195)
(0.1842292 0.041032828 0.0068053177)
(0.2109665 0.041703109 0.0067479772)
(0.23925955 0.042017814 0.0066806405)
(0.26911622 0.041901233 0.0066184516)
(0.30051028 0.041355354 0.0065644998)
(0.3334453 0.040353535 0.0065006892)
(0.36789423 0.038875331 0.0064442871)
(0.40383049 0.03689835 0.0063746601)
(0.44123185 0.03442065 0.0063029162)
(0.4800218 0.031417438 0.0062255605)
(0.52023356 0.027899077 0.0061491408)
(0.56175485 0.023807254 0.0060459766)
(0.60455467 0.019204654 0.0059819705)
(0.64858526 0.014026061 0.0058943484)
(0.69379254 0.0082948298 0.0057942694)
(0.74008656 0.0020396727 0.0057171699)
(0.78743491 -0.0047660375 0.0056251491)
(0.83575382 -0.012091121 0.0055386862)
(0.88497458 -0.019930386 0.0054639948)
(0.93503316 -0.028256339 0.0053845888)
(0.98586438 -0.037063539 0.0053223234)
(1.0373785 -0.046312512 0.0052639094)
(1.0895408 -0.055994941 0.0052181948)
(1.1422609 -0.066066272 0.0051818619)
(1.1954327 -0.076555883 0.0051751043)
(1.2491205 -0.087284554 0.0051276584)
(1.3030483 -0.098482932 0.0051721485)
(1.3574317 -0.10979622 0.0051356266)
(1.4119135 -0.12151673 0.0051978596)
(1.4667188 -0.13332622 0.0051899679)
(1.5214971 -0.14544009 0.0052765608)
(1.5764851 -0.15768486 0.0052934833)
(1.6313646 -0.17005215 0.0053123282)
(1.6864191 -0.18272393 0.0053051219)
(-0.0037536435 0.0024847638 0.0035754721)
(-0.0014251042 0.0041673829 0.003453571)
(0.0026918191 0.0065780435 0.0037760514)
(0.0095624534 0.0086050341 0.0038820996)
(0.018124916 0.010532978 0.0038404237)
(0.02909662 0.012427259 0.0039586117)
(0.04185984 0.013792933 0.003723979)
(0.056488419 0.015179043 0.0038912235)
(0.07292526 0.016114283 0.0037963557)
(0.091178363 0.016836603 0.0037734108)
(0.11103803 0.017308996 0.0037680785)
(0.13258906 0.017411119 0.0037370663)
(0.15577825 0.017245579 0.0037200822)
(0.18056174 0.016697104 0.0037033063)
(0.20694147 0.015867808 0.0037105503)
(0.23491616 0.014626654 0.0036553404)
(0.26443223 0.013012435 0.0036440419)
(0.29549625 0.010981499 0.0036052272)
(0.32808341 0.0085198165 0.0035910533)
(0.36215024 0.0056257725 0.0035713729)
(0.39768562 0.0022730994 0.0035692562)
(0.43464665 -0.0015555586 0.0035652318)
(0.47308454 -0.005854345 0.0035683538)
(0.51286406 -0.010690258 0.0035503785)
(0.55398433 -0.015991317 0.0035771808)
(0.59640723 -0.02182098 0.0035576263)
(0.64009133 -0.028154857 0.0035356845)
(0.68493549 -0.034987994 0.003541284)
(0.73090246 -0.042308044 0.003534561)
(0.77792097 -0.050126935 0.0035300408)
(0.82591778 -0.058397534 0.0035439307)
(0.8748427 -0.067135608 0.0035555009)
(0.92461585 -0.076303877 0.0035793292)
(0.97517414 -0.085885758 0.0036126955)
(1.02645 -0.095872252 0.0036578028)
(1.0783833 -0.10620151 0.0037036603)
(1.130869 -0.11692573 0.0037833802)
(1.1839311 -0.12788274 0.0038367054)
(1.2373973 -0.13921183 0.0039338193)
(1.2912578 -0.15076523 0.0040543186)
(1.3454657 -0.16247663 0.0041135976)
(1.3998629 -0.17456212 0.004323439)
(1.4545732 -0.18660332 0.0043553761)
(1.5093059 -0.19899696 0.0045904504)
(1.5643095 -0.21141893 0.0046310222)
(1.6191902 -0.22391049 0.004795536)
(1.674191 -0.23659551 0.0048970451)
(-0.0042093121 0.00045223771 0.00056143868)
(-0.0019455256 0.0004609325 -0.0001795213)
(0.0021380839 0.0012377989 5.2257327e-06)
(0.0086115717 0.0013737906 8.4195213e-05)
(0.017388798 0.0014621428 0.0002241252)
(0.028043273 0.0015504576 0.00015363268)
(0.04054917 0.0010966015 0.00047076235)
(0.054963168 0.00076407494 0.00042526976)
(0.071144321 -0.00010392923 0.00056969018)
(0.089044652 -0.00098243522 0.00068293955)
(0.10862526 -0.0023283818 0.00071938138)
(0.12996849 -0.0038332015 0.00074974349)
(0.15285354 -0.0056786413 0.00072533437)
(0.17739264 -0.0078467092 0.00077073851)
(0.20348352 -0.010279993 0.00072227356)
(0.23116312 -0.013081636 0.0007409633)
(0.26033542 -0.016208846 0.00072128804)
(0.29106191 -0.019740279 0.0007344773)
(0.32325919 -0.023658072 0.00074524491)
(0.35696878 -0.02799092 0.00076106715)
(0.39216435 -0.032762583 0.00076922192)
(0.42887098 -0.037957726 0.00078686089)
(0.46688313 -0.043632033 0.00080136494)
(0.50630912 -0.049720813 0.00085555367)
(0.54707534 -0.056278843 0.00086778916)
(0.58913799 -0.063284037 0.00091214043)
(0.63241128 -0.070748055 0.0010012618)
(0.67686718 -0.078668505 0.0010898613)
(0.72244917 -0.087024815 0.0011754024)
(0.76908771 -0.095819079 0.001298188)
(0.8167303 -0.10501498 0.0014082741)
(0.86530786 -0.11462777 0.0015471456)
(0.91474838 -0.12460372 0.0016839391)
(0.96500235 -0.13494828 0.0018436073)
(1.0159841 -0.14561253 0.0020014238)
(1.0676322 -0.15661704 0.0021940569)
(1.1199013 -0.16785711 0.0023696129)
(1.1726761 -0.17940168 0.0025822102)
(1.2259176 -0.19117461 0.0028135481)
(1.2795781 -0.20309612 0.0029982409)
(1.3336269 -0.21527367 0.0032487867)
(1.387904 -0.22755741 0.0034718189)
(1.4425202 -0.23991279 0.0036679779)
(1.4971888 -0.25249029 0.0039609452)
(1.552122 -0.26498149 0.0041252731)
(1.606957 -0.27760618 0.0044305823)
(1.6620004 -0.29025701 0.0046083434)
(-0.0045619501 -0.0016403676 -0.0022231897)
(-0.0020121717 -0.0025635513 -0.0029457924)
(0.0015226606 -0.0039345628 -0.0029972029)
(0.008258266 -0.0055189999 -0.0030619129)
(0.016713902 -0.0072365786 -0.0031676459)
(0.027325429 -0.0091082424 -0.0029076768)
(0.039708648 -0.011271015 -0.0029257439)
(0.054052012 -0.01349628 -0.0028271672)
(0.069996733 -0.016079532 -0.0026975042)
(0.087793892 -0.018797834 -0.0026558593)
(0.10719006 -0.021822578 -0.0026482436)
(0.12819999 -0.024939038 -0.0025750746)
(0.150798 -0.028495004 -0.0024893726)
(0.1750147 -0.032180998 -0.0024491552)
(0.20075015 -0.036261723 -0.0023809168)
(0.2280411 -0.040603983 -0.0023142912)
(0.25687297 -0.04529189 -0.0022876306)
(0.2872021 -0.050310912 -0.0022291972)
(0.31904638 -0.055691553 -0.0021861019)
(0.35235846 -0.061446322 -0.0021242959)
(0.38717059 -0.067566168 -0.0020592472)
(0.42330199 -0.074115647 -0.001936255)
(0.46091909 -0.081031909 -0.0018266289)
(0.49990554 -0.088427258 -0.001717863)
(0.54025922 -0.096210171 -0.0015770167)
(0.58187384 -0.1044146 -0.0014078491)
(0.62476444 -0.11304056 -0.0012408266)
(0.6688402 -0.12205983 -0.0010825431)
(0.71404647 -0.13146553 -0.00089208422)
(0.76032132 -0.14124201 -0.00070203029)
(0.80761302 -0.15138076 -0.00049227255)
(0.85584681 -0.16186603 -0.00026739956)
(0.90497198 -0.17267208 -3.1645815e-05)
(0.9549129 -0.18376694 0.0002132144)
(1.005603 -0.19516887 0.00048794772)
(1.0569988 -0.20678301 0.00074850144)
(1.1089931 -0.21865079 0.0010394656)
(1.1615707 -0.23074104 0.0013483074)
(1.2146142 -0.24294729 0.0016066226)
(1.2681843 -0.25534012 0.0019411648)
(1.3220124 -0.26785505 0.0022554643)
(1.3762145 -0.28042691 0.0025744146)
(1.4306379 -0.29311222 0.0028981915)
(1.4852434 -0.30583615 0.0032557667)
(1.5400665 -0.31851832 0.0035369489)
(1.5949209 -0.33126624 0.0039208463)
(1.6498909 -0.34391264 0.0042402638)
(-0.0037992631 -0.0036370063 -0.0054347439)
(-0.00077126251 -0.0064194375 -0.0061235773)
(0.0027647536 -0.0096514965 -0.0068576571)
(0.0093380542 -0.013030532 -0.0070318321)
(0.01769227 -0.016622625 -0.0068992997)
(0.028058549 -0.0203018 -0.0067773145)
(0.040328251 -0.024322301 -0.0066130316)
(0.054368058 -0.028316021 -0.0063768718)
(0.070139385 -0.03268998 -0.0062170826)
(0.087624901 -0.037059955 -0.0060104383)
(0.10672232 -0.041788522 -0.0058682202)
(0.12743042 -0.046656082 -0.005730107)
(0.14973936 -0.051824573 -0.0056609975)
(0.17359715 -0.057191736 -0.0055462727)
(0.19898252 -0.062849923 -0.0054770789)
(0.22591647 -0.068755643 -0.0053972578)
(0.25435204 -0.074984015 -0.0053422964)
(0.2843018 -0.081489733 -0.0052521135)
(0.31572837 -0.088366505 -0.0051794161)
(0.34863345 -0.095539086 -0.0050726713)
(0.38296514 -0.10314438 -0.0049712117)
(0.41884017 -0.11094082 -0.0048007818)
(0.45598846 -0.11926015 -0.0047078733)
(0.49455627 -0.12803233 -0.0044878399)
(0.53444446 -0.13707072 -0.0043052994)
(0.575619 -0.14650129 -0.004103064)
(0.61807762 -0.15624879 -0.0038691924)
(0.66170031 -0.1663495 -0.0035955358)
(0.70646586 -0.17676755 -0.0033238016)
(0.75232175 -0.18752857 -0.0030159593)
(0.79919237 -0.19858581 -0.0026962159)
(0.84702925 -0.20992993 -0.0023507041)
(0.89576676 -0.22152902 -0.0019989589)
(0.94533855 -0.23339147 -0.0016157741)
(0.99569148 -0.24543309 -0.0012410665)
(1.0467437 -0.25770291 -0.00083175173)
(1.0984563 -0.27012085 -0.00042046277)
(1.1507283 -0.28266812 -5.0362403e-06)
(1.203549 -0.29537869 0.00043651563)
(1.2567822 -0.30813997 0.00086898555)
(1.3104432 -0.32094251 0.0013005234)
(1.3644603 -0.33379956 0.0017254821)
(1.4186973 -0.34671694 0.0021820545)
(1.4732271 -0.35954882 0.0025854273)
(1.5278791 -0.37237737 0.003024844)
(1.5826782 -0.38515396 0.003487622)
(1.6375973 -0.3977586 0.0039467531)
(-0.0022222037 -0.0064824133 -0.0077342421)
(0.00076867001 -0.010048545 -0.0088934834)
(0.0041413046 -0.015271664 -0.010147507)
(0.010748575 -0.020290474 -0.010266487)
(0.018742056 -0.025625628 -0.010320983)
(0.029156321 -0.031296907 -0.010094675)
(0.041117734 -0.037040469 -0.0099268592)
(0.054994039 -0.042967406 -0.0096369464)
(0.070513096 -0.049077507 -0.0094621937)
(0.087694947 -0.05522331 -0.0091981429)
(0.1065787 -0.061732934 -0.0090263292)
(0.12693927 -0.068216324 -0.0089038955)
(0.14896333 -0.075092884 -0.008716852)
(0.1724347 -0.082056984 -0.0086032048)
(0.1975053 -0.089310405 -0.0084769034)
(0.22403848 -0.096783594 -0.00837444)
(0.25211104 -0.10453827 -0.0082576677)
(0.28164312 -0.1125714 -0.0081515642)
(0.31266536 -0.12090712 -0.0080239556)
(0.34513761 -0.12955579 -0.0078910858)
(0.37907796 -0.13850225 -0.0077356059)
(0.41437261 -0.14781107 -0.0075401857)
(0.45119491 -0.15741996 -0.0073437634)
(0.48928125 -0.16742279 -0.0070901226)
(0.52872534 -0.17768707 -0.0068579079)
(0.56944554 -0.18829189 -0.0065547589)
(0.61142263 -0.19919743 -0.0062080004)
(0.65461492 -0.2103799 -0.0058706777)
(0.69895766 -0.22185727 -0.0055005692)
(0.74438533 -0.23360467 -0.0050985245)
(0.79084215 -0.24558889 -0.0046796211)
(0.83828044 -0.25780217 -0.0042373868)
(0.88662713 -0.27022179 -0.0037747048)
(0.93583504 -0.28280991 -0.0033006913)
(0.98583008 -0.29556448 -0.0028053007)
(1.0365623 -0.30844773 -0.002297813)
(1.0879524 -0.32142897 -0.0017887465)
(1.1399722 -0.33451851 -0.0012481737)
(1.192505 -0.34763907 -0.00073796618)
(1.2455309 -0.36080998 -0.00019761032)
(1.2989782 -0.37397249 0.00033089166)
(1.352792 -0.38715134 0.00087389269)
(1.4068772 -0.40027871 0.00139717)
(1.4612503 -0.41331861 0.001894467)
(1.5157336 -0.42633086 0.0024375306)
(1.570439 -0.4391822 0.0029089992)
(1.6251822 -0.45186156 0.0034608349)
(0 0 0)
(0 0 0)
(0 0 0)
(0 0 0)
(0 0 0)
(0 0 0)
(0 0 0)
(0 0 0)
(0 0 0)
(0 0 0)
(0 0 0)
(0 0 0)
(0 0 0)
(0 0 0)
(0 0 0)
(0 0 0)
(0 0 0)
(0 0 0)
(0 0 0)
(0 0 0)
(0 0 0)
(0 0 0)
(0 0 0)
(0 0 0)
(0 0 0)
(0 0 0)
(0 0 0)
(0 0 0)
(0 0 0)
(0 0 0)
(0 0 0)
(0 0 0)
(0 0 0)
(0 0 0)
(0 0 0)
(0 0 0)
(0 0 0)
(0 0 0)
(0 0 0)
(0 0 0)
(0 0 0)
(0 0 0)
(0 0 0)
(0 0 0)
(0 0 0)
(0 0 0)
(0 0 0)
(0 0 0)
(0 0 0)
(0.0036248031 -0.0025932012 -0.0059004185)
(0.0045436484 -0.0033447271 -0.0040407853)
(0.0055098619 -0.0035189749 -0.0020940856)
(0.0058742624 -0.0037207325 -0.00049587251)
(0.0057223641 -0.003442551 0.0011129258)
(0.0054026164 -0.003593629 0.0028615835)
(0.0043592183 -0.0023437669 0.0046807075)
(0.0071028425 -0.013750055 -0.0095489511)
(0.0090572385 -0.015132853 -0.0054249439)
(0.0099129139 -0.014200532 -0.0024872178)
(0.010097871 -0.013751276 -0.00010415709)
(0.010195746 -0.014520457 0.0023093629)
(0.0090606436 -0.01432781 0.0051168335)
(0.007890292 -0.014262952 0.0087339135)
(0.010116191 -0.01955095 -0.010260631)
(0.012533002 -0.018763639 -0.0072885748)
(0.01413944 -0.019512403 -0.0033258365)
(0.01438014 -0.019463543 -0.00036047143)
(0.014204229 -0.019025789 0.0031769187)
(0.012953996 -0.019242242 0.0058035923)
(0.011276913 -0.020058704 0.01029326)
(0.01703711 -0.028514621 -0.010462098)
(0.019210498 -0.028975801 -0.0072584667)
(0.020509332 -0.028672248 -0.0033736394)
(0.021040112 -0.028628687 -0.00029747978)
(0.020725959 -0.028708448 0.0031505115)
(0.019589706 -0.029136354 0.0068969419)
(0.017286407 -0.02860758 0.010192961)
(0.024739165 -0.035953002 -0.01067498)
(0.02714146 -0.035813332 -0.0074361334)
(0.028827567 -0.036089692 -0.0036565477)
(0.02921714 -0.035963981 -0.00013214436)
(0.029028542 -0.036091197 0.0034737273)
(0.027726317 -0.036098302 0.0067613676)
(0.025768441 -0.036323154 0.010767336)
(0.034971873 -0.043953116 -0.010334468)
(0.037058831 -0.043961139 -0.007156068)
(0.038520085 -0.043892414 -0.0034340072)
(0.039024895 -0.044091349 -0.00026539481)
(0.038680345 -0.043948095 0.0034825254)
(0.037438255 -0.043961505 0.0069620936)
(0.035293278 -0.043841342 0.010279019)
(0.046566466 -0.051422971 -0.010222734)
(0.048808608 -0.051660738 -0.0069353397)
(0.050341831 -0.05200901 -0.0034557541)
(0.050824218 -0.052036766 -0.00015108723)
(0.05061415 -0.05217398 0.003466764)
(0.049438983 -0.052402967 0.0066793124)
(0.04742997 -0.052110986 0.010406055)
(0.060155901 -0.059455007 -0.0099007835)
(0.062273569 -0.059713442 -0.0068268671)
(0.063690975 -0.059770359 -0.0032658132)
(0.064208892 -0.059909912 -2.4008003e-05)
(0.063825109 -0.059773052 0.0033215508)
(0.062735111 -0.059644388 0.0067185913)
(0.060648275 -0.059431079 0.0098740635)
(0.075328847 -0.067228606 -0.009736025)
(0.077427981 -0.067498986 -0.0064972518)
(0.078864166 -0.067902276 -0.0032595246)
(0.079325671 -0.067949644 -7.9292914e-05)
(0.079116043 -0.068174094 0.0032755855)
(0.078001898 -0.068036496 0.0064874761)
(0.07610583 -0.067882793 0.0099457229)
(0.092155488 -0.075263942 -0.0094684069)
(0.094221482 -0.075621008 -0.0064532641)
(0.095579625 -0.075735851 -0.0031709836)
(0.096170401 -0.076076992 7.3939723e-05)
(0.095799399 -0.075918717 0.0032743736)
(0.094756165 -0.075751831 0.0064453881)
(0.092817197 -0.075451667 0.0095531572)
(0.11064616 -0.083358606 -0.0092983616)
(0.11265253 -0.083719117 -0.0062712995)
(0.11404114 -0.084092029 -0.0029906465)
(0.11445561 -0.084087325 -6.1483609e-05)
(0.11429121 -0.084188731 0.0032027494)
(0.11319563 -0.084068832 0.0061719918)
(0.1113735 -0.08393096 0.0095868012)
(0.13067874 -0.09156178 -0.0091959513)
(0.13269966 -0.092006441 -0.0060605995)
(0.13393529 -0.092270805 -0.0031213821)
(0.13455006 -0.092529829 5.1006014e-05)
(0.13425021 -0.092496617 0.0031915414)
(0.13312335 -0.092260998 0.0061196878)
(0.1315073 -0.09199873 0.009337496)
(0.15232056 -0.10008186 -0.0089949377)
(0.15417278 -0.10041865 -0.0060085248)
(0.15553842 -0.10083451 -0.0030177934)
(0.15602209 -0.10086996 1.2801179e-05)
(0.15577247 -0.10087646 0.00308932)
(0.15475633 -0.10082545 0.0059330241)
(0.15306683 -0.10041219 0.0091241356)
(0.17537621 -0.10862213 -0.0089273412)
(0.17725925 -0.10907078 -0.0059287796)
(0.17864424 -0.10943411 -0.0030545525)
(0.17907539 -0.10955656 -2.0207884e-05)
(0.17894584 -0.10967428 0.0030069309)
(0.1778706 -0.1094088 0.0057929122)
(0.1763356 -0.10908971 0.0089938928)
(0.2000086 -0.11754528 -0.008825814)
(0.20190032 -0.11796723 -0.0058531088)
(0.203189 -0.11829734 -0.0030468252)
(0.20370726 -0.11846344 5.395409e-07)
(0.20350461 -0.11842296 0.0028804025)
(0.20253331 -0.11824598 0.0057206738)
(0.2009702 -0.11785746 0.0087972626)
(0.22614695 -0.12657409 -0.0087228283)
(0.22795462 -0.12700181 -0.0058229229)
(0.22932252 -0.12742304 -0.0030271624)
(0.22977649 -0.12753813 -0.00010346195)
(0.22965004 -0.12759771 0.0028368248)
(0.22867322 -0.12738749 0.0055587188)
(0.22717127 -0.12699718 0.0086559437)
(0.25371406 -0.13590946 -0.0086487461)
(0.25556777 -0.13640918 -0.0057534867)
(0.25687555 -0.13677249 -0.0030467796)
(0.25734903 -0.13691196 -7.9375517e-05)
(0.25722843 -0.13694653 0.0027344775)
(0.25628818 -0.13670949 0.0054674701)
(0.25481832 -0.13632172 0.0085069523)
(0.28281148 -0.14551321 -0.0085306135)
(0.28459722 -0.14599605 -0.0057357257)
(0.28593219 -0.14640885 -0.0030059347)
(0.28638762 -0.14656926 -0.00014148526)
(0.28629582 -0.14660095 0.0026545687)
(0.28536985 -0.14637432 0.0053568615)
(0.28393824 -0.14596333 0.0083471591)
(0.31332211 -0.15539272 -0.0084423716)
(0.3151037 -0.15591223 -0.0056517683)
(0.31641693 -0.15632294 -0.002992549)
(0.31686253 -0.15647678 -0.00015419658)
(0.3167942 -0.15651328 0.002590114)
(0.31588853 -0.1562764 0.0052539568)
(0.31451106 -0.15588931 0.0081874666)
(0.34528396 -0.16556135 -0.0082966428)
(0.34704001 -0.16608979 -0.005582034)
(0.34833549 -0.16652832 -0.0029626359)
(0.34878325 -0.16671561 -0.00017663717)
(0.34873461 -0.16674605 0.0025117288)
(0.3478542 -0.166533 0.0051405319)
(0.34651941 -0.1661058 0.008017188)
(0.37867588 -0.1760291 -0.0081583017)
(0.38039293 -0.17658921 -0.005489071)
(0.38166838 -0.17704228 -0.0029150891)
(0.38211854 -0.17721441 -0.000187982)
(0.3820807 -0.17726592 0.0024469049)
(0.38123354 -0.17702607 0.005026591)
(0.37994434 -0.17661398 0.007844201)
(0.41345973 -0.18678996 -0.00797521)
(0.41514251 -0.1873698 -0.0053707712)
(0.41640583 -0.18782508 -0.0028517399)
(0.41684439 -0.18803342 -0.00020106773)
(0.4168302 -0.18806673 0.0023839267)
(0.41600401 -0.18785279 0.0049069134)
(0.41476737 -0.18743349 0.0076595523)
(0.44962458 -0.19785724 -0.0077539067)
(0.45127909 -0.19844118 -0.0052209629)
(0.45250168 -0.19891657 -0.0027872173)
(0.45294795 -0.19912009 -0.00019722903)
(0.45293151 -0.19919388 0.0023209923)
(0.45215519 -0.19897849 0.0047666511)
(0.45097119 -0.19854977 0.0074581821)
(0.48715426 -0.20916927 -0.0074969656)
(0.48876109 -0.20981775 -0.0050680525)
(0.4899508 -0.21025979 -0.0026997321)
(0.4903849 -0.21052632 -0.00018373369)
(0.49040626 -0.21055539 0.0022390707)
(0.48965901 -0.21033475 0.0046397609)
(0.48852067 -0.20991382 0.0072494079)
(0.52596411 -0.22079134 -0.0072663932)
(0.52758382 -0.22143158 -0.0048668865)
(0.52867954 -0.22185762 -0.0026144617)
(0.52917606 -0.22216379 -0.00015422972)
(0.52913888 -0.22218057 0.0021630916)
(0.52844973 -0.22205672 0.0045011721)
(0.52736408 -0.22165411 0.0069765112)
(0.56607 -0.23265841 -0.0069547803)
(0.5676578 -0.23328101 -0.004677738)
(0.56868528 -0.23377195 -0.0025048527)
(0.56918598 -0.23404874 -6.2909593e-05)
(0.56912354 -0.23407738 0.0020412015)
(0.56856889 -0.23395782 0.0043222945)
(0.56755216 -0.23353611 0.0066380738)
(0.6074184 -0.24476496 -0.0066363666)
(0.60894684 -0.2453952 -0.0045171597)
(0.60995454 -0.24591545 -0.0023079959)
(0.61048841 -0.24619268 -0.00016815788)
(0.61047499 -0.24625022 0.0020397091)
(0.60991484 -0.24613921 0.0042307286)
(0.60888852 -0.24574664 0.0064406148)
(0.65002444 -0.25709423 -0.0062939648)
(0.65141722 -0.25774373 -0.0042380794)
(0.65246686 -0.25827321 -0.002144761)
(0.65290064 -0.25853381 -0.0001301892)
(0.65294349 -0.25862182 0.0020464477)
(0.65240445 -0.25848382 0.0040365532)