/*--------------------------------*- C++ -*----------------------------------*\
  =========                 |
  \\      /  F ield         | OpenFOAM: The Open Source CFD Toolbox
   \\    /   O peration     | Website:  https://openfoam.org
    \\  /    A nd           | Version:  6
     \\/     M anipulation  |
\*---------------------------------------------------------------------------*/
FoamFile
{
    version     2.0;
    format      ascii;
    class       pointScalarField;
    location    "1.76";
    object      E;
}
// * * * * * * * * * * * * * * * * * * * * * * * * * * * * * * * * * * * * * //

dimensions      [1 -1 -2 0 0 0 0];

internalField   nonuniform List<scalar> 
625
(
329.8614
-923.21666
-28474.768
-35050.864
-84.435103
-464.8411
-55971.83
-67863.039
-727.35256
661.91657
773.10094
-46847.949
-64779.233
15236.215
2899.2043
1297.8708
3381.4814
8034.4119
9136.7178
15639.842
18297.483
20113.62
20106.72
14014.75
2789.6042
-13465.436
-35332.122
-60107.491
-85199.127
-109171.26
-126295.99
-137385.1
-133592.34
-121249.96
-100029.03
-72259.2
-23910.288
2922.063
-2694.8131
4097.6841
-1100.3909
-9399.3623
-9629.0476
-20540.646
-23393.901
-25530.707
-24932.544
-17587.128
-6125.8361
13144.799
37995.045
68516.748
101659.18
134175.08
160640.89
177014.78
178842.23
161702.7
130325.25
71105.308
314.77464
74.677706
-1185.9421
3642.5272
8663.3231
-6512.5887
-4414.614
594.12187
-18700.651
-16579.776
-21076.08
-21607.234
-17887.382
-12179.145
2288.6387
17274.267
38412.345
61292.535
85470.632
108864.32
127530.6
138053.51
137649.39
122615.88
95739.527
64343.689
-37019.755
-92279.903
-78122.888
-13749.661
-33900.178
-52738.228
-68622.546
-78186.092
-79749.003
-76023.421
-66543.164
-53885.158
-39207.97
-25254.97
-11677.343
-1907.4816
6314.3274
10974.508
11972.716
11068.825
9541.0942
8759.2849
3189.5069
7045.1717
282.49529
3483.1448
443.92297
-544.43884
-1190.7218
-1300.7495
-2217.2007
-2913.9609
-42775.169
-41035.372
-45595.281
-37623.74
-38891.479
-38703.392
520.3237
-1114.2807
-3318.4841
-4599.6062
-9750.0491
-12176.558
-17514.868
-20248.303
-21697.411
-20394.219
-14156.616
-4150.4209
11136.91
30759.98
53183.395
76614.962
97946.305
114327.04
123948.1
119820.04
110930.75
88222.963
40004.498
286.54977
-1749.064
-2038.2599
-4836.0849
-4788.2781
-5590.452
-6948.8115
-4999.5944
-4479.6202
-790.55276
2413.5417
8089.9478
14355.375
21443.474
28685.891
34803.855
39524.325
40541.763
39762.472
30749.911
23561.992
5714.0709
-13683.643
1798.0402
-95.663955
2586.4895
4514.473
9418.6583
11660.205
19078.332
20005.415
21755.293
18811.549
11277.188
131.16831
-16698.182
-36790.042
-59961.886
-83594.821
-106471.39
-122816.14
-134073
-129596.72
-115666.88
-87405.506
-34932.206
-231.65254
-774.10103
-813.17055
92.544166
-116.40757
139.61528
93.711938
-641.66153
-1027.7075
4913.1372
5542.3876
2961.4856
4941.366
2154.3034
2655.8154
1512.1496
-2135.6807
1572.1929
-1920.5929
-1771.8535
-6276.1575
-2602.4566
-6490.4908
-2652.7799
-12432.502
-11355.115
-12883.354
-14842.348
-17008.888
-15259.796
-19137.048
-23652.512
-21733.192
-22708.622
-22449.974
-24690.72
-19444.443
-20836.432
-20127.076
-14017.586
-12744.711
-15043.965
63.830075
-193.8737
-771.17704
17561.947
19008.366
17647.13
42584.717
43117.183
41408.635
71558.558
71795.853
70375.758
102879.02
102373.1
100605.18
133144.64
131709.63
130116.55
157221.81
155118.86
153890.08
170987.4
168777.51
167531.86
170129.99
167057.12
166314.42
152068.93
149754.5
149679.97
116971.77
118750.92
117001.49
68919.653
68278.098
71110.658
-56887.888
-56303.411
-55266.461
-63829.452
-70534.994
-73153.726
-8438.4375
-4624.5661
-5249.0725
1488.1672
3399.7842
1418.68
466.7592
202.20123
418.62453
6434.3195
4802.5873
6220.8215
6581.9738
6034.3425
6380.8866
12081.476
11424.19
11057.895
15831.648
11738.913
13638
18478.905
17526.447
17092.549
20428.495
17962.564
19133.305
19889.898
15968.544
16345.372
12586.464
12169.814
13614.504
2883.9005
1606.2143
4331.9078
-12333.64
-12608.387
-8179.3456
-31925.366
-31505.716
-25158.055
-53737.595
-52870.841
-44332.93
-76020.595
-74832.725
-64118.035
-96668.819
-95123.895
-83046.203
-111338.02
-110752.13
-97529.139
-120388.92
-119459.97
-106215.82
-118928.4
-120273.56
-106259.39
-104886.91
-113189.59
-97434.366
-83396.231
-92587.824
-79374.617
-61437.202
-60708.712
-55748.357
-18096.762
-18829.082
-17504.086
-1017.8582
-73.721876
-4669.902
-3932.3838
-10086.336
-12888.968
-16162.465
-21641.606
-20591.348
-19174.802
-13052.464
-1941.922
13029.813
31757.782
52740.201
73504.044
91736.656
104817.6
109541.94
106044.27
91530.206
67876.641
45738.721
400.65592
1637.8328
-724.90305
5013.0581
6461.1689
12986.25
16682.645
19934.034
23073.096
22075.012
18950.148
13757.854
4080.3225
-6357.6562
-19456.864
-33125.926
-45821.463
-57201.679
-64940.748
-68876.258
-67621.83
-63416.754
-43764.245
1488.1785
681.72688
4078.4896
343.73804
8425.0932
10579.364
12235.56
17809.365
13691.082
12139.758
1047.0312
-11106.194
-29706.176
-49614.699
-72073.381
-93342.764
-111510.52
-123711.35
-127216.85
-118663.72
-99829.598
-65875.636
-23549.241
-315.98479
-250.20423
-406.24777
-488.37833
-653.77179
-448.98288
-3334.4418
-4169.3088
-3451.9141
-5068.4219
-4423.2606
-4028.5394
-8923.6464
-9939.4659
-8765.8235
-13488.64
-12981.009
-13805.042
-18207.559
-18150.339
-16836.222
-20916.996
-20829.296
-21864.568
-22469.32
-22698.166
-22970.504
-20079.862
-19519.316
-20343.716
-12172.583
-13055.687
-14144.133
-1179.2812
-1319.0712
-2063.4961
16650.362
15843.001
14380.851
37823.615
36616.327
35114.992
61834.207
60389.371
58649.632
86375.534
84761.943
82459.974
107812.02
106242.78
104040.05
124229.23
123141.57
120167.5
131966.19
130482.46
128319.31
123801.44
131069.3
125150.89
111995.17
115765.81
111808.35
88590.717
88170.422
86044.751
45457.68
45684.248
46415.235
-188.57415
-146.12764
-30.387227
-188.70942
527.22778
555.39978
-1141.207
-3667.9394
-1750.3973
-979.52039
1258.4988
1054.2599
2291.3537
-74.713145
381.08498
1955.0463
3032.3448
4172.5549
4687.7892
5269.511
5901.5577
7693.4527
8151.6867
7720.9727
8397.5945
9125.5501
10377.223
11312.692
12087.547
12066.511
12000.072
11676.143
11639.181
12823.233
12355.823
12115.95
13014.043
11540.022
9884.1646
11918.417
9387.1244
7903.4023
10706.517
7168.4617
4561.5241
7879.4652
2771.0324
674.16876
4644.6495
-1097.6101
-4167.7839
277.22036
-7663.1928
-9215.2238
-5166.417
-12880.541
-14789.134
-12181.077
-18413.894
-20198.19
-31696.204
-2758.3363
-23089.799
-27307.557
-32621.989
-32776.747
-31412.158
-36875.476
-34383.553
3221.3273
3018.5851
2953.0068
825.83123
408.73382
1704.0423
3139.1816
4386.2115
6027.4879
7601.7656
3342.9519
5109.3405
8794.7794
8018.7805
10276.332
13725.275
11237.2
13395.205
19796.806
15482.787
16924.228
20215.413
17171.4
20487.66
22359.639
17768.99
19897.257
18487.894
14273.945
16634.796
10720.944
5341.7933
8075.1555
-1551.1685
-7194.5871
-4438.3173
-19233.919
-25304.557
-22071.009
-40018.843
-46086.742
-42845.934
-63854.384
-69577.739
-65859.12
-87651.954
-92072.519
-88544.801
-108937.34
-112325.01
-108827.52
-124754.25
-126044.02
-122664.72
-131989.19
-130884.13
-128739.9
-126198.58
-124583.84
-122618.81
-109932.46
-106638.04
-106519.44
-77057.745
-73834.972
-74561.286
-32740.263
-27553.335
-29179.486
)
;

boundaryField
{
    free
    {
        type            zeroGradient;
    }
    fixed
    {
        type            zeroGradient;
    }
    traction
    {
        type            zeroGradient;
    }
}


// ************************************************************************* //
