/*--------------------------------*- C++ -*----------------------------------*\
  =========                 |
  \\      /  F ield         | OpenFOAM: The Open Source CFD Toolbox
   \\    /   O peration     | Website:  https://openfoam.org
    \\  /    A nd           | Version:  6
     \\/     M anipulation  |
\*---------------------------------------------------------------------------*/
FoamFile
{
    version     2.0;
    format      ascii;
    class       pointVectorField;
    location    "0.06";
    object      u;
}
// * * * * * * * * * * * * * * * * * * * * * * * * * * * * * * * * * * * * * //

dimensions      [0 1 0 0 0 0 0];

internalField   nonuniform List<vector> 
3969
(
(0 0 0)
(0 0 0)
(0.072587306 0.021590655 0.00034318267)
(0.071634022 -0.023444934 9.9884475e-05)
(0 0 0)
(0 0 0)
(0.071720767 -0.02360408 8.5402051e-05)
(0.072777511 0.021326289 0.00015936463)
(0 0 0)
(0 0 0)
(0 0 0)
(0 0 0)
(0 0 0)
(0 0 0)
(0 0 0)
(0.072294171 0.015108577 -0.00014452683)
(0.071838435 0.0095510182 -5.9295805e-05)
(0.071476703 0.0042792612 -3.4607785e-05)
(0.071315585 -0.00085512656 0.00018531409)
(0.071274774 -0.0060118773 0.00029864392)
(0.071308555 -0.011340085 0.00045074387)
(0.071564102 -0.016950928 0.00036813441)
(2.8701832e-05 2.2452712e-05 1.2159501e-05)
(5.5068981e-05 3.6026709e-05 7.6315499e-06)
(8.1106668e-05 4.3067359e-05 1.2969631e-06)
(0.00010718884 4.4689755e-05 -5.2913178e-06)
(0.00013599788 3.9164219e-05 -1.4223069e-05)
(0.00016878687 2.3206591e-05 -2.7867827e-05)
(0.00020652117 -8.2319887e-06 -4.9676162e-05)
(0.00024723655 -5.9716407e-05 -8.1003607e-05)
(0.00028365345 -0.00013923016 -0.00012352676)
(0.00030581192 -0.00024895776 -0.00017569094)
(0.00029483799 -0.00039475721 -0.00023365419)
(0.00022836784 -0.00057481124 -0.00028754796)
(7.9331809e-05 -0.00078338642 -0.0003280095)
(-0.00017733308 -0.0010100905 -0.00034472728)
(-0.0005592821 -0.0012340361 -0.00032299722)
(-0.0010769497 -0.0014331716 -0.00025696223)
(-0.00172481 -0.0015854622 -0.00014558895)
(-0.002480382 -0.0016644574 1.0049708e-05)
(-0.003310017 -0.0016494936 0.0001992536)
(-0.0041677346 -0.0015236721 0.00040985074)
(-0.0050032619 -0.0012751116 0.00062812228)
(-0.0057671075 -0.00089787349 0.00084361053)
(-0.0064121288 -0.00039209076 0.001050238)
(-0.0068953959 0.00023994826 0.0012424392)
(-0.0071803292 0.00099262981 0.0014204463)
(-0.0072279649 0.0018544299 0.0015823721)
(-0.007004894 0.0028154733 0.0017242669)
(-0.0064827409 0.0038618784 0.001845727)
(-0.0056365888 0.0049769572 0.0019453578)
(-0.0044479561 0.0061439694 0.0020191332)
(-0.0029077336 0.0073462272 0.0020721517)
(-0.0010127259 0.0085698511 0.002104158)
(0.0012359449 0.0097975245 0.0021232481)
(0.0038310288 0.011025799 0.0021294157)
(0.0067719704 0.012234487 0.0021261705)
(0.010055656 0.013419608 0.0021170129)
(0.013672843 0.014581447 0.0020859769)
(0.017633468 0.015671675 0.0020449403)
(0.021909311 0.01676394 0.0019622647)
(0.026537914 0.017689782 0.0018991738)
(0.031427143 0.018665006 0.0017472793)
(0.036652233 0.019420016 0.0016245065)
(0.042097961 0.020096429 0.001487414)
(0.047762097 0.020758881 0.0012483197)
(0.05364651 0.021040322 0.0011603068)
(0.059623218 0.021489206 0.00092872771)
(0.065637623 0.021695018 0.00087378119)
(1.7961765e-05 -1.1099119e-05 -8.8035637e-06)
(3.9764155e-05 -1.6989347e-05 -2.9965789e-06)
(6.4548353e-05 -1.8399143e-05 5.4397205e-06)
(9.0830358e-05 -1.4821363e-05 1.3488611e-05)
(0.00011830056 -3.5679482e-06 2.3655977e-05)
(0.00015012963 1.7782218e-05 3.8679681e-05)
(0.00018630307 5.4574935e-05 6.1233896e-05)
(0.00022564681 0.00011216405 9.4360647e-05)
(0.00026310921 0.0001971653 0.00013969503)
(0.00028712724 0.00031482436 0.00019474907)
(0.00028001674 0.00046820668 0.00025891505)
(0.00021889359 0.0006578936 0.00032178088)
(7.8071237e-05 0.00088015901 0.0003760188)
(-0.00017129553 0.0011190882 0.00040691991)
(-0.00054949559 0.0013578192 0.0004032428)
(-0.0010673887 0.0015725042 0.00035500322)
(-0.0017194781 0.0017373176 0.00025851679)
(-0.0024832398 0.0018274614 0.00011576753)
(-0.0033217947 0.0018212348 -6.5524953e-05)
(-0.0041887484 0.0017032717 -0.00027379198)
(-0.0050334528 0.001463764 -0.00049743127)
(-0.0058049988 0.001099643 -0.00072686435)
(-0.0064591133 0.00060875374 -0.00095040529)
(-0.0069539107 -3.3710324e-07 -0.0011681303)
(-0.0072536108 -0.00072812962 -0.0013764576)
(-0.00731689 -0.0015601677 -0.0015747277)
(-0.007124547 -0.00248886 -0.0017468949)
(-0.0066257451 -0.0035031588 -0.0019001051)
(-0.0058012319 -0.0045864764 -0.0020329364)
(-0.0046382115 -0.0057230036 -0.0021376817)
(-0.003131125 -0.0068981836 -0.002217102)
(-0.0012772229 -0.0081011907 -0.0022726094)
(0.00091956157 -0.0093182555 -0.002307768)
(0.0034570705 -0.010543383 -0.0023237466)
(0.0063340071 -0.01176709 -0.0023205479)
(0.0095482433 -0.012986081 -0.0022969831)
(0.013100863 -0.014192786 -0.0022552452)
(0.016995073 -0.015374897 -0.0021738683)
(0.021229198 -0.016537159 -0.0020751111)
(0.025783615 -0.01764114 -0.0019436689)
(0.030647535 -0.018696494 -0.0017844915)
(0.035806192 -0.019676541 -0.0015925985)
(0.041213758 -0.020554801 -0.0013855912)
(0.046868482 -0.021351321 -0.0011419606)
(0.052690869 -0.022025174 -0.00088837426)
(0.058726687 -0.0225629 -0.00064214031)
(0.06486953 -0.023092514 -0.00032909818)
(0 0 0)
(0 0 0)
(0 0 0)
(0 0 0)
(0 0 0)
(0 0 0)
(0 0 0)
(1.7163859e-05 -8.5099999e-06 9.0200273e-06)
(3.8399405e-05 -1.4637806e-05 -4.8987982e-07)
(6.3626317e-05 -1.6828283e-05 -8.8154107e-06)
(8.9070865e-05 -1.1689174e-05 -1.681183e-05)
(0.00011696943 1.5531971e-06 -2.657245e-05)
(0.00014708003 2.0945091e-05 -3.8808789e-05)
(0.00018452662 6.1131303e-05 -6.1423692e-05)
(0.00022216713 0.00011289147 -9.0397734e-05)
(0.0002675678 0.00020369216 -0.00013883855)
(0.00029338548 0.0003153922 -0.00019579844)
(0.00030344668 0.00047261952 -0.00026866059)
(0.00026939924 0.00066237752 -0.00034404018)
(0.00014473482 0.00088320352 -0.00040903943)
(-8.6728831e-05 0.0011194506 -0.00044611366)
(-0.0004582478 0.0013540177 -0.00044079207)
(-0.00098059877 0.0015623884 -0.0003807107)
(-0.0016479339 0.0017195557 -0.00026306449)
(-0.0024339515 0.0018021418 -9.5045415e-05)
(-0.0032951685 0.0017908869 0.00010809133)
(-0.0041791585 0.0016718205 0.00032803394)
(-0.0050324923 0.0014362115 0.00054944651)
(-0.0058075693 0.001079 0.00076384094)
(-0.006462395 0.00060039931 0.00096961899)
(-0.0069597513 2.705006e-07 0.0011681149)
(-0.0072625106 -0.00071454172 0.0013575061)
(-0.0073042942 -0.0015403938 0.0015223902)
(-0.0070710406 -0.0024573082 0.0016620552)
(-0.0065662758 -0.0034747548 0.0017961232)
(-0.0057280538 -0.0045624438 0.0018946783)
(-0.0045498805 -0.0057053184 0.0019643241)
(-0.0030279538 -0.0068912688 0.0020094398)
(-0.0011627 -0.0081061532 0.0020371981)
(0.0010392321 -0.0093409465 0.0020547483)
(0.003576556 -0.010585273 0.0020628301)
(0.0064486629 -0.011836998 0.0020634952)
(0.0096733749 -0.013086999 0.0020461841)
(0.013192614 -0.014284127 0.002015336)
(0.017111051 -0.015533945 0.0019611952)
(0.021328061 -0.016694539 0.0018843209)
(0.025887937 -0.01782655 0.0017733013)
(0.030754919 -0.018893873 0.0016373693)
(0.035914192 -0.019886225 0.001482358)
(0.041326838 -0.020783581 0.0013030374)
(0.046984105 -0.021580093 0.0011098583)
(0.052811574 -0.022257957 0.00090828605)
(0.058839937 -0.022804452 0.00070349209)
(0.064954262 -0.023379058 0.00046195939)
(0.071772774 -0.0171469 -0.00013541657)
(0.071470199 -0.011573926 -0.00018514427)
(0.071409569 -0.0062061069 -3.789868e-05)
(0.071519827 -0.00113998 7.9955052e-05)
(0.071596808 0.0040455659 0.00035891579)
(0.071958207 0.0092751279 0.00043109689)
(0.072543533 0.014825171 0.00051184234)
(0.065995856 0.021462118 -0.00037398972)
(0.059758168 0.021128435 -0.00056264124)
(0.053747709 0.0208635 -0.00084742961)
(0.047889005 0.020434318 -0.0010491642)
(0.042182071 0.019899151 -0.0012988042)
(0.036715768 0.019220292 -0.0015076605)
(0.031500669 0.018441422 -0.0016939519)
(0.026568477 0.017554488 -0.0018560175)
(0.021942879 0.016588132 -0.0019893079)
(0.017643809 0.015557233 -0.002093652)
(0.013652236 0.014467091 -0.0021728693)
(0.010074111 0.013308562 -0.0022095032)
(0.0067506084 0.012174217 -0.0022551075)
(0.0038131341 0.010977965 -0.0022648886)
(0.001213247 0.0097836364 -0.0022631461)
(-0.0010364136 0.0085813474 -0.0022391355)
(-0.0029333502 0.0073850902 -0.0021961278)
(-0.0044744184 0.0062021787 -0.0021278853)
(-0.0056648189 0.0050552066 -0.0020368074)
(-0.0065105207 0.0039490178 -0.0019142892)
(-0.007032277 0.0029139647 -0.001770064)
(-0.0072492017 0.0019538207 -0.0015983984)
(-0.0071919186 0.001091287 -0.001405119)
(-0.0068962488 0.00033342383 -0.0011936059)
(-0.0064003986 -0.00030865682 -0.00096946485)
(-0.0057400199 -0.00083052804 -0.00073321824)
(-0.0049599276 -0.0012262411 -0.00049226175)
(-0.0041068598 -0.00149516 -0.00025533588)
(-0.0032316428 -0.0016395528 -3.3991046e-05)
(-0.0023865295 -0.0016675456 0.00015779841)
(-0.001619092 -0.0015954258 0.00030726222)
(-0.00096978847 -0.0014444111 0.00040764192)
(-0.00044869025 -0.0012341328 0.00044922728)
(-8.4977649e-05 -0.0010080903 0.00044978169)
(0.00014795655 -0.00077828324 0.00040737141)
(0.00028038175 -0.00057087458 0.00033797203)
(0.00032634125 -0.00038615825 0.00026560127)
(0.00032420324 -0.00024247469 0.00019299536)
(0.00029413069 -0.00014033926 0.00013370803)
(0.00025049926 -6.1405982e-05 8.0897043e-05)
(0.00020587856 -9.0965234e-06 4.5392771e-05)
(0.00016538733 1.7679304e-05 2.431033e-05)
(0.00013377801 3.5300055e-05 8.247472e-06)
(0.00010387419 4.1187873e-05 -3.4850975e-07)
(7.7683108e-05 3.9112599e-05 -6.1899298e-06)
(5.2107546e-05 3.474705e-05 -1.2343085e-05)
(2.854256e-05 2.391986e-05 -1.6136246e-05)
(0 0 0)
(0 0 0)
(0 0 0)
(0 0 0)
(0 0 0)
(0 0 0)
(0 0 0)
(0 0 0)
(0 0 0)
(0 0 0)
(0 0 0)
(0 0 0)
(0 0 0)
(0 0 0)
(0.071736861 -0.023719435 2.5136796e-05)
(0.071842774 -0.0238613 1.8592916e-05)
(0.071891848 -0.023919065 4.3219911e-05)
(0.071932397 -0.023987451 9.3993022e-05)
(0.071950574 -0.024014216 0.00013778972)
(0.07191561 -0.023965175 0.00018615452)
(0.071888489 -0.023951456 0.00011507126)
(0.072818146 0.02189608 0.00034990537)
(0.072889488 0.021878248 0.00037754124)
(0.072940074 0.021885315 0.00029816604)
(0.072986675 0.021873686 0.00024395911)
(0.073003294 0.021841231 0.00017738106)
(0.072989125 0.021748607 0.0001289854)
(0.073014405 0.021739865 0.00014520458)
(2.1039408e-05 6.4362067e-06 1.0850055e-05)
(4.9907611e-05 1.5398068e-05 8.0345987e-06)
(7.8320125e-05 2.0263789e-05 3.2326098e-06)
(0.00010793273 2.0557792e-05 -2.6470488e-06)
(0.00014089526 1.314234e-05 -1.0731125e-05)
(0.00017927973 -4.0670622e-06 -2.2582388e-05)
(0.00022454542 -3.4659514e-05 -4.0004811e-05)
(0.00027413311 -8.0748441e-05 -6.4684671e-05)
(0.00032215551 -0.00014604932 -9.669663e-05)
(0.00035609693 -0.00023041854 -0.00013548573)
(0.00035766534 -0.00033504602 -0.00017597781)
(0.0003011927 -0.00045349036 -0.00021465863)
(0.00015883056 -0.00058220305 -0.00024096292)
(-9.4286478e-05 -0.00070889347 -0.00024794059)
(-0.0004837173 -0.00082278886 -0.00022686631)
(-0.0010179654 -0.00091229608 -0.000171343)
(-0.0016890088 -0.00096327679 -8.2555761e-05)
(-0.0024771164 -0.00096324845 3.7361409e-05)
(-0.0033462848 -0.00090218964 0.00018105695)
(-0.0042488124 -0.00077089321 0.00033918121)
(-0.0051329837 -0.00056157095 0.00050208262)
(-0.0059466242 -0.00026943293 0.00066293427)
(-0.0066414516 0.00010926178 0.0008150443)
(-0.0071738058 0.00057298227 0.00095792278)
(-0.0075020679 0.0011216051 0.0010881733)
(-0.0075915072 0.0017421376 0.0012062157)
(-0.0074031656 0.0024363192 0.0013090946)
(-0.0069153463 0.0031864611 0.0013971354)
(-0.0060948988 0.0039855575 0.0014654295)
(-0.0049292523 0.0048205658 0.001517918)
(-0.0034061605 0.0056826529 0.0015527334)
(-0.0015239117 0.0065615599 0.0015746109)
(0.00071472378 0.0074485295 0.0015861885)
(0.0033034647 0.0083345253 0.0015886775)
(0.0062442938 0.0092053734 0.00158768)
(0.0095170374 0.010064079 0.0015741971)
(0.01314563 0.010887124 0.0015526265)
(0.017101075 0.011673491 0.0015198186)
(0.021408788 0.012415935 0.0014678686)
(0.026032112 0.013081945 0.0014057514)
(0.030953095 0.013728359 0.0012962893)
(0.036212955 0.014199047 0.001236743)
(0.041672594 0.014718257 0.0010564977)
(0.047405919 0.015040374 0.00096578372)
(0.053328204 0.015242268 0.00082356736)
(0.059314406 0.015495292 0.00061795516)
(0.065574535 0.015245241 0.0004169417)
(2.0398881e-05 4.0457265e-06 7.3510349e-06)
(4.6911256e-05 8.0457093e-06 7.2755716e-06)
(7.6567883e-05 1.0636878e-05 3.9100779e-06)
(0.00010878866 1.105578e-05 -1.0368632e-07)
(0.0001456069 6.3656063e-06 -5.7587818e-06)
(0.00018917719 -5.2424632e-06 -1.3676732e-05)
(0.00024043818 -2.5507092e-05 -2.519272e-05)
(0.00029704871 -5.6123886e-05 -4.0961011e-05)
(0.00035188798 -9.7975363e-05 -6.1558668e-05)
(0.00039227768 -0.00015113173 -8.5491444e-05)
(0.00039796375 -0.00021380408 -0.00011120502)
(0.00034357632 -0.00028307783 -0.00013375358)
(0.00019935415 -0.00035450697 -0.0001486275)
(-6.3156984e-05 -0.00042279439 -0.00014996331)
(-0.00046337585 -0.00047963153 -0.0001326581)
(-0.0010109448 -0.00051915472 -9.4258886e-05)
(-0.0017000911 -0.00053412972 -3.4195025e-05)
(-0.002508272 -0.00051901946 4.5613333e-05)
(-0.0033987979 -0.00046741543 0.00013978727)
(-0.0043242322 -0.0003743411 0.00024273952)
(-0.0052326494 -0.00023413754 0.00034856011)
(-0.0060726442 -4.2190683e-05 0.0004509957)
(-0.0067938059 0.00020474354 0.00054828472)
(-0.007352812 0.00050790531 0.00063791987)
(-0.0077062314 0.00086602389 0.00071718702)
(-0.0078200392 0.0012764328 0.00079010886)
(-0.0076560004 0.0017296088 0.00085312705)
(-0.0071848532 0.0022239772 0.00090216184)
(-0.0063830464 0.0027487384 0.00094497516)
(-0.0052316672 0.0032972952 0.00097437105)
(-0.0037222965 0.0038644851 0.00099550559)
(-0.0018515186 0.0044442116 0.0010089096)
(0.00037543478 0.0050278965 0.0010162248)
(0.0029604587 0.0056108928 0.0010212243)
(0.0058890329 0.0061844937 0.0010209457)
(0.0091704697 0.006742588 0.0010191841)
(0.012795643 0.0072761317 0.0010070025)
(0.016754136 0.0077698314 0.00099713216)
(0.021068746 0.0082514247 0.00095404674)
(0.025684314 0.0086454262 0.0009307886)
(0.03066008 0.0090521747 0.00086265812)
(0.035891763 0.0093252577 0.00081827015)
(0.041409349 0.0096371505 0.00071838038)
(0.047145168 0.0097544153 0.00068237036)
(0.053096292 0.0098617503 0.00055039781)
(0.059192448 0.0098284533 0.00042511969)
(0.065566436 0.0096451959 0.00023289143)
(2.075216e-05 2.7021128e-06 5.657038e-06)
(4.572405e-05 5.0707778e-06 6.2169538e-06)
(7.5162333e-05 6.9242831e-06 4.8054409e-06)
(0.00010870777 8.4883387e-06 2.7657739e-06)
(0.00014788806 7.7475189e-06 -1.5239525e-07)
(0.00019442885 3.5834875e-06 -4.4422347e-06)
(0.00024935617 -4.3581738e-06 -1.0182213e-05)
(0.00030968348 -1.742887e-05 -1.8128429e-05)
(0.00036846959 -3.571452e-05 -2.8305411e-05)
(0.00041191603 -5.8816732e-05 -4.0147821e-05)
(0.00041974912 -8.6092507e-05 -5.2134383e-05)
(0.00036529284 -0.00011506242 -6.253821e-05)
(0.00021878534 -0.00014418575 -6.8000055e-05)
(-4.6289787e-05 -0.00017014539 -6.7238583e-05)
(-0.00045271179 -0.00019050363 -5.6792638e-05)
(-0.0010100729 -0.00020173048 -3.2841527e-05)
(-0.001709984 -0.00020083893 2.7536287e-06)
(-0.0025305147 -0.0001867151 4.8980966e-05)
(-0.003433903 -0.00015580078 0.00010204842)
(-0.0043736615 -0.00010605151 0.00015936424)
(-0.0052983804 -3.3466481e-05 0.00021515952)
(-0.0061555875 6.5569967e-05 0.00026835032)
(-0.0068966645 0.000192457 0.00031765419)
(-0.0074764796 0.00034659405 0.00035906067)
(-0.0078551347 0.0005311128 0.00039909295)
(-0.0079901445 0.00074007132 0.00043200674)
(-0.0078458512 0.00097248166 0.00045797163)
(-0.0073917779 0.0012250451 0.0004792412)
(-0.0066065468 0.0014924312 0.00049412273)
(-0.0054699669 0.001771443 0.00050285669)
(-0.003973596 0.0020594989 0.00050809556)
(-0.0021157896 0.002351376 0.00050882701)
(0.00010339035 0.0026450837 0.00050944069)
(0.0026763665 0.0029369595 0.00050749601)
(0.0056036251 0.0032174172 0.00050938324)
(0.0088795452 0.0034938711 0.00050291791)
(0.012502745 0.0037368922 0.00050622111)
(0.016477985 0.0039847939 0.00049036378)
(0.020798937 0.0041816836 0.00048028792)
(0.025440007 0.0043613651 0.00047360977)
(0.030413346 0.0045301239 0.00042503949)
(0.035661534 0.0045918145 0.00044178707)
(0.041209401 0.0047158381 0.00036073525)
(0.046989414 0.0046629954 0.00037041532)
(0.053031066 0.0046521796 0.00026623312)
(0.059172949 0.0045648713 0.00021649839)
(0.065501657 0.0043708972 0.00013065172)
(2.1237376e-05 2.311657e-06 3.4926708e-06)
(4.5120236e-05 4.4514757e-06 4.7172025e-06)
(7.4023765e-05 6.8016433e-06 4.8391751e-06)
(0.0001075676 1.0415703e-05 5.0742366e-06)
(0.00014711512 1.454195e-05 5.2409957e-06)
(0.00019453794 1.906871e-05 5.7695892e-06)
(0.00025021268 2.4094051e-05 6.2785647e-06)
(0.00031174009 2.9282637e-05 7.0679688e-06)
(0.00037159723 3.5052228e-05 8.0589724e-06)
(0.00041599424 4.0671997e-05 9.3576208e-06)
(0.00042413585 4.6688607e-05 1.0994487e-05)
(0.00036936373 5.2913713e-05 1.3595111e-05)
(0.00022163193 5.9339067e-05 1.7689698e-05)
(-4.6943409e-05 6.6397863e-05 2.2928669e-05)
(-0.00045709482 7.2600966e-05 3.007685e-05)
(-0.0010175188 7.8417587e-05 3.8272112e-05)
(-0.0017210441 8.3817506e-05 4.7981401e-05)
(-0.0025448629 8.8072579e-05 5.7264578e-05)
(-0.0034510996 9.1612562e-05 6.5896403e-05)
(-0.0043943151 9.5018709e-05 6.9930467e-05)
(-0.0053215566 9.7134485e-05 7.1253789e-05)
(-0.00618362 9.8306626e-05 7.0380635e-05)
(-0.0069263695 9.8791819e-05 5.93979e-05)
(-0.0075085643 0.00011111634 4.7758796e-05)
(-0.0078819902 0.0001250849 2.9340493e-05)
(-0.0080139482 0.00014450309 9.4865253e-06)
(-0.0078678887 0.00016506988 -8.8557019e-06)
(-0.0074154209 0.00018631484 -2.8370096e-05)
(-0.0066293814 0.00020711427 -4.6839312e-05)
(-0.0054933344 0.00022607389 -6.3478958e-05)
(-0.0039998838 0.00024134961 -7.8116157e-05)
(-0.0021448566 0.00025283252 -8.8495053e-05)
(6.681723e-05 0.000260681 -9.5889186e-05)
(0.0026361592 0.00026031098 -9.5244625e-05)
(0.0055534826 0.00025799478 -9.4500159e-05)
(0.0088246593 0.0002387627 -8.2179903e-05)
(0.012442159 0.00021951211 -7.3134877e-05)
(0.016405636 0.00018209429 -5.9324466e-05)
(0.020706949 0.00011955148 -3.6261336e-05)
(0.025338169 7.1840792e-05 -3.3062263e-05)
(0.03031451 -2.3723329e-05 -6.8631574e-06)
(0.035557657 -0.00011732732 2.0649491e-05)
(0.041122162 -0.00018817509 9.0944638e-06)
(0.04689845 -0.00035942407 8.7176136e-05)
(0.052896901 -0.00041709164 6.6804472e-05)
(0.059032994 -0.0006026751 0.00015984843)
(0.065362269 -0.0007496838 0.00015135444)
(2.0187069e-05 2.3338239e-06 2.7740279e-06)
(4.3263591e-05 4.2251666e-06 3.770399e-06)
(7.1280033e-05 7.6453852e-06 5.8209747e-06)
(0.00010397565 1.3160871e-05 8.1692809e-06)
(0.00014237391 2.1770215e-05 1.1486842e-05)
(0.00018864485 3.436555e-05 1.6197085e-05)
(0.00024312982 5.1816341e-05 2.2768324e-05)
(0.00030402809 7.506664e-05 3.1748416e-05)
(0.00036332645 0.00010423191 4.2690173e-05)
(0.00040801023 0.00013930665 5.6185199e-05)
(0.00041778222 0.00017969489 7.0724361e-05)
(0.00036563196 0.00022249024 8.4557516e-05)
(0.0002211576 0.00026550063 9.5474458e-05)
(-4.38457e-05 0.00030499608 0.00010201348)
(-0.00045057012 0.00033733065 0.00010166048)
(-0.0010080107 0.00035871813 9.3305957e-05)
(-0.0017094489 0.00036587401 7.6376449e-05)
(-0.002531326 0.00035569929 5.0438935e-05)
(-0.0034372633 0.00032533704 1.6464938e-05)
(-0.0043775797 0.00027554555 -2.7532086e-05)
(-0.0053056194 0.00020033951 -7.2067393e-05)
(-0.0061712671 0.00010832509 -0.00013070921)
(-0.0069237137 -2.6096284e-07 -0.00018404509)
(-0.0075071092 -0.00013730292 -0.00024387087)
(-0.0078927339 -0.00029488549 -0.00029781583)
(-0.0080324319 -0.0004723791 -0.00035067162)
(-0.0078936357 -0.00066719823 -0.00040061523)
(-0.0074472482 -0.00087734126 -0.00044796832)
(-0.0066666109 -0.0011028076 -0.00048863007)
(-0.0055366949 -0.001343012 -0.000524327)
(-0.0040477853 -0.0015961337 -0.00055190041)
(-0.0022003107 -0.0018589231 -0.00057385192)
(7.2298435e-06 -0.0021324693 -0.00058561898)
(0.0025661452 -0.0024104531 -0.00059272556)
(0.0054779326 -0.0026976091 -0.00058759628)
(0.008740247 -0.002986582 -0.00057782827)
(0.012348276 -0.0032780817 -0.00055964333)
(0.016310152 -0.0035859886 -0.00052975571)
(0.020605939 -0.0038779128 -0.0005042274)
(0.025264114 -0.0041555139 -0.00046240296)
(0.030211262 -0.0044629192 -0.00040277277)
(0.035469483 -0.004711402 -0.00036347591)
(0.041012753 -0.0050054769 -0.00028526744)
(0.046776238 -0.0052577277 -0.00019689654)
(0.052793443 -0.0054570981 -0.00013984088)
(0.058990142 -0.0056905482 -6.9939526e-06)
(0.065299092 -0.0058312611 9.7796059e-05)
(1.9299511e-05 1.411969e-06 -3.8583128e-07)
(4.1504482e-05 3.3009806e-06 1.6833226e-06)
(6.9064604e-05 6.5187575e-06 5.0703558e-06)
(9.9994822e-05 1.3008642e-05 9.7612875e-06)
(0.00013589917 2.496125e-05 1.5806439e-05)
(0.00017885128 4.3854363e-05 2.4699484e-05)
(0.00022934846 7.2319413e-05 3.7404834e-05)
(0.00028572242 0.00011132938 5.4987218e-05)
(0.00034106934 0.00016230738 7.7602266e-05)
(0.00038237333 0.00022481772 0.00010435918)
(0.0003904214 0.0002990196 0.00013348086)
(0.00033812623 0.00038149469 0.00016258367)
(0.00019588377 0.00046602409 0.00018576858)
(-6.4903702e-05 0.0005472556 0.00019833456)
(-0.0004656132 0.00061789265 0.00019583514)
(-0.001015665 0.00067076762 0.0001744151)
(-0.0017082193 0.00069864533 0.00013259276)
(-0.0025198696 0.00069432534 7.0317542e-05)
(-0.0034132172 0.00065212526 -9.9860052e-06)
(-0.0043382229 0.00056650995 -0.00010425868)
(-0.0052527705 0.00043367444 -0.00021118298)
(-0.0060866902 0.00025709896 -0.00031863199)
(-0.0068093388 2.062113e-05 -0.00043986327)
(-0.007373187 -0.00026955882 -0.00055223763)
(-0.0077378659 -0.00060598846 -0.00066400952)
(-0.0078541828 -0.00097888387 -0.00077123063)
(-0.007699316 -0.0013916984 -0.00086684369)
(-0.0072395308 -0.0018444649 -0.0009548054)
(-0.0064484173 -0.0023304959 -0.001031134)
(-0.0053099711 -0.002845819 -0.001092782)
(-0.003817563 -0.0033862696 -0.0011411808)
(-0.0019689173 -0.0039461552 -0.0011751824)
(0.00023202866 -0.0045195494 -0.0011963568)
(0.0027838229 -0.0051026654 -0.0012027744)
(0.0056837357 -0.0056874821 -0.0011979789)
(0.0089299181 -0.0062753121 -0.0011785251)
(0.012525478 -0.0068583575 -0.0011452823)
(0.016464742 -0.0074341204 -0.001098099)
(0.020749971 -0.0080073356 -0.0010439775)
(0.025361356 -0.0085657242 -0.00096380935)
(0.03028425 -0.0090742683 -0.00088213938)
(0.035531894 -0.0095486749 -0.00078581162)
(0.041014103 -0.010042838 -0.00064197354)
(0.046778242 -0.010393803 -0.00053406649)
(0.05271696 -0.010755358 -0.00035578685)
(0.058868031 -0.011016287 -0.00014699356)
(0.065129802 -0.011134924 9.7618977e-05)
(1.6718136e-05 4.9759046e-07 -2.753815e-06)
(3.9475658e-05 1.7890761e-07 -4.622154e-07)
(6.6149761e-05 2.5553008e-06 5.112632e-06)
(9.4862647e-05 9.3002953e-06 1.1849482e-05)
(0.00012722599 2.3562222e-05 2.0418938e-05)
(0.00016528796 4.7843104e-05 3.3331246e-05)
(0.00020999584 8.6070224e-05 5.1609e-05)
(0.00026065847 0.00014054095 7.7603504e-05)
(0.00031043051 0.00021432048 0.00011120628)
(0.00034842141 0.00030857711 0.00015119353)
(0.00035476593 0.0004215764 0.00019532228)
(0.00030429487 0.0005519015 0.00023792155)
(0.00016793647 0.0006894177 0.00027126176)
(-8.2955636e-05 0.00082539989 0.00028791224)
(-0.00047151489 0.00094715682 0.00028028659)
(-0.0010083042 0.0010418042 0.00024293091)
(-0.0016875493 0.0010967511 0.00017389943)
(-0.0024861015 0.0011004941 7.439677e-05)
(-0.003364881 0.0010432521 -5.0051813e-05)
(-0.0042785092 0.00091751902 -0.00019551047)
(-0.0051700203 0.00071650694 -0.00035053165)
(-0.0059956742 0.00043651686 -0.00051409105)
(-0.0066940945 7.9113129e-05 -0.00068061014)
(-0.0072412231 -0.00036340132 -0.0008412616)
(-0.0075827982 -0.00088134702 -0.00099804235)
(-0.0076878981 -0.001467772 -0.0011474687)
(-0.0075268798 -0.0021192852 -0.0012741162)
(-0.0070545991 -0.0028232494 -0.0013950341)
(-0.0062528561 -0.0035723118 -0.0014955886)
(-0.0051052468 -0.0043645322 -0.0015779413)
(-0.0036060766 -0.0051901248 -0.0016412249)
(-0.0017550884 -0.0060403353 -0.0016875999)
(0.00044536083 -0.006909302 -0.0017162665)
(0.0029907171 -0.007786627 -0.0017297625)
(0.0058806218 -0.0086694497 -0.0017255021)
(0.0091123618 -0.0095501448 -0.0017045489)
(0.012687248 -0.010416901 -0.0016660846)
(0.016614118 -0.011274049 -0.0016034115)
(0.020874757 -0.012106363 -0.0015264805)
(0.025466306 -0.01291012 -0.0014270347)
(0.030375131 -0.013661138 -0.0013076041)
(0.035587395 -0.014377272 -0.001160935)
(0.041044686 -0.015033172 -0.00099361131)
(0.046770565 -0.015578231 -0.00083491091)
(0.052646916 -0.016111299 -0.00058704078)
(0.058753165 -0.016463027 -0.00039094867)
(0.064935997 -0.016688925 -7.3778466e-05)
(0 0 0)
(0 0 0)
(0 0 0)
(0 0 0)
(0 0 0)
(0 0 0)
(0 0 0)
(0 0 0)
(0 0 0)
(0 0 0)
(0 0 0)
(0 0 0)
(0 0 0)
(0 0 0)
(0 0 0)
(0 0 0)
(0 0 0)
(0 0 0)
(0 0 0)
(0 0 0)
(0 0 0)
(0 0 0)
(0 0 0)
(0 0 0)
(0 0 0)
(0 0 0)
(0 0 0)
(0 0 0)
(0 0 0)
(0 0 0)
(0 0 0)
(0 0 0)
(0 0 0)
(0 0 0)
(0 0 0)
(0 0 0)
(0 0 0)
(0 0 0)
(0 0 0)
(0 0 0)
(0 0 0)
(0 0 0)
(0 0 0)
(0 0 0)
(0 0 0)
(0 0 0)
(0 0 0)
(0 0 0)
(0 0 0)
(2.0955752e-05 -8.275503e-06 -2.8088031e-06)
(2.1522246e-05 -8.4973933e-06 -4.6755407e-07)
(2.1900311e-05 -8.8189376e-06 -7.3568207e-08)
(2.1927598e-05 -8.9892777e-06 1.1669169e-07)
(2.1422767e-05 -8.4650098e-06 3.5088318e-07)
(2.1050882e-05 -8.5466273e-06 6.7604762e-07)
(1.9866974e-05 -9.5592165e-06 3.4874958e-06)
(4.1152762e-05 -1.8498837e-05 -1.0115151e-07)
(4.1363893e-05 -1.8486019e-05 1.647194e-06)
(3.9969933e-05 -1.7992825e-05 1.0371428e-06)
(3.9120683e-05 -1.753477e-05 -3.6438384e-07)
(3.943589e-05 -1.7554177e-05 -1.9683577e-06)
(4.0063071e-05 -1.7668921e-05 -2.8114023e-06)
(4.0464801e-05 -1.8257752e-05 -2.3466508e-06)
(6.5158964e-05 -2.3373977e-05 4.9122472e-06)
(6.3141872e-05 -2.258134e-05 4.8326671e-06)
(6.1712315e-05 -2.1559939e-05 2.6273667e-06)
(6.0968486e-05 -2.0814952e-05 -2.9171602e-07)
(6.1110935e-05 -2.0621296e-05 -3.5822409e-06)
(6.2461309e-05 -2.0569384e-05 -6.1545716e-06)
(6.3145494e-05 -1.9876984e-05 -8.4055588e-06)
(8.9154395e-05 -1.9563226e-05 1.0605888e-05)
(8.6095813e-05 -1.9775614e-05 8.3602183e-06)
(8.4107757e-05 -1.873606e-05 4.1059525e-06)
(8.2996503e-05 -1.7721622e-05 -1.9713723e-07)
(8.3714579e-05 -1.7192573e-05 -5.2840267e-06)
(8.5238204e-05 -1.6616614e-05 -9.9093716e-06)
(8.805148e-05 -1.5481635e-05 -1.3625424e-05)
(0.00011574136 -1.1218171e-05 1.7417005e-05)
(0.00011159821 -1.1536714e-05 1.2676744e-05)
(0.00010901404 -1.028886e-05 6.3007887e-06)
(0.00010792756 -8.8970754e-06 -2.7183174e-07)
(0.00010880981 -7.7610924e-06 -7.4164754e-06)
(0.00011092876 -7.3305004e-06 -1.381816e-05)
(0.00011433294 -5.4691771e-06 -1.9826658e-05)
(0.00014498979 6.3318631e-06 2.7780985e-05)
(0.00013950687 5.633666e-06 1.9161191e-05)
(0.00013612378 6.8268688e-06 9.9224462e-06)
(0.00013486415 8.7449049e-06 3.479865e-07)
(0.00013594642 1.002866e-05 -9.5674531e-06)
(0.00013916947 1.1657688e-05 -1.957802e-05)
(0.00014385812 1.3591812e-05 -2.8409943e-05)
(0.00017813156 3.844955e-05 4.3159835e-05)
(0.0001696211 3.5820121e-05 2.9352164e-05)
(0.00016517372 3.66429e-05 1.4782883e-05)
(0.00016358415 3.8985164e-05 6.6852338e-07)
(0.0001646619 4.0385468e-05 -1.3525647e-05)
(0.00016883127 4.1138116e-05 -2.7804862e-05)
(0.00017618226 4.4628709e-05 -4.2294942e-05)
(0.0002104711 8.7755651e-05 6.6557134e-05)
(0.00019895879 8.5204637e-05 4.3149016e-05)
(0.0001932467 8.6987569e-05 2.0125709e-05)
(0.00019095979 8.8488095e-05 -5.5748765e-07)
(0.00019447815 9.0179427e-05 -2.1593461e-05)
(0.00019979197 9.0705597e-05 -4.1696617e-05)
(0.00021120724 9.5527254e-05 -6.363748e-05)
(0.00023980034 0.00016644512 9.8010091e-05)
(0.00022186413 0.00016188368 6.3497407e-05)
(0.00021130058 0.00016191835 3.0432202e-05)
(0.00021090401 0.00016436637 -1.998005e-06)
(0.00021516996 0.00016426629 -3.2415363e-05)
(0.00022458337 0.0001658174 -6.4052449e-05)
(0.00024181832 0.0001696312 -9.602726e-05)
(0.00024887771 0.00027743814 0.0001383661)
(0.00022529728 0.00027284787 8.5505375e-05)
(0.00021603872 0.00027398686 3.8862157e-05)
(0.00021230624 0.000273763 -3.7713616e-06)
(0.00021858096 0.00027335305 -4.6445715e-05)
(0.00023372384 0.00027362373 -9.1311284e-05)
(0.00025845792 0.00027898625 -0.00013676968)
(0.00022880314 0.00042931683 0.00018443628)
(0.00019624723 0.0004247888 0.00011606562)
(0.00018104142 0.00042358512 5.1861956e-05)
(0.00017905764 0.00042408136 -7.65092e-06)
(0.00018903144 0.00042197568 -6.6013317e-05)
(0.00020965172 0.00042141595 -0.00012688718)
(0.0002443878 0.00042586429 -0.00019166154)
(0.00015029924 0.00062228161 0.00022932523)
(0.00011030516 0.00061961217 0.00014132506)
(9.2797494e-05 0.00061795679 5.9666827e-05)
(9.1535523e-05 0.00061682942 -1.5654071e-05)
(0.00010351258 0.00061422021 -8.9216182e-05)
(0.00013334092 0.00061293251 -0.00016657267)
(0.00018335745 0.00061029945 -0.00025455654)
(-8.5423322e-06 0.00085308271 0.00026766357)
(-5.3872917e-05 0.00085393524 0.00016347428)
(-7.4074161e-05 0.00085182898 6.8976443e-05)
(-7.4303726e-05 0.00084968293 -2.0652791e-05)
(-5.7617997e-05 0.00084548791 -0.00010874577)
(-1.9196198e-05 0.00084408724 -0.00019901301)
(3.9735132e-05 0.0008374337 -0.00030494904)
(-0.00027016217 0.0011114164 0.00029076155)
(-0.0003182316 0.0011160743 0.00017609042)
(-0.00034009569 0.0011127928 7.3194648e-05)
(-0.00033845993 0.001109657 -2.4568335e-05)
(-0.00032068143 0.0011048477 -0.00012015076)
(-0.0002762868 0.0011035265 -0.000218564)
(-0.00021174273 0.0010898131 -0.00033858247)
(-0.00065319322 0.0013766046 0.00028835631)
(-0.00069907371 0.001385649 0.00017340389)
(-0.00071991153 0.0013816916 7.2456735e-05)
(-0.00071697034 0.0013779786 -2.4082406e-05)
(-0.00069948612 0.0013726806 -0.00011883319)
(-0.00065312807 0.0013718487 -0.00021538566)
(-0.00058896709 0.0013513304 -0.00033841354)
(-0.0011645176 0.0016231909 0.00025395179)
(-0.001201819 0.0016357688 0.00015179105)
(-0.0012189624 0.0016314154 6.4887201e-05)
(-0.0012146061 0.0016273932 -1.8580571e-05)
(-0.0011995924 0.0016222289 -0.00010094103)
(-0.0011571459 0.0016215323 -0.00018346655)
(-0.0011024062 0.0015958927 -0.00029614038)
(-0.0017964157 0.0018213523 0.00018446489)
(-0.0018180517 0.0018358147 0.00010921175)