/*--------------------------------*- C++ -*----------------------------------*\
  =========                 |
  \\      /  F ield         | OpenFOAM: The Open Source CFD Toolbox
   \\    /   O peration     | Website:  https://openfoam.org
    \\  /    A nd           | Version:  6
     \\/     M anipulation  |
\*---------------------------------------------------------------------------*/
FoamFile
{
    version     2.0;
    format      ascii;
    class       pointVectorField;
    location    "0.99";
    object      lm;
}
// * * * * * * * * * * * * * * * * * * * * * * * * * * * * * * * * * * * * * //

dimensions      [1 -2 -1 0 0 0 0];

internalField   nonuniform List<vector> 
28033
(
(-1.780536e-14 4.8656612e-16 1.3104288e-15)
(-5.4375576e-15 3.3318594e-15 9.9433006e-16)
(-8145.0934 -2086.9636 19.067186)
(-8441.8898 -14.326295 -32.11547)
(-1.338461e-14 3.0090723e-15 -2.870051e-16)
(-1.2587315e-14 4.9008913e-15 -4.4266115e-15)
(-8437.881 32.562937 4.9877561)
(-8135.9537 -2051.7342 -17.349473)
(-5.6329745e-15 1.0535579e-15 6.7193838e-16)
(-2.4534443e-15 3.0423504e-16 5.8836893e-16)
(-5.4923298e-15 2.4302826e-15 8.9528572e-16)
(-2.6209443e-15 -1.1537891e-15 -6.7979696e-16)
(-7.2548563e-15 1.5542294e-15 1.0013199e-15)
(-4.7613589e-15 -9.2108094e-16 -7.3952737e-16)
(-1.132389e-15 -2.2256662e-17 -6.4484848e-16)
(-7.4239857e-16 -2.4218299e-16 -3.6669977e-16)
(-1.1196198e-15 4.5550132e-16 8.383863e-16)
(-2.3465882e-16 2.2667819e-16 1.4996246e-15)
(-4.0583243e-15 -8.7236639e-16 -1.3429605e-15)
(-5.8237189e-15 8.4462789e-16 7.5519031e-16)
(-5.1611762e-15 1.0100276e-15 9.7613867e-16)
(-1.7679952e-15 -8.1010255e-16 4.5192313e-16)
(-4.4158752e-15 1.0299569e-15 -9.452958e-16)
(-8188.3217 -1954.949 19.245631)
(-8200.0154 -1816.148 20.140529)
(-8206.4366 -1678.9411 19.823587)
(-8208.9201 -1544.2477 18.046746)
(-8211.0047 -1413.6603 15.048243)
(-8214.4014 -1286.6081 9.9095655)
(-8221.4603 -1163.2335 4.0702353)
(-8233.3351 -1041.8066 -2.8893558)
(-8250.3391 -921.57403 -10.01745)
(-8271.7709 -800.48896 -16.954214)
(-8297.5257 -677.56638 -22.822049)
(-8325.6426 -551.37048 -27.041321)
(-8355.0712 -421.60824 -30.030989)
(-8384.2429 -288.19878 -31.534673)
(-8414.3203 -151.88786 -31.68652)
(-14.408328 -26.113356 -24.478654)
(-17.54193 -37.108583 -34.55005)
(-24.862224 -48.035277 -39.947012)
(-36.583498 -59.7309 -42.97632)
(-51.26704 -70.450315 -42.354285)
(-70.929486 -80.791545 -39.96551)
(-94.423261 -90.213857 -34.964712)
(-121.88911 -97.964624 -28.096672)
(-152.57261 -104.76267 -19.708717)
(-186.01563 -109.36147 -9.9077082)
(-220.7671 -112.23869 0.55241953)
(-256.15446 -113.3439 11.204415)
(-290.94576 -112.6651 21.331166)
(-324.45311 -110.2903 30.841165)
(-355.04962 -106.31905 38.407474)
(-382.35986 -101.37188 44.223432)
(-405.84469 -95.903898 47.665159)
(-424.928 -89.877305 48.908453)
(-439.62403 -84.290907 47.139959)
(-450.28613 -79.325945 43.338325)
(-457.08 -75.447699 37.078451)
(-461.08628 -73.410225 29.115591)
(-462.85231 -73.070837 19.761266)
(-463.51237 -75.210553 9.4186903)
(-464.47884 -79.847708 -1.1643218)
(-466.77738 -86.974853 -11.325911)
(-471.45999 -96.701746 -20.812156)
(-479.61319 -109.10554 -28.996856)
(-492.43351 -123.66831 -35.339773)
(-510.36532 -140.35963 -39.905532)
(-533.93289 -158.75973 -42.138686)
(-563.46809 -178.40247 -42.4194)
(-598.75529 -199.20732 -40.750829)
(-639.52104 -220.07225 -37.742367)
(-685.43123 -241.43963 -33.090044)
(-735.40648 -262.41419 -28.023175)
(-788.69569 -283.14512 -23.053364)
(-844.40501 -303.17022 -18.474755)
(-901.43124 -322.61017 -14.957732)
(-959.06135 -341.75881 -13.362923)
(-1016.3392 -360.48226 -13.799448)
(-1072.8967 -379.51287 -16.764894)
(-1128.3223 -398.91241 -22.342038)
(-1182.6419 -419.54095 -30.766697)
(-1236.1696 -441.73393 -41.570327)
(-1289.5127 -466.24843 -54.683543)
(-1343.566 -493.58256 -69.498266)
(-1399.5283 -524.31253 -85.448512)
(-1458.7142 -558.84469 -101.83086)
(-1522.6507 -597.53451 -117.89088)
(-1592.8408 -640.54065 -132.86684)
(-1670.811 -687.90511 -146.03013)
(-1757.9173 -739.47554 -156.73047)
(-1855.3417 -794.95385 -164.4382)
(-1963.9666 -853.87708 -168.77806)
(-2084.3406 -915.65388 -169.55506)
(-2216.6322 -979.58041 -166.77284)
(-2360.6001 -1044.8753 -160.63662)
(-2515.6103 -1110.7261 -151.54142)
(-2680.6531 -1176.2957 -140.05877)
(-2854.3977 -1240.8159 -126.89291)
(-3035.284 -1303.5305 -112.83019)
(-3221.5033 -1363.9112 -98.744993)
(-3411.3919 -1421.3344 -85.377428)
(-3602.8839 -1475.5866 -73.570226)
(-3794.6677 -1526.3964 -63.977117)
(-3984.9233 -1573.6412 -57.033635)
(-4172.8609 -1617.5566 -52.95531)
(-4357.0244 -1658.3817 -51.500987)
(-4537.5167 -1696.2495 -53.306006)
(-4713.8167 -1731.5721 -57.254739)
(-4885.933 -1764.6688 -63.076037)
(-5054.3239 -1796.0713 -70.153248)
(-5219.4541 -1825.882 -77.728747)
(-5381.9526 -1854.4678 -85.021073)
(-5542.5212 -1881.9312 -91.289132)
(-5701.6899 -1908.3834 -95.892865)
(-5860.0675 -1933.7938 -98.272893)
(-6017.8238 -1958.096 -98.066352)
(-6175.1692 -1980.9547 -95.115937)
(-6331.9483 -2002.3705 -89.309733)
(-6487.7481 -2021.9116 -80.990008)
(-6641.8228 -2039.2743 -70.410688)
(-6793.2411 -2054.3385 -58.039401)
(-6941.7245 -2067.0142 -44.621489)
(-7085.5024 -2076.8745 -30.773867)
(-7223.5995 -2084.1213 -17.331394)
(-7354.7712 -2088.6867 -5.082907)
(-7478.6035 -2090.8321 5.5817372)
(-7593.5796 -2090.9511 13.802272)
(-7700.2979 -2089.3471 19.53064)
(-7797.7154 -2086.5655 22.697677)
(-7887.3466 -2083.4779 23.010091)
(-7969.1912 -2081.0258 22.430057)
(-8056.9402 -2082.3192 19.618101)
(-9.1206158 20.213113 27.674058)
(-21.653004 30.98485 26.715605)
(-31.976767 43.475583 31.289074)
(-45.287036 53.351283 29.192591)
(-62.882722 64.049331 26.343608)
(-83.529073 73.901686 21.140679)
(-107.14698 81.526755 15.090569)
(-133.82832 88.094318 7.3399545)
(-163.00009 92.149246 -0.73240454)
(-193.54975 93.944828 -9.6882813)
(-225.34821 93.300699 -18.554726)
(-256.75523 89.825905 -27.127738)
(-287.43308 84.321534 -35.211918)
(-316.21014 76.26751 -42.000417)
(-342.53089 66.58876 -47.608644)
(-365.47163 55.352983 -51.371062)
(-385.07624 43.178866 -53.272629)
(-400.55561 30.80202 -53.146049)
(-412.32476 18.464003 -50.967326)
(-420.7737 7.0744215 -46.703967)
(-425.9709 -3.1665094 -40.761267)
(-429.06724 -11.626967 -33.175654)
(-430.78219 -18.094114 -24.412017)
(-432.15133 -22.374163 -14.889062)
(-434.13685 -24.197274 -4.9307382)
(-438.31972 -23.816963 4.6578174)
(-445.31147 -21.175922 13.911265)
(-456.42029 -16.799668 21.825469)
(-472.28165 -10.680394 28.763928)
(-493.63416 -3.7128184 33.629427)
(-520.967 4.2267706 36.976869)
(-554.06237 12.217177 38.357957)
(-593.17026 20.14254 38.022188)
(-637.90204 27.510833 36.013383)
(-687.49772 34.166181 32.729395)
(-741.3801 39.767431 28.732012)
(-798.66285 44.331167 24.06985)
(-858.46895 48.287572 19.671397)
(-919.68569 51.344889 15.877541)
(-981.76203 54.219163 13.25462)
(-1043.7735 57.199148 12.2689)
(-1105.3151 60.82805 13.325979)
(-1166.0997 65.670491 16.691527)
(-1226.1929 72.278211 22.522256)
(-1285.9132 81.184834 30.813076)
(-1345.9398 92.842084 41.407498)
(-1407.18 107.60553 54.005177)
(-1470.8378 125.68792 68.151356)
(-1538.2576 147.15779 83.296863)
(-1610.9244 171.90238 98.791797)
(-1690.3299 199.65114 113.95474)
(-1777.9139 229.95693 128.09466)
(-1874.9551 262.23185 140.56354)
(-1982.5121 295.76312 150.79106)
(-2101.3319 329.74773 158.32237)
(-2231.8267 363.33411 162.83999)
(-2374.0227 395.66657 164.18338)
(-2527.5698 425.91913 162.35555)
(-2691.7493 453.35693 157.51277)
(-2865.5165 477.35121 149.96072)
(-3047.5512 497.43122 140.12211)
(-3236.3329 513.28647 128.51686)
(-3430.2109 524.80348 115.72029)
(-3627.5071 532.02117 102.34685)
(-3826.5489 535.18471 88.973663)
(-4025.8294 534.64534 76.185255)
(-4224.0401 530.8892 64.437942)
(-4419.9154 524.56493 54.094356)
(-4612.7859 515.9868 45.494974)
(-4802.0088 506.01711 38.750961)
(-4987.339 495.21469 33.744799)
(-5168.7106 483.748 30.505465)
(-5346.421 472.26719 28.777296)
(-5520.6682 460.71741 28.243377)
(-5692.0316 449.32872 28.520993)
(-5860.9301 437.96182 29.18795)
(-6027.8303 426.46008 29.851952)
(-6193.0532 414.53427 30.105996)
(-6356.7543 401.83854 29.671508)
(-6518.9484 387.99267 28.287065)
(-6679.3548 372.60791 25.827027)
(-6837.5449 355.36018 22.265332)
(-6992.8473 335.98206 17.673741)
(-7144.4534 314.31441 12.235271)
(-7291.4182 290.32189 6.1922928)
(-7432.7716 264.10445 -0.13918182)
(-7567.5335 235.90214 -6.4250813)
(-7694.8365 206.0957 -12.341471)
(-7813.958 175.17348 -17.572567)
(-7924.4026 143.74698 -21.902177)
(-8025.9994 112.52341 -25.198463)
(-8118.8966 82.203792 -27.436941)
(-8203.7219 53.630289 -28.804661)
(-8281.6298 27.596979 -29.641589)
(-8356.6742 4.7685363 -30.356423)
(3.2927448e-15 -1.3239155e-15 2.3845803e-16)
(2.4470133e-15 -9.6672015e-16 3.215493e-17)
(-9.0574249e-15 9.0550918e-16 6.4029168e-16)
(-1.2642219e-16 -5.721845e-16 4.4370095e-16)
(-7.6811722e-15 -4.9270561e-16 4.1193361e-16)
(-7.3893964e-15 2.7533729e-15 -1.0951501e-15)
(-3.2915852e-15 -8.1743692e-16 3.8364228e-16)
(-1.9032499e-15 5.3200654e-16 -8.2319016e-17)
(-4.7409759e-15 -4.8623412e-16 4.3918642e-16)
(-1.2869644e-14 1.1845665e-15 6.4228907e-16)
(-9.6157521e-15 1.4157374e-15 5.9836601e-16)
(-9.4077204e-15 4.9518432e-16 1.1192419e-15)
(-5.982767e-15 2.6210694e-16 3.0473736e-16)
(-1.1478475e-14 -5.3386198e-16 1.6580808e-15)
(-5.257323e-15 3.6289085e-16 2.8600704e-16)
(-18.735392 11.521947 -24.023548)
(-24.33023 42.677159 -36.835524)
(-30.481832 46.08416 -41.526318)
(-44.118709 63.956637 -46.525799)
(-58.192725 71.349116 -46.054427)
(-79.06698 83.023831 -42.830382)
(-101.67823 89.291511 -37.5942)
(-129.44107 97.267959 -30.093594)
(-159.16686 99.53254 -20.23934)
(-191.66034 102.65015 -9.3265272)
(-225.00205 101.2231 2.2501981)
(-258.93335 97.723872 14.475225)
(-291.53209 93.061022 26.082575)
(-323.20492 84.838644 37.184724)
(-351.08179 76.548261 46.189583)
(-376.25701 66.161484 54.025548)
(-398.12215 55.753171 58.769556)
(-414.18043 43.888556 61.937698)
(-427.87923 34.394492 61.59871)
(-436.04625 23.637693 59.228013)
(-441.76769 16.374501 54.605312)
(-445.10202 9.5271343 47.711565)
(-446.58189 4.7852143 39.296106)
(-447.32286 3.0738622 29.679)
(-448.97402 3.3188629 19.674196)
(-452.50202 5.9379823 9.5267673)
(-458.39424 10.405268 0.11557438)
(-469.85578 17.352118 -8.5514364)
(-484.14324 24.864784 -15.750234)
(-506.11778 34.893173 -21.185182)
(-532.45006 44.650037 -25.245565)
(-565.62394 54.887451 -27.0596)
(-604.57867 65.004112 -27.484651)
(-649.1061 74.455158 -26.356549)
(-699.41621 83.510001 -24.390327)
(-752.72554 90.601699 -21.690354)
(-809.63479 98.091994 -18.705473)
(-869.24337 103.44445 -16.540002)
(-930.18392 108.54056 -15.179836)
(-991.8685 112.99885 -15.346232)
(-1053.4274 117.46916 -17.43826)
(-1114.409 122.30975 -21.71697)
(-1174.6178 128.11248 -28.39248)
(-1234.073 135.37466 -37.472923)
(-1293.1777 144.63457 -48.831482)
(-1352.6006 156.32864 -62.161948)
(-1413.3151 170.83457 -77.031152)
(-1476.5239 188.38817 -92.860228)
(-1543.6143 209.10329 -108.9966)
(-1616.0753 232.92444 -124.7104)
(-1695.4123 259.65046 -139.28402)
(-1783.0621 288.91138 -152.01121)
(-1880.2972 320.21024 -162.29248)
(-1988.1527 352.91213 -169.6253)
(-2107.3559 386.31395 -173.68613)
(-2238.2814 419.63008 -174.30723)
(-2380.9172 452.08597 -171.52996)
(-2534.8741 482.90433 -165.56448)
(-2699.3831 511.38689 -156.80859)
(-2873.3619 536.91939 -145.79773)
(-3055.4432 559.01415 -133.18411)
(-3244.0765 577.32447 -119.69371)
(-3437.5838 591.65647 -106.06472)
(-3634.2614 601.96325 -93.049132)
(-3832.468 608.34791 -81.258301)
(-4030.673 611.09275 -71.298383)
(-4227.5698 610.09148 -63.523093)
(-4422.4041 607.29451 -58.241578)
(-4616.2152 601.08279 -55.771241)
(-4800.992 592.29092 -55.180172)
(-4985.1246 582.39457 -57.063959)
(-5165.1719 571.18651 -60.662663)
(-5341.7977 558.80334 -65.264602)
(-5515.4196 545.70954 -70.473718)
(-5686.4879 531.8064 -75.505453)
(-5855.5583 517.19573 -79.746522)
(-6023.0995 501.78192 -82.635905)
(-6189.4117 485.44077 -83.697748)
(-6354.6485 467.98703 -82.612222)
(-6518.7179 449.24568 -79.233319)
(-6681.2919 429.02313 -73.580879)
(-6841.8104 407.18709 -65.858665)
(-6999.4982 383.64706 -56.430301)
(-7153.4141 358.40429 -45.790209)
(-7302.5097 331.53916 -34.528863)
(-7445.6979 303.23777 -23.292819)
(-7581.9247 273.77621 -12.723262)
(-7710.2646 243.52305 -3.4299957)
(-7829.9688 212.92242 4.0911835)
(-7940.5757 182.47392 9.4597308)
(-8041.9455 152.72767 12.506811)
(-8134.3532 124.22363 13.269429)
(-8218.5663 97.553593 12.06639)
(-8295.9438 73.214097 9.5050493)
(-8361.8352 51.16424 6.7215556)
(-8396.4268 -105.12346 6.7113757)
(-8376.0548 -243.30776 8.7872709)
(-8351.1718 -379.32089 10.170548)
(-8325.0782 -511.05656 10.303369)
(-8294.6741 -640.32612 9.0384825)
(-8277.1681 -765.96918 6.6982153)
(-8246.838 -889.10026 2.922692)
(-8234.2321 -1011.8339 -1.2731325)
(-8221.9029 -1134.626 -6.050706)
(-8210.8234 -1258.4286 -10.208837)
(-8203.8022 -1384.6747 -13.875874)
(-8199.1761 -1515.0884 -16.622185)
(-8195.9884 -1647.7863 -17.483865)
(-8181.8784 -1783.1936 -18.194087)
(-8170.4737 -1919.8813 -17.012455)
(-8035.7541 -2043.3389 -17.247357)
(-7970.383 -2049.5811 -19.191002)
(-7889.2915 -2053.2877 -20.208588)
(-7801.3718 -2057.9065 -21.642023)
(-7706.0175 -2062.1913 -22.157432)
(-7602.4458 -2065.187 -21.641172)
(-7490.8682 -2066.2228 -20.093728)
(-7371.4589 -2064.6522 -17.490403)
(-7244.7165 -2060.0455 -13.956019)
(-7111.4152 -2052.0481 -9.6931031)
(-6972.309 -2040.5256 -4.9704687)
(-6828.3698 -2025.4815 0.046080464)
(-6680.4614 -2007.0449 5.0351008)
(-6528.9167 -1985.5181 9.9379106)
(-6374.4737 -1960.9923 14.488569)
(-6218.2306 -1934.1452 18.643282)
(-6060.0934 -1905.3174 22.235686)
(-5900.3129 -1874.9436 25.398112)
(-5738.8359 -1843.4566 28.227708)
(-5575.4582 -1811.1167 30.865441)
(-5409.8707 -1778.2497 33.598835)
(-5241.663 -1744.8822 36.63638)
(-5070.4796 -1711.1444 40.266663)
(-4895.9211 -1676.7335 44.701073)
(-4717.7039 -1641.674 50.392848)
(-4535.8925 -1605.6496 57.096605)
(-4350.808 -1567.584 65.33722)
(-4162.8628 -1528.7371 74.188927)
(-3971.7579 -1486.4581 85.054155)
(-3779.0862 -1442.1738 96.38889)
(-3586.6376 -1394.9586 108.45808)
(-3395.3867 -1344.759 120.50692)
(-3206.9108 -1291.5542 132.20246)
(-3022.9136 -1235.4661 142.933)
(-2845.0281 -1176.7907 152.19004)
(-2674.8035 -1115.9849 159.47019)
(-2513.6166 -1053.6141 164.35274)
(-2362.5795 -990.37146 166.52556)
(-2222.4939 -927.01416 165.80353)
(-2093.8041 -864.34721 162.14885)
(-1976.5823 -803.16605 155.67233)
(-1870.5276 -744.23334 146.63154)
(-1774.9962 -688.22389 135.41362)
(-1689.0393 -635.7096 122.51701)
(-1611.4704 -587.11329 108.5199)
(-1540.9269 -542.71431 94.051257)
(-1475.9664 -502.60907 79.75084)
(-1415.1165 -466.75647 66.245337)
(-1357.0147 -434.92106 54.086172)
(-1300.384 -406.78504 43.771718)
(-1244.2181 -381.87391 35.650459)
(-1187.7314 -359.67326 29.967902)
(-1130.4103 -339.56351 26.789107)
(-1072.1064 -321.10925 26.098237)
(-1012.7927 -303.52875 27.643936)
(-953.20698 -286.50755 31.143781)
(-893.52751 -269.87135 35.98245)
(-835.98893 -252.57559 41.764243)
(-778.84765 -235.41967 48.052032)
(-724.14117 -217.38509 54.055884)
(-674.48965 -199.05517 58.942324)
(-628.97172 -180.35504 62.894243)
(-587.89937 -162.4584 64.890407)
(-553.77424 -144.31739 64.884311)
(-525.30677 -126.80176 62.238561)
(-503.21514 -110.56765 58.13683)
(-485.98044 -96.606985 50.847827)
(-474.68323 -83.389881 42.47138)
(-467.4152 -73.434047 31.950392)
(-463.71086 -65.072603 20.400824)
(-462.49349 -59.293522 8.1857728)
(-462.1124 -56.567128 -4.0969655)
(-461.48935 -55.721524 -16.060225)
(-460.44876 -57.113331 -27.016536)
(-456.54054 -60.811227 -36.0892)
(-449.01481 -65.988317 -43.968259)
(-438.99244 -71.833394 -48.94079)
(-422.97267 -79.069893 -52.030669)
(-404.04953 -85.292634 -52.101005)
(-379.4721 -92.392493 -50.067914)
(-351.77416 -97.93554 -45.602057)
(-320.47068 -101.86115 -39.300821)
(-286.32946 -104.63486 -31.041382)
(-250.9738 -105.82093 -21.828608)
(-214.40318 -104.96334 -11.696123)
(-178.77112 -101.30983 -1.9416897)
(-144.98454 -96.812398 8.2050078)
(-113.15613 -89.915688 16.934932)
(-85.153165 -82.048993 24.608956)
(-60.683196 -72.37217 30.532991)
(-41.801729 -61.269398 34.25625)
(-26.944493 -50.530308 36.099644)
(-16.741516 -40.553422 35.792736)
(-11.787145 -28.664707 28.562026)
(-15.276653 -19.690591 16.462591)
(-6.8708141e-15 1.5083581e-15 1.9262289e-16)
(-1.2504183e-14 5.7375616e-16 8.4327435e-16)
(-8.3449101e-15 1.4891922e-15 5.3018253e-16)
(-4.9731758e-15 1.4991158e-15 6.2376313e-16)
(-3.4146159e-15 1.5624416e-15 3.1576894e-17)
(2.0582335e-15 9.3962624e-16 -5.746342e-16)
(2.2101935e-15 3.7457559e-17 -1.1841335e-16)
(2.4553765e-15 -8.5141669e-16 -9.3419562e-16)
(1.2987427e-15 1.0081898e-16 1.7950851e-15)
(-4.5074861e-15 9.063971e-16 1.0710522e-15)
(-5.2682467e-15 2.1856155e-15 1.0652666e-15)
(-7.4917339e-15 1.915055e-15 2.2418828e-16)
(-9.400838e-15 1.3708275e-15 6.2833768e-16)
(-6.2048683e-15 1.3247981e-15 5.4317906e-16)
(-6.971104e-15 1.5128103e-15 7.5678131e-16)
(-1.2693866e-14 6.2923345e-15 -2.1364834e-15)
(-5.2452578e-15 2.6791924e-15 -5.3037742e-16)
(-1.0752404e-15 9.8318743e-16 -1.0111087e-16)
(-2.7353382e-15 1.7746034e-15 7.3085398e-17)
(1.0178949e-15 -1.5450237e-16 -4.119182e-16)
(-1.4303492e-15 4.136346e-16 -3.3264033e-16)
(-1.0059749e-14 4.7133437e-15 -1.6449855e-15)
(2.9801421e-15 -1.9180379e-15 -8.3172098e-16)
(-4.79756e-15 2.8035442e-15 1.1420498e-15)
(-5.4778068e-15 3.5047253e-15 -3.934403e-16)
(-1.8117877e-15 1.1581936e-15 -9.1309836e-16)
(-3.9812639e-16 4.7407236e-16 -2.2932148e-16)
(-1.5272242e-15 1.100363e-15 -2.2557932e-16)
(-4.1024849e-15 1.9838802e-15 2.8069696e-17)
(-5.3424143e-16 2.551799e-16 -1.9455919e-16)
(-8441.2247 -11.197852 -32.22001)
(-8440.2555 -7.0683268 -31.095393)
(-8440.1516 -2.0270371 -29.055438)
(-8440.7161 3.4647376 -26.677237)
(-8441.8668 9.0615638 -23.855795)
(-8443.2401 14.59543 -20.965466)
(-8444.5735 19.608842 -17.811005)
(-8445.5716 23.971059 -14.564628)
(-8446.1085 27.451323 -11.157665)
(-8446.0166 29.940364 -7.6732733)
(-8445.4093 31.35197 -4.1894512)
(-8444.1671 31.835871 -0.89463826)
(-8442.7084 31.596436 2.0274742)
(-8440.9882 31.110812 3.9485516)
(-8439.5159 30.743106 5.0722248)
(-8144.9281 -2086.3901 19.095471)
(-8144.0794 -2087.244 17.823106)
(-8143.5398 -2088.2264 15.102716)
(-8142.9041 -2088.6679 11.601591)
(-8142.5871 -2088.3076 7.8360166)
(-8142.032 -2086.8281 4.0247899)
(-8141.319 -2084.2641 0.33569226)
(-8140.3902 -2080.7173 -3.0958984)
(-8139.2855 -2076.3997 -6.2484232)
(-8138.098 -2071.5664 -9.0800735)
(-8136.9488 -2066.5529 -11.645005)
(-8136.0775 -2061.7508 -13.796481)
(-8135.4914 -2057.3761 -15.692869)
(-8135.4825 -2054.1664 -16.873623)
(-8135.9682 -2052.1342 -17.248949)
(-7.5587321 -20.572057 -25.469002)
(-13.181864 -28.214048 -28.636361)
(-20.516352 -38.33442 -35.384341)
(-32.810895 -46.583686 -36.274481)
(-47.675846 -53.863189 -36.63521)
(-68.252287 -60.540171 -34.234816)
(-92.455833 -66.143422 -29.999399)
(-121.28727 -71.393157 -24.129852)
(-152.93063 -75.086883 -16.874405)
(-187.54046 -78.439528 -8.5138522)
(-223.60284 -80.325021 0.60646132)
(-260.25965 -81.933456 9.5860986)
(-296.28196 -81.833984 18.539047)
(-330.63924 -81.692283 26.424849)
(-362.11996 -80.337356 33.211906)
(-390.11576 -79.018216 38.035894)
(-414.0271 -76.739349 41.198978)
(-433.35957 -74.871072 41.96553)
(-448.0952 -72.95624 40.735732)
(-458.30038 -71.415993 37.19933)
(-464.77969 -70.679785 31.916494)
(-467.96719 -70.770927 24.912896)
(-469.06408 -72.069319 16.801928)
(-469.00896 -74.749053 7.8805855)
(-469.12017 -78.88382 -1.2535849)
(-470.60766 -84.607036 -10.097953)
(-474.69972 -92.248412 -18.20156)
(-482.4765 -101.331 -25.236058)
(-495.04642 -112.11509 -30.730324)
(-512.80286 -124.58948 -34.455438)
(-536.61573 -138.26054 -36.509188)
(-566.4566 -153.26917 -36.682205)
(-602.19526 -169.25852 -35.292234)
(-643.45354 -186.07768 -32.604648)
(-689.86799 -203.52072 -28.72901)
(-740.36348 -221.45516 -24.547754)
(-794.02132 -239.70198 -20.473989)
(-849.89587 -258.03305 -16.706804)
(-906.99945 -276.65665 -14.111855)
(-964.22071 -295.41206 -13.04202)
(-1020.9979 -314.39433 -13.806167)
(-1076.5878 -333.76812 -16.654678)
(-1130.8341 -353.768 -21.891134)
(-1183.6575 -374.5575 -29.235752)
(-1235.3868 -396.52219 -38.723916)
(-1286.7916 -419.99104 -49.983704)
(-1338.7598 -445.22516 -62.584927)
(-1392.5578 -472.57968 -76.022925)
(-1449.5834 -502.30429 -89.684456)
(-1511.3976 -534.6419 -102.94797)
(-1579.579 -569.7386 -115.17643)
(-1655.6753 -607.68458 -125.78466)
(-1741.0866 -648.47441 -134.24974)
(-1836.9995 -692.02201 -140.16969)
(-1944.3015 -738.15375 -143.26316)
(-2063.5285 -786.61662 -143.41238)
(-2194.8226 -837.08477 -140.657)
(-2337.9095 -889.17162 -135.20017)
(-2492.1197 -942.44435 -127.40386)
(-2656.3961 -996.42877 -117.75166)
(-2829.3804 -1050.6488 -106.85024)
(-3009.4487 -1104.6062 -95.334863)
(-3194.827 -1157.8838 -83.922758)
(-3383.7518 -1209.9573 -73.230536)
(-3574.0575 -1260.4473 -63.926596)
(-3765.3717 -1309.4675 -56.423223)
(-3953.8585 -1355.7995 -51.031674)
(-4140.2798 -1399.779 -48.186534)
(-4323.9662 -1441.7014 -47.409068)
(-4503.4536 -1480.9089 -49.351763)
(-4679.0441 -1517.8709 -52.832825)
(-4850.7475 -1552.5987 -57.829098)
(-5018.8957 -1585.2935 -63.754607)
(-5184.1051 -1616.0184 -70.01105)
(-5347.0249 -1644.9959 -75.942845)
(-5508.3372 -1672.4331 -80.980933)
(-5668.657 -1698.4812 -84.56616)
(-5828.4772 -1723.2203 -86.277166)
(-5988.1254 -1746.7941 -85.830141)
(-6147.6755 -1769.1587 -83.033169)
(-6306.9291 -1790.3744 -77.937838)
(-6465.7409 -1810.4779 -70.605328)
(-6622.7144 -1829.0492 -61.501824)
(-6775.5562 -1845.8138 -50.939725)
(-6929.5476 -1862.2144 -39.520639)
(-7077.2701 -1876.8011 -27.920333)
(-7219.1508 -1889.5895 -16.487219)
(-7354.1714 -1900.8195 -6.0006286)
(-7481.8877 -1910.5026 3.143634)
(-7600.9111 -1918.5182 10.415581)
(-7711.5845 -1925.2525 15.736004)
(-7813.4314 -1930.627 18.934219)
(-7906.94 -1934.8869 20.319406)
(-7993.4683 -1938.7999 20.630435)
(-8084.0695 -1944.4259 19.768671)
(-1.8773878 -18.326694 -20.824892)
(-8.0054859 -19.367772 -26.07122)
(-18.409351 -30.071737 -29.938615)
(-30.030046 -34.486829 -32.143787)
(-46.804912 -40.505633 -31.956229)
(-67.854072 -44.748753 -29.988352)
(-93.447225 -49.143959 -26.48827)
(-122.82714 -52.298803 -21.48309)
(-155.98836 -55.327873 -15.363109)
(-191.79472 -57.549544 -7.9234095)
(-229.21294 -59.49493 -0.4303953)
(-267.23267 -60.825239 7.8734999)
(-304.59353 -61.974552 15.328464)
(-340.26116 -62.586783 22.624836)
(-373.02852 -63.069539 28.283336)
(-402.26773 -63.207146 33.07474)
(-426.86378 -63.289375 35.551222)
(-447.08449 -63.315454 36.680718)
(-462.14626 -63.456509 35.471266)
(-472.83182 -63.810825 32.664158)
(-479.26837 -64.534354 27.942739)
(-482.47847 -65.830487 21.991622)
(-483.2594 -67.761287 14.800418)
(-482.95533 -70.606472 7.0692548)
(-482.70533 -74.362982 -0.98226452)
(-483.92976 -79.296684 -8.7066663)
(-487.786 -85.326453 -15.883217)
(-495.46269 -92.635441 -21.995531)
(-507.89126 -101.25622 -26.754678)
(-525.91344 -111.11068 -30.126544)
(-549.8547 -122.17703 -31.860501)
(-579.95482 -134.48443 -32.009628)
(-616.05207 -147.86154 -30.854975)
(-657.71347 -162.14058 -28.477544)
(-704.36255 -177.24827 -25.334613)
(-754.99705 -193.20263 -21.786505)
(-808.60899 -209.58285 -18.319806)
(-864.22314 -226.46794 -15.312163)
(-920.66192 -243.74491 -13.2467)
(-976.99319 -261.36177 -12.476724)
(-1032.4861 -279.19292 -13.334045)
(-1086.6067 -297.43356 -15.863926)
(-1139.0046 -316.05318 -20.549702)
(-1189.7613 -335.11479 -26.953207)
(-1239.2711 -354.90716 -35.00117)
(-1288.2487 -375.52941 -44.528734)
(-1337.6869 -397.18248 -55.075417)
(-1388.8494 -420.12363 -66.226304)
(-1443.1741 -444.54392 -77.451477)
(-1502.2138 -470.66532 -88.246008)
(-1567.5485 -498.6511 -98.079102)
(-1640.6963 -528.65252 -106.4895)
(-1723.024 -560.75848 -113.06497)
(-1815.6696 -595.01538 -117.50213)
(-1919.473 -631.41018 -119.60014)
(-2034.9166 -669.86898 -119.29668)
(-2162.0989 -710.2619 -116.65041)
(-2300.7166 -752.39396 -111.86234)
(-2450.0795 -796.02325 -105.24218)
(-2609.1441 -840.84399 -97.208087)
(-2776.5726 -886.52768 -88.25827)
(-2950.8003 -932.6958 -78.902511)
(-3130.1226 -978.94836 -69.748502)
(-3312.8914 -1024.9258 -61.213425)
(-3496.8098 -1070.0596 -53.940027)
(-3683.1057 -1115.1661 -47.968716)
(-3861.3301 -1156.3228 -44.34542)
(-4058.4803 -1202.209 -42.261426)
(-4243.8376 -1243.6104 -42.006789)
(-4421.0747 -1281.8835 -43.635416)
(-4594.0488 -1317.6047 -46.722462)
(-4763.398 -1351.4207 -50.983757)
(-4929.7074 -1383.2051 -55.974051)
(-5093.6961 -1413.1177 -61.193149)
(-5255.9222 -1441.3756 -66.12855)
(-5417.0369 -1468.1202 -70.292599)
(-5577.6906 -1493.5385 -73.235469)
(-5738.3741 -1517.8361 -74.637426)
(-5899.3806 -1541.2018 -74.208707)
(-6060.8149 -1563.7035 -71.866368)
(-6222.4669 -1585.5422 -67.579677)
(-6384.0533 -1606.7293 -61.460038)
(-6546.2763 -1627.5069 -53.925003)
(-6691.6442 -1644.1406 -44.593497)
(-6832.7998 -1660.12 -35.091474)
(-6983.38 -1677.9178 -24.999669)
(-7132.2427 -1695.7712 -15.345427)
(-7275.6007 -1712.7306 -6.2932365)
(-7412.6629 -1728.5147 1.6110588)
(-7542.1032 -1743.2942 8.1477145)
(-7664.0109 -1756.7284 13.000441)
(-7778.2247 -1768.9092 16.389909)
(-7884.6961 -1779.8972 18.16313)
(-7984.9828 -1790.2205 19.37425)
(-8087.2974 -1800.9478 19.264671)
(0.27310635 -13.343476 -18.288621)
(-6.6984355 -14.87939 -21.632252)
(-14.93499 -21.470744 -26.433949)
(-28.585056 -25.470559 -27.645637)
(-46.05008 -29.134385 -27.409387)
(-68.555769 -32.64469 -25.964929)
(-94.674417 -34.976891 -23.08044)
(-125.94113 -37.51479 -19.064633)
(-160.20882 -39.061235 -13.613605)
(-197.4758 -41.204235 -7.8558893)
(-236.43769 -42.368585 -0.96525082)
(-276.17995 -44.374259 5.6014106)
(-315.18553 -45.488551 12.442398)
(-352.49563 -47.382374 18.266853)
(-387.00174 -48.748161 23.726381)
(-417.4712 -50.50771 27.326279)
(-443.74763 -52.033746 30.038033)
(-464.8441 -53.809076 30.75082)
(-481.00888 -55.563106 30.004593)
(-492.26424 -57.436944 27.482055)
(-499.22443 -59.555184 23.638496)
(-502.60816 -61.804267 18.407093)
(-503.56139 -64.547074 12.349048)
(-503.16589 -67.596605 5.6618351)
(-502.84378 -71.354475 -1.1686277)
(-503.90881 -75.660697 -7.8257889)
(-507.70124 -80.859811 -13.895589)
(-515.34104 -86.924228 -19.042729)
(-527.94119 -93.959462 -23.134012)
(-546.08224 -102.04728 -25.885823)
(-570.34484 -111.20789 -27.282743)
(-600.79367 -121.48863 -27.409487)
(-637.21663 -132.74537 -26.345429)
(-679.1935 -145.08159 -24.361977)
(-725.91941 -158.35499 -21.691048)
(-776.49814 -172.39907 -18.764605)
(-829.74255 -187.17125 -15.96347)
(-884.62693 -202.46916 -13.599556)
(-940.17273 -218.32017 -12.059142)
(-995.25159 -234.44273 -11.615589)
(-1049.1128 -250.87375 -12.568421)
(-1101.271 -267.4738 -14.997205)
(-1151.345 -284.30303 -19.044439)
(-1199.52 -301.2192 -24.528681)
(-1246.2403 -318.45738 -31.290996)
(-1292.1879 -336.04956 -39.168705)
(-1338.4304 -354.09708 -47.760011)
(-1386.224 -372.81815 -56.719481)
(-1437.0155 -392.36056 -65.608716)
(-1492.3355 -412.93864 -74.015985)
(-1553.7332 -434.73185 -81.526929)
(-1622.6675 -457.92882 -87.791344)
(-1700.4499 -482.67925 -92.500226)
(-1788.1448 -509.11517 -95.447553)
(-1886.5276 -537.31816 -96.508178)
(-1996.0183 -567.32946 -95.668612)
(-2116.6768 -599.13424 -93.01508)
(-2248.1741 -632.6617 -88.737024)
(-2389.8313 -667.78505 -83.109264)
(-2540.6396 -704.31625 -76.484563)
(-2699.3282 -742.01982 -69.259832)
(-2864.4351 -780.60437 -61.860816)
(-3034.3802 -819.75044 -54.734428)
(-3207.6369 -859.14682 -48.236188)
(-3381.9179 -898.23864 -42.743966)
(-3561.6477 -938.22866 -38.570793)
(-3717.1372 -971.53171 -35.890739)
(-3921.1308 -1016.5565 -34.213989)
(-4100.9637 -1054.2883 -35.516503)
(-4272.0452 -1089.1986 -37.142266)
(-4439.0385 -1122.1644 -40.172852)
(-4602.4872 -1153.3033 -43.976003)
(-4763.5948 -1182.8896 -48.246097)
(-4923.7867 -1211.1421 -52.650312)
(-5082.9308 -1238.0088 -56.716811)
(-5241.7504 -1263.6985 -60.083841)
(-5400.9297 -1288.459 -62.409623)
(-5561.0416 -1312.4507 -63.426697)
(-5722.4254 -1335.9099 -62.951122)
(-5885.2109 -1358.9877 -60.883031)
(-6049.3601 -1381.842 -57.238269)
(-6214.0075 -1404.4456 -52.101535)
(-6381.1666 -1427.4192 -45.779597)
(-6545.3568 -1449.7479 -38.290388)
(-6687.186 -1466.9832 -30.140897)
(-6838.9588 -1487.0766 -21.918271)
(-6996.795 -1508.8887 -13.902647)
(-7152.1084 -1530.6265 -6.3319467)
(-7302.8152 -1551.8572 0.33997483)
(-7447.2771 -1572.2133 5.9655515)
(-7585.8426 -1591.7059 10.295651)
(-7717.8725 -1610.0378 13.570469)
(-7843.3503 -1627.2104 15.521889)
(-7963.606 -1643.7777 17.293741)
(-8083.0832 -1659.8736 17.994267)
(1.2558586 -11.668067 -14.583511)
(-4.808538 -10.976082 -18.400864)
(-14.856491 -15.785431 -21.252738)
(-28.759493 -17.701789 -22.639989)
(-47.477867 -20.370072 -22.891562)
(-70.076458 -21.952384 -21.967977)
(-98.159462 -23.848651 -19.786879)
(-130.03861 -24.940592 -16.352347)
(-165.67088 -26.357972 -12.590114)
(-204.39915 -27.493361 -7.266918)
(-245.00658 -28.992408 -2.2265389)
(-286.19697 -30.533598 3.7667314)
(-326.9421 -32.426007 8.900471)
(-366.08417 -34.653115 14.471828)
(-401.98122 -36.928202 18.38463)
(-434.40248 -39.680351 22.140573)
(-461.82445 -42.41715 24.080056)
(-484.40336 -45.412489 25.028132)
(-501.536 -48.387271 24.334241)
(-513.76288 -51.504423 22.501121)
(-521.26566 -54.57466 19.201033)
(-525.2047 -57.810825 15.029074)
(-526.32388 -61.066737 9.9522315)
(-526.15742 -64.588024 4.4790999)
(-525.89609 -68.316507 -1.2227538)
(-527.06942 -72.472391 -6.6887974)
(-530.91321 -77.134872 -11.691277)
(-538.76475 -82.415366 -15.959275)
(-551.50939 -88.446645 -19.262303)
(-569.97389 -95.362273 -21.475671)
(-594.51932 -103.19088 -22.611158)
(-625.26765 -112.01444 -22.649151)
(-661.99533 -121.85834 -21.753292)
(-704.1054 -132.71163 -20.099848)
(-750.8854 -144.42372 -17.966443)
(-801.25124 -157.04524 -15.653109)
(-854.11478 -170.35489 -13.434933)
(-908.3702 -184.33294 -11.611338)
(-962.71981 -198.54604 -10.539813)
(-1016.2366 -213.07163 -10.493484)
(-1068.2606 -227.67611 -11.48156)
(-1118.1737 -242.2741 -13.730501)
(-1165.7473 -256.83623 -17.158675)
(-1211.1669 -271.2654 -21.731926)
(-1254.8701 -285.64492 -27.288281)