/*--------------------------------*- C++ -*----------------------------------*\
  =========                 |
  \\      /  F ield         | OpenFOAM: The Open Source CFD Toolbox
   \\    /   O peration     | Website:  https://openfoam.org
    \\  /    A nd           | Version:  6
     \\/     M anipulation  |
\*---------------------------------------------------------------------------*/
FoamFile
{
    version     2.0;
    format      ascii;
    class       pointVectorField;
    location    "1.08";
    object      lm;
}
// * * * * * * * * * * * * * * * * * * * * * * * * * * * * * * * * * * * * * //

dimensions      [1 -2 -1 0 0 0 0];

internalField   nonuniform List<vector> 
28033
(
(0 0 0)
(0 0 0)
(-3005.7529 827.43634 17.990255)
(-2811.5095 1128.9489 32.847255)
(0 0 0)
(0 0 0)
(-2822.4567 1105.5423 18.173766)
(-3016.552 808.89982 33.28892)
(0 0 0)
(0 0 0)
(0 0 0)
(0 0 0)
(0 0 0)
(0 0 0)
(0 0 0)
(0 0 0)
(0 0 0)
(0 0 0)
(0 0 0)
(0 0 0)
(0 0 0)
(0 0 0)
(0 0 0)
(-2992.3493 847.4371 20.42035)
(-2978.7733 866.99768 22.830228)
(-2965.6955 885.79822 24.361896)
(-2953.052 904.13914 25.390447)
(-2940.8107 921.91097 26.010683)
(-2929.0879 939.44741 25.967612)
(-2917.5931 956.79125 25.942128)
(-2906.3824 974.25328 25.702602)
(-2895.4432 991.81978 25.397835)
(-2884.2658 1009.8137 25.249401)
(-2873.2618 1028.3072 25.407045)
(-2861.8199 1047.3857 26.012346)
(-2850.165 1067.0096 26.932375)
(-2837.895 1087.4543 28.438669)
(-2825.031 1108.2347 30.514452)
(-16.867985 -21.517906 -25.027938)
(-20.933882 -35.235667 -34.034435)
(-25.626847 -48.560228 -42.48208)
(-31.705901 -62.384384 -48.592705)
(-38.71023 -76.677416 -53.229353)
(-47.809196 -91.395449 -57.337648)
(-58.72698 -106.33341 -60.42194)
(-71.688979 -121.45855 -63.195334)
(-86.837054 -136.71401 -65.374626)
(-104.14987 -152.0533 -67.370252)
(-123.78594 -167.40526 -68.999983)
(-145.756 -182.6282 -70.429693)
(-170.16273 -197.67767 -71.780712)
(-196.98773 -212.41878 -72.972726)
(-226.34483 -226.81844 -74.097646)
(-258.17204 -240.56957 -75.157556)
(-292.5106 -253.6292 -76.232917)
(-329.30774 -265.80923 -77.287909)
(-368.60375 -277.0569 -78.223146)
(-410.24256 -287.0553 -79.17284)
(-454.25975 -295.82434 -80.005172)
(-500.53035 -303.10332 -80.64391)
(-549.00222 -308.85432 -81.163586)
(-599.61598 -312.95908 -81.326501)
(-652.18448 -315.31009 -81.179998)
(-706.69249 -315.87701 -80.650328)
(-763.00114 -314.55979 -79.67556)
(-821.03203 -311.39118 -78.151155)
(-880.52003 -306.24942 -76.136947)
(-941.5219 -299.29025 -73.581434)
(-1003.6962 -290.35623 -70.49379)
(-1066.8987 -279.59806 -66.905083)
(-1131.0423 -267.0862 -62.886702)
(-1195.8634 -252.70147 -58.483977)
(-1261.2249 -236.74189 -53.715806)
(-1326.7992 -219.02014 -48.766858)
(-1392.497 -199.89846 -43.691869)
(-1458.113 -179.23206 -38.496527)
(-1523.3748 -157.23626 -33.320856)
(-1588.2489 -133.97546 -28.19877)
(-1652.5223 -109.50423 -23.143846)
(-1716.0871 -83.923138 -18.209303)
(-1778.8705 -57.268495 -13.36268)
(-1840.7854 -29.589928 -8.5735756)
(-1901.7405 -0.97169834 -3.845823)
(-1961.7172 28.577575 0.90962987)
(-2020.6336 59.012098 5.7051734)
(-2078.4422 90.320174 10.608664)
(-2135.0512 122.45753 15.639746)
(-2190.3666 155.40395 20.820849)
(-2244.2456 189.09753 26.144842)
(-2296.5271 223.48388 31.581805)
(-2347.0097 258.46476 37.073712)
(-2395.4596 293.92876 42.537091)
(-2441.6246 329.72615 47.86541)
(-2485.2269 365.67799 52.930215)
(-2525.9908 401.5756 57.594491)
(-2563.6438 437.17691 61.713608)
(-2597.9361 472.22594 65.144045)
(-2628.656 506.4344 67.760997)
(-2655.6372 539.51825 69.448839)
(-2678.7828 571.18773 70.129946)
(-2698.0554 601.15585 69.745394)
(-2713.5015 629.15707 68.277049)
(-2725.2715 654.98274 65.766678)
(-2733.5186 678.35686 62.258144)
(-2738.5869 699.23345 57.789665)
(-2740.8408 717.25871 52.566242)
(-2740.5948 732.72432 46.566898)
(-2738.4193 745.29652 40.075429)
(-2734.7483 755.31168 33.364198)
(-2730.0856 762.64445 26.367343)
(-2724.9411 767.54122 19.346242)
(-2719.8118 770.20239 12.441443)
(-2715.2008 770.84258 5.8299543)
(-2711.5318 769.77747 -0.39364604)
(-2709.2542 767.27911 -6.078459)
(-2708.6367 763.75109 -11.161323)
(-2710.1057 759.49905 -15.519017)
(-2713.7372 754.88592 -19.114526)
(-2719.7665 750.35748 -21.907877)
(-2728.3149 746.18267 -23.810959)
(-2739.3219 742.70301 -24.844176)
(-2752.823 740.2658 -24.99804)
(-2768.5711 739.18442 -24.237654)
(-2786.4457 739.48116 -22.736867)
(-2806.1571 741.56707 -20.34354)
(-2827.4059 745.37498 -17.351516)
(-2849.77 750.87986 -13.634208)
(-2872.9854 758.46749 -9.5385533)
(-2896.3488 766.95237 -4.9547839)
(-2919.8291 777.89951 -0.33326235)
(-2942.5763 788.87847 4.5318025)
(-2964.6404 801.26302 8.9303777)
(-2985.7031 814.20462 13.627483)
(0.93936948 13.786297 14.984156)
(1.7867162 18.13791 20.246653)
(3.0911578 25.436004 25.769219)
(3.2540921 32.560647 28.482748)
(0.25530532 41.436527 30.548078)
(-3.0743977 51.027967 32.630437)
(-8.6455552 60.209416 34.011395)
(-15.137308 70.885902 35.669295)
(-23.640759 81.733174 37.212414)
(-33.160381 92.969021 38.990076)
(-44.43254 104.98909 40.7508)
(-57.313531 117.40925 42.467698)
(-72.117882 130.5592 44.018326)
(-88.701271 144.31695 45.421606)
(-107.48487 158.70878 46.347583)
(-128.38256 173.97146 46.97701)
(-151.52757 189.81931 46.92267)
(-177.06509 206.60484 46.40746)
(-204.86095 224.19323 45.35307)
(-234.90141 242.41494 43.664451)
(-267.34743 261.65712 41.555007)
(-301.83446 281.56457 39.013949)
(-338.5139 302.14572 36.070807)
(-377.21333 323.62859 32.919213)
(-417.82734 345.59881 29.568239)
(-460.18585 368.13748 26.13305)
(-504.36574 391.3299 22.733019)
(-550.0945 414.77278 19.302622)
(-597.46938 438.76158 16.022549)
(-646.24894 462.87109 12.778566)
(-696.47448 487.3417 9.7236778)
(-747.98106 511.82607 6.7634334)
(-800.74707 536.41024 3.924425)
(-854.62612 560.96512 1.1980008)
(-909.5586 585.41599 -1.4526785)
(-965.38848 609.66764 -3.975397)
(-1022.0163 633.68025 -6.4603538)
(-1079.2573 657.45311 -8.8004166)
(-1137.0724 680.81986 -11.077903)
(-1195.2855 703.84053 -13.237284)
(-1253.7975 726.40354 -15.292887)
(-1312.504 748.4971 -17.224634)
(-1371.3249 770.08306 -19.053418)
(-1430.1987 791.12737 -20.783054)
(-1489.0795 811.59829 -22.448783)
(-1547.9392 831.45776 -24.08611)
(-1606.761 850.66594 -25.747503)
(-1665.5256 869.1663 -27.488348)
(-1724.2147 886.90096 -29.371542)
(-1782.7882 903.78735 -31.453101)
(-1841.1859 919.74023 -33.7852)
(-1899.3093 934.64931 -36.401524)
(-1957.0262 948.40359 -39.319962)
(-2014.1505 960.87294 -42.529881)
(-2070.4611 971.93237 -45.998475)
(-2125.6833 981.45195 -49.659207)
(-2179.5099 989.31546 -53.423671)
(-2231.6011 995.41956 -57.17497)
(-2281.5997 999.68681 -60.778493)
(-2329.1409 1002.0684 -64.086284)
(-2373.8711 1002.5538 -66.943517)
(-2415.4607 1001.1716 -69.195683)
(-2453.6149 997.99713 -70.702737)
(-2488.0973 993.14829 -71.331797)
(-2518.7283 986.79438 -70.98907)
(-2545.4001 979.12492 -69.589503)
(-2568.09 970.39738 -67.095008)
(-2586.8415 960.89188 -63.492232)
(-2601.7864 950.926 -58.896669)
(-2613.1226 940.8818 -53.115377)
(-2621.2286 930.79169 -46.583708)
(-2626.334 921.44533 -39.228726)
(-2628.8644 912.74939 -31.228788)
(-2629.2602 905.23493 -22.765915)
(-2628.0073 899.09499 -14.036173)
(-2625.581 894.60831 -5.2177503)
(-2622.4864 891.97031 3.481955)
(-2619.1999 891.3393 11.87797)
(-2616.2178 892.86953 19.777221)
(-2613.9726 896.58321 27.018002)
(-2612.8701 902.54261 33.445052)
(-2613.2772 910.67506 38.950048)
(-2615.4869 920.91544 43.423521)
(-2619.7379 933.09129 46.829189)
(-2626.1871 947.03519 49.129394)
(-2634.9197 962.4632 50.370976)
(-2645.9311 979.12517 50.596339)
(-2659.1445 996.65632 49.934805)
(-2674.3803 1014.7356 48.513504)
(-2691.4206 1032.9752 46.512591)
(-2709.93 1051.0177 44.148125)
(-2729.5568 1068.5142 41.58444)
(-2749.8996 1085.1888 39.075438)
(-2770.5742 1100.7888 36.748926)
(-2791.1221 1115.2799 34.653914)
(0 0 0)
(0 0 0)
(0 0 0)
(0 0 0)
(0 0 0)
(0 0 0)
(0 0 0)
(0 0 0)
(0 0 0)
(0 0 0)
(0 0 0)
(0 0 0)
(0 0 0)
(0 0 0)
(0 0 0)
(-6.0480944 6.2771568 -12.854555)
(-3.1020501 26.011956 -22.944035)
(1.2787516 25.892591 -30.749907)
(0.75900493 38.810239 -36.984791)
(-0.96181899 45.281009 -41.158011)
(-4.9320293 54.352737 -44.233621)
(-10.311905 63.745002 -46.330471)
(-17.983574 74.049975 -48.610476)
(-26.710011 84.119402 -49.920671)
(-37.176972 95.400499 -51.049439)
(-50.00013 107.86474 -52.216546)
(-63.466416 119.53163 -52.536408)
(-79.87855 134.03346 -53.168249)
(-97.178229 147.3053 -53.251758)
(-117.32007 163.5079 -53.201483)
(-138.85162 178.29934 -53.203697)
(-162.46318 195.60019 -52.77868)
(-188.60207 212.76184 -52.280245)
(-216.12321 230.88281 -51.762614)
(-246.43565 249.8583 -50.982888)
(-278.22261 268.71754 -50.47706)
(-312.20712 288.83225 -49.377216)
(-348.2892 309.0703 -48.435411)
(-386.38277 329.60778 -47.160368)
(-426.41782 350.60402 -45.715874)
(-468.42206 371.98301 -44.003834)
(-512.25143 393.43959 -41.778437)
(-557.97112 415.68409 -39.466695)
(-605.57526 437.52339 -36.406727)
(-654.66583 460.22295 -33.215152)
(-705.60475 482.83112 -29.463502)
(-757.86175 505.63148 -25.394894)
(-811.59095 528.6429 -20.919119)
(-866.47849 551.66026 -16.169964)
(-922.38408 574.94112 -11.259485)
(-979.4491 597.69458 -6.1026907)
(-1036.7242 620.94379 -0.89144219)
(-1094.9766 643.73215 4.2931019)
(-1153.4562 666.36908 9.418685)
(-1212.3061 688.75674 14.455503)
(-1271.3027 710.83182 19.353102)
(-1330.411 732.57069 24.125136)
(-1389.5574 753.93845 28.777121)
(-1448.7084 774.91553 33.346333)
(-1507.8413 795.47267 37.872541)
(-1566.9465 815.59025 42.413472)
(-1626.0157 835.23039 47.013949)
(-1685.0305 854.34863 51.723676)
(-1743.958 872.87868 56.563912)
(-1802.738 890.73721 61.54845)
(-1861.2765 907.81342 66.651952)
(-1919.4392 923.9783 71.831535)
(-1977.0498 939.07709 77.006242)
(-2033.8883 952.94366 82.073402)
(-2089.6916 965.39484 86.903417)
(-2144.1664 976.25557 91.351657)
(-2196.9875 985.34647 95.262942)
(-2247.8168 992.51882 98.481276)
(-2296.3131 997.64187 100.86105)
(-2342.1414 1000.6308 102.27025)
(-2384.994 1001.4417 102.60594)
(-2424.5959 1000.0875 101.79365)
(-2460.72 996.63675 99.795472)
(-2493.1965 991.21508 96.612645)
(-2521.9193 984.01103 92.285047)
(-2546.8509 975.2568 86.874957)
(-2568.0198 965.27313 80.513128)
(-2585.566 954.00937 73.371709)
(-2599.2909 943.3567 65.545896)
(-2610.5019 930.82385 57.036795)
(-2618.0679 919.50548 48.437488)
(-2623.3602 908.50307 39.596594)
(-2626.2252 898.42122 30.823852)
(-2627.3165 889.62156 22.273144)
(-2626.9576 882.39372 14.072693)
(-2625.6141 876.98733 6.3873665)
(-2623.7282 873.63339 -0.66213655)
(-2621.7321 872.4856 -6.973715)
(-2620.0441 873.64877 -12.452258)
(-2619.0683 877.16579 -17.027248)
(-2619.1614 883.02425 -20.642496)
(-2620.6589 891.14715 -23.262594)
(-2623.8269 901.40579 -24.865187)
(-2628.8985 913.61486 -25.45415)
(-2636.0163 927.54242 -25.045153)
(-2645.283 942.91102 -23.683591)
(-2656.6929 959.41473 -21.432959)
(-2670.1965 976.70639 -18.382625)
(-2685.6304 994.4485 -14.647412)
(-2702.789 1012.2607 -10.364343)
(-2721.3551 1029.8225 -5.6904649)
(-2741.0037 1046.7879 -0.7989837)
(-2761.2753 1062.9088 4.1292498)
(-2781.8795 1078.0153 8.9892173)
(-2802.1009 1092.0053 13.484871)
(-2835.9545 1085.0172 20.727518)
(-2848.5262 1064.5609 22.942307)
(-2861.0368 1044.6247 24.649298)
(-2872.2936 1025.2176 25.780548)
(-2884.0684 1006.6996 26.295545)
(-2894.6819 988.53255 26.629925)
(-2906.0642 971.04821 26.341816)
(-2916.967 953.66826 26.224954)
(-2928.0238 936.5006 25.925293)
(-2939.5743 919.7192 25.713954)
(-2951.5565 902.52015 25.786473)
(-2963.4448 884.84409 26.050561)
(-2976.4911 867.07725 27.195269)
(-2989.4156 848.14787 28.408691)
(-3003.1795 828.88274 30.871866)
(-2996.6715 795.66982 35.313202)
(-2975.7388 783.00122 37.311918)
(-2953.507 770.56574 39.780022)
(-2930.6242 759.09622 42.491056)
(-2906.9743 748.5458 45.25262)
(-2883.1541 739.30058 48.148206)
(-2859.7216 731.65789 50.592095)
(-2836.9961 725.63617 52.65269)
(-2815.5195 721.42087 54.030898)
(-2795.6043 719.02287 54.562538)
(-2777.6498 718.35562 54.192077)
(-2761.8459 719.35982 52.789809)
(-2748.4607 721.85186 50.327687)
(-2737.5576 725.56777 46.842006)
(-2729.2107 730.26315 42.322336)
(-2723.3598 735.57698 36.8661)
(-2719.8788 741.19223 30.574447)
(-2718.5804 746.72355 23.594665)
(-2719.1939 751.74333 16.116779)
(-2721.4011 755.87901 8.30222)
(-2724.832 758.72681 0.35438407)
(-2729.0715 759.90335 -7.5300699)
(-2733.6571 759.08051 -15.165269)
(-2738.1615 755.90572 -22.36006)
(-2742.0371 750.23699 -29.00041)
(-2744.7862 741.66829 -34.787541)
(-2746.3996 730.1783 -39.790635)
(-2745.2002 715.1969 -43.860422)
(-2742.3076 698.12894 -46.864117)
(-2736.3815 677.30565 -48.840879)
(-2727.4469 653.90637 -49.849452)
(-2715.1767 627.69321 -49.825458)
(-2699.4375 599.03289 -48.938721)
(-2680.1099 568.17385 -47.249004)
(-2657.1641 535.43357 -44.899407)
(-2630.6269 501.14657 -42.021632)
(-2600.5868 465.66059 -38.760523)
(-2567.1836 429.31449 -35.259724)
(-2530.5954 392.43983 -31.65434)
(-2491.0302 355.33417 -28.064198)
(-2448.7134 318.27416 -24.592197)
(-2403.8771 281.48603 -21.316766)
(-2356.7502 245.16819 -18.293397)
(-2307.549 209.46719 -15.55345)
(-2256.4748 174.50313 -13.10568)
(-2203.7028 140.35368 -10.940565)
(-2149.392 107.0802 -9.0322578)
(-2093.6691 74.716211 -7.3467296)
(-2036.6555 43.293245 -5.8392483)
(-1978.4338 12.837654 -4.4772028)
(-1919.1113 -16.639572 -3.1946747)
(-1858.736 -45.060043 -2.0079966)
(-1797.4187 -72.449114 -0.80259647)
(-1735.2338 -98.652251 0.33688759)
(-1672.2518 -123.68256 1.5127296)
(-1608.5886 -147.4188 2.7344)
(-1544.3668 -169.84994 3.9628062)
(-1479.6438 -190.66592 5.2327529)
(-1414.7194 -210.02279 6.5877093)
(-1349.463 -227.89556 8.0662516)
(-1284.2768 -243.88047 9.5847706)
(-1219.2962 -258.2041 11.244065)
(-1154.4788 -270.81368 13.107035)
(-1090.1861 -281.613 15.078619)
(-1026.5112 -290.64954 17.34078)
(-963.76249 -297.7941 19.714773)
(-901.76346 -303.36732 22.373288)
(-841.22365 -306.91714 25.10043)
(-781.72474 -309.12392 28.147168)
(-723.93215 -309.51966 31.171957)
(-667.68486 -308.46366 34.33264)
(-613.3698 -305.8662 37.411133)
(-561.19061 -301.43662 40.280472)
(-510.97238 -296.16078 43.092408)
(-463.24344 -289.32738 45.499422)
(-418.01267 -280.85012 47.490569)
(-375.22666 -271.89705 49.148603)
(-335.29437 -261.01254 50.146011)
(-297.87403 -249.94317 50.826921)
(-263.3594 -237.20973 50.800077)
(-231.59299 -224.00909 50.407008)
(-202.31339 -210.28715 49.653138)
(-175.72531 -195.80613 48.570552)
(-151.69715 -180.71562 47.086735)
(-130.03924 -165.49428 45.621996)
(-110.56839 -150.07417 44.191366)
(-93.337552 -134.29446 42.452154)
(-78.156504 -118.82149 41.134953)
(-64.666605 -103.21203 39.589608)
(-53.126847 -88.136421 38.377323)
(-43.13996 -73.172318 36.49785)
(-34.920499 -58.3492 34.435097)
(-28.34479 -45.12311 31.472094)
(-21.121562 -31.20165 26.484367)
(-21.031841 -18.301574 16.931623)
(0 0 0)
(0 0 0)
(0 0 0)
(0 0 0)
(0 0 0)
(0 0 0)
(0 0 0)
(0 0 0)
(0 0 0)
(0 0 0)
(0 0 0)
(0 0 0)
(0 0 0)
(0 0 0)
(0 0 0)
(0 0 0)
(0 0 0)
(0 0 0)
(0 0 0)
(0 0 0)
(0 0 0)
(0 0 0)
(0 0 0)
(0 0 0)
(0 0 0)
(0 0 0)
(0 0 0)
(0 0 0)
(0 0 0)
(0 0 0)
(-2812.1545 1131.4822 33.070342)
(-2813.1852 1133.7248 33.201505)
(-2814.419 1135.4611 32.873687)
(-2815.7832 1136.6438 32.237237)
(-2817.2348 1137.2883 31.142017)
(-2818.5299 1137.272 29.661443)
(-2819.6504 1136.6044 27.913505)
(-2820.5085 1135.2826 26.005913)
(-2821.1 1133.3039 24.079315)
(-2821.4348 1130.7538 22.220087)
(-2821.5632 1127.645 20.662652)
(-2821.5622 1124.0705 19.374239)
(-2821.5373 1120.0582 18.553278)
(-2821.6406 1115.7247 18.124155)
(-2821.8618 1110.8748 18.100762)
(-3010.0243 825.23913 18.017074)
(-3013.8359 823.31063 18.172975)
(-3017.438 821.73685 18.711831)
(-3020.7043 820.31283 19.682081)
(-3023.6998 819.04785 21.057374)
(-3026.1863 817.77455 22.716194)
(-3028.0838 816.51278 24.593531)
(-3029.3167 815.19712 26.521758)
(-3029.8189 813.87212 28.405946)
(-3029.5903 812.54941 30.114227)
(-3028.6856 811.27 31.517112)
(-3027.0938 810.18996 32.576849)
(-3025.083 809.22732 33.18576)
(-3022.5071 808.77786 33.420161)
(-3019.7149 808.56797 33.295827)
(-10.698007 -16.030293 -25.999394)
(-15.72291 -30.493957 -30.545274)
(-19.872086 -43.83375 -39.400583)
(-26.075922 -57.124341 -43.674649)
(-32.422286 -70.577235 -48.641127)
(-41.431267 -84.001518 -51.934746)
(-51.619085 -97.575644 -55.028027)
(-64.333105 -111.31601 -57.37139)
(-78.7766 -125.11929 -59.465962)
(-95.565892 -138.87088 -61.272897)
(-114.55918 -152.58418 -62.671203)
(-135.91542 -166.09743 -64.077599)
(-159.58985 -179.42865 -65.175454)
(-185.72168 -192.34604 -66.300513)
(-214.31652 -204.80041 -67.262176)
(-245.43109 -216.61011 -68.268461)
(-278.98591 -227.72759 -69.174633)
(-315.01095 -237.99966 -70.160732)
(-353.497 -247.1124 -71.046523)
(-394.42152 -255.20642 -71.924049)
(-437.63188 -261.90916 -72.715627)
(-483.16578 -267.24068 -73.389522)
(-530.87617 -271.0778 -73.859755)
(-580.67617 -273.2782 -74.146914)
(-632.54724 -273.78269 -74.066503)
(-686.32387 -272.57349 -73.684214)
(-741.89336 -269.56116 -72.852199)
(-799.15258 -264.74433 -71.609837)
(-858.00645 -258.10478 -69.847368)
(-918.27334 -249.67329 -67.617547)
(-979.77664 -239.45146 -64.889524)
(-1042.4451 -227.514 -61.713246)
(-1106.0223 -213.86659 -58.154313)
(-1170.3423 -198.59015 -54.208126)
(-1235.2006 -181.79577 -49.954759)
(-1300.3714 -163.47073 -45.521218)
(-1365.7656 -143.81928 -40.933524)
(-1431.058 -122.81355 -36.273182)
(-1496.1746 -100.58556 -31.582328)
(-1560.911 -77.217671 -26.951643)
(-1625.1122 -52.719909 -22.3786)
(-1688.6275 -27.212954 -17.879895)
(-1751.4813 -0.71842274 -13.443812)
(-1813.454 26.72752 -9.0981934)
(-1874.5577 55.048439 -4.7571122)
(-1934.7015 84.251675 -0.42744033)
(-1993.8486 114.29057 3.9550854)
(-2051.9378 145.13892 8.4136018)
(-2108.8961 176.75167 12.976021)
(-2164.6335 209.08192 17.655492)
(-2219.0274 242.05332 22.440655)
(-2271.9266 275.5795 27.302933)
(-2323.1468 309.53911 32.188559)
(-2372.4675 343.79148 37.023406)
(-2419.6457 378.16112 41.710382)
(-2464.4114 412.44977 46.140985)
(-2506.4898 446.43199 50.193913)
(-2545.6021 479.86362 53.745015)
(-2581.4882 512.48503 56.6745)
(-2613.917 544.02911 58.875623)
(-2642.6961 574.23102 60.253018)
(-2667.6987 602.83612 60.74387)
(-2688.8489 629.60081 60.303604)
(-2706.1722 654.3071 58.929833)
(-2719.7401 676.7953 56.648549)
(-2729.6583 696.88167 53.46432)
(-2736.2508 714.46231 49.550177)
(-2739.7845 729.60585 44.93938)
(-2740.7949 742.16078 39.747137)
(-2739.5031 752.17694 34.131996)
(-2736.4771 759.87377 28.278878)
(-2732.2066 765.23552 22.246839)
(-2727.1884 768.54542 16.227527)
(-2721.9116 770.00808 10.369786)
(-2716.8975 769.84057 4.7684396)
(-2712.5849 768.36623 -0.44560711)
(-2709.4169 765.88853 -5.1813151)
(-2707.7737 762.7233 -9.3569283)
(-2707.9657 759.22185 -12.899758)
(-2710.2824 755.69832 -15.763759)
(-2714.8886 752.52448 -17.917205)
(-2721.9511 749.953 -19.288765)
(-2731.5187 748.22937 -19.917069)
(-2743.5298 747.77246 -19.791535)
(-2757.998 748.66298 -18.962172)
(-2774.5227 751.00992 -17.423749)
(-2793.2605 754.99839 -15.223937)
(-2813.5752 760.56314 -12.445143)
(-2835.3327 767.72682 -9.1804496)
(-2858.1774 776.39846 -5.4038726)
(-2881.2971 786.20687 -1.4693375)
(-2905.0417 797.43467 2.8350676)
(-2927.916 808.95838 7.1173859)
(-2950.505 821.52883 11.434903)
(-2971.9638 834.44087 15.958222)
(-4.7735646 -15.54112 -24.925182)
(-8.9315916 -25.437344 -29.338874)
(-14.599333 -39.290813 -35.874741)
(-19.551388 -50.501101 -40.483814)
(-26.337784 -63.392036 -44.170116)
(-34.463295 -75.217612 -47.321744)
(-44.716947 -87.850054 -49.754474)
(-56.679182 -100.01434 -51.990043)
(-70.803961 -112.37916 -53.824422)
(-87.051704 -124.5285 -55.27053)
(-105.49874 -136.65976 -56.654824)
(-126.21962 -148.50649 -57.752094)
(-149.30047 -160.1147 -58.789259)
(-174.80417 -171.29707 -59.710764)
(-202.7255 -182.01221 -60.624294)
(-233.14281 -192.05932 -61.462762)
(-266.01781 -201.44539 -62.35658)
(-301.38872 -209.82383 -63.216883)
(-339.18253 -217.27227 -64.084769)
(-379.41387 -223.53028 -64.915733)
(-421.95069 -228.52355 -65.705225)
(-466.80353 -232.13692 -66.369424)
(-513.8463 -234.25246 -66.919385)
(-563.02326 -234.78592 -67.232676)
(-614.21152 -233.66469 -67.293613)
(-667.34137 -230.88872 -67.014306)
(-722.26831 -226.35148 -66.388218)
(-778.92009 -220.10527 -65.341301)
(-837.13355 -212.09123 -63.856521)
(-896.79982 -202.40559 -61.921056)
(-957.76123 -191.01582 -59.567858)
(-1019.848 -177.99875 -56.785498)
(-1082.8851 -163.43711 -53.622881)
(-1146.6982 -147.37095 -50.114926)
(-1211.1217 -129.88055 -46.378055)
(-1275.9566 -111.02537 -42.409367)
(-1340.979 -90.917747 -38.320003)
(-1406.0227 -69.593875 -34.142207)
(-1470.9207 -47.183501 -29.953871)
(-1535.477 -23.703768 -25.77304)
(-1599.5785 0.76949252 -21.661341)
(-1663.1157 26.174109 -17.573902)
(-1725.9299 52.519727 -13.595415)
(-1787.9984 79.68561 -9.6441381)
(-1849.229 107.69668 -5.7219177)
(-1909.5707 136.50519 -1.7932661)
(-1968.9686 166.07868 2.1698372)
(-2027.3695 196.37742 6.1881327)
(-2084.706 227.35491 10.292698)
(-2140.8904 258.93949 14.476359)
(-2195.8095 291.05222 18.737431)
(-2249.3171 323.58165 23.040758)
(-2301.2365 356.39939 27.341966)
(-2351.351 389.34532 31.569841)
(-2399.423 422.23868 35.645253)
(-2445.1821 454.87146 39.469881)
(-2488.3516 487.02165 42.942841)
(-2528.6466 518.44501 45.958296)
(-2565.7973 548.89942 48.418436)
(-2599.5558 578.13017 50.231647)
(-2629.7145 605.90221 51.32683)
(-2656.1235 631.98013 51.649716)
(-2678.6773 656.16844 51.172745)
(-2697.3829 678.26701 49.905741)
(-2712.2535 698.20992 47.83058)
(-2723.4493 715.75234 45.086379)
(-2731.4833 731.04656 41.748786)
(-2736.218 743.75701 37.787356)
(-2737.9841 754.09954 33.317039)
(-2737.3393 762.24102 28.529987)
(-2734.8092 768.21276 23.576636)
(-2730.8517 772.1645 18.520642)
(-2725.9122 774.32 13.522343)
(-2720.5207 774.88647 8.6369012)
(-2715.1999 774.11723 4.0230951)
(-2710.4033 772.35197 -0.2523987)
(-2706.621 769.82028 -4.0944979)
(-2704.2045 766.90414 -7.45114)
(-2703.5487 763.87971 -10.264846)
(-2704.9234 761.06566 -12.479358)
(-2708.5333 758.77665 -14.09762)
(-2714.6088 757.26688 -15.071533)
(-2723.1428 756.784 -15.377477)
(-2734.2563 757.60296 -15.134681)
(-2747.7212 759.82227 -14.152981)
(-2763.563 763.41908 -12.644534)
(-2781.482 768.66192 -10.570737)
(-2801.2928 775.45361 -8.071865)
(-2822.4711 783.62905 -5.0100594)
(-2845.0165 793.39333 -1.7707265)
(-2867.8873 803.84749 1.9711971)
(-2891.4741 815.89536 5.7078218)
(-2914.3743 827.98637 9.7930533)
(-2937.0469 840.93013 13.877712)
(-2958.7148 854.30187 18.182122)
(-0.76797322 -13.02204 -22.577558)
(-4.8145918 -22.215418 -26.352741)
(-8.1392345 -33.558963 -33.201293)
(-13.591118 -44.228093 -36.720539)
(-19.770956 -55.407103 -39.910302)
(-28.213719 -66.471424 -42.395104)
(-37.825073 -77.452314 -44.623346)
(-49.64812 -88.303582 -46.53298)
(-63.286016 -99.110698 -47.84976)
(-79.087088 -109.8126 -49.326557)
(-96.967489 -120.28123 -50.285394)
(-117.17085 -130.51922 -51.332901)
(-139.64265 -140.45362 -52.088737)
(-164.50037 -149.95385 -52.974984)
(-191.77485 -158.90878 -53.643922)
(-221.5321 -167.28933 -54.486671)
(-253.74658 -174.82734 -55.195108)
(-288.40876 -181.55533 -56.063659)
(-325.55684 -187.20946 -56.831957)
(-365.08025 -191.77276 -57.692559)
(-406.97718 -195.02994 -58.460085)
(-451.1612 -196.97536 -59.19973)
(-497.55355 -197.41432 -59.778439)
(-546.05246 -196.3772 -60.215502)
(-596.62103 -193.70385 -60.384458)
(-649.10034 -189.44195 -60.298044)
(-703.41355 -183.4805 -59.864884)
(-759.43431 -175.90181 -59.062929)
(-817.05107 -166.64021 -57.859107)
(-876.11909 -155.78358 -56.262371)
(-936.48907 -143.33037 -54.245911)
(-998.02267 -129.38043 -51.852673)
(-1060.539 -113.9547 -49.107578)
(-1123.8843 -97.135577 -46.078998)
(-1187.8549 -79.004982 -42.780193)
(-1252.2521 -59.651786 -39.297502)
(-1316.9001 -39.139846 -35.702127)
(-1381.6197 -17.545224 -32.035324)
(-1446.2389 5.0995388 -28.309807)
(-1510.6186 28.668534 -24.619105)
(-1574.5947 53.156044 -20.941046)
(-1638.0429 78.494614 -17.321296)
(-1700.8719 104.62622 -13.759807)
(-1763.0026 131.55499 -10.236514)
(-1824.3574 159.2269 -6.7272662)
(-1884.8875 187.60161 -3.2164651)
(-1944.5392 216.65472 0.31684094)
(-2003.2597 246.33807 3.9035493)
(-2060.9799 276.59684 7.5452549)
(-2117.6157 307.3562 11.250386)
(-2173.0549 338.52826 15.002578)
(-2227.1535 369.99325 18.77517)
(-2279.7349 401.61851 22.520159)
(-2330.5871 433.23622 26.181139)
(-2379.4699 464.66528 29.681835)
(-2426.1139 495.69701 32.942034)
(-2470.2392 526.11184 35.872699)
(-2511.5568 555.67557 38.388401)
(-2549.7882 584.15435 40.404856)
(-2584.6781 611.31122 41.851818)
(-2616.0056 636.92735 42.672918)
(-2643.6014 660.79359 42.824147)
(-2667.3485 682.73044 42.306891)
(-2687.2355 702.59309 41.084194)
(-2703.2435 720.25795 39.250137)
(-2715.575 735.63084 36.772048)
(-2724.3296 748.85942 33.850578)
(-2729.5652 759.78957 30.169241)
(-2732.3256 768.27755 26.528924)
(-2732.3743 774.68871 22.531495)
(-2730.4337 779.1847 18.422103)
(-2726.8054 781.81519 14.264499)
(-2722.0871 782.86828 10.151077)
(-2716.7829 782.59301 6.2621306)
(-2711.432 781.22151 2.6404014)
(-2706.4573 779.03543 -0.65668017)
(-2702.3598 776.37658 -3.5576979)
(-2699.5217 773.52246 -6.0284816)
(-2698.3248 770.77257 -8.0133314)
(-2699.0804 768.44277 -9.5084558)
(-2702.0263 766.78138 -10.499935)
(-2707.3584 766.05191 -10.939074)
(-2715.1857 766.45188 -10.932495)
(-2725.4156 768.19299 -10.35251)
(-2738.2829 771.39172 -9.3720079)
(-2753.4071 776.0816 -7.8492253)
(-2770.8286 782.34098 -5.9484726)
(-2789.9804 790.08967 -3.5911905)
(-2810.7982 799.23994 -0.97550715)
(-2832.9406 809.72754 2.0642449)
(-2855.5042 821.04316 5.2264041)
(-2879.0189 833.68207 8.7078535)
(-2901.7276 846.31813 12.301311)
(-2924.4435 859.73428 16.051979)
(-2946.0836 873.4101 20.036595)
(1.6839278 -12.733619 -20.333175)
(0.0016317577 -19.071792 -24.661285)
(-3.062013 -29.098587 -29.68079)
(-7.9223823 -37.743621 -32.68984)
(-14.109652 -47.925373 -35.219853)
(-21.852436 -57.239769 -37.596079)
(-31.342058 -66.970337 -39.428029)
(-42.73524 -76.241084 -40.793667)
(-55.999473 -85.728326 -42.20431)
(-71.330286 -94.719309 -43.183062)
(-88.755807 -103.69172 -44.094884)
(-108.42346 -112.28796 -44.825421)
(-130.30647 -120.60033 -45.550277)
(-154.61102 -128.38119 -46.147142)
(-181.25488 -135.75276 -46.818889)
(-210.41168 -142.34788 -47.447041)
(-241.93161 -148.27341 -48.176938)
(-276.0261 -153.26606 -48.900874)
(-312.46267 -157.26571 -49.700463)
(-351.38157 -160.14076 -50.51532)
(-392.61195 -161.78598 -51.322362)
(-436.16798 -162.10096 -52.081971)
(-481.90909 -160.99433 -52.761765)
(-529.82831 -158.41401 -53.278321)
(-579.7545 -154.26853 -53.608574)
(-631.63443 -148.58309 -53.680846)
(-685.34491 -141.28467 -53.453017)
(-740.78019 -132.42942 -52.888621)
(-797.79972 -121.98084 -51.975081)
(-856.29679 -110.03374 -50.675637)
(-916.11703 -96.584526 -49.021158)
(-977.10668 -81.721651 -47.011895)
(-1039.112 -65.488386 -44.695952)
(-1101.9533 -47.990248 -42.080628)
(-1165.4471 -29.266808 -39.254411)
(-1229.4265 -9.4391161 -36.245132)
(-1293.7235 11.50055 -33.123817)
(-1358.1502 33.397034 -29.864957)
(-1422.4942 56.174037 -26.64378)
(-1486.6424 79.845032 -23.393817)
(-1550.4402 104.30705 -20.189608)
(-1613.7857 129.53601 -17.021053)
(-1676.5714 155.49051 -13.890245)
(-1738.7101 182.12074 -10.784759)
(-1800.1499 209.4007 -7.6997146)
(-1860.8293 237.29565 -4.6166094)
(-1920.6985 265.77193 -1.5082478)
(-1979.7002 294.772 1.6305323)
(-2037.7678 324.24392 4.811759)
(-2094.8158 354.10401 8.0321584)
(-2150.7308 384.26326 11.275724)
(-2205.3677 414.59862 14.514084)
(-2258.5506 444.97639 17.706699)
(-2310.0643 475.22921 20.799102)
(-2359.6674 505.18018 23.728465)
(-2407.088 534.62332 26.424298)
(-2452.0429 563.34999 28.81548)
(-2494.2366 591.13382 30.829576)
(-2533.3872 617.7557 32.402446)
(-2569.229 642.99268 33.481022)
(-2601.5319 666.64671 34.020218)
(-2630.1132 688.52061 34.004635)
(-2654.8609 708.47323 33.415273)
(-2675.6997 726.34771 32.282052)
(-2692.6809 742.09536 30.633945)
(-2705.8556 755.63112 28.494308)
(-2715.5393 767.01425 25.995732)
(-2721.6929 776.15657 23.180993)
(-2725.0269 783.15692 20.143359)
(-2725.6905 788.18485 16.910415)
(-2724.1201 791.4673 13.591982)
(-2720.9449 793.04179 10.348574)
(-2716.6295 793.28916 7.2765348)
(-2711.5216 792.27748 4.3577111)
(-2706.1513 790.37398 1.6880873)
(-2701.0783 787.88657 -0.69913124)
(-2696.7663 785.07845 -2.7331581)
(-2693.6152 782.27354 -4.4018755)
(-2692.0446 779.73582 -5.6683942)
(-2692.337 777.7618 -6.5407648)
(-2694.7802 776.59526 -6.9855051)
(-2699.5807 776.45302 -7.0248546)
(-2706.7871 777.58153 -6.6788924)
(-2716.5819 780.06006 -5.9154036)
(-2728.7613 784.05763 -4.7466538)
(-2743.3906 789.49981 -3.271029)
(-2760.1703 796.56565 -1.4707458)
(-2778.9719 805.08186 0.59692913)
(-2799.3214 814.93421 3.0016581)
(-2821.1743 826.14287 5.5690767)
(-2843.4825 838.03847 8.4152465)
(-2866.841 851.2449 11.41218)
(-2889.4476 864.34755 14.580516)
(-2912.122 878.13949 17.976826)
(-2933.7431 891.96546 21.518443)
(4.5488325 -10.801698 -17.82813)
(3.7196532 -15.770837 -21.028402)
(1.5577291 -24.276208 -25.660086)
(-2.8290198 -31.880293 -28.559999)
(-8.4693954 -40.173798 -30.809147)
(-16.118496 -48.17448 -32.763474)
(-25.324537 -56.258846 -33.888663)
(-36.395768 -64.227532 -35.43333)
(-49.262666 -71.929204 -36.169036)
(-64.212803 -79.494363 -37.143414)
(-81.1522 -86.814647 -37.663094)
(-100.27974 -93.824278 -38.387192)
(-121.65515 -100.44321 -38.75248)
(-145.33501 -106.6691 -39.381987)
(-171.41803 -112.29509 -39.776221)
(-199.87833 -117.28958 -40.443412)
(-230.85372 -121.5505 -40.975402)
(-264.22704 -124.89437 -41.74052)
(-300.07705 -127.26628 -42.463616)
(-338.32859 -128.54225 -43.314944)
(-378.94641 -128.57949 -44.128236)
(-421.85156 -127.3521 -44.982182)
(-467.00846 -124.70884 -45.721125)
(-514.27445 -120.66463 -46.383318)
(-563.60051 -115.09571 -46.857083)
(-614.87151 -108.0672 -47.119499)
(-667.98631 -99.470486 -47.111564)
(-722.81041 -89.415967 -46.815703)
(-779.25875 -77.835095 -46.180861)
(-837.17243 -64.855099 -45.218036)
(-896.41692 -50.443087 -43.917484)
(-956.85765 -34.739219 -42.299293)
(-1018.3207 -17.757463 -40.380562)
(-1080.6451 0.40021189 -38.216638)