/*--------------------------------*- C++ -*----------------------------------*\
  =========                 |
  \\      /  F ield         | OpenFOAM: The Open Source CFD Toolbox
   \\    /   O peration     | Website:  https://openfoam.org
    \\  /    A nd           | Version:  6
     \\/     M anipulation  |
\*---------------------------------------------------------------------------*/
FoamFile
{
    version     2.0;
    format      ascii;
    class       pointVectorField;
    location    "1.15";
    object      u;
}
// * * * * * * * * * * * * * * * * * * * * * * * * * * * * * * * * * * * * * //

dimensions      [0 1 0 0 0 0 0];

internalField   nonuniform List<vector> 
625
(
(0 2.2085962e-19 0)
(0 1.9875595e-19 0)
(-1.2721595 -0.32148504 0.040382615)
(-1.3216165 -0.010867779 0.045942275)
(0 2.8637977e-19 0)
(0 1.5542776e-18 0)
(-1.3257827 -0.01637867 0.04614933)
(-1.2763702 -0.32682415 0.040254584)
(0 -3.3572786e-20 0)
(1.54362e-19 -3.5855559e-19 0)
(0 7.3352965e-19 0)
(-1.284554 -0.24367503 0.041853336)
(-1.2966848 -0.1661305 0.043212325)
(-1.3091661 -0.088618923 0.044558719)
(-0.00042844216 -0.0095880828 -0.010028658)
(-0.0072752595 -0.019892557 -0.0098460998)
(-0.021079653 -0.031154796 -0.008653654)
(-0.04141817 -0.043121857 -0.0061823705)
(-0.066870133 -0.054779414 -0.003776251)
(-0.098457221 -0.067733587 -0.00054418899)
(-0.13497073 -0.080451117 0.0022556925)
(-0.17668278 -0.094036919 0.0055428073)
(-0.22337402 -0.10792299 0.0085457896)
(-0.27439769 -0.12215794 0.011926579)
(-0.32981726 -0.13689976 0.014907625)
(-0.38908286 -0.15184858 0.017910431)
(-0.4520376 -0.16701767 0.020737701)
(-0.51812972 -0.1822699 0.023411019)
(-0.58710335 -0.19750965 0.025886469)
(-0.65848116 -0.21263437 0.02817662)
(-0.73189867 -0.2275306 0.03028536)
(-0.8069748 -0.24212018 0.032174408)
(-0.88328918 -0.2563645 0.033957304)
(-0.96044407 -0.27015087 0.035502035)
(-1.038319 -0.28353133 0.036932332)
(-1.1162047 -0.29657234 0.038224876)
(-1.194346 -0.30907053 0.03931251)
(-0.0001028328 0.010816372 0.014074958)
(-0.01089427 0.023759641 0.012857706)
(-0.02627657 0.036931145 0.015615538)
(-0.047649879 0.049092309 0.017340114)
(-0.075496369 0.059791445 0.019515853)
(-0.10975704 0.069883026 0.021894398)
(-0.14883165 0.077931669 0.024573963)
(-0.19390758 0.084587113 0.026894762)
(-0.24389703 0.08975942 0.029510072)
(-0.2984508 0.092864007 0.03172244)
(-0.35733874 0.094476831 0.033887906)
(-0.42019546 0.094222276 0.035734514)
(-0.48635874 0.092223971 0.037427019)
(-0.55558904 0.088530054 0.038798833)
(-0.6273275 0.083265047 0.039980989)
(-0.70116769 0.076493188 0.040922145)
(-0.77665833 0.068416833 0.041693179)
(-0.85339225 0.0591355 0.042339344)
(-0.93100411 0.048912561 0.042851059)
(-1.0091135 0.037802484 0.043386758)
(-1.0874996 0.026150067 0.043854646)
(-1.1657768 0.014028466 0.044456606)
(-1.2439351 0.001585987 0.045123963)
(0 2.0053226e-19 0)
(-2.7403681e-18 -5.8963494e-19 0)
(0 1.494413e-18 0)
(-0.001534708 0.005264623 -0.0088104301)
(-0.010309188 0.023326531 -0.0098590115)
(-0.025607641 0.029811626 -0.0063666613)
(-0.047547757 0.04189628 -0.0037002806)
(-0.076292672 0.051961971 -0.0011853945)
(-0.11020822 0.060253333 0.0027114981)
(-0.14988038 0.067850612 0.0057309937)
(-0.19538921 0.074487621 0.009457175)
(-0.24564865 0.079295511 0.012871571)
(-0.3005884 0.082658769 0.016378324)
(-0.35988925 0.084483984 0.019697859)
(-0.42293323 0.084540391 0.022931632)
(-0.48951401 0.083113336 0.025909953)
(-0.55894342 0.079865271 0.028769391)
(-0.63098418 0.07520984 0.031343801)
(-0.70498649 0.068946505 0.033732192)
(-0.78065883 0.061395859 0.035885394)
(-0.85750048 0.052571947 0.037828927)
(-0.93517304 0.04270998 0.039585751)
(-1.0133209 0.031926885 0.041154915)
(-1.0916635 0.020472106 0.042574434)
(-1.1699532 0.0084453012 0.043842264)
(-1.2480239 -0.0039027841 0.044994562)
(-1.3133166 -0.094110506 0.044686487)
(-1.3007898 -0.17151768 0.043160081)
(-1.2887801 -0.2489994 0.04164331)
(-1.1985798 -0.3144224 0.039421886)
(-1.1204023 -0.30190064 0.038684061)
(-1.042327 -0.28898654 0.038052027)
(-0.96442533 -0.27579092 0.037516951)
(-0.88703895 -0.26222381 0.037006302)
(-0.81051566 -0.24834932 0.036470738)
(-0.73521562 -0.23417464 0.035873574)
(-0.661534 -0.21979286 0.035177147)
(-0.58986959 -0.20522778 0.03433356)
(-0.52064739 -0.19061237 0.033324816)
(-0.45427469 -0.17592064 0.032104574)
(-0.39111016 -0.16139829 0.030740055)
(-0.33161366 -0.14694286 0.029116831)
(-0.27585545 -0.13262343 0.027335906)
(-0.2253383 -0.11831161 0.025213145)
(-0.17816588 -0.1047087 0.023385237)
(-0.13672161 -0.091075116 0.021179075)
(-0.099810276 -0.077441053 0.019126712)
(-0.069367982 -0.064015118 0.017049137)
(-0.043347305 -0.050643404 0.015063662)
(-0.023023373 -0.037973027 0.013913325)
(-0.010161507 -0.023468057 0.011966268)
(-0.0057537121 -0.011749579 0.0078548622)
(0 -3.5806681e-19 0)
(0 -3.7338872e-19 -7.7015156e-19)
(0 -1.1004649e-18 0)
(0 6.4700827e-19 0)
(0 -7.1590223e-20 2.2826785e-19)
(0 4.9279898e-19 0)
(-1.3226941 -0.01211672 0.046040599)
(-1.3237676 -0.01349355 0.046042174)
(-1.3247286 -0.014864017 0.046090356)
(-1.2731988 -0.32291542 0.040332051)
(-1.2742893 -0.32428169 0.040356419)
(-1.2753028 -0.32559608 0.040281494)
(0.0035821232 -0.0050350955 -0.0058979917)
(-0.0037220908 -0.0092574008 -0.0037700266)
(-0.017762126 -0.01414386 -0.0025590897)
(-0.038511439 -0.019678504 -0.00018549373)
(-0.064616625 -0.025719241 0.0022955644)
(-0.097135615 -0.032786603 0.0050145721)
(-0.13460126 -0.040078652 0.0079499353)
(-0.17734806 -0.04857829 0.010925995)
(-0.22494805 -0.057499322 0.013939219)
(-0.27734168 -0.067420189 0.016880946)
(-0.3339243 -0.077993785 0.019689559)
(-0.39443111 -0.089202395 0.022405052)
(-0.45849888 -0.10104727 0.02494278)
(-0.52571185 -0.1134237 0.027303555)
(-0.59569121 -0.12619672 0.029465304)
(-0.66797843 -0.13928182 0.031437557)
(-0.74222003 -0.15255731 0.033214321)
(-0.81792614 -0.16591309 0.034811638)
(-0.89479499 -0.17928351 0.036258245)
(-0.97239166 -0.19250351 0.037522628)
(-1.0504888 -0.20561757 0.03875459)
(-1.1285833 -0.21849957 0.039780145)
(-1.206821 -0.23118387 0.040810903)
(0.0048692741 0.00054472632 0.001165268)
(-0.0043166402 0.0023819905 0.0026807911)
(-0.018479064 0.0031029381 0.0042036213)
(-0.039399891 0.0034102637 0.0059635482)
(-0.066559069 0.0032325823 0.0083709071)
(-0.099269534 0.0017908701 0.010962356)
(-0.13749078 -0.00041131402 0.013690883)
(-0.18113264 -0.0038505171 0.016448347)
(-0.22967459 -0.0081252238 0.0191592)
(-0.28282976 -0.013712594 0.021874343)
(-0.34026175 -0.020237453 0.024437668)
(-0.40161055 -0.027917781 0.026831662)
(-0.46650014 -0.036531571 0.029036005)
(-0.53449909 -0.046086399 0.031038773)
(-0.60517289 -0.056410422 0.032842973)
(-0.67810706 -0.067463262 0.034451771)
(-0.75287386 -0.079046152 0.035880285)
(-0.8290428 -0.09109191 0.037155929)
(-0.9062905 -0.10342891 0.038293011)
(-0.98413355 -0.11595368 0.039370377)
(-1.0624348 -0.12857089 0.0403121)
(-1.1407073 -0.14119764 0.041294851)
(-1.2190598 -0.15377774 0.042233603)
(0.0042442682 0.0061408874 0.0060594843)
(-0.005968038 0.012617932 0.007588003)
(-0.019970658 0.019260592 0.0092816404)
(-0.041749114 0.025452422 0.011270905)
(-0.06909035 0.031000597 0.013727884)
(-0.10237242 0.034843613 0.016213763)
(-0.14148141 0.037999622 0.018853887)
(-0.18571874 0.039572733 0.021463315)
(-0.23497591 0.039867563 0.024150273)
(-0.28893667 0.038688976 0.026643691)
(-0.34724543 0.036130074 0.028984428)
(-0.40938915 0.032122104 0.031143072)
(-0.47508629 0.026816238 0.033090272)
(-0.54377955 0.020181455 0.034831405)
(-0.61512937 0.012383782 0.036344262)
(-0.68864559 0.0035026268 0.037664437)
(-0.76390706 -0.0062860678 0.038795793)
(-0.84052704 -0.016876777 0.039777901)
(-0.9180531 -0.028091815 0.040667857)
(-0.99625059 -0.039753322 0.041413036)
(-1.0746509 -0.051803411 0.042239692)
(-1.1531295 -0.063983019 0.042950557)
(-1.231408 -0.076274926 0.043772542)
(0 -2.2688124e-19 0)
(0 3.7485691e-19 7.8627803e-19)
(0 8.1671159e-19 0)
(-4.0922824e-19 8.1711042e-21 0)
(1.7092529e-19 -2.5325903e-19 -1.2614055e-20)
(-1.0771607e-18 -9.6873019e-19 0)
(0 3.6849947e-19 0)
(0 9.9035153e-19 -2.6338991e-20)
(0 1.0906017e-18 0)
(-0.0047871773 0.0045608351 0.0057865825)
(-0.0057173457 0.0055394031 0.00091508551)
(-0.0045806382 0.0037157778 -0.0031540712)
(-0.016779359 0.02459223 0.0069297914)
(-0.016185976 0.02357917 0.0017782946)
(-0.015101452 0.021658996 -0.0044492361)
(-0.029780632 0.034178515 0.0093918713)
(-0.030706009 0.032037944 0.0040485622)
(-0.030288092 0.032380499 -0.0018852512)
(-0.052078976 0.0468368 0.011223164)
(-0.053235585 0.045703645 0.0060743599)
(-0.051744044 0.043216879 0.00079449907)
(-0.08002832 0.057556162 0.013833219)
(-0.080635491 0.055011653 0.0090410746)
(-0.080173548 0.053722106 0.0035437861)
(-0.11344643 0.066898255 0.016621994)
(-0.11474765 0.064536435 0.011447642)
(-0.11380647 0.062292507 0.0068915014)
(-0.15296142 0.07489459 0.019253714)
(-0.15420065 0.072632737 0.01511799)
(-0.1536769 0.070302992 0.0097605204)
(-0.19796909 0.081765733 0.022200793)
(-0.19878187 0.078542224 0.017827969)
(-0.1984647 0.076537544 0.013390914)
(-0.24758277 0.086466938 0.024891365)
(-0.24878793 0.083956287 0.021043335)
(-0.24852098 0.081625753 0.016567346)
(-0.30207676 0.089963606 0.027633782)
(-0.30326548 0.087152361 0.02389544)
(-0.30316722 0.084864622 0.019859441)
(-0.3608798 0.091585107 0.030045301)
(-0.36209429 0.088878393 0.026685537)
(-0.36206468 0.086644574 0.022916057)
(-0.42344 0.091439804 0.032298585)
(-0.42462957 0.088802623 0.029290866)
(-0.42481975 0.086649683 0.025846054)
(-0.48947585 0.089655135 0.034338861)
(-0.49074443 0.087172559 0.031641439)
(-0.49102189 0.085086734 0.028542861)
(-0.55847194 0.086163361 0.036113589)
(-0.55969528 0.083754829 0.033772641)
(-0.56012519 0.081812685 0.031056028)
(-0.62999925 0.081107353 0.037671852)
(-0.63125148 0.078887828 0.035673467)
(-0.63178846 0.077016751 0.033330311)
(-0.70360259 0.074559476 0.0390034)
(-0.70483097 0.072442249 0.037346598)
(-0.70548609 0.070708321 0.035372087)
(-0.77886244 0.066666347 0.040150628)
(-0.7800785 0.06472394 0.038812093)
(-0.78082064 0.063057949 0.037219669)
(-0.85536005 0.057580453 0.041125711)
(-0.85655763 0.055738441 0.040106511)
(-0.857385 0.05418254 0.038851581)
(-0.93274325 0.047471892 0.041996266)
(-0.93390345 0.045774577 0.041246814)
(-0.93478944 0.044264152 0.040326133)
(-1.0106415 0.036496667 0.042773696)
(-1.011775 0.034875826 0.042269036)
(-1.012717 0.033439682 0.04164755)
(-1.0887934 0.02488981 0.043514406)
(-1.0898986 0.023376252 0.043243965)
(-1.0908727 0.021954405 0.042849508)
(-1.1669603 0.012777832 0.044302046)
(-1.1680438 0.011314963 0.044159791)
(-1.1690541 0.0099269052 0.043957328)
(-1.2449905 0.000348075 0.045115918)
(-1.2460424 -0.0010340839 0.045090987)
(-1.2470582 -0.0024570572 0.045005148)
(-1.2856176 -0.24509026 0.041779555)
(-1.2867046 -0.24644856 0.04175029)
(-1.2877075 -0.24775869 0.041684792)
(-1.2977245 -0.16749367 0.043172704)
(-1.2988131 -0.1688493 0.043194672)
(-1.2997649 -0.17020781 0.043170526)
(-1.3102912 -0.08986179 0.044598127)
(-1.3113663 -0.091243858 0.044650211)
(-1.3123422 -0.092609323 0.044655608)
(-0.0062047472 -0.0081590931 -0.0052733733)
(-0.0070871848 -0.0098107529 -0.0018551411)
(-0.0084670306 -0.0097929477 0.0023860846)
(-0.013030403 -0.020148557 -0.0047043494)
(-0.014386656 -0.022143661 0.00079302957)
(-0.014138775 -0.022220849 0.0066187012)
(-0.026812447 -0.033866147 -0.003466839)
(-0.028048865 -0.034900398 0.0014710427)
(-0.028300532 -0.036693072 0.0085552736)
(-0.046655145 -0.044926006 -0.00093961279)
(-0.047845994 -0.047535611 0.0038090145)
(-0.047703696 -0.048994459 0.010131365)
(-0.071784396 -0.0583594 0.0011006181)
(-0.073415976 -0.060634955 0.0065230953)
(-0.073025023 -0.062648697 0.012011308)
(-0.10331119 -0.070950387 0.0043567749)
(-0.10412717 -0.073391873 0.0084718995)
(-0.10419393 -0.075757365 0.014658216)
(-0.13949805 -0.083945858 0.007004696)
(-0.14067706 -0.086846788 0.011467826)
(-0.14047628 -0.089273101 0.0168251)
(-0.18112427 -0.097633407 0.010082289)
(-0.18193891 -0.10056234 0.014148198)
(-0.18184572 -0.10298332 0.019444035)
(-0.22696454 -0.11169577 0.012759729)
(-0.22846807 -0.11441232 0.017171931)
(-0.22802706 -0.11694386 0.021373074)
(-0.27826885 -0.12597999 0.01599549)
(-0.27904626 -0.1286029 0.019162959)
(-0.2791521 -0.13109445 0.024048189)
(-0.33331577 -0.14042881 0.018642781)
(-0.33427656 -0.14310223 0.022076113)
(-0.33416945 -0.14549515 0.026045644)
(-0.39238636 -0.15534489 0.021373498)
(-0.39325034 -0.15780067 0.024317215)
(-0.3933578 -0.1601468 0.028005348)
(-0.45501362 -0.17028085 0.023823357)
(-0.45594346 -0.17263068 0.02652849)
(-0.45608574 -0.17481599 0.029717746)
(-0.52087769 -0.18533948 0.026149165)
(-0.52181484 -0.187516 0.028466008)
(-0.52206864 -0.1895549 0.031263405)
(-0.58958082 -0.20034572 0.028248167)
(-0.5905378 -0.20234078 0.030253717)
(-0.59088554 -0.20427238 0.032605134)
(-0.66070399 -0.21521838 0.03017152)
(-0.66170811 -0.21708072 0.031819809)
(-0.66215025 -0.21887568 0.033764396)
(-0.73390543 -0.22989145 0.031889834)
(-0.73491933 -0.23159348 0.033237253)
(-0.73546238 -0.23328139 0.034765666)
(-0.808727 -0.24425644 0.03346151)
(-0.80977553 -0.24585502 0.034476168)
(-0.81041523 -0.24743709 0.035638653)
(-0.88483224 -0.25828671 0.034846075)
(-0.88592445 -0.25976962 0.035599936)
(-0.88663275 -0.26128399 0.036426122)
(-0.96185882 -0.27188674 0.03606915)
(-0.9629502 -0.27336179 0.036647005)
(-0.96375213 -0.27478381 0.037145567)
(-1.0395002 -0.2851272 0.037296654)
(-1.0406183 -0.28649959 0.037594907)
(-1.0414609 -0.28789568 0.037860387)
(-1.1173691 -0.29801475 0.038383123)
(-1.1184052 -0.29938792 0.038504786)
(-1.1193652 -0.30074412 0.03860275)
(-1.1954291 -0.31050741 0.039339195)
(-1.1964831 -0.31185651 0.039375592)
(-1.1975083 -0.31319839 0.039410005)
(0.0011582307 -0.0040510127 0.0057097975)
(-0.0058287546 -0.016076139 0.0076107818)
(-0.01877959 -0.019990105 0.0081593736)
(-0.04004771 -0.02784275 0.010344451)
(-0.066099086 -0.035284785 0.01254938)
(-0.09834864 -0.04264347 0.014680102)
(-0.13593863 -0.050801027 0.017077261)
(-0.178716 -0.059218323 0.019567433)
(-0.22659552 -0.068335824 0.021905426)
(-0.27895836 -0.077839725 0.024174879)
(-0.33569105 -0.088064157 0.026465837)
(-0.39646939 -0.098721013 0.028380401)
(-0.46078296 -0.10997801 0.030221066)
(-0.52827651 -0.12173493 0.031845516)
(-0.59852739 -0.13388172 0.033278837)
(-0.67111027 -0.1463689 0.034534679)
(-0.74558341 -0.15912007 0.035635907)
(-0.82155053 -0.17203144 0.036614905)
(-0.89859861 -0.18501496 0.037494801)
(-0.97638363 -0.19801722 0.038321894)
(-1.0545598 -0.2109709 0.039117263)
(-1.1327872 -0.22376043 0.03996213)
(-1.2110571 -0.23652283 0.040750546)
(0.0043843064 -0.0019041101 0.00015529081)
(-0.0041480863 -0.003728868 0.0022449686)
(-0.019382581 -0.0026522198 0.0032586811)
(-0.040794291 -0.0048976337 0.0060476613)
(-0.067500085 -0.0061884309 0.0084126837)
(-0.10071787 -0.007930978 0.010755988)
(-0.13898031 -0.011079071 0.013654206)
(-0.18277992 -0.014642252 0.016444284)
(-0.23159329 -0.018898955 0.019054947)
(-0.28482312 -0.024428694 0.021876188)
(-0.34259316 -0.030594094 0.0243303)
(-0.40421228 -0.037836681 0.026757859)
(-0.46937794 -0.045870363 0.028970537)
(-0.53763496 -0.054905849 0.030980583)
(-0.60856515 -0.064596569 0.032781707)
(-0.6817203 -0.07509401 0.034404438)
(-0.75668243 -0.086146215 0.03583477)
(-0.83302608 -0.09771184 0.037124358)
(-0.91036952 -0.10966329 0.038266202)
(-0.98833231 -0.12188878 0.039324696)
(-1.0666426 -0.13427029 0.040317112)
(-1.1448986 -0.14674954 0.041257661)
(-1.2233054 -0.15926444 0.042207922)
(0.0047635877 0.0038553161 -0.0035684127)
(-0.0064030419 0.0068104736 -0.0026000751)
(-0.021063355 0.014171509 -0.002303899)
(-0.042225424 0.016328148 0.0011920661)
(-0.069976886 0.021800605 0.0029482606)
(-0.10371678 0.024528997 0.0061377031)
(-0.14264941 0.027050772 0.0092373469)
(-0.1873477 0.028477929 0.012199831)
(-0.23678161 0.028633195 0.01542073)
(-0.29109313 0.0276934 0.018469602)
(-0.34962675 0.025495576 0.021402243)
(-0.41204962 0.021978832 0.024270176)
(-0.47801978 0.017217214 0.026868614)
(-0.54699708 0.011216343 0.029332593)
(-0.61859612 0.0040441351 0.031575267)
(-0.69234349 -0.0042008203 0.033620253)
(-0.76780172 -0.013426499 0.035469821)
(-0.84456292 -0.023485599 0.03714321)
(-0.92222885 -0.034269774 0.03864028)
(-1.0004498 -0.045606142 0.040037245)
(-1.0789057 -0.057401086 0.041252606)
(-1.1573556 -0.069449976 0.042493465)
(-1.2355911 -0.081708986 0.04350193)
(-0.00030619155 -0.0026969054 -0.0028490373)
(-0.00071615051 -0.0032768176 -0.00077366625)
(-0.0019250925 -0.0033954935 0.0018777397)
(-0.0086885711 -0.010790367 -0.0012971797)
(-0.010361059 -0.011978052 0.001362168)
(-0.0096441178 -0.012630041 0.0051907585)
(-0.023102089 -0.015788538 9.8138076e-05)
(-0.023508405 -0.017299785 0.0030927014)
(-0.023596181 -0.019086172 0.0057112678)
(-0.043172651 -0.02242568 0.0024356138)
(-0.044672218 -0.024691526 0.0052739966)
(-0.044225069 -0.025796084 0.0079464455)
(-0.069675271 -0.028964775 0.0050508274)
(-0.070605877 -0.031131541 0.0073870356)
(-0.07045174 -0.033160441 0.010334404)
(-0.10157307 -0.035979313 0.0076167319)
(-0.10267702 -0.038859305 0.01010496)
(-0.10232409 -0.040794666 0.012615626)
(-0.13890103 -0.043822325 0.010470719)
(-0.1399403 -0.04662892 0.012859743)
(-0.13971713 -0.048719356 0.015156613)
(-0.1813387 -0.052349019 0.013433373)
(-0.18245871 -0.055065811 0.015508946)
(-0.18222995 -0.05733323 0.017760752)
(-0.22893023 -0.061214567 0.016275318)
(-0.22990168 -0.064154995 0.018205985)
(-0.22975625 -0.066475545 0.020390254)
(-0.28096095 -0.071092667 0.019086859)
(-0.28189709 -0.074049732 0.020917498)
(-0.28190036 -0.076032557 0.022759594)
(-0.3372588 -0.081576287 0.021741025)
(-0.33826702 -0.084208219 0.023452632)
(-0.33823333 -0.086460889 0.025092444)
(-0.39749648 -0.09260706 0.024310683)
(-0.39850287 -0.095265181 0.025764152)
(-0.39862943 -0.097317298 0.027301598)
(-0.46133347 -0.10430098 0.02663908)
(-0.46235733 -0.10671019 0.027959962)
(-0.46255496 -0.10870653 0.029222317)
(-0.52829517 -0.11642484 0.028828223)
(-0.52934638 -0.11870983 0.029907875)
(-0.52965342 -0.12055566 0.031021376)
(-0.59804607 -0.12897029 0.030764386)
(-0.59910074 -0.1310631 0.031668708)
(-0.59950218 -0.13283955 0.032582801)
(-0.67010725 -0.14180339 0.032536049)
(-0.67118909 -0.14375319 0.033245792)
(-0.67169399 -0.14539194 0.033986407)
(-0.74412241 -0.15484909 0.034098863)
(-0.74521005 -0.15662983 0.034634597)
(-0.74580883 -0.15819555 0.035197891)
(-0.81963843 -0.16797531 0.035509359)
(-0.820748 -0.16963852 0.035873658)
(-0.82142777 -0.17111468 0.036297939)
(-0.89631573 -0.18115456 0.036751182)
(-0.89742928 -0.18265918 0.036991707)
(-0.89819833 -0.18410314 0.037264453)
(-0.97374252 -0.19415992 0.037888653)
(-0.97490797 -0.19567362 0.037996081)
(-0.9756983 -0.19703042 0.038187883)
(-1.0516612 -0.20713374 0.038958036)
(-1.0528361 -0.2086447 0.038939574)
(-1.0536907 -0.20993923 0.03904535)
(-1.1297616 -0.21991789 0.039882475)
(-1.1308126 -0.22130767 0.039879335)
(-1.131764 -0.22260863 0.039933004)
(-1.2078795 -0.23261511 0.040817227)
(-1.2089553 -0.23396204 0.040809065)
(-1.2099728 -0.23529781 0.040792114)
(0.0020705662 -0.00012257486 0.00078359229)
(0.0010203739 -0.0009153041 0.0004202005)
(0.00029907181 -0.0011523538 0.00025683964)
(-0.0083159164 0.00085087552 0.0027783054)
(-0.0092667722 -0.0008226404 0.00236818)
(-0.0079969093 -0.00157941 0.0024881491)
(-0.022888872 0.00084818175 0.0041575868)
(-0.023960385 -0.00049079611 0.0033027105)
(-0.023369166 -0.001996824 0.0036323961)
(-0.043737664 0.001256179 0.0063644731)
(-0.045589626 -0.00094225914 0.0057116343)
(-0.044433498 -0.0021996321 0.0059861536)
(-0.070718668 0.00010328673 0.0085666788)
(-0.072228803 -0.0020364588 0.0077450952)
(-0.071170461 -0.0042715582 0.0085389466)
(-0.10334904 -0.0013223727 0.011289036)
(-0.10492157 -0.0038021321 0.010783763)
(-0.10394744 -0.0059046233 0.011052352)
(-0.14146071 -0.0039113768 0.014075739)
(-0.14301394 -0.0063720074 0.013252876)
(-0.14217405 -0.0086324797 0.013788729)
(-0.18493918 -0.007207483 0.016825314)
(-0.18638953 -0.0099776123 0.016178033)
(-0.18558792 -0.012398917 0.016748169)
(-0.23317166 -0.011732781 0.019557114)
(-0.23475794 -0.014364392 0.019043187)
(-0.23411207 -0.016669397 0.019375368)
(-0.28620853 -0.017236391 0.022296071)
(-0.28767429 -0.019800874 0.021722545)
(-0.28711172 -0.022229729 0.02206624)
(-0.34347058 -0.023662245 0.02484763)
(-0.34494027 -0.026204254 0.024237938)
(-0.34453545 -0.028447042 0.024693001)
(-0.40465521 -0.031170826 0.027220664)
(-0.40606306 -0.033641793 0.026690542)
(-0.4058254 -0.035797299 0.02704619)
(-0.4693289 -0.03962614 0.029411735)
(-0.47076756 -0.041907371 0.028913733)
(-0.47064736 -0.043942377 0.029264429)
(-0.53713575 -0.048933816 0.03137772)
(-0.53851533 -0.051117158 0.030915856)
(-0.53855091 -0.053045929 0.031243548)
(-0.60759689 -0.059064319 0.033148045)
(-0.60896328 -0.061065634 0.03275186)
(-0.60915186 -0.062876883 0.03304188)
(-0.68033004 -0.069867998 0.034716108)
(-0.68165607 -0.07174444 0.034353348)
(-0.68198666 -0.073430015 0.034619197)
(-0.75489128 -0.081243668 0.036098691)
(-0.75617938 -0.082962116 0.035804294)
(-0.75665434 -0.084567223 0.036031027)
(-0.83086992 -0.093074013 0.037331794)
(-0.83212655 -0.094677943 0.037075361)
(-0.83272324 -0.09620118 0.037280752)
(-0.90792505 -0.10523429 0.038423653)
(-0.90913413 -0.10673944 0.038241269)
(-0.90984749 -0.108185 0.038390135)
(-0.98562407 -0.1176403 0.03945666)
(-0.9867903 -0.11899104 0.039288499)
(-0.98760103 -0.12045716 0.039422958)
(-1.0638103 -0.13014696 0.040334863)
(-1.0648008 -0.13140239 0.040345305)
(-1.0657978 -0.13286526 0.040365782)
(-1.1419102 -0.14262014 0.041323316)
(-1.1429734 -0.14401895 0.04124361)
(-1.1439429 -0.14533781 0.041320912)
(-1.2201579 -0.15516313 0.042246485)
(-1.2212338 -0.15650535 0.042212643)
(-1.2222385 -0.15790364 0.042213257)
(0.00074273799 0.003735556 0.0024751296)
(0.0010058452 0.0031331916 0.00042509932)
(0.0012707402 0.002635683 -0.0017209589)
(-0.01101039 0.010567262 0.0045375521)
(-0.011800805 0.0083442948 0.0016088994)
(-0.010281653 0.0080918376 -0.00069326089)
(-0.024825335 0.01713312 0.0060789477)
(-0.025635538 0.016556528 0.0033393759)
(-0.025034065 0.015049721 0.00048067947)
(-0.046796204 0.023181805 0.0083031833)
(-0.047326207 0.020457954 0.0056018539)
(-0.046769256 0.018986384 0.0032716385)
(-0.07377772 0.027729763 0.010749392)
(-0.074626494 0.025867248 0.0082595641)
(-0.074055377 0.023835876 0.0058339511)
(-0.10710951 0.031846593 0.013566005)
(-0.10796548 0.02929002 0.011005735)
(-0.10742013 0.027131986 0.0087309154)
(-0.14595305 0.034673635 0.016302795)
(-0.14668757 0.031940944 0.013751183)
(-0.14642219 0.029475163 0.011797667)
(-0.19001339 0.036066071 0.019091625)
(-0.19084576 0.033415815 0.017006605)
(-0.19071614 0.031109566 0.014805735)
(-0.23916565 0.036426707 0.021994715)
(-0.24003959 0.033742199 0.019719071)
(-0.23992087 0.03109398 0.017773574)
(-0.29295974 0.035358523 0.024641025)
(-0.29376122 0.032567112 0.022616223)
(-0.29386201 0.030169469 0.020832251)
(-0.35098598 0.032882733 0.027174393)
(-0.35193237 0.030305299 0.025309993)
(-0.35211962 0.027830027 0.023600192)
(-0.41295897 0.029076308 0.029551267)
(-0.41385526 0.026593475 0.027852541)
(-0.41419868 0.024206262 0.026296758)
(-0.47840124 0.023966657 0.031683297)
(-0.479361 0.021619258 0.03014084)
(-0.47980764 0.019312806 0.0287667)
(-0.5468761 0.017572547 0.033623456)
(-0.54783445 0.015380601 0.032276893)
(-0.54842371 0.013188754 0.031031853)
(-0.61798061 0.010015935 0.035323622)
(-0.61897901 0.007963538 0.034143016)
(-0.61965526 0.0058951106 0.033083049)
(-0.69124981 0.001386112 0.036825428)
(-0.69225513 -0.00050538674 0.035827223)
(-0.6930452 -0.0024607909 0.034927807)
(-0.76627162 -0.0081769424 0.038121985)
(-0.76729791 -0.0099447301 0.037307259)
(-0.76815777 -0.011780996 0.036569052)
(-0.84262852 -0.018562403 0.039271537)
(-0.8436705 -0.020199386 0.038613829)
(-0.84460326 -0.021937803 0.038040348)
(-0.91995231 -0.029585912 0.040276531)
(-0.92099122 -0.03113603 0.03978537)
(-0.9219661 -0.032770892 0.039347534)
(-0.99787567 -0.041132479 0.041174709)
(-0.9989367 -0.042607992 0.040840074)
(-0.99993688 -0.044179032 0.040543381)
(-1.0761036 -0.053072985 0.042074724)
(-1.0771335 -0.05449463 0.041809887)
(-1.0781696 -0.056012589 0.041621261)
(-1.1543929 -0.065222636 0.042871185)
(-1.1554689 -0.066620632 0.042737786)
(-1.1564949 -0.068086346 0.042643015)
(-1.2325363 -0.077515112 0.043747637)
(-1.2335693 -0.078874651 0.043679077)
(-1.2346036 -0.080285456 0.043644637)
)
;

boundaryField
{
    free
    {
        type            calculated;
    }
    fixed
    {
        type            calculated;
    }
    freeTop
    {
        type            calculated;
    }
}


// ************************************************************************* //
