/*--------------------------------*- C++ -*----------------------------------*\
  =========                 |
  \\      /  F ield         | OpenFOAM: The Open Source CFD Toolbox
   \\    /   O peration     | Website:  https://openfoam.org
    \\  /    A nd           | Version:  6
     \\/     M anipulation  |
\*---------------------------------------------------------------------------*/
FoamFile
{
    version     2.0;
    format      ascii;
    class       pointVectorField;
    location    "1.52";
    object      lm;
}
// * * * * * * * * * * * * * * * * * * * * * * * * * * * * * * * * * * * * * //

dimensions      [1 -2 -1 0 0 0 0];

internalField   nonuniform List<vector> 
3969
(
(0 0 0)
(0 0 0)
(-4176.1178 19.848384 9.5216765)
(-4161.9249 1014.0097 -89.529439)
(0 0 0)
(0 0 0)
(-4059.0793 980.49161 -88.355237)
(-4077.2417 -11.630186 10.113647)
(0 0 0)
(0 0 0)
(0 0 0)
(0 0 0)
(0 0 0)
(0 0 0)
(0 0 0)
(-3935.1546 132.02101 -2.1890458)
(-3737.4652 234.04518 -12.588966)
(-3771.2912 346.52296 -23.772596)
(-4001.9487 485.99218 -37.141793)
(-4280.1753 647.66957 -52.820146)
(-4430.2814 804.62577 -68.161779)
(-4359.2563 925.69561 -80.525469)
(-3.6914998 -14.49837 -15.641051)
(-5.0082986 -27.007129 -17.978429)
(-11.9038 -44.748367 -19.517978)
(-25.581846 -62.471901 -17.966633)
(-43.668224 -82.717005 -17.566955)
(-69.086129 -103.162 -15.146237)
(-99.060917 -124.69839 -14.639538)
(-136.92699 -146.66038 -12.615377)
(-179.82995 -168.50544 -12.442471)
(-230.15683 -190.37604 -11.279063)
(-286.51777 -211.83489 -11.651586)
(-349.31316 -232.36298 -11.95186)
(-418.43577 -251.7881 -13.073745)
(-493.43346 -269.99238 -14.926582)
(-574.16643 -286.14562 -17.288782)
(-659.93822 -300.72395 -20.547879)
(-750.80501 -313.05206 -24.344952)
(-845.97201 -323.15119 -28.724716)
(-945.17762 -330.94221 -33.628693)
(-1047.7953 -336.32331 -38.802413)
(-1153.4468 -339.39322 -44.182009)
(-1261.6757 -340.22883 -49.424877)
(-1372.0577 -338.97419 -54.400022)
(-1484.302 -335.86537 -58.797486)
(-1597.9463 -331.08808 -62.480324)
(-1712.9208 -324.698 -65.150319)
(-1828.7586 -317.11634 -66.739888)
(-1945.2487 -308.41367 -67.137368)
(-2062.1843 -298.7727 -66.216158)
(-2179.3343 -288.34976 -64.164253)
(-2296.4498 -277.20607 -60.884755)
(-2413.1816 -265.45185 -56.642824)
(-2529.3475 -253.07543 -51.601826)
(-2644.6079 -240.05044 -45.982356)
(-2758.5727 -226.42916 -39.917217)
(-2871.1142 -212.13692 -33.953018)
(-2981.9206 -196.88003 -27.74251)
(-3090.409 -181.15361 -22.022987)
(-3196.7578 -164.20837 -16.822464)
(-3300.6706 -146.69737 -11.915861)
(-3401.9289 -128.1057 -7.7109581)
(-3500.9763 -108.57232 -3.9306139)
(-3596.8542 -88.800317 -0.86011987)
(-3691.3678 -67.444235 1.8886811)
(-3782.7775 -46.518878 4.0668776)
(-3873.2243 -24.733761 6.0435136)
(-3959.4768 -3.0902972 7.6444876)
(-1.3945908 18.105431 24.376309)
(-6.9570295 32.963458 25.201361)
(-10.870944 48.67972 33.334581)
(-23.528192 68.815611 31.192766)
(-41.910089 87.704456 32.459164)
(-64.36046 107.97131 30.123432)
(-94.58236 127.87878 28.007573)
(-129.16081 148.11358 24.250389)
(-170.30038 167.47602 19.799456)
(-217.27697 187.39996 13.871817)
(-269.34315 205.68522 7.4767529)
(-327.3476 224.43281 -0.70982768)
(-390.17787 242.13587 -9.2297228)
(-458.20294 259.32015 -19.098062)
(-530.70084 276.42935 -29.543119)
(-607.58222 292.72542 -40.656982)
(-688.57459 309.28141 -52.169017)
(-773.04337 325.30689 -63.802)
(-861.12792 341.83186 -75.3821)
(-952.08548 358.36192 -86.516307)
(-1046.0245 375.52658 -97.092098)
(-1142.5716 393.25689 -106.74795)
(-1241.5096 411.69659 -115.26183)
(-1343.0094 431.27628 -122.53967)
(-1446.5923 451.45873 -128.36327)
(-1552.4112 472.85695 -132.62661)
(-1660.4726 495.30963 -135.2932)
(-1770.6555 518.56692 -136.40265)
(-1882.9485 542.8802 -135.97882)
(-1997.5041 567.94864 -134.27851)
(-2114.1233 593.86613 -131.43996)
(-2232.7687 620.30699 -127.72355)
(-2353.3284 647.25583 -123.37851)
(-2475.577 674.48388 -118.67703)
(-2599.3003 701.92628 -113.97191)
(-2724.0931 729.25113 -109.38609)
(-2849.5086 756.49661 -105.08715)
(-2975.2954 783.24304 -101.80091)
(-3100.8503 809.82674 -98.792418)
(-3225.0787 835.50273 -96.571758)
(-3348.0793 860.35427 -94.820403)
(-3468.6092 884.16984 -93.79042)
(-3586.5141 907.04027 -93.03345)
(-3700.9449 928.59461 -92.508669)
(-3811.6527 948.93596 -92.012009)
(-3918.0987 967.96329 -91.138905)
(-4036.1308 989.73532 -90.502868)
(0 0 0)
(0 0 0)
(0 0 0)
(0 0 0)
(0 0 0)
(0 0 0)
(0 0 0)
(-4.7009238 11.073518 -18.786396)
(0.091777595 38.628898 -32.438597)
(2.3470116 45.390241 -38.274412)
(-5.5065786 74.082496 -44.257099)
(-18.719517 91.971971 -48.737393)
(-36.955428 115.35128 -50.972105)
(-63.122807 140.04464 -55.481229)
(-92.823862 160.97053 -56.941753)
(-130.70042 187.62889 -61.521117)
(-172.6131 208.63457 -63.373517)
(-220.99446 233.9394 -68.385743)
(-274.3054 254.40509 -71.40704)
(-333.38616 276.85204 -76.02218)
(-397.17794 297.23024 -80.483238)
(-465.74875 316.59447 -85.511002)
(-538.33439 335.47658 -91.249785)
(-615.27662 352.53565 -97.131412)
(-695.60772 369.13231 -103.65395)
(-779.74904 384.44725 -110.3409)
(-866.95385 399.0424 -117.23202)
(-957.44765 412.99544 -124.13619)
(-1050.8409 426.43996 -130.85378)
(-1147.2127 439.75184 -137.1974)
(-1246.4074 452.99262 -142.95367)
(-1348.5205 466.75107 -147.88514)
(-1453.4405 480.90496 -151.80187)
(-1560.9539 495.93968 -154.75022)
(-1671.1148 511.88765 -156.52725)
(-1783.7725 529.06207 -157.13276)
(-1898.8485 547.55961 -156.55107)
(-2016.1319 567.46999 -154.86313)
(-2135.3859 588.82244 -152.16029)
(-2256.3626 611.53162 -148.53502)
(-2378.7232 635.56978 -144.23053)
(-2502.0609 660.6897 -139.46669)
(-2626.9663 687.25328 -134.09775)
(-2750.37 712.83747 -129.36626)
(-2873.8797 740.28709 -123.43567)
(-2996.4143 766.82197 -118.62947)
(-3117.631 793.30878 -113.6882)
(-3237.2361 818.91628 -109.15039)
(-3354.0976 843.65745 -105.1326)
(-3468.3207 867.00828 -101.3937)
(-3579.2929 889.07598 -98.098417)
(-3686.7961 909.51462 -95.045594)
(-3790.7119 928.54005 -92.239527)
(-3874.3165 942.07667 -89.259817)
(-4263.4374 894.06439 -79.045517)
(-4312.9416 768.51246 -66.614551)
(-4137.28 609.1781 -51.361365)
(-3835.2788 447.52523 -36.249153)
(-3651.3052 315.30478 -23.624503)
(-3657.6725 206.49937 -12.95816)
(-3881.17 103.59376 -1.933468)
(-3889.8713 -33.851962 8.5447355)
(-3813.3652 -56.671272 7.4202668)
(-3719.4306 -79.558848 6.7233658)
(-3623.6155 -102.27801 6.0526933)
(-3525.3531 -124.8445 5.2254727)
(-3424.6245 -146.89955 4.2243316)
(-3321.5189 -168.19994 2.7415588)
(-3216.0021 -188.56682 0.75428474)
(-3108.3551 -207.72356 -1.9148543)
(-2998.6294 -225.57634 -5.272172)
(-2883.3841 -241.538 -9.1928265)
(-2774.575 -256.11708 -13.744279)
(-2659.7138 -269.28379 -18.854306)
(-2544.2925 -280.3352 -23.831455)
(-2428.0477 -289.7109 -29.034636)
(-2311.2718 -297.43247 -33.920162)
(-2194.2585 -303.5165 -38.252021)
(-2077.076 -308.10027 -41.823092)
(-1960.1247 -311.34143 -44.280283)
(-1843.4802 -313.23194 -45.615551)
(-1727.4511 -314.10607 -45.440101)
(-1612.295 -313.78798 -43.906734)
(-1498.1492 -312.67621 -40.786921)
(-1385.411 -310.51195 -36.344079)
(-1274.3445 -307.51209 -30.4712)
(-1165.2991 -303.5733 -23.492905)
(-1058.7019 -298.68052 -15.540596)
(-954.90227 -292.76829 -6.9043206)
(-854.49577 -285.76609 2.1476465)
(-757.74988 -277.60675 11.310807)
(-665.34756 -268.22087 20.373639)
(-577.59121 -257.73586 29.010869)
(-496.76922 -246.53358 36.893152)
(-418.39791 -232.4369 43.830158)
(-347.23237 -218.00839 50.043158)
(-282.53628 -203.13843 54.440824)
(-224.53959 -186.59868 58.092143)
(-172.81428 -169.64161 60.038695)
(-127.44732 -151.47229 61.0485)
(-89.534181 -133.09996 60.350452)
(-58.369724 -116.11683 59.523994)
(-32.373701 -95.782688 55.563383)
(-14.190994 -79.538733 53.115815)
(-1.2741402 -60.114068 46.744431)
(4.6765768 -44.72856 40.711445)
(6.1109232 -26.609697 31.643515)
(-6.9771091 -13.716675 15.897991)
(0 0 0)
(0 0 0)
(0 0 0)
(0 0 0)
(0 0 0)
(0 0 0)
(0 0 0)
(0 0 0)
(0 0 0)
(0 0 0)
(0 0 0)
(0 0 0)
(0 0 0)
(0 0 0)
(-4148.6781 1010.5604 -89.175052)
(-4135.8757 1007.0775 -88.745485)
(-4123.0155 1003.0216 -88.663725)
(-4110.1566 998.9455 -88.552547)
(-4097.2226 994.49809 -88.617954)
(-4084.4344 990.02771 -88.552244)
(-4071.526 985.45026 -88.5342)
(-4164.221 16.012869 9.5829049)
(-4151.9883 12.030624 9.6273689)
(-4139.892 8.0175868 9.8145161)
(-4127.6803 4.0083162 9.9450478)
(-4115.3565 -0.022168791 10.041405)
(-4102.8886 -3.9328308 10.091467)
(-4090.2376 -7.6289588 10.026018)
(1.6634777 -11.076094 -13.070447)
(0.97374824 -20.054156 -11.773182)
(-3.0150515 -31.597407 -13.01325)
(-13.513915 -43.665712 -12.602692)
(-27.676084 -56.182643 -11.722552)
(-49.329406 -71.123192 -11.11909)
(-74.936374 -85.563396 -10.061837)
(-108.30952 -102.19165 -9.8838436)
(-147.8519 -118.35247 -9.0398251)
(-194.72177 -135.61795 -9.5160765)
(-249.08108 -152.66515 -9.9378718)
(-311.09592 -169.58627 -10.921607)
(-381.13299 -186.36533 -12.797915)
(-458.69518 -201.9694 -15.127012)
(-543.83521 -216.46915 -18.53338)
(-636.00534 -229.33511 -22.55205)
(-734.78098 -240.1692 -27.386978)
(-839.19283 -248.76037 -32.929536)
(-948.74233 -254.88186 -38.901354)
(-1062.2434 -258.31971 -45.306846)
(-1178.9794 -259.02495 -51.720246)
(-1297.8937 -257.09329 -57.972561)
(-1418.2227 -252.5725 -63.70491)
(-1539.1065 -245.7744 -68.657602)
(-1659.8558 -236.80656 -72.544078)
(-1779.921 -226.12659 -75.226444)
(-1898.7827 -214.02865 -76.426813)
(-2015.988 -200.68301 -76.184591)
(-2131.0726 -186.531 -74.641909)
(-2243.9394 -171.7146 -71.752911)
(-2354.104 -156.47599 -67.75677)
(-2461.3924 -140.93658 -62.944079)
(-2565.6417 -125.16967 -57.521934)
(-2666.617 -109.31641 -51.686329)
(-2764.2604 -93.308612 -45.892598)
(-2858.6019 -77.127145 -40.049847)
(-2949.5447 -60.870219 -34.5901)
(-3037.3523 -44.484314 -29.556672)
(-3122.2255 -27.779384 -24.998833)
(-3204.5007 -11.083446 -20.863263)
(-3284.7039 6.0335978 -17.355487)
(-3363.2617 23.091025 -14.202118)
(-3440.8325 40.471049 -11.608072)
(-3518.4713 57.932416 -9.2272385)
(-3596.0398 75.373681 -7.2925359)
(-3675.5399 92.920971 -5.4165162)
(-3772.8966 111.19396 -3.8960536)
(6.2613907 -6.9080918 -7.9858692)
(6.1869984 -10.763442 -6.3861495)
(1.9273205 -20.631317 -7.7434716)
(-6.6674029 -26.932853 -6.5138397)
(-21.21138 -36.974243 -6.69638)
(-39.743625 -46.69537 -5.223913)
(-65.178511 -57.689149 -5.7797144)
(-97.2375 -69.446379 -4.4250387)
(-135.94351 -81.251586 -5.6557198)
(-182.64106 -94.159349 -5.8661788)
(-237.4166 -106.43611 -7.2364031)
(-300.36283 -119.42045 -9.2036092)
(-371.98348 -131.34823 -12.026111)
(-451.91502 -142.6239 -15.659572)
(-540.03707 -152.79357 -20.208603)
(-635.62649 -161.45973 -25.416312)
(-737.90161 -168.28503 -31.585386)
(-846.14773 -172.8647 -38.311935)
(-959.07956 -175.02252 -45.574513)
(-1075.6688 -174.49967 -53.07277)
(-1194.4866 -171.37268 -60.481581)
(-1314.5895 -165.61594 -67.492457)
(-1434.5339 -157.37653 -73.800308)
(-1553.7312 -146.94249 -79.003671)
(-1671.1238 -134.58368 -82.976109)
(-1786.3313 -120.56352 -85.312558)
(-1898.6832 -105.56411 -86.100967)
(-2007.8367 -89.437011 -85.448103)
(-2113.71 -72.928665 -83.145954)
(-2216.0817 -56.089135 -79.645056)
(-2314.8625 -39.200155 -75.101221)
(-2410.1197 -22.361652 -69.829496)
(-2501.9321 -5.7965155 -64.038602)
(-2590.3445 10.601479 -58.160456)
(-2675.7399 26.780075 -52.297164)
(-2758.2317 42.622598 -46.684718)
(-2838.3349 58.416728 -41.550747)
(-2916.4848 73.897908 -36.828692)
(-2993.2425 89.564626 -32.747251)
(-3069.3947 104.89815 -29.107151)
(-3145.3437 120.61733 -26.029374)
(-3222.4438 136.11989 -23.39918)
(-3300.8064 151.83909 -21.093151)
(-3382.0129 167.86751 -19.216299)
(-3466.1696 183.88965 -17.490135)
(-3554.7731 200.44746 -15.912405)
(-3654.4363 217.91392 -14.465359)
(11.658904 -3.1155258 -4.4248867)
(9.8723552 -6.3384111 -3.037435)
(6.6332147 -10.669184 -2.2904295)
(-4.8106113 -15.727468 -1.6267296)
(-18.98424 -20.758103 -0.71862561)
(-41.451616 -27.371342 -0.59933149)
(-69.166477 -32.997054 0.24997468)
(-104.08344 -40.257238 -0.7762587)
(-146.28253 -46.860694 -1.5540266)
(-196.40925 -53.950057 -2.730884)
(-253.68771 -61.072766 -5.4308456)
(-319.22824 -67.513636 -8.2983389)
(-392.18936 -73.577187 -12.320989)
(-472.48303 -78.769581 -17.150629)
(-559.61561 -82.934978 -22.837306)
(-652.54551 -85.606192 -29.14009)
(-750.78254 -86.707762 -36.195376)
(-852.90659 -85.963617 -43.595228)
(-958.22531 -83.224648 -51.37176)
(-1065.2113 -78.550968 -59.061893)
(-1173.2548 -71.861898 -66.418911)
(-1281.0092 -63.186024 -73.253376)
(-1388.0769 -52.870874 -79.101813)
(-1493.6859 -41.035733 -83.874543)
(-1597.41 -27.840054 -87.306224)
(-1698.9242 -13.735564 -89.36002)
(-1798.1172 1.2440551 -90.104695)
(-1895.0256 16.781744 -89.343693)
(-1989.91 32.558981 -87.32742)
(-2082.8914 48.516397 -84.307835)
(-2174.3052 64.511685 -80.373559)
(-2264.5746 80.380605 -75.797019)
(-2353.9124 96.172082 -70.849054)
(-2442.9514 111.93221 -65.739431)
(-2531.8641 127.46648 -60.60769)
(-2621.3008 143.1618 -55.732085)
(-2711.5378 158.81326 -51.14667)
(-2803.132 174.72423 -46.923043)
(-2896.4134 190.83386 -43.23429)
(-2991.8592 207.20246 -39.821741)
(-3089.997 224.16165 -37.111892)
(-3191.0875 241.17812 -34.458407)
(-3295.4497 259.18594 -32.533796)
(-3403.8056 277.40026 -30.586102)
(-3515.8497 296.42275 -29.02863)
(-3632.4787 315.91344 -27.453726)
(-3745.9715 335.51366 -26.067114)
(13.19301 0.47662284 2.0229504)
(10.255519 1.6198127 5.1876255)
(5.1369576 0.32677821 5.4637275)
(-7.2712053 0.30837275 6.5190494)
(-27.196742 -0.49669075 6.1811829)
(-52.44492 -2.0807191 6.8175299)
(-85.727195 -2.380868 4.8706428)
(-125.36086 -4.6348215 4.1836088)
(-172.89103 -5.0778444 1.8082924)
(-226.75845 -6.9450696 -1.4716184)
(-287.86507 -7.2298373 -5.1568396)
(-355.24543 -7.9481275 -9.5131166)
(-427.96071 -7.903225 -14.955664)
(-505.96015 -6.9909494 -20.97617)
(-587.64962 -5.6177215 -27.636889)
(-673.01154 -3.006641 -34.842956)
(-760.40439 0.34447431 -42.307703)
(-849.67697 5.0148583 -49.985143)
(-939.63526 10.742571 -57.628788)
(-1029.9941 17.545923 -64.851857)
(-1120.1125 25.638441 -71.725949)
(-1209.8897 34.527617 -77.842967)
(-1298.8291 44.436065 -83.068593)
(-1387.0332 55.367569 -87.420074)
(-1474.6319 67.047428 -90.670061)
(-1562.0081 79.54702 -92.786935)
(-1649.4771 92.621375 -93.632524)
(-1737.4996 106.27434 -93.381628)
(-1826.5484 120.393 -92.074841)
(-1917.094 135.01022 -89.814569)
(-2009.7811 150.00398 -86.728951)
(-2105.017 165.44053 -83.027572)
(-2203.4062 181.35773 -78.874817)
(-2305.2779 197.68398 -74.421619)
(-2411.0861 214.62361 -69.920365)
(-2521.0761 232.08939 -65.459716)
(-2635.4505 250.32947 -61.268752)
(-2754.3897 269.22895 -57.375883)
(-2877.6853 288.99899 -53.928992)
(-3005.626 309.63723 -50.966751)
(-3137.4581 331.20667 -48.432479)
(-3273.4618 353.65549 -46.350834)
(-3412.6842 377.08719 -44.665365)
(-3555.2737 401.25037 -43.215461)
(-3699.8867 426.1004 -41.998458)
(-3846.6436 451.55454 -40.973221)
(-3978.1142 475.64292 -39.725958)
(14.987406 6.290026 8.9138559)
(9.7240458 10.457696 10.432638)
(4.7137771 15.859207 11.883759)
(-13.091912 20.464615 12.680623)
(-34.701323 25.989352 12.729473)
(-65.599016 30.190882 11.599495)
(-102.92032 35.628556 9.9959041)
(-147.96311 39.415645 8.0183436)
(-198.90246 44.542135 3.9295016)
(-256.41288 48.397234 0.085974377)
(-318.8843 53.147746 -4.808477)
(-385.65395 56.866255 -10.869426)
(-455.85716 61.867023 -17.477503)
(-528.74443 66.188569 -24.57474)
(-603.47095 71.346236 -32.10133)
(-679.35396 76.644941 -39.767896)
(-755.91842 82.436185 -47.4034)
(-832.58954 88.712962 -54.934311)
(-909.37111 95.533612 -62.150222)
(-985.85418 102.97537 -68.854698)
(-1062.5276 111.07887 -75.180162)
(-1143.4388 120.32491 -80.921968)
(-1226.2247 130.38026 -86.16051)
(-1304.0416 140.61794 -90.120623)
(-1382.8984 151.56066 -93.142986)
(-1463.5305 163.25526 -95.25995)
(-1546.3559 175.70011 -96.518382)
(-1632.0637 188.993 -96.98001)
(-1721.234 203.12558 -96.560848)
(-1814.5197 218.10754 -95.409573)
(-1912.4626 233.98811 -93.543443)
(-2015.595 250.83113 -91.121066)
(-2124.345 268.60295 -88.154895)
(-2239.1182 287.47188 -84.876908)
(-2360.0929 307.3071 -81.299091)
(-2487.4834 328.37468 -77.671957)
(-2621.2014 350.49031 -74.077069)
(-2761.222 373.88214 -70.590108)
(-2922.9649 400.52973 -67.962947)
(-3083.1281 427.6984 -65.292025)
(-3240.6434 454.77106 -63.026494)
(-3401.7521 482.95885 -60.93917)
(-3565.0865 512.0875 -59.50801)
(-3729.6084 541.78255 -58.126361)
(-3893.6862 572.04182 -57.208895)
(-4056.731 602.4846 -56.138144)
(-4200.906 630.31248 -54.89902)
(11.756796 9.8511818 16.010727)
(4.7602047 21.010592 17.587625)
(-1.4735022 31.100222 20.626427)
(-19.214331 42.420101 20.78762)
(-42.627406 53.247967 19.991653)
(-74.089926 63.858586 18.542914)
(-112.56753 74.99259 16.060549)
(-157.4416 84.514014 12.387054)
(-208.42193 94.992445 7.9115626)
(-264.48742 103.54955 2.6770444)
(-325.05878 112.97134 -3.6888579)
(-388.95005 121.00833 -10.689061)
(-455.81472 129.37345 -18.142328)
(-524.5521 136.93646 -26.21213)
(-594.72383 144.67176 -34.357993)
(-665.95209 152.10462 -42.743841)
(-737.74817 159.78654 -50.893945)
(-810.17539 167.46904 -58.976516)
(-883.01588 175.664 -66.60649)
(-956.57364 184.11348 -73.832567)
(-1031.052 193.25501 -80.528226)
(-1108.8913 203.37339 -86.631271)
(-1185.924 213.49959 -91.974867)
(-1265.5139 225.02235 -96.581997)
(-1346.4883 237.03148 -100.2547)
(-1430.2405 249.96098 -103.08543)
(-1517.6808 263.86489 -105.12529)
(-1609.2732 278.93549 -106.31591)
(-1705.5249 295.17211 -106.64343)
(-1806.8379 312.62208 -106.16296)
(-1913.7037 331.33049 -104.9063)
(-2026.4035 351.28442 -102.93758)
(-2145.2708 372.58838 -100.3638)
(-2270.3754 395.1227 -97.309848)
(-2401.8378 419.02276 -93.893337)
(-2539.535 444.11636 -90.331989)
(-2683.079 470.42685 -86.699701)
(-2832.3885 497.85708 -83.342063)
(-2986.8808 526.59133 -80.055258)
(-3169.2966 560.26324 -78.054906)
(-3329.1792 590.43603 -75.673031)
(-3491.651 621.23237 -73.886704)
(-3654.272 652.42197 -72.570566)
(-3815.7738 683.73781 -71.552171)
(-3974.6044 714.81381 -70.740268)
(-4129.4065 745.41196 -69.876692)
(-4272.5625 773.70901 -69.017535)
(5.5968923 17.013704 20.375094)
(-0.060378719 30.604594 21.988032)
(-4.7568661 44.900884 26.108435)
(-21.755392 60.050591 26.037313)
(-41.535081 75.543307 25.575436)
(-70.832217 91.280345 23.741922)
(-104.88116 106.79215 20.992609)
(-146.16526 121.48732 17.171671)
(-192.84884 136.36035 12.446644)
(-244.982 149.49341 6.6147094)
(-302.16652 163.35883 -0.27621391)
(-363.08973 174.99053 -7.5068651)
(-428.30581 187.47232 -16.141986)
(-496.07043 198.57094 -24.764173)
(-567.10715 209.79327 -34.154166)
(-640.08973 220.57683 -43.514949)
(-715.45483 231.44707 -53.095201)
(-792.49575 242.47594 -62.438321)
(-871.40786 253.76606 -71.554876)
(-952.13252 265.66412 -80.244437)
(-1034.6324 278.048 -88.282126)
(-1119.2853 291.39712 -95.754896)
(-1206.0889 305.50964 -102.28751)
(-1295.4452 320.61918 -107.89722)
(-1387.4991 336.86242 -112.64748)
(-1482.431 354.12852 -116.30329)
(-1580.8098 372.49478 -119.01364)
(-1682.6839 392.08133 -120.55904)
(-1788.3254 412.71967 -121.03878)
(-1897.8994 434.47645 -120.45594)
(-2011.6429 457.23955 -118.95621)
(-2129.5826 481.04874 -116.60678)
(-2251.7683 505.76611 -113.58899)
(-2378.1283 531.31703 -110.04122)
(-2508.5127 557.64064 -106.15241)
(-2642.6568 584.72476 -102.23053)
(-2780.1931 612.18884 -98.190196)
(-2920.6078 640.29681 -94.59681)
(-3063.3035 668.72047 -91.426915)
(-3207.8967 697.48427 -88.705971)
(-3351.9996 726.14278 -86.542049)
(-3496.0798 754.62827 -84.872133)
(-3638.5845 782.92005 -83.755376)
(-3778.6229 810.62659 -82.836099)
(-3914.7835 837.5915 -82.15841)
(-4046.4075 863.53595 -81.333993)
(-4167.3618 886.97702 -80.256109)
(0 0 0)
(0 0 0)
(0 0 0)
(0 0 0)
(0 0 0)
(0 0 0)
(0 0 0)
(0 0 0)
(0 0 0)
(0 0 0)
(0 0 0)
(0 0 0)
(0 0 0)
(0 0 0)
(0 0 0)
(0 0 0)
(0 0 0)
(0 0 0)
(0 0 0)
(0 0 0)
(0 0 0)
(0 0 0)
(0 0 0)
(0 0 0)
(0 0 0)
(0 0 0)
(0 0 0)
(0 0 0)
(0 0 0)
(0 0 0)
(0 0 0)
(0 0 0)
(0 0 0)
(0 0 0)
(0 0 0)
(0 0 0)
(0 0 0)
(0 0 0)
(0 0 0)
(0 0 0)
(0 0 0)
(0 0 0)
(0 0 0)
(0 0 0)
(0 0 0)
(0 0 0)
(0 0 0)
(0 0 0)
(0 0 0)
(-7.5031089 5.375994 12.690554)
(-9.086925 6.7652331 8.5755701)
(-10.702559 6.8080579 3.5933329)
(-10.848598 6.8992831 0.037521991)
(-9.9598698 6.1819738 -3.7081722)
(-8.7991676 6.4592947 -7.7796785)
(-5.6828453 3.1282549 -10.716756)
(-12.556443 31.722806 20.16161)
(-15.724044 33.912343 10.281264)
(-16.334982 31.63205 3.0408134)
(-16.013044 30.361536 -2.7319962)
(-14.522519 31.336312 -8.7634512)
(-11.195298 30.543535 -15.945133)
(-6.8232747 29.404512 -23.328839)
(-16.415106 44.377002 23.092199)
(-20.944232 41.38589 15.571848)
(-22.993934 43.2544 4.2924313)
(-21.419617 42.705417 -2.3648784)
(-19.554276 40.786379 -12.399363)
(-14.240344 41.491703 -19.270821)
(-8.1564818 42.870516 -31.292517)
(-30.952717 70.015826 22.013119)
(-32.95583 70.642614 13.335682)
(-34.198495 70.017874 3.2551714)
(-32.775283 69.110327 -4.9247808)
(-29.917752 69.084718 -14.90574)
(-23.594583 70.64841 -24.645532)
(-16.25182 69.126666 -34.210971)
(-46.952233 87.949466 22.785813)
(-50.636954 87.325486 13.543616)
(-52.125519 87.768618 2.6806938)
(-50.024036 87.700233 -7.2608281)
(-46.345369 88.014377 -17.555155)
(-39.811955 88.142615 -27.052993)
(-31.312467 88.82659 -38.992593)
(-70.562071 110.31136 20.205404)
(-72.739604 110.78827 11.333285)
(-73.394135 111.02142 0.22077606)
(-70.736759 111.77392 -8.7352674)
(-66.718079 111.37839 -20.356956)
(-59.068095 113.08632 -30.602193)
(-49.658674 113.0249 -41.079925)
(-99.709778 130.73305 18.371781)
(-101.6886 131.22714 8.2257701)
(-101.78799 132.84792 -1.9309862)
(-99.220264 133.56224 -11.902822)
(-94.153426 134.38982 -22.824246)
(-86.405295 136.52239 -32.796392)
(-76.752655 136.87206 -44.916423)
(-133.5961 151.48549 14.394005)
(-135.46528 153.88211 5.6710256)
(-135.17974 155.50403 -5.6065806)
(-131.57773 156.25554 -15.382915)
(-125.78571 157.14392 -25.759802)
(-117.84315 158.19545 -36.576673)
(-106.82014 159.13465 -47.098804)
(-174.86771 172.99323 10.447759)
(-175.46294 174.51304 0.48935539)
(-174.12306 176.56422 -9.3144424)
(-170.39806 178.79897 -18.92151)
(-164.59931 180.93735 -29.519715)
(-155.72653 182.88501 -39.493345)
(-144.85543 184.58842 -50.996996)
(-220.05792 192.39612 4.7545135)
(-220.54077 195.99584 -3.9875914)
(-218.92122 198.56318 -13.807564)
(-214.83268 201.12021 -23.800621)
(-207.7279 202.27128 -33.686157)
(-198.76306 204.33056 -43.686181)
(-187.32751 206.04781 -53.963909)
(-272.16039 212.87778 -1.6011105)
(-271.43555 216.24458 -10.111966)
(-269.40961 219.66748 -20.209036)
(-264.00272 221.65953 -28.630088)
(-257.20771 224.62174 -38.727714)
(-247.49016 227.26955 -47.541456)
(-235.84119 230.22721 -58.366189)
(-328.82202 231.75494 -8.7402911)
(-327.7703 236.2488 -17.570574)
(-324.29283 239.89218 -25.656142)
(-319.04178 243.6227 -34.827006)
(-311.29572 245.98479 -43.947451)
(-301.19277 248.55275 -52.548325)
(-289.61779 251.52798 -62.903632)
(-391.24566 251.10326 -17.213227)
(-388.60295 255.49265 -25.149872)
(-384.91096 259.94961 -33.300997)
(-378.79792 262.61766 -41.643536)
(-370.67857 265.89585 -50.106895)
(-360.1741 269.44508 -58.160156)
(-348.23644 272.49947 -67.385012)
(-458.08083 268.78209 -26.265568)
(-454.63667 273.8943 -33.85838)
(-450.42615 278.58044 -41.171074)
(-443.1871 282.255 -48.94559)
(-434.71195 286.15004 -56.830414)
(-423.87799 289.2649 -64.004752)
(-411.84207 293.03832 -72.868229)
(-529.5143 286.85517 -36.257075)
(-525.30123 292.07106 -43.312975)
(-519.85358 296.85118 -49.901669)
(-512.25865 300.59261 -57.247709)
(-503.36648 304.17057 -64.017459)
(-492.18972 307.82158 -70.924436)
(-479.87472 311.59843 -78.550661)
(-605.52502 303.64448 -46.8413)
(-600.06384 308.95351 -53.195405)
(-593.97988 314.26215 -59.264384)
(-585.63114 318.11707 -65.64717)
(-576.08449 322.26567 -72.066146)
(-564.54704 325.96256 -77.96413)
(-552.06064 330.02664 -84.960697)
(-685.22565 320.41233 -57.841442)
(-678.98425 325.95 -63.690995)
(-671.86109 331.10235 -68.955527)
(-662.87591 334.92651 -74.95595)
(-652.89721 338.99828 -80.376432)
(-641.06346 342.63771 -85.729249)
(-628.30553 346.75713 -91.756032)
(-768.95651 336.67073 -69.127726)
(-761.52407 342.0246 -74.181861)
(-753.62626 347.24325 -79.132324)
(-743.92727 351.18676 -84.207)
(-733.36514 355.22138 -89.064168)
(-721.13454 358.92801 -93.769287)
(-708.09835 362.97289 -98.925637)
(-855.91998 352.91339 -80.238262)
(-847.62558 358.08994 -84.923021)
(-838.85028 363.21145 -89.206659)
(-828.43441 366.83329 -93.7453)
(-817.45528 370.73455 -97.987537)
(-804.82837 374.22886 -102.01663)
(-791.56137 378.19228 -106.35076)
(-946.19023 369.03218 -91.183447)
(-936.9431 373.92702 -95.291902)
(-927.33064 378.68636 -99.149252)
(-916.33329 382.25463 -103.13419)
(-904.79503 385.85586 -106.77197)
(-891.76484 389.20215 -110.29533)
(-878.21985 392.77328 -113.88306)
(-1039.38 385.48229 -101.47322)
(-1029.3042 389.8881 -105.23305)
(-1018.9638 394.36524 -108.71021)
(-1007.3332 397.47787 -112.19687)
(-995.32258 400.72672 -115.3973)
(-981.94705 403.67194 -118.39102)
(-968.11312 406.89244 -121.33858)
(-1135.3247 402.19687 -110.98273)
(-1124.5578 406.11987 -114.45941)
(-1113.4958 409.97149 -117.57316)
(-1101.3494 412.81071 -120.72707)
(-1088.9077 415.58341 -123.49253)
(-1075.1415 418.13431 -126.11019)
(-1061.0261 420.77804 -128.54289)
(-1233.871 419.54541 -119.43551)
(-1222.5374 422.82803 -122.72153)
(-1210.8527 426.19061 -125.58786)
(-1198.3107 428.47333 -128.4565)
(-1185.398 430.61988 -130.90833)
(-1171.325 432.62402 -133.25642)
(-1156.9604 434.62991 -135.24444)
(-1334.9832 437.68229 -126.65808)
(-1323.1487 440.2127 -129.83275)
(-1311.0173 442.74466 -132.45977)
(-1298.0546 444.50164 -135.26462)
(-1284.7448 446.07089 -137.45071)
(-1270.4555 447.49456 -139.56494)
(-1255.7719 448.76728 -141.27648)
(-1438.3375 456.48063 -132.52203)
(-1426.3489 458.29674 -135.51344)
(-1413.7417 460.15617 -138.2709)
(-1400.4565 461.31061 -140.89044)
(-1386.9505 462.15227 -142.78407)
(-1372.3424 462.96624 -144.92709)
(-1357.5701 463.36148 -146.3546)
(-1544.186 476.41147 -136.71675)
(-1531.9793 477.42871 -139.79937)
(-1519.0435 478.43727 -142.61362)
(-1505.7506 479.00923 -144.91242)
(-1491.9116 479.14312 -147.15287)
(-1477.2079 479.0912 -149.062)
(-1462.2513 478.73182 -150.30792)
(-1652.238 497.3675 -139.37691)
(-1640.039 497.57348 -142.69388)
(-1627.0638 497.78552 -145.37061)
(-1613.4471 497.56643 -147.85157)
(-1599.6683 496.76459 -150.06326)
(-1584.6265 496.18715 -151.79688)
(-1569.7202 494.84069 -153.22543)
(-1762.6338 519.27871 -140.47295)
(-1750.491 518.47227 -144.00632)
(-1737.2898 518.04943 -146.67485)
(-1723.8855 516.91811 -149.36215)
(-1709.73 515.75146 -151.42154)
(-1694.9619 514.20402 -153.44029)
(-1679.9085 512.03253 -154.91085)
(-1875.2586 542.17622 -140.18634)
(-1863.0505 540.75013 -143.75158)
(-1850.1633 539.41424 -146.6911)
(-1836.62 537.83798 -149.3343)
(-1822.647 535.78213 -151.68617)
(-1807.8119 533.53863 -153.72425)
(-1792.6869 530.42102 -155.33751)
(-1989.9758 566.24019 -138.45139)
(-1978.0655 563.95101 -142.28517)
(-1965.1875 562.01222 -145.22763)
(-1951.8053 559.64133 -148.10653)
(-1937.8049 556.98595 -150.56135)
(-1923.0132 554.00064 -152.70237)
(-1907.9968 550.09384 -154.55322)
(-2106.797 591.10937 -135.65842)
(-2095.0161 588.21552 -139.55098)
(-2082.3778 585.57651 -142.67305)
(-2069.1298 582.66401 -145.65314)
(-2055.2489 579.40666 -148.26358)
(-2040.6384 575.7824 -150.56851)
(-2025.6936 571.12702 -152.63644)
(-2225.5187 616.82863 -131.89502)
(-2214.0001 613.39691 -135.91869)
(-2201.5694 610.21156 -139.11055)
(-2188.5108 606.77765 -142.19089)
(-2174.7819 602.99996 -144.96604)
(-2160.3187 598.78712 -147.39771)
(-2145.4892 593.50614 -149.70407)
(-2346.0419 643.22317 -127.49769)
(-2334.7082 639.36475 -131.52624)
(-2322.5132 635.70363 -134.78033)
(-2309.6575 631.823 -137.94009)
(-2296.0991 627.59096 -140.85521)
(-2281.8305 622.90624 -143.41422)
(-2267.1359 617.12199 -145.89549)
(-2468.0584 670.09821 -122.71202)
(-2456.9049 665.96631 -126.69345)
(-2444.9342 661.92354 -129.99474)
(-2432.2866 657.70741 -133.13551)
(-2418.8941 653.12159 -136.183)
(-2404.8443 648.0229 -138.7884)
(-2390.3305 641.86838 -141.42868)
(-2591.3176 697.33536 -117.81718)
(-2580.2952 693.02587 -121.68163)
(-2568.5401 688.66723 -124.90718)
(-2556.0566 684.18474 -128.07385)
(-2542.8893 679.35156 -131.15304)
(-2529.0285 673.9896 -133.76545)
(-2514.6373 667.59679 -136.53146)
(-2715.4449 724.6327 -112.99495)
(-2704.551 720.30167 -116.66243)
(-2692.8558 715.7412 -119.86269)
(-2680.6099 711.15181 -122.88667)
(-2667.4639 706.08522 -125.85823)
(-2653.3386 700.18316 -128.55242)
(-2639.7507 693.99255 -131.3577)
(-2840.3024 751.9565 -108.46745)
(-2829.0774 747.59862 -112.16194)
(-2817.4802 742.90089 -114.79105)
(-2805.4104 738.17666 -117.9845)
(-2792.3682 732.94637 -120.72249)
(-2778.8243 727.72548 -123.44978)
(-2765.1052 720.98375 -126.52463)
(-2964.0436 779.11985 -104.70597)
(-2953.7521 774.68309 -107.82451)
(-2942.2308 770.05574 -110.74821)
(-2930.1353 765.28783 -113.20891)
(-2917.356 760.05768 -116.27416)
(-2904.756 754.56946 -118.57598)
(-2889.9563 748.06273 -120.82182)
(-3088.6368 805.61031 -101.42481)
(-3077.5706 801.27342 -104.09984)
(-3065.9357 796.59777 -106.48111)
(-3053.958 791.86186 -108.98591)
(-3041.0951 786.67357 -111.45661)
(-3028.1884 781.22534 -113.66457)
(-3014.6077 775.01709 -116.25134)
(-3211.6847 831.40024 -98.691892)
(-3200.37 827.14858 -100.95269)
(-3188.7097 822.61089 -103.19634)
(-3176.6041 817.92257 -105.18574)
(-3163.9339 812.79222 -107.5882)
(-3151.0248 807.466 -109.63568)
(-3137.3011 801.54798 -111.64206)
(-3332.9555 856.3409 -96.589045)
(-3321.4229 852.24835 -98.517572)
(-3309.5433 847.70474 -100.24788)
(-3297.4834 843.09605 -102.08447)
(-3284.7765 838.07072 -104.06168)
(-3271.9219 832.93456 -105.73067)
(-3258.4959 827.21434 -107.50359)
(-3451.9634 880.20598 -95.100403)
(-3440.1744 876.20479 -96.481346)
(-3428.206 871.77583 -97.941806)
(-3416.0094 867.26154 -99.334314)
(-3403.3034 862.38546 -100.98407)
(-3390.5714 857.36903 -102.44921)
(-3377.2523 851.95448 -103.87134)
(-3568.2731 902.86541 -93.968446)
(-3556.2675 898.92427 -94.940314)
(-3544.0466 894.57071 -95.957624)
(-3531.7805 890.17004 -97.124813)
(-3519.0627 885.40662 -98.400096)