/*--------------------------------*- C++ -*----------------------------------*\
  =========                 |
  \\      /  F ield         | OpenFOAM: The Open Source CFD Toolbox
   \\    /   O peration     | Website:  https://openfoam.org
    \\  /    A nd           | Version:  6
     \\/     M anipulation  |
\*---------------------------------------------------------------------------*/
FoamFile
{
    version     2.0;
    format      ascii;
    class       pointScalarField;
    location    "0.11";
    object      E;
}
// * * * * * * * * * * * * * * * * * * * * * * * * * * * * * * * * * * * * * //

dimensions      [1 -1 -2 0 0 0 0];

internalField   nonuniform List<scalar> 
3969
(
15200.092
11033.517
29128.702
29483.934
15626.54
11716.07
29803.133
29945.52
7228.9472
2867.2656
735.69373
136.63653
955.3283
3429.0104
8455.6244
28278.013
28672.104
28749.264
28751.735
29075.547
29110.786
28879.992
14263.022
10761.186
10413.068
9809.1533
8983.7869
8048.5835
6942.8404
5992.388
5004.0074
4220.0085
3599.1433
3089.4774
2638.9113
2313.7646
1988.3399
1695.6784
1451.4175
1261.1201
1110.977
1005.2577
964.64775
1001.4482
1134.0799
1359.9595
1662.6551
2036.8031
2422.4999
2848.8853
3348.254
3919.1334
4576.2128
5292.9392
6078.3359
6881.2806
7764.7802
8555.7753
9472.542
10464.486
11438.492
12589.418
13891.119
15559.751
17166.052
19853.271
21148.691
24605.074
27409.379
10759.444
7439.657
8548.074
7499.6641
7124.4377
6051.3679
5365.2327
4417.3861
3774.8665
3062.888
2581.3943
2134.3838
1857.5499
1621.6184
1405.1511
1227.0906
1106.5451
916.55481
893.46676
829.71578
920.83053
1068.4198
1289.6126
1586.4151
1926.4551
2244.6494
2784.1894
3207.9684
3698.2463
4277.1927
4926.0982
5671.834
6492.5562
7380.8526
8266.8732
9088.4735
9907.2738
10789.617
11439.844
12452.167
13600.946
15105.393
16905.696
19144.136
21558.278
24281.944
27074.711
7936.1395
3354.1629
776.92627
613.2934
912.97992
2942.3957
7460.9113
16470.338
11714.927
7089.7744
9584.2323
7207.7563
6619.6661
5769.5604
4302.7184
4100.8657
3029.0399
2833.3415
2204.7444
2121.8096
1623.9302
1403.7277
1129.3319
903.84657
820.40569
733.23509
739.05683
789.5108
896.12574
1030.423
1209.8307
1477.4602
1657.1314
1875.42
2363.0967
2864.9639
3532.479
4346.8206
5249.6061
6197.6697
7096.2289
7906.4668
8832.3584
9843.6196
9873.4765
11101.057
12188.156
13697.885
15600.8
17947.58
20543.154
23278.575
25927.257
28292.905
28619.489
29497.576
28148.19
29139.45
28490.724
29976.588
28624.321
27481.334
24841.284
21970.55
19561.369
17359.821
15426.375
13862.587
12596.113
11655.133
10659.654
9908.4073
8583.8288
8413.1654
7288.124
6406.5776
5529.2073
4717.4352
4029.7941
3436.9856
2975.77
2582.5014
2265.3347
1964.4471
1728.9166
1527.8304
1374.5583
1292.1477
1289.5742
1363.3532
1484.827
1693.6161
1909.591
2371.5418
2326.307
2693.2004
3275.0442
4024.427
4673.4122
5514.5164
6177.1931
7537.9559
8624.5128
9934.9058
10558.773
10948.355
11315.848
16228.865
10197.191
10782.966
10504.115
10561.585
10530.819
10339.821
11022.026
7307.4526
7916.8968
8661.9398
9048.3939
8913.5761
9042.8957
7457.0521
29513.777
29822.59
30031.485
30196.015
30257.299
30112.497
30129.306
29576.549
29935.519
30139.569
30212.072
30300.328
29899.839
29966.794
8780.1306
6824.419
6884.8688
6468.8679
6127.7019
5643.8972
5034.0993
4476.1822
3896.3279
3467.5809
2986.3948
2586.6162
2265.6537
1936.5836
1682.4216
1535.3316
1427.222
1374.7781
1385.6368
1439.5867
1545.6099
1702.2635
1890.3144
2107.2781
2293.6573
2511.7674
2766.1001
3153.5478
3609.0296
4229.4136
4927.3059
5688.0008
6485.9815
7313.7361
8102.988
9009.7163
9875.1551
10659.974
11583.191
12629.675
13868.491
15333.07
17123.255
19306.177
21070.929
24533.576
26368.916
3907.7256
3194.826
3569.06
3341.8422
3279.1496
3073.9672
2792.6985
2569.8021
2273.3996
2031.0432
1784.9213
1603.9116
1407.1777
1260.8755
1165.0884
1100.2225
1072.4756
1099.0281
1177.3369
1294.7005
1444.4923
1628.9238
1825.678
2038.6993
2241.1843
2539.6827
2854.4875
3211.8946
3666.2903
4214.8046
4842.4285
5543.7097
6304.5357
7058.3044
7900.1287
8705.2408
9551.8125
10528.488
11570.674
12715.633
13978.243
15578.602
17140.537
19520.1
20779.597
24641.322
25909.806
1374.7493
844.19255
1372.0809
1226.2014
1371.9866
1378.4967
1364.7105
1298.5754
1196.349
1137.8363
1039.2065
973.65631
888.293
845.64836
805.27426
836.36791
907.47468
1021.7606
1170.2768
1334.785
1522.7572
1728.1427
1973.4755
2251.4312
2602.8468
2921.5867
3246.4895
3634.147
4115.5066
4657.7853
5279.033
5949.4645
6646.0276
7385.5433
8119.2671
8878.7408
9691.399
10448.978
11269.151
12244.403
13484.36
14849.773
16552.607
18804.85
20551.461
24470.85
25519.037
571.34552
178.09893
501.65186
597.75978
720.4951
797.83643
789.69705
814.95962
738.83327
670.45107
605.51361
566.02104
520.39194
532.08248
544.99737
611.50485
694.4447
828.07667
977.6029
1158.5524
1378.7109
1612.2871
1801.0683
2007.7924
2171.6715
2376.7642
2662.7883
3014.9413
3427.3095
3934.222
4525.8033
5179.0346
5895.1435
6607.3792
7348.4018
8115.5212
8892.1154
9845.6434
11011.902
12295.439
13617.99
15324.144
17128.922
19537.369
21077.237
24592.949
25398.644
1272.2323
588.77841
821.84277
740.96799
766.55451
791.55214
675.86866
642.20218
519.13726
478.14583
431.67411
370.36089
306.93335
281.4818
278.08393
311.24871
400.77309
524.54659
707.9794
911.66558
1177.7929
1515.9997
1765.5393
2078.9804
2390.0019
2743.3488
3086.8956
3499.2875
3993.1672
4585.1087
5250.0892
5986.1216
6754.1032
7545.781
8353.883
9144.9142
9986.4584
10840.659
11623.364
12533.476
13785.73
15091.859
16764.739
18651.523
20511.9
23887.028
25547.094
3554.808
2814.0888
2831.2337
2733.19
2707.9475
2562.8112
2385.747
2154.6272
1958.7156
1701.5895
1549.2341
1348.2896
1197.5047
1071.4105
965.16353
903.01886
882.20229
910.85498
1003.175
1103.9633
1322.7855
1472.3347
1960.8241
2183.3814
2479.013
2684.357
2983.5284
3328.6604
3741.4281
4239.1191
4826.3476
5488.9891
6210.0169
6949.5299
7711.9453
8477.8006
9266.0622
10102.633
10941.134
12053.878
13396.373
15000.769
16921.268
19124.852
21571.009
24415.374
26202.722
5885.898
5074.2032
4920.9339
4804.0709
4432.5254
4045.705
3460.6289
3007.6281
2547.9756
2102.3417
1866.9212
1458.8534
1210.8922
975.83597
858.33982
800.29137
823.80956
903.75589
1000.8075
1187.9269
1326.7146
1585.8588
1731.8462
1936.7353
2161.1079
2420.3829
2829.8805
3288.7783
3892.7449
4595.3002
5381.5659
6210.1063
7056.2139
7908.2589
8753.9066
9592.7581
10450.172
11234.419
12220.123
13192.835
14376.217
15783.087
17488.132
19299.637
21568.899
23691.991
26473.708
4300.0778
4661.7523
3948.7089
3958.3514
4009.9416
4122.658
5151.9512
1736.933
1723.822
1453.3535
1485.6056
1503.5093
1644.9854
2075.9795
381.71367
253.15657
74.265194
167.82282
110.1412
188.98032
427.50318
-38.077874
-142.45162
-164.01275
-151.91134
-139.04122
-9.841735
210.15348
257.85393
99.895118
48.765782
37.224901
90.387371
224.12217
427.61878
1808.0223
1295.6165
1162.3959
1097.6281
1150.446
1352.8925
1990.0651
3955.3622
3968.7002
3376.2574
3492.6471
3437.8369
3764.9464
4930.7205
12571.313
11361.536
12367.284
13254.101
13196.908
13807.005
13358.273
11149.865
11824.674
10791.217
10395.601
11662.837
11646.412
11979.641
8727.6198
8863.6784
9325.2288
9270.0639
9090.0415
9090.6109
9659.7944
8891.6408
9801.5638
9557.2488
9633.6125
9727.1582
9818.456
8894.9055
7710.6645
7791.9414
8217.8808
8157.1125
8100.8834
7733.001
7896.1597
7028.0349
6974.5522
7066.1418
7190.4382
7052.7044
7125.582
6726.1107
5946.0905
5865.9151
6252.1263
6147.8265
6048.1173
6207.8691
6136.3268
5099.234
4881.4089
5050.9185
4903.7519
4832.4638
4754.3909
4710.3263
4302.0486
4004.6095
4042.2105
4059.5799
4220.3397
4099.5118
4354.5748
3513.6768
3249.3766
3275.3159
3408.2824
3201.7186
3151.5682
3331.132
2985.353
2754.503
2991.5095
2653.5423
2810.1329
2564.8087
3002.7411
2578.3417
2341.0905
2244.0033
2315.0733
2235.9803
1930.2288
2529.3709
2274.4998
1897.7015
2125.3518
1831.8236
1902.8894
1870.4373
2243.3757
1916.7298
1676.6831
1820.1698
1565.49
1800.7617
1367.2075
1982.4858
1727.7463
1474.8397
1543.0046
1425.5152
1393.0871
1308.2227
1712.9947
1495.2689
1161.1306
1434.1241
1103.6786
1330.163
1063.714
1498.761
1227.0358
1082.1698
1202.334
995.97642
1110.0464
929.96462
1253.2566
1099.8941
879.16971
1111.6752
848.24714
1023.1758
817.52994
1120.1791
952.56556
846.13694
1022.9116
789.51564
922.40479
767.52185
1046.6402
913.65503
822.81395
983.98875
766.4372
906.28192
775.8533
1020.8226
940.45413
876.83125
989.32856
798.2825
891.51044
789.98045
1056.104
1007.9409
968.73935
1037.8606
889.07128
953.22028
906.22539
1153.035
1157.1845
1136.6702
1164.2087
1047.0895
1056.2807
1044.9398
1297.8191
1409.5075
1368.3201
1370.4204
1296.1522
1252.3413
1284.4075
1496.7009
1690.6472
1639.9261
1635.3993
1525.4325
1511.7569
1576.3939
1827.7162
2073.6395
1975.0107
1998.9257
1965.6589
1929.0816
1897.8134
2047.1362
2436.137
2404.3425
2374.9014
2270.9784
2326.5738
2238.9766
2397.0423
2849.7202
2806.4216
2720.5299
2730.8954
2616.2741
2649.9092
2745.8826
3268.9014
3216.5313
3220.1935
3212.2813
3186.2545
3232.994
3185.391
3758.2139
3811.7504
3796.2817
3807.8342
3758.6075
3807.7784
3700.075
4373.0097
4470.5001
4476.2248
4506.0109
4464.4332
4572.2787
4401.8652
5112.3536
5278.6952
5266.8072
5310.5743
5267.6937
5405.4065
5213.2091
5977.5621
6148.577
6107.3886
6160.4256
6102.6365
6279.4748
6085.6011
6867.8565
7018.8006
6945.0139
7000.611
6937.8402
7134.2246
6943.819
7745.4204
7858.243
7767.2177
7797.4696
7760.0426
7938.863
7752.9908
8549.5695
8623.2062
8533.5099
8548.2586
8552.5561
8494.6985
8583.7099
9184.7717
9333.3102
9229.5506
9275.3252
9354.6781
9358.9125
9383.8979
9937.5687
10357.221
10284.162
10320.255
10223.341
10598.477
10072.727
10964.712
11208.714
11119.183
11239.298
11157.922
11270.762
10700.196
11962.615
12292.291
12294.015
12426.382
12389.207
12460.307
12047.301
13316.756
13741.406
13814.528
13982.771
13920.859
14034.532
13526.635
14975.124
15545.419
15696.237
15791.326
15879.936
15863.065
15422.129
17162.792
17735.315
17859.951
18010.572
18142.651
18032.584
17793.308
19663.751
20174.398
20377.114
20494.518
20678.737
20500.726
20460.373
22433.628
22809.964
22978.38
23080.586
23290.598
23054.449
23223.536
25315.321
25446.407
25591.096
25722.734
25852.191
25692.588
25905.64
27884.645
27724.718
27942.413
28149.644
28151.995
28211.621
28131.467
28590.521
29018.789
29420.817
29468.045
29455.797
29238.338
28893.465
30029.733
29550.487
30001.585
30098.413
30223.477
29773.319
30054.701
28540.735
28643.359
28810.475
28841.088
29107.979
28742.296
28841.721
29114.752
28926.462
29285.129
29393.312
29578.157
29092.001
29566.191
28988.344
28824.866
29207.97
29358.047
29242.966
29163.934
29197.866
28701.929
28425.803
29081.311
28996.05
29430.447
28930.797
29183.753
28203.818
29116.324
29341.819
29564.511
29557.66
29624.971
29392.097
13461.455
12353.635
11669.956
11343.98
11561.897
11896.397
12115.736
12280.563
11430.8
11481.183
11372.367
11498.194
11569.705
12011.055
11818.772
12120.413
11962.275
11816.473
12053.451
11731.402
11791.293
10783.461
10995.004
11092.379
11172.841
11044.263
10810.217
10828.825
9895.6171
10025.147
10182.032
10099.96
10145.815
9884.7325
9781.8197
8622.1727
8689.7488
8757.8746
8671.0001
8758.4109
8523.4429
8709.7146
7540.3066
7481.0152
7539.924
7555.8282
7527.2223
7470.0745
7555.6353
6400.3232
6287.2108
6295.5306
6294.0749
6235.8237
6167.3048
6418.2764
5361.0892
5238.5273
5296.3892
5186.1908
5325.4028
5024.0259
5590.1158
4466.4701
4363.3665
4377.9435
4309.1981
4330.8297
4218.3342
4620.5513
3821.4183
3674.5321
3739.2973
3608.9094
3748.5442
3528.9666
3994.6413
3414.0039
3163.7613
3132.3896
3165.4162
3129.5829
3078.0058
3362.0718
2829.2838
2682.3242
2747.7004
2601.5545
2760.2102
2545.5423
3312.0008
2721.2614
2468.0232
2342.0465
2405.023
2434.6918
2555.6362
2746.3994
2328.0414
2099.7771
2245.5101
2156.5306
2260.1833
1836.0893
2599.255
1980.1031
1894.1618
1921.1611
1810.8626
1947.6867
1967.7168
2247.6839
1823.1997
1732.5405
1707.7856
1716.9549
1736.8117
1644.0696
2015.7651
1616.355
1524.2611
1551.3803
1508.3561
1537.443
1494.3896
1764.3824
1425.2322
1386.9544
1378.2459
1357.5717
1396.2854
1332.2392
1570.9306
1303.2333
1282.7932
1260.9704
1265.1531
1267.3916
1219.142
1445.8778
1219.4252
1224.7503
1192.8266
1199.4394
1185.9713
1158.7462
1374.4442
1203.7863
1225.25
1165.6592
1202.6472
1160.6314
1157.9161
1391.6915
1273.7059
1290.2429
1222.1247
1278.446
1192.6583
1242.4822
1503.2585
1464.8411
1456.9609
1375.3672
1454.926
1338.4047
1443.9189
1726.9846
1744.0523
1726.8648
1637.5213
1737.435
1565.9624
1730.3122
2015.5585
2119.9499
2104.3171
1977.9907
2104.9849
1908.5042
2134.8784
2379.9096
2546.2557
2500.4648
2382.1136
2528.8245
2308.493
2551.114
2723.7013
2972.0906
2949.8588
2846.1134
2972.9603
2780.291
3031.1936
3109.0986
3411.6875
3447.7388
3303.501
3475.3069
3249.9341
3512.6496
3465.7611
3910.4763
3970.3295
3853.1492
3996.9246
3791.0845
4052.1372
3920.8967
4474.1428
4599.7974
4449.4462
4611.6631
4396.7425
4662.4665
4474.2505
5156.6228
5301.6582
5151.5931
5302.7081
5074.528
5360.9133
5146.6992
5914.3327
6090.2159
5913.0565
6065.9179
5838.0698
6145.5402
5921.5486
6724.6194
6904.9813
6725.151
6873.8186
6613.904
6936.4083
6648.5535
7551.2996
7737.8306
7543.6021
7658.7178
7448.1642
7652.5464
7567.4966
8309.9109
8533.8785
8341.0766
8547.0181
8223.3972
8635.0582
8350.5
9387.3589
9172.4421
9260.4772
9078.8787
9133.0494
9309.2307
9280.1068
10141.304
10413.185
10135.644
10500.883
9795.0899
10422.121
10005.189
11082.412
11324.065
11243.748
11359.883
10974.073
11440.948
10999.099
12230.017
12516.207
12404.67
12605.387
12227.852
12596.735
12210.703
13629.489
13929.548
13931.101
14049.504
13787.498
13990.933
13648.465
15351.486
15706.441
15706.061
15790.306
15643.534
15642.416
15433.544
17217.929
17437.91
17601.714
17585.245
17688.47
17493.226
17545.974
19777.711
20221.711
20268.542
20297.629
20471.854
20036.619
20072.763
21769.865
21759.896
22029.928
21982.726
22285.507
21712.496
22186.391
25053.873
25339.078
25426.152
25562.109
25551.006
25192.022
25568.176
27399.064
27341.476
27520.611
27572.46
27563.387
27664.16
27629.777
14474.404
10031.451
8892.024
8362.8351
8160.4943
7251.1983
6576.7521
5771.7618
4987.2125
4361.7219
3761.816
3142.0499
2729.293
2284.295
2011.1462
1896.0924
1777.0764
1707.4703
1751.3665
1803.136
1904.9552
2028.4711
2145.0244
2261.9435
2366.2266
2568.4407
2808.0885
3255.1773
3833.7637
4571.3763
5390.2197
6286.9301
7188.4319
8146.1431
8933.7197
9797.7896
10755.923
11254.804
12110.029
13019.408
14173.038
15587.82
17308.728
19288.679
21535.759
24328.751
26214.32
6511.429
6438.5485
4819.6172
4844.23
4811.4066
4112.708
4050.4012
3598.9863
3260.0413
2971.8839
2660.9931
2428.0507
2297.6563
2134.9347
2051.054
2013.9031
1920.9638
1909.6793
1961.4495
2013.9585
2123.0329
2246.546
2371.1992
2532.2545
2670.2093
2898.2027
3179.3112
3528.235
3972.0292
4421.9209
4974.9896
5597.3775
6297.4896
6976.4227
7648.118
8366.2102
8929.9734
9569.2319
10265.499
11193.619
12402.128
13985.576
15941.428
18483.4
20823.775
25089.996
25510.637
2115.7627
2353.4606
1836.183
2154.5848
1905.8923
1614.8493
1786.0573
1455.4983
1446.1016
1238.4574
1108.1831
1020.389
867.00226
682.63016
697.15531
631.83959
694.44549
773.46814
907.95496
1066.9341
1271.3469
1480.2847
1691.4644
1890.7383
2128.3385
2410.1275
2738.7085
3167.1606
3701.2438
4280.2245
4977.3577
5726.7557
6513.8781
7296.1384
8104.1594
8813.6038
9517.9247
10287.328
11172.475
12263.24
13548.742
15092.963
17015.747
19039.457
21424.99
24324.605
25332.818
584.95386
777.95119
495.60249
1166.1395
743.12864
1091.3962
704.96942
926.78659
848.55603
759.57689
810.02829
624.30984
671.40874
921.04578
913.41319
978.70259
1087.7579
1202.3473
1388.6689
1598.6744
1824.3485
2059.6658
2266.7763
2513.527
2745.7852
2996.9501
3220.1128
3550.2761
3926.6045
4402.6834
4965.9546
5592.5459
6273.9988
6995.6553
7666.2822
8329.7181
9018.9187
9738.2154
10542.012
11513.673
12674.841
14247.029
16000.701
18405.621
20568.026
24512.903
25256.105
1050.6042
348.57404
701.09651
594.77367
786.62986
721.2998
853.77481
854.7859
661.99436
791.37958
565.78315
627.63712
594.06274
494.40665
512.5992
554.41213
664.04047
813.42711
1023.1613
1269.883
1554.5566
1849.6047
2125.4585
2374.3045
2547.7143
2756.5066
3089.3558
3476.2094
3982.8211
4551.1323
5224.8343
5969.9165
6776.4526
7567.7188
8336.3587
9060.6527
9754.6546
10475.677
11279.408
12250.538
13545.949
15001.174
16961.613
19056.464
21526.328
24487.01
26056.917
2652.0638
2567.5219
1709.198
2428.6476
1810.0719
2126.3953
1987.2988
1739.7294
1901.6297
1534.7162
1578.9668
1410.6276
1191.3341
1140.0506
1030.5802
967.25291
958.04265
998.01416
1081.2292
1216.141
1380.7875
1576.4655
1781.0474
2028.0456
2508.7868
2842.0346
3083.6304
3449.436
3863.0863
4355.6006
4948.0469
5600.8511
6304.1116
7033.5272
7743.8337
8469.0352
9194.9587
9875.2794
10717.209
11780.927
12938.729
14556.281
16389.688
18719.607
21115.817
24233.417
26438.759
8468.3155
4675.8094
5690.1498
4456.7115
4812.1387
4033.8641
3625.6539
3243.036
2666.9408
2301.8346
1642.4635
1535.6183
1147.9906
1085.8767
923.80446
982.02604
1026.9012
1103.4271
1230.6293
1381.6102
1572.8803
1797.7698
2042.2057
2295.3542
2606.701
2817.9335
3229.1423
3803.0296
4459.2238
5209.3757
5974.4909
6787.1379
7615.1236
8466.4544
9284.9198
9970.3145
10716.737
11586.066
12402.138
13227.195
14399.365
15714.433
17342.357
19244.693
21472.257
23938.917
26916.619
11137.587
9539.1554
9360.4831
9130.3074
9231.4401
9188.531
9474.5783
9513.1289
9870.9839
9338.1762
9279.9642
9185.589
9311.3025
9429.8901
8483.74
9185.3602
9255.4416
9128.7917
9122.135
9067.5585
8967.2914
7959.3341
8358.5118
8518.7486
8582.8798
8483.2389
8387.7275
8051.9972
7243.5434
7654.3523
7901.0989
7879.3355
7887.2396
7781.8304
7579.0002
6556.7135
6768.6209
6858.4808
6980.8409
6869.5045
6839.5496
6773.1142
5844.6992
5969.5218
6090.7617
5999.1965
6037.1396
6034.9356
5999.2422
5081.8591
5175.3004
5178.1317
5263.4862
5235.6982
5165.0958
5267.6583
4486.0883
4519.9593
4512.102
4525.4095
4463.2491
4561.9916
4586.9476
3869.9568
3890.0124
3872.617
3866.9162
3878.1493
3890.6441
3941.2964
3377.448
3391.9607
3391.5045
3399.9882
3400.5871
3410.6878
3505.1875
2964.1667
2935.4438
2967.5498
2926.8873
2949.7134
2951.5616
3020.0952
2641.3619
2599.5745
2618.7519
2605.7492
2643.7703
2564.9849
2648.3977
2322.4776
2289.708
2340.6173
2342.0885
2336.0495
2268.3489
2409.0091
2130.744
2103.0044
2064.6219
2122.9182
2090.7333
2152.4391
2038.0526
1953.0725
1915.1865
1942.1552
1996.4676
1933.9853
1913.5095
1865.9623
1802.7143
1774.8295
1803.041
1868.3849
1812.0194
1813.9288
1782.2264
1729.8508
1706.6374
1732.4475
1806.223
1735.2525
1787.5675
1673.9032
1703.9338
1687.5858
1690.3213
1766.3416
1707.4313
1747.3859
1642.0449
1725.0418
1731.0982
1710.4872
1804.6697
1714.1832
1783.5674
1675.4472
1805.3076
1823.4041
1780.3777
1869.8857
1776.6792
1873.1657
1744.7354
1929.0809
1972.1433
1913.6273
2008.7628
1906.6137
2008.7496
1879.2127
2097.9616
2156.2606
2087.5572
2183.6894
2067.8522
2177.3453
2043.8089
2277.2933
2335.6272
2283.997
2383.0026
2276.0481
2382.5349
2228.8717
2465.4872
2527.2211
2504.678
2573.0485
2481.0984
2559.4107
2396.8877
2726.2034
2756.9322
2713.7059
2816.8669
2730.8666
2811.5427
2621.1185
2979.1804
3032.6907
2964.3855
3096.0517
2991.618
3076.8216
2843.4279
3349.1318
3361.0205
3399.883
3420.6154
3393.9423
3433.1178
3192.8302
3814.9442
3876.1973
3820.3511
3931.3879
3853.0507
3925.7045
3624.0215
4396.8868
4472.4666
4449.1839
4530.3874
4462.6538
4539.1063
4233.5736
5063.2057
5204.5643
5146.0484
5238.5606
5163.9072
5266.4499
4928.6319
5826.4388
6004.8656
5946.1864
6033.2513
5963.4618
6080.5251
5735.7157
6640.6643
6868.1601
6790.9643
6884.1699
6820.0946
6940.9433
6568.8343
7505.5957
7752.5065
7677.2701
7773.9932
7699.2353
7805.4563
7503.212
8340.7503
8633.9937
8573.294
8678.9327
8619.8117
8794.9555
8409.2379
9262.0661
9540.1613
9498.5616
9557.6757
9534.5659
9565.3575
9261.9846
10021.728
10403.212
10297.26
10517.215
10335.483
10520.755
10065.288
10857.466
11197.805
11346.378
11281.316
11425.72
11336.468
11012.127
11802.244
12097.52
12215.027
12177.132
12299.171
12227.099
11878.166
12845.298
13110.001
13286.229
13227.333
13381.966
13219.866
12931.533
14073.282
14359.446
14551.097
14469.354
14630.281
14442.071
14183.438
15538.564
15822.758
16001.151
15958.101
16116.683
15911.016
15710.626
17376.916
17655.32
17860.527
17825.367
17954.517
17697.671
17537.261
19402.341
19723.005
19835.342
19872.086
19957.518
19717.779
19625.658
21577.744
21749.008
21967.795
22019.54
21996.338
21687.136
21713.066
24457.967
24725.282
24807.455
24860.785
24829.126
24815.868
24825.789
26317.882
26622.034
26859.766
26910.577
26862.627
26825.02
26498.655
4996.2973
3969.6158
3690.5831
3579.7899
3559.7828
3628.1403
3858.0098
5057.5146
5673.2119
5398.6253
5457.7584
5460.1614
5470.8108
5514.4742
4638.6958
4981.681
5102.0564
5036.165
5084.4516
4847.4998
4830.3331
4328.1686
4713.3163
4896.8745
4951.9663
4850.8228
4822.3243
4431.3269
4065.2766
4265.5458
4472.1278
4414.9997
4515.6649
4305.0435
4288.8528
3744.2911
3874.0906
3823.5769
3879.418
3811.3045
3809.2111
3762.2424
3408.1225
3450.7274
3505.7167
3493.2709
3513.6184
3508.359
3449.529
3120.883
3135.9022
3036.5582
3057.5004
3031.3075
3063.0152
3105.7629
2813.1358
2752.0535
2704.8161
2678.0635
2664.9021
2739.2566
2740.4739
2543.006
2472.5167
2403.9735
2404.3958
2420.5957
2470.3899
2474.6841
2311.342
2221.7396
2157.7825
2145.4211
2107.2299
2195.8027
2190.2548
2120.1722
2036.3889
1945.5107
1971.4534
1915.9578
2027.2877
2003.6082
1954.4865
1857.2893
1787.6421
1857.1033
1780.0977
1925.8487
1862.4977
1825.4705
1721.9236
1716.635
1704.3167
1672.1141
1763.9141
1731.3259
1718.1188
1608.4628
1648.5774
1634.2854
1624.4426
1695.729
1662.4011
1658.4555
1545.0944
1582.7709
1566.2616
1580.4132
1621.9201
1618.8642
1607.088
1533.1153
1578.8302
1563.2289
1542.0049
1635.0736
1595.5564
1611.9716
1545.4347
1577.5272
1565.0348
1568.3826
1648.5666
1580.992
1643.1441
1584.0352
1620.7834
1626.6326
1601.8336
1691.0112
1635.1964
1719.3559
1668.3832
1705.1199
1706.5982
1683.5906
1795.743
1725.1682
1827.0856
1783.7774
1812.8208
1813.7179
1794.2237
1912.9995
1830.6146
1967.3405
1933.4877
1951.7986
1961.8801
1936.1376
2070.6584
1989.6923
2126.5898
2087.0775
2103.8639
2110.7345
2078.9972
2250.3674
2151.2194
2330.8102
2265.6199
2293.8159
2302.3938
2274.2059
2467.0914
2363.5086
2562.8446
2470.593
2540.6269
2525.9938
2474.9203
2638.3527
2544.8802
2867.5768
2735.692
2804.8569
2729.5388
2761.4309
2868.7231
2836.5488
3184.1627
2937.8008
3072.1325
3140.2966
2987.5373
3243.8364
3088.2599
3498.0773
3401.6767
3350.3084
3477.6178
3372.8998
3519.2573
3407.9212
3939.5134
3788.1277
3850.8997
3912.7975
3783.8123
3940.4408
3822.0692
4412.2472
4290.2141
4334.5021
4389.8297
4284.3225
4416.4087
4314.4376
4965.6501
4882.8507
4910.4366
4982.0258
4869.7695
4985.8181
4892.9449
5600.8565
5546.2893
5564.5599
5630.3595
5534.8687
5624.9501
5545.0893
6294.5595
6272.151
6276.0411
6340.8595
6243.6568
6314.1406
6275.9302
7010.7681
7024.8705
7032.7951
7073.8873
7010.0512
7104.6487
7028.4254
7792.082
7813.3843
7799.5474
7824.3808
7776.7599
7773.4219
7723.3015
8494.5182
8544.2532
8565.4347
8580.8064
8528.8308
8607.2971
8498.6168
9292.0909
9360.015
9394.7246
9335.6762
9386.3538
9225.674
9264.9678
10062.192
10190.043
10211.614
10197.365
10145.703
10068.784
10095.974
10940.69
11151.983
11117.57
11181.779
11093.813
10981.358
11027.537
12025.281
12305.975
12226.305
12318.214
12193.582
12015.754
12091.609
13304.683
13612.222
13529.407
13623.023
13540.016
13276.596
13397.376
14914.155
15288.215
15218.115
15334.809
15241.131
14918.28
14996.168
16675.283
17044.337
16990.388
17079.644
17034.167
16691.656
16813.917
19034.104
19469.869
19462.14
19571.47
19617.644
19277.694
19252.994
20924.901
21205.582
21312.38
21409.048
21421.785
20966.557
21006.344
24504.42
25033.886
25018.667
25135.073
25184.945
25075.99
25258.257
25747.925
25779.232
26190.091
26296
26256.744
26141.79
25877.602
1877.2217
1505.3772
1344.0274
1289.6919
1227.3489
1253.5441
1232.5916
1735.984
2091.7275
1990.4563
2050.9432
1992.41
1941.7887
1949.5049
2005.0619
2088.0092
2105.5142
2122.3906
2072.0481
1973.0947
1889.1849
1727.5
1955.9017
2204.4748
2282.2772
2200.8089
2174.6616
1933.3334
1851.0503
1922.8448
1938.9794
1906.6143
1892.3391
1746.6111
1874.7139
1705.3482
1552.1221
1636.2032
1726.3761
1658.3437
1673.2509
1624.0372
1698.6536
1526.4137
1598.2301
1594.814
1620.9585
1626.7499
1651.6814
1570.5392
1326.5689
1307.8673
1264.7109
1313.3755
1326.5681
1389.3849
1404.5046
1191.1432
1202.3973
1225.8209
1274.4622
1288.5093
1343.8553
1294.7879
1059.4078
1037.275
1001.902
1056.614
1057.4178
1180.0004
1137.4817
931.76146
918.69699
897.0882
962.30994
949.72627
1055.6664
1056.2092
813.39539
808.06681
792.15281
902.59495
869.69854
1005.5009
953.39398
694.43174
797.02191
717.7327
809.17481
739.6548
909.2619
940.10602
666.29559
781.97969
711.80378
743.98817
700.24665
841.28564
966.67076
755.39907
707.84085
719.95436
718.58088
688.72107
822.26091
987.64147
766.41136
766.75836
806.05528
719.34116
745.4171
840.04925
1065.5523
833.91032
828.73315
840.2173
788.64884
805.68335
887.95139
1163.1554
935.66476
908.59298
951.86443
880.10361
906.54924
982.00638
1298.2301
1072.6587
1039.4712
1076.8321
993.80751
1046.3199
1113.9145
1453.9708
1248.5084
1195.7371
1232.2034
1154.5552
1223.405
1259.0569
1638.8284
1450.1098
1375.8235
1417.6262
1331.0922
1406.4015
1432.8839
1837.8695
1668.2706
1584.4014
1627.3922
1528.3197
1624.4947
1627.8119
2049.0057
1903.1559
1818.238
1854.9433
1756.1456
1844.2315
1816.4728
2248.9283
2163.4403
2064.4615
2121.8915
2004.6476
2069.1185
1992.245
2491.5299
2415.6229
2332.9392
2369.8576
2246.5404
2347.4807
2199.6599
2716.3492
2692.1386
2593.2965
2659.1387
2522.3529
2636.1018
2428.4782
3002.3049
3027.9631
2973.893
3003.2396
2855.6753
3014.0392
2711.108
3361.4095
3430.4811
3323.0891
3404.3939
3233.7595
3404.9581
3062.7045
3776.6158
3911.0055
3822.6937
3882.5956
3721.7873
3927.0507
3532.3613
4262.3538
4449.3451
4361.5645
4440.6236
4274.9164
4507.4365
4054.0541
4840.9752
5086.5224
5002.3942
5072.6479
4914.3986
5164.2496
4679.8602
5477.9675
5779.9699
5687.1395
5769.5265
5603.7591
5871.7366
5382.1674
6163.3744
6528.2666
6430.0735
6509.9798
6352.8233
6651.4972
6124.9123
6901.7634
7310.4656
7189.8196
7271.045
7135.8165
7371.1619
6858.7549
7623.7686
8079.4317
7958.4684
8059.9653
7914.6688
8165.6342
7669.5819
8382.8958
8877.7672
8761.9095
8835.1566
8734.0583
8908.1322
8455.2513
9155.7147
9692.2602
9553.9377
9671.4506
9512.942
9723.476
9225.9901
9986.7874
10495.152
10416.536
10513.807
10422.555
10573.462
10111.595
10931.332
11437.293
11407.494
11459.151
11400.58
11534.857
11022.27
12008.438
12477.385
12503.371
12557.231
12511.129
12599.253
12152.529
13290.667
13734.121
13837.936
13885.327
13864.796
13960.852
13513.996
14793.996
15234.268
15375.269
15413.584
15422.639
15447.132
15086.344
16640.002
17009.217
17202.427
17244.159
17286.935
17283.108
17032.177
18815.894
19164.426
19402.441
19400.793
19528.398
19406.066
19209.105
20991.307
21253.132
21527.688
21538.39
21622.676
21253.534
21305.072
24224.309
24531.37
24590.598
24572.111
24659.139
24474.262
24881.478
25533.253
25704.302
26158.722
26159.736
26091.99
26018.444
25800.249
599.13675
530.92616
480.55078
469.75604
425.42349
396.43092
230.37919
517.78257
888.84009
933.47163
1010.9567
969.34722
892.13995
762.18526
668.34351
763.83473
730.27529
768.6785
755.10886
688.60141
507.41644
717.4061
1006.8086
1210.1678
1302.4652
1285.3998
1212.5288
1076.3082
789.45946
835.65068
707.85219
644.2236
651.34421
607.59481
667.19134
873.79602
932.85056
928.49885
1050.503
1044.2122
1034.2348
1051.7913
903.59789
800.06918
711.7669
686.94306
686.80907
645.04797
884.29497
934.06238
843.321
762.96816
783.37681
772.58675
830.44395
917.03098
900.5306
795.99205
753.69906
652.79745
742.54364
675.05926
913.81378
849.62969
790.44857
667.06192
630.5651
635.73367
666.74275
782.76664
801.84774
685.76119
742.81205
599.20599
730.99076
667.26586
821.90787
743.45947
707.97015
673.30648
535.71874
629.72422
597.58538
737.80546
736.33854
643.26486
660.28015
573.56835
682.48723
606.4154
699.62135
700.93137
676.3944
603.29287
573.4348
598.25405
711.10305
630.6739
690.87391
596.41099
736.6556
599.93827
675.07028
718.11936
679.92395
752.66939
643.08499
762.81412
672.54682
702.42467
798.53446
715.04578
847.37859
718.41863
871.41344
769.22208
802.38162
898.80916
807.89516
986.36243
842.33989
1002.3422
897.94428
924.92311
1034.1488
951.04466
1151.0022
996.34389
1169.475
1058.1258
1093.2328
1201.5197
1105.7342
1360.5219
1188.3097
1350.9433
1246.6856
1285.2799
1384.8856
1301.5716
1572.5842
1379.3035
1553.5029
1443.5031
1488.2358
1583.4185
1496.158
1779.6848
1608.831
1760.1418
1658.193
1708.307
1797.9396
1708.9415
1976.5396
1831.4883
1954.6174
1861.612
1902.4719
2000.9311
1900.9508
2222.056
2052.9543
2151.2438
2061.8097
2089.2134
2216.6466
2146.6072
2401.2399
2256.6047
2363.9132
2278.7646
2292.0468
2409.0674
2362.053
2615.9133
2555.6351
2648.9538
2534.7696
2593.4271
2659.9315
2636.0143
2921.5368
2851.7575
2910.3442
2832.3192
2923.2453
2900.3674
2933.5292
3268.4168
3241.7718
3288.5417
3191.1798
3281.2696
3256.4727
3292.1475
3698.6918
3663.7537
3707.4845
3637.5771
3738.8046
3669.7796
3714.3332
4212.992
4216.0704
4207.5655
4146.0016
4255.6838
4156.7824
4225.6176
4806.9877
4818.002
4804.197
4732.8989
4870.0269
4734.2272
4830.26
5466.0688
5506.0807
5469.4417
5396.0817
5546.3976
5386.9902
5495.7916
6189.5335
6234.2361
6181.1784
6103.2779
6263.8262
6059.5523
6191.9099
6912.8554
6977.605
6916.0076
6846.6496
7002.4292
6796.585
6953.6811
7662.1206
7746.4022
7666.689
7610.1116
7746.585
7511.5169
7685.0376
8402.2765
8507.9986
8440.1389
8381.9011
8503.622
8266.0775
8416.5681
9165.1248
9309.0349
9236.5993
9180.4208
9335.1649
9026.743
9192.7707
10033.36
10176.883
10131.76
10089.088
10190.591
9863.779
10023.771
10985.632
11158.713
11122.682
11103.647
11187.817
10812.434
10992.457
12152.348
12326.846
12317.717
12302.737
12395.268
11976.851
12141.23
13446.035
13726.738
13673.347
13689.196
13755.947
13296.761
13445.764
15089.681
15413.728
15376.662
15425.352
15475.017
14991.423
15108.238
16877.64
17261.351
17178.083
17231.969
17253.007
16794.252
16899.011
19137.817
19646.27
19571.776
19669.384
19731.074
19287.306