/*--------------------------------*- C++ -*----------------------------------*\
  =========                 |
  \\      /  F ield         | OpenFOAM: The Open Source CFD Toolbox
   \\    /   O peration     | Website:  https://openfoam.org
    \\  /    A nd           | Version:  6
     \\/     M anipulation  |
\*---------------------------------------------------------------------------*/
FoamFile
{
    version     2.0;
    format      ascii;
    class       pointScalarField;
    location    "0.26";
    object      E;
}
// * * * * * * * * * * * * * * * * * * * * * * * * * * * * * * * * * * * * * //

dimensions      [1 -1 -2 0 0 0 0];

internalField   nonuniform List<scalar> 
3969
(
23767.208
22552.965
9048.4566
8543.6526
25895.213
23210.931
8634.461
8939.6958
12244.933
4755.1876
1615.4072
1308.5601
3528.3359
9109.6822
19438.281
9657.13
9120.5736
8966.5331
8840.1736
8619.7409
8720.6346
8984.0164
23813.865
20103.868
20490.203
20845.624
20661.58
20441.912
19797.028
19283.799
18568.358
17953.815
17481.559
16990.391
16483.144
15975.608
15446.935
14791.043
14171.177
13458.327
12699.992
11828.703
10971.773
10100.397
9321.251
8614.8684
7890.6356
7267.3911
6475.454
5799.3089
5151.7444
4525.9813
4006.4072
3588.2864
3288.5181
3197.6597
3263.7884
3619.7072
4026.5447
4584.478
5091.0988
5586.3953
6195.169
6498.8389
7259.5444
7357.2707
8304.3964
8256.1722
9017.0829
22815.595
17254.432
19913.776
19445.324
19859.708
19174.88
19059.913
18432.63
18092.616
17473.621
16977.003
16491.601
16014.201
15576.007
14972.735
14419.496
13814.572
13041.183
12439.126
11591.406
10955.14
10267.922
9476.9566
8829.0721
8147.1549
7624.4005
6715.7299
6287.3993
5612.6418
4955.4348
4513.7201
3958.3167
3759.7718
3588.4533
3702.0415
4021.931
4404.5207
4877.3297
5409.8002
5963.6353
6532.1873
6855.3541
7265.6554
7474.658
7932.4554
8217.8613
8668.3275
14044.452
5702.8061
2010.9049
2175.1441
3064.2499
7585.2207
15973.169
32430.391
23622.981
18119.327
23697.829
20644.681
21547.824
20721.314
19581.827
19607.969
18400.394
19076.028
18602.849
18894.91
18282.411
17769.263
17282.079
16403.54
15827.813
14950.055
14171.46
13325.079
12528.299
11725.408
10906.362
10120.688
9327.7649
7714.7429
6615.6196
5699.0015
4781.5749
4103.5929
3677.3729
3348.8506
3267.745
3179.9947
3069.3335
4352.0814
4169.3475
4550.5055
4955.1034
5276.7957
5744.036
6107.3814
6610.2839
7160.6035
7611.4108
8496.8051
9275.5496
8361.6397
9385.0129
8177.282
9056.9097
8540.884
9711.0596
9439.4063
8342.5604
8231.2931
7676.4983
7147.1839
6683.7401
6196.5407
5702.2126
5254.512
4868.8345
4629.0081
3428.8742
3609.2425
3382.1473
3395.8456
3550.2218
3868.625
4405.9567
5029.3112
5833.9978
6637.6927
7534.9434
8378.2186
9182.6296
9979.8044
10732.175
11498.512
12254.293
13057.585
13808.114
14636.118
15434.131
16156.931
16472.022
17545.126
18126.706
19058.736
19420.679
19906.645
20502.524
21344.96
21561.024
22630.368
21966.282
21520.422
21268.567
27978.119
15863.454
16527.287
16341.947
16488.001
16547.677
16466.338
17807.81
14491.329
15225.403
16565.909
17166.374
16906.456
17362.774
14514.338
8716.2791
8832.5384
8809.4548
8800.9661
8757.3138
8762.8088
8761.4011
9111.5523
9144.393
9156.2488
9192.1144
9180.2895
9226.462
9259.0333
15159.122
12899.316
13374.235
13413.75
13657.732
13552.84
13314.553
13056.534
12729.025
12535.751
12224.376
11874.088
11583.301
11174.389
10846.906
10609.957
10330.397
10011.015
9663.0151
9258.9223
8833.5815
8389.3434
7940.9555
7420.6477
6828.1184
6270.5535
5636.282
5223.6809
4874.0796
4612.1894
4420.6234
4255.8647
4118.8508
4091.2273
4166.26
4352.9417
4675.5907
4965.8382
5480.5204
5917.3524
6477.3587
6963.7647
7493.8782
7664.5241
8365.5035
8142.4635
9295.6781
6777.8439
5861.504
6500.9818
6435.6826
6529.263
6498.424
6281.7324
6246.475
6044.2146
5948.0865
5810.5173
5705.3183
5624.245
5583.1038
5557.5155
5452.811
5360.5928
5212.9534
5066.0642
4894.222
4755.9475
4638.8065
4469.7242
4367.9548
4261.3919
4134.0771
3948.1729
3820.4369
3693.6432
3585.8681
3534.5809
3470.4967
3466.9395
3552.8691
3711.0506
3998.8849
4383.1797
4751.8637
5269.2209
5636.795
6276.3993
6509.991
7267.4435
7291.6751
8362.6029
7905.5636
9525.073
2451.5759
1329.3972
2023.7614
1679.4141
1950.0579
1901.1248
1942.3477
1912.7405
1860.8743
1956.1294
1957.2081
1947.5512
1953.7222
1929.9575
1919.2858
1990.5229
2054.6119
2093.6021
2139.3439
2082.9634
1986.6582
1845.5271
1834.9376
1896.3199
1887.4728
1926.9571
2086.4522
2164.3339
2299.5367
2441.6074
2557.6439
2689.2896
2843.0242
3061.5559
3389.7636
3803.4056
4337.9931
4954.0497
5663.8802
6211.1239
6724.8801
7189.5883
7641.825
7757.0324
8363.4291
7896.4269
9651.7534
1486.2668
279.14976
573.74019
517.00374
622.42582
679.01252
655.88064
800.35356
754.47524
773.39005
816.16203
880.98166
965.32371
1042.4729
1134.1622
1222.3373
1317.8915
1435.1538
1484.57
1550.8787
1775.2243
2066.795
2337.108
2532.5412
2755.7201
2952.3363
3015.9865
3099.1306
3192.08
3254.6898
3325.9094
3427.7098
3519.8722
3718.253
3924.4627
4235.918
4621.775
4958.8611
5257.1016
5528.9539
6085.8166
6276.9843
6850.5587
6937.465
7849.8666
7791.9723
9602.4581
3737.8725
2079.483
2255.7228
1934.4805
1957.08
2012.985
1863.0888
1917.6973
1813.122
1897.1597
1964.5183
1914.6472
1847.29
1777.0088
1745.4665
1673.1175
1685.9852
1653.3599
1661.9197
1613.765
1841.0885
1496.7063
1329.4972
1430.04
1453.7341
1374.1243
1437.2396
1514.3009
1610.9984
1706.8128
1846.3123
2020.3845
2210.6749
2501.0565
2839.9417
3298.9806
3811.9957
4371.3621
4795.8616
5589.4705
6050.9821
6633.4916
7106.834
7639.6296
8168.1532
8240.9278
9551.0835
8919.022
7458.077
7475.7013
7518.3944
7773.5831
7835.3734
7872.2436
7792.0023
7721.5447
7576.9873
7524.3251
7444.0049
7220.7392
7138.9759
6967.6967
6879.5666
6739.4532
6613.2898
6459.8056
6225.2459
6058.7407
5956.5616
5280.5964
5090.6474
4936.8018
4833.1358
4725.3787
4603.5586
4405.1959
4295.5141
4166.6281
4069.8929
4035.0006
4108.6569
4224.1036
4555.9117
4889.1814
5248.4079
5794.9169
5993.0417
6355.0154
6602.3201
6974.0214
7198.8082
7555.4606
8009.2591
9146.5603
14194.502
12601.242
12679.072
13323.607
13459.504
13674.721
13447.521
13381.609
13203.068
12864.967
12806.166
12382.432
11929.808
11463.322
11123.136
10790.744
10503.77
10186.212
9814.7713
9423.2888
8999.2477
8214.1517
7958.3408
6916.7677
6281.3827
5577.5172
5048.464
4631.8167
4379.1609
4180.3311
3989.2215
3856.7627
3688.5319
3615.8
3580.3412
3698.6285
3870.6398
4353.2671
4683.3232
5298.9342
5894.4614
6552.7664
7073.4835
7582.8551
7979.0251
8547.823
9025.2063
7264.87
7725.2586
6619.5099
6614.0488
6815.24
7140.7877
9077.4235
2754.79
2615.5581
2145.3882
2178.7065
2287.6757
2580.365
3578.4232
841.2183
452.84134
127.57339
284.70555
205.00405
475.50024
1031.6279
480.67071
88.632869
-67.358754
-88.126871
10.495474
380.53224
1057.8819
1309.568
731.89804
480.09564
437.71554
549.14734
942.99369
1608.7078
4730.2571
3366.0371
2918.0385
2737.571
2850.263
3395.2741
4992.7923
9159.864
9039.4553
7586.4399
7726.7005
7600.6591
8227.8205
10730.445
25184.825
21970.767
23655.189
25179.858
25001.716
26460.936
25832.65
23818.639
24498.138
22550.277
21824.897
23808.651
24242.369
25040.402
21237.399
21576.844
21929.347
21864.994
21733.426
21765.597
22612.69
22087.544
23998.96
23749.323
23945.33
23988.234
23928.975
22509.59
21229.768
21607.031
22420.073
22411.747
22273.485
21566.627
21492.059
21307.666
21595.059
22052.953
22204.372
21950.913
21497.979
20970.131
20359.059
20576.516
21290.929
21221.642
21104.596
21053.674
20737.819
20158.552
19961.703
20319.73
20195.508
20041.166
19712.878
19483.223
19382.723
19271.695
19655.43
19637.911
19655.237
19377.787
19445.203
19061.315
18757.698
18811.662
19054.245
18687.755
18451.065
18615.434
18553.671
18382.841
18803.393
18346.993
18434.869
18062.424
18456.78
18229.317
17965.636
17915.159
18078.035
17969.479
17270.779
18266.619
17883.657
17378.402
17891.194
17374.885
17464.778
17180.468
18075.099
17232.875
16962.721
17283.811
16910.109
17399.573
16427.873
17794.239
16900.553
16399.49
16767.87
16440.757
16503.145
16036.784
17153.477
16171.691
15532.799
16309.782
15608.302
16233.778
15416.804
16608.27
15431.995
15083.766
15614.892
15046.47
15523.974
14681.403
15788.257
14784.089
14245.776
15075.916
14368.46
14976.55
14127.92
15129.764
14015.015
13650.261
14462.234
13635.046
14310.949
13372.24
14405.809
13301.906
12921.502
13764.704
12984.192
13658.395
12767.731
13712.804
12571.537
12194.373
13077.126
12175.464
12877.403
11935.515
12962.174
11770.303
11455.338
12269.97
11434.61
12111.85
11235.048
12295.186
11040.861
10742.191
11470.805
10694.203
11327.518
10535.9
11718.269
10293.371
10119.316
10701.845
10058.979
10568.975
9817.4056
11085.309
9584.0091
9617.4375
9686.123
9576.2348
9697.0676
9211.8802
10574.887
9026.9864
8914.6482
8902.1085
8902.0011
8815.8047
8567.6354
9859.591
8452.1381
8162.7227
8218.7393
8080.0912
8595.5379
7776.0282
8855.1862
7992.278
7212.2262
7636.9793
7036.0412
7372.2382
6571.3602
7815.8285
6824.952
6498.7077
6447.3047
6372.3557
6442.7341
6049.1918
6758.2111
6157.4658
5456.0048
5936.3167
5482.8371
5738.1088
5178.1972
5803.0465
5209.9474
5004.2262
5163.9247
4918.8972
5032.3821
4629.7336
5042.7657
4778.1507
4438.8687
4758.1174
4461.754
4600.8774
4258.1017
4561.4901
4334.5645
4215.8508
4433.3996
4193.3813
4277.6694
3998.5488
4245.2179
4223.4322
4102.2122
4280.3221
4048.5349
4097.8873
3904.9434
4155.1384
4209.1812
4121.7469
4216.0838
4051.4162
4045.9805
3891.1798
4158.0285
4421.0738
4306.6035
4371.8132
4160.9989
4162.544
4496.3198
4515.2444
4818.989
4495.5994
4543.3495
4406.4282
4655.2724
3917.9053
4832.5735
4945.1474
4689.8084
4714.379
4641.2982
4567.8569
4889.5656
5086.6603
5588.9347
5310.2094
5320.3069
5074.558
5144.032
4907.4752
5582.7993
6058.6289
5636.8613
5577.9236
5476.4799
5417.6751
5321.5249
5915.2337
6324.7879
5922.7995
5969.4463
5758.1924
5794.7834
5664.4022
6068.4145
6602.6418
6235.2625
6251.3503
6154.3346
6130.9314
6033.6433
6338.407
6800.0576
6586.6144
6695.1034
6566.8546
6523.5537
6497.0904
6638.4529
7084.1803
7043.0972
7061.2588
6998.078
6955.3535
6977.2819
7015.7275
7522.9202
7550.6849
7587.4205
7555.601
7507.9903
7545.7606
7524.3193
7958.0771
8081.2836
8049.2872
8044.2222
7997.9317
8022.0004
8011.2768
8585.5443
8692.4053
8622.5604
8628.7041
8623.826
8596.4867
8641.6324
9695.7712
9754.9193
9731.4931
9786.1695
9793.3674
9774.3521
9795.7046
7995.6629
8661.5035
8530.4164
8544.8905
8451.125
8622.9782
8260.1976
8947.8701
9132.7993
9200.8371
9226.3446
9180.3362
9231.3862
8893.8563
8293.6757
8489.7616
8375.6262
8419.2748
8276.6944
8506.5862
8025.3077
8629.2594
9108.7623
9123.7725
9046.6042
9198.4506
9090.3952
8712.5664
8737.8515
8802.748
8658.1513
8742.8078
8563.2311
8758.0273
8348.4278
9050.866
9212.1494
9198.9752
9195.7444
9249.0344
9203.7143
9136.2968
22781.649
20695.402
19803.543
19369.383
19779.75
20415.606
21124.891
22372.153
20883.215
20934.323
20779.827
21049.518
21460.77
22272.304
22638.74
22881.053
22626.704
22438.994
22863.103
22600.468
22831.5
22126.71
22475.181
22559.107
22736.887
22598.626
22280.513
22579.913
21931.089
22006.001
22304.562
22216.598
22266.582
21874.816
21872.697
21058.438
21228.676
21285.15
21294.18
21380.494
21023.435
21403.272
20668.539
20551.709
20618.916
20524.476
20623.598
20577.073
20784.499
19793.28
19699.399
19749.365
19699.104
19718.824
19620.234
20078.517
19235.551
19086.66
19165.112
18996.816
19201.493
18855.839
19713.266
18496.097
18328.067
18356.855
18197.851
18318.792
18147.106
18899.926
17918.59
17789.745
17914.303
17662.809
17915.357
17645.564
18421.502
17582.022
17293.273
17191.367
17204.512
17183.169
17136.413
17746.548
16971.168
16708.788
16820.075
16510.866
16694.688
16434.035
17564.04
16664.724
16278.858
16115.479
16021.436
16229.339
16379.214
16873.079
16046.7
15603.077
15683.478
15531.629
15793.602
15044.789
16426.797
15288.158
14951.571
15036.764
14643.702
15006.63
14742.094
15594.732
14635.099
14385.984
14306.98
14191.209
14336.126
13914.583
14855.013
13944.212
13607.451
13732.127
13407.622
13638.243
13254.254
14067.254
13129.063
12948.985
12987.489
12714.763
12968.999
12500.192
13296.858
12376.697
12187.766
12266.778
11999.084
12209.038
11749.206
12510.298
11522.495
11383.011
11496.322
11180.318
11428.046
10952.333
11696.226
10669
10550.868
10648.607
10369.18
10620.222
10119.265
10900.337
9881.9175
9694.5335
9836.6287
9554.9352
9783.0947
9309.4402
10209.4
9165.6726
8970.5839
9094.9375
8814.9047
9063.7787
8593.1535
9575.2189
8595.2467
8288.3108
8406.6306
8146.0357
8369.6006
7887.0862
9027.3704
8101.1526
7597.8624
7836.2757
7499.8036
7793.6615
7305.3675
8508.5129
7463.7686
6945.5608
7150.6577
6844.0735
7146.765
6597.5959
7800.1677
6816.9109
6234.6635
6466.16
6168.8881
6521.543
5975.8969
7084.0039
6007.5871
5480.6888
5764.091
5449.7628
5818.6597
5227.3005
6215.2522
5266.7737
4858.2396
5065.2865
4806.5493
5149.6951
4630.9287
5457.8892
4643.3813
4254.7064
4500.0024
4265.689
4598.946
4110.1261
4789.0165
4161.4415
3881.8839
4088.9916
3882.0135
4161.8937
3749.8005
4326.2426
3891.0423
3649.307
3835.4667
3666.2897
3908.8948
3562.5
4046.4899
3790.6178
3589.4558
3733.0495
3597.2151
3756.0637
3524.5364
3985.1281
3874.9946
3659.5475
3790.9348
3688.6021
3797.9393
3666.8957
4059.5348
4127.128
3954.582
4052.8754
3896.7945
4028.073
4122.0778
4328.1161
4671.0719
4271.8721
4231.3642
4272.6213
4450.8229
3884.7451
5006.8941
4852.5176
4694.4672
4746.1797
4666.7192
4743.4045
5004.1498
5239.7939
5628.0368
5389.2266
5339.5293
5335.0905
5381.4739
5300.203
5895.944
6138.7091
5813.3171
5778.0919
5876.6637
5783.9138
5861.001
6283.7714
6552.6983
6278.1865
6292.9415
6296.2946
6285.2039
6306.8443
6593.5718
6760.4244
6581.5391
6543.5037
6619.9695
6567.5223
6656.0493
6890.6269
7298.9045
7206.6347
7145.79
7254.8389
7120.3323
7229.6176
7211.0852
7337.4751
7197.8907
7229.8773
7266.4761
7158.2842
7330.6888
7459.3832
8208.2561
8307.1816
8240.0836
8287.2104
8166.6252
8387.6362
8247.094
8162.6717
8054.8576
8076.9614
8042.1976
8082.2821
8144.9174
8129.2422
9318.3875
9347.8815
9322.1264
9333.1184
9315.5516
9302.9355
9260.3368
25292.047
18742.34
17087.831
17143.333
17792.603
17186.952
17344.903
16863.89
16673.82
16372.432
15986.072
15387.701
14846.087
14261.385
13677.667
13494.224
12948.726
12527.042
12129.419
11701.717
11228.925
10670.098
9960.678
9093.3345
8154.9377
7186.1494
6359.9489
5685.0364
5212.5245
4902.5356
4680.6675
4552.1295
4459.9421
4403.0643
4461.1668
4257.9804
4433.7151
4781.564
5100.3375
5497.3293
6124.1777
6728.8765
7327.6963
7881.3888
8410.717
8630.1982
9681.2741
11232.06
11450.69
9056.8451
9410.1155
9568.0136
9028.2516
9251.7555
9007.5414
8998.1
8636.7336
8569.0388
8184.4104
8149.1903
7910.6858
7732.6443
7700.0855
7427.5957
7262.6428
7127.6056
6903.527
6686.0934
6427.073
6117.1834
5862.6767
5601.6363
5271.025
5467.9626
5335.7102
5288.0133
5126.5043
5004.5218
4901.3788
4819.4742
4864.064
4932.4291
5059.2425
5396.2898
5865.2399
6370.3027
6774.7005
7257.5392
7489.4353
7806.8944
7791.2035
8319.2001
7624.5735
9978.0221
3842.6525
4090.9416
3121.1733
3542.4942
3253.0061
2482.8814
3199.9806
2550.1699
2867.4462
2635.1908
2652.9481
2685.6613
2556.4099
2762.143
2754.875
2673.6761
2620.5232
2495.3971
2456.6711
2309.383
2273.5272
2177.9701
2159.2841
2057.9783
2109.3258
2028.2631
2174.8426
2135.2179
2200.3074
2217.1742
2273.4902
2333.3561
2519.6661
2760.7888
3077.6581
3537.4434
3995.4389
4561.2095
5097.9714
5644.6986
6085.3108
6572.1101
6867.619
7402.3631
7830.8831
8147.7088
10067.885
1338.5695
1342.539
303.01182
1577.0017
445.55148
1151.1248
314.60973
602.79966
743.80571
427.78995
857.78033
466.76394
847.66685
1106.7813
1275.7836
1471.6812
1526.0287
1642.0919
1754.7213
1850.8077
1945.2216
2081.1023
2157.6374
2353.2235
2507.6064
2765.043
2993.7959
3167.2461
3356.718
3482.2844
3603.41
3744.6705
3943.8189
4142.2906
4484.1112
4857.3616
5262.7814
5734.9272
6211.527
6583.174
7034.7932
7217.0112
7635.5614
7617.5651
8309.5691
7665.8364
10101.203
3001.4178
991.28907
1307.0602
1074.2854
1173.1946
1157.6189
1315.9406
1286.0694
1078.6971
1332.4652
1023.2703
1303.839
1314.1932
1268.0803
1412.3027
1403.3433
1531.2681
1517.9561
1594.4049
1593.7808
1697.685
1752.7599
1914.0102
1941.4853
2107.8932
2194.3996
2179.1416
2347.2346
2436.1721
2479.9884
2563.0074
2670.4535
2835.7706
3109.8613
3477.9264
3827.05
4338.6183
4835.0609
5268.0117
5857.7534
6164.5215
6695.2468
6890.7698
7451.0703
7730.7933
8226.8277
9591.7759
6759.1174
5919.814
4521.6538
5951.5372
4917.6961
5984.1195
5606.9985
5540.2403
6078.9681
5906.5862
6736.1313
6536.203
6584.8429
6635.7934
6581.3565
6589.3475
6420.6276
6310.9128
6097.9097
5896.7484
5659.4302
5480.7788
5335.0887
5039.7998
5110.1092
4697.1026
4979.297
4886.3141
4824.6107
4699.919
4595.5052
4462.1097
4418.7321
4514.6708
4664.9908
4983.2167
5430.9194
5750.6201
6378.0902
6631.4076
7076.0084
7203.1104
7522.7948
7510.901
8039.6955
7849.3167
9416.2992
18734.157
12027.967
13784.185
12680.035
13948.221
13566.861
13587.348
13847.951
13249.383
13269.017
12992.941
12866.37
12142.497
11889.255
11703.384
11462.069
11394.739
11045.956
10695.502
10177.77
9594.0113
8820.1381
8049.9329
7053.681
6590.6858
5676.8219
5198.9608
5002.6562
4820.1584
4697.573
4471.0041
4236.804
4031.8524
3906.8515
3809.1817
3891.4136
4162.346
4653.4854
5026.2496
5805.7782
6401.2898
7029.5019
7456.7196
7878.9416
8161.1668
8565.2693
8921.6488
18417.313
15748.816
15318.136
15080.936
15349.149
15493.613
16222.767
16896.929
17564.398
16503.447
16432.085
16353.529
16821.536
17245.756
16036.878
16991.571
17028.829
16877.364
16933.83
16969.522
16989.423
15929.542
16501.131
16677.179
16813.741
16691.602
16662.144
16169.472
15691.69
16335.483
16681.981
16716.901
16740.146
16678.74
16380.638
15364.212
15629.983
15729.157
15925.215
15783.595
15766.287
15702.852
15163.062
15403.037
15585.88
15541.227
15567.203
15659.275
15620.57
14665.141
14826.363
14840.978
14978.133
14942.73
14902.219
15058.868
14459.998
14690.43
14606.947
14715.759
14610.057
14819.857
14939.968
14053.756
14203.469
14201.519
14192.069
14202.85
14331.416
14494.627
13758.42
13994.544
13934.256
13942.637
14001.438
14046.502
14314.937
13457.488
13536.559
13589.501
13565.615
13595.338
13693.847
13926.221
13181.719
13273.969
13229.667
13191.82
13322.732
13239.994
13452.026
12798.279
12856.636
12915.115
12873.662
12942.545
12861.18
13257.844
12512.071
12603.389
12409.141
12510.033
12485.473
12668.849
12644.976
12195.325
12236.889
12164.331
12205.492
12184.366
12115.306
12302.732
11780.902
11835.828
11787.254
11795.64
11820.961
11800.144
11995.141
11379.457
11461.446
11404.872
11399.229
11431.061
11428.52
11528.737
10949.767
11029.798
10969.992
10974.078
11035.003
10956.438
11113.474
10493.598
10608.91
10541.898
10561.054
10558.009
10518.109
10671.744
10060.144
10150.997
10111.014
10092.785
10129.313
10084.53
10221.677
9608.0256
9702.6194
9679.295
9674.1564
9687.3775
9634.7892
9763.3452
9146.4119
9200.5277
9240.6686
9195.6528
9207.5696
9116.5404
9288.1258
8619.6229
8618.514
8717.0508
8668.7787
8651.7681
8600.0507
8736.3894
8034.531
7944.3904
8049.7725
8034.0922
8011.5056
7898.4817
8087.5009
7393.0282
7224.714
7394.5948
7349.1765
7328.7716
7231.226
7378.0111
6778.665
6515.626
6678.4061
6640.6667
6622.5622
6532.1675
6673.5444
6244.6286
5916.8323
6060.5894
6043.3768
6044.024
5885.6931
6039.8492
5704.5495
5310.8647
5590.1899
5516.5385
5507.4313
5364.6501
5504.0224
5277.2936
4966.0593
5163.0275
5099.992
5110.4854
4975.6327
5089.6337
4918.342
4618.0393
4852.276
4812.371
4802.7872
4667.0338
4751.5484
4620.9299
4426.4036
4632.8338
4588.1441
4558.621
4463.3858
4522.3998
4453.4051
4317.7621
4500.4645
4475.1441
4450.2064
4370.7699
4410.6942
4396.6687
4319.9192
4469.991
4463.8225
4430.7637
4400.2434
4378.8353
4449.3684
4427.247
4559.2953
4556.8652
4564.5448
4456.0485
4441.2141
4679.0141
4627.241
4683.599
4733.7113
4664.2094
4662.781
4757.3367
4915.4381
4741.4257
4988.7244
4907.5949
5036.7594
4838.3351
5063.8986
5240.7634
5157.7079
5106.4434
5369.8682
5107.8157
5291.0723
5019.9221
5556.4688
5473.6519
5504.0682
5602.1451
5522.0711
5423.1016
5545.196
5980.2409
5830.3186
5759.4625
5951.9893
5780.9105
5907.9033
5816.2769
6395.7113
6232.0473
6210.9737
6352.4423
6247.1143
6293.0948
6240.5077
6864.7827
6754.7175
6682.7715
6847.2086
6688.1209
6792.1287
6710.6048
7297.7736
7235.5401
7161.7566
7332.107
7192.6141
7318.9917
7168.403
7625.4494
7585.7544
7579.138
7697.4445
7540.3676
7694.0804
7616.1121
8318.268
8394.5503
8320.8367
8434.3525
8336.6126
8594.4113
8317.0302
8456.202
8430.2047
8458.924
8537.0401
8498.7869
8525.2805
8349.2836
9511.8145
9515.0716
9494.0557
9552.7232
9520.3201
9526.097
9580.5816
8272.1822
6416.5858
5927.9807
5753.3968
5758.5546
5969.31
6623.2348
8753.4543
9467.2239
8971.003
9036.1582
9094.8216
9270.8711
9566.5867
8321.5487
8645.197
8739.2379
8650.9742
8768.8539
8499.6048
8602.8105
8232.5083
8742.2754
9020.5525
9127.5638
9005.817
8979.2901
8502.3314
8036.0981
8285.5609
8547.3727
8464.3768
8612.3883
8375.3125
8308.3004
7943.7567
8154.3708
8060.19
8136.5038
8095.5262
8029.0486
8010.2525
7641.2758
7813.89
7928.496
7923.2099
7959.4936
7963.9483
7852.9638
7576.7366
7724.8476
7571.5972
7570.6703
7600.8482
7572.0323
7670.5432
7377.981
7491.2188
7439.5831
7428.608
7433.6926
7517.7051
7578.8609
7264.5517
7315.6197
7237.7164
7177.8377
7289.8014
7285.7127
7370.6691
7123.9703
7221.8519
7114.1922
7103.8107
7130.8824
7210.2829
7286.6872
7040.7328
7113.5273
6968.5469
6932.5636
6949.4203
6971.3524
7075.3293
6954.7475
6998.552
6869.5173
6916.9843
6872.0321
6972.3667
7011.6142
6916.0649
6903.215
6814.5411
6694.5898
6778.0589
6733.1965
6888.5909
6857.0035
6823.3831
6685.626
6650.9665
6722.3394
6601.2789
6763.975
6756.0459
6640.5062
6580.4432
6508.5931
6608.3733
6480.7224
6634.7136
6592.5888
6575.4655
6427.7602
6393.8747
6434.2745
6382.2833
6537.2819
6459.7803
6403.1312
6282.936
6268.6018
6317.7005
6250.4331
6338.8879
6261.9673
6247.2149
6125.978
6126.4194
6160.004
6080.0882
6223.9159
6071.0311
6084.4893
5961.5216
5977.1077
5986.0143
5949.1129
6074.9354
5827.0277
5902.8901
5793.1512
5793.508
5831.3195
5802.8008
5887.7304
5591.3302
5754.2239
5623.1453
5640.8092
5664.6303
5617.89
5736.2687
5395.3659
5533.3334
5425.4827
5429.5238
5414.123
5475.5768
5548.2792
5221.3442
5338.4727
5271.8655
5192.947
5280.8238
5357.8382
5421.1263
5085.7539
5181.6083
5123.2202
4990.7576
5125.2385
5138.7837
5148.8639
5020.6621
5045.8089
4897.9153
4982.5
4865.0291
5008.6633
5118.1771
4809.7236
4952.9953
4862.4365
4632.4945
4899.6388
4952.0797
4976.8483
4871.7358
4444.8015
4615.0405
4602.2719
4652.9752
4779.0708
4734.949
4580.6369
4563.0322
4543.8815
4386.1774
4490.8734
4675.0206
4542.4103
4431.2837
4361.2155
4337.221
4276.6487
4366.3229
4533.9817
4403.1527
4259.7396
4208.574
4227.1099
4167.9064
4213.0464
4428.0999
4285.7145
4137.1064
4150.6195
4177.8946
4119.0905
4167.9662
4399.2898
4256.0565
4122.2244
4145.5595
4156.7372
4111.3065
4176.7514
4413.3516
4243.5402
4196.1806
4228.7742
4242.08
4234.7972
4261.1717
4462.1815
4338.3301
4381.3475
4392.8656
4407.3647
4381.9636
4393.3088
4671.3675
4592.1406
4651.6315
4646.2462
4637.7098
4686.0409
4663.4252
4960.2979
4794.231
5086.2693
5034.0298
4990.9561
5038.4917
4904.4632
5327.4618
5037.8449
5540.1736
5317.3772
5343.0091
5387.0271
5386.6344
5652.5353
5521.252
6051.9932
5774.1757
5867.7927
5847.6107
5796.9513
6088.733
5935.8801
6467.7963
6059.9142
6257.8914
6189.0848
6211.8506
6502.7311
6364.2703
6924.0811
6581.2935
6776.3762
6709.6741
6689.2804
6929.2958
6745.833
7154.5875
6771.9321
6992.6611
6893.5439
6885.2434
7140.4132
7074.3936
7602.2307
7350.862
7532.4485
7491.5192
7474.9909
7674.2835
7516.7451
7636.5626
7383.6111
7565.5516
7493.4519
7410.2471
7546.8528
7579.7966
8388.7378
8307.7841
8393.4721
8360.3433
8349.5558
8561.6687
8453.9132
7992.8607
7756.2731
7893.251
7820.4999
7816.153
7733.664
7594.3176
9555.0568
9715.6754
9542.9833
9541.9033
9550.1984
9589.7324
9706.5002
2992.8354
2300.7989
1958.0683
1888.5128
1786.2121
1981.4424
2070.392
2699.909
3059.719
2836.0384
2939.5992
2903.6991
2918.5071
3075.3811
3039.9912
3039.8036
2994.7766
3053.36
2979.8518
2948.1094
2911.9487
2626.7198
2929.3151
3272.0037
3413.1649
3306.774
3336.0677
3001.8588
2932.2844
3060.508
3075.0028
3048.6191
3004.8219
2804.7718
3019.8145
2669.1274
2432.6206
2512.2763
2772.0044
2617.9175
2594.9245
2586.3373
2916.4019
2620.4905
2809.819
2864.1947
2859.8308
2977.47
2887.8789
2787.6318
2386.6557
2352.0747
2342.4358
2392.1424
2400.017
2415.9759
2695.2139
2349.0487
2466.8733
2572.9628
2607.5894
2723.6501
2680.5125
2670.4897
2287.7366
2281.1376
2299.971
2342.5005
2411.3548
2468.8831
2602.7626
2253.3755
2291.1423
2321.3422
2374.7334
2401.8168
2453.2821
2629.3194
2162.5401
2183.1287
2251.2412
2386.727
2408.2518
2548.4486
2586.1848
2117.6794
2209.6101
2203.5146
2334.8898
2248.5633
2451.1711
2550.8468
2183.8343
2227.2512
2254.8387
2351.6889
2247.7789
2451.3723
2485.5891
2275.1927
2314.8802
2308.0867
2287.8032
2284.56
2505.9119
2534.588
2282.4601
2338.3455
2341.0507
2316.7836
2255.6086
2551.4408
2581.05
2269.319
2362.261
2339.1311
2301.7048
2255.6556
2594.622
2584.7797
2243.6827
2352.5331
2329.829
2303.8412
2230.3583
2573.2442
2590.8616
2216.0831
2333.2801
2302.1889
2270.4113
2195.1732
2616.907
2582.2829
2175.9074
2306.71
2284.3134
2246.2169
2186.293
2578.6137
2631.8324
2170.3616
2305.9329
2268.6821
2263.8564
2161.942
2601.933
2678.4972
2183.4446
2308.4092
2262.3742
2230.4315
2143.063
2606.1775
2751.323
2218.3664
2380.418
2214.0125
2324.6008
2170.7659
2678.2544
2891.1688
2290.7981
2423.1106
2318.2605
2412.764
2136.0325
2630.8102
3001.0118
2280.3617
2506.3715
2395.938
2459.2436
2154.7255
2786.103
3082.6714
2350.6167
2619.4545
2342.9815
2545.0609
2187.9204
2653.8894
3297.8343
2386.0957
2602.286
2424.4442
2614.4899
2203.5773
2784.1619
3299.7087
2446.4369
2636.8305
2533.1973
2652.8398
2239.8463
2802.8584
3388.5267
2572.9578
2781.059
2558.4968
2768.8384
2335.555
2872.9683
3451.0989
2540.1734
2728.8353
2623.6271
2803.2129
2356.6047
2888.0309
3466.3036
2617.9484
2867.4486
2744.6837
2899.5395
2490.3336
2985.5841
3534.0874
2721.1833
2940.6124
2801.1123
2971.7698
2604.7807
3029.3302
3656.6765
2880.3796
3097.3815
2992.1707
3143.7218
2756.6104
3179.8567
3851.3944
3107.6305
3331.8681
3213.4533
3319.4673
3052.8234
3416.3594
4135.3795
3444.902
3665.7518
3516.6901
3664.706
3371.5095
3628.4567
4517.4184
3861.2264
4063.1876
3898.3517
4016.8437
3769.0919
4017.3901
4945.0648
4280.9826
4508.0227
4324.0453
4514.2632
4200.5528
4460.8914
5365.6838
4780.8313
5005.0405
4831.7199
4918.7298
4722.6152
4839.5541
5781.7927
5362.7015
5452.0448
5375.8005
5389.3914
5214.9831
5358.1998
6237.3072
5883.1742
5897.1856
5897.3924
5851.8666
5813.4129
5783.2387
6592.0271
6393.2554
6313.032
6349.6403
6277.378
6199.5998
6176.8826
7004.5848
6807.2654
6732.0229
6810.7486
6678.6437
6774.2876
6644.1535
7272.4284
7258.5532
7115.7958
7231.4369
7107.3491
7199.1202
6949.8506
7557.2006
7521.894
7403.5896
7565.1524
7329.2226
7535.1067
7354.5861
8038.3483
8103.9388
7972.0545
8131.003
7922.2071
8362.3053
7943.6107
8049.3992
8079.6978
8084.8264
8189.5247
8053.7464
8244.5819
7724.6606
9474.2482
9586.1257
9455.9471
9528.1473
9495.4343
9639.2443
9600.0893
1196.4403
911.15575
711.69419
660.053
612.94169
621.62722
456.86284
723.59734
1166.6034
1182.7763
1308.1491
1266.3726
1187.3116
1089.9424
718.78427
722.87912
575.24989
624.46988
581.40627
548.65289
295.16853
742.95946
1265.1971
1616.2831
1786.3549
1785.7241
1665.577
1391.4613
721.87781
752.27457
456.10618
360.47203
287.6831
272.90524
318.89406
835.09916
1051.304
1086.4416
1258.0633
1309.4895
1328.7297
1094.7618
786.14464
752.53155
671.82956
662.24528
609.28076
472.38283
683.37007
967.81134
928.21816
826.76733
884.83627
800.70038
845.5695
775.93467
905.00155
922.1065
888.43458
833.15351
918.6862
770.33009
958.26535
984.20886
1070.9495
786.46741
807.58977
691.55111
646.64831
661.12588
966.26906
999.71901
1059.1395
929.82371
1118.4996
958.07723
1089.5785
1030.1901
1205.3409
1006.102
863.84913
956.67236
789.70571
884.47376
1137.5596
1224.8697
1072.9182
1076.6585
1202.1556
945.05117
1080.3379
1175.3409
1424.8227
1138.8288
1130.3603
1155.3289
1190.3247
1111.1975
1195.1501
1411.6788
1382.2732
1211.0642
1351.5782
1227.2087
1219.1704
1289.2925
1480.5233
1452.8944
1336.2415
1401.0943
1410.4639
1333.6524
1352.9112
1558.4238
1604.5333
1438.9754
1533.8136
1514.7299
1441.684
1460.1108
1654.7293
1704.1428
1547.9536
1622.5278
1658.4409
1572.6212
1513.171
1720.4471
1822.5694
1634.8292
1740.957
1757.1178
1666.8408
1642.9772
1842.4961
1901.7492
1757.1465
1837.7791
1863.3737
1788.8885
1764.5546
1873.4393
2014.0602
1845.6414
1896.5845
1968.9444
1857.6936
1896.874
2010.6942
2103.6347
1946.8352
2019.9644
2085.8166
1977.6628
2138.9348
2120.1829
2094.0864
2163.6437
2080.0567
2218.6873
2051.1279
2281.8457
2103.1172
2279.4516
2253.3191
2144.1737
2366.7604
2269.1605
2449.5496
2226.1996
2467.0657
2224.6062
2220.2523
2521.009
2308.3368
2700.0627
2364.7072
2479.8999
2421.3792
2327.9754
2642.1876
2571.3686
2759.6475
2396.0732
2633.5457
2601.8697
2407.7813
2814.0093
2620.688
2895.6949
2526.3375
2834.8094
2646.0735
2604.5315
2929.7183
2793.6131
3036.5283
2605.9141
2813.7916
2790.8303
2562.2865
3013.8728
2857.5172
3080.1178
2651.5906
2960.8726
2857.6851
2759.3883
3167.7544
2989.4315
3170.5821
2814.8437
3065.5529
2987.3516
2820.2215
3245.7445
3074.8844
3310.354
2916.8623
3210.3682
3099.5583
2976.6995
3395.6758
3208.8377
3451.6279
3100.0774
3389.2273
3289.8521
3178.6366
3597.1733
3411.3256
3683.3719
3338.688
3638.601
3526.5767
3424.2959
3808.3782
3603.3801
3937.3246
3639.8733
3912.2478
3798.5598
3716.2909
4098.4151
3935.3074
4270.7142
4007.4458
4226.1113
4166.6087
4104.4051
4428.3261
4299.5187
4654.298
4414.7025
4626.3201
4585.9444
4432.7697
4842.3218
4681.7633
5054.3618
4870.4929
5066.016
4972.4193
4931.697
5249.4094
5170.7796
5544.4758
5343.9658
5505.9671
5429.653
5384.7632
5715.9396
5619.2489
5924.4992
5654.1278
5882.8257
5775.8286
5758.0862
6066.5788
5984.8699
6410.5397
6128.9448
6371.5451
6266.2052
6253.8229
6525.5164
6465.0812
6709.0878
6357.0249
6616.3911
6466.7009
6502.653
6757.2007
6710.1041
7140.8079
6878.8634
7137.6119
7021.9702
7101.8733
7233.311
7200.0329
7377.5939
7016.4799
7282.3221
7105.3153
7150.9373
7247.5236
7293.1088
8069.5416
7913.0585
8137.0724
8001.5794
8136.9581