/*--------------------------------*- C++ -*----------------------------------*\
  =========                 |
  \\      /  F ield         | OpenFOAM: The Open Source CFD Toolbox
   \\    /   O peration     | Website:  https://openfoam.org
    \\  /    A nd           | Version:  6
     \\/     M anipulation  |
\*---------------------------------------------------------------------------*/
FoamFile
{
    version     2.0;
    format      ascii;
    class       pointVectorField;
    location    "1.73";
    object      u;
}
// * * * * * * * * * * * * * * * * * * * * * * * * * * * * * * * * * * * * * //

dimensions      [0 1 0 0 0 0 0];

internalField   nonuniform List<vector> 
625
(
(0 0 0)
(0 0 0)
(0.19893852 0.030788091 0.012814791)
(0.19655548 -0.040640675 0.0035141808)
(0 0 0)
(0 0 0)
(0.20608344 -0.04012906 0.002818523)
(0.20852657 0.031037632 0.012700951)
(0 0 0)
(0 0 0)
(0 0 0)
(0.19799564 0.012128992 0.009671807)
(0.19695251 -0.0049005143 0.0080320326)
(0.19672748 -0.021876637 0.0056629843)
(0.00018991809 0.0013773414 0.0015020342)
(0.00034134931 0.0027319529 0.0021862411)
(0.0010748435 0.0041715631 0.0033333734)
(0.0024406349 0.0054684408 0.0044022442)
(0.0041755313 0.0068773204 0.0056426008)
(0.0067289114 0.0079521315 0.0069477136)
(0.009662607 0.009399304 0.0081929184)
(0.013397656 0.010381557 0.0094856819)
(0.017639836 0.011796723 0.010688222)
(0.02274995 0.012935012 0.011776295)
(0.028514063 0.014380414 0.012785355)
(0.035206866 0.015733831 0.013661616)
(0.042735261 0.01732504 0.014398533)
(0.051317735 0.018922368 0.014980265)
(0.060922085 0.020666117 0.015429432)
(0.071691873 0.022414792 0.015718944)
(0.08365146 0.024277945 0.015802317)
(0.096769269 0.025947632 0.015887201)
(0.11126921 0.027652098 0.015590549)
(0.12669625 0.029098523 0.015353322)
(0.143427 0.030242116 0.015009713)
(0.161062 0.03118832 0.014382202)
(0.17917087 0.031385702 0.014068346)
(-0.00069009368 -0.00029050436 -0.00089247634)
(-0.00029967214 -0.00089367136 -0.00067764107)
(0.00049486226 -0.0015493602 -0.0006022445)
(0.0020180158 -0.0025490039 6.3711236e-05)
(0.0038307355 -0.0032455338 0.00049541899)
(0.0064962571 -0.004609478 0.0012872194)
(0.0094547784 -0.0055784337 0.0018057453)
(0.013252354 -0.0071049274 0.0025384148)
(0.017550413 -0.0085271171 0.0030413353)
(0.022586495 -0.010191716 0.0035365179)
(0.028376151 -0.012025683 0.0039032739)
(0.034939563 -0.013987926 0.0041506962)
(0.042451931 -0.016109717 0.0042900154)
(0.050859014 -0.018405107 0.0042939415)
(0.060374544 -0.020792844 0.0042389633)
(0.070926882 -0.023297364 0.0040328651)
(0.082690525 -0.025876793 0.0038676187)
(0.095576453 -0.028462635 0.0035540886)
(0.10972721 -0.031044181 0.0033632926)
(0.12496908 -0.033508896 0.003097259)
(0.14139289 -0.035787775 0.0029564085)
(0.15883568 -0.037874314 0.002896355)
(0.17697101 -0.039507471 0.002930132)
(0 0 0)
(0 0 0)
(0 0 0)
(0.00055963918 -0.00071387647 0.00068683526)
(0.0015202522 -0.0030728478 0.0011063813)
(0.0028665146 -0.0037747158 0.0013315524)
(0.0045984955 -0.0053498293 0.0019223217)
(0.0071592449 -0.0067978762 0.0026624934)
(0.010042276 -0.0078646101 0.0032856686)
(0.013534574 -0.009229509 0.0041457247)
(0.017705617 -0.01046995 0.0048565653)
(0.022385456 -0.011724453 0.0055953464)
(0.027913028 -0.013205597 0.0063133052)
(0.033935032 -0.014419289 0.0067971907)
(0.041046682 -0.016248228 0.0073524313)
(0.048767971 -0.017689556 0.0076114098)
(0.057655607 -0.019723024 0.0078530671)
(0.067437032 -0.021612567 0.0078976152)
(0.078372367 -0.023808606 0.007811683)
(0.090446199 -0.02606328 0.007600015)
(0.10367163 -0.028430737 0.0072641758)
(0.11808998 -0.030811438 0.0067871238)
(0.13370319 -0.033190498 0.0062309209)
(0.15028013 -0.035411728 0.0055983005)
(0.16805166 -0.037448152 0.0048221865)
(0.18633942 -0.039114014 0.0041177808)
(0.20635306 -0.020930402 0.0053432196)
(0.20614387 -0.0046666423 0.0078875108)
(0.20762202 0.012129554 0.010831225)
(0.18895384 0.031672618 0.012113954)
(0.17029411 0.031247806 0.011966559)
(0.15257697 0.030436649 0.011883632)
(0.13576268 0.029276082 0.011832237)
(0.11999741 0.027735047 0.011830458)
(0.10542805 0.025947932 0.011820357)
(0.092003316 0.024048256 0.011829615)
(0.079802807 0.021954261 0.01176913)
(0.068725049 0.019911121 0.011638633)
(0.058772946 0.0177939 0.011422724)
(0.049833044 0.015789075 0.011053767)
(0.041884385 0.013809365 0.0105853)
(0.034758574 0.011989719 0.0099129239)
(0.028482466 0.010241771 0.0091415064)
(0.022883858 0.0086843503 0.0081987392)
(0.01806267 0.0071442009 0.0071490386)
(0.013700696 0.0059174796 0.0059842235)
(0.010070166 0.0046207915 0.0048001249)
(0.0069279631 0.0036320742 0.0035245079)
(0.0043305577 0.0025179985 0.0024241632)
(0.0022755995 0.0018926738 0.0011708913)
(0.0007336067 0.00091207792 0.0003739649)
(6.7533504e-05 0.00040489303 -0.00037829325)
(0 0 0)
(0 0 0)
(0 0 0)
(0 0 0)
(0 0 0)
(0 0 0)
(0.19880868 -0.040946741 0.0031389874)
(0.20139568 -0.040779891 0.0033379601)
(0.20362306 -0.040902521 0.0030391241)
(0.20161179 0.03138959 0.012817353)
(0.20404413 0.031257735 0.01270943)
(0.20639772 0.031536876 0.012660538)
(-0.0012153067 -0.013542725 0.0010387294)
(-0.0018790565 -0.026226895 0.0014506689)
(-0.0019126761 -0.036990829 0.002281994)
(-0.0012889611 -0.045171781 0.0031282252)
(1.7421448e-05 -0.049985955 0.0041992025)
(0.0022877458 -0.051238325 0.0053191316)
(0.005127397 -0.048609235 0.0064813872)
(0.0092069835 -0.042390581 0.0076367605)
(0.013877412 -0.032756302 0.0087742152)
(0.019805224 -0.020556364 0.00980008)
(0.026521826 -0.0063055484 0.010725392)
(0.034362596 0.0088567251 0.011504396)
(0.043176014 0.02409039 0.012100383)
(0.053049861 0.038309447 0.012543707)
(0.063915584 0.050583403 0.012809837)
(0.075780751 0.060220447 0.012870262)
(0.08856922 0.066350498 0.012862497)
(0.10220217 0.068807474 0.012669773)
(0.11667948 0.067354171 0.012367483)
(0.13177676 0.061934341 0.012134865)
(0.14762981 0.053153583 0.011584372)
(0.16388152 0.041491842 0.011234567)
(0.18072089 0.027172152 0.010708274)
(-0.00087516139 0.00061447486 0.00056294661)
(-0.00047932503 0.00097935457 0.00091931531)
(0.00020263283 0.0014761807 0.0015750275)
(0.0015638676 0.0017018487 0.002388647)
(0.0034573123 0.0019737893 0.0032452022)
(0.0058913202 0.0019299798 0.0042307059)
(0.0089303571 0.0021151432 0.0050575285)
(0.012649716 0.0018294334 0.0060888126)
(0.016900147 0.0018230232 0.0068092506)
(0.022002727 0.0014486266 0.0076204643)
(0.027721281 0.0012475784 0.008219577)
(0.034388738 0.00084389319 0.0087352056)
(0.041882519 0.00048969678 0.0091242871)
(0.050397011 7.1845283e-05 0.009381915)
(0.059941572 -0.0003199213 0.0095249228)
(0.070629358 -0.00074777547 0.0095698859)
(0.08246729 -0.0011884091 0.0095542592)
(0.095516703 -0.0015686438 0.0093989001)
(0.10982595 -0.0020627345 0.0092950484)
(0.12521259 -0.002494407 0.0090285874)
(0.14187916 -0.0029769828 0.0087952771)
(0.15950127 -0.003624532 0.0086503128)
(0.17824233 -0.0041278087 0.0083124083)
(-9.1598777e-05 0.014494259 -0.00017836104)
(0.0012602089 0.027921865 0.00014669471)
(0.002710925 0.039485114 0.00057527822)
(0.0048923761 0.048071614 0.0013035684)
(0.0072686203 0.053166182 0.0020476592)
(0.010007623 0.054697947 0.0028006286)
(0.013115162 0.052001539 0.0036932172)
(0.016484632 0.045734705 0.0043902195)
(0.020184371 0.035979081 0.0051073773)
(0.024412236 0.023408823 0.0057357473)
(0.029017117 0.0089592984 0.0061967704)
(0.034414396 -0.0066741948 0.0066332106)
(0.04047266 -0.022286559 0.006885146)
(0.047578123 -0.036991667 0.0070518297)
(0.055741786 -0.049886557 0.0071168528)
(0.065250364 -0.060085299 0.0070595393)
(0.076145774 -0.067054829 0.0069234135)
(0.08869688 -0.070384761 0.0067334615)
(0.10281996 -0.069864613 0.0064437617)
(0.11872551 -0.065699463 0.0062369401)
(0.13624699 -0.05822363 0.0059401046)
(0.15527367 -0.047762342 0.0056893719)
(0.17559674 -0.035348889 0.00561726)
(0 0 0)
(0 0 0)
(0 0 0)
(0 0 0)
(0 0 0)
(0 0 0)
(0 0 0)
(0 0 0)
(0 0 0)
(-0.00015275253 -7.55787e-05 -0.00058148577)
(0.00027654311 -0.00034241502 -0.00036909413)
(0.00050553206 -0.00039764088 8.1565441e-06)
(0.00053825364 -0.0014362879 -0.00046686487)
(0.0010674208 -0.0020303029 -6.1477833e-06)
(0.0014081048 -0.0024272567 0.00045522694)
(0.0014677686 -0.0020202886 -0.0001746877)
(0.002183605 -0.0025905998 0.00022070545)
(0.0027096073 -0.0034052566 0.00087033501)
(0.0029729645 -0.0031119152 0.0004521895)
(0.0037919058 -0.0039516194 0.00088521931)
(0.004313375 -0.0045763503 0.0014244665)
(0.0051326721 -0.0041186198 0.0010191077)
(0.0060462709 -0.0049422183 0.0014801616)
(0.0067674325 -0.0059740006 0.0021059292)
(0.0077123996 -0.0052474372 0.0017591883)
(0.0087824708 -0.0062431312 0.002248999)
(0.009557058 -0.0070674639 0.0028443586)
(0.011006462 -0.0064927546 0.0024291685)
(0.01215189 -0.0074451361 0.0029606669)
(0.013051193 -0.0084028029 0.0036511009)
(0.014881379 -0.0078559362 0.0031702067)
(0.016073129 -0.0086685771 0.0037005392)
(0.01709321 -0.0096349985 0.0043570598)
(0.019290458 -0.0091909044 0.0037764834)
(0.020614183 -0.010105098 0.0043407945)
(0.021703646 -0.010959417 0.0050805161)
(0.024557286 -0.010916899 0.0043137808)
(0.025956675 -0.011680447 0.0049585017)
(0.027199869 -0.012487675 0.0057364125)
(0.030374891 -0.012484645 0.0047642492)
(0.031902863 -0.013162604 0.0054196607)
(0.033179474 -0.013890849 0.0062369641)
(0.03721071 -0.014502384 0.0050774939)
(0.038786533 -0.015114447 0.0057935887)
(0.040205863 -0.015696022 0.006678176)
(0.044734438 -0.016424433 0.0052669838)
(0.046443916 -0.016855031 0.0060055137)
(0.047947618 -0.017416473 0.0069566472)
(0.053358173 -0.018686973 0.0053336234)
(0.055147694 -0.019081553 0.006126579)
(0.056721868 -0.019437291 0.0071050133)
(0.062914028 -0.020968877 0.005296606)
(0.064797663 -0.021172593 0.0060870264)
(0.066498878 -0.021535051 0.0071389433)
(0.073602995 -0.02341934 0.0051318274)
(0.075598457 -0.023606204 0.0059667449)
(0.077336193 -0.02380171 0.007024239)
(0.085392845 -0.025954557 0.0049393782)
(0.087463708 -0.025995876 0.0057372563)
(0.089329952 -0.026160638 0.0068022947)
(0.098377624 -0.028526657 0.0046041868)
(0.10058352 -0.028544326 0.0054224608)
(0.10247156 -0.028615111 0.0064948324)
(0.11251075 -0.031089057 0.0043332022)
(0.114741 -0.030998695 0.0051220047)
(0.11672714 -0.031068499 0.0060548743)
(0.1277835 -0.033547199 0.0039944861)
(0.13015351 -0.033518788 0.0046582421)
(0.13220486 -0.033507641 0.0055757492)
(0.14417021 -0.035953507 0.0036658025)
(0.14650914 -0.035767839 0.0043491379)
(0.14863733 -0.03575691 0.0050588557)
(0.16149517 -0.037967149 0.0034816563)
(0.16394146 -0.03783371 0.0039654804)
(0.16616177 -0.037890236 0.0044018279)
(0.17969341 -0.039803196 0.0032974599)
(0.18200194 -0.039616662 0.0034729348)
(0.18437929 -0.039481863 0.0037964288)
(0.20078977 0.012602498 0.010278413)
(0.20321055 0.01269832 0.010332606)
(0.20548604 0.012716775 0.010531796)
(0.19940097 -0.0047353535 0.0081708641)
(0.20191666 -0.0048050255 0.0079994183)
(0.20398449 -0.0046619681 0.0079546867)
(0.19920632 -0.021895071 0.0054556699)
(0.20172331 -0.021720949 0.0055851811)
(0.20391046 -0.021516101 0.0054818823)
(0.00060596232 0.00068938512 0.00073221226)
(0.0005243322 0.0008361954 0.0004384982)
(0.00053004612 0.00071757907 -2.4843846e-05)
(0.00077285465 0.001999127 0.0015248519)
(0.0010690543 0.0017491636 0.0010594015)
(0.0010751021 0.0015981322 0.00059531756)
(0.001904069 0.0033240011 0.0025993219)
(0.0021859029 0.0029520695 0.0021322957)
(0.0024275497 0.0027262561 0.0015977634)
(0.0032048289 0.0044465538 0.0037322327)
(0.003890119 0.0039008648 0.0032802755)
(0.0042187183 0.0035969631 0.0027570989)
(0.0053671076 0.0057616338 0.0050143187)
(0.0061264164 0.0052745529 0.0044864189)
(0.0066485443 0.0046717366 0.0039656442)
(0.0079602656 0.0068595527 0.006330422)
(0.0089031702 0.0061330265 0.0058852267)
(0.0096517141 0.0057602773 0.0052501395)
(0.011104596 0.0082523624 0.0076296712)
(0.012206814 0.0076469319 0.0071075686)
(0.013157204 0.0069593403 0.0065187507)
(0.014998665 0.0093684744 0.0089310631)
(0.016309076 0.0086490643 0.0084300493)
(0.017321768 0.0081931219 0.0077101143)
(0.019454333 0.010808877 0.010166337)
(0.020818731 0.01019528 0.0095191719)
(0.022093281 0.0096337701 0.0088131605)
(0.024710336 0.012099188 0.011223584)
(0.026280107 0.011467572 0.010678945)
(0.027626233 0.011037328 0.009834316)
(0.030646661 0.013601765 0.012228467)
(0.032292939 0.013123479 0.011537326)
(0.033783799 0.01271201 0.010653672)
(0.037482491 0.015141969 0.013061926)
(0.039252226 0.01470317 0.012323045)
(0.040890697 0.014396564 0.011388295)
(0.045199678 0.016820113 0.013741081)
(0.047084564 0.016490305 0.012941941)
(0.048804862 0.016248272 0.0119205)
(0.053947859 0.018548974 0.014250181)
(0.055878587 0.018316996 0.013392405)
(0.057706092 0.018158791 0.012319227)
(0.063701313 0.020411019 0.014630858)
(0.065736295 0.02024712 0.013705872)
(0.067654577 0.020161079 0.012592404)
(0.074635007 0.022231638 0.014787724)
(0.076703216 0.022179819 0.013861577)
(0.078667107 0.022163155 0.012718338)
(0.086653167 0.024184527 0.014899088)
(0.088782179 0.024149551 0.013938681)
(0.090873839 0.024144935 0.01280289)
(0.099936812 0.025883652 0.014815883)
(0.10214958 0.025943694 0.013841103)
(0.10418596 0.026061765 0.012744223)
(0.11435885 0.027664126 0.014580613)
(0.11652009 0.02776018 0.013786957)
(0.1187015 0.027817291 0.012708095)
(0.12982123 0.029155524 0.014494862)
(0.13214136 0.029258598 0.01350706)
(0.13435118 0.02934478 0.012627543)
(0.14655733 0.03036965 0.014071413)
(0.14891925 0.030407258 0.013311665)
(0.15104716 0.030554374 0.012565323)
(0.16402809 0.031128312 0.013541457)
(0.16626686 0.031432973 0.013128416)
(0.16854347 0.031480376 0.012503)
(0.18236748 0.031911272 0.013497672)
(0.18465659 0.03191974 0.012971408)
(0.18706992 0.031878667 0.012742581)
(-0.001112985 -0.014510527 8.0463867e-05)
(-0.0012325186 -0.027949188 0.00054869136)
(-0.0007147813 -0.039641712 0.0013448069)
(0.00069431512 -0.048241794 0.0021486425)
(0.0026118196 -0.053433325 0.0031505979)
(0.0054962745 -0.054920214 0.0041610492)
(0.0091098197 -0.052339706 0.005254927)
(0.013655609 -0.046011191 0.0063096004)
(0.019035815 -0.036207154 0.0072697411)
(0.02542856 -0.023672583 0.0082207754)
(0.032691061 -0.0090378062 0.0089693148)
(0.041002212 0.0065465138 0.0096267725)
(0.05024202 0.022233525 0.0101348)
(0.060481943 0.036901534 0.0104802)
(0.071690767 0.049609246 0.01071968)
(0.083826603 0.059551909 0.010825712)
(0.096858134 0.06606412 0.010868063)
(0.11072561 0.068723152 0.010796518)
(0.12530657 0.067381133 0.010745663)
(0.14065607 0.062140181 0.010616129)
(0.15657637 0.053325974 0.010523755)
(0.1729565 0.041558086 0.01047246)
(0.19016073 0.027307724 0.010582056)
(-0.00027407573 -9.1805826e-05 0.00033567069)
(0.00059300069 -0.00071310595 0.00079931677)
(0.0021174036 -0.0010574803 0.001483186)
(0.0039244792 -0.0012218009 0.0022494945)
(0.0064076634 -0.0014200257 0.0031178035)
(0.0094490307 -0.0015491241 0.004141068)
(0.012952014 -0.0014541964 0.0050189467)
(0.017177436 -0.0015981592 0.0060573969)
(0.021877365 -0.0013625463 0.006839317)
(0.027438948 -0.0014938523 0.0077390529)
(0.033539369 -0.0012055979 0.0083169351)
(0.040658206 -0.0013177609 0.0089417127)
(0.048492273 -0.0011130589 0.0093015208)
(0.057433342 -0.001193498 0.0095888469)
(0.067339047 -0.0011298183 0.0096991783)
(0.078390395 -0.0012442145 0.0097082904)
(0.090598135 -0.0013249514 0.0095992167)
(0.10397224 -0.0015597543 0.009386609)
(0.11854838 -0.0018037213 0.0091972842)
(0.13432545 -0.0021685993 0.0088287044)
(0.15115528 -0.0026245315 0.0086142351)
(0.16899409 -0.0032968268 0.0082693025)
(0.18815969 -0.0038105662 0.0080585021)
(0.00073029455 0.01392396 0.00072673233)
(0.0028787674 0.026677496 0.0010248096)
(0.0050097586 0.036998174 0.0017521684)
(0.0074983488 0.045516411 0.0022626538)
(0.01056041 0.050086996 0.0031739993)
(0.013769406 0.051391765 0.0039499296)
(0.01725424 0.048841834 0.0047832676)
(0.021178375 0.042495171 0.0056154218)
(0.02519873 0.033131305 0.0063187119)
(0.029897789 0.020780489 0.0070170856)
(0.034819208 0.0067454306 0.0075579029)
(0.040609293 -0.0084454745 0.0080322378)
(0.046996865 -0.023653422 0.0083941534)
(0.054432383 -0.037889737 0.0086207675)
(0.062925264 -0.050383537 0.0087792639)
(0.072712504 -0.060193924 0.0087955676)
(0.083965376 -0.066874354 0.0087169125)
(0.096746735 -0.069911458 0.0085488634)
(0.11124585 -0.069272983 0.0082650136)
(0.12739374 -0.064983057 0.0078728267)
(0.14513643 -0.057430024 0.0074587564)
(0.16451663 -0.047095416 0.006843451)
(0.18483848 -0.034610738 0.0063271366)
(-0.00091182471 -0.014257789 0.0005076874)
(-0.00084408334 -0.014276373 0.00042159219)
(-0.00080444693 -0.014410254 6.8722147e-05)
(-0.0014355406 -0.026758051 0.0011009646)
(-0.0010052744 -0.027031922 0.00083791952)
(-0.0010988862 -0.027272881 0.00062983001)
(-0.001203131 -0.037872147 0.0019099324)
(-0.00088360649 -0.038315336 0.0017303824)
(-0.00062634379 -0.038825991 0.0014287991)
(-0.0004767874 -0.046032898 0.002816604)
(0.0002145301 -0.046602687 0.0025558399)
(0.00056722414 -0.047208077 0.0023060296)
(0.0010948772 -0.051086693 0.003846366)
(0.0018310893 -0.051695494 0.0036321617)
(0.0023872688 -0.052451901 0.0033559571)
(0.0034677597 -0.052263402 0.0050183166)
(0.0044371938 -0.053015485 0.0047531029)
(0.0050856579 -0.053776641 0.0044020865)
(0.0065724284 -0.049780284 0.0061704149)
(0.0076337418 -0.050406847 0.0058191898)
(0.0085667355 -0.051265313 0.0055293002)
(0.010766795 -0.043420333 0.0073130151)
(0.01206287 -0.044201866 0.0069805546)
(0.013047794 -0.045022269 0.0066178633)
(0.015729675 -0.033890122 0.0084347496)
(0.017056689 -0.034447046 0.008031156)
(0.018256008 -0.035235332 0.0076509823)
(0.021764117 -0.021482638 0.0094361242)
(0.023301509 -0.022079707 0.0089441777)
(0.024642432 -0.022846602 0.008599009)
(0.028733843 -0.0072048217 0.010319597)
(0.030317336 -0.0076622952 0.0098366782)
(0.031797475 -0.0083457998 0.0093980042)
(0.036743797 0.0081006514 0.011062963)
(0.038461951 0.0077384693 0.010488749)
(0.04008593 0.0071258272 0.010075898)
(0.045738603 0.023450942 0.011599108)
(0.047548617 0.023195621 0.011024778)
(0.049275685 0.022641612 0.010591782)
(0.055779483 0.037783608 0.012017087)
(0.05765202 0.037649437 0.011409518)
(0.059488812 0.037193206 0.010967027)
(0.066763373 0.050233025 0.012214716)
(0.068724492 0.050172822 0.011612569)
(0.070660493 0.04977491 0.011185322)
(0.0787526 0.059929204 0.012284588)
(0.080758652 0.05994533 0.011733028)
(0.082746655 0.059623358 0.011295077)
(0.091564277 0.066217546 0.012252962)
(0.093630802 0.066298882 0.011708802)
(0.09572997 0.066045539 0.011304385)
(0.10527302 0.068749866 0.012055688)
(0.1074388 0.068861539 0.01161431)
(0.10947939 0.068693669 0.011197976)
(0.11969836 0.067375816 0.011844019)
(0.12177984 0.067547735 0.011437287)
(0.12402061 0.067326626 0.011111536)
(0.13467947 0.062053589 0.01161544)
(0.13704833 0.062144551 0.011295744)
(0.13916616 0.062055194 0.010897624)
(0.15040899 0.053248274 0.011099039)
(0.15289014 0.053480769 0.011062285)
(0.15491878 0.053411215 0.010735387)
(0.16663279 0.041636113 0.010950021)
(0.16890215 0.041826716 0.010899182)
(0.17112672 0.041660641 0.010570592)
(0.18335652 0.027600547 0.0106027)
(0.18564431 0.027589345 0.010561257)
(0.18798421 0.027589546 0.010483418)
(-0.00045750605 0.00016712868 0.00022537021)
(-0.00025046923 0.00019522211 0.00011269408)
(-9.0009331e-05 1.9472551e-05 0.00010104036)
(5.1209326e-05 0.00051972407 0.0006518362)
(0.00037675383 0.00024728961 0.00057478747)
(0.00054147051 -0.00013583244 0.00059487238)
(0.0010762771 0.00070522114 0.0013933796)
(0.0015919598 0.00032841958 0.0013918389)
(0.0019426889 -0.0003345823 0.0013496179)
(0.0024389983 0.00085795802 0.0021690402)
(0.0031957296 0.00026447716 0.0021400163)
(0.0036879921 -0.00050750045 0.0021299235)
(0.0046106982 0.0010167018 0.0031034276)
(0.0054855365 0.00039696322 0.0031561008)
(0.0060034591 -0.00047750064 0.0030212013)
(0.0071425886 0.000990096 0.0041016925)
(0.0081251822 0.00025680638 0.0040674571)
(0.0089423254 -0.00062451835 0.004072354)
(0.010356042 0.001121712 0.0049300536)
(0.011514218 0.00043063584 0.0050480373)
(0.012411991 -0.0005944602 0.0049482315)
(0.014220161 0.00093069037 0.0060187516)
(0.015540489 0.00014525609 0.0060650151)
(0.016470304 -0.0006403609 0.0060290549)
(0.018609362 0.00095500696 0.0067339875)
(0.019978409 0.00032056738 0.0068351784)
(0.021169091 -0.00061903546 0.0067836958)
(0.023854471 0.00072794769 0.0075635524)
(0.025449853 1.6835314e-05 0.0077343396)
(0.026627027 -0.00069031101 0.0077027456)
(0.029732858 0.00057979611 0.0081893518)
(0.031386477 2.6052994e-05 0.0083567096)
(0.032703334 -0.00068097713 0.0083095578)
(0.03651294 0.0003311998 0.0086918536)
(0.038334991 -0.00024918793 0.0089051165)
(0.039718772 -0.00074881189 0.0088828057)
(0.044163919 8.5223532e-05 0.0091096821)
(0.046083647 -0.00035887391 0.0093547866)
(0.047530027 -0.00080669191 0.0093095761)
(0.052790465 -0.00021851471 0.0093367891)
(0.054837547 -0.00065456093 0.0096004521)
(0.056339721 -0.00091212879 0.0095442801)
(0.062471381 -0.00050272221 0.0095011071)
(0.064611416 -0.0008271823 0.0097963079)
(0.06618779 -0.0010307716 0.0097073964)
(0.073248267 -0.00086763264 0.009523149)
(0.075499733 -0.0011751911 0.0098095316)
(0.07711299 -0.0012033853 0.0096945531)
(0.085184311 -0.0012148998 0.0094909962)
(0.087495789 -0.0013988935 0.0097825901)
(0.089192622 -0.0013980941 0.0096169207)
(0.09831466 -0.0015502847 0.0093417898)
(0.10069308 -0.001760658 0.009595061)
(0.10248068 -0.0016490483 0.0094037302)
(0.11261369 -0.0020044584 0.0091988211)
(0.11505787 -0.0020918465 0.009426141)
(0.11687878 -0.0020067435 0.0092522374)
(0.12808742 -0.0023737125 0.008912524)
(0.13055383 -0.002638304 0.0091610919)
(0.13249406 -0.0023721197 0.0088468028)
(0.1448056 -0.0028574282 0.0088306796)
(0.14710627 -0.002995922 0.0087002521)
(0.14925235 -0.0027543977 0.0087215902)
(0.16228939 -0.0036267168 0.0085203007)
(0.16467012 -0.0034845236 0.0085996217)
(0.16675496 -0.0034918733 0.0083259943)
(0.18084084 -0.003986322 0.0082304546)
(0.18344632 -0.0041048649 0.0082133445)
(0.18571991 -0.003827029 0.0081271352)
(0.0003961944 0.014339291 -0.00013023009)
(0.00063030351 0.014245721 4.0514952e-05)
(0.00075940045 0.014216229 0.00023091205)
(0.0020856875 0.027679644 0.00021404997)
(0.0025289408 0.027531341 0.00043057747)
(0.0027910726 0.027081607 0.00067082548)
(0.0036928355 0.038928539 0.00071245069)
(0.0043765188 0.038170031 0.0010791001)
(0.0048901657 0.037694047 0.0013256708)
(0.0060686285 0.047342932 0.0014673813)
(0.0067539507 0.046838244 0.0017166795)
(0.0073151228 0.046067694 0.001944397)
(0.0085205805 0.052485821 0.0022878112)
(0.0094638178 0.051584997 0.0025963533)
(0.010160487 0.050954142 0.0028820082)
(0.011466225 0.05382019 0.0030543196)
(0.012466587 0.053079756 0.003403786)
(0.013308913 0.052162443 0.0036177058)
(0.01464353 0.05123025 0.0040182881)
(0.015828662 0.050376373 0.0043306617)
(0.016716088 0.049637143 0.0045588854)
(0.018172022 0.044952345 0.0047479226)
(0.019444187 0.04412185 0.0050534652)
(0.020474558 0.043308754 0.0053426786)
(0.022015835 0.035251886 0.0054942213)
(0.023352777 0.03455468 0.0058550706)
(0.024525541 0.033797647 0.006140224)
(0.026332564 0.022801628 0.0061807343)
(0.027886324 0.022090484 0.0065111402)
(0.029064926 0.021434136 0.0067949962)
(0.031102814 0.0084212623 0.0066534259)
(0.032622791 0.0078427328 0.0070206714)
(0.034009511 0.0072299605 0.0073517344)
(0.036597307 -0.0070880978 0.0071294175)
(0.038309736 -0.0075562168 0.007510451)
(0.039705595 -0.0080360699 0.007819779)
(0.042798508 -0.02257699 0.0073852192)
(0.044511289 -0.022960148 0.0077751639)
(0.046096752 -0.023383646 0.0081384883)
(0.050013081 -0.037206668 0.0075720164)
(0.05185168 -0.037447226 0.0080061818)
(0.053480065 -0.03775349 0.0083506437)
(0.05830606 -0.049971672 0.0076301489)
(0.06015392 -0.050119069 0.0080571519)
(0.061975024 -0.050352267 0.0084407185)
(0.067899835 -0.060114898 0.0075580646)
(0.06986522 -0.060152935 0.0080356199)
(0.071718839 -0.060298744 0.0084056463)
(0.078925244 -0.067017698 0.0074190045)
(0.080867042 -0.066948637 0.0078842274)
(0.082922063 -0.067042197 0.0082761858)
(0.091497629 -0.070285441 0.0071794881)
(0.09360827 -0.070180789 0.0076672169)
(0.095693292 -0.070237538 0.0080344345)
(0.10573205 -0.069807173 0.0068694521)
(0.10781794 -0.069666418 0.0073513346)
(0.10997649 -0.069589691 0.0077280762)
(0.12161512 -0.065633319 0.0066095692)
(0.12379464 -0.065401769 0.0070241703)
(0.1261302 -0.065391176 0.0073335351)
(0.13903588 -0.058115504 0.0062079707)
(0.14135614 -0.057964784 0.0065865023)
(0.14356603 -0.0578397 0.0069179686)
(0.15807357 -0.047805484 0.0059035673)
(0.16033257 -0.047651607 0.0063180886)
(0.16275298 -0.047532154 0.0065152843)
(0.17817515 -0.035552839 0.0057037834)
(0.18045412 -0.035152684 0.0058602696)
(0.18288781 -0.035245307 0.0059126593)
)
;

boundaryField
{
    free
    {
        type            calculated;
    }
    fixed
    {
        type            calculated;
    }
    traction
    {
        type            calculated;
    }
}


// ************************************************************************* //
