/*--------------------------------*- C++ -*----------------------------------*\
  =========                 |
  \\      /  F ield         | OpenFOAM: The Open Source CFD Toolbox
   \\    /   O peration     | Website:  https://openfoam.org
    \\  /    A nd           | Version:  6
     \\/     M anipulation  |
\*---------------------------------------------------------------------------*/
FoamFile
{
    version     2.0;
    format      ascii;
    class       pointVectorField;
    location    "1.77";
    object      lm;
}
// * * * * * * * * * * * * * * * * * * * * * * * * * * * * * * * * * * * * * //

dimensions      [1 -2 -1 0 0 0 0];

internalField   nonuniform List<vector> 
3969
(
(0 0 0)
(0 0 0)
(1364.7496 371.34841 -116.54284)
(1318.0289 -503.52158 -59.543273)
(0 0 0)
(0 0 0)
(1266.0361 -487.73719 -61.448327)
(1312.4115 385.9982 -116.69204)
(0 0 0)
(0 0 0)
(0 0 0)
(0 0 0)
(0 0 0)
(0 0 0)
(0 0 0)
(1357.88 260.02282 -110.28848)
(1350.7972 150.53136 -103.88749)
(1344.5774 41.971035 -96.379163)
(1338.9138 -66.04026 -88.723391)
(1333.777 -173.92352 -80.777261)
(1329.2169 -282.72155 -73.167799)
(1324.4413 -392.82615 -66.131351)
(-3.6727759 -7.5304809 -7.0492998)
(-6.6204096 -15.287978 -6.9753716)
(-12.773636 -25.793012 -6.5122989)
(-22.641315 -36.211086 -5.1159311)
(-34.430912 -47.701276 -5.1901447)
(-49.463184 -59.252109 -5.8215582)
(-66.326911 -70.82423 -8.0133759)
(-86.23811 -82.160588 -11.285021)
(-108.07652 -92.818333 -16.073719)
(-132.54326 -102.19442 -21.792116)
(-159.07338 -110.44286 -28.631381)
(-187.58218 -116.70657 -36.100214)
(-217.88991 -120.86348 -44.076825)
(-249.52568 -122.43117 -52.073819)
(-282.07683 -121.30898 -59.821019)
(-315.01211 -117.17069 -67.03074)
(-347.79306 -110.01194 -73.306127)
(-379.57396 -99.550804 -78.602555)
(-409.67794 -85.949013 -82.630045)
(-437.16601 -69.229242 -85.296485)
(-461.19628 -49.494419 -86.655304)
(-480.84026 -27.065289 -86.640521)
(-495.2004 -2.1405882 -85.466703)
(-503.40408 24.70293 -83.238488)
(-504.77363 53.336641 -80.192051)
(-498.50316 83.116659 -76.566579)
(-484.10237 113.6478 -72.639014)
(-461.02503 144.40798 -68.681357)
(-429.0501 174.8823 -64.923932)
(-388.02791 204.67874 -61.638824)
(-337.9503 233.29121 -59.019719)
(-278.97246 260.36525 -57.271079)
(-211.40789 285.4648 -56.421992)
(-135.67959 308.42153 -56.700453)
(-52.437881 328.90789 -57.975845)
(37.869229 346.63403 -60.231428)
(134.19772 361.78616 -63.624895)
(235.97268 373.92062 -67.819863)
(342.12865 383.51564 -72.64386)
(452.02036 390.11442 -78.051145)
(564.64341 394.49966 -83.825681)
(679.17376 396.09018 -89.773637)
(794.83369 395.72862 -95.589781)
(910.55671 393.62249 -101.15502)
(1026.3368 389.25694 -106.13948)
(1140.1989 384.63172 -110.26022)
(1253.3599 378.27005 -113.50495)
(-3.4185298 12.432821 16.925049)
(-6.5343845 20.610663 21.041294)
(-10.106554 27.888179 27.04492)
(-18.71534 36.885244 27.508187)
(-29.585959 44.457213 27.916984)
(-43.106728 51.94155 26.000778)
(-60.519927 59.059917 22.405749)
(-80.273849 65.458595 17.172148)
(-103.4311 71.380155 10.029943)
(-129.47456 76.840624 1.1979269)
(-157.85665 81.301245 -9.0072545)
(-188.97044 85.363885 -20.986732)
(-221.78939 88.230394 -33.755879)
(-256.13529 90.131769 -47.389775)
(-291.30307 90.770915 -61.389045)
(-326.69598 89.908736 -75.42618)
(-361.57212 87.373167 -89.128352)
(-394.98875 82.867933 -102.10041)
(-426.25826 76.275562 -114.06714)
(-454.40263 67.435504 -124.68698)
(-478.51618 56.030466 -133.7803)
(-497.79954 42.392396 -141.15848)
(-511.28487 25.851108 -146.54871)
(-518.41582 7.1241636 -150.20372)
(-518.40221 -14.184034 -151.99151)
(-510.78773 -37.488605 -152.08473)
(-495.42067 -62.765559 -150.3579)
(-471.21131 -89.928816 -147.12141)
(-438.31257 -118.28533 -142.83468)
(-396.81621 -147.64032 -137.40349)
(-346.67374 -177.59302 -131.22964)
(-288.18429 -207.82117 -124.45169)
(-221.56242 -237.88439 -117.35181)
(-147.36901 -267.38608 -110.11703)
(-66.027317 -296.00661 -103.00076)
(21.835173 -323.39633 -96.019847)
(115.40509 -349.1656 -89.642033)
(214.1215 -373.14903 -83.504469)
(317.15788 -395.29575 -78.179316)
(423.79217 -415.18843 -73.381398)
(533.17795 -432.97647 -69.267708)
(644.63497 -448.63949 -65.877164)
(757.36447 -462.033 -63.159624)
(870.64562 -473.46459 -61.193703)
(983.95669 -482.951 -59.899266)
(1096.5497 -490.91962 -59.22405)
(1208.0604 -497.32944 -59.235527)
(0 0 0)
(0 0 0)
(0 0 0)
(0 0 0)
(0 0 0)
(0 0 0)
(0 0 0)
(-7.5900973 7.886257 -10.867092)
(-11.321653 25.429877 -13.554708)
(-16.028961 31.582504 -12.295738)
(-27.177011 49.182666 -12.705944)
(-38.390998 60.171425 -12.736938)
(-53.854549 75.519689 -13.101014)
(-71.056505 89.001466 -15.863056)
(-91.138241 102.31943 -18.079662)
(-113.75082 115.27692 -23.078765)
(-138.56621 126.11858 -27.715063)
(-165.61165 136.38451 -34.463959)
(-195.25787 143.39905 -40.341206)
(-226.14672 148.92757 -47.481714)
(-258.75111 151.71607 -54.014942)
(-292.06519 151.24153 -60.162691)
(-326.17554 148.43226 -65.67439)
(-359.75137 141.61605 -69.977994)
(-392.72728 132.31507 -73.197)
(-423.83917 119.29453 -74.995579)
(-452.56072 103.51146 -75.366325)
(-477.86544 84.622993 -74.31229)
(-498.97233 63.154996 -71.88735)
(-514.96371 39.267992 -68.245868)
(-525.12496 13.32877 -63.525093)
(-528.54358 -14.393894 -58.116247)
(-523.79459 -43.487499 -52.625575)
(-511.55024 -73.670558 -46.714286)
(-491.44868 -104.5606 -40.463224)
(-462.60141 -135.60017 -34.516584)
(-425.07214 -166.41092 -29.10199)
(-378.73981 -196.74743 -24.454062)
(-323.76389 -226.28669 -20.666573)
(-260.48361 -254.73006 -17.902042)
(-189.1544 -281.9176 -16.249154)
(-110.46592 -307.55346 -15.695331)
(-24.605526 -331.70019 -16.288829)
(66.976117 -353.39567 -18.038104)
(164.28136 -374.72844 -20.432062)
(266.21551 -392.9148 -23.862463)
(372.00842 -409.78101 -27.923807)
(480.86707 -424.64489 -32.479795)
(591.96903 -437.8714 -37.246185)
(704.53447 -449.29727 -42.163828)
(817.83104 -459.2285 -46.911489)
(931.14603 -467.73866 -51.313975)
(1043.8134 -474.97962 -55.210396)
(1155.2731 -481.3693 -58.371248)
(1272.282 -376.959 -68.968004)
(1277.0907 -266.75188 -76.242892)
(1282.043 -157.95122 -82.965287)
(1286.6409 -49.71976 -89.135369)
(1292.8989 57.74076 -95.438769)
(1298.6992 166.65119 -101.98201)
(1305.7288 275.51601 -109.07097)
(1202.1802 392.6926 -116.28043)
(1089.7367 398.81806 -115.53256)
(976.84198 403.17269 -115.32012)
(862.97386 405.91674 -115.41164)
(748.74595 406.58384 -116.1307)
(635.02176 404.76546 -117.30806)
(522.37673 400.37093 -119.02966)
(411.62167 393.1424 -121.31093)
(303.57553 383.0574 -124.17439)
(198.99038 370.24281 -127.55645)
(98.452051 354.35071 -131.5714)
(4.2522205 335.55919 -135.60117)
(-85.570406 314.81573 -140.67991)
(-167.95164 291.60066 -145.59754)
(-243.21484 266.65558 -150.86186)
(-310.53001 240.24968 -155.9444)
(-369.51904 212.86825 -160.82366)
(-419.75772 184.94388 -165.20728)
(-461.08041 157.02578 -168.88685)
(-493.34343 129.486 -171.6025)
(-516.66738 102.92521 -173.15263)
(-531.20467 77.656079 -173.28211)
(-537.21695 54.043542 -171.72404)
(-535.43363 32.491917 -168.5661)
(-526.29184 13.141958 -163.52646)
(-510.51143 -3.7985191 -156.63413)
(-488.98129 -18.278863 -147.91647)
(-462.50386 -30.26892 -137.49674)
(-432.07357 -39.909612 -125.53443)
(-398.50219 -47.253064 -112.28048)
(-362.88388 -52.606073 -97.991315)
(-325.90381 -56.143056 -83.144161)
(-288.72554 -58.093354 -68.024143)
(-252.21295 -58.270836 -53.006915)
(-216.10112 -57.977764 -38.187165)
(-181.90079 -56.542743 -24.993652)
(-150.16974 -54.59756 -12.610129)
(-120.76957 -51.906507 -1.8539167)
(-94.414313 -48.823944 7.0245726)
(-71.332345 -44.454419 14.348903)
(-51.310037 -41.345522 19.677888)
(-34.204682 -36.60245 22.580775)
(-20.922755 -31.835463 24.630509)
(-10.96484 -26.514661 23.568447)
(-3.9527989 -21.081336 21.68689)
(-1.0848724 -13.896614 17.278057)
(-4.9168317 -7.7502193 8.9043243)
(0 0 0)
(0 0 0)
(0 0 0)
(0 0 0)
(0 0 0)
(0 0 0)
(0 0 0)
(0 0 0)
(0 0 0)
(0 0 0)
(0 0 0)
(0 0 0)
(0 0 0)
(0 0 0)
(1311.4564 -502.69542 -59.891047)
(1305.2537 -501.73755 -60.208934)
(1299.1161 -500.46394 -60.139512)
(1292.7442 -498.90975 -60.255796)
(1286.2543 -496.95464 -60.2638)
(1279.5014 -494.37889 -60.385696)
(1272.526 -491.54621 -61.131509)
(1359.3151 374.51562 -116.30216)
(1353.2854 376.99693 -116.11624)
(1347.0274 379.16474 -116.05258)
(1340.494 380.86691 -116.16259)
(1333.6961 382.34156 -116.4278)
(1326.6966 383.64244 -116.5627)
(1319.7486 384.79818 -116.65248)
(-0.53922528 -5.9431931 -5.654983)
(-2.9363569 -11.462149 -4.4683882)
(-8.5423899 -19.230481 -3.2239351)
(-18.099109 -26.965967 -2.5167384)
(-29.690749 -35.352882 -2.4733752)
(-44.840043 -44.419237 -3.4180763)
(-61.931394 -53.112175 -5.6052414)
(-82.089526 -61.97752 -9.2184702)
(-104.56929 -69.734499 -13.881311)
(-129.65971 -76.973134 -19.907934)
(-156.8983 -82.819077 -26.803298)
(-186.40038 -87.098728 -34.443995)
(-217.71136 -89.682078 -42.565569)
(-250.50459 -90.192901 -50.749302)
(-284.23093 -88.509584 -58.929878)
(-318.41015 -84.427132 -66.519921)
(-352.39907 -77.989446 -73.478301)
(-385.37242 -69.000612 -79.495907)
(-416.58976 -57.713626 -84.313741)
(-445.13738 -44.090353 -87.927006)
(-470.13422 -28.32581 -90.215676)
(-490.6344 -10.712135 -91.215681)
(-505.74245 8.570244 -91.01401)
(-514.60547 29.136796 -89.731721)
(-516.43279 50.724986 -87.512886)
(-510.46629 72.872816 -84.741867)
(-496.27876 95.353003 -81.367346)
(-473.36189 117.71669 -77.843269)
(-441.39053 139.66971 -74.383443)
(-400.31701 160.81757 -71.160329)
(-350.10005 180.89664 -68.412899)
(-290.90323 199.60424 -66.267701)
(-223.06961 216.74542 -64.903287)
(-147.05432 232.14169 -64.416055)
(-63.397712 245.51398 -64.711049)
(27.170143 257.06651 -66.04538)
(123.89926 266.39096 -68.109337)
(226.10426 273.72354 -71.016839)
(332.76859 279.11083 -74.534948)
(443.05859 282.49554 -78.493189)
(556.08598 284.19113 -82.973421)
(670.97547 284.10984 -87.427246)
(787.01527 282.78 -92.075566)
(903.02706 279.99822 -96.34112)
(1019.1079 276.17927 -100.42515)
(1133.3351 271.93624 -103.96849)
(1246.7112 266.1532 -107.18216)
(2.1311623 -2.8487888 -2.3838025)
(-0.029232432 -5.4304617 -0.54134329)
(-5.9419166 -11.869909 0.58036833)
(-14.820478 -16.327652 1.0344542)
(-26.870005 -23.203807 0.84571533)
(-41.296888 -29.550712 -0.28887674)
(-58.725931 -36.482486 -3.0186306)
(-79.099775 -42.920462 -6.5491108)
(-101.89401 -49.118615 -11.895772)
(-127.41006 -54.563101 -18.037037)
(-155.38139 -59.078355 -25.324099)
(-185.49383 -62.358205 -33.394557)
(-217.61442 -64.314524 -42.031044)
(-251.16584 -64.49355 -50.887168)
(-285.76228 -63.01888 -59.636917)
(-320.85145 -59.681226 -67.931555)
(-355.6852 -54.549261 -75.614155)
(-389.50804 -47.49414 -82.360067)
(-421.54584 -38.749754 -88.019134)
(-450.81606 -28.305697 -92.466546)
(-476.42869 -16.415271 -95.628741)
(-497.4302 -3.2519726 -97.475109)
(-512.98061 10.976726 -98.094628)
(-522.1615 25.980111 -97.499454)
(-524.20103 41.493397 -96.027172)
(-518.51781 57.302637 -93.621193)
(-504.50269 72.945536 -90.580917)
(-481.62012 88.342975 -87.325855)
(-449.70786 103.11147 -83.817258)
(-408.62683 117.0707 -80.402288)
(-358.34782 129.98891 -77.249029)
(-299.05981 141.72185 -74.553129)
(-231.17756 152.12167 -72.463861)
(-154.9961 161.02152 -70.996878)
(-71.294948 168.492 -70.367098)
(19.457462 174.3728 -70.437965)
(116.33057 178.66285 -71.310894)
(218.59791 181.54638 -72.89556)
(325.32357 182.9064 -75.073666)
(435.68839 182.94124 -77.820714)
(548.92897 181.83844 -81.006749)
(663.86004 179.47182 -84.337274)
(780.19892 176.35406 -87.947987)
(896.2652 172.33121 -91.426794)
(1012.6899 167.59996 -94.748582)
(1126.8279 162.7018 -97.972843)
(1240.7378 156.41502 -100.59216)
(4.789587 -0.44002505 0.17715663)
(1.8741074 -2.0131078 2.0309222)
(-3.401821 -4.9722935 3.9012798)
(-12.952978 -8.2992994 4.4469129)
(-24.223577 -12.125518 4.4875402)
(-39.409362 -16.716346 2.999772)
(-57.129535 -20.780974 0.64786923)
(-77.598572 -25.538357 -3.6403031)
(-100.80032 -29.507145 -8.8412132)
(-126.83934 -33.437968 -15.297365)
(-155.02784 -36.481357 -23.023592)
(-185.80057 -38.757079 -31.431028)
(-218.31586 -40.00049 -40.532196)
(-252.53168 -40.012646 -49.881182)
(-287.79931 -38.924264 -59.181119)
(-323.49391 -36.361815 -68.150207)
(-358.96113 -32.591313 -76.616939)
(-393.36982 -27.484269 -84.200735)
(-425.91886 -21.218405 -90.79846)
(-455.63826 -13.942515 -96.152312)
(-481.74854 -5.6952251 -100.22034)
(-503.20547 3.2031878 -102.93075)
(-519.04459 12.624039 -104.28597)
(-528.51971 22.201531 -104.527)
(-530.91537 31.906784 -103.50534)
(-525.25721 41.373681 -101.65766)
(-511.17747 50.480315 -99.152889)
(-488.16799 59.07917 -96.070375)
(-456.17833 66.965118 -92.663486)
(-414.93047 73.952574 -89.162073)
(-364.49112 80.007953 -85.771535)
(-305.08168 84.955631 -82.634659)
(-237.00256 88.797515 -79.904272)
(-160.73382 91.482572 -77.73882)
(-76.868338 93.028871 -76.160356)
(13.946243 93.424034 -75.261709)
(110.89584 92.75632 -75.016108)
(213.30802 91.115644 -75.44393)
(320.16409 88.533716 -76.478072)
(430.57912 85.263102 -77.982677)
(543.69247 81.124305 -79.902524)
(658.60624 76.463343 -82.045584)
(774.72362 71.452418 -84.594502)
(890.72986 65.79308 -86.820931)
(1006.8798 60.103699 -89.461979)
(1121.144 54.083247 -91.615453)
(1235.1815 47.592042 -93.973538)
(4.7422588 1.9749214 4.013163)
(1.4811447 2.8263861 6.897974)
(-3.6023288 1.6002477 8.5765998)
(-12.217995 0.964707 9.0830848)
(-24.040298 -0.802433 8.5697309)
(-38.585922 -2.9751801 7.1937763)
(-56.029627 -5.1921642 3.7055092)
(-76.372896 -7.9715081 -0.36711253)
(-99.731839 -10.288645 -6.1434673)
(-125.63857 -12.756884 -13.212931)
(-154.32898 -14.49215 -21.232258)
(-185.40519 -16.000452 -30.13816)
(-218.35244 -16.607702 -39.806376)
(-253.08049 -16.555168 -49.731418)
(-288.66358 -15.791627 -59.788616)
(-324.83496 -14.080982 -69.670796)
(-360.60779 -11.835443 -78.984995)
(-395.34908 -8.6934437 -87.526304)
(-428.13412 -5.1185277 -95.055611)
(-458.05145 -1.0946336 -101.31866)
(-484.1602 3.4162996 -106.4315)
(-505.3049 7.7866916 -109.99724)
(-521.0988 12.017347 -112.36226)
(-530.3546 16.364279 -113.32226)
(-532.22061 20.306955 -113.20105)
(-526.36167 23.810067 -111.94199)
(-512.13164 26.62855 -109.62935)
(-489.1665 28.717721 -106.62761)
(-457.09992 29.932353 -103.12505)
(-415.85368 30.267688 -99.309896)
(-365.48606 29.702448 -95.413042)
(-306.1563 28.097552 -91.532671)
(-238.28378 25.704197 -88.001732)
(-162.20037 22.326906 -84.763238)
(-78.653033 18.218497 -82.077891)
(11.829881 13.338233 -79.890347)
(108.41463 7.8486369 -78.344974)
(210.24367 1.8103324 -77.344391)
(316.37663 -4.7018832 -76.934986)
(426.35455 -11.546553 -77.081536)
(539.11596 -18.521886 -77.764884)
(653.66952 -25.592199 -78.798431)
(769.55944 -32.688258 -80.197906)
(885.36215 -39.820968 -81.701169)
(1001.5781 -46.661171 -83.568173)
(1115.884 -53.464614 -85.225242)
(1229.9555 -60.168502 -86.97689)
(4.8644712 4.9795094 7.3906205)
(1.4913831 6.7210912 9.7789433)
(-2.8287723 8.4442314 11.891431)
(-12.046444 9.3707344 12.75988)
(-23.103456 9.9676868 12.526815)
(-37.804901 9.6396531 10.689926)
(-55.121552 9.4282015 7.6896725)
(-75.871962 8.4065789 3.3175629)
(-99.096362 7.7940491 -2.8070794)
(-125.51389 6.698887 -9.9622691)
(-154.35096 6.1199159 -18.3902)
(-185.63161 5.3922211 -28.013307)
(-218.91041 5.3559429 -38.293024)
(-253.82855 5.2903277 -49.005896)
(-289.77913 5.8095388 -59.927666)
(-326.11975 6.5456546 -70.651328)
(-362.1663 7.5440191 -80.912643)
(-397.07635 8.710884 -90.359196)
(-429.99526 9.8470197 -98.870404)
(-459.9927 10.901472 -106.05679)
(-486.09793 11.974218 -112.16806)
(-507.75597 12.138794 -116.34849)
(-523.46978 12.161078 -119.36216)
(-532.72943 11.341981 -120.9452)
(-534.78343 9.6959104 -121.015)
(-528.92474 7.1378874 -119.88271)
(-514.58414 3.6516096 -117.76087)
(-491.44223 -0.73745963 -114.87321)
(-459.22586 -6.0942955 -111.28045)
(-417.88998 -12.372309 -107.24167)
(-367.39159 -19.563231 -102.92919)
(-308.06674 -27.640207 -98.536713)
(-240.13242 -36.330142 -94.319539)
(-164.14515 -45.787913 -90.265925)
(-80.679813 -55.593763 -86.675465)
(9.6651843 -65.823077 -83.527596)
(106.08061 -76.210219 -80.916829)
(207.72283 -86.79144 -78.878272)
(313.92532 -97.164564 -77.594394)
(423.95207 -107.27749 -76.634015)
(536.27984 -117.31615 -76.187531)
(650.67193 -126.93307 -76.192765)
(766.03988 -136.1567 -76.604661)
(881.73638 -144.94378 -77.213044)
(997.29404 -153.06875 -78.209614)
(1111.3414 -160.86778 -78.950952)
(1224.8627 -167.79922 -80.05285)
(3.6670152 6.2676914 10.794136)
(-0.901182 11.138717 13.991513)
(-4.9867004 14.808283 17.106756)
(-13.850128 18.499119 17.982807)
(-24.857699 21.264011 17.552333)
(-39.195139 23.624927 15.771076)
(-56.59299 25.676634 12.536481)
(-76.823317 26.935957 7.6213765)
(-100.21083 28.306704 1.2571644)
(-126.27177 28.913214 -6.4851235)
(-155.19991 29.804685 -15.695253)
(-186.42524 30.26423 -25.87007)
(-219.66551 30.779163 -36.916007)
(-254.51464 31.134092 -48.572555)
(-290.29233 31.300032 -60.396862)
(-326.49506 31.216795 -72.197342)
(-362.25701 30.764038 -83.489378)
(-396.89246 29.828801 -94.107476)
(-429.42447 28.298247 -103.71432)
(-458.98783 26.015275 -112.04328)
(-484.76528 22.80927 -119.18778)
(-505.43574 19.115826 -124.17674)
(-520.82424 13.641335 -128.52585)
(-529.32276 6.8598734 -130.59638)
(-530.9248 -0.94011185 -131.47803)
(-524.47145 -9.9469078 -130.9064)
(-509.70487 -20.07053 -129.05851)
(-486.33261 -31.407629 -126.19641)
(-454.0111 -43.740269 -122.46248)
(-412.58285 -57.132396 -118.00614)
(-362.21577 -71.357265 -113.11055)
(-303.08941 -86.269403 -107.92922)
(-235.52342 -101.6117 -102.75017)
(-160.03016 -117.3476 -97.586703)
(-77.151729 -132.98788 -92.853052)
(12.519534 -148.68605 -88.333111)
(108.08059 -163.98486 -84.406313)
(208.94134 -178.89283 -80.9036)
(314.23876 -193.20154 -78.056439)
(422.89634 -206.79937 -75.598222)
(534.50531 -219.20652 -74.025565)
(648.01524 -231.04091 -72.75185)
(762.6616 -241.86329 -72.088615)
(877.74098 -251.90003 -71.783807)
(992.57663 -260.85392 -71.927978)
(1106.465 -269.12422 -72.308329)
(1219.5508 -276.296 -72.960789)
(0.34717397 11.025049 13.733573)
(-3.2403147 17.117446 17.461323)
(-6.7089871 22.882661 21.121501)
(-15.770306 28.159002 22.313124)
(-25.89795 33.06959 22.087423)
(-40.480894 37.491181 20.300565)
(-57.259733 41.355046 16.923417)
(-77.620801 44.639863 11.781535)
(-100.76444 47.74032 5.2208034)
(-126.80141 49.942733 -3.0744504)
(-155.79454 52.368022 -12.795401)
(-186.80663 53.61287 -23.595793)
(-220.19495 55.117467 -35.573637)
(-254.83968 55.665083 -47.962411)
(-290.66081 55.760852 -60.811929)
(-326.68216 55.0281 -73.521399)
(-362.32976 53.392164 -85.88264)
(-396.73178 50.745617 -97.534353)
(-428.91535 46.787259 -108.10645)
(-458.23917 41.51706 -117.52613)
(-483.37107 34.709024 -125.32809)
(-504.07086 26.304832 -131.68297)
(-518.49972 16.20916 -136.20772)
(-526.80055 4.1411452 -139.08292)
(-527.79227 -9.4391774 -140.45558)
(-521.01368 -24.844707 -140.19396)
(-506.18114 -41.81465 -138.42587)
(-482.41928 -59.95489 -135.55954)
(-449.80803 -79.397803 -131.54683)
(-408.23905 -99.930279 -126.6934)
(-357.8597 -121.24462 -121.20896)
(-298.8521 -143.09384 -115.34235)
(-231.52758 -165.18689 -109.29064)
(-156.42219 -187.3058 -103.22773)
(-73.961122 -209.01236 -97.398339)
(15.054708 -230.33828 -91.789137)
(110.02466 -250.72789 -86.681867)
(210.23415 -270.22877 -82.069898)
(314.67742 -288.4965 -78.085936)
(422.67018 -305.4783 -74.666091)
(533.52258 -321.07128 -71.831473)
(646.29056 -335.24605 -69.563333)
(760.24558 -348.00986 -67.956137)
(874.6593 -359.39716 -66.820153)
(988.80801 -369.34582 -66.329595)
(1102.2651 -378.29818 -66.107831)
(1214.2824 -385.90602 -66.297738)
(0 0 0)
(0 0 0)
(0 0 0)
(0 0 0)
(0 0 0)
(0 0 0)
(0 0 0)
(0 0 0)
(0 0 0)
(0 0 0)
(0 0 0)
(0 0 0)
(0 0 0)
(0 0 0)
(0 0 0)
(0 0 0)
(0 0 0)
(0 0 0)
(0 0 0)
(0 0 0)
(0 0 0)
(0 0 0)
(0 0 0)
(0 0 0)
(0 0 0)
(0 0 0)
(0 0 0)
(0 0 0)
(0 0 0)
(0 0 0)
(0 0 0)
(0 0 0)
(0 0 0)
(0 0 0)
(0 0 0)
(0 0 0)
(0 0 0)
(0 0 0)
(0 0 0)
(0 0 0)
(0 0 0)
(0 0 0)
(0 0 0)
(0 0 0)
(0 0 0)
(0 0 0)
(0 0 0)
(0 0 0)
(0 0 0)
(-7.0146063 3.8034183 9.7730436)
(-8.5811145 4.5131774 8.1735469)
(-9.6502337 5.0650021 5.9770755)
(-10.328843 5.5390217 4.1056023)
(-10.488637 5.4276891 1.7020332)
(-10.241798 5.7046557 -1.2711835)
(-8.5160025 4.7723515 -4.6608957)
(-10.818232 17.001017 18.800785)
(-13.526458 18.531149 13.337789)
(-15.397984 18.96462 9.2975581)
(-16.155743 19.351863 6.0542512)
(-16.58742 20.942296 2.3478215)
(-15.824065 21.808662 -2.3158975)
(-14.443738 22.568343 -7.444836)
(-14.849393 25.263818 22.440508)
(-18.355017 24.912577 18.097697)
(-20.912415 26.502709 12.833738)
(-21.871821 27.966919 8.9997943)
(-22.368184 28.7034 3.508777)
(-21.309907 30.510319 -0.77384475)
(-19.844488 32.417352 -7.4834236)
(-24.500793 37.285997 23.412575)
(-27.554169 38.778457 19.197517)
(-30.355554 40.133573 14.236297)
(-31.662339 41.856289 9.7859952)
(-32.315524 43.8939 4.404428)
(-31.51313 46.591624 -0.9742926)
(-29.872306 47.186141 -6.5801917)
(-34.201782 45.481394 23.983203)
(-38.306503 47.259962 19.972608)
(-41.265482 49.667925 14.645056)
(-42.787823 52.081882 9.7734465)
(-43.512866 54.64118 4.5672672)
(-43.009061 57.28916 -0.54059827)
(-41.56448 59.604814 -6.8066575)
(-48.956465 55.566042 22.196887)
(-52.510501 58.056744 18.282908)
(-55.488551 60.795814 13.360347)
(-57.09608 64.257824 8.9386083)
(-57.962818 66.960916 3.3356325)
(-57.387844 70.312206 -1.8484574)
(-56.138149 72.816705 -7.3834177)
(-65.483049 63.313276 18.770783)
(-69.128043 66.815025 14.965581)
(-72.095629 70.974571 10.369777)
(-73.991593 74.660669 5.9752716)
(-74.72248 78.349649 0.83647892)
(-74.715828 82.834699 -3.9399131)
(-73.534179 86.146923 -9.9327271)
(-85.411423 71.804383 13.781105)
(-89.048381 76.486201 10.402124)
(-91.885116 80.786622 5.8383213)
(-93.513161 85.338219 1.588607)
(-94.212137 89.25973 -2.8787312)
(-94.259797 93.888718 -7.9189285)
(-93.085495 97.870494 -12.850709)
(-108.29084 79.025924 6.8465727)
(-111.39692 84.174077 3.4446172)
(-113.92998 89.739067 -0.35079089)
(-115.67664 94.740554 -4.1250345)
(-116.49932 100.08102 -8.4852338)
(-116.48757 105.1312 -12.80352)
(-115.56893 110.33298 -17.929069)
(-133.4856 85.776958 -1.60599)
(-136.46089 92.083313 -4.3873254)
(-138.79419 97.729416 -8.0241249)
(-140.40831 103.62234 -11.626593)
(-140.92004 108.9054 -15.486396)
(-141.10534 114.5502 -19.24732)
(-140.36856 120.0514 -23.588452)
(-161.78672 91.583364 -11.727064)
(-164.04252 98.292784 -14.319845)
(-166.01638 105.04095 -17.557934)
(-167.03416 110.75899 -20.097239)
(-167.92894 117.10768 -23.44893)
(-167.93155 123.19899 -26.500257)
(-167.07967 129.6467 -30.737123)
(-191.86516 96.361817 -23.015636)
(-193.56425 103.83475 -25.256663)
(-194.97967 110.86387 -27.232894)
(-196.17228 117.40143 -29.677099)
(-196.56729 123.78985 -32.43552)
(-196.39878 130.0504 -34.82466)
(-196.36363 136.8093 -37.740631)
(-223.98393 100.2507 -35.461841)
(-224.75841 107.81582 -37.000403)
(-225.92279 115.13255 -38.513258)
(-226.36075 121.48581 -40.167789)
(-226.93284 128.30517 -41.851283)
(-227.03415 135.11681 -43.386045)
(-226.90851 141.80166 -45.624051)
(-257.11788 102.39258 -48.347706)
(-257.42073 110.28046 -49.160873)
(-258.06919 117.7522 -49.84541)
(-258.2465 124.54092 -50.551004)
(-258.8365 131.50536 -51.558914)
(-258.74091 137.9944 -52.195983)
(-259.08336 144.95223 -53.415236)
(-291.24327 103.28507 -61.698535)
(-290.79846 111.06022 -61.745318)
(-290.68353 118.34045 -61.522829)
(-290.58177 124.94726 -61.426532)
(-290.955 131.66334 -61.162161)
(-291.13604 138.1585 -60.896752)
(-291.7474 145.07397 -60.755314)
(-325.43695 102.10803 -74.898428)
(-324.17975 109.61738 -73.930182)
(-323.60298 116.82472 -72.811348)
(-323.22873 123.4038 -71.436025)
(-323.63802 130.03674 -70.290106)
(-323.9912 136.35873 -68.830753)
(-325.09132 142.90964 -67.500035)
(-358.97734 99.00182 -87.659263)
(-357.05591 106.15092 -85.751996)
(-355.78433 112.94239 -83.449264)
(-355.1476 119.04141 -81.120706)
(-355.55537 125.34204 -78.654028)
(-356.16113 131.05363 -76.073786)
(-357.79121 137.3145 -73.23326)
(-391.22031 93.645438 -99.6478)
(-388.55129 100.24564 -96.505298)
(-386.70333 106.4618 -93.212547)
(-385.97205 112.34297 -89.500556)
(-386.37441 118.10419 -85.850378)
(-387.44882 123.50028 -82.040593)
(-389.63811 129.03546 -77.748267)
(-421.21068 85.934734 -110.43034)
(-417.84563 91.735677 -106.21552)
(-415.52208 97.461228 -101.67406)
(-414.60182 102.60432 -96.75654)
(-415.18109 107.89915 -91.83113)
(-416.67555 112.46931 -86.760298)
(-419.62 117.4607 -80.928896)
(-448.16023 75.665377 -119.91296)
(-444.24445 80.768597 -114.42105)
(-441.37498 85.609789 -108.68813)
(-440.53439 90.302348 -102.4711)
(-441.18765 94.847346 -96.229336)
(-443.34849 98.856376 -89.901276)
(-447.00367 102.96619 -82.589981)
(-471.23213 62.877015 -127.75313)
(-466.71059 66.922827 -121.02547)
(-463.5459 71.111089 -114.09353)
(-462.68771 74.998222 -106.60156)
(-463.64133 78.920569 -99.106224)
(-466.41248 82.066157 -91.568497)
(-470.94266 85.463763 -82.764866)
(-489.52135 47.364547 -133.82817)
(-484.63276 50.579658 -125.9096)
(-481.10979 53.866045 -117.77486)
(-480.47649 57.136074 -109.1215)
(-481.62284 60.281869 -100.36366)
(-485.20104 62.729079 -91.617154)
(-490.60225 65.245559 -81.452967)
(-502.3166 29.350994 -138.02353)
(-497.00076 31.568326 -128.99617)
(-493.41984 34.159053 -119.77593)
(-492.9418 36.547903 -109.97937)
(-494.50415 38.948371 -100.01826)
(-498.84597 40.585303 -90.290373)
(-505.17385 42.399844 -78.795514)
(-508.8303 8.9078932 -140.41326)
(-503.26072 10.106587 -130.40153)
(-499.75409 11.926804 -120.09075)
(-499.49543 13.499086 -109.33234)
(-501.35598 15.426177 -98.385772)
(-506.57236 16.364518 -87.563121)
(-513.79123 17.468888 -74.933122)
(-508.46926 -13.998281 -141.25221)
(-502.64237 -13.526474 -130.00676)
(-499.47418 -12.284223 -119.0431)
(-499.10342 -11.534841 -107.26367)
(-501.91637 -10.319897 -95.391608)
(-507.67664 -10.293285 -83.778932)
(-515.99041 -9.8564319 -70.200498)
(-500.67458 -38.906705 -140.24556)
(-494.84256 -39.035859 -128.25196)
(-491.90298 -38.780471 -116.66962)
(-492.14705 -38.428927 -103.35436)
(-495.41552 -37.83756 -91.915094)
(-501.47174 -38.364689 -79.084488)
(-510.5912 -38.370967 -65.249676)
(-485.10219 -65.544132 -137.90324)
(-479.30255 -66.308845 -125.53624)
(-476.70684 -66.798756 -112.80303)
(-476.75901 -66.925492 -99.789358)
(-480.89556 -67.037158 -86.985911)
(-487.55753 -67.735073 -73.452587)
(-497.78942 -68.597463 -59.809097)
(-460.9887 -93.691341 -134.22085)
(-455.80342 -95.270578 -121.18874)
(-452.99394 -96.058618 -108.00312)
(-454.17549 -96.685207 -94.860398)
(-458.20271 -96.883676 -81.196769)
(-465.85046 -98.194638 -67.978688)
(-476.64526 -99.323862 -53.549158)
(-428.56352 -123.0065 -129.54721)
(-423.55469 -124.97161 -115.89061)
(-421.56305 -126.23812 -102.96649)
(-422.86691 -127.07242 -89.061854)
(-427.68296 -127.90138 -75.665244)
(-435.79034 -129.19215 -62.109296)
(-447.15113 -130.70868 -47.584872)
(-387.53664 -153.04135 -123.83519)
(-383.19129 -155.38726 -110.18877)
(-381.4914 -156.94556 -97.070599)
(-383.43835 -158.08398 -83.236543)
(-388.63206 -159.00781 -69.830295)
(-397.21266 -160.44645 -56.323782)
(-409.08209 -162.05779 -41.888519)
(-338.14076 -183.51033 -117.65449)
(-334.28528 -186.07884 -103.97045)
(-333.26967 -187.77958 -91.066959)
(-335.65471 -189.01904 -77.329189)
(-341.31304 -190.0994 -64.219912)
(-350.30864 -191.47878 -50.907708)
(-362.49675 -193.11701 -36.851681)
(-280.43362 -214.03501 -111.04064)
(-277.33394 -216.60562 -97.642845)
(-276.84331 -218.40878 -85.045434)
(-279.74092 -219.68381 -71.700451)
(-285.76546 -220.75165 -58.954981)
(-295.05432 -222.01487 -46.069187)
(-307.43637 -223.50401 -32.507313)
(-214.82299 -244.13218 -104.33537)
(-212.40851 -246.67112 -91.351324)
(-212.58299 -248.41326 -79.24791)
(-215.95913 -249.59213 -66.426928)
(-222.32221 -250.60086 -54.233137)
(-231.81829 -251.63675 -41.949363)
(-244.26067 -252.9123 -29.056638)
(-141.66389 -273.54327 -97.672976)
(-140.06655 -275.86832 -85.289817)
(-140.86098 -277.4993 -73.853875)
(-144.68504 -278.55237 -61.729414)
(-151.30291 -279.39209 -50.256155)
(-160.89686 -280.12406 -38.702337)
(-173.26509 -281.11145 -26.601226)
(-61.490068 -301.82716 -91.290914)
(-60.675277 -303.92754 -79.683127)
(-62.119327 -305.33354 -69.032326)
(-66.358147 -306.1634 -57.699407)
(-73.215832 -306.75152 -47.072313)
(-82.837437 -307.28233 -36.224212)
(-95.041409 -307.82858 -25.198629)
(25.144327 -328.80642 -85.23656)
(25.119866 -330.54303 -74.481754)
(23.020507 -331.70607 -64.722899)
(18.410077 -332.22042 -54.33972)
(11.326624 -332.68295 -44.677474)
(1.8956312 -332.55441 -34.716367)
(-10.020122 -332.62863 -25.159227)
(117.38707 -353.89234 -79.787851)
(116.58167 -355.38377 -70.153703)
(113.98996 -356.16229 -61.409684)
(108.92797 -356.52856 -52.046581)
(101.91 -356.44824 -43.321844)
(92.561197 -356.42833 -34.758696)
(81.169024 -355.9694 -25.497876)
(215.04227 -377.68345 -74.897978)
(213.26866 -378.35651 -66.444953)
(209.9813 -378.92557 -58.545493)
(204.79938 -378.85025 -50.446633)
(197.55479 -378.67691 -42.637355)
(188.55853 -377.58977 -34.775004)
(177.31173 -377.25139 -26.975115)
(316.85393 -398.76261 -70.594059)
(314.40658 -399.42983 -63.084365)
(310.62831 -399.67401 -56.331933)
(304.98283 -399.22236 -49.224687)
(297.8194 -398.74515 -42.562171)
(288.86774 -397.73414 -36.083469)
(278.42704 -396.84045 -29.368889)
(422.27304 -418.21294 -67.037942)
(419.12261 -418.34586 -60.675226)
(414.77604 -418.1572 -55.083531)
(408.94124 -417.46831 -49.015442)
(401.75015 -416.73635 -43.607891)
(393.24705 -415.28078 -37.940441)
(383.28724 -413.98053 -32.479555)
(530.50785 -435.23116 -64.060362)
(526.68869 -435.02975 -59.005951)
(521.88789 -434.56226 -54.284456)
(515.83535 -433.58754 -49.446496)
(508.77031 -432.56568 -44.920623)
(500.52091 -430.83715 -40.40988)
(491.11611 -429.28447 -36.063919)
(640.96388 -450.21759 -61.758978)
(636.45931 -449.66454 -57.885377)
(631.25685 -448.8361 -54.127874)
(625.07964 -447.67687 -50.348104)
(618.03434 -446.38484 -46.818354)
(610.11972 -444.47206 -43.288365)
(601.34048 -442.64416 -39.976586)
(752.75193 -462.97917 -60.175661)
(747.7129 -462.17522 -57.333857)
(742.14093 -461.15678 -54.462263)
(735.8209 -459.77572 -51.712583)
(728.85009 -458.25863 -49.004686)