/*--------------------------------*- C++ -*----------------------------------*\
  =========                 |
  \\      /  F ield         | OpenFOAM: The Open Source CFD Toolbox
   \\    /   O peration     | Website:  https://openfoam.org
    \\  /    A nd           | Version:  6
     \\/     M anipulation  |
\*---------------------------------------------------------------------------*/
FoamFile
{
    version     2.0;
    format      ascii;
    class       pointScalarField;
    location    "1.11";
    object      p;
}
// * * * * * * * * * * * * * * * * * * * * * * * * * * * * * * * * * * * * * //

dimensions      [1 -1 -2 0 0 0 0];

internalField   nonuniform List<scalar> 
625
(
1160468.8
-1559538.7
9632.2536
11808.78
1831641.9
-3499308.7
10473.45
4060.782
844274.12
-18149.066
-91239.778
-9247.1001
6697.3801
9349.4258
482760.45
525185.35
507184.43
504232.58
438179.87
427832.65
382583.72
345255.53
325662.19
281466.15
255678.76
227776.82
198436.83
174244.85
149737.36
128873.6
106528.36
90975.711
72304.172
57619.863
44422.91
29006.168
20156.269
-562571.07
-349395.29
-489878.97
-379895.47
-353063.19
-357431.97
-304355.21
-285634.47
-265402.19
-236606.52
-216214.8
-189722.93
-171971.03
-147256.7
-128151.12
-108999.35
-89898.654
-73942.261
-57064.306
-43835.932
-29515.711
-17658.925
-4884.426
1136729
-235536.77
-407344.49
-646737.71
-808156.46
-587155.99
-498662.11
-606660.71
-425280.19
-406922.93
-376505.84
-340546.64
-314932.64
-266539.84
-243979.21
-206605.81
-179931.49
-153209.54
-126802.98
-105764.23
-84441.133
-65630.766
-49116.426
-33067.199
-19844.151
-4544.7399
9463.6368
5278.5418
-2735.2859
25793.909
34151.362
46198.428
62934.033
81690.204
100300.72
121410.04
143477.96
167084.69
192729.18
216835.47
248958.28
271406.71
303629.92
318374.82
380847.95
392887.89
413000.77
499721.57
452662.53
582923.44
470428.56
532979.36
1197895.4
1133548.8
1141747.8
-1815378.2
-1877523.2
-1866358.6
17814.308
17621.935
20348.244
-1296.3496
3844.9081
395.7006
309112
325130.7
327589.28
286211.76
266647.05
261448.52
224893.54
217140.57
189912.77
170642.44
156110.11
136689.84
119395.52
104427.04
90073.172
75869.682
64413.074
53633.704
42478.595
36344.975
26758.291
17086.044
12612.712
-33015.573
-18175.964
-44733.356
-10442.622
-32858.95
-22309.854
-22481.522
-17791.973
-20019.27
-16048.358
-15300.682
-14128.946
-12426.889
-9202.3651
-8426.0348
-6058.8698
-3894.3216
-2357.7106
-604.95404
1370.1991
1484.4652
5981.0006
7019.8689
-344385.75
-281746.97
-262960.31
-221077.18
-262731.22
-199267.16
-201704.88
-182644.77
-163901
-148733.63
-133177.16
-118639.58
-103389.04
-90224.313
-77529.289
-64782.808
-53607.197
-42173.01
-32650.718
-22198.046
-14293.291
-7622.0882
1101.6866
781503.46
677442.09
683099.39
-86378.034
-74548.698
-156902.85
-51712.909
-139717.21
-308885.96
-872745.7
-882497.38
-945245.95
-674848.32
-651189.78
-645246.76
-551305.23
-530663.33
-574109.94
-430464.35
-445205.62
-463190.32
-425570.86
-437727.72
-468905.58
-383027.68
-370247.81
-391182.2
-354970.43
-361611.24
-384478.66
-325926.53
-312122.21
-336901.31
-297302.93
-287588.86
-304670.18
-266434
-254434.16
-275835.87
-236676.56
-227628.92
-242899.5
-212741.16
-201628.94
-214954.57
-184568.6
-174876.45
-187487.96
-160668.69
-151037.89
-161393.22
-137920.66
-128800.87
-138734.15
-116052.22
-108076.98
-115453.46
-96333.891
-88248.831
-95343.56
-77427.718
-71415.825
-77081.641
-60593.025
-54676.387
-59020.231
-45044.898
-40636.057
-44393.108
-29163.583
-26342.042
-29110.899
-18041.064
-18120.465
-18986.52
-8925.9595
-4783.9487
-7304.3316
-13323.012
-14546.777
-15811
4843.7143
4525.2728
6181.8249
13042.677
14252.331
13128.163
631482.89
561360.43
576623.8
572604.32
527153.86
572272.89
597887.45
515165.82
524641.49
504588.74
451097.51
491946.68
488031.86
458307.18
454322.31
454773.03
391137.65
417125.95
407236.38
374125.26
394280.76
383296.95
340955.94
348886.88
344067.07
308882.78
325730.8
306816.74
279462.49
297200.79
280939.82
249657.46
262140.43
247366.02
221487.01
237371.82
216699.93
196493.98
208513.83
190129.88
172344.64
182853
163476.14
149136.42
158670.41
139045.41
127625.91
135525.42
116896.77
107770.46
114792.49
96535.456
89300.249
94984.883
76386.856
71818.474
76451.803
60805.696
54844.681
61317.381
45710.539
40958.679
45702.286
31613.081
31224.777
32234.84
27040.184
27614.009
29472.255
254818.85
347392.87
260358.93
296230.19
262487.88
249473.92
243231.61
207515.67
202672.89
177343.01
166032.72
145181.69
129115.21
115467.07
99645.602
87402.975
73664.378
62243.455
50983.519
39614.411
29774.481
19353.606
7160.7718
-87837.452
-11398.373
-16389.894
21243.971
24960.461
27121.664
27005.941
36475.944
24667.818
34584.26
31343.585
30806.692
29984.553
27591.567
26545.402
24572.13
22125.744
21028.422
17614.209
15999.513
14755.171
11179.076
9145.0697
-233482.25
-226784.48
-310143.25
-280018.3
-261317.62
-271491.71
-225001.49
-215625.54
-182263.03
-167565.67
-148369.56
-128096
-113228.08
-95236.572
-82011.964
-68032.491
-55737.236
-44635.831
-35375.175
-25138.311
-18041.642
-8540.8632
-6316.4591
391522.74
456983.22
366190.92
377863.39
380313.59
318291
264931.63
273726.1
301575.88
242809.92
312698.09
245360.29
278609.98
231962.82
241390.68
198843.54
239530.82
234853.55
205514.15
228279.33
201617.25
192611.28
193220.26
196300.75
161541.31
180074.01
184178.52
154819.28
170357.77
157573.14
135127.69
147799.98
148267.88
117369.8
134292.81
133215.37
107616.85
117925.7
119414.79
92622.474
103437.51
105626.25
80563.247
89070.755
92450.91
68816.345
77548.603
79805.041
59258.539
64913.866
68235.588
48624.882
54498.03
56379.054
40093.54
43459.707
46628.741
31892.688
37581.665
37355.194
22429.634
26733.429
25651.98
18002.76
17429.573
20477.616
7188.4706
4788.15
5243.6912
-68334.046
-110295.83
-106135.26
-27943.531
-17107.849
-49769.938
9220.1365
-11485.645
-40346.547
12492.385
-16313.757
-58755.362
3987.909
-101.52001
-6013.8714
6413.2404
17651.909
-28508.013
23485.976
9179.3196
-16556.914
6.6374665
17888.729
-8989.5039
16585.932
21661.953
-11310.451
13367.312
18753.91
-2841.7997
9701.7747
18917.923
-2805.6388
12652.774
22547.655
838.50724
12103.052
20236.243
2024.1039
11107.882
19408.696
4145.8441
10178.659
19619.399
6023.2446
10782.914
18441.911
6176.9976
9927.2217
16550.506
7358.5335
9152.6689
15955.811
6793.8101
10125.463
13278.291
8736.5028
10247.391
12559.842
5610.6735
8280.7832
6712.1064
6192.487
9384.3616
10989.523
7508.4721
10131.601
11188.645
11220.544
-343949.59
-407872.96
-480189.05
-241540.8
-208407.25
-330528.59
-228354.95
-356292.16
-344573.66
-306201.19
-264153.82
-306965.8
-223365.99
-270522.84
-281677.46
-211996.36
-256466.64
-265628.14
-210963.57
-228294.41
-238270.47
-176891.82
-212464.4
-227746.75
-161242.13
-193536.9
-198385.34
-149805.75
-174597.09
-178056.97
-130699.64
-153418.2
-158206.66
-115121.77
-135454.01
-137860.62
-100323.91
-121277.8
-120577.15
-87649.591
-103219.93
-102665.58
-73296.753
-88954.031
-86769.917
-62095.078
-74663.999
-73549.525
-50586.714
-62279.789
-59386.317
-40810.054
-49300.924
-47671.272
-30710.284
-39359.412
-37204.616
-23246.172
-28391.343
-26610.067
-15051.853
-20358.414
-17957.38
-6112.0737
-7904.5288
-3999.1194
-88.019231
-4911.9665
-4688.5344
)
;

boundaryField
{
    free
    {
        type            calculated;
    }
    fixed
    {
        type            calculated;
    }
    traction
    {
        type            calculated;
    }
}


// ************************************************************************* //
