/*--------------------------------*- C++ -*----------------------------------*\
  =========                 |
  \\      /  F ield         | OpenFOAM: The Open Source CFD Toolbox
   \\    /   O peration     | Website:  https://openfoam.org
    \\  /    A nd           | Version:  6
     \\/     M anipulation  |
\*---------------------------------------------------------------------------*/
FoamFile
{
    version     2.0;
    format      ascii;
    class       pointScalarField;
    location    "0.05";
    object      p;
}
// * * * * * * * * * * * * * * * * * * * * * * * * * * * * * * * * * * * * * //

dimensions      [1 -1 -2 0 0 0 0];

internalField   nonuniform List<scalar> 
625
(
317663.02
-471223.27
873.09431
-856.00374
539649.89
-792630.39
-413.86374
601.55963
199222.64
-10022.977
-41051.585
115.0635
-155.10676
-1479.6379
105127.22
115008.68
99040.182
86350.792
68562.653
53012.208
33634.705
16638.221
1855.7908
-9944.9433
-16695.136
-17967.649
-15633.495
-10933.778
-5850.3276
-1758.8494
515.22094
1013.3712
488.84176
333.82851
566.37368
2282.6441
-211.7637
-133100.48
-87898.394
-98435.067
-66817.881
-50415.431
-39846.769
-21532.766
-6912.7781
7397.1741
18262.971
25471.889
28583.739
27392.763
23294.036
17533.348
11762.636
7371.976
4964.2767
4076.0609
3673.0038
2899.1607
1293.0596
-569.4894
289914.35
24056.032
-70845.836
-134738.6
-162991.63
-89576.939
-76541.827
-66191.274
-34238.867
-20438.126
-3459.0025
11441.615
22273.506
29711.225
32069.316
29951.992
24536.012
17281.711
10561.68
5968.868
4012.0764
3770.1655
3825.2486
3051.167
1564.4047
600.88821
587.4491
1070.0135
856.09458
988.53881
1418.4975
-350.69303
-966.02563
266.28454
1712.0092
1410.3937
-1619.979
-6946.2753
-12943.497
-17587.941
-19122.468
-16166.849
-8253.3147
1500.8149
17542.392
34054.665
48788.715
75530.649
85516.247
101510.57
133763.05
120083.98
333058.28
350711.68
327290.56
-512732.72
-511392.9
-503690.22
-2471.5444
-1401.7402
-3087.5848
311.02941
1858.7356
1927.4476
63705.477
63368.228
59383.304
48707.154
39603.324
29852.344
18782.492
10955.606
2694.8263
-2523.7178
-4661.3704
-5478.7789
-4838.5676
-3362.5766
-1745.07
-178.77887
772.64905
1478.5613
1592.0608
1771.0494
987.25297
923.53161
-603.6446
-9904.5394
-8174.7515
-5158.8508
2347.445
1440.8698
5597.5508
6432.0242
7012.3871
6643.9845
7223.9736
7610.9815
8057.0261
8440.1672
8140.9887
7013.2962
5396.8737
3881.2294
3068.6221
2974.4113
2790.6947
2077.3749
1499.0275
-556.54864
-74811.809
-57674.223
-43352.645
-34888.228
-27826.501
-11866.937
-5688.6713
947.64154
6535.3634
10852.689
14258.981
16370.772
17157.233
16191.987
13754.61
10533.27
7617.251
5787.0383
5233.4663
4928.7533
3994.7328
1760.9216
1817.8857
183141.5
173388.67
173215.26
-5732.8266
4599.9095
-11212.343
-35278.489
-58533.84
-72661.951
-197630.28
-188878.95
-198854.53
-152702.86
-143777.07
-137995.42
-92095.694
-85259.166
-97885.647
-67715.544
-66907.205
-64275.693
-55133.544
-52583.149
-58770.301
-36230.758
-33620.452
-31778.845
-19192.692
-18122.977
-17246.281
-2949.1565
394.4662
584.67188
10945.953
14028.016
14948.358
22202.244
25503.273
26121.243
29532.907
31958.173
32774.786
32084.414
33676.441
35025.848
30212.51
30491.843
32456.421
24548.905
23576.305
25989.359
16687.878
14892.757
17221.753
8882.8772
7052.3048
8745.8515
3431.2258
2172.6293
3156.6818
1315.572
870.77881
1637.8407
2089.6948
1775.0004
2870.2257
3240.1795
2412.2896
4162.8863
3337.5127
1857.1544
3351.0951
808.04593
-1480.1232
-875.08869
-309.45738
-1025.0961
-1163.0701
486.89747
734.59583
770.44049
479.55903
212.44969
413.74492
-1923.3812
-807.79704
-1174.2831
145200.04
127302.37
136207.17
131355.24
124467.54
131444.79
111559.97
101317.13
111389.11
88045.39
79650.072
88352.495
72653.933
69136.902
70507.296
53482.7
46089.813
54938.196
34986.587
32601.131
36187.684
17082.601
15373.043
18557.833
-208.85094
-411.50944
1626.471
-12647.264
-11212.366
-10253.123
-19375.143
-18512.349
-19438.454
-21504.646
-19882.515
-21997.537
-18893.542
-16792.291
-19883.57
-13564.736
-10881.749
-14375.595
-7194.0828
-4266.1286
-7305.4823
-1495.0047
1016.3381
-1225.5761
2041.6112
3715.9451
2119.7996
2948.1574
3868.1778
2273.5645
2045.9096
2542.7739
651.89515
977.32591
1510.4646
-813.45368
772.73976
2120.7318
37.712391
2323.0048
3452.3206
2640.8499
1084.201
1238.7101
1640.1757
76199.594
74046.304
54642.385
55612.186
40525.65
33104.356
22463.121
12980.602
6859.9412
695.26848
-2124.1937
-2333.4318
-2421.5564
-1431.0977
-659.54491
-393.69861
-590.83562
-953.17225
-991.37495
-495.11096
229.63205
-181.82582
444.74435
-2209.3602
19252.975
4474.5464
20285.679
15348.641
14452.363
13058.688
9915.1436
6363.2456
4541.5058
3016.724
2541.4983
1817.2131
1765.77
1713.5379
2221.4052
3016.0206
3490.2059
3431.534
2667.5585
2011.3769
2238.7653
-501.47467
-40642.443
-35708.942
-58742.983
-34109.81
-33183.741
-23290.885
-10189.973
-4473.7429
5391.5702
10786.333
14306.911
15514.927
15064.995
13739.478
12122.641
10501.368
8530.9284
6090.0185
3525.5418
1736.6902
1396.7022
2517.0895
1494.0157
103850.11
109771.04
97779.44
73178.725
83713.828
83781.643
53060.462
56033.188
61294.991
42270.651
53542.81
49264.62
35117.305
32960.331
40802.885
21123.987
27971.854
28801.331
15586.961
17079.568
20394.032
7656.3917
8228.2371
11519.92
1756.7179
3587.8529
5097.7414
-287.47359
-1189.4587
-149.70777
-3211.2345
-3882.3899
-4251.7334
-3521.4708
-4726.2583
-5119.8712
-2641.5526
-4354.2683
-5094.6888
-1089.9159
-3008.2981
-3550.8388
507.47355
-1132.3991
-1434.604
1527.1782
506.60846
394.22169
1615.2946
1332.8387
1338.926
1229.5381
1410.5486
1175.4741
609.4657
612.52909
386.35293
142.88747
265.09451
-292.17736
-141.34105
-617.95748
-245.0203
-266.90851
135.61523
95.268417
-591.11971
-221.58915
326.89797
-10551.645
-16611.14
-5195.1973
132.78927
16130.934
8616.7882
10835.968
9247.2478
8546.7302
5433.5151
9510.1448
2807.956
6543.0315
13869.068
13047.521
7355.4274
15284.282
8775.8903
6969.9142
11826.156
10537.995
4502.8726
11916.405
11133.038
4939.9161
9249.5853
9273.479
4559.1946
7084.7336
7678.7921
5091.5992
5728.2315
6608.9183
5818.7545
5069.5288
5988.1358
6227.7369
4613.8092
5451.0046
6017.4135
4052.0262
4951.2291
5235.459
3346.4397
4089.7366
4230.3597
2658.0523
2982.3701
3366.9458
2364.2605
1950.7842
3093.8874
2605.9458
1483.1217
2813.4427
2635.5403
1516.6596
2410.1772
3243.07
2046.6275
2272.2612
2065.5767
2029.2589
348.54263
2088.2723
1958.0165
-1447.7541
-1467.0469
-844.19323
-72356.82
-82134.036
-88542.677
-50070.708
-41804.056
-58569.786
-41289.759
-69583.61
-61927.912
-46345.387
-36298.034
-38539.007
-25612.73
-30686.317
-30238.463
-20306.133
-21158.161
-23575.741
-12145.935
-10775.707
-10669.121
-955.81612
-814.87502
-3243.6389
6384.8461
7395.2927
4231.218
12962.365
13091.328
11188.83
16326.493
16881.432
15407.016
17731.365
18106.41
17282.13
17020.004
17297.092
17096.096
14800.331
15215.899
15308.457
11947.285
12564.989
12658.584
9189.8308
9865.2787
9820.8097
7174.5428
7536.4868
7292.3481
5981.0732
5635.1759
5361.4402
5230.052
4085.7557
4203.7603
4070.5172
3192.3142
3461.1399
2670.7455
2345.8886
2725.0432
1219.283
1735.0903
1729.7765
-339.37878
412.62742
-197.99059
)
;

boundaryField
{
    free
    {
        type            calculated;
    }
    fixed
    {
        type            calculated;
    }
    freeTop
    {
        type            calculated;
    }
}


// ************************************************************************* //
