/*--------------------------------*- C++ -*----------------------------------*\
  =========                 |
  \\      /  F ield         | OpenFOAM: The Open Source CFD Toolbox
   \\    /   O peration     | Website:  https://openfoam.org
    \\  /    A nd           | Version:  6
     \\/     M anipulation  |
\*---------------------------------------------------------------------------*/
FoamFile
{
    version     2.0;
    format      ascii;
    class       pointScalarField;
    location    "0.88";
    object      E;
}
// * * * * * * * * * * * * * * * * * * * * * * * * * * * * * * * * * * * * * //

dimensions      [1 -1 -2 0 0 0 0];

internalField   nonuniform List<scalar> 
28033
(
2029.8931
1667.0866
27011.559
11552.715
1872.6476
4375.6354
13785.446
26102.778
1232.7415
1021.5312
630.32315
511.92683
45.656147
108.21603
48.689491
148.22172
28.904549
-10.9575
-488.15716
-624.84134
-734.91569
-512.23578
-41.153026
23564.66
19725.05
19347.023
19535.289
20155.989
21148.135
21700.773
22922.341
23800.931
24380.903
24990.587
24799.529
24353.817
23682.027
21286.716
2461.5603
1578.6164
2030.934
2079.0127
2731.3719
2989.4568
3499.4656
3569.7744
4110.7574
4025.7429
4460.1645
4459.2291
4611.0083
4558.6699
4560.4212
4485.1871
4213.7795
4275.5823
3921.1121
3823.3672
3601.5824
3421.1352
3254.1668
3213.8941
2920.3365
3017.3465
2717.1601
2800.6924
2417.5436
2452.2333
2226.6996
1844.3864
1604.1216
1402.962
1173.7459
1203.6611
917.38514
1007.5093
809.03265
734.25687
556.14424
507.59313
332.42248
274.43055
204.97709
296.74567
347.72009
632.01543
810.49988
1178.3312
1415.9036
1734.3834
1940.3158
2150.6911
2304.4582
2462.4148
2612.1812
2791.9862
2980.0989
3194.2397
3376.79
3574.8476
3633.7931
3788.2089
3828.2431
3773.5367
3777.0554
3770.3892
3893.0135
4003.1131
4170.7691
4384.9088
4578.873
4816.8293
5035.3771
5242.9609
5445.1667
5695.4901
5920.5449
6181.5561
6618.0449
6937.8757
7567.446
7931.4675
8742.4625
9201.9007
10099.42
10650.686
11656.718
12232.013
13397.572
13901.352
15262.057
16004.08
21664.07
6308.8084
-1440.7198
4325.0809
1150.4089
3153.7616
3058.9428
2946.8985
3324.9658
3699.3739
3599.4392
4064.0566
3964.1362
4158.2796
4019.9942
3908.6248
3734.1162
3558.3392
3196.6103
3017.6691
2909.4243
2456.9458
2521.5201
2121.3273
2291.3977
1981.2126
2026.7273
1681.1226
1592.6016
1222.4232
1086.3027
584.66534
475.38469
190.53604
6.4296349
-172.66627
-267.60922
-267.81951
-427.77512
-386.06243
-267.62634
-205.47064
-1.891325
198.52173
506.26722
820.41193
1257.0774
1716.531
2277.0476
2888.3338
3555.2816
4270.843
4996.4283
5720.8999
6434.3887
7098.5494
7739.522
8354.0714
8960.3859
9591.1379
10278.073
11024.597
11868.707
12771.303
13759.023
14755.928
15751.915
16758.184
17687.974
18567.172
19346.102
20140.031
20744.795
21518.18
22021.711
22636.666
23142.849
23507.534
23951.813
24145.487
24368.796
24467.972
24500.737
24525.938
24488.322
24462.367
24398.092
24326.388
24214.583
24041.833
23840.968
23508.17
23134.444
22639.277
22176.581
19205.236
855.45359
774.44689
254.81284
541.44032
-33.417472
26.861265
44.685007
7.8589272
18.944531
-79.59413
-183.64599
-347.27941
-556.49102
-797.96028
307.62831
4785.0244
7594.1695
-4852.0618
4263.4914
1992.669
2015.8849
3789.7402
3168.2173
4366.0832
4177.0005
5104.1612
4085.523
5513.342
3856.8291
5130.4485
3664.4544
4641.1295
2684.6193
3973.0825
2512.9484
2827.4524
2986.036
3058.9989
2769.1142
2196.5467
2327.3436
2074.563
1508.9077
1879.0656
168.33614
292.63996
-151.93147
-257.04879
-294.02877
-395.35012
916.33258
-326.27694
630.53258
645.23301
797.08549
948.1263
1052.1726
1209.4875
1428.0739
1752.1331
2172.0724
2707.8592
3314.1943
3959.8805
4603.2444
5188.0876
5713.4846
6155.7946
6545.8368
6937.9521
7378.9071
7914.7147
8624.9614
9466.5915
10492.165
11603.918
12785.729
13947.659
15030.454
16002.975
16829.425
17581.166
17645.593
18677.418
19070.148
19448.604
19753.022
20103.338
20393.557
20607.178
20734.245
20763.682
20744.148
20614.835
20530.699
20401.022
20362.977
20298.673
20349.01
20324.737
20379.831
20297.373
20223.724
19975.005
19688.126
19241.554
18746.343
18188.529
17426.978
20552.89
23103.368
22111.204
23639.065
24361.569
25152.95
23978.719
24681.427
20852.205
22146.814
21665.143
20493.607
19229.263
19872.355
18893.879
21522.271
21274.602
21236.829
21838.093
20920.982
20317.458
19536.568
18785.896
18008.231
17206.497
16463.191
15692.929
15034.205
14400.524
13803.145
13206.532
12657.953
12125.311
11627.311
11121.787
10655.02
10179.212
9748.5036
9285.8542
8896.4518
8552.089
8048.552
8240.2801
6446.1305
7089.8778
6311.3932
5962.9849
5498.8934
5031.3577
4603.8469
4183.616
3805.2659
3455.4742
3142.1754
2853.058
2583.9932
2316.6981
2052.6804
1772.3494
1485.5087
1187.4329
892.24719
614.40649
356.0276
158.81063
-4.3015878
-112.2987
-136.01669
-173.26881
-93.941945
-98.470189
70.151003
131.59216
555.76668
-69.389541
469.5775
806.81841
609.17083
752.05812
1141.9869
1784.657
1930.4134
2056.5664
2338.614
2310.0205
2912.9373
3112.6322
3103.7606
2934.4437
3796.5981
3230.8165
3759.7027
3776.2016
4157.8507
4214.3247
4510.3715
4799.607
4296.9558
4979.8449
4295.7452
5122.669
3935.6484
4058.8532
3503.6652
3754.257
2725.6776
2329.5837
2632.1747
3049.5127
-197.98315
4272.1042
1105.4686
1486.3839
1191.605
1336.1661
1238.9867
1442.1599
1135.8061
1452.1976
1357.822
1522.0989
1203.6297
1181.9992
1192.0253
1076.1772
448.61851
306.48977
871.71231
-76.644751
717.31523
518.89411
-223.25822
438.30247
790.1797
54.880079
651.31476
461.5563
250.15805
180.17139
-84.543805
-420.4265
12563.903
12530.308
12535.818
12550.715
12408.549
12387.493
12369.52
12372.813
12413.909
12405.44
12402.701
12527.905
12597.205
12445.531
13316.1
27412.679
26990.558
27129.063
26822.147
27112.341
27055.567
27040.76
27016.347
27016.36
26992.303
27037.766
26966.452
26998.553
26921.663
26990.442
2581.3008
1135.7669
1504.9254
1784.5502
1939.5506
2396.3061
2418.3735
2860.5978
2714.9598
3138.1609
2682.7867
3011.59
2530.5147
2832.772
2299.3576
2594.3855
2348.1661
2332.0585
2189.8635
2112.2509
1951.2342
1649.7392
1500.5414
1059.0203
854.67679
518.11354
289.03471
78.554768
31.813129
8.7062896
-11.568053
209.48557
427.86037
622.45324
804.23835
779.21856
913.54684
885.59533
988.60362
950.33983
1069.2309
1010.5768
1135.9368
1252.4396
1265.6433
1362.1807
1357.3341
1381.1741
1322.1831
1311.3424
1272.5885
1341.4565
1480.1169
1782.1519
2220.2508
2816.9565
3525.7449
4317.0504
5119.4172
5901.5123
6593.7377
7210.8618
7705.6848
8146.3532
8423.4497
8702.0641
9246.7348
9900.2116
10266.694
10390.814
10700.589
10844.817
11008.346
11150.663
11342.466
11508.034
11842.332
12162.578
12699.952
13210.44
13987.376
14634.176
15568.069
16138.493
17047.481
17878.02
18585.546
19233.044
19906.568
20390.91
21080.631
21437.568
22216.041
22498.579
24881.951
1767.6803
575.60371
1338.9693
969.71762
1547.4402
1441.9199
1721.2394
1710.3306
1773.2654
1734.3801
1690.2895
1667.8085
1485.0334
1451.8645
1243.9217
1328.286
938.22245
1103.9345
865.23345
901.45221
664.37565
668.26224
453.46959
420.58291
229.31262
179.91851
31.659612
16.357912
-33.356077
-1.8812638
119.61084
215.87802
271.24413
395.3421
564.25978
737.6275
947.70028
1134.5988
1160.2078
1275.8653
1339.0069
1444.5278
1567.8189
1667.3022
1785.1273
1998.7041
2130.4063
2312.639
2465.9682
2621.9983
2773.1608
2961.7138
3181.0173
3473.2059
3827.337
4266.7848
4755.1936
5292.2952
5836.1704
6375.2883
6862.3015
7339.1886
7725.7945
8073.7902
8440.3571
8833.8543
9866.807
12492.302
13585.482
14196.414
14772.744
15148
15510.582
15857.676
16229.051
16604.77
17056.979
17459.969
18018.169
18414.52
19074.325
19404.081
20185.439
19123.572
17533.918
17784.027
18543.75
18966.151
19783.959
20140.322
20919.047
21207.112
22061.64
21944.936
23980.339
1357.1176
177.81496
902.42955
468.38846
750.09711
622.01459
680.75097
746.04366
605.25253
628.97413
375.50302
400.25542
54.611981
76.09118
-233.65518
-241.43388
-428.01416
-411.26707
-587.57316
-531.3896
-580.78682
-545.61461
-571.39973
-583.51136
-619.21815
-617.8194
-630.51113
-599.29185
-525.69463
-399.25344
-263.98299
-69.825601
225.09272
486.59164
754.29708
1015.4334
1148.6087
1297.9374
1578.8335
1708.7555
1932.6567
2075.1772
2227.9254
2549.8458
2816.6579
3063.4479
3288.6102
3514.4795
3701.9168
3865.8454
4060.6336
4259.6809
4535.0842
4866.1339
5292.1018
5779.4511
6326.7251
6901.7193
7473.3472
8015.3341
8518.9941
8975.1335
9333.3477
9746.9513
9972.2759
10712.388
8901.3556
11768.826
12574.852
13082.413
13473.558
13570.901
13772.09
14041.764
14407.395
14659.269
15044.399
15346.14
15780.976
16109.254
16625.349
16957.004
17510.672
18130.953
17237.317
17436.85
17903.965
18495.057
19125.613
19625.513
20391.002
20754.266
21639.243
21797.858
23348.39
740.49667
219.01489
398.09256
276.83338
260.79125
171.48736
177.17196
66.449419
-91.728735
-135.97543
-292.37742
-398.19927
-630.43293
-615.20136
-941.33314
-851.99841
-1153.5741
-1017.0994
-1197.9575
-1023.1136
-1166.8566
-967.06624
-1049.877
-853.45568
-861.72993
-702.06742
-670.24577
-492.10126
-421.79562
-198.59288
-9.6364096
294.35054
568.06771
884.44368
1236.6266
1542.0874
1885.5866
2327.3825
2301.441
2617.5228
2774.4704
3089.8661
3303.7749
3554.4491
3757.3375
4030.8472
4299.4474
4578.9298
4841.6152
5119.1486
5398.0809
5687.7141
6010.5543
6358.3321
6745.898
7162.6263
7610.7002
8070.2404
8532.36
8997.3717
9436.0709
9851.1732
10238.064
10642.67
10907.882
11113.402
12270.074
10600.157
10467.509
10494.415
11083.733
11352.739
11227.429
11158.746
11368.799
11578.462
11876.684
12129.883
12546.129
12873.475
13408.876
13771.823
14476.835
14797.292
16728.526
17570.475
18443.777
18828.072
19651.652
20041.699
20893.548
21136.472
22229.559
21963.816
23116.8
639.78461
-147.30813
264.10688
-177.54946
53.246689
-198.83673
-96.499135
-277.99105
-294.9549
-384.83753
-563.10004
-654.4446
-822.78745
-925.81201
-1123.2921
-1133.7427
-1303.7985
-1226.9168
-1345.9656
-1170.6041
-1186.8999
-932.97277
-925.30101
-656.19045
-663.61951
-442.3379
-389.76022
-215.85766
-63.095833
204.74368
441.08944
786.67646
1120.1751
1504.1034
1856.6412
2228.0026
2698.2726
2771.3897
2651.5513
2821.5859
3256.0493
3504.8542
3836.6995
4236.849
4615.375
4994.3304
5351.3068
5679.6754
6014.0415
6337.5379
6685.9014
7042.8325
7460.9758
7893.4445
8385.6242
8890.8527
9429.1189
9958.3301
10487.996
11003.402
11474.617
11933.42
12380.206
12733.286
13130.738
13496.675
13647.698
14322.184
14400.929
14528.273
15060.156
14820.59
14829.966
14094.385
13824.485
13856.51
14029.149
14295.873
14572.284
14913.599
15257.22
15690.173
16092.768
16603.922
16976.176
17596.907
18065.329
18632.111
19190.219
19743.585
20404.202
20959.082
21871.808
21850.911
22665.194
386.48881
8.9751406
241.15331
53.099993
67.798887
-27.700116
-99.298978
-150.52224
-230.89907
-297.48894
-382.33641
-436.64626
-606.65278
-636.9935
-828.44685
-844.53796
-977.9973
-904.18396
-965.74538
-741.31981
-784.59977
-478.37211
-485.23768
-189.77545
-192.3236
118.2353
101.66205
416.31965
505.26479
793.87223
1012.3477
1359.1699
1681.127
2058.9864
2409.5716
2769.5101
3079.0517
4048.8261
3724.6538
4286.1632
4453.0091
4794.8633
5008.7845
5347.1351
5584.4707
5844.1806
6063.2778
6299.4109
6513.8392
6741.4474
6968.1523
7220.8065
7483.1778
7768.9071
8065.3782
8370.221
8670.7712
8960.0738
9238.035
9481.3249
9702.5334
9923.3507
10059.375
10223.837
10364.756
10439.278
10565.999
10551.561
10728.623
10727.056
10887.015
10745.857
10399.911
11944.257
12101.673
12044.543
12261.723
12485.68
12862.89
13122.812
13653.546
13928.211
14621.052
14922.026
15760.701
16142.542
17102.017
17594.389
18618.824
19129.746
20233.633
20655.834
21885.32
21826.3
22322.539
241.56617
-164.99124
252.66185
-124.57657
100.04291
-101.43153
24.836997
-93.659682
-30.162623
-151.15858
-147.9425
-328.83387
-381.74652
-548.46823
-658.92678
-740.32038
-796.88231
-781.53645
-760.05148
-586.03826
-547.99222
-242.45966
-264.27641
47.830735
38.37176
259.08812
280.71823
529.19768
610.92098
954.31916
1189.3454
1590.8427
1931.2023
2306.9741
2669.4586
2996.0118
3286.072
3458.5697
3916.098
4269.94
4406.6155
4726.3574
4946.5263
5236.1024
5498.9602
5767.6578
6043.5631
6271.5544
6502.3079
6698.4743
6908.9093
7102.8513
7327.3444
7558.4797
7824.22
8096.2952
8395.4814
8687.7604
8977.1691
9240.8502
9498.1234
9698.5994
9880.6327
10068.856
10164.304
10331.781
10401.613
10564.161
10631.117
10768.797
10836.875
11093.504
10982.291
12169.3
12811.675
12963.371
13163.45
13413.932
13693.737
14039.578
14399.359
14836.558
15305.335
15811.782
16398.197
16928.399
17589.213
18158.316
18864.742
19418.775
20189.122
20707.555
21814.774
21626.82
22153.797
254.3882
84.911386
342.32559
209.79143
257.82426
193.84496
192.46162
120.21888
170.39159
60.452163
66.256242
-32.058771
-96.327054
-240.51222
-280.01363
-410.45353
-401.81875
-412.43092
-354.97025
-222.08563
-213.91207
-3.5519684
5.287645
309.47624
190.60299
524.2305
475.81372
769.87983
869.36831
1189.6992
1399.7163
1761.2892
2032.1972
2414.1268
2732.467
3019.8648
3340.9496
3609.6781
3902.1582
4163.1697
4382.3874
4690.5695
4952.7305
5236.179
5476.582
5761.8679
5987.5073
6241.4639
6461.5405
6701.6089
6919.3575
7162.2854
7399.4085
7656.3839
7913.2953
8179.5604
8444.4499
8696.5116
8941.1166
9170.8933
9377.8451
9563.999
9747.8718
9889.7074
10036.95
10148.653
10276.015
10371.388
10461.876
10566.66
10631.978
10746.313
10919.001
10912
11017.309
11246.716
11458.952
11764.203
12119.824
12444.043
12936.092
13315.239
13939.698
14372.699
15141.073
15658.467
16554.019
17135.233
18106.829
18740.523
19791.368
20401.526
21538.78
21441.884
22029.26
61.252745
-279.37159
139.32339
-225.80808
-25.5682
-210.58584
-40.113005
-182.95663
-22.102622
-259.97032
-194.22267
-467.47261
-559.85952
-824.91449
-896.84066
-1111.6233
-1048.7996
-1137.8043
-977.9295
-894.17963
-733.20567
-475.01494
-399.32535
-267.27641
-243.11817
-22.525026
-55.972052
249.56197
331.69831
700.60073
946.84115
1342.5584
1697.759
2083.0429
2357.2538
2755.6731
2969.7325
3285.4799
3474.9913
3730.3964
3960.9343
4206.3668
4484.0818
4728.5773
5043.1574
5310.9993
5597.6388
5849.3265
6108.045
6330.9604
6567.0366
6783.9683
7016.0924
7251.1964
7500.9737
7763.4111
8035.0703
8304.621
8583.5338
8839.3923
9081.1869
9313.7233
9509.4696
9701.1435
9857.2387
10046.447
10170.089
10345.817
10495.614
10683.079
10850.25
11084.244
11267.678
11586.853
11694.311
11448.673
11872.892
12133.746
12465.911
12860.727
13258.22
13748.977
14241.44
14827.349
15436.141
16069.529
16755.996
17441.342
18147.866
18850.982
19548.043
20170.376
21096.543
20908.236
22206.461
394.65483
-56.601355
380.40769
36.505403
210.12602
55.911503
129.09829
-16.400834
22.860783
-85.925336
-131.73249
-269.5503
-325.61573
-502.90722
-491.9799
-668.47234
-566.16176
-670.62413
-514.89694
-513.50438
-395.94697
-400.94564
-493.7023
-301.75071
-304.45028
-120.1105
-50.083951
218.15017
371.54355
703.10068
915.51572
1291.0127
1550.3539
1841.1341
2215.9496
2431.2133
2758.1479
2992.7114
3257.316
3541.5436
3780.9109
4061.8179
4295.0485
4567.314
4777.7604
5024.9297
5225.3817
5454.942
5650.9195
5869.1986
6072.2486
6288.2825
6507.1007
6734.4191
6965.0304
7206.9442
7443.3335
7687.091
7933.8093
8157.9433
8402.3439
8621.3154
8826.0486
9032.4486
9222.3063
9384.0535
9546.7599
9698.6807
9824.3755
9970.2609
10095.92
10256.055
10472.857
10841.554
8594.0735
6264.5499
6826.2808
7003.4994
7339.5255
7689.3519
8157.1527
8643.2425
9282.4019
9898.3519
10699.183
11432.367
12393.025
13217.66
14303.928
15222.694
16392.511
17438.467
18703.263
19224.569
22486.006
294.70633
-446.93899
-85.068585
-551.69848
-267.70747
-518.85975
-347.61855
-529.34354
-396.54077
-648.12871
-657.12049
-903.67435
-927.62046
-1161.2248
-1041.9398
-1277.9657
-927.46704
-1146.8364
-732.43939
-885.56629
-479.1056
-659.21348
-649.58979
-710.11665
-765.27659
-658.87952
-597.27201
-397.74893
-272.9932
-17.448746
227.80176
550.02799
789.33588
1223.8125
1403.49
1766.5302
1998.4872
2277.1701
2523.7972
2736.6135
2981.5446
3173.6945
3430.588
3636.8793
3895.0413
4118.8704
4366.7879
4570.9528
4791.9864
4973.3688
5156.2683
5318.5266
5486.8823
5650.5538
5834.4494
6036.6108
6259.806
6521.4521
6791.4928
7090.6429
7403.3636
7704.0475
8006.8625
8318.6153
8574.1767
8872.0195
9110.3487
9381.7979
9632.5468
9905.0262
10149.035
10448.624
10730.08
11593.809
13423.236
8659.2786
9460.6063
9835.3023
10161.517
10579.381
11064.035
11617.957
12244.196
12934.707
13687.974
14499.821
15332.994
16224.46
17090.627
18027.104
18915.836
19774.622
20779.764
21272.523
24391.1
592.82663
-473.46717
-52.559481
-189.24201
71.50803
-1.6173305
182.20924
61.043932
123.03062
58.348507
-15.253403
-119.77867
-108.57352
-264.89815
-264.718
-285.42367
-285.5186
-294.21946
-222.98791
-221.61309
-166.53682
-45.68933
149.98893
206.24183
71.962387
73.681201
219.8118
396.19207
611.23877
880.87793
1138.9948
1386.465
1701.3265
1905.6288
2202.5282
2439.6095
2647.841
2853.2244
2988.0497
3172.883
3270.483
3439.0915
3531.2167
3691.2256
3800.4191
3968.576
4121.5207
4312.9554
4514.8468
4733.8159
4966.3084
5209.0294
5463.257
5721.365
5994.8261
6274.083
6571.3651
6876.037
7194.7185
7523.1863
7844.443
8163.5213
8458.376
8733.7021
8958.2689
9191.9571
9349.3575
9529.6216
9657.0978
9815.741
9970.2203
10112.746
10375.192
10511.959
10915.364
12239.549
12855.532
13217.547
13563.064
13968.783
14435.248
14895.586
15418.199
15953.257
16525.295
17072.804
17669.503
18193.816
18750.073
19309.702
19763.565
20380.085
21059.844
21413.174
24816.779
756.31574
-367.82027
123.9323
-71.085851
10.451844
-43.521674
120.22435
-20.302377
137.65699
-36.141286
-30.700323
-124.66933
-272.63934
-357.82114
-422.42381
-535.76938
-516.33263
-577.55155
-486.12798
-517.02255
-389.51813
-506.74026
-131.31317
159.56485
232.19495
176.64382
276.06583
270.57487
353.46855
433.28619
505.38221
694.38458
758.93273
1016.1251
1114.8152
1297.7059
1466.7822
1604.3139
1792.7102
1903.0001
2092.1855
2212.9033
2396.7913
2548.5497
2734.881
2896.896
3076.0737
3209.9494
3346.4673
3436.3214
3512.4428
3564.2691
3616.1892
3678.6873
3779.9194
3940.5872
4165.6202
4479.4155
4864.3468
5318.3657
5810.3845
6336.3283
6828.8608
7335.6813
7728.6375
8159.5684
8418.6673
8775.6837
8997.4104
9255.3544
9405.3337
9707.5447
9753.0986
10072.09
10219.233
10564.23
10649.389
10926.746
11201.41
11624.798
12068.635
12651.597
13276.794
14015.996
14747.485
15569.11
16342.291
17150.791
17920.74
18663.62
19379.171
20091.425
20737.407
21377.968
24801.661
1397.1366
-452.77889
425.87976
104.41871
762.89389
819.05394
1111.0695
1295.9742
1502.3989
1594.495
1749.8466
1711.0856
1846.1414
1793.5304
1844.5374
1789.8446
1860.2579
1774.1245
1926.6611
1842.3085
1989.2266
1942.2248
1877.0316
1878.6724
1903.9995
1908.0076
1929.8261
1892.3763
1926.9516
1846.558
1911.5481
1877.9306
1935.767
2029.9206
2042.6937
2136.0848
2181.5269
2257.7945
2254.2349
2322.4868
2291.463
2333.2311
2314.8231
2363.6556
2397.4999
2490.7532
2600.176
2737.4549
2895.6445
3047.9836
3196.7718
3326.5683
3449.7098
3561.9719
3699.3475
3865.7357
4088.1017
4377.4702
4731.9062
5142.6702
5583.331
6038.9112
6460.2732
6855.9692
7162.0333
7474.0562
7627.9461
7876.0365
7965.7692
8113.9391
8313.3691
8429.773
8665.4632
8842.0338
9055.5943
9279.168
9564.4626
9833.3014
10183.273
10598.602
11083.439
11664.392
12333.072
13053.857
13850.619
14650.798
15489.89
16288.608
17095.141
17855.926
18590.121
19339.747
20039.59
21067.145
24805.67
2569.6066
-910.10247
978.84281
513.03234
1422.2635
1343.3351
1932.4558
2003.3426
2180.1207
2247.0387
2144.5259
2230.7661
2182.224
2215.6277
2357.3646
2330.2865
2583.7955
2464.903
2648.8556
2375.4561
2457.6582
1920.2694
1902.9136
1308.522
1241.7736
944.12212
941.22632
939.8842
1137.2459
1426.687
1679.0188
2011.1397
2271.7768
2529.3574
2560.6404
2725.6445
2695.1501
2676.0689
2635.9703
2516.6623
2463.713
2364.1563
2308.0447
2228.2701
2155.6206
2056.1229
1952.3187
1838.5548
1753.3032
1721.0174
1775.3433
1965.61
2300.1296
2793.6575
3432.8367
4183.5275
4981.6312
5793.2678
6534.6716
7180.6666
7690.9707
8080.059
8329.7163
8502.8742
8606.9567
8706.4823
8715.7948
8935.7924
8853.4443
9172.0565
9140.801
9461.9097
9516.9606
9878.8532
10109.576
10612.266
11110.813
11787.629
12605.083
13521.004
14482.056
15537.77
16519.385
17548.607
18446.222
19357.607
20137.318
20925.681
21646.576
22345.248
23089.205
23798.613
24505.09
25576.586
26641.666
301.48429
404.6993
132.64219
-48.317173
16.921905
-34.014721
23.252798
6.7832908
11.020929
197.60672
30.87245
64.979334
297.28809
218.41514
-16.909642
732.49848
618.77515
421.26009
482.88288
375.46588
362.3728
356.74187
308.72896
430.13065
338.6048
360.36826
443.50216
400.38675
555.63829
368.93277
397.9083
112.77291
-74.75448
-65.107167
-151.74062
-166.35496
-135.37728
-196.56879
-174.41268
-158.69213
-108.43187
-168.07038
-118.43343
70.10591
-78.830857
207.29285
247.57509
163.41068
75.442328
97.292313
60.974319
68.316353
45.191321
101.68577
78.176649
118.943
103.13889
187.55176
330.63819
-120.8288
4.6135049
10.600627
-131.87818
-137.22108
-191.02571
-183.97148
-200.59457
-190.61982
-215.90424
-209.17315
-201.13845
-175.21161
-141.30921
-144.28792
-36.86227
138.47634
86.348812
39.891589
54.012327
29.72904
30.112551
5.2405075
16.255614
13.922827
16.962065
34.612529
4.6093861
20.70438
32.421087
-26.569052
-9.4387517
-28.867228
-63.36678
-102.66048
-97.585382
-120.86308
-119.33475
-136.69952
-134.65355
-122.25268
-126.72618
-84.050523
-77.14993
-27.231202
-59.264786
136.01335
139.08228
97.86522
109.59604
85.146207
84.067477
72.562311
69.562554
76.408847
52.601896
65.368745
50.755441
35.700773
13.468888
-24.945951
-55.908208
-40.327978
-111.62791
-101.31533
-125.23751
-133.70663
-139.07968
-124.66163
-141.6012
-95.848695
-116.72596
-60.241368
-86.777946
-9.4025932
-82.152145
187.84189
156.33525
111.28219
143.41249
100.65445
107.42243
105.73341
96.140165
94.488289
55.694759
95.164412
43.218793
8.2753749
0.95524173
-115.4845
-402.18528
-342.64954
-400.15646
-399.92138
-420.69383
-364.53637
-419.48885
-364.61493
-407.99999
-294.43636
-354.34622
-349.32043
-336.74313
-281.19287
-410.15914
-492.03663
-375.927
-369.14904
-437.33065
-395.19388
-499.453
-459.67676
-497.5545
-474.81642
-478.69679
-476.9679
-371.94026
-509.969
-474.7816
-566.65204
-1059.1336
-567.84105
-987.7192
-843.03286
-974.17889
-917.52532
-1040.7484
-919.28034
-907.6455
-858.38333
-840.65627
-906.47227
-935.66807
-759.63869
-818.4782
-632.52166
-725.00402
-819.765
-922.67192
-1037.2865
-1099.3152
-972.81131
-915.48279
-958.17392
-1119.994
-1054.4514
-1143.3068
-1174.3544
-1058.3205
-1262.6463
-961.24794
-923.63205
-1407.758
-1438.7089
-1579.9543
-1542.7325
-1483.3009
-1314.5746
-1543.5363
-1466.328
-1605.7642
-1527.46
-1378.7229
-937.94244
-1232.9012
3280.3719
6226.1168
3906.0125
5079.3323
5616.3064
4709.3345
5346.481
6221.7494
4771.6714
5340.5314
5273.3469
5182.6287
5010.8421
5494.9405
3357.6198
5772.2868
2502.8516
3927.6164
4190.7754
3288.7959
4917.7311
4499.9486
4422.0691
4899.4654
3489.1994
3865.6398
2989.5455
3421.4115
4313.691
4588.6482
1662.6891
1505.7543
808.91082
1139.1769
2725.3412
782.21809
731.68102
752.44026
-591.70258
1508.8968
710.68831
2679.2602
1515.3113
316.49945
1721.6817
1206.9824
2265.1332
1989.9662
604.26302
680.00863
995.14199
607.58273
1068.828
1186.4631
356.99284
1071.0895
689.32411
1396.5005
1932.9361
1428.7897
3652.8274
2989.3993
1900.1129
3316.9364
2443.9966
2636.8667
2988.9827
2670.8634
2881.9886
3918.6393
2714.7183
3305.4681
2324.19
2658.1845
3664.8526
1328.0663
2153.1257
2151.8638
1877.6891
1913.0481
1918.6271
1614.4074
1597.9061
1706.2552
1117.485
1877.0797
1557.741
1855.5664
2404.3639
1802.6708
2847.8993
3403.1798
3158.0967
3056.2841
2972.1365
3135.9448
3286.6781
3173.3477
3317.3808
3414.711
3002.4169
3298.1678
3041.7893
2910.3339
3705.5768
3005.2234
2802.796
2968.7065
3128.6548
3322.7242
3036.5069
3068.1118
3196.739
2940.0136
3237.2825
3213.6637
3182.0157
3177.6523
2809.3198
3442.6257
3369.5425
3960.0089
3915.6552
4200.0761
3792.64
4059.2296
3982.0083
4091.8754
4079.1291
4005.2894
3949.7293
3786.8036
3855.6127
3842.5634
3898.0763
4093.5241
3727.4999
3936.61
3811.9036
3940.1088
3770.478
3839.6207
3736.3949
3618.5573
4035.6351
3562.364
4188.8095
3686.3088
3842.2579
4527.1767
4233.3513
4516.7809
4530.7804
4756.287
4651.4313
4866.9253
4768.5866
4881.4925
4992.5789
4616.3931
5169.5384
4682.7454
4885.4276
4857.419
4956.5792
4879.5843
4443.3511
4598.8496
4480.6867
4476.923
4363.9529
4330.5577
4261.4867
4125.0968
4273.3286
4036.0506
4259.5076
4102.4007
4034.9416
4962.5257
4871.5228
4730.9766
4471.2172
4861.9701
4777.6325
4897.5055
4924.0038
4911.8822
5132.131
4996.615
5195.5929
5032.3836
5083.8211
5144.3576
5342.4892
4705.3815
4507.1224
4811.0912
4463.8104
4506.4919
4520.5701
4338.3306
4352.7201
4131.2241
4131.0481
3960.8566
4114.6147
3977.2148
3791.4871
4881.8095
4653.783
4206.5986
4276.0038
4602.0359
4632.465
4473.8658
4587.2446
4369.0338
4719.198
4638.5545
4911.2491
4736.1484
4742.9364
4835.1077
5150.4393
4077.4856
4043.1299
4213.5007
4206.7953
3937.7433
4254.47
4063.0263
3989.8736
3705.39
3734.9098
3452.1697
3582.2475
3531.832
3470.4775
4254.8548
3794.533
3458.9874
3505.5137
3505.1465
3927.0033
3697.9038
3910.6244
3679.4248
4018.3175
3853.4359
4137.5358
4042.7544
3935.0938
3596.6085
4620.1772
3453.1314
3419.7814
3457.3648
3542.8552
3262.3607
3442.3106
3208.9318
3438.7878
3192.6432
3254.7023
3041.0787
2895.2028
2827.0401
2849.4857
3096.5138
3162.2675
2991.2574
3299.2575
3137.2738
3364.0287
3090.5792
3433.458
3031.2944
3297.3093
3163.7319
3041.6557
3172.2994
3357.8233
3109.3441
4091.7194
2935.8401
2844.8009
2694.7928
2884.8592
2799.4724
2966.2673
2930.501
2860.9243
2822.4946
2722.725
2941.595
2827.3888
2488.0897
2564.9954
2954.8828
3017.4301
2793.8236
2981.1651
2778.8042
2853.6301
2592.2836
2902.1505
2717.7115
2871.251
2585.563
2792.64
2637.7211
3288.9224
2607.2408
3583.9622
2843.3598
2821.1986
2628.0934
2810.4699
2611.8423
2828.5398
2549.6353
2738.6754
2355.2288
2970.7917
2596.5963
2803.4426
2289.3002
2060.239
3703.2245
3209.6498
2608.5075
2833.1151
2541.8053
2705.3095
2673.9882
2654.9331
2389.5391
2699.6755
2524.8799
2274.3796
2358.1588
2424.1282
2398.6351
3961.0401
3004.9556
2851.0791
2580.1957
2693.1051
2530.6869
2357.2409
2402.4053
2287.2319
2314.3488
2159.8456
2328.9063
2513.272
2598.2089
2115.5457
4408.7339
3347.8169
2546.2329
2489.6456
2201.7751
2424.6608
2143.1695
2448.1996
2175.9987
2324.6621
2185.315
2503.0786
2419.8376
2242.9927
2182.6194
4177.6563
3006.7517
2335.9922
2378.545
2244.1346
2259.4746
2249.0333
2026.1932
1997.6029
1960.1672
1946.1051
1901.6415
2029.1621
2482.8029
2257.5176
3677.6363
2808.2531
2046.7753
2219.4901
1872.4287
2083.7071
1699.4058
1863.1265
1695.2323
1825.3393
1704.4476
1936.3392
1403.0633
1823.7559
1318.5689
3855.6009
2363.0682
1728.6787
1506.0013
1711.6985
1339.8421
1354.5826
1390.3749
1244.2466
1400.4863
1266.6124
1421.7447
1631.6968
1482.9759
1524.0467
2646.9062
1962.6804
1352.9932
1152.9305
977.6825
1062.6819
995.69065
1024.8399
889.35311
902.61012
913.00584
927.58149
1108.3395
991.09108
653.17694
2863.8952
1177.6698
718.35088
823.92868
717.28885
708.72331
736.88529
524.89248
510.37154
356.3582
357.21084
332.11568
280.08981
767.74349
230.69756
1270.6534
1059.7501
687.04769
690.82049
405.66445
552.36671
-81.206755
316.49445
10.195107
547.92949
99.159268
110.49888
65.570391
-51.810494
-102.98213
780.92195
540.62968
147.97729
92.099698
9.361338
-58.879971
-8.6919449
-54.218159
-98.258404
-239.77997
-305.6027
-219.95119
-270.33529
-236.20275
-311.81487
257.91777
101.95949
-154.38332
-84.653081
-235.65649
-107.88295
-340.31193
-190.8965
-466.28768
-287.24235
-457.03683
-333.37599
-453.20589
-417.47605
-444.89243
-288.41335
-186.78724
-280.97603
-258.49865
-264.74334
-300.153
-407.22405
-367.4485
-455.99707
-400.56844
-507.32923
-456.4959
-515.32408
-491.90665
-597.20705
-512.52365
-274.87102
-365.30224
-296.2221
-102.68387
-318.26893
-417.19538
-322.03972
-434.18193
-400.16623
-453.48368
-386.53548
-429.59378
-403.83406
-405.44248
-352.80076
-266.45133
-300.67807
-181.2678
-533.6638
-223.72742
-338.72019
-294.19189
-400.32332
-233.91131
-702.82284
-265.71455
-426.56085
-307.12445
-382.42228
-270.28702
-519.59125
-222.52746
-70.010333
-102.55316
-90.968429
-253.21395
-122.66507
-312.80886
-230.49623
-14.60692
-253.09729
-224.51322
-349.90491
-255.15275
-316.08755
-152.57304
138.90408
54.456265
65.669887
-20.156959
-26.144158
-81.684615
-139.97041
-49.437175
-324.22332
-122.57131
-234.88251
-60.284896
-81.879233
-319.88133
55.283227
116.95577
176.3392
72.140236
187.12388
-13.009871
103.65957
-36.238463
-10.601787
-27.601018
-29.67537
22.180413
-13.885614
-63.216269
5.0598959
107.62124
330.39514
249.14177
298.21788
206.29032
146.82978
154.16545
21.525947
124.57512
-36.876959
112.21842
3.7210834
31.090097
104.72267
60.220195
323.35248
460.21871
425.19818
344.77202
375.01245
237.955
269.31591
179.41918
181.39787
139.0733
149.28636
127.89416
155.01144
134.36239
220.38144
439.07921
637.67073
459.91745
494.61884
443.72231
330.50391
374.07253
219.4825
299.96028
175.53048
230.6991
233.60665
171.98764
238.09689
406.55352
663.08872
782.03617
658.25217
643.63731
607.77477
510.79485
513.11835
425.97742
438.68373
357.85102
399.80421
372.12114
327.45973
392.18695
661.51968
872.63355
1044.3938
839.37514
852.52829
808.95637
691.2233
732.95175
610.37054
641.64328
573.44255
572.38355
605.86484
531.82674
601.17792
1052.4694
1256.1805
1352.3484
1159.5661
1188.7634
1121.3626
1035.1784
1053.5863
957.0096
981.00119
904.82177
922.07813
955.55144
875.56025
939.35201
1613.1394
1716.4658
1787.9755
1581.0703
1599.9452
1531.7142
1433.9163
1463.8859
1371.9248
1376.71
1342.9027
1330.3161
1393.5081
1333.0533
1367.1011
2333.4117
2340.3597
2331.6917
2108.856
2149.2312
2068.9638
1981.8263
2004.4524
1910.0462
1929.2747
1887.5584
1874.0004
1962.536
1917.5436
1904.6806
3199.0705
3081.9339
2963.8061
2748.8768
2780.3993
2666.8854
2559.7186
2571.5904
2504.4272
2499.9278
2483.6584
2472.6542
2578.5246
2567.8695
2508.9015
4157.8214
3891.8313
3661.6381
3428.9982
3449.3793
3325.4207
3230.4219
3256.3697
3175.8753
3166.2756
3157.9498
3136.6671
3248.6719
3271.5588
3152.0195
5113.7918
4749.2193
4373.3545
4129.9592
4152.7658
4002.915
3883.021
3865.2876
3792.972
3774.4806
3779.1445
3762.3856
3884.0939
3945.3865
3773.7508
6003.8185
5540.7699
5040.4662
4795.1206