/*--------------------------------*- C++ -*----------------------------------*\
  =========                 |
  \\      /  F ield         | OpenFOAM: The Open Source CFD Toolbox
   \\    /   O peration     | Website:  https://openfoam.org
    \\  /    A nd           | Version:  6
     \\/     M anipulation  |
\*---------------------------------------------------------------------------*/
FoamFile
{
    version     2.0;
    format      ascii;
    class       pointVectorField;
    location    "0.88";
    object      lm;
}
// * * * * * * * * * * * * * * * * * * * * * * * * * * * * * * * * * * * * * //

dimensions      [1 -2 -1 0 0 0 0];

internalField   nonuniform List<vector> 
28033
(
(-1.780536e-14 4.8656612e-16 1.3104288e-15)
(-5.4375576e-15 3.3318594e-15 9.9433006e-16)
(-7193.9771 -398.22272 65.171214)
(-7141.8289 1113.4628 11.362879)
(-1.338461e-14 3.0090723e-15 -2.870051e-16)
(-1.2587315e-14 4.9008913e-15 -4.4266115e-15)
(-7124.3902 1145.6236 41.508018)
(-7168.6234 -383.99201 34.106654)
(-5.6329745e-15 1.0535579e-15 6.7193838e-16)
(-2.4534443e-15 3.0423504e-16 5.8836893e-16)
(-5.4923298e-15 2.4302826e-15 8.9528572e-16)
(-2.6209443e-15 -1.1537891e-15 -6.7979696e-16)
(-7.2548563e-15 1.5542294e-15 1.0013199e-15)
(-4.7613589e-15 -9.2108094e-16 -7.3952737e-16)
(-1.132389e-15 -2.2256662e-17 -6.4484848e-16)
(-7.4239857e-16 -2.4218299e-16 -3.6669977e-16)
(-1.1196198e-15 4.5550132e-16 8.383863e-16)
(-2.3465882e-16 2.2667819e-16 1.4996246e-15)
(-4.0583243e-15 -8.7236639e-16 -1.3429605e-15)
(-5.8237189e-15 8.4462789e-16 7.5519031e-16)
(-5.1611762e-15 1.0100276e-15 9.7613867e-16)
(-1.7679952e-15 -8.1010255e-16 4.5192313e-16)
(-4.4158752e-15 1.0299569e-15 -9.452958e-16)
(-7179.4251 -296.32687 65.109969)
(-7132.818 -194.60921 65.465688)
(-7091.7368 -96.130368 65.147931)
(-7061.5888 -1.4208001 63.254815)
(-7047.1427 90.320449 61.043851)
(-7048.8338 179.7539 56.982965)
(-7066.0145 268.16678 52.542691)
(-7094.4077 356.627 47.349259)
(-7128.79 445.97212 41.417683)
(-7162.3967 537.002 35.585923)
(-7189.5076 629.88758 30.018085)
(-7205.153 724.73852 24.872627)
(-7206.0014 820.85361 20.961486)
(-7191.9812 917.80153 17.376293)
(-7168.0435 1015.2105 14.67456)
(-3.8207246 -22.440047 -27.669165)
(5.9443956 -33.924849 -43.167695)
(11.605752 -47.902586 -57.785069)
(14.010037 -64.294181 -69.32478)
(12.685505 -80.750537 -78.75604)
(6.3184891 -99.261249 -86.354389)
(-4.9731155 -118.13758 -91.824754)
(-21.308919 -137.90084 -95.430308)
(-42.910512 -158.71127 -97.190434)
(-69.802258 -180.21273 -97.255895)
(-101.91369 -202.66579 -95.577426)
(-139.48061 -225.77329 -92.35568)
(-182.27125 -249.5887 -88.16135)
(-230.44702 -273.88752 -82.671572)
(-283.47837 -298.49861 -76.677151)
(-341.78394 -323.03342 -69.810363)
(-404.61418 -347.28453 -63.117041)
(-472.11018 -370.83938 -56.255)
(-543.86748 -393.44309 -49.48203)
(-619.46978 -414.59622 -43.114498)
(-698.68792 -434.18934 -37.371579)
(-780.98448 -451.41317 -31.943355)
(-866.18679 -466.62056 -27.384176)
(-953.78229 -478.98652 -23.172296)
(-1043.2818 -488.52507 -19.532984)
(-1134.3614 -495.3845 -16.414391)
(-1226.6335 -499.10381 -13.455794)
(-1319.8679 -499.93403 -10.594348)
(-1413.4697 -497.87606 -7.7875689)
(-1507.4359 -493.43501 -4.6355369)
(-1600.9448 -486.18663 -1.3643171)
(-1694.2982 -477.12379 2.3034017)
(-1786.9403 -466.39585 6.4315079)
(-1878.6926 -454.43957 10.968736)
(-1969.3236 -441.66478 15.798362)
(-2058.7137 -428.55521 20.379852)
(-2146.5593 -415.3551 25.06581)
(-2232.8981 -402.91097 29.103392)
(-2317.7388 -391.34768 32.571211)
(-2401.1743 -381.02647 34.963498)
(-2483.1713 -372.26234 36.117375)
(-2564.1962 -365.2053 35.836074)
(-2644.3799 -359.99232 33.962295)
(-2724.2379 -356.62074 30.298927)
(-2804.2091 -354.94538 25.089351)
(-2884.8599 -354.82604 18.336189)
(-2966.7419 -355.9586 10.329982)
(-3050.4582 -358.0213 1.3868516)
(-3136.5643 -360.60362 -8.0619895)
(-3225.5916 -363.2878 -17.537576)
(-3317.9633 -365.63722 -26.509137)
(-3414.0195 -367.23296 -34.444343)
(-3513.9394 -367.70443 -40.825733)
(-3617.7536 -366.73236 -45.200025)
(-3725.3036 -364.0962 -47.208786)
(-3836.2351 -359.66533 -46.623528)
(-3950.0004 -353.43649 -43.370366)
(-4065.8597 -345.51316 -37.568759)
(-4182.8985 -336.13793 -29.4982)
(-4300.0767 -325.65294 -19.660709)
(-4416.2585 -314.50733 -8.6625052)
(-4530.2761 -303.2325 2.6909791)
(-4640.9748 -292.41246 13.582374)
(-4747.3854 -282.60191 23.233867)
(-4848.5556 -274.34965 30.532665)
(-4943.7987 -268.45346 35.267665)
(-5033.3223 -264.92085 36.549984)
(-5116.4018 -264.42055 34.335126)
(-5193.4357 -267.06544 27.847371)
(-5265.3303 -273.01265 17.86551)
(-5332.8981 -281.95602 4.8103928)
(-5396.9506 -293.72877 -11.082485)
(-5458.9959 -308.06086 -28.664156)
(-5520.2615 -324.49969 -47.152318)
(-5582.0883 -342.43645 -65.478762)
(-5645.6567 -361.29351 -82.645995)
(-5712.0207 -380.37822 -97.701756)
(-5781.9929 -399.11576 -109.78208)
(-5856.0614 -416.84494 -118.23412)
(-5934.465 -432.96562 -122.55235)
(-6017.1441 -447.08288 -122.55187)
(-6103.5918 -458.77102 -118.17275)
(-6193.0458 -467.66693 -109.65784)
(-6284.5443 -473.81778 -97.354667)
(-6377.3103 -477.06928 -82.23345)
(-6469.7105 -477.50393 -64.764057)
(-6560.2889 -475.34342 -46.06035)
(-6648.1013 -470.76909 -27.035284)
(-6731.6373 -464.30804 -8.365334)
(-6810.0628 -456.08764 8.5230217)
(-6882.5579 -446.90705 23.971175)
(-6948.8076 -436.43873 36.086828)
(-7008.4466 -426.56197 46.284614)
(-7062.4962 -415.72669 53.479729)
(-7120.0723 -406.0309 58.891258)
(-6.4381738 35.417033 44.981074)
(-18.287955 47.692252 40.988725)
(-17.657063 70.905423 57.122134)
(-18.001455 88.371126 58.52637)
(-24.678232 113.19352 63.651424)
(-31.66905 139.35325 66.249046)
(-42.415793 164.2313 69.485965)
(-56.170026 192.34563 72.289322)
(-74.233514 219.55403 75.750253)
(-95.312537 247.15804 79.373363)
(-121.23746 274.40272 83.14332)
(-151.24228 300.99818 86.799183)
(-186.50165 326.59043 89.705521)
(-226.5243 351.1371 92.17148)
(-271.97479 373.92546 93.075873)
(-322.95177 395.46401 92.762806)
(-379.34656 414.7752 90.371374)
(-441.43234 432.52413 85.991631)
(-508.8806 448.19268 79.465669)
(-581.49444 461.69481 70.609511)
(-659.13945 473.34206 59.626555)
(-741.30657 483.09309 46.580087)
(-827.34827 490.48806 31.823778)
(-917.22353 496.75726 15.483681)
(-1009.8226 500.64379 -1.7181149)
(-1104.6945 503.27292 -19.440479)
(-1201.0736 504.21773 -36.979731)
(-1298.295 503.91901 -54.039752)
(-1395.5974 502.2154 -69.762859)
(-1492.4837 499.52697 -83.823596)
(-1588.1115 495.71336 -95.646184)
(-1682.3291 491.17567 -104.92036)
(-1774.4014 485.78117 -111.25716)
(-1864.2435 479.7679 -114.50192)
(-1951.4452 473.373 -114.67153)
(-2036.3165 466.57561 -111.65588)
(-2118.8677 459.89671 -106.07213)
(-2199.2487 453.06358 -97.967347)
(-2277.8352 446.84455 -87.725855)
(-2355.032 441.0547 -75.905861)
(-2431.4232 436.20351 -63.060285)
(-2507.61 432.48899 -49.791973)
(-2584.1672 430.20592 -36.628066)
(-2661.7553 429.59301 -24.131833)
(-2740.9866 430.89184 -12.783962)
(-2822.4688 434.28222 -3.0097138)
(-2906.7295 439.90084 4.8668563)
(-2994.2423 447.81062 10.613824)
(-3085.3502 458.00261 14.129115)
(-3180.2899 470.37675 15.420601)
(-3279.1328 484.75335 14.631195)
(-3381.7956 500.85863 12.015213)
(-3488.0156 518.34601 7.9402314)
(-3597.3617 536.80282 2.8594843)
(-3709.2315 555.76587 -2.7061514)
(-3822.8866 574.75341 -8.2051049)
(-3937.4657 593.2847 -13.083098)
(-4052.0362 610.90989 -16.8215)
(-4165.6275 627.24326 -18.971507)
(-4277.2856 641.98808 -19.181147)
(-4386.1175 654.95319 -17.218586)
(-4491.3333 666.08412 -12.99074)
(-4592.2944 675.46329 -6.5402307)
(-4688.5445 683.29989 1.9449606)
(-4779.8165 689.95121 12.170067)
(-4866.1084 695.88051 23.707269)
(-4947.5159 701.61901 36.094265)
(-5024.478 707.68497 48.840123)
(-5097.7666 715.02441 61.204771)
(-5167.9236 723.74699 72.981906)
(-5236.0192 734.83569 83.266093)
(-5302.7908 748.14117 92.015819)
(-5369.4963 764.50509 98.643488)
(-5437.0205 783.68731 102.98976)
(-5506.2406 805.8301 104.95302)
(-5577.9524 830.59247 104.49327)
(-5652.732 857.64691 101.72768)
(-5730.9259 886.4388 96.884292)
(-5812.6505 916.31815 90.274756)
(-5897.7873 946.55059 82.27646)
(-5985.9464 976.35334 73.311852)
(-6076.5439 1004.966 63.823499)
(-6168.7915 1031.6543 54.259731)
(-6261.7629 1055.772 45.021745)
(-6354.4421 1076.7851 36.474909)
(-6445.7644 1094.3083 28.896534)
(-6534.695 1108.0998 22.501441)
(-6620.2459 1118.1199 17.39294)
(-6701.5695 1124.4676 13.607571)
(-6777.9354 1127.4426 11.097482)
(-6848.8545 1127.5319 9.6989673)
(-6914.0121 1125.3238 9.255243)
(-6973.4344 1121.5769 9.5325609)
(-7027.4297 1117.3805 10.151475)
(-7080.6255 1114.0287 10.994517)
(3.2927448e-15 -1.3239155e-15 2.3845803e-16)
(2.4470133e-15 -9.6672015e-16 3.215493e-17)
(-9.0574249e-15 9.0550918e-16 6.4029168e-16)
(-1.2642219e-16 -5.721845e-16 4.4370095e-16)
(-7.6811722e-15 -4.9270561e-16 4.1193361e-16)
(-7.3893964e-15 2.7533729e-15 -1.0951501e-15)
(-3.2915852e-15 -8.1743692e-16 3.8364228e-16)
(-1.9032499e-15 5.3200654e-16 -8.2319016e-17)
(-4.7409759e-15 -4.8623412e-16 4.3918642e-16)
(-1.2869644e-14 1.1845665e-15 6.4228907e-16)
(-9.6157521e-15 1.4157374e-15 5.9836601e-16)
(-9.4077204e-15 4.9518432e-16 1.1192419e-15)
(-5.982767e-15 2.6210694e-16 3.0473736e-16)
(-1.1478475e-14 -5.3386198e-16 1.6580808e-15)
(-5.257323e-15 3.6289085e-16 2.8600704e-16)
(-26.103898 18.952661 -41.148351)
(-28.609317 75.788568 -67.10973)
(-16.236916 72.097831 -86.460214)
(-19.109594 110.51614 -105.97776)
(-17.341927 126.40751 -118.44396)
(-24.463076 152.67235 -126.89214)
(-32.49914 175.98636 -132.40098)
(-48.523121 202.86001 -135.75801)
(-66.754049 227.41146 -135.15871)
(-92.264735 255.81345 -132.97096)
(-122.66266 282.40126 -128.22468)
(-157.33949 309.37524 -121.18305)
(-199.55844 338.71665 -112.75674)
(-245.04112 364.90437 -103.04973)
(-297.86612 394.81989 -91.979762)
(-353.65465 419.88237 -81.115445)
(-416.09768 447.26096 -69.792435)
(-481.6571 472.6094 -57.990009)
(-552.55286 496.08656 -47.828914)
(-626.00792 518.55034 -37.280026)
(-703.32748 537.95414 -28.925216)
(-784.05878 555.99791 -20.869474)
(-866.62667 571.06129 -14.060754)
(-951.80139 583.06811 -8.4855947)
(-1038.4075 592.11867 -4.0594515)
(-1126.7087 598.8545 -0.59307515)
(-1215.8488 602.45556 2.0636497)
(-1305.6722 603.42153 3.8121698)
(-1395.7691 601.78284 5.5389152)
(-1485.2502 597.32228 6.3574207)
(-1575.5483 591.42546 7.500341)
(-1664.8024 583.88317 8.0969927)
(-1753.6824 575.07549 9.1321852)
(-1841.7142 565.66974 10.050928)
(-1930.8508 557.19716 10.974205)
(-2015.4904 546.53918 12.290689)
(-2100.6041 537.8123 13.360986)
(-2184.735 530.57304 14.25744)
(-2268.2437 524.50934 14.670388)
(-2350.7799 520.36434 14.547969)
(-2432.7067 518.31871 13.568317)
(-2514.0983 518.55915 11.528226)
(-2595.1998 521.16939 8.2528606)
(-2676.3038 526.14553 3.6411382)
(-2757.7355 533.42192 -2.3619572)
(-2839.8848 542.81313 -9.6664463)
(-2923.1825 554.09414 -18.110446)
(-3008.0849 566.9544 -27.395148)
(-3095.0485 581.05034 -37.147657)
(-3184.5106 595.99691 -46.895668)
(-3276.8412 611.40556 -56.140328)
(-3372.327 626.88381 -64.346111)
(-3471.1189 642.0758 -71.028953)
(-3573.2223 656.65533 -75.744256)
(-3678.4597 670.37083 -78.171613)
(-3786.4798 683.02307 -78.098739)
(-3896.7358 694.51316 -75.485996)
(-4008.5279 704.8106 -70.436924)
(-4120.9995 713.98215 -63.233388)
(-4233.2039 722.17314 -54.298246)
(-4344.1259 729.60355 -44.189266)
(-4452.7543 736.55929 -33.561571)
(-4558.1194 743.37244 -23.127533)
(-4659.3932 750.42367 -13.606348)
(-4755.8347 758.05674 -5.7168039)
(-4847.0172 766.70984 -0.013569604)
(-4932.8588 776.75495 2.8016495)
(-5013.218 788.46664 3.0735737)
(-5089.9995 801.34351 -0.62368862)
(-5158.4532 816.98438 -6.408485)
(-5225.1041 834.20538 -15.717732)
(-5289.1696 853.57264 -26.763395)
(-5351.7232 874.81649 -39.716182)
(-5413.9509 897.50453 -53.356936)
(-5477.1641 921.45105 -66.921231)
(-5542.5225 946.20229 -79.525009)
(-5610.9816 971.30462 -90.320671)
(-5683.347 996.26767 -98.555996)
(-5760.0983 1020.6115 -103.65561)
(-5841.4128 1043.862 -105.22137)
(-5927.1478 1065.5935 -103.08148)
(-6016.8314 1085.437 -97.291062)
(-6109.7083 1103.0915 -88.133018)
(-6204.7686 1118.3439 -76.08595)
(-6300.8242 1131.0589 -61.81077)
(-6396.559 1141.199 -46.078308)
(-6490.6284 1148.7971 -29.74587)
(-6581.7111 1153.9911 -13.682692)
(-6668.607 1156.9583 1.2855999)
(-6750.2942 1157.9878 14.414659)
(-6826.0025 1157.3788 25.141206)
(-6895.2858 1155.5277 33.074126)
(-6958.0842 1152.8579 38.129372)
(-7014.8474 1149.7797 40.549506)
(-7059.2824 1145.4411 41.052705)
(-7143.226 1043.063 43.23538)
(-7175.9824 943.17871 44.92492)
(-7188.8068 841.76493 46.222523)
(-7187.7114 742.17982 46.695621)
(-7170.206 643.01278 46.044991)
(-7145.9852 547.56989 44.783568)
(-7107.7801 452.84427 42.466874)
(-7080.1646 361.90701 40.161668)
(-7046.3156 271.40941 37.378954)
(-7025.8544 182.4274 35.063272)
(-7025.5571 93.355801 32.828639)
(-7039.5458 2.3589838 31.9834)
(-7068.7508 -90.500664 31.502763)
(-7106.3379 -186.65916 31.999728)
(-7157.2682 -285.57072 33.685523)
(-7090.21 -391.41744 36.15223)
(-7054.1016 -403.32847 37.830797)
(-7003.0741 -414.64557 39.390178)
(-6947.1018 -425.30148 41.228645)
(-6885.9429 -434.51262 42.925754)
(-6819.0539 -441.57726 45.53129)
(-6746.7256 -445.82576 48.82236)
(-6669.3288 -446.82128 53.138252)
(-6587.3401 -444.25178 58.567696)
(-6501.5342 -437.95059 65.137039)
(-6412.7421 -427.93902 72.784271)
(-6321.9195 -414.43512 81.437245)
(-6230.082 -397.79157 90.801291)
(-6137.9818 -378.53325 100.60027)
(-6046.6411 -357.1395 110.38644)
(-5957.3044 -334.49328 119.70659)
(-5870.3261 -311.29508 127.98767)
(-5786.2839 -288.34696 134.84759)
(-5705.4902 -266.40606 139.72497)
(-5627.9855 -246.18096 142.25644)
(-5553.5998 -228.26313 142.07784)
(-5481.9221 -213.13454 139.02035)
(-5412.279 -201.13045 132.96129)
(-5344.0284 -192.32392 124.0413)
(-5275.7628 -186.87872 112.41014)
(-5207.4026 -184.43653 98.831632)
(-5137.1342 -184.73574 82.626932)
(-5064.0331 -187.44744 65.292592)
(-4987.1135 -193.06984 48.631572)
(-4905.6915 -198.86129 31.041028)
(-4820.0338 -205.86121 14.348308)
(-4729.0997 -213.14503 -1.0051461)
(-4633.1225 -220.15087 -14.460432)
(-4532.2762 -226.54593 -25.674752)
(-4426.9798 -231.97425 -34.34487)
(-4317.8742 -236.23787 -40.339021)
(-4205.7382 -239.22736 -43.662565)
(-4091.4584 -240.96485 -44.448824)
(-3975.9828 -241.56615 -42.963167)
(-3860.2727 -241.24135 -39.57535)
(-3745.2627 -240.26128 -34.747147)
(-3631.8193 -238.94884 -29.003048)
(-3520.7121 -237.63742 -22.906044)
(-3412.5835 -236.66346 -17.024498)
(-3307.9333 -236.32894 -11.905186)
(-3207.0977 -236.89897 -8.0334686)
(-3110.2482 -238.57382 -5.8202906)
(-3017.3892 -241.49144 -5.5538675)
(-2928.3502 -245.7238 -7.4079303)
(-2842.8337 -251.2764 -11.396293)
(-2760.3813 -258.05715 -17.448382)
(-2680.4342 -266.04528 -25.215457)
(-2602.4182 -274.95041 -34.492747)
(-2525.4714 -284.7839 -44.637415)
(-2449.1638 -295.09663 -55.254812)
(-2372.5716 -305.87787 -65.696066)
(-2295.4751 -316.62941 -75.488661)
(-2219.8333 -328.01932 -83.903197)
(-2136.8569 -339.25908 -90.679784)
(-2053.6731 -348.72278 -95.273085)
(-1971.7599 -358.76718 -97.622907)
(-1881.3549 -368.59284 -97.225275)
(-1791.7437 -375.45836 -93.740127)
(-1699.3292 -383.05401 -88.276166)
(-1607.0349 -389.62461 -79.809052)
(-1509.6473 -394.64805 -69.577507)
(-1413.3995 -397.83965 -56.568868)
(-1314.7055 -400.32171 -42.771796)
(-1216.2451 -400.68537 -27.402576)
(-1118.6691 -400.41625 -11.557611)
(-1021.9793 -398.38299 4.3662032)
(-927.44971 -394.32478 19.609859)
(-835.48422 -388.31559 34.154058)
(-745.92107 -381.95361 47.525888)
(-660.47003 -372.18209 58.152409)
(-580.21158 -361.3685 67.777533)
(-503.0508 -348.82716 74.31402)
(-433.17937 -334.40193 78.950475)
(-366.64217 -318.62375 80.994102)
(-307.34675 -300.4013 80.658179)
(-253.40956 -282.40776 78.951043)
(-204.52624 -262.29028 75.180254)
(-160.86996 -240.57756 70.171647)
(-123.46241 -218.6337 64.366762)
(-90.440841 -196.31722 58.486916)
(-61.851306 -172.90455 52.417005)
(-38.627588 -150.23632 46.558165)
(-19.329708 -127.42742 41.631014)
(-3.8588005 -105.17833 37.374166)
(7.3629013 -84.58276 34.37363)
(14.803924 -64.478777 31.024437)
(16.742854 -45.506431 28.43524)
(17.035644 -31.48344 26.768664)
(11.25213 -16.776857 20.246091)
(-0.85389619 -8.8599394 10.226236)
(-6.8708141e-15 1.5083581e-15 1.9262289e-16)
(-1.2504183e-14 5.7375616e-16 8.4327435e-16)
(-8.3449101e-15 1.4891922e-15 5.3018253e-16)
(-4.9731758e-15 1.4991158e-15 6.2376313e-16)
(-3.4146159e-15 1.5624416e-15 3.1576894e-17)
(2.0582335e-15 9.3962624e-16 -5.746342e-16)
(2.2101935e-15 3.7457559e-17 -1.1841335e-16)
(2.4553765e-15 -8.5141669e-16 -9.3419562e-16)
(1.2987427e-15 1.0081898e-16 1.7950851e-15)
(-4.5074861e-15 9.063971e-16 1.0710522e-15)
(-5.2682467e-15 2.1856155e-15 1.0652666e-15)
(-7.4917339e-15 1.915055e-15 2.2418828e-16)
(-9.400838e-15 1.3708275e-15 6.2833768e-16)
(-6.2048683e-15 1.3247981e-15 5.4317906e-16)
(-6.971104e-15 1.5128103e-15 7.5678131e-16)
(-1.2693866e-14 6.2923345e-15 -2.1364834e-15)
(-5.2452578e-15 2.6791924e-15 -5.3037742e-16)
(-1.0752404e-15 9.8318743e-16 -1.0111087e-16)
(-2.7353382e-15 1.7746034e-15 7.3085398e-17)
(1.0178949e-15 -1.5450237e-16 -4.119182e-16)
(-1.4303492e-15 4.136346e-16 -3.3264033e-16)
(-1.0059749e-14 4.7133437e-15 -1.6449855e-15)
(2.9801421e-15 -1.9180379e-15 -8.3172098e-16)
(-4.79756e-15 2.8035442e-15 1.1420498e-15)
(-5.4778068e-15 3.5047253e-15 -3.934403e-16)
(-1.8117877e-15 1.1581936e-15 -9.1309836e-16)
(-3.9812639e-16 4.7407236e-16 -2.2932148e-16)
(-1.5272242e-15 1.100363e-15 -2.2557932e-16)
(-4.1024849e-15 1.9838802e-15 2.8069696e-17)
(-5.3424143e-16 2.551799e-16 -1.9455919e-16)
(-7137.7396 1113.0408 12.018503)
(-7134.1013 1112.777 12.648282)
(-7130.8906 1113.5537 13.370573)
(-7128.5273 1115.4415 14.237788)
(-7126.8836 1118.2926 15.336992)
(-7125.9799 1122.15 16.738231)
(-7125.7195 1126.6941 18.526734)
(-7125.9251 1131.6269 20.754335)
(-7126.4694 1136.5582 23.410073)
(-7127.0944 1141.1134 26.464889)
(-7127.6524 1144.7936 29.826375)
(-7127.9482 1147.3245 33.261347)
(-7127.7084 1148.5294 36.581507)
(-7127.1533 1148.0289 39.099454)
(-7125.7734 1146.8847 41.307758)
(-7194.4084 -404.52745 64.377071)
(-7194.4485 -410.4801 62.269073)
(-7193.8365 -414.91106 59.106546)
(-7192.3577 -417.50736 55.30058)
(-7190.4171 -418.20532 51.402549)
(-7187.7783 -417.16918 47.675551)
(-7184.7412 -414.71296 44.316241)
(-7181.5447 -411.20916 41.436853)
(-7178.4025 -407.0856 39.105225)
(-7175.5559 -402.70209 37.325553)
(-7173.1135 -398.40352 36.020388)
(-7171.3051 -394.46917 35.174958)
(-7170.0005 -391.00448 34.60766)
(-7169.4483 -388.29839 34.345844)
(-7169.2416 -386.00867 34.257824)
(2.0337031 -23.286605 -28.814488)
(10.361717 -33.41169 -36.719548)
(17.868906 -47.994912 -51.428484)
(19.610398 -60.991822 -59.391443)
(19.780068 -74.425226 -69.473168)
(13.114258 -88.805026 -75.670703)
(3.0737433 -103.31836 -81.33556)
(-13.349469 -119.33684 -84.590073)
(-33.776692 -135.52477 -86.672058)
(-60.321611 -153.09385 -86.96995)
(-91.820359 -170.98146 -85.604504)
(-129.05967 -190.16177 -83.258743)
(-171.45685 -209.57135 -79.337424)
(-219.39779 -230.07294 -74.819064)
(-272.56537 -250.41743 -69.301939)
(-331.17145 -271.35428 -63.588476)
(-394.67723 -291.97658 -57.403941)
(-462.75112 -312.38564 -51.479016)
(-535.70287 -331.77504 -45.492834)
(-612.77269 -350.51948 -40.042992)
(-693.57369 -367.5479 -35.022148)
(-777.96944 -383.01984 -30.552299)
(-865.29776 -396.59975 -26.646845)
(-955.0778 -407.77895 -23.365492)
(-1047.1827 -416.7147 -20.465204)
(-1140.7746 -423.10096 -18.089457)
(-1235.6412 -426.65575 -15.894835)
(-1331.3001 -427.8322 -13.832014)
(-1427.3154 -426.38507 -11.638675)
(-1523.4121 -422.49562 -9.3661281)
(-1619.0928 -416.63882 -6.6375326)
(-1714.129 -408.89576 -3.62193)
(-1808.1807 -399.64141 -0.098068322)
(-1901.0581 -389.16318 3.8095256)
(-1992.5829 -378.29201 8.0634475)
(-2082.1525 -366.85273 12.355302)
(-2169.9695 -355.61555 16.62762)
(-2255.9723 -345.06732 20.691692)
(-2339.9364 -335.16303 24.082229)
(-2422.1845 -326.3173 26.711788)
(-2502.7113 -318.8443 28.304903)
(-2582.0137 -312.68726 28.624267)
(-2660.138 -307.92881 27.381164)
(-2737.8057 -304.41711 24.817785)
(-2815.4105 -302.05462 20.692839)
(-2893.6143 -300.58807 15.251308)
(-2972.9892 -299.758 8.6263993)
(-3054.172 -299.20393 1.1447549)
(-3137.7575 -298.59188 -6.8424152)
(-3224.2813 -297.56357 -14.898704)
(-3314.1862 -295.79598 -22.562418)
(-3407.7972 -292.99976 -29.360248)
(-3505.2885 -288.9647 -34.832338)
(-3606.6639 -283.54669 -38.58779)
(-3711.7351 -276.71407 -40.306854)
(-3820.1193 -268.52722 -39.793785)
(-3931.236 -259.16144 -36.991617)
(-4044.3114 -248.8849 -31.997497)
(-4158.4224 -238.06208 -25.065944)
(-4272.5015 -227.1173 -16.612807)
(-4385.4352 -216.52604 -7.1854573)
(-4496.037 -206.76665 2.5836601)
(-4603.2484 -198.34195 11.949008)
(-4706.0811 -191.56572 20.227934)
(-4803.4751 -187.00395 26.691715)
(-4895.8051 -184.7979 30.814937)
(-4980.675 -184.7263 31.973003)
(-5060.5043 -187.52105 30.233555)
(-5134.8093 -192.55861 25.099244)
(-5204.2018 -200.15064 17.044066)
(-5269.3374 -209.55654 6.115465)
(-5331.5959 -220.68441 -6.9227874)
(-5392.1139 -233.11393 -21.575845)
(-5452.3154 -246.37906 -36.988728)
(-5513.4468 -260.02357 -52.35869)
(-5576.7192 -273.63365 -66.829176)
(-5643.1538 -286.79128 -79.585335)
(-5713.4801 -299.12199 -89.912204)
(-5788.2604 -310.30747 -97.249557)
(-5867.6012 -320.08269 -101.14717)
(-5951.4084 -328.29319 -101.41543)
(-6039.3914 -334.83954 -97.949437)
(-6130.1884 -339.54523 -91.069317)
(-6221.9064 -342.45948 -81.02944)
(-6318.2632 -343.84905 -68.375854)
(-6413.044 -343.79534 -53.781366)
(-6506.0949 -342.34828 -37.941367)
(-6596.4356 -339.78232 -21.583737)
(-6682.9865 -336.21984 -5.5342751)
(-6764.3537 -331.84222 9.5454104)
(-6840.4743 -326.89584 23.152006)
(-6910.142 -321.16205 34.712157)
(-6973.6142 -315.34243 44.499493)
(-7031.8116 -308.59109 52.072521)
(-7094.387 -301.92379 58.606992)
(10.703411 -22.499474 -25.918566)
(18.272389 -26.818508 -34.749888)
(22.138674 -44.517641 -44.062514)
(26.60795 -52.380527 -53.430721)
(24.844435 -65.269277 -60.877119)
(19.888327 -75.661876 -66.956732)
(8.8584495 -88.15638 -71.731845)
(-6.0405009 -100.13857 -75.249898)
(-27.085961 -113.34903 -77.341529)
(-53.131094 -127.00343 -77.567313)
(-84.771 -141.75153 -77.060492)
(-122.01755 -157.17075 -74.645183)
(-164.88754 -173.59814 -71.749631)
(-213.54632 -190.59961 -67.492696)
(-267.67513 -208.28642 -63.072377)
(-327.66411 -226.41136 -57.677122)
(-392.5423 -244.6487 -52.654633)
(-463.14394 -262.75831 -47.220351)
(-538.31989 -280.46764 -42.298741)
(-618.21201 -297.41139 -37.549969)
(-702.14292 -313.25536 -33.444197)
(-789.94422 -327.72352 -29.731279)
(-880.8292 -340.4539 -26.784498)
(-974.60826 -351.16915 -24.259639)
(-1070.5017 -359.64571 -22.263213)
(-1168.0592 -365.81176 -20.626043)
(-1266.7536 -369.43905 -19.231122)
(-1366.1182 -370.60224 -17.875706)
(-1465.6572 -369.26147 -16.477298)
(-1564.8007 -365.73773 -14.718742)
(-1663.2629 -360.03018 -12.717404)
(-1760.5115 -352.5584 -10.168251)
(-1856.2738 -343.61758 -7.1144952)
(-1950.2362 -333.67258 -3.6153655)
(-2042.0252 -323.08074 0.35030838)
(-2131.5547 -312.2445 4.5019101)
(-2218.637 -301.5625 8.6949055)
(-2303.1804 -291.35711 12.710044)
(-2385.2275 -281.93342 16.327099)
(-2464.987 -273.53776 19.2065)
(-2542.506 -266.32534 21.242426)
(-2618.3465 -260.22741 22.068774)
(-2692.8196 -255.41906 21.730208)
(-2766.2795 -251.56291 19.895419)
(-2839.5617 -248.54912 16.811638)
(-2913.1463 -246.12727 12.420392)
(-2987.7503 -243.96456 6.9705307)
(-3064.0013 -241.72952 0.68209631)
(-3142.5157 -239.085 -6.0908513)
(-3223.826 -235.71091 -12.97924)
(-3308.3673 -231.33138 -19.550888)
(-3396.4424 -225.73069 -25.386306)
(-3488.1956 -218.78183 -30.071446)
(-3583.5942 -210.43933 -33.258361)
(-3682.4183 -200.78031 -34.655958)
(-3784.2546 -189.96829 -34.103582)
(-3888.498 -178.28283 -31.542236)
(-3994.3779 -166.08053 -27.068731)
(-4100.9796 -153.79497 -20.902248)
(-4207.2831 -141.89211 -13.42275)
(-4312.2242 -130.86198 -5.0840948)
(-4414.7236 -121.16489 3.534707)
(-4513.8236 -113.22265 11.792294)
(-4608.6342 -107.34806 19.207695)
(-4698.122 -103.8366 24.866562)
(-4784.2051 -102.72299 28.889266)
(-4858.4024 -103.81825 30.076158)
(-4950.536 -107.7858 28.92081)
(-5026.3569 -114.08951 24.931689)
(-5092.8001 -122.08684 18.263048)
(-5155.0631 -131.61972 9.2003919)
(-5214.8938 -142.12153 -1.8004399)
(-5273.6886 -153.27154 -14.152672)
(-5332.772 -164.55734 -27.214783)
(-5393.3916 -175.5988 -40.305185)
(-5456.6321 -186.04903 -52.661572)
(-5523.4741 -195.56633 -63.639341)
(-5594.6441 -203.9614 -72.599992)
(-5670.5876 -211.03923 -79.064349)
(-5751.4456 -216.76188 -82.630282)
(-5837.0912 -221.06154 -83.178121)
(-5927.1287 -224.08126 -80.516876)
(-6021.9006 -225.73218 -75.050412)
(-6104.5485 -226.05825 -66.250647)
(-6188.5727 -225.73882 -55.758061)
(-6285.1662 -224.69131 -43.336136)
(-6383.5044 -223.21373 -29.906582)
(-6480.1797 -221.2768 -15.94248)
(-6573.923 -218.99018 -1.9753888)
(-6663.5083 -216.46796 11.162171)
(-6748.5055 -213.66036 23.481567)
(-6828.3103 -210.35783 33.998336)
(-6902.2457 -207.12748 43.533668)
(-6972.1308 -202.74369 51.083866)
(-7043.9435 -198.12947 58.208449)
(15.202308 -16.179541 -22.898073)
(21.108247 -22.964362 -28.540956)
(29.767105 -35.064943 -38.674736)
(31.399484 -43.861649 -45.853408)
(30.652578 -52.896029 -52.690936)
(24.161667 -62.408086 -57.857841)
(14.403361 -71.182707 -62.923888)
(-1.6684171 -80.960509 -66.199964)
(-22.240319 -90.646418 -67.875287)
(-48.636781 -101.9096 -68.958741)
(-80.585392 -113.13666 -67.994379)
(-118.58897 -126.07325 -66.564191)
(-162.38553 -139.21703 -63.479149)
(-212.27406 -153.80146 -60.246155)
(-268.27285 -168.66825 -55.725442)
(-330.06676 -184.41204 -51.531137)
(-397.96405 -200.31195 -46.628947)
(-471.25647 -216.43712 -42.230246)
(-549.98619 -232.2422 -37.845706)
(-633.64784 -247.5844 -34.064886)
(-721.90401 -262.04078 -30.703402)
(-814.0856 -275.27179 -28.083593)
(-909.80232 -287.02286 -25.968354)
(-1008.2972 -296.94964 -24.511109)
(-1109.1091 -304.88924 -23.510824)
(-1211.4594 -310.6054 -22.9152)
(-1314.8301 -313.9575 -22.517925)
(-1418.521 -314.99489 -22.166587)
(-1521.9335 -313.72055 -21.614765)
(-1624.6006 -310.2443 -20.820976)
(-1725.8556 -304.84173 -19.492457)
(-1825.2968 -297.73849 -17.604962)
(-1922.5572 -289.30426 -15.128528)
(-2017.1837 -279.88213 -12.002802)
(-2108.9309 -269.88371 -8.3878465)
(-2197.5799 -259.65688 -4.3958675)
(-2282.8687 -249.614 -0.14718091)
(-2364.9665 -240.11314 4.1081591)
(-2443.8068 -231.30122 7.9951538)
(-2519.5609 -223.38032 11.416747)
(-2592.55 -216.47768 13.990656)
(-2663.2086 -210.60061 15.655965)
(-2731.928 -205.64356 16.090036)
(-2799.3557 -201.51338 15.304631)
(-2866.132 -197.91507 13.224268)
(-2932.9344 -194.63045 9.9692027)
(-3000.4611 -191.33931 5.6467711)
(-3069.3853 -187.72432 0.49414854)
(-3140.3276 -183.48698 -5.1968233)
(-3213.8281 -178.35562 -11.076995)
(-3290.315 -172.11334 -16.760714)
(-3370.0683 -164.61506 -21.86536)
(-3453.2158 -155.80072 -26.009301)
(-3539.6998 -145.70621 -28.868689)
(-3629.2872 -134.46843 -30.178167)
(-3721.5501 -122.31474 -29.778755)
(-3815.8986 -109.56702 -27.605836)
(-3911.5836 -96.611499 -23.731771)
(-4007.7441 -83.878748 -18.343913)
(-4103.4296 -71.832548 -11.747442)
(-4197.6791 -60.906575 -4.3477782)
(-4289.5368 -51.525338 3.3635189)
(-4378.17 -44.01103 10.875174)
(-4462.8417 -38.646287 17.66198)
(-4542.5187 -35.552246 23.071103)
(-4622.802 -34.871857 27.208499)
(-4671.0814 -36.125612 28.26272)
(-4775.8343 -40.708813 28.610118)
(-4847.1443 -46.121951 25.714045)
(-4908.9804 -52.970668 20.742294)
(-4966.8279 -60.694854 13.545932)
(-5022.6746 -69.080975 4.6612541)
(-5078.3839 -77.760653 -5.455717)
(-5135.8354 -86.330887 -16.316807)
(-5195.4984 -94.432511 -27.346229)
(-5258.5199 -101.7908 -37.899361)
(-5325.8601 -108.20993 -47.400103)
(-5398.2181 -113.53842 -55.321505)
(-5476.041 -117.7044 -61.213397)
(-5559.4532 -120.71246 -64.753748)
(-5648.3625 -122.59391 -65.717728)
(-5742.0166 -123.50686 -64.042127)
(-5841.6204 -123.51568 -59.869512)
(-5942.9367 -122.96747 -53.179005)
(-6025.0193 -120.84739 -44.375549)
(-6122.8761 -119.11309 -34.066359)
(-6228.984 -117.27388 -22.868205)
(-6335.763 -115.49862 -10.914399)
(-6440.9217 -113.60388 1.0513315)
(-6543.0246 -111.78025 12.656894)
(-6642.0102 -109.89341 23.60531)
(-6736.5932 -107.63889 33.389763)
(-6826.5709 -105.46589 42.271153)
(-6913.2932 -102.27515 50.025174)
(-6998.7622 -98.709988 57.226485)
(18.320262 -15.003471 -18.402436)
(27.159105 -17.766585 -25.077512)
(33.583172 -28.155388 -31.765925)
(36.016076 -33.701828 -38.323188)
(34.068479 -41.070428 -44.13925)
(29.011625 -47.296028 -49.519941)
(17.777817 -54.121281 -53.978118)
(2.3899922 -60.521789 -56.631503)
(-18.778564 -68.113291 -59.158624)
(-45.591227 -75.799063 -59.416473)
(-78.40957 -84.650562 -59.357423)
(-117.28001 -94.274509 -57.461491)
(-162.46662 -104.90499 -55.385582)
(-214.3069 -116.57641 -51.835695)
(-272.22956 -128.91063 -48.501986)
(-337.05199 -142.24201 -44.27126)
(-407.74252 -155.83174 -40.455047)
(-484.82712 -169.94116 -36.530861)
(-567.45238 -183.83058 -33.158258)
(-655.652 -197.58684 -30.156743)
(-748.49015 -210.53239 -27.930148)
(-845.79462 -222.61279 -26.24577)
(-946.61123 -233.29896 -25.33754)
(-1050.4777 -242.45848 -25.002976)
(-1156.4808 -249.68511 -25.199071)
(-1263.9878 -254.93878 -25.74869)
(-1372.1704 -257.98344 -26.46861)
(-1480.3245 -258.86963 -27.152884)
(-1587.7534 -257.53376 -27.637599)
(-1693.732 -254.22639 -27.663433)
(-1797.6837 -249.02655 -27.114863)
(-1899.0695 -242.30396 -25.89484)
(-1997.3358 -234.29568 -23.880061)
(-2092.1422 -225.43688 -21.155491)
(-2183.1085 -216.0864 -17.69954)
(-2270.0982 -206.57443 -13.746975)
(-2352.6724 -197.30119 -9.423803)
(-2431.0547 -188.44871 -5.0442876)
(-2505.8149 -180.32801 -0.73609624)
(-2576.6074 -173.02656 3.1887678)
(-2644.0845 -166.68116 6.4907247)
(-2708.5943 -161.19776 8.8849861)
(-2770.7338 -156.55065 10.279022)
(-2831.1262 -152.48987 10.464562)
(-2890.4562 -148.7924 9.4672382)
(-2949.4695 -145.18866 7.3234716)
(-3008.8815 -141.40082 4.145475)
(-3069.3757 -137.11216 0.11749638)
(-3131.5838 -132.05512 -4.4827548)