/*--------------------------------*- C++ -*----------------------------------*\
  =========                 |
  \\      /  F ield         | OpenFOAM: The Open Source CFD Toolbox
   \\    /   O peration     | Website:  https://openfoam.org
    \\  /    A nd           | Version:  6
     \\/     M anipulation  |
\*---------------------------------------------------------------------------*/
FoamFile
{
    version     2.0;
    format      ascii;
    class       pointVectorField;
    location    "1.24";
    object      lm;
}
// * * * * * * * * * * * * * * * * * * * * * * * * * * * * * * * * * * * * * //

dimensions      [1 -2 -1 0 0 0 0];

internalField   nonuniform List<vector> 
28033
(
(-1.780536e-14 4.8656612e-16 1.3104288e-15)
(-5.4375576e-15 3.3318594e-15 9.9433006e-16)
(-2678.3983 -1416.7582 -0.42846039)
(-3003.4243 -528.37598 27.579399)
(-1.338461e-14 3.0090723e-15 -2.870051e-16)
(-1.2587315e-14 4.9008913e-15 -4.4266115e-15)
(-2980.7396 -591.58016 1.659158)
(-2650.1765 -1467.0285 26.583295)
(-5.6329745e-15 1.0535579e-15 6.7193838e-16)
(-2.4534443e-15 3.0423504e-16 5.8836893e-16)
(-5.4923298e-15 2.4302826e-15 8.9528572e-16)
(-2.6209443e-15 -1.1537891e-15 -6.7979696e-16)
(-7.2548563e-15 1.5542294e-15 1.0013199e-15)
(-4.7613589e-15 -9.2108094e-16 -7.3952737e-16)
(-1.132389e-15 -2.2256662e-17 -6.4484848e-16)
(-7.4239857e-16 -2.4218299e-16 -3.6669977e-16)
(-1.1196198e-15 4.5550132e-16 8.383863e-16)
(-2.3465882e-16 2.2667819e-16 1.4996246e-15)
(-4.0583243e-15 -8.7236639e-16 -1.3429605e-15)
(-5.8237189e-15 8.4462789e-16 7.5519031e-16)
(-5.1611762e-15 1.0100276e-15 9.7613867e-16)
(-1.7679952e-15 -8.1010255e-16 4.5192313e-16)
(-4.4158752e-15 1.0299569e-15 -9.452958e-16)
(-2695.0048 -1372.5995 -5.4358441)
(-2715.2472 -1328.1268 -11.150716)
(-2737.7999 -1280.4689 -14.27107)
(-2762.4991 -1229.2565 -15.289212)
(-2788.4949 -1173.253 -14.205361)
(-2814.724 -1113.4811 -10.094497)
(-2841.1066 -1050.0172 -4.8602414)
(-2865.7662 -984.61636 1.9763324)
(-2888.8877 -917.99251 9.3248709)
(-2910.0219 -852.61602 16.610774)
(-2928.2934 -789.06531 22.590309)
(-2944.8145 -729.32996 26.679111)
(-2959.3966 -673.24346 29.391722)
(-2973.084 -621.82765 30.066654)
(-2987.3989 -574.1814 28.837994)
(-45.721014 -80.806616 -71.546161)
(-69.754752 -110.88546 -93.393819)
(-102.37988 -134.97606 -99.234771)
(-138.75887 -158.03041 -100.55155)
(-175.56196 -178.23644 -94.865137)
(-213.24109 -197.17468 -87.796865)
(-249.7353 -214.57159 -79.196785)
(-284.54472 -229.71334 -70.920551)
(-316.46102 -243.59248 -63.346429)
(-345.53868 -254.76021 -57.192743)
(-370.50579 -264.35279 -52.802703)
(-391.70764 -271.69722 -50.125089)
(-408.84663 -277.59647 -49.311293)
(-422.54773 -281.6125 -49.810852)
(-432.59876 -284.50295 -51.813384)
(-439.87448 -286.23933 -54.354662)
(-444.62973 -287.51149 -57.508467)
(-447.76532 -288.17292 -60.454911)
(-449.41018 -289.10989 -63.263184)
(-450.4149 -290.05652 -65.219614)
(-451.13537 -291.68551 -66.26731)
(-452.00459 -294.11855 -66.326538)
(-453.15419 -297.43607 -65.344086)
(-454.97821 -301.91418 -63.234211)
(-457.36453 -307.63287 -60.433561)
(-460.43868 -314.39559 -56.880299)
(-464.17485 -322.58511 -53.19003)
(-468.32429 -331.87825 -49.323609)
(-472.8588 -342.31975 -45.975424)
(-477.51277 -353.67514 -43.287483)
(-482.58048 -366.35286 -41.525182)
(-487.29367 -379.55911 -40.91716)
(-492.39791 -393.47729 -41.740875)
(-497.56659 -408.40672 -43.608182)
(-503.11796 -423.65646 -47.180082)
(-509.35782 -439.68892 -51.552529)
(-516.34798 -456.09894 -56.801764)
(-524.73451 -473.15782 -62.612413)
(-534.69939 -490.56953 -68.731836)
(-546.56084 -508.31566 -74.500794)
(-560.80579 -526.53099 -79.771637)
(-577.49599 -544.93543 -84.115385)
(-596.85052 -563.59616 -87.280901)
(-618.87894 -582.33543 -88.927649)
(-643.48115 -601.10369 -89.124147)
(-670.41974 -619.72897 -87.724117)
(-699.33526 -638.11947 -84.88678)
(-729.73551 -656.14702 -80.806434)
(-761.05523 -673.71574 -75.787598)
(-792.65924 -690.7507 -70.211959)
(-823.89518 -707.21719 -64.51023)
(-854.13321 -723.11916 -59.141465)
(-882.80109 -738.52307 -54.552048)
(-909.44693 -753.53559 -51.152077)
(-933.75136 -768.33483 -49.279577)
(-955.59037 -783.13145 -49.176532)
(-975.02475 -798.19405 -50.960918)
(-992.34895 -813.80398 -54.626786)
(-1008.0499 -830.26553 -60.016127)
(-1022.8246 -847.87157 -66.851874)
(-1037.5377 -866.89005 -74.700002)
(-1053.1615 -887.52905 -83.102723)
(-1070.7904 -909.94671 -91.374763)
(-1091.5026 -934.20525 -99.012147)
(-1116.1944 -960.29939 -105.33702)
(-1146.2062 -988.01982 -109.63703)
(-1181.7609 -1017.1916 -111.62785)
(-1223.7448 -1047.2419 -110.84669)
(-1272.4771 -1078.0764 -106.91788)
(-1327.746 -1108.7533 -99.496005)
(-1389.1603 -1139.0767 -89.376665)
(-1456.427 -1168.2812 -76.214488)
(-1528.402 -1195.7 -60.678718)
(-1604.0094 -1220.8982 -43.228624)
(-1681.9419 -1243.3214 -24.62257)
(-1760.7 -1262.6616 -5.5793809)
(-1838.8709 -1278.6158 13.067095)
(-1914.9081 -1291.1732 30.525089)
(-1987.5649 -1300.2774 46.080212)
(-2055.6816 -1306.343 59.062352)
(-2118.2641 -1309.6016 68.998998)
(-2174.915 -1310.672 75.584424)
(-2225.3031 -1310.1859 78.689083)
(-2269.6322 -1308.747 78.308359)
(-2308.1892 -1307.148 74.800019)
(-2341.9388 -1306.3263 68.581646)
(-2371.9092 -1306.8046 60.310156)
(-2399.6082 -1309.3812 50.788797)
(-2426.1059 -1314.41 40.584668)
(-2453.3624 -1322.428 30.792106)
(-2482.2696 -1333.2756 21.923229)
(-2514.385 -1347.3743 14.470013)
(-2550.2011 -1363.6765 9.3564686)
(-2590.6032 -1381.4508 5.1328932)
(-2633.833 -1400.0735 3.2230651)
(-23.24195 39.392936 55.304588)
(-60.346473 61.257601 46.608592)
(-90.215368 81.804413 55.58557)
(-121.77604 94.599323 51.934568)
(-159.01421 106.06758 48.865968)
(-196.46495 114.78717 42.82548)
(-234.67615 119.03477 36.045858)
(-273.05776 121.75149 28.184036)
(-310.6762 121.3756 20.091111)
(-346.44654 119.47933 12.088389)
(-380.51351 115.99887 4.2220967)
(-411.67719 111.78919 -2.8253192)
(-440.25636 107.31438 -9.0683523)
(-465.70719 102.86669 -14.213014)
(-488.40828 99.23743 -18.13059)
(-507.94922 96.242876 -20.698896)
(-525.06629 94.677685 -21.933093)
(-539.44987 94.253077 -21.573864)
(-551.96603 95.153061 -20.081672)
(-562.62834 97.596206 -17.17133)
(-571.75444 101.03659 -13.191942)
(-579.89178 105.63183 -8.229702)
(-587.21562 111.18766 -2.5477641)
(-593.90473 117.1872 3.7601792)
(-600.46499 123.8328 10.240523)
(-606.94047 130.69836 16.906867)
(-613.41215 137.57554 23.299558)
(-620.365 144.44432 29.380829)
(-627.552 151.11269 34.731543)
(-635.40845 157.58727 39.3842)
(-643.82677 163.80059 43.035487)
(-653.22701 169.68823 45.601733)
(-663.58772 175.39649 46.951264)
(-675.12752 180.84708 47.031745)
(-688.16434 185.99983 45.868575)
(-702.7592 190.98851 43.213878)
(-719.03614 195.6889 39.566068)
(-737.21043 200.06346 34.711667)
(-757.5194 203.92002 28.75742)
(-779.92808 207.27178 21.886818)
(-804.49206 209.86052 14.270446)
(-831.09502 211.56705 6.1341114)
(-859.63915 212.19617 -2.3388431)
(-889.8532 211.60225 -10.881488)
(-921.44724 209.65021 -19.262676)
(-954.01804 206.25538 -27.214158)
(-987.13268 201.38538 -34.489504)
(-1020.3141 195.07411 -40.844419)
(-1053.0847 187.42398 -46.062519)
(-1084.9905 178.6075 -49.958112)
(-1115.6402 168.86299 -52.392629)
(-1144.728 158.48159 -53.279121)
(-1172.0682 147.79437 -52.59558)
(-1197.6221 137.15292 -50.387188)
(-1221.4986 126.90554 -46.769842)
(-1243.9849 117.37518 -41.933075)
(-1265.5226 108.83502 -36.129527)
(-1286.7085 101.48702 -29.674695)
(-1308.2654 95.439657 -22.929312)
(-1331.0159 90.701275 -16.288521)
(-1355.8316 87.159896 -10.165706)
(-1383.5998 84.595858 -4.9653017)
(-1415.1607 82.668524 -1.077112)
(-1451.2614 80.964802 1.160847)
(-1492.5093 78.953062 1.4766411)
(-1539.3071 76.094899 -0.32103178)
(-1591.8309 71.865694 -4.3311415)
(-1650.1908 65.528904 -10.563808)
(-1713.6841 56.827264 -18.811777)
(-1781.8698 45.084861 -28.944531)
(-1854.0712 30.186522 -40.332279)
(-1928.97 11.853401 -52.833347)
(-2005.507 -9.9361985 -65.769433)
(-2082.2553 -35.00949 -78.55603)
(-2157.831 -63.10625 -90.613974)
(-2230.9084 -93.787494 -101.34444)
(-2300.253 -126.4633 -110.22621)
(-2364.79 -160.49547 -116.78797)
(-2423.7345 -195.13255 -120.69804)
(-2476.5277 -229.62701 -121.72169)
(-2522.9971 -263.23962 -119.78922)
(-2563.2558 -295.28422 -114.97235)
(-2597.7684 -325.17854 -107.47763)
(-2627.3004 -352.45312 -97.662269)
(-2652.8758 -376.81079 -85.969417)
(-2675.7228 -398.10698 -72.951338)
(-2697.2096 -416.39898 -59.193449)
(-2718.7485 -431.90833 -45.299467)
(-2741.7315 -445.03771 -31.860471)
(-2767.4176 -456.34275 -19.374315)
(-2796.8291 -466.52248 -8.249403)
(-2830.6775 -476.33708 1.2827582)
(-2869.169 -486.69403 9.2097603)
(-2911.8824 -498.38965 15.751993)
(-2957.2351 -512.22062 21.500786)
(3.2927448e-15 -1.3239155e-15 2.3845803e-16)
(2.4470133e-15 -9.6672015e-16 3.215493e-17)
(-9.0574249e-15 9.0550918e-16 6.4029168e-16)
(-1.2642219e-16 -5.721845e-16 4.4370095e-16)
(-7.6811722e-15 -4.9270561e-16 4.1193361e-16)
(-7.3893964e-15 2.7533729e-15 -1.0951501e-15)
(-3.2915852e-15 -8.1743692e-16 3.8364228e-16)
(-1.9032499e-15 5.3200654e-16 -8.2319016e-17)
(-4.7409759e-15 -4.8623412e-16 4.3918642e-16)
(-1.2869644e-14 1.1845665e-15 6.4228907e-16)
(-9.6157521e-15 1.4157374e-15 5.9836601e-16)
(-9.4077204e-15 4.9518432e-16 1.1192419e-15)
(-5.982767e-15 2.6210694e-16 3.0473736e-16)
(-1.1478475e-14 -5.3386198e-16 1.6580808e-15)
(-5.257323e-15 3.6289085e-16 2.8600704e-16)
(-32.151331 18.602547 -38.971954)
(-63.971896 67.422649 -44.126952)
(-91.940309 73.723627 -39.931118)
(-131.24755 97.219324 -38.845527)
(-165.91172 105.17404 -33.561814)
(-205.03866 116.15966 -27.752212)
(-242.09241 120.38569 -23.424559)
(-279.36037 124.57823 -19.650591)
(-314.02786 123.87606 -17.668383)
(-346.64885 122.45526 -17.34496)
(-375.35638 117.7016 -18.317966)
(-402.63855 113.41649 -21.112283)
(-424.59646 105.96622 -25.288971)
(-445.28534 100.11969 -30.152753)
(-461.20884 92.002816 -36.441734)
(-476.03698 85.753301 -41.88111)
(-487.85619 79.424389 -48.311167)
(-498.0172 73.041522 -53.874198)
(-507.15173 68.963755 -58.417136)
(-515.40488 64.54799 -62.347795)
(-523.3811 62.071754 -64.48722)
(-531.5063 60.552719 -65.551212)
(-539.64404 60.088071 -65.272895)
(-548.7196 61.047971 -63.652736)
(-557.94838 62.715427 -60.793174)
(-568.27164 65.765035 -57.331938)
(-578.83171 69.541302 -53.202028)
(-590.10073 74.496673 -48.784676)
(-601.73352 80.137776 -44.775561)
(-613.54546 86.726146 -40.972105)
(-625.74221 93.872189 -38.052242)
(-638.05851 101.74026 -36.129682)
(-650.48726 109.93323 -35.383087)
(-663.30046 118.55291 -35.886144)
(-676.21299 126.81038 -37.291803)
(-690.1174 135.75089 -40.175527)
(-704.32411 143.46929 -43.781354)
(-719.93996 150.89281 -47.86492)
(-736.78581 157.28305 -52.262494)
(-755.28083 162.46301 -56.577022)
(-775.58353 166.11101 -60.451153)
(-797.90418 168.03429 -63.559789)
(-822.29838 168.02558 -65.642669)
(-848.76735 165.97922 -66.500226)
(-877.18625 161.83382 -66.015414)
(-907.3493 155.64611 -64.19518)
(-938.92949 147.53223 -61.125556)
(-971.5497 137.72615 -57.015308)
(-1004.7534 126.5243 -52.150666)
(-1038.076 114.31042 -46.900178)
(-1071.049 101.5159 -41.679212)
(-1103.2559 88.607734 -36.926991)
(-1134.3508 76.061748 -33.08206)
(-1164.1011 64.330291 -30.536324)
(-1192.4113 53.82491 -29.628461)
(-1219.3356 44.870152 -30.591811)
(-1245.098 37.704973 -33.559019)
(-1270.084 32.435433 -38.522132)
(-1294.8293 29.043638 -45.348889)
(-1320.0054 27.366959 -53.763153)
(-1346.373 27.103645 -63.371665)
(-1374.7555 27.826548 -73.670142)
(-1405.9813 28.991783 -84.080626)
(-1440.8311 29.970993 -93.969367)
(-1479.9794 30.090329 -102.71707)
(-1524.028 28.6292 -109.71013)
(-1573.1099 25.018758 -114.35407)
(-1627.8603 17.891888 -116.30508)
(-1686.8761 8.3679729 -115.15884)
(-1751.8101 -4.9278226 -111.19349)
(-1820.1313 -22.85363 -103.81574)
(-1891.7691 -44.43695 -93.69686)
(-1965.5651 -69.952372 -81.048651)
(-2040.1858 -98.969801 -66.465525)
(-2114.4133 -131.02744 -50.558658)
(-2186.9159 -165.46796 -34.051593)
(-2256.4666 -201.53844 -17.690068)
(-2321.9687 -238.41047 -2.2080656)
(-2382.5369 -275.22475 11.7227)
(-2437.5319 -311.14731 23.531263)
(-2486.6247 -345.39798 32.779001)
(-2529.7886 -377.3081 39.193061)
(-2567.3334 -406.34821 42.67609)
(-2599.8641 -432.1564 43.322814)
(-2628.2696 -454.5655 41.395065)
(-2653.6511 -473.59217 37.329172)
(-2677.2796 -489.47186 31.680756)
(-2700.4985 -502.58778 25.108946)
(-2724.6504 -513.53214 18.308429)
(-2750.9813 -522.97061 11.972607)
(-2780.5186 -531.72888 6.7116473)
(-2814.0014 -540.60525 2.9922295)
(-2851.6641 -550.48207 1.0473348)
(-2893.0363 -562.09918 0.78881822)
(-2937.2536 -575.79111 1.6273457)
(-2964.7236 -635.15937 -1.6296683)
(-2951.171 -679.95046 -5.0639092)
(-2938.3662 -727.97852 -7.1855813)
(-2923.9853 -781.68238 -7.3972319)
(-2907.8868 -837.69981 -5.4679991)
(-2889.7524 -899.32381 -2.1843791)
(-2868.2082 -961.48836 3.2914851)
(-2845.1352 -1025.9865 9.1394939)
(-2819.9524 -1090.1303 15.546311)
(-2792.6931 -1152.7352 21.534743)
(-2764.9042 -1212.7165 26.358521)
(-2739.2109 -1269.1514 30.199217)
(-2712.2934 -1322.5955 30.796495)
(-2690.0927 -1371.3352 31.110059)
(-2668.3241 -1418.9373 28.078868)
(-2601.8042 -1448.978 19.386346)
(-2555.9569 -1428.5693 14.000209)
(-2512.4515 -1409.8076 7.1731304)
(-2472.7606 -1392.9996 0.016631399)
(-2436.6139 -1379.1608 -8.8004892)
(-2403.4828 -1368.9005 -19.154144)
(-2372.2077 -1362.2129 -30.777763)
(-2341.8123 -1358.9905 -43.503385)
(-2311.0379 -1358.8293 -56.817599)
(-2278.652 -1361.0908 -70.272424)
(-2243.5587 -1365.0662 -83.223306)
(-2204.7127 -1369.8078 -95.1898)
(-2161.4334 -1374.4607 -105.58745)
(-2113.286 -1378.0195 -114.0745)
(-2060.0089 -1379.7259 -120.17494)
(-2001.5362 -1378.6774 -123.61486)
(-1938.2574 -1374.2342 -124.15697)
(-1870.8304 -1365.9399 -121.90948)
(-1800.1304 -1353.4868 -116.94112)
(-1727.2053 -1336.8161 -109.53681)
(-1653.2597 -1316.0281 -100.03737)
(-1579.5015 -1291.4394 -88.905482)
(-1507.2462 -1263.5364 -76.628561)
(-1437.4544 -1232.9041 -63.702696)
(-1371.5256 -1200.4361 -50.738019)
(-1309.8704 -1166.5707 -38.386246)
(-1253.1312 -1132.4228 -26.492126)
(-1203.4708 -1098.3031 -15.888746)
(-1157.708 -1065.7709 -7.8102836)
(-1118.5209 -1034.663 -0.68466323)
(-1084.3613 -1005.7424 4.2669477)
(-1055.2928 -979.29381 7.2274134)
(-1030.3669 -955.47814 8.3372239)
(-1008.9102 -934.28226 7.7378575)
(-990.06949 -915.56869 5.702019)
(-972.98463 -899.05776 2.5290847)
(-956.81746 -884.37022 -1.4241959)
(-940.80812 -871.04233 -5.7932517)
(-924.29487 -858.57679 -10.211083)
(-906.75417 -846.45786 -14.335979)
(-887.80969 -834.20108 -17.861504)
(-867.25035 -821.36412 -20.536796)
(-845.0155 -807.58955 -22.168077)
(-821.19933 -792.60241 -22.634538)
(-796.01399 -776.24233 -21.875883)
(-769.78243 -758.44551 -19.906374)
(-742.89044 -739.26506 -16.78851)
(-715.77359 -718.83616 -12.651471)
(-688.87333 -697.38846 -7.6450123)
(-662.61032 -675.20362 -1.9745277)
(-637.37017 -652.61154 4.1730474)
(-613.48546 -629.95129 10.545988)
(-591.18791 -607.56696 16.960941)
(-570.70335 -585.76024 23.236018)
(-552.11588 -564.90364 29.079861)
(-535.33543 -545.14038 34.42313)
(-520.34474 -526.49265 39.137771)
(-507.20699 -509.6355 43.087038)
(-496.2795 -493.0099 46.083376)
(-486.08295 -479.00479 48.213467)
(-477.47878 -465.94821 49.549027)
(-470.88459 -453.04237 49.847807)
(-464.50071 -442.43458 48.995288)
(-459.74444 -431.80547 47.722586)
(-455.81988 -421.96307 45.367393)
(-453.16621 -412.23923 42.5959)
(-451.23788 -403.44878 38.638145)
(-450.53813 -394.19865 34.649119)
(-450.55806 -385.61933 30.08122)
(-451.60592 -376.72421 25.176197)
(-453.48691 -367.90848 20.210936)
(-455.60669 -359.37146 15.433006)
(-458.53037 -350.89215 10.699237)
(-461.55578 -342.23222 6.2477226)
(-464.1757 -334.45781 2.9605769)
(-466.18486 -326.31248 -0.36045642)
(-467.39738 -318.96866 -1.8157706)
(-466.66033 -311.29495 -3.0914817)
(-464.44292 -304.29515 -2.1930854)
(-458.89801 -297.36975 -0.20636494)
(-450.85425 -290.06661 3.0753923)
(-439.56989 -282.12518 7.9490759)
(-424.23568 -275.18326 15.589716)
(-404.93965 -266.58337 23.24032)
(-381.77946 -257.38973 33.069429)
(-355.20826 -247.19139 44.254179)
(-324.13116 -236.23455 55.865423)
(-291.05931 -222.9779 67.623512)
(-254.67851 -209.139 79.412368)
(-217.59927 -192.97122 89.924541)
(-180.3214 -174.3944 97.753501)
(-143.90233 -154.6517 102.44091)
(-108.65957 -135.98007 102.14078)
(-79.923871 -107.25962 83.127931)
(-68.649326 -85.220094 54.407533)
(-6.8708141e-15 1.5083581e-15 1.9262289e-16)
(-1.2504183e-14 5.7375616e-16 8.4327435e-16)
(-8.3449101e-15 1.4891922e-15 5.3018253e-16)
(-4.9731758e-15 1.4991158e-15 6.2376313e-16)
(-3.4146159e-15 1.5624416e-15 3.1576894e-17)
(2.0582335e-15 9.3962624e-16 -5.746342e-16)
(2.2101935e-15 3.7457559e-17 -1.1841335e-16)
(2.4553765e-15 -8.5141669e-16 -9.3419562e-16)
(1.2987427e-15 1.0081898e-16 1.7950851e-15)
(-4.5074861e-15 9.063971e-16 1.0710522e-15)
(-5.2682467e-15 2.1856155e-15 1.0652666e-15)
(-7.4917339e-15 1.915055e-15 2.2418828e-16)
(-9.400838e-15 1.3708275e-15 6.2833768e-16)
(-6.2048683e-15 1.3247981e-15 5.4317906e-16)
(-6.971104e-15 1.5128103e-15 7.5678131e-16)
(-1.2693866e-14 6.2923345e-15 -2.1364834e-15)
(-5.2452578e-15 2.6791924e-15 -5.3037742e-16)
(-1.0752404e-15 9.8318743e-16 -1.0111087e-16)
(-2.7353382e-15 1.7746034e-15 7.3085398e-17)
(1.0178949e-15 -1.5450237e-16 -4.119182e-16)
(-1.4303492e-15 4.136346e-16 -3.3264033e-16)
(-1.0059749e-14 4.7133437e-15 -1.6449855e-15)
(2.9801421e-15 -1.9180379e-15 -8.3172098e-16)
(-4.79756e-15 2.8035442e-15 1.1420498e-15)
(-5.4778068e-15 3.5047253e-15 -3.934403e-16)
(-1.8117877e-15 1.1581936e-15 -9.1309836e-16)
(-3.9812639e-16 4.7407236e-16 -2.2932148e-16)
(-1.5272242e-15 1.100363e-15 -2.2557932e-16)
(-4.1024849e-15 1.9838802e-15 2.8069696e-17)
(-5.3424143e-16 2.551799e-16 -1.9455919e-16)
(-3000.6419 -534.55923 27.666639)
(-2998.0506 -541.58589 26.389809)
(-2994.7075 -548.63425 24.419069)
(-2990.9403 -555.48294 22.357353)
(-2986.7838 -561.90116 20.297917)
(-2982.7334 -567.97455 18.508103)
(-2979.0425 -573.42914 16.739704)
(-2975.9707 -578.32737 15.068822)
(-2973.676 -582.49779 13.29252)
(-2972.3017 -585.92902 11.373082)
(-2971.7852 -588.46532 9.2460253)
(-2972.3411 -590.14395 6.9548818)
(-2973.56 -590.92258 4.6580107)
(-2975.4935 -591.13499 2.8545784)
(-2977.9022 -590.67792 1.6586982)
(-2675.0168 -1411.973 -0.41615783)
(-2672.9343 -1407.2801 0.89590869)
(-2670.5911 -1403.4199 3.3968443)
(-2668.4469 -1400.9681 6.1369421)
(-2665.883 -1399.8032 8.8565614)
(-2663.6761 -1400.4481 11.330466)
(-2661.6906 -1402.8007 13.599024)
(-2660.0584 -1406.7953 15.608183)
(-2658.757 -1412.2739 17.456997)
(-2657.7329 -1419.024 19.201724)
(-2656.864 -1426.7173 20.960032)
(-2655.9203 -1435.0496 22.655247)
(-2654.8331 -1443.5994 24.397227)
(-2653.3043 -1452.0644 25.78101)
(-2651.4744 -1459.7227 26.419008)
(-25.842279 -57.01567 -70.416692)
(-59.498478 -73.618515 -76.672085)
(-93.244429 -98.35634 -87.848652)
(-131.6229 -118.62009 -87.581969)
(-168.77116 -138.16263 -84.793379)
(-208.10446 -157.25534 -79.117784)
(-245.46353 -175.49646 -72.624438)
(-281.723 -193.21337 -65.935105)
(-314.51173 -209.09953 -60.125836)
(-344.44319 -224.19219 -55.108772)
(-369.98931 -237.15548 -51.582885)
(-391.74554 -248.94408 -49.554127)
(-409.34228 -258.22612 -48.834398)
(-423.17277 -266.36729 -49.406263)
(-433.31709 -272.31556 -50.915799)
(-440.55486 -277.27075 -53.124884)
(-445.35073 -280.54408 -55.500904)
(-448.22535 -283.25183 -57.964136)
(-449.7859 -285.17616 -59.99212)
(-450.55168 -286.87337 -61.40459)
(-451.14174 -288.63637 -61.985584)
(-451.66016 -290.84508 -61.732947)
(-452.6718 -293.62166 -60.402292)
(-454.19916 -297.30961 -58.376221)
(-456.4066 -302.07014 -55.52779)
(-459.28195 -307.92122 -52.220634)
(-462.72305 -315.14922 -48.65985)
(-466.66971 -323.42813 -45.152056)
(-471.03172 -333.0419 -42.054205)
(-475.57051 -343.71366 -39.524288)
(-480.30143 -355.31211 -37.866858)
(-485.16931 -367.84581 -37.366904)
(-490.29429 -381.10198 -37.965128)
(-495.57162 -395.07425 -39.764834)
(-501.37954 -409.28049 -42.851767)
(-507.97692 -424.14581 -46.818951)
(-515.58939 -439.2149 -51.51394)
(-524.65585 -454.5076 -56.919221)
(-535.46913 -470.12359 -62.376494)
(-548.38267 -485.90801 -67.803524)
(-563.67125 -501.95968 -72.690843)
(-581.57029 -518.23924 -76.934142)
(-602.11743 -534.70113 -79.983108)
(-625.28526 -551.45787 -81.92238)
(-651.01327 -568.41621 -82.469306)
(-678.9229 -585.56672 -81.684534)
(-708.64286 -602.86367 -79.618121)
(-739.62562 -620.2591 -76.451467)
(-771.28179 -637.68067 -72.428623)
(-802.95351 -655.06519 -67.879971)
(-833.99001 -672.34569 -63.166053)
(-863.77278 -689.46755 -58.682672)
(-891.76646 -706.40173 -54.807913)
(-917.56429 -723.13442 -51.901695)
(-940.91472 -739.69732 -50.251759)
(-961.76539 -756.14427 -50.073769)
(-980.26714 -772.57794 -51.476316)
(-996.79299 -789.1211 -54.462629)
(-1011.9204 -805.93627 -58.904721)
(-1026.4211 -823.20057 -64.573645)
(-1041.2214 -841.08874 -71.11893)
(-1057.3543 -859.79271 -78.132669)
(-1075.9132 -879.43762 -85.057411)
(-1097.9981 -900.18321 -91.47881)
(-1124.5471 -922.05577 -96.70888)
(-1156.7572 -945.0762 -100.31828)
(-1194.9085 -969.21699 -102.0086)
(-1239.5977 -994.47088 -101.12414)
(-1290.9465 -1020.2619 -97.857919)
(-1349.0382 -1046.5359 -91.53005)
(-1413.1943 -1073.0544 -82.783479)
(-1482.816 -1099.0825 -71.557291)
(-1556.8418 -1124.4201 -58.227251)
(-1634.0612 -1148.6042 -43.284479)
(-1713.0838 -1171.1973 -27.296803)
(-1792.3924 -1191.8546 -10.931138)
(-1870.5158 -1210.266 5.1501495)
(-1945.9732 -1226.2511 20.258917)
(-2017.5125 -1239.6704 33.783989)
(-2084.0056 -1250.5678 45.162121)
(-2144.6888 -1259.0791 54.021749)
(-2199.116 -1265.3442 59.979576)
(-2247.183 -1269.89 63.039111)
(-2289.2343 -1273.049 63.259449)
(-2325.5508 -1275.4318 60.818492)
(-2357.4613 -1277.2863 56.234443)
(-2385.8693 -1279.4162 49.758564)
(-2412.51 -1282.375 42.157103)
(-2438.4317 -1286.5206 33.955257)
(-2465.5488 -1292.6078 25.851532)
(-2494.9036 -1300.6819 18.331015)
(-2527.5075 -1311.1079 11.79032)
(-2564.6215 -1324.2149 6.5116435)
(-2605.5156 -1338.9283 1.9254795)
(-2649.7851 -1356.1109 -1.6535781)
(-15.207343 -45.882317 -56.102971)
(-47.663448 -50.955241 -69.533394)
(-85.649554 -76.506036 -76.9363)
(-122.7316 -92.200038 -79.177552)
(-162.17745 -112.09263 -76.03884)
(-201.51023 -130.20972 -71.952698)
(-239.96499 -149.35736 -66.35348)
(-276.13554 -167.0757 -61.131903)
(-309.96024 -184.63149 -56.20945)
(-340.20468 -200.59044 -52.128952)
(-366.66481 -215.55508 -49.458356)
(-389.05169 -228.48505 -47.617853)
(-407.39076 -239.96938 -47.364285)
(-421.84508 -249.32276 -47.717467)
(-432.75221 -257.17179 -49.252081)
(-440.6841 -263.0364 -50.837083)
(-445.87568 -267.65455 -53.123797)
(-449.36159 -270.92713 -54.872819)
(-451.20935 -273.40544 -56.565559)
(-452.39117 -275.17854 -57.464422)
(-453.0744 -276.91663 -57.795765)
(-453.84773 -278.62117 -57.108225)
(-454.85282 -280.85111 -55.796419)
(-456.41024 -283.71566 -53.538996)
(-458.50275 -287.56797 -50.787834)
(-461.27476 -292.41608 -47.496011)
(-464.5802 -298.48572 -44.124813)
(-468.41667 -305.71301 -40.753379)
(-472.5731 -314.17767 -37.765921)
(-477.07672 -323.6814 -35.36421)
(-481.81484 -334.25506 -33.830163)
(-486.75679 -345.68109 -33.239569)
(-491.95206 -357.8243 -33.737022)
(-497.56844 -370.53837 -35.387309)
(-503.82807 -383.77898 -38.095842)
(-510.88639 -397.27236 -41.793828)
(-519.24432 -411.0772 -46.207159)
(-529.02624 -425.12616 -51.150595)
(-540.68515 -439.3072 -56.36178)
(-554.50198 -453.7087 -61.492093)
(-570.74608 -468.2763 -66.203233)
(-589.53106 -483.14936 -70.430993)
(-611.00938 -498.22284 -73.597358)
(-635.03859 -513.67178 -75.695875)
(-661.4817 -529.44228 -76.685908)
(-690.00524 -545.56243 -76.441088)
(-720.16297 -562.03473 -75.052549)
(-751.4286 -578.81356 -72.639012)
(-783.18522 -595.85668 -69.42826)
(-814.79268 -613.08414 -65.685626)
(-845.61062 -630.42583 -61.730528)
(-875.05069 -647.78629 -57.900755)
(-902.61053 -665.09732 -54.53286)
(-927.93121 -682.28139 -51.94122)
(-950.80711 -699.30657 -50.384465)
(-971.24428 -716.14764 -50.06261)
(-989.44121 -732.83267 -51.080783)
(-1005.8245 -749.40951 -53.452957)
(-1021.0155 -765.97835 -57.086627)
(-1035.8197 -782.65234 -61.794143)
(-1051.1888 -799.58738 -67.290914)
(-1068.1612 -816.9298 -73.21662)
(-1087.8306 -834.87263 -79.121304)
(-1111.2919 -853.50401 -84.684615)
(-1139.4116 -873.09254 -89.10363)
(-1173.3188 -893.42634 -92.604156)
(-1213.0291 -914.79249 -93.972246)
(-1259.4238 -937.21047 -93.664788)
(-1312.8118 -960.22372 -90.919394)
(-1372.7208 -984.05694 -85.857149)
(-1438.6152 -1008.2781 -78.529535)
(-1509.6841 -1032.5782 -69.060359)
(-1584.9478 -1056.7324 -57.757759)
(-1663.0542 -1080.3448 -44.969362)
(-1742.6125 -1103.0085 -31.247418)
(-1822.0943 -1124.4228 -17.074963)
(-1900.0157 -1144.2018 -3.0872841)
(-1974.9213 -1162.1283 10.182442)
(-2045.6091 -1177.9366 22.166854)
(-2111.0011 -1191.5873 32.410752)
(-2170.4417 -1202.9978 40.543081)
(-2223.498 -1212.2698 46.307448)
(-2270.0185 -1219.699 49.60519)
(-2310.628 -1225.6609 50.182659)
(-2345.9787 -1229.7515 48.700765)
(-2376.9254 -1233.5058 45.180162)
(-2404.5858 -1236.7984 40.181333)
(-2430.6161 -1240.3893 34.092317)
(-2456.1702 -1244.8294 27.369722)
(-2482.9997 -1250.576 20.585052)
(-2512.3368 -1258.1453 14.132905)
(-2544.7846 -1267.9461 8.1727751)
(-2581.8788 -1280.3078 3.1872147)
(-2622.9444 -1294.5066 -1.8761371)
(-2667.304 -1311.6512 -5.6555777)
(-12.128876 -34.649626 -49.529606)
(-43.279065 -40.67625 -58.703008)
(-76.443595 -58.038792 -67.67204)
(-115.04086 -73.281965 -69.113803)
(-154.13986 -90.242075 -67.083713)
(-194.37744 -108.25695 -63.856035)
(-232.51096 -125.95468 -59.722589)
(-270.08662 -144.12728 -55.535985)
(-304.14144 -160.99985 -51.679937)
(-335.27143 -177.96199 -48.765388)
(-362.42522 -192.75788 -46.570167)
(-385.78754 -206.97149 -45.599472)
(-404.92307 -218.64419 -45.371546)
(-420.3642 -229.27785 -46.142886)
(-432.20934 -237.47532 -47.262187)
(-440.85802 -244.31765 -49.103441)
(-447.07033 -249.29822 -50.677986)
(-451.12248 -253.06074 -52.308895)
(-453.72989 -255.66151 -53.451733)
(-455.38582 -257.51808 -54.101132)
(-456.54875 -258.99163 -53.923352)
(-457.58031 -260.3016 -53.125136)
(-458.85342 -261.98218 -51.431277)
(-460.51337 -264.06763 -49.138561)
(-462.70791 -267.043 -46.226368)
(-465.47626 -270.83944 -42.999871)
(-468.78172 -275.8385 -39.588302)
(-472.5591 -281.85929 -36.27441)
(-476.80054 -289.07257 -33.34034)
(-481.31994 -297.30758 -30.952166)
(-486.18786 -306.55723 -29.350698)
(-491.32416 -316.63027 -28.680688)
(-496.88746 -327.4388 -29.063828)
(-502.92055 -338.83172 -30.497515)
(-509.68643 -350.62806 -32.966876)
(-517.38332 -362.81625 -36.332473)
(-526.3849 -375.24132 -40.437652)
(-536.94331 -387.86576 -45.125859)
(-549.47928 -400.71335 -50.03338)
(-564.1555 -413.70999 -54.956747)
(-581.24429 -427.00643 -59.649254)
(-600.86139 -440.5521 -63.782806)
(-623.10999 -454.40382 -67.152442)
(-647.8588 -468.7533 -69.55128)
(-674.87159 -483.50483 -70.960876)
(-703.8419 -498.73351 -71.272227)
(-734.31792 -514.45325 -70.52674)
(-765.75991 -530.62897 -68.840675)
(-797.55994 -547.21448 -66.380035)
(-829.09387 -564.13159 -63.378207)
(-859.74037 -581.28835 -60.100622)
(-888.93951 -598.56908 -56.846638)
(-916.2273 -615.87325 -53.903118)
(-941.27776 -633.08517 -51.555316)
(-963.93247 -650.12964 -50.033742)
(-984.23105 -666.93425 -49.529115)
(-1002.4142 -683.4824 -50.142369)
(-1018.9389 -699.78033 -51.910896)
(-1034.4524 -715.88373 -54.768179)
(-1049.7767 -731.88707 -58.575474)
(-1065.8676 -747.915 -63.099927)
(-1083.7594 -764.13541 -68.037688)
(-1104.5604 -780.69896 -73.081988)
(-1129.2249 -797.8074 -77.754111)
(-1158.8486 -815.58167 -81.795339)
(-1194.0553 -834.1142 -84.74911)
(-1235.6275 -853.81123 -86.235338)
(-1283.9382 -874.16929 -85.985252)
(-1338.4922 -895.15973 -83.887001)
(-1399.6272 -917.39464 -79.899061)
(-1466.5236 -940.35723 -73.958461)
(-1538.4204 -963.79388 -66.170026)
(-1614.2003 -987.42506 -56.799186)
(-1692.5669 -1010.927 -46.200291)
(-1772.112 -1033.8992 -34.678454)
(-1851.312 -1056.0199 -22.772065)
(-1928.7195 -1076.9094 -10.898998)
(-2002.9335 -1096.2868 0.43453204)
(-2072.7605 -1113.857 10.791705)
(-2137.2259 -1129.4505 19.755251)
(-2195.6591 -1142.9441 27.050251)
(-2247.7307 -1154.3475 32.37679)
(-2293.5398 -1163.7796 35.794453)
(-2333.1118 -1171.3924 37.132946)
(-2367.3956 -1177.5607 36.522035)
(-2397.8804 -1182.6286 34.228695)
(-2425.0676 -1187.0714 30.694763)
(-2450.7427 -1191.625 26.125103)
(-2476.009 -1196.5063 20.981031)
(-2502.6973 -1202.6294 15.603601)
(-2531.7558 -1210.21 10.353393)
(-2563.9717 -1219.8867 5.2201254)
(-2600.9276 -1232.1644 0.72598003)
(-2641.8909 -1246.1897 -4.206738)
(-2686.5527 -1263.2205 -8.4040202)
(-10.696226 -28.775382 -40.643797)
(-38.494916 -32.212585 -50.299)
(-71.886793 -46.696791 -57.022128)
(-108.54733 -58.518431 -59.689986)
(-148.07626 -73.904122 -58.172796)
(-187.03645 -89.465338 -56.417189)
(-226.49221 -106.67808 -52.955694)
(-263.57076 -123.08967 -49.860951)
(-298.31536 -140.08583 -47.221946)
(-329.9939 -155.84779 -44.80602)
(-358.08786 -170.99753 -43.671761)
(-382.13119 -184.43565 -42.827822)
(-402.41258 -196.63093 -43.26162)
(-418.91002 -206.87174 -43.72613)
(-431.69787 -215.37505 -45.325218)
(-441.63336 -222.10967 -46.464304)
(-448.68837 -227.22982 -48.121037)
(-453.80914 -230.8191 -49.227747)
(-457.2219 -233.31789 -50.174736)
(-459.69515 -234.81965 -50.276559)
(-461.40534 -235.87028 -49.974482)
(-463.04589 -236.61299 -48.724327)
(-464.64271 -237.54184 -46.947129)
(-466.63249 -238.77446 -44.408291)
(-468.99552 -240.74172 -41.503265)
(-471.91729 -243.45846 -38.168213)
(-475.29137 -247.2389 -34.809486)
(-479.20654 -251.9685 -31.52214)
(-483.47645 -257.84528 -28.617475)
(-488.17866 -264.68796 -26.23134)
(-493.217 -272.52034 -24.651987)
(-498.65326 -281.15938 -23.918185)
(-504.55551 -290.5524 -24.192067)
(-511.05151 -300.49193 -25.456422)
(-518.40649 -310.92455 -27.720943)
(-526.75004 -321.70838 -30.849949)
(-536.5599 -332.77853 -34.736966)
(-548.02544 -344.12362 -39.151112)
(-561.35833 -355.62527 -43.902486)
(-576.81441 -367.48221 -48.730122)
(-594.70902 -379.55242 -53.332498)
(-615.06204 -392.01076 -57.510241)
(-637.94503 -404.86988 -61.058735)