/*--------------------------------*- C++ -*----------------------------------*\
  =========                 |
  \\      /  F ield         | OpenFOAM: The Open Source CFD Toolbox
   \\    /   O peration     | Website:  https://openfoam.org
    \\  /    A nd           | Version:  6
     \\/     M anipulation  |
\*---------------------------------------------------------------------------*/
FoamFile
{
    version     2.0;
    format      ascii;
    class       pointVectorField;
    location    "1.24";
    object      u;
}
// * * * * * * * * * * * * * * * * * * * * * * * * * * * * * * * * * * * * * //

dimensions      [0 1 0 0 0 0 0];

internalField   nonuniform List<vector> 
28033
(
(0 5.4844848e-19 0)
(0 3.7556114e-18 0)
(-1.666958 -0.43756736 0.001241336)
(-1.7299865 -0.088194997 0.0019065414)
(0 3.3917716e-18 0)
(0 5.5241956e-18 0)
(-1.7303013 -0.089229519 0.0019018339)
(-1.6672963 -0.43863814 0.0012437417)
(0 1.1875513e-18 0)
(0 3.4292821e-19 0)
(0 2.7393704e-18 0)
(0 -1.30053e-18 0)
(0 1.7518992e-18 0)
(0 -1.0382257e-18 0)
(0 -2.5087305e-20 0)
(-8.3681817e-19 -2.7298426e-19 0)
(0 5.1343281e-19 0)
(0 2.5550753e-19 0)
(0 -9.8331553e-19 0)
(0 9.520492e-19 0)
(0 1.1384847e-18 0)
(0 -9.1313287e-19 0)
(0 1.1609487e-18 0)
(-1.6708932 -0.41574715 0.0012747204)
(-1.674834 -0.39392817 0.0013076743)
(-1.6787791 -0.37210647 0.0013427949)
(-1.6827286 -0.35027615 0.0013827539)
(-1.6866765 -0.32844124 0.0014231898)
(-1.6906262 -0.30659937 0.001468984)
(-1.694574 -0.28475313 0.0015141263)
(-1.6985197 -0.26290271 0.001562519)
(-1.7024624 -0.24105151 0.0016110577)
(-1.7064027 -0.21920032 0.0016599792)
(-1.710339 -0.19735162 0.0017067383)
(-1.7142726 -0.17550758 0.0017528618)
(-1.7182029 -0.15366917 0.0017944349)
(-1.7221317 -0.13183761 0.0018340603)
(-1.726058 -0.11001331 0.0018701735)
(-0.0043055468 -0.0089164949 -0.0090805898)
(-0.0046085115 -0.013028857 -0.013127889)
(-0.0059409723 -0.017374746 -0.015544941)
(-0.0082627286 -0.022072659 -0.017189059)
(-0.01119186 -0.026620872 -0.018030984)
(-0.015034755 -0.031539454 -0.018512071)
(-0.019627863 -0.036416883 -0.018644574)
(-0.024961733 -0.041369437 -0.018561204)
(-0.030980508 -0.046389425 -0.018344269)
(-0.037683392 -0.051405716 -0.018032809)
(-0.044992983 -0.056414341 -0.017625679)
(-0.05289823 -0.061458306 -0.01718936)
(-0.06137278 -0.066461988 -0.016767885)
(-0.070419004 -0.071487741 -0.016289102)
(-0.079970329 -0.076462172 -0.01584479)
(-0.090041479 -0.08144265 -0.015375595)
(-0.10060472 -0.0864154 -0.014960361)
(-0.11166846 -0.091348066 -0.014530159)
(-0.12319179 -0.096296861 -0.014106935)
(-0.13517267 -0.10120929 -0.013704638)
(-0.1476014 -0.10613896 -0.013330067)
(-0.16046949 -0.11103231 -0.012931303)
(-0.17375965 -0.1159414 -0.012584456)
(-0.18747029 -0.12085091 -0.012215504)
(-0.20158529 -0.12573903 -0.011863693)
(-0.21609133 -0.13065561 -0.011518893)
(-0.23098968 -0.135542 -0.011192361)
(-0.24626013 -0.14047418 -0.010848218)
(-0.26190773 -0.14536625 -0.01052094)
(-0.2779049 -0.15029279 -0.01019802)
(-0.29425647 -0.15521931 -0.0098708656)
(-0.31094018 -0.16013618 -0.0095448354)
(-0.32795199 -0.16507449 -0.0092296522)
(-0.34529971 -0.1699922 -0.0089107439)
(-0.36294512 -0.17494027 -0.0085792684)
(-0.38090093 -0.17986367 -0.0082629091)
(-0.39913338 -0.18479581 -0.0079464659)
(-0.41766009 -0.18972281 -0.0076260119)
(-0.4364446 -0.19463515 -0.0072985658)
(-0.45548685 -0.19955199 -0.006982558)
(-0.47477795 -0.20444338 -0.0066601588)
(-0.49429718 -0.20933714 -0.0063434973)
(-0.51404526 -0.21420809 -0.0060234003)
(-0.5340026 -0.21906864 -0.0057101137)
(-0.55415981 -0.2239067 -0.0053974689)
(-0.57450575 -0.22873102 -0.0050903405)
(-0.59502713 -0.23352989 -0.004788142)
(-0.61571733 -0.23831215 -0.0044918796)
(-0.63656033 -0.24306693 -0.0042030475)
(-0.6575519 -0.24780157 -0.0039220187)
(-0.67867659 -0.25250783 -0.0036499023)
(-0.69993007 -0.25719012 -0.0033871027)
(-0.72129944 -0.26184322 -0.0031342447)
(-0.74277919 -0.26646897 -0.0028914594)
(-0.76435941 -0.27106426 -0.0026586399)
(-0.78603353 -0.27562943 -0.0024358506)
(-0.80779369 -0.28016234 -0.0022222553)
(-0.82963308 -0.28466322 -0.0020173526)
(-0.85154491 -0.28912969 -0.0018203914)
(-0.87352245 -0.29356268 -0.0016300841)
(-0.89555914 -0.29795967 -0.0014457815)
(-0.91764878 -0.30232234 -0.0012657105)
(-0.93978409 -0.30664785 -0.0010901913)
(-0.96196069 -0.31093845 -0.00091629513)
(-0.98416763 -0.31519356 -0.00074544439)
(-1.0064049 -0.31941227 -0.00057609884)
(-1.0286592 -0.32359566 -0.00040924235)
(-1.050928 -0.32774716 -0.00024367283)
(-1.0732054 -0.33186286 -7.6160023e-05)
(-1.0954825 -0.33595126 8.5077821e-05)
(-1.1177557 -0.34000614 0.00024316785)
(-1.1400169 -0.34403551 0.00039691613)
(-1.1622625 -0.34803871 0.00054342367)
(-1.1844875 -0.3520162 0.00068138943)
(-1.2066869 -0.35597416 0.00081043073)
(-1.2288584 -0.35990892 0.00092638915)
(-1.2509973 -0.36382985 0.0010308062)
(-1.2731041 -0.3677311 0.0011194109)
(-1.2951743 -0.37162346 0.0011945644)
(-1.317211 -0.37550027 0.0012518408)
(-1.3392119 -0.37937173 0.0012963326)
(-1.361179 -0.38323411 0.0013230767)
(-1.3831165 -0.38709264 0.0013380983)
(-1.4050216 -0.39094816 0.0013380991)
(-1.4269056 -0.39480122 0.0013301133)
(-1.4487621 -0.39865838 0.0013127406)
(-1.470607 -0.40251336 0.0012906959)
(-1.4924306 -0.40637879 0.0012664461)
(-1.5142517 -0.41024301 0.0012417841)
(-1.5360601 -0.41412162 0.0012217037)
(-1.5578721 -0.41800169 0.0012048982)
(-1.5796796 -0.42189778 0.0011989208)
(-1.6014956 -0.4257967 0.0011973837)
(-1.6233124 -0.42971209 0.001209601)
(-1.645136 -0.43363527 0.0012261606)
(-0.0036614783 0.0085330094 0.011499959)
(-0.0074892054 0.013051911 0.01191951)
(-0.0098250682 0.018407412 0.015468686)
(-0.012613409 0.022984393 0.016420774)
(-0.016722909 0.028185696 0.017481493)
(-0.021220752 0.033384223 0.017974449)
(-0.026600438 0.038294618 0.018232042)
(-0.032682362 0.043359089 0.018267253)
(-0.039597242 0.048213909 0.018163332)
(-0.047088506 0.052926523 0.017974958)
(-0.0553839 0.057532411 0.017689197)
(-0.064231304 0.061905229 0.017387502)
(-0.073795784 0.06614873 0.01700572)
(-0.08391415 0.070171962 0.016659466)
(-0.0946485 0.073997866 0.016243284)
(-0.10593588 0.077634662 0.015867316)
(-0.11776402 0.081037442 0.015452064)
(-0.13012918 0.08425525 0.015049869)
(-0.14299756 0.087261259 0.014654072)
(-0.15634015 0.090032169 0.014260651)
(-0.17017646 0.092625126 0.013856007)
(-0.18445902 0.094995056 0.013488081)
(-0.19916824 0.097148142 0.013098643)
(-0.21433375 0.099119355 0.012726683)
(-0.22987939 0.10086759 0.012368497)
(-0.24584368 0.1024141 0.011995983)
(-0.2621848 0.10377278 0.011659637)
(-0.27889807 0.10490977 0.011294608)
(-0.29597616 0.10587346 0.010963996)
(-0.31339187 0.1066155 0.010608073)
(-0.33115713 0.10719106 0.010274933)
(-0.34923437 0.10755358 0.009933009)
(-0.36762891 0.10773677 0.0095983101)
(-0.38632252 0.10772768 0.0092607424)
(-0.40530079 0.10753442 0.00892523)
(-0.42455091 0.10715423 0.0085966216)
(-0.44405303 0.10658996 0.008255905)
(-0.46381736 0.10586121 0.0079290743)
(-0.48379785 0.10494514 0.0075996911)
(-0.50401296 0.10386641 0.0072755588)
(-0.5244238 0.10261739 0.006955959)
(-0.54503491 0.10120696 0.0066419626)
(-0.56582076 0.099638214 0.0063344808)
(-0.58677891 0.097916223 0.0060344339)
(-0.60788791 0.096045859 0.0057427417)
(-0.62914447 0.094031706 0.0054588431)
(-0.65052997 0.091880052 0.0051846185)
(-0.67203993 0.089594578 0.0049181792)
(-0.69365953 0.087182333 0.004661137)
(-0.7153829 0.084647164 0.0044116501)
(-0.73719861 0.081995577 0.0041702758)
(-0.75910025 0.079232066 0.0039357227)
(-0.78107838 0.076362451 0.0037078391)
(-0.80312696 0.073391517 0.0034857743)
(-0.82523757 0.070324666 0.0032692539)
(-0.84740443 0.067166587 0.0030579218)
(-0.86961997 0.063922544 0.0028517002)
(-0.89187825 0.060596874 0.0026507727)
(-0.91417228 0.057194795 0.0024555984)
(-0.93649603 0.053720319 0.0022667481)
(-0.95884265 0.050178511 0.0020851813)
(-0.98120608 0.04657321 0.0019120856)
(-1.0035798 0.042909327 0.0017483876)
(-1.0259576 0.039190401 0.0015958142)
(-1.0483336 0.035421475 0.0014552047)
(-1.0707014 0.03160569 0.001328227)
(-1.0930565 0.027747928 0.001215879)
(-1.1153933 0.023852271 0.0011178659)
(-1.1377057 0.019920378 0.0010376188)
(-1.1599914 0.015959596 0.00097207545)
(-1.1822453 0.011972228 0.00092360952)
(-1.2044665 0.0079619211 0.00089065363)
(-1.2266518 0.0039329742 0.00087301149)
(-1.2487985 -0.00011198282 0.0008698946)
(-1.2709085 -0.0041680537 0.0008786778)
(-1.2929794 -0.0082327106 0.00089980669)
(-1.3150136 -0.012302046 0.0009295805)
(-1.3370114 -0.016373532 0.00096795596)
(-1.3589757 -0.020443297 0.0010114836)
(-1.3809074 -0.024510015 0.0010604327)
(-1.4028118 -0.028569271 0.0011109244)
(-1.4246883 -0.032621371 0.0011647706)
(-1.4465446 -0.0366619 0.0012172416)
(-1.4683792 -0.040692158 0.0012717571)
(-1.4902004 -0.044708381 0.0013235544)
(-1.5120067 -0.048712837 0.0013767978)
(-1.5338059 -0.052702419 0.0014273289)
(-1.5555968 -0.056680389 0.0014793727)
(-1.5773862 -0.060644622 0.0015297057)
(-1.5991732 -0.06459884 0.0015817386)
(-1.6209628 -0.068542439 0.0016334986)
(-1.6427552 -0.072479231 0.0016869392)
(-1.6645533 -0.076409796 0.0017407964)
(-1.6863569 -0.080338856 0.0017959774)
(-1.7081678 -0.084265973 0.0018513134)
(0 -1.4922935e-18 0)
(0 -1.0896694e-18 0)
(0 1.0206735e-18 0)
(0 -6.4495596e-19 0)
(0 -5.5536881e-19 0)
(0 3.1035518e-18 0)
(0 -9.2140003e-19 0)
(-2.1453087e-18 5.996681e-19 0)
(0 -5.4807426e-19 0)
(0 1.3352218e-18 0)
(0 1.5957934e-18 0)
(0 5.5816276e-19 0)
(0 2.9544218e-19 0)
(0 -6.0175952e-19 0)
(0 4.0904396e-19 0)
(-0.0059893167 0.0038543569 -0.0083710891)
(-0.0080664099 0.014850399 -0.012394802)
(-0.0093363151 0.016391284 -0.013984922)
(-0.013224211 0.023825765 -0.016235527)
(-0.016417439 0.027618366 -0.016865631)
(-0.021419493 0.033362335 -0.017343894)
(-0.0264857 0.03797722 -0.017484214)
(-0.032885669 0.043305669 -0.017533141)
(-0.039553326 0.047876774 -0.017314787)
(-0.047285412 0.052873628 -0.017127547)
(-0.055479935 0.057312132 -0.016831789)
(-0.064341916 0.061734767 -0.016511652)
(-0.073944765 0.066035537 -0.016153229)
(-0.083990978 0.069980596 -0.015800593)
(-0.094808746 0.073942441 -0.015423883)
(-0.10601612 0.077470786 -0.015060087)
(-0.11786236 0.080968686 -0.014723257)
(-0.1302071 0.084149122 -0.014331755)
(-0.14304654 0.087159213 -0.0140041)
(-0.15642261 0.089967089 -0.013644531)
(-0.17019827 0.0925282 -0.013325121)
(-0.18448165 0.094898677 -0.012994051)
(-0.19918142 0.097064075 -0.012668504)
(-0.21433625 0.099018666 -0.012354011)
(-0.22987447 0.10074834 -0.012035525)
(-0.24583931 0.10230496 -0.011731618)
(-0.26215756 0.10360695 -0.011416089)
(-0.27888602 0.10477997 -0.011118357)
(-0.29594132 0.10567858 -0.010807602)
(-0.31336631 0.10644535 -0.010507218)
(-0.33113306 0.10697986 -0.010201757)
(-0.34920234 0.10732337 -0.0098979516)
(-0.36760225 0.10748688 -0.0095908921)
(-0.3862852 0.10744423 -0.0092808681)
(-0.40527407 0.1072398 -0.0089733594)
(-0.42450158 0.10680742 -0.0086604247)
(-0.44402018 0.10625093 -0.0083480347)
(-0.46377282 0.1054695 -0.0080308184)
(-0.48375834 0.10453492 -0.0077168645)
(-0.50396449 0.10341772 -0.0073948841)
(-0.52438008 0.1021411 -0.0070775508)
(-0.54498628 0.1006959 -0.0067563479)
(-0.56577712 0.099097158 -0.006438376)
(-0.58673428 0.097341444 -0.0061189349)
(-0.60785046 0.095441971 -0.005804815)
(-0.62910983 0.09339695 -0.0054909456)
(-0.6505046 0.091218288 -0.0051837132)
(-0.67202124 0.0889063 -0.0048794148)
(-0.69365096 0.086470892 -0.0045832187)
(-0.71538302 0.083914083 -0.0042921009)
(-0.73720846 0.081243987 -0.00401033)
(-0.75911809 0.078463409 -0.0037351027)
(-0.78110385 0.075579135 -0.003469523)
(-0.80315746 0.072594425 -0.0032115324)
(-0.82527148 0.069514903 -0.0029626538)
(-0.84743887 0.066344028 -0.0027213566)
(-0.86965238 0.063086534 -0.0024880849)
(-0.891906 0.059746255 -0.0022616126)
(-0.91419276 0.056326951 -0.0020412474)
(-0.93650744 0.052833183 -0.0018264662)
(-0.95884321 0.049268158 -0.0016157517)
(-0.98119543 0.045636715 -0.0014087667)
(-1.0035579 0.041942603 -0.0012043651)
(-1.0259255 0.038190244 -0.0010020399)
(-1.0482935 0.034384471 -0.00080115203)
(-1.0706563 0.030529941 -0.00060181032)
(-1.0930087 0.026629051 -0.00040278137)
(-1.11535 0.022696773 -0.0002089453)
(-1.1376755 0.018721024 -1.3824052e-05)
(-1.1599668 0.01472317 0.00017605391)
(-1.1822438 0.010700001 0.00036260903)
(-1.204487 0.0066591889 0.00054026842)
(-1.2266998 0.0026039994 0.00071259813)
(-1.2488791 -0.0014593928 0.00087443649)
(-1.2710229 -0.0055272418 0.0010255335)
(-1.2931301 -0.0095960955 0.0011642021)
(-1.3152006 -0.01366182 0.0012892577)
(-1.3372344 -0.01772231 0.0013995445)
(-1.359232 -0.021774374 0.0014945957)
(-1.3811951 -0.025817159 0.0015741887)
(-1.403125 -0.029848265 0.0016385901)
(-1.425025 -0.033868084 0.0016883917)
(-1.4468968 -0.037875219 0.0017250428)
(-1.468745 -0.041870853 0.0017496445)
(-1.4905715 -0.045854426 0.0017646622)
(-1.5123818 -0.049827902 0.0017718171)
(-1.5341781 -0.053790991 0.0017739645)
(-1.5559656 -0.057746448 0.0017732628)
(-1.577747 -0.061693745 0.0017725269)
(-1.5995269 -0.065636382 0.0017739475)
(-1.6213077 -0.069573207 0.0017796939)
(-1.6430927 -0.073508199 0.0017914896)
(-1.6648839 -0.077439618 0.0018104473)
(-1.6866828 -0.08137099 0.0018364471)
(-1.7084901 -0.085299607 0.0018688254)
(-1.7263765 -0.11103913 0.0018484627)
(-1.7224498 -0.13285947 0.0017951633)
(-1.7185312 -0.15467985 0.0017454629)
(-1.7146014 -0.1765149 0.0016985309)
(-1.7106777 -0.19834848 0.0016551005)
(-1.7067413 -0.22019665 0.0016145863)
(-1.7028068 -0.24203919 0.0015770867)
(-1.6988636 -0.2638927 0.001541356)
(-1.6949254 -0.28574171 0.0015062564)
(-1.690971 -0.30759343 0.0014722687)
(-1.687026 -0.32944083 0.0014402282)
(-1.6830753 -0.35128827 0.0014035816)
(-1.679128 -0.37312965 0.0013682347)
(-1.6751803 -0.39496913 0.0013284842)
(-1.6712349 -0.41680301 0.0012857505)
(-1.6454597 -0.4346989 0.001178469)
(-1.6236268 -0.43076712 0.0011135448)
(-1.6017975 -0.42683929 0.0010504582)
(-1.5799677 -0.42292318 0.00098801822)
(-1.5581366 -0.41901771 0.00092880546)
(-1.5362998 -0.41512492 0.00087045353)
(-1.514458 -0.41124426 0.00081304628)
(-1.4926054 -0.4073767 0.00075573721)
(-1.4707423 -0.40352007 0.00069750168)
(-1.4488647 -0.39967453 0.00063803825)
(-1.426971 -0.39583734 0.00057648864)
(-1.4050589 -0.3920066 0.00051261983)
(-1.3831269 -0.38817996 0.00044653713)
(-1.3611716 -0.38435372 0.00037907019)
(-1.3391931 -0.38052491 0.00031065964)
(-1.3171882 -0.37669 0.00024262902)
(-1.2951566 -0.37284499 0.00017665115)
(-1.2730974 -0.36898613 0.00011400781)
(-1.25101 -0.36511014 5.7273251e-05)
(-1.2288949 -0.36121284 8.1106023e-06)
(-1.2067527 -0.35729139 -3.1117336e-05)
(-1.1845843 -0.35334246 -5.8230115e-05)
(-1.1623924 -0.34936336 -7.1545868e-05)
(-1.1401776 -0.34535211 -6.8638013e-05)
(-1.1179476 -0.34130664 -4.9747669e-05)
(-1.0956986 -0.33722597 -1.3163743e-05)
(-1.0734472 -0.33310455 4.626257e-05)
(-1.0511799 -0.3289589 0.00012175735)
(-1.0289244 -0.32475747 0.0002139011)
(-1.0066708 -0.32053243 0.00032445588)
(-0.9844327 -0.31626671 0.00045247058)
(-0.96221586 -0.31196691 0.00059536873)
(-0.94002763 -0.30763209 0.00075126709)
(-0.91787525 -0.30326393 0.00091932986)
(-0.89576715 -0.29886291 0.0010971183)
(-0.8737103 -0.29443068 0.0012834146)
(-0.85171325 -0.28996714 0.0014766376)
(-0.82978288 -0.28547415 0.0016758322)
(-0.80792792 -0.28095106 0.0018797629)
(-0.7861548 -0.27639968 0.0020885544)
(-0.76447243 -0.27181882 0.0023013281)
(-0.74288714 -0.2672104 0.0025190015)
(-0.72140786 -0.26257282 0.0027413171)
(-0.70004115 -0.25790808 0.0029697323)
(-0.67879623 -0.25321451 0.0032041676)
(-0.65768006 -0.24849441 0.0034467235)
(-0.63670247 -0.24374609 0.0036968846)
(-0.61587099 -0.23897244 0.0039570253)
(-0.59519635 -0.234172 0.0042264558)
(-0.57468655 -0.22934825 0.0045066942)
(-0.55435398 -0.22449994 0.0047971603)
(-0.53420568 -0.21963183 0.0050986414)
(-0.51425817 -0.21474106 0.0054095435)
(-0.49451489 -0.20983685 0.0057325934)
(-0.47499872 -0.20491202 0.0060584174)
(-0.45570603 -0.19998042 0.0064010638)
(-0.4366547 -0.19503914 0.0067435257)
(-0.41785916 -0.19007475 0.0070946868)
(-0.39937728 -0.18511531 0.0074389023)
(-0.38108932 -0.18016413 0.0078090424)
(-0.36313353 -0.17518667 0.0081690139)
(-0.34552367 -0.17022281 0.0085245512)
(-0.32814806 -0.16527109 0.0088867189)
(-0.31112491 -0.1603155 0.0092540781)
(-0.29442074 -0.15535108 0.0096233016)
(-0.27811224 -0.15040367 0.009995323)
(-0.26206119 -0.14546924 0.010355732)
(-0.24648519 -0.14051649 0.010724577)
(-0.231166 -0.13560729 0.011119665)
(-0.21628142 -0.13067941 0.011496676)
(-0.20176345 -0.12576837 0.011890291)
(-0.18762822 -0.12084331 0.012292346)
(-0.17398488 -0.11591026 0.012684653)
(-0.16062256 -0.11102893 0.013119232)
(-0.14775032 -0.10610067 0.013543727)
(-0.13535976 -0.10116221 0.013967405)
(-0.12329807 -0.096266957 0.014442961)
(-0.11183682 -0.091300658 0.01486734)
(-0.10069543 -0.086403221 0.015360232)
(-0.090177571 -0.081401548 0.015818546)
(-0.080109881 -0.076448861 0.016296815)
(-0.070492886 -0.07149315 0.016763052)
(-0.061433704 -0.066510047 0.017247155)
(-0.053040339 -0.061439395 0.017663681)
(-0.045052611 -0.056534844 0.018115196)
(-0.037740417 -0.051475919 0.018457617)
(-0.031113181 -0.046429318 0.018763267)
(-0.025073188 -0.041514529 0.018927534)
(-0.019720616 -0.036530326 0.018955651)
(-0.015136091 -0.031660954 0.018761278)
(-0.011380456 -0.02663202 0.01813892)
(-0.0086598172 -0.02184624 0.017096964)
(-0.0064247888 -0.017673964 0.015642003)
(-0.0055317561 -0.012629809 0.011938084)
(-0.0071680949 -0.0086726011 0.0066265635)
(0 1.7001938e-18 0)
(0 6.4672751e-19 0)
(0 1.6785904e-18 0)
(0 1.6897761e-18 0)
(0 1.7611558e-18 0)
(0 1.0591296e-18 0)
(0 4.2221479e-20 0)
(0 -9.5970141e-19 -1.0530083e-18)
(0 1.1364132e-19 0)
(0 1.0216743e-18 0)
(0 2.463586e-18 0)
(0 2.1586152e-18 0)
(0 1.5451718e-18 0)
(0 1.4932883e-18 0)
(0 1.7052122e-18 0)
(0 7.092605e-18 0)
(0 3.0199369e-18 0)
(0 1.108231e-18 0)
(0 2.0003007e-18 0)
(0 -1.7415227e-19 0)
(0 4.662414e-19 0)
(0 5.3127954e-18 0)
(0 -2.1619775e-18 -9.3750076e-19)
(0 3.160104e-18 0)
(0 3.9504626e-18 0)
(0 1.3054948e-18 0)
(0 5.3436574e-19 0)
(0 1.2403091e-18 0)
(0 2.2361937e-18 0)
(0 2.8763414e-19 0)
(-1.7300035 -0.088260566 0.0019029377)
(-1.7300196 -0.088322226 0.0019028202)
(-1.7300357 -0.088385242 0.0019058199)
(-1.7300488 -0.088450503 0.0019097912)
(-1.7300604 -0.088517461 0.0019157567)
(-1.7300708 -0.088587563 0.0019209628)
(-1.7300804 -0.088658936 0.0019259693)
(-1.730091 -0.088731576 0.0019292315)
(-1.7301033 -0.088804254 0.0019309541)
(-1.7301188 -0.088875561 0.0019300684)
(-1.7301376 -0.088944258 0.0019275199)
(-1.7301622 -0.089010031 0.0019231526)
(-1.7301909 -0.089071703 0.0019167712)
(-1.7302248 -0.089126927 0.0019116642)
(-1.730263 -0.089180899 0.0019033305)
(-1.6669837 -0.43759539 0.0012458498)
(-1.6670062 -0.43763136 0.0012523725)
(-1.667029 -0.43767518 0.0012596128)
(-1.6670511 -0.43772848 0.0012668028)
(-1.6670729 -0.43779081 0.0012726528)
(-1.667095 -0.43786088 0.0012762671)
(-1.6671174 -0.43793738 0.0012772042)
(-1.66714 -0.43801791 0.0012759002)
(-1.6671626 -0.43810084 0.0012720556)
(-1.6671849 -0.4381837 0.0012667489)
(-1.6672067 -0.43826541 0.0012601499)
(-1.6672275 -0.43834395 0.0012537053)
(-1.6672472 -0.43841976 0.0012482338)
(-1.6672646 -0.43849153 0.0012434522)
(-1.667281 -0.43856261 0.0012432948)
(-0.001937685 -0.0076722458 -0.0091386297)
(-0.002854905 -0.010828872 -0.011075225)
(-0.0040432461 -0.015159952 -0.013531276)
(-0.0064985878 -0.018982479 -0.014574883)
(-0.0092493745 -0.022875852 -0.015554075)
(-0.013236172 -0.026921598 -0.015883993)
(-0.017782446 -0.030971593 -0.016079426)
(-0.023279675 -0.035229195 -0.016004927)
(-0.029322817 -0.039444438 -0.015859593)
(-0.036132175 -0.043795137 -0.015590628)
(-0.043554707 -0.048119201 -0.015247112)
(-0.051584148 -0.052559556 -0.014912742)
(-0.060188698 -0.05692027 -0.01451137)
(-0.069335363 -0.061387973 -0.014131249)
(-0.079038982 -0.065776182 -0.013729077)
(-0.089249261 -0.070264843 -0.013351642)
(-0.099969991 -0.074671224 -0.01296414)
(-0.11113606 -0.079145341 -0.012603552)
(-0.12283058 -0.083569325 -0.012238726)
(-0.13494625 -0.088057754 -0.011892741)
(-0.14752007 -0.092496683 -0.011558318)
(-0.16053983 -0.096969047 -0.011231199)
(-0.17396853 -0.10146143 -0.010907098)
(-0.18781362 -0.10593207 -0.010604247)
(-0.20208098 -0.11044106 -0.010291267)
(-0.21672664 -0.11495243 -0.010000822)
(-0.23175922 -0.11948598 -0.0096997259)
(-0.24716834 -0.12402001 -0.0094168315)
(-0.26295763 -0.12857911 -0.0091286851)
(-0.27908007 -0.1331662 -0.0088436824)
(-0.29557028 -0.13773983 -0.0085614612)
(-0.31239348 -0.1423581 -0.0082813204)
(-0.32954641 -0.14697554 -0.008006479)
(-0.34701185 -0.15161135 -0.0077253538)
(-0.36479034 -0.15625981 -0.0074477428)
(-0.38287025 -0.16091462 -0.0071693493)
(-0.40122543 -0.16559093 -0.0068913904)
(-0.41986632 -0.17025687 -0.0066136922)
(-0.43877157 -0.17495188 -0.0063305374)
(-0.45792601 -0.17963557 -0.0060572232)
(-0.47732798 -0.18432776 -0.0057804861)
(-0.49695583 -0.18901158 -0.0055008176)
(-0.51680355 -0.19370498 -0.0052267711)
(-0.53686265 -0.1983847 -0.0049528549)
(-0.55711094 -0.2030644 -0.0046813202)
(-0.57754657 -0.20773368 -0.0044142332)
(-0.59815357 -0.21239378 -0.0041500817)
(-0.61892364 -0.21704327 -0.0038921892)
(-0.6398444 -0.22167853 -0.0036395264)
(-0.66090795 -0.22630031 -0.0033939931)
(-0.6821023 -0.23090508 -0.0031556028)
(-0.7034205 -0.23549234 -0.0029255921)
(-0.72485186 -0.2400603 -0.0027036588)
(-0.74638972 -0.24460743 -0.0024906531)
(-0.76802485 -0.24913234 -0.0022862356)
(-0.78975066 -0.25363369 -0.0020903939)
(-0.81155926 -0.25811026 -0.0019025553)
(-0.83344415 -0.2625607 -0.0017223416)
(-0.85539813 -0.26698395 -0.0015489039)
(-0.87741491 -0.27137932 -0.0013812658)
(-0.89948757 -0.27574539 -0.001218583)
(-0.92160989 -0.28008278 -0.0010599205)
(-0.94377504 -0.28438872 -0.00090443863)
(-0.96597697 -0.28866646 -0.00075078178)
(-0.98820712 -0.2929125 -0.00059901304)
(-1.0104643 -0.29712785 -0.00044929972)
(-1.0327347 -0.30131886 -0.00029693151)
(-1.0550158 -0.30547351 -0.0001499033)
(-1.0773031 -0.3096059 3.9986508e-08)
(-1.0995846 -0.3137061 0.00014373725)
(-1.1218604 -0.3177827 0.00028714113)
(-1.1441214 -0.32183471 0.00042550766)
(-1.166365 -0.32586334 0.00055918563)
(-1.1885844 -0.32986991 0.00068565902)
(-1.2107771 -0.3338571 0.00080385774)
(-1.2329394 -0.33782429 0.00091159474)
(-1.2550683 -0.34177608 0.0010089278)
(-1.2771633 -0.34571024 0.001092652)
(-1.2992222 -0.34963331 0.0011645254)
(-1.3212462 -0.35354066 0.001220844)
(-1.3432349 -0.35744092 0.0012655706)
(-1.3651903 -0.36132914 0.0012946477)
(-1.3871157 -0.36521215 0.0013131243)
(-1.4090117 -0.36908788 0.0013192972)
(-1.4308851 -0.37296148 0.0013176389)
(-1.4527347 -0.37682998 0.001307295)
(-1.4745705 -0.3807002 0.0012934286)
(-1.49639 -0.38456862 0.0012761524)
(-1.518204 -0.38844229 0.0012594636)
(-1.5400103 -0.39231854 0.0012451577)
(-1.5618169 -0.39620095 0.0012350629)
(-1.583624 -0.40009204 0.0012318249)
(-1.6054357 -0.4039898 0.0012341464)
(-1.6272509 -0.40789856 0.0012456421)
(-1.6490712 -0.41181923 0.0012603781)
(0.0002678224 -0.0066189699 -0.0076681244)
(-0.0005596909 -0.0078796175 -0.010007867)
(-0.0025848825 -0.012522556 -0.011368608)
(-0.0046456396 -0.015245806 -0.012714222)
(-0.0078195069 -0.018886448 -0.01322266)
(-0.011662752 -0.022175901 -0.013564193)
(-0.016433026 -0.025797782 -0.013646245)
(-0.021816969 -0.029322617 -0.013623616)
(-0.0280352 -0.032976821 -0.013492294)
(-0.034897916 -0.036665209 -0.013230712)
(-0.042416833 -0.040406937 -0.013005106)
(-0.050536276 -0.044188236 -0.012653176)
(-0.059246348 -0.048012108 -0.01236896)
(-0.068529914 -0.051850684 -0.012006697)
(-0.078336173 -0.055731893 -0.011709551)
(-0.088687275 -0.059624567 -0.01133836)
(-0.099489505 -0.063550048 -0.011054787)
(-0.11084472 -0.067478036 -0.0107166)
(-0.12262369 -0.071445812 -0.01042953)
(-0.13489228 -0.075417362 -0.010118628)
(-0.14759152 -0.0794136 -0.0098477442)
(-0.16073716 -0.083443117 -0.0095485996)
(-0.174297 -0.087478171 -0.0092963155)
(-0.18828681 -0.091550744 -0.0090210762)
(-0.20267532 -0.095632202 -0.0087721959)
(-0.21745074 -0.099767219 -0.0085059163)
(-0.23262094 -0.10389622 -0.0082687934)
(-0.24816446 -0.10807517 -0.008019857)
(-0.26406959 -0.11227424 -0.0077757199)
(-0.28033533 -0.11650383 -0.0075326211)
(-0.29694665 -0.1207566 -0.0073020558)
(-0.31389496 -0.1250436 -0.0070593821)
(-0.33116182 -0.1293533 -0.0068226284)
(-0.34875369 -0.13368649 -0.0065873229)
(-0.36665181 -0.13805071 -0.0063485225)
(-0.38484199 -0.14243784 -0.0061143986)
(-0.40332381 -0.14684339 -0.0058787471)
(-0.42207768 -0.15127143 -0.0056431724)
(-0.44108849 -0.15571196 -0.0054065413)
(-0.46034912 -0.16017395 -0.0051727771)
(-0.47985251 -0.16464156 -0.0049317532)
(-0.49957698 -0.16913074 -0.0046986056)
(-0.51952583 -0.17362056 -0.004459342)
(-0.53966967 -0.17812061 -0.0042295698)
(-0.56000902 -0.18262706 -0.0039940331)
(-0.580529 -0.18713529 -0.0037662412)
(-0.60121763 -0.19164382 -0.0035386)
(-0.62206472 -0.19615179 -0.003317852)
(-0.64306052 -0.20065533 -0.003099173)
(-0.66419373 -0.20515478 -0.0028887104)
(-0.68545581 -0.20964566 -0.0026823059)
(-0.70683726 -0.21412858 -0.0024842866)
(-0.72832942 -0.2185998 -0.0022921551)
(-0.74992418 -0.22305858 -0.0021084689)
(-0.77161367 -0.22750267 -0.0019313113)
(-0.79339031 -0.23193087 -0.0017620835)
(-0.81524711 -0.23634087 -0.0015992687)
(-0.83717687 -0.24073208 -0.0014432989)
(-0.85917302 -0.24510228 -0.0012926611)
(-0.88122873 -0.24945101 -0.0011471709)
(-0.90333748 -0.25377652 -0.001005677)
(-0.92549266 -0.25807886 -0.00086736829)
(-0.94768794 -0.26235547 -0.0007315322)
(-0.96991593 -0.2666097 -0.00059651667)
(-0.99217108 -0.27083557 -0.00046361814)
(-1.0144475 -0.27504095 -0.00032996377)
(-1.0367314 -0.27921548 -0.00019864881)
(-1.0590305 -0.2833674 -6.6001915e-05)
(-1.0813285 -0.28749633 6.7323687e-05)
(-1.1036218 -0.2916006 0.00019782188)
(-1.1259039 -0.29568414 0.00032836424)
(-1.14817 -0.29974503 0.00045412464)
(-1.1704142 -0.30378644 0.00057679289)
(-1.1926328 -0.30780745 0.00069222398)
(-1.2148227 -0.31181169 0.00080172692)
(-1.2369803 -0.3157968 0.00090158824)
(-1.2591037 -0.3197688 0.00099313075)
(-1.2811916 -0.32372323 0.0010722094)
(-1.3032432 -0.32766731 0.0011413682)
(-1.3252588 -0.33159533 0.001196468)
(-1.34724 -0.33551646 0.0012420093)
(-1.3691871 -0.33942326 0.0012728974)
(-1.3911056 -0.34332473 0.0012951398)
(-1.4129938 -0.3472159 0.0013056193)
(-1.4348602 -0.35110107 0.0013083604)
(-1.4567046 -0.3549833 0.0013045874)
(-1.4785355 -0.35886143 0.0012962569)
(-1.5003503 -0.3627408 0.0012860589)
(-1.5221611 -0.36661772 0.0012750319)
(-1.5439632 -0.37049986 0.0012670761)
(-1.5657675 -0.37438335 0.0012610629)
(-1.5875707 -0.3782761 0.001262643)
(-1.6093805 -0.38217285 0.0012664112)
(-1.6311921 -0.38608166 0.0012800423)
(-1.6530111 -0.39000133 0.001294391)
(0.0013943217 -0.0049424014 -0.0067662793)
(0.00051256297 -0.0063251145 -0.0082582744)
(-0.00069897858 -0.0096549993 -0.0096790213)
(-0.003229243 -0.012205909 -0.010578471)
(-0.0063402021 -0.01500442 -0.010936544)
(-0.010468449 -0.017944275 -0.011148769)
(-0.015152329 -0.020786727 -0.011255427)
(-0.02078654 -0.023779653 -0.011217398)
(-0.027033329 -0.026728183 -0.011045871)
(-0.033989713 -0.029867876 -0.010905466)
(-0.041588971 -0.032917418 -0.010641395)
(-0.04981484 -0.036161275 -0.010422462)
(-0.058631241 -0.039322128 -0.010127833)
(-0.067994698 -0.042642306 -0.0098887158)
(-0.077932612 -0.045914893 -0.0095760932)
(-0.088353714 -0.049293478 -0.0093469002)
(-0.099333351 -0.052657472 -0.0090528841)
(-0.11075257 -0.056097934 -0.0088135327)
(-0.12268307 -0.059544916 -0.0085494022)
(-0.13505644 -0.063045888 -0.0083183152)
(-0.14788843 -0.066577692 -0.0080730056)
(-0.16115553 -0.07013815 -0.0078554613)
(-0.17485069 -0.073747226 -0.0076263709)
(-0.18895468 -0.077378376 -0.0074151228)
(-0.20346724 -0.081067432 -0.0071956789)
(-0.21837198 -0.084778378 -0.0069940642)
(-0.23366636 -0.08853543 -0.0067902649)
(-0.24932206 -0.092337357 -0.0065837193)
(-0.26535882 -0.096171751 -0.0063871543)
(-0.28173781 -0.10005192 -0.0061932545)
(-0.29846994 -0.10396744 -0.0059943468)
(-0.31553031 -0.10793057 -0.0057968442)
(-0.33292323 -0.1119235 -0.0056073773)
(-0.3506284 -0.11596141 -0.0054115585)
(-0.36863679 -0.12003336 -0.0052187915)
(-0.38693805 -0.12413807 -0.0050265617)
(-0.40551433 -0.12827608 -0.0048337865)
(-0.4243603 -0.13244101 -0.0046419996)
(-0.44347898 -0.13664744 -0.0044474253)
(-0.46284422 -0.14086961 -0.0042489855)
(-0.48244054 -0.14512809 -0.004057314)
(-0.50226523 -0.14940208 -0.0038571069)
(-0.52229767 -0.15369788 -0.0036680773)
(-0.54253311 -0.15801196 -0.0034722143)
(-0.56295782 -0.16234141 -0.0032789743)
(-0.58355766 -0.16668344 -0.0030887663)
(-0.60432379 -0.17103601 -0.002899857)
(-0.62524516 -0.17539793 -0.0027140679)
(-0.64631111 -0.1797649 -0.002532617)
(-0.66751155 -0.18413647 -0.0023553763)
(-0.68883775 -0.18850914 -0.0021829183)
(-0.71027971 -0.19288188 -0.002016567)
(-0.7318296 -0.19725125 -0.0018557568)
(-0.75347881 -0.20161651 -0.0017013759)
(-0.77521976 -0.20597467 -0.0015531565)
(-0.79704491 -0.21032429 -0.0014111296)
(-0.81894717 -0.21466325 -0.001275022)
(-0.84091955 -0.21899022 -0.0011441727)
(-0.86295524 -0.2233029 -0.0010181554)
(-0.88504771 -0.22760082 -0.00089615356)
(-0.90719027 -0.23188156 -0.00077727486)
(-0.9293764 -0.23614495 -0.00066085497)
(-0.95159926 -0.2403893 -0.00054564862)
(-0.97385282 -0.24461531 -0.00043137351)
(-0.99612986 -0.24881952 -0.00031701654)
(-1.0184246 -0.25300528 -0.00020354572)
(-1.0407282 -0.25717289 -8.6415109e-05)
(-1.0630366 -0.26130841 2.7890238e-05)
(-1.0853493 -0.26543452 0.0001431777)
(-1.1076457 -0.26953969 0.00025858815)
(-1.129934 -0.27362494 0.00037346467)
(-1.1521986 -0.27769163 0.00048586929)
(-1.174443 -0.28174137 0.00059584954)
(-1.1966601 -0.28577345 0.00070128576)
(-1.2188477 -0.28978944 0.00080218723)
(-1.2410007 -0.29378979 0.00089492711)
(-1.2631196 -0.29777549 0.00098060853)
(-1.2852021 -0.30174596 0.0010558082)
(-1.3072477 -0.30570467 0.0011221627)
(-1.3292576 -0.30964921 0.0011768118)
(-1.3512328 -0.31358423 0.0012218425)