/*--------------------------------*- C++ -*----------------------------------*\
  =========                 |
  \\      /  F ield         | OpenFOAM: The Open Source CFD Toolbox
   \\    /   O peration     | Website:  https://openfoam.org
    \\  /    A nd           | Version:  6
     \\/     M anipulation  |
\*---------------------------------------------------------------------------*/
FoamFile
{
    version     2.0;
    format      ascii;
    class       pointScalarField;
    location    "0.61";
    object      p;
}
// * * * * * * * * * * * * * * * * * * * * * * * * * * * * * * * * * * * * * //

dimensions      [1 -1 -2 0 0 0 0];

internalField   nonuniform List<scalar> 
28033
(
1872184.8
-2753822
9133.289
5351.7504
3432240.9
-3910819.7
6054.0748
3579.0173
1542843.6
1372730.8
1177589.4
954863.48
712978.29
486370.95
254165.75
-6323.6336
-269561.02
-505080.45
-799600.01
-956032.41
-1294747.9
-1557479
-1562316.7
-9556.332
-4488.568
-5310.0266
-2244.9102
-1726.0465
432.94131
2331.4444
4559.0059
6557.4888
8675.1322
10982.503
12192.089
13723.086
14574.969
13207.878
503759.73
536374.36
490396.15
519086.18
507780.87
518980.48
517933.71
517389.85
514365.03
512307.7
504839.52
497889.07
491633.71
483480.91
474106.43
463625.53
455523.39
445028.41
434488.15
424051.52
414545.85
403385.35
394351.42
384111.8
373905.17
364968.07
355882.8
346605.81
337998.42
329635.04
321712.41
313246.36
306176.07
299164.22
291120.53
284904.2
278104.21
272936.02
265564.59
260379.31
253892.5
248174.46
242357.57
237204.76
231496.42
226427.31
220969.63
215966.77
210557.22
205637.58
200295.4
195328.85
190141.46
185118.2
180054.39
175073.18
170128.92
165249.42
160428.57
155727.86
151084.08
146511.71
142004.16
137766.52
133368.05
129303.18
125709.55
121229.89
116463.13
112307.98
107781
103563.98
98943.769
94596.284
89659.196
85357.88
80147.608
75905.809
70519.694
66389.747
61180.981
56993.672
52067.274
47635.692
43231.256
39100.795
35403.607
31850.709
27582.166
24802.877
22098.656
17399.115
17789.685
15957.409
13604.636
-457342.82
-376455.02
-460400.79
-410070.33
-472892.45
-463987.46
-473783.87
-466303.74
-474599.85
-462253.14
-464316.95
-453869.39
-448870.38
-442184.74
-432890.94
-425611.82
-415556.48
-406365.26
-397958.81
-388027.23
-378032.79
-370719.3
-358950.93
-352407.23
-342587.17
-333723.83
-326709.8
-316902.79
-310740.53
-300842.46
-294441.71
-286240.97
-279420.91
-272654.87
-266161.41
-260373.79
-252756.55
-247739.8
-240841.5
-235880.4
-229852.27
-224706.38
-219181.56
-214181.3
-208914.35
-204026.97
-198982.85
-194115.81
-189237.12
-184380.72
-179570.06
-174746.74
-169962.98
-165199.91
-160449.02
-155761.58
-151102.58
-146505.37
-141976.76
-137519.45
-133129.45
-128826.76
-124597.42
-120396.37
-116292.62
-112139.5
-108198.12
-104142.84
-100483.18
-95838.926
-92033.084
-87657.183
-83648.321
-79256.632
-75047.444
-70674.431
-66261.292
-61921.768
-57475.563
-53140.725
-48814.219
-44567.917
-40314.946
-36347.859
-32277.331
-28489.701
-24765.08
-21314.394
-17720.015
-14742.54
-11783.706
-8745.5552
-6466.2839
-5253.9014
-2726.4042
2829735.4
2655004.9
1935585.7
1944050.2
1361621.1
815079.2
518327.78
-28105.812
-447265.72
-984835.95
-1372082.7
-1891517.8
-2409920.5
-2833267
-3016913.7
-820657.12
-584699.97
-251176.23
-572732.64
-454338.07
-498259.21
-475813.01
-507078.31
-470796.73
-493660.12
-491490.08
-467862.49
-479903.93
-452892.93
-463708.51
-444560.82
-434803.93
-423349.48
-411890.37
-406142.45
-392400.36
-380171.18
-375039.78
-365519.13
-356727.02
-348715.74
-333530.06
-331597.78
-315156.1
-312471.81
-304902.65
-297068.33
-289609.05
-283003.59
-276815.56
-264505.7
-262332.31
-256380.97
-250099.18
-244284.04
-238541.26
-233081.77
-227621.66
-222321.87
-217136.96
-212043.76
-206914.86
-201869.92
-196793.81
-191813.06
-186816.22
-181870.77
-176937.57
-172055.14
-167190.77
-162362.96
-157620.47
-152904.15
-148272.71
-143733.69
-139237.94
-134862.62
-130526.69
-126275.91
-122054.74
-117862.56
-113982.76
-110084.54
-104064.05
-101225.41
-97120.051
-92696.544
-88314.649
-83876.813
-79328.736
-74743.24
-70105.708
-65517.841
-60862.832
-56237.702
-51608.873
-47118.933
-42584.499
-38327.917
-34058.323
-30056.647
-26036.413
-22425.719
-18740.056
-15444.749
-12318.419
-9388.6756
-7523.8097
-5354.6163
-4421.7253
15734.53
16148.024
13307.697
13920.515
9957.0092
10096.932
6348.6998
4662.0557
1936.4088
-585.83463
-469.22169
-4410.8233
-3307.4794
-8120.0454
-5756.8542
21766.857
17571.662
17707.737
20373.938
22381.579
25674.596
28857.442
32466.878
35962.748
40095.553
44014.747
47977.996
52501.328
57006.797
61685.445
66293.646
71152.784
75822.589
80659.509
85423.578
90125.276
94864.474
99483.277
103974.34
108413.4
112751.92
115550.97
123242.22
125819.43
130580.02
134942.02
139528.52
144012.49
148686.98
153382.42
158185.18
163103.49
168051.32
173136.83
178249.38
183446.17
188653.26
193957.75
199207.48
204553.54
209869.84
215229.3
220591.83
226040.52
231440.05
236984.44
242552.53
248228.94
254320.24
259756.35
266049.67
271477.61
275364.89
287432.24
291095.37
296075.59
309568.94
312713.34
321269.92
324973.69
340631.78
339945.66
357759.04
362939.83
373758.77
381932.91
387794.4
405979.29
410790.43
417781.61
435442.99
437361.24
455848.66
457088.67
475212.19
488435.23
488523.48
496143.37
511822.35
515869.49
516238.74
530192.58
527607.06
526806.38
519641.14
518219.26
533205.76
526168.63
490965.53
609520.56
1369483.2
1482363.1
1562406.9
1622342.3
1653255.8
1697630.5
1697738.9
1717877.9
1699502.3
1664590
1689833.3
1590938.8
1542083.2
1609010.6
1319464.1
-2213322
-2806139.1
-2793116.6
-3021233.8
-2955780.6
-2827874.5
-3247439.8
-3467646.6
-3245750.1
-3250442.2
-3118610
-2999660.5
-2815842
-2776350
-2614716.1
4795.594
4792.5223
5341.772
5612.0936
6454.065
6916.1036
7012.01
7071.5864
7025.9242
6788.6338
6505.7717
5841.1625
5474.3161
5210.6947
5384.7331
2690.1365
5378.5779
4905.5691
4479.8214
3781.0427
3766.1668
3319.1861
3425.3073
3576.1076
3705.5853
4483.7095
4911.7288
5068.1666
7989.5628
3079.5992
487127.06
493535.35
442095.76
446334.17
452347.37
456115.51
457890.44
459505.46
458420.97
454915
449704.59
447440.06
439089.9
432269.53
423219.81
417925.75
407712.03
399700.99
389594.23
381930.59
372632.91
364458.76
355095.01
346204.52
337294.92
330078.61
320882.06
312972.51
305280.57
297966.41
289564.46
282974.72
277152.55
269845.36
263760.45
257164.87
251518.98
244878.35
239615.98
234623.52
229513.16
224161.87
219306.58
214173.18
209265.08
204581.88
199669.05
195135.51
190330.66
185801.82
181107.5
176581.47
171971.07
167457.01
162936.48
158476.22
154046.67
149663
145356.99
141096.65
136893.71
132708.83
128697.29
124706.59
120486.64
116647.28
112034.88
108281.15
104491.83
100624.69
96699.428
92768.545
88630.311
84707.494
80442.913
76421.532
72109.242
68094.122
63650.874
59860.663
55472.799
51548.378
47673.619
44015.192
40158.908
36560.867
33126.876
29492.106
26438.26
23872.738
20055.444
17921.962
15741.583
10284.634
5569.4822
446488.87
408753.26
365013.5
377972.84
376901.8
380348.7
382204.38
384189.56
383387.21
382579.67
379189.87
375842.05
370093.09
365966.38
359069.29
352718.42
345168.32
339181.97
331141.54
324215.15
316283.53
308257.39
301264.87
293982.13
286987.89
279365.5
272839.4
266259.57
259467.28
253104.07
247282.42
241464.01
235212.6
229665.15
224350.34
219140.82
214070.53
209326.56
204686.29
199996.14
195351.68
191435.91
186458.93
182488.72
178172.44
174248.08
170083.01
166262.87
162159.8
158400.71
154393.07
150625.37
146733.4
142962.46
139172.44
135440.43
131721.94
128075.74
124442.45
120879.43
117338.71
113857.99
110527.34
107119.69
103828.61
101421.45
98791.233
95596.435
93032.127
89514.596
86207.467
82993
79245.679
75909.751
71861.709
68795.448
64410.167
61494.251
57035.484
54187.329
49898.039
46646.738
43209.482
38851.459
35302.828
32028.852
28521.966
25921.349
23025.187
19929.933
17264.573
14823.025
11058.238
7432.8244
1137.7991
342794.72
345551.56
300021.12
314439.85
307698.56
314612.78
317103.07
319645.11
317815.84
318162.45
314897.36
313074.33
308266.99
304518.95
298617.64
294499.03
287843.07
282687.25
275819.13
270406.55
263766.79
258395.6
251942.4
246261.43
239522.19
234368.75
228344.29
222626.24
217230.45
212060.67
206734.86
201614.99
197058.28
192433.33
188116.14
183621.79
179869.95
175979.19
172099.15
168220.11
164292.53
160528.39
157314.75
153849.44
150517.57
147098.75
143738.67
140424.7
137120.73
133875.48
130585.13
127406.55
124150.59
120999.35
117811.33
114678.34
111560.33
108486.31
105412.76
102406.57
99404.792
96437.707
93556.017
90470.727
87826.237
85397.991
83258.142
80460.72
78042.964
75699.231
73001.499
70037.834
66932.216
63963.124
60998.886
57888.5
54996.819
51757.905
48928.224
45744.445
42732.835
40016.475
36631.453
33916.458
31061.059
28189.309
25129.263
22999.675
20215.684
17892.164
15652.009
12280.014
10088.548
4852.2707
2214.329
276940.23
276043.38
231827.55
247432.03
237825.47
246892.68
247397.68
248664.02
248717.84
249886.12
247288.67
246450
242336.61
240693.44
235722.29
232810.48
227327.38
224312.4
218587.08
214718.13
209314.46
204832.16
199750.47
195096.71
190545.52
186032.52
181430.61
177349.31
172962.86
168832.99
164871.9
161027.51
157273.55
153483.7
150363.51
146343.46
143398.73
138976.22
135718.66
132611.02
130179.15
127316.5
124387.34
121470.06
118796.39
116108.99
113483.09
110932.01
108344.44
105826.34
103286.75
100811.59
98304.202
95868.274
93395.352
91001.855
88579.239
86217
83848.758
81533.146
79235.78
76954.043
74692.222
72501.761
70382.661
68081.45
66415.451
64008.356
61356.2
59406.994
57312.616
54846.072
52873.123
50513.161
48156.977
45772.146
43404.752
41105.658
38672.067
36360.378
34041.175
31807.03
29373.341
26969.283
24755.31
23250.831
21051.258
19074.645
16993.591
15107.543
12659.473
10644.226
7784.9396
4814.2785
855.35396
221714.81
202574.41
168209.14
184097.44
179335.15
184737.36
185387.01
187494.51
186431.24
187110.5
185247.88
184152.63
181739.33
180037.27
176238.69
174414.14
170083.78
167833.18
163301.05
160963.67
156661.16
153983.69
149728.93
147089.16
143047.79
139998.14
136439.2
133265.14
129945.74
127078.14
123969.47
121153.63
118296.57
115800.66
113205.64
110662.98
109958.5
109515.5
107292.48
107468.54
104514.83
102433.57
100542.69
98485.142
96481.396
94374.926
92327.98
90251.632
88234.131
86206.153
84193.886
82223.492
80230.261
78276.616
76321.048
74400.141
72461.208
70572.488
68671.06
66797.714
64965.228
63027.8
61307.258
59479.577
57432.334
56041.715
54012.108
52311.733
50369.037
48583.337
46818.876
44481.677
41642.609
39580.063
37388.448
35517.026
33811.97
31989.921
30236.169
28574.411
26669.061
25211.672
23238.989
21962.115
20018.049
18866.112
16863.237
15664.313
13806.084
12233.201
10594.393
8819.4417
7125.3699
4196.6755
1563.6799
137399.11
137403.03
108087.57
124051.72
115218.97
118595.04
121330.7
121693.08
120533.69
122914.63
120255.07
121002.22
118411.24
118242.22
115219.71
114879.09
111486.61
110984.92
107392.21
106377.85
102971.58
101457.56
98622.005
96951.042
94231.341
92534.158
90179.005
88398.931
86270.595
84368.577
82432.356
80587.504
78862.37
77115.512
75334.334
74050.437
73280.079
72956.086
72626.525
72068.444
71948.014
70399.381
68902.411
67560.574
66192.288
64777.291
63398.064
62058.514
60703.501
59373.464
58049.028
56746.643
55425.717
54146.285
52856.703
51579.982
50315.911
49067.258
47811.565
46584.357
45333.326
44167.3
42912.701
41676.072
40659.545
39220.983
38283.118
37072.947
35863.466
34737.361
33365.872
31829.768
30502.731
28552.842
26767.677
25642.944
24409.341
23218.201
22037.363
21022.522
19543.783
18851.59
17187.258
16608.12
14919.154
14487.185
12746.409
12316.64
10739.958
10218.564
8950.1576
7729.4903
6325.5047
4221.0724
2990.2961
73079.884
64323.54
55003.153
63793.833
56042.348
60336.534
61223.17
60104.23
60267.608
60177.205
59584.306
58862.583
58264.316
57970.24
56380.208
56511.486
54455.491
54665.391
52500.015
52933.533
50796.881
51080.663
49193.511
49000.989
47345.416
46972.557
45486.296
44889.735
43585.474
43015.558
41939.151
41273.907
40365.532
39636.286
38931.83
38309.136
37514.361
37310.506
36203.885
34935.887
34648.022
34076.711
33365.249
32968.075
32438.389
31887.039
31311.129
30795.039
30191.991
29651.826
29077.201
28519.081
27946.763
27401.787
26828.871
26281.761
25719.768
25180.98
24606.099
24068.095
23520.011
22952.68
22396.927
21902.818
21244.497
20809.491
20185.838
19603.996
19071.979
18496.318
17938.872
17334.868
16488.794
16420.679
15959.283
15461.001
14747.097
14157.117
13599.09
12916.791
12326.4
11836.111
10967.75
10806.194
9740.3599
9766.6917
8688.3433
8786.7668
7774.8065
7571.7503
6526.6546
5939.0255
5511.5658
4583.8185
4165.8809
-8353.1075
-3041.6642
-8684.0671
-2156.912
-3907.243
-2532.4434
-2919.0056
-2386.2849
-4888.5217
-2485.357
-4786.7237
-3596.7197
-4341.7446
-3407.8265
-4395.4868
-2697.6041
-3925.3848
-2041.4083
-3153.7673
-1573.6659
-2332.8596
-807.04009
-1871.9868
-699.07544
-1089.3982
-300.82841
-446.01233
89.093724
153.95452
468.13138
533.96096
779.14669
908.59572
1168.37
1341.9606
1407.1591
1895.7372
2004.1368
2266.8997
2102.2012
2393.6856
2696.4231
2671.4413
2815.7477
2970.0465
3011.1242
3158.6063
3276.7355
3381.3905
3489.9971
3596.2074
3701.4732
3794.8747
3888.3436
3982.9949
4063.1225
4141.5118
4231.0005
4271.1056
4375.6011
4393.9721
4481.1429
4533.225
4572.2494
4681.5616
4696.0532
4792.5863
4889.303
4932.4281
5047.0142
5015.0766
5011.5393
4949.0051
5113.3584
5196.1047
5280.7166
5207.0489
5295.6274
5221.3299
5263.1598
5283.446
5127.1989
5298.6533
5100.6603
5109.8881
5218.3169
4829.7611
5354.124
4615.3182
5387.7404
5023.962
5667.5681
5632.8324
5158.4732
5637.6243
-70015.176
-71410.629
-59251.123
-55367.05
-57097.485
-59866.118
-57982.187
-62034.557
-61212.509
-62709.159
-62255.447
-62686.12
-61678.085
-61104.586
-60386.55
-58722.653
-58481.943
-56011.633
-56253.996
-53447.836
-53447.099
-51430.316
-50928.212
-48370.986
-47917.818
-45741.094
-45181.423
-43165.675
-42459.581
-40822.944
-39891.602
-38483.687
-37484.277
-36218.851
-35279.654
-33991.136
-33153.093
-31982.765
-30992.489
-29946.045
-29042.783
-28062.895
-27264.576
-26280.175
-25427.599
-24606.889
-23808.468
-22988.06
-22246.462
-21485.387
-20733.464
-19998.283
-19287.361
-18560.782
-17855.488
-17170.722
-16476.518
-15799.023
-15147.076
-14482.06
-13845.481
-13211.814
-12608.385
-11959.336
-11429.479
-10784.669
-10194.924
-9608.6077
-8998.3264
-8386.2011
-7795.3552
-7099.1518
-6551.0039
-5896.5457
-5496.0361
-5108.28
-4409.9145
-3949.6845
-3307.249
-2841.2081
-2244.3433
-1819.3616
-1201.8809
-775.2108
-300.52622
465.64568
537.46211
1847.1027
1550.4241
3058.9238
2788.9277
3598.2189
3813.4752
5010.8834
6730.6636
-147805.69
-146656.19
-118165.64
-121864.62
-123679.9
-124347.27
-126695.57
-127276.63
-130373.02
-129223.88
-129885.2
-128852.52
-127927.7
-125655.13
-124543.65
-121102.82
-119619.73
-116018.47
-113990.47
-110383.67
-108613.47
-102979.23
-100377.26
-96837.678
-94968.672
-91888.156
-89672.079
-86919.812
-84728.682
-82214.364
-80148.307
-77819.925
-75888.387
-73738.49
-71739.854
-69875.55
-67914.054
-66165.681
-64333.21
-62711.407
-61039.983
-59406.606
-57805.227
-56327.717
-54755.562
-53318.859
-51819.756
-50358.911
-48941.045
-47516.438
-46096.786
-44721.653
-43342.13
-41975.179
-40634.692
-39312.828
-37998.067
-36703.728
-35456.572
-34167.344
-32961.764
-31729.496
-30514.073
-29333.013
-28146.076
-26930.182
-25753.502
-24577.128
-23378.471
-22201.568
-20987.483
-19808.666
-18607.849
-16958.73
-14720.996
-13474.557
-12402.846
-11364.07
-10101.434
-9440.3631
-7858.3192
-7556.9575
-5855.417
-5542.8142
-4134.4923
-3358.6782
-2571.8388
-1005.6289
-927.68066
1262.2677
1306.5392
2839.324
4099.8041
5719.9159
7634.9309
-228354.14
-177718.98
-159218.53
-162300.63
-166467.78
-168065.98
-171780.52
-174069.84
-177050.61
-176598.28
-176584.65
-176438.61
-174056.22
-171758.24
-169799.63
-165376.74
-163841.17
-158614
-156525.39
-152572.44
-150661.06
-149817.49
-147418.38
-144436.35
-142020.06
-137412.61
-134860.04
-130412.32
-127542.17
-123760.18
-120795.35
-117459.84
-114620.82
-111448.39
-108650.07
-105723.9
-103115.09
-100359.2
-97839.045
-95281.582
-92888.363
-90407.979
-88158.811
-85808.879
-83585.392
-81371.891
-79234.775
-77089.703
-75013.898
-72933.662
-70887.411
-68866.312
-66856.381
-64871.233
-62901.289
-60964.678
-59029.333
-57139.891
-55255.24
-53399.889
-51569.447
-49738.117
-47969.625
-46167.116
-44468.258
-42702.873
-40984.53
-39213.316
-37483.67
-35692.891
-33934.527
-32262.588
-30362.291
-28508.093
-26758.342
-24519.754
-22177.672
-20465.305
-18717.949
-17056.496
-15592.069
-13857.858
-12466.376
-10864.268
-9355.0024
-8022.9571
-6341.3939
-5170.5041
-3479.1261
-1996.3484
-631.94151
1473.2002
3205.8598
5462.9873
9554.6152
-268823.49
-255323.91
-228152.85
-224000.78
-228201.85
-230258.51
-235805.85
-238754.79
-239099.12
-241397.49
-240287.36
-238101.88
-236373.41
-232573.03
-229036.64
-224920.76
-220220.63
-215216.97
-211082.53
-205169.74
-202104.69
-195995.25
-195441.23
-191610
-187367.8
-182809.7
-178356.61
-173379.15
-169154.25
-164364.24
-160470.2
-155907.4
-152251.52
-148180.36
-144503.36
-140903.83
-137298.76
-133889.86
-130519.57
-127328.94
-124082.27
-121101.79
-118043.97
-115157.87
-112250.63
-109422.59
-106634.25
-103845.34
-101107.22
-98395.378
-95683.677
-93012.28
-90355.935
-87719.324
-85111.823
-82537.81
-79989.627
-77471.444
-75007.935
-72558.348
-70141.108
-67782.14
-65406.734
-63070.631
-60788.565
-58472.168
-56160.161
-53912.416
-51610.401
-49255.404
-47034.487
-44595.409
-42261.866
-39969.75
-37599.112
-35771.768
-33245.856
-30803.799
-28430.846
-26180.732
-23807.751
-21626.65
-19349.254
-17244.829
-14996.436
-13151.275
-10740.418
-9197.5777
-6899.994
-4951.7675
-3381.3533
-163.72421
2058.6996
6451.1101
10973.794
-378631.61
-339188.33
-278990.14
-298117.01
-292025.2
-305415.55
-305197.71
-310813.22
-311169.69
-312689.67
-310308.97
-308981.95
-304622.01
-301239.79
-295520.82
-290272.58
-284739.58
-277830.44
-272462.3
-265498.63
-259712.41
-253147.64
-246352.95
-238996.99
-233728.18
-227231.53
-222379.32
-215816.13
-210860.36
-205026.88
-200012.05
-194582.73
-190034.2
-185097.19
-180602.46
-176032.63
-171644.71
-167392.58
-163356.75
-159257.36
-155470.1
-151588.14
-147895.91
-144220.36
-140641.21
-137112.84
-133657.32
-130209.59
-126840.38
-123488.65
-120151.91
-116870.98
-113595.25
-110359.97
-107143.34
-103979.05
-100821.32
-97728.673
-94662.423
-91627.638
-88653.062
-85690.532
-82765.266
-79850.769
-76999.209
-74130.861
-71305.548
-68470.52
-65619.717
-62713.122
-59818.881
-56920.399
-54026.298
-51059.271
-48067.576
-45202.747
-42240.902
-39358.238
-36413.329
-33535.229
-30722.283
-27913.529
-25185.144
-22496.384
-19915.841
-17309.832
-14831.696
-12521.358
-9753.7146
-7888.0223
-4828.2529
-2370.7761
447.19581
4433.4694
9342.3827
-412392.62
-390857.76
-322007.1
-355481.78
-356866.08
-368069.42
-368996.78
-376974.54
-376738.4
-375422.23
-375387.89
-370255.27
-366421.03
-361032.24
-353620.83
-347776.25
-340000.92
-332012.29
-325283.97
-316470.14
-309315.26
-301517.32
-294078.13
-287324.66
-279581.22
-272435.57
-265706.48
-258380.76
-252721.34
-245579.52
-239882.06
-233378.96
-227595.18
-221728.6
-216322.88
-211238.56
-205924.98
-201157.41
-196102.91
-191535.07
-186868.67
-182417.22
-178067.88
-173778.52
-169597.54
-165445.02
-161351.99
-157292.35
-153264.44
-149259.93
-145270.81
-141312.48
-137371.09
-133455.71
-129573.92
-125732.35
-121930.06
-118182.89
-114484.01
-110854.92
-107266.65
-103751.96
-100270.61
-96821.247
-93377.113
-89943.828
-86462.888
-83215.054
-79930.532
-76411.065
-73144.665
-69642.795
-66111.225
-62667.135
-59042.416
-55484.033
-51892.315
-48325.35
-44764.447
-41307.945
-37822.2
-34448.848
-31095.03
-27907.301
-24641.604
-21678.737
-18621.328
-15761.104
-12860.453
-10479.246
-6968.833
-5204.4662
-1425.8589
2585.6729
8846.4013
-585369.94
-369763.63
-399593.03
-406229
-422095.63
-417025.4
-430480.72
-433524.16
-430783.61
-431811.43
-427882.54
-425053.82
-417694.01
-411737.92
-403532.3
-396077.97
-388766.28
-378787.1
-371131.41
-361634.58
-352877.38
-344106.49
-336699.17
-327390.36
-320321.27
-310866.88
-303975.38
-295168.05
-289563.2
-281439.61
-275193.51
-267712.31
-261241.98
-254149.93
-247644.88
-242441.98
-236671.93
-230974.84
-225423.29
-220135.66
-214823.7
-209777.96
-204739.24
-199835.9
-195012.35
-190246.28
-185554.49
-180910.71
-176279.95
-171715.28
-167135.3
-162618.08
-158100.22
-153624.41
-149186.01
-144791.84
-140439.82
-136158.25
-131934.67
-127770.82
-123683.21
-119668.91
-115697.81
-111788.8
-107905.64
-103939.61
-99917.591
-95987.856
-92402.445
-88549.611
-84770.995
-80637.84
-76753.689
-72688.627
-68601.528
-64516.01
-60522.617
-56352.918
-52356.038
-48268.236
-44295.693
-40332.61
-36555.683
-32701.877
-29121.447
-25594.142
-22095.147
-18921.261
-15766.317
-12866.547
-9825.5393
-8108.5985
-4593.9766
-1709.3257
4438.1907
1086700.1
1052179.9
1029527.4
1057609.8
1063103.9
1069977.4
1106990.7
1082195.9
1075529.7
1071504.2
1064960.1
1031871.9
1022043.9
1070201.3
933142.44
961167.99
987509.73
940811.5
969856.26
978911.33
996838.14
969426.91
1004366
994698.02
1001884.5
981236.42
976177
975058.56
980040.73
852074.98
720382.89
818942.43
733634.16
768278.28
766576.11
760434.18
771280.04
763673.82
770221.73
759011.02
756900.46
762312.26
715122.17
780041.45
730300.84
632477.06
633882.24
637205.03
630800.16
649579.77
645567.86
653574.98
655520.59
648399.57
650883.24
651558.37
629467.77
630585.2
670269.39
496306.69
448307.78
508185.7
447936.68
484668.61
472389.06
487598.79
483127.28
480720.87
485526.69
483553.67
477730.86
475773.01
468951.35
481022.12
435359.31
326963.71
342798.78
323247.86
334469.74
335492.29
337275.26
336346.07
337115.25
339611.22
337408.38
330189.8
341748
323794.91
341157.5
328203.96
177738.5
180478.17
183878.88
177852.83
186788.89
187867.42
186678.29
188676.27
183216.97
187859.86
183392.9
173662.78
186150.49
171650.59
178867.58
23310.63
23023.004
14964.093
25815.275
20126.664
23129.019
21472.604
22912.714
17869.159
30267.724
8189.317
28605.657
37345.778
3062.125
85798.806
-116916.8
-132687.62
-114522.97
-124391.15
-121045.88
-121095.84
-122932.37
-118707.68
-125564.72
-110001.73
-129027.8
-110742.36
-107083.61
-147203.05
-11600.833
-243181.96
-301568.37
-264141.44
-276122.85
-275573.19
-280657.11
-282723.99
-281509.78
-291281.48
-272448.42
-309732.04
-267099.55
-266847.96
-320697.75
-160247.56
-397521.47
-490786.75
-406598.32
-455178.94
-433472.21
-444623.32
-440733.15
-439866.67
-445847.19
-422502.06
-436234.2
-429384.42
-395417.45
-456768.94
-260470.96
-590192.6
-570160.04
-571384.98
-562893.47
-583220.47
-586965.11
-590446.46
-597495.3
-600158.35
-587909.59
-621428.39
-543115.82
-574264.16
-632242.52
-413344.2
-663247.6
-759340.24
-660604.54
-697083.11
-667813.16
-691038.95
-683759.09
-685563.48
-676902.23
-671877.73
-677429.99
-684497.46
-620807.37
-755846.48
-353598.98
-821150.55
-1014083.8
-865455.68
-954584.83
-973701.63
-966752.02
-974006.52
-1020800.7
-996917.25
-1021465.4
-964817.32
-937978.9
-961947.63
-931064.65
-849072.38
-872846.9
-792853.97
-713213.4
-719409.48
-751906.47
-808862.5
-772205.08
-744537.54
-711116.6
-707561.63
-722772.07
-727631.72
-722823.65
-816297.45
-719442.09
-844423.98
-787881.25
-943268.15
-996679.51
-1039994.8
-1133559.1
-1087124.2
-1018498.4
-1157288.7
-1132784.2
-1093961.5
-1036519.6
-985110.17
-942589.11
-769815.5
-578750.52
-587818.48
-668912.11
-690799.05
-722845.68
-746639.48
-769127.75
-790605.58
-816900.48
-774785.3
-757726.16
-709604.1
-709198.89
-700281.05
-700861.71
-473858.8
-552168.98
-534189.77
-592580.25
-627575.98
-608865.72
-642178.86
-635061.51
-616900.11
-643726.55
-616095.3
-625087.91
-603250.46
-528552.47
-557616.28
-478515.37
-551931.07
-559035.15
-577361.37
-594169.51
-608352.16
-614700.51
-621332.1
-619893.18
-605335.08
-604064.71
-586726.31
-561068.77
-550213.8
-514527.6
-514010.7
-567805.62
-548985.95
-597499.4
-602585.12
-616206.61
-631067.59
-628113.85
-632474.75
-630960.82
-613686.41
-600482.71
-573206.58
-544026.45
-540675.64
-494810.52
-521551
-537546.56
-560376.53
-568837.84
-586600.67
-585841.02
-588952.71
-588532.82
-578681.61
-574070.15
-561586.58
-542730.12
-527495.35
-495892.65
-493180.09
-534061.96
-534269.45
-561237.25
-562163.75
-576004.23
-580726.19
-582702.13
-582109.45
-576156.85
-563395.25
-555325.86
-538837.92
-512861.11
-517397.21
-496672.19
-509269.86
-524677.24
-535040.54
-552404.19
-555482.29
-562393.77
-564874.16
-562229.5
-559081.56
-551313.72
-540107.99
-528231.49
-508473.7
-495022.6
-485420.79
-508650.11
-513259.68
-530780.77
-529766.99
-543876.75
-540832.12
-545687.93
-542363.33
-537214.65
-530784.88
-521560.46
-512755.38
-499728.82
-493285.13
-484552.77
-491841.6
-502403.42
-507340.4
-517162.47
-519623.45
-524930.04
-525042.04
-523145.96
-522912.16
-515209.93
-510852.21
-501888.36
-490880.3
-485829.96
-473202.27
-487533.73
-491269.48
-503125.34
-505138.95
-513917.44
-512830.19
-517125.45
-515584.31
-512511.44
-509856.35
-504466
-496283.31
-489220.86
-484061.06
-470818.92
-473498.15
-480662.5
-484010.84
-488841.37
-490110.33
-494306.26
-494454.2
-494789.55
-493367.74
-490102.16
-485423.73
-482007.3
-474940.93
-473010.04
-462068.57
-466367.42
-468451.41
-475663.27
-477606.24
-483796.9
-483113.36
-486402.01
-485678.9
-484618.32
-480617.6
-479844.66
-472963.79
-470620.07
-465715.35
-452160.56
-454862.35
-460777.55
-461498.2
-465738.12
-466202.78
-467813.51
-469265.64
-469364.37
-467604.09
-466626.48
-464395.83
-461258.71
-457595.85
-457605.11
-444398.51
-445381.8
-448440.35
-451970.65
-453915.91
-455953.38
-458286.43
-457482.46
-458777.81
-458960.99
-456649.5
-456102.82
-450201.26
-451789.18
-448137.07
-433223.42
-435515.58
-439785.34
-439356.83
-441940.3
-442683.38
-446213.16
-443584.71
-443219.81
-442590.62
-440860.27
-440635.17
-436562.22
-435380.86
-434249.42
-425913.01
-425119.26
-428416.89
-427568.8
-431421.41
-432725.01
-433066.16
-434093.19
-434789.64
-434932.68
-433382.86
-433976.54
-432516.54
-429218.01
-432053.94
-416154.34
-416009.27
-418234.16
-417728.46
-419811.66
-420214.29
-421398.27
-420277.7
-420548.1
-419980.22
-418762.92
-418078.43
-416444.39
-415486.48
-415042.34
-405078.78
-405322.42
-407783.61
-408693.67
-409510.66
-409846.45
-409038.77
-411304.84
-410840.79
-411600.56
-408787.46
-411311.04
-408641.39
-411286.39
-409446.13
-396514.58
-395673.39
-397345.79
-396195.72
-398318.21
-398342.19
-400645.69
-398649.84
-399877.91
-398610.36
-397130.07
-399084.78
-395691.23
-397928.95
-395813.92
-387187.78
-385933.07
-387936.42
-387103.63
-387620.13
-387352.42
-388756.96
-389620.32
-388697.75
-389397.86
-388944.77
-390078.17
-388103.6
-389052.21
-388040.25
-375343.61
-376624.01
-377104.2
-376977.16
-378256.95
-377630.79
-378900.96
-377858.44
-378872.76
-378396.5
-377636.48
-379205.21
-377015.12
-376788.32
-378763.89
-368675.71
-366032.64
-367550.48
-367191.27
-367914.79
-368217.44
-368962.2
-368694.87
-367871.78
-369794.53
-367825.09
-368687.41
-366328.43
-370039.14
-368625.45
-357423.66
-357085
-357957.3
-358204.77
-358208.53
-358510.4
-358823.16
-358041.92
-359105.67
-358531.92
-357266.44
-359668.27
-358187.94
-358648.18
-358330.2
-349190.6
-348467.13
-348602.92
-348190.73
-348692.83
-348088.72
-349560.51
-349201.44
-349154.93
-350164.07
-347768.42
-350346.84
-348198.79
-350064.03
-350004.32
-341023.94
-338044.78
-339793.77
-338220.49
-339289.93
-339604.97
-340272.58
-339592.26
-340185.53
-340250.71
-340794.65
-340485.24
-338725.42
-341246.43
-339793.92
-331112.92
-329803.8
-330159.36
-330588.52
-330577.01
-331630.93
-331029.5
-331423.8
-331047.74
-331536.79
-330351.56
-332925.84
-329805.62
-331766.34
-332943.78
-324038.61
-320771.34
-321980.97
-321231.36
-322622.17
-322351.8
-322312.44
-322299.83
-322863.92
-322555.35
-322396.68
-322761.6
-321753.13
-324505.58
-322332.54
-314116.84
-313533.76
-314646.45
-313500.96
-313742.85
-314004.49
-314073.65
-314380.52
-314202.12
-314760.47
-313807
-315342.97
-313462.76
-314524.5
-316222.49
-308569.77
-304272.02
-305885.04
-305496.43
-306398.8
-305724.27
-306173.31
-306183.47
-306151.54
-306100.68
-305572.11
-306939.21
-305225.56
-307522.51
-307205.71
-299477.62
-297438.29
-298349.42
-297893.11
-297879.03
-299087.37
-298179.85
-298340.73
-297456.92
-298853.69
-297945.55
-299386.78
-297796.58
-299155.53
-299540.15
-293057.19
-289417.02
-291089.65
-290274.81
-290677.63
-290973.27
-290596.04
-290829.46
-290536.48
-291198.86
-290265.02
-291782.5
-290232.73
-291901.6
-291889.81
-285337.05
-282514.14
-283650.62
-283121.03
-283515.71
-283711.7
-283448.27
-283619.94
-283417.97
-283941.8
-283191.25
-284497.55
-283091.52
-284608.28
-284418.91
-278354.28
-275361.65
-276729.91
-276030.31
-276375.09
-276486.71
-276469.32
-276566.77
-276303.05
-276813.92
-275974.96
-277372.45
-276096.14
-277652.49
-277688.32
-270902.35
-268989.41
-270005.47
-269270.76
-269687.51
-269986.29
-269619.85
-269945.1
-269547.35
-270285.9
-269312.5
-270676.59
-269248.45
-270822.24
-270136.01
-263953.47
-262877.21
-262942.08
-263914.95
-262656.99
-263346.3
-263042.84
-263104.51
-263032.95
-263362.49
-262719.69
-263832.06
-263096.41
-263804.02
-265185.01
-259108
-255807.25
-256936.31
-256359.64
-257124.04
-256580.96
-257056.53
-256715.95
-256864.18
-256567.42
-256371.48
-257806.66
-256353.45
-258065.8
-257682.14
-251970.08
-250109.5
-250720.31
-250802.31
-250293.56
-250971.57
-250401.25
-250887.43
-250426.88
-250935.47
-250245.26
-251449.96
-250499.27
-251453.98
-251762.02
-246854.29
-243764.18
-245121.66
-244462.84
-244857.54
-244773.29
-244830.45
-244807.3
-244589.7
-245089.28
-244337.23
-245769.67
-244380.45
-245760.51
-245718.77
-240480.17
-238273.25
-239229.44
-238893.53
-238941.56
-239197.83
-239025.88
-239057.82
-238968.59
-239300.68
-238641.55
-239752.73
-238767.31
-239929.11
-240035.84
-235165.83
-232524.45
-233769.25
-233160.58
-233499.19
-233446.98
-233450.46
-233475.18
-233319.33
-233767.9
-233019.62
-234278.09
-233192.19
-234327.35
-234392.71
-229440.18
-227233.86
-228224.47
-227844.17
-228028.29
-228116.14
-228126.41
-228023.04
-228017.86
-228302.62
-227715.23
-228868.13
-227838.22
-228882.88
-229029.4
-224244.25
-221839.58
-222994.13
-222475.3
-222762.16
-222833.02
-222781.38
-222768.16
-222690.11