/*--------------------------------*- C++ -*----------------------------------*\
  =========                 |
  \\      /  F ield         | OpenFOAM: The Open Source CFD Toolbox
   \\    /   O peration     | Website:  https://openfoam.org
    \\  /    A nd           | Version:  6
     \\/     M anipulation  |
\*---------------------------------------------------------------------------*/
FoamFile
{
    version     2.0;
    format      ascii;
    class       pointVectorField;
    location    "0.78";
    object      lm;
}
// * * * * * * * * * * * * * * * * * * * * * * * * * * * * * * * * * * * * * //

dimensions      [1 -2 -1 0 0 0 0];

internalField   nonuniform List<vector> 
3969
(
(-4.0340813e-15 -4.7705825e-17 1.3312818e-16)
(9.2297575e-16 -2.6090405e-16 -6.0252577e-16)
(-5890.4729 304.33021 -47.134547)
(-5889.6834 1162.5671 -14.272728)
(-7.1783695e-15 2.6020842e-15 -1.0366567e-15)
(-4.622429e-15 2.1493156e-15 -1.5432914e-15)
(-5909.22 1184.6054 -20.585946)
(-5917.3046 326.2337 -45.228289)
(-6.09887e-15 1.0869625e-16 -2.0095736e-16)
(-3.193382e-15 6.5333688e-16 6.3735029e-17)
(-2.9260211e-15 2.9260844e-16 -4.8432863e-17)
(-1.7497804e-15 -1.5755452e-16 -2.074758e-16)
(-4.3254872e-15 8.6218995e-16 7.3228779e-16)
(-2.4697388e-15 -4.9707839e-16 4.8086129e-16)
(5.2680668e-16 -4.7467027e-16 -5.3018058e-16)
(-5773.5963 395.77343 -44.454287)
(-5643.7302 485.70081 -41.529312)
(-5642.3783 588.60688 -36.923975)
(-5761.8779 708.67379 -32.306812)
(-5920.3009 840.04352 -27.088255)
(-6015.0641 966.4112 -22.061596)
(-5988.0723 1073.1285 -17.645543)
(-31.155164 -60.059833 -64.192176)
(-47.365225 -102.29925 -80.678684)
(-76.614441 -144.45563 -91.466609)
(-116.51537 -185.3587 -97.8533)
(-165.36255 -223.57707 -102.83932)
(-223.96145 -258.67072 -106.52966)
(-291.43067 -290.29685 -110.06938)
(-368.47938 -318.22323 -110.9678)
(-454.7516 -342.28684 -110.82293)
(-550.70091 -363.00035 -107.00321)
(-656.31407 -380.28437 -101.12405)
(-770.84784 -394.27765 -92.329169)
(-894.33921 -405.39865 -81.380401)
(-1025.7101 -414.28221 -69.294154)
(-1164.5582 -420.66123 -56.752508)
(-1310.0853 -425.61234 -44.566046)
(-1462.4509 -429.02979 -33.538633)
(-1621.59 -431.21786 -23.582933)
(-1788.2153 -432.0473 -14.707872)
(-1962.8573 -431.58318 -6.3875526)
(-2146.3608 -429.28812 1.9088251)
(-2339.017 -424.98528 10.728791)
(-2540.8056 -417.88325 20.331608)
(-2750.7672 -407.72543 30.614279)
(-2967.343 -393.63605 41.070497)
(-3188.0971 -376.1831 50.830242)
(-3410.2141 -354.18212 58.892139)
(-3630.9027 -328.04095 64.564457)
(-3847.2201 -297.76109 67.219146)
(-4056.4981 -263.53642 66.964569)
(-4257.0868 -225.84111 64.200528)
(-4447.4706 -185.13288 59.848268)
(-4626.6484 -142.14962 55.029741)
(-4793.9362 -97.768392 50.535851)
(-4948.687 -52.831224 46.870308)
(-5089.8716 -8.3874321 44.537829)
(-5216.8788 34.395066 42.20336)
(-5328.9205 75.162673 39.575561)
(-5425.3496 112.72207 36.12098)
(-5505.7791 146.83159 30.054952)
(-5571.7961 177.18386 22.023577)
(-5623.4566 203.25109 11.20667)
(-5664.5904 226.4119 -0.49616441)
(-5696.5685 245.13288 -13.221182)
(-5723.399 261.70185 -24.25376)
(-5748.0109 275.8956 -33.71686)
(-5779.7557 288.08715 -40.510753)
(4.4434313 46.717984 64.597621)
(-18.019085 74.978888 61.460413)
(-40.537842 110.66933 73.339496)
(-75.164051 141.17289 66.127946)
(-123.10694 178.01404 62.754793)
(-178.10599 213.4619 54.614155)
(-241.53153 249.44165 49.049854)
(-312.40482 286.88762 42.745423)
(-390.87508 324.22309 38.808313)
(-476.52431 362.08422 36.146339)
(-569.55662 399.68754 35.561008)
(-669.33065 436.45787 36.756947)
(-776.66058 473.04846 39.824982)
(-891.03322 508.73784 43.756944)
(-1011.7779 543.86475 48.882514)
(-1139.5728 578.81213 54.567536)
(-1274.1509 614.38616 60.696954)
(-1415.9169 650.7984 66.983645)
(-1565.3799 688.87503 73.262292)
(-1722.9366 728.3762 79.373024)
(-1889.3358 769.69357 84.9767)
(-2064.9123 811.70308 89.947119)
(-2249.9848 854.53891 93.477111)
(-2444.21 896.56033 95.580635)
(-2647.0553 937.29666 95.442981)
(-2857.2254 975.86363 92.690259)
(-3073.4718 1011.687 87.454385)
(-3292.8057 1044.7069 79.520273)
(-3513.481 1074.2112 69.451625)
(-3732.5359 1100.5739 57.767576)
(-3947.9153 1123.7993 45.523865)
(-4157.1789 1143.9021 33.410156)
(-4358.3591 1160.7569 22.441869)
(-4549.7406 1174.1762 13.037031)
(-4729.8179 1183.7639 5.7365266)
(-4897.2832 1189.5711 0.31090347)
(-5051.4704 1191.2475 -3.8808151)
(-5190.6182 1189.4608 -6.0916591)
(-5314.5208 1184.012 -8.3284363)
(-5423.5253 1177.021 -10.016361)
(-5515.9047 1168.7946 -11.780991)
(-5594.2212 1160.9586 -13.071349)
(-5658.5219 1154.448 -14.33308)
(-5710.8616 1150.1112 -15.030183)
(-5753.4288 1148.3917 -15.306782)
(-5788.9155 1149.0057 -15.186644)
(-5830.7784 1153.9206 -14.778432)
(-3.9179893e-16 -2.8384427e-17 -1.6191597e-16)
(6.8869455e-16 3.3255846e-16 -2.9305012e-16)
(-3.0379221e-16 -4.0639439e-16 3.7376104e-16)
(8.6048107e-16 -8.7588792e-17 1.0515471e-16)
(5.0258192e-16 -7.4376592e-16 6.4035694e-16)
(-2.9679417e-15 -3.4669267e-16 7.3060073e-16)
(8.9003905e-16 -2.834795e-16 1.0120244e-16)
(-19.708018 33.730392 -50.534243)
(-34.574424 103.25846 -67.313071)
(-57.804249 107.61015 -67.687726)
(-95.365044 158.36461 -70.078535)
(-143.39575 188.74583 -72.267678)
(-194.55172 218.56504 -70.852846)
(-258.19158 253.94127 -71.82426)
(-326.31639 279.96824 -70.155725)
(-405.42363 312.40758 -66.547102)
(-492.31655 340.19 -60.746137)
(-588.72406 370.99926 -52.963016)
(-691.97106 398.92171 -41.765388)
(-804.77533 430.0746 -29.176469)
(-923.72708 461.09835 -16.318151)
(-1049.3963 494.04856 -4.0123075)
(-1179.7131 528.00123 6.9299232)
(-1316.713 563.83577 16.344513)
(-1458.9187 601.29454 24.16353)
(-1608.9026 640.95177 31.112304)
(-1766.7046 682.56202 37.823009)
(-1934.0942 726.40002 45.039737)
(-2111.3824 771.99067 53.354527)
(-2299.0075 819.05153 62.847344)
(-2496.0676 866.63075 73.198335)
(-2701.552 914.33738 83.752523)
(-2912.6046 960.06055 93.403162)
(-3126.7333 1004.1407 100.38301)
(-3343.5241 1044.2302 105.47711)
(-3559.4515 1080.4739 107.29541)
(-3772.8984 1111.9033 106.42055)
(-3982.0497 1138.3183 103.32346)
(-4185.5944 1159.7827 98.852722)
(-4382.3473 1176.4463 94.084346)
(-4571.1192 1188.6382 89.832499)
(-4750.7568 1197.0273 86.690394)
(-4920.1925 1201.9012 84.029441)
(-5077.1421 1205.0467 82.514487)
(-5217.5323 1203.3938 79.261614)
(-5344.3563 1201.6696 75.601476)
(-5453.9556 1197.9049 68.569587)
(-5546.4165 1193.2733 59.033434)
(-5622.9939 1188.0003 47.047389)
(-5684.7861 1183.1693 33.251867)
(-5734.6139 1178.9035 19.201328)
(-5775.2214 1176.1693 6.1407447)
(-5809.4841 1174.8722 -4.8057335)
(-5824.6813 1172.2318 -12.776498)
(-6009.432 1097.7127 -25.506328)
(-6032.5604 991.23498 -29.369125)
(-5930.4494 864.41488 -31.03306)
(-5748.5979 729.33974 -31.329794)
(-5652.7836 612.16908 -32.271743)
(-5673.7964 510.2738 -34.504806)
(-5812.89 420.3278 -39.383991)
(-5808.4025 310.32194 -43.232466)
(-5802.1107 301.77781 -40.691832)
(-5774.5693 289.33633 -39.258665)
(-5743.4274 273.41265 -37.087178)
(-5706.5804 253.54767 -35.090591)
(-5661.5857 228.90186 -33.303396)
(-5606.1983 199.78331 -31.859855)
(-5538.6852 166.63104 -31.012216)
(-5457.313 130.32566 -30.46701)
(-5361.0755 91.655856 -29.893559)
(-5248.8759 51.397153 -28.883703)
(-5117.9423 8.4798669 -26.209255)
(-4980.1845 -32.434483 -22.878616)
(-4821.0932 -75.732437 -17.072185)
(-4649.5389 -119.0528 -9.3768334)
(-4465.0715 -162.68898 0.27993187)
(-4269.3354 -206.28844 11.092088)
(-4064.2711 -249.21145 22.498394)
(-3851.793 -290.42482 33.345782)
(-3634.4212 -329.21837 43.275211)
(-3414.5599 -364.12793 51.172765)
(-3194.6251 -394.8581 57.074193)
(-2977.2705 -420.37118 60.572141)
(-2764.457 -440.92867 61.963625)
(-2558.2374 -456.51143 61.330951)
(-2359.732 -467.87239 59.124562)
(-2169.8671 -475.54802 55.66007)
(-1988.8694 -480.33679 51.227476)
(-1816.7352 -482.66921 46.142643)
(-1652.9227 -482.9484 40.650347)
(-1497.1508 -481.03081 34.87278)
(-1348.5452 -476.82546 29.166767)
(-1209.5702 -470.38177 23.995652)
(-1073.2426 -459.73654 19.009008)
(-944.25609 -444.89767 15.334952)
(-822.83205 -426.81024 12.935927)
(-709.09306 -404.9222 12.572971)
(-602.14217 -379.18097 13.44512)
(-502.51141 -350.39591 17.694569)
(-412.07396 -318.83581 22.100112)
(-330.81974 -285.37785 28.946919)
(-255.10948 -248.94644 36.792506)
(-192.12465 -212.07765 45.1283)
(-135.17268 -173.02522 52.90961)
(-90.685411 -133.9625 57.283507)
(-54.384206 -88.92653 58.483436)
(-47.547633 -55.335868 42.650071)
(-6.7652979e-16 3.5118239e-16 1.2802193e-16)
(-2.3129286e-15 2.7505878e-16 1.3239036e-16)
(-3.6393531e-15 -1.4253491e-16 -1.5464221e-16)
(-4.9195801e-15 -9.3657526e-16 4.6870719e-16)
(-4.0844143e-15 -8.2232132e-16 1.723462e-16)
(-2.0271537e-15 -1.8079967e-16 2.6438577e-16)
(-2.0670014e-15 8.6459225e-16 1.4474963e-15)
(-4.5036838e-15 1.2268482e-15 -2.065022e-16)
(-1.9919023e-15 1.1694967e-15 -1.6367101e-16)
(-2.9438013e-15 1.1112212e-15 -1.969436e-16)
(-2.4504202e-15 9.597151e-16 -1.1789697e-16)
(-5.2893259e-15 2.5926013e-15 -8.0820905e-16)
(-1.8775489e-15 1.1365606e-15 -5.8525306e-16)
(-7.4714327e-17 -2.094137e-16 9.7564992e-17)
(-5893.1063 1162.517 -15.382259)
(-5894.9733 1162.9218 -16.076323)
(-5896.6745 1163.3767 -15.913351)
(-5898.226 1164.1326 -16.133533)
(-5900.318 1166.1772 -16.741516)
(-5902.784 1170.4678 -17.751507)
(-5906.4628 1176.193 -20.090135)
(-5890.9458 310.51477 -46.372537)
(-5892.5657 314.97494 -45.057636)
(-5895.2223 317.8305 -44.357507)
(-5899.0833 319.52986 -44.192404)
(-5903.7454 320.78096 -44.599644)
(-5908.5426 322.16016 -45.049486)
(-5912.9759 324.0998 -45.35987)
(-11.427039 -42.404994 -58.441824)
(-30.089866 -74.970157 -59.674522)
(-56.006846 -110.0998 -72.764999)
(-94.249726 -143.10927 -78.184852)
(-140.68825 -173.77719 -83.872563)
(-198.92017 -202.90106 -89.027023)
(-265.4103 -228.4409 -92.238871)
(-342.66877 -251.4049 -95.425898)
(-429.89683 -270.52656 -95.377749)
(-527.66263 -286.55327 -93.804127)
(-636.01205 -299.12954 -89.085375)
(-754.45503 -308.84284 -81.895881)
(-882.73575 -315.86006 -72.394177)
(-1019.6288 -320.53827 -61.329775)
(-1164.4324 -323.14302 -49.517006)
(-1316.0012 -323.74475 -37.725522)
(-1473.935 -322.45169 -26.46448)
(-1637.3647 -319.0055 -16.081909)
(-1807.0346 -313.27222 -6.5380336)
(-1982.9172 -304.9066 2.4895256)
(-2165.8435 -293.6464 11.323068)
(-2355.9436 -279.26073 20.394328)
(-2553.2944 -261.7853 29.76224)
(-2756.7818 -241.25541 39.254712)
(-2965.168 -217.98877 48.22421)
(-3175.8182 -192.03734 56.246832)
(-3386.0895 -163.59323 62.006107)
(-3593.2602 -133.13412 65.328641)
(-3794.5058 -100.30326 65.84975)
(-3987.7137 -65.645119 63.787939)
(-4171.4674 -29.164614 59.663247)
(-4344.6992 8.7316219 54.511542)
(-4506.8848 47.33138 49.058112)
(-4657.8074 86.053158 44.011712)
(-4797.0608 123.76825 40.027834)
(-4924.4453 159.76049 36.57396)
(-5039.5212 193.09081 33.588313)
(-5141.9928 223.42513 30.496069)
(-5231.8062 250.21636 26.339813)
(-5309.1109 273.74691 20.667663)
(-5375.1841 294.05623 13.574124)
(-5430.9073 312.00828 4.7847744)
(-5479.5103 327.74722 -4.6173057)
(-5522.2122 342.15502 -14.490723)
(-5563.3475 355.53034 -23.208025)
(-5604.2208 368.20332 -31.10611)
(-5663.4253 380.19506 -37.578162)
(5.4335996 -31.325837 -43.200767)
(-11.537126 -51.069557 -46.219303)
(-40.146257 -82.643814 -56.801981)
(-77.691259 -107.07268 -61.320945)
(-127.71417 -132.6128 -67.3748)
(-187.30937 -155.68671 -71.545167)
(-258.27406 -175.73719 -76.668845)
(-340.5338 -193.03168 -79.139834)
(-433.82494 -206.17363 -80.952467)
(-538.74072 -216.33081 -79.710173)
(-654.76832 -222.58512 -76.127193)
(-781.35616 -225.90731 -69.660936)
(-917.70858 -226.26984 -60.955207)
(-1062.1275 -224.25431 -50.313828)
(-1213.0705 -219.8419 -38.720516)
(-1369.5942 -213.50744 -26.837557)
(-1529.7903 -205.0155 -15.425397)
(-1693.3829 -194.26504 -4.8083448)
(-1859.9035 -180.89707 5.0047759)
(-2029.5831 -164.84337 14.091941)
(-2202.6784 -145.74881 22.756667)
(-2379.4197 -123.97249 31.256802)
(-2559.4172 -99.701405 39.547156)
(-2742.2021 -73.449295 47.344651)
(-2925.9766 -45.466416 54.340716)
(-3108.9008 -16.672914 59.521064)
(-3288.8741 13.275566 62.683505)
(-3463.644 43.645037 63.470615)
(-3631.522 74.592407 61.699521)
(-3791.2102 106.11972 57.912275)
(-3942.1613 138.07838 52.703602)
(-4084.2057 170.19472 46.849612)
(-4217.8187 202.21705 41.034769)
(-4343.4064 233.31479 36.070369)
(-4461.652 263.02737 31.81451)
(-4572.914 290.7432 28.467831)
(-4677.6352 315.77308 25.529566)
(-4775.9944 338.35896 22.395248)
(-4868.8869 357.89489 18.749785)
(-4956.1256 375.35302 13.966804)
(-5039.7699 390.71785 8.0990381)
(-5119.9427 404.88602 1.0830713)
(-5199.7762 418.4841 -6.4978621)
(-5279.934 431.76868 -14.42549)
(-5363.6392 445.14408 -21.604705)
(-5451.883 458.87122 -28.696768)
(-5548.8951 471.87705 -34.555623)
(15.989838 -20.060933 -29.688995)
(-1.065242 -35.393487 -31.457729)
(-27.295168 -54.775142 -38.741725)
(-69.201222 -73.095578 -43.028342)
(-121.88562 -89.13129 -48.164577)
(-187.52571 -103.92221 -53.60146)
(-264.87141 -114.19872 -57.273382)
(-353.76245 -121.98496 -61.298497)
(-454.89323 -125.64713 -62.606924)
(-567.47124 -125.90068 -61.789721)
(-690.89581 -122.92185 -58.286736)
(-824.02815 -116.90413 -52.10219)
(-965.76641 -108.84416 -43.577237)
(-1113.2743 -98.704316 -33.544392)
(-1265.304 -87.077588 -22.730033)
(-1420.098 -73.892648 -11.622053)
(-1576.1777 -59.167268 -0.97465589)
(-1732.4951 -42.813089 9.0655325)
(-1888.7788 -24.58105 18.138638)
(-2044.8884 -4.4250119 26.51073)
(-2201.1376 17.677244 34.20241)
(-2357.6317 41.331157 41.486389)
(-2514.6838 66.273456 48.144164)
(-2671.1454 92.161276 54.112558)
(-2826.4804 118.072 58.701586)
(-2979.3474 144.07333 61.884334)
(-3128.5063 169.64684 63.186065)
(-3272.4958 194.77188 62.045697)
(-3410.6711 219.76098 59.025701)
(-3542.589 244.61155 54.404444)
(-3668.4386 269.29983 48.641726)
(-3788.9546 294.07859 42.500266)
(-3905.1234 318.57681 36.646214)
(-4018.0864 342.46753 31.45732)
(-4128.9705 365.64872 27.127527)
(-4238.6673 387.36002 23.6604)
(-4347.9649 407.66099 20.672425)
(-4457.4872 426.27527 17.710459)
(-4567.6202 443.43513 14.41964)
(-4678.9952 459.59165 10.204316)
(-4792.3551 474.76069 5.406581)
(-4908.2461 490.1895 -0.68859539)
(-5028.3747 505.61527 -6.9155875)
(-5153.0552 522.13876 -13.863211)
(-5284.4172 539.36508 -20.040396)
(-5423.0826 557.94305 -26.367527)
(-5557.6018 575.28871 -31.428815)
(23.105624 -8.5759548 -13.078733)
(7.1134887 -14.782153 -12.207789)
(-22.281952 -25.018575 -16.997408)
(-65.55898 -31.961685 -20.746608)
(-123.79896 -36.268856 -26.033862)
(-193.52927 -39.608465 -30.158757)
(-275.86358 -36.970866 -35.518995)
(-369.8142 -32.92701 -38.181279)
(-475.49392 -24.100122 -39.736583)
(-591.62053 -13.046036 -38.751808)
(-717.33909 0.93576952 -35.308553)
(-851.20631 16.543924 -29.311163)
(-991.05012 33.221573 -21.454174)
(-1135.1785 50.902523 -12.489208)
(-1281.6623 68.588034 -2.6711808)
(-1428.9383 86.872851 7.046596)
(-1575.4763 105.33998 16.476018)
(-1720.9092 124.40061 25.052071)
(-1864.7687 144.09744 32.875389)
(-2007.5048 164.58194 39.929211)
(-2149.3437 185.65901 46.370466)
(-2290.9433 207.22695 52.166583)
(-2431.6408 229.02575 57.121435)
(-2571.9258 250.41611 61.073647)
(-2711.2006 271.49247 63.947328)
(-2848.8574 291.88305 65.135988)
(-2984.139 311.68574 64.366801)
(-3116.5113 331.03832 61.819502)
(-3245.7756 350.12875 57.662596)
(-3371.929 369.17479 52.049017)
(-3495.4408 388.43429 45.694183)
(-3617.0996 407.98379 39.106795)
(-3737.8367 427.80253 32.811037)
(-3858.7877 447.65468 27.273026)
(-3980.9282 467.44106 22.630098)
(-4105.0161 486.74777 18.935697)
(-4231.7386 505.39014 15.893984)
(-4361.6555 523.39873 13.117948)
(-4493.4036 540.6243 10.119168)
(-4628.9506 557.40955 6.8049189)
(-4767.8766 574.19227 2.5700836)
(-4909.7697 591.47883 -2.2872473)
(-5056.1887 609.65962 -7.754865)
(-5206.6703 629.18021 -13.534386)
(-5363.2894 650.21136 -18.940473)
(-5525.8925 672.91998 -24.111161)
(-5674.7506 693.97687 -28.33577)
(28.137692 3.1944168 5.3127487)
(7.2502588 2.4730012 8.5098145)
(-20.331989 6.6808053 5.3839891)
(-67.27036 12.129831 2.4181643)
(-126.8627 21.057333 -1.4732091)
(-197.76708 32.309138 -6.852774)
(-280.96122 47.421124 -10.811463)
(-374.1699 64.615988 -13.705617)
(-477.81661 84.787301 -15.274753)
(-590.06219 106.57037 -14.321973)
(-710.34312 129.43208 -11.220735)
(-837.40796 152.75668 -6.1792453)
(-968.84101 175.91864 0.21888049)
(-1103.5385 198.47367 7.7907506)
(-1239.87 220.32868 15.753639)
(-1376.8275 241.48242 23.638535)
(-1513.6949 261.99796 31.321833)
(-1650.1937 282.14686 38.313411)
(-1786.6347 302.09156 44.816984)
(-1923.2966 321.97952 50.550292)
(-2060.9987 341.68767 55.85113)
(-2205.5136 362.54284 60.300694)
(-2352.1053 382.96428 64.255746)
(-2491.9954 401.67311 66.972446)
(-2633.1741 419.60369 68.442815)
(-2774.8602 436.83401 68.347276)
(-2917.0951 453.61902 66.770308)
(-3059.3018 470.02129 63.637344)
(-3201.1504 486.35468 58.944164)
(-3342.4319 502.95985 53.094272)
(-3483.2747 520.01844 46.508418)
(-3623.9381 537.72532 39.645455)
(-3764.7436 556.11835 32.981952)
(-3906.2745 574.79053 27.066239)
(-4048.7646 593.96584 21.847588)
(-4192.4729 612.6865 17.678613)
(-4337.3611 631.20249 14.21878)
(-4486.2797 649.23918 11.066013)
(-4669.7444 671.77389 8.2613413)
(-4824.5168 689.64069 4.8410372)
(-4967.9937 705.944 1.1003292)
(-5112.0909 722.77431 -3.5969305)
(-5255.5184 740.27671 -8.2837126)
(-5398.8216 759.29238 -13.560952)
(-5543.6012 779.65678 -17.881946)
(-5689.7073 801.81081 -22.25432)
(-5822.0563 822.89241 -25.199622)
(25.679471 17.36733 26.856024)
(2.336221 29.151902 28.522159)
(-24.77417 45.277992 28.849993)
(-70.619002 61.82342 26.680686)
(-127.25616 82.162484 21.229409)
(-194.65648 103.06903 16.533533)
(-272.32462 127.70047 11.786478)
(-358.89419 153.1682 7.9555873)
(-454.01986 180.74351 6.1598379)
(-556.5685 208.59142 5.9258865)
(-665.53368 236.77652 7.8557616)
(-781.20777 264.8708 11.503273)
(-901.50173 292.1682 16.785908)
(-1025.4507 318.32476 22.824128)
(-1152.452 343.55982 29.433059)
(-1282.035 367.9389 36.149712)
(-1413.9937 391.75121 42.782297)
(-1548.6181 415.16081 49.04836)
(-1686.2955 438.62731 54.926067)
(-1827.7564 462.0023 60.332207)
(-1973.7587 485.80518 65.270703)
(-2124.5744 508.91553 69.390224)
(-2285.6052 533.83479 73.059177)
(-2444.7025 556.43203 75.299947)
(-2607.0921 577.91605 76.182776)
(-2773.6873 599.07336 75.539518)
(-2943.4087 619.44513 73.198741)
(-3115.5065 639.27726 68.968437)
(-3288.878 658.70938 63.165283)
(-3462.5865 678.07167 56.017526)
(-3635.6421 697.33802 48.05992)
(-3807.407 716.70546 39.745367)
(-3977.2178 735.95466 31.802079)
(-4144.643 755.00299 24.613569)
(-4309.1348 773.49759 18.417627)
(-4470.0711 790.86648 13.608061)
(-4627.1856 807.21155 9.6237219)
(-4779.346 821.95459 6.6599166)
(-4932.6476 836.24754 3.4377165)
(-5139.4921 859.49878 0.82126885)
(-5256.0072 868.34022 -2.7594796)
(-5378.6827 879.11 -6.2887897)
(-5493.4091 890.25223 -10.19072)
(-5601.9725 902.30901 -13.980246)
(-5706.231 915.90486 -17.30373)
(-5807.5141 930.90828 -20.268259)
(-5903.7653 947.12921 -21.722654)
(17.849899 33.432447 42.588904)
(-4.5617001 49.550627 45.799281)
(-28.99123 76.612803 50.077325)
(-71.310357 101.54313 46.35865)
(-122.84637 129.23642 41.378021)
(-184.63115 158.84623 35.935116)
(-255.10425 190.01819 30.087927)
(-333.48119 222.06507 25.99818)
(-419.58666 255.13978 22.865128)
(-513.00437 288.22911 21.838875)
(-612.76487 321.19881 22.434402)
(-719.47023 353.61782 25.262678)
(-831.75069 385.26875 29.031998)
(-949.32388 415.92606 33.862448)
(-1071.9782 445.83562 39.466234)
(-1199.3972 475.1509 45.420666)
(-1331.948 504.40891 51.477427)
(-1469.7932 533.88804 57.563219)
(-1613.7086 563.95325 63.400023)
(-1764.2951 594.68137 69.058989)
(-1922.4659 626.01048 74.183096)
(-2088.364 657.7752 78.722204)
(-2262.8196 689.42093 82.203787)
(-2445.6329 721.12057 84.434765)
(-2635.6913 751.5597 85.25812)
(-2832.7382 781.26284 83.898747)
(-3034.2901 809.59364 80.648291)
(-3239.2111 836.50868 75.201012)
(-3445.3724 862.22329 67.953612)
(-3650.6966 886.68411 59.131618)
(-3853.2302 909.83241 49.537005)
(-4051.3272 931.71265 39.679454)
(-4243.3598 951.99443 30.370576)
(-4428.1003 970.44037 22.02553)
(-4604.2534 986.65384 15.023972)
(-4770.915 999.81145 9.6577229)
(-4927.0676 1010.567 5.1909629)
(-5071.6306 1017.877 1.9419895)
(-5204.6504 1022.8934 -0.9052963)
(-5329.7629 1026.7121 -3.6278961)
(-5429.7721 1026.9504 -6.3541462)
(-5525.2054 1028.5374 -9.2162022)
(-5608.7642 1030.3152 -11.939665)
(-5682.7111 1033.5632 -14.542752)
(-5749.4646 1038.396 -16.503369)
(-5810.8376 1044.9129 -17.864499)
(-5872.7747 1053.7228 -18.463753)
(-1.8726199e-15 -1.0357256e-16 4.2324109e-16)
(-4.3693994e-15 5.8098526e-16 1.0825799e-16)
(-1.86708e-15 5.0203615e-16 5.7484399e-16)
(-1.1298519e-15 4.4303811e-16 -1.5186772e-16)
(-1.5283164e-15 1.7502349e-16 4.7144117e-17)
(-3.9278597e-15 -6.147074e-18 -1.0233878e-17)
(-3.270765e-15 8.5080195e-17 2.8271762e-17)
(-1.444637e-15 3.1767481e-17 -1.0328492e-16)
(-1.9600489e-15 -2.0641393e-16 2.5996682e-17)
(-1.0758982e-15 -5.0887233e-16 -1.6282415e-16)
(-1.1902312e-15 -6.3217422e-16 -1.0496995e-16)
(-2.2455722e-15 -1.0363924e-16 3.7607835e-16)
(-1.7254929e-15 1.2766475e-16 7.9907906e-17)
(-6.542485e-16 2.4659353e-16 4.7610311e-16)
(-1.0183069e-15 2.0413811e-16 3.0876606e-16)
(-1.2825224e-16 3.2154578e-16 2.6910031e-16)
(-2.4669526e-15 5.8726168e-16 -3.2350189e-17)
(-1.9694108e-15 5.8752001e-16 2.9593509e-16)
(-1.9972486e-15 5.0741204e-16 1.6376266e-16)
(-5.0142844e-16 5.9082617e-16 -1.5096731e-17)
(2.8672985e-17 2.0007103e-16 -2.079567e-16)
(-3.5598279e-15 1.6770216e-16 6.1584209e-17)
(1.5219227e-15 -3.8112137e-16 -3.4960392e-16)
(-8.8364966e-17 -1.5289127e-16 1.7491834e-16)
(2.7397895e-16 -2.6900304e-16 -2.0413732e-16)
(-5.1236454e-16 -3.7600259e-16 -4.411389e-17)
(-1.3114086e-15 -5.3747975e-16 1.2489795e-16)
(2.0041989e-16 -4.4379834e-16 -1.4360784e-16)
(-1.3448657e-15 3.3966264e-16 -2.7012678e-16)
(-2.2010094e-15 1.2158219e-16 1.1470551e-16)
(-1.2722141e-15 -2.3577892e-16 -7.7366055e-17)
(-2.6936153e-15 2.298542e-17 6.0151854e-16)
(-1.8084585e-15 2.5926424e-16 8.2177642e-17)
(-1.0121806e-15 3.7760621e-16 1.5728837e-17)
(-3.5076342e-15 -1.049112e-16 -1.8966684e-16)
(-1.2388067e-16 -2.746004e-16 -1.3203227e-16)
(-1.1077126e-15 -2.2449831e-16 5.9960705e-17)
(-7.9462407e-16 5.2806017e-17 1.8160622e-16)
(-1.481116e-15 2.6347307e-16 -6.003674e-17)
(5.3541372e-16 1.9494005e-16 5.7756958e-17)
(-2.5861876e-15 -7.0653702e-17 -1.8824779e-16)
(-1.6152529e-15 1.8241927e-16 3.8488004e-16)
(-1.0389662e-15 3.299921e-17 2.9700946e-16)
(-3.8817577e-15 -1.9427146e-16 -1.2145786e-15)
(-1.6161979e-15 2.8442108e-16 -1.856842e-16)
(8.1577518e-16 1.8112067e-17 2.0819295e-16)
(-2.485062e-15 2.8178417e-16 -5.4749215e-16)
(-1.8307085e-15 4.4562511e-16 -1.4619564e-16)
(-1.4586292e-15 4.0358521e-16 -4.0281137e-16)
(-16.97543 13.25681 34.312303)
(-22.841353 18.935074 24.382852)
(-29.843767 20.182382 13.416688)
(-33.122972 21.776002 4.1529474)
(-32.715993 20.425862 -4.9373996)
(-31.865308 22.102141 -14.576556)
(-27.115375 14.196069 -25.872266)
(-38.397821 77.738737 51.473704)
(-50.876278 89.157426 29.484711)
(-57.47931 83.463646 14.041386)
(-59.907638 81.295103 1.1806854)
(-62.204344 87.294116 -11.321918)
(-57.104299 86.8146 -26.188463)
(-52.108548 87.147388 -46.734298)
(-58.831465 103.51338 53.065569)
(-75.528264 100.06889 37.740891)
(-85.95531 106.87495 16.777138)
(-89.202588 107.34196 0.51698751)
(-89.868891 104.98921 -17.062274)
(-85.167578 105.74913 -30.245544)
(-77.246271 112.60303 -54.731872)
(-96.441968 147.87654 48.883753)
(-110.00923 152.51575 33.33117)
(-118.85931 151.5985 12.376272)
(-123.79226 151.98588 -1.863187)
(-124.14157 152.34695 -19.039346)
(-119.84803 155.77666 -38.191477)
(-109.28745 153.47685 -52.942274)
(-142.25593 185.44959 45.793465)
(-156.94965 185.88413 29.644119)
(-168.2637 188.60387 11.374381)
(-172.20789 187.94068 -6.5081258)
(-172.90562 188.47846 -23.424597)
(-168.09761 187.22272 -38.986748)
(-159.76282 190.00021 -57.742218)
(-195.56818 219.89124 38.046274)
(-208.60461 222.06254 22.885113)
(-217.68138 221.52772 4.8858104)
(-222.60269 222.47483 -10.103095)
(-222.30627 221.04319 -26.982627)
(-218.85636 221.61373 -43.665247)
(-208.41937 219.72889 -57.98902)
(-258.54344 257.20852 33.286807)
(-271.25826 258.62669 17.868788)
(-280.83819 260.34196 1.5680159)
(-284.59135 259.45642 -13.204025)
(-285.20594 258.55074 -30.067604)
(-280.33691 257.69335 -43.900367)
(-272.36445 256.40352 -59.462153)
(-327.74748 292.29431 27.343483)
(-339.6487 294.14562 13.570147)
(-348.15127 293.37782 -2.135341)
(-352.4346 292.20156 -16.057017)
(-352.34919 290.22341 -30.676083)
(-348.54593 287.12422 -45.361614)
(-339.8243 284.04016 -58.751862)
(-405.77523 329.3426 24.592009)
(-416.95366 329.64584 10.767037)
(-425.1367 329.04196 -3.2186174)
(-428.81717 327.45483 -16.648997)
(-429.48352 325.521 -30.368474)
(-425.18334 321.83758 -43.345722)
(-417.68963 318.67445 -56.618662)
(-490.3003 364.4418 22.695617)
(-501.13498 364.53791 10.32463)
(-508.68842 363.11475 -2.5776675)
(-512.92144 361.10449 -15.365025)
(-513.22436 357.3191 -27.706607)
(-510.04955 353.27266 -39.825893)
(-503.05233 348.20226 -51.647227)
(-582.64542 401.06527 23.436014)
(-592.97203 400.09839 11.982239)
(-601.00516 397.93492 0.043746742)
(-604.999 394.53186 -10.8161)
(-605.94646 390.87465 -22.407611)
(-603.07923 386.0187 -33.037954)
(-598.04511 381.16006 -44.4306)
(-681.93936 435.77662 26.038978)
(-692.84093 434.11615 15.286504)
(-699.91004 431.0142 5.2002495)
(-704.23189 427.7479 -5.1475571)
(-705.94262 423.39797 -15.045711)
(-704.13105 417.84265 -24.649762)
(-699.52432 411.4005 -34.313885)
(-788.96432 471.43265 30.337528)
(-798.95744 468.56969 20.886471)
(-806.48377 465.07793 11.718215)
(-811.72202 460.69381 2.7964148)
(-813.74089 455.73413 -6.3450971)
(-812.8042 450.32538 -14.391546)
(-809.74176 442.78257 -22.274063)
(-902.73658 505.81209 35.577028)
(-912.38679 502.38844 27.136051)
(-920.28644 498.06152 19.297181)
(-925.10822 493.1801 11.215745)
(-927.81465 488.10589 3.5642122)
(-928.22402 481.57605 -3.2288319)
(-926.57859 474.11426 -10.171343)
(-1023.1143 540.44967 41.92303)
(-1032.9582 536.50563 34.438878)
(-1040.6657 531.48528 27.639591)
(-1046.4371 526.32199 20.332433)
(-1049.8431 520.37606 13.815749)
(-1051.2658 513.63822 7.4772214)
(-1050.5676 505.71373 1.7299865)
(-1150.7514 575.14264 48.50425)
(-1160.1532 570.68791 41.795686)
(-1168.0504 565.40543 35.724381)
(-1173.9302 559.56835 29.224945)
(-1177.6496 553.50511 23.162489)
(-1179.7633 546.30117 17.694359)
(-1179.9796 538.52693 12.36895)
(-1285.0369 610.55311 55.313487)
(-1294.467 606.03548 49.231149)
(-1302.3808 600.36802 43.792672)
(-1308.6317 594.19719 37.602126)
(-1312.815 587.87574 32.11811)
(-1315.5526 580.51446 26.839177)
(-1316.2197 572.56765 21.577191)
(-1426.8322 647.28688 62.022779)
(-1435.9122 642.56486 56.460904)
(-1443.9649 636.79742 51.245363)
(-1450.1707 630.41622 45.39582)
(-1454.6168 624.06051 40.092699)
(-1457.4478 616.51163 34.853797)
(-1458.6252 608.81092 29.388787)
(-1576.1679 685.57464 68.630204)
(-1585.2078 680.90356 63.393309)
(-1593.2445 675.13601 58.454929)
(-1599.5217 668.7694 52.811065)
(-1604.2157 662.40404 47.516253)
(-1607.2444 655.11812 42.234299)
(-1608.5266 647.5248 36.337324)
(-1733.8209 725.64966 75.007736)
(-1742.6089 721.03997 70.05793)
(-1750.6839 715.51926 65.40636)
(-1756.8714 709.30434 59.851072)
(-1761.8426 703.21481 54.634169)
(-1764.7405 696.21375 49.323725)
(-1766.4924 688.87436 43.017025)
(-1900.1395 767.37927 81.049682)
(-1908.8413 763.0602 76.506636)
(-1916.8545 757.84757 72.137193)
(-1923.1633 751.97233 66.889042)
(-1928.2656 746.27143 61.805726)
(-1931.4581 739.75521 56.607482)
(-1933.4702 732.83242 50.110273)
(-2075.6019 810.3564 86.538229)
(-2084.0506 806.37074 82.491569)
(-2092.1239 801.64676 78.626243)
(-2098.3318 796.24317 73.877912)
(-2103.8185 791.04741 69.120992)
(-2107.171 785.17032 64.367192)
(-2109.9428 778.86747 58.091439)
(-2260.1932 853.98464 91.039621)
(-2268.467 850.41797 87.793295)
(-2276.3628 846.23247 84.70848)
(-2282.7602 841.42788 80.650187)
(-2288.4744 837.01192 76.615689)
(-2292.549 831.85493 72.626248)
(-2296.1169 826.31861 67.020465)
(-2453.737 897.14115 94.156086)
(-2461.594 894.36307 92.033124)
(-2469.3671 890.80259 89.842079)
(-2475.752 886.75557 86.883023)
(-2481.9974 882.79162 83.890997)
(-2486.6936 878.2694 80.863728)
(-2491.3861 873.82225 76.533782)
(-2655.292 939.32487 95.540529)
(-2662.7983 937.22381 94.52115)
(-2670.0243 934.24004 93.755705)
(-2676.7843 930.86474 91.87029)
(-2683.0752 927.45512 90.244017)
(-2688.7676 924.04378 88.543221)
(-2694.6662 920.94605 86.059037)
(-2863.7675 979.35643 94.3035)
(-2870.5854 978.03327 94.991401)
(-2877.3529 975.88924 95.487018)
(-2884.2737 972.96347 94.939531)
(-2890.7031 970.12102 95.20599)
(-2897.2392 967.34844 94.929818)
(-2903.9192 965.27069 94.457947)
(-3077.9205 1016.7257 90.573901)
(-3083.4367 1016.1976 93.082377)
(-3089.4513 1014.5723 94.485324)
(-3095.8964 1012.2987 96.404135)
(-3102.902 1010.2351 97.519345)
(-3110.3414 1008.1516 98.827165)
(-3117.5583 1007.166 99.869102)
(-3295.2285 1050.8824 84.055303)
(-3299.2116 1051.241 88.179745)
(-3304.7644 1050.3063 91.214574)
(-3310.614 1048.1893 94.760765)
(-3317.5272 1046.6712 97.247075)
(-3325.1879 1044.7617 100.53967)
(-3333.3286 1045.4997 103.35117)
(-3513.1759 1081.3911 75.410559)
(-3516.1931 1082.4434 80.876887)
(-3520.2964 1081.8569 85.720206)
(-3525.9833 1080.1533 90.327555)
(-3532.424 1079.1004 94.828182)
(-3540.5523 1078.0658 99.25275)
(-3549.0724 1079.5168 103.69951)
(-3730.0813 1108.2528 64.705144)
(-3731.4887 1109.6735 72.001255)
(-3734.854 1109.5785 77.756418)
(-3739.6346 1108.1929 84.163576)
(-3745.926 1107.6571 89.822112)
(-3753.9482 1106.8991 95.470531)
(-3762.6455 1109.0829 101.37588)
(-3943.2407 1131.3361 53.519979)
(-3943.6129 1133.1138 61.80758)
(-3945.7699 1133.2365 68.963914)
(-3949.8987 1132.2252 76.421556)
(-3955.7467 1131.7961 83.265843)
(-3963.431 1131.6028 89.971171)
(-3972.1961 1134.1013 96.999697)
(-4150.8876 1150.7765 42.099018)
(-4150.1232 1152.4413 51.591829)
(-4151.3571 1152.8349 59.574763)
(-4154.7556 1152.0333 68.159495)
(-4160.165 1151.9742 75.963061)