/*--------------------------------*- C++ -*----------------------------------*\
  =========                 |
  \\      /  F ield         | OpenFOAM: The Open Source CFD Toolbox
   \\    /   O peration     | Website:  https://openfoam.org
    \\  /    A nd           | Version:  6
     \\/     M anipulation  |
\*---------------------------------------------------------------------------*/
FoamFile
{
    version     2.0;
    format      ascii;
    class       pointScalarField;
    location    "1.51";
    object      p;
}
// * * * * * * * * * * * * * * * * * * * * * * * * * * * * * * * * * * * * * //

dimensions      [1 -1 -2 0 0 0 0];

internalField   nonuniform List<scalar> 
28033
(
160108.24
-190276.21
6635.7462
2137.7602
291558.6
-268826.77
3050.0232
179.12394
129563.43
115239.15
102054.08
83743.981
64490.412
47816.335
27570.511
9220.5747
-10764.16
-27771.804
-48989.303
-59175.165
-86530.254
-104436.61
-102496.14
-14817.886
-9113.8539
-10020.624
-6526.2565
-5851.0264
-3383.071
-1158.2502
1411.7685
3671.6817
6182.9125
8748.3145
10155.974
11839.32
12847.391
11206.329
36671.356
42695.477
38180.17
42566.855
39192.339
42362.396
42556.327
43644.738
44355.031
46574.448
46508.947
48181.266
50025.385
52090.513
53319.598
55293.477
58461.554
60434.451
63143.964
65954.18
68919.826
71627.547
75524.719
78167.133
81439.086
84716.625
88084.014
90840.341
94244.842
97001.88
100102.69
102775.34
105868.13
108465.84
110879.41
113130.41
115755.9
118349.89
119742.74
122229.34
123747.13
125160.06
126561.02
128099.12
129014.1
130257.2
130942.05
131788.89
132178.16
132678.57
132717.81
132821.95
132554.06
132207.01
131612.79
130832.25
129868.3
128698.98
127310.1
125786.87
124035.53
122106.53
119961.56
117845.27
115391.07
112993.87
110766.2
107769.67
104358.24
101348.77
98009.277
94878.734
91292.004
87987.365
84055.919
80748.311
76505.965
73184.455
68727.65
65331.878
60916.429
57372.507
52927.374
48816.42
44656.492
40506.681
36720.179
32959.523
28239.232
25038.124
21992.841
16364.151
16748.062
14474.266
11613.44
-36689.44
-30815.227
-36704.652
-32139.428
-36990.086
-35225.116
-38327.618
-36540.353
-39428.126
-38248.227
-41090.482
-40554.256
-42829.688
-43869.343
-46073.259
-47128.996
-49929.612
-51453.781
-54254.854
-56761.11
-59344.215
-62460.914
-65133.287
-68810.347
-71103.35
-74808.338
-77467.142
-80739.877
-83748.284
-86742.938
-89467.313
-92611.527
-94857.553
-97918.337
-100262.18
-102988.81
-104695.92
-107299.48
-108912.34
-110978.92
-112632.78
-114203.87
-115659.3
-116975.46
-118134.4
-119219.81
-120121.02
-120910.96
-121569.64
-122082.12
-122442.1
-122662.73
-122705.41
-122619.96
-122311.63
-121872.22
-121218.17
-120392.64
-119360.35
-118151.89
-116729.51
-115133.15
-113343.25
-111347.79
-109197.74
-106824.35
-104430.93
-101811.77
-99372.319
-95958.901
-93253.968
-89933.112
-86883.143
-83477.476
-80171.323
-76710.652
-73139.574
-69604.926
-65885.66
-62202.79
-58415.924
-54591.078
-50622.54
-46786.853
-42698.243
-38720.058
-34678.358
-30745.248
-26545.987
-22893.096
-19173.659
-15306.42
-12299.84
-10448.35
-7264.2301
237406.51
229175.49
167875.01
174543.48
122688.73
79070.409
56981.554
9501.0391
-19372.313
-64456.309
-89210.277
-127766.6
-162773.55
-192221.72
-208042.11
-52458.656
-44518.007
-22691.195
-41580.799
-36672.446
-38191.117
-39183.238
-39486.38
-42434.074
-42941.5
-44930.734
-42799.546
-47834.303
-45375.707
-52543.45
-52365.642
-56679.345
-55095.168
-60770.577
-60625.436
-64808.181
-66194.205
-72036.074
-75034.066
-76576.365
-82175.084
-82119.824
-89129.852
-88996.967
-95139.763
-96672.869
-100824.16
-102794.67
-106412.61
-109337.39
-108877.8
-113764.95
-115983.95
-117900.66
-120093.08
-121808.06
-123605.19
-125147.79
-126593.52
-127803.44
-129031.4
-129848.95
-130706.95
-131224.95
-131696.36
-131884.86
-131973.86
-131793.05
-131493.09
-130940.33
-130181.55
-129277.63
-128100.54
-126757.2
-125222.09
-123461.22
-121543.06
-119413.82
-117123.21
-114642.08
-112014.6
-109451.14
-106922.07
-101608.39
-100177.78
-96906.607
-93424.781
-89939.81
-86407.968
-82702.321
-79004.837
-75170.306
-71397.514
-67460.226
-63536.051
-59480.656
-55507.153
-51306.539
-47303.043
-43090.631
-39029.757
-34795.172
-30850.739
-26687.43
-22876.125
-19133.834
-15569.184
-13170.515
-10449.858
-9107.8585
14183.037
14822.429
11465.972
12317.229
7605.7571
7791.4184
3184.7765
1375.368
-1766.1285
-4750.9609
-4502.7482
-9115.7559
-7916.8654
-13450.363
-10565.886
21010.589
16420.766
16879.14
20177.593
22831.884
26844.69
30647.741
34831.274
38774.137
43163.064
47233.73
51181.466
55431.944
59558.476
63687.289
67596.331
71620.574
75388.801
79199.556
82902.873
86497.954
90081.693
93533.505
96842.286
100057.17
103061.01
104566.35
110735.83
111677.94
114714.8
117121.99
119518.09
121605.37
123589.6
125342.86
126900.71
128283.56
129414.33
130400.72
131143.46
131720.04
132075.24
132301.68
132276.69
132160.65
131811.69
131371.15
130722.8
129974.08
129052.86
128000.9
126812.36
125375.41
124121.54
122342.86
120642.8
118480.78
115579.34
115673.25
111814.94
108889.26
108843.23
103999.77
102144.1
98162.469
97209.863
91378.104
90773.398
85989.3
83887.976
80214.196
76521.85
74608.166
70553.478
68095.222
64762.547
62881.562
58987.751
58163.503
55634.734
54116.361
49267.42
49750.63
47293.762
48879.963
46418.982
45132.075
43316.164
42895.104
42165.426
40646.44
42527.708
40651.116
35845.842
48559.917
106704.35
117423.95
124191.41
128377.35
130816.13
134823.32
134845.59
136776.24
134127.15
131018.42
133964.78
123783.83
118860.73
128261.32
93416.937
-151386.42
-191682.24
-189831.37
-203042.25
-199889.26
-188910.1
-217556.48
-233170.76
-217730.16
-219875.57
-210545.16
-203891.43
-190322.28
-189665.57
-177560.7
1664.1377
1727.3173
2530.8314
2998.2347
4136.0459
4763.0798
4976.218
5052.9472
4987.6409
4604.7272
4162.4487
3233.8769
2648.0801
2175.7098
2296.4189
-659.92444
2275.0911
1595.6311
873.23166
-64.989971
-280.59896
-872.14968
-842.1454
-681.09103
-483.87143
491.70158
1151.7129
1488.9688
5083.4367
-398.12538
37620.234
40716.321
35951.13
36047.61
37974.179
39518.342
39818.426
41303.234
42152.666
42906.557
44014.725
46107.909
46715.177
48462.365
49835.571
52821.464
53672.188
56458.354
58529.093
61175.13
63614.135
66774.065
68945.053
71795.079
74620.022
77575.595
80131.218
83083.262
85800.99
88534.27
91074.825
93532.454
96026.586
98231.413
100412.2
102779.86
104720.65
106251.18
108327.6
110048.93
111791.17
113169.1
114467.93
115617.29
116577.98
117568.63
118172.34
118898.32
119231.41
119576.08
119631.84
119628.17
119356.3
118985.28
118393.69
117652.18
116730.59
115621.24
114363.25
112936.58
111328.78
109536.19
107679.23
105676.87
103254.38
100990.85
98009.402
95498.844
92953.805
90137.129
87279.7
84329.458
81144.689
78191.494
74792.156
71684.185
68157.741
65002.578
61240.316
58144.516
54395.41
50972.398
47524.409
44254.577
40576.086
37047.388
33641.139
29813.906
26590.186
23781.77
19503.966
17001.716
14571.364
8057.82
2617.8447
36499.295
33706.594
29034.044
31305.822
31665.532
32609.344
32982.015
34305.145
34952.324
36766.5
37007.73
38676.791
39620.498
41606.915
42627.35
44322.577
45884.602
48214.259
49765.804
51951.413
54215.673
55927.684
58437.892
60760.532
63290.546
65188.416
67934.157
70137.649
72427.54
74606.862
76899.239
78913.887
81013.356
82974.111
85028.356
86670.53
88374.979
90081.482
91615.436
93052.557
94318.749
95728.468
96520.35
97659.031
98461.572
99316.492
99866.65
100493.57
100769.8
101098.01
101133.65
101148.47
100905.7
100605.38
100102.99
99478.249
98690.778
97782.596
96708.403
95524.508
94175.842
92717.859
91219.991
89521.95
87725.171
86693.818
85260.825
83411.357
81678.173
79334.521
76953.927
74674.11
71814.796
69363.828
66063.387
63786.448
60141.012
57885.867
54094.194
51814.048
48094.023
45257.881
42167.669
38113.088
34813.337
31656.491
28108.148
25478.553
22442.625
19069.108
16149.248
13389.635
9134.0846
4735.8661
-2390.2841
28720.801
29623.482
25019.785
27160.3
27018.649
28318.671
28586.201
30022.871
30813.242
31276.229
32172.813
33590.494
34307.989
35308.458
36524.425
38140.39
39304.717
40881.582
42369.703
44320.764
45964.654
47855.529
49978.597
51782.652
53601.33
55672.817
57640.588
59314.419
61391.419
63082.355
64956.21
66630.851
68393.873
70017.676
71570.333
73099.961
74689.225
75992.39
77403.459
78513.516
79506.64
80544.893
81667.445
82483.215
83275.947
83905.162
84408.374
84840.807
85107.222
85300.11
85325.581
85281.1
85043.084
84757.21
84288.676
83719.976
83031.079
82227.172
81281.397
80254.7
79091.134
77820.952
76494.992
74873.478
73502.356
72187.333
71043.305
69137.961
67722.969
66111.112
64247.847
62049.429
59678.857
57430.033
55145.792
52686.5
50384.745
47761.167
45438.436
42763.431
40203.674
37860.36
34806.467
32465.279
29944.637
27125.022
24184.317
22030.701
19169.31
16711.439
14299.958
10504.079
8012.5305
1903.0634
-1152.2467
24001.204
24706.101
19327.305
21705.114
21136.753
21994.022
22274.14
23873.849
23594.003
25079.129
25581.067
26867.386
26937.936
28783.786
29169.991
30782.404
31312.34
33260.367
34075.452
35722.033
36755.652
38420.294
39755.075
41069.625
42845.557
44172.838
45755.833
47295.532
48818.262
50121.811
51762.549
52905.839
54369.622
55462.713
57001.784
57763.775
59153.807
59843.941
60795.86
61580.205
62778.827
63520.202
64163.459
64715.071
65287.565
65792.055
66157.223
66518.528
66718.809
66873.258
66872.785
66845.647
66631.709
66411.01
66002.324
65570.205
64992.717
64364.859
63602.42
62809.895
61903.352
60924.948
59873.018
58798.252
57659.236
56370.701
55453.231
53762.567
52050.545
50705.193
49277.161
47517.483
46168.508
44439.388
42563.47
40713.829
38790.761
36965.139
34919.654
33036.579
31033.442
29154.71
26964.52
24850.496
22742.038
21393.708
19267.594
17300.592
15211.007
13271.463
10634.782
8419.9201
5281.9045
1677.0143
-2724.9179
19633.604
18767.899
15538.74
17193.921
16826.574
17487.001
18271.729
18667.101
19082.297
19751.163
20377.225
20746.508
21642.236
22223.951
22980.901
23879.077
24394.921
25708.521
26220.594
27483.745
28475.374
29742.363
30598.339
32055.858
33048.134
34149.865
35389.663
36324.314
37476.368
38522.088
39601.615
40493.985
41584.751
42557.325
43430.344
44236.945
45897.569
46970.138
47875.969
49894.675
50042.845
50821.511
51603.142
52173.906
52729.053
53148.076
53442.02
53721.256
53898.963
53966.256
53980.902
53927.592
53744.414
53533.435
53203.671
52820.611
52354.672
51815.653
51209.337
50534.093
49824.045
48938.678
48202.822
47223.412
46122.32
45368.92
44156.445
43029.886
41764.452
40518.119
39246.481
37452.523
35258.222
33699.325
31926.616
30455.646
29110.452
27620.163
26202.656
24855.056
23212.314
22037.92
20289.938
19228.867
17451.639
16487.041
14520.831
13407.117
11544.646
9927.4401
8229.5289
6319.9242
4443.9749
1003.8411
-1853.6037
12662.984
13953.033
10162.856
12119.345
11341.008
12437.439
11768.796
13183.708
12813.951
13839.24
13677.909
14792.302
14405.021
15708.589
15504.032
16553.951
16687.787
18063.864
17767.566
19300.413
19346.884
20310.506
20827.557
21724.596
22198.378
23128.866
23737.628
24456.623
25263.376
25761.386
26545.034
27020.466
27856.306
28162.198
28938.801
29468.253
30452.906
31085.354
32759.761
33384.321
34621.343
34910.368
35311.666
35697.765
36014.864
36267.416
36462.213
36632.623
36712.351
36753.817
36731.668
36660.755
36501.513
36318.326
36067.691
35748.781
35405.424
35000.467
34551.084
34062.436
33530.368
32994.853
32369.691
31717.334
31201.012
30306.166
29808.598
29004.45
28222.053
27448.582
26479.532
25307.756
24433.151
22771.779
21257.255
20396.293
19395.47
18484.842
17498.871
16751.593
15446.786
15030.389
13482.905
13155.542
11587.901
11324.661
9707.7092
9424.7165
7934.7078
7494.068
6277.2096
4922.2816
3493.7634
987.72983
-336.10162
7765.4967
7879.7813
6066.6078
7198.693
6961.0789
6628.7196
7114.9282
7750.6686
7444.0552
7576.6961
8306.934
7916.6243
8609.3243
8776.3985
8847.2461
9452.4758
9468.853
9891.4306
9963.4181
10856.874
10573.698
11590.998
11493.411
12218.615
12349.609
12911.603
13039.861
13569.03
13745.42
14095.239
14463.672
14739.979
14995.916
15265.955
15644.964
15746.412
16125.77
16501.757
16474.796
16468.243
16830.85
17064.929
17160.986
17428.866
17561.732
17727.826
17741.231
17853.113
17811.629
17819.147
17738.077
17662.797
17502
17387.798
17168.796
16973.876
16734.582
16499.627
16202.116
15945.878
15644.495
15318.22
15017.46
14721.36
14301.858
14050.751
13639.328
13251.155
12897.599
12492.768
12074.394
11657.965
10915.49
10959.712
10618.74
10248.388
9687.4449
9235.2144
8801.5424
8294.6139
7832.828
7514.3573
6777.4146
6815.8586
5855.3062
6082.3705
5101.3409
5369.2484
4434.5227
4327.3274
3326.1509
2756.1946
2443.6022
1347.4368
1003.0607
1127.1818
3141.2772
626.17458
2746.5416
1427.6923
2485.5541
1915.0836
2604.0677
1693.5317
2619.4968
1960.2595
2550.9624
1991.0166
2373.1962
2025.2048
2522.6137
1770.1669
2706.3588
1902.9155
2455.5747
1881.3468
2416.3637
1694.4455
2272.0096
1717.2694
2007.9023
1788.2635
1842.4216
1664.2429
1618.1513
1592.6497
1286.7121
1410.9901
1204.686
1235.7938
982.70801
1290.3694
883.96532
1186.5759
846.31645
1001.8537
982.84157
907.08283
820.98957
849.64207
754.06995
697.00494
680.08485
603.44053
533.10866
451.51288
374.84251
261.31883
176.18913
61.567234
-41.717042
-139.21889
-228.51833
-334.24965
-375.1352
-473.25529
-496.47535
-518.45503
-563.27654
-509.37164
-528.82932
-472.07718
-426.66562
-386.26072
-314.67727
-330.01978
-343.21145
-384.81369
-199.12446
-112.58161
-15.99422
-63.704434
71.612021
43.502435
177.22437
258.83675
238.92407
497.21561
476.50136
582.47056
899.59285
620.10412
1376.9428
749.19127
1752.7827
1576.0637
2372.6063
2516.7422
1959.7747
2703.6745
-4259.365
-3188.3457
-3725.466
-3220.0699
-3259.0772
-3220.2428
-3877.587
-3409.6735
-3842.5439
-4334.1796
-3830.9318
-4618.1942
-4694.7011
-4682.8593
-4997.9498
-5435.0396
-5579.4524
-5653.7038
-6675.067
-6102.8593
-7054.0391
-6813.4096
-7678.9192
-7507.6973
-8518.4729
-8291.0534
-9277.6989
-9302.5169
-10018.185
-10190.427
-10849.724
-11108.184
-11522.634
-11977.788
-12317.56
-12632.361
-13045.214
-13295.567
-13545.405
-13769.88
-13991.377
-14171.739
-14412.798
-14497.489
-14653.163
-14788.905
-14953.333
-15020.812
-15180.345
-15283.922
-15387.627
-15456.14
-15574.54
-15604.499
-15665.219
-15685.088
-15685.242
-15639.516
-15600.123
-15483.396
-15361.1
-15192.597
-15008.178
-14745.486
-14533.444
-14204.454
-13889.387
-13546.471
-13153.586
-12752.57
-12355.452
-11827.08
-11464.534
-10968.461
-10706.217
-10425.018
-9822.1882
-9395.1138
-8818.2708
-8336.4908
-7744.3911
-7254.0206
-6574.7521
-6017.0346
-5459.9754
-4452.11
-4290.3896
-2671.0689
-2835.9339
-1032.0079
-1116.0094
-122.1073
331.03408
1812.5941
3887.2644
-9986.4477
-7943.2768
-8423.7331
-6894.6361
-8059.5817
-7896.2411
-8574.9263
-8153.8028
-9487.2144
-9006.1922
-9753.5693
-10234.509
-10544.724
-10794.099
-11906.781
-11821.801
-12805.861
-13174.484
-14127.437
-14258.54
-15703.211
-15509.648
-16964.906
-17227.003
-18504.122
-18927.143
-20141.876
-20598.818
-21616.374
-22408.531
-23244.964
-24030.977
-24856.587
-25663.35
-26171.884
-27130.325
-27477.631
-28334.039
-28681.291
-29382.131
-29785.382
-30306.876
-30623.445
-31092.088
-31378.129
-31705.649
-31967.754
-32175.268
-32396.347
-32560.693
-32672.367
-32774.424
-32847.197
-32839.69
-32818.942
-32752.295
-32612.738
-32429.241
-32214.787
-31878.452
-31545.77
-31126.369
-30626.989
-30105.154
-29515.57
-28848.644
-28155.134
-27435.936
-26637.119
-25861.054
-24978.013
-24128.646
-23239.945
-21842.744
-19962.381
-18870.351
-17936.988
-17047.842
-15907.355
-15313.875
-13784.94
-13455.335
-11733.647
-11306.875
-9808.4239
-8807.9096
-7907.8007
-5994.4286
-5782.7619
-3207.9617
-2917.3985
-1131.3801
545.4203
2535.4346
4792.1344
-15390.446
-12968.588
-11744.873
-11887.394
-12455.761
-12448.744
-13029.777
-13591.412
-13741.228
-14648.633
-14996.246
-15616.83
-16079.133
-16953.872
-17560.063
-17997.871
-19472.74
-19606.736
-21213.245
-21841.369
-23661.926
-24572.7
-26353.529
-27185.525
-29181.243
-29668.158
-31543.999
-32055.116
-33845.996
-34520.812
-35978.103
-36927.2
-38193.664
-39077.137
-40206.593
-41107.092
-42052.71
-42898.535
-43680.046
-44427.213
-45112.787
-45682.537
-46270.936
-46778.138
-47219.437
-47603.731
-47996
-48266.826
-48550.342
-48733.39
-48897.727
-48980.255
-49038.001
-48986.58
-48911.731
-48747.615
-48510.855
-48198.198
-47814.4
-47326.585
-46788.368
-46127.764
-45423.478
-44613.025
-43793.648
-42830.063
-41849.072
-40761.377
-39646.149
-38435.232
-37206.211
-36022.806
-34589.026
-33132.981
-31692.494
-29994.126
-27942.458
-26467.621
-24929.455
-23440.647
-22069.184
-20421.147
-19021.248
-17390.778
-15771.802
-14305.343
-12407.668
-11006.43
-9009.6709
-7178.3048
-5459.2451
-2897.6512
-690.6216
2094.8447
7035.5728
-20562.819
-17882.656
-17005.804
-16057.539
-16714.052
-16684.922
-17842.416
-17696.724
-19134.501
-19072.663
-20474.43
-20576.371
-22131.235
-22192.687
-23750.799
-24372.964
-25774.827
-26474.387
-28506.184
-28925.336
-31302.726
-32232.203
-35146.741
-36624.352
-38693.01
-39979.806
-41973.717
-43357.016
-45101.825
-46450.289
-48263.062
-49589.216
-51173.359
-52667.345
-53896.656
-55380.009
-56417.685
-57717.055
-58668.893
-59797.152
-60598.769
-61566.874
-62286.257
-63053.022
-63656.094
-64227.839
-64742.391
-65137.039
-65476.379
-65760.02
-65937.51
-66041.78
-66074.597
-65999.975
-65841.898
-65599.085
-65236.939
-64776.358
-64232.117
-63552.156
-62772.127
-61898.816
-60889.537
-59796.488
-58619.67
-57323.207
-55951.501
-54544.877
-53013.147
-51405.065
-49832.734
-48038.443
-46293.698
-44550.477
-42648.811
-41306.47
-39239.678
-37194.007
-35148.064
-33147.933
-30989.337
-28921.585
-26703.311
-24562.924
-22226.061
-20207.291
-17535.132
-15718.988
-13040.753
-10680.435
-8685.6174
-4900.9917
-2025.482
3117.5288
8558.1889
-27917.332
-24645.599
-22545.277
-22926.865
-23747.905
-24085.632
-25002.636
-25770.029
-26462.589
-27414.531
-28043.367
-29690.825
-30042.584
-31638.872
-32446.233
-33929.503
-35168.994
-36569.23
-38391.038
-39720.785
-42099.225
-43472.738
-45837.354
-47046.686
-49513.547
-50797.128
-53691.571
-54813.541
-57420.542
-58845.215
-61158.159
-62501.273
-64744.121
-66219.159
-68024.085
-69587.511
-71038.467
-72483.316
-73801.864
-74997.74
-76156.112
-77197.297
-78114.563
-78968.547
-79723.777
-80374.655
-80986.3
-81420.946
-81845.338
-82133.189
-82331.019
-82415.186
-82429.248
-82290.119
-82069.762
-81721.12
-81243.559
-80651.426
-79941.239
-79069.48
-78110.375
-76989.84
-75756.571
-74382.051
-72918.287
-71332.389
-69662.851
-67880.773
-66014.493
-64018.511
-61953.801
-59859.375
-57681.718
-55413.077
-53039.095
-50814.969
-48375.725
-45987.862
-43439.582
-40916.655
-38356.501
-35742.914
-33105.388
-30434.477
-27785
-25007.237
-22301.769
-19690.59
-16500.045
-14255.899
-10618.425
-7632.4459
-4124.6345
658.6197
6577.3274
-31207.027
-29365.687
-25297.66
-27067.806
-27357.805
-28262.402
-29176.749
-29703.668
-30739.336
-31514.722
-33130.998
-33681.2
-35420.059
-36523.723
-37922.067
-39372.199
-41303.556
-42399.594
-45115.69
-46587.613
-48899.191
-51034.922
-53753.882
-56210.3
-58881.214
-61266.947
-63729.711
-66029.485
-68738.903
-70881.166
-73313.605
-75432.772
-77590.89
-79678.245
-81719.633
-83818.219
-85491.693
-87379.876
-88808.16
-90422.336
-91746.893
-93056.586
-94202.013
-95279.8
-96226.849
-97066.831
-97784.4
-98402.524
-98897.532
-99283.062
-99530.433
-99670.866
-99674.639
-99542.4
-99265.456
-98854.944
-98285.358
-97566.763
-96689.687
-95662.042
-94471.132
-93133.624
-91634.754
-89976.117
-88149.957
-86190.189
-84042.198
-81986.899
-79778.044
-77295.195
-74963.853
-72366.241
-69683.506
-67054.07
-64196.155
-61373.634
-58439.276
-55490.477
-52470.393
-49471.919
-46354.136
-43246.96
-40049.136
-36899.977
-33556.319
-30403.942
-27042.091
-23781.543
-20367.113
-17485.59
-13216.744
-10952.283
-6299.3198
-1445.9285
5933.0093
-42067.697
-29557.169
-32243.375
-31741.189
-33670.783
-33543.353
-34919.199
-35086.979
-36568.294
-37594.687
-38526.148
-40395.434
-41426.582
-42853.445
-44527.275
-46405.599
-48564.538
-49960.628
-53335.796
-54122.395
-57403.559
-59249.236
-62785.472
-65040.84
-69282.307
-70624.968
-74621.023
-76258.088
-80192.795
-81984.028
-85195.042
-87415.11
-89980.143
-92208.557
-94439.186
-97084.638
-98973.424
-100993.47
-102715.75
-104517.87
-106018.63
-107497.17
-108797.54
-109966.7
-111058.41
-111941.81
-112791.4
-113450.24
-114007.16
-114413.11
-114695.14
-114816.54
-114809.19
-114617.64
-114290.93
-113788.85
-113110.74
-112258.76
-111243.68
-110026.28
-108651.79
-107099.5
-105371.56
-103472.3
-101417.36
-99094.184
-96592.617
-94019.042
-91641.269
-88949.692
-86206.933
-83118.095
-80191.767
-77057.577
-73839.353
-70595.622
-67357.014
-63924.565
-60548.719
-57021.258
-53472.533
-49850.998
-46247.491
-42470.377
-38800.815
-35081.359
-31219.705
-27627.437
-23909.83
-20414.73
-16665.119
-14396.494
-10017.94
-6420.6768
920.25259
79374.615
80530.054
77167.157
80228.189
79681.575
80716.906
82591.094
82115.604
79906.167
81454.024
80245.935
77222.978
77891.496
83588.082
66194.08
76428.106
77525.956
74524.632
75823.201
74927.05
77120.703
75199.258
78053.5
77203.158
77786.149
77144.161
76588.573
77032.611
78814.561
66029.495
60310.435
66810.521
58172.432
61101.842
60784.437
60122.738
60278.928
60031.389
60469.248
59607.698
60042.074
60049.819
55987.688
64212.794
57038.583
51311.31
52293.494
51459.825
50112.784
51734.296
51002.453
52120.911
51488.517
52096.767
52158.554
51901.631
51050.307
51470.334
56271.989
36964.1
38193.045
41728.174
37100.95
39946.649
36704.783
39765.163
38207.484
39051.912
38191.229
38898.546
37971.131
38839.574
39610.353
41022.21
35508.178
31315.436
32548.678
30111.501
30925.971
30895.087
30882.994
29956.551
30243.513
30349.268
30352.209
28744.536
30668.47
28032.105
30434.532
28069.906
17223.939
17258.651
17677.111
15696.579
17061.801
17066.818
16300.534
15668.813
16704.489
15994.879
15958.104
16200.291
16947.61
18789.473
14793.833
6475.2438
7585.6187
5445.3173
7096.7776
5671.2791
6556.008
5534.8822
5880.076
6008.3239
5571.1043
4141.5383
5693.0834
6915.2766
2697.3001
8103.2492
-3431.9204
-4459.3046
-2397.0904
-4962.8655
-3516.0914
-4329.76
-4302.9359
-5183.3708
-4662.0178
-6039.3684
-7319.3471
-4612.434
-6914.6068
-7397.6115
792.2835
-14461.048
-15809.372
-15855.551
-15279.328
-16211.176
-15371.433
-16936.746
-16567.302
-17014.465
-16293.338
-18842.249
-16305.242
-15781.596
-22341.584
-9338.3458
-25830.073
-32636.228
-26667.736
-31176.066
-28146.335
-30818.94
-29926.537
-30616.661
-29967.474
-29919.235
-31252.821
-28684.45
-30516.372
-31400.709
-20226.384
-38804.296
-33857.768
-36977.717
-32691.095
-36506.482
-35288.333
-36514.925
-36366.407
-36537.802
-37650.416
-38717.48
-36494.112
-36589.164
-43562.582
-28834.316
-48078.92
-54037.975
-46533.492
-50473.313
-47102.591
-49463.827
-48487.527
-48131.32
-49134.323
-47767.081
-50424.412
-48451.1
-46108.849
-53785.618
-31472.625
-58573.57
-65184.59
-60502.153
-61689.297
-65102.736
-64042.469
-64878.468
-68474.661
-66128.748
-68489.872
-63047.314
-63568.664
-63295.339
-64990.829
-55071.244
-68480.055
-59289.422
-53114.385
-53564.261
-55285.717
-60093.723
-57003.143
-55774.362
-53774.976
-53252.546
-54142.846
-54532.743
-55854.924
-61637.607
-56342.684
-55505.303
-53825.821
-62360.256
-66860.902
-68159.07
-74621.672
-72268.004
-67302.415
-76474.622
-74835.49
-72756.14
-68455.203
-67418.939
-61496.539
-55823.538
-42199.521
-41332.734
-45522.716
-46618.378
-47428.752
-49869.698
-50822.123
-52759.512
-54488.943
-51622.399
-50667.283
-47402.423
-49001.342
-47711.546
-49944.182
-36131.404
-40903.842
-40661.863
-43577.735
-47161.613
-45431.688
-47576.588
-47227.024
-45511.284
-47857.688
-46225.074
-46919.872
-45283.076
-41133.578
-41673.312
-35418.64
-38801.938
-39376.406
-39236.573
-40609.683
-40870.381
-41351.128
-41517.096
-41803.553
-40497.94
-41013.763
-40357.687
-38998.043
-38567.565
-36990.53
-38841.063
-42571.083
-42832.81
-44142.788
-45185.066
-45785.021
-46424.201
-46193.136
-46868.779
-46567.752
-45439.111
-44676.386
-42852.879
-41766.164
-40571.688
-38233.75
-38439.719
-38230.391
-39485.89
-40519.741
-41058.786
-41085.569
-41324.954
-41777.224
-41177.857
-41019.776
-40641.007
-39088.031
-39003.891
-38036.068
-38118.754
-40500.264
-40489.482
-41195.755
-42474.354
-43259.464
-43606.995
-43743.939
-44288.313
-43568.407
-43211.545
-42890.294
-41840.862
-41244.936
-41269.245
-39467.5
-38586.57
-39881.533
-38592.742
-40230.435
-39687.3
-40303.591
-40225.261
-40651.998
-39784.798
-39960.101
-39375.95
-39430.234
-38903.961
-38914.848
-38672.673
-40942.688
-40494.84
-41370.071
-41742.74
-42718.928
-42437.658
-42937.798
-43746.77
-42299.41
-42807.023
-42482.759
-41765.108
-41804.537
-40370.446
-40849.143
-39635.989
-40190.797
-39252.632
-40035.99
-39609.009
-40378.77
-40183.604
-40053.502
-40797.539
-40677.518
-40725.039
-40739.836
-40802.111
-41005.829
-40592.399
-41486.198
-40887.835
-41494.991
-41546.572
-41917.326
-41742.827
-42430.941
-42556.721
-42179.185
-42751.509
-42876.597
-42625.75
-43429.069
-43328.143
-42710.056
-41381.094
-41859.911
-41343.819
-41813.589
-41209.568
-42047.171
-42308.722
-42811.307
-42835.503
-43440.124
-43490.53
-43896.929
-43847.739
-44326.786
-43810.099
-43187.805
-42907.411
-42937.345
-42746.109
-43211.863
-43246.874
-43595.899
-43715.293
-44092.699
-44185.779
-44884.614
-44370.663
-45516.475
-45777.887
-45366.082
-44040.149
-44523.927
-43787.216
-44052.684
-43716.655
-44113.641
-44168.895
-44765.812
-44637.278
-45401.244
-45529.533
-46103.554
-46798.246
-47236.51
-46702.582
-46076.873
-46465.349
-45639.731
-46553.73
-45767.729
-45787.473
-47071.03
-47042.872
-47466.715
-47604.03
-48311.38
-47994.429
-49204.003
-49518.747
-48856.394
-47679.711
-48293.229
-47382.625
-47697.754
-46888.422
-48361.425
-47458.473
-48183.194
-48099.155
-48812.035
-49111.587
-48744.142
-49934.461
-49718.391
-51102.67
-49926.628
-50413.045
-49616.252
-50247.403
-49950.033
-50139.395
-50735.699
-50449.803
-51273.88
-51320.423
-52247.52
-52116.69
-53386.664
-53927.906
-53150.035
-52498.63
-52500.971
-52068.199
-52441.695
-52187.885
-52966.854
-52668.544
-53281.796
-53262.159
-53757.652
-53989.845
-55152.078
-54451.38
-55290.657
-55787.425
-55032.9
-55432.205
-54940.814
-55464.28
-54717.304
-55235.935
-55596.978
-55483.847
-56299.812
-56205.784
-57312.207
-56952.938
-58729.158
-58732.477
-58173.416
-57896.395
-57791.386
-57859.852
-57949.129
-57867.224
-58435.606
-58293.877
-58983
-58791.998
-59342.836
-59552.9
-59884.623
-60395.672
-60682.014
-61490.672
-60642.133
-61243.988
-60321.156
-61306.492
-60706.658
-61466.69
-61744.35
-61609.512
-62227.351
-62331.835
-63284.035
-63332.074
-64873.946
-64824.304
-63279.087
-64053.52
-63464.387
-63930.739
-63950.919
-63954.294
-64511.014
-64430.242
-65156.24
-65171.809
-65808.071
-66020.146
-65962.452
-66363.268
-67004.388
-67556.816
-66754.129
-67325.873
-67097.926
-67569.695
-67321.426
-67925.706
-67925.292
-68319.746
-68444.924
-68925.02
-69486.809
-69686.535
-70484.498
-70369.969
-69631.994
-70068.319
-69912.641
-70428.75
-70561.049
-70501.761
-71400.676
-71228.739
-71915.478
-72036.786
-72169.788
-73061.769
-72960.367
-73570.137
-73738.446
-73573.287
-73360.831
-73803.908
-73621.93
-74236.406
-74144.599
-74807.439
-74786.085
-75157.032
-75387.5
-75281.24
-75897.341
-76397.167
-76382.836
-76992.445
-76491.515
-76233.113
-77048.456
-76807.387
-77496.882
-77318.8
-77952.806
-77942.988
-78560.992
-78801.51
-79294.611
-79873.403
-79271.425
-80738.393
-80070.701
-79870.113
-79284.679
-80215.147
-80152.623
-80678.325
-80904.363
-81553.181
-81752.799
-82048.703
-82313.321
-82397.753
-82962.807
-82713.78
-82999.092
-83708.362
-82992.539
-82608.217
-83100.84
-83617.513
-84159.129
-84195.817
-84825.368
-84911.726
-85578.342
-85630.721
-86124.303
-86269.655
-86249.774
-87141.366
-86627.377
-85972.571
-85976.703
-86794.473
-86659.295
-87510.262
-87642.018
-88240.973
-88421.984
-88771.988
-89007.402
-88948.829
-89541.446
-89476.385
-89743.992
-90006.043
-89366.783
-88747.229
-89830.729
-89886.229
-90742.889
-90512.382
-91359.256
-91511.6
-92248.272
-92211.692
-92303.71
-92930.999
-92645.852
-93132.198
-93334.659
-92294.13
-92035.895
-92797.024
-93126.079
-93791.741
-94106.306
-94680.195
-94811.761
-95243.65
-95586.347
-95621.842
-96057.44
-95719.923
-95964.925
-96153.731
-95206.412
-94683.571
-95844.737
-95906.028
-96751.705
-97123.798
-97595.05
-97765.617
-98116.709
-98394.61
-98500.319
-99034.567
-98759.213
-99211.193
-99265.734
-98079.599
-97699.247
-98641.341
-98884.877
-99836.727
-99975.433
-100621.3
-100755.65
-101317.81
-101485.43
-101578.68
-101925.09
-101712.72
-101831.58
-101944.93
-100660.61
-100328.84
-101352.94
-101636.05
-102464.55
-102765.42
-103363.44
-103571.07
-103997.81
-104236.71
-104249.7
-104748.9
-104485.33
-104583.81
-104873.45
-103028.34
-103048.7
-103975.64
-104116.06
-105078.4
-105529.96
-106001.59
-106372.9
-106668.14
-106999.09
-106960.38
-107447.78
-106908.03
-107471.47
-107007.1
-105135.64
-105633.29
-106179.29
-107155.95
-107439.53
-108053.11
-108523.86
-108756.76
-109187.39
-109561.73
-109418.15
-109870.81
-109633.66
-109681.05
-110212.25
-108221.26
-107615.17
-108807.66
-109110.29
-110229.93
-110287.17
-111100.29
-111153.52
-111706.26
-111802.29
-111863.03
-112367.84
-111946.01
-112093.68
-112200.93
-110026.32
-110066.96
-110904.27
-111595.35
-112076.12
-112757.3
-113088.03
-113573.69
-113845.38
-114057.34
-114069.33
-114531.62
-114186.09
-114271.72
-114423.87
-112344.41
-111809.91
-113040.13
-113438.04
-114323.44
-114645.21
-115334.13
-115541.53
-115897.21
-116202.19
-116165.65
-116656.9
-116196.46
-116392.44
-116454.39
-114095.99
-113875.04
-114976.15
-115534.05
-116244.8
-116795.16
-117324.14
-117551.66
-118008.9
-118187.7
-118164.23
-118568.05
-118232.95
-118326.93
-118443.07
-115915.12
-115539.2
-116736.29
-117176.67
-118034.75
-118445.63
-119014.53
-119322.49
-119698.14
-119959.1
-119880.69
-120388.63
-119941.28
-120103.41
-120175
-117524.89
-117238.96
-118384.83
-118952.98
-119748.87
-120197.56
-120836.39
-121044.1
-121488.01
-121659.08
-121649.82
-122060.24
-121675.46
-121761.12
-121871.61
-119037.99
-118674
-119885.16
-120387.67
-121171.5
-121702.04
-122246.61
-122536.67
-122916.46
-123177.25