/*--------------------------------*- C++ -*----------------------------------*\
  =========                 |
  \\      /  F ield         | OpenFOAM: The Open Source CFD Toolbox
   \\    /   O peration     | Website:  https://openfoam.org
    \\  /    A nd           | Version:  6
     \\/     M anipulation  |
\*---------------------------------------------------------------------------*/
FoamFile
{
    version     2.0;
    format      ascii;
    class       pointScalarField;
    location    "1.94";
    object      E;
}
// * * * * * * * * * * * * * * * * * * * * * * * * * * * * * * * * * * * * * //

dimensions      [1 -1 -2 0 0 0 0];

internalField   nonuniform List<scalar> 
625
(
1083.9757
-3051.4756
44885.977
18960.183
6735.6672
-1034.8961
19526.388
39720.458
-698.91516
-987.73925
-1868.6828
8007.5704
-5370.825
61687.689
2717.123
114.81906
1804.1404
5248.7686
4818.2401
10813.301
13450.563
14071.186
17192.209
11252.668
6413.0335
-4594.9185
-17319.787
-35241.324
-52188.516
-71050.919
-85294.337
-96483.277
-93819.128
-87213.282
-67798.516
-47067.717
-3013.315
9273.3442
-3152.9368
9985.905
2117.4697
-5949.9489
-2408.0524
-14846.063
-14032.643
-15250.102
-14625.893
-4985.7417
4757.7347
22613.852
44259.947
71333.507
100023.51
129575.22
153829
171200.1
174936.39
163801.82
139166.63
89495.767
1621.5386
16.183065
-1723.5145
6107.3756
21518.756
-6260.2618
345.31404
2924.9983
-15797.505
-15593.736
-14082.328
-18680.408
-12566.226
-11119.48
4268.8891
18497.343
41970.245
68608.084
94468.162
121164.76
139179.01
149920
147528.27
133470.05
107321.81
82267.272
48904.763
-253.87405
7599.2198
6060.2781
-13067.052
-28771.98
-42700.687
-49688.062
-49467.765
-45885.39
-37412.477
-28408.443
-18596.423
-11047.271
-3278.5118
357.8151
7206.9075
4399.8687
3491.4555
5309.0474
4549.86
4132.3103
-3601.233
8844.3412
-327.4248
8376.0591
2069.2564
2301.5643
829.2612
-2515.1332
-3899.1677
-4804.4007
16966.199
19638.211
17957.715
42594.785
43999.702
42360.001
2309.1782
-2111.1595
-2939.9512
-5446.5644
-9701.0252
-10165.634
-15316.837
-15817.762
-18031.31
-16602.606
-11553.154
-4719.0608
6836.2613
21844.056
40368.056
60396.073
81118.701
98728.034
112098.23
113959.48
111484.38
94304.875
61610.758
1188.3394
510.87751
1290.7309
-1446.8458
-1611.8465
-3584.1194
-5967.7024
-4610.7222
-4560.56
339.04872
3004.0358
9400.5646
15797.15
22795.292
29408.184
35395.948
40396.971
42807.722
45034.711
40056.541
36700.74
25213.499
13888.699
841.36617
-3092.3954
-1533.6156
808.51946
5882.0207
6913.7288
14764.944
15300.402
15636.088
13802.972
5300.7095
-3300.4494
-18991.219
-35782.805
-55966.864
-74931.936
-93154.571
-104379.17
-111206.42
-102932.5
-87012.658
-58515.737
-9384.5087
-519.25353
-98.536427
-212.4243
-850.1974
-1050.9569
-225.796
-1256.8213
-2656.2238
-2317.7655
8640.1944
11107.064
8200.5892
13234.802
8570.1323
11882.543
1856.285
-3737.8704
3697.363
494.21616
824.83703
-4750.9469
251.47813
-7662.4376
934.99651
-8029.5592
-6241.6291
-10746.518
-7857.3764
-15652.081
-11662.458
-11256.014
-20997.406
-13703.687
-14117.36
-17792.522
-17096.792
-7765.7149
-16881.95
-10729.229
-4147.9037
-8626.0496
-6972.9607
11637.023
3706.5085
7819.4798
27578.567
23352.391
26396.674
53177.028
48182.421
49652.65
79784.687
77515.756
79715.783
109743.51
109099.62
108935.16
137662.45
138082.83
137661.45
159281.21
160811.2
160145.25
172327.25
174241.83
173075.96
171547.33
172776.43
171925.97
156641.47
157735.08
157303.44
126652.04
129568.28
129589.35
87350.937
86872.794
88610.468
6267.0457
7499.4059
7354.86
642.27505
-160.15656
-4450.4588
60445.446
59650.588
57371.887
3451.1021
5120.4637
4601.9801
892.29843
-916.82149
1548.2592
7137.5529
5766.8251
10064.765
2899.5231
2504.5973
1686.7621
10256.68
8486.9842
9662.8508
9427.003
6040.5878
9019.9364
12232.551
12796.696
11756.763
13513.215
10464.934
12559.242
12723.489
12703.574
12613.065
10374.121
6201.0765
12467.939
5148.6027
4687.8859
7726.285
-1282.9731
-5109.635
2291.576
-13064.724
-15180.197
-7316.2147
-25631.297
-29435.602
-18993.295
-40361.937
-43770.747
-32302.509
-55199.995
-59037.475
-46484.105
-67754.242
-71374.842
-58381.564
-75582.691
-79008.097
-67229.877
-76708.171
-81906.938
-68707.575
-68719.641
-78146.425
-64151.544
-50289.642
-59191.106
-48966.8
-33922.553
-35621.445
-31987.229
1030.6571
913.19815
2286.74
4542.8553
1240.4877
-2454.958
-751.93876
-7166.6386
-6996.7608
-10259.416
-13053.564
-14722.705
-12114.562
-10328.795
-1813.3058
7466.4034
21511.085
37764.823
55708.716
72829.819
87807.901
96679.788
99721.719
93554.433
76642.275
67240.634
667.55055
4570.2596
-865.67795
2785.8924
-1014.76
3387.7549
900.41787
4660.534
7851.9594
10051.553
11204.755
13001.628
8941.7021
5753.8146
-1276.1049
-9030.1881
-16741.152
-24392.629
-29832.38
-33028.571
-32139.093
-29949.656
-9463.7462
-590.32744
-5920.4923
1024.4991
-3135.9593
8836.4814
15505.049
14688.527
25741.991
18669.559
19657.782
6450.6357
-5711.8808
-25525.458
-47152.309
-70099.958
-91397.194
-108127.63
-117560.67
-116625.39
-104270.2
-80532.549
-45138.801
-1623.5546
1412.1049
2958.6384
3460.9351
-915.0683
-201.42337
555.4378
-3019.0339
-3949.2689
-1170.3609
-4314.7986
-2235.7703
-1792.6588
-5893.0418
-8523.051
-6227.2167
-8545.6834
-7963.2417
-7041.0351
-12424.078
-13308.577
-11222.017
-12218.97
-12439.851
-11510.548
-13697.22
-16801.883
-14942.803
-11444.801
-12262.052
-10263.249
-6648.8257
-9366.2442
-8560.2501
1110.3745
-1071.382
1306.3906
14165.42
10717.018
12169.296
30187.262
26207.592
28256.271
49135.137
44489.746
46391.435
69632.895
64843.98
66689.774
89474.795
84323.129
86115.773
106066.71
102140.29
102585.01
117168.09
112031.22
114119.17
113764.05
120603.63
115993
109267.65
113693.34
108872.19
93175.314
91295.854
90031.438
64561.771
65350.412
65610.869
92.38486
486.98176
616.98857
1670.5225
2942.7697
3555.1068
928.52103
-2227.3242
581.43789
549.91077
584.87479
2505.2166
1450.4187
-3376.035
-1574.7736
-881.16843
-3341.706
115.29655
1073.3351
-3641.7823
-796.5001
2352.7575
-1875.6207
-247.70667
3211.6938
-120.14777
2835.5677
7280.1923
4413.7831
6144.3501
9989.0906
7304.6842
8888.4108
12633.451
10898.655
11901.016
14974.026
13796.198
13341.504
15547.948
14888.277
13478.406
16544.311
15579.47
13247.605
15721.99
14257.728
11441.622
15214.688
13033.185
9808.7673
13068.42
9682.5229
7097.9035
11828.756
7415.572
5047.544
7448.6103
4350.4711
1341.8127
-5181.5462
17981.924
1173.5144
-1351.1739
-5877.5038
-5797.4981
-1429.5566
-3851.9811
-2898.9986
2922.7449
2089.0771
1095.608
-4106.7683
-6776.8639
-6485.296
697.16946
3836.4295
3522.1063
5488.6823
2444.2728
1529.7521
8148.4948
10426.366
8577.5739
14019.06
14930.869
14321.108
20077.541
19810.943
17918.538
19893.793
23420.869
22416.861
22721.164
21878.621
21957.9
17689.807
19281.904
19048.732
9838.664
8885.6753
10321.393
-1790.5048
-4092.5286
-2247.6861
-18497.974
-23333.276
-18705.071
-36926.153
-44134.524
-38604.546
-57642.177
-67477.31
-59727.039
-77634.659
-88482.889
-79689.482
-94408.55
-105708.27
-96476.594
-105636.37
-115585.76
-106761.09
-108388.88
-115773.19
-108854.26
-99696.696
-105587.84
-99994.306
-81540.822
-83804.228
-81485.412
-50006.953
-49833.565
-49217.875
-5417.9106
-4888.5772
-3532.0835
)
;

boundaryField
{
    free
    {
        type            zeroGradient;
    }
    fixed
    {
        type            zeroGradient;
    }
    freeTop
    {
        type            zeroGradient;
    }
}


// ************************************************************************* //
