/*--------------------------------*- C++ -*----------------------------------*\
  =========                 |
  \\      /  F ield         | OpenFOAM: The Open Source CFD Toolbox
   \\    /   O peration     | Website:  https://openfoam.org
    \\  /    A nd           | Version:  6
     \\/     M anipulation  |
\*---------------------------------------------------------------------------*/
FoamFile
{
    version     2.0;
    format      ascii;
    class       pointVectorField;
    location    "0.27";
    object      lm;
}
// * * * * * * * * * * * * * * * * * * * * * * * * * * * * * * * * * * * * * //

dimensions      [1 -2 -1 0 0 0 0];

internalField   nonuniform List<vector> 
3969
(
(0 0 0)
(0 0 0)
(3857.5445 -52.65379 -16.86281)
(3859.1228 -578.59252 -18.431076)
(0 0 0)
(0 0 0)
(3853.1918 -560.5103 -10.898668)
(3854.2817 -33.974741 -24.688594)
(0 0 0)
(0 0 0)
(0 0 0)
(0 0 0)
(0 0 0)
(0 0 0)
(0 0 0)
(3730.1691 -113.48871 -17.372437)
(3629.1747 -172.07449 -17.780002)
(3649.7382 -234.73415 -18.468925)
(3773.7655 -306.38605 -19.192098)
(3922.367 -384.87521 -19.632973)
(4002.4266 -460.63285 -19.475011)
(3964.4835 -524.30838 -18.717676)
(-0.67354577 30.649181 42.341369)
(-15.125687 62.651029 63.39773)
(-15.290679 105.94058 78.712199)
(3.379571 154.34839 86.221505)
(39.922448 205.74083 89.742088)
(98.045452 257.95706 87.974332)
(175.24485 307.75361 82.581672)
(272.51974 354.12072 73.312964)
(385.80417 393.44302 61.443453)
(513.5509 426.00757 47.512497)
(651.40057 449.63833 33.202188)
(795.76729 464.56546 19.276134)
(942.51857 470.54472 7.0296948)
(1088.8149 469.04386 -2.8701705)
(1231.5363 460.26056 -9.9232877)
(1369.106 446.67154 -13.934814)
(1501.0149 428.96168 -15.747591)
(1626.8993 408.6021 -15.535898)
(1747.2604 386.66222 -14.168661)
(1862.7647 363.86278 -12.40169)
(1974.1683 340.71919 -10.825415)
(2081.8763 317.4745 -9.7533916)
(2185.9945 294.22699 -9.2368753)
(2286.1727 271.17965 -9.0107128)
(2382.0273 248.13378 -8.6134367)
(2472.8291 225.43991 -7.76252)
(2558.3578 203.26214 -6.0883437)
(2638.3069 181.99313 -3.5379668)
(2713.1868 162.03171 -0.32479979)
(2783.7387 143.51127 3.0730053)
(2850.9196 126.62665 6.1363809)
(2915.6576 111.34353 8.3487549)
(2978.8663 97.502979 9.3459089)
(3040.8903 84.761194 9.1572)
(3101.9408 72.993853 7.7864326)
(3161.5268 61.72386 6.0358218)
(3219.567 50.919377 4.0545431)
(3275.1784 40.445144 2.5812368)
(3328.6639 30.389092 1.8914335)
(3379.9625 20.869905 1.7666415)
(3429.7297 11.602465 2.0445185)
(3479.1733 2.8368128 2.1143472)
(3528.3277 -5.2108686 1.4880991)
(3579.5814 -14.234826 -0.13893235)
(3631.1885 -22.160857 -3.3925961)
(3685.613 -32.03885 -7.2801627)
(3737.5995 -41.194803 -12.354571)
(-11.721721 -24.831896 -38.719147)
(-26.656731 -54.182178 -57.860602)
(-36.275533 -90.422418 -81.562723)
(-23.352001 -134.74494 -91.714529)
(9.6146173 -182.71706 -99.268301)
(62.008596 -230.61066 -100.00274)
(135.24657 -278.78339 -97.413521)
(225.76988 -322.89952 -89.731865)
(333.17111 -363.6092 -78.995361)
(453.60505 -397.853 -65.1676)
(583.19635 -426.34721 -49.676922)
(719.24901 -447.57222 -33.195481)
(857.24351 -462.32981 -16.899778)
(994.55688 -471.1955 -1.580315)
(1128.7434 -475.46933 11.953997)
(1258.0135 -475.74038 23.230516)
(1381.619 -473.76599 31.911715)
(1499.1699 -470.08704 38.138463)
(1611.5576 -466.02927 42.079995)
(1719.2855 -461.72827 44.32026)
(1823.6349 -457.60285 45.33686)
(1925.1228 -453.79309 45.814685)
(2024.3833 -449.67401 45.880463)
(2121.5522 -445.87852 46.412599)
(2216.258 -441.7104 46.973113)
(2308.0403 -437.88512 47.546253)
(2396.6916 -434.43748 47.627803)
(2481.3079 -431.4461 46.994716)
(2562.2247 -429.77051 45.404064)
(2639.9699 -429.39989 42.671321)
(2715.0745 -430.67546 38.938378)
(2788.5561 -433.48522 34.485425)
(2861.1799 -437.723 29.739054)
(2933.6718 -443.14217 25.166361)
(3006.1913 -449.43491 21.176989)
(3078.5613 -456.23839 17.816484)
(3150.1954 -463.53182 14.925456)
(3220.5019 -471.11601 12.652182)
(3288.7522 -479.35312 9.9152376)
(3354.2513 -488.02093 6.8189785)
(3417.6111 -497.40809 2.9163659)
(3478.9423 -507.67941 -1.3093298)
(3539.1415 -518.68694 -5.9753337)
(3598.9761 -530.29238 -10.139543)
(3658.8804 -541.99638 -13.666271)
(3719.0359 -553.40583 -16.140657)
(3786.9949 -565.75909 -17.420037)
(0 0 0)
(0 0 0)
(0 0 0)
(0 0 0)
(0 0 0)
(0 0 0)
(0 0 0)
(-3.0936358 -13.298973 26.969259)
(-25.266438 -57.26403 56.000243)
(-35.389964 -82.309181 69.799518)
(-19.537377 -134.65871 79.755985)
(12.14731 -178.22414 82.701387)
(68.252013 -228.09842 79.41501)
(141.41815 -276.74686 73.704502)
(234.30495 -322.53021 62.066512)
(342.80572 -365.01132 49.577967)
(462.80599 -402.40158 34.01846)
(592.40604 -433.48228 20.542465)
(728.93516 -456.6238 4.8058379)
(867.23375 -474.95383 -7.9316015)
(1003.4265 -486.39124 -17.325266)
(1135.2408 -492.5675 -23.201558)
(1261.7258 -494.4169 -25.518869)
(1382.0786 -492.85672 -25.051237)
(1497.0331 -489.28856 -22.575611)
(1607.4513 -484.58208 -19.243969)
(1714.6384 -479.47579 -16.048124)
(1819.6033 -474.46748 -13.725542)
(1922.9527 -469.63096 -12.585096)
(2024.6257 -465.06268 -12.485957)
(2124.2438 -460.495 -12.98493)
(2220.7668 -455.926 -13.210232)
(2313.0073 -451.11299 -12.482577)
(2401.2312 -446.35463 -10.712468)
(2484.8459 -441.84108 -7.8457478)
(2564.2028 -438.21433 -4.0467595)
(2640.1816 -435.67738 0.11155226)
(2713.7391 -434.53896 3.9953111)
(2786.1138 -435.05342 6.8684945)
(2858.1678 -437.14426 8.3465378)
(2930.3061 -440.71785 8.3177782)
(3002.6205 -445.51879 7.0768624)
(3074.8873 -451.40571 4.9955524)
(3145.191 -456.69322 3.5614938)
(3213.465 -463.87424 1.5573966)
(3278.939 -470.31159 1.6434155)
(3341.5798 -477.39961 2.2143305)
(3402.0523 -484.88575 3.5151179)
(3460.5593 -493.17543 4.7686702)
(3518.7007 -502.26668 5.1221575)
(3577.0718 -512.33637 4.1205646)
(3636.2321 -522.93261 1.5135377)
(3696.0535 -534.04047 -2.2627747)
(3747.0481 -543.36411 -6.4553462)
(3964.8905 -505.53944 -14.232147)
(3991.901 -439.01643 -16.616199)
(3894.7485 -361.26619 -18.054027)
(3731.4873 -283.29958 -18.383094)
(3630.5323 -213.79223 -18.827993)
(3632.0191 -153.61694 -19.901338)
(3749.4792 -95.321963 -21.993529)
(3750.7463 -22.793029 -22.979121)
(3704.3686 -13.888761 -21.289773)
(3650.7966 -5.4304487 -18.420814)
(3597.9797 1.6115551 -15.288056)
(3546.0341 8.0299475 -11.584511)
(3494.3663 14.690569 -8.00639)
(3442.4573 21.935931 -4.6804071)
(3389.4389 30.286554 -1.9587435)
(3334.8389 39.592648 0.38953565)
(3278.1834 49.602715 2.3464796)
(3217.0596 59.863143 4.307985)
(3159.4391 70.321788 6.3569425)
(3097.2573 80.715783 9.5151333)
(3034.7113 90.575207 13.086837)
(2971.1506 100.83063 17.434272)
(2906.6115 111.75231 22.05763)
(2840.4379 124.06263 26.56972)
(2771.7199 138.22359 30.513605)
(2699.5212 154.55846 33.480891)
(2622.9697 173.02987 35.275466)
(2541.4001 193.26624 35.850781)
(2454.7951 214.70905 35.499407)
(2363.0903 236.85303 34.343294)
(2267.1486 258.95484 33.072921)
(2167.2844 280.78948 31.736874)
(2064.067 302.19619 30.581296)
(1957.7146 323.15417 29.531019)
(1847.9187 343.98219 28.192816)
(1734.1848 364.61055 26.198747)
(1615.5348 385.0846 22.858026)
(1491.2574 404.74748 17.542964)
(1360.8041 423.09688 10.330061)
(1226.9431 439.28308 0.65169061)
(1083.8853 448.85478 -10.809541)
(938.51248 453.80789 -24.300213)
(793.25984 451.02248 -38.497165)
(650.74273 440.5314 -53.012595)
(513.88545 420.95199 -66.61781)
(386.96385 390.79187 -78.587225)
(274.79565 353.62405 -88.417265)
(178.82768 311.42932 -95.524811)
(99.045769 261.15669 -97.791017)
(43.008481 210.89072 -98.153684)
(5.0268278 159.11418 -91.524342)
(-12.86491 111.35885 -81.585142)
(-12.156968 63.228701 -64.078387)
(16.151515 29.656011 -31.758487)
(0 0 0)
(0 0 0)
(0 0 0)
(0 0 0)
(0 0 0)
(0 0 0)
(0 0 0)
(0 0 0)
(0 0 0)
(0 0 0)
(0 0 0)
(0 0 0)
(0 0 0)
(0 0 0)
(3859.4791 -577.60291 -18.460562)
(3860.6484 -576.917 -17.60096)
(3861.5263 -576.14408 -16.03155)
(3861.5491 -574.91136 -14.077471)
(3860.4119 -572.6669 -12.442156)
(3858.1908 -569.55735 -11.350881)
(3855.5741 -565.32851 -10.512563)
(3859.7585 -48.534211 -16.73828)
(3861.8731 -44.840187 -17.095267)
(3863.1248 -42.161162 -18.262189)
(3862.9567 -40.14494 -19.920058)
(3861.386 -38.771789 -21.839944)
(3858.7313 -37.49845 -23.378469)
(3856.2311 -35.96348 -24.679301)
(-11.97213 33.447516 38.220698)
(-27.409376 59.17807 46.417284)
(-31.99039 90.125417 56.401491)
(-19.123815 121.29919 62.229447)
(10.602003 153.75897 64.586403)
(61.286211 187.73718 64.31382)
(130.98786 220.07127 60.564267)
(220.80604 251.33861 55.074316)
(329.23039 278.44183 46.54123)
(453.80415 302.17979 37.268269)
(591.47276 320.16597 26.938999)
(738.5498 333.16669 16.683567)
(891.61208 340.30565 7.526405)
(1046.4235 341.98566 -0.051063648)
(1199.7977 338.44672 -5.4424283)
(1349.1912 330.37206 -8.5879904)
(1493.1664 318.36574 -9.7678498)
(1630.739 303.29022 -9.3254253)
(1762.0197 285.93043 -7.9964382)
(1887.4155 266.76633 -6.2683172)
(2007.5381 246.41157 -4.718482)
(2122.7909 225.38525 -3.6307482)
(2233.1609 203.9967 -2.976557)
(2338.2657 182.71501 -2.5608714)
(2437.3179 161.65339 -2.0003142)
(2529.5621 141.38383 -0.93025343)
(2614.5826 121.80812 0.78540825)
(2692.1796 103.30153 3.1549837)
(2762.7637 85.887134 5.9328015)
(2827.4541 69.617116 8.6411007)
(2887.3322 54.451822 10.828843)
(2943.6805 40.368051 12.068397)
(2997.537 27.221944 12.21213)
(3049.4786 15.034947 11.228527)
(3099.6925 3.7027219 9.518459)
(3148.0924 -6.8876011 7.4325106)
(3194.3535 -16.642762 5.4029383)
(3238.2652 -25.82423 3.8863655)
(3280.0854 -34.325054 2.8761319)
(3320.1907 -42.561591 2.2601883)
(3359.5441 -50.636406 1.9556693)
(3399.2553 -58.486036 1.1216108)
(3440.1208 -66.800135 -0.017680623)
(3483.763 -75.298838 -2.309063)
(3529.6212 -83.893709 -5.3184451)
(3579.1567 -93.375735 -8.9552091)
(3638.0825 -102.62048 -13.162258)
(-26.208121 22.969312 27.83022)
(-41.438402 38.818892 31.249714)
(-44.739198 63.958058 38.259921)
(-34.074772 83.704686 41.097435)
(-5.2729453 106.94961 42.684951)
(41.534026 129.37376 41.544857)
(108.67051 151.44176 39.828946)
(196.50977 172.06302 35.025634)
(303.03074 190.40425 30.142954)
(427.17902 206.2152 23.578377)
(565.64445 218.10591 16.913886)
(715.19009 226.73413 10.327984)
(871.56199 230.81442 4.6746539)
(1030.9467 230.96035 0.27961719)
(1189.6026 227.08606 -2.5672246)
(1344.4683 219.83359 -3.9158694)
(1493.5803 209.35321 -3.774761)
(1635.9207 196.23929 -2.5658802)
(1771.2051 180.97959 -0.79013702)
(1899.6956 164.08235 1.1880348)
(2021.8302 146.14195 2.8753811)
(2138.0543 127.56222 4.1495407)
(2248.3894 108.85065 4.971011)
(2352.4162 90.365768 5.5315872)
(2449.4879 72.444146 6.2310366)
(2538.9578 55.152845 7.0582686)
(2620.2391 38.875872 8.352582)
(2693.359 23.411003 10.136517)
(2758.9113 8.7799647 11.918797)
(2818.0844 -5.0239862 13.515379)
(2872.1538 -18.119388 14.531826)
(2922.575 -30.508212 14.714252)
(2970.4975 -42.136251 13.955155)
(3016.5154 -52.995474 12.401586)
(3061.0434 -63.089475 10.346367)
(3103.9107 -72.317232 8.0372061)
(3145.0517 -80.806176 5.9684482)
(3184.5019 -88.746633 4.231977)
(3222.513 -96.194853 2.8728766)
(3259.7505 -103.66099 1.9643115)
(3297.0273 -111.08128 0.86497505)
(3335.8496 -118.79247 -0.24208558)
(3376.6598 -126.82609 -1.9745825)
(3421.2414 -135.41202 -4.1515812)
(3468.7872 -144.0422 -7.0558379)
(3521.2484 -153.63773 -10.185624)
(3579.2884 -162.89238 -14.11908)
(-38.691079 14.048554 18.661395)
(-53.20048 24.401591 19.922225)
(-57.733983 38.142079 21.924315)
(-43.804069 51.60662 22.782237)
(-14.337343 64.536569 22.074925)
(36.752445 78.336116 21.177799)
(108.34242 89.570732 17.814662)
(199.97072 100.80856 15.375249)
(311.28823 109.39052 11.545111)
(439.18481 116.0819 7.7359373)
(580.48699 120.36731 4.2183928)
(731.23086 121.88189 1.1156073)
(887.223 120.80708 -0.9467718)
(1044.4706 117.08328 -1.9026251)
(1199.4406 110.91706 -1.9250779)
(1349.3088 102.52041 -0.98361986)
(1492.3909 92.271679 0.81824984)
(1627.8194 80.369117 3.0807332)
(1755.6053 67.263545 5.4669837)
(1876.18 53.331801 7.6433761)
(1990.3569 38.846444 9.3061189)
(2098.6884 24.20635 10.486971)
(2201.2971 9.7045896 11.215375)
(2298.1744 -4.3392172 11.771957)
(2388.8916 -17.927712 12.207498)
(2472.7071 -30.76531 12.956136)
(2549.4847 -42.966263 14.019163)
(2619.2365 -54.62333 15.262203)
(2682.9187 -65.699157 16.480693)
(2741.4079 -76.364546 17.482115)
(2796.0812 -86.716503 17.961845)
(2848.3614 -96.705699 17.712047)
(2899.2698 -106.38189 16.702025)
(2949.6362 -115.70676 15.036565)
(2999.6618 -124.49106 12.85885)
(3049.3967 -132.85925 10.550878)
(3098.6158 -140.79763 8.3252867)
(3147.19 -148.34661 6.2757023)
(3195.1807 -155.78305 4.668664)
(3243.0824 -163.27723 3.0660813)
(3291.7663 -171.01887 1.678203)
(3341.8265 -179.14486 -0.13611445)
(3394.3961 -187.98331 -2.0740947)
(3450.2113 -197.15343 -4.8479477)
(3509.1925 -207.01674 -7.7285446)
(3572.3236 -217.23078 -11.404656)
(3633.3858 -227.28797 -14.82856)
(-45.078217 3.9362839 4.7158542)
(-60.439156 4.514355 1.1423932)
(-63.461978 10.187227 1.2519026)
(-48.323672 13.466391 -0.12024771)
(-12.013205 17.574551 -1.2539675)
(45.479127 21.816906 -3.7109632)
(124.86892 23.506678 -4.2847501)
(224.99067 25.471989 -6.1287345)
(343.43591 24.647802 -6.7741476)
(476.43069 23.085729 -7.0417287)
(620.11185 19.274251 -6.8776327)
(770.05776 14.403842 -5.911645)
(921.4105 8.1178017 -4.3074244)
(1070.8615 0.79443858 -1.7894137)
(1215.2377 -7.4910403 0.97323751)
(1352.56 -16.413502 4.2317318)
(1481.652 -25.878087 7.5256555)
(1602.6097 -35.663952 10.659279)
(1715.8784 -45.571694 13.393082)
(1822.4438 -55.409563 15.507123)
(1923.2398 -65.229564 17.155479)
(2019.1655 -74.710052 18.265871)
(2110.9941 -83.79348 18.911759)
(2198.5536 -92.778525 19.400652)
(2281.7382 -101.33589 19.978126)
(2360.6098 -109.74332 20.568777)
(2435.0324 -117.82069 21.130002)
(2505.2087 -125.74467 21.732192)
(2571.6152 -133.56587 22.241021)
(2635.1719 -141.4774 22.434834)
(2697.0333 -149.44325 22.109286)
(2758.2942 -157.49301 21.150879)
(2819.9757 -165.7027 19.59351)
(2882.6742 -173.88303 17.444664)
(2946.6299 -182.10834 14.962457)
(3011.7286 -190.30448 12.340435)
(3077.495 -198.51514 9.7880747)
(3143.5835 -206.80287 7.4399774)
(3209.6384 -215.28076 5.3128996)
(3275.8219 -224.13 3.4174856)
(3341.8679 -233.51028 1.4427569)
(3409.1603 -243.39369 -0.71001823)
(3477.5955 -253.86861 -3.2179409)
(3548.4287 -264.91011 -6.10529)
(3620.7376 -276.25118 -9.1826791)
(3695.5273 -288.13365 -12.515384)
(3762.0366 -299.57579 -15.709339)
(-49.379491 -8.8395413 -10.143191)
(-63.802716 -15.520011 -14.129361)
(-68.418064 -23.604445 -17.89745)
(-48.600932 -29.708165 -21.461824)
(-7.7694703 -36.547942 -24.805521)
(56.859882 -43.135301 -25.551255)
(144.25702 -50.940255 -26.447826)
(251.94632 -58.571631 -25.570993)
(376.05681 -67.492179 -23.295975)
(512.91454 -76.239389 -20.301042)
(657.15242 -85.299376 -16.383735)
(803.63624 -93.969348 -11.674158)
(948.61511 -102.94693 -6.3806803)
(1088.7936 -111.37918 -1.0552834)
(1221.7348 -119.67247 4.0907364)
(1346.1962 -127.37921 8.9548909)
(1462.0419 -134.72096 13.103355)
(1569.7737 -141.5054 16.606142)
(1670.5203 -147.92867 19.348836)
(1765.563 -153.91871 21.28599)
(1856.2035 -159.76941 22.830639)
(1947.4838 -165.50291 23.508823)
(2036.986 -171.22224 24.15641)
(2119.1149 -176.07731 24.601693)
(2198.8011 -180.98239 24.826812)
(2276.1423 -185.77664 25.097661)
(2350.931 -190.66527 25.407338)
(2423.4369 -195.85563 25.770994)
(2494.1259 -201.40462 25.889616)
(2563.6584 -207.40042 25.697294)
(2632.8651 -213.83931 25.038337)
(2702.7089 -220.73901 23.878652)
(2773.9934 -228.06732 22.191426)
(2847.2756 -235.75028 20.072381)
(2922.7601 -243.74645 17.629278)
(3000.2472 -252.08648 15.048219)
(3079.1224 -260.7273 12.492771)
(3158.7269 -269.77733 9.9149795)
(3246.0649 -279.8637 7.690606)
(3329.9447 -290.54728 5.2906755)
(3410.0246 -301.27532 2.8750749)
(3489.6687 -312.75423 0.040703989)
(3569.4881 -324.83095 -2.8068285)
(3649.8445 -337.26749 -6.2784535)
(3730.5485 -350.19762 -9.4145587)
(3812.1466 -363.29318 -13.235968)
(3883.6355 -375.81357 -16.136722)
(-43.163931 -18.034425 -24.024395)
(-55.258826 -39.159966 -33.599632)
(-61.436004 -57.641293 -41.777914)
(-41.550233 -75.263579 -48.320968)
(0.31747462 -93.899928 -50.966755)
(66.694966 -111.67107 -52.32558)
(155.63699 -130.60127 -50.63353)
(264.06893 -147.99877 -46.583367)
(388.05768 -165.4644 -40.947815)
(523.11504 -180.90118 -33.407837)
(663.97724 -195.18797 -25.296552)
(806.3029 -207.28377 -16.297126)
(946.22547 -218.00493 -7.6742235)
(1080.5151 -226.62392 0.66925638)
(1207.4401 -233.746 8.1602159)
(1326.1294 -239.21221 14.634842)
(1436.6915 -243.59747 19.84721)
(1539.9474 -246.80871 23.941052)
(1637.0823 -249.44575 26.871544)
(1729.5271 -251.45989 28.876063)
(1818.5721 -253.13266 30.200534)
(1907.1783 -255.47688 30.748403)
(1991.2338 -256.70542 31.489098)
(2075.3133 -258.29415 31.616919)
(2156.9046 -259.97375 31.965847)
(2236.8877 -261.93862 32.305488)
(2315.4382 -264.38571 32.584023)
(2392.7179 -267.4267 32.68703)
(2468.8705 -271.13847 32.465545)
(2544.3745 -275.50663 31.751181)
(2619.9623 -280.58685 30.432767)
(2696.3793 -286.38596 28.49084)
(2774.3115 -292.89734 26.01596)
(2854.2201 -300.05466 23.161613)
(2936.2633 -307.87319 20.113967)
(3020.1153 -316.32098 17.122757)
(3105.0915 -325.34303 14.206543)
(3190.5575 -334.97305 11.540356)
(3275.32 -345.41671 8.7673453)
(3369.6408 -357.5303 6.3022991)
(3451.6779 -369.45287 3.2717177)
(3532.4731 -381.79417 0.046408006)
(3612.2647 -394.54678 -3.6288081)
(3691.6055 -407.75359 -7.337265)
(3770.5776 -421.00735 -10.979701)
(3848.846 -434.29243 -14.316964)
(3921.3687 -446.94452 -16.48959)
(-28.115812 -34.98274 -35.271491)
(-44.484496 -61.29879 -46.436368)
(-54.224444 -88.165976 -60.642269)
(-36.963929 -115.98243 -68.829269)
(0.18903823 -145.31198 -73.683677)
(62.279449 -175.78085 -74.416807)
(145.08683 -205.29323 -71.563411)
(247.55799 -233.46854 -65.613648)
(365.78511 -259.2275 -57.055949)
(495.76701 -281.78899 -46.454862)
(633.35655 -301.17868 -34.774148)
(773.19882 -316.45273 -22.522269)
(912.48443 -328.94791 -10.362384)
(1047.6447 -337.92095 0.80624357)
(1177.0774 -344.27523 10.612786)
(1299.2252 -348.45575 18.762118)
(1414.2561 -350.96049 25.180609)
(1522.4696 -352.27589 29.893253)
(1625.0647 -352.67886 33.15274)
(1723.2818 -352.53334 35.247051)
(1818.2183 -351.96692 36.477139)
(1911.1833 -351.15407 37.284607)
(2001.9953 -350.2419 37.751145)
(2091.7866 -349.21029 38.098041)
(2179.8419 -348.60169 38.678212)
(2266.1014 -348.29445 38.987018)
(2350.3322 -348.61199 39.155147)
(2432.0989 -349.91039 38.948712)
(2511.6735 -351.8649 38.191089)
(2589.4764 -354.79859 36.716037)
(2666.2076 -358.54884 34.554193)
(2742.638 -363.16801 31.789769)
(2819.5356 -368.52849 28.582232)
(2897.4367 -374.51588 25.162273)
(2976.5163 -381.16632 21.735227)
(3056.4889 -388.5367 18.571992)
(3136.7317 -396.37845 15.474345)
(3216.3526 -405.21707 12.663949)
(3294.5934 -414.76645 9.9291257)
(3370.6731 -425.1871 6.8794351)
(3444.5657 -436.39996 3.5191681)
(3516.6213 -448.04561 -0.27524093)
(3587.405 -460.24121 -4.1665009)
(3657.6562 -472.43555 -8.1792908)
(3727.6131 -484.70709 -11.586242)
(3797.1646 -496.54864 -14.612003)
(3862.1046 -507.72825 -16.636462)
(0 0 0)
(0 0 0)
(0 0 0)
(0 0 0)
(0 0 0)
(0 0 0)
(0 0 0)
(0 0 0)
(0 0 0)
(0 0 0)
(0 0 0)
(0 0 0)
(0 0 0)
(0 0 0)
(0 0 0)
(0 0 0)
(0 0 0)
(0 0 0)
(0 0 0)
(0 0 0)
(0 0 0)
(0 0 0)
(0 0 0)
(0 0 0)
(0 0 0)
(0 0 0)
(0 0 0)
(0 0 0)
(0 0 0)
(0 0 0)
(0 0 0)
(0 0 0)
(0 0 0)
(0 0 0)
(0 0 0)
(0 0 0)
(0 0 0)
(0 0 0)
(0 0 0)
(0 0 0)
(0 0 0)
(0 0 0)
(0 0 0)
(0 0 0)
(0 0 0)
(0 0 0)
(0 0 0)
(0 0 0)
(0 0 0)
(-2.6708853 -4.6542993 -22.479703)
(0.88659737 -6.1744042 -16.601797)
(3.6438441 -7.1420367 -9.2065411)
(4.7194032 -7.5776741 -2.6574549)
(3.9133448 -6.8028421 3.8918574)
(2.3358523 -6.7552844 11.237347)
(-1.9593301 -1.6246857 15.993624)
(-13.302593 -43.778397 -45.922253)
(-3.4746691 -46.97554 -28.916101)
(1.3249239 -45.553304 -14.311368)
(2.3237717 -44.710749 -2.1381139)
(1.4689578 -45.914306 10.024807)
(-3.7395173 -44.585791 23.963343)
(-11.356627 -41.007297 38.4318)
(-17.598937 -75.952877 -60.790402)
(-4.3673297 -74.063565 -42.315687)
(3.5276116 -77.152289 -21.434921)
(5.0982347 -77.201152 -5.1983467)
(3.8234896 -75.141403 13.793791)
(-3.8722238 -75.432665 29.840942)
(-14.539378 -75.367061 53.593108)
(0.83108194 -130.40265 -69.338991)
(14.019585 -132.28153 -48.262696)
(22.646669 -131.17318 -26.087908)
(25.45916 -130.95159 -6.9818453)
(23.447583 -130.8047 13.941672)
(15.377456 -131.98346 35.737724)
(1.8285777 -128.36074 57.534095)
(33.20423 -179.47247 -76.138982)
(48.90124 -179.1541 -53.519969)
(59.272472 -180.01833 -30.036329)
(61.975837 -180.0045 -7.7906652)
(60.410867 -180.02449 14.638503)
(51.427232 -179.25821 35.810622)
(38.094247 -178.5563 62.499684)
(87.045303 -232.58374 -77.366165)
(101.70619 -233.46768 -55.372091)
(111.6968 -233.18826 -31.858012)
(114.77134 -234.1202 -10.767452)
(113.20093 -233.39648 12.612647)
(104.32018 -233.44341 35.340362)
(90.391444 -230.92413 57.725291)
(157.86971 -282.73968 -75.945021)
(172.54658 -284.46811 -54.640564)
(182.54521 -285.51128 -32.944188)
(185.84529 -286.23347 -12.685802)
(184.42886 -285.98337 9.491697)
(176.43021 -287.3214 29.603071)
(164.29694 -284.58715 54.438129)
(246.65477 -330.74128 -70.783097)
(260.23709 -333.19828 -52.305478)
(269.1958 -334.15013 -32.30491)
(272.76795 -334.62739 -13.939961)
(270.87606 -334.35759 5.159032)
(264.88652 -333.59694 24.935887)
(252.65712 -331.13558 43.739256)
(351.1374 -373.39655 -63.00451)
(362.39175 -376.09972 -46.853589)
(369.95912 -377.78155 -31.005258)
(373.31652 -378.65899 -15.61325)
(372.95675 -380.0753 0.92207778)
(367.15033 -378.82125 16.419768)
(358.48964 -377.82062 34.881686)
(467.13188 -409.91565 -52.846455)
(476.63893 -412.95989 -41.142215)
(483.62262 -414.31518 -27.876053)
(486.42069 -416.14864 -15.378866)
(485.24756 -416.48079 -2.5655329)
(482.16765 -415.72061 9.5157171)
(474.30402 -414.00368 22.697092)
(593.70969 -438.98994 -40.843791)
(600.38272 -442.34973 -32.429091)
(605.50241 -445.05234 -23.315329)
(607.47039 -445.67338 -15.702538)
(608.13209 -447.35596 -6.5414795)
(605.6371 -446.66698 1.2704058)
(600.2446 -446.11582 12.537952)
(725.62941 -460.92789 -28.456205)
(729.71101 -464.14565 -23.498906)
(733.0544 -466.60552 -19.46775)
(735.31265 -468.2718 -14.53288)
(734.98266 -469.36178 -9.5803333)
(734.31331 -468.7519 -4.9754146)
(732.14171 -469.34143 0.33865143)
(859.94675 -475.53482 -15.449646)
(861.48384 -478.35247 -14.421539)
(863.7213 -481.32719 -13.550859)
(864.89523 -482.35934 -12.321122)
(865.3889 -484.44227 -11.203688)
(866.08433 -484.38043 -10.21264)
(865.47742 -484.81772 -9.3781859)
(993.90158 -483.57435 -3.3784638)
(993.58732 -486.21191 -5.4312011)
(994.66384 -489.10946 -7.6591579)
(994.89781 -490.44913 -9.3991842)
(995.83371 -492.62304 -11.350947)
(997.13433 -492.3204 -13.472916)
(998.60971 -493.40937 -15.843489)
(1125.4585 -486.37087 7.7679097)
(1123.5719 -488.5801 3.2243835)
(1122.867 -491.32508 -1.4669998)
(1122.8704 -492.89886 -5.4568293)
(1123.462 -494.85954 -10.27533)
(1125.6773 -495.03309 -14.223314)
(1128.0489 -496.49838 -19.606039)
(1252.963 -484.91659 17.26959)
(1249.4548 -486.68682 10.840964)
(1247.9638 -489.70888 4.5992139)
(1247.1775 -491.1142 -1.3682807)
(1247.8247 -493.29127 -7.564708)
(1250.0638 -493.70355 -13.281793)
(1253.087 -495.39184 -20.348128)
(1375.2856 -480.89113 24.841837)
(1371.0685 -482.58539 17.408717)
(1368.4129 -485.38027 10.067294)
(1367.2026 -486.89789 3.1706047)
(1367.5281 -489.0136 -4.2262611)
(1369.6475 -489.78199 -10.718352)
(1372.8685 -491.47606 -18.825942)
(1492.6747 -475.53766 30.537403)
(1487.6606 -476.92506 22.480589)
(1484.5288 -479.77812 14.840121)
(1482.7582 -481.37687 7.2642948)
(1482.9071 -483.50388 -0.47923786)
(1484.6011 -484.63257 -7.3821518)
(1487.7226 -486.21078 -15.82921)
(1605.1357 -469.80759 34.294521)
(1599.9729 -471.17195 26.299805)
(1596.3028 -473.86792 18.548987)
(1594.242 -475.60947 10.865381)
(1594.1387 -477.67164 3.0339633)
(1595.3711 -479.25588 -3.9505093)
(1598.3401 -480.66636 -12.297586)
(1713.6093 -464.31188 36.620421)
(1708.2978 -465.64378 28.808201)
(1704.4795 -468.25962 21.23181)
(1702.1998 -470.16383 13.564508)
(1701.9564 -472.24664 5.9319861)
(1702.8277 -474.2314 -1.0261723)
(1705.5877 -475.42968 -9.0545633)
(1818.6284 -459.41277 37.815481)
(1813.4975 -460.7887 30.344636)
(1809.5447 -463.21876 22.9462)
(1807.2523 -465.26874 15.427597)
(1806.9229 -467.33543 7.9494944)
(1807.6112 -469.65776 1.0321699)
(1810.3112 -470.81567 -6.7377984)
(1920.9634 -454.93743 38.383575)
(1915.944 -456.3581 31.177669)
(1912.033 -458.6187 23.943062)
(1909.8339 -460.85613 16.505607)
(1909.4982 -462.93345 9.1305126)
(1910.2686 -465.48957 2.1260928)
(1913.0113 -466.67835 -5.5494834)
(2020.7746 -450.81009 38.660489)
(2015.9557 -452.32856 31.654279)
(2012.1017 -454.4592 24.472963)
(2010.1304 -456.62678 17.038554)
(2009.8414 -458.5719 9.592712)
(2010.8566 -461.25781 2.5304883)
(2013.7689 -462.66286 -5.3457321)
(2118.256 -446.9053 39.061852)
(2113.4816 -448.22416 32.097283)
(2109.8439 -450.08972 24.828402)
(2108.0043 -452.12168 17.404188)
(2107.6845 -454.31841 9.86653)
(2109.1832 -456.91665 2.5063145)
(2112.219 -458.62225 -5.6897858)
(2213.0109 -442.65602 39.746049)
(2208.3009 -443.99311 32.497716)
(2204.8544 -445.74962 25.41814)
(2202.8756 -447.64495 17.795969)
(2203.0645 -449.65977 10.044451)
(2204.6357 -451.94052 2.650448)
(2208.0271 -453.82212 -5.8417101)
(2304.8536 -438.57021 40.268185)
(2300.1838 -439.75491 33.060081)
(2296.7316 -441.11133 26.191206)
(2295.1353 -442.94807 17.91496)
(2295.2245 -444.82415 11.111791)
(2296.8042 -446.73145 3.2212299)
(2300.2134 -448.95639 -5.1443309)
(2393.3671 -434.61946 40.710167)
(2388.6589 -435.54118 33.886808)
(2385.4158 -436.621 26.766127)
(2383.4183 -438.18032 19.321581)
(2383.6638 -439.79628 12.095117)
(2385.118 -441.54548 4.1552302)
(2388.7939 -443.56743 -3.6553395)
(2478.0549 -431.20995 40.59296)
(2473.8064 -431.5607 34.070105)
(2470.2125 -432.67524 27.254052)
(2468.8208 -433.97028 20.413731)
(2468.472 -435.515 13.25928)
(2470.0718 -436.84165 6.3029343)
(2473.1304 -438.58422 -1.4236577)
(2559.497 -428.67698 39.752943)
(2555.3398 -428.96006 33.595456)
(2552.2794 -429.7413 27.776517)
(2550.4682 -430.93083 21.194758)
(2550.2692 -432.00874 14.993732)
(2551.3269 -433.22639 8.5983722)
(2553.8001 -434.45616 1.6033613)
(2637.7794 -427.71864 37.776024)
(2634.2616 -427.60577 32.647137)
(2631.1987 -428.31481 27.450091)
(2629.5559 -429.1682 21.75324)
(2629.064 -430.11619 16.363395)
(2629.5768 -430.98857 10.85975)
(2631.4535 -431.8241 4.8498106)
(2713.7618 -428.30213 34.987634)
(2710.7211 -428.06238 30.74377)
(2708.0563 -428.57471 26.500502)
(2706.3881 -429.29202 21.701835)
(2705.7166 -429.99082 17.267098)
(2705.752 -430.75772 12.674082)
(2706.9121 -430.98436 7.837119)
(2788.0971 -430.76222 31.400744)
(2785.6763 -430.41918 28.184542)
(2783.3173 -430.73932 24.836991)
(2781.7319 -431.27523 20.933316)
(2780.9517 -431.8421 17.357173)
(2780.4973 -432.43239 13.661342)
(2781.0642 -432.16336 9.9091028)
(2861.5109 -434.92444 27.429987)
(2859.5855 -434.48956 25.103462)
(2857.6434 -434.61135 22.507431)
(2856.2113 -435.01426 19.378531)
(2855.3607 -435.39413 16.606253)
(2854.5706 -435.89876 13.608584)
(2854.6913 -435.22669 10.792303)
(2934.4253 -440.48506 23.470484)
(2932.9235 -439.9968 21.788054)
(2931.365 -439.87526 19.796669)
(2930.0836 -440.10041 17.269005)
(2929.2194 -440.36661 15.099516)
(2928.2632 -440.7709 12.577726)
(2928.1199 -439.82562 10.384254)
(3006.9671 -447.07929 19.831571)
(3005.7598 -446.46738 18.55899)
(3004.5363 -446.04454 16.939694)
(3003.4386 -446.09835 14.835346)
(3002.6231 -446.25138 13.102895)
(3001.6633 -446.49921 10.76133)
(3001.3531 -445.58722 8.9398028)
(3078.9386 -454.20425 16.648338)
(3077.8836 -453.43679 15.558599)
(3076.8889 -452.74715 14.168937)
(3075.9929 -452.65881 12.34248)
(3075.2148 -452.62949 10.730604)
(3074.0247 -452.49203 8.6725743)
(3074.0278 -451.76412 6.9549135)
(3150.1005 -461.62963 13.88405)
(3148.9081 -460.61962 13.08892)
(3148.0588 -459.61592 11.535326)
(3147.4282 -459.26869 10.176536)
(3146.4475 -459.031 8.617768)
(3145.4873 -459.25953 6.8430438)
(3145.4508 -458.31417 5.2710797)
(3218.6818 -469.46115 11.678189)
(3218.3184 -467.79791 10.66744)
(3217.7038 -466.70781 9.5601605)
(3216.9017 -466.15195 8.2149235)
(3216.2747 -465.66446 7.248932)
(3215.9868 -465.3565 5.3126753)
(3214.6897 -464.90066 3.2805704)
(3286.3911 -477.10374 9.1976676)
(3285.7666 -475.29442 8.2650192)
(3285.0988 -473.93731 7.4178264)
(3284.5448 -473.1562 6.6511853)
(3283.5236 -472.44832 5.7783226)
(3282.7546 -471.79182 4.540352)
(3282.1135 -471.29244 3.0369)
(3351.524 -485.27648 6.4312709)
(3350.9721 -483.23238 5.8644541)
(3350.4827 -481.79586 5.644586)
(3349.7769 -480.73507 5.2206526)
(3348.7289 -479.74966 5.1572713)
(3347.7473 -478.74521 4.5033335)
(3346.3716 -478.19728 3.137954)
(3414.4613 -494.20317 3.059693)
(3414.2738 -491.99899 3.1329787)
(3413.8346 -490.42805 3.3735479)
(3413.1768 -489.15938 3.9146107)
(3411.9391 -487.93488 4.3724663)
(3410.4834 -486.66459 4.4730112)
(3408.821 -485.58942 3.9110314)
(3475.7301 -504.06582 -0.73469249)
(3475.916 -501.91002 -0.07269418)
(3475.6107 -500.3389 0.93768773)
(3474.9306 -498.84875 2.1697385)
(3473.4668 -497.42665 3.3755595)
(3471.726 -495.76559 4.3776793)
(3469.5148 -494.18624 4.5809554)
(3536.0448 -514.97843 -4.8402046)
(3536.5453 -512.88038 -3.560086)
(3536.4198 -511.2242 -1.9810326)
(3535.7241 -509.66932 0.047893633)
(3534.1899 -508.02899 1.8830213)
(3532.054 -506.16025 3.5366637)
(3529.4424 -503.99962 4.5416367)
(3595.8773 -526.78281 -8.8320426)
(3596.611 -524.93746 -7.2234954)
(3596.6579 -523.38682 -5.1158249)
(3595.9959 -521.73313 -2.639987)
(3594.4052 -519.90568 -0.38432261)
(3592.0321 -517.81972 1.7977726)
(3589.2234 -515.08865 3.3640438)
(3655.6222 -538.98101 -12.350137)
(3656.4534 -537.35088 -10.602691)
(3656.6618 -535.77949 -8.3405104)
(3656.0767 -534.13332 -5.7351934)
(3654.4802 -532.2483 -3.1739551)
(3652.0606 -529.96356 -0.90805125)
(3649.2271 -526.86192 0.81290476)
(3715.2258 -551.12175 -15.128385)
(3715.9859 -549.7271 -13.635088)
(3716.3665 -548.38436 -11.558061)
(3715.8452 -546.84942 -8.9383676)
(3714.3786 -544.87458 -6.4537608)