/*--------------------------------*- C++ -*----------------------------------*\
  =========                 |
  \\      /  F ield         | OpenFOAM: The Open Source CFD Toolbox
   \\    /   O peration     | Website:  https://openfoam.org
    \\  /    A nd           | Version:  6
     \\/     M anipulation  |
\*---------------------------------------------------------------------------*/
FoamFile
{
    version     2.0;
    format      ascii;
    class       pointVectorField;
    location    "1.62";
    object      u;
}
// * * * * * * * * * * * * * * * * * * * * * * * * * * * * * * * * * * * * * //

dimensions      [0 1 0 0 0 0 0];

internalField   nonuniform List<vector> 
28033
(
(0 0 0)
(0 0 0)
(0.1568269 0.029130836 0.0053035941)
(0.15499425 -0.030683376 0.0038783073)
(0 0 0)
(0 0 0)
(0.15611067 -0.031743951 0.0040348087)
(0.15796945 0.028009196 0.0050459654)
(0 0 0)
(0 0 0)
(0 0 0)
(0 0 0)
(0 0 0)
(0 0 0)
(0 0 0)
(0 0 0)
(0 0 0)
(0 0 0)
(0 0 0)
(0 0 0)
(0 0 0)
(0 0 0)
(0 0 0)
(0.1566149 0.024798403 0.004948159)
(0.15630506 0.020893344 0.0048532728)
(0.15600174 0.017128343 0.0047186808)
(0.15577238 0.013445649 0.004665526)
(0.15555828 0.0098472759 0.0046168508)
(0.15537175 0.0063001456 0.0045932091)
(0.15522579 0.0027893554 0.0045829257)
(0.15510871 -0.00070757915 0.0045840111)
(0.15502389 -0.0042027521 0.0045764669)
(0.15496508 -0.0077305917 0.0045736817)
(0.15493809 -0.011281066 0.0045446934)
(0.15492457 -0.01491034 0.0044892327)
(0.15495555 -0.018596317 0.0044177512)
(0.15495685 -0.022413781 0.0043212033)
(0.15503923 -0.026364762 0.0041394978)
(0.00035102219 0.00057725177 0.00058399445)
(0.00044478213 0.00084825668 0.000812633)
(0.00056981526 0.001163979 0.00095950561)
(0.00078307241 0.0014388892 0.0010475925)
(0.00098446759 0.0017706656 0.0010892245)
(0.0012841477 0.0020450867 0.0011164614)
(0.0015882681 0.0023872443 0.0011091974)
(0.0019718649 0.0026487039 0.0010999962)
(0.0023640771 0.0029887308 0.0010718842)
(0.0028316598 0.0032483454 0.0010475817)
(0.0033001433 0.0035602119 0.0010056634)
(0.0038311326 0.0038161395 0.00097380245)
(0.0043699152 0.0041098752 0.00093550512)
(0.0049676328 0.004356726 0.00089801693)
(0.0055586905 0.0046218704 0.00086925546)
(0.0062031727 0.0048542545 0.00083143029)
(0.0068501073 0.0051095047 0.00081268584)
(0.0075353467 0.0053226016 0.00078812292)
(0.0082195992 0.0055549177 0.00077760933)
(0.0089425996 0.0057601941 0.00076212782)
(0.0096625526 0.005975136 0.00076730256)
(0.010412341 0.006164135 0.00076344548)
(0.011168439 0.0063686884 0.00077780117)
(0.011941182 0.0065473756 0.00079265578)
(0.012726839 0.0067358164 0.00081304067)
(0.013526969 0.0069081807 0.00083961687)
(0.014337511 0.0070874789 0.00086963792)
(0.01516101 0.0072528771 0.00090650385)
(0.016002124 0.0074252562 0.00094193359)
(0.01685021 0.0075868157 0.00098484166)
(0.017715024 0.0077559158 0.0010294054)
(0.018592865 0.0079159465 0.0010740068)
(0.019482636 0.0080851685 0.0011257335)
(0.020386825 0.0082465577 0.0011753751)
(0.021303236 0.0084171529 0.0012327694)
(0.022233881 0.0085857434 0.0012866021)
(0.023177372 0.0087599526 0.00134898)
(0.024136263 0.0089392826 0.0014147445)
(0.025106822 0.0091192512 0.0014798949)
(0.026094966 0.0093104553 0.0015530691)
(0.027094767 0.0095026758 0.0016301665)
(0.028110758 0.0097064105 0.001713135)
(0.029144273 0.0099143042 0.0017995251)
(0.030195259 0.010134605 0.0018939427)
(0.031263797 0.010358615 0.0019921332)
(0.032354121 0.010595536 0.0020969871)
(0.033462955 0.010839848 0.0022077354)
(0.034597897 0.011094426 0.002323316)
(0.035753406 0.01135935 0.002445257)
(0.036938596 0.011633976 0.0025717784)
(0.03814802 0.011920236 0.0027035908)
(0.039389802 0.012215689 0.0028399637)
(0.040660386 0.012524776 0.002980751)
(0.041965881 0.012842074 0.0031255962)
(0.043305029 0.013174772 0.003273894)
(0.044682013 0.013516078 0.0034259386)
(0.046097462 0.013872858 0.0035803255)
(0.04755476 0.014240222 0.003737674)
(0.049055134 0.014622959 0.0038965872)
(0.050602409 0.015017251 0.0040573732)
(0.052198126 0.01542794 0.0042184179)
(0.053846698 0.015851054 0.0043801213)
(0.055549041 0.016290709 0.0045409864)
(0.057312739 0.016742268 0.0046999568)
(0.059135465 0.017213051 0.0048576236)
(0.061026793 0.017693649 0.0050103482)
(0.062987438 0.018190048 0.0051588786)
(0.065020286 0.018699689 0.0053034592)
(0.067132265 0.019221055 0.0054397182)
(0.069324304 0.019754622 0.0055700321)
(0.071603277 0.020297756 0.0056893298)
(0.073968077 0.020843475 0.0058031961)
(0.07642651 0.021405437 0.0059008431)
(0.078977504 0.021951941 0.0059945873)
(0.081624654 0.022527072 0.0060661504)
(0.084372282 0.023060079 0.0061387831)
(0.087211666 0.023637519 0.0061820849)
(0.09016112 0.024146627 0.0062313174)
(0.093192912 0.024708381 0.0062473985)
(0.096340434 0.025188481 0.0062721543)
(0.099564673 0.025710624 0.0062613416)
(0.10289483 0.026156857 0.0062641075)
(0.10630651 0.026620704 0.0062295239)
(0.10980187 0.02702054 0.0062104789)
(0.11338297 0.027414358 0.0061596695)
(0.11703174 0.027761887 0.0061159159)
(0.12076016 0.028064024 0.0060545636)
(0.1245362 0.028343483 0.0059979949)
(0.1283833 0.028566541 0.0059201279)
(0.13226139 0.02876873 0.0058562888)
(0.13620037 0.028882601 0.0057929785)
(0.14015469 0.029065409 0.005692859)
(0.14415628 0.029073622 0.0056785746)
(0.1482149 0.029185409 0.005580364)
(0.15225821 0.029248061 0.0055721852)
(0.00016560096 -0.0005128228 -0.00065356762)
(0.0003349259 -0.00075050077 -0.0007234599)
(0.00046791289 -0.0010317266 -0.00092646518)
(0.00062308077 -0.0012945258 -0.00098076437)
(0.00084229978 -0.0015521745 -0.0010589212)
(0.001118142 -0.001852555 -0.0010700922)
(0.0014143495 -0.0020942753 -0.0011024362)
(0.0017811725 -0.0023819393 -0.0010848543)
(0.0021696715 -0.0026223853 -0.0010932299)
(0.0026073706 -0.0028838827 -0.0010657905)
(0.0030806503 -0.0031148203 -0.0010561677)
(0.0035805517 -0.0033478062 -0.0010285354)
(0.0041246299 -0.003565123 -0.0010037193)
(0.0046879576 -0.0037770208 -0.00097829626)
(0.0052860008 -0.0039685298 -0.00094710898)
(0.0059054066 -0.0041642918 -0.00091964448)
(0.0065497986 -0.0043286799 -0.00088617481)
(0.0072180104 -0.0045090833 -0.00085499721)
(0.0079032836 -0.0046552335 -0.00081976371)
(0.0086183647 -0.0048184444 -0.00078743902)
(0.0093371726 -0.0049481044 -0.00074693884)
(0.010088128 -0.0050998201 -0.00071632361)
(0.010834496 -0.0052121484 -0.00067499138)
(0.011618388 -0.0053555028 -0.00064002908)
(0.012389183 -0.0054603796 -0.00060266619)
(0.01320846 -0.0055959745 -0.00056123502)
(0.014005839 -0.0056987292 -0.00053025949)
(0.014848191 -0.0058249127 -0.00048780821)
(0.015674793 -0.0059303548 -0.00045922422)
(0.016536482 -0.0060477039 -0.00042015954)
(0.017391589 -0.0061596626 -0.00039221805)
(0.018272669 -0.0062710327 -0.00035875379)
(0.019155348 -0.0063885342 -0.00033309827)
(0.0200552 -0.0064990246 -0.0003047817)
(0.020965726 -0.0066212404 -0.00028124274)
(0.021884764 -0.0067338398 -0.00026024953)
(0.022822793 -0.0068610493 -0.00023674404)
(0.023766783 -0.0069820576 -0.00021920396)
(0.024729811 -0.0071137333 -0.00020018027)
(0.025701364 -0.0072447303 -0.00018399379)
(0.026693379 -0.0073853667 -0.0001668063)
(0.027695425 -0.0075283067 -0.00015134527)
(0.028719988 -0.0076813929 -0.0001338437)
(0.029757895 -0.0078395782 -0.00011743255)
(0.030818827 -0.0080081572 -9.8546917e-05)
(0.031898496 -0.0081850869 -7.913013e-05)
(0.033001494 -0.0083725761 -5.7719865e-05)
(0.03412794 -0.0085711257 -3.4489852e-05)
(0.035280057 -0.0087816321 -9.3745387e-06)
(0.036458672 -0.0090044023 1.7704508e-05)
(0.03766623 -0.0092411966 4.6640582e-05)
(0.038903394 -0.0094917879 7.7089347e-05)
(0.040172192 -0.0097573577 0.00010888993)
(0.041474363 -0.010038825 0.00014160596)
(0.042810849 -0.010336487 0.00017463309)
(0.044183889 -0.010651003 0.00020767142)
(0.045595239 -0.01098379 0.00024008169)
(0.047046331 -0.011334275 0.0002713893)
(0.048539448 -0.01170401 0.00030094153)
(0.050077371 -0.012093338 0.00032890521)
(0.051661255 -0.012502169 0.00035402492)
(0.053295229 -0.012931718 0.00037728376)
(0.054981179 -0.01338151 0.0003975165)
(0.056722917 -0.01385236 0.00041596835)
(0.05852313 -0.014343092 0.00043165266)
(0.060386766 -0.014855693 0.00044679243)
(0.062315957 -0.01538642 0.00045986681)
(0.064315512 -0.01593808 0.0004737452)
(0.066388815 -0.016507405 0.00048647503)
(0.068539858 -0.017092552 0.00050511492)
(0.070775116 -0.017697059 0.00052387487)
(0.073091997 -0.018311315 0.00054723998)
(0.075501502 -0.018942017 0.00057701994)
(0.077997891 -0.019578116 0.00061123849)
(0.080593927 -0.020226676 0.00065699813)
(0.083280064 -0.020874962 0.00070649261)
(0.086068981 -0.021530782 0.00077155176)
(0.088951682 -0.02217982 0.00084144683)
(0.091936185 -0.022831167 0.00092775388)
(0.095015235 -0.023468718 0.0010213412)
(0.098192977 -0.024102484 0.0011305712)
(0.1014632 -0.024716552 0.0012488877)
(0.10482487 -0.025318902 0.0013813958)
(0.10827532 -0.025897281 0.0015239672)
(0.11180637 -0.026454894 0.001677766)
(0.11541884 -0.026986319 0.0018424255)
(0.11910058 -0.027487806 0.0020152262)
(0.12285085 -0.027959413 0.0021952923)
(0.12665897 -0.028400002 0.002384533)
(0.13052251 -0.028803219 0.0025747689)
(0.13442672 -0.029173871 0.0027701653)
(0.13838241 -0.029516137 0.0029655518)
(0.14236576 -0.02983074 0.0031713683)
(0.14642057 -0.030105231 0.003353734)
(0.15053983 -0.030430546 0.0035890479)
(0 0 0)
(0 0 0)
(0 0 0)
(0 0 0)
(0 0 0)
(0 0 0)
(0 0 0)
(0 0 0)
(0 0 0)
(0 0 0)
(0 0 0)
(0 0 0)
(0 0 0)
(0 0 0)
(0 0 0)
(0.00031277155 -0.00022509051 0.00047503732)
(0.00039562485 -0.00084447698 0.00070521923)
(0.00048729023 -0.00093066821 0.00078648641)
(0.00070393257 -0.0013303802 0.00089492564)
(0.00090876958 -0.0015360658 0.00091738761)
(0.0012178545 -0.0018579483 0.00090480419)
(0.0015310761 -0.0020964121 0.00090157407)
(0.0019234626 -0.0024043676 0.00085793627)
(0.0023333169 -0.0026392847 0.00082708846)
(0.0028008708 -0.002934543 0.00077181825)
(0.0032934111 -0.0031653864 0.00073144677)
(0.0038208432 -0.0034210426 0.00066635313)
(0.0043879483 -0.0036666054 0.00063263845)
(0.0049709669 -0.0038796108 0.00055712904)
(0.0056022846 -0.00413613 0.00053663972)
(0.0062298727 -0.0043160246 0.0004698869)
(0.0069106932 -0.0045566816 0.00045373092)
(0.0075789975 -0.0047182402 0.00039386484)
(0.0082957568 -0.0049457524 0.00038958524)
(0.0090104269 -0.0050974459 0.00034463808)
(0.0097430383 -0.0052948554 0.00034745765)
(0.010512758 -0.0054564909 0.00032179864)
(0.011259231 -0.0056154155 0.00032876047)
(0.012061238 -0.0057913283 0.00032702125)
(0.012830646 -0.005914151 0.00033384901)
(0.01366051 -0.0060996176 0.00034763664)
(0.014464934 -0.006210498 0.00036173466)
(0.01531262 -0.006384517 0.00038466098)
(0.016148965 -0.0064964239 0.00040536738)
(0.017018734 -0.006658279 0.0004357055)
(0.017878933 -0.0067716993 0.00046195284)
(0.018777668 -0.006929979 0.00049504398)
(0.019666695 -0.0070494945 0.00052888707)
(0.020589538 -0.0072031973 0.00056370985)
(0.021506678 -0.0073326499 0.00060658523)
(0.02245596 -0.0074829032 0.00064243479)
(0.023403433 -0.0076259402 0.00068980868)
(0.024374248 -0.0077827794 0.00073750935)
(0.025352677 -0.0079356833 0.00078931098)
(0.02635045 -0.0081027569 0.00084606005)
(0.027359134 -0.008269327 0.00090599831)
(0.028385945 -0.008449592 0.00097313421)
(0.02942705 -0.0086325198 0.0010429997)
(0.030486684 -0.0088285809 0.0011214723)
(0.03156282 -0.0090294007 0.0012024123)
(0.032660012 -0.0092441345 0.001292448)
(0.033776141 -0.0094647322 0.0013852512)
(0.034915534 -0.0096992947 0.0014864141)
(0.036077662 -0.0099418777 0.0015908662)
(0.037265219 -0.010197676 0.0017028708)
(0.038478875 -0.010463386 0.001818495)
(0.03972142 -0.010742247 0.0019401092)
(0.040993391 -0.011032458 0.002066017)
(0.042297282 -0.011335664 0.0021964169)
(0.043634777 -0.011652375 0.0023310796)
(0.045007524 -0.011981821 0.0024691501)
(0.046417782 -0.012326491 0.0026111544)
(0.047867732 -0.012685031 0.0027554902)
(0.049359339 -0.013059498 0.0029028981)
(0.050895639 -0.013449579 0.0030518347)
(0.052478773 -0.013856482 0.0032023656)
(0.054112245 -0.01428025 0.0033532958)
(0.055798655 -0.014721994 0.0035043501)
(0.057541902 -0.015181456 0.003654039)
(0.059345208 -0.015659547 0.0038019155)
(0.06121242 -0.016155905 0.003946893)
(0.063147937 -0.016672561 0.0040872692)
(0.065156072 -0.017202839 0.0042231445)
(0.067232549 -0.017751581 0.0043501138)
(0.069401683 -0.018324402 0.0044732233)
(0.071644483 -0.018905189 0.0045864901)
(0.073977454 -0.019503533 0.0046894012)
(0.076399697 -0.020114195 0.0047818414)
(0.078914895 -0.020736426 0.0048637074)
(0.08152454 -0.021366506 0.0049324371)
(0.084231767 -0.022004089 0.004989703)
(0.087035983 -0.022644422 0.0050330461)
(0.089939375 -0.023286173 0.0050643562)
(0.092940246 -0.023925716 0.0050817492)
(0.096038647 -0.024559324 0.0050874901)
(0.099232205 -0.025185055 0.0050794262)
(0.10251961 -0.025798031 0.0050611157)
(0.10589611 -0.026396038 0.0050300354)
(0.10936015 -0.026975231 0.0049901041)
(0.11290491 -0.027532037 0.0049394731)
(0.11652738 -0.028064867 0.004882464)
(0.12021943 -0.028567452 0.0048163978)
(0.12397817 -0.029043371 0.0047478395)
(0.12779189 -0.029481491 0.0046721651)
(0.13166103 -0.029892848 0.0045986462)
(0.13556841 -0.030260966 0.0045188831)
(0.13952653 -0.030609525 0.0044484164)
(0.143506 -0.030915311 0.0043672859)
(0.14757134 -0.031210396 0.0043001105)
(0.15164392 -0.031538542 0.0042006649)
(0.1562017 -0.027420496 0.0039399276)
(0.15612531 -0.023525307 0.0039099501)
(0.15608498 -0.01967183 0.0039601038)
(0.15607496 -0.01600606 0.0040150085)
(0.15607899 -0.0123702 0.0041346708)
(0.1561026 -0.0088262172 0.0042423234)
(0.15616056 -0.0053031566 0.0043958514)
(0.15623699 -0.0018029547 0.0045365484)
(0.15636822 0.0016823026 0.0046817034)
(0.15649608 0.0051961648 0.0048273456)
(0.15669105 0.0087375657 0.0049466915)
(0.15689482 0.012330615 0.0050534377)
(0.15714685 0.015998457 0.0051405513)
(0.15736885 0.019781164 0.0051801368)
(0.15776756 0.023641834 0.0051860299)
(0.15345357 0.02813739 0.0046691263)
(0.14931687 0.028016172 0.0044901611)
(0.14528306 0.027987381 0.0042803328)
(0.14127395 0.027909812 0.0040966354)
(0.13730316 0.027803581 0.0038880132)
(0.13336826 0.027657787 0.0036888229)
(0.12947616 0.027471832 0.0034910193)
(0.12562985 0.027246892 0.0032935115)
(0.12184181 0.026977309 0.0031063326)
(0.11811437 0.026672865 0.0029215012)
(0.11445699 0.026325725 0.0027493133)
(0.11087418 0.025946295 0.0025836628)
(0.10737112 0.025530521 0.0024300076)
(0.10395175 0.02508653 0.0022835145)
(0.10062259 0.02461328 0.0021507272)
(0.097386644 0.024116608 0.0020287082)
(0.094246552 0.023598377 0.0019198947)
(0.091202869 0.023061914 0.0018214688)
(0.088257298 0.022512117 0.0017341783)
(0.08541046 0.021949788 0.0016572949)
(0.082660768 0.021381707 0.0015897676)
(0.080008885 0.020807317 0.0015311229)
(0.077450887 0.020234057 0.0014797609)
(0.074986999 0.019660319 0.0014350258)
(0.072611876 0.019093296 0.0013964341)
(0.070324744 0.018531862 0.0013601098)
(0.068116044 0.017984246 0.001328265)
(0.066002833 0.017434895 0.0013037083)
(0.063950568 0.016915155 0.0012727792)
(0.061976414 0.016399481 0.0012445755)
(0.060069557 0.015902744 0.0012158082)
(0.058227432 0.015421869 0.0011856945)
(0.056445885 0.014958243 0.001153892)
(0.054721819 0.014511676 0.0011196843)
(0.05305164 0.014083155 0.0010831494)
(0.051432461 0.013671924 0.0010443498)
(0.049861295 0.013278541 0.0010028729)
(0.048335776 0.012902024 0.00095974539)
(0.046853383 0.012542924 0.00091450174)
(0.045412021 0.012199728 0.00086829699)
(0.044009659 0.011873199 0.00082082135)
(0.042644578 0.01156143 0.00077360118)
(0.041314766 0.011265396 0.00072574925)
(0.040018891 0.010982718 0.00067936068)
(0.038754964 0.010714894 0.00063304414)
(0.037521784 0.010458763 0.00058903067)
(0.036317358 0.010216583 0.00054554747)
(0.035140516 0.0099843768 0.00050484757)
(0.0339893 0.0097649739 0.00046478633)
(0.032862655 0.0095539463 0.00042763112)
(0.03175849 0.0093543464 0.00039084465)
(0.030675835 0.0091614504 0.00035657462)
(0.0296131 0.0089786509 0.00032246149)
(0.028569445 0.0088003251 0.00029008395)
(0.027541319 0.0086326482 0.00025603337)
(0.026531956 0.0084647787 0.00022560283)
(0.025535399 0.0083083517 0.00019040909)
(0.024556162 0.0081500825 0.00015947975)
(0.023587399 0.0080010305 0.00012248068)
(0.022634512 0.0078503642 8.8968949e-05)
(0.021692623 0.0077052987 5.0280771e-05)
(0.020764689 0.0075608921 1.2048339e-05)
(0.019846822 0.0074176617 -2.8119921e-05)
(0.018942039 0.007278648 -7.1157592e-05)
(0.018049947 0.0071345121 -0.00011308904)
(0.017168559 0.0069974423 -0.00016025618)
(0.016300266 0.0068520478 -0.00020395453)
(0.015443331 0.0067161774 -0.00025424691)
(0.014600008 0.0065663429 -0.00029894556)
(0.013767893 0.0064276704 -0.00035141487)
(0.01295066 0.0062764983 -0.0003986889)
(0.012146462 0.0061271083 -0.00044820282)
(0.011357478 0.005970206 -0.000497975)
(0.010581874 0.0058113532 -0.00054676432)
(0.0098217173 0.0056469486 -0.00059618903)
(0.0090830282 0.0054687616 -0.00064148251)
(0.00835312 0.0052964801 -0.00069453221)
(0.007654763 0.0050959806 -0.00073312703)
(0.0069628304 0.0049121105 -0.00078726243)
(0.006311036 0.0046852403 -0.00082391717)
(0.0056648062 0.0044936623 -0.00087537243)
(0.0050579467 0.0042347434 -0.00090324305)
(0.0044649491 0.004021044 -0.00095605714)
(0.0039225273 0.0037384456 -0.00098132108)
(0.0033896468 0.003512612 -0.0010320466)
(0.0029079678 0.0032116573 -0.0010484659)
(0.0024533185 0.0029555191 -0.001084268)
(0.0020404483 0.0026432125 -0.0010944391)
(0.001667316 0.0023665094 -0.0011107894)
(0.0013362011 0.0020567292 -0.0011034079)
(0.0010607858 0.0017516229 -0.0010769086)
(0.00082054621 0.0014439261 -0.0010260657)
(0.0006457483 0.0011575175 -0.00094106313)
(0.00048701843 0.00083898645 -0.00075381953)
(0.00052100195 0.00055156726 -0.00045564826)
(0 0 0)
(0 0 0)
(0 0 0)
(0 0 0)
(0 0 0)
(0 0 0)
(0 0 0)
(0 0 0)
(0 0 0)
(0 0 0)
(0 0 0)
(0 0 0)
(0 0 0)
(0 0 0)
(0 0 0)
(0 0 0)
(0 0 0)
(0 0 0)
(0 0 0)
(0 0 0)
(0 0 0)
(0 0 0)
(0 0 0)
(0 0 0)
(0 0 0)
(0 0 0)
(0 0 0)
(0 0 0)
(0 0 0)
(0 0 0)
(0.1551622 -0.030915439 0.0038652808)
(0.15527943 -0.031074583 0.0038560042)
(0.15537613 -0.031193099 0.0038491259)
(0.15547878 -0.031305359 0.0038563989)
(0.1555753 -0.031403263 0.0038695719)
(0.15566773 -0.031491612 0.0038967679)
(0.1557505 -0.031570848 0.0039241657)
(0.15582659 -0.0316425 0.003960596)
(0.15589477 -0.031708694 0.0039913961)
(0.15595137 -0.031766166 0.0040210069)
(0.1560135 -0.03182366 0.0040469687)
(0.15605082 -0.031853893 0.0040596013)
(0.15609828 -0.031888031 0.0040655865)
(0.15613325 -0.031891959 0.0040618908)
(0.15617795 -0.031896462 0.0040433146)
(0.15705248 0.02926862 0.005293772)
(0.15716441 0.02925132 0.0053183402)
(0.15726639 0.029236461 0.0053011116)
(0.15737845 0.02920998 0.0052875775)
(0.15746769 0.029160301 0.0052687483)
(0.15756069 0.02910656 0.0052333783)
(0.15764329 0.029049555 0.0052006725)
(0.15771844 0.02898203 0.0051601778)
(0.15778501 0.028911565 0.0051219772)
(0.1578421 0.028834457 0.00508834)
(0.15789386 0.028747196 0.0050577768)
(0.1579359 0.028653247 0.0050357685)
(0.15797952 0.028555228 0.0050383995)
(0.15801311 0.028407417 0.0050100532)
(0.15806208 0.028322422 0.0050349298)
(0.00019539141 0.00044245513 0.00060054384)
(0.00031027942 0.00070136644 0.00070461474)
(0.00044553756 0.00098605428 0.00084745778)
(0.00065092117 0.0012510761 0.00090563544)
(0.00085143914 0.0015150614 0.00096058986)
(0.0011476582 0.0017746774 0.00097573845)
(0.001461126 0.0020409992 0.00096840117)
(0.001838178 0.0023021225 0.00096823417)
(0.0022327258 0.0025592929 0.00094215378)
(0.0027007111 0.0028217706 0.00091530654)
(0.0031690978 0.0030614243 0.00088740728)
(0.0037075219 0.0033247442 0.00085658977)
(0.0042512219 0.0035480536 0.00082069475)
(0.0048442066 0.0037985681 0.00079341222)
(0.0054406961 0.0040094093 0.000762127)
(0.0060916095 0.0042507706 0.00073938897)
(0.0067421279 0.0044503925 0.00071488417)
(0.0074218751 0.0046665272 0.00070197882)
(0.0081193045 0.0048661481 0.00068646535)
(0.0088406775 0.0050644861 0.00068364567)
(0.0095649714 0.0052516402 0.00068175965)
(0.01031814 0.0054358104 0.00069049841)
(0.01107789 0.0056160602 0.00069852537)
(0.011851019 0.0057851253 0.00071690533)
(0.012641044 0.005957836 0.00073660844)
(0.013439533 0.0061179812 0.00076585319)
(0.014254738 0.0062822998 0.00079312291)
(0.015079593 0.0064352729 0.00082970946)
(0.015919519 0.0065929977 0.00086496432)
(0.01676951 0.0067444604 0.00090794027)
(0.017634462 0.0068955196 0.00094859658)
(0.018512136 0.0070472903 0.0009954116)
(0.019401255 0.0071986914 0.0010426449)
(0.020303498 0.0073494003 0.0010939478)
(0.021219604 0.0075066 0.0011448041)
(0.022147781 0.0076598821 0.0012023964)
(0.023090985 0.0078221027 0.0012608374)
(0.024044583 0.0079853198 0.0013195214)
(0.025014756 0.0081535332 0.0013879087)
(0.025997487 0.0083282069 0.0014564843)
(0.026996376 0.0085079991 0.001530818)
(0.02800996 0.0086901335 0.0016088624)
(0.029038898 0.0088867625 0.0016930711)
(0.0300875 0.0090827437 0.0017808545)
(0.031151222 0.0092907603 0.0018748096)
(0.032236959 0.0095053032 0.0019747041)
(0.033342698 0.009727228 0.0020780483)
(0.034471166 0.0099582103 0.0021890381)
(0.035623642 0.01019745 0.0023031085)
(0.036802293 0.010444987 0.0024235311)
(0.038007819 0.010702323 0.0025474907)
(0.039243182 0.010967696 0.002677117)
(0.040508977 0.011243654 0.0028094529)
(0.041808153 0.011527943 0.0029469589)
(0.043141591 0.011823684 0.0030866408)
(0.044512113 0.012127705 0.0032305194)
(0.045921168 0.012444197 0.003376025)
(0.047371551 0.01276964 0.0035245811)
(0.048864926 0.0131073 0.003674238)
(0.050404737 0.013455271 0.0038256054)
(0.051993039 0.013815533 0.0039769288)
(0.053633097 0.014186465 0.0041288995)
(0.055328118 0.014569381 0.0042795498)
(0.057082227 0.014962824 0.0044291684)
(0.058896386 0.015370609 0.0045749927)
(0.060779688 0.015783274 0.0047198947)
(0.062732807 0.016212898 0.004859647)
(0.064756648 0.016647298 0.0049943408)
(0.06686012 0.017093147 0.0051256481)
(0.069044131 0.017544172 0.0052461396)
(0.0713158 0.018004101 0.0053588139)
(0.073672513 0.018465215 0.0054649197)
(0.076126084 0.018934227 0.00555891)
(0.078669581 0.019395898 0.0056459615)
(0.081314071 0.019868314 0.0057188817)
(0.084055224 0.020318872 0.0057858059)
(0.086894689 0.020787616 0.0058345179)
(0.089838605 0.021215359 0.0058819528)
(0.092873535 0.021669294 0.0059053322)
(0.096018431 0.022068409 0.0059322287)
(0.099245045 0.022485114 0.0059347476)
(0.1025805 0.022856815 0.0059376667)
(0.10599444 0.023219787 0.0059218138)
(0.10949768 0.023547138 0.0059053784)
(0.11308148 0.023859416 0.0058697276)
(0.11674374 0.02412652 0.0058393782)
(0.12047875 0.024371261 0.0057949627)
(0.1242692 0.024583374 0.0057443217)
(0.12812382 0.024762633 0.0056922888)
(0.13201952 0.02488358 0.0056469165)
(0.13596203 0.025021338 0.0055640972)
(0.1399339 0.025071911 0.0055257473)
(0.14395423 0.025068754 0.0054467514)
(0.14800562 0.025122911 0.0053469919)
(0.15215041 0.024927167 0.0052322026)
(5.7724148e-05 0.00037859684 0.00052539324)
(0.00017593697 0.00052784469 0.00061832127)
(0.00035659439 0.00081583969 0.0007239421)
(0.00052390894 0.0010090803 0.00079858219)
(0.00075555064 0.001265578 0.00081934604)
(0.0010504642 0.0014779579 0.00082811338)
(0.0013552603 0.0017221026 0.00083520592)
(0.0017286724 0.0019326391 0.00082332098)
(0.0021435589 0.0021806797 0.00079596673)
(0.0025925629 0.002376199 0.0007863668)
(0.0030782423 0.0026169886 0.00075429705)
(0.0036105332 0.002816102 0.00072155153)
(0.0041578796 0.0030391421 0.00070419992)
(0.0047449227 0.0032317098 0.00067124823)
(0.0053593011 0.0034445855 0.00065473583)
(0.0060045753 0.0036314846 0.00061992703)
(0.0066492829 0.0038275796 0.00061931898)
(0.0073448698 0.0040077496 0.00059371943)
(0.008039446 0.0041964545 0.0005932202)
(0.0087579974 0.004358984 0.00058499304)
(0.0094888579 0.0045409445 0.00059338216)
(0.01024373 0.0046957031 0.00059194213)
(0.010998267 0.0048659678 0.00061128289)
(0.011779774 0.0050122266 0.00062610483)
(0.012566974 0.0051718046 0.00065061868)
(0.013370835 0.0053126487 0.00067375673)
(0.014183211 0.0054633391 0.00070684674)
(0.015010766 0.005597166 0.00074058052)
(0.015850877 0.005744191 0.00077640079)
(0.016701351 0.0058733343 0.00081697261)
(0.017566243 0.0060151899 0.00085932498)
(0.01844396 0.0061468078 0.0009022667)
(0.019330033 0.0062849088 0.00095126073)
(0.020235782 0.0064205504 0.00099766886)
(0.021147493 0.0065582771 0.0010514688)
(0.022076184 0.0066989655 0.0011034986)
(0.02301656 0.0068428998 0.0011586581)
(0.02397056 0.0069889153 0.0012203497)
(0.024936011 0.0071390282 0.0012824894)
(0.025917701 0.0072968258 0.0013478888)
(0.026909863 0.0074545544 0.0014193019)
(0.027920359 0.007623128 0.001495658)
(0.028948713 0.0077938326 0.0015709374)
(0.029989318 0.0079714515 0.0016584862)
(0.031051139 0.008157553 0.0017458467)
(0.03213265 0.0083472199 0.0018404074)
(0.033233196 0.0085456113 0.001939729)
(0.034358176 0.0087500555 0.0020439841)
(0.035505871 0.0089621423 0.0021524266)
(0.036679986 0.0091804802 0.0022664644)
(0.037880643 0.0094079809 0.0023841104)
(0.03911137 0.0096403851 0.0025064639)
(0.040371727 0.0098836147 0.0026321575)
(0.041666027 0.010131581 0.0027619294)
(0.042993602 0.010390452 0.0028943318)
(0.044358842 0.010654873 0.0030301658)
(0.045761783 0.010930567 0.0031675658)
(0.047206263 0.011211724 0.0033079988)
(0.048693224 0.011504804 0.0034488795)
(0.050226999 0.011804054 0.0035915287)
(0.051808065 0.012114431 0.0037341104)
(0.053441942 0.012432123 0.0038769567)
(0.055130198 0.012759853 0.0040187702)
(0.056876286 0.013095786 0.0041586438)
(0.058685558 0.013442661 0.0042965197)
(0.060561217 0.01379201 0.0044335465)
(0.062501195 0.014158711 0.0045602063)
(0.064517407 0.014523581 0.0046907213)
(0.066612843 0.014897359 0.0048081432)
(0.068791905 0.015272984 0.004923497)
(0.071056674 0.015659253 0.0050287617)
(0.073409317 0.01603936 0.0051318239)
(0.075856335 0.016431744 0.0052190724)
(0.078396166 0.016806801 0.005307966)
(0.08103697 0.017202704 0.0053731532)
(0.083773677 0.017562818 0.0054475443)
(0.086613314 0.017955906 0.0054886833)
(0.08955284 0.018292403 0.0055482809)
(0.092591543 0.01867417 0.0055645824)
(0.095732298 0.018979106 0.005610447)
(0.09896692 0.019334665 0.0056043075)
(0.10230011 0.019614532 0.0056294272)
(0.10572142 0.019914653 0.0056173144)
(0.10923412 0.020163372 0.0056097787)
(0.11283346 0.020418853 0.0055839509)
(0.1164985 0.020617519 0.0055709906)
(0.12024411 0.020813241 0.0055317486)
(0.12403843 0.020964396 0.0055039919)
(0.12791504 0.021071582 0.005466936)
(0.13180967 0.021184235 0.0054072986)
(0.13578278 0.021221345 0.0053675976)
(0.13976022 0.021223704 0.0053063126)
(0.14380822 0.021217545 0.0052224769)
(0.14788046 0.021123367 0.0051371025)
(0.15205777 0.02098673 0.0050196829)
(-1.7910606e-05 0.00030511424 0.00045413019)
(8.3256597e-05 0.00044220738 0.00053280234)
(0.00019645738 0.00063491942 0.00065888994)
(0.00039754939 0.00083793999 0.00068160899)
(0.00063814945 0.0010375076 0.00069968607)
(0.00091448133 0.0012288609 0.00072279042)
(0.0012275657 0.0014213586 0.00071290581)
(0.0016288409 0.001632842 0.00069307406)
(0.0020163282 0.0017954718 0.00069057122)
(0.0024822414 0.0020128414 0.00066387963)
(0.002966301 0.0021763173 0.00063474157)
(0.0035025506 0.0023828668 0.00062199324)
(0.0040429124 0.0025350087 0.00059379001)
(0.0046487602 0.0027411975 0.00057177016)
(0.0052534628 0.002891673 0.0005463831)
(0.0058924005 0.0030765831 0.00054134725)
(0.0065549991 0.0032300529 0.000518753)
(0.0072455568 0.0034027885 0.00051098011)
(0.0079348904 0.0035505908 0.00050664367)
(0.0086646693 0.0037096122 0.00050907529)
(0.0093968774 0.0038597808 0.0005068034)
(0.010148426 0.0039991676 0.00052431008)
(0.01091284 0.0041474238 0.00053387998)
(0.01169382 0.0042748733 0.00055576518)
(0.012482786 0.0044196519 0.00057305086)
(0.01328608 0.0045383496 0.00060680192)
(0.014103253 0.0046741023 0.00063251409)
(0.014931154 0.0047918774 0.00066757815)
(0.015770658 0.0049193808 0.00070261833)
(0.016622623 0.0050343594 0.00074443418)
(0.017489217 0.0051592785 0.00078103096)
(0.018361664 0.0052731197 0.00082903074)
(0.019254869 0.0053962038 0.00087083741)
(0.020152825 0.0055121538 0.00091985251)
(0.021065893 0.0056363855 0.00096854471)
(0.021992258 0.0057585495 0.0010192228)
(0.022929432 0.0058844963 0.0010759853)
(0.023876813 0.0060134237 0.0011322028)
(0.024845381 0.0061473398 0.0011916714)
(0.025821522 0.0062807663 0.0012548948)
(0.026815699 0.0064232917 0.0013225213)
(0.027823051 0.0065687092 0.001389314)
(0.028845502 0.0067183844 0.0014690075)
(0.029885983 0.0068747034 0.0015471874)
(0.030946076 0.0070349855 0.0016299544)
(0.032022693 0.0072004837 0.0017204369)
(0.033122227 0.0073728717 0.001812061)
(0.034243108 0.0075495308 0.001910622)
(0.035388168 0.0077328026 0.0020122468)
(0.036558328 0.0079211336 0.0021198208)
(0.037756343 0.0081161393 0.0022293779)
(0.038982498 0.0083157883 0.0023454212)
(0.040239962 0.0085233931 0.0024623791)
(0.041529561 0.0087346369 0.0025852071)
(0.042853581 0.0089548007 0.0027087848)
(0.044214212 0.0091788413 0.0028366528)
(0.045612831 0.009411479 0.0029653094)
(0.047052586 0.0096486585 0.0030971283)
(0.048535126 0.0098946999 0.0032284841)
(0.050063415 0.01014497 0.0033625508)
(0.051640135 0.01040421 0.0034950475)
(0.053268885 0.010668275 0.0036285285)
(0.054951617 0.010940061 0.0037601296)
(0.056693201 0.011217835 0.0038901366)
(0.058498575 0.01150168 0.0040191895)
(0.060363654 0.011788913 0.0041425417)
(0.062309216 0.012092982 0.0042660414)
(0.064325953 0.012388272 0.0043838756)
(0.066416662 0.012690044 0.004495878)
(0.068590315 0.012996428 0.0046042342)
(0.070850745 0.013303151 0.0047036283)
(0.073199221 0.013612774 0.0047985615)
(0.075643968 0.013919746 0.0048835844)
(0.078179169 0.01422799 0.0049630738)
(0.08081842 0.014531853 0.0050320994)
(0.083550683 0.014829289 0.0050974261)
(0.086391854 0.015125461 0.0051475272)
(0.089325851 0.015404379 0.0051988224)
(0.092368834 0.015685251 0.0052310408)
(0.095505215 0.015939291 0.0052675952)
(0.098743673 0.016201275 0.005280818)
(0.10207824 0.016414907 0.0053093824)
(0.10549796 0.016652512 0.0053023986)
(0.10902013 0.016828595 0.0053163892)