/*--------------------------------*- C++ -*----------------------------------*\
  =========                 |
  \\      /  F ield         | OpenFOAM: The Open Source CFD Toolbox
   \\    /   O peration     | Website:  https://openfoam.org
    \\  /    A nd           | Version:  6
     \\/     M anipulation  |
\*---------------------------------------------------------------------------*/
FoamFile
{
    version     2.0;
    format      ascii;
    class       pointVectorField;
    location    "1.73";
    object      lm;
}
// * * * * * * * * * * * * * * * * * * * * * * * * * * * * * * * * * * * * * //

dimensions      [1 -2 -1 0 0 0 0];

internalField   nonuniform List<vector> 
3969
(
(0 0 0)
(0 0 0)
(311.71901 198.66414 -161.36931)
(298.91088 -292.73253 -135.86765)
(0 0 0)
(0 0 0)
(275.85426 -252.16334 -136.98944)
(288.62341 238.26052 -161.49708)
(0 0 0)
(0 0 0)
(0 0 0)
(0 0 0)
(0 0 0)
(0 0 0)
(0 0 0)
(309.57658 136.41503 -158.57374)
(307.32068 74.928171 -155.84208)
(305.37554 14.176177 -152.37439)
(303.81062 -46.361832 -148.80797)
(302.56805 -106.88562 -145.14284)
(301.64564 -168.05643 -141.72831)
(300.744 -230.04399 -138.65394)
(-18.201143 -35.338156 -33.856537)
(-27.834528 -53.212519 -45.272801)
(-42.963409 -70.862642 -54.391603)
(-61.439671 -86.260243 -62.476692)
(-83.163522 -99.362873 -68.799628)
(-107.88914 -109.98831 -74.841194)
(-134.79525 -118.14251 -79.640235)
(-164.04588 -123.99483 -83.46233)
(-194.59467 -127.66896 -86.054702)
(-226.66097 -129.56858 -87.158731)
(-259.54113 -130.03335 -86.903511)
(-293.17751 -128.96505 -85.13478)
(-327.16864 -127.0754 -81.976683)
(-361.33261 -124.12837 -77.554125)
(-395.2716 -120.53767 -72.055381)
(-428.70072 -116.1655 -65.749205)
(-461.39188 -111.27228 -58.911204)
(-492.80174 -105.56122 -51.81623)
(-522.69111 -99.128239 -44.77626)
(-550.50346 -91.899717 -38.035693)
(-575.85306 -83.672633 -31.97457)
(-598.22106 -74.501387 -26.708694)
(-617.17896 -64.156384 -22.559501)
(-632.16789 -52.788808 -19.596476)
(-642.92566 -40.029773 -17.986293)
(-648.84402 -26.463974 -17.734548)
(-649.77777 -11.659275 -18.888697)
(-645.39303 4.033225 -21.358211)
(-635.53225 20.445161 -25.084868)
(-620.03669 37.451868 -29.928652)
(-598.94844 54.742581 -35.787201)
(-572.32696 72.101183 -42.477017)
(-540.30817 89.24157 -49.822214)
(-503.15774 105.92066 -57.713775)
(-461.24274 121.79948 -65.889576)
(-414.72584 136.76268 -74.308942)
(-364.35551 150.3623 -82.785158)
(-310.41053 162.67048 -91.314249)
(-253.47066 173.32121 -99.473139)
(-193.9502 182.42935 -107.69584)
(-132.59231 189.78349 -115.42961)
(-69.507206 195.23241 -123.07903)
(-5.9388913 199.45951 -130.22819)
(58.535769 201.47016 -137.16225)
(122.6577 202.45968 -143.60988)
(186.31416 202.27109 -149.82721)
(249.43077 200.87426 -155.48039)
(1.5280403 15.023319 22.760174)
(-17.368011 25.224807 12.703975)
(-32.83562 37.77715 10.488501)
(-54.418981 46.615732 0.080304487)
(-80.77897 58.139905 -8.1314306)
(-108.62642 67.582084 -17.517857)
(-138.89001 76.260275 -25.10469)
(-170.24726 84.508597 -32.00103)
(-202.51001 91.099659 -37.066895)
(-235.48134 97.27616 -40.687275)
(-268.34675 101.57586 -42.658254)
(-301.55635 105.17697 -43.028252)
(-334.27001 106.9377 -42.201623)
(-366.85427 107.4497 -40.171453)
(-398.71534 106.07832 -37.461181)
(-430.01068 103.06277 -34.141179)
(-460.32098 98.154331 -30.758805)
(-489.51663 91.366205 -27.470652)
(-517.26944 82.692764 -24.690081)
(-543.30386 72.13472 -22.565944)
(-567.1539 59.679193 -21.368768)
(-588.46178 45.613777 -21.174582)
(-606.76956 29.824928 -22.070829)
(-621.56879 12.625346 -24.058183)
(-632.54995 -5.7157924 -27.114577)
(-639.31838 -24.948418 -31.281976)
(-641.48523 -45.035923 -36.113591)
(-638.5824 -65.314127 -41.730869)
(-630.42002 -85.858204 -47.925282)
(-616.72451 -106.21036 -54.380407)
(-597.56243 -126.20291 -60.985787)
(-572.87297 -145.57637 -67.552819)
(-542.76509 -164.11997 -73.959798)
(-507.44756 -181.63855 -80.075741)
(-467.17333 -198.01036 -85.828249)
(-422.29334 -213.03772 -91.116706)
(-373.30912 -226.74142 -96.098271)
(-320.50027 -238.88601 -100.39461)
(-264.48267 -249.75406 -104.47165)
(-205.82665 -259.09607 -108.13149)
(-144.97306 -267.00666 -111.6022)
(-82.443895 -273.65299 -114.69829)
(-18.890821 -278.98398 -117.84381)
(45.280295 -283.29656 -120.90543)
(109.53743 -286.52002 -124.21632)
(173.42284 -289.07009 -127.74841)
(236.64763 -290.84816 -131.65193)
(0 0 0)
(0 0 0)
(0 0 0)
(0 0 0)
(0 0 0)
(0 0 0)
(0 0 0)
(-18.098071 19.536281 -26.9179)
(-35.230141 56.508899 -34.977416)
(-49.534191 55.191463 -37.361456)
(-74.099225 78.089874 -42.114888)
(-99.056568 86.049601 -45.869244)
(-126.77278 94.512446 -47.722281)
(-158.04816 101.16475 -49.903763)
(-189.45514 103.90542 -50.954425)
(-223.89213 106.20566 -50.558312)
(-257.81959 105.4144 -49.501937)
(-293.68934 104.2037 -46.943061)
(-329.95473 101.20876 -42.812931)
(-365.92188 97.593901 -38.025414)
(-402.41407 93.373721 -31.805775)
(-437.95264 88.223182 -25.033993)
(-473.29754 83.171722 -17.602382)
(-507.28325 76.906368 -9.8155535)
(-540.07428 70.806213 -2.107517)
(-570.92133 63.671499 5.3565092)
(-599.59817 56.184772 12.246283)
(-625.53077 47.797075 18.259085)
(-648.28274 38.662164 23.230741)
(-667.43288 28.576032 26.910093)
(-682.40995 17.51594 29.21238)
(-692.902 5.4493387 29.903733)
(-697.92197 -7.7018792 28.833873)
(-698.01715 -21.670403 26.32146)
(-692.96002 -36.811067 22.741846)
(-682.2795 -52.464364 17.677255)
(-665.90918 -68.742444 11.459097)
(-643.90117 -85.349552 4.2093126)
(-616.31746 -102.10736 -3.9023343)
(-583.381 -118.70756 -12.69109)
(-545.31493 -135.04598 -21.973336)
(-502.50712 -150.72807 -31.556998)
(-455.03138 -165.99917 -41.37706)
(-404.26636 -179.29959 -50.969544)
(-349.41227 -192.7595 -60.87673)
(-291.79898 -204.21942 -70.232454)
(-231.83019 -214.57069 -79.445704)
(-169.81627 -223.44774 -88.278365)
(-106.53891 -231.02965 -96.650177)
(-42.332663 -237.14702 -104.59467)
(22.185329 -242.06866 -112.00978)
(86.630445 -245.71001 -118.93237)
(150.52292 -248.44109 -125.31324)
(213.49999 -250.27285 -131.17157)
(277.54769 -189.73937 -140.447)
(278.59656 -127.92489 -143.69659)
(279.18905 -66.849317 -146.59195)
(280.46829 -6.6817655 -149.02629)
(282.12305 53.685286 -151.69641)
(283.93839 114.54604 -154.42998)
(286.51588 175.84194 -157.83598)
(226.3941 240.31611 -157.71224)
(162.77834 241.91545 -153.97245)
(98.244446 242.59422 -151.00193)
(33.212415 242.13733 -148.36668)
(-32.138362 240.56179 -146.06282)
(-97.131495 237.43167 -143.92058)
(-161.25006 232.79911 -141.78598)
(-223.96358 226.42823 -139.57708)
(-284.65071 218.42204 -137.19526)
(-342.69517 208.59826 -134.3815)
(-397.98796 196.89427 -131.37398)
(-448.4869 183.33371 -127.61525)
(-496.19334 168.62518 -123.88825)
(-538.57143 151.9709 -119.43515)
(-576.15589 134.11196 -114.73435)
(-608.43585 115.057 -109.6402)
(-635.21241 95.0514 -104.36524)
(-656.41589 74.318605 -98.961413)
(-671.93954 53.253324 -93.695545)
(-681.93571 31.914223 -88.537085)
(-686.51131 10.91521 -83.893971)
(-685.82638 -9.7662812 -79.688547)
(-680.30088 -29.524973 -76.213416)
(-670.27048 -48.294972 -73.501643)
(-656.157 -65.738248 -71.723705)
(-638.33913 -81.575387 -70.823562)
(-617.30798 -95.713747 -70.792662)
(-593.47676 -107.86567 -71.616775)
(-567.25612 -118.03406 -73.038721)
(-539.00722 -126.11032 -74.940152)
(-509.08643 -132.01799 -77.071119)
(-477.78182 -135.90342 -79.093832)
(-445.23123 -137.53359 -80.6724)
(-411.82774 -137.84408 -81.50514)
(-377.62091 -135.63204 -81.54432)
(-342.77815 -131.60574 -79.942852)
(-307.54916 -126.52103 -76.877014)
(-272.23208 -119.44311 -72.464638)
(-236.51744 -111.80356 -65.386498)
(-202.00056 -102.34074 -57.348553)
(-167.39668 -92.099244 -47.543245)
(-133.70414 -80.598732 -35.663795)
(-102.81597 -68.422658 -23.5032)
(-72.758339 -56.196139 -10.214359)
(-47.290389 -43.33365 1.1718498)
(-25.749967 -28.310022 12.05073)
(-14.505691 -20.521319 14.243562)
(0 0 0)
(0 0 0)
(0 0 0)
(0 0 0)
(0 0 0)
(0 0 0)
(0 0 0)
(0 0 0)
(0 0 0)
(0 0 0)
(0 0 0)
(0 0 0)
(0 0 0)
(0 0 0)
(296.19117 -288.51175 -136.12936)
(293.60611 -284.06537 -136.41249)
(290.93961 -279.28687 -136.43903)
(288.08063 -274.33427 -136.46928)
(285.12854 -269.15755 -136.42617)
(281.96342 -263.68667 -136.42599)
(278.75582 -258.17379 -136.74811)
(309.30936 204.38958 -161.30887)
(306.7032 209.86009 -161.35904)
(304.09575 215.23351 -161.54253)
(301.38024 220.47077 -161.68817)
(298.46869 225.4216 -161.79457)
(295.40876 230.09147 -161.78075)
(292.13707 234.31072 -161.49701)
(-8.2964202 -24.12793 -33.023065)
(-21.755954 -37.533794 -36.435372)
(-36.581829 -52.763061 -47.056243)
(-56.172629 -65.025557 -53.71569)
(-78.523447 -75.043882 -60.663931)
(-104.43173 -83.263418 -66.544651)
(-132.27028 -89.215739 -71.617408)
(-162.40965 -93.560146 -75.667214)
(-193.79813 -95.947877 -78.400381)
(-226.52247 -97.121827 -79.821529)
(-259.94545 -96.842495 -79.88102)
(-294.08024 -95.722939 -78.468497)
(-328.29957 -93.747587 -75.811931)
(-362.79849 -91.186648 -71.877277)
(-396.91178 -88.204996 -67.029056)
(-430.55387 -84.685429 -61.436802)
(-463.42765 -80.927261 -55.356232)
(-495.09181 -76.671072 -49.05421)
(-525.21104 -72.118639 -42.834208)
(-553.33872 -67.09256 -36.954834)
(-579.03247 -61.553368 -31.703239)
(-601.77752 -55.430915 -27.272667)
(-621.13791 -48.645041 -23.879069)
(-636.57185 -41.089391 -21.631262)
(-647.77327 -32.820193 -20.643078)
(-654.19214 -23.776095 -20.851744)
(-655.5316 -13.882893 -22.430248)
(-651.5685 -3.3782463 -25.186208)
(-642.04449 7.8081529 -29.054836)
(-626.80959 19.444532 -33.947184)
(-605.93065 31.401244 -39.720267)
(-579.39983 43.546332 -46.196308)
(-547.40616 55.629489 -53.266883)
(-510.19579 67.50827 -60.752165)
(-468.08678 78.917038 -68.468192)
(-421.41527 89.746397 -76.412236)
(-370.75909 99.704374 -84.317705)
(-316.36258 108.79987 -92.16803)
(-259.00766 116.72005 -99.850959)
(-199.03123 123.58302 -107.39188)
(-137.16157 129.04095 -114.61031)
(-73.673979 133.49098 -121.67311)
(-9.5497522 136.48855 -128.31829)
(55.382384 138.42457 -134.78912)
(119.87978 139.34167 -140.94217)
(183.95263 139.30567 -146.86659)
(247.36156 138.15849 -152.6297)
(-0.82488904 -18.788438 -26.143181)
(-14.0306 -26.512933 -31.094922)
(-30.809755 -40.574408 -40.411452)
(-50.769315 -48.667357 -47.251719)
(-75.043908 -56.277095 -53.738277)
(-101.43806 -61.995989 -59.604631)
(-130.36595 -66.080891 -64.748164)
(-161.24668 -68.442745 -68.775263)
(-193.31654 -69.493751 -71.772321)
(-226.56369 -69.399513 -73.371173)
(-260.51065 -68.557328 -73.602445)
(-294.81518 -66.783007 -72.579402)
(-329.46958 -64.813219 -70.184219)
(-364.00605 -62.35463 -66.661335)
(-398.30206 -59.844485 -62.320572)
(-432.13358 -57.165778 -57.211713)
(-465.10925 -54.535259 -51.714283)
(-496.86298 -51.827965 -46.061843)
(-527.10398 -49.168814 -40.533848)
(-555.35226 -46.397068 -35.38047)
(-581.17313 -43.438747 -30.882003)
(-604.11656 -40.286273 -27.165122)
(-623.67504 -36.735792 -24.474528)
(-639.4802 -32.875346 -22.843209)
(-650.90697 -28.416017 -22.395876)
(-657.60842 -23.551366 -23.21831)
(-659.26567 -17.997169 -25.169282)
(-655.56971 -11.976116 -28.247429)
(-646.23648 -5.4348681 -32.357174)
(-631.26747 1.5590642 -37.348145)
(-610.54254 8.8895805 -43.096407)
(-584.1213 16.466779 -49.504187)
(-552.22057 24.16131 -56.356376)
(-514.99029 31.784485 -63.540374)
(-472.832 39.218083 -70.924725)
(-426.0445 46.35124 -78.414015)
(-375.19256 52.886765 -85.80034)
(-320.59537 58.995906 -93.218705)
(-263.06175 64.148733 -100.28637)
(-202.73706 68.73815 -107.32442)
(-140.6689 72.301027 -114.00368)
(-76.834266 75.108091 -120.4834)
(-12.407191 77.004597 -126.71724)
(52.687945 78.066195 -132.72652)
(117.49713 78.321395 -138.48327)
(181.72553 77.926307 -144.20753)
(245.56966 76.498758 -149.72793)
(2.2700049 -13.532975 -19.480966)
(-11.380898 -20.293568 -23.827219)
(-26.733363 -28.180349 -32.537691)
(-48.529798 -34.302138 -38.658761)
(-72.744607 -38.453059 -45.66949)
(-100.27565 -42.209595 -51.804019)
(-129.87911 -43.409735 -57.089375)
(-161.08837 -44.221869 -61.73496)
(-193.51476 -43.612846 -64.972587)
(-227.13524 -42.683766 -66.903437)
(-261.0791 -40.769799 -67.598143)
(-295.74413 -38.872906 -66.819564)
(-330.36858 -36.740214 -64.805356)
(-365.02909 -34.625613 -61.767468)
(-399.30809 -32.781463 -57.845872)
(-433.026 -31.062341 -53.288765)
(-465.87586 -29.693576 -48.405215)
(-497.56329 -28.667077 -43.315474)
(-527.7356 -27.919333 -38.455963)
(-555.96394 -27.421354 -33.928569)
(-581.83278 -27.072027 -30.109723)
(-604.83068 -26.858224 -27.050358)
(-624.57673 -26.615235 -24.978685)
(-640.3776 -26.171235 -24.006328)
(-651.97301 -25.587517 -24.185738)
(-658.86204 -24.617231 -25.444143)
(-660.77279 -23.349086 -27.768261)
(-657.23098 -21.654317 -31.227806)
(-648.23692 -19.509801 -35.514467)
(-633.50196 -16.96952 -40.601021)
(-612.98911 -14.069563 -46.391911)
(-586.81157 -10.826075 -52.666947)
(-555.06701 -7.364106 -59.3252)
(-517.98087 -3.798583 -66.225773)
(-475.93758 -0.11998398 -73.258543)
(-429.21448 3.3835076 -80.282271)
(-378.35849 6.77648 -87.237583)
(-323.78305 9.8593903 -94.091318)
(-266.09956 12.538084 -100.66957)
(-205.75969 14.915113 -107.20312)
(-143.46786 16.543187 -113.25285)
(-79.595372 17.935081 -119.3716)
(-14.958979 18.473182 -125.00762)
(50.28177 18.672466 -130.65837)
(115.35001 18.171552 -136.04)
(179.89781 17.261702 -141.4548)
(243.95579 15.710857 -146.7436)
(4.5621369 -8.200158 -12.852562)
(-8.0736504 -11.729942 -17.152975)
(-24.665754 -16.833888 -24.545905)
(-45.910436 -19.613802 -31.744897)
(-71.206701 -21.088635 -38.855562)
(-99.101464 -22.208208 -45.100556)
(-129.0195 -21.372351 -51.175134)
(-160.66167 -20.343379 -55.656516)
(-193.65723 -18.506372 -59.092549)
(-227.44904 -16.348635 -61.240665)
(-261.88695 -13.95535 -62.008058)
(-296.50366 -11.760873 -61.404656)
(-331.13257 -9.6334409 -59.777649)
(-365.69982 -7.8946075 -56.989606)
(-399.80882 -6.8117018 -53.413939)
(-433.43763 -5.9921759 -49.280194)
(-466.08371 -6.0747533 -44.73733)
(-497.64879 -6.5857497 -40.209386)
(-527.60003 -7.8445446 -35.827722)
(-555.74016 -9.5718857 -31.960398)
(-581.36734 -11.81734 -28.760605)
(-604.30697 -14.493405 -26.223882)
(-623.89211 -17.313306 -24.901571)
(-639.80428 -20.300089 -24.515994)
(-651.4549 -23.262721 -25.229646)
(-658.54853 -26.138664 -27.001702)
(-660.55972 -28.80222 -29.8749)
(-657.28883 -31.147608 -33.646724)
(-648.46284 -33.18663 -38.226798)
(-633.93533 -34.84809 -43.579203)
(-613.67191 -36.113948 -49.43832)
(-587.69137 -37.044129 -55.725277)
(-556.14874 -37.607943 -62.302016)
(-519.2446 -37.927463 -69.007856)
(-477.34447 -38.002762 -75.758275)
(-430.73826 -37.947016 -82.429423)
(-380.01118 -37.799624 -88.978098)
(-325.48926 -37.694045 -95.31253)
(-267.96413 -37.631407 -101.45904)
(-207.55833 -37.722686 -107.32362)
(-145.3464 -38.031321 -112.98077)
(-81.374176 -38.43896 -118.39998)
(-16.71253 -39.250458 -123.62597)
(48.627976 -40.202554 -128.72678)
(113.78398 -41.498284 -133.75651)
(178.35895 -42.976193 -138.69511)
(242.52242 -44.729282 -143.65612)
(5.5815525 -4.6355127 -5.7929579)
(-8.791975 -7.5569953 -8.607519)
(-23.559019 -8.1954092 -16.634552)
(-46.180414 -7.9129759 -23.416073)
(-71.598235 -6.2485716 -30.497682)
(-100.00034 -4.2645929 -37.599345)
(-130.28483 -1.0765271 -43.616162)
(-162.51406 1.897451 -48.572941)
(-195.41616 5.5569092 -52.48165)
(-229.31923 8.8451139 -55.08635)
(-263.41544 12.337995 -56.341545)
(-297.90204 15.090874 -56.251614)
(-332.28626 17.551362 -54.869879)
(-366.48101 18.932823 -52.415545)
(-400.32508 19.717532 -49.241359)
(-433.48271 19.456451 -45.434545)
(-465.80188 18.241875 -41.370351)
(-496.92419 16.066975 -37.258291)
(-526.57502 12.854869 -33.383488)
(-554.35149 8.8951721 -30.112088)
(-579.76527 3.9363038 -27.288968)
(-602.73776 -1.5361115 -25.625572)
(-622.46344 -7.4498889 -24.771491)
(-638.26065 -13.947292 -24.958607)
(-650.08502 -20.674747 -26.151121)
(-657.14902 -27.508173 -28.510267)
(-659.30323 -34.256752 -31.792155)
(-656.18812 -40.865369 -35.935005)
(-647.56473 -47.232724 -40.851621)
(-633.27556 -53.21789 -46.362937)
(-613.22763 -58.821958 -52.319662)
(-587.50812 -63.99854 -58.595703)
(-556.18144 -68.662544 -65.070313)
(-519.52613 -72.979007 -71.537338)
(-477.81173 -76.742773 -78.019303)
(-431.44407 -80.207795 -84.323538)
(-380.8033 -83.240961 -90.430902)
(-326.52779 -86.107479 -96.325327)
(-268.86014 -88.546393 -101.96203)
(-208.51532 -90.871504 -107.32587)
(-146.34379 -93.009236 -112.35564)
(-82.552777 -95.045421 -117.40913)
(-17.873315 -97.166951 -122.05102)
(47.34744 -99.088673 -126.84463)
(112.43326 -101.19062 -131.33842)
(177.07862 -103.15413 -135.99419)
(241.15272 -105.05877 -140.56733)
(5.1825279 1.5659318 3.3284573)
(-9.3775048 2.4405292 -2.2108528)
(-24.978577 5.4138423 -8.258469)
(-47.854194 9.0463909 -15.566657)
(-73.228002 13.399965 -23.588537)
(-101.63464 17.979548 -30.994624)
(-132.10433 22.85367 -37.564336)
(-163.98499 27.651612 -43.275232)
(-197.00193 32.402007 -47.497392)
(-230.53401 36.607945 -50.385944)
(-264.64305 40.444209 -51.852813)
(-298.65203 43.395285 -51.793566)
(-332.65685 45.45969 -50.545918)
(-366.49708 46.529095 -48.315481)
(-399.79931 46.425989 -45.258299)
(-432.55012 45.1786 -41.705001)
(-464.34392 42.604303 -37.867402)
(-495.04677 38.794352 -34.086999)
(-524.24607 33.728405 -30.656057)
(-551.57924 27.462361 -27.703191)
(-576.75405 20.072118 -25.576393)
(-599.09802 11.92091 -24.247451)
(-618.16769 2.8968194 -24.1367)
(-633.9753 -7.3147989 -24.802589)
(-645.41345 -17.807712 -26.812244)
(-652.48645 -28.444838 -29.767781)
(-654.67105 -39.28126 -33.496492)
(-651.65124 -50.124508 -38.118293)
(-643.21542 -60.781284 -43.395469)
(-629.149 -71.156787 -49.185762)
(-609.40125 -81.134154 -55.319339)
(-583.98596 -90.625052 -61.672787)
(-553.03468 -99.549925 -68.079794)
(-516.76194 -107.88783 -74.413776)
(-475.46276 -115.53412 -80.660315)
(-429.47596 -122.61252 -86.587871)
(-379.31509 -128.97029 -92.310489)
(-325.34898 -134.77768 -97.63379)
(-268.25607 -139.95842 -102.82228)
(-208.57325 -144.70333 -107.43577)
(-146.63795 -148.70451 -112.15369)
(-83.070059 -152.44575 -116.42565)
(-18.647663 -155.70027 -120.69194)
(46.380963 -158.73438 -124.81728)
(111.32021 -161.41337 -128.99005)
(175.84655 -163.90432 -133.2601)
(239.76724 -166.0319 -137.52249)
(4.5845176 5.843077 9.8331945)
(-11.170043 8.253971 5.4988894)
(-27.12823 16.35804 0.50863408)
(-50.275295 23.064811 -7.8574767)
(-75.500858 30.486655 -15.769579)
(-104.41572 38.06765 -23.928673)
(-134.65503 45.370147 -31.013286)
(-166.67835 52.176909 -37.156272)
(-199.41805 58.669274 -41.746052)
(-232.73593 63.883997 -44.995484)
(-266.58252 68.927611 -46.821945)
(-300.03381 72.130021 -46.788331)
(-333.7101 74.644423 -45.9855)
(-366.86522 75.454432 -43.869782)
(-399.70061 75.023974 -41.086927)
(-431.73378 72.858191 -37.732294)
(-462.9498 69.156733 -34.193397)
(-493.00347 63.801606 -30.766122)
(-521.58536 56.816555 -27.642505)
(-548.40893 48.268779 -25.186917)
(-573.04905 38.344899 -23.519695)
(-595.0909 26.926723 -22.753764)
(-613.88103 14.482218 -23.144317)
(-629.33637 0.96877965 -24.58727)
(-640.62214 -13.414263 -27.025021)
(-647.72428 -28.303237 -30.462961)
(-649.9682 -43.514347 -34.665714)
(-647.04327 -58.85263 -39.766671)
(-638.77569 -74.060474 -45.434882)
(-624.92176 -89.062955 -51.546806)
(-605.42643 -103.64022 -57.879765)
(-580.3316 -117.66912 -64.328411)
(-549.71499 -130.99791 -70.721083)
(-513.82523 -143.54712 -76.963255)
(-472.89352 -155.16944 -82.971267)
(-427.33977 -165.9828 -88.594772)
(-377.56999 -175.68808 -93.954235)
(-324.00856 -184.54078 -98.885485)
(-267.21984 -192.42565 -103.46795)
(-207.89015 -199.32171 -107.77879)
(-146.20913 -205.41491 -111.75733)
(-83.054429 -210.6508 -115.58528)
(-18.838986 -215.24153 -119.26246)
(45.902951 -219.1463 -122.97822)
(110.60672 -222.50611 -126.7236)
(174.95311 -225.42736 -130.64329)
(238.43153 -227.84471 -134.67968)
(0 0 0)
(0 0 0)
(0 0 0)
(0 0 0)
(0 0 0)
(0 0 0)
(0 0 0)
(0 0 0)
(0 0 0)
(0 0 0)
(0 0 0)
(0 0 0)
(0 0 0)
(0 0 0)
(0 0 0)
(0 0 0)
(0 0 0)
(0 0 0)
(0 0 0)
(0 0 0)
(0 0 0)
(0 0 0)
(0 0 0)
(0 0 0)
(0 0 0)
(0 0 0)
(0 0 0)
(0 0 0)
(0 0 0)
(0 0 0)
(0 0 0)
(0 0 0)
(0 0 0)
(0 0 0)
(0 0 0)
(0 0 0)
(0 0 0)
(0 0 0)
(0 0 0)
(0 0 0)
(0 0 0)
(0 0 0)
(0 0 0)
(0 0 0)
(0 0 0)
(0 0 0)
(0 0 0)
(0 0 0)
(0 0 0)
(-8.3298309 5.7030091 11.335131)
(-11.980056 8.9214749 7.4236415)
(-16.375631 9.6753584 3.0446025)
(-18.81412 10.77825 -0.8353445)
(-19.658771 10.513443 -4.2312168)
(-20.878873 11.770959 -8.1259971)
(-19.872643 9.0557289 -13.185337)
(-26.179391 33.133215 9.1498007)
(-32.196137 39.914569 2.2748706)
(-35.506213 37.920764 -2.4581419)
(-37.629063 37.495717 -7.2067496)
(-40.467578 41.766191 -11.359357)
(-39.740664 43.239428 -17.107574)
(-39.759643 46.136233 -26.031944)
(-38.895295 39.562077 3.5188027)
(-46.177 40.245333 -0.40506536)
(-51.425291 44.905439 -7.5535344)
(-54.012495 46.407469 -12.944613)
(-55.477908 46.767826 -18.637665)
(-55.991149 48.913805 -23.106577)
(-55.429501 55.834026 -32.539207)
(-63.112167 55.128276 -5.1099638)
(-68.819973 59.706408 -9.2042571)
(-72.622408 61.203833 -15.58693)
(-75.678918 63.081316 -19.220436)
(-77.62344 65.260004 -24.424287)
(-78.21896 69.676212 -31.266385)
(-76.03778 71.222515 -35.822472)
(-86.749636 65.01756 -13.11988)
(-92.546133 68.078668 -16.65589)
(-97.650324 71.50854 -21.783735)
(-100.12844 73.328815 -26.756749)
(-102.15317 75.995846 -30.969327)
(-102.811 78.532985 -35.87832)
(-102.32741 83.306993 -41.543718)
(-114.97854 74.521042 -21.88038)
(-119.58449 77.843194 -25.339361)
(-123.29046 79.95967 -29.489902)
(-126.48478 82.883021 -32.822403)
(-127.99268 84.923319 -36.782947)
(-129.02708 88.210974 -41.142612)
(-128.22698 91.169093 -44.550541)
(-144.01818 82.186836 -28.844468)
(-148.58895 85.169717 -32.078654)
(-152.77453 88.527346 -35.413795)
(-155.32117 90.501252 -38.308396)
(-157.63367 93.264495 -41.905545)
(-158.75933 95.818081 -44.709594)
(-159.21152 99.384417 -47.61207)
(-175.10292 89.221519 -35.355948)
(-179.38521 92.209895 -37.636743)
(-182.72876 93.93471 -40.438484)
(-185.70812 96.296023 -42.536928)
(-187.9465 98.243226 -44.957425)
(-189.2292 100.16096 -47.450501)
(-189.82963 102.40324 -49.475114)
(-207.03155 94.807444 -39.644508)
(-210.85617 96.720396 -42.084643)
(-214.49092 98.584512 -44.09695)
(-217.27345 100.46534 -45.62547)
(-219.96903 102.49279 -47.321226)
(-221.78625 103.87566 -48.889139)
(-223.34727 106.23969 -50.108358)
(-239.44448 99.01147 -42.926777)
(-243.41792 100.84111 -44.407895)
(-246.75977 102.11771 -45.692186)
(-249.92891 103.43297 -47.082496)
(-252.76838 104.44138 -48.144209)
(-254.94363 105.44819 -48.912447)
(-256.90848 106.49099 -49.767029)
(-272.51125 102.78045 -44.175233)
(-276.10728 103.3584 -45.55597)
(-279.67655 103.93772 -46.373416)
(-282.90419 104.55405 -46.835439)
(-286.12871 105.45632 -47.168249)
(-288.92239 105.83024 -47.730136)
(-291.40116 106.22359 -47.628648)
(-305.08888 104.30766 -44.017886)
(-309.12488 104.44612 -44.740789)
(-312.8182 104.62775 -44.779841)
(-316.43492 105.04718 -44.913787)
(-320.18275 105.40764 -44.936159)
(-323.283 104.96376 -44.685996)
(-326.82645 104.76552 -43.876495)
(-338.07663 105.6611 -42.553972)
(-342.08665 104.94733 -42.644803)
(-345.83681 104.28606 -42.479526)
(-349.8735 104.12564 -41.98301)
(-353.81956 103.56609 -41.380073)
(-357.90916 103.22436 -40.66231)
(-361.88475 101.87215 -39.501876)
(-370.34492 104.82119 -39.830277)
(-374.66966 103.70842 -39.371629)
(-378.68104 102.71515 -38.441349)
(-383.15811 102.24187 -37.502412)
(-387.73898 101.7002 -36.402524)
(-392.39737 100.36763 -35.269425)
(-397.27029 98.684883 -33.55498)
(-402.41107 103.13622 -36.355582)
(-406.88625 101.51893 -35.276737)
(-411.00188 99.937488 -33.9007)
(-415.96339 99.135626 -32.479873)
(-420.90619 97.80918 -30.790262)
(-426.30768 96.282625 -29.242202)
(-431.94092 94.146764 -27.081811)
(-433.64414 99.602423 -32.262861)
(-438.25949 97.716419 -30.594016)
(-442.68061 96.079959 -28.598482)
(-448.11251 95.018049 -26.522084)
(-453.55463 93.708421 -24.45937)
(-459.76655 91.95307 -22.393804)
(-466.18233 89.484568 -19.851448)
(-463.94954 94.693713 -28.081421)
(-468.68269 92.733011 -25.745643)
(-473.34202 90.868634 -23.110204)
(-479.09029 89.530071 -20.604185)
(-485.09042 88.096415 -17.937071)
(-491.93822 85.981351 -15.436274)
(-499.16797 83.538885 -12.406992)
(-493.07577 88.107308 -23.998727)
(-497.88685 86.201797 -20.893373)
(-502.71968 84.32167 -17.741796)
(-508.92403 83.14105 -14.533681)
(-515.30125 81.628559 -11.368379)
(-522.92088 79.725753 -8.3820392)
(-530.884 77.190893 -4.921556)
(-520.6803 79.914619 -20.34548)
(-525.43304 78.117402 -16.576319)
(-530.5 76.491648 -12.743701)
(-536.90269 75.204213 -8.9711816)
(-543.78991 73.954605 -5.2649533)
(-552.0068 71.977874 -1.7912288)
(-560.75033 69.822121 2.1954687)
(-546.44096 69.996629 -17.432663)
(-551.16905 68.637462 -12.900944)
(-556.24545 67.16184 -8.4274132)
(-562.98585 66.266927 -4.0503506)
(-570.16854 65.120848 0.27499281)
(-579.04235 63.594052 4.2707922)
(-588.44071 61.673129 8.7521011)
(-569.99923 58.493218 -15.429897)
(-574.49051 57.427569 -10.147736)
(-579.68762 56.489424 -5.0494739)
(-586.52586 55.747865 -0.017993753)
(-594.09098 55.076274 4.8552894)
(-603.43519 53.810378 9.3534594)
(-613.48663 52.473586 14.383893)
(-590.88859 45.270479 -14.469039)
(-595.19964 44.864193 -8.5198938)
(-600.28676 44.337037 -2.7556037)
(-607.26575 44.088518 2.8479516)
(-614.99665 43.750665 8.309248)
(-624.81232 43.085927 13.374647)
(-635.41631 42.303684 18.941463)
(-608.77076 30.618003 -14.678833)
(-612.67396 30.698749 -8.0502298)
(-617.74113 30.821961 -1.700039)
(-624.66803 30.945732 4.4811843)
(-632.64536 31.229649 10.533249)
(-642.79159 31.091231 16.084551)
(-653.86552 31.020335 22.202025)
(-623.05243 14.408555 -16.071751)
(-626.63414 15.235579 -8.8444354)
(-631.53522 16.006435 -1.9780206)
(-638.39635 16.661022 4.7801226)
(-646.42466 17.461406 11.289487)
(-656.78194 17.96187 17.401792)
(-668.22994 18.659199 24.04802)
(-633.56782 -2.8670331 -18.662874)
(-636.58528 -1.3967754 -10.936878)
(-641.39715 0.059853471 -3.5087946)
(-647.94006 1.1918734 3.7022743)
(-656.16113 2.5879441 10.63543)
(-666.56448 3.6854524 17.265853)
(-678.33628 5.1522956 24.327311)
(-639.6125 -21.325602 -22.394869)
(-642.28112 -19.106636 -14.150986)
(-646.82629 -17.07507 -6.3677538)
(-653.23556 -15.33237 1.4215017)
(-661.38946 -13.454519 8.442347)
(-671.5641 -11.593266 15.648338)
(-683.4347 -9.3795466 22.794202)
(-641.20471 -40.509765 -27.097274)
(-643.3476 -37.676805 -18.459307)
(-647.54436 -35.047799 -10.465859)
(-653.4987 -32.650734 -2.4181434)
(-661.60362 -30.100626 5.088748)
(-671.76925 -27.510194 12.652102)
(-683.64158 -24.744876 19.839397)
(-637.68031 -60.178127 -32.65527)
(-639.43733 -56.715588 -23.651602)
(-643.16302 -53.569711 -15.543418)
(-649.00298 -50.500841 -7.2075538)
(-656.76044 -47.482752 0.52226444)
(-666.73382 -44.37184 8.2917437)
(-678.52615 -40.822123 15.9362)
(-628.92006 -80.1403 -38.752614)
(-630.33648 -76.245016 -29.683696)
(-633.67808 -72.461779 -21.4148)
(-639.16073 -69.045195 -12.961343)
(-646.6577 -65.570062 -5.0574798)
(-656.41568 -61.728982 2.8541628)
(-668.04222 -57.659917 10.642178)
(-614.86055 -100.20651 -45.357873)
(-615.89098 -95.814059 -36.205167)
(-618.8614 -91.667803 -28.042038)
(-624.06716 -87.738308 -19.483575)
(-631.24572 -83.750476 -11.572264)
(-640.69713 -79.446539 -3.6032396)
(-652.02005 -74.85202 4.2775283)
(-595.36036 -119.99811 -52.114636)
(-596.06948 -115.28707 -43.191754)
(-598.75473 -110.70325 -35.048411)
(-603.59221 -106.3999 -26.623904)
(-610.44635 -102.09183 -18.776472)
(-619.50118 -97.30582 -10.844177)
(-630.45241 -92.307105 -3.0248491)
(-570.45778 -139.35353 -59.032531)
(-570.9477 -134.35405 -50.344169)
(-573.29969 -129.49699 -42.452708)
(-577.83153 -124.89856 -34.216669)
(-584.30886 -120.23178 -26.543763)
(-592.94104 -115.0815 -18.747294)
(-603.43478 -109.71897 -11.088146)
(-540.26702 -157.98718 -65.837771)
(-540.54549 -152.81127 -57.566595)
(-542.69117 -147.70663 -49.94228)
(-546.89158 -142.81468 -42.042323)
(-553.01449 -137.89483 -34.63453)
(-561.15643 -132.46405 -27.102785)
(-571.16004 -126.83646 -19.701517)
(-504.97185 -175.71679 -72.46998)
(-505.17468 -170.39458 -64.673881)
(-507.10248 -165.15645 -57.478374)
(-511.0111 -160.08883 -49.992223)
(-516.7576 -154.98246 -42.968922)
(-524.40646 -149.3215 -35.754409)
(-533.8311 -143.49416 -28.732117)
(-464.85286 -192.31728 -78.793529)
(-465.00648 -186.98561 -71.613629)
(-466.79313 -181.63062 -64.859748)
(-470.43745 -176.3928 -57.896635)
(-475.82815 -171.14333 -51.275276)
(-482.9346 -165.40345 -44.516014)
(-491.83788 -159.42149 -37.996347)
(-420.24151 -207.71902 -84.740501)
(-420.43918 -202.36525 -78.185104)
(-422.13037 -196.96745 -71.984866)
(-425.56882 -191.66772 -65.608641)
(-430.60228 -186.39411 -59.56244)
(-437.22874 -180.35616 -53.306576)
(-445.36517 -174.29645 -47.365553)
(-371.61203 -221.60556 -90.353248)
(-371.84836 -216.41157 -84.560217)
(-373.48351 -210.98416 -78.991779)
(-376.73034 -205.6926 -73.219781)
(-381.35522 -200.2034 -67.746054)
(-387.38285 -194.6499 -62.108623)
(-394.97379 -188.49518 -56.394345)
(-319.11979 -234.52711 -95.49868)
(-319.67027 -229.08524 -90.376405)
(-321.32467 -223.7503 -85.459415)
(-324.33361 -218.42241 -80.401519)
(-328.73758 -213.01874 -75.506257)
(-334.33186 -206.92305 -70.367592)
(-341.4197 -201.09136 -65.686327)
(-263.69233 -245.33392 -100.1758)
(-264.33521 -240.19508 -95.845517)
(-266.07985 -234.92996 -91.543866)
(-269.01334 -229.59234 -87.167697)
(-273.11273 -224.22494 -82.975171)
(-278.24179 -218.5161 -78.65521)
(-284.5489 -212.62787 -74.433362)
(-205.52362 -255.03949 -104.6276)
(-206.43866 -249.95893 -100.96152)
(-208.26922 -244.72206 -97.348705)
(-211.10398 -239.45798 -93.711337)
(-214.95146 -234.13291 -90.170124)
(-219.61164 -228.41411 -86.412142)
(-225.37138 -222.62779 -82.986765)
(-145.22572 -263.17161 -108.67249)
(-146.40099 -258.16224 -105.7807)
(-148.37715 -253.00054 -102.82128)
(-151.12285 -247.78001 -99.844771)
(-154.74468 -242.48535 -96.930697)
(-159.00149 -236.89883 -93.921256)
(-164.21287 -231.20974 -91.144709)
(-83.294575 -269.94621 -112.46323)
(-84.786858 -265.0216 -110.29879)
(-86.900867 -259.9031 -107.955)
(-89.596677 -254.75171 -105.66999)
(-93.046142 -249.49964 -103.38639)