/*--------------------------------*- C++ -*----------------------------------*\
  =========                 |
  \\      /  F ield         | OpenFOAM: The Open Source CFD Toolbox
   \\    /   O peration     | Website:  https://openfoam.org
    \\  /    A nd           | Version:  6
     \\/     M anipulation  |
\*---------------------------------------------------------------------------*/
FoamFile
{
    version     2.0;
    format      ascii;
    class       pointScalarField;
    location    "1.91";
    object      p;
}
// * * * * * * * * * * * * * * * * * * * * * * * * * * * * * * * * * * * * * //

dimensions      [1 -1 -2 0 0 0 0];

internalField   nonuniform List<scalar> 
28033
(
137657.84
-244987.03
5842.0885
1355.9223
297538.95
-288362.2
2205.8906
-485.66672
116173.05
99103.791
80385.627
61519.149
41510.525
24660.646
5551.4926
-12452.923
-33094.931
-46542.369
-72898.642
-82291.67
-103348.72
-129137.35
-125039.46
-15431.163
-9345.6704
-9993.1533
-6523.9476
-5828.815
-3630.2277
-1576.36
692.3302
2677.7497
4948.2995
7293.586
8584.101
10268.397
11455.805
10160.359
33616.859
35543.771
30368.194
32673.986
31646.057
32319.046
31083.522
30720.874
30153.096
29406.371
28052.747
27936.387
26713.389
26350.985
25368.495
25158.152
24476.423
24669.961
24073.661
24593.066
24601.982
25124.853
25891.838
26788.237
27592.521
29017.203
30424.779
31871.091
33630.382
35429.099
37374.053
39457.451
41736.263
43868.94
46237.744
48315.756
50843.598
53252.53
55145.651
57658.006
59606.634
61354.379
63209.69
65023.037
66488.914
67995.466
69216.821
70367.524
71271.031
72113.928
72684.603
73196.431
73495.302
73677.978
73724.148
73625.365
73443.657
73124.259
72713.906
72237.096
71674.457
71022.175
70308.044
69652.112
68838.97
68084.82
67440.568
66389.685
65095.992
64140.317
62915.93
61870.788
60398.646
59205.934
57394.148
56181.558
53972.051
52659.651
50130.091
48604.806
45943.242
44098.126
41270.061
38804.001
36001.077
33232.885
30600.643
27941.089
24195.297
21916.125
19539.611
14643.559
15480.469
13563.541
11006.236
-44262.537
-35198.443
-40051.76
-34681.162
-38956.692
-38859.394
-37663.792
-37908.5
-37229.314
-36326.065
-35716.525
-34821.647
-33961.53
-33278.546
-32288.314
-31756.377
-30959.748
-30437.957
-30009.049
-29742.467
-29555.092
-29604.229
-29688.741
-30146.978
-30531.383
-31218.831
-32050.86
-32936.043
-34129.077
-35315.803
-36697.36
-38181.022
-39768.663
-41480.708
-43344.166
-45243.069
-47021.451
-49103.244
-50978.64
-52977.796
-54960.895
-56829.539
-58772.31
-60531.496
-62329.245
-63940.197
-65544.167
-66937.952
-68301.554
-69447.143
-70521.401
-71379.227
-72142.973
-72698.501
-73130.614
-73373.066
-73487.718
-73415.46
-73229.414
-72867.932
-72406.034
-71785.068
-71095.225
-70233.107
-69342.74
-68263.231
-67285.772
-66083.909
-65135.802
-63513.263
-62372.614
-60855.542
-59543.39
-57952.373
-56462.314
-54819.847
-53082.977
-51342.675
-49422.897
-47441.261
-45357.75
-43138.39
-40731.445
-38357.718
-35673.576
-32975.257
-30149.671
-27308.31
-24102.395
-21338.815
-18392.337
-15142.376
-12678.248
-11152.171
-8109.5849
236981.55
220973.66
160203.81
157840.77
112919.41
71298.466
47957.674
9522.0833
-23196.314
-58890.208
-89664.21
-125352.41
-165270.88
-193825.68
-211335.02
-63456.62
-45053.721
-20285.316
-41498.267
-30534.386
-34508.815
-32548.552
-33254.365
-30857.311
-31273.436
-30177.648
-28752.658
-28770.692
-26936.314
-27422.841
-26113.876
-26127.136
-26033.183
-25712.305
-26101.155
-26284.772
-26431.046
-27254.538
-28256.14
-29039.26
-30472.651
-31434.829
-33732.294
-34727.843
-37471.164
-38787.161
-41447.549
-43233.962
-45979.92
-48239.938
-49680.875
-52776.666
-55280.309
-57319.418
-59782.654
-61738.768
-63964.316
-65776.147
-67695.297
-69245.862
-70889.668
-72104.263
-73384.995
-74304.105
-75200.101
-75811.356
-76371.653
-76657.486
-76899.041
-76915.603
-76838.47
-76626.882
-76304.558
-75862.806
-75353.026
-74734.965
-74057.846
-73296.084
-72484.584
-71588.236
-70669.564
-69777.667
-69007.021
-66478.263
-66383.405
-65143.538
-63758.592
-62355.084
-60887.82
-59269.602
-57607.008
-55786.748
-53929.776
-51891.812
-49750.348
-47435.368
-45067.603
-42437.548
-39835.311
-36980.966
-34131.106
-31027.671
-28082.632
-24836.149
-21802.48
-18738.312
-15744.895
-13751.925
-11353.346
-10152.44
13056.199
13336.987
9912.1861
10585.129
6154.866
6366.3367
2149.4371
585.22464
-2209.1491
-4843.1905
-4674.2945
-8835.8585
-8064.7818
-13582.946
-11163.131
20298.593
15453.248
15461.072
18138.577
20083.228
23183.721
25992.325
29017.684
31777.517
34756.529
37430.014
39866.701
42507.639
44883.513
47224.479
49277.211
51379.098
53203.29
55020.692
56719.064
58292.937
59863.562
61292.324
62653.73
63924.118
65155.403
65478.212
68555.935
68537.095
69855.91
70793.347
71756.941
72539.575
73292.923
73909.441
74402.308
74802.834
75011.362
75143.908
75055.437
74880.547
74468.946
73991.387
73238.217
72452.242
71375.676
70291.202
68919.975
67550.463
65930.025
64311.987
62486.692
60619.349
58812.133
56776.966
54618.667
52551.675
50188.035
48919.267
46259.302
44304.65
43063.295
40637.459
39007.054
37441.199
35972.202
34374.623
33314.647
32102.025
31337.718
30448.419
30123.298
29541.772
29194.037
29227.731
29491.872
29342.162
30242.155
30254.853
31374.277
32052.84
32886.126
33066.766
35249.234
34922.545
35900.74
37882.485
37764.551
38161.094
38139.402
38738.665
39598.173
40970.102
38151.938
50214.202
98144.981
112731.76
119664.18
125190.14
130971.66
134295.82
137613.6
139308.35
140366.27
139702.14
141884.22
136152.12
132124.03
138235.92
117140.75
-216577.04
-265152.67
-254532.04
-272486.91
-257089.85
-247494.43
-280097.39
-290610.3
-271833.64
-268030.67
-256031.6
-246718.02
-230465.61
-225697.46
-207136.66
1105.184
1251.8697
2020.8676
2513.6398
3544.5117
4187.4686
4347.9696
4425.6027
4384.219
4043.8836
3612.5728
2758.2591
2203.5485
1696.6604
1709.6996
-1625.9767
1266.7265
574.60479
-95.980312
-978.50991
-1095.9507
-1656.4228
-1577.4564
-1415.0593
-1222.2846
-293.67813
337.98426
617.30681
4199.5329
-1164.2233
35303.07
30446.281
27088.27
27819.517
27559.493
26971.293
26864.12
26948.798
26197.965
25522.01
25286.81
24543.444
24074.987
23376.222
23077.352
22657.768
22583.038
22196.061
22396.87
22479.134
22917.863
23421.322
24095.383
24802.825
25822.392
27025.597
28222.339
29719.128
31251.685
32980.129
34789.431
36551.695
38519.526
40387.212
42435.752
44571.983
46513.01
48335.346
50467.306
52287.799
54258.449
55928.503
57538.218
59010.398
60318.92
61615.198
62619.516
63632.582
64388.605
65072.269
65567.164
65970.28
66201.741
66338.002
66339.735
66247.814
66051.664
65753.377
65394.53
64956.837
64441.691
63844.018
63258.88
62610.275
61732.117
60994.406
59873.082
59038.635
58226.86
57166.839
56112.971
55019.066
53740.444
52619.812
51125.659
49812.488
48113.03
46677.375
44650.553
43123.236
40979.882
38989.92
36943.644
34850.15
32431.796
30040.592
27674.121
24839.509
22477.722
20438.906
16861.515
14979.527
13030.774
7004.9933
1962.4476
30546.846
23312.015
20823.684
22653.606
21047.352
21747.464
21948.634
21517.153
21133.612
21058.106
20481.358
20061.63
19666.189
19292.33
18930.601
18710.73
18427.922
18511.59
18434.05
18693.408
18913.565
19311.599
19843.996
20619.191
21480.134
22406.644
23533.562
24829.587
26115.011
27587.465
29066.151
30669.631
32323.231
34021.834
35853.844
37418.634
39116.092
40844.428
42448.041
44019.784
45517.385
47017.441
48161.683
49465.089
50533.466
51586.735
52413.293
53238.08
53824.273
54390.122
54764.425
55088.749
55252.698
55357.943
55353.23
55269.64
55102.823
54879.85
54587.598
54247.491
53844.798
53411.036
52997.409
52487.719
51945.441
51970.871
51776.291
51349.649
50930.447
50161.078
49344.873
48645.764
47411.418
46615.294
44940.805
44240.878
42195.823
41444.534
39138.997
38274.89
35910.959
34400.774
32471.648
29810.039
27496.164
25372.153
22769.627
20927.849
18628.485
15936.635
13588.246
11408.369
7560.3375
3699.7079
-2971.1799
23310.968
19181.125
17112.676
17521.34
16191.867
17473.633
17110.188
17064.452
17036.619
16880.809
16465.431
16318.518
16015.392
15703.327
15525.878
15314.02
15261.77
15197.442
15275.452
15486.286
15799.682
16207.449
16801.777
17452.353
18139.095
19048.013
20026.436
21028.629
22219.68
23388.599
24748.06
26046.232
27502.83
28881.258
30337.043
31788.47
33323.951
34652.657
36105.692
37347.856
38571.138
39686.256
40970.165
41905.463
42880.711
43658.362
44382.809
44966.446
45476.203
45862.742
46161.996
46372.686
46475.346
46527.896
46483.763
46376.549
46216.098
46004.267
45729.211
45429.591
45079.355
44693.564
44306.511
43748.417
43395.665
43089.476
42903.213
42370.521
42052.07
41639.427
41017.964
40212.54
39291.449
38373.386
37472.112
36328.496
35326.9
33957.745
32866.674
31336.107
29927.826
28588.467
26598.679
25131.608
23377.283
21527.95
19353.888
17867.605
15653.862
13762.274
11876.671
8601.9821
6534.2465
1027.1942
-1537.1443
17778.851
14040.088
12096.877
12642.148
11786.532
12560.789
12587.071
12450.701
12506.778
12325.518
12175.687
11975.286
11811.326
11557.764
11466.897
11347.365
11285.797
11353.832
11418.876
11641.59
11815.475
12210.458
12636.58
13143.039
13795.806
14546.615
15304.666
16267.032
17193.096
18223.932
19323.448
20397.857
21571.214
22673.869
23980.423
24996.501
26192.345
27223.207
28275.974
29232.823
30367.663
31275.101
32023.162
32709.251
33378.244
33957.823
34437.373
34861.211
35186.765
35442.059
35603.334
35723.951
35743.456
35747.692
35653.272
35558.491
35394.268
35221.501
34998.288
34780.38
34532.331
34265.633
33991.731
33721.084
33465.772
33108.335
33016.724
32406.679
31890.326
31558.205
31155.507
30543.586
30134.221
29446.132
28664.555
27842.25
26945.709
26076.846
24998.026
23994.294
22869.738
21777.103
20397.683
19058.687
17662.475
16794.106
15236.172
13774.443
12184.354
10686.223
8475.1081
6669.0629
3910.0327
782.92271
-3185.1419
13755.949
9246.6949
7005.1739
8445.7482
7181.4713
8235.1685
8169.4967
8019.3794
8167.0017
8180.8154
7903.132
8002.6857
7785.1988
7729.1486
7700.1516
7656.1194
7630.844
7737.7447
7863.9381
8028.488
8361.6991
8713.0298
9104.7771
9619.3872
10179.296
10758.657
11485.933
12152.197
12978.766
13764.858
14681.938
15498.992
16467.816
17372.112
18314.343
19173.064
20451.192
21475.881
22293.36
23708.757
24229.45
24953.103
25750.27
26335.401
26925.137
27351.316
27725.453
28013.827
28263.572
28396.318
28506.099
28554.717
28538.93
28495.378
28404.039
28290.511
28146.818
27984.583
27807.458
27613.686
27437.595
27160.19
27040.115
26735.731
26453.542
26325.269
25968.819
25700.641
25335.635
24958.442
24579.937
23866.719
22823.79
22135.444
21267.223
20638.832
20031.17
19291.876
18581.763
17885.427
16905.387
16298.95
15137.458
14566.475
13308.596
12761.234
11244.006
10485.503
9027.7842
7704.8721
6342.6775
4765.5649
3161.4149
153.95739
-2384.4937
7389.9517
4789.0109
3786.4743
4344.9855
3218.4435
3923.8249
4004.5905
3709.2282
4146.9598
3870.4298
3970.3724
3873.7454
3892.6065
3784.4297
3875.4924
3794.0421
3895.0985
4048.4476
4066.7594
4306.1364
4494.0491
4732.8402
5040.8569
5453.5486
5817.8477
6354.4398
6824.9054
7412.5021
8005.1376
8602.6586
9255.5634
9884.7835
10614.499
11206.15
11921.976
12563.403
13392.317
13991.509
15426.549
15967.436
16887.926
17228.93
17661.525
18015.446
18335.759
18543.088
18736.847
18842.712
18924.336
18929.321
18922.83
18856.93
18771.078
18652.467
18533.581
18376.349
18236.176
18081.609
17932.411
17783.189
17642.283
17526.688
17378.255
17252.577
17205.834
16976.292
16976.1
16811.071
16655.213
16465.434
16224.82
15731.181
15382.88
14509.576
13774.885
13446.603
13011.281
12571.181
12081.922
11747.549
10891.466
10835.172
9676.7924
9670.77
8431.6331
8437.344
7110.8848
7091.9449
5851.7294
5643.7879
4663.6723
3553.1609
2332.5281
149.27728
-906.00485
1257.6934
-114.84439
-789.31701
-160.0823
-1045.3967
-330.67588
-400.44412
-490.60326
-356.90527
-243.163
-497.08053
-180.93666
-341.03227
-212.96742
-196.2862
-100.53342
2.3924807
85.656751
271.7843
479.49447
715.52603
963.0073
1301.6325
1586.9718
1972.0095
2308.233
2723.8293
3120.052
3581.9896
3972.3068
4499.55
4901.0192
5371.3659
5757.6446
6263.3054
6573.6301
7056.8598
7412.4217
7628.9752
7838.052
8155.2641
8306.8185
8475.7028
8592.7716
8688.9159
8701.7507
8688.066
8625.2126
8539.8222
8411.3512
8284.2162
8118.0589
7952.1096
7794.9911
7620.8321
7467.285
7319.7698
7203.8292
7076.2587
7003.3796
6932.616
6871.5088
6859.4845
6848.7709
6810.4526
6862.3234
6834.0329
6820.51
6839.0082
6822.2772
6776.0098
6699.2948
6478.876
6660.1257
6614.1054
6520.2393
6272.5987
6066.215
5890.2295
5584.6427
5348.7869
5185.8445
4644.1304
4802.3058
4013.7299
4330.735
3509.1503
3818.4102
3022.9991
2955.3537
2085.4915
1574.8109
1381.4415
493.91878
224.16764
-3731.4996
-5002.7123
-4599.6383
-4700.1449
-4823.1624
-4640.034
-4485.426
-4798.9051
-4280.3151
-4582.277
-4329.7155
-4272.4042
-4179.5302
-4157.1062
-3932.7386
-3842.7244
-3750.551
-3508.3397
-3399.9036
-3232.1168
-3056.2622
-2828.1414
-2702.7949
-2426.1421
-2256.5142
-1996.8871
-1764.4915
-1511.4018
-1310.8372
-1075.91
-837.65482
-691.94119
-442.15004
-277.29501
-93.317454
-21.522322
206.70211
146.90967
366.30182
253.98248
345.18618
281.74688
189.73387
27.717459
-93.78242
-300.82718
-493.71466
-712.21038
-929.76077
-1177.2573
-1410.3442
-1644.2548
-1870.9063
-2081.5792
-2270.7013
-2437.7168
-2575.557
-2669.2573
-2757.7991
-2769.2867
-2792.3018
-2737.8552
-2677.48
-2586.0569
-2432.2249
-2314.2527
-2124.7661
-1952.1697
-1776.161
-1602.4802
-1487.318
-1362.8893
-1325.7276
-1141.6353
-1031.3106
-890.81974
-886.39752
-743.25926
-749.61943
-640.88638
-550.85623
-621.92916
-364.04619
-453.84285
-349.41734
-103.26701
-388.8978
312.45141
-283.35912
677.07219
560.19704
1344.4354
1565.2978
1049.4228
1806.2516
-9905.996
-9764.2101
-8832.312
-8412.672
-8832.4434
-8598.3396
-8669.3196
-8587.7615
-8683.7741
-8373.0818
-8579.701
-8157.9435
-8291.8132
-7996.3823
-7848.2345
-7750.9912
-7567.1959
-7375.9106
-7275.0852
-7106.1694
-6866.7345
-6826.683
-6589.6281
-6467.78
-6332.4933
-6212.5716
-6092.8749
-6045.1943
-5928.2981
-5889.8279
-5839.1808
-5854.5268
-5806.9708
-5926.5805
-5946.5411
-6080.4251
-6189.4355
-6363.2332
-6516.7444
-6750.3048
-6955.0697
-7268.1573
-7539.3578
-7856.5223
-8151.8855
-8523.5089
-8868.9764
-9235.6755
-9584.3122
-9965.4032
-10286.473
-10612.061
-10913.126
-11173.911
-11395.201
-11586.295
-11723.408
-11803.188
-11861.411
-11835.758
-11780.71
-11679.145
-11534.983
-11327.663
-11147.645
-10872.776
-10607.89
-10322.824
-10002.28
-9686.1986
-9358.0511
-8990.8005
-8700.2861
-8376.4084
-8137.7055
-7955.0028
-7554.216
-7325.9651
-6975.3129
-6726.2615
-6343.6935
-6118.2984
-5629.4908
-5343.2036
-4949.782
-4207.3941
-4181.5592
-2800.1789
-3066.6831
-1499.2838
-1642.812
-847.31611
-469.37421
909.52558
2884.8389
-15894.399
-15135.345
-12668.144
-13430.899
-13373.113
-13237.801
-13247.375
-13468.931
-13058.678
-13101.893
-12909.414
-12648.069
-12484.376
-12198.06
-11987.068
-11742.931
-11505.25
-11276.465
-11104.989
-10877.809
-10732.805
-10418.563
-10289.447
-10256.383
-10233.645
-10233.707
-10309.136
-10356.394
-10474.757
-10662.482
-10849.801
-11090.232
-11376.203
-11706.444
-11975.7
-12439.078
-12745.214
-13282.796
-13654.273
-14216.376
-14683.608
-15249.205
-15739.838
-16341.072
-16863.365
-17435.51
-17959.918
-18482.652
-18980.441
-19464.136
-19884.21
-20292.428
-20647.567
-20947.06
-21191.403
-21390.588
-21513.392
-21573.652
-21593.735
-21503.035
-21400.488
-21210.417
-20961.551
-20682.392
-20350.075
-19960.277
-19550.595
-19121.944
-18652.195
-18198.931
-17697.17
-17205.09
-16722.195
-15861.663
-14712.318
-14023.177
-13457.568
-13038.929
-12307.654
-12121.13
-11012.395
-11091.134
-9741.6496
-9719.2417
-8549.1398
-7918.5904
-7303.4717
-5705.9063
-5726.2267
-3445.9503
-3280.2514
-1792.9534
-225.49047
1591.7638
3756.909
-21483.783
-16599.782
-15654.687
-16262.171
-15929.689
-16497.417
-16350.318
-16546
-16273.484
-16277.278
-16078.089
-15844.093
-15531.504
-15385.593
-14994.007
-14810.912
-14518.045
-14338.481
-14102.703
-14085.003
-14070.23
-14373.754
-14285.214
-14396.579
-14486.681
-14670.421
-14828.426
-15081.366
-15376.051
-15719.437
-16076.121
-16556.224
-17023.725
-17565.653
-18119.972
-18776.91
-19390.065
-20099
-20765.255
-21523.922
-22230
-22997.122
-23719.241
-24495.118
-25201.837
-25940.021
-26629.714
-27315.575
-27938.818
-28543.875
-29075.894
-29570.235
-29991.812
-30349.448
-30627.5
-30846.334
-30970.141
-31021.747
-30995.866
-30882.985
-30704.679
-30433.769
-30119.38
-29719.388
-29312.027
-28804.682
-28289.847
-27704.002
-27111.238
-26458.668
-25785.176
-25181.434
-24375.055
-23568.956
-22656.891
-21781.363
-20588.108
-19764.899
-18917.041
-18071.566
-17324.807
-16288.702
-15489.342
-14421.798
-13342.993
-12391.389
-10951.172
-10003.101
-8382.3477
-6927.7921
-5519.932
-3260.9002
-1322.8842
1188.5514
5762.0371
-23700.541
-23243.118
-20735.463
-21027.117
-20698.14
-21295.745
-20964.502
-21223.493
-20813.328
-20806.805
-20371.142
-20052.134
-19722.548
-19278.831
-18931.365
-18528.205
-18250.662
-17870.164
-17699.562
-17455.981
-17405.612
-17281.18
-17586.192
-17861.267
-18076.558
-18350.533
-18709.38
-19152.742
-19625.031
-20168.609
-20841.092
-21503.621
-22291.947
-23135.431
-23959.328
-24927.044
-25791.033
-26824.703
-27761.004
-28820.945
-29777.537
-30845.872
-31808.336
-32835.876
-33772.007
-34708.53
-35593.81
-36428.031
-37188.73
-37914.1
-38539.883
-39101.637
-39577.324
-39967.01
-40256.121
-40472.929
-40574.346
-40585.825
-40521.233
-40343.556
-40083.958
-39751.698
-39320.123
-38830.964
-38285.838
-37672.844
-37008.43
-36322.554
-35583.051
-34767.472
-34037.774
-33121.078
-32285.466
-31414.744
-30432.453
-29908.118
-28860.157
-27732.556
-26639.02
-25545.002
-24270.636
-23075.107
-21676.949
-20335.22
-18729.041
-17429.912
-15379.91
-14184.658
-12014.221
-10170.18
-8558.4129
-5195.707
-2596.8049
2224.7608
7345.7075
-33716.223
-30301.972
-24979.184
-26254.052
-25332.473
-25966.494
-25840.836
-25561.327
-25557.837
-25176.092
-24824.173
-24402.671
-24094.749
-23504.74
-23169.039
-22786.613
-22409.192
-22142.825
-21905.719
-21808.201
-21725.963
-21798.899
-21735.3
-22107.187
-22317.507
-22768.675
-23302.364
-23889.952
-24551.588
-25346.256
-26174.462
-27037.062
-28091.823
-29139.729
-30233.178
-31447.869
-32575.301
-33843.85
-35046.463
-36310.774
-37536.57
-38793.498
-39972.365
-41177.382
-42295.31
-43403.644
-44438.519
-45408.386
-46304.721
-47134.449
-47854.791
-48494.466
-49034.671
-49468.315
-49792.417
-50021.574
-50120.989
-50129.515
-50028.94
-49808.082
-49511.423
-49094.96
-48603.668
-48008.287
-47358.72
-46643.356
-45865.352
-45032.345
-44151.44
-43196.402
-42194.913
-41185.656
-40116.988
-38995.597
-37791.563
-36675.777
-35407.784
-34168.798
-32766.869
-31362.865
-29888.493
-28321.662
-26693.964
-24969.338
-23228.626
-21288.124
-19359.475
-17462.741
-14910.625
-13255.487
-10106.692
-7603.7607
-4466.0252
-101.57977
5468.3111
-37315.278
-35252.514
-29203.896
-31193.418
-30949.273
-31043.717
-30788.685
-30810.232
-30365.923
-29879.217
-29372.074
-28736.002
-28148.836
-27500.292
-26978.682
-26397.658
-25953.727
-25508.929
-25215.444
-24996.694
-24852.892
-24838.144
-25043.1
-25335.082
-25744.453
-26275.128
-26927.2
-27661.179
-28613.22
-29577.735
-30666.95
-31802.601
-33054.831
-34380.909
-35827.242
-37386.852
-38796.732
-40418.252
-41885.131
-43505.667
-45016.777
-46580.649
-48059.64
-49535.022
-50927.089
-52270.16
-53512
-54688.196
-55746.405
-56717.722
-57555.224
-58291.653
-58891.722
-59374.025
-59713.5
-59936.949
-60020.356
-59981.107
-59814.897
-59534.279
-59137.112
-58635.035
-58039.511
-57323.679
-56524.887
-55638.703
-54646.427
-53736.81
-52789.536
-51602.644
-50582.247
-49362.306
-48112.074
-46889.106
-45498.822
-44113.487
-42649.116
-41121.554
-39511.202
-37885.22
-36103.063
-34279.004
-32311.489
-30332.143
-28086.165
-25962.414
-23550.095
-21154.758
-18533.517
-16353.161
-12682.264
-10976.332
-6721.09
-2224.4225
4944.0607
-49805.79
-34497.061
-33461.597
-35502.064
-34574.238
-34390.159
-34737.2
-34529.225
-33815.405
-33556.803
-32802.586
-32074.259
-31519.687
-30698.021
-30181.29
-29542.38
-29119.349
-28674.825
-28392.502
-28139.256
-28044.404
-28157.555
-28375.476
-28763.3
-29377.982
-29910.339
-30786.35
-31646.049
-32826.047
-34005.27
-35322.786
-36730.545
-38161.026
-39739.188
-41407.834
-43338.704
-44922.348
-46785.815
-48508.642
-50375.623
-52116.41
-53898.453
-55586.169
-57242.313
-58823.999
-60309.656
-61721.014
-63018.836
-64202.675
-65264.456
-66197.151
-66991.986
-67647.777
-68155.685
-68519.665
-68741.985
-68811.318
-68744.785
-68543.206
-68204.064
-67745.49
-67179.924
-66493.892
-65712.342
-64844.921
-63806.267
-62663.713
-61540.234
-60538.127
-59313.973
-58124.429
-56663.079
-55347.6
-53875.875
-52344.507
-50764.269
-49188.395
-47407.06
-45646.171
-43708.343
-41692.797
-39541.265
-37359.502
-34911.538
-32504.044
-29959.111
-27177.163
-24572.899
-21755.446
-19026.294
-15967.517
-14276.482
-10307.883
-7071.3118
51.326991
78435.438
79084.685
76123.785
80861.486
82106.015
83604.181
88178.183
86379.744
88120.509
87036.837
88247.155
86141.007
85239.97
88268.377
78632.734
69385.831
72846.092
68884.738
73767.736
74835.221
77852.082
76051.084
79849.554
80101.899
81556.694
80421.882
80562.495
80539.139
79546.219
71482.405
45276.792
55038.638
49802.447
53075.819
53152.087
54422.286
56067.2
56242.589
57366.763
57463.7
58161.551
59235.477
55986.606
62224.48
59705.895
42319.883
42631.253
42644.776
43995.265
46056.838
46766.792
47631.841
49229.713
49479.954
50659.795
50772.905
50740.192
49866.646
54330.531
41950.37
26145.067
30362.193
26796.643
30484.915
31166.966
31879.112
33545.552
33416.623
35617.269
35794.805
36482.929
37167.479
37079.105
38779.461
36217.493
16150.751
18024.46
18039.739
19260.115
20189.492
21258.088
22403.899
23244.234
23825.989
24682.759
25263.833
26066.389
26040.04
27699.771
26774.928
4688.1446
5377.0101
5246.9666
6508.3994
8090.8047
8495.0703
9636.7645
10908.781
11112.743
12863.919
13328.051
13338.083
14982.795
16321.308
15240.484
-5186.5468
-5876.5602
-4933.7667
-3862.3506
-2990.1793
-2421.5932
-1150.2637
-493.05916
307.93123
1361.0145
1959.01
2834.017
4471.0851
3708.6776
7847.4925
-18987.163
-19222.157
-18088.627
-17151.178
-16797.369
-15545.732
-15110.294
-13091.152
-13765.682
-9824.103
-10997.274
-9183.551
-6876.7509
-7698.318
-669.23783
-26268.29
-30326.152
-26350.144
-26942.897
-25640.155
-25721.988
-24126.945
-24134.293
-22906.718
-21763.906
-22103.288
-19821.93
-18234.348
-19765.48
-13144.843
-39446.134
-45980.548
-39316.016
-41578.805
-39776.533
-38446.089
-38423.253
-36353.755
-36969.246
-32798.366
-33300.8
-32642.787
-27663.08
-30493.032
-20632.376
-55381.528
-54544.624
-51840.285
-53132.704
-52338.058
-52970.131
-51415.21
-51925.498
-50257.187
-49112.516
-48975.367
-43617.326
-44528.328
-43792.343
-34374.578
-61220.855
-63923.498
-60557.089
-59116.35
-58154.096
-57563.503
-57349.589
-55970.552
-54959.465
-51874.306
-52560.067
-53114.736
-46342.072
-53770.774
-29074.87
-72441.982
-91180.485
-75799.824
-84834.226
-83841.991
-81876.397
-82011.549
-83756.174
-80628.068
-83878.57
-78014.429
-75503.999
-76456.977
-69201.553
-71914.872
-83038.179
-70004.552
-66587.254
-67794.912
-69861.462
-73288.992
-69617.55
-65621.653
-63209.455
-62218.764
-63947.428
-62833.31
-60391.43
-65759.121
-56093.668
-74537.241
-66361.172
-80707.498
-80529.362
-84116.664
-89250.45
-84425.113
-78431.162
-88436.885
-86355.713
-83250.401
-78058.337
-74399.589
-70862.943
-55081.049
-54742.7
-54161.16
-60879.57
-62397.855
-64348.888
-66445.072
-67811.998
-67555.293
-69228.154
-65850.565
-64339.278
-59945.19
-59411.914
-57916.618
-54517.993
-37436.778
-41960
-39838.201
-43322.632
-45007.238
-43063.302
-45248.065
-43516.7
-42857.449
-44197.65
-42012.21
-43070.502
-40658.286
-36130.102
-37633.285
-41214.379
-46678.213
-46887.804
-47897.173
-48112.255
-49434.117
-49502.438
-49696.955
-49561.035
-47797.781
-47219.716
-44578.857
-43970.279
-41902.018
-38695.505
-41647.914
-43656.78
-41283.351
-45015.106
-44363.885
-44642.379
-46215.294
-45002.676
-45515.246
-45144.316
-43448.023
-42528.386
-40381.074
-37865.363
-37131.742
-39542.57
-40836.915
-41885.6
-42873.73
-42441.432
-43559.485
-43034.832
-42680.714
-42148.809
-41114.584
-40627.426
-39475.579
-38444.776
-36974.583
-34528.456
-39149.269
-40665.407
-40447.821
-41905.824
-40972.842
-41381.39
-41558.028
-41299.662
-40962.064
-40348.274
-39159.832
-38184.687
-36889.467
-34830.61
-34547.085
-38680.841
-38895.526
-39306.664
-39959.062
-40301.051
-40220.911
-40276.182
-39926.761
-39540.031
-39007.718
-38306.529
-37099.568
-36371.427
-34498.161
-33745.698
-37597.944
-37751.419
-37932.518
-38055.343
-37257.871
-37471.054
-37205.327
-37000.736
-36409.06
-35944.409
-35002.408
-34447.428
-33628.568
-32545.021
-32518.255
-36728.441
-36551.985
-36716.859
-36747.926
-36825.928
-36636.515
-36570.763
-36201.164
-35714.269
-35322.085
-34867.085
-33987.778
-33273.506
-32288.175
-31854.73
-35889.662
-35506.134
-35590.999
-35258.834
-34810.536
-34618.313
-34334.548
-33911.927
-33401.695
-33252.448
-32384.114
-31867.416
-31246.907
-30688.577
-30096.832
-34846.102
-34366.27
-34098.939
-33781.808
-33498.992
-33246.036
-32895.061
-32458.519
-32105.004
-31591.924
-31046.226
-30538.69
-30114.865
-29367.656
-29385.684
-33929.512
-33311.324
-33192.869
-32758.15
-32449.14
-32094.478
-31614.482
-31345.319
-30905.607
-30488.291
-30044.439
-29735.456
-29039.011
-28945.249
-28281.559
-32910.768
-32360.19
-32249.084
-31392.61
-30980.744
-30628.387
-30361.024
-29784.1
-29433.148
-29040.086
-28629.676
-28129.047
-27915.842
-27442.089
-27564.852
-32174.061
-31365.881
-31084.52
-30547.426
-30222.38
-29763.223
-29411.281
-28777.397
-28642.493
-28267.865
-27744.707
-27661.183
-27097.309
-27204.405
-26642.327
-31310.654
-30692.715
-30405.233
-29631.109
-29237.156
-28782.042
-28454.025
-28057.844
-27640.399
-27302.199
-27091.921
-26817.615
-26705.53
-26353.679
-26491.369
-30801.271
-29843.909
-29630.278
-28903.675
-28535.158
-27959.042
-27743.246
-27221.274
-26958.617
-26669.803
-26312.959
-26137.387
-25939.77
-25745.759
-25768.396
-30123.88
-29373.383
-28901.011
-28338.226
-27829.898
-27414.576
-26919.56
-26554.506
-26367.769
-26084.083
-25908.995
-25693.323
-25468.455
-25736.417
-25668.056
-29834.839
-28910.904
-28691.13
-27870.005
-27525.492
-26943.682
-26634.411
-26424.295
-26189.311
-25973.146
-25731.894
-25549.852
-25410.064
-25461.571
-25503.868
-29498.574
-28610.195
-28173.8
-27535.887
-27173.74
-26636.098
-26508.165
-25885.064
-25750.85
-25499.493
-25255.39
-25378.055
-25244.063
-25443.661
-25451.912
-29320.957
-28464.383
-28161.972
-27382.242
-27048.735
-26621.374
-26413.383
-26118.698
-26050.766
-25723.783
-25791.727
-25590.888
-25613.674
-25827.581
-25856.258
-29257.313
-28702.572
-28240.607
-27642.524
-27301.502
-26838.171
-26552.769
-26263.95
-26091.041
-25917.265
-25834.901
-25854.724
-25861.202
-25897.488
-26279.811
-29599.619
-28604.869
-28401.843
-27757.282
-27522.636
-27034.413
-26923.37
-26641.796
-26597.526
-26432.389
-26477.647
-26377.341
-26524.505
-26755.976
-26770.003
-29817.894
-29307.241
-28909.347
-28418.576
-28023.42
-27637.705
-27417.033
-27169.762
-27176.472
-26925.432
-26881.263
-27072.646
-27195.309
-27326.863
-27609.975
-30502.846
-29731.896
-29449.375
-28903.426
-28679.772
-28315.992
-28327.934
-28050.44
-28058.953
-27948.822
-27932.74
-28061.069
-28290.675
-28394.924
-28700.313
-31113.345
-30404.282
-30192.811
-29698.246
-29531.129
-29323.796
-29148.043
-28941.258
-28975.23
-28922.92
-29062.307
-29145.864
-29088.844
-29640.417
-29717.916
-31991.32
-31368.047
-31285.308
-30878.296
-30635.159
-30449.861
-30331.514
-30269.801
-30263.662
-30252.182
-30318.825
-30494.086
-30707.586
-30846.113
-31324.361
-33076.447
-32407.211
-32199.596
-32025.335
-31907.846
-31656.357
-31660.431
-31589.943
-31693.058
-31644.518
-31828.201
-31858.716
-32036.779
-32502.11
-32594.222
-34215.265
-33823.266
-33711.131
-33295.198
-33267.402
-33139.807
-33182.059
-33135.175
-33232.635
-33266.63
-33381.569
-33622.114
-33836.629
-34166.866
-34428.677
-35707.243
-35040.936
-35104.005
-34866.806
-34960.148
-34682.011
-34861.626
-34819.678
-35044.16
-34998.7
-35145.826
-35376.646
-35520.588
-35933.134
-36194.345
-37220.396
-36696.137
-36780.079
-36545.36
-36662.083
-36505.289
-36659.463
-36663.373
-36930.971
-36943.568
-37117.821
-37314.694
-37458.464
-37874.182
-38154.852
-38918.383
-38304.248
-38556.793
-38330.751
-38475.377
-38472.626
-38603.11
-38665.066
-38791.361
-38924.558
-39085.722
-39365.893
-39519.532
-39999.956
-40238.267
-40609.913
-40140.185
-40396.488
-40204.072
-40534.782
-40452.49
-40695.25
-40713.791
-40987.391
-41088.003
-41291.172
-41534.911
-41710.574
-42119.774
-42413.378
-42474.34
-42049.815
-42327.992
-42279.637
-42559.651
-42608.949
-42807.819
-42927.039
-43148.24
-43335.376
-43498.272
-43783.97
-43962.583
-44328.963
-44684.366
-44262.409
-44069.468
-44394.215
-44260.202
-44680.724
-44813.442
-45006.623
-45223.073
-45391.343
-45643.207
-45765.5
-46120.79
-46166.044
-46741.9
-46816.469
-46109.477
-46207.477
-46360.515
-46687.913
-46830.788
-47090.131
-47329.962
-47496.469
-47786.191
-48060.615
-48187.626
-48502.481
-48669.983
-49069.471
-49467.88
-48450.244
-48132.215
-48657.825
-48726.762
-49294.012
-49292.338
-49734.114
-49801.98
-50178.161
-50373.175
-50515.937
-50847.683
-50940.33
-51317.115
-51594.89
-50405.695
-50375.852
-50756.966
-51066.871
-51338.047
-51698.237
-51899.583
-52206.72
-52449.55
-52680.523
-52815.793
-53225.882
-53271.005
-53716.278
-53864.716
-52562.579
-52376.582
-52962.566
-53188.308
-53691.002
-53876.69
-54290.282
-54479.079
-54782.779
-55027.922
-55199.107
-55552.557
-55601.465
-55979.551
-56188.086
-54601.11
-54569.965
-55119.667
-55481.488
-55891.434
-56234.792
-56571.962
-56803.892
-57117.046
-57358.393
-57486.19
-57861.603
-57875.391
-58261.921
-58406.944
-56658.58
-56630.416
-57261.002
-57583.087
-58105.337
-58386.334
-58776.021
-59006.325
-59331.482
-59561.129
-59694.461
-60064.443
-60058.84
-60391.706
-60542.486
-58698.522
-58706.833
-59331.457
-59749.209
-60244.875
-60574.393
-60972.31
-61205.622
-61532.124
-61756.994
-61877.429
-62238.568
-62195.931
-62502.947
-62624.705
-60636.122
-60672.061
-61353.437