/*--------------------------------*- C++ -*----------------------------------*\
  =========                 |
  \\      /  F ield         | OpenFOAM: The Open Source CFD Toolbox
   \\    /   O peration     | Website:  https://openfoam.org
    \\  /    A nd           | Version:  6
     \\/     M anipulation  |
\*---------------------------------------------------------------------------*/
FoamFile
{
    version     2.0;
    format      ascii;
    class       pointScalarField;
    location    "0.66";
    object      E;
}
// * * * * * * * * * * * * * * * * * * * * * * * * * * * * * * * * * * * * * //

dimensions      [1 -1 -2 0 0 0 0];

internalField   nonuniform List<scalar> 
625
(
18775.726
17439.778
16468.776
11387.779
17740.273
16034.165
12276.195
15852.58
4259.9611
2562.8468
11762.695
7331.7128
3955.3121
18505.933
24677.461
21334.127
21372.644
21572.381
20414.81
20494.891
19564.354
17251.928
15223.509
10973.506
6835.4441
1758.1192
-2996.3159
-7989.3709
-12239.103
-16043.892
-18795.899
-20469.467
-19542.92
-17264.773
-12282.278
-6696.165
4424.7631
26030.859
16690.272
19288.118
13792.428
8602.0593
6359.5014
1165.7563
-528.68772
-2166.4312
-2451.5206
-716.79433
1492.0317
5438.067
10061.749
15647.052
21446.421
27410.618
32614.007
36801.838
38570.126
37902.478
34625.262
23928.659
3794.1021
1142.2244
9182.927
32824.103
38942.333
22268.064
23251.261
19985.762
9951.6131
10339.901
5989.7154
4644.3149
3619.3947
3209.557
4957.3469
7065.6184
10891.611
15579.977
20553.111
26001.838
30610.544
33997.607
35301.637
34004.788
29976.818
25071.338
17051.93
4970.726
8056.7917
7365.212
1918.8209
-2954.5857
-6640.7228
-8988.3977
-9915.7092
-9959.4155
-8976.4921
-7399.4925
-5123.0131
-2675.2617
447.37437
3889.178
7531.2111
8636.11
11541.259
15103.873
15685.07
19186.575
18119.211
22078.939
23532.931
27285.858
13091.288
14721.474
14943.051
12807.05
12561.022
12742.733
11263.946
11962.439
11534.045
16206.062
16640.093
16546.915
9678.4021
7060.8958
7371.0693
5747.5993
3708.9513
2541.4253
427.48354
-1006.4601
-1437.6862
-1690.4267
-282.1496
1665.8759
4891.3892
8881.9927
13492.297
18160.425
22570.937
26185.395
28515.535
28892.78
28406.669
24556.94
18261.502
4083.8294
2794.2736
3333.5001
2018.2334
1829.62
1639.6006
707.29001
1322.682
1256.0764
2120.0675
3184.8284
4457.2677
6026.6089
7530.0553
8977.3787
10260.251
11283.238
11682.776
12154.188
10697.897
10098.286
8322.201
7939.0154
9868.6143
7370.5464
7467.8315
7377.6277
8592.8684
8769.2504
9454.1251
8904.6168
7943.3972
6446.6264
3918
1197.5341
-2168.7704
-5830.9479
-9807.5622
-13786.752
-17804.301
-20784.78
-23147.334
-22162.749
-18499.672
-11141.261
2179.2078
2464.2925
2846.026
2816.4077
1314.4972
958.61947
1698.9028
5289.8075
5538.6965
5850.1223
27267.276
28879.544
31025.931
32894.265
31006.332
31269.857
21463.204
18968.621
22042.786
17955.629
20145.932
19330.14
14996.78
12222.463
15379.191
9315.4658
9932.2159
9867.0415
6912.0501
5366.2551
8728.1933
3683.9674
1869.0847
4303.7079
1696.2309
1070.055
2715.3664
1762.4751
-312.10228
2100.0023
1740.3946
736.96298
2298.3198
4247.0106
2631.818
4398.3102
7296.3778
6198.8363
7622.3903
12098.422
10889.859
12035.814
17374.512
16542.619
17663.81
23386.528
22844.41
23668.021
29268.567
28900.114
29745.346
34438.2
34331.566
35224.898
38261.876
38160.555
39078.992
39721.583
39483.264
40471.26
37885.148
37938.551
38951.518
33551.058
33403.342
34270.415
25523.072
24775.89
26147.057
6885.9108
7576.1747
7692.6854
5042.6721
5022.8795
4214.0315
17752.611
18636.959
18210.802
24802.424
21382.955
22343.5
24952.895
21732.642
22974.758
24025.048
22688.608
22741.804
21910.552
19360.875
19238.404
22040.992
20429.757
20071.045
20410.448
17325.484
17318.103
19013.033
17812.967
16610.121
17500.639
14817.657
14455.051
14677.307
12855.789
12076.353
10335.236
8958.9975
8858.9992
6598.1893
5988.5498
5699.1645
2289.1352
1494.1885
2143.2417
-2534.0007
-2406.0364
-1505.1577
-6749.7625
-6527.9619
-5033.672
-10859.66
-10237.096
-8239.1018
-14160.125
-13394.781
-11006.786
-16586.732
-15738.466
-13018.564
-17600.268
-16864.575
-14078.675
-17080.237
-16867.22
-13771.315
-14246.442
-15354.725
-11983.723
-9139.2999
-10686.901
-8050.6866
-4479.7495
-4101.2775
-3095.6949
5623.3663
5848.1249
6209.0448
15251.498
13756.889
11838.06
10056.339
9540.3418
5347.2072
5073.5398
2379.3462
1402.661
510.77518
1869.0276
2980.8461
5506.6223
8885.4819
12919.368
17082.895
21015.446
24143.012
26097.149
26687.484
25453.401
22456.091
20637.999
1792.6602
7983.8648
2564.5507
5876.3096
5029.0879
5270.9842
6668.5739
6670.2983
7912.7497
7320.9164
7191.4811
6228.7641
4735.9327
3348.1176
1536.7549
-323.32923
-2092.7571
-3771.2843
-5006.0207
-5623.0364
-5388.4732
-3965.379
2813.161
12794.383
6073.776
10320.253
9731.191
10974.281
11193.396
10374.85
10274.308
7891.3435
6349.3788
3557.9186
326.95742
-3422.0556
-7631.4989
-12089.188
-16503.461
-20440.021
-23326.353
-24304.929
-22415.158
-17408.735
-8425.424
3890.4576
12068.208
11357.145
11509.59
11338.664
11434.918
11090.419
10193.038
10314.306
10317.615
8362.1084
8146.3801
7630.0205
7067.2117
6989.779
7030.0156
5001.486
4488.2561
4064.4522
2876.9065
2782.8443
2588.2693
1477.6084
1232.9739
894.27928
476.8172
71.907201
-270.6225
372.52908
319.91088
-239.02473
1468.133
1062.2038
396.55053
3260.88
3141.2964
2486.9621
6579.8434
6279.2794
5427.5076
10514.571
10228.089
9362.4951
15105.667
14817.404
13969.229
19720.4
19606.475
18777.193
24073.153
24088.336
23300.017
27468.191
27736.04
27016.193
29557.019
29939.758
29494.438
29003.147
31379.15
30113.052
28017.797
29303.464
28599.422
24666.464
25002.5
25022.496
19448.274
19933.482
20191.036
2781.7086
2609.7043
2142.5568
5303.1551
7360.9357
7349.4328
2981.5215
1600.4683
2132.8738
3262.7997
4302.3201
4748.9729
3604.2541
2594.3439
3190.5324
3552.4023
2800.6483
3430.5506
3732.7681
3464.4024
4093.0756
4685.2173
3664.5883
4004.7235
4694.6659
4371.3957
5060.1129
5456.0487
4901.542
5239.9902
5562.4112
5077.7126
5328.883
5634.6397
5294.7093
5468.6067
5689.9321
5369.8928
5176.9434
5480.965
5223.7097
4964.6969
5354.9607
5154.3474
4648.5029
5079.1455
4839.7272
4243.3394
4758.6317
4560.7151
3727.3691
4315.388
3863.3074
3167.1227
3966.1013
3430.2867
2587.2421
2956.7706
3138.0803
1949.9985
1355.4198
4887.2939
2333.3835
2327.7477
2045.9788
1703.4845
4789.4793
4306.0065
4052.825
10286.211
10604.329
11801.33
7417.3062
7489.1471
9253.8624
8009.5165
11340.799
11486.336
9003.3166
9546.8186
10437.309
8767.5002
11331.245
11506.884
9122.3285
10991.499
11350.578
9662.4485
10719.232
10730.944
8255.7091
9927.3244
10446.495
7570.8567
8673.6754
9065.5637
5580.5676
6726.0931
6988.0765
3215.7711
4033.3764
4598.4692
381.43997
851.02648
1503.9781
-3119.8617
-2967.4062
-1974.7223
-6861.6293
-7137.8977
-5974.155
-10861.501
-11596.867
-10162.739
-14861.502
-16002.495
-14417.5
-18488.474
-19961.311
-18301.961
-21209.639
-22956.276
-21230.354
-22611.708
-23977.797
-22548.03
-20822.565
-22824.477
-21481.982
-17502.489
-17863.249
-16964.786
-9499.8535
-9680.2553
-8681.6886
3183.3783
2962.3517
3572.5548
)
;

boundaryField
{
    free
    {
        type            zeroGradient;
    }
    fixed
    {
        type            zeroGradient;
    }
    freeTop
    {
        type            zeroGradient;
    }
}


// ************************************************************************* //
