/*--------------------------------*- C++ -*----------------------------------*\
  =========                 |
  \\      /  F ield         | OpenFOAM: The Open Source CFD Toolbox
   \\    /   O peration     | Website:  https://openfoam.org
    \\  /    A nd           | Version:  6
     \\/     M anipulation  |
\*---------------------------------------------------------------------------*/
FoamFile
{
    version     2.0;
    format      ascii;
    class       pointVectorField;
    location    "0.62";
    object      u;
}
// * * * * * * * * * * * * * * * * * * * * * * * * * * * * * * * * * * * * * //

dimensions      [0 1 0 0 0 0 0];

internalField   nonuniform List<vector> 
625
(
(0 0 0)
(0 0 0)
(2.312905 -0.23456192 0.052390991)
(2.1641431 -0.75769199 0.015871353)
(0 0 0)
(0 0 0)
(2.1907514 -0.78532289 0.013541335)
(2.3392367 -0.2624431 0.05131568)
(0 0 0)
(0 0 0)
(0 0 0)
(2.2751108 -0.36590982 0.042428487)
(2.2376674 -0.49587416 0.03385743)
(2.2011683 -0.62575747 0.024604115)
(0.0068947881 0.024229548 0.022810575)
(0.025402114 0.047841496 0.023008294)
(0.058260022 0.070779407 0.0243968)
(0.10516344 0.090617783 0.023634363)
(0.16119752 0.10600979 0.023956482)
(0.22941774 0.11818693 0.023599029)
(0.30572288 0.12606114 0.024013693)
(0.39033542 0.12949131 0.024331259)
(0.48257195 0.12949756 0.025243148)
(0.58084571 0.12509894 0.025900564)
(0.68522392 0.11729012 0.027224279)
(0.79442293 0.10561118 0.028656847)
(0.9081041 0.090646807 0.030327948)
(1.0255812 0.072412984 0.032190061)
(1.1464099 0.05118571 0.034182747)
(1.2699844 0.027201998 0.036310801)
(1.3961176 0.0008008076 0.038301216)
(1.5239369 -0.028080484 0.04061853)
(1.653842 -0.058875302 0.042371616)
(1.7843305 -0.091238318 0.04456201)
(1.9161527 -0.12552062 0.046581363)
(2.0482832 -0.1604798 0.048462731)
(2.1802785 -0.19686168 0.050932585)
(-0.0032640105 -0.019751009 -0.028569411)
(0.015179703 -0.042193389 -0.023285638)
(0.044948674 -0.068437993 -0.026425244)
(0.083798856 -0.092605612 -0.024012441)
(0.13201645 -0.11586661 -0.023688737)
(0.19150728 -0.14288756 -0.02227797)
(0.25747068 -0.16772652 -0.021721794)
(0.33260344 -0.19514963 -0.020330792)
(0.41443779 -0.22332361 -0.019468475)
(0.50327503 -0.25247419 -0.018025624)
(0.59798684 -0.28318225 -0.016645403)
(0.69833003 -0.31497616 -0.014946627)
(0.80363547 -0.34800016 -0.013169898)
(0.91332275 -0.38217429 -0.0111955)
(1.0270896 -0.41735006 -0.0090706393)
(1.1442953 -0.45345042 -0.0068460017)
(1.2646955 -0.49041037 -0.0044078988)
(1.3878148 -0.52790035 -0.0019725237)
(1.5132539 -0.56608723 0.00076451472)
(1.6408571 -0.60440555 0.0034553795)
(1.7699586 -0.64291848 0.0063264463)
(1.9004178 -0.6815493 0.0093981713)
(2.0316401 -0.71950431 0.012161617)
(0 0 0)
(0 0 0)
(0 0 0)
(0.0043364932 -0.012685668 0.01898372)
(0.020403381 -0.052232598 0.021736208)
(0.053774492 -0.067749646 0.016238729)
(0.092611653 -0.094325967 0.013682598)
(0.14500169 -0.12356909 0.012960485)
(0.20532863 -0.14702773 0.0091987829)
(0.27245808 -0.17590096 0.0090205886)
(0.3492538 -0.20481826 0.0067783732)
(0.43265524 -0.23484251 0.0057733017)
(0.5223758 -0.26623193 0.004895535)
(0.61814123 -0.29845315 0.0040870866)
(0.71932152 -0.33236274 0.0037175845)
(0.82530814 -0.36688393 0.0034873454)
(0.93580544 -0.40274062 0.0034833583)
(1.0502115 -0.4393543 0.0036927725)
(1.1681449 -0.47677575 0.0040822432)
(1.289164 -0.51487199 0.0046782753)
(1.4128389 -0.55342651 0.0054802351)
(1.5388067 -0.59226672 0.0064310895)
(1.6666918 -0.63132219 0.007642627)
(1.7960675 -0.67023174 0.0089714729)
(1.9267755 -0.70911055 0.010534947)
(2.0580754 -0.74706667 0.012352237)
(2.2280939 -0.65275989 0.023138415)
(2.2635473 -0.52357502 0.032858274)
(2.3012728 -0.39413611 0.042582946)
(2.2066506 -0.22472891 0.047987833)
(2.073938 -0.1880432 0.044925101)
(1.9414777 -0.15227222 0.041604538)
(1.8093764 -0.11759914 0.038169385)
(1.6779698 -0.084198181 0.034693747)
(1.5477094 -0.052640973 0.031080534)
(1.4189156 -0.02266283 0.027454914)
(1.2920363 0.0049654256 0.023789583)
(1.1674538 0.03043024 0.020093863)
(1.0456606 0.053168547 0.016452711)
(0.92713361 0.073072925 0.012868673)
(0.81243036 0.089845744 0.0093700751)
(0.70205518 0.10315337 0.0059896101)
(0.59680559 0.11312188 0.0027031778)
(0.49710423 0.11873116 -4.8449442e-05)
(0.40413673 0.12057257 -0.0033334012)
(0.31797439 0.11896122 -0.0061602804)
(0.24018844 0.11193756 -0.0084006536)
(0.17153553 0.10205488 -0.011611047)
(0.11194905 0.08615079 -0.013220589)
(0.065041525 0.070064146 -0.017394044)
(0.028392374 0.04565519 -0.017080363)
(0.013782661 0.022380664 -0.015369078)
(0 0 0)
(0 0 0)
(0 0 0)
(0 0 0)
(0 0 0)
(0 0 0)
(2.1703272 -0.76513847 0.014958415)
(2.1772345 -0.7719881 0.014930482)
(2.1834862 -0.77904876 0.014139067)
(2.3199808 -0.24113029 0.052147942)
(2.3266099 -0.24823231 0.051735885)
(2.3332301 -0.25502438 0.051543158)
(-0.0067800178 -0.010643753 0.013219587)
(0.0051884938 -0.01930474 0.010727351)
(0.029571612 -0.025407398 0.012327158)
(0.066640635 -0.029865197 0.012074605)
(0.1150075 -0.030759 0.01282572)
(0.17719346 -0.029304619 0.013095886)
(0.24951465 -0.02552956 0.013641872)
(0.3342219 -0.019590279 0.014313232)
(0.42895026 -0.012753745 0.015096372)
(0.53370103 -0.0062247419 0.016081869)
(0.64679242 -0.00065911689 0.017312866)
(0.76670079 0.0022153558 0.01874429)
(0.89205491 0.0015962214 0.020326397)
(1.0210349 -0.0036799035 0.022119965)
(1.1521292 -0.014463507 0.024018787)
(1.2838532 -0.031108742 0.025943816)
(1.4149857 -0.054374811 0.028046042)
(1.5445481 -0.083881726 0.030094979)
(1.6720484 -0.11952133 0.032164427)
(1.7967456 -0.16107337 0.034548687)
(1.9192322 -0.20739596 0.036492787)
(2.0392421 -0.25760844 0.038816996)
(2.1575083 -0.31127838 0.040899972)
(-0.0099657364 0.0035421242 0.0016647488)
(0.0098227659 0.0051123909 -0.00022962066)
(0.03995909 0.0065380313 0.00019525847)
(0.083266167 0.0053287491 0.00065468028)
(0.13766857 0.00084818436 0.00072448275)
(0.20129791 -0.005825212 0.0010538137)
(0.2739872 -0.015100342 0.0014871403)
(0.35478888 -0.027587447 0.0022124587)
(0.44247021 -0.0424627 0.0029931697)
(0.53694301 -0.060129892 0.0040974678)
(0.63694675 -0.080177095 0.0054246073)
(0.74230117 -0.102712 0.0069671773)
(0.85219085 -0.12738759 0.0087404903)
(0.96619278 -0.15413324 0.010716013)
(1.0837957 -0.18269837 0.01278018)
(1.2045577 -0.21301838 0.015041888)
(1.3281123 -0.24483548 0.017342891)
(1.4538989 -0.2780002 0.019697476)
(1.5819461 -0.31239332 0.022124411)
(1.7110526 -0.3478556 0.024514668)
(1.8420449 -0.38399413 0.026726592)
(1.9734461 -0.42106764 0.029389849)
(2.1059921 -0.45860005 0.03151286)
(-0.0076529114 0.012075783 -0.012074985)
(0.020227048 0.02290359 -0.013277713)
(0.056211435 0.02863138 -0.013283216)
(0.10674523 0.026933695 -0.012796547)
(0.16436682 0.018737291 -0.012304653)
(0.23024169 0.0052576198 -0.011384528)
(0.30181816 -0.016942336 -0.010276902)
(0.37789604 -0.044632085 -0.0091059792)
(0.45803973 -0.078677605 -0.007814956)
(0.54172491 -0.11782687 -0.0063016464)
(0.62882607 -0.16077319 -0.0047709692)
(0.71958519 -0.20649992 -0.0030620652)
(0.81430174 -0.25348812 -0.0012913812)
(0.91357665 -0.3004787 0.00054571668)
(1.0178887 -0.34643138 0.0025334919)
(1.1278457 -0.39012819 0.0045520873)
(1.2436566 -0.43096498 0.0067111683)
(1.3657151 -0.46845058 0.0089838346)
(1.4937061 -0.50205451 0.011238938)
(1.6274137 -0.53242112 0.013874433)
(1.7662308 -0.55920914 0.016254615)
(1.9088692 -0.58329423 0.018978788)
(2.0545872 -0.60518701 0.021686298)
(0 0 0)
(0 0 0)
(0 0 0)
(0 0 0)
(0 0 0)
(0 0 0)
(0 0 0)
(0 0 0)
(0 0 0)
(0.0077718671 -0.00822938 -0.012717869)
(0.011231631 -0.011086601 -0.0033046922)
(0.010259172 -0.0079742668 0.0061041873)
(0.028300224 -0.048509978 -0.013835979)
(0.029720956 -0.049589385 -0.0026874071)
(0.028593734 -0.048628759 0.010256822)
(0.055280653 -0.068438485 -0.015722106)
(0.059601177 -0.067925423 -0.0051482096)
(0.060328595 -0.072904184 0.0073396529)
(0.092926263 -0.093814639 -0.014429794)
(0.098245263 -0.096919114 -0.0050814875)
(0.097497992 -0.09603581 0.0053833502)
(0.14319631 -0.1201419 -0.01501804)
(0.14755548 -0.1216762 -0.0068702894)
(0.14878032 -0.12482133 0.0037814585)
(0.20039734 -0.14504854 -0.014832528)
(0.20599293 -0.14816597 -0.0065419084)
(0.20730246 -0.14914724 0.0023532397)
(0.26745426 -0.17193225 -0.014266082)
(0.27272444 -0.17500177 -0.0078733042)
(0.27500265 -0.17767399 0.0014541055)
(0.34219195 -0.19946313 -0.013977762)
(0.34761638 -0.20257849 -0.0076922179)
(0.35019807 -0.2052608 0.00024051038)
(0.42404922 -0.22770583 -0.013294058)
(0.42939123 -0.23190213 -0.0077442325)
(0.43260496 -0.23479373 -0.00039900235)
(0.51258635 -0.25777901 -0.012564233)
(0.51817234 -0.26210715 -0.0074999466)
(0.52194654 -0.2656276 -0.00078687652)
(0.6071429 -0.28870402 -0.011542741)
(0.61293607 -0.29352021 -0.0069834698)
(0.61689545 -0.29728515 -0.00097602468)
(0.70732235 -0.32111803 -0.010306333)
(0.71310959 -0.32613522 -0.0063166841)
(0.71754101 -0.33040686 -0.00085086758)
(0.81231182 -0.35445472 -0.0089602212)
(0.81834327 -0.35978747 -0.0053691142)
(0.82296213 -0.36452045 -0.00047906291)
(0.92186385 -0.38905449 -0.0074023244)
(0.92797187 -0.39458938 -0.0042102614)
(0.93283568 -0.3997034 3.7250101e-05)
(1.0353634 -0.42450721 -0.0056880289)
(1.0416059 -0.43028051 -0.0028981349)
(1.0466943 -0.43584068 0.00077268408)
(1.1524021 -0.46091233 -0.0038639912)
(1.1587931 -0.4668996 -0.0014321334)
(1.1640526 -0.4727578 0.0016704366)
(1.2726123 -0.49800119 -0.0018917731)
(1.2790615 -0.50416962 0.00022553663)
(1.2845668 -0.51034253 0.002717754)
(1.3954957 -0.5357045 0.00020918484)
(1.4021311 -0.54207904 0.0019457864)
(1.4077781 -0.54848983 0.0039521515)
(1.5208386 -0.57383091 0.0024138052)
(1.5274666 -0.58032595 0.0038735245)
(1.5333025 -0.58691211 0.0053042495)
(1.6481097 -0.61218798 0.0047946775)
(1.654804 -0.61882489 0.0058519426)
(1.6608291 -0.62558679 0.0068708648)
(1.7770049 -0.65062118 0.0072165421)
(1.7837184 -0.65738649 0.007987933)
(1.7899344 -0.66422636 0.0085325666)
(1.9071917 -0.68907442 0.0098195362)
(1.9140144 -0.69587935 0.010191921)
(1.9203233 -0.70289721 0.010379268)
(2.038468 -0.72713915 0.012323426)
(2.0450002 -0.73379509 0.012314284)
(2.0516694 -0.74071092 0.012302078)
(2.2821902 -0.37267526 0.042728865)
(2.2888478 -0.37966439 0.042533713)
(2.2952877 -0.38662959 0.042542754)
(2.2443541 -0.50281658 0.033817028)
(2.2510367 -0.50988918 0.033371298)
(2.2572959 -0.51656335 0.033082925)
(2.2078325 -0.63270489 0.024081433)
(2.2146354 -0.63968951 0.024049392)
(2.2210854 -0.64632854 0.023557912)
(0.017286056 0.019202423 0.010716374)
(0.01878874 0.021581028 0.0035458946)
(0.019867096 0.02137131 -0.0046877849)
(0.034123323 0.045158771 0.011439447)
(0.037422138 0.045365055 0.00187013)
(0.036233073 0.044545749 -0.0087010464)
(0.069454571 0.069303282 0.012955476)
(0.071290605 0.068688905 0.0044638979)
(0.072410182 0.069099505 -0.0075467574)
(0.11332025 0.087204468 0.013185501)
(0.11737509 0.086657041 0.0045870872)
(0.11782117 0.087060384 -0.0055966083)
(0.17115034 0.10382745 0.0145683)
(0.17559 0.10291004 0.0059242095)
(0.17605636 0.10219238 -0.0034528485)
(0.23860675 0.1149075 0.014704219)
(0.24198774 0.11303306 0.0078707015)
(0.24430746 0.1127522 -0.0016147812)
(0.31452987 0.12215794 0.016040745)
(0.31915914 0.12070927 0.008856276)
(0.32112524 0.1193955 0.00044698439)
(0.3994022 0.12556416 0.017027118)
(0.40381159 0.12340823 0.010559003)
(0.40622256 0.12214924 0.002811766)
(0.49095327 0.12523554 0.018652488)
(0.49567085 0.12218706 0.012233378)
(0.49889087 0.12060541 0.0051924562)
(0.58952402 0.12029394 0.019828471)
(0.59424573 0.11723675 0.014591769)
(0.59768159 0.11494534 0.0077677177)
(0.69343015 0.11194543 0.021743253)
(0.69845762 0.10860885 0.016410216)
(0.70231291 0.10606221 0.010480475)
(0.80253254 0.10005655 0.023641871)
(0.80779509 0.096180612 0.018845446)
(0.81206513 0.09309646 0.013527214)
(0.91607936 0.084721771 0.025761791)
(0.92156776 0.0803866 0.02137527)
(0.92611829 0.076905922 0.016595218)
(1.0334793 0.066162574 0.028010865)
(1.0391369 0.061475691 0.024087319)
(1.0440173 0.057512084 0.019799616)
(1.1542092 0.044745805 0.030392679)
(1.1600586 0.039600888 0.026845668)
(1.1652217 0.035211476 0.023090638)
(1.2777561 0.020468939 0.032775808)
(1.2837781 0.015049655 0.029729736)
(1.2891645 0.010272768 0.026421344)
(1.4037329 -0.0059810718 0.035290016)
(1.4098647 -0.011841597 0.032620013)
(1.4155296 -0.01712194 0.029756469)
(1.5316264 -0.035137646 0.037740676)
(1.5379407 -0.041180277 0.035439518)
(1.5437039 -0.046543778 0.033046685)
(1.6611529 -0.06566171 0.040102363)
(1.6674305 -0.07194737 0.038430513)
(1.6735151 -0.077986367 0.036330065)
(1.7916516 -0.098247265 0.042896293)
(1.7982967 -0.1049603 0.041052225)
(1.8044013 -0.11099293 0.039525775)
(1.923361 -0.13244968 0.045067473)
(1.9299039 -0.13923829 0.043879843)
(1.936092 -0.14550712 0.042647387)
(2.055155 -0.16757182 0.047326068)
(2.0617472 -0.17420859 0.046634087)
(2.0681562 -0.18088898 0.045703867)
(2.1877038 -0.20370872 0.0501126)
(2.1942115 -0.21062713 0.049359387)
(2.2007234 -0.21759797 0.048793007)
(-0.004483357 -0.016050055 -0.0092206816)
(0.010361163 -0.01712973 -0.010606683)
(0.034335543 -0.029413315 -0.0085146051)
(0.074444001 -0.033316097 -0.0085602222)
(0.12472738 -0.035981282 -0.0071613286)
(0.18754013 -0.036284418 -0.0056491391)
(0.26209968 -0.03353682 -0.0039139044)
(0.34754346 -0.029479139 -0.0018350357)
(0.44381883 -0.024467122 0.00015966695)
(0.5496852 -0.019625651 0.0028498875)
(0.66380293 -0.015993685 0.0052929515)
(0.78487088 -0.015029434 0.0082724423)
(0.91127499 -0.017380747 0.01121384)
(1.0412349 -0.024297068 0.014233629)
(1.1732907 -0.036500671 0.017303757)
(1.3058791 -0.054539968 0.020310417)
(1.4378223 -0.078763028 0.02326374)
(1.5681074 -0.10928128 0.026111802)
(1.6961023 -0.14576944 0.028938267)
(1.8215512 -0.18793407 0.031573596)
(1.9443859 -0.23479276 0.034301023)
(2.0647658 -0.28548978 0.036848988)
(2.1835725 -0.33931877 0.039621386)
(-0.0062992039 0.0038162391 0.00013364678)
(0.013422369 0.006137474 -0.00015815904)
(0.047008767 0.003360278 0.0018342574)
(0.091517288 0.0028067054 0.0011621084)
(0.14696497 -0.0029230081 0.0021040825)
(0.2126235 -0.010764191 0.0027748227)
(0.28642299 -0.021427626 0.0032392207)
(0.36860622 -0.035095595 0.0038337811)
(0.45793227 -0.051979278 0.0046076327)
(0.55365967 -0.071411442 0.0053620261)
(0.6551283 -0.093473924 0.0061346674)
(0.76184232 -0.1183142 0.0073072415)
(0.87293748 -0.14488488 0.0084267614)
(0.9881131 -0.17370778 0.0098840526)
(1.1067361 -0.20402271 0.011503118)
(1.2283805 -0.2359344 0.013311299)
(1.3526836 -0.26907102 0.015336046)
(1.4791214 -0.3034053 0.017508437)
(1.6074996 -0.33864079 0.019861264)
(1.7372913 -0.37478496 0.022267678)
(1.8682197 -0.41145813 0.024882832)
(1.9998158 -0.44885659 0.027424225)
(2.1327888 -0.48657683 0.030184062)
(-0.0057236238 0.013081467 0.010393288)
(0.027829505 0.027605277 0.0094016722)
(0.067115681 0.023292079 0.011034957)
(0.11772706 0.026748244 0.006956565)
(0.1788025 0.014208425 0.006990968)
(0.24563491 -0.0015277196 0.0055195564)
(0.31823484 -0.024194757 0.0044045362)
(0.39590102 -0.054900618 0.0042582228)
(0.47681373 -0.090108788 0.0038001492)
(0.56148968 -0.13118193 0.0039465033)
(0.64923648 -0.17565394 0.0043693895)
(0.74069149 -0.22282862 0.0050205707)
(0.83601344 -0.27112566 0.0059599525)
(0.93594663 -0.31942904 0.0070644446)
(1.0409133 -0.36654403 0.008343506)
(1.1514741 -0.41147169 0.009724869)
(1.2679991 -0.45349449 0.011207421)
(1.3905815 -0.49201431 0.012785055)
(1.5191564 -0.52684873 0.014394317)
(1.6532841 -0.55794902 0.016116798)
(1.7923064 -0.58549125 0.017890211)
(1.9353096 -0.61030482 0.019635291)
(2.0809678 -0.6322336 0.021642488)
(-0.00072923638 -0.01699504 0.0059149867)
(0.00010814198 -0.016267435 0.0026725131)
(0.0021067571 -0.016994235 -0.0031817624)
(0.014492018 -0.0197822 0.0051117672)
(0.018286405 -0.019783567 0.00022257829)
(0.016212014 -0.019514527 -0.0061594385)
(0.039470446 -0.028023314 0.0063377072)
(0.041503404 -0.029212116 0.0016667815)
(0.042020724 -0.029027227 -0.0042231846)
(0.075852684 -0.031667761 0.0066389195)
(0.080508114 -0.032360645 0.0014448955)
(0.080183037 -0.032740787 -0.0041510316)
(0.12520892 -0.033515254 0.0068934977)
(0.12948088 -0.035008032 0.0026148838)
(0.13016322 -0.035684167 -0.0029248237)
(0.18637803 -0.032602259 0.0078815646)
(0.19102877 -0.034273928 0.0033176043)
(0.19170173 -0.035000573 -0.0019227149)
(0.25887156 -0.029214872 0.0085723371)
(0.2638267 -0.030976546 0.0042189287)
(0.26561482 -0.032418166 -0.00019878419)
(0.34322924 -0.023624568 0.0094377121)
(0.34838763 -0.026344038 0.0056407198)
(0.35023667 -0.028146153 0.0010839954)
(0.43788421 -0.017726548 0.010638182)
(0.44312292 -0.020225762 0.0068568783)
(0.44559991 -0.022330086 0.0032820984)
(0.5423431 -0.011225544 0.011906526)
(0.54779102 -0.014387779 0.0085627912)
(0.55071939 -0.017439957 0.0052281538)
(0.65523766 -0.0062438247 0.013498617)
(0.66063979 -0.0098476869 0.01050989)
(0.66406242 -0.013099604 0.0076003237)
(0.77493504 -0.0036961796 0.015259603)
(0.78062313 -0.0075903654 0.012586935)
(0.78445073 -0.011680573 0.010158191)
(0.90013411 -0.0046150024 0.017211524)
(0.9058982 -0.0090048817 0.014885482)
(0.91008375 -0.013584467 0.012905935)
(1.0289359 -0.010193359 0.01934949)
(1.0348376 -0.014913263 0.017372999)
(1.0394043 -0.020035415 0.015691192)
(1.1598846 -0.021100189 0.021578769)
(1.1659074 -0.026218941 0.019896526)
(1.1707918 -0.031795586 0.018556793)
(1.2914699 -0.037967999 0.023872821)
(1.2975985 -0.04346819 0.022550298)
(1.3027559 -0.049397631 0.021396773)
(1.4224287 -0.06128195 0.026273309)
(1.4286786 -0.067004577 0.025114888)
(1.4341375 -0.073289591 0.024199174)
(1.5519303 -0.090822702 0.028571918)
(1.5582928 -0.09697103 0.02774372)
(1.5638545 -0.10333566 0.026924729)
(1.6791777 -0.12655431 0.031019043)
(1.6854797 -0.1327199 0.030282241)
(1.6914442 -0.13962618 0.029631956)
(1.8037075 -0.16800197 0.033451976)
(1.8104941 -0.17485319 0.032816128)
(1.816355 -0.18138263 0.032154034)
(1.9260252 -0.21444162 0.035583745)
(1.9329309 -0.22103137 0.035299694)
(1.9388194 -0.22789469 0.03476462)
(2.0460172 -0.26465784 0.038220983)
(2.0526088 -0.27130347 0.037822019)
(2.0588545 -0.27847072 0.037216435)
(2.1644325 -0.3180639 0.04050796)
(2.1709674 -0.32499683 0.040125777)
(2.1774314 -0.33203776 0.039844744)
(-0.0027543546 0.0022328814 0.00030963141)
(-0.0007447199 0.0030774554 -0.00098647294)
(0.0012091672 0.0032098772 -0.00046452776)
(0.018152737 0.004541899 -0.002061043)
(0.020782744 0.0055150856 -0.0019396725)
(0.019352706 0.004419241 -0.0014739117)
(0.050173862 0.0049264293 -0.0010768826)
(0.052555786 0.0046819041 0.00019440919)
(0.053743452 0.0038016042 6.8692187e-05)
(0.092315684 0.0025471041 -0.0013105325)
(0.09701284 0.002150648 -0.00075467338)
(0.096885231 0.0001370241 -7.9866718e-05)
(0.14726099 -0.0015046542 -0.00077398982)
(0.15106594 -0.0024165466 0.00067641963)
(0.15170531 -0.0038376171 0.00027102026)
(0.21030248 -0.0088143427 -0.00029653277)
(0.21482631 -0.010015765 0.00032760684)
(0.2163449 -0.012249076 0.0011511757)
(0.28301152 -0.018294096 -5.2212308e-05)
(0.28772251 -0.020151808 0.0013696228)
(0.28931096 -0.022853247 0.0014549031)
(0.36349314 -0.031254307 0.0010113635)
(0.36846432 -0.033463299 0.0019705213)
(0.37037003 -0.035918839 0.0023602276)
(0.45102302 -0.046287853 0.0017459138)
(0.45623006 -0.049093519 0.0027768634)
(0.45875285 -0.052388055 0.0030539909)
(0.54535321 -0.064452027 0.0029435208)
(0.55086382 -0.067882616 0.0040683073)
(0.55356615 -0.071298808 0.0041982152)
(0.64523794 -0.08499376 0.0043748653)
(0.65100235 -0.088968181 0.0053273097)
(0.65399748 -0.09268778 0.0051667581)
(0.75046771 -0.10795041 0.0059461857)
(0.75649514 -0.11252183 0.0068426191)
(0.7598285 -0.11652992 0.0065349717)
(0.86026299 -0.13302606 0.0078086569)
(0.86654708 -0.13822057 0.0085790104)
(0.87004586 -0.14248873 0.0080253391)
(0.97414968 -0.16020409 0.0097963119)
(0.98059952 -0.16590786 0.010440561)
(0.98446694 -0.17033158 0.0096627326)
(1.0916795 -0.18908417 0.011949623)
(1.0982985 -0.19520959 0.012454125)
(1.1024208 -0.19999406 0.01152127)
(1.2123354 -0.21970211 0.014220577)
(1.2190045 -0.22623901 0.014575303)
(1.2235573 -0.2311672 0.013509142)
(1.3357531 -0.25174249 0.016575689)
(1.3425706 -0.25843361 0.016783665)
(1.3473657 -0.2637674 0.015641769)
(1.4615687 -0.28498357 0.018985947)
(1.468232 -0.29205986 0.019058782)
(1.4735322 -0.29758148 0.017920905)
(1.5892388 -0.31963177 0.021438958)
(1.5960923 -0.32658144 0.021372306)
(1.6015707 -0.33251557 0.020326871)
(1.7186208 -0.35481298 0.023893781)
(1.7252425 -0.36241307 0.023784211)
(1.7311248 -0.36827482 0.022684922)
(1.849611 -0.39147584 0.026396066)
(1.8553262 -0.39806219 0.025809914)
(1.8621142 -0.40477362 0.025407956)
(1.9804371 -0.42833852 0.028872682)
(1.9872338 -0.4352858 0.028534354)
(1.9934484 -0.4419842 0.027890752)
(2.112927 -0.46557921 0.031175756)
(2.119647 -0.47280286 0.030867607)
(2.1261141 -0.47947646 0.030483237)
(0.0010358797 0.015089066 -0.0061517046)
(0.0014616513 0.015635801 -0.00070318994)
(0.0015220662 0.016139226 0.0042599981)
(0.032374694 0.02353325 -0.0083299339)
(0.035685608 0.026622724 -0.0012115411)
(0.033961803 0.024815737 0.0041725226)
(0.06781022 0.02661867 -0.0082423521)
(0.071956519 0.022803177 -0.0014850812)
(0.072489375 0.023112741 0.0045799846)
(0.11821335 0.023441873 -0.0083134043)
(0.12205349 0.02372482 -0.0022068411)
(0.12253156 0.022913577 0.0026644106)
(0.17529938 0.016263586 -0.0076592163)
(0.18017219 0.013218158 -0.0021533861)
(0.18145213 0.013211202 0.0024279805)
(0.24087882 0.00099899033 -0.0076098655)
(0.24581071 -0.0019103753 -0.0025077946)
(0.24724371 -0.0028580657 0.0014267587)
(0.31196029 -0.021150497 -0.0066230743)
(0.31706427 -0.024404742 -0.002007684)
(0.31917929 -0.024886739 0.0014365951)
(0.38783245 -0.049250431 -0.0058606292)
(0.39296777 -0.053161216 -0.0021717117)
(0.39574986 -0.054632161 0.0011055371)
(0.46766587 -0.083819665 -0.0049817273)
(0.47299864 -0.088007978 -0.0014373782)
(0.4762937 -0.089637805 0.0015343636)
(0.5510932 -0.1232469 -0.0037344099)
(0.55654476 -0.12782957 -0.00076836085)
(0.5602506 -0.12992187 0.001641324)
(0.63796063 -0.16650906 -0.0025458968)
(0.64340422 -0.17138042 1.480959e-05)
(0.6477109 -0.17402704 0.0022388368)
(0.72852538 -0.2125374 -0.0011493643)
(0.73406123 -0.21756611 0.0010893939)
(0.73875737 -0.22074514 0.0029574164)
(0.82305929 -0.25974399 0.00034956978)
(0.82861961 -0.26497426 0.002228005)
(0.83376511 -0.26874198 0.0038797267)
(0.92218288 -0.30705941 0.0019306774)
(0.92783744 -0.312351 0.0035512456)
(0.93328873 -0.3166634 0.0049865141)
(1.0263712 -0.35317724 0.0036791674)
(1.0320843 -0.3585631 0.0050040246)
(1.0378751 -0.3634645 0.0062885141)
(1.136146 -0.39711975 0.0054882797)
(1.1420192 -0.40266066 0.0066371569)
(1.1480053 -0.40802547 0.0077115472)
(1.2518732 -0.43816876 0.0074854957)
(1.2578474 -0.4437879 0.0083501744)
(1.2640289 -0.44961301 0.0093078524)
(1.3737048 -0.47570407 0.0095303897)
(1.3798533 -0.4815845 0.010250523)
(1.3861896 -0.4877759 0.011065569)
(1.5015405 -0.50959193 0.011713995)
(1.5078501 -0.51569693 0.012282721)
(1.5142148 -0.52204412 0.012843898)
(1.6350599 -0.53993458 0.014099439)
(1.6414012 -0.54602943 0.014347536)
(1.6479488 -0.55274907 0.014910744)
(1.773386 -0.56656643 0.016349976)
(1.7800445 -0.57312425 0.016681877)
(1.7865274 -0.57979209 0.016932683)
(1.9159319 -0.59065735 0.018967234)
(1.9224945 -0.59735035 0.019184132)
(1.9291894 -0.60429561 0.019218609)
(2.0612313 -0.61260435 0.021532222)
(2.0678776 -0.619034 0.021396308)
(2.074373 -0.62625045 0.021303108)
)
;

boundaryField
{
    free
    {
        type            calculated;
    }
    fixed
    {
        type            calculated;
    }
    traction
    {
        type            calculated;
    }
}


// ************************************************************************* //
