/*--------------------------------*- C++ -*----------------------------------*\
  =========                 |
  \\      /  F ield         | OpenFOAM: The Open Source CFD Toolbox
   \\    /   O peration     | Website:  https://openfoam.org
    \\  /    A nd           | Version:  6
     \\/     M anipulation  |
\*---------------------------------------------------------------------------*/
FoamFile
{
    version     2.0;
    format      ascii;
    class       pointScalarField;
    location    "0.9";
    object      p;
}
// * * * * * * * * * * * * * * * * * * * * * * * * * * * * * * * * * * * * * //

dimensions      [1 -1 -2 0 0 0 0];

internalField   nonuniform List<scalar> 
3969
(
-123004.92
338460.14
123.33269
84.286274
-248391.04
501323.26
137.68998
48.693195
-70227.359
-33857.519
10220.193
49920.211
70254.204
122608.16
107659.25
-78.714863
33.568491
-42.348519
33.981235
140.40462
167.69337
129.42645
-29530.788
-25539.766
-20028.259
-12320.449
-6305.1125
2591.9382
7587.3712
16858.125
22417.974
29031.475
35737.619
41744.94
46781.058
52683.002
57580.213
61732.999
65960.354
68562.021
71239.959
72059.099
72963.42
72394.739
71376.117
69381.971
66642.54
63083.804
59023.168
54597.284
49997.472
44715.434
39708.124
34579.742
29603.763
24916.096
20665.301
16810.238
13275.785
10513.24
7802.6814
5880.5274
4155.8569
2764.7038
1792.522
954.4806
415.70848
311.78158
-114.33109
59645.837
50760.005
47612.346
39431.394
35022.693
30887.428
20476.051
15679.657
5991.9447
-632.06055
-9217.4741
-16803.594
-22652.214
-29937.532
-35171.711
-40604.586
-45030.133
-48310.66
-51353.202
-53344.609
-53710.698
-54937.955
-53107.19
-52618.497
-49589.06
-47155.523
-43079.531
-39524.449
-35208.796
-31010.586
-27093.732
-22772.696
-18984.126
-15159.024
-11796.227
-8635.5199
-6028.7569
-3636.2142
-1692.6282
-157.35626
1015.1594
1583.0902
1883.5806
1806.0298
1619.017
1099.3335
555.09703
-151145.11
-107553.69
-22760.284
20764.017
76766.548
146645.11
99239.328
63899.082
61319.873
21136.867
37785.654
18416.946
16241.314
6642.6538
890.30219
-9872.3782
-7648.6446
-25205.74
-26244.774
-35783.282
-42813.602
-45093.192
-54156.447
-54268.233
-60163.718
-60788.59
-63011.7
-63237.456
-63475.282
-62180.919
-60641.081
-58139.564
-55763.105
-51740.57
-47090.094
-42865.097
-38144.951
-33082.16
-28385.533
-23783.062
-19354.712
-15459.418
-11847.174
-9164.8359
-6202.0738
-4292.2737
-2598.8481
-1239.323
-404.01803
316.06414
672.23165
808.56995
790.71765
546.66199
324.12221
232.16183
371.51023
-32.187097
240.89508
123.8517
-142.8306
32.303502
46.064354
-145.38913
67.512791
392.0594
1123.7998
2185.6375
3715.5259
5806.6724
8130.3308
10966.087
14783.646
18629.64
22585.785
27446.005
32294.98
37460.925
42785.189
47861.907
53004.928
57973.765
61912.996
66006.003
68858.657
71505.764
72677.159
73516.073
72300.42
71648.465
68313.359
65491.254
60749.245
54399.523
50736.443
44337.216
35147.372
30284.131
20127.824
14775.417
6675.2175
-2173.9298
-10106.703
-17324.739
-30156.002
-26873.583
-43831.825
-45089.563
-109648.47
-137113.07
-145508.06
-150191.84
-149560.17
-148362.38
-147986.32
292588.85
346219.73
365626.38
385637.05
351142.38
336429.77
291116.04
-431.11886
-476.53617
-545.44883
-374.1585
-246.22406
-44.335328
-127.22514
-66.332727
12.554236
127.31581
178.41123
333.09048
324.25221
66.718359
-16794.027
-11784.827
-8220.9724
-5101.7363
283.17366
3728.3798
10066.803
14887.34
19401.903
25433.925
30601.112
33778.92
40639.711
43628.036
47944.498
50664.902
53783.322
55520.337
57168.551
57943.269
58405.155
57752.238
56875.695
55256.328
53391.355
50523.993
47472.402
44153.93
40345.958
36393.971
32459.593
28374.504
24485.057
20776.793
17346.522
14189.494
11437.161
8986.2176
6960.4146
5415.1621
3878.3254
2880.6072
1886.0234
1278.9829
692.34941
375.421
-72.717281
-7184.5218
1476.6153
-898.41887
1953.099
6046.0999
8605.6032
10887.374
14739.105
17326.795
21210.592
22947.375
26480.563
28597.578
30656.073
33533.271
35071.461
37253.534
37977.011
39369.983
39632.969
39682.818
39239.063
38521.779
37582.331
36129.88
34608.425
32959.13
30487.363
28325.869
25745.51
23232.713
20552.363
18009.088
15522.383
13225.603
11141.735
9220.1664
7680.1879
6197.3927
5066.8107
3936.193
3094.928
2205.4312
1588.1032
873.5538
571.1448
-21.854555
6561.8885
9759.8409
5792.5239
8763.3902
11111.856
10098.17
12058.092
13134.16
14686.948
15315.758
17532.682
17829.035
19524.946
19819.819
21124.807
21443.505
22495.635
22459.98
23445.939
23033.025
23620.423
23239.942
23162.096
22396.472
21915.429
20874.932
19824.489
18689.592
17455.14
15944.592
14478.694
12844.808
11318.595
9774.8212
8415.0727
7109.16
5982.548
5086.5281
4152.7929
3553.5006
2817.6304
2348.9419
1697.6109
1331.9813
808.76185
516.78306
55.960742
11086.85
16821.291
14185.705
15648.97
15952.904
14642.666
13281.634
12639.602
10510.715
12788.225
8830.3387
10123.763
8304.9441
8406.5083
8041.3421
7399.7202
7171.6658
6538.797
6511.5425
5787.6073
5705.748
4933.7589
4535.1189
4479.5454
4695.7529
4601.3839
4820.3739
4887.7638
4918.3089
4854.5048
4824.6879
4615.4809
4430.624
4216.9501
3997.3905
3803.3094
3571.3401
3332.4029
3075.9939
2913.3436
2623.4663
2314.2567
1828.7341
1531.6369
903.05643
691.87766
168.91263
22219.672
25946.331
19394.332
20874.237
18305.329
15979.586
13781.902
11777.471
8732.569
7675.1607
2886.3517
2851.677
-1457.2631
-1735.9887
-4894.6656
-5655.0988
-7334.1844
-8521.6541
-9090.2299
-10219.738
-9773.141
-9560.3261
-8997.9573
-7733.3353
-7396.2077
-7156.1011
-5847.8267
-4917.3046
-3869.3193
-3019.3348
-2032.4945
-1409.4182
-630.12365
-85.864975
460.73117
941.30917
1270.337
1679.332
1296.5145
1451.9983
1557.5448
1578.1741
1399.7278
1277.0496
876.28353
692.62732
329.351
36098.04
34923.543
30111.492
28395.824
25730.691
21931.125
16849.393
13210.923
6738.7529
3312.193
-2942.2082
-6728.5204
-11006.641
-15142.669
-18528.261
-21295.22
-23983.707
-26019.798
-27406.054
-28856.603
-28415.435
-29059.243
-26952.25
-25836.054
-23813.243
-22431.218
-20430.877
-18402.843
-16122.025
-13942.673
-11859.483
-9724.674
-7782.1796
-5959.3239
-4272.1457
-2771.5811
-1462.6755
-334.8541
562.91393
1022.0962
1466.1264
1599.6156
1589.5414
1476.8241
1055.8881
844.92749
448.78628
53314.185
35373.314
35355.098
33867.158
27758.365
24006.678
15779.664
12441.513
2288.9017
-208.11496
-9604.0029
-15173.839
-20733.622
-25962.3
-30605.838
-34676.579
-38019.662
-40698.163
-43152.924
-43894.695
-45189.915
-44241.315
-44147.613
-42565.62
-40639.353
-38154.237
-35748.346
-32139.279
-28657.309
-25148.182
-21649.96
-18261.459
-14991.759
-12003.602
-9215.4388
-6715.6185
-4525.8752
-2677.2686
-1277.7077
65.603296
870.21589
1358.3934
1542.2857
1489.9284
1185.0892
891.00695
433.68228
-66077.536
-67661.564
-72839.862
-77480.894
-77047.926
-75648.605
-72913.846
-32947.507
-45850.478
-43964.32
-50257.222
-49693.343
-50452.211
-48575.501
3187.9504
-39.88744
-1939.0325
-9896.5737
-9882.1428
-12400.485
-16474.709
26799.814
31951.87
25219.73
21575.522
17063.231
11786.658
7219.1874
45220.774
45587.922
41728.309
35769.991
32671.004
25544.351
16023.328
84198.249
101125.02
89956.373
92500.415
88977.62
84338.85
82848.763
92579.323
74834.358
75782.308
77206.388
64649.078
62344.05
58063.6
107065.06
103100.32
107974.04
110103.98
111522.55
107547.44
85649.161
74123.765
89470.911
86052.101
83968.726
90548.669
78888.796
71525.694
38142.696
40389.036
41806.618
42849.932
38397.79
33168.318
40226.247
43924.22
50834.774
46435.893
47993.878
45365.05
43656.423
35292.432
35650.977
35230.343
31772.826
30347.834
28706.571
25571.395
25780.533
27439.802
26774.173
24401.545
23915.903
19674.798
18698.064
15741.102
20972.161
19251.49
18100.536
15410.439
13384.151
13161.911
10954.007
12246.229
10671.991
8974.5991
7157.6091
4945.9466
4253.0399
2808.1455
5277.2786
1995.4037
1625.1161
-1782.3625
-3498.7247
-5306.2878
-6497.3194
-3961.1667
-5485.2977
-7059.9439
-7858.6557
-9876.1034
-9643.1563
-11929.779
-11284.537
-14165.964
-13624.543
-16537.264
-17805.319
-19368.63
-20617.365
-18130.57
-20545.584
-21492.218
-23787.168
-24798.499
-24876.646
-26300.06
-27432.867
-27528.052
-28547.726
-30023.05
-30940.643
-31088.364
-33281.745
-32427.189
-33778.698
-35947.636
-37433.804
-37785.522
-37684.07
-38866.229
-39719.294
-40128.417
-41678.609
-41837.112
-42733.264
-42050.957
-43812.618
-44554.698
-45132.186
-47090.189
-47810.274
-48766.2
-47945.233
-49460.332
-49156.609
-49922.805
-51690.629
-51745.158
-52556.929
-51040.8
-52369.534
-52951.613
-53807.179
-55565.345
-55594.064
-56897.513
-55120.588
-56807.705
-55681.479
-56511.532
-58261.271
-57902.013
-59123.226
-56967.444
-58649.07
-57478.32
-58626.286
-60265.719
-59874.136
-61396.167
-59191.647
-61048.604
-58642.344
-59124.855
-61116.04
-60325.1
-61970.639
-59579.062
-61287.771
-58441.238
-59467.518
-61146.381
-60526.666
-62173.811
-59770.865
-61654.422
-57839.75
-58112.503
-60243.679
-59227.82
-60790.634
-58600.572
-60375.884
-55909.845
-56875.479
-58331.986
-57483.445
-59266.718
-57281.056
-59138.354
-53576.426
-54331.879
-55038.913
-55109.778
-56116.819
-54821.222
-56289.876
-49861.462
-51262.4
-51071.91
-52640.917
-52855.985
-52584.902
-53564.053
-46949.591
-47334.555
-47664.516
-48477.768
-48842.539
-48409.142
-49723.978
-42833.976
-43008.515
-43606.595
-44079.65
-44182.613
-44416.303
-44968.989
-38288.58
-38334.593
-38936.943
-39103.843
-39331.691
-39919.698
-40239.829
-33782.353
-33547.579
-34290.518
-34342.529
-34717.547
-35334.039
-35527.511
-28995.067
-28996.761
-29420.481
-29469.434
-29749.562
-30422.385
-30651.115
-24594.234
-24303.355
-24710.891
-24761.752
-25030.585
-25856.69
-26073.223
-20127.901
-19911.642
-20182.477
-20251.89
-20525.399
-21389.858
-21667.478
-16095.354
-15799.188
-16002.37
-16118.432
-16342.896
-17276.23
-17470.772
-12336.528
-12072.746
-12169.142
-12282.321
-12505.931
-13481.657
-13789.79
-9018.6411
-8720.607
-8788.3223
-8971.6859
-9263.1295
-9955.1436
-10473.095
-6205.0545
-5864.9901
-5909.1281
-5993.4812
-6329.3272
-7233.3645
-7529.3141
-3628.4047
-3568.515
-3454.4652
-3755.2785
-3906.4517
-4760.4474
-4915.5991
-1686.3786
-1475.5964
-1467.9566
-1688.4099
-1909.1519
-2697.658
-2940.6929
-209.064
-98.570692
-91.243417
-289.17655
-503.42791
-1232.1072
-1417.139
958.0619
944.16634
1010.9013
811.08212
562.93424
-68.842907
-234.2751
1583.5174
1463.054
1525.4513
1308.5454
1094.9196
560.71516
441.52031
1914.7999
1813.0117
1878.1683
1699.0726
1490.3116
1038.1861
921.48754
1819.6108
1684.2096
1664.4334
1514.8903
1314.1983
996.4065
925.15315
1623.2588
1499.2485
1496.2318
1402.1339
1243.3766
1034.6568
983.09414
1010.2645
856.47675
784.18064
721.07751
607.49747
552.62561
458.31047
567.41941
473.2524
394.10558
367.48911
355.87902
301.83035
472.80163
-244.2024
-289.56661
-93.370236
-1.8449834
149.06518
160.67312
212.93108
-100.1019
-64.76079
137.16884
175.84221
397.03113
409.66094
328.88758
-370.75313
-364.11118
-268.46456
-134.76849
30.965208
110.39068
48.140205
-238.55426
-243.61069
-194.00477
-147.30319
62.539976
112.6197
198.14512
-144.82528
-171.48493
-155.85134
-69.807053
191.24367
281.59624
290.29223
-136.18985
-264.16683
-368.2418
-200.95807
-52.560167
123.94963
28.642513
-80.233658
-164.96241
-251.8865
-119.4325
60.643428
126.55663
297.7266
-39920.042
-46969.196
-50414.516
-55461.217
-54918.175
-53596.002
-46088.063
-34924.753
-39628.712
-43297.138
-44053.67
-47249.218
-43265.368
-45949.67
-25677.561
-30172.724
-33020.081
-35230.322
-35691.541
-30576.469
-34699.988
-18141.117
-20102.516
-24221.549
-25654.804
-25135.985
-26493.288
-27016.841
-8455.6254
-11404.052
-13756.419
-14441.732
-17129.4
-13753.369
-18508.077
-2426.8983
-3227.9007
-5680.9072
-7136.8862
-8839.1177
-10332.981
-12667.791
6780.1958
5068.1909
2670.655
2461.0566
302.4209
-1238.2002
-630.72231
12611.263
11909.519
10819.323
7800.6992
7614.9512
6916.941
3664.6103
20667.504
21209.135
18835.339
16909.042
16181.011
15741.245
13323.92
28408.465
27123.668
24864.996
24471.359
23219.667
22028.967
20224.389
35152.138
33767.802
34001.831
32298.373
31299.83
30416.641
29188.369
40996.185
41352.11
39834.353
38802.165
37914.689
37160.006
35624.101
48267.785
46913.142
46685.012
45494.703
45012.967
43707.041
42089.05
53833.929
53134.514
52672.471
51830.736
50704.183
49999.941
48776.503
58518.405
58656.912
57688.505
57596.006
56541.725
55307.866
54492.036
63846.526
62652.811
62468.868
61691.158
61579.283
60252.333
59528.96
67479.91
67029.472
66758.328
66183.568
65763.44
64145.203
63765.981
70479.466
69762.088
69779.308
69187.301
68786.395
67223.804
66739.699
72684.367
72318.338
72446.12
71571.689
71447.474
69842.396
69704.841
74043.565
73441.811
73635.75
72841.911
72735.106
70903.269
70824.136
74813.02
73987.307
74484.064
73484.955
73543.447
71715.98
71782.037
74199.625
73435.024
74023.129
72980.735
72975.899
70860.382
71116.247
73109.649
72230.388
72978.828
71748.14
71760.038
69804.219
70281.438
70940.165
70135.609
70791.133
69430.254
69459.329
67358.63
67872.325
68213.476
67099.942
67975.115
66525.119
66605.794
64514.982
65190.892
64660.149
63278.599
64245.246
62677.561
62624.901
60679.529
61319.657
60318.839
59295.703
59925.662
58357.085
58321.359
56457.78
57208.025
55864.286
54489.714
55044.34
53645.508
53596.937
51904.626
52567.48
50533.34
49293.588
49989.966
48466.992
48275.99
46788.866
47364.916
45307.388
44217.342
44486.587
43170.494
42915.016
41768.18
42173.544
39997.95
38856.556
39086.073
37865.763
37561.24
36574.963
36888.687
34621.678
33610.046
33610.092
32547.72
32093.286
31434.45
31676.699
29495.462
28595.228
28502.719
27529.942
27078.049
26696.332
26795.776
24694.809
23879.503
23559.553
22751.613
22248.024
22023.186
21984.485
20274.647
19510.857
19144.623
18411.104
17923.972
17909.675
17790.483
16099.694
15584.706
15050.915
14439.711
14007.842
14042.424
14033.473
12812.769
12201.935
11411.449
11034.02
10472.28
10656.596
10701.503
9633.6032
9224.645
8545.8482
8188.2167
7660.3767
7721.8188
7783.5207
7006.33
6774.3525
5834.8717
5677.4164
5126.4187
5316.6
5254.6332
5016.7913
4758.6732
3956.8668
3821.2258
3225.5773
3436.0246
3387.1006
3255.7364
3114.713
2302.193
2218.9992
1675.7607
1943.881
1797.5233
2012.9679
1906.2237
1180.6174
1136.6711
655.92864
882.58944
740.30586
1167.0104
1061.1367
418.75984
445.45057
-10.669056
233.50698
58.017882
523.7703
466.25749
10.69645
48.470617
-270.83742
-46.274233
-277.67321
249.23158
205.60896
-79.292888
-82.86159
-352.87921
-260.62887
-374.20689
195.16352
221.14092
38.23901
73.584005
-51.030432
62.676476
18.450581
81.209032
172.94975
190.31145
183.3304
80.118989
94.789542
-31.889809
-39825.35
-27181.713
-20688.216
-18115.203
-11344.329
-7020.1474
-1506.5397
5059.1003
10900.477
18086.331
23182.75
29498.607
35477.661
39097.847
44529.494
48009.607
50824.829
53959.935
55620.771
57064.076
57605.802
57364.91
56466.799
55033.968
52835.414
50229.445
46839.35
43260.902
39591.446
35621.966
31634.101
27756.632
23865.041
20274.202
16842.266
13519.777
10380.154
8195.6416
6013.226
4257.1804
2878.3044
1774.0917
1047.9722
561.89415
296.38158
145.64324
-173.38665
-22905.492
-27072.522
-10267.671
-17229.368
-10185.051
-6160.9198
-1714.7276
1295.3985
9228.7444
10547.401
17563.602
21186.258
24680.69
29220.659
32529.518
35549.593
38621.898
40128.624
42298.611
42955.845
43792.527
43364.167
43006.157
41497.919
40002.983
37293.858
35592.553
32707.533
29868.877
26845.122
23853.946
20813.234
17901.536
15152.327
12376.618
10197.174
7986.6243
5873.0589
4345.0392
2968.9282
1948.9537
1116.6777
660.68441
383.96656
237.80916
238.02905
5.8691807
-8036.3284
-9740.4497
1487.5166
-8530.7508
182.03039
-1337.6089
3804.8856
3449.8484
7942.4355
7270.9802
12424.715
12100.991
16134.924
16010.77
18303.17
19832.855
20653.206
21861.615
22414.896
22819.503
22859.15
22809.986
22328.446
21716.013
20814.235
19735.219
18761.565
17247.066
15698.743
14354.999
12879.464
11489.761
10176.218
8795.7123
7534.2499
6342.825
5171.2352
4117.1381
3163.5274
2403.5509
1765.7946
1221.3814
967.26628
710.81385
570.21437
477.38526
157.04969
1601.7365
-1972.3208
1248.5845
-2885.3533
3306.6306
-1698.8121
2752.3983
2244.1847
2134.9261
3803.2419
3819.753
3493.9588
4805.3194
4672.0966
6625.8721
5872.6149
7158.9442
7058.0274
7702.6256
7452.2175
8030.9032
7812.558
7966.0301
7659.4309
7435.2132
6970.0879
6579.0731
6110.1478
5625.3914
5249.6923
4754.852
4471.5372
4005.2032
3613.8406
3173.0627
2730.5388
2234.6242
1788.0271
1344.2517
1038.764
728.06016
508.79343
476.31101
377.57318
471.92146
425.94988
337.14572
20205.658
10337.411
12490.008
3703.1085
12421.672
2480.6516
5777.2204
1457.1569
2563.9378
-187.48826
711.41206
-3748.8805
-2094.5487
-5206.4131
-5912.5731
-7267.4462
-8198.2986
-8875.2415
-9834.5705
-10123.285
-10408.537
-10616.415
-10581.964
-10593.713
-10132.85
-10000.04
-9107.5638
-8317.7842
-7476.0158
-6574.6086
-5614.482
-4615.2707
-3675.7069
-2760.0085
-2027.4763
-1376.0352
-854.23881
-488.34273
-186.37707
12.981141
158.51081
333.83415
428.29454
591.77185
641.41833
725.99162
358.54313
30305.94
25015.814
12134.289
13826.658
11013.423
6869.1219
5590.9379
887.02381
-1775.7818
-5776.0629
-9275.829
-14986.271
-16376.711
-21650.464
-21915.829
-26236.041
-26508.367
-29020.02
-29350.71
-30371.011
-30266.505
-30283.857
-29292.668
-27813.951
-25615.689
-23604.371
-21984.333
-20159.336
-18211.141
-16112.999
-14081.394
-11922.107
-9881.3887
-7983.3993
-6277.3474
-4813.44
-3524.7706
-2425.3345
-1706.5351
-1004.1501
-472.50456
-131.9037
250.6227
409.74796
630.31044
575.02174
455.24691
38151.509
25336.824
26447.219
16531.439
20940.63
11061.286
7569.4074
2425.5866
-5136.0289
-10040.989
-16606.615
-20168.587
-25711.254
-30083.836
-34752.945
-38014.378
-42320.64
-44089.782
-46968.141
-47788.698
-48884.363
-48602.37
-48262.727
-46780.463
-45611.404
-41844.371
-39335.519
-36380.824
-33130.37
-29872.433
-26359.603
-22762.784
-19382.642
-16049.358
-13099.182
-10378.087
-7833.5704
-6193.3147
-4407.7635
-2999.2689
-1995.9794
-1015.645
-429.91369
178.71682
431.22628
745.4712
300.42842
-41370.042
-42870.116
-52277.327
-53072.12
-57874.345
-57309.398
-52006.359
-21116.753
-30093.466
-33285.171
-37043.551
-36981.888
-33559.854
-36269.803
-16363.791
-17242.662
-26478.591
-26313.443
-26249.906
-30719.935
-28398.621
-7124.0632
-10994.285
-13367.087
-13700.264
-17122.737
-18949.651
-16975.514
-2179.0686
-4172.6558
-7168.4226
-8002.5562
-11809.551
-10846.026
-15416.314
3756.2102
1617.3746
-1193.0268
-2208.6444
-2407.4456
-6558.9784
-5516.9092
10763.13
7544.2172
7142.0697
6163.6693
2036.7095
4468.7071
13.499961
14646.947
14488.725
12968.086
9748.0772
10146.335
7591.5811
5246.6684
22851.285
20203.78
17090.324
19613.36
16578.393
14642.964
11985.283
26819.022
23356.407
25986.879
23175.482
21735.154
20121.224
19341.39
30975.469
32452.364
29889.803
28986.942
27293.061
26728.804
23244.917
37952.148
35100.004
34980.018
33811.287
33577.922
30993.601
29523.777
41601.326
40878.51
40118.4
40392.411
37305.187
37365.156
34588.037
45830.487
44170.724
45265.442
43454.118
42787.55
41432.408
39449.77
49953.628
48917.416
48638.495
47911.628
46387.106
46017.972
43856.693
53080.432
51594.387
52873.59
51538.566
50438.163
49439.854
47972.143
55327.103
55292.113
55046.859
54846.275
53115.817
52491.393
50719.883
57868.553
57196.817
57846.402
56850.083
55640.321
55132.345
53891.984
58809.68
59245.495
58749.844
58640.048
57194.786
56719.416
55049.814
60134.766
59977.312
60078.421
59752.873
58473.63
57995.289
56787.648
59427.667
60412.528
59975.95
59861.206
58450.273
58119.233
56675.917
59240.673
60253.205
59607.031
59463.789
58306.39
57884.036
56998.028
57780.281
59028.873
58031.721
58174.608
56842.698
56891.505
55509.231
55962.983
57432.868
56390.615
56422.829
55553.785
55230.466
54031.176
53334.084
55187.736
53491.679
54060.312
52722.537
52831.914
51656.312
50719.507
52334.448
51089.555
50859.737
50306.621
50025.16
49027.911
47823.53
48863.432
47476.092
47752.31
47040.672
46914.837
45852.41
44071.875
44975.845
44101.919
43911.14
43152.458
43053.007
42013.246
40207.768
41515.668
39852.143
39863.594
39335.769
39268.559
38328.372
36523.1
37092.577
35995.894
35806.933
35447.234
35181.109
34363.321
32390.932
32967.922
31735.213
31572.285
31132.609
31009.068
30237.25
28492.055
28805.89
27834.734
27478.229
27284.472
27085.332
26392.665
24674.62
24824.553
23783.152
23497.422
23300.388
23139.576
22417.137
21097.826
20982.154
20177.566
19761.085
19700.167
19389.305
18836.324
17656.409
17427.201
16635.09
16332.421
16159.537
16146.739
15547.51
14738.876
14233.463
13672.375
13132.859
13176.099
12789.722
12340.363
11884.506
11328.793
10742.682
10443.468
10294.723
10224.91
9868.69
9694.1461
8909.9146
8471.0409
7986.7109
7945.4788
7707.3246
7298.0109
7612.5643
6447.9655
6450.6195
5836.2434
5956.076
5716.5854
5417.7329
5834.3738
4928.0439
4799.6911
4236.0327
4248.7172
4034.543
3678.6649
4355.0463
3331.2197
3310.7526
2679.1354
2838.1799
2619.3818
2368.563
3249.4116
2414.0103
2382.2763
1907.671
1982.5929
1725.226
1512.4927
2163.2211
1367.4941
1409.3258
914.12892
983.33814
872.9419
717.88647
1526.5606
1008.2201
1001.4593
616.79284
713.09696
521.95061
380.55119
779.60742
403.72731
350.82998
130.20694
127.00995
64.534484
24.737696
368.15188
198.234
182.81619
43.085293
85.452936
73.609043
-70.692737
79.286401
-30.756846
-50.402715
-73.100564
17.63756
-50.3614
-32.668386
-10844.669
-17251.046
-21795.954
-24726.812
-29231.246
-29555.225
-29667.113
-8575.5163
-25020.982
-25836.382
-30208.773
-31544.491
-31015.74
-26073.446
-7291.9471
-8558.1662
-10653.743
-11427.791
-15563.076
-13625.057
-18790.632
-580.53343
-6194.1889
-8922.3602
-10602.233
-13334.616
-14634.195
-8421.6595
2094.918
-1549.6506
-3997.3621
-5533.1158
-8824.3796
-5023.115
-9842.8343
6564.1637
2692.6633
1615.2024
-953.6731
-2004.6688
-3494.8689
-4926.2496
9899.5552
7560.4045
5202.5005
3625.6665
1230.8371
1479.1484
103.7944
14480.324
11035.706
8985.118
7566.1979
6808.0649
4783.9813
2860.8618
17794.121
13946.032
13833.683
12978.614
10032.734
9741.4613
8272.3898
19633.849
18995.111
18182.907
15292.701
13977.539
13908.577
12353.433
24584.201
22673.954
20238.07
19478.583
19000.327
17945.035
15565.837
27975.275
24477.727
25122.144
23507.195
22740.8
20667.03
21062.862
29528.139
28696.294
28872.352
26370.853
26362.797
24987.349
24468.658
32728.843
31554.156
31470.439
29220.867
29748.426
28358.128
27241.374
34684.785
34611.836
34520.008
32766.138
33155.484
31562.044
30295.069
37083.823
36277.938
36659.741
34987.725
35074.149
34043.631
32437.296
38933.866
39128.186
39379.041
37460.525
37804.642
36950.748
35432.028
40367.906
40209.238
40262.735
38834.068
39156.903
38156.316
36574.213
41874.31
41850.385
42135.387
40800.85
40966.378
40172.185
38544.439
42086.328
42215.306
42547.048
41209.585
41395.065
40454.094
38870.836
42828.589
43002.803
43170.65
41964.342
42090.042
41292.447
39855.608
42754.859
42529.788
42718.508
41593.107
41751.692
40891.428
39340.94
42375.607
42080.607
42327.877
41380.978
41548.996
40433.561
39101.599
41479.215
40926.707
41314.355
40319.466
40303.45
39069.991
38009.086
40077.922
39753.187
39873.972
38949.307
39021.98
37601.831
36708.93
38427.676
37884.338
37637.369
37774.483
36835.685
35715.416
35330.908
35916.749
36081.773
35694.648
34706.446
34804.068
33157.413
32372.87
33823.286
33069.256
33303.602
32460.851
32297.18
30820.752
30216.262
31142.407
30703.165
30659.701
29738.658
29687.087
28101.609
27571.227
28307.038
27821.387
27467.477
26882.162
26508.151
25227.699
24678.401
25356.595
24973.865
24648.983
23998.581
23663.772
22437.866
22000.783
22362.897
22074.177
21473.968
21044.579
20573.593
19572.597
19147.057
19548.84
19223.974
18607.608
18209.925
17719.201
16774.233
16417.759
16669.396
16436.499
15668.038
15447.075
14864.786
14112.451
13939.359
14151.947
13897.802
13141.01
12912.328
12328.368
11699.208
11591.979
11665.914
11515.962
10662.576
10594.721
9910.176
9499.554
9228.8503
9595.8985
9384.7404
8594.2838
8413.325
7865.3851
7403.4928
7344.8901
7728.4325
7663.6439
6688.1666
6696.6603
6010.959
5729.1273
5637.2889
6137.2771
5890.8198
5157.2956
5116.0445
4485.0734
4323.2705
4139.3645
4752.4544
4677.3954
3827.5722
3757.5861
3233.1052
2969.8566
2867.7384
3721.382
3463.5152
2784.23
2825.7226
2263.6624
2109.9212
1993.2733
2629.5838
2567.631
1886.5337
1929.1201
1389.2221
1341.9311
1217.8984
2031.7985
1861.9519
1313.4149
1343.116
910.57868
885.82533
700.25482
1298.3475
1228.6356
710.87479
859.42376
467.28455
499.90651
370.66278
879.36247
758.82576
501.25583
579.33198
249.98527
347.36899
255.75512
451.93978
478.884
191.70792
308.31756
156.84874
282.47587
151.98463
115.88639
-91.494047
-61.548648
23.321792
24.24126
-53.927993
43.448857
4335.5021
4304.7336
590.90007
-2548.9722
-6404.2974
-8856.4679
-10356.684
2474.6666
-4053.8839
-3447.3289
-9035.5071
-9529.5744
-8218.6554
-12172.771
2483.007
7233.7586
5482.8048
2542.1527
2008.9953
240.47928
-6834.1205
9391.2688
4819.2271
1801.7997
-1422.2988
-3583.107
-4633.5939
-2925.0096
8494.9447
6954.2547
6823.2706
5653.528
1899.6591
5867.7119
-5849.9373
9327.749
8280.7095
7035.8651
4108.7726
5339.3328
141.19312
-630.82052
13978.676
10572.3
10067.902
9211.2793
6355.7818
7440.439
2991.2665
13728.55
10261.688
11824.867
8092.0822
8024.435
6176.6518
3450.8241
15091.021
14567.838
13732.083
12589.508
10978.219
10423.428
7349.7294
18215.554
14471.005
14830.964
12042.612
12725.156
10154.141
8890.7132
18787.793
17388.979
15980.207
15910.849
14633.675
13736.906
10886.194
19279.761
17764.971
17995.34
16468.426
16628.814
13626.054
13653.359
20820.759
20855.659
18461.707
18568.546
16583.704
16760.335
14481.89
22572.86
20929.102
20657.151
19255.008
20182.968
16736.06
17081.278
22966.23
22916.019
20241.702
21557.412
19785.727
18079.509
18330.849
24216.681
23210.296
22918.428
21502.358
21644.914
19366.786
20444.434
23671.255
24934.161
22267.006
22806.582
22072.436
20204.703
20527.91
25265.921
24559.991
23588.409
23268.48
23171.341
20851.138
22111.052
24221.635
25495.079
23490.581
23850.837
23091.049
21306.031
22076.262
25032.728
25467.069
23879.717
23751.526
23537.21
21534.097
23009.659
24343.351
25479.05
23404.636
23820.583
23157.601
21688.465
22563.426
24167.151
24981.322
23325.176
23470.153
23186.505
21312.343
22646.149
23475.846
24441.042
22577.783
23157.752
22086.235
20944.845
21965.643
22800.928
23526.054
22128.907
22072.572
21383.908
20329.705
21250.613
21910.372
22626.049
20907.755
21190.479
20217.663
19628.691
20310.712
21030.116
21084.497
20142.976
19769.367
19031.068
18521.134
18851.263
19815.276
20204.546
18628.081
18915.365
17496.386
17552.709
17605.686
18682.575
19073.824
17377.224
17449.323
16479.762
16215.799
16525.397
17229.088
17452.44
15875.101
15962.831
14829.589
14685.81
14984.914
15964.321
15900.725
14551.151
14534.785
13525.175
13451.753
13512.861
14460.785
14431.152
13005.584
13143.002
11950.431
12092.917
12017.86
13135.39
12878.854
11668.532
11697.896
10606.693
10810.839
10451.705
11676.553
11378.126
10198.599
10312.445
9207.8643
9491.5246
9089.6693
10395.199
9937.3389
8971.6684
9047.1182
7962.4616
8357.0986
7776.3304
9086.4614
8567.6973
7733.9145
7776.9568
6768.1622
7195.2929
6457.3572
7928.5377
7346.8014
6611.2597
6616.908
5730.6183
6058.7925
5382.572
6907.7822
6158.6485
5615.7781
5585.9839
4789.0511
5032.5735
4384.1535
5853.1875
5210.9617
4702.8049
4709.582
3868.3025
4218.658
3434.0431
5032.5508
4191.4197
3920.1699
3719.8665
3156.77
3368.9717
2610.2801
4278.6782
3534.9451
3323.0811
3173.4734
2582.2757
2681.1313
1973.593
3487.6544
2601.4672
2671.4941
2283.9124
1952.1241
2015.9488
1480.1111
2856.7708
2334.845
2285.1044
1971.3463
1674.9329
1653.5836
1093.3758
2235.3127
1587.029
1667.8341
1353.9777
1183.7421
1143.2044
786.83161
1649.6847
1329.3022
1408.3255
1202.7225
1003.4581
1013.3928
706.15734
1103.4086
870.15326
956.2588
740.48922
649.42281
713.38372
453.74543
652.83158
570.82684
540.90798
520.44378
480.72807
556.31238
349.38844
106.50799
-47.723987
105.04043
118.20673
225.2259
218.21643
304.99016
23832.247
18952.866
15186.335
13967.016
11565.363
7748.0295
4040.8855
18762.047
15695.249
14642.344
11205.746
10201.51
5487.3491
5678.5864
16140.366
16018.059
13894.084
12017.703
11246.732
5229.5019
2906.3586
16749.527
12881.233
8725.7645
7469.3817
4975.4314
2198.7663
3855.8405
12400.586
9016.5229
9663.1462
7004.8659
7281.491
5192.7373
55.541075
13402.751
12511.346
10840.432
8315.2716
5297.3068
4202.6943
4347.584
13815.934
8214.9291
9135.5771
4681.4933
4638.6869
4138.1226
956.52712
12945.825
11831.949
8305.8186
7917.5856
5695.377
4352.2651
2715.4581
14589.909
8350.455
8496.6232
6804.1604
4430.1791
4407.6889
3214.1467
11021.475
9081.5453
8177.2286
6051.1606
4832.0494
4666.9092
2366.5099
11394.792
9161.3519
8126.0663
6948.8988
5563.1655
5015.5716
3365.0677
10909.616
8331.0102
6959.2779
6086.2898
4566.5924
4823.7884
3733.9209
10635.771
8270.1652
7559.1598
7032.3858
5586.0489
6304.3136
2877.0323
9400.266
7426.4988
7425.4199
5968.2963
5728.4195
4288.2479
4199.5485
9316.1945
8032.7859
6771.9209
6677.7746
4686.0085
5755.9619
4142.2317
8265.7025
6893.5187
6734.5809
5736.0693
4890.1789
5182.1931
3918.3843
8502.8608
7358.2873
6486.716
6815.2442
4952.5217
5877.8319
4348.6683
7814.795
6346.4186
6533.3675
6214.3371
4595.1455
5312.1203
3982.1891
7595.843
7298.7586
6509.9472
6727.9246
4822.6936
6033.8435
4615.206
7590.9395
6574.8525
6121.31
6229.8828
4586.0282
5773.2386
4037.8017
7244.1204
7078.836
6178.2646
6796.4798
5057.7117
6099.0293
4401.7273
7478.4626
6844.1319
6074.6226
6569.9368
4642.1446
5810.2588
4148.2723
7019.2512
7217.288
6318.5763
6540.5574
4938.179
6095.9839
4378.781
7439.3179
7040.5743
6343.6823
6291.5068
5162.6006
5968.0205
4232.3205
7175.9416
7170.9238
6507.4368
6361.6348
5573.6307
5821.2278
4138.3082
7178.4527
7444.9611
6590.6442
6405.8408
5753.478
5536.074
4226.9648
7398.3392
7380.3605
6612.9149
6302.6123
5682.3074
5572.2212
3958.5453
7234.6396
7019.9199
6555.5977
6055.8745
5546.7358
5357.5323
3660.2797
7132.9575
6963.5608
6529.7297
6073.7629
5591.1118
5230.0195
3583.6353
6860.6192
6727.8625
6324.3669
5771.1894
5276.7012
5010.717
3356.8733
6625.3691
6509.3446
6155.371
5574.7763
5160.1641
4788.2145
3168.2919
6253.2503
6138.657
5744.8824
5266.0477
4762.5292
4498.7028
2842.0329
5943.1756
5792.9215
5486.5788
4982.9022
4498.4468
4211.7304
2718.0734
5511.327
5381.5747
5034.329
4598.1701
4079.221
3879.876