/*--------------------------------*- C++ -*----------------------------------*\
  =========                 |
  \\      /  F ield         | OpenFOAM: The Open Source CFD Toolbox
   \\    /   O peration     | Website:  https://openfoam.org
    \\  /    A nd           | Version:  6
     \\/     M anipulation  |
\*---------------------------------------------------------------------------*/
FoamFile
{
    version     2.0;
    format      ascii;
    class       pointScalarField;
    location    "1.24";
    object      E;
}
// * * * * * * * * * * * * * * * * * * * * * * * * * * * * * * * * * * * * * //

dimensions      [1 -1 -2 0 0 0 0];

internalField   nonuniform List<scalar> 
625
(
28000.279
24272.912
-685317.59
-312051.43
26571.922
26727.243
-474009.67
-1023882.5
8916.9432
3116.2223
15346.345
-366233.85
-358453.38
-264263.23
40171.878
35152.955
33618.318
33064.569
28194.35
26847.888
23696.095
20311.722
18545.079
15610.436
13440.212
11401.69
9321.652
7876.6786
6654.7478
5488.0634
5619.725
5022.2316
5668.6772
5865.2205
6571.684
7160.1834
9798.2281
33339.907
20160.842
29069.526
24271.741
20456.073
22879.556
15311.058
15503.289
13079.598
10283.797
9665.4434
7164.9098
6326.7022
5031.1375
4328.0303
3616.4002
3531
3306.8934
4133.1038
3577.7554
5970.4312
5386.5469
7499.7169
7868.5633
2595.9711
14349.364
51653.848
58175.83
35610.18
43416.949
46200.08
27584.939
33378.257
25219.957
24761.437
21738.315
17110.35
15678.333
11886.704
9819.0851
7517.0757
5519.1176
4018.8914
2799.735
1600.8432
1160.4886
723.67084
654.37706
-2864.428
-708995.06
-781176.04
-753320.24
3766.3283
2927.0231
4284.5574
3376.8277
2829.1811
2525.69
2174.2941
2604.8118
3073.6022
4297.9267
5098.739
7516.7822
8773.8284
12215.346
13585.719
15486.872
19577.892
21699.438
26347.363
26103.943
34801.426
31098.342
38765.421
24385.772
23278.064
22910.683
18750.14
18738.119
19471.583
-353521.59
-353187.46
-354607.51
-769205.52
-770345.08
-769823.64
17953.63
14245.789
14450.197
13667.868
11541.597
11583.167
9744.2124
8767.9154
8359.7634
6898.3514
6530.8192
5672.272
5186.3715
5136.3975
4726.424
5107.3547
5215.7673
5569.217
6929.5286
7163.5558
8701.9145
10430.424
13254.713
5187.092
3681.6926
5312.5937
3828.9577
4389.0865
4989.7525
3388.0596
4781.9007
3710.1262
4223.3363
4305.9292
4548.1058
4924.236
5310.3276
5745.7499
6412.9122
6994.66
7876.1117
8714.3534
9010.9427
11673.553
10678.906
16301.585
10824.674
8681.535
8728.323
6897.7195
7986.2238
5924.7927
6516.4749
5655.2227
5294.3829
5579.248
4677.8903
5161.7755
4951.0277
5248.944
5415.7029
6151.0606
6364.8968
7553.3161
7734.6486
9869.1301
9536.133
12279.894
14354.567
5891.3033
5712.825
5092.0989
1643.2667
1349.4627
2783.0249
7055.1795
7815.4305
8503.0533
39461.146
41981.735
46045.382
45025.867
43485.617
45685.854
32585.626
29810.585
36396.132
32458.962
36769.205
36197.17
32212.904
28373.853
35367.323
26711.052
26952.166
29044.34
25359.744
24778.898
29897.394
22276.117
18812.911
24552.428
20042.796
18701.658
21566.702
19004.372
14154.431
19659.856
15243.624
12748.154
16144.927
14333.007
10136.414
14149.138
11673.834
8097.3562
11833.735
10379.532
6375.6635
9616.6467
8851.7682
4848.9289
8029.61
7657.7797
3739.4378
6498.7416
6703.1521
2910.0069
5269.866
6034.1198
2396.0976
4452.1131
5540.4483
2278.7273
3772.0961
4960.2371
1984.4297
3112.5152
5243.7467
2792.5554
3365.0526
5361.323
3568.3554
3333.7386
3678.4742
2239.0931
3202.2914
-496687.14
-495026.85
-495279.68
-440741.82
-485893.77
-485920.34
-510188.66
-469907.41
-470048.82
39360.483
34811.984
33084.165
37904.801
34154.006
34611.822
37559.816
32985.179
32399.134
33011.994
28858.574
28372.687
30672.181
28281.102
26631.391
27851.012
23290.871
23294.11
24800.29
22171.381
20807.778
22506.875
19064.41
18991.379
20079.226
16332.813
15672.148
16791.825
14729.994
13190.228
14943.372
12689.686
11309.203
12656.218
10559.667
9436.4312
10513.688
8897.961
7829.4508
9103.2703
7523.0412
6492.9006
7515.8223
6328.9462
5626.2835
6572.9711
5633.6798
4867.5201
6137.839
5181.8461
4678.4527
5730.4469
5139.3037
4644.6385
6093.2378
5574.4066
5094.4376
6412.221
6128.9688
5560.7317
7270.7231
6316.7384
6314.752
4482.5778
4986.5505
5273.5882
6597.0135
4967.206
4816.9328
23181.203
21922.207
19064.742
18541.276
17121.827
14827.551
15698.653
12257.07
11932.625
11536.216
10279.034
9231.3048
8594.3183
7989.5973
7480.5439
7231.9974
6910.9129
7101.2107
6959.9781
7397.2432
8225.3254
9245.8106
13189.871
2872.7403
11122.644
1488.2871
7564.1596
4283.3229
4614.1683
5178.2633
3643.3983
4965.437
3752.0655
4300.9305
4281.4669
4425.761
5016.1502
5410.283
6049.7833
6935.7161
7839.2662
8889.2773
10149.587
11913.308
11080.586
17364.905
19279.153
8174.5397
11537.999
11135.74
10140.655
11017.892
8696.0785
10135.149
6848.6465
7736.7805
6344.8957
6101.3137
5562.1519
5416.8658
5177.8559
5338.1918
5654.5998
6144.7638
6960.8622
8247.4638
8731.4219
11819.48
11360.89
21522.646
18873.824
18203.008
20292.021
19722.674
18189.11
18250.022
17282.393
15571.549
17402.696
16140.279
15391.732
16415.822
15529.204
14455.826
15312.851
13634.136
11838.762
14141.124
13093.83
12640.805
13169.775
12211.099
10206.057
11841.025
10821.895
9700.4311
10998.008
9877.7959
8818.3661
10564.511
9370.0223
8212.4351
9296.1169
8543.4418
7398.3252
8930.4411
8143.8704
6955.3124
8357.5057
7551.8429
6568.5903
7813.1528
7240.0028
6396.339
7857.1396
7179.5705
6283.1346
7359.036
6962.8617
6388.1271
7777.9747
7292.3799
6494.1924
7853.5262
7228.2645
7034.2524
7615.0112
7397.1147
7064.3856
9315.3986
8955.2488
8533.875
10515.242
11037.622
9942.4194
14609.588
12877.039
13683.941
4447.1524
3985.5055
2985.6034
8165.4878
11156.557
10926.818
4398.7776
1941.7065
2316.489
5449.2389
7292.3285
7425.3533
5599.6364
3947.9022
4122.0046
5264.2715
3914.9924
4322.4978
4382.4439
4003.0939
4467.7448
5413.0191
3302.0316
2900.8432
4438.4939
2743.4848
3857.8064
4895.0195
3262.6903
3333.7359
4775.0903
2714.4558
3260.8091
4818.7729
3054.3904
3565.3732
5225.185
3244.8671
3467.6818
5391.7619
3437.3545
3913.3857
5951.0094
4032.1179
4319.6785
6421.8601
4615.3132
4861.6238
7135.1728
5377.4858
5456.1111
8001.3124
6251.9437
6415.344
8763.4614
7500.4926
7249.8054
9578.4628
8410.5738
8226.2936
12276.955
9717.7475
10940.852
10513.388
10032.754
8677.2746
16360.399
15123.053
15544.959
13152.092
14628.231
16749.53
8339.2212
8643.8844
12231.709
8558.9908
13043.678
13897.775
9615.6328
9745.9049
12031.539
7216.9138
10413.77
11807.353
6589.1895
9421.653
11565.956
6956.2724
8518.3238
9704.9146
4682.0434
7879.5568
10588.575
4971.0059
7648.7384
9168.0597
4085.333
7125.015
8717.2414
3738.6009
6415.8902
7989.709
3723.4025
6353.6755
7584.7614
3296.6037
5963.2804
7157.216
3592.5008
6034.5943
6890.7358
3640.3064
5921.9813
6889.205
4191.227
6451.833
6907.8737
4704.5125
6377.5378
7141.8709
5582.1125
7620.719
7928.1088
6373.8695
7483.0606
8028.9381
7985.4443
9987.1483
10035.522
7861.8704
8978.7573
9135.1836
10725.687
12604.132
13198.393
12112.487
12561.19
11380.248
)
;

boundaryField
{
    free
    {
        type            zeroGradient;
    }
    fixed
    {
        type            zeroGradient;
    }
    traction
    {
        type            zeroGradient;
    }
}


// ************************************************************************* //
