/*--------------------------------*- C++ -*----------------------------------*\
  =========                 |
  \\      /  F ield         | OpenFOAM: The Open Source CFD Toolbox
   \\    /   O peration     | Website:  https://openfoam.org
    \\  /    A nd           | Version:  6
     \\/     M anipulation  |
\*---------------------------------------------------------------------------*/
FoamFile
{
    version     2.0;
    format      ascii;
    class       pointScalarField;
    location    "1.73";
    object      E;
}
// * * * * * * * * * * * * * * * * * * * * * * * * * * * * * * * * * * * * * //

dimensions      [1 -1 -2 0 0 0 0];

internalField   nonuniform List<scalar> 
28033
(
4811.9721
458.87192
29591.171
1151.4068
3736.8268
6105.1346
5391.6223
28102.472
3508.8017
4165.2649
2811.4284
2467.6811
814.00816
596.50952
367.01491
488.21344
285.8327
-104.39089
-1451.3079
-2248.5289
-3079.355
-2852.3086
-1867.6994
22123.51
14217.144
13544.166
14023.68
15789.679
18432.276
19923.746
22907.024
24922.001
26496.161
28093.765
27978.302
27441.548
25832.806
20451.252
3032.0458
2155.8696
1800.2133
1638.6402
2218.5839
2344.3246
2525.0786
2573.9602
3052.3301
2569.7515
3173.5537
3067.9907
3310.4262
3156.0738
3319.9331
3353.2775
3299.7168
3499.8291
3467.3759
3515.3779
3687.4323
3538.3936
3947.5832
4045.9099
4133.3583
4482.8362
4517.4061
4995.1411
4853.5292
5228.1925
5385.9969
5050.7454
5150.4659
5062.4217
5169.4586
5309.9003
5030.4662
5460.382
5080.5658
5053.8112
4770.8369
4635.3087
4269.9738
4051.3548
3741.7838
3641.8269
3358.8449
3440.1185
3205.4104
3295.5491
3062.9553
2993.9015
2674.4854
2388.341
1967.3891
1557.3099
1090.8732
648.77828
186.18816
-255.66792
-775.73917
-1256.8501
-1954.6088
-2447.3106
-3067.5664
-3752.4685
-4251.9867
-4819.21
-5012.4451
-5203.2874
-5250.1947
-5211.9236
-5136.2066
-4909.7195
-4756.9608
-4507.8546
-4376.8451
-4006.7382
-3850.4504
-3509.3766
-2989.9533
-2664.6923
-1820.9125
-1565.8363
-531.38404
-283.04282
978.38581
1317.0915
2803.872
3200.4036
5071.6685
5434.4614
7711.5522
8682.3511
18562.138
7533.6249
-4103.4377
4589.9572
-885.68051
2432.1061
1433.1798
1434.3888
1280.4088
2028.8829
1316.0173
2261.6244
1812.4608
2304.0232
2180.9149
2256.8398
2263.8749
2320.4993
2013.0736
2278.1221
2392.2676
2167.665
2709.1285
2462.0006
3210.7742
3101.5655
3766.672
3537.945
4059.0504
3830.0861
4173.4106
3909.224
4174.7403
4147.984
4241.4167
4426.4065
4510.6615
4810.4654
4820.68
5020.5037
5403.9241
5612.9253
6035.3383
6368.3394
6889.3628
7289.4726
7932.5393
8452.7255
9178.8451
9832.0175
10600.179
11311.368
12068.422
12702.681
13377.63
13880.89
14405.135
14846.135
15310.131
15784.939
16382.865
17034.385
17855.903
18759.618
19780.402
20861.009
21902.786
23082.02
24164.629
25208.326
26115.922
27250.772
27819.608
29070.534
29507.792
30444.096
30953.066
31357.912
31785.763
31846.333
31872.588
31744.069
31369.951
31081.921
30496.052
30045.438
29330.325
28718.144
27871.874
27046.699
26065.924
24987.19
23803.094
22520.694
21311.863
15374.921
2049.5929
2752.5802
1723.4858
1887.6383
635.46346
630.85598
575.06512
506.82936
651.78252
407.97219
197.1222
-479.02264
-819.20113
-1821.474
180.73541
6030.0232
10529.873
-9949.7118
5590.3334
233.44156
1093.624
2370.6096
1802.936
2722.4395
3116.9777
3005.8742
2126.9859
3863.4435
1816.7592
3829.3227
1511.966
4341.3646
1217.5501
3874.6118
1787.9457
2734.0986
3915.6804
2996.961
4493.6214
2830.8226
4458.4155
4110.5688
4200.6351
4986.8079
3614.8156
4115.9278
4373.7762
4514.0186
4910.7742
5375.8862
6951.5297
5612.3816
7438.2257
7769.0201
8148.231
8592.6654
8836.8886
9221.8663
9531.6975
10050.221
10551.01
11249.371
11935.457
12700.659
13375.893
13985.841
14443.098
14784.331
14968.206
15158.637
15322.012
15598.714
16065.462
16666.419
17521.898
18453.111
19506.638
20527.797
21467.565
22292.126
22980.92
23457.277
23187.152
25031.554
24597.952
25115.433
25368.174
25712.202
26011.881
26164.457
26153.17
25977.597
25675.064
25160.427
24674.349
24062.913
23545.462
22911.104
22425.338
21734.264
21152.236
20303.386
19477.344
18390.999
17288.934
16035.949
14761.956
13575.542
12101.134
18183.324
24430.64
23043.371
26085.243
27657.611
28565.159
25984.078
26749.857
18981.584
21282.997
19148.002
16768.634
13579.662
14845.536
13318.486
18679.516
18248.374
18961.065
20051.966
18518.311
17676.634
16538.161
15541.783
14510.542
13484.067
12536.959
11580.741
10772.237
9944.4449
9075.1352
8353.1061
7640.8504
6950.1655
6296.8307
5582.0664
4918.9827
4221.736
3591.0247
2930.9745
2408.8284
1986.2913
1423.2415
2354.1068
-67.838148
971.73237
309.03858
380.86841
245.06988
189.92685
214.45444
272.3266
415.12664
603.53708
845.20068
1110.4255
1383.1289
1621.5948
1835.6807
1971.6401
2066.2369
2089.5157
2089.7006
2057.5127
2037.1951
2037.0148
2077.631
2122.0309
2272.6613
2347.7714
2537.5742
2591.055
2850.7921
2912.3717
3263.8092
2748.6331
3141.0625
3184.0042
2957.7892
2921.0802
3038.9133
3323.1757
3575.2708
3150.0714
3326.256
2822.9563
3230.4376
3298.8821
2887.0841
2454.0988
3105.0224
2308.2166
2584.4225
2453.023
2561.8122
2636.2798
3046.6864
2750.9483
1756.7112
3600.8004
2018.0509
3710.6181
2460.143
2295.3826
1486.2225
2894.1619
1961.9056
611.22835
3054.1838
2833.1983
-1878.5391
6423.2067
2240.8138
3029.2249
2245.7366
2954.3563
2084.8409
3020.242
1743.9977
2928.0038
2245.7669
2473.0228
2138.4961
2027.7027
2076.4361
2299.6453
493.34533
-1255.2326
-578.99521
-2021.6943
-669.09527
-829.58641
-1998.602
-1007.4408
-588.46577
-1516.9308
-445.41645
-644.76842
-906.25943
-972.91653
-1491.8575
-1601.4646
2988.2455
2923.279
2969.7191
2956.2668
2705.9465
2652.0714
2582.1463
2555.0979
2595.4313
2531.6913
2515.0868
2727.0962
2892.1763
2600.4676
4214.9177
30150.182
29268.394
29457.076
28867.537
29429.532
29330.964
29329.701
29313.693
29350.184
29351.25
29475.582
29415.459
29505.623
29385.053
29444.988
5310.0276
2130.3225
2280.5373
2133.5853
1977.8146
2316.6401
2113.6708
2510.6915
2039.0155
2689.7638
1670.6112
2308.6407
1335.3861
2015.8153
968.54769
1626.7328
1244.5461
1274.6168
1263.5527
1168.4705
1269.8237
871.00406
1064.2545
408.58905
590.0462
164.27759
207.52147
-35.310092
248.87152
308.35028
561.50883
933.94144
1480.559
1797.1602
2350.4347
2308.7163
2650.4128
2604.253
2844.8481
2773.4417
2980.1805
2829.7459
2994.2736
3083.3283
2930.316
2934.0934
2707.5848
2519.655
2166.6643
1874.6392
1501.7804
1280.1897
1114.9669
1170.8867
1375.429
1776.7645
2287.3291
2885.8002
3468.653
3995.6979
4399.8912
4699.6972
4877.4077
4959.1635
4880.3038
4850.2868
5247.4311
6098.3533
6229.1261
6130.2926
6435.247
6466.3567
6657.7487
6836.3366
7099.0386
7382.1704
7882.4204
8384.4684
9119.5376
9858.2782
10823.111
11636.95
12731.06
13334.598
14196.663
15146.224
15726.499
16447.116
17079.212
17597.709
18472.5
18804.729
20076.489
20290.64
24309.477
4198.9674
1853.6047
2597.4637
1582.9941
2458.1445
1962.8435
2320.8092
2147.0352
2200.8884
2042.2622
1990.0208
1911.8478
1695.2177
1542.8693
1347.4412
1455.1184
910.39532
1126.6581
914.67579
893.67155
726.27377
685.11617
564.08754
492.69335
365.6971
274.00759
244.81596
161.8995
190.52109
183.04447
428.6192
521.48508
685.86824
760.27608
1054.8299
1202.5163
1518.141
1759.8452
1737.0787
1732.2372
1745.5167
1797.6057
1907.876
1822.3337
1851.4148
2011.1459
2010.5764
2090.8387
2117.5809
2128.6649
2124.9352
2163.9167
2218.4251
2366.7904
2563.8104
2861.8009
3187.0648
3567.3639
3919.2285
4261.3865
4519.2837
4785.2006
4932.0521
5014.5842
5338.0308
5395.771
8315.1655
13201.233
13665.323
14309.116
14982.024
15494.49
15997.708
16517.993
17024.967
17610.717
18186.484
18755.307
19394.973
19858.33
20522.791
20745.273
21474.433
18667.834
15620.216
15823.026
16666.961
16709.86
17684.681
17647.997
18695.903
18550.741
19904.23
19005.186
22338.909
3366.9803
1067.7289
2315.8364
1306.1436
1768.7685
1332.7938
1461.9321
1557.8652
1405.0324
1499.443
1179.4491
1351.7989
846.04431
1004.1734
590.79523
538.46929
373.85363
350.82471
155.33101
99.528081
173.54449
18.087393
149.76702
-69.383681
50.837001
-180.91835
-98.360358
-279.53286
-114.17309
-172.11967
-5.6405511
18.96611
381.74855
512.21713
855.06485
970.3691
1015.1363
916.77438
1205.1568
1267.3241
1472.7996
1518.4914
1558.3443
1893.4046
2183.1327
2381.6245
2588.0039
2780.0103
2934.0575
3033.7382
3208.7534
3358.7185
3633.6773
3961.5208
4413.7519
4923.5676
5496.2804
6076.5401
6629.0754
7125.2955
7565.5534
7944.2621
8187.4242
8552.9764
8770.7546
8987.7125
6498.8684
12939.513
13593.183
14049.87
14492.791
14490.716
14876.501
15223.353
15752.563
16098.543
16584.322
16983.07
17421.592
17735.985
18174.47
18424.853
18582.44
19367.375
16337.144
16520.637
16654.006
17131.552
17419.587
17679.632
18329.328
18270.144
19403.885
18934.035
21447.367
1872.1699
1192.639
1123.9311
1138.7539
996.93653
928.66141
970.10908
891.05481
695.06223
758.31021
667.77371
598.59747
384.19297
521.86286
91.19594
306.21875
-102.56977
31.824522
-186.47664
1.8759214
-253.69569
-52.534029
-217.80866
-71.260193
-162.64403
-100.95379
-142.21869
-107.90379
-171.29614
-111.58628
-29.446852
130.16686
300.82138
439.5287
770.75074
837.50422
1215.0314
1666.1582
1303.4915
1433.3194
1452.8724
1735.4602
1874.8419
2083.9606
2205.5132
2473.8202
2764.0924
3076.2356
3391.5055
3736.701
4105.3565
4484.6472
4931.0257
5397.0435
5924.9641
6479.9623
7066.1626
7653.3817
8238.4707
8807.131
9345.5431
9831.815
10311.42
10800.744
11102.541
11586.123
12411.087
10310.313
10268.044
10307.314
11169.665
12052.011
12068.241
11966.685
12397.6
12764.619
13228.715
13577.161
14092.948
14413.418
14976.248
15162.681
15909.608
15848.342
18504.47
18978.399
19817.619
19597.494
20247.553
19955.713
20734.184
20058.002
21573.473
19865.644
21736.26
1730.6781
80.736189
965.69361
3.3841728
656.57924
49.519976
509.04382
76.099431
363.18712
211.41133
174.46582
85.88458
57.615323
-76.925245
-182.34456
-215.30784
-365.02873
-295.92811
-455.36043
-366.1168
-389.91219
-210.04198
-241.61006
-70.543469
-129.97098
-75.043211
-94.224206
-154.90442
-87.972472
-55.279916
55.703847
150.82922
357.1654
534.53938
756.9456
841.55677
1099.0506
179.78112
98.02114
262.90292
799.09522
919.47043
1282.5751
1756.3391
2243.5711
2761.5939
3283.1365
3779.5491
4327.3442
4878.8673
5488.8611
6118.4402
6856.5289
7597.8199
8440.1145
9280.055
10165.501
11035.893
11894.456
12742.021
13516.539
14305.254
15053.569
15728.558
16401.424
17094.292
17714.027
18248.48
18766.485
19287.357
20020.114
20070.455
19950.009
18138.565
18398.492
18793.505
19182.031
19588.484
19953.345
20297.108
20587.039
20894.53
21048.308
21352.836
21426.202
21646.49
21484.367
21527.799
21449.802
21370.645
21512.679
21270.033
22167.226
20607.849
21790.216
993.08794
140.58143
494.91133
220.07842
196.55368
192.11387
28.032154
97.815023
-1.656469
2.6340297
-62.096085
-6.3275508
-223.44723
-147.1188
-382.71025
-390.36802
-562.76376
-497.50666
-662.33824
-347.71181
-574.1397
-209.55812
-414.95807
-100.43321
-347.26446
-33.030443
-327.73757
-74.865528
-233.13969
-94.852423
-99.678145
68.190656
206.41709
383.76327
548.00713
740.79381
945.85773
1606.4869
1608.8902
2468.9344
2359.7081
2723.9671
2783.8445
3158.3158
3361.3856
3652.2347
3877.3473
4193.4177
4480.1221
4827.5579
5189.3794
5615.4425
6068.5946
6574.3479
7100.7058
7651.3187
8196.9844
8732.1219
9254.4642
9733.7842
10189.479
10669.886
11017.791
11444.065
11886.338
12176.511
12599.356
12917.499
13376.143
13710.919
14070.32
13999.111
14358.401
16102.351
16784.063
17191.8
17733.7
18172.665
18740.755
19049.391
19668.158
19783.397
20477.869
20388.787
21111.701
20959.336
21723.087
21529.858
22272.707
21930.521
22809.956
22054.368
23448.166
21534.059
21999.179
712.41089
-293.90126
577.34188
-458.99779
203.05901
-387.6188
53.83887
-373.96702
22.032899
-370.98988
-94.197812
-508.85115
-354.13635
-699.60224
-708.53116
-889.4496
-929.07464
-981.40149
-1042.3195
-873.16005
-1047.1985
-680.70373
-960.60376
-615.01907
-866.37364
-694.67868
-928.56251
-769.51926
-951.91178
-741.36108
-733.88737
-503.08665
-356.20849
-220.85803
-27.396593
124.046
112.30416
62.660078
439.02845
948.06701
803.52909
1060.7083
1175.9401
1412.3374
1667.9115
1927.5711
2289.5356
2559.3653
2914.6102
3206.8913
3586.6987
3925.8737
4363.3405
4790.7095
5306.5428
5813.8206
6388.6207
6943.9201
7518.2185
8059.4064
8627.4761
9107.0398
9620.8472
10162.336
10578.602
11165.66
11623.16
12224.494
12762.247
13327.288
13958.5
14499.677
15009.217
17456.836
18836.825
19458.767
20064.141
20633.669
21171.234
21701.828
22170.869
22638.794
23020.914
23376.083
23691.482
23821.299
24018.506
23993.749
24106.078
23835.375
24017.966
23368.588
24513.657
22031.884
22487.638
494.41928
-32.278341
429.91413
111.17664
241.53203
135.44691
127.78421
81.810963
197.48167
60.363099
88.370427
53.354102
-42.098877
-188.11672
-202.94825
-412.55852
-422.47836
-461.7942
-527.76537
-321.89498
-590.50717
-266.73628
-596.87064
-127.73594
-698.85839
-223.75254
-675.73011
-352.77769
-588.00168
-317.81893
-415.8891
-158.76955
-190.41137
40.76598
181.10024
124.81122
437.85899
384.27872
580.79242
652.35501
708.39696
961.99025
1149.9266
1408.317
1599.757
1929.8114
2156.1536
2486.4407
2775.6943
3132.515
3466.8438
3864.8741
4264.9421
4704.4799
5158.82
5632.3834
6118.4428
6596.1224
7078.5305
7566.7253
8023.455
8502.5559
8988.045
9444.803
9949.7994
10440.411
10968.825
11506.222
12040.012
12636.524
13184.316
13832.245
14530.682
15024.833
15560.494
16245.874
16929.188
17607.68
18353.298
18899.956
19665.448
20067.383
20830.411
21059.651
21814.195
21936.441
22674.937
22665.025
23346.758
23212.43
23988.869
23496.197
24656.526
22360.21
22671.633
239.76517
-641.9309
344.3818
-629.4192
-44.675842
-615.28968
-89.848803
-558.95584
-19.393859
-617.1572
-202.34757
-737.59178
-663.45249
-1100.6094
-1061.1568
-1410.3376
-1277.0559
-1450.4659
-1327.1021
-1200.6296
-1254.0086
-845.71601
-1050.9436
-826.51867
-1171.9633
-794.73687
-1269.3392
-863.36504
-1151.5513
-797.54191
-837.55815
-564.61896
-443.85103
-203.64772
-296.97901
74.214248
-107.75369
100.65362
27.484409
102.68447
201.26625
275.50978
481.27513
588.98641
910.56521
1116.4847
1434.555
1678.4418
2003.9267
2256.6203
2587.042
2870.2219
3216.279
3544.5025
3927.1759
4304.8757
4725.0955
5129.1387
5584.4879
5996.9497
6441.2893
6888.8781
7312.7069
7786.9425
8237.3653
8779.4177
9265.8989
9861.5555
10465.513
11143.379
11815.353
12613.562
13315.883
14244.626
14788.812
14523.579
15419.424
16200.218
16947.457
17775.496
18477.675
19288.58
19929.898
20681.343
21274.909
21845.399
22328.761
22718.747
23039.008
23206.844
23425.633
23106.634
24007.142
21638.997
23291.138
616.69696
-514.79415
658.082
-258.18273
403.02603
80.208322
468.48031
271.58265
555.06358
543.90585
602.85368
614.82896
630.64305
558.91943
671.41417
529.86333
704.42959
632.42869
783.49745
891.75852
773.51005
809.197
338.27108
708.43614
403.09783
732.87059
444.09408
861.61741
628.2769
1045.217
867.14026
1232.3676
1167.5578
1232.5117
1478.9675
1330.8028
1509.3633
1464.8026
1519.5254
1626.5054
1641.0482
1781.2924
1831.0585
2006.6251
2048.6638
2218.6307
2294.1268
2460.9484
2567.85
2737.865
2874.3196
3048.2179
3216.904
3406.8857
3593.5474
3804.8135
4005.8585
4231.9389
4467.2051
4696.7643
4976.6453
5253.1386
5538.139
5889.9611
6228.1784
6600.5501
7010.9974
7459.7611
7912.5176
8416.2127
8953.8435
9544.149
10126.919
10875.674
7471.8562
3357.0895
4155.8634
4641.6134
5469.1085
6118.5602
7053.6438
7759.0087
8817.6177
9553.4235
10683.544
11416.724
12635.841
13322.65
14623.517
15295.842
16672.763
17408.305
19042.717
18431.657
23758.639
540.85003
-1129.2626
-224.48939
-1254.2602
-528.86934
-921.16174
-556.54054
-693.58249
-321.58222
-492.14256
-359.94787
-408.67839
-305.19505
-369.27118
-46.060744
-184.16829
429.77414
258.93249
890.17029
832.07329
1373.7066
340.39752
262.66366
495.30939
375.43417
648.63077
482.16536
766.63981
649.18545
925.25441
934.00695
1225.3415
1162.1492
1596.8857
1385.6944
1666.1171
1603.6979
1699.0075
1727.988
1695.2573
1771.3795
1712.932
1822.1215
1797.1612
1916.881
1947.7796
2068.3026
2089.0108
2194.8984
2208.4446
2270.0179
2271.1153
2313.1597
2309.0034
2352.1901
2388.8652
2463.5551
2568.3397
2707.0301
2878.1017
3094.5829
3322.9785
3570.604
3901.1102
4143.9164
4558.8526
4879.4636
5319.4529
5764.3722
6311.9972
6863.1077
7520.2547
8162.1473
9138.7092
13428.314
6186.1007
7468.8584
8204.9882
9027.9909
9927.3593
10841.244
11852.523
12852.67
13933.517
14965.318
16078.017
17059.089
18132.412
19015.487
19993.154
20854.48
21500.219
22700.445
22429.286
27617.69
482.76933
-1785.4565
-696.73178
-1143.1168
-429.16238
-582.22199
33.793293
-98.135205
359.15106
469.90796
660.89871
764.9063
1165.5174
1102.7362
1491.8122
1653.2781
1979.8687
2099.2479
2556.2216
2593.6456
2885.8683
3310.3159
2695.9517
3020.0689
3150.2268
3416.8355
3526.03
3926.6065
4027.6668
4473.1403
4568.827
4852.4774
5035.7293
5114.812
5269.2376
5364.3956
5326.454
5359.3032
5203.8422
5206.1092
5007.1942
4981.9652
4785.6104
4754.6441
4587.7358
4554.4843
4453.9415
4431.515
4389.051
4382.3734
4356.128
4352.6847
4329.436
4307.2609
4277.4312
4253.8541
4223.9624
4214.3867
4214.4012
4238.4429
4275.8882
4348.6646
4403.7935
4526.7835
4571.1637
4742.2757
4804.9513
4993.5916
5164.4897
5403.4378
5684.4569
5980.7143
6501.9347
6788.0593
6783.7037
10393.968
11994.294
12615.622
13396.29
14128.302
14965.449
15687.483
16500.413
17201.559
17955.565
18531.655
19183.585
19591.338
20080.814
20449.569
20792.461
21253.84
22153.36
22156.623
28178.116
589.74223
-2304.9101
-973.86798
-1626.1621
-1449.2153
-1625.0111
-1242.1366
-1478.0955
-1034.08
-1209.1862
-916.38291
-850.60469
-788.58622
-611.56762
-388.58094
-277.6499
69.631552
236.21245
706.4782
815.71585
1329.876
1422.951
2310.0983
2693.4274
3086.8529
3242.0636
3561.1228
3663.791
3881.9969
4071.8694
4168.0087
4475.3693
4450.5308
4756.2814
4714.6084
4852.3567
4841.5338
4856.9524
4875.1363
4784.168
4789.1622
4674.6923
4655.5799
4558.5356
4517.7746
4407.0055
4343.541
4161.1823
4019.5141
3757.3576
3497.7172
3153.2744
2814.7929
2427.6411
2089.8413
1770.805
1523.9717
1362.1874
1285.6905
1302.2218
1384.8076
1547.368
1684.1067
1951.1303
2018.5969
2330.4774
2338.0986
2634.1913
2754.2154
3010.4382
3143.0273
3629.1387
3668.5426
4289.9553
4559.7537
5098.699
5335.4489
5857.7857
6401.5117
7153.1165
7899.5903
8848.834
9821.9338
10966.137
12044.799
13287.034
14380.502
15589.541
16659.409
17758.61
18789.485
19811.065
20763.128
21666.049
27648.083
1130.3247
-2634.6622
-730.75239
-1712.5277
-542.47552
-718.46696
-203.08242
-44.812239
329.23728
568.27688
899.48059
1031.4174
1440.8507
1657.199
1972.6628
2308.6527
2685.5457
2958.6663
3572.5251
3779.3486
4439.1099
4710.5498
5109.1218
5500.6525
5837.334
6245.161
6545.7525
6861.012
7082.7136
7238.1769
7481.3483
7612.9633
7805.0654
8010.2746
8066.109
8227.2406
8202.2916
8310.2115
8149.3621
8169.7177
7934.0656
7854.0945
7584.8766
7449.4225
7202.9341
7056.0735
6859.9933
6700.2468
6513.7392
6315.8422
6062.7537
5783.4678
5452.9329
5095.6126
4731.1457
4383.0123
4064.2121
3803.2026
3597.1641
3442.3896
3313.9456
3217.5768
3097.2392
2984.4856
2788.7472
2714.478
2419.227
2397.1029
2190.2687
2111.6769
2261.5732
2189.5698
2554.9262
2686.6644
3081.6155
3396.6923
3931.4874
4384.7833
5005.8925
5634.9443
6402.6954
7188.3364
8160.8734
9056.4673
10151.572
11098.779
12215.621
13148.574
14218.585
15162.75
16177.345
17264.795
18381.779
20184.956
27124.413
2977.0241
-3236.1235
-140.27817
-1362.071
-181.62622
-581.26545
-9.1481764
25.622936
145.60752
337.52358
99.494772
516.98347
466.04756
824.22708
1154.3444
1522.2721
2085.336
2319.9109
2918.4692
2911.453
3521.5642
3179.4675
3677.4103
3280.2962
3714.8225
3673.5784
4106.014
4422.9678
4960.2227
5580.1073
6032.6475
6662.3576
7022.0502
7435.9608
7441.2128
7737.8179
7701.734
7670.514
7539.5501
7321.0871
7121.191
6842.1529
6595.2007
6272.1151
5954.263
5539.0207
5134.0609
4634.2385
4189.0769
3727.7412
3369.7978
3106.7714
3014.2454
3037.456
3245.1335
3538.3451
3885.931
4246.4854
4532.2664
4710.3525
4758.7972
4693.4
4478.4784
4242.7318
3930.5707
3731.2759
3327.89
3422.0858
3001.7826
3397.3355
3073.7593
3630.1635
3505.3068
4158.1804
4414.6364
5251.098
5975.8578
7012.2752
8213.5598
9569.6498
10942.388
12487.882
13846.208
15357.736
16587.893
17962.781
19071.564
20332.155
21463.596
22675.878
23971.681
25319.64
26611.948
28582.646
30271.099
673.34139
1056.8109
106.52351
-74.726513
-234.19812
-111.89706
-148.06563
-47.695456
-283.9354
404.01168
-50.663874
68.759694
743.67624
813.09651
205.558
2634.3332
2049.704
1579.5925
1755.8136
1317.3695
1421.0798
1245.5926
1228.8694
1476.9107
1272.639
1318.0271
1670.0193
1612.3524
2171.9275
1611.4566
1716.3707
1041.8215
231.06498
355.40642
41.92268
-38.624035
40.686941
-139.31352
-69.407505
-29.986203
113.31827
-22.636705
228.31487
858.46589
559.19691
1130.9218
1075.6161
798.1904
535.07408
591.9963
472.88157
488.08309
434.77269
584.25572
497.88692
670.89496
654.07083
932.6066
1459.919
232.98414
420.55149
305.88244
-115.78036
-129.80474
-318.46975
-271.11833
-350.88352
-321.38064
-388.78647
-349.07621
-304.42493
-238.72447
-63.27541
43.68334
313.58532
567.33926
348.23114
165.34398
204.93094
121.1032
134.53623
65.436447
100.34071
107.30076
122.13652
168.00834
152.71973
224.85786
306.70873
302.81753
167.57508
54.04251
-70.933918
-149.7445
-178.49411
-222.72766
-227.22438
-263.2562
-262.70911
-228.79749
-229.72758
-128.76655
-89.718266
104.52486
133.87986
352.50289
248.86634
144.07076
140.11453
78.429565
79.836428
50.400807
58.307818
75.016748
63.440405
97.803366
116.79964
142.69048
192.47945
190.53702
56.266576
50.642219
-143.64082
-121.93098
-186.88947
-200.44821
-212.61172
-176.149
-209.75216
-73.427529
-138.70542
-31.137149
-54.88828
133.05044
50.197247
271.40068
119.51212
29.244649
28.765801
-43.155671
-49.455993
-40.270026
-65.084626
-49.476923
-96.49005
-8.7578213
-67.867825
-62.680412
8.9054842
-27.841486
-895.28142
-847.84776
-935.39578
-981.74308
-989.13122
-854.2011
-960.92608
-832.22902
-914.80721
-639.41716
-779.4631
-819.21544
-706.5001
-665.38625
-689.79857
-1590.8848
-1431.2537
-1372.6771
-1576.3248
-1444.5152
-1661.7266
-1571.3355
-1658.4147
-1582.5779
-1567.0063
-1535.8369
-1309.3724
-1542.3999
-1503.7406
-1418.7003
-2730.8773
-1859.7853
-2553.9464
-2321.3641
-2443.0504
-2354.4152
-2550.1199
-2292.1994
-2259.703
-2127.3328
-2110.1187
-2299.733
-2270.2633
-2181.945
-1802.9543
-2316.5215
-2696.898
-2644.8985
-2938.4867
-3070.3661
-3204.6862
-2907.3435
-2838.0642
-2844.9303
-3128.335
-2951.3454
-3061.3101
-3102.6733
-3004.9351
-2865.077
-2348.4927
-2405.8049
-2951.9918
-3040.8096
-3325.1859
-3120.0087
-3014.4086
-2647.9056
-2961.0047
-2897.127
-3128.5577
-3000.4287
-2655.6834
-1972.7464
-2109.4915
3014.8702
7504.6275
3823.4058
5645.5714
6582.6252
5390.0318
6420.5845
7509.2112
5288.5557
6343.3924
6378.8354
6430.0674
6286.7723
7026.3999
3670.3348
6499.0214
1602.6478
3676.1489
4082.7893
2503.9785
5251.6148
4664.9328
4562.2788
5568.8867
3032.0854
3767.8941
2119.7524
3097.9033
4740.13
4994.0386
-606.47452
-321.12671
-1390.222
-835.96647
1979.3098
-1403.3721
-1414.3031
-1116.7234
-3458.4088
124.16862
-1257.2303
2073.022
-4.6172401
-1876.8128
216.22579
-386.15217
1696.7445
1413.1687
-1211.6827
-998.0065
-281.49099
-956.60875
-200.37269
-32.051925
-1690.9492
-185.20978
-834.05516
473.01005
1333.6316
504.7455
2921.0381
1554.4751
-216.97361
2299.0429
957.89619
1231.8589
1983.5961
1393.6328
1803.3858
3737.9693
1488.878
2679.7679
1002.3535
1615.1379
3089.5077
-520.14321
662.04192
330.8345
506.08371
344.50098
353.03256
-157.89884
-165.99002
179.21065
-1006.3779
545.91894
-313.07081
407.24582
1277.2719
460.65213
1177.2396
1725.0305
1376.6079
933.03608
894.36147
1202.9127
1537.0795
1343.058
1634.4629
1866.4746
1119.499
1737.5659
1388.9266
1151.7223
2492.7324
1279.4958
807.3546
1193.7641
1488.8291
1697.9555
1278.7204
1340.4405
1538.9418
1126.1692
1616.2651
1668.9433
1599.1112
1685.3735
1232.4939
2167.8854
1392.9508
2207.5922
1935.3247
2262.768
1542.2691
2063.3212
1878.0013
2166.2038
2097.8007
2124.3475
2082.5132
1772.6066
2080.1952
1953.8793
2303.2211
2280.6673
1489.8069
2018.6411
1818.9501
2113.4935
1827.6326
2032.8929
1808.4269
1550.9128
2390.429
1593.5545
2699.6604
1918.3816
2188.9006
3044.9394
2209.3158
2646.6363
2657.3587
2926.7825
2561.7237
2965.6268
2657.7456
2982.8985
3250.8807
2693.6586
3505.2879
2925.8097
3102.0025
3269.7638
3449.9406
3331.551
2356.7824
2533.4168
2547.4194
2731.5764
2588.368
2704.8498
2522.1335
2288.1301
2584.0484
2185.1829
2480.3588
2328.515
2111.7779
3420.0914
2916.7084
2911.5048
2810.5809
3194.8609
2803.5036
3019.5915
2917.7542
2923.2327
3334.8136
3223.8143
3439.2742
3412.1634
3370.7812
3660.6768
3896.4688
3182.6036
2678.856
3194.9445
2646.7201
2908.3811
3105.4157
3159.1836
2677.8895
2551.4877
2506.067
2190.8923
2447.151
2186.2635
1897.2186
3411.843
3100.1301
2504.5777
2670.6758
3178.2941
3198.7437
2850.314
2803.2187
2872.6649
3094.3387
3110.1556
3550.5644
3400.2484
3353.1734
3755.1012
4098.3328
2841.0244
2597.5952
3124.137
2789.8428
2472.6211
3031.4001
2987.0339
2811.6117
2514.6212
2483.5703
1921.0369
2180.953
2219.7209
1892.3836
3010.3134
2760.5253
2165.3924
2294.0275
2325.2122
2865.9213
2623.0292
2681.3929
2319.525
2831.8804
2565.1874
3115.5444
3063.7918
2817.3118
2480.3438
4264.9524
2547.8099
2425.4763
2625.7121
2856.475
2391.6949
2577.1037
2264.2275
2764.7526
2488.1124
2551.3718
2168.6909
1912.7897
1666.9407
2090.3534
2191.3183
2731.245
2291.3501
2887.335
2416.5914
2834.2635
2418.5218
3115.5757
2229.9825
2591.7047
2336.2863
2202.6505
2439.4555
2918.1161
2375.261
4167.5252
2723.4314
2347.6823
2275.1527
2501.9199
2390.3027
2610.0355
2687.0067
2616.4171
2693.2547
2603.9937
3015.2904
2767.4891
2299.9387
2293.1425
2894.2479
3218.9841
2739.3229
3194.3926
2808.0055
2991.8039
2553.4872
3040.448
2656.8377
2881.9778
2267.2765
2529.596
2344.1057
3359.8938
2529.44
3983.9642
3267.9044
3135.0943
2934.0405
3229.9397
2825.4867
3347.8531
2924.2852
3177.7023
2664.6589
3738.4862
3329.1702
3467.3576
2831.6557
2334.1718
4773.4016
4226.2726
3207.6579
3759.3293
3211.1752
3577.9333
3483.9991
3454.6126
2992.1041
3514.1376
2996.2299
2705.9936
2670.7793
2915.5161
2766.9321
4745.1283
4221.0319
4067.6713
3688.3646
3842.6906
3610.3277
3244.0037
3464.7451
3269.9657
3472.2431
3241.8596
3534.8524
3847.3055
4149.3994
3357.043
6476.2596
5380.2939
3876.9346
4008.6397
3536.4785
3993.8334
3590.0614
4127.4184
3604.638
3867.238
3516.6886
3976.5112
3761.8811
3419.791
3249.1975
5892.0457
5107.722
4084.4019
4262.5025
4113.6468
4094.8899
4143.7458
3803.1896
3764.2475
3816.7334
3704.5104
3839.9378
4044.7277
4786.4102
4489.4915
6369.2943
5539.8367
4239.7102
4660.088
4003.7896
4526.3835
3944.5848
4193.1562
3997.9646
4089.5659
3954.1103
4242.4407
3341.6496
3984.2522
3009.2564
6555.7868
5289.6021
4215.757
4116.8921
4348.2093
3975.4333
3774.9577
4064.1894
3625.1103
4146.2688
3705.0672
4261.4865
4352.3944
4254.1781
4467.2989
5932.1509
5395.4503
4366.4009
4121.7256
3806.3038
4047.0416
3968.8162
4006.5729
3813.1047
3850.411
3815.7846
3849.56
3987.2179
4026.031
3224.9408
6448.6832
4820.0282
3849.4588
4188.8517
3940.8069
3982.3264
3969.1165
3801.6892
3644.5053
3613.2314
3470.3658
3612.4248
3475.8131
4142.0918
3701.5934
5189.8777
5182.0407
4398.2019
4531.8215
4037.0877
4325.2927
3444.795
3989.4096
3496.5633
4275.9169
3741.1422
3852.3862
3652.7706
3645.1506
3373.899
4900.4175
4933.0679
4150.9897
4123.7306
3977.4626
3948.2854
4016.5196
3942.0687
3857.3691
3645.3646
3561.5821
3713.1826
3691.6334
3812.4463
3702.7798
4881.903
4828.1339
4142.151
4349.6226
4021.0642
4310.7913
3857.9612
4234.8339
3698.8751
4101.745
3741.3493
4103.0563
3827.7071
4046.8512
3921.9162
4547.6032
4813.4089
4353.556
4464.4463
4472.6396
4364.3848
4238.8282
4275.3539
4164.8017
4236.292
4110.7904
4171.8452
4143.2061
4245.1918
4084.3704
4633.0225
5160.2008
4568.7446
4787.3254
4851.0667
4655.942
4485.5994
4683.078
4493.058
4610.5763
4461.413
4664.5395
4655.6312
4733.3925
4855.1195
5180.4925
5276.4156
4968.7789
5102.4727
4651.5822
4997.7047
4810.721
4933.0728
4737.0609
5041.0775
4397.9106
5029.8645
4767.9564
5120.1566
4847.6113
5690.0407
5275.7001
5137.0632
5493.8348
5402.7487
5454.238
5099.7966
5415.3667
5049.5196
5331.8662
5418.1518
5423.7435
5445.7621
5289.6275
5563.9441
5816.6243
6060.3352
6164.6859
5953.1608
6017.6444
5803.339
5872.8794
5720.9828
5727.6328
5784.9082
5323.7927
5763.1063
5559.1364
5999.6966
5833.5288
6125.3953
6558.5585
6195.5828
6384.3141
6088.1151
6403.5877
5947.4261
6296.8577
5935.9162
6133.8105
6023.1652
6097.1521
6216.6784
6251.0073
6204.3582
6787.2029
6719.9787
6742.0718
6591.0001
6729.6495
6499.0585
6507.5464
6443.0446
6306.0032
6470.0492
6194.1183
6506.0303
6323.4385
6481.1127
6556.7132
7019.4309
7228.9734
7028.6829
7110.5919
6840.4871
7026.8185
6694.4208
6858.816
6654.8534
6737.4424
6627.2182
6749.5107
6685.6531
6866.4759
6818.6782
7413.0797
7450.3328
7484.5433
7184.8335
7311.8475
7167.4546
7051.0174
7086.7608
6868.8541
7009.6945
6809.4093
6939.711
6949.0921
6979.2963
7030.5176
7776.5684
7926.6187
7733.7204
7696.0091
7552.0061
7591.1
7359.8271
7434.7318
7245.3685
7350.7319
7147.6697
7334.5729
7249.3441
7329.7535
7382.9861
8226.0216
8190.7887
8235.8466
7913.6248
7980.4264
7862.4766
7712.6237
7743.2488
7583.9238
7621.637
7512.6785
7561.3523
7592.3829
7620.8424
7650.7778
8773.4311
8809.0292
8637.4277
8477.9505
8436.2707
8383.6185
8174.5225
8267.4301
8051.4737
8164.8928
7966.0593
8100.7243
8092.3672
8132.672
8150.2664
9537.2689
9322.493
9262.3878
8954.5086
9014.9248
8839.586
8727.7647
8720.6023
8609.8371
8595.0861
8530.568
8563.0656
8615.8627
8681.3562
8621.0134
10443.222
10147.043
9904.6301
9668.5715
9661.3462
9578.8254
9369.2314
9452.0622
9246.3162
9328.1689
9194.3273
9257.5641
9321.5324
9413.9928
9288.7161
11518.194
10951.31
10676.959
10352.953
10456.394
10184.992
10051.35
10013.373
9937.1546
9908.3844
9864.9988
9889.9402
10002.033
10143.046
9930.0607
12671.291
11906.107
11436.891
11177.14
11154.364
10982.44
10780.102
10854.245
10691.111
10707.772
10632.419
10672.373
10773.423
10952.892
10666.807
13800.908
12790.75
12238.21
11852.973
11974.226
11653.118
11489.439
11410.877
11325
11265.069
11263.829
11278.859
11407.216
11654.142
11287.766
14810.684
13648.311
12874.287
12587.154
12577.903
12291.411
12075.802
12120.963
12006.115
11974.914
11944.419
11954.303
12062.579
12315.12