/*--------------------------------*- C++ -*----------------------------------*\
  =========                 |
  \\      /  F ield         | OpenFOAM: The Open Source CFD Toolbox
   \\    /   O peration     | Website:  https://openfoam.org
    \\  /    A nd           | Version:  6
     \\/     M anipulation  |
\*---------------------------------------------------------------------------*/
FoamFile
{
    version     2.0;
    format      ascii;
    class       pointVectorField;
    location    "1.36";
    object      u;
}
// * * * * * * * * * * * * * * * * * * * * * * * * * * * * * * * * * * * * * //

dimensions      [0 1 0 0 0 0 0];

internalField   nonuniform List<vector> 
3969
(
(0 0 0)
(0 0 0)
(1.1984959 0.015216485 0.033220065)
(1.1593345 -0.26117276 0.029860707)
(0 0 0)
(0 0 0)
(1.1609843 -0.26705278 0.029678774)
(1.2001479 0.0091712375 0.032892223)
(0 0 0)
(0 0 0)
(0 0 0)
(0 0 0)
(0 0 0)
(0 0 0)
(0 0 0)
(1.193265 -0.020069631 0.032367333)
(1.1880714 -0.054463355 0.032084387)
(1.1830397 -0.088645654 0.031704988)
(1.1781972 -0.12273222 0.031514889)
(1.1734773 -0.15688146 0.031220491)
(1.1687784 -0.1911751 0.030970708)
(1.1642375 -0.22579806 0.030500347)
(0.0042675998 0.0085078005 0.0088849232)
(0.0068664717 0.014578351 0.010721874)
(0.011706285 0.021391782 0.011885239)
(0.018649937 0.027777175 0.012165276)
(0.027038573 0.034327652 0.012310786)
(0.037423142 0.040332017 0.01224724)
(0.048984225 0.046186555 0.012320045)
(0.062369619 0.051515999 0.012297841)
(0.076827057 0.056566976 0.012480708)
(0.09278701 0.060999606 0.012559032)
(0.10981735 0.065236099 0.012882608)
(0.1280687 0.06886731 0.013155018)
(0.14733769 0.072209356 0.013521565)
(0.16763149 0.075093671 0.013974464)
(0.18891248 0.077624995 0.014418651)
(0.21100229 0.079739094 0.014954556)
(0.23400582 0.081558756 0.015509328)
(0.25776603 0.082976201 0.016098047)
(0.28231774 0.084107215 0.01672028)
(0.30756502 0.084890951 0.017341565)
(0.33351515 0.085377851 0.018005491)
(0.36010574 0.085572983 0.018648998)
(0.38732189 0.085477282 0.019320095)
(0.415129 0.085124145 0.019976509)
(0.44349153 0.084472155 0.02063816)
(0.47239121 0.083622226 0.021295821)
(0.50179195 0.082496991 0.021949885)
(0.53167886 0.081143542 0.022590115)
(0.56203248 0.079579879 0.023227739)
(0.5927991 0.077780095 0.023858309)
(0.6239904 0.075791862 0.024477662)
(0.65556707 0.073591286 0.02509118)
(0.68750958 0.071207496 0.025691982)
(0.71979939 0.068628506 0.026287697)
(0.75243438 0.065886215 0.026863009)
(0.78535433 0.062931655 0.027446747)
(0.81860138 0.059886102 0.027986168)
(0.85208935 0.056542992 0.028557071)
(0.88586928 0.053222006 0.029051372)
(0.91985696 0.049519534 0.02962466)
(0.9540978 0.045890548 0.030070844)
(0.98850526 0.041936018 0.03061712)
(1.0231189 0.037849445 0.031090104)
(1.0578679 0.033778533 0.031527714)
(1.0927406 0.029229207 0.032076634)
(1.1277395 0.024883802 0.032489462)
(1.1626988 0.02030637 0.033091547)
(0.00040788864 -0.0074606781 -0.010098439)
(0.0043169803 -0.012398449 -0.0099197632)
(0.0080127991 -0.018119272 -0.011980362)
(0.014328579 -0.02382039 -0.011012852)
(0.022377525 -0.029688868 -0.010881363)
(0.031755967 -0.035553958 -0.0098435304)
(0.042850323 -0.041235466 -0.0090860796)
(0.055083273 -0.046945253 -0.0080452519)
(0.068718969 -0.052404811 -0.0070724019)
(0.083671472 -0.05804962 -0.0059890489)
(0.099554315 -0.063268098 -0.0049491223)
(0.1167887 -0.068792497 -0.0038672908)
(0.13488324 -0.073984564 -0.0027429374)
(0.15405593 -0.079268699 -0.0016494771)
(0.17412756 -0.084502491 -0.00052042539)
(0.19511854 -0.089690746 0.00058601046)
(0.21698687 -0.094915259 0.0017091878)
(0.23960039 -0.10005107 0.0028047724)
(0.26306479 -0.10528045 0.0039179516)
(0.28721865 -0.11044566 0.0049893419)
(0.3120702 -0.11566394 0.0060790978)
(0.33763789 -0.12088229 0.0071194056)
(0.36378842 -0.12611911 0.0081767366)
(0.39061465 -0.1314135 0.0091954899)
(0.41794962 -0.13665955 0.010187373)
(0.44591167 -0.14199595 0.011176953)
(0.47431455 -0.14727669 0.012139928)
(0.50331138 -0.15266842 0.01308916)
(0.53276503 -0.15802482 0.013999162)
(0.56267884 -0.16341523 0.014909421)
(0.59304772 -0.16883875 0.015793914)
(0.62381895 -0.17427466 0.016663939)
(0.655005 -0.17973142 0.01751922)
(0.68655975 -0.1852099 0.018354533)
(0.71848759 -0.19069483 0.019184059)
(0.75074943 -0.19620153 0.019988983)
(0.78335459 -0.20170877 0.020794535)
(0.81625429 -0.20720852 0.021588282)
(0.84947034 -0.2127392 0.022382841)
(0.88295438 -0.21821791 0.023164276)
(0.91671028 -0.22372294 0.023960964)
(0.95071213 -0.22917914 0.02474944)
(0.9849398 -0.23459958 0.025548352)
(1.0193912 -0.23999935 0.026364457)
(1.0539982 -0.24532153 0.027185207)
(1.0888365 -0.25058342 0.027998046)
(1.1237683 -0.25588623 0.028875704)
(0 0 0)
(0 0 0)
(0 0 0)
(0 0 0)
(0 0 0)
(0 0 0)
(0 0 0)
(0.00347492 -0.0052275763 0.0079955808)
(0.0056065881 -0.016125222 0.010869987)
(0.0088817961 -0.01782839 0.011122554)
(0.015753116 -0.026890225 0.011582505)
(0.023406879 -0.031992966 0.011725601)
(0.032960681 -0.038608076 0.0111756)
(0.043990681 -0.044959697 0.011433064)
(0.056120448 -0.050635321 0.010923435)
(0.069844124 -0.057175468 0.011317576)
(0.084427161 -0.06236263 0.010943587)
(0.10043357 -0.068913621 0.011618321)
(0.11751486 -0.073883198 0.011417357)
(0.13554037 -0.079782011 0.01192139)
(0.15476714 -0.085249862 0.012156601)
(0.17467193 -0.090491061 0.012542409)
(0.19572703 -0.096143991 0.013011057)
(0.21745488 -0.10120938 0.013432216)
(0.24012029 -0.1067074 0.013960106)
(0.26349958 -0.11185247 0.014469544)
(0.28766403 -0.11718769 0.015018249)
(0.31251832 -0.12237832 0.015578009)
(0.33806298 -0.12765846 0.016160499)
(0.36425767 -0.13286786 0.016735338)
(0.3910605 -0.13811534 0.017329689)
(0.41848385 -0.14339043 0.017901499)
(0.44650043 -0.14863936 0.018447663)
(0.4749629 -0.15399153 0.019080891)
(0.50398176 -0.15926254 0.019645376)
(0.53348213 -0.16460123 0.020240569)
(0.56346069 -0.16994237 0.020814397)
(0.59387574 -0.17529911 0.021379714)
(0.62471704 -0.1806802 0.021944614)
(0.65595779 -0.18608484 0.022501648)
(0.68758446 -0.19149595 0.02304868)
(0.71956757 -0.19693276 0.023588263)
(0.75191077 -0.20239145 0.024126761)
(0.78456787 -0.20782197 0.024636011)
(0.81753682 -0.2133237 0.025162643)
(0.85080334 -0.21878375 0.025658055)
(0.88435555 -0.22425964 0.026157138)
(0.91815457 -0.22971958 0.026634977)
(0.95221939 -0.23516992 0.027111574)
(0.98648207 -0.24057724 0.027574555)
(1.0209752 -0.24596536 0.028034112)
(1.0556215 -0.25128089 0.028481954)
(1.090476 -0.25655437 0.028947009)
(1.1253726 -0.26187147 0.029365037)
(1.1659938 -0.23172047 0.029870368)
(1.1704584 -0.19713493 0.030237584)
(1.1751507 -0.16281652 0.030763152)
(1.1798859 -0.12876417 0.031264844)
(1.1846535 -0.094629508 0.031907233)
(1.1896666 -0.060500545 0.032353067)
(1.1949683 -0.026146383 0.032830948)
(1.1645224 0.014258549 0.031748953)
(1.1293097 0.018771737 0.030934969)
(1.094348 0.02328996 0.030045408)
(1.0594584 0.027659796 0.029216682)
(1.0246871 0.03186366 0.028350567)
(0.99006477 0.035916184 0.027492329)
(0.95562171 0.039795554 0.026646249)
(0.9213639 0.043518481 0.025791422)
(0.88732887 0.047069473 0.024937108)
(0.85352465 0.050468956 0.024076502)
(0.81996316 0.053683805 0.023208348)
(0.78672882 0.056707714 0.022349147)
(0.75371169 0.059609627 0.021448053)
(0.72103881 0.062294385 0.020551041)
(0.68868533 0.064820519 0.019627998)
(0.65668181 0.067141976 0.018697805)
(0.62504118 0.069286444 0.01774571)
(0.59379032 0.071218174 0.016776108)
(0.56294453 0.072959983 0.01578753)
(0.53253655 0.074469886 0.014785918)
(0.5025775 0.07578919 0.01375104)
(0.47310224 0.076851193 0.012713983)
(0.44413046 0.077717674 0.011641236)
(0.41568324 0.078306774 0.010563258)
(0.38780516 0.07868697 0.0094492175)
(0.36050599 0.078776259 0.008336423)
(0.33382844 0.078644556 0.0071788524)
(0.30780112 0.078196286 0.006040547)
(0.28246171 0.077511342 0.0048543763)
(0.25783914 0.076498208 0.0036852731)
(0.23397609 0.075209414 0.0024902498)
(0.21091885 0.073611059 0.0012910076)
(0.18869017 0.071694162 0.00012120017)
(0.16745893 0.069301436 -0.0010270495)
(0.14713726 0.066702803 -0.0022629079)
(0.12773896 0.063703282 -0.0033136124)
(0.10951325 0.060370468 -0.0045232923)
(0.092363811 0.056529721 -0.0055417666)
(0.076400212 0.052495358 -0.006697788)
(0.061901826 0.047673705 -0.007625793)
(0.048668557 0.042994114 -0.0086191556)
(0.036724257 0.037444424 -0.0094437721)
(0.026680963 0.031888999 -0.010257582)
(0.017981427 0.025807316 -0.010640673)
(0.011464687 0.019917303 -0.010681582)
(0.0064685472 0.01303526 -0.0099292154)
(0.0064421399 0.007849285 -0.0064319907)
(0 0 0)
(0 0 0)
(0 0 0)
(0 0 0)
(0 0 0)
(0 0 0)
(0 0 0)
(0 0 0)
(0 0 0)
(0 0 0)
(0 0 0)
(0 0 0)
(0 0 0)
(0 0 0)
(1.1595738 -0.26212281 0.02977563)
(1.1598296 -0.26295047 0.029762326)
(1.1600484 -0.26370892 0.029757477)
(1.1602704 -0.26448897 0.029780721)
(1.1604781 -0.26523698 0.029794219)
(1.1606697 -0.26592768 0.029807719)
(1.1608609 -0.26665777 0.02972475)
(1.1989587 0.014727868 0.033195824)
(1.1991966 0.013974568 0.033203155)
(1.1994207 0.013249173 0.033113884)
(1.1996447 0.012505415 0.033050162)
(1.1998459 0.011752284 0.032977301)
(1.2000141 0.010948474 0.03291324)
(1.2002532 0.010223395 0.03290593)
(0.001490576 0.0062185384 0.0081447236)
(0.0043639513 0.010831757 0.0079978577)
(0.0089255738 0.01612554 0.0091761941)
(0.015675503 0.021082858 0.0094078437)
(0.024012189 0.025828643 0.0095344104)
(0.034367195 0.030539012 0.0096607648)
(0.045922077 0.034747313 0.0097203665)
(0.059228024 0.038900974 0.0099484234)
(0.073742332 0.042446103 0.01004602)
(0.089653446 0.045815502 0.010408388)
(0.10664318 0.048774435 0.010718831)
(0.12484974 0.051318626 0.011078214)
(0.1440666 0.053659985 0.01155489)
(0.16432002 0.055530951 0.012022554)
(0.18548945 0.057124087 0.012582983)
(0.20755555 0.058368317 0.013158559)
(0.2304679 0.059333725 0.013782087)
(0.25416557 0.059942346 0.014436062)
(0.27862705 0.060305616 0.015098425)
(0.30381253 0.060357244 0.015787847)
(0.32967737 0.060146797 0.016486194)
(0.35618976 0.059675162 0.017187096)
(0.38333627 0.058952157 0.017897641)
(0.41103861 0.057975852 0.018605191)
(0.43934626 0.05679067 0.01931462)
(0.46816618 0.05535067 0.019999237)
(0.49749423 0.05371199 0.020691461)
(0.52731226 0.051872574 0.021375491)
(0.55758632 0.049814814 0.022047885)
(0.58828644 0.04757677 0.022713233)
(0.61941196 0.045158295 0.02336818)
(0.65092079 0.042547748 0.024012863)
(0.6827983 0.039776923 0.024648765)
(0.71503756 0.036835671 0.025271321)
(0.74760545 0.033727948 0.025885095)
(0.78047382 0.030471451 0.026487537)
(0.81367744 0.027067359 0.027066461)
(0.84711091 0.023484815 0.027661811)
(0.88085676 0.019811941 0.028209744)
(0.91481573 0.015920652 0.028784559)
(0.94900942 0.01200321 0.029299074)
(0.98340816 0.0077729612 0.029878725)
(1.0180148 0.0036185046 0.030328267)
(1.0527407 -0.00082933225 0.030895882)
(1.0876543 -0.0054113023 0.03137468)
(1.1225909 -0.009928017 0.031835764)
(1.1576862 -0.015000708 0.032270463)
(-0.00079415815 0.0042051093 0.0056971047)
(0.0020063772 0.0067430087 0.0053868574)
(0.0068403803 0.011201317 0.0064575226)
(0.013457553 0.014282706 0.006512478)
(0.02202979 0.017847418 0.0068322703)
(0.031992288 0.020986952 0.0068933282)
(0.043631148 0.023994169 0.0072616709)
(0.05685854 0.026638084 0.0073102796)
(0.071256835 0.02899119 0.0078349428)
(0.087030815 0.031106865 0.0081241584)
(0.10401864 0.03284353 0.0085535658)
(0.12208892 0.034335831 0.0090685296)
(0.14125577 0.0355409 0.009602948)
(0.16141857 0.036359055 0.01020859)
(0.18252642 0.036989658 0.010849008)
(0.20449777 0.037303744 0.011491255)
(0.22732271 0.037397273 0.012174308)
(0.25091757 0.037182632 0.01288265)
(0.27530154 0.036765612 0.01359588)
(0.30039386 0.036056456 0.01433649)
(0.32617319 0.035134608 0.015074496)
(0.35262419 0.033982872 0.015809064)
(0.3796451 0.032593269 0.016560933)
(0.40731418 0.031036547 0.01729137)
(0.43551266 0.029226498 0.018018268)
(0.46423602 0.027261842 0.018764597)
(0.49348558 0.02509164 0.019489913)
(0.52321843 0.022726561 0.020196481)
(0.55339057 0.020216199 0.020913835)
(0.58402665 0.017514613 0.021607132)
(0.61506671 0.014665673 0.02228942)
(0.64649803 0.011645773 0.022974297)
(0.67831469 0.0084909416 0.023630184)
(0.71048077 0.0051776995 0.024289758)
(0.74298015 0.0017312135 0.024931762)
(0.77580553 -0.0018566403 0.025564414)
(0.80894145 -0.0055587758 0.026182258)
(0.84231279 -0.0094483078 0.026813663)
(0.87604869 -0.013340257 0.027368796)
(0.90990818 -0.017522366 0.028009529)
(0.94413948 -0.02164716 0.028539798)
(0.97846888 -0.026042448 0.029144065)
(1.0130866 -0.030410069 0.029669691)
(1.047778 -0.035032064 0.030266525)
(1.0826912 -0.039683923 0.030768511)
(1.1176775 -0.044517095 0.03127397)
(1.1529053 -0.049539519 0.031709308)
(-0.0026713589 0.0024375857 0.0036090933)
(0.00039177514 0.0041517182 0.0033674099)
(0.0047737969 0.0064194993 0.0038495336)
(0.0117342 0.0084636629 0.0039178121)
(0.019926683 0.010308387 0.0041148399)
(0.03028383 0.01221375 0.0043614195)
(0.041932958 0.013497366 0.0044499804)
(0.055081885 0.014929101 0.0049787768)
(0.069472757 0.015831446 0.0053312607)
(0.085347654 0.016682254 0.0057245853)
(0.10210214 0.017242214 0.0063479244)
(0.12016168 0.017544702 0.006888249)
(0.13916161 0.017671019 0.0075169897)
(0.15919903 0.017494467 0.0082042334)
(0.18014611 0.017184502 0.0089189393)
(0.2020159 0.016573886 0.0096089967)
(0.22470783 0.01577548 0.010390985)
(0.24821241 0.014743923 0.011127492)
(0.27248348 0.013490872 0.011932892)
(0.29743911 0.01204416 0.012716813)
(0.32310354 0.010399447 0.013522895)
(0.3493701 0.0085450943 0.014332729)
(0.37632914 0.0065445379 0.01513455)
(0.40383713 0.0043099755 0.015921268)
(0.43191541 0.0019395405 0.016737913)
(0.46053969 -0.00061111983 0.01750207)
(0.48970207 -0.00332388 0.018257488)
(0.51931753 -0.0061896734 0.01902705)
(0.54942692 -0.0091974818 0.019760762)
(0.57996642 -0.012362392 0.020486971)
(0.61091404 -0.015651442 0.021215476)
(0.64227634 -0.019082434 0.021916302)
(0.67400505 -0.022636566 0.022612931)
(0.70609602 -0.026314323 0.02329933)
(0.73852895 -0.03012172 0.023971508)
(0.7712916 -0.034016431 0.024625375)
(0.80433938 -0.038076537 0.025288164)
(0.83772046 -0.042163 0.025905432)
(0.87134577 -0.046424695 0.026540908)
(0.90522183 -0.050778947 0.027186909)
(0.93937739 -0.055129589 0.027739048)
(0.97368101 -0.059770349 0.028432658)
(1.0082762 -0.064277997 0.028938822)
(1.0429741 -0.069085663 0.029610106)
(1.077953 -0.073875463 0.03010678)
(1.1129628 -0.078757042 0.030695694)
(1.148126 -0.083780793 0.031239362)
(-0.0030420713 0.00066518883 0.00086905394)
(-1.708597e-05 0.00087765087 0.00018780731)
(0.0042568574 0.0018171191 0.00056170513)
(0.010862337 0.0022801613 0.00074864995)
(0.019363937 0.0025883249 0.0011400172)
(0.029377553 0.0030334683 0.0013292107)
(0.040897153 0.0028850527 0.0020382719)
(0.053816962 0.0029901556 0.0023858832)
(0.068180903 0.0025698032 0.0029679618)
(0.083659224 0.0022509847 0.0036833891)
(0.1003985 0.001483746 0.0042940716)
(0.11832615 0.00073721745 0.0049399594)
(0.1371964 -0.00027105941 0.0056609081)
(0.15716653 -0.0015238939 0.006423855)
(0.17799109 -0.0027940485 0.0071354121)
(0.19978835 -0.0044124835 0.0079708951)
(0.22233855 -0.0060333138 0.0087442905)
(0.24574905 -0.007968449 0.0095934211)
(0.26985165 -0.009989878 0.010430981)
(0.2947249 -0.012206157 0.011261388)
(0.32026276 -0.014608077 0.012115472)
(0.34651813 -0.017112421 0.012930949)
(0.37332306 -0.019824841 0.013760109)
(0.40073603 -0.022647219 0.014599108)
(0.4287151 -0.025617233 0.015397194)
(0.45724905 -0.028723547 0.016191039)
(0.48626971 -0.031953217 0.01700855)
(0.51579076 -0.03532974 0.017797046)
(0.54578052 -0.038807208 0.018562272)
(0.57620356 -0.042426416 0.019348493)
(0.60706012 -0.046138958 0.020089142)
(0.63831628 -0.049978498 0.020837521)
(0.66995096 -0.053916633 0.021564118)
(0.70195618 -0.057958266 0.022283914)
(0.73430414 -0.062090976 0.022982717)
(0.76697298 -0.066339583 0.02368821)
(0.79997288 -0.070637671 0.024361416)
(0.83323944 -0.075058146 0.025042608)
(0.86679715 -0.07956741 0.025727831)
(0.90060344 -0.084093477 0.026353334)
(0.93470319 -0.088767074 0.027030121)
(0.96896942 -0.093486641 0.02767675)
(1.0035421 -0.098195659 0.028281226)
(1.038221 -0.10311775 0.028983753)
(1.0731417 -0.10791278 0.02956655)
(1.1081217 -0.11288743 0.030278734)
(1.1433198 -0.11786183 0.030868226)
(-0.0034447266 -0.0010662558 -0.0015967108)
(-0.00023588746 -0.0016681469 -0.0021587708)
(0.0035304963 -0.0024351978 -0.0019728551)
(0.010525465 -0.0034817335 -0.0019049868)
(0.018599349 -0.0046430016 -0.0016180338)
(0.028780993 -0.0057498359 -0.0011221107)
(0.040088638 -0.0073099054 -0.00062275539)
(0.053222326 -0.0085734265 -0.00018643601)
(0.067270291 -0.010380077 0.00059086888)
(0.082870699 -0.011989866 0.0011784765)
(0.099459959 -0.013969678 0.0018411261)
(0.11721571 -0.015764098 0.0026519892)
(0.13596267 -0.018039006 0.0034786799)
(0.15574501 -0.020120437 0.004286381)
(0.17643279 -0.022553263 0.0051832135)
(0.19801035 -0.025006735 0.0060725396)
(0.22044847 -0.027624866 0.0069575611)
(0.24366335 -0.03037268 0.0078647181)
(0.26766407 -0.033209853 0.0087609766)
(0.2923663 -0.036218047 0.0096644397)
(0.31778096 -0.039295215 0.010575711)
(0.343795 -0.042536401 0.011473602)
(0.37046261 -0.045856684 0.01238937)
(0.39772242 -0.049331399 0.013262401)
(0.42558504 -0.052901407 0.014131605)
(0.45395714 -0.056569594 0.015004308)
(0.48287398 -0.060362694 0.015854264)
(0.5122811 -0.064244011 0.016669688)
(0.54215761 -0.068223299 0.017493797)
(0.5724798 -0.072295485 0.018285332)
(0.60323082 -0.076453173 0.01906859)
(0.63438811 -0.080704799 0.019841362)
(0.66592969 -0.085038984 0.020599275)
(0.69784355 -0.089436435 0.021336763)
(0.73009682 -0.093943834 0.022080543)
(0.76270124 -0.098480641 0.022789906)
(0.79559321 -0.10311272 0.023503287)
(0.82882186 -0.1078217 0.024216927)
(0.86229108 -0.11254218 0.024874783)
(0.89609975 -0.11734563 0.025585672)
(0.93009341 -0.12220351 0.026260843)
(0.96436041 -0.12706791 0.026944912)
(0.99884041 -0.13200885 0.027619964)
(1.033494 -0.13698767 0.028341426)
(1.0683911 -0.14192106 0.028984748)
(1.1034309 -0.14696147 0.029725883)
(1.138593 -0.15193409 0.030424904)
(-0.0028800914 -0.0028385919 -0.0045471205)
(0.00070140658 -0.0050717025 -0.004898395)
(0.0045316864 -0.0073616737 -0.0054598063)
(0.011280601 -0.010074398 -0.0051738577)
(0.01939798 -0.012603357 -0.0047896921)
(0.0292551 -0.015382499 -0.0041685604)
(0.040623583 -0.018244415 -0.003587943)
(0.053341732 -0.02099014 -0.002795075)
(0.067399261 -0.024070673 -0.0020128892)
(0.08268885 -0.026880362 -0.0012226572)
(0.099152223 -0.030039564 -0.00032014136)
(0.11668531 -0.033083492 0.00055621359)
(0.13528388 -0.036303022 0.0014230406)
(0.15487781 -0.039558956 0.0023857577)
(0.17536286 -0.042888772 0.0032979938)
(0.1967926 -0.046299677 0.0042810154)
(0.21901866 -0.049786309 0.005207312)
(0.24209239 -0.053339133 0.0061977179)
(0.26589446 -0.057010286 0.0071517644)
(0.29044211 -0.060719627 0.0081201702)
(0.31566 -0.064576625 0.0090796148)
(0.3415941 -0.068410854 0.010028262)
(0.36808346 -0.072410208 0.010963696)
(0.3952228 -0.076547011 0.011882296)
(0.4229133 -0.080677443 0.01280629)
(0.4511458 -0.084941246 0.013683046)
(0.47992941 -0.089223323 0.014554001)
(0.50919192 -0.093605112 0.015429682)
(0.53893125 -0.098037274 0.016270787)
(0.56912851 -0.10255805 0.017109462)
(0.59975335 -0.10713973 0.017927726)
(0.63078797 -0.11178414 0.018737677)
(0.66221796 -0.11648916 0.019525396)
(0.69401488 -0.12126581 0.020309688)
(0.72617335 -0.12607404 0.021070771)
(0.75865685 -0.13095482 0.021827782)
(0.79147837 -0.13587588 0.022576267)
(0.82458042 -0.14081472 0.023300397)
(0.85800052 -0.1458477 0.024049043)
(0.89166842 -0.1508646 0.024759423)
(0.92559739 -0.15591406 0.025491722)
(0.9597984 -0.16096117 0.026196339)
(0.99417098 -0.16608743 0.026952429)
(1.0288143 -0.17111904 0.027659442)
(1.063601 -0.17619209 0.028419715)
(1.0985916 -0.18124098 0.029226929)
(1.1337236 -0.18616976 0.030048181)
(-0.0016476012 -0.0053486299 -0.0066301885)
(0.0018398484 -0.0081827494 -0.0074564575)
(0.0055454287 -0.012326728 -0.0082655365)
(0.012393963 -0.016299141 -0.0079868813)
(0.020094058 -0.020398978 -0.0076075005)
(0.030112738 -0.024714674 -0.0068722853)
(0.041095918 -0.028954133 -0.0062081463)
(0.053792951 -0.033160692 -0.0052879092)
(0.067607933 -0.037555397 -0.0044891709)
(0.082699331 -0.04156284 -0.0035322208)
(0.099054104 -0.046128976 -0.002532531)
(0.11629582 -0.050075595 -0.001699958)
(0.13481497 -0.054584727 -0.00055969767)
(0.15410475 -0.058738737 0.00037145229)
(0.17449745 -0.063116437 0.0014488952)
(0.19567218 -0.06741471 0.0024566586)
(0.21776379 -0.071790466 0.0035089819)
(0.24062738 -0.076202689 0.0045484742)
(0.26425547 -0.080636162 0.0055699135)
(0.28863231 -0.085134656 0.0066030539)
(0.31369199 -0.089655615 0.0076039069)
(0.33939831 -0.094250481 0.0086201145)
(0.36578761 -0.098871336 0.0095938805)
(0.39274948 -0.10358205 0.010576462)
(0.42028319 -0.10830414 0.011512869)
(0.44837633 -0.1130872 0.012445046)
(0.47700515 -0.117918 0.013391186)
(0.50612716 -0.12278967 0.014286513)
(0.53574219 -0.12771104 0.015171021)
(0.56580612 -0.13268399 0.016042951)
(0.59630291 -0.13769066 0.016892069)
(0.62722259 -0.14274458 0.017729712)
(0.65852759 -0.14784235 0.018552469)
(0.6902186 -0.1529631 0.019357145)
(0.72225713 -0.15813221 0.020154114)
(0.7546482 -0.16332237 0.020936096)
(0.78735086 -0.16853159 0.021699894)
(0.82038567 -0.17378335 0.022478472)
(0.85369013 -0.17902625 0.023218658)
(0.88728397 -0.18430077 0.023980872)
(0.92113637 -0.18955024 0.024726606)
(0.95524752 -0.19482837 0.025492919)
(0.98955878 -0.20007847 0.026256331)
(1.0241231 -0.20527357 0.027006878)
(1.0588071 -0.21050418 0.027836721)
(1.0937422 -0.21560543 0.028612441)
(1.1287739 -0.22062164 0.029499594)
(0 0 0)
(0 0 0)
(0 0 0)
(0 0 0)
(0 0 0)
(0 0 0)
(0 0 0)
(0 0 0)
(0 0 0)
(0 0 0)
(0 0 0)
(0 0 0)
(0 0 0)
(0 0 0)
(0 0 0)
(0 0 0)
(0 0 0)
(0 0 0)
(0 0 0)
(0 0 0)
(0 0 0)
(0 0 0)
(0 0 0)
(0 0 0)
(0 0 0)
(0 0 0)
(0 0 0)
(0 0 0)
(0 0 0)
(0 0 0)
(0 0 0)
(0 0 0)
(0 0 0)
(0 0 0)
(0 0 0)
(0 0 0)
(0 0 0)
(0 0 0)
(0 0 0)
(0 0 0)
(0 0 0)
(0 0 0)
(0 0 0)
(0 0 0)
(0 0 0)
(0 0 0)
(0 0 0)
(0 0 0)
(0 0 0)
(0.0034947462 -0.0023533453 -0.0052787499)
(0.0043923322 -0.0030802292 -0.0037092414)
(0.0053379652 -0.003260716 -0.0019818923)
(0.0057262934 -0.0034650556 -0.00059437372)
(0.0056329944 -0.0032382831 0.00084597373)
(0.0053896561 -0.0034367072 0.0023981357)
(0.004479576 -0.0023370752 0.0041555541)
(0.0073026786 -0.012307111 -0.0081946924)
(0.0090285667 -0.01376842 -0.0046526381)
(0.0098029983 -0.012998283 -0.0022352455)
(0.010054343 -0.012661548 -0.00017747916)
(0.010196908 -0.01351165 0.0018536617)
(0.0092971841 -0.013436817 0.0043185039)
(0.0083547234 -0.013479327 0.0075604553)
(0.010580451 -0.017001228 -0.0086358444)
(0.012772318 -0.016357708 -0.0062493523)
(0.014243578 -0.017286839 -0.0027846614)
(0.014484974 -0.017370467 -0.00043236708)
(0.014443622 -0.017094161 0.0026499026)
(0.013442272 -0.017396193 0.0048253556)
(0.012055007 -0.018418899 0.0087711419)
(0.017563024 -0.024633508 -0.0082748082)
(0.019305882 -0.025287667 -0.005743329)
(0.020467962 -0.025217097 -0.0026144833)
(0.020961672 -0.025362535 -0.00016318764)
(0.020807104 -0.025594034 0.0027065171)
(0.019872756 -0.026287341 0.0057941238)
(0.018097549 -0.025863046 0.0085615802)
(0.024840675 -0.030325886 -0.0081427806)
(0.026927164 -0.030530421 -0.0056831724)
(0.028427557 -0.031042064 -0.0026123505)
(0.028781825 -0.031149929 0.00022520397)
(0.028715759 -0.031598129 0.0030726121)
(0.027752058 -0.031796097 0.0057567437)
(0.026210818 -0.032325623 0.0090616134)
(0.034573331 -0.036790253 -0.0072496817)
(0.036221668 -0.037062676 -0.0049436929)
(0.03744786 -0.037273512 -0.0020119672)
(0.037878274 -0.037819715 0.00029025843)
(0.037711009 -0.037878765 0.0033349011)
(0.036726181 -0.038306411 0.006004412)
(0.035140701 -0.038440164 0.008667608)
(0.045195892 -0.042198591 -0.0066522359)
(0.046943453 -0.042696481 -0.0041925589)
(0.048205632 -0.043517931 -0.0016553956)
(0.048675589 -0.043799814 0.00087802755)
(0.048558085 -0.044390452 0.0036211758)
(0.047759532 -0.044969675 0.006062836)
(0.046279945 -0.04516176 0.0089489103)
(0.0574568 -0.04823279 -0.0056867423)
(0.059125219 -0.048942389 -0.0036577033)
(0.060247953 -0.049290236 -0.00096505092)
(0.060611014 -0.049825913 0.0013206779)
(0.060406491 -0.050057302 0.0037663651)
(0.05960942 -0.05035614 0.0063144192)
(0.05808306 -0.050554893 0.0086650908)
(0.071030883 -0.053770109 -0.0049205555)
(0.072509321 -0.054279524 -0.0025968044)
(0.073567854 -0.055111342 -0.00035277749)
(0.073971878 -0.055692195 0.0018021719)
(0.073881968 -0.05644348 0.0042380336)
(0.073147864 -0.056827662 0.0065399655)
(0.071817212 -0.057297588 0.0090745915)
(0.085633714 -0.059201116 -0.0038901259)
(0.087154026 -0.060134557 -0.0019834301)
(0.08815128 -0.060670166 0.00020619504)
(0.08863541 -0.061487026 0.0025157819)
(0.088360915 -0.061730318 0.0046777557)
(0.087650564 -0.062131135 0.006845917)
(0.086333779 -0.062403639 0.0090252014)
(0.10168003 -0.064787479 -0.0029487471)
(0.10299248 -0.065500644 -0.00099767867)
(0.10396309 -0.066330896 0.0012346702)
(0.10420015 -0.066776467 0.003048421)
(0.10412261 -0.067538356 0.0052070568)
(0.10343464 -0.068087179 0.0072008963)
(0.10216505 -0.068603696 0.0095299037)
(0.11857134 -0.069925976 -0.0020518107)
(0.11994979 -0.070898283 -4.7891829e-05)
(0.1207466 -0.071689636 0.0016671128)
(0.12122689 -0.072607043 0.0037242539)
(0.12103773 -0.073161513 0.0057691473)
(0.12025757 -0.073488362 0.0076015295)
(0.11927473 -0.074044023 0.0096607408)
(0.13676138 -0.075501148 -0.00090216704)
(0.13784558 -0.076263752 0.00085501821)
(0.13872891 -0.077177768 0.0026794867)
(0.13900324 -0.077723144 0.0045103398)
(0.13883506 -0.078317532 0.0063689703)
(0.13820144 -0.079099763 0.0081108087)
(0.13712259 -0.079414772 0.010100143)
(0.15569979 -0.080536768 1.4903415e-06)
(0.15684952 -0.081521077 0.001744292)
(0.15771737 -0.082453888 0.0033667401)
(0.15797774 -0.083230691 0.0051408326)
(0.1579033 -0.084105425 0.006965273)
(0.1572316 -0.084532157 0.0085713304)
(0.15630981 -0.085080985 0.010516998)
(0.17574181 -0.085963383 0.0010803959)
(0.17682295 -0.086865563 0.002754985)
(0.17753842 -0.087691723 0.0042818896)
(0.17781817 -0.088478505 0.0060394806)
(0.17768076 -0.089066756 0.0076084864)
(0.17707807 -0.0897041 0.0092457306)
(0.17614599 -0.090222356 0.010977193)
(0.19665906 -0.091056003 0.0020967468)
(0.19763938 -0.091970063 0.0036562301)
(0.19840599 -0.092993673 0.0051363163)
(0.19865627 -0.093785317 0.0066767203)
(0.19855182 -0.094597865 0.0083321583)
(0.19797367 -0.095261191 0.0097660581)
(0.19710176 -0.095763428 0.011504082)
(0.21837857 -0.096266775 0.003134098)
(0.2193643 -0.097264948 0.0046738542)
(0.2200437 -0.098171929 0.0059888674)
(0.22025717 -0.098930652 0.0076059499)
(0.22017609 -0.099719057 0.0090287143)
(0.21961053 -0.10028893 0.010460094)
(0.21879081 -0.10092179 0.012058493)
(0.24100042 -0.10144453 0.0041954853)
(0.24190429 -0.1024228 0.005561321)
(0.24257161 -0.10337083 0.0069323674)
(0.24279109 -0.10425783 0.0083370814)
(0.24269572 -0.10501916 0.0097485413)
(0.24216879 -0.10574264 0.011103528)
(0.24136534 -0.1062751 0.012625023)
(0.26433917 -0.10661932 0.005190368)
(0.26519714 -0.10757795 0.0065787773)
(0.26584967 -0.10857348 0.0078081034)
(0.26600464 -0.10934547 0.0091959971)
(0.26596311 -0.1101854 0.010523958)
(0.26542654 -0.11080214 0.011804395)
(0.26470219 -0.11148119 0.013222779)
(0.28843861 -0.11178036 0.0062523411)
(0.28928842 -0.11280612 0.0075123904)
(0.289871 -0.11373763 0.0087083454)
(0.2900663 -0.11464885 0.0100176)
(0.28999415 -0.1154132 0.011255899)
(0.28950706 -0.11616928 0.012487222)
(0.28879845 -0.11674636 0.01383202)
(0.31326229 -0.11699306 0.0072448497)
(0.31402681 -0.1179435 0.0084653737)
(0.31462302 -0.11895705 0.0096105109)
(0.31477139 -0.11976101 0.010839308)
(0.31473627 -0.12061212 0.012030609)
(0.31425449 -0.12127449 0.013197132)
(0.31359826 -0.12194077 0.01445794)
(0.33872865 -0.12216443 0.008254595)
(0.33949921 -0.12319633 0.0094149491)
(0.34003948 -0.12413045 0.010493188)
(0.34020871 -0.12503685 0.011668247)
(0.3401585 -0.12581126 0.012794436)
(0.33971041 -0.12656343 0.013897731)
(0.33908578 -0.12719016 0.015098586)
(0.36486885 -0.12742069 0.0092462952)
(0.36557863 -0.12837369 0.010348984)
(0.36611317 -0.12936704 0.011371019)
(0.36626491 -0.13019788 0.012483818)
(0.36623227 -0.13104503 0.013550556)
(0.36581013 -0.13175531 0.014597866)
(0.36522752 -0.13240746 0.01573353)
(0.39160368 -0.1326186 0.010228835)
(0.39230751 -0.13364785 0.011263827)
(0.39280285 -0.13456847 0.012227333)
(0.39296777 -0.13547997 0.013299598)
(0.3929305 -0.13626193 0.014302737)
(0.39254106 -0.1369893 0.015302612)
(0.3919774 -0.13763374 0.016381819)
(0.41892501 -0.13790546 0.011163021)
(0.41961713 -0.1388838 0.012172684)
(0.42007465 -0.13981716 0.013077062)
(0.42025201 -0.14069627 0.014111219)
(0.42021282 -0.14148935 0.015037018)
(0.41984643 -0.14225464 0.01600402)
(0.41933276 -0.14291551 0.016999669)
(0.44679682 -0.14317947 0.012106414)
(0.44749449 -0.14415053 0.0130444)
(0.44789857 -0.14508731 0.013915218)
(0.44811291 -0.14597005 0.014911818)
(0.44803316 -0.14675149 0.015759331)
(0.44775291 -0.14750798 0.01666743)
(0.44726162 -0.14814843 0.017588324)
(0.47523239 -0.14850206 0.013027186)
(0.47587214 -0.14944131 0.013876243)
(0.47630534 -0.15040208 0.014791862)
(0.47649537 -0.151237 0.015609775)
(0.47648528 -0.15203906 0.01652796)
(0.47618323 -0.1527957 0.017365737)
(0.47570767 -0.15345028 0.018272227)
(0.50418338 -0.15381248 0.01392002)
(0.50477611 -0.15475418 0.014750146)
(0.50522163 -0.15569865 0.015594049)
(0.50538884 -0.15653662 0.016368441)
(0.50538961 -0.15734504 0.017267932)
(0.50511125 -0.15805598 0.018014334)
(0.50468017 -0.15876336 0.018900274)
(0.53359769 -0.15915041 0.014788591)
(0.53419839 -0.16011008 0.015606616)
(0.5345957 -0.16103702 0.016358652)
(0.53479189 -0.16186014 0.017161069)
(0.53477808 -0.16266675 0.017956347)
(0.5345405 -0.16339909 0.018691964)
(0.53413165 -0.16408195 0.019528353)
(0.56350199 -0.16453321 0.015675061)
(0.56404753 -0.16545947 0.016413649)
(0.56446516 -0.16638083 0.017171963)