/*--------------------------------*- C++ -*----------------------------------*\
  =========                 |
  \\      /  F ield         | OpenFOAM: The Open Source CFD Toolbox
   \\    /   O peration     | Website:  https://openfoam.org
    \\  /    A nd           | Version:  6
     \\/     M anipulation  |
\*---------------------------------------------------------------------------*/
FoamFile
{
    version     2.0;
    format      ascii;
    class       pointScalarField;
    location    "1.9";
    object      E;
}
// * * * * * * * * * * * * * * * * * * * * * * * * * * * * * * * * * * * * * //

dimensions      [1 -1 -2 0 0 0 0];

internalField   nonuniform List<scalar> 
28033
(
4688.7847
2819.8464
17679.178
16360.314
6377.9813
7479.6244
17504.127
18457.911
2207.6144
1370.6388
685.34342
1207.6978
420.22884
591.58663
414.65808
504.23091
409.89935
587.20442
403.08447
1046.3237
1331.8833
1626.0566
1580.325
19974.808
18631.414
18663.133
17886.545
17196.318
17311.105
15783.554
16519.057
16159.379
15811.91
16598.983
16287.162
16882.262
17632.353
18605.355
4024.7658
2434.1002
1922.2231
1842.5285
2157.3697
2228.4354
2379.4674
2239.4598
2646.0891
2371.1698
2777.9761
2743.8153
2827.4144
2810.6706
2752.9852
2612.8869
2413.248
2620.3476
2492.4885
2593.9332
2720.6745
2749.2753
2962.598
3196.4248
3043.0556
3352.3218
3144.964
3358.9758
3039.2862
3119.1722
3192.3345
2854.7858
2701.8435
2758.7939
2673.6096
2992.3725
2544.3302
2830.4475
2628.4108
2482.2644
2321.2871
2244.4046
2127.8177
2168.9533
2263.4331
2585.9849
2747.4504
3321.5442
3547.8701
4144.8682
4396.6205
4881.6123
5118.7615
5465.6943
5698.5756
5993.6854
6248.9974
6564.399
6863.3518
7213.0074
7528.4116
7895.1436
8133.7587
8594.7448
8806.8111
9119.3854
9418.8942
9761.1675
10111
10750.996
11018.657
11526.372
11815.813
12321.122
12648.334
13043.048
13308.365
13790.194
13914.048
14298.744
14684.352
14908.976
15482.645
15398.475
16085.684
16063.122
16820.116
16679.515
17707.798
17198.365
18598.652
17731.954
19181.827
18588.859
18786.988
10584.017
-2250.1066
7291.2653
887.54131
4508.9469
3768.1813
3406.228
3480.923
4097.6027
3422.7695
4481.3527
3954.1014
4986.3597
4589.2286
5078.3954
4876.855
5053.9733
4812.9916
4831.6295
4878.5602
4499.8619
4924.2604
4392.3595
5543.1148
4865.8895
5802.2821
5120.2904
5613.8761
5006.4029
5144.0728
4442.7093
4383.709
3965.6101
3793.7921
3597.403
3703.5057
3570.8899
3639.6114
3484.8906
3880.5943
3793.8326
4042.7817
4078.3523
4345.3518
4403.2843
4751.2184
4919.1673
5313.5476
5601.9804
5988.1953
6296.8845
6619.7308
6813.1753
7027.4536
7080.7874
7162.248
7175.5501
7214.5862
7279.0964
7432.3402
7629.1506
7942.9451
8317.883
8757.2635
9244.5062
9733.6471
10281.955
10865.99
11533.236
11728.722
12509.906
12676.963
13541.27
13718.339
14373.373
14693.964
15017.285
15463.676
15592.562
15911.481
16113.429
16219.276
16541.189
16653.055
16997.263
17206.81
17600.356
17844.675
18242
18483.907
18763.176
18862.836
18933.918
18767.252
18385.972
3643.5706
2501.4773
1260.4622
2150.4779
807.03969
839.76598
708.16094
413.32165
486.50654
424.11903
573.96331
658.06829
688.66291
492.22989
1784.1512
8975.7844
12587.257
-9371.7205
6464.892
1238.4114
1236.7826
3240.8315
3057.2379
3688.2915
4391.3646
4101.0355
3363.7716
5338.2968
2720.6313
5544.124
2942.615
6632.4721
2364.6983
6356.2504
3107.9802
5212.9579
6107.1836
4622.8096
6910.7638
4286.2863
6692.8774
5461.9496
5521.5766
5881.3405
3803.1026
3958.8476
3946.5954
3670.0142
4129.4814
4280.5968
5827.8271
4287.4703
5711.0639
5567.0349
5690.0619
5680.1737
5599.2177
5544.9272
5520.8472
5682.7908
5886.6561
6263.7651
6654.0256
7083.528
7419.2325
7669.5158
7764.8278
7762.6255
7630.7136
7530.2641
7434.59
7475.0467
7677.9903
8026.7847
8578.078
9177.5582
9903.6009
10547.678
11181.347
11691.969
12118.217
12485.194
12300.85
12996.824
13184.662
13516.677
13577.722
13959.809
14233.409
14452.114
14628.912
14744.904
14829.72
14805.265
14877.525
14881.994
15061.5
15191.605
15540.111
15782.203
16216.453
16479.842
16846.513
17004.103
17187.603
17204.126
17183.63
17212.76
16971.394
17635.18
18916.924
19008.825
17271.838
17065.579
16879.661
16046.223
16160.735
15494.764
17803.939
15086.43
17477.861
15461.314
19714.171
16598.569
20134.989
19837.221
17979.1
19398.378
18409.003
18517.938
18025.943
17729.259
17372.528
16919.498
16616.278
16185.782
15913.311
15685.327
15294.764
15123.108
14862.664
14640.318
14388.454
14103.466
13790.731
13452.441
13072.263
12709.723
12231.209
12061.869
11436.761
11178.526
9895.3306
10494.391
9756.555
9462.7572
8965.2075
8522.0688
8120.2317
7739.5129
7437.992
7184.8663
7015.5659
6875.8934
6798.2509
6691.29
6613.7346
6448.3707
6291.3239
6027.7187
5786.1127
5463.3552
5193.2592
4893.2974
4685.2719
4422.5081
4364.3583
4133.1311
4104.8339
3909.9053
3956.0876
3296.9208
3848.7913
3203.3603
3040.319
3824.4412
3106.3442
3371.3984
3335.1378
3864.0953
4147.5892
3647.8324
4187.3136
3636.7232
4263.0144
4265.9294
3858.7573
2907.8009
4223.9421
3109.9729
3067.2998
3573.2045
3088.208
3981.5337
3531.0913
3491.3419
2954.3045
4385.9495
2342.0824
4940.8066
2883.6172
2581.5638
2530.7275
3772.6908
2587.3749
1706.6187
3394.8387
4747.6174
-757.43559
9724.6162
2357.9663
3128.4164
2398.9416
3012.6023
2311.9334
3237.2319
2103.7376
3233.6157
2713.8693
3068.6256
2601.9056
2564.4061
2537.8808
2971.0025
1539.8313
349.35432
737.39596
-937.07579
430.82231
188.70084
-1131.4521
65.675062
494.48013
-670.41954
388.9002
130.22088
-241.2473
-349.40058
-898.86925
-1023.632
17391.589
17349.612
17372.611
17259.145
17236.046
17201.47
17168.455
17147.878
17207.592
17220.157
17348.428
17282.548
17424.155
16975.028
17927.907
18791.984
18314.644
18688.076
18326.971
18589.007
18499.68
18498.93
18463.234
18488.737
18439.879
18550.561
18401.399
18496.369
18262.227
18904.991
5500.4134
980.18719
1668.3312
1569.4834
1461.5292
1875.398
1704.6232
2149.857
1769.0988
2485.022
1560.5029
2286.771
1368.9242
2237.4992
1211.9305
2195.5466
1887.3486
2375.2303
2272.9833
2684.5855
2643.1897
2619.7312
2711.6824
2168.8415
2255.0478
1818.3777
1846.4089
1520.3112
1840.1513
1963.7538
2193.2863
2631.9043
3282.0189
3615.7103
4192.0315
4177.29
4516.8958
4465.2545
4728.8846
4636.3688
4953.0798
4911.5298
5080.2264
5303.3424
5193.7552
5277.1475
5108.239
4989.1078
4716.1655
4538.1127
4311.3614
4263.2379
4310.4471
4574.4544
5007.765
5620.693
6355.833
7163.8883
7985.215
8757.9897
9435.7952
10031.467
10446.641
10864.678
10962.2
11285.581
11795.045
11689.633
12004.853
11662.419
11854.796
11820.519
11912.435
11945.915
11966.534
12077.772
12236.467
12403.827
12783.814
13087.624
13673.35
14117.753
14719.687
15107.919
15448.068
16134.116
16454.81
16866.642
17311.678
17304.426
18135.024
17718.762
18970.368
18489.898
19577.727
4037.6046
313.60162
1683.3119
539.93285
1635.8123
1106.9541
1615.2757
1401.9534
1604.5259
1449.4537
1571.9005
1473.6419
1457.2582
1369.3831
1415.9128
1678.0943
1245.5039
1753.947
1640.5405
1909.9333
1791.013
1963.3396
1740.0874
1862.616
1684.5825
1654.4283
1555.3253
1566.3591
1577.5965
1629.6705
1817.1522
2081.8064
2085.7364
2220.127
2476.1054
2543.8263
2869.778
3097.4571
3084.3411
3094.3098
3182.0339
3227.1852
3440.8024
3392.8763
3492.6011
3660.7801
3726.0462
3822.1651
3924.1021
3985.3898
4074.6331
4199.7388
4356.7513
4595.6434
4897.4333
5289.2978
5728.4431
6236.3719
6757.7012
7277.2978
7784.1112
8253.4663
8673.5003
9054.1561
9425.0279
9964.3211
9773.1162
10771.054
10886.33
11261.941
11716.392
11874.481
12048.978
12288.646
12501.532
12746.883
13004.777
13301.183
13685.67
13917.649
14537.97
14620.783
15420.688
15249.149
16727.615
16902.172
17684.655
17512.037
18581.524
18040.249
19308.551
18521.162
19949.357
18243.017
20687.229
3129.5115
-110.04825
1455.1022
379.1099
1038.9536
699.42935
932.07775
1155.2783
1131.3071
1332.6462
1093.5318
1392.736
995.19168
1362.7767
1037.3873
1225.4033
1251.353
1518.1995
1376.5958
1646.0823
1637.9592
1773.5355
1784.3658
1754.2789
1683.3398
1584.3122
1624.5138
1464.5246
1657.2143
1618.3804
1880.9354
1810.4039
2220.3457
2327.3317
2580.6669
2669.8449
2609.5873
2320.7904
2572.8456
2564.4649
2768.1145
2811.2925
2799.0109
3040.0604
3259.0719
3368.5776
3491.786
3589.5681
3676.4043
3696.0925
3815.4315
3887.8077
4087.3792
4320.9545
4678.9364
5091.0669
5596.7616
6133.7885
6695.383
7245.4733
7772.4717
8270.6739
8684.6257
9112.6451
9489.5474
9724.9552
10317.082
10567.348
11177.135
11189.358
11559.012
11673.034
12166.004
12426.619
12697.401
12960.172
13222.602
13587.042
13844.845
14218.838
14626.834
14992.099
15228.849
16225.635
16315.666
16202.663
16338.77
16839.196
17157.033
17101.842
18030.603
17290.517
18674.424
17407.388
21127.581
1805.4101
363.21606
664.79789
543.76874
647.50261
516.98833
756.20106
668.97553
595.61489
620.43624
678.66441
593.24538
477.59734
690.1207
292.202
777.80427
277.12445
747.93665
413.7276
917.03133
519.23564
917.00818
522.89875
803.40934
514.85819
697.00639
449.9541
637.62946
499.37326
659.24955
645.14128
877.90711
1012.0121
1033.6364
1326.9162
1283.2424
1589.9745
2332.4521
2333.4907
2368.3657
2414.8609
2585.9844
2715.4449
2830.5055
2889.2889
3016.3151
3190.6694
3349.0924
3530.6114
3710.7377
3922.9905
4110.6469
4361.2379
4602.3053
4903.0185
5228.7162
5604.1133
6003.668
6451.5519
6898.208
7375.3632
7842.9838
8256.599
8768.6459
9125.9955
9583.3826
9910.1035
10282.523
10798.653
10757.488
11545.12
11806.556
11646.392
11626.402
12045.259
12299.626
12622.301
12870.613
13236.387
13515.677
13948.208
14148.315
14918.592
14810.403
15594.498
15701.68
17044.375
16806.32
17989.128
17446.337
18964.916
17688.129
20059.983
17319.389
22373.357
1620.7855
-318.55402
709.04511
-234.59435
505.56275
-13.315738
513.26668
165.09798
508.0742
446.79453
424.72764
376.14879
392.29446
332.75683
291.97978
394.46338
299.26131
593.52131
384.73753
700.81812
472.60637
849.12617
558.34811
884.08035
582.27064
713.70225
629.33274
610.63012
650.40849
692.92969
842.53506
914.24944
1048.6177
1204.5244
1331.4338
1348.2653
1665.0444
968.56828
1014.8434
1008.0628
1394.3432
1301.5502
1483.7586
1669.6566
1875.079
2061.6955
2261.5996
2388.7161
2567.5412
2705.2596
2887.7225
3044.9051
3296.6715
3517.5676
3843.2944
4165.0813
4555.4055
4954.9748
5388.0203
5824.1658
6271.3725
6697.2991
7150.4991
7632.26
7906.3304
8530.9109
8906.907
9136.0873
9737.6071
10111.753
10788.437
10866.953
11834.12
13080.664
13236.544
13645.736
13866.994
14260.026
14566.264
14890.309
15278.535
15655.026
15923.812
16516.086
16708.344
17214.585
17127.339
17450.34
17653.58
17644.918
18299.532
17843.21
19380.934
17160.907
22925.35
916.71702
-82.956124
450.66382
121.3408
194.25304
164.36675
110.34792
131.24166
134.48107
75.426607
81.227905
134.85428
-43.546025
140.5597
-129.07606
114.03785
-171.15066
152.83255
-149.86187
320.21357
-29.194213
408.90471
21.860741
421.45151
-31.52207
439.45143
-28.867881
354.91456
108.16874
353.42339
263.59952
397.21245
499.32247
570.56727
664.06827
832.40492
885.5798
1384.5976
1354.6438
1740.4334
1656.8382
1933.4835
1929.7767
2174.8351
2300.866
2474.4306
2593.6129
2787.4218
2946.0307
3139.535
3338.1336
3568.5856
3816.3864
4105.8799
4417.8718
4770.9577
5142.6825
5532.8842
5960.6568
6369.2574
6775.4981
7272.1508
7639.5882
8012.0932
8653.6113
8842.6198
9384.2503
9783.7623
10251.316
10576.478
10916.595
11314.011
11700.185
11147.483
11304.202
11591.469
11939.344
12259.81
12586.281
12903.91
13330.275
13499.383
14194.444
14148.557
15014.227
14958.167
16048.055
15935.392
17248.178
16769.07
18575.664
17314.216
19761.426
17292.329
23370.435
690.01139
-460.23096
532.01043
-509.25792
188.6078
-336.22613
108.04656
-245.2349
117.42829
-155.34412
74.711763
-228.55114
-65.996554
-278.23999
-249.52103
-266.45088
-292.39323
-185.24898
-283.2713
-10.273833
-265.51055
151.71694
-232.95546
144.72485
-139.47352
43.85951
-183.03601
14.523743
-192.29511
19.372131
-61.407983
163.1707
203.16851
295.07452
433.94318
503.80536
456.75619
547.6209
453.46025
705.71122
586.84356
786.1713
855.31216
1051.7188
1246.521
1428.9571
1725.8969
1901.858
2172.9061
2339.7777
2599.2896
2767.6319
3044.6662
3268.1206
3597.4768
3906.3445
4309.1372
4705.6356
5168.4984
5587.4685
6131.0127
6538.3816
7014.1107
7606.9209
7922.974
8540.9839
8972.9313
9493.1961
9989.7725
10396.83
11133.671
11264.164
11983.373
12452.983
13182.273
13576.828
14021.415
14299.907
14739.946
15044.867
15440.313
15885.942
16161.057
16701.211
16959.88
17390.356
17578.135
17871.558
18117.199
17974.848
18590.752
17797.598
19860.93
17191.479
23900.003
576.81057
-129.63318
402.4327
-14.920075
164.17986
-10.753457
56.479115
-78.008636
76.261131
-67.239325
3.1721132
6.0145837
-12.741493
-5.6313718
-22.220651
-5.7975067
-49.889211
47.866078
-7.6172183
151.71896
-53.888627
169.0235
-88.299054
395.42377
-149.59799
392.3512
-45.48682
334.80739
39.257063
344.11243
158.41514
388.32171
276.25878
465.79069
533.63295
488.19513
786.59994
707.30075
899.17907
1009.3234
1035.8694
1220.3421
1353.0913
1510.3633
1607.8528
1838.9517
1967.4844
2187.5818
2359.1028
2580.3341
2763.0632
2988.8425
3209.8965
3449.745
3724.9091
4015.3437
4355.8326
4703.9388
5089.6402
5520.902
5921.007
6350.6573
6858.7779
7196.8113
7721.5943
8111.3517
8579.0565
8999.3532
9428.6243
9901.5856
10198.396
10671.229
11105.993
11132.65
11157.045
11404.318
11710.157
11980.097
12336.071
12548.265
13004.387
13098.214
13704.83
13712.017
14437.505
14443.416
15328.812
15313.786
16363.232
16274.692
17839.143
17333.244
19543.419
17448.867
23510.512
463.34838
-598.6986
398.24149
-575.14556
-52.545142
-582.62258
-105.14083
-525.74586
-94.36484
-495.75159
-176.78522
-542.17349
-429.32666
-710.86065
-674.35463
-856.36991
-789.92086
-880.18019
-811.97757
-717.41372
-677.59549
-299.2439
-360.30836
-287.9531
-428.70595
-205.4035
-548.45882
-292.41397
-577.19404
-332.29682
-488.78555
-263.56048
-293.94789
-46.350622
-225.13319
164.89642
-96.16561
149.21703
21.701869
94.104616
133.41814
178.74478
340.55654
422.02666
724.08265
890.03063
1202.5623
1399.3649
1702.433
1891.5798
2164.1275
2355.1647
2619.3001
2844.3529
3151.5201
3449.6447
3831.312
4193.1029
4668.7826
5068.325
5547.5217
6040.7658
6449.8006
6975.4463
7423.2304
7943.1702
8392.2053
8904.2013
9434.5553
9896.4402
10487.799
10956.689
11490.965
12009.738
13162.948
13439.789
13903.243
14274.394
14618.066
15019.428
15299.819
15795.701
16031.255
16575.74
16830.925
17309.97
17567.738
17926.439
18191.382
18335.978
18713.531
18213.841
19707.051
17567.857
23413.154
1093.8112
-107.82265
954.10985
-7.4351469
595.1521
226.97667
544.39774
242.15143
479.69119
454.4941
486.04324
508.17589
580.61745
515.98812
627.11061
492.17302
638.01625
491.42819
699.11426
598.52362
628.88025
524.34019
308.27281
577.34505
413.13484
632.25327
394.37515
719.46697
420.88477
746.73545
495.48002
765.64173
677.56855
734.0114
940.77678
862.01471
1033.1369
1090.6557
1130.5968
1319.4089
1347.2476
1546.5296
1604.2377
1855.6242
1910.8376
2174.4683
2296.8301
2543.1218
2702.5656
2933.8223
3107.8036
3326.2082
3532.9685
3769.038
4020.7056
4313.0407
4619.8985
4982.4723
5360.4724
5749.4748
6213.6631
6614.6682
7083.005
7529.4784
7993.0183
8387.4349
8882.185
9321.302
9752.0868
10163.661
10562.939
10942.568
11219.6
11601.477
11743.762
11529.113
12183.861
12229.474
12777.603
12920.597
13481.346
13602.227
14220.362
14308.559
14978.495
15011.061
15797.717
15731.792
16685.786
16543.892
17645.041
17581.044
19034.687
18188.146
23193.084
847.77287
-334.15924
456.96107
-568.62043
154.58319
-424.60921
-47.058785
-367.85593
7.9600901
-262.3991
-198.3048
-338.64776
-347.57313
-590.97196
-459.06774
-818.56646
-418.86664
-876.37131
-375.5237
-762.49153
-229.35902
-826.4
-355.69012
-307.61474
-409.47921
-441.09831
-547.1669
-607.28155
-803.14454
-734.31981
-926.02597
-682.85918
-923.77633
-468.19624
-773.34625
-399.06497
-501.47547
-330.62472
-294.87197
-269.97433
-143.79588
-151.02376
64.947535
131.50616
395.07105
557.02238
837.99418
1003.3471
1265.2112
1414.0885
1613.0547
1741.7128
1921.562
2062.4094
2281.8507
2506.816
2819.0981
3160.0669
3574.7408
4026.6402
4505.9015
5019.696
5518.7811
6078.4022
6551.9969
7149.8642
7649.0037
8168.309
8667.4616
9211.2682
9746.8818
10219.216
10717
11390.29
11820.368
12627.992
12755.18
13273.03
13525.33
13949.933
14299.55
14744.456
15139.224
15647.064
16057.207
16631.321
17013.541
17601.525
17966.479
18408.331
18921.409
18868.355
19781.391
18837.795
21930.446
1829.4795
-365.5626
687.52047
209.49551
807.37244
545.27759
975.79552
806.1932
1080.4711
1114.5729
1112.4427
1131.9717
1286.0954
1050.4674
1191.6775
1142.3043
1178.5654
1138.2858
1319.5026
1236.2135
1338.4293
1558.261
1588.6982
1430.5625
1474.5022
1565.7038
1499.368
1686.7118
1625.375
1827.8189
1850.9265
1943.7172
2120.4354
2177.4745
2352.3636
2536.099
2511.5826
2716.4461
2596.8197
2803.5282
2658.5016
2873.8997
2767.9195
3001.3614
2995.6051
3234.7283
3350.3679
3594.839
3784.0052
4035.734
4248.2012
4509.7287
4755.2102
5037.7633
5335.3784
5679.0392
6035.7665
6437.5295
6859.498
7280.2745
7722.5147
8145.7275
8548.9101
8937.6618
9301.034
9634.6739
9970.6938
10312.067
10677.712
11027.73
11316.984
11613.208
12070.026
12073.106
12447.394
12692.51
12833.761
13177.514
13435.9
13713.512
14069.193
14301.449
14654.867
14882.716
15225.409
15398.388
15740.058
15858.24
16190.675
16369.177
16784.432
17080.425
18320.716
18207.555
21958.303
2388.0242
192.7159
1220.6826
480.17835
589.59051
262.26772
576.85728
143.62103
484.11424
218.19187
269.16144
271.40957
2.396834
51.037843
-107.41528
-231.89588
-178.90844
-386.46344
-85.029077
-391.58888
-6.3321874
-313.87375
-3.7840188
-280.49621
73.83903
-403.1014
-303.36735
-639.61345
-784.09618
-813.24201
-1080.6198
-827.75363
-1080.0904
-715.31883
-820.19588
-567.94605
-498.46974
-371.78553
-192.78639
-197.7577
20.028344
38.805363
244.50986
365.30904
570.61771
731.25208
947.76052
1065.0136
1230.5315
1290.6585
1369.1702
1389.4161
1442.6811
1486.6293
1614.2424
1783.9179
2053.4151
2406.429
2830.7162
3334.1666
3868.3531
4451.2177
4996.9084
5625.45
6111.4179
6747.5506
7179.6733
7739.4425
8181.4311
8649.6997
9026.8768
9641.1108
9727.9601
10413.93
10563.588
11097.653
11276.592
11662.105
11905.638
12346.427
12688.973
13195.908
13673.102
14299.914
14833.534
15561.417
16114.518
16874.493
17438.117
18122.276
18708.241
19180.745
19713.756
19552.14
20770.295
3318.19
-142.84025
1428.5694
320.50034
1416.4018
1153.8043
1570.5251
1666.7227
1990.6839
2057.4438
2230.6266
2130.521
2345.6263
2202.8944
2227.4076
2176.0152
2212.7028
2055.3337
2531.3111
2208.1938
2810.2019
2624.9792
2794.8436
2749.503
2732.0592
2710.8669
2755.1701
2572.2899
2572.8901
2375.8963
2469.0558
2416.2632
2558.5939
2783.4037
2746.3138
3079.4733
3068.5586
3370.6952
3228.1373
3494.4248
3340.1559
3526.6177
3444.364
3626.9105
3665.1224
3892.7294
4047.798
4297.5031
4498.4857
4727.8249
4899.4452
5077.833
5222.194
5380.9269
5549.9495
5772.0762
6039.6891
6369.1051
6765.2696
7200.6275
7664.2297
8148.5756
8618.3781
9067.7404
9488.7318
9928.2744
10291.844
10748.659
10999.218
11334.305
11795.752
11919.732
12452.348
12592.827
12927.714
13109.868
13408.486
13591.317
13846.74
14071.061
14336.735
14610.108
14962.102
15241.222
15663.395
15928.154
16352.861
16562.53
16895.073
17085.583
17253.705
17486.75
17740.062
18290.822
19650.166
5164.4363
-1236.0716
1751.7258
142.48372
1565.2676
815.92612
1520.1218
1398.0543
1343.7073
1340.6604
668.6355
804.34218
373.31999
319.60308
424.45816
320.85078
791.42209
505.8395
1241.3166
590.79123
1428.8183
273.85323
943.58579
-190.01772
219.5816
-256.5126
-9.9665627
121.9855
456.38722
1106.4455
1375.36
2159.1562
2446.5788
2929.3018
2909.7198
3265.1366
3292.3997
3248.2429
3302.9635
3164.2106
3197.3184
3133.7992
3156.3403
3110.4602
3072.7743
2941.0321
2814.3436
2605.7189
2459.8653
2332.7437
2329.8608
2466.5157
2788.4155
3258.0684
3914.0633
4659.9061
5456.7251
6266.224
6995.3378
7627.9553
8136.3814
8533.082
8775.3325
8992.6822
9079.1775
9208.0534
9112.0918
9262.575
9117.5968
9537.3777
9232.4474
9629.9898
9413.3426
9758.1201
9789.7278
10206.857
10486.432
11004.424
11593.77
12271.962
12925.621
13738.93
14308.45
15086.168
15527.721
16165.907
16482.645
16995.817
17317.756
17756.273
18187.833
18807.418
19126.389
20026.229
19924.318
236.32482
794.39783
-180.6323
-355.54167
-468.31808
-306.37051
-395.10958
-215.19394
-329.8414
384.2689
-133.74279
34.629626
598.88675
685.78263
192.38421
1115.8596
847.22136
430.38618
682.3737
266.52318
354.69745
207.59481
175.52718
457.32404
247.84305
311.16166
678.26412
501.98031
1006.5162
507.00933
567.55592
-64.057345
-627.22731
-498.21664
-752.38002
-811.51746
-722.2364
-891.09542
-823.58834
-771.64183
-627.01033
-778.3885
-627.28944
-108.51475
-205.50438
478.71605
463.53364
250.33925
6.1672658
61.885335
-34.454442
-32.632736
-85.539419
69.256925
-20.954094
125.93513
102.58096
321.69492
714.15788
-170.69704
220.85854
20.942739
-322.90954
-350.99987
-531.81441
-493.55348
-574.74387
-526.98546
-623.44171
-579.29635
-539.55408
-459.84816
-321.30323
-230.95023
70.334886
555.60764
325.25878
140.5723
169.87716
83.303441
95.879157
16.882326
60.658157
61.044782
72.73413
115.14974
86.96071
152.55768
246.29547
286.18218
173.57103
42.273055
-101.81791
-175.99894
-209.68892
-258.1236
-263.00315
-306.45739
-305.13481
-268.3433
-268.19551
-155.26795
-102.22671
111.21369
128.89543
332.37021
211.45817
89.389809
85.573276
20.795471
20.541094
-9.3210019
-3.7812905
12.506212
-9.376336
20.22346
41.485261
37.519203
114.89114
125.27474
-23.646397
-40.371757
-259.37712
-247.30038
-315.29982
-339.45799
-347.45243
-320.13484
-346.90805
-245.09212
-272.51595
-175.80331
-171.79868
51.90532
35.858415
444.75568
255.48727
89.077353
73.242582
-14.396931
-25.300457
-19.869519
-41.686038
-33.713498
-81.429798
18.766789
-50.532484
8.6911294
175.32234
17.679214
-272.07166
-283.83864
-541.78074
-576.09045
-664.32418
-565.69777
-659.77027
-559.051
-626.96074
-442.8669
-476.30137
-460.47868
-302.16253
-45.601771
-162.02538
19.027744
-196.29269
-331.71269
-614.70459
-547.57574
-752.65731
-689.43995
-770.45023
-720.82209
-680.45407
-627.84226
-521.03392
-431.12641
-182.44534
-186.86993
-514.0468
25.798246
-850.92338
-762.7285
-944.54703
-883.63625
-1095.0576
-902.1777
-843.03422
-786.02226
-700.03363
-832.27397
-645.58542
-216.6684
-94.790104
438.33549
-237.1755
-574.7613
-792.454
-971.88801
-1080.0353
-831.12785
-773.39969
-794.9078
-1141.3487
-979.54582
-1107.1008
-1075.9477
-811.21948
-987.62799
-510.34348
-738.5175
-1614.5435
-1821.3429
-2110.5776
-1938.7498
-1891.9833
-1700.31
-2045.9623
-2028.5303
-2185.1257
-2019.7232
-1633.7824
-799.11366
-802.98471
6537.2381
10637.061
6931.2334
8760.8559
9746.4256
8505.2041
9529.4696
10681.448
8504.0363
9407.4913
9330.5028
8995.0741
8827.7261
9520.6508
5901.4539
9318.7365
3981.371
6277.6654
6437.171
5064.4286
7647.6294
7093.8393
6882.0888
7798.5244
5244.9557
5960.2261
4308.1966
5120.9362
6973.7548
6945.9685
1810.4321
2306.3923
921.99307
1325.3016
4244.0236
613.0986
505.01883
673.72386
-1743.3612
1845.9982
385.63688
3908.6595
1603.2132
-463.51787
1693.9465
1559.5554
3322.2214
3225.1445
379.43961
610.67131
1458.5024
572.68339
1418.1145
1622.8803
-251.69455
1304.9074
366.14444
1910.5134
2751.1788
1173.5716
5243.0935
3660.8656
1394.9125
4339.826
2410.148
2729.6643
3547.6213
2791.9638
3261.8753
5328.3653
2804.4394
4027.2671
2032.3457
2763.5634
4656.0437
1001.0379
2234.0286
2214.972
2019.1703
1850.8263
1859.4918
1085.0029
1056.7919
1315.3371
-215.38524
1567.4623
652.02592
1390.6256
2454.3652
1063.6003
2948.0122
3479.7774
2975.4165
2339.3607
2240.8605
2653.3055
2877.7883
2682.5576
2834.8851
3139.8311
2119.263
2876.7045
2405.0508
2063.9563
3634.901
3133.991
2420.8471
2822.1482
3431.662
3424.804
2885.163
2894.0202
3080.8073
2351.1581
3230.119
3098.4548
3006.6139
3022.0773
2519.7459
3956.7762
3071.9785
4042.3007
3577.4288
3929.9575
2843.9606
3496.7026
3127.6062
3475.2597
3385.895
3252.3993
3176.8568
2792.6045
3117.4232
3168.0543
2963.0786
4314.7305
3123.383
3649.3241
3508.2309
3811.9359
3411.8208
3657.3804
3402.0128
2781.3653
4123.6426
2862.0445
4194.2118
3355.0527
3541.0405
4585.4078
4073.3859
4677.8205
4301.2472
4826.105
4135.1784
4684.4258
4148.3133
4327.1171
4712.9761
3866.9389
4897.4854
4154.8618
4380.6829
4580.5112
4997.3892
5449.0543
4101.8884
4541.606
4350.2191
4501.3015
4346.345
4313.7563
3987.1658
3360.5738
3996.8674
3137.4884
3538.9921
3335.337
3202.277
4580.8031
4997.2299
5068.4613
4348.32
5223.859
4480.781
4744.9822
4592.8789
4381.8469
4838.1737
4696.8696
4911.8947
4808.1792
4926.3126
5188.2058
5508.7151
5439.0303
4766.9942
5133.0741
4379.1922
4701.7493
5069.4712
4843.426
4243.3049
3649.7245
3685.2884
2996.9994
3335.0982
3003.6004
2671.0901
4624.2872
5396.7262
4578.374
4322.608
5430.7074
5143.5182
4616.6463
4226.6137
4637.9285
4747.9262
4935.0573
5441.3311
5231.455
5429.0384
5816.9124
6161.2359
5035.0939
4895.2381
5094.3098
4908.8384
3995.7138
4954.5511
4786.2116
4231.2973
3789.5906
3730.8391
2672.8788
3002.5469
2757.2018
2494.3147
4249.4342
4799.9362
3944.8338
4032.9829
4441.3985
4856.4677
4624.9902
4255.412
3967.0379
4573.3463
4410.5274
5128.895
5024.9075
4930.8208
4543.3624
6457.9025
4630.081
4575.855
4231.1744
4483.3189
3883.1508
4422.9185
4079.5218
4507.078
3927.3993
4045.3988
3111.3741
3018.8705
2717.0848
2965.5035
3280.4642
4822.5294
4361.1815
4758.8922
4553.2883
4642.5073
4144.4965
4850.0635
4041.5783
4292.868
4214.3239
4078.9901
4408.0124
4809.0662
4412.3317
6333.2386
4387.0479
4152.6625
3897.8748
4459.9999
4197.7835
4754.3958
4283.8559
4363.6642
4359.1851
4364.6185
4560.3712
4432.232
4020.4379
3670.3442
4225.8471
5412.0294
4755.59
5177.9786
4838.5379
4818.6237
4562.4918
4919.0088
4793.1199
4674.9643
4166.8397
4125.8488
4023.3524
5077.5419
4442.3721
5987.2478
4899.3569
5203.0192
4662.8088
5422.143
4751.4137
5711.9133
4697.6472
5258.4476
4334.3978
5916.4779
5144.389
5480.8759
4597.9001
3760.1188
6668.8341
6551.67
4964.7581
5682.2793
5125.7703
5434.1236
5197.0623
5384.0018
4912.5275
5303.2341
4878.7025
4349.8167
4329.5079
4388.1096
4622.4434
6448.4976
5828.3783
6176.5684
5435.113
5981.4529
5365.7647
5230.5386
4881.1829
5042.9412
5073.528
5010.9169
5207.4473
5785.4468
5959.5466
5192.3095
8593.0676
7449.7569
5686.4609
5529.9838
5372.8091
5752.2985
5235.6049
5958.8225
5515.3991
5450.9498
5309.0316
5471.2481
5555.176
4884.9417
4793.2202
7676.2564
6604.2375
5669.9305
5740.8361
5800.5732
5398.6118
5989.7321
5058.4338
5323.88
5060.2298
5162.4524
5099.4215
5225.7424
6242.6408
6271.6629
8090.3502
6882.442
5970.4558
6008.2439
5642.4571
5943.7766
5366.4184
5448.0216
5503.7943
5227.5781
5473.687
5297.0312
4388.4401
4994.3977
3752.0295
8026.065
6293.8397
5121.4507
4602.1205
5559.0533
4647.3977
4540.3158
4694.305
4372.8482
4819.8021
4474.1451
4931.324
5225.2495
5006.9027
5499.8622
7089.0768
5838.8295
5324.4007
4836.9537
4411.9098
4429.7476
4649.4972
4386.3639
4415.7819
4253.594
4326.022
4233.6003
4695.1769
4340.0167
3364.48
7292.8367
5076.2033
3855.0712
4117.1745
4306.1362
4022.5825
3915.2963
3889.8712
3790.5829
3639.8028
3511.2374
3396.4951
3347.5853
4283.8365
3847.6534
5455.6788
4867.454
4637.4669
4620.6829
4199.7294
4178.4744
3438.8837
3767.1395
3427.1793
4217.6314
3809.9057
3753.9438
3579.7915
3398.3996
3062.285
4729.8588
4539.103
3923.5843
3594.7269
3741.1077
3590.3543
3690.963
3502.7779
3684.2413
3217.2289
3399.9428
3058.2529
3445.7821
3176.7455
3317.5807
4544.499
3965.1453
3583.7332
3655.6332
3709.4103
3705.0175
3493.5681
3669.5935
3314.9874
3570.3713
3312.5412
3610.7283
3329.1396
3358.2431
3329.4203
3802.4786
3778.9253
3608.9874
3607.9908
3759.0601
3540.5519
3676.9112
3422.553
3709.2666
3362.2285
3672.9882
3249.6623
3587.3378
3298.2695
3334.1058
3666.0676
3798.2359
3717.4601
3837.3627
4102.9908
3838.4553
3804.1631
3868.1538
3806.7517
3830.4721
3849.7962
3901.5418
3950.6181
3777.7135
4082.2316
4206.119
3705.9518
4003.8601
3976.1858
3627.1296
3826.5031
3741.6222
3861.8898
3684.4874
4063.6993
3442.9255
3898.2317
3686.1896
3902.7002
3584.4423
4431.5274
3968.1313
3747.1921
4255.4243
4045.3018
4357.3492
3862.5512
4223.6425
3900.4981
4070.5952
4374.9081
4131.6316
4440.8629
3956.0292
4472.9295
4345.4311
4269.5318
4960.5643
4595.9933
4945.046
4391.1817
4721.5355
4351.5919
4617.548
4392.464
4369.0228
4437.4933
4299.5578
4599.9733
4437.7344
4603.1468
5135.0094
4733.0423
4933.6948
4654.3033
4999.8055
4511.5739
4835.345
4522.774
4607.6978
4665.3135
4461.4846
4895.8231
4505.0122
4678.5784
5059.1703
4893.1241
5118.3393
4786.4495
5181.4974
4692.4959
4879.2861
4611.5112
4668.5101
4675.2437
4514.4897
4692.3358
4578.096
4539.0361
4738.0611
5047.3795
5344.6674
5106.4552
5187.6048
4922.5661
5075.0315
4723.9077
4833.124
4739.828
4633.5636
4746.9952
4562.4696
4739.1704
4606.4114
4692.0635
5122.5336
5201.6223
5294.1678
4862.0606
5147.0292
4845.8981
4814.2691
4750.2759
4611.1594
4661.1786
4550.8842
4495.2065
4674.8689
4417.5146
4602.0997
5223.5557
5475.0285
5184.6944
5161.9382
5012.7049
5011.0238
4786.9993
4789.4736
4713.2645
4661.8999
4613.8809
4579.0929
4653.4949
4454.5925
4617.7429
5338.0786
5381.4966
5388.5988
5004.4184
5134.8439
4950.994
4816.5131
4803.9169
4695.0484
4633.3942
4650.1878
4474.5906
4687.7504
4438.7896
4563.6515
5615.8436
5753.217
5428.5596
5302.9507
5247.2809
5176.3743
4967.7391
5020.3408
4860.1002
4893.0223
4782.584
4735.9039
4876.7307
4657.5114
4745.7774
6090.6477
5943.9381
5733.0934
5445.3531
5493.8507
5314.1959
5193.953
5156.1907
5101.5018
4988.0942
5039.8011
4876.1021
5089.3687
4917.103
4895.9384
6761.4127
6507.0197
6029.7436
5860.4807
5792.3757
5744.3431
5496.8804
5595.7309
5394.0002
5433.5145
5378.0889
5270.9966
5484.8224
5351.9747
5245.4836
7574.6365
7010.0478
6452.8716
6209.8577
6237.491
6006.8296
5856.9141
5809.4718
5754.9747
5671.742
5715.6972
5571.7332
5839.0517
5781.1346
5557.8796
8479.3736
7662.2839
6845.902
6706.8347
6551.3344
6483.8593
6206.8211
6325.6336
6142.2936
6149.5852
6135.6716
6031.1778
6280.7566
6271.2627
5951.7714
9317.2649
8214.9363
7270.6098
7020.7518
7004.5359
6775.5601
6564.8644
6529.4892
6428.6751
6357.4835
6415.1389
6292.0136
6563.463
6642.0406
6218.8289
10017.864
8720.9356
7509.4998
7408.2727
7197.1584
7076.4919
6774.8715
6893.1345
6720.006
6720.8356
6724.2293
6619.7879
6866.0107
6960.6022
6471.8986
10451.494
8976.5454
7743.2726
7520.9555
7413.585
7226.1104
7001.1115
6977.7893
6840.7419
6772.5844
6807.111