/*--------------------------------*- C++ -*----------------------------------*\
  =========                 |
  \\      /  F ield         | OpenFOAM: The Open Source CFD Toolbox
   \\    /   O peration     | Website:  https://openfoam.org
    \\  /    A nd           | Version:  6
     \\/     M anipulation  |
\*---------------------------------------------------------------------------*/
FoamFile
{
    version     2.0;
    format      ascii;
    class       pointScalarField;
    location    "0.37";
    object      p;
}
// * * * * * * * * * * * * * * * * * * * * * * * * * * * * * * * * * * * * * //

dimensions      [1 -1 -2 0 0 0 0];

internalField   nonuniform List<scalar> 
625
(
871274.37
-1363169.1
-341.04931
1135.0976
1602161
-2519440.8
903.2738
-235.06223
597983.37
-1761.0252
-176498.68
55.624954
178.62956
773.3783
372582.02
379648.03
366645.01
344823.4
302423.96
284517.84
254287.26
225134.97
211384.56
173755.19
153653.77
126312.3
104271.41
81764.026
63927.42
47780.584
33993.517
24081.707
14419.498
7945.7971
2723.9304
1371.4746
-298.21024
-441764.82
-263168.08
-361101.37
-269402.71
-244844.91
-236737.39
-199980.86
-181707.51
-165581.17
-145257.63
-128284.7
-109308.54
-93534.326
-74450.98
-57489.751
-41396.68
-26299.687
-15477.105
-4679.4977
-671.76116
4170.9253
3156.0802
3030.4043
920022.23
-15150.06
-307930.13
-437482.01
-566151.98
-404101.6
-360005.24
-415840.08
-329754.51
-306541.64
-292936.13
-267689.52
-239226.89
-202079.04
-168962.65
-132773.61
-100762.95
-72636.335
-47489.449
-29145.772
-14640.658
-4877.079
288.94804
3120.4474
3714.2924
3538.0449
466.12411
-1067.7019
38.08691
-689.33702
1164.2537
3231.7988
6248.5511
11569.461
21158.633
31954.063
47198.874
64933.067
85610.667
108773
136121.85
161658.64
180552.69
234559.44
250998.38
283719.3
299549.97
363163.32
345569.11
403342.05
424325.28
395747.07
935891.25
942878.55
871105.08
-1485725.9
-1457762.8
-1464487
-807.85989
-9.9371899
-712.76262
-113.02755
265.45093
453.13026
179944.23
205800.41
214626.8
193843.42
187543.85
185283.12
162495.43
153983.15
133001.79
117573.73
101741.24
84199.733
66431.843
50854.24
37482.392
24906.923
16014.88
9311.9659
3247.3465
1074.5322
-427.62686
-315.88083
-683.57644
-33119.777
-10493.082
-24186.23
-190.65019
-11797.466
-6817.0994
-9270.8551
-5331.9659
-6642.7116
-7580.9519
-6681.0907
-6874.054
-5230.9033
-2670.5677
-711.20051
1121.9552
2992.1497
3843.0394
3651.9255
3805.3657
2006.2577
2469.8243
870.76417
-283046.5
-246541.58
-222947.85
-196620.83
-215829.08
-170441.19
-166305.2
-142685.53
-126615.52
-105611.04
-87301.553
-69245.08
-53569.503
-40108.531
-29006.343
-19703.562
-12502.099
-6566.7698
-3259.4187
226.87007
994.37233
611.31446
743.08061
506470.42
495461.27
533223.87
-21696.82
12144.945
-44050.637
-147535.92
-196038.07
-269191.53
-632482.05
-623882.23
-655009.47
-508197.48
-461759.2
-427404.39
-410065.78
-369854.14
-386797.99
-330185.51
-317906.74
-315678.29
-327252.4
-315693.18
-326219.43
-297031.37
-276355.98
-277111.77
-270721.38
-261502.63
-281492.03
-251260.26
-233209.7
-247730.34
-223148.65
-212657.02
-223152.58
-194212.26
-186820.07
-198801.91
-164266.82
-161543.69
-169210.68
-135798.54
-133858.92
-140176.16
-105811.24
-106163.26
-109610.2
-79265.407
-79451.26
-81790.816
-55655.243
-56122.114
-57814.885
-36045.218
-36508.113
-36802.02
-20715.729
-20068.812
-20745.713
-9297.9064
-9214.7121
-9392.2925
-2091.6259
-946.03882
-1263.0115
1836.1755
2643.0875
2493.2004
3643.7146
4952.8307
3709.6023
1984.3314
1872.5713
2152.7367
507.46331
2090.3504
1915.5845
279.379
279.34879
265.1802
-290.45389
-161.4454
196.27869
801.27495
1256.7663
1154.6024
462124.56
456580.01
470493.48
436974.28
414808.31
409944.02
424069.68
397050.17
413345.6
358472.89
332821.69
351929.36
336939.18
328523.63
317372.03
316974.33
267471.89
296410.24
275973.38
256380.17
269729.98
257659.49
226282.49
238452.71
220937.25
202225.67
207408.11
199352.04
172654
187758.2
170297.56
149880.44
156711.29
144887.36
121617.57
132772.62
115437.37
100794.62
107041.34
92378.608
80196.991
83710.445
69605.373
62586.22
62827.243
50221.34
47238.307
45157.278
34096.226
34681.071
30276.848
21132.985
23586.983
18750.789
10768.514
15217.854
10072.899
4092.0054
8632.8745
4171.6561
3.5513121
3202.9327
179.15354
-658.47181
1630.6986
572.25814
-755.15718
157.53081
-368.82989
254867.83
295912.09
242529.63
249862.85
245680.16
210108.45
194404.34
172597.1
145985.69
124059.28
108021.62
83614.075
65313.849
50786.703
37788.792
27949.148
20348.179
14459.322
10021.629
6726.4488
3411.1939
1693.2829
-44.296282
-25952.057
20745.421
-21185.778
6117.9111
-1905.4098
-19019.519
-11818.645
-13376.925
-14727.317
-7048.878
-209.70067
3244.1008
7790.0509
10323.214
10573.776
10145.294
8392.8692
6746.6254
4723.2525
3298.0583
2114.371
353.44899
56.247501
-195363.18
-185406.15
-237487.87
-191955.42
-175454.76
-160142.04
-125007.71
-113295.96
-92641.734
-81122.592
-73488.505
-66232.293
-61853.948
-54848.347
-49373.889
-41320.536
-33026.184
-24640.716
-16732.798
-9315.1347
-4418.9483
-1347.3629
539.14671
309473.83
314469.3
284066.62
283754.69
278975.77
266685.04
223238.17
211875.03
256834.22
212890.75
243107.39
209754.53
232698.39
187899.48
215527.47
179536.73
196174.94
209043.73
179697.43
182135.77
178998.39
160311.48
155553.2
162077.21
137672.1
135738.98
147546.39
115244.36
124301.7
117527.8
95503.874
98397.66
96856.211
73193.684
81038.101
78485.522
58469.643
63061.293
59889.736
44569.41
46210.469
44265.595
32288.294
31803.022
31876.082
23376.983
21407.989
21262.016
16846.05
12011.665
13317.355
10929.092
5991.4328
7743.6243
7132.0876
2566.1316
3748.7719
6394.7237
247.008
1421.7504
3681.0254
-2055.4206
1233.556
1763.6642
3.633653
13.276071
-388.11133
-1154.7016
-1118.5271
-42590.988
-55970.269
-8409.2605
-32882.029
11212.873
16744.248
-7811.8836
-7241.2687
13499.262
-21353.681
-13561.261
-9248.057
-30836.358
-17610.423
15192.537
-31530.399
-5192.7848
-4153.1802
-21433.206
-16359.19
-10132.137
-28654.299
-14584.907
-4880.6085
-20666.699
-6535.5796
-9796.9981
-10058.444
-6807.8024
-8245.1978
-5439.466
-2297.5621
-6723.8453
2469.6592
5086.2221
-2528.6927
8857.8351
8808.01
-2068.4566
12028.81
10085.056
1764.5016
13015.597
12399.881
3854.5236
13658.167
12045.724
4724.1023
12162.372
10161.572
5738.6867
8834.1983
8796.2217
5180.2184
7964.3344
7164.3069
4941.6932
4518.3986
3224.1382
2727.8816
3631.1326
2257.0367
2851.8504
490.36531
837.14412
2066.429
805.16712
633.48177
1144.9605
-340314.83
-356687.08
-397098.94
-236791.47
-186728.09
-289053.85
-218376.91
-279221.45
-282347.83
-265670.13
-189071.23
-245810.55
-192567.55
-177920.44
-218940.99
-182507.7
-153996.92
-203230.57
-160064.95
-132011.86
-172683.87
-135381.25
-108247.2
-154164.63
-110586.63
-94142.619
-130363.44
-95166.819
-79945.364
-109442.81
-77069.42
-69023.392
-90564.044
-62104.035
-61059.929
-76597.06
-49134.431
-57029.529
-63669.871
-39591.613
-50831.711
-52543.439
-30383.556
-44890.643
-42560.069
-23504.428
-37856.291
-34762.009
-17386.679
-30632.229
-26285.201
-12064.55
-22020.687
-18817.273
-7778.6354
-14813.605
-13390.252
-3484.8974
-8566.8986
-6768.5605
-2146.3588
-3414.2583
-2680.8358
1488.4313
1570.6996
1360.0748
747.71238
394.54345
-763.98989
)
;

boundaryField
{
    free
    {
        type            calculated;
    }
    fixed
    {
        type            calculated;
    }
    freeTop
    {
        type            calculated;
    }
}


// ************************************************************************* //
