/*--------------------------------*- C++ -*----------------------------------*\
  =========                 |
  \\      /  F ield         | OpenFOAM: The Open Source CFD Toolbox
   \\    /   O peration     | Website:  https://openfoam.org
    \\  /    A nd           | Version:  6
     \\/     M anipulation  |
\*---------------------------------------------------------------------------*/
FoamFile
{
    version     2.0;
    format      ascii;
    class       pointScalarField;
    location    "0.36";
    object      p;
}
// * * * * * * * * * * * * * * * * * * * * * * * * * * * * * * * * * * * * * //

dimensions      [1 -1 -2 0 0 0 0];

internalField   nonuniform List<scalar> 
625
(
841617.16
-1339829.4
-726.53045
1783.0106
1554199.1
-2463946.6
1395.3783
-336.88075
578111.37
-10236.66
-182410
-14.690974
360.72632
1414.4122
359682.82
367841.43
356115.2
335716.01
295457.5
278539.67
250385.33
223207.58
211362.17
175871.84
157545.52
131383.71
109957.28
87610.26
69670.23
53388.896
39270.916
29198.489
19031.573
11454.622
5520.536
2749.0335
-216.51464
-431984.86
-260559.81
-356248.96
-267613.66
-244143.4
-236679.24
-201457.12
-184299.31
-169227.58
-150052.32
-134061.16
-116181.37
-101160.29
-82585.425
-65629.429
-48921.958
-32693.956
-20438.22
-7621.8255
-2548.3693
3893.2314
3443.0721
3793.9142
889434.44
-20772.585
-303841.65
-427941.54
-555470.44
-396586.72
-355743.79
-409095.45
-326615.29
-304000.56
-292144.66
-268875.93
-242830.13
-208312.15
-177464.13
-143000.39
-111659.94
-83278.436
-57190.985
-37260.016
-20919.49
-9333.7511
-2531.2116
1803.2939
3488.1746
4157.4718
897.60364
-1432.7553
-127.42271
-688.59822
1251.4749
3439.9169
7160.9718
13329.557
23956.253
35681.549
51933.017
70284.28
91333.422
114387.76
141141.27
165489.56
182699.29
234887.8
248728.38
279135.52
293153.18
354248.14
336547.38
391798.55
413047.83
384074.93
904148.09
912236.85
844321.89
-1455321.7
-1430286.4
-1436072.4
-50.487563
763.17884
237.25215
-729.29771
84.688403
347.63971
173490.49
198539.94
207282.42
187353.29
181299.49
179907.24
158332.45
150974.54
131523.93
117743.29
103094.62
86681.821
69748.773
54709.944
41602.716
29007.701
19795.165
12641.936
5527.6428
2727.948
102.60817
-188.28033
-844.84663
-35216.578
-13597.354
-26346.144
-2942.426
-13984.447
-9073.581
-11457.514
-7627.2824
-8921.4259
-9960.0396
-9140.0892
-9255.4127
-7495.0532
-4702.9352
-2390.2545
-111.50152
2210.9273
3545.5134
3441.4336
3971.6687
1711.3675
2696.4741
917.68041
-279346.65
-243072.85
-220122.5
-194872.65
-213462.96
-170329.05
-166861.47
-144629.06
-129827.56
-109857.14
-92418.014
-74724.786
-59108.055
-45312.109
-33580.207
-23452.323
-15343.48
-8431.2411
-4644.9064
-213.87048
881.8015
400.08128
1221.7731
489522.86
479535.46
516044.12
-27271.063
6040.4671
-47424.064
-149759.02
-197270.99
-268661.2
-618732.15
-609485.09
-640097.54
-499963.64
-454486.87
-421966.56
-402577.63
-363601.82
-380507.65
-325655.07
-314142.68
-311795.59
-322840.83
-311871.34
-322295.32
-293920.84
-274046.63
-274824.6
-269186.36
-260819.74
-279975.28
-251611.89
-233493.67
-248155.55
-225289
-214738.9
-225366.77
-198409.3
-190794.67
-203056.58
-170567.09
-167503.12
-175574.38
-143748.69
-141493.88
-148405.22
-114818.56
-115092.2
-119233.38
-88489.02
-88859.181
-91902.338
-64245.459
-65094.026
-67453.95
-43236.444
-44257.001
-45182.018
-26111.837
-26041.28
-27340.467
-12608.85
-13305.761
-13923.557
-3731.225
-3119.8538
-3786.4939
1642.8999
1815.6947
1409.1478
4207.5221
5162.6038
3706.8423
2772.2273
1851.2447
2518.0184
726.67303
2559.0467
2230.4714
105.10152
159.72926
136.98848
-298.50096
-268.92156
355.48699
1326.4858
1986.1522
2129.0744
448343.66
441844.07
456494.99
424630.99
402327.8
398971.79
412662.34
385525.06
402122.71
349241.55
324258.69
343011.88
328911.38
320513.25
310155.17
310290
262186.13
290596.15
271677.63
252555.38
265901.79
255232.29
224515.34
236862.82
220940.99
202694.98
208198.12
201853.26
174770.56
190527.6
174805.68
153627.79
161185.95
150988.36
126330.47
138390.87
122537.91
105864.55
113146.67
99857.355
85239.487
89778.569
77046.894
67310.206
68475.883
57221.847
51591.441
50203.568
40309.463
38678.306
34633.715
26602.412
27242.897
22312.646
14760.749
18463.241
12812.408
6960.9446
11314.931
6167.8745
1647.466
5257.8891
1185.6777
-17.110708
2625.365
987.01756
-687.38133
327.27412
-219.87207
246131.9
285538.35
233703.34
241658.89
237391.24
204119.45
189395.8
169339.09
143927.87
123717.93
108699.57
85126.527
67201.266
52770.919
39586.132
29376.336
21283.588
15063.242
10286.962
6844.3691
3543.9757
1812.9713
-330.5431
-27303.696
18336.807
-22373.403
4339.4945
-3313.7467
-19815.119
-12700.483
-14448.348
-15788.379
-8344.0933
-1633.9029
1901.9026
6633.7122
9350.6897
9662.1481
9168.1643
7171.4532
5442.6657
3277.1892
2150.4605
1328.8116
-203.48241
-255.89166
-190762.13
-181595.44
-234558.73
-190507.13
-175992.63
-161522
-128092.59
-117045.09
-97216.989
-86153.609
-78820.316
-71801.574
-67845.111
-61523.952
-56688.359
-49133.493
-40986.274
-32281.792
-23430.729
-14594.96
-8158.5019
-3570.0278
-392.27201
297774.64
304051
274818.99
273567.15
270071.38
257911.21
214820.11
204100.22
247931.63
204722.18
234977.11
202407.43
224798.06
181488.19
207979.15
173750.62
190418.14
202197.55
174861.31
177300.9
174041.99
156914.68
152759.43
158678.19
136188.96
134179.93
145654.58
114601.2
124135.56
117196.15
96126.284
99677.711
97985.705
74703.988
83361.813
80384.83
60610.375
66046.983
62407.894
47070.494
49596.58
46935.869
34967.975
35183.635
34414.978
25835.767
24464.327
23348.957
19055.069
14473.332
14754.486
12462.741
7648.3476
8296.6034
8008.9562
3212.0614
3688.7977
7014.8016
502.70909
746.54169
3795.2785
-3002.6726
102.33318
1679.7985
-416.45214
-588.09423
-708.8773
-1788.1449
-1879.1675
-46418.912
-58460.069
-12667.476
-34555.592
7903.8913
12970.337
-9640.5106
-9091.7567
10790.304
-22041.03
-14845.74
-11352.262
-31103.684
-18566.243
12824.257
-31728.015
-6666.094
-6188.5119
-22228.42
-17588.857
-11864.641
-29392.037
-16028.834
-6941.3345
-22113.208
-8524.8457
-11989.593
-11950.197
-8834.7959
-10481.986
-7389.0243
-4273.1167
-9129.8716
728.73456
3209.041
-5034.7665
7642.171
7345.0635
-4383.7156
11556.57
9161.8347
-389.91519
13300.415
11869.56
1871.8488
14491.289
11845.087
2833.6287
13338.406
9965.8936
3919.6285
9909.2488
8636.3407
3382.4322
9056.786
6786.6771
3438.3293
4876.0973
2840.6065
1181.4559
4364.7631
901.58085
2153.2373
572.05453
656.69746
1825.4644
939.38669
464.95001
1076.3463
-333482.42
-349463.87
-388196.82
-233211.1
-184114
-283482.46
-215569.38
-275497.51
-277967.63
-261743.96
-188008.99
-242540.93
-191593.22
-178585.26
-217544.89
-182462.38
-155732.38
-202835.02
-161382
-135453.16
-173845.22
-138383.04
-112728.09
-156997.64
-114756.89
-99729.177
-134398.44
-100168.92
-85817.831
-114459.3
-82310.385
-75108.233
-96242.596
-67318.984
-67106.899
-82512.405
-54076.722
-63017.143
-69578.337
-44147.418
-56992.126
-58553.561
-34642.471
-51367.073
-48698.013
-27553.092
-44630.62
-41065.007
-21231.176
-37493.681
-32589.994
-15788.803
-28571.075
-24911.602
-11208.265
-20550.655
-19040.302
-6053.5096
-13415.487
-11168.901
-4832.5008
-6497.0755
-5967.8226
446.85672
72.741832
293.67713
-42.479947
-547.05981
-2174.66
)
;

boundaryField
{
    free
    {
        type            calculated;
    }
    fixed
    {
        type            calculated;
    }
    freeTop
    {
        type            calculated;
    }
}


// ************************************************************************* //
