/*--------------------------------*- C++ -*----------------------------------*\
  =========                 |
  \\      /  F ield         | OpenFOAM: The Open Source CFD Toolbox
   \\    /   O peration     | Website:  https://openfoam.org
    \\  /    A nd           | Version:  6
     \\/     M anipulation  |
\*---------------------------------------------------------------------------*/
FoamFile
{
    version     2.0;
    format      ascii;
    class       pointVectorField;
    location    "0.47";
    object      u;
}
// * * * * * * * * * * * * * * * * * * * * * * * * * * * * * * * * * * * * * //

dimensions      [0 1 0 0 0 0 0];

internalField   nonuniform List<vector> 
625
(
(0 9.0253009e-20 0)
(0 8.1220471e-20 0)
(1.978275 -0.14765984 0.029749234)
(1.8864359 -0.56628451 0.025916045)
(0 1.1702744e-19 0)
(0 6.3514655e-19 0)
(1.8881086 -0.57197798 0.025800847)
(1.9798944 -0.15344251 0.02981714)
(0 -1.3719325e-20 0)
(6.3079141e-20 -1.4652167e-19 0)
(0 2.9975266e-19 0)
(1.9552555 -0.25238907 0.028738713)
(1.9322372 -0.35688291 0.027786855)
(1.9094237 -0.46150681 0.026885526)
(0.0077392905 0.023609853 0.021042504)
(0.026962088 0.047271512 0.021392638)
(0.059786014 0.06902649 0.022547047)
(0.10609935 0.087298257 0.02169428)
(0.16007136 0.1009705 0.02183333)
(0.22568803 0.1110737 0.021403581)
(0.29707366 0.11660322 0.02150237)
(0.37579118 0.11822893 0.021291236)
(0.46004221 0.11648136 0.021601882)
(0.54852932 0.11088397 0.021419164)
(0.64104782 0.10273707 0.021672575)
(0.73664931 0.091736031 0.021879588)
(0.83478908 0.078437581 0.022173892)
(0.9349045 0.063168631 0.022563029)
(1.0366806 0.046165788 0.023011568)
(1.1396313 0.02771994 0.023548732)
(1.2435272 0.0080654706 0.024114848)
(1.3480663 -0.012625054 0.02476662)
(1.4530344 -0.034068594 0.025397669)
(1.5581784 -0.056195096 0.026153144)
(1.6634549 -0.078743372 0.026912044)
(1.7685707 -0.10157121 0.027771253)
(1.8735368 -0.12465859 0.028737236)
(-0.0036030621 -0.018998289 -0.028519367)
(0.017487859 -0.039300769 -0.020700793)
(0.047855124 -0.064969598 -0.022022499)
(0.087121001 -0.087320342 -0.017554796)
(0.13503009 -0.10887118 -0.014770803)
(0.19406356 -0.13445819 -0.011078805)
(0.25733074 -0.15631483 -0.0086082154)
(0.32925605 -0.18040015 -0.0049846177)
(0.40623885 -0.20475321 -0.002472483)
(0.4885275 -0.22843873 0.00055808083)
(0.57517498 -0.25320063 0.0030999327)
(0.6655898 -0.27764944 0.0056673031)
(0.75921417 -0.30232664 0.0079576828)
(0.85547696 -0.32700759 0.010167688)
(0.95400564 -0.35168735 0.012220604)
(1.0543106 -0.37628483 0.014140807)
(1.1560936 -0.40080001 0.015960814)
(1.2590046 -0.4251165 0.017639825)
(1.3627701 -0.44927987 0.01926734)
(1.4671241 -0.47314263 0.020730696)
(1.5718806 -0.49683344 0.022188693)
(1.6767491 -0.52017916 0.023486273)
(1.781702 -0.54332655 0.024748941)
(0 8.1946351e-20 0)
(-1.1198356e-18 -2.4095092e-19 0)
(0 6.1068326e-19 0)
(0.0043138893 -0.013117143 0.019841171)
(0.020445079 -0.052996221 0.024382173)
(0.051418341 -0.065709253 0.020104456)
(0.088909607 -0.09105452 0.01809601)
(0.13945388 -0.11900447 0.019593156)
(0.19578952 -0.13822281 0.016693437)
(0.26001172 -0.16361151 0.017574178)
(0.33133897 -0.1874 0.016782495)
(0.40822378 -0.21126513 0.016901546)
(0.49037964 -0.23572727 0.017014311)
(0.57683613 -0.25968188 0.017091439)
(0.6671796 -0.28439417 0.017440783)
(0.76067307 -0.3087877 0.017781795)
(0.8569186 -0.33334509 0.018213804)
(0.95539299 -0.35795778 0.018746462)
(1.0557032 -0.38237772 0.019307927)
(1.157501 -0.40680783 0.019929596)
(1.2604506 -0.43102864 0.020599915)
(1.3642557 -0.4550885 0.021305143)
(1.4686789 -0.47891232 0.022058791)
(1.5734439 -0.50251387 0.022876908)
(1.6783931 -0.52587105 0.023771696)
(1.7833184 -0.54898964 0.024754514)
(1.9110761 -0.46719819 0.026777767)
(1.9338465 -0.3625626 0.027818921)
(1.9568935 -0.2581655 0.02886058)
(1.8751953 -0.13044926 0.028593356)
(1.7702282 -0.10738502 0.027336866)
(1.6650907 -0.084607855 0.026010963)
(1.5598469 -0.062092734 0.024561955)
(1.4546377 -0.040089938 0.023050753)
(1.3496461 -0.018713535 0.021435638)
(1.2450662 0.0018525479 0.019732419)
(1.1411513 0.021393424 0.01793693)
(1.0381727 0.03972876 0.016040873)
(0.93644721 0.056608751 0.014041531)
(0.83630281 0.07174579 0.011932925)
(0.73830031 0.084944165 0.0096754299)
(0.64267109 0.095836165 0.0072978151)
(0.55015507 0.10416922 0.0047085453)
(0.46197237 0.10895413 0.0023198559)
(0.37750719 0.11132381 -0.00078011229)
(0.29914471 0.11002424 -0.0038066831)
(0.22663353 0.10447634 -0.0066839802)
(0.1629874 0.095088651 -0.01004395)
(0.10651129 0.081442685 -0.012516803)
(0.060990595 0.066028853 -0.016270456)
(0.027272964 0.042625635 -0.018180728)
(0.012616895 0.022278424 -0.014512473)
(0 -1.4632193e-19 0)
(0 -1.5258315e-19 -3.1471799e-19)
(0 -4.4969863e-19 0)
(0 2.643962e-19 0)
(0 -2.9254931e-20 9.3280338e-20)
(0 2.0137946e-19 0)
(1.8868366 -0.56773659 0.025873342)
(1.8872749 -0.56920014 0.025870526)
(1.8876535 -0.57061303 0.025839775)
(1.9787429 -0.14901571 0.029786678)
(1.9791689 -0.1504725 0.02978688)
(1.9795266 -0.15192865 0.029807961)
(-0.0025354802 0.012947948 0.01483767)
(0.017405342 0.025833085 0.011094335)
(0.049668603 0.036401966 0.012517569)
(0.094225964 0.043909958 0.012091251)
(0.14773907 0.049018283 0.012870708)
(0.21193294 0.050453246 0.013386137)
(0.28201948 0.048572987 0.013892866)
(0.35969758 0.044098762 0.014776002)
(0.4423824 0.036476075 0.015362682)
(0.52999848 0.026267427 0.016147238)
(0.62160385 0.013991676 0.016922581)
(0.71627917 -0.00057258317 0.017712658)
(0.81366536 -0.01672373 0.018523749)
(0.91320282 -0.034431807 0.0193412)
(1.014451 -0.053406415 0.020207866)
(1.1170278 -0.0734404 0.021066712)
(1.2206442 -0.094370254 0.021964895)
(1.3249862 -0.11597273 0.022862169)
(1.4298556 -0.13812318 0.0237822)
(1.5349728 -0.160679 0.024740048)
(1.6402415 -0.18348896 0.02565721)
(1.7454178 -0.20641844 0.026703138)
(1.8505104 -0.2294572 0.027711766)
(-0.007443675 0.0026160559 7.6667716e-05)
(0.014158286 0.0031073253 -0.00087506836)
(0.044547026 0.0037137188 0.00058991092)
(0.087701452 0.0022132894 0.0023750635)
(0.14079365 -0.0027977971 0.0035365011)
(0.20231593 -0.0092583488 0.0050708712)
(0.27129556 -0.018043467 0.0065560625)
(0.34726313 -0.029339426 0.0081218959)
(0.42832925 -0.042396371 0.0095364603)
(0.51464431 -0.057350317 0.011012116)
(0.60466164 -0.073861237 0.01236281)
(0.69821341 -0.091797292 0.01374752)
(0.79454806 -0.11092368 0.015046212)
(0.89318556 -0.13105264 0.016352285)
(0.99367041 -0.15204519 0.017606882)
(1.0956412 -0.17369133 0.018829149)
(1.1987591 -0.19589513 0.020035762)
(1.3027281 -0.21848147 0.021191916)
(1.4073074 -0.24138449 0.022345215)
(1.5122306 -0.26444416 0.023439526)
(1.6173857 -0.28761417 0.024557937)
(1.7225088 -0.3107626 0.025639734)
(1.8276061 -0.33391951 0.026725225)
(-0.009896602 -0.0079333496 -0.0094028595)
(0.012734186 -0.01570823 -0.0095499051)
(0.041310855 -0.024992789 -0.0085742301)
(0.084824542 -0.037902938 -0.0067265907)
(0.13556037 -0.052376957 -0.0050152742)
(0.1956315 -0.066302151 -0.0027539605)
(0.26318408 -0.083833069 -0.00050103615)
(0.33683153 -0.10118191 0.0016141803)
(0.41642014 -0.12001301 0.0036953608)
(0.5008454 -0.14010289 0.0058370059)
(0.58942015 -0.16075911 0.0077671978)
(0.6815999 -0.18242196 0.0097146942)
(0.77666703 -0.20457332 0.011507773)
(0.87423647 -0.22726672 0.013238358)
(0.97379127 -0.25034503 0.014875695)
(1.0750114 -0.27368689 0.016439645)
(1.1774899 -0.29724793 0.0179353)
(1.2809762 -0.32089318 0.019357774)
(1.3851591 -0.34457668 0.02071844)
(1.4898343 -0.36824299 0.022048893)
(1.5947595 -0.39177269 0.023268374)
(1.6997584 -0.41522063 0.02452756)
(1.8046987 -0.43848294 0.02568276)
(0 -9.2713708e-20 0)
(0 1.5318311e-19 3.2130798e-19)
(0 3.3374448e-19 0)
(-1.6722876e-19 3.3390746e-21 0)
(6.9847632e-20 -1.0349284e-19 -5.1546608e-21)
(-4.401755e-19 -3.95866e-19 0)
(0 1.5058518e-19 0)
(0 4.0470144e-19 -1.0763277e-20)
(0 4.4566811e-19 0)
(0.0081404097 -0.0083603121 -0.012553248)
(0.011347514 -0.011265514 -0.002407321)
(0.010390889 -0.0078909971 0.0065192091)
(0.031047761 -0.04823067 -0.010352866)
(0.030599999 -0.048978157 -0.00040940929)
(0.029682931 -0.047052845 0.012961558)
(0.056225553 -0.065900607 -0.011059281)
(0.059287293 -0.064771861 -0.0011031266)
(0.05955166 -0.070168358 0.011407905)
(0.094635972 -0.090299896 -0.0074815727)
(0.097838879 -0.093205135 0.0010785224)
(0.09557349 -0.091315656 0.010475026)
(0.14369931 -0.11501793 -0.0060873754)
(0.14532759 -0.11550716 0.001115602)
(0.14500061 -0.11832275 0.011212908)
(0.19902773 -0.13746286 -0.0038722307)
(0.20157125 -0.13882007 0.0037217181)
(0.20073569 -0.13975033 0.010960322)
(0.2631111 -0.1607356 -0.0013256739)
(0.2651314 -0.16316798 0.0038735168)
(0.26454541 -0.16449514 0.011919869)
(0.33390512 -0.18488185 0.00065101845)
(0.33551891 -0.18557315 0.0059270232)
(0.33513903 -0.18757292 0.011989235)
(0.41022661 -0.20806926 0.0028898407)
(0.41175856 -0.21032378 0.0072894582)
(0.41121807 -0.21144216 0.012760788)
(0.49201703 -0.23251143 0.0049109473)
(0.49324992 -0.23399286 0.0087340511)
(0.4930802 -0.2356242 0.013389461)
(0.5780481 -0.25643429 0.0069013332)
(0.57927228 -0.25820633 0.010205501)
(0.57895504 -0.25961492 0.014109917)
(0.66810673 -0.28088936 0.0088782412)
(0.66903974 -0.28252345 0.011575877)
(0.6689438 -0.28396778 0.014876916)
(0.76127112 -0.30519848 0.010622879)
(0.76218765 -0.30686162 0.012909573)
(0.76209337 -0.30836714 0.01569449)
(0.85725509 -0.32972748 0.012390876)
(0.85801015 -0.33131573 0.014283586)
(0.85799199 -0.3327352 0.016508956)
(0.95546118 -0.35414474 0.014025273)
(0.95615091 -0.35572055 0.015520112)
(0.95620236 -0.35721685 0.017353406)
(1.0555345 -0.3785864 0.015571229)
(1.0561654 -0.38013342 0.016794996)
(1.0562603 -0.38157568 0.018237784)
(1.1571113 -0.40290462 0.017074938)
(1.157679 -0.4044028 0.018007774)
(1.1578242 -0.40586087 0.019103778)
(1.2598478 -0.42707222 0.018479372)
(1.2603755 -0.42856269 0.019174469)
(1.2605771 -0.43002398 0.01999874)
(1.3634603 -0.45108282 0.019840487)
(1.3639608 -0.45254259 0.02033433)
(1.364209 -0.45398842 0.020898923)
(1.4677186 -0.47484701 0.021125004)
(1.468194 -0.47629581 0.021451145)
(1.4684753 -0.4777445 0.021809751)
(1.5723445 -0.49839332 0.02239147)
(1.5727907 -0.49982055 0.022558467)
(1.5731277 -0.50126387 0.022753462)
(1.6771882 -0.52169239 0.023570691)
(1.677635 -0.52314159 0.023648906)
(1.6779986 -0.52457502 0.023736424)
(1.7820857 -0.54478044 0.024737843)
(1.7824945 -0.54621449 0.024742037)
(1.7828978 -0.54763328 0.024771559)
(1.9557238 -0.25376335 0.028792965)
(1.9561591 -0.25521677 0.0288235)
(1.9565168 -0.25665779 0.028841041)
(1.9326736 -0.35826113 0.027818244)
(1.9331052 -0.35972178 0.027822658)
(1.9334745 -0.36110954 0.027815346)
(1.9098249 -0.46299813 0.026873305)
(1.9102559 -0.46445205 0.02683567)
(1.9106492 -0.46585444 0.026815349)
(0.018012555 0.019863387 0.010645506)
(0.017611546 0.021212933 0.0033562813)
(0.019847584 0.020246888 -0.0048798843)
(0.035339759 0.044044787 0.010893451)
(0.037087829 0.044449715 0.00031775436)
(0.035492768 0.043268475 -0.0091616071)
(0.069704808 0.068387603 0.012283281)
(0.070128387 0.066294587 0.0038379413)
(0.070360254 0.066451614 -0.0075708334)
(0.11291696 0.083663449 0.012126905)
(0.11479148 0.083144706 0.0043152665)
(0.11370837 0.082041686 -0.0052624079)
(0.16793621 0.099238424 0.01369444)
(0.16974694 0.097530267 0.0053776389)
(0.16883518 0.096614706 -0.002586395)
(0.23197944 0.10813232 0.013707546)
(0.23277759 0.10605518 0.0076928037)
(0.23269127 0.10526061 -0.00047466333)
(0.30282132 0.11373174 0.014723396)
(0.30441874 0.11226143 0.0086980204)
(0.3040201 0.11086757 0.0018763892)
(0.38114378 0.11565644 0.015461444)
(0.38226317 0.11360934 0.01025886)
(0.38189682 0.11232984 0.0040695682)
(0.46422332 0.11397347 0.016421248)
(0.46565418 0.11167626 0.011440448)
(0.46514356 0.11050312 0.006703523)
(0.55261706 0.10851265 0.017018566)
(0.553516 0.10652312 0.013537569)
(0.55356214 0.10504475 0.008437473)
(0.64451394 0.10031047 0.017872053)
(0.64547156 0.098367837 0.014302546)
(0.64519645 0.096957338 0.010446546)
(0.73969971 0.089508296 0.018608875)
(0.74038971 0.087561987 0.01582378)
(0.74044608 0.086147542 0.012417711)
(0.83731415 0.076311829 0.019485155)
(0.838099 0.074473859 0.0170124)
(0.83807739 0.073019825 0.014189073)
(0.93715368 0.061179238 0.020280367)
(0.9377842 0.059380542 0.018294252)
(0.93783372 0.057909229 0.015938135)
(1.0385392 0.044281034 0.021179155)
(1.0391468 0.042527723 0.019511585)
(1.0392531 0.041081915 0.017586357)
(1.1412296 0.025934478 0.022038473)
(1.1417998 0.024254726 0.02072117)
(1.1419406 0.022795359 0.019174058)
(1.2448791 0.00637883 0.022962177)
(1.2454061 0.0047324913 0.021906996)
(1.2455983 0.0032778062 0.020703831)
(1.3492007 -0.014202056 0.023853653)
(1.3497091 -0.015796562 0.023069335)
(1.3499379 -0.017245499 0.022162188)
(1.4539696 -0.03558618 0.024792527)
(1.4544546 -0.037158962 0.02422423)
(1.4547278 -0.038612524 0.023569359)
(1.5589731 -0.057636315 0.025758904)
(1.5594631 -0.059149409 0.025324775)
(1.559759 -0.060599925 0.024903699)
(1.6640796 -0.080141688 0.026664584)
(1.6645321 -0.081649262 0.026441988)
(1.664859 -0.083104892 0.026203073)
(1.7691119 -0.10297025 0.027666187)
(1.7695309 -0.10441913 0.027553588)
(1.7698978 -0.10589043 0.027427344)
(1.8740213 -0.12602125 0.028708534)
(1.8744407 -0.12747028 0.028661448)
(1.8748245 -0.12894172 0.028619732)
(-0.00041688691 0.0066805935 -0.0092650801)
(0.019693258 0.026822531 -0.0092541226)
(0.049916457 0.030371001 -0.00560088)
(0.0959649 0.039283565 -0.0050875378)
(0.14985046 0.042978358 -0.002713952)
(0.21309992 0.043596772 -0.00044190008)
(0.28409943 0.042012099 0.0016741977)
(0.3611349 0.036754718 0.0039012284)
(0.44420091 0.029506523 0.0058948937)
(0.53159267 0.019208007 0.0080429106)
(0.62299056 0.0070963371 0.0098250038)
(0.71770843 -0.0073943533 0.011746444)
(0.81502505 -0.023393656 0.013496627)
(0.91453235 -0.040973283 0.015172553)
(1.0157817 -0.059836986 0.016803012)
(1.1183808 -0.079754574 0.018343028)
(1.2220238 -0.10056261 0.019845231)
(1.3264289 -0.12207648 0.021266902)
(1.4313309 -0.14413687 0.022644369)
(1.5365253 -0.16659947 0.023954172)
(1.6418289 -0.18935331 0.025228036)
(1.7470317 -0.21224857 0.026438957)
(1.852171 -0.23523295 0.027664527)
(-0.0065643821 0.0033659389 0.0018368856)
(0.014226083 0.0039226104 0.0010262664)
(0.046727926 -0.00080619228 0.0029009266)
(0.090941015 -0.0019654966 0.0028211917)
(0.14279436 -0.0076514719 0.0037934299)
(0.20518613 -0.015528742 0.0055558734)
(0.27379193 -0.024203595 0.0064844775)
(0.34965135 -0.035782045 0.0079560341)
(0.43081628 -0.048997477 0.0094574395)
(0.51671426 -0.06383816 0.010734314)
(0.60675583 -0.080276186 0.012125232)
(0.7002257 -0.098225536 0.013480863)
(0.79639373 -0.11718936 0.01475337)
(0.89500411 -0.13727532 0.016068366)
(0.9954234 -0.1581227 0.017310436)
(1.0973583 -0.1797077 0.018563929)
(1.2004715 -0.20179937 0.019781813)
(1.3044484 -0.22432425 0.020960332)
(1.4090223 -0.24715001 0.022147581)
(1.5139822 -0.27015566 0.023283628)
(1.6191048 -0.29330303 0.02442543)
(1.7241966 -0.31641807 0.025552784)
(1.8293123 -0.33960211 0.026669888)
(-0.0097319956 -0.0085562153 0.0092362539)
(0.016105757 -0.01345991 0.0095997129)
(0.046091691 -0.033436686 0.013596485)
(0.087160084 -0.03957045 0.010300328)
(0.13899973 -0.057621836 0.012482235)
(0.19896175 -0.072976764 0.012293871)
(0.26558766 -0.089025722 0.012419271)
(0.33975391 -0.10815515 0.013344625)
(0.4186623 -0.12635958 0.013712551)
(0.5031941 -0.14673301 0.014439835)
(0.59144656 -0.16736872 0.015164341)
(0.68348573 -0.18886302 0.015849076)
(0.77844101 -0.21101154 0.016696313)
(0.87591562 -0.23354137 0.017465551)
(0.97542702 -0.25654831 0.018331493)
(1.0765944 -0.27980307 0.01918773)
(1.1790883 -0.30325298 0.020070784)
(1.2825636 -0.32682887 0.020956197)
(1.3867844 -0.35044914 0.021877653)
(1.4914688 -0.37403755 0.022780257)
(1.5964063 -0.39755282 0.023749581)
(1.7014226 -0.42095481 0.024693934)
(1.8063409 -0.44420187 0.025766852)
(0.0042155547 0.0062238758 0.0068513119)
(0.0041573978 0.0069071739 0.00208176)
(0.0064126406 0.0060897315 -0.0035519639)
(0.026310768 0.025234894 0.0050135857)
(0.029021083 0.024707914 0.0002331906)
(0.026741754 0.024211763 -0.0057602617)
(0.058517882 0.033267153 0.0064547558)
(0.058442598 0.032444871 0.0019772683)
(0.058555868 0.032015894 -0.0020559065)
(0.10155091 0.042058107 0.0070577599)
(0.10406278 0.04123256 0.0026900868)
(0.10279589 0.039253113 -0.0013384894)
(0.15559503 0.046524312 0.0075986295)
(0.15697729 0.044615543 0.0045169378)
(0.15644923 0.043534425 0.00038264034)
(0.21805396 0.047446199 0.0091338602)
(0.21972277 0.046261229 0.0058594895)
(0.21868217 0.044604309 0.0024661694)
(0.28789296 0.046006929 0.010098042)
(0.28942614 0.044440787 0.0072571873)
(0.28900669 0.04264243 0.0043088369)
(0.36467953 0.041541053 0.011269377)
(0.36622291 0.039310517 0.0088421945)
(0.36546749 0.037802167 0.0062389618)
(0.44693084 0.033546275 0.012472111)
(0.44809568 0.031991182 0.010473575)
(0.44773192 0.03041267 0.0079775004)
(0.5339174 0.023807237 0.013626865)
(0.5351384 0.022110574 0.011720003)
(0.53475609 0.020160818 0.0097361071)
(0.62493968 0.011523985 0.014744698)
(0.62592297 0.009604169 0.013152947)
(0.62556969 0.0081017184 0.011476091)
(0.71910413 -0.0028767225 0.015880344)
(0.720056 -0.004561284 0.014566116)
(0.71989508 -0.0062036738 0.013035955)
(0.81612668 -0.01884912 0.0169816)
(0.81696868 -0.020615514 0.015818314)
(0.81681914 -0.022204299 0.014627081)
(0.91528285 -0.036458638 0.018057618)
(0.9160344 -0.038146338 0.01716012)
(0.91595498 -0.039731752 0.01612007)
(1.0162089 -0.055302552 0.019159294)
(1.0168885 -0.056989828 0.018403697)
(1.0168915 -0.058513489 0.017570599)
(1.1185266 -0.075243022 0.020229444)
(1.1191568 -0.076851486 0.019648382)
(1.1192054 -0.078387832 0.018971706)
(1.2218992 -0.096038664 0.021308087)
(1.2224733 -0.09765149 0.02085826)
(1.2225911 -0.099151089 0.020339023)
(1.3260531 -0.11757601 0.022364368)
(1.3265901 -0.11914367 0.022047352)
(1.3267555 -0.12062295 0.021643974)
(1.4307376 -0.1396304 0.023428162)
(1.4312322 -0.1411933 0.023198411)
(1.4314715 -0.14265654 0.022923596)
(1.5356987 -0.16213742 0.024483377)
(1.5362219 -0.1636611 0.024351571)
(1.5364683 -0.16510598 0.024139747)
(1.6408337 -0.18489817 0.025511249)
(1.6413619 -0.18637192 0.025469094)
(1.6416416 -0.1878283 0.02533815)
(1.745959 -0.20783357 0.026617179)
(1.7463798 -0.20929624 0.026576172)
(1.746722 -0.210746 0.026501863)
(1.8509953 -0.23080951 0.027690979)
(1.8514183 -0.2322785 0.027672242)
(1.8517999 -0.23372336 0.027658593)
(-0.0017300297 0.0017638641 -0.00081806644)
(0.0002756299 0.0024988524 -0.00079560123)
(0.0018946906 0.0024373296 0.00022251991)
(0.021412445 0.0027335454 -0.002468784)
(0.023454136 0.0032894855 -0.001604021)
(0.020486453 0.0022830411 -0.00048898664)
(0.053001307 0.0022543373 -8.1305851e-05)
(0.05429914 0.00087360052 0.0021956157)
(0.053923308 0.00039560676 0.0016983133)
(0.094631143 -0.00069168957 0.00065643084)
(0.098365994 -0.0023697203 0.0019609135)
(0.096249754 -0.0042107978 0.0020751359)
(0.14779552 -0.0051022051 0.0026705728)
(0.14980119 -0.0071924414 0.0046702377)
(0.14808064 -0.0075455728 0.0030872807)
(0.20833373 -0.012150384 0.0042652956)
(0.21054255 -0.014366568 0.0050547666)
(0.20943078 -0.015563113 0.0049144994)
(0.27677424 -0.020731601 0.0055133379)
(0.27884811 -0.023301456 0.0070165367)
(0.2775035 -0.024657841 0.0059887727)
(0.35209651 -0.03238936 0.007537611)
(0.3537185 -0.034637765 0.0084674873)
(0.35270494 -0.035448473 0.0076181642)
(0.43250504 -0.04504207 0.0088769922)
(0.43413087 -0.04732282 0.0095337566)
(0.43331591 -0.048840376 0.0089973474)
(0.51832423 -0.059890207 0.010455023)
(0.51962208 -0.062331411 0.011212807)
(0.51893252 -0.063396997 0.010634666)
(0.60785029 -0.076419854 0.011912071)
(0.60901501 -0.078546778 0.012520498)
(0.60845952 -0.079931283 0.01185177)
(0.70098065 -0.094154407 0.013344465)
(0.70200345 -0.096253828 0.013818202)
(0.7016244 -0.097529732 0.013351258)
(0.79693128 -0.11315954 0.014713099)
(0.79785539 -0.1151371 0.015144973)
(0.79749436 -0.1165667 0.014638556)
(0.89519793 -0.13317178 0.016069091)
(0.89598688 -0.1351186 0.016389218)
(0.89578578 -0.13643448 0.015990552)
(0.99540292 -0.15403471 0.017376837)
(0.99612646 -0.15583127 0.017634344)
(0.99600407 -0.15724136 0.017267931)
(1.0971078 -0.17556145 0.018636498)
(1.097748 -0.17732104 0.018844981)
(1.0977171 -0.17870526 0.01854062)
(1.200008 -0.19765385 0.019887639)
(1.2005865 -0.19933408 0.020034523)
(1.2006344 -0.2007536 0.019774742)
(1.3037876 -0.22015403 0.021070701)
(1.3043122 -0.22179112 0.021184126)
(1.3044541 -0.22318103 0.020970437)
(1.4081963 -0.24295921 0.022257296)
(1.4086897 -0.24453409 0.022325713)
(1.4088911 -0.24595896 0.022163814)
(1.5130207 -0.26594298 0.023368085)
(1.5134464 -0.26751413 0.023431205)
(1.5137256 -0.26891365 0.023293138)
(1.618062 -0.28905274 0.024531842)
(1.6183906 -0.29058385 0.024503647)
(1.618784 -0.29199244 0.024447835)
(1.7230332 -0.31219962 0.025596771)
(1.723468 -0.31363545 0.025633724)
(1.7238035 -0.3150902 0.025536719)
(1.8280761 -0.33530878 0.026696807)
(1.8284958 -0.3367714 0.026701541)
(1.8288988 -0.33817189 0.026686526)
(-0.0017834793 -0.0058053465 -0.0041622271)
(-0.0024821178 -0.0052073663 -0.00016953346)
(-0.0024053831 -0.0048361021 0.0043775759)
(0.023284291 -0.015903998 -0.0051891163)
(0.025391935 -0.012672493 0.00077882274)
(0.023249343 -0.014857267 0.0055389182)
(0.050802032 -0.027893238 -0.0039105265)
(0.052920054 -0.032257497 0.0017422257)
(0.053171427 -0.032375467 0.0075375094)
(0.093754675 -0.042502021 -0.0028153307)
(0.094904822 -0.041064098 0.0022200684)
(0.094595016 -0.042653454 0.0064826404)
(0.14322106 -0.055128758 -0.00074938167)
(0.14511988 -0.057812692 0.0037150718)
(0.14497336 -0.058398017 0.007612203)
(0.20266589 -0.071030774 0.000415189)
(0.20412842 -0.072587481 0.0043949004)
(0.20388952 -0.073843248 0.0078306669)
(0.26918732 -0.087906255 0.0026129709)
(0.27028656 -0.089290566 0.0063981335)
(0.27047569 -0.090242346 0.0091055594)
(0.34212598 -0.10493482 0.0043558833)
(0.34331832 -0.10699543 0.0070100875)
(0.34338099 -0.10844613 0.0097762022)
(0.42105625 -0.12397176 0.0059702944)
(0.42196117 -0.12569664 0.0088247673)
(0.42215196 -0.1269262 0.011118939)
(0.50480554 -0.14371934 0.0079188293)
(0.5056986 -0.14544941 0.010130599)
(0.50582141 -0.14686154 0.011940235)
(0.59279046 -0.16415943 0.0095119473)
(0.59355179 -0.16600098 0.01138131)
(0.59380845 -0.16738542 0.013083608)
(0.68448394 -0.18559406 0.011181326)
(0.68516852 -0.18730404 0.012798427)
(0.68535487 -0.18867325 0.014137866)
(0.77910122 -0.20748216 0.012742827)
(0.77967687 -0.20924358 0.014056251)
(0.77996352 -0.21065833 0.015172568)
(0.87629032 -0.22998867 0.014251713)
(0.87683671 -0.23166473 0.01532034)
(0.87709367 -0.23303306 0.016272055)
(0.97553178 -0.25283975 0.015695252)
(0.9760117 -0.25448276 0.016583411)
(0.97632148 -0.25588588 0.017319272)
(1.0764539 -0.27600705 0.017097977)
(1.0769157 -0.27762508 0.017785704)
(1.0772141 -0.27901865 0.018377383)
(1.1787055 -0.29939025 0.018441772)
(1.1791251 -0.30096848 0.018973229)
(1.1794711 -0.30235922 0.019437493)
(1.2819717 -0.32288208 0.019734474)
(1.2823975 -0.32444601 0.020141532)
(1.2827485 -0.32581772 0.02047213)
(1.3859949 -0.34643818 0.020993509)
(1.3863915 -0.34794553 0.021270942)
(1.3867694 -0.34934299 0.021512694)
(1.4905055 -0.36995791 0.022217551)
(1.4909282 -0.3714895 0.022392808)
(1.491319 -0.37285185 0.022543542)
(1.5953237 -0.39341325 0.023370606)
(1.5957101 -0.39487501 0.023503252)
(1.596126 -0.39625532 0.023584716)
(1.7002362 -0.41676768 0.02456759)
(1.7006597 -0.41824194 0.024624426)
(1.7010886 -0.41961817 0.024645765)
(1.8051168 -0.43995383 0.02568631)
(1.8055141 -0.44141948 0.02570408)
(1.8059304 -0.44280838 0.025706903)
)
;

boundaryField
{
    free
    {
        type            calculated;
    }
    fixed
    {
        type            calculated;
    }
    freeTop
    {
        type            calculated;
    }
}


// ************************************************************************* //
