/*--------------------------------*- C++ -*----------------------------------*\
  =========                 |
  \\      /  F ield         | OpenFOAM: The Open Source CFD Toolbox
   \\    /   O peration     | Website:  https://openfoam.org
    \\  /    A nd           | Version:  6
     \\/     M anipulation  |
\*---------------------------------------------------------------------------*/
FoamFile
{
    version     2.0;
    format      ascii;
    class       pointVectorField;
    location    "0.91";
    object      lm;
}
// * * * * * * * * * * * * * * * * * * * * * * * * * * * * * * * * * * * * * //

dimensions      [1 -2 -1 0 0 0 0];

internalField   nonuniform List<vector> 
3969
(
(-4.0340813e-15 -4.7705825e-17 1.3312818e-16)
(9.2297575e-16 -2.6090405e-16 -6.0252577e-16)
(-7158.8886 -487.10592 63.633583)
(-7183.6091 895.20095 -55.062133)
(-7.1783695e-15 2.6020842e-15 -1.0366567e-15)
(-4.622429e-15 2.1493156e-15 -1.5432914e-15)
(-7055.2335 908.36753 -53.748098)
(-7034.0297 -473.49472 64.464956)
(-6.09887e-15 1.0869625e-16 -2.0095736e-16)
(-3.193382e-15 6.5333688e-16 6.3735029e-17)
(-2.9260211e-15 2.9260844e-16 -4.8432863e-17)
(-1.7497804e-15 -1.5755452e-16 -2.074758e-16)
(-4.3254872e-15 8.6218995e-16 7.3228779e-16)
(-2.4697388e-15 -4.9707839e-16 4.8086129e-16)
(5.2680668e-16 -4.7467027e-16 -5.3018058e-16)
(-7163.606 -317.06707 48.034419)
(-7109.7956 -144.74713 31.890138)
(-7079.889 26.560479 16.946669)
(-7089.002 198.3776 2.5821098)
(-7124.2509 372.18856 -11.545636)
(-7160.4952 547.66001 -25.819985)
(-7180.0525 722.76154 -40.269447)
(-21.909742 -49.159698 -51.284335)
(-34.108291 -83.161935 -58.550768)
(-60.818216 -121.67083 -62.271285)
(-97.241293 -159.00674 -60.693601)
(-140.42043 -196.49621 -61.254479)
(-193.06036 -232.62005 -60.697345)
(-250.9218 -267.14766 -63.35179)
(-317.98818 -300.4405 -65.612417)
(-391.42653 -331.6024 -70.049315)
(-473.42739 -361.38359 -73.610161)
(-563.5894 -390.00391 -78.275115)
(-662.29013 -417.49793 -81.947904)
(-770.21203 -444.00378 -86.002127)
(-887.21911 -470.0472 -89.559543)
(-1014.1317 -495.37743 -92.935739)
(-1150.838 -520.6 -96.338854)
(-1298.3905 -545.30133 -99.476139)
(-1457.052 -569.66302 -102.1145)
(-1627.7149 -593.4657 -103.80367)
(-1810.7995 -616.51902 -103.89738)
(-2006.8314 -638.5641 -101.87143)
(-2215.8812 -659.40075 -97.05664)
(-2437.5899 -678.63773 -89.247099)
(-2671.198 -696.04217 -78.345669)
(-2915.166 -711.34068 -64.587975)
(-3167.7487 -723.96949 -48.672349)
(-3426.3807 -733.80879 -31.235783)
(-3688.59 -740.55282 -13.212481)
(-3951.6376 -743.86868 4.6682053)
(-4212.7881 -743.63067 21.788586)
(-4469.6811 -739.8922 37.807843)
(-4720.0955 -732.70556 52.569969)
(-4962.2257 -722.39577 66.167287)
(-5194.4494 -709.45487 78.704503)
(-5415.4259 -694.26302 90.052437)
(-5624.2406 -677.70429 100.40982)
(-5819.2221 -660.03813 109.01994)
(-6000.5918 -642.20786 115.50991)
(-6166.6518 -624.05317 119.64772)
(-6318.1107 -606.26502 120.77088)
(-6454.806 -589.10209 118.74889)
(-6577.361 -572.16869 113.81018)
(-6687.4424 -555.82562 106.19493)
(-6785.4422 -540.47032 97.409401)
(-6875.3806 -524.64174 87.562454)
(-6956.4546 -510.90386 78.710764)
(-7048.675 -497.8908 70.266663)
(-6.5850246 45.766325 63.568038)
(-34.35966 77.25938 58.743605)
(-53.669964 110.14819 75.058048)
(-91.569125 141.55808 67.778364)
(-139.91985 174.18157 65.501533)
(-193.76973 203.83997 57.299618)
(-258.96048 233.56105 48.708313)
(-329.53237 262.40431 38.761986)
(-408.8162 290.95259 28.295564)
(-495.23023 320.06095 17.574134)
(-588.69507 348.41332 7.6567906)
(-689.3921 377.47713 -2.6995295)
(-798.88382 407.24023 -11.692111)
(-916.53633 437.21543 -20.82336)
(-1042.5931 467.94245 -29.085173)
(-1178.0257 499.22297 -37.311786)
(-1323.3557 531.80478 -44.92568)
(-1478.5264 565.10335 -52.173238)
(-1644.7853 599.91655 -58.716612)
(-1821.5445 635.48234 -64.21451)
(-2009.6354 671.93858 -68.590596)
(-2208.7613 708.47493 -71.404673)
(-2418.7245 744.62124 -72.776141)
(-2639.2083 779.61712 -72.618104)
(-2869.2043 812.53923 -71.194004)
(-3107.9147 843.05351 -68.748596)
(-3354.7912 870.57325 -66.029178)
(-3606.596 894.59643 -63.090409)
(-3862.3703 915.28348 -60.337582)
(-4119.8377 932.60766 -57.970442)
(-4376.5768 946.82823 -55.806391)
(-4630.3669 958.08733 -53.714441)
(-4878.8709 966.60726 -51.370041)
(-5119.9908 972.45403 -48.609241)
(-5351.6646 975.71932 -45.262846)
(-5572.3058 976.35395 -41.457849)
(-5780.5861 974.47624 -37.798362)
(-5975.0724 970.28916 -34.005036)
(-6155.082 963.94436 -31.503775)
(-6320.876 956.08624 -30.219573)
(-6469.6498 947.00186 -30.536084)
(-6605.3551 937.78995 -32.450011)
(-6725.747 928.55589 -35.81045)
(-6832.5962 919.98494 -39.989875)
(-6926.9916 912.20181 -44.493037)
(-7010.4259 905.20829 -48.741194)
(-7089.6521 898.94029 -52.234873)
(-3.9179893e-16 -2.8384427e-17 -1.6191597e-16)
(6.8869455e-16 3.3255846e-16 -2.9305012e-16)
(-3.0379221e-16 -4.0639439e-16 3.7376104e-16)
(8.6048107e-16 -8.7588792e-17 1.0515471e-16)
(5.0258192e-16 -7.4376592e-16 6.4035694e-16)
(-2.9679417e-15 -3.4669267e-16 7.3060073e-16)
(8.9003905e-16 -2.834795e-16 1.0120244e-16)
(-23.181499 30.178357 -46.29033)
(-39.56053 99.027366 -61.477003)
(-55.793676 107.02276 -62.480037)
(-96.990802 165.27994 -65.807973)
(-139.02412 192.90922 -70.149562)
(-191.45153 231.53517 -71.43395)
(-251.79729 266.04661 -79.206562)
(-316.99303 295.87621 -83.614153)
(-392.18806 329.47403 -92.47537)
(-472.41155 355.58444 -98.451335)
(-563.69008 387.1925 -107.55683)
(-658.87856 410.61977 -112.64716)
(-764.71256 437.91367 -119.64349)
(-878.03388 463.13765 -125.07521)
(-1000.7455 488.46996 -130.39691)
(-1131.7049 514.30318 -135.737)
(-1272.4858 539.49144 -140.46108)
(-1422.592 565.35336 -144.94833)
(-1583.548 591.06077 -148.38161)
(-1755.2413 616.78902 -150.35723)
(-1938.8573 642.61491 -150.28915)
(-2134.2864 668.21936 -147.68237)
(-2341.8571 693.74734 -142.24589)
(-2560.9648 718.88685 -134.01553)
(-2790.736 743.78433 -123.29219)
(-3028.8981 767.62428 -110.86621)
(-3273.6304 790.53815 -97.789816)
(-3523.8153 812.3398 -84.959229)
(-3776.8978 832.41381 -72.688585)
(-4030.8269 850.69397 -61.729429)
(-4283.4323 866.99185 -52.294597)
(-4532.8661 881.15882 -44.287916)
(-4777.352 893.25738 -37.481712)
(-5015.2861 903.42137 -31.484786)
(-5245.2059 911.91517 -26.135068)
(-5466.0342 918.9748 -21.151803)
(-5674.6209 924.63896 -16.855961)
(-5870.4968 929.12397 -13.790203)
(-6052.6136 932.84599 -12.099673)
(-6219.6643 935.39079 -12.468854)
(-6370.6012 936.725 -15.192084)
(-6505.7418 936.77631 -20.079143)
(-6625.4279 935.28575 -26.646847)
(-6730.9016 932.3351 -34.102243)
(-6823.7974 927.85754 -41.368471)
(-6906.1476 921.9771 -47.373371)
(-6968.6256 913.31839 -51.255862)
(-7044.3601 737.61863 -40.088874)
(-7036.1984 565.82041 -25.808574)
(-7011.7275 391.58962 -11.132441)
(-6964.8626 217.04188 4.182736)
(-6958.7004 44.910369 19.6143)
(-6986.3617 -127.96089 35.177385)
(-7027.4729 -300.87501 50.029588)
(-6904.6494 -482.4847 65.661701)
(-6842.4512 -497.50407 68.497808)
(-6755.6221 -513.03994 71.877147)
(-6661.3933 -531.57418 74.971558)
(-6557.9153 -552.95874 77.866657)
(-6444.2435 -576.83788 79.435576)
(-6319.1791 -602.82722 79.306721)
(-6181.8556 -630.03247 77.225559)
(-6031.4037 -657.82074 73.292253)
(-5867.9729 -685.23038 67.520851)
(-5691.3685 -711.43443 60.576725)
(-5494.3368 -735.39004 52.924813)
(-5296.2293 -758.76918 45.529626)
(-5078.0471 -778.38924 37.783927)
(-4850.3514 -795.2889 30.589474)
(-4612.7678 -808.85644 23.633905)
(-4367.4342 -818.63586 16.780694)
(-4116.4717 -824.09264 9.7733219)
(-3862.1617 -824.97886 2.5840659)
(-3607.0456 -820.6102 -5.0107288)
(-3353.4322 -811.14069 -12.63381)
(-3103.675 -796.33003 -20.022612)
(-2859.9175 -776.76123 -26.765117)
(-2623.9755 -752.82602 -32.474476)
(-2397.3105 -725.45209 -36.53381)
(-2181.1843 -695.49863 -38.928768)
(-1976.386 -663.90063 -39.442212)
(-1783.3554 -631.48239 -38.180626)
(-1602.3902 -598.93082 -35.377625)
(-1433.2391 -566.65715 -31.272943)
(-1275.8181 -534.9748 -26.106632)
(-1129.3664 -503.88666 -20.081835)
(-995.06032 -474.33196 -13.335272)
(-869.44082 -443.6126 -6.3717761)
(-752.94235 -413.12133 1.9088586)
(-645.29323 -383.53648 10.061845)
(-547.34591 -354.14903 19.71521)
(-456.22444 -324.37957 29.19255)
(-373.37324 -295.3204 39.739053)
(-298.74969 -264.22867 48.964755)
(-232.38268 -236.12837 58.82639)
(-172.02845 -204.9161 66.207925)
(-122.23913 -175.01657 73.66367)
(-80.112882 -143.3819 75.762867)
(-47.958667 -112.80394 75.029297)
(-26.939373 -74.468542 67.471977)
(-35.427134 -48.22562 40.674149)
(-6.7652979e-16 3.5118239e-16 1.2802193e-16)
(-2.3129286e-15 2.7505878e-16 1.3239036e-16)
(-3.6393531e-15 -1.4253491e-16 -1.5464221e-16)
(-4.9195801e-15 -9.3657526e-16 4.6870719e-16)
(-4.0844143e-15 -8.2232132e-16 1.723462e-16)
(-2.0271537e-15 -1.8079967e-16 2.6438577e-16)
(-2.0670014e-15 8.6459225e-16 1.4474963e-15)
(-4.5036838e-15 1.2268482e-15 -2.065022e-16)
(-1.9919023e-15 1.1694967e-15 -1.6367101e-16)
(-2.9438013e-15 1.1112212e-15 -1.969436e-16)
(-2.4504202e-15 9.597151e-16 -1.1789697e-16)
(-5.2893259e-15 2.5926013e-15 -8.0820905e-16)
(-1.8775489e-15 1.1365606e-15 -5.8525306e-16)
(-7.4714327e-17 -2.094137e-16 9.7564992e-17)
(-7167.9443 898.63766 -54.789167)
(-7151.507 900.86097 -53.856068)
(-7134.672 901.77374 -52.86932)
(-7117.6942 901.87956 -52.178918)
(-7101.1764 901.96493 -52.106342)
(-7085.0156 902.8303 -52.76987)
(-7069.9799 904.90825 -53.560139)
(-7141.6227 -481.27523 64.240034)
(-7124.9112 -477.08624 65.36387)
(-7109.138 -475.10594 66.13697)
(-7094.1638 -474.51264 66.254904)
(-7079.5727 -474.61483 65.879176)
(-7065.0192 -474.82463 65.302525)
(-7049.7745 -474.31011 64.469597)
(-5.7798227 -37.31881 -45.995753)
(-21.436002 -61.017451 -42.545123)
(-46.514676 -93.156422 -47.149548)
(-83.775946 -123.2941 -47.385356)
(-128.2177 -153.24197 -47.971972)
(-184.14357 -184.76011 -49.672615)
(-245.51044 -213.46288 -52.076476)
(-316.68868 -242.71275 -56.610376)
(-395.46156 -268.9189 -60.39874)
(-482.70459 -294.72773 -65.99712)
(-578.442 -318.40441 -70.736048)
(-682.86838 -340.6928 -75.555795)
(-796.24996 -362.20618 -80.035797)
(-918.29947 -382.12971 -84.01098)
(-1049.4159 -401.11411 -88.080221)
(-1189.3666 -418.852 -91.55595)
(-1338.643 -435.26657 -94.829148)
(-1497.2181 -450.16203 -97.451466)
(-1665.8198 -463.50239 -98.940801)
(-1844.4865 -474.98473 -98.989059)
(-2033.6466 -484.65657 -96.938021)
(-2233.1591 -492.44048 -92.491796)
(-2442.8016 -498.38766 -85.379439)
(-2661.7345 -502.59104 -75.673236)
(-2888.8905 -505.17116 -63.559907)
(-3122.5792 -506.06887 -49.820022)
(-3361.12 -505.49299 -34.796008)
(-3602.28 -503.34587 -19.477562)
(-3843.9683 -499.46867 -4.4183189)
(-4084.2517 -493.84678 9.9144441)
(-4321.2683 -486.46958 23.26565)
(-4553.4816 -477.33171 35.570102)
(-4779.5577 -466.72328 46.953647)
(-4998.4625 -454.86609 57.399065)
(-5209.2462 -442.2339 67.094108)
(-5411.1117 -429.32508 75.813169)
(-5603.2093 -416.57136 83.367129)
(-5785.5302 -404.35988 89.178877)
(-5957.1173 -392.80934 93.040682)
(-6118.0394 -382.21658 94.460816)
(-6268.3218 -372.40566 93.358708)
(-6408.6511 -363.13018 89.592824)
(-6539.8519 -354.34791 83.912798)
(-6663.0095 -345.77149 76.668672)
(-6780.5453 -337.10441 68.825509)
(-6892.0942 -329.34485 61.41338)
(-7015.0058 -322.20212 54.224209)
(8.7169928 -24.043932 -30.801338)
(-8.1993791 -37.117533 -28.428365)
(-35.841959 -66.761466 -33.505147)
(-73.672503 -86.593272 -33.445966)
(-124.70464 -113.53244 -35.631096)
(-182.68417 -138.32745 -37.079696)
(-251.50212 -163.33659 -42.458163)
(-330.37726 -187.11334 -45.780961)
(-417.64957 -208.81559 -53.047421)
(-514.52436 -229.67924 -58.591049)
(-620.53283 -247.71396 -65.034328)
(-735.09272 -265.12034 -70.885825)
(-858.48518 -280.06063 -76.633984)
(-989.13526 -293.36466 -81.83479)
(-1127.2131 -304.79983 -86.417439)
(-1272.505 -314.62117 -90.348698)
(-1424.1709 -322.39254 -93.779702)
(-1582.3001 -327.99216 -96.217361)
(-1746.6222 -331.34286 -97.447854)
(-1917.1367 -332.38732 -97.074642)
(-2093.6584 -331.28274 -94.640861)
(-2276.0795 -328.22195 -89.986408)
(-2463.8475 -323.49088 -82.992064)
(-2656.479 -317.4818 -73.745909)
(-2852.9566 -310.54969 -62.690537)
(-3052.2726 -302.96086 -50.362644)
(-3253.1733 -294.90278 -37.317811)
(-3454.2976 -286.38002 -24.2806)
(-3654.9043 -277.50137 -11.701022)
(-3853.8104 -268.12901 0.096706457)
(-4050.4049 -258.20281 10.962457)
(-4244.3132 -247.82028 20.91109)
(-4435.3724 -237.01667 30.004576)
(-4623.6414 -226.0692 38.400951)
(-4809.1866 -215.2873 46.152052)
(-4992.3045 -205.0588 53.15791)
(-5173.0792 -195.62238 59.239501)
(-5351.7215 -187.40443 64.067662)
(-5528.4503 -180.27042 67.330584)
(-5703.6103 -174.40393 68.75278)
(-5877.4614 -169.53521 68.175188)
(-6050.3963 -165.21678 65.618658)
(-6223.3548 -161.37739 61.358944)
(-6396.4213 -157.71128 56.061998)
(-6571.6383 -153.80933 49.89455)
(-6747.8254 -150.7666 44.118979)
(-6928.1603 -147.51768 37.838213)
(18.506548 -12.988486 -18.252521)
(-0.66069239 -22.530896 -16.012429)
(-25.657166 -37.229529 -16.685246)
(-70.174864 -52.507597 -17.306952)
(-120.70506 -68.124512 -18.538507)
(-186.65214 -85.590223 -22.935786)
(-262.08068 -100.0232 -25.801018)
(-348.02726 -115.63571 -33.644446)
(-444.16257 -128.47677 -40.13102)
(-550.50334 -140.26519 -47.490756)
(-665.33901 -150.69928 -55.318091)
(-789.31479 -158.96883 -62.343861)
(-920.85402 -165.99468 -69.23276)
(-1058.8953 -171.23751 -75.188863)
(-1202.6404 -175.30564 -80.688389)
(-1351.3878 -177.43285 -85.283027)
(-1504.3556 -177.85355 -89.18531)
(-1660.5659 -176.32003 -91.960569)
(-1819.7853 -172.85651 -93.496117)
(-1981.3028 -167.61918 -93.326349)
(-2145.0395 -160.72263 -91.220854)
(-2310.351 -152.49467 -87.041704)
(-2477.0321 -143.41088 -80.627526)
(-2644.5078 -133.90517 -72.357208)
(-2812.1103 -124.15557 -62.601385)
(-2979.2778 -114.6764 -51.794532)
(-3145.4655 -105.39009 -40.64277)
(-3310.3201 -96.533501 -29.509139)
(-3473.5548 -87.905233 -18.987448)
(-3635.272 -79.355069 -9.1966255)
(-3795.8736 -70.829593 -0.2752529)
(-3955.988 -62.228644 7.8654565)
(-4116.5049 -53.532641 15.301463)
(-4278.4132 -44.940117 22.251832)
(-4442.8006 -36.552262 28.677741)
(-4610.7541 -28.690014 34.629286)
(-4783.1457 -21.549741 39.880758)
(-4960.9558 -15.259449 44.179198)
(-5144.7884 -9.859559 47.244773)
(-5335.2663 -5.3010868 48.788193)
(-5532.7902 -1.2921014 48.653692)
(-5737.7701 2.4093025 46.693215)
(-5950.5723 6.0252885 43.385676)
(-6171.0662 9.9541086 38.712208)
(-6400.1575 14.165168 33.544871)
(-6636.5722 18.379258 28.142036)
(-6868.6927 22.771504 22.630459)
(20.38592 -1.094454 -1.627473)
(0.84841445 -0.97418924 4.628011)
(-26.457498 -6.7292498 3.6114512)
(-67.270481 -9.6505813 2.6586795)
(-123.40116 -14.134143 -0.6308805)
(-189.4487 -19.885735 -3.2080909)
(-267.4254 -22.265488 -11.489635)
(-356.28756 -26.834375 -17.426316)
(-456.01668 -27.52255 -25.956896)
(-565.3325 -29.226603 -34.888956)
(-683.94238 -28.047879 -43.119852)
(-811.09797 -26.883545 -51.3514)
(-944.9924 -24.456609 -58.807061)
(-1085.4961 -21.178217 -65.801933)
(-1230.3253 -17.620334 -72.02607)
(-1379.7294 -13.085492 -77.581882)
(-1531.7236 -7.9969607 -82.175916)
(-1686.1927 -1.9237386 -85.743922)
(-1842.1259 5.0262954 -87.948255)
(-1999.2981 12.592864 -88.412344)
(-2157.2653 21.073811 -87.07564)
(-2315.6084 29.506031 -83.666833)
(-2473.9142 38.013296 -78.289099)
(-2631.6434 46.362318 -71.256729)
(-2788.592 54.04209 -62.693327)
(-2944.3761 61.012807 -53.324781)
(-3098.7398 67.261658 -43.551528)
(-3251.5844 72.945553 -33.977125)
(-3403.0549 78.232209 -24.8469)
(-3553.5612 83.38127 -16.418449)
(-3703.8266 88.603131 -8.7399387)
(-3854.7759 94.101859 -1.7707873)
(-4007.5337 99.910535 4.6452699)
(-4163.3919 106.00631 10.600773)
(-4323.6286 112.28945 16.175985)
(-4489.4702 118.55697 21.328064)
(-4662.1151 124.6445 25.923275)
(-4843.1705 130.56833 29.635114)
(-5030.49 136.10133 32.256905)
(-5228.8506 141.5089 33.44719)
(-5436.4543 146.88405 33.124426)
(-5653.818 152.65695 31.170486)
(-5881.3286 158.95178 27.862232)
(-6118.4917 166.08559 23.419376)
(-6366.0231 174.08438 18.452891)
(-6621.9268 182.60115 13.30756)
(-6868.8178 191.07575 8.0623682)
(21.897724 9.8566571 14.448785)
(-1.678152 14.174991 19.467517)
(-23.29247 22.497573 19.67862)
(-69.158791 29.074363 20.202039)
(-121.77429 36.499596 18.758242)
(-188.22951 43.601915 12.945734)
(-264.37439 52.021431 7.5754013)
(-352.17094 60.2425 0.25108926)
(-448.62594 70.248082 -8.775146)
(-554.85007 80.224961 -17.457485)
(-668.96715 91.606092 -26.302363)
(-791.9896 102.33945 -35.441146)
(-921.62059 114.28827 -43.746856)
(-1057.294 125.13788 -51.710286)
(-1198.3641 136.37582 -58.894492)
(-1344.1153 147.21678 -65.558192)
(-1494.0297 157.9286 -71.169511)
(-1647.4032 168.48778 -75.872215)
(-1804.1073 179.01025 -79.318704)
(-1963.5817 189.31713 -81.131292)
(-2125.8359 199.66231 -81.497714)
(-2294.0836 209.54964 -79.85465)
(-2462.8293 218.60292 -76.370239)
(-2627.8187 226.35976 -70.996327)
(-2793.1035 232.81183 -64.300303)
(-2958.8204 238.12064 -56.691151)
(-3124.6918 242.2927 -48.663685)
(-3290.4882 245.58807 -40.58308)
(-3456.1149 248.31386 -32.816465)
(-3621.7351 250.84599 -25.533514)
(-3787.6477 253.5476 -18.835828)
(-3954.2991 256.65293 -12.601734)
(-4122.3219 260.36699 -6.817989)
(-4292.4178 264.66261 -1.2917091)
(-4465.2886 269.51938 3.929101)
(-4641.6231 274.70512 8.8567317)
(-4822.3538 280.11037 13.246848)
(-5012.2677 285.98847 16.800104)
(-5245.7978 294.04068 19.470879)
(-5445.1975 300.07158 20.634166)
(-5641.6633 306.14238 20.162621)
(-5845.0848 313.04606 17.986123)
(-6053.5594 320.92916 14.454694)
(-6267.2123 330.02707 9.7000656)
(-6486.4018 340.28839 4.5026102)
(-6709.9279 351.46827 -1.0228812)
(-6925.5004 362.46554 -6.255742)
(15.95699 19.123164 32.187612)
(-10.000018 35.873533 34.670178)
(-32.582558 53.497667 39.804589)
(-75.458307 70.276832 39.363358)
(-125.80774 87.660057 35.301272)
(-187.36135 103.79812 30.369307)
(-259.0793 121.90978 23.409045)
(-339.26103 138.53865 14.702616)
(-428.55216 157.22818 5.7243883)
(-525.63851 174.69713 -3.7972618)
(-630.37453 193.43224 -13.254343)
(-743.76509 211.81239 -22.275796)
(-864.10066 230.40416 -30.849645)
(-991.20749 248.1502 -39.104538)
(-1125.0477 265.79779 -46.64681)
(-1265.6583 282.82778 -53.85123)
(-1412.8282 299.75505 -60.216387)
(-1566.7553 316.24454 -65.993189)
(-1727.3078 332.77571 -70.611863)
(-1894.6361 348.90456 -74.041041)
(-2068.9213 364.89424 -75.949161)
(-2247.3462 379.51499 -75.906794)
(-2442.1261 394.96357 -74.462065)
(-2630.5132 407.53177 -71.166218)
(-2823.6412 418.4889 -66.344984)
(-3020.824 427.66715 -60.496382)
(-3220.7381 435.26468 -54.096771)
(-3423.0691 441.55183 -47.610973)
(-3626.663 446.75131 -41.236251)
(-3830.5897 451.24431 -35.237357)
(-4034.0472 455.34203 -29.622196)
(-4236.3223 459.35475 -24.361333)
(-4436.8576 463.46961 -19.34466)
(-4635.2272 467.68648 -14.393152)
(-4831.1088 472.01247 -9.5953064)
(-5024.3145 476.24751 -4.8750006)
(-5214.775 480.39247 -0.64909076)
(-5402.921 484.37482 2.870981)
(-5598.552 488.9641 5.3306513)
(-5861.7184 499.76301 6.3890366)
(-6016.0425 501.31549 5.6134785)
(-6188.7756 505.52704 3.1088763)
(-6355.9025 510.24977 -0.75388405)
(-6520.206 516.14782 -5.7177741)
(-6682.2804 523.10713 -11.08269)
(-6842.7217 530.98909 -16.35318)
(-7001.2769 539.43572 -21.090276)
(6.5355404 33.103453 44.346949)
(-18.796039 55.180735 47.514819)
(-39.192472 81.064971 54.838129)
(-82.049537 104.59071 52.553826)
(-127.35721 128.3009 49.657566)
(-187.45545 152.21633 43.234734)
(-253.27966 175.97417 35.678752)
(-328.61945 199.29157 26.635251)
(-411.39049 223.6532 17.351067)
(-501.74196 246.90599 7.414047)
(-599.60172 271.59054 -2.3901233)
(-704.7846 294.96977 -11.403622)
(-818.1904 319.68386 -20.549375)
(-938.64164 343.48407 -28.865529)
(-1067.6139 367.62581 -37.010175)
(-1204.6314 391.75842 -44.585148)
(-1350.6995 416.18825 -51.803896)
(-1505.811 441.09135 -58.297281)
(-1670.4644 466.34707 -64.021323)
(-1845.0795 492.09335 -68.631098)
(-2029.4967 517.7556 -71.771688)
(-2224.1565 543.50547 -73.617382)
(-2428.4136 568.10846 -73.434313)
(-2642.2635 591.7303 -71.962454)
(-2864.1966 613.48815 -69.099489)
(-3093.7777 632.99559 -65.332591)
(-3328.7401 650.1104 -60.963087)
(-3568.1574 664.85779 -56.318654)
(-3809.8949 677.40419 -51.66052)
(-4052.0349 688.04927 -47.258313)
(-4292.5968 697.02824 -43.070819)
(-4529.7281 704.67571 -39.027724)
(-4761.6287 711.08783 -34.960772)
(-4986.8304 716.32564 -30.724406)
(-5203.8973 720.36738 -26.385575)
(-5411.9312 722.94871 -21.891943)
(-5609.9298 724.31623 -17.843404)
(-5797.4577 724.13341 -14.256976)
(-5975.4998 723.02183 -11.796259)
(-6148.8818 721.68156 -10.824836)
(-6292.3469 717.86526 -11.467751)
(-6438.2604 715.77659 -13.801851)
(-6572.66 714.10868 -17.476887)
(-6698.3176 713.45464 -22.172752)
(-6816.2167 713.81236 -27.106075)
(-6927.8396 715.15974 -31.950045)
(-7042.9778 717.95449 -36.31987)
(-1.8726199e-15 -1.0357256e-16 4.2324109e-16)
(-4.3693994e-15 5.8098526e-16 1.0825799e-16)
(-1.86708e-15 5.0203615e-16 5.7484399e-16)
(-1.1298519e-15 4.4303811e-16 -1.5186772e-16)
(-1.5283164e-15 1.7502349e-16 4.7144117e-17)
(-3.9278597e-15 -6.147074e-18 -1.0233878e-17)
(-3.270765e-15 8.5080195e-17 2.8271762e-17)
(-1.444637e-15 3.1767481e-17 -1.0328492e-16)
(-1.9600489e-15 -2.0641393e-16 2.5996682e-17)
(-1.0758982e-15 -5.0887233e-16 -1.6282415e-16)
(-1.1902312e-15 -6.3217422e-16 -1.0496995e-16)
(-2.2455722e-15 -1.0363924e-16 3.7607835e-16)
(-1.7254929e-15 1.2766475e-16 7.9907906e-17)
(-6.542485e-16 2.4659353e-16 4.7610311e-16)
(-1.0183069e-15 2.0413811e-16 3.0876606e-16)
(-1.2825224e-16 3.2154578e-16 2.6910031e-16)
(-2.4669526e-15 5.8726168e-16 -3.2350189e-17)
(-1.9694108e-15 5.8752001e-16 2.9593509e-16)
(-1.9972486e-15 5.0741204e-16 1.6376266e-16)
(-5.0142844e-16 5.9082617e-16 -1.5096731e-17)
(2.8672985e-17 2.0007103e-16 -2.079567e-16)
(-3.5598279e-15 1.6770216e-16 6.1584209e-17)
(1.5219227e-15 -3.8112137e-16 -3.4960392e-16)
(-8.8364966e-17 -1.5289127e-16 1.7491834e-16)
(2.7397895e-16 -2.6900304e-16 -2.0413732e-16)
(-5.1236454e-16 -3.7600259e-16 -4.411389e-17)
(-1.3114086e-15 -5.3747975e-16 1.2489795e-16)
(2.0041989e-16 -4.4379834e-16 -1.4360784e-16)
(-1.3448657e-15 3.3966264e-16 -2.7012678e-16)
(-2.2010094e-15 1.2158219e-16 1.1470551e-16)
(-1.2722141e-15 -2.3577892e-16 -7.7366055e-17)
(-2.6936153e-15 2.298542e-17 6.0151854e-16)
(-1.8084585e-15 2.5926424e-16 8.2177642e-17)
(-1.0121806e-15 3.7760621e-16 1.5728837e-17)
(-3.5076342e-15 -1.049112e-16 -1.8966684e-16)
(-1.2388067e-16 -2.746004e-16 -1.3203227e-16)
(-1.1077126e-15 -2.2449831e-16 5.9960705e-17)
(-7.9462407e-16 5.2806017e-17 1.8160622e-16)
(-1.481116e-15 2.6347307e-16 -6.003674e-17)
(5.3541372e-16 1.9494005e-16 5.7756958e-17)
(-2.5861876e-15 -7.0653702e-17 -1.8824779e-16)
(-1.6152529e-15 1.8241927e-16 3.8488004e-16)
(-1.0389662e-15 3.299921e-17 2.9700946e-16)
(-3.8817577e-15 -1.9427146e-16 -1.2145786e-15)
(-1.6161979e-15 2.8442108e-16 -1.856842e-16)
(8.1577518e-16 1.8112067e-17 2.0819295e-16)
(-2.485062e-15 2.8178417e-16 -5.4749215e-16)
(-1.8307085e-15 4.4562511e-16 -1.4619564e-16)
(-1.4586292e-15 4.0358521e-16 -4.0281137e-16)
(-23.828227 14.658256 33.458056)
(-29.03033 18.955279 24.262108)
(-34.992367 19.662929 13.824391)
(-36.6536 20.857687 5.3260274)
(-36.193989 19.426079 -2.7674194)
(-34.883398 20.781517 -12.406323)
(-28.204177 14.48296 -22.869812)
(-50.252352 77.898713 49.110191)
(-59.813753 85.636736 29.174574)
(-63.766541 79.644807 15.571751)
(-64.990847 77.234165 3.5511086)
(-65.725491 82.9002 -8.1897335)
(-59.861243 83.003287 -23.269829)
(-53.94781 83.321594 -41.16603)
(-67.177082 99.93182 55.733059)
(-79.917216 94.505139 41.32609)
(-88.151309 100.85493 19.697666)
(-88.479782 101.08541 6.5909436)
(-87.970502 98.978472 -11.526295)
(-82.210896 102.13441 -23.924116)
(-73.729726 109.62073 -47.727371)
(-111.78207 147.05269 51.124251)
(-120.06112 150.55522 35.753423)
(-126.35641 149.54016 17.283867)
(-127.85507 149.59815 3.5218371)
(-127.30687 151.7902 -13.441843)
(-120.41753 157.44562 -31.925353)
(-110.48829 155.25267 -47.350882)
(-153.15081 176.72137 49.402585)
(-164.11326 176.1063 34.305614)
(-171.99665 178.85648 15.456775)
(-172.66063 179.56314 -1.2531354)
(-171.55966 181.64517 -17.686393)
(-165.15786 184.49542 -33.463396)
(-155.66442 189.55134 -53.211391)
(-210.13624 211.59824 41.06149)
(-217.90556 212.70266 26.51301)
(-223.98067 213.71464 8.9474999)
(-224.9629 216.45177 -5.5573683)
(-222.84223 217.42052 -23.737262)
(-215.76672 221.44555 -39.872396)
(-205.50498 224.6093 -55.766383)
(-271.79814 240.45351 33.218601)
(-279.89472 242.35758 17.801484)
(-285.67322 246.01403 1.4298397)
(-286.23709 247.35554 -13.778849)
(-283.75514 250.24596 -30.640068)
(-277.44229 255.22512 -45.640755)
(-267.02649 259.32075 -63.193237)
(-342.08713 271.04621 23.130054)
(-349.22917 274.40087 9.435424)
(-353.79982 276.60193 -7.5078196)
(-353.58141 278.80566 -22.544296)
(-349.83507 280.35139 -38.015663)
(-342.82096 283.90038 -54.067159)
(-331.66919 288.3263 -69.015117)
(-420.28811 300.29869 13.189529)
(-426.17696 302.79922 -1.8244506)
(-429.86369 306.24129 -17.019915)
(-428.93161 308.61511 -31.285983)
(-425.80812 312.5968 -46.948092)
(-418.09716 316.09774 -61.869125)
(-407.25428 321.53627 -77.866202)
(-504.77644 328.60704 2.5828631)
(-510.18137 332.6778 -10.964001)
(-512.78633 335.24587 -26.312062)
(-512.23028 338.53379 -41.453993)
(-507.42306 340.16053 -56.328761)
(-499.38125 343.6292 -70.871822)
(-487.97862 348.04434 -85.455831)
(-597.95393 357.83581 -7.4514338)
(-602.16257 361.02248 -21.391637)
(-604.50306 364.62438 -36.909964)
(-601.93143 366.17364 -49.877559)
(-597.4055 369.03542 -64.749218)
(-588.68128 372.74995 -78.408431)
(-578.48765 378.59432 -93.876473)
(-697.40149 385.78611 -17.015497)
(-701.61004 389.70099 -31.388335)
(-702.43692 392.87185 -44.6267)
(-700.59382 395.46167 -59.17146)
(-695.47418 397.86375 -73.57198)
(-685.92996 400.55967 -86.804252)
(-675.06411 404.59112 -100.6649)
(-806.39669 415.87591 -26.189019)
(-808.81699 418.79802 -39.890218)
(-809.88896 421.9658 -53.891326)
(-806.77586 423.18642 -67.582335)
(-801.27411 425.1693 -81.179645)
(-792.28046 428.65881 -93.793082)
(-780.42664 431.18182 -107.5772)
(-922.57462 444.90169 -34.693981)
(-924.55859 447.86861 -48.571455)
(-925.04057 450.53693 -61.714492)
(-921.09743 451.79632 -75.171221)
(-915.7237 453.75174 -88.569224)
(-905.68655 455.26929 -100.7334)
(-894.42315 458.19058 -113.9856)
(-1047.9543 475.5451 -42.971537)
(-1049.5115 477.96962 -56.678368)
(-1048.8468 479.83294 -69.515101)
(-1045.0617 480.56473 -83.044382)
(-1038.7864 480.98152 -95.444569)
(-1029.0906 482.49818 -107.47223)
(-1017.0406 484.14666 -119.8023)
(-1182.5689 506.25271 -50.958108)
(-1183.0118 508.02092 -64.311103)
(-1182.1926 509.62038 -77.076809)
(-1177.5132 509.38299 -89.802728)
(-1171.0975 509.58287 -102.24757)
(-1160.7646 509.81124 -113.62398)
(-1148.6833 510.89239 -125.58191)
(-1326.5786 538.07394 -58.44724)
(-1326.8296 539.51545 -71.778152)
(-1324.935 539.97801 -83.963422)
(-1320.0104 538.97603 -96.760395)
(-1312.9968 537.93542 -108.49507)
(-1302.6001 537.20488 -119.63594)
(-1289.8257 537.23032 -131.01527)
(-1481.1143 570.82563 -65.65423)
(-1480.2752 571.36829 -78.407177)
(-1477.8839 571.02914 -90.63861)
(-1472.2691 569.09411 -102.72889)
(-1464.8826 567.122 -114.15366)
(-1453.8457 565.22448 -125.05033)
(-1440.7672 564.14429 -135.88026)
(-1645.9078 604.51375 -71.86541)
(-1644.555 604.24757 -84.451839)
(-1641.3393 602.86208 -96.153586)
(-1635.2987 599.91017 -107.88774)
(-1627.2831 596.68806 -118.92779)
(-1616.0366 593.69723 -129.44896)
(-1602.4346 591.40726 -139.84248)
(-1821.6943 638.94275 -77.177094)
(-1819.552 637.67857 -89.183548)
(-1815.6497 635.19308 -100.47225)
(-1809.0041 631.1924 -111.69727)
(-1800.6025 626.88301 -122.22132)
(-1788.8404 622.74186 -132.40469)
(-1774.9616 618.93766 -142.33199)
(-2008.5077 673.90937 -80.942784)
(-2005.7379 671.57848 -92.399681)
(-2001.0475 667.93133 -103.10808)
(-1994.0679 662.86958 -113.70255)
(-1985.0914 657.40013 -123.67204)
(-1973.213 652.06511 -133.33567)
(-1959.1095 646.84493 -142.78564)
(-2206.379 708.90937 -83.093385)
(-2202.9151 705.41594 -93.798711)
(-2197.6628 700.60096 -103.7433)
(-2190.1972 694.54749 -113.57272)
(-2180.998 687.99174 -122.86835)
(-2168.9179 681.53999 -131.87331)
(-2154.9282 674.85949 -140.76708)
(-2415.0527 743.40665 -83.391783)
(-2411.1279 738.83094 -93.210076)
(-2405.2047 732.95593 -102.23642)
(-2397.5489 725.86997 -111.21762)
(-2388.003 718.27102 -119.65282)
(-2376.0576 710.74367 -127.82439)
(-2362.419 702.75953 -135.95367)
(-2634.2712 776.92485 -81.985231)
(-2629.6658 771.2346 -90.740546)
(-2623.293 764.2623 -98.731167)
(-2615.3129 756.19492 -106.60773)
(-2605.7165 747.69645 -114.05797)
(-2594.1012 739.19997 -121.16718)
(-2581.093 730.15801 -128.40072)
(-2862.8944 808.55839 -79.09557)
(-2857.8657 802.02939 -86.537122)
(-2851.073 794.13515 -93.492656)
(-2842.9047 785.17036 -100.14925)
(-2833.2993 775.94486 -106.46579)
(-2822.0577 766.54442 -112.44107)
(-2809.9008 756.7932 -118.43919)
(-3100.3703 838.17896 -75.090023)
(-3094.6732 830.88125 -81.26891)
(-3087.387 822.0173 -87.070868)
(-3079.2888 812.45716 -92.273873)
(-3069.8015 802.38336 -97.546356)
(-3058.7851 792.15154 -102.149)
(-3047.1155 781.76486 -106.79063)
(-3345.4857 865.08084 -70.671756)
(-3338.5691 857.10902 -75.564427)
(-3330.7701 847.58199 -79.737855)
(-3322.0503 837.21297 -83.799396)
(-3312.7459 826.46655 -87.774986)
(-3302.4962 815.74784 -91.171799)
(-3291.4986 805.10897 -94.606832)
(-3595.8618 888.80452 -66.183095)
(-3587.9744 880.42384 -69.671874)
(-3579.5693 870.35805 -72.39024)
(-3570.6894 859.4852 -75.359224)
(-3561.2248 848.37267 -77.932776)
(-3551.4024 837.27799 -80.285972)
(-3541.0308 826.60285 -82.558223)
(-3849.9827 909.4654 -62.006253)
(-3840.9662 900.9008 -64.075386)
(-3831.8761 890.43548 -65.586275)
(-3822.5971 879.2245 -67.292107)
(-3812.9701 867.79389 -68.729582)
(-3803.428 856.44508 -70.019498)
(-3793.5325 846.01517 -71.118406)
(-4105.6641 927.01299 -58.299023)
(-4095.547 918.20792 -59.063907)
(-4085.5877 907.53834 -59.367882)
(-4075.7899 896.12535 -59.983758)
(-4065.9351 884.583 -60.371322)
(-4056.5183 873.26397 -60.806634)
(-4046.9021 863.115 -60.908438)
(-4360.7782 941.35269 -55.024842)