/*--------------------------------*- C++ -*----------------------------------*\
  =========                 |
  \\      /  F ield         | OpenFOAM: The Open Source CFD Toolbox
   \\    /   O peration     | Website:  https://openfoam.org
    \\  /    A nd           | Version:  6
     \\/     M anipulation  |
\*---------------------------------------------------------------------------*/
FoamFile
{
    version     2.0;
    format      ascii;
    class       pointScalarField;
    location    "0.7";
    object      p;
}
// * * * * * * * * * * * * * * * * * * * * * * * * * * * * * * * * * * * * * //

dimensions      [1 -1 -2 0 0 0 0];

internalField   nonuniform List<scalar> 
28033
(
1236160.1
-1832262.4
96.066056
92.808374
2320338.5
-2583991.7
250.34831
-169.67737
1050589.5
904849.44
770706.41
624850.22
464742.79
317259.44
166561.24
654.18673
-166128.1
-316249.96
-499521.7
-600114.29
-809560.38
-990676.6
-970698.57
-711.43287
-1258.2318
-1886.805
-1837.5806
-1785.733
-1316.6513
-721.88067
25.51402
714.02594
1228.3865
2063.7963
2234.496
2355.5828
1764.8195
922.14478
335632.78
347751.56
312785.41
331865.7
319208.6
326695.51
324194.63
322835.16
319250.91
317933.14
311618.94
306242.58
301863.23
296023.67
288792.39
280952.23
275413.93
266945.98
259056.74
250296.59
242550.74
232693.91
225059.38
215563.71
206154.84
197631.67
188632.69
179900.23
171413.93
163258.54
155660.54
147864.43
141320.05
134856.81
128553.17
123441.88
118509.15
114870.82
110142.62
107059.06
103324.01
100220.74
97112.922
94545.75
91557.003
89042.884
86092.532
83472.153
80387.977
77629.377
74419.707
71480.32
68302.384
65267.664
62232.901
59335.911
56574.131
54016.234
51681.852
49637.241
47860.763
46368.104
45179.242
44360.693
43654.176
43242.811
43338.88
42975.989
42567.161
42576.426
42272.011
41913.77
41317.826
40523.275
39368.579
38015.684
36262.4
34307.417
31966.845
29516.018
26748.389
23974.692
21016.831
17874.661
14982.52
12105.018
9618.3366
7206.4925
5176.2661
3281.9131
2078.1757
645.01287
254.84568
-94.923309
-397.24315
-322020.59
-259053.39
-305315.29
-267887.87
-304088.5
-294474.87
-301188.47
-292459.54
-297688.78
-287626.92
-288799.44
-280084.38
-276729.71
-270856.85
-264615.84
-258100.54
-251090.86
-242971.39
-236515.89
-227733.88
-219190.95
-212030.23
-201479.35
-194618.31
-184675.41
-176358.96
-167787.59
-159063.65
-151352.71
-142911.23
-135267.13
-128457.23
-121599.1
-116002.29
-110449.02
-106027.44
-100999.71
-97410.283
-93518.243
-90759.137
-87690.439
-85221.124
-82664.766
-80438.921
-77989.421
-75759.409
-73265.177
-70793.152
-68145.26
-65398.971
-62529.666
-59584.395
-56571.865
-53583.925
-50592.913
-47742.883
-45007.619
-42486.363
-40186.047
-38180.825
-36430.974
-35023.063
-33872.924
-33030.295
-32400.708
-31999.253
-31773.686
-31642.818
-31613.667
-31388.58
-31253.575
-30882.136
-30421.1
-29650.419
-28689.845
-27438.615
-25916.645
-24201.114
-22178.719
-20073.989
-17738.616
-15403.432
-12971.339
-10663.936
-8359.2852
-6310.2514
-4373.2674
-2762.3209
-1366.6076
-297.89565
470.6419
912.95907
1186.8147
917.89735
577.1259
1884424.9
1767367.9
1272563.8
1283655.2
890647.82
536852.65
343555.6
-10350.174
-275084.93
-620336.77
-861555.65
-1190948.2
-1518202.9
-1790805.5
-1916605.4
-534723.57
-390259.37
-175856.44
-365225.65
-296526.78
-315287.17
-302823.18
-317089.3
-298859.93
-307964.8
-306131.57
-289054.58
-296155.47
-276486.71
-284453.31
-270302.45
-264309.27
-251690.31
-245605.05
-236255.33
-226373.71
-216287.32
-210794.48
-201364.02
-191482.54
-183791.74
-172596.72
-166329.42
-155498.53
-148898.12
-141041.52
-134479.72
-127016.77
-121392.09
-115426.71
-109912.38
-104910.2
-101738.41
-97748.271
-94375.588
-91212.747
-88481.453
-85804.618
-83285.934
-80821.468
-78456.968
-75912.573
-73404.942
-70729.324
-68062.623
-65255.341
-62430.064
-59563.339
-56710.356
-53902.34
-51150.686
-48599.31
-46147.343
-43962.952
-42011.38
-40309.383
-38917.643
-37783.355
-36918.075
-36323.268
-35880.532
-35549.85
-35833.979
-34818.503
-35270.962
-35236.369
-34881.074
-34416.562
-33701.474
-32718.014
-31474.789
-29922.653
-28164.827
-26075.286
-23810.294
-21300.53
-18740.409
-16003.868
-13404.87
-10743.238
-8317.8209
-5973.4205
-3967.6468
-2148.8994
-708.07704
410.52178
1189.4765
1462.5307
1507.4278
941.03212
875.08374
1656.6657
1663.1597
2157.5076
1547.0785
1684.5826
1081.0505
181.01706
-473.7177
-919.53732
-955.77205
-2228.3203
-1014.277
-1172.8492
-329.6588
-21.675307
-154.68348
-90.983655
552.8577
1260.4507
2439.4119
3900.8031
5729.4796
7671.3852
10187.5
12607.273
15269.216
18132.808
21096.339
23951.474
26735.356
29404.325
31784.014
33976.955
35873.684
37444.447
38756.044
39775.206
40467.495
40919.706
41177.929
40900.594
41794.755
41515.091
41861.197
42236.366
42812.986
43629.14
44770.782
46238.112
48020.398
50198.662
52617.179
55405.506
58380.732
61604.37
64915.848
68391.129
71812.742
75295.089
78656.404
81974.439
85140.039
88228.73
91169.644
94049.421
96869.172
99698.058
102822.02
105581.88
108954.5
111895.21
115191.33
121107.27
124911.11
129680.47
137787.35
142329.12
149920.82
154672.63
166830.19
170092.55
184081.87
190686.45
201158.06
209747.68
215767.35
231597.71
237297.33
243473.6
257681.66
260729.72
273739.46
276661.52
289378.97
299215.47
297434.09
304453.64
314507.24
320056.76
319550.88
329382.57
328210.08
329296.18
325525.49
325942.73
340210
335606.31
312246.43
401407.37
941987.09
1004652.9
1055637.8
1098911.5
1119947.6
1151382.7
1150079.4
1165402.8
1151030.8
1126925.8
1145200
1075025.1
1041556.6
1085341.6
875870.96
-1505707.2
-1909628.9
-1889966.3
-2035688.7
-1985812.1
-1894589.8
-2172150.1
-2316270
-2169905.6
-2176659.6
-2093004.6
-2020469.1
-1900466
-1876526.8
-1751154.9
-799.3959
-1195.6518
-1519.6552
-1819.0274
-1825.8131
-1950.2176
-1943.3976
-1902.1758
-1861.3779
-1747.2202
-1529.4994
-1381.5381
-1196.5204
-653.12673
-534.45983
120.2314
429.07361
774.76182
1019.0901
1177.7785
1329.9611
1509.5878
1645.5296
1784.7819
1808.9458
1866.863
1690.7233
1532.8258
1201.9916
305.40545
309694.82
316997.8
282907.77
282491.07
286495.35
288138.36
287775.03
287979.72
286446.14
283111.81
278683.88
277098.99
270328.9
265232.45
258242.51
254751.3
246147.48
240200.33
231897.89
225929.37
217869.65
211171.52
202734.75
194821.12
186856.29
179894.58
171428.48
163974.18
156506.08
149540.33
141990.03
135824.85
130323.17
124159.66
119147.65
113895.83
109533.28
104795.81
101236.45
97926.006
94715.753
91561.157
88789.29
85951.521
83283.203
80740.35
78024.869
75584.514
72844.718
70313.693
67578.621
64978.932
62264.013
59665.175
57074.867
54597.538
52225.26
50009.751
47973.785
46130.711
44492.708
43060.937
41908.888
40912.034
39974.324
39517.422
38816.073
38470.96
38053.94
37864.453
37393.842
36957.297
36233.16
35439.93
34374.608
33184.919
31697.493
30062.147
28146.962
26186.505
23885.26
21687.142
19232.727
16900.399
14364.708
12052.921
9789.273
7680.1716
5767.6949
4132.2959
2635.9224
1399.7732
581.74542
-211.43731
-885.84093
283101.68
263549.73
231800.16
240141.51
239147.65
240385.93
240311.74
241283.77
239705.22
238944.76
235559.77
233066.06
228341.62
225326.46
219778.91
214856.04
208935.07
204272.6
197803.1
192040.57
185595.86
178698.48
172655.69
166290.43
159965.9
153070.06
147100.31
140838.21
134702.48
128708.77
123337.88
117928.65
112561.5
107681.66
103066.55
98846.088
94923.977
91359.944
87989.992
84795.029
81723.879
79238.206
76234.741
73923.038
71430.198
69201.997
66855.058
64739.578
62397.509
60313.029
58017.184
55907.833
53689.859
51601.559
49512.608
47523.158
45612.1
43836.862
42163.778
40663.255
39293.851
38112.099
37113.813
36209.102
35496.832
35337.238
34815.371
34439.352
34529.486
33767.24
33322.874
32839.329
32103.348
31331.106
30406.242
29402.086
28024.583
26744.459
25046.063
23419.059
21484.648
19532.73
17531.589
15054.904
12949.001
10812.903
8792.4117
7021.6399
5373.1103
3812.5712
2591.4606
1213.7698
578.18553
-401.02805
-1292.498
224312.35
222445.87
190546.39
200442.74
195536.98
199240.03
200204.4
201585.05
199750.18
199138.78
196427.48
194858.28
190921.04
187764.11
183235.38
180044.24
174724.28
170668.56
165103.45
160834.01
155304.72
150705.93
145363.23
140239.3
134457.3
129713.04
124296.46
119015.29
114084.77
109192.67
104376.07
99718.692
95573.152
91385.717
87658.753
83959.907
80688.988
77525.193
74695.993
71933.418
69190.738
66843.261
64735.22
62665.66
60700.405
58729.244
56800.116
54953.881
53078.327
51278.071
49416.949
47655.819
45822.951
44098.559
42355.019
40693.633
39092.468
37577.928
36142.831
34838.432
33634.797
32559.273
31613.23
30729.775
30131.642
29711.868
29359.081
29431.619
28952.705
28963.517
28502.139
28010.326
27389.555
26726.699
25923.524
25023.453
24010.747
22805.318
21540.487
20123.447
18542.528
17058.913
15199.344
13472.415
11906.352
9905.6217
8107.7816
6582.9341
5014.3374
3628.4725
2383.5005
1099.7751
308.34226
-827.4371
-1726.0424
177732.76
177838.61
147172.62
158775.83
151305.41
156989.31
156648.03
157734.49
156563.68
157508.01
155091.17
154447.78
150719.91
149762.85
145521.76
143425.46
138820.99
136642.21
131887.06
128828.75
124237.66
120645.85
116264.87
112227.42
108352.58
104233.96
100220.11
96413.034
92511
88634.285
85117.672
81482.632
78135.367
74768.334
72006.845
68588.03
66286.788
63192.536
60777.44
58318.275
56583.832
54465.819
52513.086
50595.509
48896.762
47242.712
45649.747
44174.269
42666.811
41251.473
39819.131
38471.112
37089.648
35806.477
34501.149
33289.465
32089.871
30978.698
29901.16
28932.376
28015.503
27181.323
26428.183
25800.58
25186.558
24641.905
24407.608
23819.839
23318.965
23134.542
22724.827
22129.95
21736.945
21112.932
20533.458
19837.642
19072.344
18205.199
17217.392
16142.979
14978.595
13733.927
12358.148
10814.929
9438.1544
8351.6725
6960.5315
5759.9276
4436.6632
3337.8223
2199.7733
1182.6325
363.91148
-454.04184
-1532.829
143329.86
131118.88
108201.77
118249.4
114840.35
117860.64
118449.14
119341.62
118335.95
118530.69
117030.68
115759.23
114051.03
112405.89
109557.56
108034.56
104497.59
102908.59
99100.572
97296.955
93817.252
91650.377
88063.603
85927.001
82455.761
79770.59
76720.133
73797.061
70850.125
68170.15
65342.775
62664.914
60141.522
57752.838
55357.518
53060.174
52023.775
50739.387
48821.118
48629.124
46196.776
44714.506
43335.734
41905.966
40579.395
39253.274
37964.274
36748.264
35564.906
34412.876
33290.881
32221.289
31134.928
30112.195
29086.62
28108.311
27144.438
26228.973
25343.521
24514.184
23729.847
22962.529
22357.773
21706.979
21055.502
20790.024
20130.654
19920.752
19447.573
19146.69
18800.748
18112.823
17388.158
16724.794
16143.926
15575.666
15033.002
14369.06
13647.481
12868.495
11954.577
11078.586
10019.692
9092.2913
7928.5567
6864.3891
5712.4413
4762.1414
3593.0918
2782.1402
1740.3949
916.21155
260.51291
-482.0649
-1342.3983
88818.004
90617.085
69959.304
80834.752
74746.947
77051.289
78076.076
78982.419
77462.681
79386.016
77009.412
77836.271
75313.212
75532.341
72849.639
72689.258
69930.769
69826.062
66597.032
66274.524
63319.559
62274.944
59947.863
58632.844
56328.436
54956.876
52922.393
51303.816
49511.806
47672.343
45965.592
44166.937
42609.771
40780.41
39265.247
37882.81
36772.263
36151.444
35168.247
34068.506
33604.935
32238.396
31015.831
29966.756
28935.507
27937.522
26983.6
26133.478
25277.771
24503.086
23742.068
23043.413
22328.886
21687.937
21036.715
20415.161
19816.254
19238.199
18666.887
18129.997
17605.225
17133.477
16637.781
16211.408
15848.81
15394.54
15137.572
14833.672
14522.099
14264.236
13922.445
13465.284
13104.765
12630.152
12097.543
11804.634
11386.123
11005.046
10511.373
10025.267
9398.4448
8781.8536
8051.606
7329.0385
6490.4483
5781.9203
4837.2166
4075.0652
3085.9776
2421.4763
1459.4349
914.66746
166.88581
-243.68827
-843.36723
48232.164
42821.498
35784.166
42310.792
37265.068
39508.154
40523.72
40119.619
39807.513
39754.608
39707.417
38692.024
38587.016
38245.323
36966.584
37220.439
35559.079
35776.37
34062.933
34729.935
32781.893
33458.229
31741.344
31894.614
30531.433
30365.014
29098.331
28699.062
27522.261
26954.227
25981.626
25229.386
24282.383
23462.871
22664.905
21730.827
20943.109
20244.247
19350.845
18176.25
17747.448
17065.528
16364.25
15932.071
15417.048
14971.876
14480.466
14148.688
13721.594
13421.638
13084.853
12809.408
12506.967
12265.69
11982.188
11727.198
11464.317
11201.863
10914.772
10652.895
10376.157
10081.46
9820.805
9580.0599
9271.6158
9101.6028
8853.0175
8639.6003
8481.8523
8315.6083
8183.2872
8082.382
7902.5387
7945.0215
7864.3825
7775.6203
7554.7538
7364.5009
7128.8194
6832.5805
6477.6802
6109.7387
5628.9833
5176.3146
4579.722
4078.5448
3376.2547
2948.399
2208.6646
1878.9726
1096.244
896.52889
229.22025
124.98816
-298.97302
-4834.2617
863.32589
-4128.7988
1417.4601
-543.97675
1199.5862
778.92542
1832.1527
-343.25639
2169.9474
244.5824
1518.1272
800.46594
1651.5549
899.8295
2349.2057
1196.7324
3134.3864
2010.2608
3627.9823
2893.0328
4423.8881
3565.7458
5029.9788
4607.1875
5617.077
5568.8107
6165.1707
6244.1692
6549.5131
6613.0083
6606.958
6704.8407
6597.3541
6538.4112
6279.9997
6382.0613
5935.8204
6040.9902
5546.9024
5398.4349
5225.0525
4890.0297
4662.857
4550.804
4342.9972
4263.5184
4242.0236
4206.8577
4239.4824
4287.2224
4366.591
4437.8889
4536.3051
4610.9975
4678.5115
4730.4814
4752.8822
4734.5086
4721.9779
4624.8601
4556.1737
4440.6095
4300.3319
4187.028
4043.2918
3917.7715
3844.044
3737.5475
3718.4584
3644.3144
3588.5691
3532.056
3585.0939
3641.9015
3707.6846
3723.5534
3817.2995
3834.1056
3853.6198
3832.0364
3749.0349
3661.7068
3467.9101
3267.9418
3022.0669
2660.6369
2420.2118
1831.8224
1673.8194
927.46083
972.42788
271.64962
556.32256
250.72507
-43848.538
-43551.098
-36967.916
-34068.148
-34744.194
-36134.39
-35022.693
-36753.871
-36160.66
-36988.197
-36029.28
-36436.643
-35479.874
-34702.204
-34082.591
-32809.426
-32280.361
-30142.003
-30400.405
-27404.515
-27515.265
-25004.9
-24569.615
-21971.968
-21575.359
-19144.159
-18705.604
-16629.073
-16007.001
-14437.396
-13760.353
-12564.305
-11866.297
-11072.62
-10480.102
-9813.8514
-9502.009
-8984.2335
-8616.9744
-8328.2699
-8095.0077
-7768.7886
-7622.0958
-7252.8008
-6993.1226
-6696.5725
-6397.3885
-5993.195
-5660.2839
-5233.2986
-4808.5301
-4352.6856
-3927.8185
-3462.9321
-3045.5118
-2647.1054
-2276.2459
-1953.6872
-1684.0966
-1459.176
-1284.1364
-1167.8597
-1092.5333
-1038.2728
-1053.446
-1036.3507
-1034.3647
-1055.3171
-1020.8689
-974.79089
-923.6159
-765.44872
-636.38209
-461.47399
-340.33697
-118.78377
157.53664
365.81521
614.94019
818.9071
998.51223
1163.1401
1242.5827
1319.7174
1301.4503
1283.6638
1138.8761
1121.834
768.86276
952.98267
382.11952
760.3281
253.43773
722.51431
691.30713
-93447.971
-91028.808
-74611.165
-74889.52
-76375.014
-76063.402
-77177.231
-76335.147
-78561.052
-76705.193
-76873.994
-75928.835
-74731.75
-72827.303
-72056.767
-69039.425
-67869.291
-64853.107
-63203.934
-59819.313
-58473.103
-53805.004
-51925.808
-48219.978
-46505.781
-43315.871
-41375.33
-38518.498
-36565.658
-34228.264
-32376.798
-30435.503
-28870.436
-27296.02
-25825.797
-24793.164
-23477.776
-22688.785
-21697.504
-21049.339
-20306.335
-19681.669
-19024.489
-18496.826
-17834.145
-17241.136
-16569.099
-15849.252
-15146.096
-14369.783
-13569.872
-12772.98
-11972.566
-11160.644
-10402.072
-9679.8753
-8999.5057
-8396.3734
-7883.6815
-7406.1474
-7058.8649
-6764.1999
-6535.3556
-6393.5852
-6289.2108
-6195.2663
-6148.5622
-6081.6599
-5992.9759
-5892.6116
-5739.5724
-5539.6472
-5272.9811
-4819.814
-3952.4338
-3468.9025
-2984.265
-2542.0926
-1996.3033
-1624.8999
-1055.7596
-769.27267
-285.03577
-61.49545
264.08383
409.00877
572.88573
653.10833
613.83125
831.92449
460.5047
963.46566
610.42678
984.0401
1137.5044
-145034.47
-113970.54
-101323.96
-102453.4
-105140.3
-104879.9
-106874.42
-107423.34
-108705.6
-107842.7
-107261.45
-106522.78
-104446.38
-102509.35
-100647.13
-96943.714
-95719.871
-91061.067
-89435.94
-85426.388
-83405.671
-81723.94
-79441.025
-75548.901
-73395.466
-68643.064
-66350.215
-61881.93
-59433.249
-55697.523
-53234.556
-50253.861
-47983.013
-45437.689
-43471.481
-41370.39
-39721.406
-38062.006
-36625.459
-35264.146
-34069.246
-32819.457
-31782.683
-30661.761
-29600.726
-28516.047
-27467.564
-26327.794
-25231.132
-24054.447
-22890.859
-21706.377
-20535.779
-19365.451
-18254.502
-17185.692
-16177.706
-15272.746
-14440.29
-13714.173
-13095.149
-12559.281
-12136.108
-11783.524
-11518.433
-11288.721
-11078.202
-10891.892
-10696.188
-10453.331
-10180.491
-9870.214
-9424.1004
-8870.1247
-8373.9424
-7506.7754
-6616.9724
-5899.1898
-5202.5625
-4472.8596
-3812.5098
-3096.3554
-2464.9982
-1863.5083
-1312.5192
-864.36451
-449.17182
-153.32328
110.67135
337.1223
421.03468
814.22418
759.69221
1403.6131
1682.511
-173698.46
-163548.2
-146668.27
-142098.12
-144498.78
-143897.55
-147118.58
-147320.6
-147361.4
-147369.73
-146501.36
-144006.65
-142720.43
-139082.06
-136591.89
-132920.85
-129284.55
-124944.04
-121667.52
-116217.04
-113352
-107437.72
-105604.31
-101259.75
-97282.871
-92312.44
-88198.739
-83245.053
-79247.902
-74739.884
-71187.206
-67192.617
-64024.673
-60833.763
-57915.739
-55448.342
-52978.318
-50928.213
-48940.166
-47270.416
-45589.101
-44195.384
-42752.998
-41434.98
-40076.605
-38730.269
-37374.489
-35928.083
-34474.91
-32971.217
-31421.28
-29858.141
-28295.99
-26741.859
-25243.786
-23809.189
-22466.489
-21232.601
-20137.581
-19167.789
-18340.815
-17669.834
-17105.471
-16681.011
-16359.66
-16115.158
-15900.744
-15758.974
-15535.941
-15296.652
-15050.333
-14652.725
-14208.776
-13645.595
-12909.815
-12481.806
-11549.082
-10550.459
-9506.2277
-8462.0602
-7343.8007
-6255.3296
-5167.4077
-4144.9311
-3169.15
-2299.4655
-1515.9512
-850.65431
-325.78035
199.83922
335.1412
1006.1149
721.84644
1624.5833
1923.9965
-244545.16
-219154.48
-182401.63
-192016.88
-187574.22
-193773.01
-192670.66
-194833.64
-193729.48
-193769.4
-191007.07
-189712.47
-185527.03
-182751.8
-177972.4
-173610.01
-168832.33
-163279.85
-158560.83
-152442.22
-147634.78
-141014.67
-135703.79
-128502.2
-123851.24
-117031.43
-112742.91
-106123.2
-101654.48
-95912.43
-91533.838
-86534.892
-82779.788
-78564.463
-75174.832
-71771.436
-68766.213
-66023.155
-63560.324
-61227.004
-59174.214
-57159.817
-55285.068
-53459.282
-51683.151
-49901.24
-48145.289
-46299.193
-44482.341
-42599.219
-40684.661
-38767.593
-36854.095
-34957.855
-33121.11
-31366.758
-29700.739
-28178.069
-26790.253
-25554.192
-24492.84
-23581.603
-22817.716
-22203.422
-21688.101
-21315.154
-20950.509
-20648.529
-20326.041
-19972.997
-19563.748
-19068.639
-18458.238
-17749.409
-16882.504
-15948.29
-14883.927
-13710.071
-12459.128
-11143.091
-9800.6079
-8450.6613
-7110.0096
-5858.3527
-4635.1507
-3570.404
-2573.4516
-1765.3349
-1032.3171
-476.32905
-45.59179
520.56759
592.56
1495.6283
1706.2549
-272363.63
-255820.33
-211966.92
-228227.13
-228154.5
-232719.07
-232054.58
-235092.76
-233897.27
-231948.73
-231080.86
-226752.55
-223676.2
-219069.28
-213563.08
-208447.7
-202536.32
-195751.09
-190231.78
-182677.13
-176298.05
-169003.29
-162560.85
-155579.63
-148647.91
-141207
-134559.01
-127446.02
-121515.37
-114767.5
-109159
-103447.01
-98187.929
-93369.204
-89062.099
-85300.469
-81667.136
-78592.072
-75655.232
-73118.653
-70714.637
-68535.025
-66481.735
-64477.655
-62520.676
-60520.197
-58480.947
-56366.252
-54180.289
-51909.763
-49567.548
-47190.63
-44791.126
-42404.078
-40077.203
-37844.08
-35737.753
-33802.772
-32051.698
-30529.992
-29209.803
-28142.053
-27260.482
-26598.287
-26047.16
-25719.944
-25323.745
-25220.51
-25037.474
-24773.981
-24480.688
-24042.258
-23438.901
-22739.221
-21757.952
-20679.641
-19369.448
-17938.13
-16345.394
-14685.567
-12910.536
-11135.699
-9339.4523
-7620.0944
-5958.1485
-4456.5843
-3082.8924
-1916.802
-919.05419
-145.64636
421.96292
926.4287
1018.4162
1388.2313
1472.434
-382578.4
-248852.67
-264532.38
-263029.06
-272646.4
-266173.19
-272737.81
-272399.31
-269946.95
-268774.51
-265295.52
-262664.23
-256737.62
-251757.23
-245355.04
-239205.15
-233431.8
-224854.16
-218942.1
-209769.53
-202764.88
-193970.1
-187729.38
-178222.25
-171894.06
-161825.9
-155324.77
-146168.14
-140404.48
-132292.19
-126418.22
-119527.15
-113741.97
-107976.5
-102750.01
-98834.654
-94635.112
-91168.842
-87797.744
-84859.683
-82106.555
-79620.05
-77203.882
-74875.816
-72599.784
-70260.194
-67913.786
-65471.645
-62932.302
-60325.955
-57621.322
-54885.053
-52116.876
-49367.139
-46689.994
-44115.825
-41688.084
-39457.693
-37452.972
-35681.535
-34184.472
-32949.144
-31960.506
-31203.812
-30649.474
-30222.824
-29843.74
-29662.647
-29584.268
-29228.158
-28947.067
-28382.079
-27761.748
-26900.326
-25823.381
-24550.109
-23109.569
-21394.776
-19565.146
-17546.185
-15468.538
-13323.16
-11198.005
-9111.6178
-7149.7511
-5319.6748
-3697.4183
-2285.1547
-1115.854
-249.19305
410.65655
781.68615
819.89365
972.38395
932.84962
671174.89
687851.2
674258.1
693202.43
697346.59
702603.9
726383.7
711368.79
705442.27
704512.71
699330.1
676012.63
670382.25
701438.51
600759.12
626925.55
642756.07
617094.38
636704.28
642057.86
654710.9
636970.94
660486.03
653752.4
658363.5
644588.26
640876.68
639442.26
644046.75
555661.18
468100.25
531045.88
472592.27
495357.01
495832.12
491621.28
498251.21
493981.61
498396.12
490846.46
490002.58
492637.49
461490.75
505969.52
468490.4
405629.53
411008.06
411562.78
407069.95
420720.07
416938.03
423961.75
423598.85
420079.01
421511.16
421401.66
406664.72
408146.79
434987.58
315505.12
287916.64
324783.96
286662.35
310548.66
300694.75
312513.9
308484.27
308438.82
310035.46
309503.83
305160.83
304803.66
301500.26
309674.23
279402.44
212944.73
222182.22
209035.25
215897.27
217209.51
218206.14
217168.2
217717.4
219558.37
217881.51
212439.67
220796.26
207425.35
221245.61
210684.09
114495.44
115189.31
118067.32
112909.29
118734.65
119513.17
117971.28
118746.14
116384.8
118440.59
115788.62
110445.74
118605.49
111565.95
113602.85
16806.644
16572.321
10194.44
17426.956
12966.783
15242.824
13411.608
14680.537
11578.384
18853.016
4423.4012
18434.092
24357.188
1567.9309
54540.734
-71124.213
-82381.145
-70002.516
-78867.511
-75740.615
-76779.873
-77854.09
-76417.991
-79666.614
-71937.853
-83991.772
-70728.672
-70606.967
-93363.81
-7487.6197
-153942.09
-189438.76
-169036.05
-175740.44
-176675.95
-179229.91
-181861.56
-180677.24
-186993.55
-175023.53
-199017.35
-170825.84
-170448.87
-205608.27
-101186.29
-251813.61
-311686.89
-260283.19
-292057.93
-277844.23
-286835.13
-283776.7
-284383
-286712.2
-273834.23
-282191.19
-275427.93
-257616.29
-292215.67
-169566.1
-375901.98
-361240.95
-366501.24
-358089.23
-374666.54
-375036.63
-378968.95
-382520.28
-384335.15
-378082.72
-398193.08
-349665.83
-368376.46
-405213.63
-266081.79
-428258.62
-485459.03
-426527.14
-450618.37
-431069.73
-447217.61
-442578.73
-442528.83
-438767.98
-434766.84
-439346.26
-441323.41
-402992.88
-483244.85
-239112.49
-538849.27
-653164.59
-572478.41
-620626.27
-638087.1
-631894.4
-637123.9
-667552.53
-652296.43
-667423.37
-629852.03
-615429.18
-627875.99
-609887.23
-549107.17
-585202.7
-517098.86
-467594.32
-474260.6
-494848.68
-530505.79
-509226.53
-492016.62
-468182.48
-466596.35
-475432.15
-477551.9
-477006.93
-529763.42
-468607.84
-565569.66
-528141.05
-632870.1
-664465.88
-689207.04
-751104.39
-718367.47
-670806.15
-763816.65
-748020.94
-723583.3
-688127.14
-658479.61
-625337.28
-521987.61
-386346.79
-391819.55
-442253.57
-455463.95
-473454.74
-489806.07
-502836.46
-518034.04
-534528.57
-507424.22
-496780.19
-465710.33
-467932.28
-459904.61
-459990.24
-310620.45
-360613.42
-353064.38
-387831
-412835.53
-400503.81
-421519.93
-416711.55
-404540.46
-422165.74
-404755.9
-410427.94
-394511.82
-349500.12
-362512.64
-308074.03
-352388.76
-358307.11
-367866.49
-378905.13
-387262.6
-390905.68
-394432.77
-393507.89
-384164.15
-383798.11
-373346.07
-357356.5
-350171.28
-328254.67
-327543.99
-361760.68
-352338.17
-380624.65
-384711.83
-393020.1
-401902.57
-400321.5
-403114.11
-401972.04
-390589.16
-382500.59
-364739.17
-348642.09
-343322.98
-314738.88
-329209.38
-338029.23
-351931.79
-357835.62
-368242.58
-367700.28
-369721.39
-369836.08
-363490.06
-360807.21
-352861.68
-341011.82
-332213.81
-313547.83
-310692.07
-335165.1
-335993.12
-350771.3
-352545.83
-360885.48
-363673.08
-364865.33
-364672
-360728.54
-353138.92
-348253.18
-338276.36
-323880.93
-325637.95
-311857.07
-318047.65
-327738.51
-332229.3
-343189.79
-344509.55
-348667.49
-350073.38
-348609.35
-346299.26
-341760.57
-335226.35
-328014.41
-317744.73
-309633.7
-303028.78
-317422.29
-319625.04
-329677.07
-329523.26
-338180.87
-335982.39
-339115.04
-337669.33
-333709.96
-330436.44
-325011.66
-319464.85
-312897.6
-307238.67
-302186.14
-305153.75
-311316.73
-313108.7
-318991.38
-319998.78
-323362.7
-323180.38
-321804.12
-322351.27
-317657.83
-315518.81
-310351.09
-304790.69
-301890.72
-293370.89
-301939.82
-303559.83
-310441.04
-311790.85
-316877.47
-315955.31
-318869.65
-318100.24
-315910.34
-314968.35
-312050.79
-307300.55
-304051.87
-300899.67
-291856.53
-292160.09
-296468.92
-297822.01
-300695.42
-300941.05
-303807.65
-303958.82
-304419.41
-303714.8
-302162.8
-299736.57
-297851.49
-294291.36
-293051.98
-285221.26
-287269.88
-288142.23
-291888.66
-292973.61
-296648.8
-296251.16
-298152.79
-297834.11
-297452.91
-295253.19
-295309.8
-291106.76
-290480.1
-287961.28
-278408.68
-278631.02
-282630.77
-282442.61
-285001.49
-284954.28
-286077.18
-286683.93
-287088.61
-286040.99
-285874.27
-284804.5
-283332.35
-281602.23
-281692.09
-272195.41
-272536.75
-274235.36
-275713.24
-277327.78
-277809.85
-279320.94
-279330.51
-280074.6
-280393.17
-279221.54
-279366.09
-275641.22
-277245.79
-275488.17
-264200.93
-264687.45
-267745.22
-266634.25
-268520
-268158.29
-271171.06
-268742.84
-268901.17
-268436.48
-267762.74
-267839.07
-265052.78
-264883.96
-263910.51
-258235.36
-257280.86
-259466.57
-258281.14
-260962.66
-261229.39
-261403.24
-262351.96
-262380.92
-263024.69
-262043.56
-262795.93
-261868.43
-260336.28
-262187.65
-250328.57
-250074.88
-251331.58
-250725.81
-252030.13
-251835.95
-252784.79
-251874.93
-252138.86
-251709.8
-251229.55
-250850.66
-250717.03
-249171
-249532.35
-241432.91
-241429.46
-243031.8
-243171.8
-243782.59
-243345.61
-242974.59
-244340.08
-243820.86
-244670.34
-242776.71
-245056.55
-243179.32
-245537.13
-244228.62
-233651.49
-233202.53
-234016.22
-233149.55
-234509.97
-233970.6
-235717.69
-234130.61
-234983.4
-234037.72
-233513.99
-234593.16
-232713.64
-234073.08
-232857.11
-225534.71
-224640.28
-225827.88
-224627.74
-225078.55
-224426.48
-225289.57
-225887.3
-224903.42
-225797.18
-225576.3
-226775.46
-225761.48
-226679.87
-226538.7
-214560.46
-215827.35
-215680.11
-215511.19
-216196.52
-215442.67
-216128.31
-215246.51
-215897.17
-215864.93
-215518.14
-216372.49
-215053.02
-215004.41
-216574.33
-207927.69
-206055.14
-206704.42
-206029.7
-206277.92
-206131.86
-206511.7
-206062.34
-205797.56
-206714.2
-205924.26
-206828.38
-205194.94
-208058.63
-207066.32
-197049.57
-196958.83
-196876.71
-196714.78
-196701.05
-196060.1
-196744.03
-195784.49
-196554.99
-196334.21
-195598.56
-197520.92
-196527.54
-197349.24
-197457.88
-188875.54
-187610.85
-187746.6
-186482.02
-186880.45
-186140.31
-186800.22
-186432.14
-186329.13
-187050.39
-185725.91
-187687.79
-186389.12
-188352.65
-188433.4
-179350.37
-177264.51
-178012.82
-176563.51
-177080.13
-176566.8
-176902.17
-176269.52
-176712.17
-176982.05
-177664.95
-178099.88
-177154.18
-179143.94
-178965.48
-170240.7
-168141.28
-168809.49
-167525.26
-167955.33
-167506.81
-167403.33
-167227.95
-167138.66
-167443.17
-167200.98
-168944.85
-167676.89
-169930.59
-170639.82
-161428.56
-159016.92
-159083.75
-158301.23
-158504.87
-157892.39
-157912.67
-157538.9
-158191.89
-158072.92
-158481.98
-159257.63
-158696
-161309.87
-160894.42
-152427.55
-150888.62
-151218.55
-149458.55
-149737.57
-148980.77
-149098.43
-148883.73
-148948.22
-149530.48
-149315.01
-150798.06
-150258.92
-152470.24
-153327.74
-144889.63
-141956.64
-142285.68
-140895.52
-141310.97
-140355.4
-140510.66
-140259.03
-140507.16
-140779.88
-140942.13
-142420.8
-141764.45
-144623.69
-144734.59
-136960.26
-134607.38
-134703.75
-133271.63
-133346.55
-132964.42
-132883.86
-132434
-132450.38
-133086.78
-133110.83
-134704.63
-134017.68
-136710.93
-136856.15
-130113.84
-127031.34
-127505.3
-125761.56
-125797.47
-125416.07
-125024.99
-125026.24
-124947.02
-125528.09
-125659.23
-127226.47
-126872.26
-129819.3
-129864.28
-123331
-120514.93
-120666.74
-119106.78
-119359.05
-118514.32
-118618.01
-118259.16
-118583.04
-119005.64
-119227.39
-120710.4
-120486.95
-123249.2
-123173.65
-117215.2
-114345.19
-114638.89
-113103.26
-113018.87
-112397.73
-112376.23
-112229.06
-112392.29
-112897.55
-113015.38
-114696.37
-114472.57
-117464.79
-117487.75
-111393.98
-109090.24
-109111.99
-107537.2
-107804.24
-107043.05
-107094.12
-106952.55
-107090.55
-107552.99
-107800.38
-109121.05
-109302.85
-111409.08
-111819.36
-106346.54
-104610.72
-104357.82
-103327.78
-102837.53
-102466.42
-102218.78
-102154.78
-102272.68
-102700.6
-103120.97
-104492.07
-104700.01
-107028.4
-107735.94
-102515.1
-100037.49
-99908.393
-98805.54
-98784.403
-98119.857
-98323.79
-98012.904
-98471.352
-98697.086
-98936.865
-100486.6
-100334.9
-102827.04
-103087.11
-98426.515
-96420.58
-96383.437
-95196.628
-95070.593
-94707.083
-94467.392
-94574.913
-94661.097
-94933.605
-95320.566
-96650.614
-96733.681
-98981.176
-99088.581
-95344.88
-92903.649
-93250.149
-91813.067
-92102.133
-91369.753
-91563.202
-91375.493
-91489.57
-92012.617
-92185.006
-93575.741
-93534.817
-95483.505
-95768.593
-92051.879
-90175.769
-90383.219
-89228.006
-89359.652
-88886.902
-88937.628
-88723.583
-89013.405
-89345.996
-89568.292
-90761.741
-90693.822
-92531.864
-92847.335
-89488.639
-87547.399
-87952.645
-86698.354
-87014.38
-86402.093
-86504.736
-86381.377
-86547.212
-86930.524
-87042.433
-88189.098
-88159.514
-89735.712
-90029.664
-86902.776
-85338.661
-85630.76
-84636.711
-84893.578
-84374.744
-84536.702
-84292.098
-84523.194
-84786.745
-84919.752
-85996.478
-85892.579
-87184.488
-87560.206
-84675.496
-83083.72
-83526.541
-82530.562
-82842.88
-82402.274
-82475.83
-82309.682
-82474.053
-82764.086
-82842.051
-83832.723
-83649.36
-84776.004