/*--------------------------------*- C++ -*----------------------------------*\
  =========                 |
  \\      /  F ield         | OpenFOAM: The Open Source CFD Toolbox
   \\    /   O peration     | Website:  https://openfoam.org
    \\  /    A nd           | Version:  6
     \\/     M anipulation  |
\*---------------------------------------------------------------------------*/
FoamFile
{
    version     2.0;
    format      ascii;
    class       pointScalarField;
    location    "1.59";
    object      p;
}
// * * * * * * * * * * * * * * * * * * * * * * * * * * * * * * * * * * * * * //

dimensions      [1 -1 -2 0 0 0 0];

internalField   nonuniform List<scalar> 
625
(
77943.894
-57733.463
1720.3955
7464.7468
144805.3
-166626.51
6881.6542
776.72886
54332.581
27959.473
-2748.4915
-12978.99
2680.1817
7451.3961
52898.05
55069.773
68516.92
76205.784
73972.612
80785.538
79979.554
81746.679
85538.978
83710.152
88421.047
90884.357
93079.342
95127.712
95607.423
94765.681
89976.964
85867.079
77280.863
66590.289
53939.375
34952.985
19939.346
-32600.743
-22385.109
-39028.091
-37591.31
-44094.608
-47967.748
-52031.353
-55229.061
-60614.24
-63804.112
-68164.487
-71005.819
-74349.841
-74541.237
-73994.887
-71469.159
-65936.952
-59731.352
-49991.579
-42363.151
-32100.825
-20402.708
-7450.8826
120280.87
6092.9452
-49205.566
-38569.982
-62644.681
-64919.637
-65217.826
-89650.001
-85419.776
-93688.807
-103988.86
-109532.65
-117246.42
-116000.91
-122734.49
-115886.73
-115671.64
-107463.92
-99072.4
-89379.502
-76590.538
-64717.568
-51820.7
-37221.321
-23571.312
-9206.1602
4969.6053
1969.4374
-7131.0657
23858.855
31843.873
40680.769
54652.63
67483.346
76465.038
84100.142
90417.148
93368.35
93941.692
93386.549
90390.289
87166.046
82658.481
70488.642
79971.752
70485.559
61683.859
66891.196
52930.585
61895.109
40127.619
39275.522
84240.605
62786.044
45107.654
-66142.387
-67165.565
-61549.006
17645.373
17162.354
20832.525
-8274.4006
-1721.9219
-4807.7653
17754.456
25977.616
33941.972
35423.655
42373.431
50743.034
54583.274
62103.575
67669.976
72812.319
78187.794
80279.153
81852.793
80776.756
78528.052
72315.261
65410.479
57208.708
45247.556
36823.722
25866.337
13311.209
7856.3589
5544.0251
13985.241
10163.949
15350.626
14373.67
14682.966
12867.102
12382.16
9559.6363
5718.2035
2650.6064
-1213.1974
-4718.0111
-7183.909
-9491.8073
-10467.724
-10044.098
-9062.1443
-7817.1089
-5579.083
-5385.884
1500.9825
3244.8436
-22214.236
-22555.441
-27709.759
-24980.031
-35600.592
-33784.645
-39287.312
-39681.535
-41379.295
-41947.077
-40621.179
-40069.36
-37365.35
-35393.683
-32211.125
-29238.223
-26473.608
-22901.753
-20826.268
-15982.917
-12374.532
-10145.353
-2645.9262
57614.324
34567.397
44471.985
9953.6096
14418.62
15196.525
-4856.2965
-11687.553
-33156.501
-42321.528
-45045.397
-45950.357
-42005.495
-41773.697
-41159.584
-54987.752
-54909.431
-57543.655
-51453.754
-54671.528
-58324.142
-61331.884
-66881.099
-71207.629
-66317.33
-70684.923
-74518.925
-72406.398
-78144.146
-85178.796
-78624.374
-82943.79
-90699.579
-82554.699
-87348.974
-96100.151
-86878.941
-91931.625
-102320.81
-88516.149
-93130.803
-104621.78
-89728.28
-95231.608
-106698.54
-87964.425
-92850.373
-104994.9
-84666.874
-89821.396
-101064.57
-79449.221
-83672.303
-95200.23
-72063.021
-76484.203
-85808.581
-63983.435
-66448.73
-76022.776
-54039.415
-57572.798
-64536.835
-45808.031
-46564.958
-52155.378
-35665.821
-36119.156
-40786.789
-25706.884
-25746.387
-29491.331
-17717.426
-19983.968
-20436.165
-15924.404
-10782.109
-14387.35
-18657.628
-20080.078
-21657.068
939.60975
778.90138
3642.8804
9931.7749
11417.054
9040.3199
46985.468
52931.517
50085.617
57776.62
58479.072
48289.43
70389.159
62222.504
55518.024
70013.76
64351.627
58878.633
75485.88
72843.255
60132.589
84490.145
67885.141
66160.28
85379.382
71052.953
69125.099
92443.645
73047.871
68867.276
95340.005
75090.418
79857.618
102378.46
73561.858
81782.543
106740.57
78313.665
86723.044
110325.23
79733.176
91674.412
112640.31
82832.127
95872.269
113759.5
84423.691
98324.927
112342.42
85488.708
99313.241
108070.26
84508.826
97481.463
101345.6
82368.405
93671.075
92933.951
77568.799
86132.446
79627.319
69908.647
76116.131
67762.995
59701.581
65910.449
52777.911
48056.441
51717.551
34792.637
35766.373
34816.791
26860.237
28123.498
30233.125
28859.98
36186.154
34069.314
36203.937
44589.732
44020.551
48066.536
47565.726
50351.734
48982.549
49138.245
47012.708
43770.089
40984.438
36536.475
32948.245
28342.233
25497.976
21912.676
17543.66
15402.515
9622.1522
1883.9662
-4378.5433
-348.3318
-2842.7424
-2235.1794
-1323.336
-6194.5402
-6699.0051
-8379.9681
-10099.948
-11172.577
-8629.4945
-8887.717
-4205.8171
-1926.5767
3334.5639
6980.2115
10742.142
14646.286
14178.841
16498.615
15241.599
12645.872
6773.0711
-28244.69
-34285.532
-40732.313
-48023.217
-49949.214
-56907.204
-55587.186
-57759.708
-57060.531
-57133.82
-56475.912
-55901.075
-56774.269
-55796.156
-56732.771
-55636.704
-53410.943
-50964.497
-46031.815
-38438.407
-31842.144
-22665.951
-13441.262
32994.253
29137.479
24811.644
43914.158
28494.408
24185.088
36571.633
26874.014
33415.443
40838.978
38095.309
28237.714
55143.931
37412.67
36514.417
49388.868
45159.429
41900.892
59736.603
55791.296
45673.504
63437.717
55473.74
50455.439
63753.582
62538.801
55244.779
65889.865
67649.46
56173.455
64411.842
68086.858
57426.06
61874.343
69431.978
57699.165
58413.067
67378.812
55342.09
52388.933
64455.701
52491.591
45687.783
59029.61
47266.546
37885.646
52956.741
42252.122
31413.707
45876.745
35822.711
24371.685
37544.559
28745.956
17496.574
28736.262
23954.777
12791.559
25214.6
18548.163
7014.0265
15104.305
9032.5491
7937.6675
8284.3826
10187.75
836.46795
-1384.158
-2066.0417
11435.851
4093.1187
9939.9698
8956.5508
7144.4671
9831.5802
11334.839
5962.5499
7800.0678
13409.761
6322.0594
6664.5791
11272.978
4860.498
7222.1256
10137.539
6759.7889
5651.8996
12647.633
4194.9699
2043.1329
8103.6927
1531.5458
-77.077464
8365.8112
1989.3855
-3411.5319
8451.1856
-1427.9222
-6966.3378
6476.0083
-1331.0997
-11186.33
7342.6365
-1684.0618
-14195.743
6908.0587
-708.62658
-17440.179
8159.6183
-88.487507
-19788.657
7809.2529
2022.9012
-20221.966
9092.3149
4425.2454
-20568.991
9773.2291
5746.79
-19048.604
8512.3874
6747.0245
-16955.873
9226.2164
8472.9963
-10613.452
9927.8643
9303.8053
-12368.015
9315.3924
-4287.7205
-3249.268
7824.9943
9045.0889
1144.509
7920.0844
8014.8593
6479.6083
-33287.632
-36550.803
-49722.52
-20300.412
-21622.504
-34071.104
-26014.176
-32791.613
-40445.457
-35289.877
-33664.055
-45172.157
-34964.973
-35982.189
-47296.482
-37848.94
-39698.205
-53624.798
-39056.267
-39432.905
-54483.577
-40639.351
-42527.645
-57677.222
-39734.033
-42564.703
-56892.153
-40684.66
-43548.066
-57685.747
-39003.276
-45350.862
-57089.895
-37748.917
-46671.952
-55341.39
-35984.837
-50041.852
-54946.784
-34929.195
-52403.728
-53131.59
-33431.677
-54872.509
-51569.341
-32570.946
-56035.994
-50770.812
-31631.477
-56594.337
-48128.182
-30437.224
-53155.625
-44114.792
-27774.68
-48462.531
-41827.466
-24543.74
-44186.071
-34735.941
-21245.297
-34025.254
-25881.858
-13208.044
-20898.811
-11885.507
-5889.6471
-12651.679
-10871.738
)
;

boundaryField
{
    free
    {
        type            calculated;
    }
    fixed
    {
        type            calculated;
    }
    traction
    {
        type            calculated;
    }
}


// ************************************************************************* //
