/*--------------------------------*- C++ -*----------------------------------*\
  =========                 |
  \\      /  F ield         | OpenFOAM: The Open Source CFD Toolbox
   \\    /   O peration     | Website:  https://openfoam.org
    \\  /    A nd           | Version:  6
     \\/     M anipulation  |
\*---------------------------------------------------------------------------*/
FoamFile
{
    version     2.0;
    format      ascii;
    class       pointScalarField;
    location    "1.11";
    object      E;
}
// * * * * * * * * * * * * * * * * * * * * * * * * * * * * * * * * * * * * * //

dimensions      [1 -1 -2 0 0 0 0];

internalField   nonuniform List<scalar> 
3969
(
14645.445
13820.9
20365.225
-5618.3209
18032.735
13584.853
-2502.823
17257.481
7122.6088
2771.3326
798.64996
944.68599
2378.8061
5280.4565
11349.145
11558.565
3000.0402
4810.5333
9933.4845
16158.26
20150.13
17907.985
14516.526
12037.775
12620.909
13134.634
13566.854
13667.158
13625.416
13833.528
13181.009
13256.213
13259.838
12805.33
12900.278
12547.939
12503.176
11758.683
11717.38
11004.275
10543.081
9659.7038
8740.1645
7642.3916
6416.8176
5254.2138
3528.132
2151.5236
166.01236
-1862.3676
-3759.1738
-6050.8695
-8303.6641
-10501.834
-12712.939
-14793.828
-16532.419
-17779.858
-18808.507
-19609.682
-19558.933
-19615.175
-17977.721
-17334.828
-13781.608
-12346.195
-7400.205
-4626.0957
7139.7809
18555.906
10222.608
16998.227
13868.283
16015.581
14048.883
14180.07
12907.389
11926.443
11290.661
9471.6173
9011.2436
7553.5083
7061.8141
6137.4073
5569.527
5465.1892
4770.7909
5211.6783
5248.6976
5970.1666
6971.9425
8155.7664
10133.09
11993.904
14871.831
16214.23
19617.231
22672.84
25144.533
28909.312
31674.872
35131.23
37856.433
40703.666
43309.661
44668.363
45773.275
46305.615
45601.621
44575.933
42030.92
38741.447
34289.63
29691.216
24049.168
13709.096
9417.7519
4086.1355
1280.0828
1500.7144
1573.0469
3880.5688
8496.6001
21435.839
19886.546
6832.8192
18628.785
14941.234
14505.849
15885.159
11766.215
14519.365
9391.3196
13653.555
11098.952
11477.918
10612.702
9482.4195
9608.2304
8637.1618
8703.6897
8749.4607
8813.55
9520.5793
9910.3154
10926.139
11561.827
13127.899
15311.924
17592.611
19971.971
22581.37
25146.326
27592.072
30367.205
32610.468
34779.735
36019.323
37869.459
40983.513
37922.963
37387.224
36091.347
33569.402
31190.484
27438.21
23550.17
19113.097
13724.912
15965.244
19576.009
18208.908
17699.281
13023.408
9059.7998
3022.7074
11912.574
8188.8849
7183.5039
6414.2972
3451.0086
1245.9613
-635.80524
-2223.1201
-3493.793
-4260.64
-4826.2301
-4373.2006
-5405.2864
-5715.562
-4947.0291
-4533.2225
-3816.7689
-3051.9141
-2016.5276
-1065.1804
148.25005
1173.1415
2405.5712
3268.9193
4183.7013
5048.9043
5922.3365
6727.059
7466.5862
8367.3687
8927.655
9942.9676
10548.943
11727.757
11363.515
12456.595
13059.012
13645.858
13877.982
14323.124
14623.319
16026.67
14453.95
17023.826
14208.861
15682.546
12664.699
20877.935
9107.9218
9797.5846
9577.1033
10115.45
10206.102
10345.478
10585.737
8364.8336
8836.8737
8772.3422
8814.8431
8877.0793
9371.7179
6851.5739
-4826.9888
-4429.3137
-4478.3095
-4289.629
-4350.595
-4210.442
-3658.9716
20256.805
19950.937
20014.702
20170.01
20206.084
20367.837
19729.617
9968.345
6607.099
7617.8264
7498.8994
7211.1552
7833.4072
6821.1647
7339.0387
6503.629
6808.8335
6314.1236
6023.6458
6048.7935
5603.3507
5378.4567
5203.0223
5356.2372
4864.1772
4899.5703
4468.7394
4278.3
3884.6065
3695.6464
3133.65
2831.251
2584.0586
2204.7463
2110.5113
2413.0497
2501.639
2952.1036
3477.0118
3850.4454
4520.17
5212.6612
5737.1102
6557.7317
7069.5253
8033.0114
8716.6691
9638.0956
10537.867
11707.13
11903.181
13975.644
13746.106
16798.777
4115.386
2424.8372
3033.2512
2525.2511
2642.0161
2716.9542
2210.6773
2447.4241
1879.2396
1954.5078
1686.4919
1734.0911
1462.0995
1342.0801
1412.7207
1335.3868
1282.5909
1197.3312
1314.8336
1417.7714
1590.6883
2028.8535
2129.3957
2744.3312
3230.7523
3708.7152
4321.2428
5157.6059
5855.1633
6803.1631
7861.2348
8767.7456
9774.0437
10794.119
11667.915
12581.39
13640.703
13977.505
15129.031
15154.445
16590.424
16065.491
17596.588
16591.926
18432.454
16056.168
15210.672
1849.9587
-111.1511
816.88869
-41.865877
-38.741558
15.055798
-194.43521
-35.03837
-298.07746
27.311379
-264.26
-98.186004
-417.00258
-197.05689
-534.89119
-368.80325
-144.47551
108.80837
627.7552
786.44653
1225.5365
1264.2698
2048.4523
2716.6798
3409.522
4301.5782
5764.0295
6802.1166
8472.6044
10058.667
11553.835
13205.255
14683.975
16192.355
17552.773
18863.448
19931.586
21115.744
22079.037
22552.584
22629.786
22332.211
22060.269
20425.497
19954.618
16248.403
13182.718
1446.3101
173.55433
681.45456
391.20258
232.00859
298.63769
-116.42286
-411.94295
-500.84463
-1226.0931
-1245.1655
-1204.8748
-1693.0085
-1151.7697
-1654.8303
-775.02448
-1018.0507
-198.21586
-85.168575
627.66808
1486.9585
2916.9675
4047.7824
4903.5165
5836.1946
7069.662
7836.4726
8728.462
9712.6304
10517.649
11379.594
12275.308
12894.216
13759.568
14253.672
14845.231
15404.621
15591.093
16274.388
16153.488
16772.229
15896.622
16285.801
14673.179
15338.233
12200.218
11001.502
3432.855
1512.6552
2571.2165
1641.1071
1814.2502
1544.9059
1260.1634
1134.5746
1192.8986
831.08
1617.877
1046.1958
1385.1989
1245.6638
1379.3738
1413.102
1528.1225
1710.5258
1938.6005
2176.9581
2606.6051
2782.2255
3181.356
2855.5348
2697.5721
2086.7723
1577.7128
1175.1386
691.22177
123.01936
-457.31763
-983.33141
-1681.8156
-2100.7565
-2772.2084
-3024.674
-3382.2062
-3209.9873
2040.7869
9761.7152
9228.6632
9668.0838
9575.9786
9499.386
9534.2048
7749.2327
10598.665
7222.7291
5259.2132
6347.2471
6466.8499
6763.8728
6956.934
7118.9116
6901.092
7427.5483
6966.5786
7463.9618
7060.248
7593.4622
7648.2224
7622.3128
7952.9074
7825.726
7990.7783
7907.8982
7727.4054
7776.153
7224.9776
6081.8263
5964.8039
5226.0402
4574.5509
4023.949
2992.5487
1798.7955
734.72684
-425.70179
-1699.5808
-2777.0487
-3659.9217
-4817.8141
-5058.9125
-5678.4152
-5996.8427
-5558.8421
-3293.0321
-3687.5002
-3341.9356
-2336.8964
-1294.4829
223.92243
2399.3337
10974.727
10487.65
7551.3269
9290.9185
9133.1074
9561.4058
9605.4307
9825.3322
9373.833
10275.038
9223.5252
10372.377
8957.0393
9582.0173
8669.2342
8907.2211
8410.4914
8345.5662
8023.5541
7646.3687
7270.9076
6575.483
5829.8973
4893.8715
3715.9833
2508.4802
1673.3902
877.21461
32.014923
-664.5357
-1065.2392
-1621.6653
-1998.2845
-2403.3745
-2531.6171
-2876.1896
-2422.154
-2528.1221
-1164.3766
-966.35506
-4643.326
-3626.2575
-875.10286
1880.1863
4949.7605
8133.4297
12254.726
17678.657
3738.0557
3848.9789
3125.9957
3061.9277
3429.8757
3734.2953
5222.6336
1504.9409
1519.4427
1076.6789
1194.1422
1320.7618
1680.0712
2309.8554
298.21236
-95.064812
-387.03214
-271.77855
-295.04513
-81.150499
368.63152
305.65835
-59.156152
-132.62662
-173.00995
-87.009659
262.06748
712.00696
711.19643
194.65538
11.643095
-73.056187
-43.848737
257.29438
732.2532
2509.5062
1149.1121
952.12173
535.45768
592.78249
885.28837
1890.7478
4955.0215
4618.7119
3349.4089
3171.9501
3048.8029
3348.6468
4921.3688
19726.694
18624.053
19515.716
20907.953
20331.921
20486.942
18910.172
17724.767
18700.94
14980.699
13582.862
16959.173
15761.966
18291.847
13857.948
13761.78
15844.388
14588.696
13692.579
13157.926
16074.569
16861.534
18167.117
15950.96
16283.403
16310.679
17356.246
15101.521
15833.377
15764.502
17214.504
16378.042
16111.812
15453.693
16974.024
16365.555
15169.046
14369.174
14787.93
14124.601
14430.006
13872.438
15062.728
14612.312
15818.319
15091.887
15523.151
15456.768
16197.099
14559.226
13763.879
13316.025
13037.102
12029.191
12209.341
12027.98
13846.055
12672.221
13108.012
12700.271
13493.197
13228.856
14586.244
12230.366
11565.122
10813.235
12058.807
10403.59
10319.024
10537.446
12243.191
11025.282
11772.245
9862.7603
10878.873
10117.243
12080.426
10307.02
10503.428
9196.7448
10276.015
9735.0441
7903.9126
11035.416
10307.514
8673.4936
9435.0141
8192.727
8498.4808
8537.8802
9900.686
8690.3679
8053.0801
8793.0593
7502.8666
8869.037
6904.6593
10150.4
8494.4324
7894.3661
7574.5905
7157.9876
7178.9461
6440.8595
8596.6599
8054.9272
6549.2076
7602.4929
6241.5524
7423.5145
5991.1853
8752.9624
7136.2607
6760.2119
7038.8854
5897.4708
6866.7828
5450.4473
7910.2652
7469.8243
6202.4989
7122.0252
5829.3765
6895.5729
5425.5482
7839.4042
7305.0338
6301.1071
7346.4823
5692.3365
7013.9802
5504.0562
8064.4221
7748.8605
6713.6094
7603.6692
6277.2435
7497.3482
5895.3627
8252.5663
8498.6917
7243.0081
8403.3422
6785.3871
8001.7746
6440.5182
8967.1693
9380.307
8268.983
9184.2779
7643.4453
9007.2674
7298.9816
9840.817
10857.557
9530.2911
10387.191
9076.3956
10266.413
8728.7939
11240.768
12488.645
11361.748
11931.578
10728.916
11802.08
10050.056
12457.766
14465.206
13775.991
13114.245
13266.877
13419.435
12399.476
14740.05
17013.539
15924.293
15409.325
15262.322
14702.575
14799.211
17210.898
19171.972
18416.905
18128.609
17927.04
18976.925
17773.485
19942.775
22329.391
20625.408
21622.03
20285.768
21008.074
19027.899
22426.479
23819.369
24005.669
22976.565
23771.81
23443.419
23216.112
24954.364
27464.848
25655.512
26799.069
26295.906
26731.293
25769.409
27752.269
29326.796
29455.177
29115.807
29622.605
29378.501
28986.127
30502.291
32803.862
31768.112
32199.298
32501.851
32475.358
32150.171
33540.215
34947.938
34716.38
34849.369
35517.35
35282.977
35189.677
36544.101
37728.529
37292.911
37546.039
38167.287
37755.767
37856.95
39184.942
39690.164
39515.276
39505.738
40424.69
40150.804
40563.19
41240.603
41911.513
41398.573
41519.906
42300.235
41534.997
42633.031
43499.868
42354.632
42052.825
42459.916
43157.616
43404.15
39974.915
41904.649
40197.333
39566.889
40035.614
40731.958
40143.623
44835.524
44584.291
42964.497
42495.604
43115.387
43151.789
43122.405
43327.844
44652.842
42408.489
41846.281
41583.803
42471.22
41809.134
42367.026
43581.682
40422.523
39616.962
39966.587
40167.221
39947.525
40363.962
41106.128
37781.709
36995.061
36916.796
37485.677
37047.558
37531.916
38167.506
34010.719
33418.784
33811.666
33947.562
33682.684
34125.802
34497.969
29541.761
29398.994
29278.503
29581.105
29258.833
29857.504
29852.127
24783.594
24593.157
24688.331
24839.307
24792.037
25164.456
24962.507
19149.616
19376.218
19188.622
19539.423
19296.148
19672.436
19225.436
13971.292
14140.184
14205.192
14234.252
14429.292
14491.925
14746.568
9328.7583
10753.59
10775.251
10974.58
10960.848
10964.573
10990.488
-46.611149
2388.3521
2079.0627
2219.6183
2050.7233
2955.5502
1472.6976
6963.9411
7000.4116
7367.0634
7419.569
7456.9846
6632.9135
6424.2165
10408.947
10847.77
10730.786
11029.53
10548.588
11288.032
9980.6342
17648.879
21254.897
19628.643
19351.154
19926.51
19445.299
18508.452
21651.311
21101.489
20398.091
20767.951
19469.961
20779.812
19102.011
17991.113
18766.99
18954.999
18880.215
19957.942
19214.144
19158.512
14121.016
13403.273
13144.052
13115.172
13644.396
14466.979
14242.96
13225.736
12090.098
12792.474
13360.991
13250.893
13323.609
14462.012
15130.768
15920.844
15593.142
15393.357
16871.501
16160.821
17128.443
14222.667
14690.715
14851.453
15668.658
15256.701
14855.319
15674.321
15909.517
15912.431
16671.01
16570.581
17155.907
16690.967
16843.176
14065.515
14597.676
14601.979
14792.473
14974.516
14093.242
15070.569
15737.171
15455.985
15889.759
16029.272
16254.03
16406.711
16525.674
13966.905
14207.404
14216.15
14221.31
14214.819
14002.199
14738.637
14744.557
14494.229
14884.475
14641.911
15278.399
14190.154
15365.913
14254.415
13797.025
14069.479
13994.472
14037.2
13749.377
14478.115
13772.705
13745.521
14057.501
13731.219
14079.86
13383.943
14047.151
13738.11
13467.526
13355.3
13790.124
13710.039
13548.283
14142.401
13538.855
12968.577
13521.064
12846.838
13499.441
12421.048
13529.089
13226.666
12930.259
12956.443
12908.003
13176.11
13217.092
13731.809
12928.667
12378.584
12744.719
12942.866
13338.798
11744.971
13087.366
12476.835
11846.712
12459.35
11347.469
12552.269
11796.562
12478.306
12022.058
11883.012
11920.958
11909.187
12304.769
11222.81
12307.708
11722.488
10951.497
11639.263
10938.547
11547.877
10680.171
11485.107
10796.886
10595.145
10912.778
10293.38
11212.962
10042.487
10989.572
10272.326
9726.3404
10132.038
9691.2691
10330.334
9242.1506
10161.785
9170.8336
8691.6453
9335.2645
8586.7807
9501.0961
8423.3539
9398.168
8224.6149
7793.1715
8202.5578
7621.986
8485.1027
7295.4186
8474.4847
7054.7186
6352.3536
6985.3849
6344.0139
7221.6702
6196.172
7676.3997
5956.5849
5267.3341
5782.045
5120.3943
6040.1041
5131.2497
6774.8862
4722.7041
3904.2032
4356.4727
3810.7228
4714.336
3793.0653
5845.1752
3726.9322
2412.8744
3202.3466
2455.8042
3404.8638
2594.1145
4909.8434
2156.7811
1022.2672
1495.0218
913.8923
1828.3991
1033.6208
3578.3628
670.67383
-715.88199
-140.6021
-612.21165
341.95536
-448.48109
2313.5117
-1249.5355
-2648.0329
-1732.9441
-2584.3523
-1556.0718
-2338.8734
513.66428
-3237.2224
-4257.4189
-3919.9709
-4426.2089
-3370.3356
-4090.8007
-1124.7882
-5077.7825
-6344.7924
-5725.5987
-6217.5657
-5257.9975
-5952.8856
-2883.9489
-7033.9474
-8062.4105
-7591.538
-8040.8142
-7171.5929
-7746.0853
-4578.229
-8782.196
-9792.2821
-9397.3563
-9821.534
-9021.7366
-9416.6201
-6120.2438
-10341.758
-11296.818
-10963.379
-11185.381
-10507.473
-10744.128
-7421.7222
-11583.244
-12649.149
-12290.955
-12474.538
-12150.66
-11976.446
-8854.2088
-12612.914
-13546.992
-13158.605
-13633.232
-12926.681
-15977.168
-12436.801
-16290.541
-17128.199
-17181.948
-17011.849
-16529.643
-13843.083
-8057.7904
-13533.453
-14379.019
-14370.88
-14298.388
-13829.089
-13772.602
-10522.351
-13347.003
-14014.908
-14043.716
-13931.733
-13787.213
-13809.202
-9759.5455
-12788.158
-13786.163
-13810.055
-13491.025
-13488.826
-13073.959
-9583.8158
-11642.932
-12366.011
-12211.314
-12066.067
-12061.977
-11992.615
-8857.0267
-10815.24
-11476.851
-11492.268
-11362.916
-11351.283
-10893.741
-7673.0787
-8061.9947
-8418.4663
-8572.337
-8194.8192
-8318.1895
-8065.2926
-5923.6133
-6791.3702
-7389.6655
-7261.0552
-7168.3674
-7348.1517
-6957.3642
-4294.838
-2685.8267
-2683.3551
-2783.1624
-2649.535
-2764.3534
-2114.4924
-556.88756
-714.7802
-920.2346
-892.5134
-946.07796
-745.95254
-668.68067
365.22269
7420.8122
7594.3228
7411.7751
7570.0774
7589.6689
7704.6782
7901.0559
17768.037
11799.375
10724.374
10639.266
11124.125
11290.578
10034.537
10518.372
9214.3496
9015.0768
8562.0391
6876.3342
6792.3014
5345.3538
4562.3825
4724.5474
3819.3718
3832.6627
3419.4996
3586.491
3465.4317
3715.1989
3777.9316
3943.9806
4042.0658
4434.3133
5191.3994
6114.7577
7440.2592
9017.9905
10911.885
12876.281
14860.844
16643.143
18832.086
19461.635
23322.504
22369.901
23001.389
23364.34
23702.207
23673.344
23362.087
22590.719
21654.971
19069.357
22321.215
8306.3853
8068.361
5212.2193
5598.2273
6938.8794
4749.9053
6330.2633
5348.9997
5445.3031
5355.4191
4583.6171
4706.1823
4361.6816
4057.4606
4333.4884
4035.1758
4165.594
4101.3424
4465.4321
4693.118
5094.1723
5540.0384
6031.141
6698.6485
7467.0901
7727.2027
8915.0448
10761.842
11905.364
13018.141
13984.032
14858.046
15492.37
16277.155
16495.185
17065.084
16720.634
16755.522
16901.007
16150.575
15733.351
14647.016
13867.823
12005.306
11766.064
7735.5631
14771.111
2832.1264
2322.3745
1364.5683
1918.5701
1147.5024
1255.1656
1122.4047
972.01984
1276.2906
954.61659
1041.1148
1750.5294
2011.6865
2816.4322
3371.694
3298.8221
3948.4983
4128.9465
4197.475
4613.7981
4549.0621
4717.0605
4670.7126
4449.4453
4431.8098
3927.9011
4094.3994
3177.3248
3059.9396
2525.2083
2136.6259
1597.0257
1334.703
883.87727
549.15906
445.22876
228.53955
381.35142
513.98298
845.80576
1228.5752
2116.7015
2540.071
3964.8891
4884.6246
5999.4996
10869.645
919.38835
1337.8191
-585.22675
1448.6936
-708.04769
1383.9616
-1426.5809
1460.763
-732.26474
661.892
694.27976
377.50241
1058.2145
3949.9664
3710.1847
4220.5466
4692.8803
4542.4581
5105.4794
5039.273
5193.3774
5039.8889
4839.018
4791.5582
4427.9538
4380.9683
3743.4496
3327.3615
2659.3062
1956.5556
1218.7014
509.11838
-134.82562
-977.46695
-1393.2246
-1932.0815
-2348.9224
-2642.6361
-2463.7458
-2586.3205
-1812.2931
-1592.6073
13.108148
502.65683
3603.0413
3287.1722
8962.4716
2137.6829
718.34939
1215.1463
1132.9862
1412.4955
1413.5902
1574.9818
3153.5516
1443.4607
4134.3605
2018.4101
4113.3563
3565.1683
4225.4943
4363.4613
4836.2126
4789.8066
5139.0726
4981.2806
5074.9284
4802.7397
4509.9853
4318.3363
3556.6043
2739.9479
1364.4712
165.81743
-939.3711
-2104.7686
-3381.525
-4608.0855
-5812.6274
-7023.1635
-7926.4823
-8558.9171
-9326.5043
-9376.3937
-9108.9141
-8927.0143
-7392.6004
-6464.7441
-3876.8291
-2027.4564
1446.2717
4445.0576
8119.6218
9843.6857
3855.6294
5023.2914
2278.5606
5878.7834
3162.1089
4996.5877
5538.462
3792.4449
6175.7308
5250.0113
5864.2954
6667.7574
5074.1992
6535.9292
5877.5928
6046.3337
6224.9299
5898.6384
6149.6868
5784.1205
5785.8398
5487.2823
5418.7609
4949.0341
4642.2733
4061.2807
4718.6965
4426.6553
4449.1543
4265.0332
4462.5864
4192.8598
4303.4863
4632.2066
4735.923
5096.9323
5857.4904
6001.5707
7557.9946
7795.2485
9180.7992
9959.7669
11438.554
12154.663
14364.433
14095.489
15307.515
11926.821
5950.3768
9735.7026
6126.5215
9809.3712
8076.2951
9257.9744
8506.8085
9546.0987
8649.6301
9033.1278
9871.6912
8281.6922
9637.3216
8267.3731
9386.294
8727.1622
8955.0249
8503.7935
8075.3431
7327.617
6438.1827
5352.6284
3888.3548
2618.1607
1938.3958
296.19854
-353.26559
-1513.8616
-2039.7309
-3090.1527
-3996.0526
-4567.9503
-5061.2497
-5347.3062
-3731.193
-4578.7296
-2994.0411
-2020.0734
837.49462
3201.3018
6231.2573
9129.0446
12340.738
15174.001
17819.113
20846.606
10878.04
9659.4885
9481.382
9450.177
9766.2196
9745.8184
10757.988
9529.1976
10201.397
9482.0526
9702.6958
9654.1023
10144.701
10920.502
9260.7284
10047.739
10529.821
10437.535
10754.433
10899.452
11544.563
9693.0971
10045.341
10318.756
10731.595
10650.095
10838.781
10718.139
9170.6972
9639.5774
10694.591
10212.693
10859.744
10543.352
10648.993
9335.0742
9813.83
9782.417
10684.505
10468.397
10507.203
10969.969
8795.0229
8616.418
9774.7698
9244.4758
9528.344
9715.4312
9631.4831
8492.3866
8986.036
9125.035
9431.1347
9878.7407
9408.3041
10002.698
8089.0768
8147.416
8502.6937
9005.9774
8633.5914
9077.5117
8955.7667
7653.1336
7691.4251
8272.1005
7910.2227
8425.7402
8226.4386
8456.6262
6970.4826
7455.7098
7609.5774
7989.5395
8173.6182
8121.941
8366.1411
6873.4023
6590.1204
7397.8382
6841.0343
7225.7113
6999.2703
7210.7806
6215.7378
6459.5337
6560.5384
6752.4558
7080.5631
6902.1584
6992.6072
5936.9275
5704.1605
6634.4886
6040.3999
6670.6059
5662.8913
6401.2379
5353.5139
5735.7634
5349.154
5684.5614
5500.199
5945.5502
5614.3047
5360.1715
5175.6793
5544.5435
5665.3627
5716.9218
5159.7745
5152.6717
4658.6612
4658.1346
4886.6291
4942.6761
4913.5451
4666.4301
4832.5308
4455.707
4539.6969
4780.3871
4789.856
4875.1713
4730.6938
4566.9495
4334.0571
4250.9458
4378.1142
4432.7681
4581.5522
4126.8317
4095.6275
4022.5995
4084.4052
4234.8926
4379.5788
4315.4547
4065.7045
4089.1988
4136.664
4009.483
4232.943
4150.9628
4216.4903
3879.3616
3840.2894
4024.768
3871.5401
4168.3246
4131.4085
4182.5597
3900.2315
3907.278
4254.0449
3999.3959
4418.2998
4193.5544
4272.3704
3779.2876
3947.1209
4276.6301
3885.5029
4474.2885
4265.7548
4345.8085
3960.8901
4171.9935
4660.3294
4060.3467
4683.1113
4487.5688
4512.5075
3900.6307
4287.5755
4745.3899
4076.6353
4966.0947
4479.1323
4652.7111
4053.8567
4669.8803
5200.6203
4417.2172
5322.1854
4913.8171
4982.2357
4598.0119
5087.9425
5903.6497
5040.9159
5589.3004
5536.9789
5520.599
4856.9938
5728.4709
6570.1492
5361.0752
6843.1313
6200.6203
6195.5535
5705.7166
6675.2681
7553.7677
6875.1791
7473.2827
7002.3507
7276.9769
6614.0269
7705.5069
8779.7464
7668.239
8633.0719
8427.6328
8381.0765
7683.9308
8992.8071
9860.4178
9118.574
9958.0284
9517.9998
9434.3036
8953.9853
10364.465
11238.626
10559.767
11200.344
10994.577
10957.649
10445.343
12027.066
12611.632
11989.565
12599.223
12462.623
12270.975
11983.505
13243.001
13941.9
13507.872
13961.955
13833.566
13715.882
12950.892
15008.466
15240.499
14780.702
15134.438
15184.123
14791.775
15033.235
15991.82
16101.786
15797.401
15943.987
16043.016
16133.292
15133.406
20157.748
17142.533
18346.431
18751.397
19069.65
18423.784
18991.894
18306.942
17990.301
18176.486
18036.342
18480.171
17910.078
17730.9
19903.11
18811.25
18550.773
18139.019
18990.892
18162.352
18716.995
20140.2
19202.799
19076.6
18761.174
19540.469
18780.151
19094.315
20663.597
19667.423
19424.549
18999.69
19774.289
18982.514
19670.209
20913.207
19848.267
19818.505
19364.891
20271.263
19590.821
20151.447
20932.724
19501.158
19124.949
19002.873
19619.001
18922.851
19574.114
20651.203
20115.243
20108.416
19858.199
20447.037
19976.95
21014.044
20954.611
18786.773
18426.58
18471.986
18869.027
18665.92
18928.818
18766.818
20229.201
20165.692
20114.293
20318.672
20199.148
20378.603
20570.037
4567.879
3892.8277
3514.3429
3582.6718
3441.1516
3779.9473
4165.5335
4396.1376
5204.4335
4878.5711
5330.6073
5519.2029
5952.2173
6328.9958
4273.9699
4452.6137
4665.2755
4627.2095
5122.8775
4777.3743
5756.0956
3985.2035
4772.4524
5095.1458
5549.9602
5311.0285
5767.7085
4913.442
4444.5205
4539.9699
5420.4509
5032.3194
5951.8752
5208.4729
5851.7122
4028.637
4472.4324
4141.0157
4695.0395
4233.8949
4605.9705
4682.4168
4160.6392
4198.7274
5094.6856
4883.2604
5295.4559
5311.0835
4887.9702
3909.6856
4411.7918
3946.7998
4458.0004
4366.1341
4201.2679
4507.8864
3874.473
3747.9265
4249.5468
4360.3257
4013.0622
4441.1194
4170.4859
3596.8139
3944.1512
4051.4822
4099.5506
4386.7352
4167.1646
4353.5782
3600.2649
3688.112
3770.0101
4056.357
3629.0875
3779.4244
3625.7141
3335.8441
3652.4551
3506.9376
3728.8711
3759.9417
3706.9428
3797.3407
3268.5733
3347.2212
3612.3721
3985.1922
3600.8131
3676.3169
3272.1968
3070.0598
2999.6821
3413.8253
3051.4876
3163.835
3015.6241
3218.8473
3136.3077
3122.5221
3372.4511
3287.686
3737.5184
3246.932
3193.7429
3172.1938
2551.6562
3314.1334
2922.8824
3262.5545
2719.0096
2822.7643
2868.9284
2996.8214
3291.127
2980.9361
3379.3072
2995.8897
3230.8512
3250.1245
2904.3488
3259.6382
3069.5992
3364.7418
2971.2739
2993.0826
3099.9559
2955.9892
3366.3016
3059.7098
3502.1591
2999.5922
3203.1597
3447.8318
3254.9184
3499.4737
3410.0133
3582.0625
3205.2009
3461.3669
3490.2588
3383.7759
3731.7722
3473.8234
3809.7797
3626.699
3707.8626
3891.792
4070.0442
4082.9831
3967.8695
4325.9243
3871.2291
4146.7189
4274.7319
4306.6499
4368.6099
4399.4762
4421.2567
4511.3736
4700.0541
4987.6454
5045.03
5100.3978
4807.3857
5115.9546
5353.7287
5464.2707
5605.2486
5715.2501
5665.3562
5352.1702
5789.9513
5881.8476
5864.5311
6705.1057
6667.1244
6567.0622
6533.6216
6307.7518
6790.3339
7432.2168
7632.9742
7725.6099
7372.6909
6954.858
7915.3078
8158.8421
8232.9689
9310.5388
7811.3606
8556.9614
8421.4684
8536.5707
9279.1667
9196.2678
9912.7385
9989.518
9861.9417
9218.2593
9648.4466
10711.317
10226.529
11454.34
10947.29
10617.247
10544.211
10988.615
11948.582
11488.034
12696.826
11914.691
11945.769
11847.028
12001.489
13230.489
12819.038
13962.395
13303.892
13205.934
13063.545
13312.607
14794.094
14251.981
15444.624
14337.071
14288.253
14238.134
14572.421
16090.057
15338.001
16683.441
15407.801
15478.99
15495.205
15647.042
16992.887
16701.102
17899.483
16360.062
16486.523
16496.782
16564.099
18628.194
18061.949
18957.391
17133.232
17341.135
17414.779
17737.122
19047.421
18758.932
20080.621
18109.07
18190.014
18469.806
17923.406
20349.188
19541.135
20640.711
18097.602
18518.872
18737.232
18800.006
20685.713
20160.359
21381.302
18854.056
19435.717
19365.961
19254.802
20823.353
20627.636
21290.509
18148.225
19320.307
18842.084
19290.84
20776.455
20641.722
21505.958
18855.759
19875.878
19486.816
19664.492
20654.29
20402.794
20431.01
17581.656
18760.584
18108.049
18485.723
19470.937
19753.535
20284.833
18099.19
18979.038
18673.812
18987.995
19562.347
19348.576
18296.565
16114.675
16949.556
16507.789
16555.883
16895.396
17322.238
18303.158
16921.888
17358.717
17145.39
17374.769
17914.092
17631.197
14610.306
12995.659
13440.94
13096.447
13342.069
12983.471
12683.47
14878.545
14693.189
14213.073
14242.915
14353.511
14502.63
14992.247
1794.5685
1686.9206
1389.7392
1386.446
1293.8324
1459.3993
1507.2182
685.11432
968.30525
803.9969
939.56246
1077.5847
1053.3553
1538.3785
1359.1898
1157.1085
1189.9185
1226.8858
1193.9699
1263.0137
1700.3992
611.42513
1029.9846
1654.7494
2010.6402
1959.3737
2179.046
1668.846
1410.505
1299.2828
1532.4286
962.13237
1245.8532
536.20357
1447.7614
933.7869
334.91813
762.26433
1136.8809
1081.7195
1443.3097
1111.9422
977.88842
657.72747
1562.349
1303.8475
1788.6136
1062.6311
1393.198
1028.0126
458.1052
532.19567
479.03077
328.23572
646.90643
612.23739
575.55758
271.13098
934.74656
1104.6965
1572.9464
1250.7663
1052.0525
1236.0252
676.07415
728.51405
782.5168
500.39397
596.94222
499.62007
723.40158
181.56161
594.31124
548.64701
912.27611
741.67116
695.38713
1163.6175
632.44462
754.55474
971.91806
1036.5493
939.08661
801.24712
1123.5788
256.77207
781.68182
697.06058
902.80634
574.62799
1103.2651
982.62197
1068.8901
1455.8724
1046.4568
1535.3717
1204.2036
1371.3553
1499.7846
1148.1597
1315.2586
1506.2111
1200.4229
1220.9627
1492.168
1542.0537
1549.1955
1800.6076
1717.9521
1740.581
1372.7395
1996.9016
2112.7306
1663.3971
1936.1591
2079.9246
1693.3903
1700.8421
2049.9619
2339.0267
1786.3883
2392.0467
2125.0935
2129.4988
2017.4069
2536.7226
2828.2815
2227.4553
2605.7347
2556.7798
2318.0987
2226.2222
2679.0114
3199.828
2346.8401
2973.6556
2775.4888
2632.0687
2717.8818
3257.2891
3877.8921
2927.1672
3435.2114
3193.2401
3126.9355
2953.7224
3556.0387
4512.4753
3116.0479
3730.8188
3599.2205
3343.8603
3408.9672
4153.3946
5226.1484
3671.4493
4481.6666
3790.4446
4098.5418
3843.0213
4732.9632
5960.3397
4138.6832
4802.9158
4428.8243
4820.1782
4153.6534
5022.0307
6809.1912
4547.2117
5476.2268
5182.7886
5419.635
4563.964
6137.7841
7556.84
5061.8751
6227.4166
5344.0798
5940.3247
5206.0139
5970.1223
8845.9753
5740.7039
6724.4607
6007.1592
7020.4413
5473.6155
7313.8425
9428.5583
6375.1107
7256.3676
6942.332
7427.8725
5971.0551
7775.7958
10533.031
7415.1465
8408.3128
7258.6189
8492.964
6576.5835
8630.5329
11513.419
7818.3766
8582.4822
7980.2613
9102.0298
6929.9824
9276.7047
12311.667
8680.1145
9676.2236
8996.6044
9936.5364
7821.0893
10135.912
13284.998
9479.1011
10320.682
9412.9317
10537.896
8360.8696
10528.977
14073.34
10215.782
10957.509
10282.898
11292.005
8864.6058
11268.887
14811.702
10917.57
11720.05
10897.796
11781.18
9824.8624
11877.901
15473.526
11642.776
12307.556
11398.958
12503.226
10183.394
12032.1
16066.543
12265.348
12927.068
12046.531
12848.37
10989.068
12582.251
16399.264
12672.75
13313.323
12337.547
13525.223
11284.083
12927.018
16618.905
13036.599
13821.955
12786.445
13693.148
11856.081
12829.779
16331.294
13609.187
13830.949
13159.251
13752.424
12193.615
13146.164
16363.401
13905.133
13791.266
13567.842
13908.373
12930.302
13087.125
15758.627
14095.5
13585.134
13667.342
13675.654
12716.356
12751.535
15582.462
13859.238
13399.051
13651.489
13387.247
13359.478
12837.067
14742.828
13843.697
13214.811
13620.049
13339.876
13317.221
12045.211
13902.572
12936.257
12406.661
12972.669
12267.398
12739.869
11774.574
13382.423
12904.637
12438.189
12997.586
12311.632
13640.066
11550.842
11285.545
10858.409
10778.92
11185.716
10727.938
11322.968
9408.1514
10614.396
10538.565
10283.267
10586.12
10341.222
10985.736
10747.342
921.89886
872.16904
584.51877
605.33244
483.86727
535.00109
249.47483
317.28098
664.74069
766.91687
1054.654
1026.6348
1158.119
1229.168
355.0618
-154.46039
-326.8754
-342.91689
-335.98243
-311.0666
-489.82796
578.93706
1038.3012
1512.0814
1607.967
1805.5302
1728.58
1426.0399
399.37904
-72.705532
-407.83128
-907.46432
-918.82587
-955.79166
-587.7907
933.20246
764.24092
1068.9901
1414.7107
1574.5539
1460.1264
1395.0384
621.1091
176.34118
-427.33671
-245.45688
-657.56696
-651.81744
-342.84995
1010.3333
665.41307
795.32989
904.08357
913.93034
1353.4516
1179.8922
1128.7661
649.78188
549.55655
136.62031
631.14701
-72.293698
547.29969
1067.4438
729.19431
426.65487
587.62838
483.30762
1011.3069
1253.324
1467.8075
405.40816
1521.4799
594.02241
1480.9885
1014.5507
978.76834
1529.1994
1142.6375
1282.8088
270.23411
1255.355
852.31288
1992.215
1984.8814
725.53732
1195.5421
1092.8931
1913.2688
1360.6675
1279.7077
2098.228
1120.7397
930.42547
756.44397
1429.5595
1169.9254
1688.2172
1314.2686
1182.0858
2234.3343
938.55393
2260.4232
1421.9875
1807.377
1812.2984
1556.7883
2313.2197
1538.3945
2022.1872
1687.073
2204.9911
2083.1965
1733.4187
2655.1752
1729.4068
2517.977
2289.2062
2804.5411
2543.8234
2394.0196
3124.158
2227.0167
2814.3318
2432.9031
3063.5998
2739.2945
2551.0197
3369.5832
2387.8612
3233.9893
3021.0785
3581.7617
3294.7623
3171.3867
3822.2504
2925.6367
3689.7545
3165.4938
3864.555
3573.2394
3265.8365
4077.8899
3252.8161
3810.132
3743.8335
4297.4647
4030.5486
3810.538
4540.2693
3477.327
4302.8465
4083.5063
4559.8148
4474.6739
4126.7091
4353.0243
4215.3111
4466.2732
4512.6199
4696.0158
4966.6551
4203.8735
4865.0134
4587.1803
4467.2887
4794.6508
5271.9135
5378.0103
4406.4956
5303.3338
4409.0142
4368.4694
5290.1647
4888.0841
6080.2102
4817.0701
5299.9056
4853.1532
4785.687
5475.9461
5603.8047
6045.9575
4783.3545
5512.8884
5315.6249
4637.9294
5938.311
5256.6074
6477.715
4940.8531
5943.7687
5274.6377
5051.1779
6191.1762
5467.7854
6792.3211
5064.095
5738.3751
5649.3966
4610.3498
6335.6199
5423.9775
6755.8976
4988.142
5825.69
5689.9028
4989.6617
6816.499
5451.0308
6916.4001
5133.855
5948.7667
5857.6283
4884.9546
6749.7447
5330.0975
6989.3409
5136.9117
5846.7707
5845.1864
4812.876
6972.3488
5224.2009
6987.1476
5001.9402
5881.4258
5907.6625
4993.3786
7226.6824
5253.8521
7025.16
5072.7095
5899.1227
5965.685
4982.5284
7146.3518
4939.0237
6960.8226
5023.9571
5837.0688
5974.535
5028.5385
7283.5737
4973.6517
6923.0876
5000.4472
5739.9374
5977.1349
5265.5157
7164.7005
4908.1594
6948.4055
5089.3813
5772.1529
6228.9662
5061.2374
7319.4166
4705.0372
6689.4052
5074.5181
5849.0937
6003.9792
5387.3882
7138.2674
4867.9459
6466.408
5377.6985
5947.0933
6258.2293
5656.8359
7341.0891
4934.9117
6112.876
4881.8235
6051.5295
5977.0832
5661.8586