/*--------------------------------*- C++ -*----------------------------------*\
  =========                 |
  \\      /  F ield         | OpenFOAM: The Open Source CFD Toolbox
   \\    /   O peration     | Website:  https://openfoam.org
    \\  /    A nd           | Version:  6
     \\/     M anipulation  |
\*---------------------------------------------------------------------------*/
FoamFile
{
    version     2.0;
    format      ascii;
    class       pointScalarField;
    location    "1.79";
    object      E;
}
// * * * * * * * * * * * * * * * * * * * * * * * * * * * * * * * * * * * * * //

dimensions      [1 -1 -2 0 0 0 0];

internalField   nonuniform List<scalar> 
625
(
3426.0906
-5128.7012
19159.875
17312.674
5490.376
2758.016
18905.432
19102.406
160.03943
-1146.0691
-981.46552
19866.424
14365.756
18295.816
5473.7033
3091.3088
2471.2518
4442.1118
357.57395
3728.3617
1657.6175
1520.6944
2850.9277
1357.038
1720.9623
1881.3671
2761.1546
2691.5797
4312.4252
5015.3439
6522.4095
8112.1572
10511.123
11732.609
15215.418
15082.698
18426.167
7289.6523
-3752.0509
12648.364
8623.3668
5136.7687
15140.471
5868.6663
11151.391
11493.627
9067.2871
12488.188
11501.026
12664.19
12865.613
14022.923
14473.498
15576.443
16378.225
17821.501
17894.119
20512.179
19325.207
21473.997
817.67812
1071.5651
-448.98244
11985.769
27033.591
-2569.4552
14485.261
22213.122
7614.0127
13987.213
15436.37
12136.107
17405.189
12229.952
16819.318
15203.637
16405.047
17557.171
17044.452
18524.244
18269.805
18849.122
18717.773
18678.571
18508.773
19619.946
17641.72
11871.273
20738.709
20338.259
15965.669
15896.818
13606.176
12071.012
10270.824
8656.8554
7205.5343
6020.0761
5093.9137
3425.0016
3955.4987
2003.3844
3208.2192
742.48237
93.938986
1578.4297
1426.4785
491.36741
-4791.709
6056.978
-1527.7566
7083.4328
2001.3745
1755.9721
379.50888
-3680.9872
-2840.2897
-2689.3248
16604.419
18027.072
17169.551
18324.684
19262.428
18854.562
5832.926
1737.3623
2148.4278
1585.2553
-282.31884
1504.8334
-100.86401
854.23438
406.1291
575.2866
2028.8003
2044.6307
3027.961
3705.2228
4875.8318
5691.9218
7396.991
8396.4333
10330.198
11781.795
14130.514
14553.322
20345.514
1163.6598
-329.14398
1194.9923
-885.50834
965.52794
1170.2577
-362.48591
1951.8367
710.02166
2704.7895
2042.1597
3005.9893
3677.1728
4655.9145
5437.4821
6660.7711
7631.8187
8628.0067
10454.034
10714.704
13290.89
13323.547
21000.369
666.73211
-3855.256
-3147.5098
-4599.814
-3074.8477
-7184.4953
-3537.384
-5215.1199
-5166.7696
-3365.9964
-4399.9392
-2056.2004
-2006.0245
-488.71938
197.58699
1987.7511
3065.8452
5391.4646
6679.9713
10323.782
11831.54
15984.665
20439.23
-394.82639
-68.379415
-891.09985
-868.66229
-786.9286
533.32354
-722.0766
-1405.0386
-762.71046
7804.4495
11983.767
11698.271
13032.803
9998.1834
14803.13
5697.6696
680.0003
9766.1654
11345.494
13691.223
7485.4294
15708.463
8674.6131
18974.24
11387.462
15291.091
13305.729
15200.056
11326.402
14940.886
13988.838
9809.5866
16595.736
12704.713
14619.777
13369.887
16276.792
12218.311
17576.12
13429.705
14125.206
14698.086
16610.993
13651.978
16510.288
15069.5
14714.722
17149.212
17189.746
15171.61
16880.978
17054.644
15849.902
18364.389
17772.58
16627.617
18269.915
18448.067
17291.51
18792.773
18588.779
17782.514
19174.166
19136.334
18709.609
19401.686
19038.861
18987.128
19173.095
19199.067
19270.19
19114.161
18389.926
19319.33
18935.531
19330.509
19480.053
19075.925
20123.418
20858.87
20122.617
13450.373
14309.819
11745.34
20133.627
20398.717
19376.325
4389.8465
6939.9813
2911.2304
768.68689
-325.92432
13.849062
6959.6511
3514.0802
6955.0339
1781.4975
663.46063
-566.85799
5996.2106
2918.7464
4277.034
5014.3214
-279.09588
4170.2494
4392.6079
2753.112
4026.9436
5139.0543
1280.1969
4165.3695
4583.7362
3119.74
3261.6062
5861.5567
1162.8027
6548.4005
4756.7554
3231.4364
4413.3568
6583.4256
2714.6958
6124.5899
5815.1324
4008.0675
6138.7702
7204.904
4313.8617
7014.6425
7845.3273
5655.027
8229.1414
8654.8719
6594.6095
9087.1617
10117.38
8147.4559
10426.115
11101.049
9521.7414
11732.091
12988.395
11723.205
13211.099
13585.278
13084.363
14185.453
16286.642
16040.931
16215.897
16094.207
15435.511
15782.392
19269.132
19052.343
19451.821
2899.552
158.43517
-3332.9989
630.62802
-4293.7496
-1721.8731
-1717.3048
-1952.5421
-1730.4528
57.290932
-327.8009
1389.8764
1785.5955
2823.7425
3952.6261
5173.5403
6412.6325
8130.252
9753.17
11870.355
14840.65
15984.051
22498.92
897.14902
4225.4185
-1600.4624
4813.9379
1091.2002
6126.4961
3381.9151
5557.64
5893.4349
6173.0783
6282.7482
8099.5571
7311.1733
9238.1874
9832.4387
10800.858
12197.426
13227.102
14544.448
15365.627
17203.669
15252.131
24472.705
3206.2071
-3381.6717
843.41216
-8265.9518
-1870.7598
-2742.2866
-7977.7014
-357.35827
-7592.2792
-1387.4295
-4500.9583
-2272.3653
-2218.2821
-1131.0457
-75.849293
1417.1422
3096.1407
5087.9916
7709.1886
10677.369
13712.741
17497.752
20977.032
2950.0739
3010.5316
2245.069
1651.812
1379.75
702.5073
1102.9174
-1562.1395
-781.23679
848.53085
1022.3454
585.39099
2059.1276
-1823.5701
222.76889
1344.5126
886.70298
85.882776
1542.2402
-1072.0419
499.9343
2118.1076
1084.0415
1197.862
2645.9549
-804.0478
349.80837
3072.6936
1688.1914
2612.0487
3932.9667
1653.8468
1613.785
3895.6353
2141.1497
3709.7383
5150.8283
3320.2542
3876.8043
5779.8876
3970.5395
5066.6275
6627.5386
4928.7558
5753.8325
7644.2915
6156.7335
7034.6244
8733.1534
7282.5209
7936.087
9775.6147
8829.5776
9182.101
11303.135
10211.362
10668.058
11574.651
12625.871
11634.747
13165.955
15815.431
13710.818
15730.492
14672.623
13899.026
20277.989
20573.51
20752.696
220.05406
506.27982
790.12032
1961.6398
3420.4966
3746.4575
1116.3419
-1645.8454
122.94351
1689.5192
3962.7564
4255.5947
3840.173
1061.763
1003.5689
2391.665
2689.5336
3744.1156
3230.6012
2267.8858
2491.8713
4745.1377
3251.3173
2769.6466
3364.4392
2695.1425
3353.8201
5147.9307
4126.7988
3603.6931
5437.2896
3482.0385
4199.3831
6163.3033
4623.208
5022.2682
7060.5398
5461.8789
5571.1837
7530.7434
5965.5303
6034.6799
8707.5306
7233.2403
7349.934
9343.2558
7894.0722
7817.1341
10450.962
9242.7111
9076.8349
11257.062
10035.091
9871.4865
12659.813
11752.776
11334.142
13652.553
12097.598
11901.051
16771.057
12188.268
14940.339
14627.208
13919.594
13351.694
21615.682
22028.632
22253.36
3761.4476
4216.9194
4114.2782
-4103.3738
-5876.8962
-3850.396
-1900.7515
2010.1221
3508.6872
-932.34112
-6241.8195
-3818.4668
-3668.7754
-2774.2356
-329.63849
-1782.5436
-5315.9
-1617.8799
-227.40075
-5061.2788
-1795.6351
-2997.1758
-4675.1682
273.375
419.53214
-5156.9683
-822.96223
-250.41361
-4070.8697
789.93038
71.690266
-4159.9926
971.61029
1342.8794
-2751.0839
1515.7511
1569.7999
-2811.6179
2473.4158
2892.6897
-1253.3796
3223.1556
3836.7978
-636.27091
4223.5135
5111.9038
1057.369
5553.5967
6620.5814
2508.8302
6930.9179
8270.6741
4796.4426
8638.9513
10211.445
6551.0559
10216.588
12274.449
10382.816
12922.746
14433.902
12153.52
13992.791
17295.534
17289.971
18773.843
20792.803
19671.47
20324.679
)
;

boundaryField
{
    free
    {
        type            zeroGradient;
    }
    fixed
    {
        type            zeroGradient;
    }
    freeTop
    {
        type            zeroGradient;
    }
}


// ************************************************************************* //
