/*--------------------------------*- C++ -*----------------------------------*\
  =========                 |
  \\      /  F ield         | OpenFOAM: The Open Source CFD Toolbox
   \\    /   O peration     | Website:  https://openfoam.org
    \\  /    A nd           | Version:  6
     \\/     M anipulation  |
\*---------------------------------------------------------------------------*/
FoamFile
{
    version     2.0;
    format      ascii;
    class       pointVectorField;
    location    "0.42";
    object      u;
}
// * * * * * * * * * * * * * * * * * * * * * * * * * * * * * * * * * * * * * //

dimensions      [0 1 0 0 0 0 0];

internalField   nonuniform List<vector> 
3969
(
(0 -1.8210614e-20 0)
(0 -9.9594192e-20 0)
(1.8951121 -0.12586017 0.0072153464)
(1.8148965 -0.51828899 0.0053510635)
(0 9.932865e-19 0)
(0 8.204524e-19 0)
(1.8163031 -0.52002265 0.0053059031)
(1.8965968 -0.12750043 0.0072815017)
(0 4.1492324e-20 0)
(0 2.4939651e-19 0)
(0 1.1169662e-19 0)
(-6.679389e-19 -6.0142855e-20 0)
(0 3.2912142e-19 0)
(0 -1.8974838e-19 0)
(0 -1.8119459e-19 0)
(1.8850912 -0.1749071 0.0069771073)
(1.8750583 -0.22393793 0.0067412634)
(1.8650333 -0.27297208 0.0065218442)
(1.8550042 -0.32200646 0.0062982674)
(1.8449825 -0.37104996 0.0060795239)
(1.8349592 -0.42011536 0.0058460306)
(1.8249339 -0.46919961 0.0056027379)
(0.0077753001 0.0143668 0.015263852)
(0.012956289 0.025431988 0.018354896)
(0.022411846 0.036976183 0.019933395)
(0.035590612 0.047929487 0.019999163)
(0.051579149 0.058456087 0.019682485)
(0.070984126 0.068063237 0.018919183)
(0.092731369 0.076810291 0.018270055)
(0.11740528 0.084539376 0.01734935)
(0.14410907 0.091209333 0.016657282)
(0.17316671 0.096800194 0.015725744)
(0.20406505 0.10145321 0.015054968)
(0.23683025 0.10505718 0.014248453)
(0.27117144 0.10770815 0.013561177)
(0.30702457 0.10951254 0.012920917)
(0.34425131 0.11039378 0.012315831)
(0.38263225 0.11051303 0.011818584)
(0.4221983 0.10988013 0.01138619)
(0.46278607 0.10852183 0.011027249)
(0.50437161 0.10649446 0.010727893)
(0.54685905 0.10380768 0.010465267)
(0.59022806 0.10049751 0.010234885)
(0.63441 0.096589447 0.010001414)
(0.67936684 0.092088281 0.0097593562)
(0.72504652 0.087034012 0.009492548)
(0.77136617 0.081409724 0.0092039665)
(0.8182813 0.075304957 0.0089020285)
(0.8656907 0.068684222 0.0085931404)
(0.91353584 0.061612983 0.0082913387)
(0.96173808 0.054116848 0.0080094753)
(1.0102085 0.046234926 0.0077628282)
(1.0589097 0.038013396 0.0075487621)
(1.1077815 0.029483201 0.0073721153)
(1.1567878 0.020688156 0.0072237492)
(1.2059037 0.011658583 0.0070972202)
(1.2551097 0.0024303844 0.0069831703)
(1.3043807 -0.0069759613 0.0068770717)
(1.3537119 -0.016515008 0.0067690125)
(1.4030702 -0.026196161 0.0066799928)
(1.4524507 -0.03595963 0.0065914782)
(1.5018101 -0.045818538 0.0065421355)
(1.5511555 -0.055733749 0.0065091295)
(1.6004393 -0.065694215 0.0065306852)
(1.6496772 -0.075702255 0.0065809075)
(1.6988454 -0.085711703 0.0066751423)
(1.7479647 -0.095760122 0.0067989278)
(1.7970287 -0.10578176 0.0069330526)
(1.8460692 -0.11582885 0.0070857945)
(0.00089523182 -0.01487859 -0.019429748)
(0.0078424425 -0.023822496 -0.019489203)
(0.015115217 -0.035060679 -0.023143936)
(0.026381496 -0.045412365 -0.021735938)
(0.040921222 -0.056961962 -0.021515295)
(0.05780068 -0.068167338 -0.019973427)
(0.077363931 -0.079411863 -0.018912167)
(0.09899529 -0.090515523 -0.017506506)
(0.12288477 -0.10159201 -0.016319793)
(0.14881238 -0.11260363 -0.01506147)
(0.17641818 -0.1234477 -0.013981722)
(0.2059863 -0.13436584 -0.01290771)
(0.23697718 -0.14509692 -0.011920542)
(0.26961688 -0.15585632 -0.010953677)
(0.3035861 -0.16659548 -0.010085868)
(0.33893792 -0.17729763 -0.0092213873)
(0.37553251 -0.18807316 -0.0084300875)
(0.41322752 -0.19878872 -0.0076579287)
(0.45208797 -0.20966378 -0.0069187756)
(0.49191743 -0.22051161 -0.0062221877)
(0.53273568 -0.23150853 -0.0055344484)
(0.57450714 -0.24251465 -0.0048948758)
(0.61712698 -0.25363461 -0.0042425138)
(0.66062727 -0.26480253 -0.0036194463)
(0.70487178 -0.27595848 -0.0030105049)
(0.74987876 -0.28715531 -0.0023878977)
(0.79550418 -0.29830109 -0.0017694934)
(0.84179461 -0.30946942 -0.001147376)
(0.88859308 -0.32054745 -0.00054925375)
(0.9358395 -0.33156312 5.5069731e-05)
(0.98347641 -0.34252575 0.00062420601)
(1.0314162 -0.35339344 0.0011614391)
(1.0796286 -0.36419559 0.0016528133)
(1.1280495 -0.3749108 0.0020921755)
(1.1766586 -0.3855542 0.0024819754)
(1.22542 -0.39612313 0.0028239285)
(1.2743188 -0.4066129 0.0031277426)
(1.3233233 -0.41702752 0.0034015018)
(1.3724229 -0.42737938 0.0036601546)
(1.4215873 -0.43764836 0.0038992344)
(1.4707987 -0.44786889 0.0041402312)
(1.5200215 -0.45801348 0.0043616953)
(1.5692465 -0.46812469 0.0045844357)
(1.6184419 -0.47818183 0.0047776342)
(1.6676074 -0.48822582 0.0049615755)
(1.7167294 -0.49824236 0.0051096856)
(1.7658239 -0.5082596 0.0052395337)
(0 -1.083511e-20 0)
(0 1.2694664e-19 0)
(0 -1.5513182e-19 0)
(3.2846909e-19 -3.3435031e-20 0)
(0 -2.8391573e-19 0)
(0 -1.3234205e-19 0)
(0 -1.0821186e-19 0)
(0.0060295967 -0.0098246951 0.01495733)
(0.0093155127 -0.029153513 0.020327264)
(0.015561582 -0.03215044 0.020506714)
(0.027856474 -0.047891871 0.020828644)
(0.041842849 -0.057372964 0.020332133)
(0.058968415 -0.069071346 0.018678201)
(0.078510778 -0.080675642 0.018119236)
(0.10015764 -0.091400035 0.016490139)
(0.12406145 -0.10304845 0.015931606)
(0.14971537 -0.11344083 0.014520146)
(0.17741581 -0.12512859 0.014201907)
(0.20696404 -0.13524932 0.012870743)
(0.23808104 -0.14647882 0.012286144)
(0.27078354 -0.15715012 0.011447964)
(0.30478023 -0.16787375 0.010795026)
(0.34018257 -0.17880303 0.010229103)
(0.3767449 -0.1894688 0.0097060592)
(0.41447328 -0.20038785 0.0092959902)
(0.45327338 -0.21120692 0.0089347316)
(0.49310845 -0.22214207 0.008617244)
(0.53392763 -0.23310015 0.0083327884)
(0.57569179 -0.24413952 0.0080509683)
(0.61836998 -0.25522619 0.0077503499)
(0.66189513 -0.26635261 0.0074307191)
(0.70624915 -0.27758236 0.0070659445)
(0.7513771 -0.28876867 0.0066639911)
(0.79701511 -0.30003031 0.0063771016)
(0.84332149 -0.31115142 0.0060298049)
(0.89012001 -0.32226558 0.0057502963)
(0.93736454 -0.33328364 0.0054967017)
(0.98496864 -0.34420917 0.0052883377)
(1.0328841 -0.35505125 0.0051317834)
(1.0810598 -0.36579909 0.0050076004)
(1.129466 -0.37646645 0.0049086932)
(1.1780653 -0.38705756 0.0048204284)
(1.2268371 -0.39760728 0.0047409368)
(1.2757676 -0.40806784 0.0046514891)
(1.3247885 -0.41850267 0.0045806672)
(1.3739192 -0.4288763 0.0045039933)
(1.4231053 -0.43919603 0.0044622884)
(1.4723178 -0.44945534 0.0044464274)
(1.5215395 -0.45965781 0.0044741344)
(1.5707376 -0.46980189 0.0045469015)
(1.6199107 -0.47989457 0.0046587276)
(1.6690461 -0.48995145 0.0048042952)
(1.7181537 -0.4999753 0.0049686593)
(1.7672316 -0.5099985 0.0051378323)
(1.8263453 -0.47097065 0.0055567569)
(1.8363625 -0.42186663 0.0058086065)
(1.8464069 -0.37282933 0.006059596)
(1.8564197 -0.32373029 0.006307702)
(1.8664652 -0.27470283 0.0065486272)
(1.8765011 -0.22561684 0.006794069)
(1.8865592 -0.17657484 0.0070338381)
(1.8475283 -0.11746746 0.0071373846)
(1.7984425 -0.10742206 0.0069873002)
(1.7493322 -0.09738257 0.0068119104)
(1.7001827 -0.087319289 0.0066133374)
(1.65099 -0.07726747 0.0063976612)
(1.6017502 -0.067223359 0.0061636712)
(1.5524732 -0.057227094 0.005927423)
(1.5031628 -0.047286414 0.005685477)
(1.4538363 -0.037439204 0.0054422885)
(1.4045033 -0.027684715 0.0051913547)
(1.3551759 -0.01807402 0.0049228448)
(1.3058959 -0.0085850627 0.0046392919)
(1.2566184 0.00074299819 0.0043039666)
(1.2074176 0.0099073109 0.0039345265)
(1.1582878 0.018883459 0.0035036239)
(1.1092594 0.027640177 0.003026547)
(1.060363 0.036150201 0.0024963374)
(1.0116422 0.044367684 0.0019222851)
(0.96314396 0.052251743 0.0013190572)
(0.91493771 0.059745145 0.00069184864)
(0.86707806 0.066827369 4.5386194e-05)
(0.81965254 0.073419105 -0.00059723673)
(0.77271643 0.079544231 -0.0012601578)
(0.7263468 0.085119983 -0.0019214785)
(0.68062457 0.090175538 -0.0026019701)
(0.63559852 0.094666602 -0.0032885428)
(0.59133604 0.098603706 -0.0040060471)
(0.54789041 0.10194778 -0.0047312633)
(0.50532366 0.10469956 -0.0054906033)
(0.46367864 0.10680977 -0.0062645995)
(0.42303387 0.10826145 -0.0070725254)
(0.38344457 0.10901776 -0.0079001458)
(0.34499307 0.10901713 -0.0087368139)
(0.30790003 0.10800891 -0.00953829)
(0.27213765 0.10631348 -0.010543508)
(0.23768574 0.10371355 -0.011336474)
(0.2050593 0.10014254 -0.012417477)
(0.17403055 0.095519755 -0.013336712)
(0.14499827 0.090078289 -0.014522086)
(0.11826225 0.083170251 -0.015441401)
(0.093791523 0.075746303 -0.016558865)
(0.071463458 0.067022173 -0.017565602)
(0.052539412 0.057466957 -0.018478842)
(0.03602245 0.04705592 -0.018944942)
(0.023374831 0.036468223 -0.01875971)
(0.013544741 0.02409202 -0.017399291)
(0.012368294 0.014169512 -0.01141926)
(0 1.340559e-19 0)
(0 1.0499744e-19 0)
(0 -5.4409462e-20 0)
(0 -3.5751632e-19 1.7891832e-19)
(0 -3.1390247e-19 0)
(0 -6.9016164e-20 0)
(0 3.3003844e-19 0)
(0 4.6832144e-19 0)
(0 4.4642877e-19 0)
(0 4.2418342e-19 0)
(0 3.6634943e-19 -4.5004488e-20)
(0 9.8966661e-19 0)
(0 4.3385616e-19 0)
(0 -7.9938921e-20 0)
(1.8150747 -0.51849411 0.0053514095)
(1.815243 -0.51870446 0.0053374066)
(1.8154134 -0.51890253 0.0053204545)
(1.81559 -0.51910723 0.0053052443)
(1.8157666 -0.519313 0.0052984248)
(1.81595 -0.5195342 0.0052966459)
(1.8161313 -0.51976965 0.0053020951)
(1.895272 -0.12607101 0.0072106751)
(1.8954416 -0.12627293 0.007206445)
(1.8956324 -0.12646098 0.0072127669)
(1.8958368 -0.12664941 0.0072230912)
(1.8960447 -0.12684088 0.0072426398)
(1.8962473 -0.12704739 0.0072607699)
(1.8964288 -0.12726831 0.0072811989)
(0.0029965694 0.010364763 0.013745374)
(0.0085546867 0.018450119 0.013347656)
(0.017487748 0.02747111 0.014986824)
(0.030294353 0.0356195 0.015003208)
(0.046044085 0.043205636 0.01468447)
(0.065309254 0.050363138 0.014310114)
(0.086889605 0.056456627 0.013640381)
(0.1112845 0.061984452 0.013233821)
(0.13790663 0.06631866 0.012487299)
(0.16673643 0.070002994 0.012041604)
(0.19742179 0.072680056 0.011445295)
(0.2299236 0.074508009 0.010903596)
(0.26408499 0.07562267 0.010399485)
(0.29968825 0.07586819 0.0099197486)
(0.33666389 0.075390024 0.0095319602)
(0.37485571 0.074214377 0.0091647379)
(0.41419466 0.072382006 0.0088925732)
(0.45455986 0.069873685 0.0086667291)
(0.49592091 0.066784312 0.0084832385)
(0.53820208 0.06308384 0.0083356716)
(0.58135755 0.058823476 0.0082098183)
(0.62533494 0.054006231 0.0080783561)
(0.67010443 0.048664528 0.0079458358)
(0.71558212 0.042810775 0.0077901434)
(0.76175096 0.036483433 0.0076317715)
(0.80851574 0.029686174 0.0074337496)
(0.85579938 0.022478473 0.007251861)
(0.90354908 0.014882528 0.0070692354)
(0.95166402 0.0069236406 0.0069088842)
(1.000079 -0.0013436807 0.0067680986)
(1.0487395 -0.0098949078 0.0066571081)
(1.0975813 -0.018703329 0.0065699115)
(1.1465703 -0.027726232 0.0065042408)
(1.1956762 -0.036948859 0.0064506724)
(1.2448749 -0.046333938 0.0064022327)
(1.2941442 -0.055865406 0.0063567554)
(1.3434785 -0.065515309 0.0063088518)
(1.39284 -0.07527 0.0062683156)
(1.442233 -0.085091784 0.0062307709)
(1.491611 -0.094984187 0.0062217098)
(1.5409797 -0.1049088 0.0062264879)
(1.5902893 -0.11487604 0.0062739903)
(1.6395605 -0.12485494 0.0063444675)
(1.6887569 -0.13484968 0.0064526935)
(1.7379032 -0.14486115 0.0065750873)
(1.7869884 -0.15485686 0.0067113621)
(1.8360516 -0.16488541 0.0068506371)
(-0.001208695 0.0068703238 0.0092749296)
(0.0043266162 0.011356918 0.0088048695)
(0.013609847 0.018662134 0.010062805)
(0.026116944 0.023629006 0.0098529125)
(0.042145363 0.029077285 0.009839516)
(0.060829336 0.033595839 0.0093772429)
(0.082299087 0.037466969 0.0093082244)
(0.10653489 0.0405563 0.0086992286)
(0.13281922 0.042811086 0.0086126341)
(0.16134669 0.044433753 0.0081769919)
(0.19177717 0.045101689 0.0078996727)
(0.22402081 0.045247394 0.0075747687)
(0.25785682 0.044555677 0.0073222918)
(0.2932062 0.043215446 0.007099344)
(0.32990911 0.041244532 0.0068947717)
(0.36782806 0.038712624 0.0067089598)
(0.40688973 0.035595131 0.0065737364)
(0.44699538 0.031916074 0.0064826235)
(0.4881115 0.027714555 0.0064126963)
(0.53015961 0.022971412 0.0063817359)
(0.57308875 0.017731534 0.0063478857)
(0.6168698 0.012004796 0.0063183636)
(0.66140451 0.0058120982 0.006279329)
(0.70671814 -0.0008105872 0.0062320184)
(0.75268918 -0.0078758187 0.0061555573)
(0.79927899 -0.015305444 0.0060966098)
(0.8464202 -0.023104599 0.0060202912)
(0.89402651 -0.03124207 0.0059522577)
(0.94201842 -0.039650529 0.0058998841)
(0.99034298 -0.048335899 0.005859968)
(1.0389182 -0.057248101 0.0058374064)
(1.0876924 -0.066367088 0.0058365006)
(1.13663 -0.075664588 0.005840607)
(1.185689 -0.085116982 0.0058530198)
(1.2348522 -0.094701935 0.0058645392)
(1.2840911 -0.1044004 0.0058741286)
(1.3334032 -0.11418308 0.0058759277)
(1.3827457 -0.12404481 0.0058850979)
(1.4321352 -0.13394927 0.0058913675)
(1.4815065 -0.14390485 0.0059195568)
(1.5308824 -0.15387203 0.0059559677)
(1.580198 -0.1638664 0.0060288754)
(1.6294848 -0.17386083 0.0061136604)
(1.6786905 -0.18386864 0.0062273053)
(1.7278587 -0.19388024 0.006353352)
(1.7769488 -0.20388507 0.0064822072)
(1.8260318 -0.21392197 0.0066222899)
(-0.0042084535 0.0038081921 0.0055786906)
(0.0014303021 0.0065352325 0.0049830222)
(0.0099776351 0.010244944 0.0052567156)
(0.022942717 0.013183395 0.0051807858)
(0.038406838 0.015750229 0.0049194235)
(0.05742382 0.017890411 0.0049246997)
(0.078875797 0.019014476 0.0044373444)
(0.10280376 0.019862258 0.0045991202)
(0.1289498 0.019791271 0.0043753355)
(0.15730682 0.019199587 0.0042600755)
(0.18738893 0.01802964 0.0042087326)
(0.21930133 0.016194976 0.0041043345)
(0.25278059 0.013845834 0.0040529143)
(0.28776194 0.010902429 0.0039948688)
(0.32408975 0.0075226883 0.003992483)
(0.36168897 0.0035724156 0.0039424939)
(0.40042616 -0.0008372774 0.0039831947)
(0.44024614 -0.0057330047 0.0040090804)
(0.48107304 -0.011093859 0.0040925325)
(0.52281579 -0.01688678 0.0041769371)
(0.56546024 -0.023111649 0.0042802683)
(0.60892271 -0.029758688 0.0043776756)
(0.6532432 -0.036785325 0.0044689448)
(0.69828967 -0.04422514 0.0045300124)
(0.74404167 -0.051988666 0.0046089156)
(0.79043378 -0.060091932 0.0046454593)
(0.83740215 -0.068495192 0.0046846425)
(0.88483738 -0.077160695 0.004738351)
(0.93270292 -0.086061726 0.0047880977)
(0.98089655 -0.095180245 0.0048512103)
(1.0293593 -0.10446703 0.0049317534)
(1.0780441 -0.1139207 0.0050142486)
(1.1268968 -0.12350304 0.0051016919)
(1.1758894 -0.13320097 0.0051874217)
(1.2249917 -0.14299705 0.0052659334)
(1.2741873 -0.15286339 0.005332687)
(1.3234533 -0.16279709 0.0053933059)
(1.3727748 -0.17276914 0.0054487879)
(1.42213 -0.18277124 0.0055009922)
(1.4714856 -0.19279394 0.0055716982)
(1.5208409 -0.20281255 0.0056423882)
(1.5701523 -0.21285054 0.0057469084)
(1.6194316 -0.22286632 0.0058477043)
(1.6686407 -0.23289785 0.0059884334)
(1.7178109 -0.24291535 0.0061128011)
(1.7669094 -0.25293226 0.0062605419)
(1.8160074 -0.26296665 0.0063914737)
(-0.0050638341 0.00062239624 0.00067631934)
(0.00030848279 0.00080470949 -0.00071440118)
(0.0088017903 0.0020653505 -0.00049491007)
(0.021051714 0.0022258225 -0.00045346068)
(0.036839012 0.0020399068 -0.00027703738)
(0.055367817 0.001721884 -0.00035282901)
(0.076395867 0.00031037386 0.00017695236)
(0.099978628 -0.0010731289 0.00017944033)
(0.12575682 -0.003433698 0.0004447655)
(0.15359433 -0.005938495 0.00071180161)
(0.18330195 -0.0092475107 0.00083561202)
(0.21491149 -0.012841124 0.00098071087)
(0.24799887 -0.01696757 0.0010648881)
(0.28266685 -0.02154635 0.0012357033)
(0.31864093 -0.026459224 0.0013118349)
(0.35593373 -0.031842553 0.0014881982)
(0.39431719 -0.037541496 0.0016281886)
(0.43382749 -0.043681264 0.001822306)
(0.47429588 -0.050164171 0.0020195468)
(0.51575818 -0.057016186 0.0022163869)
(0.55812364 -0.064243698 0.0024123074)
(0.60141654 -0.071783256 0.0025963356)
(0.64544447 -0.079670832 0.002763368)
(0.69025752 -0.087851318 0.0029495605)
(0.73577728 -0.096319224 0.0030905319)
(0.78195738 -0.1050548 0.0032404744)
(0.82869965 -0.11401664 0.0034052415)
(0.87595301 -0.1232025 0.003565549)
(0.92363438 -0.13256358 0.003723716)
(0.97166546 -0.14208671 0.0039046194)
(1.0199937 -0.15173921 0.0040738281)
(1.0685522 -0.16150953 0.0042510272)
(1.1172995 -0.17136793 0.0044181312)
(1.1661997 -0.18130229 0.0045759893)
(1.215225 -0.19129491 0.0047169126)
(1.2643496 -0.20132817 0.0048431442)
(1.3135626 -0.21139323 0.0049556277)
(1.3628278 -0.22147108 0.0050576808)
(1.412139 -0.23156241 0.005160661)
(1.4614647 -0.241645 0.005257679)
(1.5108061 -0.25172493 0.0053661213)
(1.560103 -0.26179368 0.0054846666)
(1.6093804 -0.27184578 0.0056140095)
(1.6585884 -0.2818977 0.0057544577)
(1.7077674 -0.29193112 0.0058897437)
(1.7568757 -0.30196166 0.0060332347)
(1.8059808 -0.31199501 0.0061670181)
(-0.0059558359 -0.0025602415 -0.0036855276)
(-8.507761e-05 -0.0037004541 -0.0050752353)
(0.0074753035 -0.0055682098 -0.0051321187)
(0.020177262 -0.0080286042 -0.0052309281)
(0.035454447 -0.010759916 -0.0052315217)
(0.05388427 -0.013930681 -0.0046670481)
(0.074680265 -0.017658094 -0.0044739948)
(0.098152071 -0.021565226 -0.0041132146)
(0.1235173 -0.026109798 -0.0036653878)
(0.15116074 -0.03087576 -0.0033466081)
(0.18053273 -0.036157639 -0.0030546725)
(0.21167265 -0.041526383 -0.0026767834)
(0.24434923 -0.047509811 -0.0023073182)
(0.27859196 -0.053574873 -0.0019826487)
(0.31413303 -0.060112935 -0.0016260304)
(0.35096075 -0.066871085 -0.0012653227)
(0.38897586 -0.073959231 -0.00095203236)
(0.42806574 -0.081312229 -0.00060621131)
(0.46820785 -0.088953578 -0.0002793974)
(0.50930238 -0.096877609 4.5834238e-05)
(0.55135256 -0.10506482 0.00037871111)
(0.59419834 -0.11353324 0.00070477453)
(0.63790906 -0.1222286 0.0010190274)
(0.6824172 -0.13121378 0.0013087731)
(0.72768424 -0.14040021 0.0015873129)
(0.77359832 -0.14978084 0.0018723312)
(0.82013155 -0.15934972 0.0021445878)
(0.86718691 -0.16907139 0.0024085961)
(0.91468697 -0.17891384 0.0026812977)
(0.96256091 -0.1888626 0.0029467845)
(1.0107429 -0.19889429 0.0032115003)
(1.0591746 -0.20899645 0.0034696965)
(1.107807 -0.21914221 0.0037115325)
(1.1566082 -0.22932451 0.0039354235)
(1.2055403 -0.23952847 0.0041392294)
(1.2545936 -0.24973756 0.0043192959)
(1.3037338 -0.25994807 0.004480614)
(1.3529527 -0.27014952 0.0046311509)
(1.4022211 -0.28033163 0.00475903)
(1.4515312 -0.29049427 0.0049016145)
(1.5008323 -0.30063072 0.0050380126)
(1.5501167 -0.31074759 0.0051921443)
(1.5993733 -0.32083263 0.0053346809)
(1.648576 -0.3309128 0.0054996862)
(1.6977444 -0.34095884 0.0056397223)
(1.7468493 -0.35100559 0.0058030581)
(1.7959488 -0.36103717 0.0059335986)
(-0.0050493895 -0.0059426684 -0.0091199934)
(0.0014214236 -0.009871062 -0.010211125)
(0.0089338621 -0.014665016 -0.011259515)
(0.021303792 -0.019803232 -0.011223153)
(0.036331353 -0.025334774 -0.010697029)
(0.05425751 -0.031063738 -0.010088345)
(0.074792999 -0.037336609 -0.009455461)
(0.097649489 -0.043572787 -0.008641152)
(0.12265921 -0.050378443 -0.0079895176)
(0.14972404 -0.057114101 -0.0072476903)
(0.17862271 -0.06433279 -0.0066147841)
(0.20923476 -0.071604999 -0.0060003654)
(0.24146441 -0.079214043 -0.0054825968)
(0.27517746 -0.086952258 -0.0049108995)
(0.31023731 -0.094925109 -0.0044150972)
(0.34662095 -0.10305743 -0.0038993099)
(0.38416061 -0.11141576 -0.0034384884)
(0.42284794 -0.1199309 -0.0029399838)
(0.46255486 -0.128698 -0.0024882072)
(0.50326393 -0.13761227 -0.0020215305)
(0.54489567 -0.1467985 -0.0015838827)
(0.58748975 -0.15606388 -0.0011462451)
(0.63086386 -0.16560287 -0.00075760586)
(0.67506411 -0.17537823 -0.00033754253)
(0.72001694 -0.18523222 4.981602e-05)
(0.76563127 -0.19525091 0.00042035596)
(0.81190701 -0.20535023 0.00079800196)
(0.85871153 -0.21555365 0.0011927255)
(0.90598801 -0.22581902 0.0015692701)
(0.95366363 -0.23615188 0.0019529231)
(1.0016649 -0.2465149 0.0023207736)
(1.0499354 -0.25689596 0.0026769688)
(1.0984304 -0.26728632 0.0030039965)
(1.1471035 -0.27767368 0.0033073658)
(1.1959328 -0.28804053 0.0035748565)
(1.2448882 -0.29838943 0.0038136808)
(1.2939522 -0.30870843 0.0040267594)
(1.3430992 -0.3189875 0.004216532)
(1.3923171 -0.32924604 0.0044035573)
(1.4415655 -0.33944726 0.0045724984)
(1.4908379 -0.34962729 0.004750881)
(1.5400999 -0.35975792 0.0049173608)
(1.5893403 -0.36987371 0.0050946155)
(1.6385371 -0.37995242 0.0052612625)
(1.6876992 -0.39001312 0.0054211941)
(1.7368121 -0.40006052 0.0055744837)
(1.7859083 -0.41009077 0.0057054978)
(-0.0030239009 -0.010660392 -0.012901439)
(0.0033807257 -0.015628284 -0.014759531)
(0.010640959 -0.023613627 -0.016451672)
(0.023007128 -0.031249686 -0.016178155)
(0.037385051 -0.039345423 -0.015705431)
(0.05526495 -0.047932553 -0.014794642)
(0.075194895 -0.056571276 -0.013933999)
(0.097672313 -0.065353558 -0.01289529)
(0.12217182 -0.074366138 -0.012038388)
(0.14868399 -0.083190441 -0.011050739)
(0.17714467 -0.092531541 -0.010199012)
(0.2071576 -0.10147839 -0.009462225)
(0.23892655 -0.11091143 -0.0086091869)
(0.27205365 -0.12015477 -0.0079127867)
(0.306693 -0.12961581 -0.0071894638)
(0.3425442 -0.13909786 -0.0065309322)
(0.37966593 -0.14871376 -0.0058732428)
(0.4178776 -0.15843426 -0.0052571401)
(0.45716739 -0.16827121 -0.0046555082)
(0.49746376 -0.17824576 -0.0040797742)
(0.53872187 -0.18832294 -0.0035309984)
(0.58086089 -0.19856564 -0.0029768976)
(0.62393775 -0.20889515 -0.0024707289)
(0.66778555 -0.21937436 -0.0019535921)
(0.7124099 -0.22989999 -0.0014711816)
(0.757743 -0.24051444 -0.0009685824)
(0.80374065 -0.25117621 -0.00045546103)
(0.85030191 -0.26187461 3.8120264e-05)
(0.8973622 -0.27259168 0.00052645623)
(0.94483468 -0.283315 0.0010108301)
(0.99265526 -0.29401569 0.0014731685)
(1.0407672 -0.304701 0.001912751)
(1.0891115 -0.31534489 0.002318179)
(1.137657 -0.32594866 0.0026865545)
(1.1863656 -0.33649731 0.0030136364)
(1.2352203 -0.34699565 0.0033067181)
(1.2841926 -0.3574318 0.0035652031)
(1.3332726 -0.36781449 0.0038039669)
(1.3824233 -0.37813155 0.004018251)
(1.4316327 -0.38839724 0.0042311958)
(1.4808697 -0.39860702 0.0044324287)
(1.5301127 -0.40877703 0.0046346246)
(1.5793357 -0.41890515 0.0048252629)
(1.6285268 -0.42900297 0.0050108279)
(1.6776789 -0.4390759 0.0051759901)
(1.7267869 -0.44913235 0.0053337401)
(1.7758651 -0.45917039 0.005466978)
(0 -3.9536469e-20 0)
(0 2.2177792e-19 0)
(0 1.9164089e-19 0)
(0 1.6911973e-19 -5.7972052e-20)
(0 6.6811239e-20 0)
(0 -2.3465058e-21 0)
(0 3.2477431e-20 0)
(0 1.2126514e-20 0)
(0 -7.8793826e-20 0)
(0 -1.9425045e-19 0)
(0 -2.4131814e-19 -4.0069891e-20)
(0 -3.9561924e-20 0)
(0 4.8733116e-20 0)
(0 9.4131476e-20 0)
(0 7.7925085e-20 0)
(0 1.2274279e-19 0)
(0 2.241738e-19 0)
(0 2.2427241e-19 1.1296649e-19)
(0 1.9369301e-19 0)
(0 2.2553446e-19 0)
(0 7.6372569e-20 0)
(-1.3588834e-18 6.4016486e-20 0)
(5.8095941e-19 -1.4548442e-19 0)
(-3.3731317e-20 -5.8362767e-20 0)
(1.0458524e-19 -1.026858e-19 -7.7924781e-20)
(-1.9558352e-19 -1.4353044e-19 0)
(-5.0060045e-19 -2.0517068e-19 0)
(7.6505738e-20 -1.6940993e-19 0)
(0 1.2965849e-19 0)
(0 4.6411236e-20 0)
(0 -9.0003246e-20 0)
(0 8.7741618e-21 2.2961603e-19)
(0 9.8968232e-20 0)
(0 1.4414259e-19 0)
(0 -4.0047467e-20 0)
(0 -1.0482246e-19 0)
(0 -8.5697126e-20 0)
(0 2.0157497e-20 0)
(0 1.0057486e-19 -2.2917661e-20)
(0 7.4413934e-20 0)
(0 -2.6970445e-20 0)
(0 6.9634409e-20 0)
(0 1.2596698e-20 0)
(0 -7.4158714e-20 0)
(0 1.0857128e-19 0)
(0 6.9138699e-21 7.9472926e-20)
(0 1.075647e-19 0)
(0 1.7010726e-19 0)
(0 1.5405948e-19 0)
(0.00686622 -0.004627802 -0.010129879)
(0.008379835 -0.0059727785 -0.0069050003)
(0.010043182 -0.0063059601 -0.0036195444)
(0.010682234 -0.0066386838 -0.00091917823)
(0.010384834 -0.0061665039 0.00180485)
(0.0097909131 -0.0064486557 0.0047305296)
(0.008118826 -0.0042540883 0.00798232)
(0.013551279 -0.023373959 -0.016117273)
(0.016737351 -0.026018589 -0.0091041394)
(0.018135567 -0.024379393 -0.004310819)
(0.01842297 -0.023611482 -0.00038104867)
(0.018600827 -0.024971298 0.0035538688)
(0.016734582 -0.024580006 0.0081450975)
(0.014887787 -0.02441241 0.01429873)
(0.019916001 -0.032870958 -0.016821817)
(0.023870949 -0.031546692 -0.012052411)
(0.026472103 -0.032947067 -0.0056264163)
(0.026793115 -0.032824635 -0.00087134078)
(0.026548292 -0.032041149 0.0048046818)
(0.024518457 -0.032284994 0.0089314745)
(0.021752943 -0.033622497 0.016326876)
(0.032017456 -0.046798359 -0.016489278)
(0.035326369 -0.047726001 -0.011656713)
(0.037330371 -0.047228861 -0.0055319911)
(0.038144304 -0.047199295 -0.00084799222)
(0.037667227 -0.047297387 0.0044852129)
(0.035877945 -0.047975571 0.010365657)
(0.032322871 -0.046845249 0.015373153)
(0.045438874 -0.058308244 -0.016395651)
(0.049069438 -0.058251337 -0.011651776)
(0.051652394 -0.058891936 -0.0059396117)
(0.052205889 -0.058624413 -0.00062774722)
(0.051947232 -0.058836405 0.0047486754)
(0.049995898 -0.058675076 0.0096514181)
(0.04707475 -0.058989531 0.015693557)
(0.062456722 -0.0701327 -0.015126912)
(0.065405383 -0.070297713 -0.010702416)
(0.067486408 -0.07025166 -0.0053237663)
(0.06821965 -0.070663247 -0.00083656546)
(0.067697438 -0.070336538 0.0045962366)
(0.065997354 -0.070372713 0.0095864344)
(0.062879652 -0.069866878 0.014299162)
(0.081370759 -0.081038546 -0.01440102)
(0.084405087 -0.081612759 -0.0099449905)
(0.086523843 -0.082422819 -0.0051299158)
(0.087160209 -0.082415508 -0.00060961092)
(0.086892975 -0.082671882 0.00444435)
(0.085272953 -0.082872042 0.0088060833)
(0.082568056 -0.082330209 0.01387731)
(0.10288427 -0.09254387 -0.013229325)
(0.10562367 -0.093167505 -0.0093167934)
(0.10746106 -0.093328514 -0.0046308595)
(0.10812196 -0.093620421 -0.0004011573)
(0.10765954 -0.09337492 0.004009568)
(0.10621524 -0.093038756 0.0085250297)
(0.10352128 -0.092507665 0.012613788)
(0.12650038 -0.10343847 -0.012383499)
(0.12903073 -0.10400975 -0.0083533471)
(0.13078439 -0.10478269 -0.0042876673)
(0.1313526 -0.10490343 -0.00037500515)
(0.1310878 -0.10530117 0.0038618548)
(0.12974386 -0.10497548 0.0078876266)
(0.12737432 -0.104652 0.012207132)
(0.15201632 -0.11437577 -0.011337154)
(0.15442359 -0.11515952 -0.0078575999)
(0.15602657 -0.11546774 -0.0039351352)
(0.15671164 -0.11600684 -6.1306615e-06)
(0.15624836 -0.11573108 0.0038035159)
(0.15505056 -0.11539773 0.0075694041)
(0.15276239 -0.11482225 0.011254563)
(0.17960865 -0.12528214 -0.010487537)
(0.18176408 -0.12592516 -0.0070823194)
(0.18329966 -0.12660742 -0.0033330651)
(0.1837159 -0.12660605 -0.00012147022)
(0.18355064 -0.12682931 0.0036052836)
(0.18233019 -0.12662966 0.0069585683)
(0.18022364 -0.12629009 0.01085912)
(0.20879815 -0.13590617 -0.0097289566)
(0.21090574 -0.13670176 -0.006354772)
(0.21215354 -0.13721419 -0.0033168548)
(0.21283455 -0.13765684 0.00014107705)
(0.21247709 -0.13765414 0.0035209463)
(0.21126636 -0.13720532 0.0066442751)
(0.20963338 -0.13687588 0.0099867731)
(0.23975428 -0.14683432 -0.0088492026)
(0.24152431 -0.14737288 -0.0058721458)
(0.24289343 -0.148067 -0.0028225829)
(0.24335907 -0.14814738 0.00021685823)
(0.24309591 -0.14819193 0.0033332399)
(0.24210215 -0.14817884 0.0061908052)
(0.2404224 -0.14753238 0.0094028042)
(0.2720765 -0.15733996 -0.0081980297)
(0.27382371 -0.15804589 -0.0053298002)
(0.27513531 -0.15866473 -0.0026222676)
(0.27551574 -0.15887712 0.00027952311)
(0.27541348 -0.15915133 0.003200838)
(0.27438834 -0.15875408 0.0058305474)
(0.27300433 -0.15838607 0.0088719798)
(0.30593067 -0.16816037 -0.0074867356)
(0.3075989 -0.16877107 -0.0047969276)
(0.3087178 -0.16928149 -0.0023039081)
(0.30919858 -0.16956164 0.00048576867)
(0.30900611 -0.16955394 0.00303888)
(0.30816913 -0.16938096 0.00562252)
(0.30680975 -0.1689394 0.0083472624)
(0.34114252 -0.17874034 -0.0068097187)
(0.34262108 -0.17931376 -0.0043453739)
(0.34379032 -0.17996486 -0.0019751774)
(0.34416456 -0.18015668 0.00049167451)
(0.34407317 -0.18033862 0.0030343108)
(0.34326361 -0.18013865 0.0053202303)
(0.34204923 -0.1797555 0.0079434322)
(0.37751919 -0.18943201 -0.0061887573)
(0.37899386 -0.19007805 -0.0038241428)
(0.38002623 -0.19059238 -0.0017039225)
(0.3804123 -0.19080162 0.00073907661)
(0.38033234 -0.19094502 0.0029775617)
(0.37960674 -0.19072244 0.0051819582)
(0.37847706 -0.19040395 0.0076015185)
(0.41516197 -0.20015635 -0.005531676)
(0.41648497 -0.2007341 -0.0034146686)
(0.41750564 -0.20128637 -0.0013287066)
(0.41785204 -0.20153536 0.00085283899)
(0.41780327 -0.20166793 0.0029860381)
(0.4171221 -0.20150861 0.0050572271)
(0.41607817 -0.20118474 0.0073082044)
(0.45383715 -0.21092785 -0.0049649616)
(0.45510563 -0.21150264 -0.002915386)
(0.45606234 -0.21203678 -0.0010128196)
(0.45637488 -0.21223532 0.0010622463)
(0.45636214 -0.21238832 0.0030467387)
(0.4557224 -0.21221482 0.004989659)
(0.4547754 -0.21197851 0.0070777521)
(0.49357293 -0.22175566 -0.0043541756)
(0.4947718 -0.22232457 -0.0024785165)
(0.49566284 -0.22283389 -0.00068457893)
(0.49597317 -0.22309246 0.0012523534)
(0.49597341 -0.22321909 0.0030949007)
(0.49538067 -0.22311654 0.0049322657)
(0.4945092 -0.22283926 0.0068794856)
(0.53429928 -0.23268186 -0.0038112528)
(0.53541132 -0.23322377 -0.0020444155)
(0.53625903 -0.23374016 -0.00035798453)
(0.53655504 -0.23394752 0.0014456586)
(0.53657064 -0.23410366 0.0031723253)
(0.53602647 -0.23397299 0.0048943707)
(0.53522856 -0.23375098 0.0067080937)
(0.57594402 -0.2436558 -0.0032668189)
(0.57699927 -0.24420447 -0.0016185711)
(0.57780114 -0.24467626 -5.0768886e-05)
(0.57808085 -0.24493355 0.0016265669)
(0.5781156 -0.2450578 0.003237841)
(0.57760971 -0.24498549 0.0048440705)
(0.57688987 -0.24475933 0.0065375355)
(0.61848152 -0.25472534 -0.0027413853)
(0.61947575 -0.25523988 -0.0012093515)
(0.62021965 -0.25572142 0.00023334748)
(0.62050616 -0.25594505 0.0017951069)
(0.62054627 -0.25610184 0.0032861832)
(0.62010214 -0.25603283 0.0047754416)
(0.61945865 -0.25582582 0.0063483584)
(0.66186635 -0.26581347 -0.0022218727)
(0.66279469 -0.26635599 -0.00082413025)
(0.66350365 -0.26677547 0.00049960947)
(0.66377659 -0.26704643 0.0019558146)
(0.66383586 -0.26716851 0.0033130563)
(0.66344587 -0.26711812 0.0046930765)
(0.66286212 -0.26693008 0.0061422628)
(0.70600787 -0.27695537 -0.0017450255)
(0.70692145 -0.27747356 -0.00044046434)
(0.70754273 -0.27786594 0.00076088617)