/*--------------------------------*- C++ -*----------------------------------*\
  =========                 |
  \\      /  F ield         | OpenFOAM: The Open Source CFD Toolbox
   \\    /   O peration     | Website:  https://openfoam.org
    \\  /    A nd           | Version:  6
     \\/     M anipulation  |
\*---------------------------------------------------------------------------*/
FoamFile
{
    version     2.0;
    format      ascii;
    class       pointScalarField;
    location    "1.68";
    object      E;
}
// * * * * * * * * * * * * * * * * * * * * * * * * * * * * * * * * * * * * * //

dimensions      [1 -1 -2 0 0 0 0];

internalField   nonuniform List<scalar> 
28033
(
-144.35104
1527.7829
-37247.641
-56929.888
176.94292
4808.4674
-68286.428
-71687.789
-1758.419
-2753.0638
-2314.291
-1217.4936
-576.32862
83.791523
213.88677
148.48857
357.2353
567.62453
1682.4452
3123.4909
4295.8178
4159.0672
2146.9776
-18077.709
-12394.119
-9142.2512
-10399.728
-14021.638
-19766.69
-26853.602
-33048.002
-38522.741
-43047.336
-45544.638
-48493.745
-48340.603
-46471.199
-33872.281
1062.9159
503.1275
1019.8797
1275.697
1828.1338
2285.4567
2758.2105
2952.4125
3497.522
3826.282
4156.9331
4498.1883
4685.0499
5125.1773
5256.3594
5472.0545
5404.5165
5869.3634
5650.1637
5827.5916
5735.3005
5810.3819
5540.6462
5648.925
5280.2596
5302.01
4953.545
4843.4088
4535.2715
4310.7451
3945.77
3649.1008
3234.141
2945.7827
2253.6479
2165.0539
1762.0349
1050.6075
757.6971
303.59284
-287.26549
-688.11079
-1260.4266
-1709.4837
-2283.3862
-2728.7901
-3341.5518
-3759.7146
-4404.9639
-4840.8094
-5472.3442
-5962.6781
-6558.3115
-7113.1248
-7691.4226
-8274.5752
-8877.4878
-9474.0294
-10091.84
-10710.148
-11357.256
-11965.033
-12627.365
-13202.478
-13936.159
-14556.866
-15387.366
-15875.148
-16578.067
-16809.475
-17412.514
-17794.604
-18223.315
-18659.875
-18712.287
-19342.148
-18998.098
-19681.535
-19067.543
-19737.197
-18872.7
-19373.637
-18399.053
-18724.588
-17758.824
-17447.451
-16892.958
-16256.224
-15532.338
-14572.013
-15113.843
-12276.125
-13617.926
-11468.335
3764.3089
5553.7818
-761.96352
4516.4941
1310.4655
3423.9434
3999.6968
3759.6489
4201.6216
4705.1662
4356.6117
4794.6619
4405.0179
4735.9596
4159.1569
4137.9424
3660.7633
3436.1823
3109.5379
2626.7034
2260.186
1471.0454
1259.9296
314.36811
346.63811
-481.43558
-539.98455
-1383.6589
-1569.3816
-2231.4225
-2440.8673
-3136.7489
-3224.209
-3768.5867
-3858.2651
-4262.5427
-4144.1664
-4573.3909
-4438.1629
-4618.2222
-4437.6165
-4418.1799
-4190.529
-4003.647
-3642.0904
-3342.0463
-2832.4869
-2388.704
-1764.5403
-1155.8779
-428.37784
333.23781
1180.4947
2052.4333
3027.8614
3998.3723
5054.7446
6125.5823
7234.2732
8351.9508
9509.0991
10626.58
11783.488
12869.956
13989.11
15001.376
15994.84
16888.717
17861.482
18532.682
19274.349
19667.85
20182.877
20554.741
20653.62
20788.075
20663.802
20411.092
20108.12
19538.289
18937.872
18117.684
17195.111
16132.402
14936.854
13656.336
12188.372
10722.448
9104.6881
7364.5511
5672.1275
3888.9931
1969.14
-72.345856
-1197.4603
-9835.1941
-526.95765
-1442.3327
-1863.6628
-490.61081
-561.48069
-113.36736
67.956182
25.270266
126.52703
430.79966
895.50455
1731.8605
2047.1237
2416.8438
1913.0375
5933.8807
5726.769
-3552.4547
3353.6317
3165.6351
2090.8483
4285.6335
4496.9882
4691.7823
4286.3836
5784.251
3636.4946
5704.6855
2880.7419
5265.4221
3356.1563
4578.7876
2050.2415
3911.8384
1756.3451
2409.2279
1385.3931
919.42557
741.61964
-234.14046
-258.56631
-1154.1866
-1197.2518
-2043.4877
-1754.4194
-2468.2523
-2677.6174
-2986.6516
-3085.718
-3927.5243
-3722.6631
-3075.8746
-3386.1423
-3342.7314
-3224.1151
-2987.5267
-2747.692
-2411.7118
-2045.26
-1591.9263
-1107.2367
-555.80405
44.129387
687.74985
1380.9893
2102.5051
2872.5726
3663.6404
4465.0908
5306.1801
6133.5624
6968.2472
7806.6152
8606.6141
9412.5365
10161.04
10893.513
11563.791
12200.071
12749.564
13326.618
13640.139
13281.404
15807.115
14018.074
14782.6
14484.433
14417.795
14204.602
13867.779
13417.12
12877.549
12228.968
11405.107
10587.003
9536.4346
8535.0478
7281.0522
6103.5946
4629.4163
3273.6656
1644.3437
68.460595
-1644.8604
-3376.2811
-5158.7676
-7026.0325
-8864.4553
-10685.675
-8140.9326
-88395.747
-101819.79
-89531.376
-108219.98
-83241.414
-92086.559
-63790.12
-65974.546
-47712.665
-28447.725
-19275.542
-18206.326
-15655.865
-30221.627
-51087.213
3383.0287
-964.36834
818.60506
23.973561
-131.03464
-775.11591
-1230.6367
-1784.3462
-2462.2812
-2927.0222
-3641.5583
-4212.3038
-4779.9708
-5521.7261
-6104.1575
-6686.6743
-7238.473
-7796.4691
-8272.0304
-8808.6679
-9224.0067
-9709.5226
-10038.495
-10483.947
-10644.417
-11001.912
-9528.1735
-11691.252
-11342.632
-11913.033
-11735.34
-11815.589
-11796.202
-11723.368
-11620.195
-11467.514
-11278.605
-11051.197
-10782.787
-10486.297
-10149.691
-9788.7637
-9393.0819
-8977.6191
-8528.7815
-8071.9555
-7573.0297
-7087.3789
-6552.2198
-6034.0882
-5475.5294
-4924.5322
-4344.7385
-3801.9642
-3205.0886
-2616.2894
-2544.0927
-313.13104
-338.73957
-1269.782
1231.3008
1084.9447
1087.3749
1430.4775
2790.9119
2782.2571
3169.7602
3719.2141
3719.581
4576.0869
4437.697
5062.7724
5033.6685
5618.554
5353.8832
5694.3878
5726.1516
5682.2648
5870.2034
5252.0335
5699.436
5289.3987
5147.6947
4396.7554
5633.4185
3510.383
3909.3869
3125.0923
3528.6802
2042.4618
1852.4424
1457.7584
2467.7824
-269.90673
3000.0286
243.7583
313.68484
133.14354
146.40473
72.958257
220.33577
-18.087601
211.84571
133.09546
336.688
-10.589178
-12.030296
-94.680269
-183.11488
-837.24567
40.586102
-43.489645
-1055.0404
-651.15965
-672.39959
-1411.8512
-897.41786
-588.89743
-1238.4855
-576.80905
-611.05498
-816.32707
-608.55576
-466.1341
-587.89183
-59625.162
-59862.225
-59356.665
-59531.462
-59511.252
-59462.04
-59528.036
-59525.256
-59521.526
-59579.339
-59755.109
-59498.927
-59683.739
-59599.241
-59811.218
-44163.698
-44885.729
-44837.982
-44853.413
-44944.688
-44970.151
-44960.832
-45034.939
-45029.746
-45023.374
-45061.735
-45175.478
-44741.836
-46025.95
-45306.632
491.21653
-1268.7
-290.83284
126.87184
293.64434
834.96411
866.82314
1497.2763
1506.4223
2270.3695
2140.1561
2927.84
2783.1024
3590.5868
3269.1817
4023.1964
3926.3468
4282.9668
4237.7945
4539.6866
4504.6211
4581.9701
4638.0383
4500.8311
4474.5073
4324.3141
4182.0032
3915.1518
3664.488
3376.0135
2935.9117
2676.3581
2312.1977
1847.323
1405.2642
771.36862
367.70009
-307.39206
-790.98257
-1379.5862
-1903.4663
-2602.6648
-3131.5077
-3664.1718
-4305.7609
-4820.1741
-5418.6319
-5918.4561
-6467.2338
-6916.2126
-7402.7811
-7807.3061
-8207.9771
-8561.8527
-8875.5438
-9167.3808
-9398.3507
-9607.2984
-9772.6834
-9891.4997
-9977.4055
-10004.398
-10028.308
-9961.5444
-9991.1464
-9549.8705
-8773.4126
-8076.1514
-7603.9086
-7768.945
-7393.8544
-7202.8591
-6822.5728
-6550.9551
-6139.4761
-5894.4137
-5309.4557
-5212.2623
-4438.6545
-4337.4661
-3712.4612
-3265.3732
-2649.2507
-2483.7874
-1852.5989
-1336.3389
-959.63604
-254.25441
409.1501
118.66599
2157.9174
1943.6189
2160.1085
5938.1391
7622.9106
-272.46353
-2205.2072
-932.68432
-1172.8919
-476.31261
-452.8091
-22.514392
116.40103
452.59386
676.4814
1022.9112
1337.451
1631.9139
1961.2134
2257.3802
2764.4116
2718.5353
3321.5737
3406.4855
3827.4457
3839.872
4202.7105
4156.6349
4458.0595
4455.4524
4593.1441
4485.3442
4560.7634
4458.5109
4379.6119
4242.6146
4079.7663
3722.1469
3430.8166
3097.3396
2783.7871
2399.8418
2051.4926
1498.5557
1032.9659
445.44556
-47.415234
-626.10494
-1236.0929
-1824.2612
-2361.8424
-2980.0149
-3526.6902
-4088.6432
-4621.2695
-5151.1338
-5638.071
-6105.5978
-6548.9785
-6948.4286
-7316.8473
-7647.6112
-7942.6712
-8187.9584
-8394.1764
-8569.2765
-8682.7179
-8786.5414
-8775.3058
-8870.0855
-8502.2021
-6607.8805
-757.2982
986.19277
1819.1207
2618.3881
3135.8111
3774.806
4156.0511
4956.9531
5045.7183
6009.5997
5795.7934
6952.813
6350.909
7654.7063
7039.1044
7881.9997
4454.2428
1084.5253
797.20802
1822.3573
1960.2963
2117.06
3119.6271
3195.1775
2822.0862
4639.402
4043.3116
6566.0335
-151.12309
-1914.4319
-1114.9251
-1479.7396
-1067.8453
-1003.0278
-901.70746
-535.85416
-470.38844
-100.33304
-61.059604
427.7777
451.97581
965.61354
1054.6874
1455.4295
1699.0966
2081.2197
2212.9719
2577.2612
2796.4491
3113.1083
3354.0085
3588.2328
3715.1167
3900.1436
4036.1684
4120.8779
4147.843
4181.6424
4147.7008
4043.7315
3996.4027
3873.6236
3639.4663
3464.5204
3024.8521
2587.6939
2287.1709
1857.1013
1442.6742
1011.6301
417.90479
-9.6993536
-524.13306
-1052.0849
-1612.52
-2114.5264
-2651.4981
-3164.7584
-3633.0666
-4111.4053
-4517.1013
-4936.1404
-5259.7676
-5595.1822
-5847.2413
-6074.8729
-6237.3333
-6370.2787
-6436.4243
-6455.0125
-6434.1271
-6324.8581
-6326.5692
-5484.2985
-10278.704
-2324.5647
-547.09526
-70.316574
236.70068
350.49426
782.59086
1106.0984
1468.1529
1775.0436
2157.8301
2411.8602
2739.0987
2928.8982
3392.4065
3224.938
3950.5952
3888.1617
1028.8654
1157.7134
1540.5939
1650.5445
2762.2246
2666.9618
2899.8312
3696.0096
3182.4613
3943.5942
3872.1634
-211.47395
-1177.9226
-879.92006
-1151.1619
-966.84823
-1080.594
-860.98261
-828.04618
-765.54753
-658.31192
-450.85537
-324.45877
-225.63412
126.03872
101.05332
596.62441
506.72654
1011.8464
1016.3929
1504.5584
1498.7984
1926.4207
1909.9853
2261.2752
2325.8662
2616.6779
2648.1901
2872.2889
2925.4451
3064.7681
3041.1761
3127.5067
3082.5898
2995.7985
2903.6639
2799.909
2594.1159
2778.8658
2115.2491
1857.646
1564.8635
1288.0339
980.44542
649.05937
250.93107
-104.923
-462.53492
-807.99023
-1176.8061
-1498.4447
-1821.5242
-2128.9198
-2391.7752
-2650.8772
-2847.4341
-3043.3485
-3164.6661
-3275.5479
-3327.2654
-3345.7042
-3320.8285
-3245.3693
-3158.7616
-2990.7071
-2822.3605
-2540.9186
-1710.6374
-4939.9433
-4889.9702
-4493.9941
-3626.3044
-2996.8959
-3079.5732
-3029.1831
-2574.8524
-2337.7319
-1800.7194
-1668.1519
-965.16135
-922.83369
-163.52272
-190.1043
866.17831
418.6333
3820.2804
4255.4903
4747.6009
4998.3024
5170.2913
4741.8126
5552.96
4190.4818
4653.6288
3123.0317
1836.3139
48.327272
-846.71344
-440.94077
-939.96274
-697.28889
-905.4945
-775.64219
-833.13683
-765.73256
-639.18076
-686.50426
-540.3083
-490.90205
-334.90712
-297.43333
-64.301142
-34.462558
227.36466
238.96885
500.55849
548.92318
843.51943
900.71105
1230.0651
1265.945
1510.5219
1616.7223
1754.3909
1847.5758
1949.5948
2038.8639
2123.6029
2124.9957
2202.0023
2124.1946
2131.6913
2392.6681
2476.0867
1498.0764
816.40092
895.03005
720.32175
658.98442
610.75512
578.86835
542.39868
534.64887
501.96857
523.14653
554.38046
620.19523
694.17748
840.19422
967.57893
1176.2994
1376.8071
1645.1398
1915.1948
2232.3214
2569.0638
2933.6443
3312.3498
3695.7272
4153.3152
4527.044
4982.5134
5495.4715
5598.136
5951.3134
6400.4557
6814.8688
6685.7347
6897.6079
4141.4606
3576.6291
3867.0246
3928.0976
4362.9555
4393.6453
4681.4267
4802.8351
5015.2345
4985.3031
5141.7248
5346.1816
5130.3351
5563.8818
4960.3599
5029.097
4912.6901
4529.6959
3835.9037
3197.5579
1975.9269
-1620.8519
-31.279966
-317.54375
-108.12806
-368.49032
-368.8039
-435.00662
-527.09136
-567.30227
-588.16808
-648.32888
-671.55607
-564.94587
-724.9633
-485.24388
-678.8965
-393.86639
-588.63271
-216.45915
-395.29946
-6.6045643
-164.89631
187.95328
64.486127
371.54995
236.57431
586.55607
449.28424
756.28859
720.42793
933.99318
935.19041
1034.7284
1095.3952
1141.7974
1143.6145
1288.1193
871.97432
2982.481
2712.3629
2562.8743
2437.245
2411.4662
2233.7961
2189.4145
2011.228
1863.6377
1665.8321
1504.2994
1305.1047
1127.5444
931.78547
756.94938
578.31274
413.56613
267.38984
131.49514
19.6058
-79.972986
-137.11267
-195.44847
-224.16949
-195.92372
-211.11982
-137.92893
-83.459478
31.250251
101.56869
200.08852
415.71137
496.65677
830.04741
258.06074
67.128747
3608.8078
3845.5607
3713.3717
3980.6376
4075.0148
4309.0633
4272.879
4676.7259
4199.9983
4889.6546
4225.2393
4740.9392
4275.3062
4674.0829
4074.9509
4733.5656
3756.7215
3923.0586
2535.4877
2781.9204
535.08664
-3747.0425
154.74143
-306.27024
228.1868
-328.54317
-53.977573
-374.49989
-318.68877
-518.24852
-510.60845
-654.72733
-664.60725
-778.25291
-797.67698
-799.09775
-906.64064
-799.19231
-910.14438
-819.94941
-956.92517
-757.17587
-941.0664
-637.27814
-855.75797
-553.67143
-646.1708
-446.65398
-473.38746
-284.55742
-323.37176
-127.49143
-142.05383
54.316033
110.37664
191.94517
348.9023
351.10251
531.18602
260.72573
1020.2426
1007.4562
1019.9478
1092.4924
1110.3602
1148.0854
1159.165
1164.9725
1216.3781
1206.2647
1237.7036
1232.413
1269.1659
1268.2365
1315.421
1335.7012
1400.7522
1441.8914
1534.659
1611.6588
1728.9069
1830.092
2000.7655
2132.3767
2302.0391
2519.7686
2687.6592
2936.1412
3114.6314
3396.6708
3580.7433
3775.7116
4073.3276
4198.6449
4223.2293
6603.367
7610.0072
7663.1161
7600.2313
7750.2482
7607.8434
7732.0913
7418.5922
7411.8494
7292.4884
6652.7609
6998.6746
5825.0944
6168.9188
4918.9833
4878.8548
3385.656
3339.1538
2209.675
1943.7023
-50.614079
-4581.3863
164.88338
-81.445182
162.84704
-36.6174
-16.004354
-171.0267
-208.26172
-412.90061
-436.13369
-605.16698
-715.61277
-757.19631
-919.44662
-928.81677
-1086.3693
-1030.2305
-1216.9536
-1068.6203
-1230.0126
-1080.2538
-1332.9858
-1116.6592
-1358.5827
-955.04802
-1335.9008
-885.27639
-1149.5421
-803.41537
-932.4618
-648.8548
-701.93228
-461.11128
-490.13076
-257.47467
-210.6342
-56.501754
56.781473
237.11275
351.27542
562.80294
622.79733
821.18174
923.1433
1088.6835
1168.2355
1357.5313
1456.811
1629.162
1760.0582
1942.5749
2090.3798
2281.7097
2458.7379
2658.0953
2859.8155
3074.7822
3304.7908
3531.4601
3775.5982
4033.7411
4285.5392
4539.5824
4816.8176
5077.1351
5322.5138
5586.6547
5821.5698
6079.1563
6229.6792
6532.2128
6573.5146
6752.8041
6983.4367
6849.8827
6927.6689
6823.1069
6844.9049
6704.1195
6651.1113
6339.6465
6239.8556
5847.8214
5551.9773
5052.5564
4831.271
3843.0296
4019.5479
2562.1973
2915.2924
1596.9055
2140.8132
112.0355
549.31091
-1311.9986
-5000.8085
351.00753
-172.54548
315.05767
-219.74916
-84.31749
-439.64143
-390.22093
-788.18521
-788.06288
-1135.903
-1213.5708
-1458.6701
-1593.0111
-1737.3571
-1895.3655
-1975.5252
-2101.2862
-2163.8654
-2292.849
-2233.9511
-2311.1508
-1983.9275
-2065.6581
-2004.9055
-2068.4438
-1868.2241
-1998.6988
-1741.1728
-1827.5403
-1573.7247
-1576.1281
-1363.8532
-1255.3659
-1052.8815
-956.04285
-692.5842
-581.14181
-337.48099
-170.49815
33.099743
279.07859
475.4571
764.81003
972.99489
1287.8638
1525.488
1825.8978
2082.2537
2388.227
2657.4645
2968.997
3254.2262
3569.1586
3868.2159
4185.8746
4496.9838
4820.5678
5120.1686
5467.776
5756.1693
6079.7572
6390.5687
6688.9177
6973.7831
7250.054
7546.8152
7766.3117
7994.2075
8239.9214
8368.7773
8535.1705
8733.2014
8725.2112
8921.2127
8267.4886
7164.9433
7135.0323
6980.5729
6705.0648
6621.6436
6133.0155
6014.7674
5475.8222
5158.0508
4779.5899
3961.486
4038.7286
2442.0488
2878.8901
837.7332
495.99807
-1062.6692
-621.14384
-2407.9376
-4127.8476
692.27892
75.248741
489.80805
-61.628844
172.89689
-91.943568
-45.644423
-383.14912
-417.4073
-596.2915
-811.26952
-941.48893
-1104.9384
-1291.548
-1379.8875
-1551.3553
-1634.2919
-1736.0527
-1777.1424
-1903.5524
-2070.4193
-2182.0026
-2542.4039
-2383.0752
-2544.6643
-2305.9036
-2467.9444
-2127.3318
-2285.9117
-1922.8181
-2029.6214
-1691.8022
-1683.6319
-1451.2838
-1280.5655
-1092.1469
-904.5955
-653.73809
-500.50035
-188.12524
-7.1843695
282.70085
474.88233
770.73569
963.44873
1254.3266
1484.1811
1770.6651
2019.744
2310.0274
2573.2469
2854.6359
3133.8318
3412.9816
3688.9972
3974.381
4237.765
4518.4576
4787.3146
5024.897
5299.625
5526.6805
5737.9416
5962.1055
6163.0542
6321.3696
6445.8866
6634.9924
6646.7688
6764.9427
6799.0436
6741.9495
6814.4316
7168.5174
2196.9316
-4180.0545
-4476.561
-4869.0102
-5101.181
-5666.7726
-5795.7689
-6213.9567
-6542.7875
-6599.5988
-7124.1844
-7092.4408
-7269.6966
-7810.3408
-7017.5382
-8490.9459
-6650.1683
-7814.9316
-6657.2673
-7615.0975
-3949.7459
405.41967
276.51397
537.65069
-112.81141
300.30807
-275.61323
-118.40919
-561.6134
-464.66434
-845.93166
-953.9011
-1170.5881
-1282.6592
-1560.7672
-1470.5174
-1919.8168
-1561.9331
-2139.497
-1658.0191
-2229.8381
-1718.3226
-2213.0998
-2683.9722
-3071.143
-3010.4467
-3104.8862
-2967.4216
-2972.7477
-2888.5556
-2758.9716
-2713.7419
-2471.3987
-2435.8682
-2142.59
-2073.4325
-1819.3267
-1635.4544
-1430.1666
-1161.2743
-977.99818
-680.0458
-496.42164
-169.32573
57.413207
375.9284
636.20847
958.86839
1218.9106
1542.6732
1823.3495
2131.3386
2420.8243
2731.4677
3011.8752
3313.9923
3591.9149
3874.1511
4143.8246
4401.6059
4647.0275
4897.823
5089.2693
5306.0714
5501.6155
5626.0045
5788.2953
5922.8651
5982.3364
6071.3465
6139.2433
6087.1293
6167.5078
6058.2468
6109.4998
11067.084
1036.3598
1220.4061
1189.37
796.14237
735.17685
390.92585
191.14604
10.185574
-250.00543
-463.13294
-494.81663
-833.4417
-867.25916
-852.27753
-1467.7059
-1001.8941
-2875.9534
-2276.6857
-3303.7803
706.91632
1557.4621
513.0731
938.69556
623.4602
876.36749
575.72544
658.33624
339.32546
308.54987
38.140505
-170.02989
-435.19198
-526.65537
-984.47625
-1021.9645
-1374.7104
-1479.0579
-1813.6347
-1823.4819
-2182.248
-2108.9834
-2314.1618
-2227.8391
-2819.037
-2932.939
-3018.4237
-3050.7948
-2970.9375
-3018.8928
-2873.2268
-2885.0062
-2732.6524
-2683.2093
-2521.16
-2416.6835
-2187.9856
-2082.9123
-1816.5411
-1699.2172
-1415.5207
-1264.4375
-968.90811
-796.29495
-512.28993
-319.93597
-56.954014
167.20536
407.46456
647.21835
878.03047
1106.2995
1328.6223
1544.8389
1744.9674
1941.3531
2120.4553
2290.5938
2435.5781
2576.7469
2695.4315
2784.9127
2869.6929
2929.7671
2957.5944
2934.9319
2997.8724
2875.5776
2884.0574
2799.586
2642.8318
2568.6498
2360.8594
2195.666
2024.1285
1040.7903
4370.5037
5215.5066
4932.1917
4721.961
4337.2191
4023.0925
3678.2464
3189.0774
2859.3314
2232.3327
2033.9593
1040.2194
1083.4482
80.075797
-628.73742
-731.56112
-2464.8426
-1741.1837
-4120.1375
500.77814
1855.098
1510.1133
1821.6973
1413.5415
1594.5931
1284.3363
1479.4282
1035.711
1153.9373
778.69951
584.09996
378.77421
-15.355364
-296.59229
-512.02308
-988.603
-1097.2996
-1613.1011
-1664.358
-2258.8456
-2117.4854
-2888.2098
-2234.2654
-2764.3047
-2475.011
-3082.8535
-2808.8092
-3166.9473
-3061.5965
-3169.3421
-3178.87
-3137.4296
-3137.0244
-3066.9404
-3014.4098
-2945.4731
-2830.9538
-2765.5011
-2590.9491
-2529.8878
-2324.6052
-2235.3783
-2042.6467
-1908.849
-1723.7712
-1579.7565
-1383.5344
-1249.3337
-1060.7618
-920.99269
-754.94415
-619.26506
-468.63401
-349.36802
-224.11352
-114.42354
-21.343988
59.635698
137.87321
178.28276
222.33363
250.56514
239.26249
251.4432
187.93858
215.69245
41.183283
50.167154
-112.86254
-156.13872
-342.84144
-363.99361
-624.92648
-687.8806
-850.58899
-903.40332
-1280.7474
-1382.768
-1696.7425
-1778.5338
-1981.1565
-2154.6442
-2255.6176
-2424.584
-2453.4248
-2602.4751
-2656.3037
-2308.3312
-3022.8809
-1894.3478
-2580.5983
-2566.8677
-2680.561
-4554.9943
505.49598
2381.2692
1386.7524
2136.2748
1906.3668
2529.5093
2537.4026
2764.2481
2844.8474
2931.3091
2867.417
2769.1179
2569.2988
2502.3466
2149.0956
2071.6985
1590.4979
1503.9103
1005.0928
972.50352
444.47946
435.06723
-177.35099
-205.45331
-804.88277
-790.29012
-1218.7798
-1229.4037
-1563.3556
-1617.7709
-1826.5679
-1888.3521
-2016.9518
-2065.2562
-2110.9628
-2181.284
-2191.8227
-2232.6763
-2176.7052
-2224.6808
-2130.0939
-2139.4602
-2055.6995
-2039.9395
-1969.4927
-1938.3266
-1892.5524
-1848.9315
-1832.9231
-1799.09
-1799.3302
-1798.1488
-1825.6832
-1851.8121
-1921.7265
-1985.9627
-2087.0943
-2205.9378
-2342.2792
-2502.7086
-2685.3433
-2887.1976
-3101.9047
-3349.7967
-3588.9077
-3893.7677
-4077.0054
-4482.0275
-4598.52
-5004.4555
-5325.4536
-5522.5383
-5906.3238
-6104.2133
-6368.6223
-6624.4842
-6839.4887
-6980.1699
-7122.778
-7248.3104
-7264.9149
-7397.4773
-7306.4783
-7354.4864
-7188.8975
-7171.2766
-6921.7171
-6706.3321
-6528.2968
-6275.1893
-5406.5645
-6152.3263
-4485.1363
-4906.2806
-5344.7579
1382.9952
3400.3318
113.8141
2265.2345
975.56915
2314.8349
1620.4846
2419.3483
2423.9288
2619.5163
2721.3399
2534.6192
2654.5717
2521.5953
2267.9126
2404.4696
1678.4013
1985.0974
1129.3071
1534.6888
597.12195
1117.2122
-48.815817
429.56384
-781.00345
-355.29395
-1290.3956
-1046.7858
-1766.1363
-1702.0613
-2121.2137
-2243.7516
-2562.4774
-2699.2958
-2966.8332
-3204.487
-3404.8234
-3503.4328
-3746.0381
-3835.5575
-4030.8729
-4137.1991
-4297.2912
-4395.4626
-4529.9372
-4618.3304
-4740.7214
-4813.1743
-4929.3108
-4994.731
-5087.2839
-5162.9166
-5233.8507
-5296.2603
-5364.5777
-5410.4655
-5457.4784
-5496.532
-5520.0942
-5534.1303
-5543.1726
-5529.9272
-5504.2934
-5465.3858
-5419.406
-5337.8375
-5217.2197
-5240.916
-4999.5062
-4995.9096
-4555.1194
-4591.002
-4133.1727
-4085.1433
-3671.1502
-3480.6928
-3064.3691
-2821.2392
-2392.3551
-2029.612
-1597.3
-1159.9814
-663.4451
-191.34139
366.97373
861.22585
1550.0206
1969.5959
2741.9005
3336.9412
3918.7654
4468.5895
5774.3026
5353.9855
7481.8392
9213.4169
-1183.9602
-1029.9641
-1139.1816
-1298.6867
-1183.5848
-1241.0384
-1228.7271
-1195.6114
-1137.0197
-979.71448
-1181.7473
-1182.3442
-1129.6746
-1323.8747
-1680.0104
-1383.2068
-1291.6217
-1290.252
-1241.9319
-1305.9613
-1348.851
-1309.9402
-1399.6047
-1279.0892
-1376.0587
-1362.9777
-1326.2627
-1521.3768
-1583.1342
-1907.2912
-1320.3779
-1487.2138
-1328.1831
-1344.1076
-1356.6611
-1336.504
-1317.7626
-1365.2223
-1350.1509
-1348.2829
-1314.0343
-1421.3385
-1512.5135
-1614.9929
-1612.4154
-765.23202
-650.22084
-627.30523
-675.91664
-669.14176
-678.95131
-682.13287
-705.6566
-660.36278
-687.27091
-689.03169
-727.91006
-755.47101
-886.34889
-983.76715
-314.77873
-343.80666
-368.26841
-390.16507
-424.58998
-430.71693
-441.23103
-411.71207
-469.00545
-469.1705
-478.41405
-483.51311
-523.35717
-638.00779
-563.51066
61.077694
31.442189
2.8798089
17.659187
-14.635015
-29.993865
-47.121933
-45.533476
-50.277004
-50.507803
-36.086599
-69.852547
-70.850195
-107.27719
-137.52578
82.636873
82.345187
31.884337
0.7289102
0.90015185
-24.415234
-27.581335
-55.313062
-54.305935
-46.038573
-67.596035
-34.945288
-37.893864
-5.3984267
-88.530912
113.36431
67.66292
12.837032
25.659761
-3.5920279
-2.4798986
-12.342158
-21.314587
6.1200892
-27.560365
-1.8470313
-6.7576519
-9.1615568
-5.9995858
-23.662806
-31.298677
9.2424619
-90.07165
-86.037362
-115.62838
-136.53866
-136.49007
-123.6858
-141.54308
-97.665483
-119.17686
-65.837764
-89.460118
36.805452
3.5552021
266.61524
180.95393
44.955298
47.654392
-14.807526
-12.271495
-6.1457767
-19.504636
-5.0905009
-33.508613
66.685812
-3.4408603
110.66068
314.47217
94.764705
279.35451
342.41649
69.24978
64.219476
-51.047233
0.62776707
-63.047996
-13.141936
-55.868159
7.5841909
63.860872
120.73299
258.60513
657.13401
384.1499
1213.0766
796.01923
594.14304
324.50874
370.199
230.95972
266.36535
216.39322
248.82943
312.68849
379.27333
352.73189
720.64605
1190.9552
989.18098
1286.0125
1545.4412
765.27401
829.52075
543.48946
648.50988
452.58341
557.4843
596.8581
578.9137
734.7024
735.65314
1007.6508
1798.7831
1433.871
2122.556
1651.9552
1136.3951
1094.1013
993.09135
1023.6857
1053.396
1062.2767
1033.8377
879.00462
917.7695
860.70429
940.01056
1499.946
612.03799
598.36032
501.10128
37.753003
-178.46114
-333.37288
-186.81159
-297.77762
-301.25387
-436.31001
-451.20621
-436.7726
-285.78824
-9.1469403
495.94681
493.58324
4085.0281
5962.4023
4598.2574
5672.3148
6153.5638
5756.6119
6254.2563
6585.4414
5727.4238
6187.0857
6187.3648
5917.5368
5769.0516
6337.5938
4265.024
3692.7982
1054.8241
2828.5834
2072.4787
2217.3618
2712.4446
2660.8074
2934.9382
3153.7965
2095.7675
2322.324
1653.6364
1709.212
3068.0895
2293.5239
3068.3633
3577.2233
2769.0751
3350.2599
4300.6432
2811.85
2870.3644
2995.26
1925.4094
3532.3626
2694.1791
4252.1123
3355.3309
1831.2746
3055.3005
1568.1311
2296.9406
2287.2641
936.81481
1334.0771
1577.8616
990.80568
1396.0628
1412.8524
786.21733
1498.8838
1159.875
1499.3618
2482.1964
774.19024
5396.2697
5079.4882
4579.7727
5836.7951
4645.7242
5025.2306
5491.477
5185.6582
5547.7733
6101.6501
5260.969
5564.5649
4797.9625
4379.1353
5882.4153
2942.5626
3396.0807
3110.5656
2850.1164
3333.0721
3236.9554
2840.9524
2825.7774
2774.8377
2308.878
3104.4029
2904.0856
2850.3886
3834.3667
2447.1583
4543.8812
5116.3402
5046.6661
5264.2124
4860.703
5277.0349
5258.9339
5203.6405
5279.1083
5303.6742
4773.6079
5115.696
4986.7905
4307.5402
5611.515
4767.4914
4279.9548
4281.5298
4514.4797
4756.7091
4316.2187
4461.6146
4576.9484
4182.8535
4771.6539
4624.6162
4552.4321
4663.836
4021.9185
4522.602
4716.6854
5228.4558
5351.7877
5864.7587
5404.609
5812.884
5679.7687
5728.3475
5983.3749
5445.3169
5579.3544
5211.9945
5314.3303
5026.8683
5179.1163
5167.8885
4530.3581
4602.4426
4526.9907
4630.518
4418.8675
4547.9788
4549.3784
4082.8265
4997.6221
4068.9032
4809.2252
4257.316
4409.7758
4763.5765
4769.6945
5124.7422
5107.3706
5534.543
5528.9357
5867.7764
5756.215
5764.1177
5980.6064
5357.852
6114.8625
5489.1822
5666.5807
5414.653
5744.0331
4868.1258
4480.101
4938.7007
4795.9666
4747.6682
4690.9201
4622.4165
4569.5343
4201.9984
4561.608
4125.2959
4308.4946
4153.9847
4002.9878
4560.6517
4796.8486
4825.4334
4354.9271
4985.5245
4892.3458
5077.6476
5211.7487
5076.3128
5402.1024
5204.2975
5437.1588
5120.4224
5201.964
5152.8562
5174.737
4386.5034
4425.3697
4512.0701
4352.0968
4466.5298
4649.4579
4232.0669
4470.1645
3882.4909
3891.7795
3554.9026
3727.9308
3556.0751
3390.9367
4101.225
4453.7635
4127.5808
4180.3365
4562.8238
4599.6807
4259.6815
4303.4494
4463.86
4874.1022
4778.7375
5216.2288
4909.3652
5091.5863
5093.3107
5031.5148
3748.8834
3972.1016
3762.4502
4229.6445
3477.3483
4265.7495
3957.0651
3784.4878
3286.1709
3418.1237
2876.029
3015.1029
2526.0101
2724.0587
3501.4302
3633.3728
3341.1981
3515.7286
3408.94
4030.6345
3540.2729
3755.167
3507.7656
4009.3322
3813.0509
4333.4205
4047.963
4629.6834
4030.0091
4667.6429
3235.7277
3206.7576
2870.4319
2918.1544
2873.2985
3283.9088
3224.2648
3305.2426
2812.3134
3000.4885
2532.5184
2552.9845
2281.1384
2161.7933
2594.1168
2940.2481
2647.5985
2884.6128
2960.4626
2891.0747
2572.5664
2710.4157
2595.7491
2900.6857
2695.8715
3124.8736
2898.5533
3258.2551
3301.8122
3837.6002
2047.9624
2146.6115
1966.6163
2248.5802
2103.9106
2644.1667
2077.5366
2312.2571
2190.0893
2299.9408
1772.7932
2183.2199
1847.2713
1729.4976
2001.7496
2355.233
1717.2747
1927.0752
1669.2978
1939.3144
1462.3252
2098.6808
1732.2759
1895.8977
1516.0428
1899.2065
1650.9784
2209.8304
2106.7086
2700.8508
1022.3942
1373.5164
986.47027
1478.4487
1048.3717
1612.9587
976.93959
1511.4764
1076.1117
1562.475
1271.8566
1508.7195
1359.8581
814.348
1582.9638
1397.8074
574.48242
930.74875
619.6766
990.84486
624.66006
989.94765
674.5719
971.15707
701.45268
872.76771
526.53489
589.9942
760.1977
1003.1204
244.87852
450.30454
77.994926
534.09279
161.94956
422.2815
137.44823
289.84984
197.40777
307.5006
157.4164
475.26408
532.58608
254.34966
758.15203
313.4275
-245.97601
-253.65664
-339.98658
-1.1445326
-462.38073
43.160915
-238.15039
-96.574563
-262.98507
-244.96504
-300.9357
-338.75407
-402.15796
-41.059252
-693.78064
-561.60864
-726.11245
-611.75959
-872.98405
-501.80561
-886.20286
-644.49991
-820.24632
-721.79476
-492.9277
-634.11156
-446.85666
-502.80379
-195.8945
-900.00548
-1165.0171
-1010.6922
-1180.1291
-888.74951
-1204.4636
-971.54696
-1110.4796
-1079.376
-1107.1127
-1081.7806
-1184.8613
-1101.4709
-1421.1502
-828.70797
-1504.8345
-1492.7124
-1858.6423
-1498.0467
-1527.4423
-1621.3891
-1607.4662
-1653.3865
-1499.9108
-1643.8298
-1455.2666
-1780.1029
-1454.4771
-1405.4124
-1226.6531
-1888.9122
-1946.068
-1667.3864
-2077.0243
-1989.3938
-2053.026
-1906.7119
-2008.6736
-1883.7208
-1995.9649
-1876.2328
-1874.0976
-1959.7137
-2247.1048
-1605.788
-2176.5575
-2456.5245
-2542.704
-2309.3053
-2385.77
-2333.745
-2353.2305
-2437.3115
-2456.696
-2519.1307
-2421.7744
-2514.673
-2563.8974
-2368.949
-2174.5607
-2685.788
-2663.1978
-2612.2101
-2662.8019
-2722.5599
-2563.7612
-2687.3841
-2818.666
-2914.102
-2742.1497
-2679.4391
-2772.9744
-2604.8873
-2903.8207
-2474.2828
-2939.8275
-2950.2355
-3087.7523
-3028.1521
-3042.3468
-3139.1023
-3103.2682
-3061.0405
-3013.0003
-3091.6478
-3165.7828
-3088.0896
-3105.3759
-3119.0089
-2730.4399
-3166.192
-3319.0859
-3299.0787
-3272.8086
-3257.1876
-3368.0764
-3273.1469
-3411.6448
-3274.8731
-3385.5062
-3255.2859
-3367.9626
-3282.8961
-3405.0588
-3044.4233
-3412.469
-3503.0493
-3543.6418
-3542.5514
-3561.0319
-3531.7358
-3595.7913
-3534.8758
-3618.4044
-3571.0324
-3641.7826
-3559.2679
-3614.0832
-3616.0343
-3295.8011
-3631.4019
-3719.236
-3605.902
-3448.1156
-3634.3037
-3753.3644
-3674.3
-3743.0644
-3688.2763
-3671.9277
-3631.7674
-3699.8247
-3611.7927
-3663.7306
-3342.6504
-3552.6207
-3748.8217
-3914.0472
-3645.0463
-3952.0031
-3908.4328
-3857.4988
-3944.6234
-3741.3107
-4261.514
-3845.8181
-3963.7185
-3795.9189
-4080.1351
-3468.0481
-3546.1378
-4151.4622
-3983.4278
-4187.7656
-3861.5708
-4108.8294
-3910.2368
-4106.6539
-3993.3673
-4251.6471
-4075.5164
-3925.7681
-4061.6793
-3940.5124
-3729.2895
-4026.8775
-3849.6112
-3901.5501
-3805.3801
-3997.4828
-3881.9344
-4021.2862
-3935.0684
-3999.9935
-3878.4569
-3941.9145
-4074.2737
-3921.2597
-4136.5692
-3665.1529
-3671.3618
-3974.7145
-3874.2952
-3972.9845
-3821.6745
-4013.3317
-3867.437
-4004.8328
-3941.3856
-3956.7889
-3980.0602
-3881.7466
-3967.1817
-4020.844
-3544.0669
-3720.8782
-3780.7632
-3840.714
-3714.5813
-3848.3142
-3800.3599
-3857.9787
-3878.039
-3834.968
-3917.5629
-3854.8636
-3901.2968
-3894.0964
-3923.0394
-3519.9579
-3454.9767
-3689.2674
-3581.2263
-3677.7565
-3587.4565
-3720.0947
-3652.362
-3706.1224
-3703.6124
-3702.8902
-3719.152
-3707.447
-3681.3109
-3792.5036
-3321.1534
-3294.4141
-3407.1596
-3456.7836
-3368.1098
-3430.2928
-3456.5174
-3439.8146
-3518.8418
-3467.9339
-3512.5667
-3529.2789
-3463.5557
-3526.6738
-3566.3857
-3090.0521
-2921.9884
-3197.679
-3063.2044
-3131.0836
-3090.3846
-3178.3899
-3155.9554
-3204.6017
-3180.2346
-3229.4639
-3201.9777
-3211.9925
-3217.554
-3282.9744
-2789.1288
-2636.7207
-2785.1831
-2777.518
-2763.7384
-2787.577
-2856.3213
-2821.8754
-2874.9736
-2876.0794
-2862.6129
-2923.7243
-2849.8989
-2901.4105
-2953.866
-2438.755
-2134.5199
-2425.4921
-2296.3443
-2349.4403
-2344.6694