/*--------------------------------*- C++ -*----------------------------------*\
  =========                 |
  \\      /  F ield         | OpenFOAM: The Open Source CFD Toolbox
   \\    /   O peration     | Website:  https://openfoam.org
    \\  /    A nd           | Version:  6
     \\/     M anipulation  |
\*---------------------------------------------------------------------------*/
FoamFile
{
    version     2.0;
    format      ascii;
    class       pointVectorField;
    location    "1.02";
    object      u;
}
// * * * * * * * * * * * * * * * * * * * * * * * * * * * * * * * * * * * * * //

dimensions      [0 1 0 0 0 0 0];

internalField   nonuniform List<vector> 
28033
(
(0 4.5583388e-19 0)
(0 3.0892395e-18 0)
(-0.77894739 -0.15619177 0.0086360227)
(-0.79848314 0.040731616 0.0082744795)
(0 2.8235801e-18 0)
(0 4.5440173e-18 0)
(-0.79764053 0.038483225 0.0081967498)
(-0.77803334 -0.15846945 0.0087074891)
(0 1.0036526e-18 0)
(0 2.9452631e-19 0)
(0 2.3731772e-18 0)
(0 -1.1271347e-18 0)
(0 1.5063293e-18 0)
(0 -8.7967219e-19 0)
(0 -2.0860852e-20 0)
(-6.8228733e-19 -2.2257368e-19 0)
(0 4.1130919e-19 0)
(0 2.0200085e-19 0)
(0 -7.7183038e-19 0)
(0 7.4703529e-19 0)
(0 8.9918628e-19 0)
(0 -7.3041119e-19 0)
(0 9.434385e-19 0)
(-0.78018731 -0.14378653 0.0086630924)
(-0.78140059 -0.1313907 0.0086913767)
(-0.78260038 -0.11902152 0.008696472)
(-0.78378957 -0.10668454 0.0086860614)
(-0.78497491 -0.094379673 0.0086590912)
(-0.78616332 -0.082100113 0.0086139675)
(-0.78735209 -0.069845287 0.0085629901)
(-0.78855477 -0.05760285 0.0085037555)
(-0.78976656 -0.045367635 0.008441569)
(-0.79098907 -0.033126445 0.0083823067)
(-0.79222752 -0.020875243 0.0083316726)
(-0.79347354 -0.0086003885 0.0082951106)
(-0.79472846 0.0036951643 0.0082690036)
(-0.79598786 0.016021417 0.0082596025)
(-0.79724261 0.028371888 0.0082650386)
(-0.001477722 -0.0028241456 -0.003016587)
(-0.0015288479 -0.0042913978 -0.0043290807)
(-0.0019208167 -0.0057714391 -0.0052237343)
(-0.0025990978 -0.0074679449 -0.0058174934)
(-0.0035546837 -0.0090472217 -0.0061739507)
(-0.00479579 -0.010818468 -0.006381691)
(-0.0063717959 -0.01249885 -0.006475195)
(-0.0081991541 -0.014269903 -0.006466329)
(-0.010340799 -0.015972181 -0.0064078331)
(-0.012719436 -0.017724304 -0.0062847515)
(-0.015377841 -0.01940324 -0.0061278791)
(-0.018245585 -0.021110022 -0.005940349)
(-0.021359369 -0.022747194 -0.0057485129)
(-0.02466116 -0.024389928 -0.0055372762)
(-0.028173872 -0.025976707 -0.0053284179)
(-0.031842417 -0.027553748 -0.0051329284)
(-0.035693661 -0.029083774 -0.0049449829)
(-0.039692027 -0.030604225 -0.0047790214)
(-0.043844747 -0.032089926 -0.0046222177)
(-0.048124918 -0.033563471 -0.0044997254)
(-0.052549964 -0.035016977 -0.0043916924)
(-0.057103604 -0.036467916 -0.0043060199)
(-0.061789151 -0.037900577 -0.0042434886)
(-0.066615114 -0.039351185 -0.0041925563)
(-0.071572489 -0.040787766 -0.0041571897)
(-0.07667754 -0.042247882 -0.0041285342)
(-0.081928971 -0.043704028 -0.0041099105)
(-0.087338997 -0.045194299 -0.0040829008)
(-0.092906608 -0.046684042 -0.0040572525)
(-0.098644581 -0.048202485 -0.0040242299)
(-0.10455429 -0.049743961 -0.0039746267)
(-0.11063879 -0.051301699 -0.0039170511)
(-0.11690223 -0.052882689 -0.0038444111)
(-0.12335039 -0.054480337 -0.0037605226)
(-0.12997521 -0.056105456 -0.0036558693)
(-0.13678312 -0.057746308 -0.0035450646)
(-0.14376215 -0.059405402 -0.0034259132)
(-0.1509201 -0.061084509 -0.0032985396)
(-0.15824552 -0.062776556 -0.0031649492)
(-0.16573633 -0.064487484 -0.0030350623)
(-0.17338988 -0.066209826 -0.0029041625)
(-0.1812015 -0.067949884 -0.0027794484)
(-0.18916843 -0.06970226 -0.0026590969)
(-0.19728889 -0.071468515 -0.002547816)
(-0.20556107 -0.073249395 -0.0024425285)
(-0.21398513 -0.075043388 -0.0023446764)
(-0.22256181 -0.076851252 -0.0022513693)
(-0.23129209 -0.078673661 -0.0021614542)
(-0.24017958 -0.080508756 -0.0020711521)
(-0.24922511 -0.082357925 -0.0019779248)
(-0.25843351 -0.084218689 -0.0018779264)
(-0.26780554 -0.08609179 -0.0017678006)
(-0.27734516 -0.087973506 -0.0016442804)
(-0.2870523 -0.089864701 -0.0015044743)
(-0.29692873 -0.091759972 -0.0013462244)
(-0.3069727 -0.093659733 -0.001167654)
(-0.31718266 -0.095558382 -0.00096850081)
(-0.32755473 -0.097454506 -0.00074845323)
(-0.33808386 -0.09934354 -0.0005087481)
(-0.34876345 -0.10122278 -0.0002512469)
(-0.35958569 -0.10308797 2.1553069e-05)
(-0.3705417 -0.10493626 0.00030627654)
(-0.38162085 -0.10676509 0.00059951735)
(-0.39281494 -0.10857056 0.00089757206)
(-0.40410873 -0.11035146 0.0011941767)
(-0.41549754 -0.11210674 0.0014902135)
(-0.42696469 -0.11383115 0.0017755633)
(-0.43850715 -0.11552826 0.0020530049)
(-0.45010947 -0.11720077 0.0023211968)
(-0.46177201 -0.11884278 0.0025726018)
(-0.47348099 -0.1204618 0.0028092058)
(-0.48523757 -0.12205529 0.0030328417)
(-0.49703489 -0.12362861 0.0032436067)
(-0.50887437 -0.1251825 0.0034435226)
(-0.52075286 -0.12671972 0.0036344288)
(-0.5326734 -0.12824351 0.0038210196)
(-0.54463551 -0.12975431 0.0040046476)
(-0.5566429 -0.13125685 0.0041910257)
(-0.56869612 -0.13274975 0.0043815341)
(-0.58079887 -0.13423649 0.0045812609)
(-0.59295152 -0.13571546 0.0047910229)
(-0.60515558 -0.13718801 0.0050141041)
(-0.61740983 -0.13865176 0.0052502877)
(-0.62971367 -0.1401072 0.0055018239)
(-0.64206221 -0.14155313 0.0057641564)
(-0.65445482 -0.14298286 0.0060391785)
(-0.66688021 -0.14439946 0.0063211257)
(-0.67933564 -0.14579515 0.0066079769)
(-0.69180828 -0.14717202 0.0068949138)
(-0.70429123 -0.14852515 0.0071773249)
(-0.71677377 -0.14985434 0.0074516274)
(-0.7292466 -0.15115903 0.0077123798)
(-0.74170287 -0.15244095 0.007959387)
(-0.75413173 -0.15370362 0.0081891011)
(-0.76654575 -0.15494874 0.0084092362)
(-0.0010037961 0.0029575084 0.0038334022)
(-0.001995092 0.0043430916 0.0041437728)
(-0.0025663012 0.0061878318 0.0053996702)
(-0.0032403122 0.0076794746 0.0058121966)
(-0.00446063 0.0095434961 0.0061932739)
(-0.0057922105 0.011352482 0.0064104563)
(-0.0074806482 0.013141875 0.0064992589)
(-0.0094221407 0.014971163 0.0065279428)
(-0.011688614 0.016781337 0.0064777936)
(-0.014168578 0.018535531 0.0064074923)
(-0.016944854 0.020290103 0.0062877223)
(-0.019934851 0.02196872 0.0061651023)
(-0.023165815 0.023622995 0.0060170518)
(-0.026605025 0.025215691 0.0058793382)
(-0.0302427 0.026759888 0.0057309141)
(-0.034071593 0.028254404 0.0055984217)
(-0.03806858 0.029696974 0.0054724476)
(-0.042237559 0.031094408 0.0053580787)
(-0.046559547 0.032458515 0.0052681404)
(-0.05102664 0.033765854 0.0051906485)
(-0.055649083 0.035064271 0.0051341535)
(-0.060404815 0.036317123 0.0050994878)
(-0.065311441 0.037558746 0.0050823486)
(-0.070355375 0.038774789 0.0050827269)
(-0.075553572 0.03998331 0.0051028014)
(-0.080888331 0.041166293 0.0051331668)
(-0.086394392 0.042354264 0.0051804638)
(-0.092045042 0.043515367 0.0052323516)
(-0.097874252 0.044680763 0.0052967181)
(-0.10386263 0.04582242 0.0053603857)
(-0.11003597 0.046960018 0.0054294205)
(-0.11637791 0.04807875 0.0055010977)
(-0.12290424 0.049176833 0.0055696345)
(-0.12961371 0.050260264 0.0056385353)
(-0.13649904 0.051312466 0.0057035799)
(-0.14357193 0.052345828 0.0057696773)
(-0.15081531 0.053339207 0.005825318)
(-0.15824845 0.054316632 0.0058830527)
(-0.16584252 0.055249791 0.0059377902)
(-0.17361943 0.056157703 0.0059893983)
(-0.18155706 0.057028665 0.0060405292)
(-0.18966759 0.057868173 0.0060888757)
(-0.19793686 0.058673951 0.0061378492)
(-0.20637313 0.059447768 0.0061846146)
(-0.21496773 0.060189626 0.0062320217)
(-0.22372563 0.060899806 0.0062776122)
(-0.23264384 0.061579238 0.0063227895)
(-0.24172465 0.062226519 0.0063658237)
(-0.2509683 0.062842157 0.0064069204)
(-0.26037642 0.063424187 0.0064446139)
(-0.2699496 0.06397109 0.0064786149)
(-0.27968899 0.064480626 0.0065075388)
(-0.28959461 0.064949972 0.0065310001)
(-0.2996658 0.065375891 0.0065478979)
(-0.30990135 0.065754953 0.0065579131)
(-0.32029869 0.06608387 0.0065604097)
(-0.33085366 0.066358441 0.0065555652)
(-0.34156219 0.066576265 0.0065430632)
(-0.35241732 0.066733487 0.0065238238)
(-0.36341242 0.066828452 0.0064980822)
(-0.3745389 0.06685876 0.0064673028)
(-0.38578821 0.066824193 0.0064323132)
(-0.39714975 0.066723594 0.0063952776)
(-0.40861491 0.066559039 0.0063571451)
(-0.42017199 0.066330662 0.0063207361)
(-0.43181237 0.066042015 0.0062872195)
(-0.44352541 0.065695712 0.006259536)
(-0.45530387 0.065295741 0.0062380151)
(-0.46713664 0.064844503 0.0062276533)
(-0.47901909 0.06434742 0.0062247285)
(-0.49094624 0.063811898 0.0062363851)
(-0.50291029 0.063236073 0.0062594288)
(-0.51491177 0.062629039 0.0062960209)
(-0.52694661 0.061991206 0.0063453778)
(-0.53901362 0.061326156 0.0064081457)
(-0.55111406 0.060636138 0.0064818327)
(-0.56324735 0.059921618 0.006566653)
(-0.5754158 0.059183994 0.0066593832)
(-0.58761923 0.058421897 0.0067596308)
(-0.59986052 0.057635435 0.0068638082)
(-0.61213837 0.05682154 0.006971217)
(-0.62445479 0.055979851 0.007077961)
(-0.63680688 0.055106488 0.0071841458)
(-0.64919449 0.054200897 0.0072860185)
(-0.66161241 0.053259231 0.0073845198)
(-0.67405815 0.052281764 0.0074768065)
(-0.68652401 0.0512655 0.0075646959)
(-0.69900504 0.050212116 0.0076466226)
(-0.71149208 0.049120504 0.0077251504)
(-0.72397807 0.047994011 0.0078002323)
(-0.73645386 0.046834327 0.0078745736)
(-0.74891206 0.045646531 0.007949279)
(-0.76134579 0.044435232 0.0080267962)
(-0.77375152 0.043209021 0.0081072147)
(-0.7861292 0.041971602 0.0081908884)
(0 -1.2589917e-18 0)
(0 -9.3578146e-19 0)
(0 8.8404655e-19 0)
(0 -5.5934308e-19 0)
(0 -4.7757648e-19 0)
(0 2.6319477e-18 0)
(0 -7.6634651e-19 0)
(-1.7508535e-18 4.894079e-19 0)
(0 -4.391611e-19 0)
(0 1.0561496e-18 0)
(0 1.2532971e-18 0)
(0 4.3774409e-19 0)
(0 2.3331186e-19 0)
(0 -4.8098467e-19 0)
(0 3.3282541e-19 0)
(-0.0018860792 0.0013039235 -0.0028081479)
(-0.0022446667 0.0050540156 -0.004358905)
(-0.0023909788 0.0054983306 -0.0050579039)
(-0.0034202876 0.0080614466 -0.0059398332)
(-0.0042975138 0.0094149466 -0.00625293)
(-0.0057757759 0.011389348 -0.0064815938)
(-0.0073543753 0.013096761 -0.00656984)
(-0.0093808742 0.01498601 -0.0066196779)
(-0.011561571 0.01669704 -0.0065372577)
(-0.014096193 0.018517042 -0.0064617314)
(-0.016860961 0.020224014 -0.0063254683)
(-0.01982578 0.021876179 -0.0061801761)
(-0.023088784 0.023556933 -0.0059958695)
(-0.026487481 0.025092645 -0.0058380943)
(-0.030158469 0.02667255 -0.0056391213)
(-0.033952767 0.028122136 -0.0054876308)
(-0.037951954 0.029567865 -0.0053218907)
(-0.042101968 0.030955291 -0.0051794558)
(-0.046411553 0.032292516 -0.0050513424)
(-0.050861602 0.033608133 -0.004950492)
(-0.05546262 0.034877205 -0.0048604126)
(-0.060177396 0.036112864 -0.0048037309)
(-0.065078178 0.0373466 -0.0047519922)
(-0.07006664 0.038514055 -0.0047172761)
(-0.075260533 0.039725425 -0.0046994879)
(-0.080546515 0.040851074 -0.0046817491)
(-0.08602651 0.042018831 -0.0046729375)
(-0.091652564 0.04313501 -0.0046575993)
(-0.097449653 0.044262317 -0.0046415052)
(-0.10342477 0.045362049 -0.0046111832)
(-0.10958604 0.04646932 -0.004575626)
(-0.11590843 0.047528986 -0.0045217656)
(-0.12243655 0.048602515 -0.004454567)
(-0.12913362 0.049633495 -0.0043734493)
(-0.13603411 0.050665644 -0.0042749091)
(-0.14308621 0.051638808 -0.0041711103)
(-0.15035944 0.052634533 -0.0040476624)
(-0.15778804 0.053571459 -0.0039226015)
(-0.16539744 0.054494121 -0.0037894919)
(-0.17317735 0.055383846 -0.0036535155)
(-0.18112444 0.056247604 -0.0035197651)
(-0.18923527 0.057079447 -0.0033857392)
(-0.19750757 0.057883254 -0.0032583078)
(-0.20593861 0.058654923 -0.0031333886)
(-0.21452806 0.059397487 -0.0030165429)
(-0.22327432 0.060106552 -0.0029022662)
(-0.23217929 0.060785046 -0.0027940119)
(-0.24124277 0.061428437 -0.0026863447)
(-0.25046711 0.062037799 -0.002579924)
(-0.2598539 0.0626096 -0.0024697997)
(-0.26940506 0.063142588 -0.0023547542)
(-0.27912194 0.063633808 -0.0022311138)
(-0.28900569 0.064080453 -0.0020960528)
(-0.29905653 0.064480162 -0.0019478978)
(-0.30927304 0.064828614 -0.0017836812)
(-0.3196538 0.065124704 -0.0016033285)
(-0.33019458 0.065363396 -0.0014048198)
(-0.34089092 0.065544201 -0.0011898139)
(-0.3517364 0.065663276 -0.00095770012)
(-0.36272331 0.065720136 -0.000711315)
(-0.37384312 0.065712901 -0.0004519963)
(-0.38508592 0.065641653 -0.0001830904)
(-0.39644157 0.065506271 9.2694785e-05)
(-0.40789909 0.065307877 0.00037156933)
(-0.41944772 0.065047878 0.00065048939)
(-0.43107726 0.064729007 0.00092629794)
(-0.44277601 0.064351028 0.0011948388)
(-0.4545414 0.063929507 0.0014563631)
(-0.46634871 0.063437973 0.001701023)
(-0.47821127 0.0629215 0.0019431403)
(-0.49011436 0.062349151 0.0021665822)
(-0.50205063 0.061741834 0.0023796247)
(-0.51402384 0.061097035 0.0025822888)
(-0.52602937 0.060419828 0.0027759327)
(-0.53806847 0.059711656 0.0029633839)
(-0.55014191 0.058974746 0.0031482243)
(-0.5622516 0.05821065 0.0033329947)
(-0.57439945 0.057420205 0.0035218849)
(-0.58658769 0.05660349 0.0037176522)
(-0.59881805 0.055760864 0.0039237377)
(-0.61109156 0.05489123 0.0041420015)
(-0.62340822 0.053994239 0.0043748024)
(-0.63576719 0.053068563 0.004622142)
(-0.64816548 0.052113433 0.0048846666)
(-0.66059959 0.05112764 0.0051605828)
(-0.67306371 0.050111031 0.0054482333)
(-0.68555101 0.049062571 0.0057443694)
(-0.69805381 0.04798366 0.0060453757)
(-0.71056249 0.046873559 0.0063471681)
(-0.72306873 0.045735999 0.0066447107)
(-0.73556149 0.044570458 0.0069346421)
(-0.74803449 0.043383564 0.0072116486)
(-0.76047758 0.042175077 0.0074748083)
(-0.77289128 0.040953398 0.0077224224)
(-0.78527026 0.039720229 0.0079577949)
(-0.79639883 0.026107299 0.0082659772)
(-0.79513887 0.013748793 0.0083300442)
(-0.79387321 0.0014045758 0.0083814383)
(-0.79260807 -0.01089725 0.0084155887)
(-0.79135638 -0.023188325 0.0084372377)
(-0.79010576 -0.03544215 0.0084475493)
(-0.78888077 -0.047696547 0.0084475383)
(-0.78765893 -0.059937217 0.0084440832)
(-0.7864473 -0.0721836 0.0084444219)
(-0.7852551 -0.084437111 0.0084430836)
(-0.78406904 -0.096712869 0.0084541727)
(-0.78286932 -0.10901355 0.0084734504)
(-0.7816892 -0.121337 0.0085142024)
(-0.78047759 -0.13370021 0.0085628436)
(-0.77927229 -0.14607999 0.0086374879)
(-0.76564814 -0.15723071 0.0086022042)
(-0.7532431 -0.15599586 0.0084861008)
(-0.7408206 -0.15474616 0.0083792035)
(-0.72837895 -0.15347523 0.0082732622)
(-0.7159237 -0.15217983 0.0081719884)
(-0.70346451 -0.15085466 0.0080721641)
(-0.69100873 -0.14950086 0.0079739764)
(-0.67856705 -0.14811699 0.0078740369)
(-0.66614593 -0.14670535 0.007773283)
(-0.65375395 -0.14526705 0.0076692503)
(-0.64139607 -0.14380555 0.007563436)
(-0.62907801 -0.14232252 0.0074544658)
(-0.61680146 -0.14082222 0.0073450295)
(-0.60456838 -0.1393065 0.0072356343)
(-0.59238239 -0.13777798 0.0071268627)
(-0.58024219 -0.13623967 0.007020183)
(-0.56814752 -0.13469261 0.0069175368)
(-0.55609665 -0.13313761 0.0068210802)
(-0.54408825 -0.13157558 0.0067327282)
(-0.53212096 -0.1300053 0.0066535753)
(-0.5201938 -0.12842686 0.006585754)
(-0.5083063 -0.12683751 0.0065297134)
(-0.49645912 -0.12523676 0.0064865676)
(-0.4846536 -0.12361983 0.0064563633)
(-0.47289245 -0.12198782 0.0064400351)
(-0.4611791 -0.12033609 0.0064344045)
(-0.4495178 -0.11865559 0.0064447161)
(-0.43793151 -0.11695875 0.006456952)
(-0.4263923 -0.11523216 0.0064862742)
(-0.41493902 -0.11347895 0.0065198502)
(-0.40356826 -0.11169895 0.0065603215)
(-0.39229337 -0.10989124 0.0066024325)
(-0.38112151 -0.10805767 0.0066468086)
(-0.37006394 -0.10619923 0.0066898574)
(-0.35912914 -0.10431906 0.0067304352)
(-0.34832629 -0.10241982 0.006766509)
(-0.33766312 -0.10050539 0.0067964124)
(-0.32714682 -0.098579511 0.0068191806)
(-0.31678319 -0.096646377 0.0068334222)
(-0.30657706 -0.094710351 0.0068389086)
(-0.29653193 -0.09277521 0.0068347999)
(-0.28665016 -0.090845318 0.0068217535)
(-0.27693313 -0.08892351 0.0067991971)
(-0.267381 -0.087013684 0.0067686937)
(-0.25799359 -0.085117126 0.0067298518)
(-0.24876951 -0.083237193 0.0066849007)
(-0.23970776 -0.081373202 0.006633403)
(-0.23080642 -0.079528054 0.0065779541)
(-0.22206459 -0.077699095 0.0065179957)
(-0.21348017 -0.075889157 0.006456193)
(-0.20505414 -0.074093337 0.0063912471)
(-0.19678378 -0.072315982 0.0063264006)
(-0.18867344 -0.070548925 0.0062587334)
(-0.18071856 -0.068799966 0.0061928488)
(-0.1729282 -0.067057272 0.0061228235)
(-0.16529975 -0.065331754 0.0060547104)
(-0.15783619 -0.063614548 0.005983146)
(-0.15053455 -0.06190699 0.0059123725)
(-0.14343307 -0.060205534 0.0058291537)
(-0.13647054 -0.058534036 0.0057609434)
(-0.12969125 -0.056860668 0.0056770066)
(-0.12312206 -0.055197843 0.0055868657)
(-0.11668887 -0.053569526 0.0055067237)
(-0.11045527 -0.05194111 0.0054182609)
(-0.10437933 -0.050343102 0.0053333348)
(-0.098506237 -0.048747648 0.0052419858)
(-0.092761745 -0.047200813 0.0051609876)
(-0.087223085 -0.045636857 0.0050770892)
(-0.081807248 -0.044127001 0.0050162091)
(-0.076561394 -0.042610485 0.004954686)
(-0.071452959 -0.041121802 0.0049134501)
(-0.06648473 -0.03964323 0.0048900891)
(-0.061675458 -0.038159702 0.0048720855)
(-0.056972221 -0.036697182 0.0048914301)
(-0.052415499 -0.035226233 0.004928684)
(-0.048001711 -0.033740505 0.0049784776)
(-0.043705394 -0.032257055 0.0050667277)
(-0.039572545 -0.03074468 0.0051605869)
(-0.035563915 -0.029220717 0.0052866129)
(-0.031733141 -0.027666904 0.0054222183)
(-0.02807717 -0.026062364 0.0055666179)
(-0.024558116 -0.024485962 0.0057383925)
(-0.021264771 -0.022824153 0.0058910296)
(-0.018184935 -0.021158271 0.0060493992)
(-0.015302003 -0.019460144 0.0061909536)
(-0.012654923 -0.017755889 0.0063192841)
(-0.010302207 -0.015970291 0.0064006327)
(-0.0081673576 -0.014277573 0.0064547933)
(-0.006327567 -0.012499386 0.0064242839)
(-0.0047729454 -0.010789253 0.0063309438)
(-0.0035387892 -0.0090028911 0.0060805625)
(-0.0026690419 -0.0073097059 0.0056869937)
(-0.0020160216 -0.005797775 0.005147602)
(-0.0017369657 -0.0040826335 0.0039654387)
(-0.0023076909 -0.0026901181 0.0022109816)
(0 1.4166495e-18 0)
(0 5.3838624e-19 0)
(0 1.3973895e-18 0)
(0 1.4067013e-18 0)
(0 1.4661233e-18 0)
(0 8.8170203e-19 0)
(0 3.514845e-20 0)
(0 -7.9893024e-19 -8.7660618e-19)
(0 9.4603889e-20 0)
(0 8.5052133e-19 0)
(0 2.050881e-18 0)
(0 1.7969995e-18 0)
(0 1.2863214e-18 0)
(0 1.2431296e-18 0)
(0 1.4195528e-18 0)
(0 5.8341381e-18 0)
(0 2.4840985e-18 0)
(0 9.1159351e-19 0)
(0 1.64538e-18 0)
(0 -1.4325179e-19 0)
(0 3.8351448e-19 0)
(0 4.3701266e-18 0)
(0 -1.7783699e-18 -7.7115657e-19)
(0 2.5993952e-18 0)
(0 3.2495176e-18 0)
(0 1.073856e-18 0)
(0 4.3955127e-19 0)
(0 1.0202365e-18 0)
(0 1.8394176e-18 0)
(0 2.3659816e-19 0)
(-0.79846687 0.040650422 0.0082806704)
(-0.798452 0.040560161 0.0082857113)
(-0.79843798 0.0404653 0.0082849831)
(-0.79842556 0.040365177 0.0082786318)
(-0.79841217 0.040259405 0.0082654865)
(-0.79839345 0.04014934 0.0082479899)
(-0.7983672 0.040032358 0.0082277122)
(-0.79833018 0.03990823 0.008207973)
(-0.79828141 0.039774774 0.0081896702)
(-0.7982198 0.039630787 0.0081768682)
(-0.79814598 0.039473679 0.0081686316)
(-0.79805905 0.039303904 0.0081681731)
(-0.79796369 0.039119004 0.0081732602)
(-0.79786087 0.038918183 0.0081818852)
(-0.79775215 0.038707053 0.0081954656)
(-0.77892698 -0.15641616 0.0086314946)
(-0.77890261 -0.15663087 0.0086217076)
(-0.7788792 -0.15683479 0.0086114473)
(-0.7788517 -0.1570246 0.0086050371)
(-0.77882303 -0.15720083 0.0086042407)
(-0.77878607 -0.15736187 0.0086101787)
(-0.77874039 -0.15750836 0.0086215313)
(-0.77868503 -0.15764206 0.0086371438)
(-0.77861986 -0.1577645 0.0086552506)
(-0.77854604 -0.15787799 0.0086735586)
(-0.77846495 -0.15798493 0.0086900316)
(-0.7783794 -0.15808667 0.0087024497)
(-0.77829152 -0.15818681 0.0087096748)
(-0.77820553 -0.15828399 0.0087118969)
(-0.77812015 -0.15838026 0.0087094256)
(-0.0011915951 -0.0024431973 -0.0030669818)
(-0.0019345104 -0.0036874596 -0.0036886686)
(-0.0027621686 -0.0051933723 -0.0045904864)
(-0.0039592877 -0.0065965625 -0.0049843173)
(-0.0053330108 -0.0079970546 -0.0053717439)
(-0.007079274 -0.0094653477 -0.0055280791)
(-0.0090785946 -0.010910224 -0.0056428147)
(-0.01139203 -0.012419527 -0.0056353203)
(-0.01395626 -0.013909518 -0.005598464)
(-0.016761735 -0.015413775 -0.005504991)
(-0.019833165 -0.016916464 -0.0053676621)
(-0.023089736 -0.018407705 -0.0052241114)
(-0.026569747 -0.019891176 -0.0050500313)
(-0.03020977 -0.021352638 -0.0048773414)
(-0.034042477 -0.02280664 -0.0046961972)
(-0.038001192 -0.024230973 -0.0045266118)
(-0.042114162 -0.025643719 -0.0043635142)
(-0.046338477 -0.027038469 -0.0042142491)
(-0.050687571 -0.028404269 -0.004082427)
(-0.055135295 -0.029770814 -0.0039665335)
(-0.059691749 -0.031109329 -0.0038717129)
(-0.064344493 -0.032442222 -0.0037916815)
(-0.069094051 -0.033767837 -0.0037293708)
(-0.073947119 -0.035085107 -0.0036812108)
(-0.078904119 -0.036398669 -0.0036411008)
(-0.083973568 -0.037716676 -0.0036106056)
(-0.08915385 -0.039036228 -0.0035804521)
(-0.094460454 -0.040360902 -0.0035524204)
(-0.099898867 -0.041692104 -0.0035189018)
(-0.10547053 -0.043042841 -0.0034761004)
(-0.11118744 -0.044393747 -0.0034259754)
(-0.11705289 -0.04576534 -0.0033628646)
(-0.12306958 -0.047149862 -0.0032884475)
(-0.1292374 -0.048552288 -0.003199377)
(-0.13556312 -0.049966878 -0.0031014841)
(-0.14204773 -0.051398501 -0.002989211)
(-0.14867939 -0.052850043 -0.002870526)
(-0.15546872 -0.054308032 -0.0027487832)
(-0.16240993 -0.055789764 -0.0026173785)
(-0.16949647 -0.057280074 -0.0024907286)
(-0.17673105 -0.058785763 -0.002364912)
(-0.18410976 -0.060303712 -0.0022403859)
(-0.19163171 -0.061833229 -0.0021238832)
(-0.19929835 -0.063375352 -0.0020117294)
(-0.20710895 -0.064927306 -0.0019060839)
(-0.21506625 -0.066489801 -0.0018056955)
(-0.22317293 -0.068062739 -0.0017099044)
(-0.23143364 -0.069645187 -0.001615449)
(-0.23985199 -0.071236956 -0.0015215167)
(-0.24843354 -0.072838482 -0.0014238613)
(-0.25718319 -0.07444836 -0.0013207569)
(-0.26610566 -0.076067651 -0.0012080529)
(-0.27520544 -0.077694497 -0.0010843705)
(-0.2844857 -0.079329807 -0.00094591841)
(-0.29394915 -0.080971346 -0.00079208776)
(-0.30359634 -0.082619924 -0.00062054318)
(-0.31342706 -0.084272468 -0.00043172413)
(-0.32343897 -0.085929642 -0.00022480565)
(-0.3336285 -0.087588389 -1.6496191e-06)
(-0.34399 -0.089247845 0.00023686459)
(-0.3545172 -0.09090572 0.00048785854)
(-0.36520169 -0.092560753 0.00074937087)
(-0.37603465 -0.094210442 0.0010175589)
(-0.38700709 -0.095852815 0.0012891885)
(-0.39810669 -0.097485923 0.0015613747)
(-0.40932951 -0.099111513 0.0018317537)
(-0.42066194 -0.10072431 0.0020936724)
(-0.43208996 -0.10232224 0.0023486928)
(-0.44361193 -0.10390733 0.0025944264)
(-0.45522045 -0.10547647 0.002827171)
(-0.46690797 -0.10703475 0.0030490674)
(-0.47867261 -0.10857842 0.0032604113)
(-0.49050881 -0.11011182 0.0034613942)
(-0.50241761 -0.11163412 0.003653144)
(-0.51439633 -0.11314621 0.0038385874)
(-0.52644781 -0.11465212 0.0040202967)
(-0.53857129 -0.11615025 0.0042004006)
(-0.55076958 -0.11764574 0.0043832664)
(-0.56304366 -0.11913622 0.0045700129)
(-0.57539534 -0.12062688 0.0047651216)
(-0.58782453 -0.122115 0.0049687848)
(-0.60033179 -0.12360401 0.0051842672)
(-0.61291412 -0.12509123 0.0054112383)
(-0.62556853 -0.12657939 0.0056502561)
(-0.63829067 -0.12806294 0.0058996712)
(-0.65107705 -0.12954662 0.0061582167)
(-0.66391498 -0.13102373 0.0064230036)
(-0.67679862 -0.13249555 0.0066921375)
(-0.68971415 -0.13395762 0.0069612848)
(-0.70265201 -0.13540898 0.0072277168)
(-0.71559988 -0.13684666 0.0074869022)
(-0.7285466 -0.1382688 0.0077380735)
(-0.74148195 -0.13967321 0.0079781586)
(-0.75439849 -0.1410612 0.008208926)
(-0.76730069 -0.14242664 0.0084345951)
(-0.0008551316 -0.0021578772 -0.0026348638)
(-0.0019918793 -0.0028125961 -0.0033594047)
(-0.0034674052 -0.0043872671 -0.0039217902)
(-0.0049833464 -0.0055006193 -0.0043691491)
(-0.0068640544 -0.0067876698 -0.0046254448)
(-0.0089597558 -0.0080381552 -0.0047770214)
(-0.011408591 -0.0093249752 -0.0048519852)
(-0.01406867 -0.010627065 -0.0048598162)
(-0.017014859 -0.011907565 -0.0048402376)
(-0.020192125 -0.013237793 -0.0047397133)
(-0.023594245 -0.01452788 -0.0046518756)
(-0.027183882 -0.01585051 -0.0045135168)
(-0.03096595 -0.017142213 -0.0043745501)
(-0.034910701 -0.018450957 -0.0042221604)
(-0.038993571 -0.019726182 -0.0040703351)
(-0.043203505 -0.02100927 -0.0039254257)
(-0.047533616 -0.022269446 -0.0037768119)
(-0.051953558 -0.023519626 -0.0036537718)
(-0.05646698 -0.024749455 -0.0035327665)
(-0.061062177 -0.025980895 -0.0034316688)
(-0.065728652 -0.027176975 -0.003342841)
(-0.070464866 -0.028385899 -0.0032713793)
(-0.075277808 -0.029562365 -0.0032107981)
(-0.080159991 -0.03074943 -0.0031622581)
(-0.085120816 -0.031911668 -0.0031225782)
(-0.090161129 -0.033089938 -0.0030860363)
(-0.095291547 -0.034246201 -0.0030542324)
(-0.10051934 -0.035418561 -0.0030203368)
(-0.10584696 -0.036582748 -0.0029802472)
(-0.11128844 -0.037759731 -0.0029343847)
(-0.1168446 -0.038935722 -0.0028803929)
(-0.12252611 -0.040127223 -0.0028150451)
(-0.12833289 -0.041325769 -0.0027354932)
(-0.13427134 -0.042532623 -0.0026505284)
(-0.14034698 -0.043755512 -0.0025483787)
(-0.14655431 -0.044990327 -0.0024412369)
(-0.15290032 -0.046236475 -0.0023266474)
(-0.15938112 -0.047496984 -0.0022056598)
(-0.16599393 -0.048768159 -0.0020815425)
(-0.17274096 -0.050053202 -0.0019599062)
(-0.17962392 -0.051348698 -0.0018335764)
(-0.18663635 -0.052655499 -0.0017147635)
(-0.19378548 -0.053972029 -0.0015991696)
(-0.20107055 -0.055298994 -0.0014885327)
(-0.20849426 -0.056633016 -0.0013828952)
(-0.21606028 -0.05797748 -0.0012824338)
(-0.22377502 -0.059328326 -0.0011843358)
(-0.23164187 -0.060687779 -0.001089002)
(-0.23966926 -0.062054286 -0.0009926123)
(-0.24786247 -0.063429471 -0.00089374975)
(-0.25622938 -0.064811536 -0.00078933924)
(-0.26477528 -0.066203533 -0.00067719112)
(-0.27350744 -0.067602687 -0.00055492326)
(-0.28242944 -0.069012589 -0.00042023743)
(-0.29154639 -0.070430713 -0.00027205167)
(-0.30085945 -0.071859621 -0.00010885764)
(-0.31037052 -0.073297361 6.941101e-05)
(-0.32007789 -0.074745916 0.00026296503)
(-0.32997959 -0.076202557 0.00047039294)
(-0.34007099 -0.077668909 0.00069094105)
(-0.35034722 -0.079142697 0.00092220449)
(-0.36080017 -0.080623621 0.0011623233)
(-0.37142312 -0.082109745 0.0014076965)
(-0.38220692 -0.083600573 0.0016569668)
(-0.39314119 -0.085094167 0.0019061838)
(-0.4042214 -0.086594713 0.0021539167)
(-0.41542249 -0.088082317 0.0023897594)
(-0.42675869 -0.089574889 0.0026269137)
(-0.43821711 -0.091066012 0.0028566579)
(-0.44978349 -0.092555978 0.0030745176)
(-0.46145652 -0.094041588 0.0032833521)
(-0.47323085 -0.095524014 0.003483212)
(-0.48510465 -0.097003767 0.0036740342)
(-0.49707737 -0.0984804 0.0038583126)
(-0.50914675 -0.099955335 0.004037417)
(-0.52131448 -0.10143034 0.00421386)
(-0.53357974 -0.10290404 0.0043891805)
(-0.54594543 -0.10438182 0.0045676356)
(-0.55841068 -0.10586061 0.0047492865)
(-0.57097732 -0.10734624 0.0049387232)
(-0.58364415 -0.1088353 0.0051349763)
(-0.59641035 -0.11033279 0.0053420402)
(-0.60927277 -0.11183488 0.0055579258)
(-0.62222811 -0.11334534 0.0057877701)
(-0.63527061 -0.11486621 0.0060240258)
(-0.64838856 -0.11638725 0.0062682442)
(-0.66157509 -0.11791335 0.006517954)
(-0.67482002 -0.11944013 0.0067714476)
(-0.68811 -0.12096698 0.0070256574)
(-0.70143299 -0.12249001 0.0072776501)
(-0.71477584 -0.12400548 0.0075251702)
(-0.72812538 -0.12551179 0.0077668416)
(-0.74147096 -0.12700318 0.0080001536)
(-0.75480033 -0.12848233 0.0082301956)
(-0.76811878 -0.1299378 0.0084539234)
(-0.00071661444 -0.0016594335 -0.0023287057)
(-0.0021250658 -0.0022923005 -0.0028161325)
(-0.0036626976 -0.0035066768 -0.0033573111)
(-0.0055773094 -0.0045138445 -0.0036799604)
(-0.0077004129 -0.0055574046 -0.0038742048)
(-0.010155697 -0.0066731489 -0.0039703281)
(-0.012837449 -0.0077361321 -0.0040487173)
(-0.015782069 -0.0088238943 -0.0040648172)
(-0.018993774 -0.0099263904 -0.0040148117)
(-0.022403883 -0.011029952 -0.003969671)
(-0.026042314 -0.012141566 -0.0038765213)
(-0.029847926 -0.013251424 -0.0037749086)
(-0.03385307 -0.014378215 -0.0036519857)
(-0.037968852 -0.015481165 -0.0035350974)
(-0.042245051 -0.016599614 -0.0034051886)
(-0.046618769 -0.017705393 -0.0032784426)
(-0.051099397 -0.018802054 -0.0031603027)
(-0.05564563 -0.019893578 -0.0030515719)
(-0.060288138 -0.020972871 -0.0029467689)
(-0.064971194 -0.022044916 -0.0028578978)
(-0.069723621 -0.023098499 -0.0027833562)
(-0.074527001 -0.02415359 -0.0027136991)
(-0.079383115 -0.02518297 -0.0026600573)
(-0.084290485 -0.026218005 -0.0026121448)
(-0.089260217 -0.027231085 -0.0025719044)
(-0.094291514 -0.028250379 -0.0025327554)
(-0.099393847 -0.029251451 -0.0024986766)
(-0.1045711 -0.030262647 -0.0024579621)
(-0.10983763 -0.031261287 -0.0024158223)
(-0.11519434 -0.032270147 -0.002366055)
(-0.12065212 -0.033274432 -0.0023087824)
(-0.12621742 -0.034290972 -0.0022376811)
(-0.13189191 -0.035307001 -0.0021624558)
(-0.13768642 -0.036337406 -0.0020726466)
(-0.14359689 -0.037374744 -0.0019744925)
(-0.14962973 -0.038420192 -0.0018702133)
(-0.15578115 -0.039481734 -0.0017561871)
(-0.16205664 -0.040547215 -0.0016399785)
(-0.16845972 -0.041631012 -0.0015203014)
(-0.17498869 -0.042719493 -0.0013969129)
(-0.18163835 -0.043823626 -0.0012790073)
(-0.18841819 -0.044933603 -0.0011620644)
(-0.19532567 -0.046055225 -0.0010480829)
(-0.2023639 -0.047183408 -0.00093961504)
(-0.20953743 -0.048320116 -0.00083582408)
(-0.21685229 -0.049464675 -0.00073445616)
(-0.22431291 -0.05061523 -0.00063774813)
(-0.23192739 -0.051774114 -0.00054116752)
(-0.23970271 -0.052939486 -0.00044509978)
(-0.24764687 -0.05411339 -0.00034575928)
(-0.25576733 -0.055295048 -0.00024283737)
(-0.26407209 -0.056487071 -0.00013204424)
(-0.27256765 -0.057688191 -1.3749656e-05)
(-0.28126002 -0.058902174 0.00011612726)
(-0.29015404 -0.060127094 0.0002565945)
(-0.29925274 -0.061366836 0.00041065291)
(-0.30855815 -0.062619783 0.00057681604)
(-0.31806978 -0.063888433 0.00075640036)
(-0.32778642 -0.065171581 0.00094731826)
(-0.33770445 -0.066471219 0.0011499138)
(-0.34781898 -0.067784917 0.0013608084)
(-0.35812389 -0.0691142 0.0015797099)
(-0.36861257 -0.070456804 0.0018026754)
(-0.3792756 -0.07181301 0.0020299691)