/*--------------------------------*- C++ -*----------------------------------*\
  =========                 |
  \\      /  F ield         | OpenFOAM: The Open Source CFD Toolbox
   \\    /   O peration     | Website:  https://openfoam.org
    \\  /    A nd           | Version:  6
     \\/     M anipulation  |
\*---------------------------------------------------------------------------*/
FoamFile
{
    version     2.0;
    format      ascii;
    class       pointScalarField;
    location    "1.33";
    object      E;
}
// * * * * * * * * * * * * * * * * * * * * * * * * * * * * * * * * * * * * * //

dimensions      [1 -1 -2 0 0 0 0];

internalField   nonuniform List<scalar> 
28033
(
40672.893
37815.169
-1580724.7
-821167.6
49417.782
46792.856
-1221055.9
-2408276
24689.745
14952.667
9580.7468
7190.673
4751.6964
3522.9009
2506.0954
1988.754
3050.8618
4771.9192
9162.2305
14968.665
21532.383
27166.805
36318.729
-850685.09
-810217.88
-792432.95
-790077.21
-802162.7
-824765.68
-855257.13
-887141.3
-917503.03
-943299.66
-961748.28
-972711.33
-972149.1
-957176.02
-708611.23
34665.934
22107.28
21524.205
21489.625
22103.321
22469.849
22732.896
22692.508
22695.544
22744.15
22347.299
22138.792
21696.105
21545.631
21024.24
20490.997
19966.085
19683.005
19059.193
18503.442
18043.454
17525.163
16913.154
16460.79
15853.574
15420.469
14837.291
14284.882
13894.892
13254.015
12732.317
12332.736
11714.227
11297.423
10395.575
10287.34
9819.1361
8788.7124
8678.6249
8063.9317
7453.5797
6957.1596
6400.1363
5879.8158
5335.3127
4848.8202
4281.929
3836.1266
3264.0383
2826.3743
2280.0826
1828.1053
1323.3712
847.77563
373.78411
-103.10789
-578.89312
-1049.3862
-1518.5896
-1987.3768
-2470.9518
-2916.5215
-3383.7339
-3744.9771
-4359.7964
-4797.9579
-5345.4655
-5686.5951
-6197.7886
-6308.2033
-6614.1546
-6890.5601
-7043.5799
-7327.532
-7199.5003
-7575.1598
-7177.2042
-7506.2377
-6938.3313
-7234.7413
-6454.9689
-6683.1474
-5749.5677
-5839.4314
-4977.0594
-4480.5504
-3723.4345
-3070.1426
-2206.5337
-886.21295
-1644.0556
1047.4577
-178.58052
1229.4486
18160.259
32129.284
17333.26
22492.125
19270.868
20605.235
21166.037
20606.89
20726.103
20595.328
19866.918
19562.462
18634.711
18299.742
17132.689
16551.79
15457.08
14699.49
13867.609
12910.557
12046.202
11005.358
10273.328
9174.4962
8669.9683
7726.2134
7162.3855
6332.908
5698.7373
5062.0302
4477.6279
3762.5426
3397.7329
2803.5274
2515.5176
1968.9745
2014.773
1383.17
1370.3524
1079.1555
1086.0118
984.5919
1036.1947
1090.5769
1261.1131
1429.8574
1732.8977
2035.5032
2451.569
2903.7169
3426.0273
4018.0532
4659.7361
5362.8997
6128.7985
6931.3217
7791.6007
8689.5704
9622.2654
10577.042
11574.829
12549.06
13574.87
14538.318
15575.264
16498.58
17514.712
18380.357
19434.533
20040.623
20745.931
21380.239
21876.801
22500.617
22805.899
23171.937
23326.129
23427.114
23465.635
23265.187
23137.255
22708.105
22355.778
21723.312
21185.076
20337.495
19628.946
18635.252
17782.324
16622.98
15764.393
14536.979
13574.552
12368.737
11498.884
4626.1135
30605.079
19102.437
12422.64
10592.912
5988.5795
4109.6392
3045.2009
2526.3492
3412.0298
6260.7133
9313.7518
15165.14
21236.132
29534.79
35490.75
60518.692
27166.864
14411.037
23043.348
21848.154
21495.708
22568.091
22876.976
22306.28
21294.035
22108.336
19421.316
20516.332
17387.808
18781.879
16934.932
16907.326
14027.174
15115.745
12468.365
12655.59
11126.217
10492.526
9745.5623
8640.991
8111.1498
7029.3977
6689.9571
5503.6893
5753.5678
4758.3838
4371.329
3860.0809
3778.5259
2589.8397
2442.3529
3320.0158
2664.2265
2551.153
2520.7402
2585.8041
2676.1241
2846.7007
3056.7637
3341.5843
3672.4156
4057.4502
4499.4456
4982.9382
5519.8439
6093.4488
6710.8383
7361.3527
8031.8124
8737.1472
9443.5936
10167.98
10891.205
11603.163
12314.534
12992.032
13659.911
14284.171
14882.893
15423.861
16032.475
16440.935
15993.318
18454.379
17160.06
17816.268
17723.157
17851.001
17850.464
17765.383
17589.659
17386.702
17068.431
16661.455
16226.823
15641.001
15083.733
14352.35
13679.515
12780.319
12014.816
11008.637
10088.224
9078.6735
8102.1043
7044.6887
6161.5424
5031.8597
4092.1368
4158.4162
-1999678.4
-1940235.9
-1741192.4
-2093719.7
-1719271.6
-2016724
-1623895.7
-1774888.7
-1808245.5
-1632025.9
-1423241.2
-1698730.4
-1425541.5
-1772115.2
-1760222.3
19261.733
9179.6811
11355.888
10846.103
10239.618
9514.8655
8810.7954
8087.267
7271.2879
6676.1679
5882.3779
5175.7635
4563.9973
3802.468
3132.992
2444.8401
1800.4534
1140.727
550.83724
-54.603853
-602.60046
-1162.4944
-1609.2356
-2102.7579
-2393.9676
-2649.2122
-1425.8821
-3615.3978
-3576.9422
-3904.8695
-3892.6248
-3983.0235
-3994.4963
-3943.7123
-3850.3666
-3709.9597
-3521.698
-3284.4997
-3007.6866
-2688.6235
-2326.2833
-1935.8485
-1501.9586
-1046.5463
-552.40653
-46.34965
502.65082
1044.3924
1634.4321
2210.7538
2825.2406
3432.6613
4077.0325
4650.257
5322.3198
5971.0445
5738.0704
8505.4566
8695.5322
7168.7618
10457.408
10100.495
10319.108
10556.398
12287.294
12491.255
12942.26
13812.952
13972.045
15040.043
15267.161
16079.511
16575.9
17551.016
17532.768
18452.72
18865.837
19442.197
20191.26
19889.707
21290.928
21726.595
21536.67
21856.593
23842.788
21864.341
23034.067
22856.029
23463.154
21635.172
22006.65
22112.909
23161.766
19300.864
39694.864
30353.836
28302.514
27239.377
27177.73
27674.665
28081.271
27871.214
28149.032
28132.466
28078.109
27034.049
26493.896
27032.364
27790.146
30674.24
25582.29
26097.488
24736.319
26255.943
26285.49
25735.165
27808.928
29786.769
28602.392
28783.58
27387.027
26235.895
26035.619
25715.617
28949.663
-922301.12
-922574.54
-922139.48
-922664.98
-922033.65
-921843.89
-921955.71
-921939.01
-921902.24
-921947.62
-921600.16
-922115.21
-922219.66
-922075.6
-921914.16
-1784718.1
-1782663
-1782507.8
-1781364.3
-1783157.2
-1782974.9
-1783090.1
-1783130.5
-1783145.8
-1783106.4
-1783123.3
-1783185
-1782717.6
-1783928.4
-1787032.2
24596.074
17357.098
16697.459
16616.386
16747.727
17148.706
17301.698
17706.023
17687.558
18095.25
17860.42
18145.047
17809.697
18043.082
17521.957
17698.094
17319.585
17179.628
16811.574
16666.258
16320.285
15991.56
15734.03
15265.67
14941.919
14498.055
14091.5
13606.554
13113.623
12628.805
12002.51
11558.252
11014.566
10415.245
9872.8919
9127.7843
8648.0034
7898.2314
7316.5599
6655.3724
6005.097
5287.8685
4664.8789
4036.2555
3385.9363
2772.1086
2156.062
1590.5486
1016.4868
515.70428
11.362456
-434.39114
-849.45157
-1230.1669
-1557.3144
-1866.1189
-2106.452
-2327.5861
-2498.6919
-2626.4555
-2718.3383
-2759.9935
-2788.2015
-2716.9628
-2803.7798
-2293.7276
-1533.2285
-907.33389
-439.465
-551.04645
-166.86225
25.093986
403.65486
704.20585
1037.303
1405.6814
1807.5796
2177.5534
2631.5712
3107.7937
3505.0625
4133.0362
4850.7525
5225.0657
5679.4334
6242.7276
6867.4778
7392.3329
8426.3622
8228.8544
9956.4401
10147.643
11100.376
16097.504
23996.037
15066.352
10883.94
11974.873
11490.393
12023.714
12075.878
12399.926
12633.074
12913.037
13153.005
13346.964
13607.262
13757.385
13918.971
14014.751
14254.546
14108.38
14333.659
14266.426
14336.153
14185.552
14203.857
13997.266
13957.291
13774.051
13623.473
13332.109
13136.915
12850.878
12550.682
12236.631
11862.789
11381.503
10923.16
10450.148
9965.1517
9481.8621
8954.0968
8353.5224
7793.7913
7183.2234
6596.6315
5994.2474
5333.7472
4737.556
4146.3965
3534.6762
2966.0131
2401.791
1865.7146
1339.8101
852.06254
387.78278
-55.96775
-457.72173
-837.22675
-1176.7821
-1495.0174
-1765.1714
-2004.6976
-2221.8226
-2382.8848
-2520.9334
-2596.339
-2784.9371
-2509.7977
-1197.9452
3236.4414
4691.9493
5308.2441
5974.8217
6365.0753
6925.0119
7319.0826
7963.3399
8226.505
8964.6037
9083.0662
9912.832
9835.3637
10776.659
10590.28
11342.09
8053.8806
5723.9179
6008.3204
6988.1196
7383.6801
7676.1486
8593.755
8842.7
9114.5556
11514.401
13914.581
22201.922
9408.3903
6450.0234
7929.6174
7695.4353
8251.9209
8271.4639
8469.2286
8842.1643
9014.9867
9373.0831
9536.2822
9961.059
10059.215
10444.447
10573.514
10818.407
11010.272
11201.665
11286.494
11421.267
11520.122
11593.336
11669.763
11667.565
11623.1
11569.997
11497.153
11379.642
11192.309
11016.569
10774.583
10496.094
10233.862
9932.1911
9556.5376
9174.5278
8615.0641
8021.293
7569.9983
7038.4388
6431.396
5961.3379
5282.4705
4700.1076
4121.6048
3508.9815
2898.6019
2339.5195
1760.7276
1219.0798
712.67284
220.17499
-215.75761
-643.45167
-995.07285
-1340.7322
-1616.5213
-1865.5505
-2054.0559
-2214.6969
-2315.106
-2368.1209
-2385.4677
-2352.9233
-2301.2294
-1808.7391
-5055.563
980.33231
2098.0461
2468.3219
2754.7522
2946.4308
3360.2978
3625.4029
3967.7706
4319.9325
4663.2701
5057.1556
5374.915
5775.0093
6194.9714
6445.7469
7006.6322
7194.9389
4895.9947
5974.8908
6638.4897
6996.7144
8237.9846
8417.0852
9212.4057
10370.005
11115.477
13687.509
17300.52
6072.0346
4007.5107
4849.2142
5022.5373
5420.7394
5482.9599
5769.611
5974.6342
6086.2897
6335.3055
6567.3037
6814.9431
6948.0684
7308.7581
7330.704
7752.0844
7698.018
8062.0733
8051.7575
8350.3853
8333.238
8548.578
8494.2377
8628.5976
8603.54
8675.3304
8602.1568
8601.2519
8533.1706
8470.9428
8333.0996
8214.965
8045.3439
7818.0244
7585.1168
7316.3238
7093.4346
7066.9909
6541.2116
6151.9951
5823.7117
5403.4523
5029.1494
4641.3532
4239.9586
3828.5879
3448.9256
3068.8082
2683.9848
2340.8714
1998.9028
1683.3097
1397.3705
1127.0877
905.04829
690.66888
531.82614
392.45718
294.12907
233.13787
201.97864
225.51128
238.92134
383.29114
440.22201
723.22324
1182.3286
-1032.6091
-1130.2143
-838.21172
-131.54336
344.44596
155.23494
118.2705
622.67901
909.83782
1573.4214
1831.0351
2642.9614
2917.9851
3841.5217
4073.0874
5335.1822
5323.7302
8164.4416
9077.8481
10014.693
10706.196
11499.051
11624.767
13169.368
12377.049
13732.307
12649.084
11267.045
3988.2224
2157.7752
3031.4151
2893.3721
3405.3674
3370.6519
3626.7134
3654.2137
3819.6872
4014.1634
4097.0579
4285.7257
4406.7076
4590.0448
4676.3603
4878.5337
4925.3953
5136.8809
5137.8933
5319.0507
5320.4371
5482.1142
5482.0613
5648.0419
5616.0123
5716.7014
5723.8657
5756.1188
5732.5639
5726.6273
5692.3688
5672.1724
5574.9528
5545.6054
5367.3545
5275.385
5452.7653
5466.5091
4755.6384
4090.6979
3954.9432
3734.9267
3604.3898
3435.7157
3306.7721
3159.114
3060.7388
2938.4452
2869.5576
2807.3005
2779.2141
2765.8193
2801.7147
2839.3124
2935.4092
3031.6561
3184.6452
3341.6971
3543.7078
3755.072
4017.3597
4251.4095
4568.216
4865.2366
5194.5701
5495.3578
5977.369
6136.8126
6653.9197
7044.1921
7478.4675
7451.9199
7429.6795
5805.0633
5757.5984
6257.2969
6616.1483
7222.5432
7633.8633
8211.5791
8695.8428
9365.3288
9733.1039
10469.711
11084.875
11554.464
12528.202
12805.964
13720.573
14419.428
14965.063
14604.034
14489.547
12180.424
5827.9681
2337.3465
1246.6365
1617.0249
1578.9615
1774.9285
1917.9492
1892.6836
2013.4572
2021.7587
2110.8358
2088.9045
2289.2458
2174.76
2448.406
2284.4837
2582.841
2398.766
2721.8624
2563.2121
2850.1843
2728.825
2964.8057
2881.773
3062.8475
2987.4478
3183.902
3110.289
3260.1616
3260.8487
3361.1155
3386.1998
3417.7794
3470.3337
3477.6449
3469.9554
3573.1451
3177.3304
5142.2203
4874.3267
4490.836
4429.8381
4338.698
4222.77
4144.9145
3996.3448
3855.0627
3695.8133
3545.9763
3380.9925
3222.0708
3054.4283
2898.0845
2740.6146
2591.2333
2455.2729
2328.939
2219.0472
2122.5087
2058.2092
2000.6256
1964.7349
1992.8722
1976.32
2061.0939
2132.5971
2267.2939
2379.5964
2539.0746
2825.0755
3040.1689
3393.5031
3218.5028
3182.7862
6223.9825
7029.3651
7298.0633
7913.2957
8324.7386
9013.8851
9339.8394
10269.511
10325.371
11515.09
11595.731
12666.65
13128.326
14152.422
14612.473
16000.313
15829.129
16909.7
15908.819
16620.281
12546.032
3561.8101
1701.7568
301.30193
823.37879
402.35649
768.26989
612.76477
752.32037
669.23951
729.28183
698.42785
703.12307
716.98254
690.86654
754.67557
657.93983
804.41279
658.10991
813.47376
642.06852
837.82254
686.60504
920.09507
756.08342
974.21033
926.98156
1069.2588
1078.096
1240.5232
1245.4978
1413.2351
1437.6119
1608.2181
1682.078
1784.7035
1930.7783
1959.7702
2149.2831
1967.6807
2707.1038
2540.8251
2632.4363
2688.8456
2733.5616
2788.542
2807.9147
2837.2295
2883.6141
2897.0876
2931.7667
2949.0376
2989.0196
3011.4197
3062.48
3103.757
3173.5265
3236.8268
3335.3134
3434.4844
3567.0945
3696.1172
3890.3953
4059.7294
4281.8936
4540.3314
4792.9324
5109.4152
5405.1532
5791.2083
6151.4319
6503.4147
7003.2631
7387.188
7812.3722
9864.0648
10965.972
11423.023
11787.517
12393.474
12755.197
13401.812
13719.05
14287.54
14860.113
14960.337
15940.189
15733.79
16673.742
16595.022
17265.741
17206.115
18275.366
17660.628
18075.058
14447.224
5424.6638
1332.7752
113.94493
200.05245
43.910489
35.006389
69.356362
20.468396
-18.397922
-90.551566
-87.370789
-249.1679
-167.59924
-370.00441
-264.29773
-462.9787
-322.55392
-532.69739
-334.70624
-508.44669
-340.81658
-534.15912
-361.78821
-488.77442
-196.36986
-372.4627
-73.499769
-138.4408
96.180873
114.54902
332.98066
406.56679
618.49905
701.14179
930.36047
1047.5553
1242.7937
1389.8065
1624.7158
1773.3316
2002.3335
2148.4605
2336.0438
2485.0736
2657.4914
2790.1036
2981.1393
3130.8766
3310.162
3476.5505
3664.1996
3839.0134
4037.3546
4232.1248
4442.7745
4660.0851
4889.905
5137.8511
5390.7324
5660.7537
5956.9496
6256.3472
6566.1617
6916.3966
7265.065
7618.9933
8000.6656
8396.0148
8813.0144
9173.0002
9681.9791
10001.055
10467.07
10977.073
11207.384
11652.489
12026.304
12515.515
12883.846
13357.176
13641.48
14127.734
14365.208
14773.727
14942.311
15449.876
15356.332
16137.24
15907.883
16768.633
16531.202
17234.354
15907.377
17641.411
15853.216
8788.2317
1881.7899
300.3731
510.51192
46.57621
87.09348
-36.57447
-16.100423
-242.14942
-274.4852
-421.55754
-567.25125
-665.00239
-816.74187
-872.0049
-1078.3374
-1050.6606
-1271.2646
-1225.0953
-1419.5243
-1318.3808
-1387.5469
-1080.9287
-1161.2368
-1117.9338
-1139.036
-1002.5741
-1028.1607
-835.09532
-814.93221
-601.79235
-522.4718
-322.03317
-172.71592
47.602939
190.0501
455.49934
617.35965
876.87284
1070.8881
1324.7638
1570.6527
1811.285
2101.7731
2365.8462
2672.7037
2941.4184
3243.8623
3523.5871
3831.7814
4122.6192
4439.1915
4742.6295
5064.7764
5385.4081
5712.2854
6050.3347
6393.5118
6730.6513
7108.4991
7456.513
7832.1472
8221.073
8612.7804
8999.1298
9415.1417
9850.1754
10263.857
10683.444
11175.594
11560.342
12043.816
12547.254
12903.958
13478.672
13509.854
13276.296
13656.055
14063.793
14307.714
14811.906
14917.614
15371.698
15530.955
15691.758
16074.756
15734.874
16329.399
15520.386
15958.981
15266.033
15556.692
15646.273
17664.114
16356.316
12800.271
3294.4459
1587.1374
1692.1043
1237.7795
1348.2177
1264.5691
1204.4382
1012.926
916.44101
859.29692
557.17179
535.29165
276.77383
156.05122
-41.200951
-151.56334
-381.59543
-407.85569
-620.70707
-725.58758
-934.6458
-1021.1105
-1381.6203
-1337.8888
-1444.9176
-1313.6639
-1395.8667
-1178.0796
-1238.8836
-985.84471
-993.86344
-735.18794
-648.30477
-435.79445
-235.36119
-27.219325
193.73146
459.95358
671.39746
980.42848
1221.9964
1529.2383
1783.2089
2095.353
2358.8299
2682.4423
2984.9817
3315.5074
3635.7248
3981.1854
4318.4853
4667.2224
5026.3482
5385.6274
5751.8808
6131.8516
6500.0279
6892.8622
7282.4375
7659.3593
8074.5145
8465.5501
8852.8208
9266.0906
9672.8839
10058.377
10437.475
10877.107
11201.234
11617.034
11998.239
12307.429
12745.123
13381.631
9680.7423
5694.3395
5889.8584
6041.9162
6317.8358
6292.3414
6663.192
6771.8971
6921.1852
7326.5593
7288.0704
7697.2291
7881.1596
7938.3427
8651.8921
8191.5855
9536.1119
9236.7961
11055.364
11522.254
16152.299
3475.7396
3105.3996
2991.1385
2677.3402
2897.4561
2606.9231
2590.2226
2337.7626
2321.1958
2081.2768
1839.1798
1706.5322
1429.6604
1185.9734
1037.3963
649.70558
655.11799
189.72582
273.5943
-170.81172
-40.46529
-254.69506
-770.05372
-1162.7087
-1222.4944
-1402.5592
-1360.5503
-1455.7965
-1423.8201
-1387.5813
-1367.1989
-1202.195
-1185.3642
-959.43323
-884.56412
-669.59651
-490.04904
-284.6843
-33.832706
180.6413
472.0325
700.88307
1030.7782
1307.2816
1646.5704
1955.006
2307.2737
2628.3391
2993.4157
3341.3438
3707.6469
4073.7974
4453.4203
4826.9513
5213.7963
5598.8173
5988.086
6383.4012
6771.1195
7170.1446
7573.9248
7950.6715
8364.1218
8767.0206
9139.989
9542.9417
9945.5796
10290.763
10698.381
11076.173
11400.546
11822.009
12154.534
12470.573
16189.18
9316.8888
9880.6804
10224.836
10341.982
10777.473
10892.012
11242.946
11434.891
11727.055
11887.992
12180.196
12347.426
12380.122
12723.237
12447.344
12849.416
12396.354
13805.495
14348.96
19743.148
9023.4422
5813.4578
6372.0061
6056.9687
6166.9513
5819.4605
5779.4518
5509.1647
5343.4172
5029.499
4708.9075
4362.411
4026.5035
3476.0721
3201.4075
2643.3459
2311.6777
1786.3576
1502.6335
985.47922
800.47376
316.0335
287.46243
-220.5586
-501.58389
-704.12243
-905.91709
-973.06433
-1142.5883
-1139.9666
-1221.6936
-1184.782
-1189.5619
-1097.1922
-1030.0124
-866.98497
-753.76497
-536.95168
-383.03611
-116.56849
83.490718
389.71679
633.86158
957.34787
1244.6759
1583.6315
1918.4011
2269.9671
2636.7142
3005.4386
3387.4129
3769.9503
4162.8423
4550.2676
4944.7568
5333.6918
5724.3052
6102.8411
6483.5126
6857.1698
7207.1535
7567.5259
7903.6845
8223.3551
8499.995
8861.9521
9082.5851
9425.0803
9678.8287
9880.4467
10167.757
10342.376
10561.953
10794.193
10462.971
12954.382
13908.35
14039.045
14219.515
14259.766
14305.04
14393.554
14250.149
14373.076
14037.893
14266.552
13636.527
13950.241
13432.652
13182.824
13216.979
12367.524
12679.475
10673.984
15985.494
13434.951
11450.979
11297.862
10619.208
10546.218
10049.758
10177.462
9575.8308
9569.8384
9049.3186
8625.0298
8173.3504
7507.7606
6915.8679
6367.4423
5562.6498
5101.4587
4268.3231
3836.3349
3001.7997
2741.836
1837.5211
1929.9954
1212.3732
1171.4412
427.23731
410.87218
-81.283144
-214.52821
-438.08444
-626.86782
-698.0942
-823.87692
-836.95212
-880.78031
-877.6661
-822.21449
-793.90778
-656.95855
-601.84678
-412.42027
-301.97785
-101.0223
69.760178
284.91572
486.61605
727.3031
944.68731
1199.3428
1439.5592
1697.7667
1952.0324
2216.7987
2477.6285
2742.1058
3011.1621
3273.4057
3539.5386
3807.2561
4064.7748
4325.7588
4591.8023
4833.8411
5117.0071
5341.7261
5685.1896
5814.4283
6145.1157
6286.86
6580.3555
6758.8902
7087.1656
7195.3764
7499.1198
7720.0476
7961.5235
8180.4162
8453.4826
8572.6928
8845.1668
9036.757
9223.7914
9473.7833
9654.3049
9927.6306
10143.811
10353.541
11005.802
10713.809
11945.38
11728.459
12130.083
11221.89
8121.9488
12028.995
18996.614
15497.602
15146.521
14262.144
14664.407
14399.416
14413.754
14279.714
14152.635
13718.192
13273.675
12696.667
12138.913
11368.007
10789.412
9859.5564
9316.1231
8380.5262
7875.5612
6981.3982
6508.2401
5595.2514
5177.0343
4311.0749
4013.2007
3330.5529
3070.8749
2511.9672
2249.8741
1872.952
1625.6648
1371.3928
1165.0122
1031.7457
850.8864
770.00726
693.01072
676.90024
629.80744
685.29336
704.06243
785.16146
861.13313
974.66974
1093.9172
1231.9153
1387.8052
1541.915
1720.68
1889.4885
2075.5796
2248.5814
2436.4786
2602.1699
2778.3102
2935.4663
3086.2499
3227.9801
3351.6641
3470.9432
3563.91
3663.6763
3715.6249
3798.6022
3777.8822
3924.09
3808.9646
4071.5937
3913.0784
3966.1617
4103.8328
4011.7995
4162.541
4174.9376
4268.0801
4311.2383
4460.0309
4588.778
4708.1842
4973.8342
5055.4392
5428.9639
5543.4849
5994.4644
6149.2695
6676.7887
6995.2244
7526.9055
7900.3284
9080.3791
8881.6538
10539.069
10273.32
7527.4225
11347.627
22926.906
17345.897
17531.094
16113.747
17411.853
16458.638
17035.685
16842.801
16615.636
16317.109
15654.413
15214.681
14536.752
13705.907
13233.902
11987.81
11709.773
10389.617
10199.75
8880.4079
8840.5727
7405.0379
7435.2177
6073.5308
6075.0053
4993.8759
4874.5535
4057.2541
3858.9318
3341.2591
3047.7421
2635.1936
2378.649
2054.2422
1759.5686
1535.1654
1424.4588
1159.2488
1077.9838
897.69925
817.11375
702.22555
642.30755
566.25965
529.59303
481.14006
467.87379
444.54475
446.35632
451.81313
462.62696
490.62992
520.68163
562.12005
613.51314
674.96036
746.7327
832.08264
929.77435
1041.3507
1171.2997
1319.5315
1484.6103
1665.421
1854.5129
2099.1168
2176.9196
2634.4058
2739.3177
3479.8439
3488.0745
4180.1713
4370.948
4916.5705
5343.4367
5877.8647
6341.9776
6928.2792
7499.5601
8066.4493
8698.4635
9331.2297
9966.9287
10650.479
11325.585
12068.584
12711.042
13573.943
14301.405
15105.967
15958.417
17249.56
17200.334
18784.969
17782.513
14536.254
13690.942
11193.244
10727.583
10486.726
10482.425
10181
10396.167
10497.822
10626.724
10442.392
10387.04
11426.782
12205.529
15569.253
9037.5162
7177.6228
5979.0937
5957.6939
5377.9722
5311.8938
5094.7096
5168.1038
5352.7432
5225.0405
5357.9087
5581.4487
6009.7482
7067.0711
9322.9286
5403.3862
3772.3365
2432.6187
2200.6108
1821.0933
1753.174
1715.2557
1606.7587
1647.0988
1697.6005
1879.4677
1980.8293
2414.6208
3508.6688
5672.769
3691.9284
2735.7396
1960.2488
1548.0703
1415.0303
1285.5206
1251.1255
1174.1176
1284.1422
1316.3046
1433.9819
1548.7189
2110.9651
2700.0651
4044.598
2568.7007
1792.8819
1072.9327
859.75403
651.45932
581.70034
532.32826
539.79834
505.69554
558.24099
622.6252
813.69235
1110.7295
1536.9338
2715.6472
2259.3837
1476.2507
957.38018
826.78152
666.80229
608.09904
563.32925
562.02739
573.95535
599.82582
700.60535
769.79993
994.14152
1434.3773
2277.1618
1402.1736
927.37278
613.5159
433.17159
368.18926
285.31563
260.95056
229.57199
239.74074
272.63706
310.40328
442.15679
600.6674
985.07932
1591.9276
1343.2421
796.87648
475.0721
378.68053
271.5028
235.72742
205.87416
199.36951
233.22539
229.53166
313.27946
396.11585
551.57074
878.64366
1578.8261
1387.0221
879.71206
503.34464
356.55884
237.85343
170.35333
141.14712
150.26597
141.5107
234.64618
247.91489
413.25473
577.91387
1090.3331
1695.8891
2569.7874
1788.9716
1074.5797
872.22311
652.21545
595.34723
550.72707
533.11861
561.23591
572.5233
805.11608
819.99899
1336.6833
2169.0595
2994.013
3791.8975
2957.6798
1857.5405
1618.8966
1226.9176
1197.2164
1060.8328
1115.6575
1094.089
1178.07
1407.4369
1737.2765
2354.8513
3563.7107
4449.1434
7222.8347
4916.3761
3782.2889
3086.9696
2800.4409
2508.9738
2477.9482
2400.1759
2477.9584
2604.2718
2923.5685
2912.3892
4200.3543
5818.4916
7346.0823
9653.7543
8097.9106
5972.6168
5482.7067
4736.0152
4757.8856
4418.8843
4589.9443
4626.6507
4556.1328
5040.2393
5313.8245
6440.0368
8831.4051
9653.4133
14682.585
11773.454
9596.5182
8933.2455
8382.5425
8220.7091
8311.9912
8389.4948
8279.3321
8210.6964
8327.1508
8696.9128
9647.6932
11543.226
14222.14
16946.475
17278.246
13509.917
12977.008
12182.365
11588.144
12153.648
12663.819
11762.445
12382.118
12181.998
12700.162
13843.121
15853.181
19446.074
39771.921
34557.262
34012.68
35523.688
36335.269
36099.249
38116.42
39946.07
40371.944
40114.391
39055.854
36992.766
36711.864
37689.183
36057.701
28914.05
24547.073
24673.407
23303.402
22689.383
23436.233
23181.583
23628.246
25147.613
23449.448
23976.282
23182.828
24727.596
27096.246
29881.195
24333.924
25528.478
24043.427
23793.816
24462.249
22051.284
22057.37
22370.743
20832.156
23288.32
22762.8
25530.115
25686.827
24753.072
26045.726
21756.19
24031.315
23949.462
22398.452
22466.325
22254.493
21706.74
22027.771
22109.922
22021.483
23123.176
23675.652
24144.336
25135.401
22267.445
24437.996
25767.385
25873.444
27180.18
25758.53
25919.09
26275.498
25992.539
26531.539
27313.533
26931.239
27497.456
26773.862
25887.412
25721.349
22084.77
23980.929
23952.674
24109.911
24590.822
24426.821
24104.793
24096.924
24186.17
24018.66
24873.819
24934.172
24601.309
24884.353
22363.899
22806.132
24423.426
24998.898
25621.623
25500.24
25936.37
25948.669
25996.529
26147.037
26311.627
25872.295
26121.037
25702.683
24359.676
24559.484
22526.414
23053.141
23636.223
24251.955
24709.656
24460.863
24658.245
24897.01
24538.452
25201.937
24962.384
24785.135
24529.549
23172.372
22744.866
21716.692
22861.066
23606.946
24473.864
24350.178
24918.246
24918.793
24984.981
25387.863
24766.216
24872.221
24386.718
24070.018
23356.186
22705.168
21509.516
21555.589
22128.881
22420.136
22793.721
22801.855
23018.643
23173.102
22681.523
23573.298
22627.499
23044.942
22331.171
21984.211
21775.145
20424.494
21134.619
21536.136
22269.527
22592.117
23050.922
23129.808
23172.977
23362.592
22818.69
23426.667
22719.707
22642.788
22021.887
21914.529
19730.57
19753.687
20658.353
20772.825
20957.918
21093.622
21116.03
21157.099
20866.759
21153.305
20694.03
20731.887
20352.546
20015.641
20254.401
19043.512
19297.333
19179.452
19971.232
20162.65
20456.629
20786.022
20654.484
20977.385
20818.246
20934.031
20576.147
20451.946
20199.286
19971.865
17929.474
18167.344
18484.166
18630.439
18935.211
19199.983
18957.005
19226.597
18753.425
18737.856
18408.65
18453.813
18196.216
17922.975
18423.907
17299.402
17230.522
17532.883
17983.768
18170.581
18024.482
18142.176
18329.728
18745.34
18688.401
18976.021
18694.693
18715.109
18611.826
18410.577
16053.72
16361.89
16316.889
16945.468
16467.422
17202.004
17108.553
16898.838
16574.096
16652.996
16207.955
16228.66
15639.832
15832.658
16430.987
15270.303
15136.346
15500.626
15565.429
16206.938
15849.528
16107.267
15969.945
16386.488
16281.624
16657.824
16425.042
16883.857
16317.189
16699.843
14399
14422.816
14280.493
14317.729
14469.018
14945.663
15028.176
15060.073
14695.835
14830.64
14408.494
14437.564
14306.509
13951.403
14305.163
13566.42
13363.543
13623.407
13914.039
13856.833
13704.191
13775.658
13831.089
14034.44
13964.138
14269.114
14125.102
14248.05
14454.136
14754.023
12182.988
12399.893
12353.5
12657.363
12678.562
13152.212
12699.773
12943.747
12897.01
12986.902
12544.837
12847.52
12599.261
12474.713
12585.561
12013.099
11530.589
11723.61
11648.488
11881.583
11645.015
12132.367
11963.475
11950.6
11824.301
11993.421
11903.896
12259.565
12216.244
12670.767
10399.164
10710.78
10508.506
10931.218
10719.766
11134.594
10716.011
11137.173
10881.99
11217.477
11025.659
11199.359
11045.46
10566.621
11201.12
10293.789
9633.8468
9939.1938
9805.9598
10128.431
9878.6283
10216.328
10028.845
10156.368
10094.164
10181.132
9938.5587
9898.892
10104.554
10256.432
8909.9784
9043.9413
8871.3739
9251.3909
9033.0911
9313.0599
9068.8714
9209.2051
9147.7854
9270.9131
9080.009
9408.0724
9418.4167
9168.5013
9537.7181
8527.7495
8259.8942
8153.013
8196.8951
8443.919
8120.7553
8525.2137
8395.5243
8447.5435
8417.1907
8309.125
8341.5701
8280.0109
8235.559
8527.1862
7373.0264
7492.4383
7478.608
7452.1394
7383.4067
7667.3228
7461.1405
7602.1326
7528.1522
7586.1157
7850.516
7715.7664
7728.2488
7764.2037
7922.7879
6839.4658
6751.337
6731.9837
6812.1308
6979.2704
6832.83
6954.4917
6941.0363
6911.4577
6960.422
6907.685
6935.3964
6901.798
6652.5844
7127.4264
6072.7083
6107.5595
5842.8468
6084.2387
6215.804
6130.6567
6133.6421
6154.9158
6238.5866
6190.17
6259.2563
5972.5951
6310.3987
6342.8816
6416.0344
5438.202
5492.3832
5779.2894
5445.946
5457.351
5440.5312
5559.3517
5568.04
5677.4655
5602.5894
5657.7333
5730.0401
5541.5551
5328.558
5817.6975
5062.8552
4736.2911
4713.1107
4942.8533
4928.6499
4967.279
5000.7503
4953.2594
4888.9276
4896.6959
4929.2627
4871.5317
4723.9218
4927.7777
5097.4968
4294.9324
4346.8494
4418.0345
4411.9926
4353.9273
4647.1364
4429.6565
4350.4592
4183.5892
4392.3913
4480.8379
4401.2074
4564.32
4271.554
4604.2767
3973.5332
3828.8199
3858.9545
3862.1946
3921.6328
3781.6012
3878.5737
3934.5971
4029.897
3953.4725
3858.806
3932.4787
3890.3926
3864.5959
4167.9564
3528.3692
3374.5209
3444.9192
3488.9712
3503.727
3447.2411
3528.9055
3427.589
3549.8986
3475.2952
3572.0126
3477.4034
3531.4239
3396.0847
3704.979
3193.597
2992.6225
3049.2711
2936.1774
3095.2433
3107.0962
3091.6668
3143.3373
3089.687
3128.3896
3070.5497
3138.4153
3078.1897
3056.5999
3379.1282
2682.0871
2673.8563
2886.2958
3009.7734
2864.7371
2762.2929
2841.343
2793.0432
2854.1975
2957.3591
2931.945
2836.6653
2900.6561
2827.4455
3076.9773
2759.7959
2509.9639
2439.4544
2763.2104
2417.6188
2463.9293
2545.0448
2463.9533
2676.4671
2188.5364
2567.7167
2465.9419
2583.377
2333.7075
2790.9416
2689.7244
2011.901
2202.8871
1971.5037
2360.6761
2150.2845
2344.6573
2182.7328
2258.7416
1951.1972
2172.1867
2330.8785
2223.9414
2278.532
2474.7466
2011.325
2029.6012
2177.9804
2194.5214
2120.4371
2172.6141
2137.6404
2157.7647
2172.3297
2329.748
2244.8788
2079.1866
2214.299
1990.7147
2407.9146
2258.954
1833.3884
2073.4334
1931.7965
2137.7613
1950.9204
2123.2112
1985.6654
2077.6488
2041.4717
2045.4184
2101.2866
2039.1936
1947.3416
2370.6023
2116.056
1839.1434
2000.5489
1991.6837
2019.7362
1971.9953
2045.9506
1945.3611
2071.9199
1952.1941
2051.8282
1964.0801
2004.8127
1909.0846
2295.7106
2221.6814
1811.3534
2086.8014
1929.6738
2104.156
1942.7557
2081.6655
1979.6686
2055.3123
2015.5459
2037.7586
2012.7069
2053.3075
1900.8691
2347.1989
2276.6587
1907.2112
2116.3462
2045.7812
2159.1403
2027.6896
2182.0994
2016.0257
2168.9736
2060.2504
2114.0543
2106.0195
2098.7209
1988.2859
2447.5924
2481.7462
1993.5597
2320.1223
2157.6414
2318.2954
2172.6756
2301.5192
2182.3065
2293.4332
2203.3949
2272.4187
2221.9985
2248.9909
2121.2513
2601.1974
2666.4147
2210.8466
2497.8406
2333.2846
2509.1164
2331.6288
2514.191
2349.5826
2478.5435
2407.4553
2432.8826
2430.5468
2433.8144
2309.311
2816.6772
2989.1254
2435.8241
2788.3414
2596.6113
2769.8266
2615.6131
2784.6144
2611.4009
2759.2992
2655.1036
2703.1649
2690.5806
2686.2029
2566.169
3094.6273
3313.6273
2746.279
3115.5633
2868.3642
3074.1085
2896.4604
3082.2636
2908.2712
3042.4749
2969.4579
2993.7034
3000.5929
2989.0901
2875.613
3428.7279
3733.6019
3112.0336
3499.3497
3248.8783
3467.5687
3291.3503
3497.9651
3284.0833
3446.9994
3351.3995
3367.1079
3383.051
3355.1846
3243.1972
3815.5596
4208.1951
3529.9016
3957.9805
3658.4397
3882.7248
3698.3686
3899.0225
3687.3538
3852.5145
3759.5003
3776.2235
3806.2761
3770.5822
3671.1498
4269.7808
4724.4482
4014.193
4455.9186
4130.2343
4390.011
4201.8584
4434.7288
4196.3455
4370.727
4267.1508
4274.2093
4300.6726
4254.167
4151.4381
4769.405
5327.0455
4555.4234
5021.9741
4674.8064
4934.4199
4727.1464
4951.3444
4691.1115
4880.893
4774.2418
4782.8542
4822.7892
4779.5175
4677.8938
5332.1439
5957.7424
5140.2503
5641.0285
5254.4322
5535.3427
5329.1909
5581.7242
5317.2798
5519.4476
5394.9438
5397.9005
5433.1362
5373.1732
5268.19
5941.5237
6657.914
5799.4663
6307.6871
5898.5691
6200.7835
5972.22
6219.504
5920.9655
6127.2749
5994.3532
6006.6707
6043.6514
5996.7631