/*--------------------------------*- C++ -*----------------------------------*\
  =========                 |
  \\      /  F ield         | OpenFOAM: The Open Source CFD Toolbox
   \\    /   O peration     | Website:  https://openfoam.org
    \\  /    A nd           | Version:  6
     \\/     M anipulation  |
\*---------------------------------------------------------------------------*/
FoamFile
{
    version     2.0;
    format      ascii;
    class       pointScalarField;
    location    "1.74";
    object      E;
}
// * * * * * * * * * * * * * * * * * * * * * * * * * * * * * * * * * * * * * //

dimensions      [1 -1 -2 0 0 0 0];

internalField   nonuniform List<scalar> 
625
(
10431.931
898.33611
33444.132
11753.297
7866.9336
8129.7285
12115.788
29133.583
1451.7687
-568.83328
-285.94842
210.88549
-9087.5537
47952.321
12982.884
9137.6916
9728.965
11597.859
10339.831
14288.342
15380.973
14873.911
16334.12
10636.006
6163.0784
-3179.2522
-13603.595
-28171.08
-42058.562
-57844.256
-70459.465
-81014.87
-80367.014
-76361.589
-61121.108
-44764.732
-8198.2262
12581.115
-763.87014
11313.373
3861.2482
-3320.413
-1146.6101
-11589.53
-11601.406
-12675.008
-12061.906
-4098.2678
4583.5234
20174.635
39047.038
62522.418
87284.282
112435.55
132675.27
146808.11
148818.46
137887.64
116218.02
71501.802
1225.5465
897.42502
4001.8425
21337.951
32825.701
5523.9276
10528.346
10816.752
-7292.3842
-7588.4751
-8478.128
-12926.188
-9173.1925
-8191.6246
4267.5069
16798.485
36830.513
60178.949
82526.887
105358.09
120396.84
128646.72
125596.33
112269.08
88783.868
66385.409
37273.196
-5422.4099
223.8722
-65.797369
-15125.371
-28154.873
-38824.978
-43654.888
-42292.584
-38406.421
-30792.213
-23023.848
-14952.384
-8831.3346
-2667.1569
543.03152
6213.0069
3471.4384
3186.5345
5363.6572
4611.2261
4753.6776
-1899.1843
8866.5763
2236.4963
11106.786
7085.4733
6075.525
3135.1233
1993.0617
1583.8319
1744.0229
10362.72
12200.347
10645.242
31522.924
32783.063
31503.323
6342.5919
1992.7406
1628.1415
-1095.8446
-4820.8074
-5651.1547
-10256.041
-11184.561
-12768.156
-11977.427
-7340.4487
-1161.0914
9339.3776
22750.293
38991.673
55902.523
72789.824
86213.775
95033.74
94489.304
90288.775
74072.433
45640.781
1787.7349
1280.5835
1926.0564
-595.81759
-520.67259
-2215.7344
-4423.8301
-3294.3232
-3251.5346
655.98817
3439.2463
8980.0869
14861.283
21068.208
26816.838
31736.431
35437.221
36423.168
37302.972
31523.429
27756.949
17415.261
7645.3479
1724.9531
-1335.2422
456.19209
2462.8808
7490.3188
8565.8629
14885.868
15103.421
15277.677
13510.597
7016.8527
223.37113
-11789.676
-25191.203
-41632.2
-58180.14
-75192.482
-87127.571
-96454.969
-92262.51
-80399.652
-56876.306
-14006.82
445.60933
472.8094
-239.32339
-345.27121
-508.09393
888.16819
152.25513
-58.860375
1361.7134
14031.915
18727.917
19453.447
18362.742
16452.755
21106.45
6733.0378
3818.6253
12615.558
4159.1023
6586.5249
3828.4627
3537.2629
-1704.1866
7488.2313
-4506.8719
-1773.9387
-4226.2006
-4882.0734
-10468.335
-5474.1594
-8767.1438
-15594.634
-8840.464
-11274.151
-14244.78
-12553.386
-6732.2177
-13952.399
-7935.0105
-3704.4821
-7293.977
-5104.7947
9503.6833
3048.6662
7243.7782
23619.533
20142.738
23434.728
45678.489
41660.332
43790.522
69215.529
67528.506
70020.569
95176.08
94746.737
95529.485
119196.24
119910.46
120211.74
137611.58
138990.72
139161.19
148009.83
149759.87
149343.24
146462.21
147224.1
147167.28
132252.97
133311.59
133437.66
105868.07
107875.22
108368.95
71154.902
69821.176
72002.426
-1267.3865
-294.84745
-293.37417
-3923.4593
-4941.1365
-8977.8113
46495.522
46180.096
44214.969
12448.641
10224.151
7593.1957
9741.4792
4959.9934
5539.525
13478.167
9909.8674
11135.001
8989.7162
6290.6622
3788.3385
14078.038
11017.671
10407.528
12387.288
7985.8886
8948.4934
13600.888
13215.835
10979.825
13873.593
10631.182
11106.964
12394.308
11655.392
10739.182
9364.2096
5999.6254
10217.86
4663.088
4506.468
6136.9175
-983.92499
-3780.4167
1589.5163
-10775.206
-11893.263
-6038.1413
-21038.346
-23496.92
-15548.079
-33326.872
-35417.093
-26498.15
-45955.547
-48360.52
-38620.249
-57224.582
-59431.597
-49202.479
-64715.569
-66947.028
-57855.337
-67284.691
-71017.137
-60297.406
-61988.759
-69257.216
-57949.418
-47055.953
-54529.423
-46114.924
-34264.228
-35319.815
-32277.552
-4354.5359
-4562.3863
-3398.5778
5288.4501
1808.3375
-820.64531
-163.52443
-4174.7122
-5663.3536
-6879.502
-10070.628
-10860.23
-9482.7505
-6676.2874
356.95334
9282.754
21695.167
36398
51752.956
66049.087
77503.34
83238.515
83593.415
76316.921
60373.2
51818.593
887.41215
5868.853
-850.92335
3358.1874
-185.73663
2671.2095
1554.4218
3684.7594
7166.9711
8656.9634
10237.903
11843.473
9081.0916
6683.5846
1223.4104
-5438.5815
-12375.657
-19841.075
-25760.855
-29995.264
-30712.715
-29991.894
-12170.29
7002.7669
-22.258299
6902.5886
2927.7775
13631.798
17699.375
17584.383
25380.984
19516.168
19160.376
8500.0881
-1908.0154
-18016.779
-35998.33
-55487.09
-74483.814
-90369.376
-100947.4
-102951.82
-94880.543
-76192.83
-45920.132
-7600.8721
6417.2997
5603.6534
4852.8062
4128.707
3174.4267
1934.7957
2010.8842
287.06296
807.88171
341.92127
586.24825
-646.3596
-1130.7608
-3791.8678
-3307.2962
-3765.8691
-4555.106
-5311.7879
-7302.2251
-8382.832
-7887.0549
-7695.8378
-8492.6184
-9005.804
-9103.0711
-11801.176
-11289.66
-7681.1247
-8556.8454
-8124.1834
-3351.7418
-5518.7285
-5775.8195
3224.8917
1686.3778
2565.0058
14898.303
12457.928
12743.939
28948.892
26202.033
26937.436
45551.92
42283.151
43107.821
62822.451
59615.187
60423.091
79142.464
75545.085
76545.16
91678.478
89225.683
89137.309
98920.08
95461.477
97262.342
93893.838
100821.62
96475.944
88525.901
92513.222
88443.365
73070.527
71571.661
71067.987
48719.966
49647.727
50211.124
1048.4058
1283.4365
1377.6999
3523.3025
5283.5295
5590.1066
1673.6041
-1502.1967
647.69861
1893.0131
1685.2633
3570.9392
2216.5311
-2224.5079
-479.11766
511.99061
-2466.7217
509.34062
1684.8666
-2603.148
23.39196
2869.1282
-1650.3259
-59.977814
3287.8036
168.16941
2679.5384
6854.2257
3756.3804
5437.6492
9041.7516
6565.1303
7809.1238
11514.262
9810.102
10696.367
13720.269
12870.916
12247.427
14580.707
14118.962
12699.003
15486.522
15096.625
12692.168
14795.612
13945.666
11108.155
13784.43
12522.181
9120.5496
11117.252
8701.1257
5982.95
8886.4695
5642.6653
3000.8996
3462.3948
1932.35
-1396.0667
-6990.8563
10636.693
-2407.2034
-5730.2271
-8856.1927
-9358.5893
-5320.3488
-7376.2163
-6646.7204
4340.3117
5212.8602
6411.7618
-1924.6187
-2587.3758
-301.32987
2638.0183
7201.0499
7926.5737
7069.4383
5764.4111
5971.1692
9369.0368
13048.632
12270.086
14310.834
16397.913
16163.866
19162.194
20528.537
19320.488
18510.874
22662.753
21954.799
20547.33
21480.788
21564.267
16134.22
18769.467
18288.385
9722.518
10367.578
11241.894
558.44686
-74.406257
1077.4401
-12653.285
-15439.404
-12136.756
-27443.847
-32435.951
-28311.06
-44499.538
-51975.973
-45886.57
-61819.116
-70447.548
-63443.453
-77328.22
-86861.435
-79247.275
-89129.495
-97821.882
-90283.733
-94329.389
-100808.73
-95013.95
-89139.995
-95081.595
-90022.276
-76193.421
-77957.784
-76061.336
-49654.373
-49647.52
-48746.494
-10344.777
-10122.775
-8812.1354
)
;

boundaryField
{
    free
    {
        type            zeroGradient;
    }
    fixed
    {
        type            zeroGradient;
    }
    freeTop
    {
        type            zeroGradient;
    }
}


// ************************************************************************* //
