/*--------------------------------*- C++ -*----------------------------------*\
  =========                 |
  \\      /  F ield         | OpenFOAM: The Open Source CFD Toolbox
   \\    /   O peration     | Website:  https://openfoam.org
    \\  /    A nd           | Version:  6
     \\/     M anipulation  |
\*---------------------------------------------------------------------------*/
FoamFile
{
    version     2.0;
    format      ascii;
    class       pointScalarField;
    location    "0.55";
    object      p;
}
// * * * * * * * * * * * * * * * * * * * * * * * * * * * * * * * * * * * * * //

dimensions      [1 -1 -2 0 0 0 0];

internalField   nonuniform List<scalar> 
625
(
763810.22
-1166771.4
1796.2557
4819.6123
1394031
-2315555.7
2742.9355
-506.91173
517112.26
24752.678
-144967.86
-3296.227
-1289.001
1450.0906
363538.55
356321.41
354623.11
334977.57
289137.62
278088.8
246198.28
221433.92
216617.33
186999.92
179438.86
163553.82
150568.84
133653.36
116629.47
97686.416
78095.592
59693.987
42002.696
26157.007
14208.058
3435.6622
685.51467
-395063.2
-234174.25
-336342.57
-262001.54
-251701.16
-253536.21
-227396.83
-216548.58
-209093.79
-194057.32
-183748.15
-168090.25
-156221.6
-139200.43
-122410.98
-104601.72
-86057.279
-69377.581
-50874.088
-37802.819
-22379.176
-10875.083
-2794.4686
805235.41
-75373.943
-342604.26
-402931.94
-530380.73
-401589.99
-364141.37
-438143.14
-355357.93
-343719.14
-338618.72
-318043.8
-294492.93
-260734.31
-232395.69
-195715.8
-164380.27
-134911.19
-104372.23
-80965.091
-58742.528
-39974.93
-24950.924
-12083.041
-2639.3577
2712.2791
2071.3172
-1416.0029
-2609.1229
1799.2144
8085.8967
18413.434
31616.821
47089.804
65693.87
85530.283
106934.55
129007.4
150464.15
171615.95
192717.14
210644.65
216395.85
263640.51
267425.75
288216.64
292795.06
348697.43
311853.79
371859.04
375784.98
345100.82
830221.14
796732.17
718387.97
-1285661.8
-1260369.3
-1258342.2
6314.5273
5009.2438
7456.6847
-468.60843
-1058.0739
-296.42679
152719.39
181463.65
195468.88
177446.22
177780.9
181818.33
163011.47
161998.76
147343.64
136935.98
127167.97
112888.1
97440.166
81215.872
66039.373
49785.643
35982.565
24134.452
13988.167
8542.0652
3401.3834
1753.047
996.22749
-26240.561
3582.4189
-17977.579
5908.6156
-6324.7177
-3977.8284
-10251.639
-8373.0778
-13942.475
-19747.154
-22370.396
-26160.136
-27664.926
-26526.049
-24517.311
-21449.331
-16943.054
-12154.185
-8414.0047
-3859.2559
-2678.6384
1081.2706
447.34529
-255641.63
-228673.46
-222243.01
-195455.75
-229261.21
-188367.74
-192799.08
-173785
-161603
-144375.69
-125836.31
-108997.25
-92660.168
-77892.45
-65302.215
-54163.552
-44074.286
-34585.425
-26981.975
-17413.906
-11038.646
-6291.8036
-2641.828
431572.26
404738.91
457079.22
-20721.253
6242.9343
-39446.308
-129991.48
-177062.68
-267135.21
-558685.03
-560889.87
-586989.17
-451761.33
-416262.06
-382817.52
-396027.71
-364367.91
-375879.82
-330954
-323737.58
-323397.92
-340611.18
-335890.43
-345025.56
-322456.42
-310615.36
-309462.58
-306773.31
-298318.48
-321535.03
-293346.46
-282138.45
-295041.31
-272801.28
-263864.78
-276998.06
-250461.11
-243203.02
-257447.98
-224402.4
-218991.25
-231194.89
-199625.62
-195298.8
-205921.7
-171689.35
-168588.82
-176133.63
-145438.6
-142100.42
-147829.37
-120113.64
-117348.78
-122181.17
-97078.093
-94641.96
-96837.926
-76783.671
-73133.676
-74776.008
-58044.46
-55075.24
-56176.564
-42300.346
-38987.282
-39173.948
-28228.562
-25088.972
-25339.374
-15487.914
-13713.708
-13639.295
-4824.8047
-5666.4488
-4507.8484
-2098.2297
929.81911
-1176.3601
-3067.7915
-3154.3326
-3757.8183
-1678.9402
-2005.7769
-2812.024
1187.0412
2141.0777
1994.4487
412113.77
423349.11
425622.78
402570.21
381094.88
359879.41
396386.54
376112.83
380556.64
338848.57
313617.35
326036.37
322594.11
318238.71
295684.83
312926.91
257437.36
284878.82
274998.82
251799.47
264849.67
266632.26
228256.66
241652.83
237291.96
213841.03
222101.34
228353.89
192472.39
215215.31
208889.41
179709.96
196560.69
192199.06
160641.23
184307.96
169538.48
147334.05
167768.12
150176.17
131028.32
149574.3
127417.49
114335.67
129332.19
105219.02
96231.845
107919.46
82817.943
78274.453
86078.123
62485.161
60366.375
64971.862
42501.582
43102.807
45262.686
26884.022
27219.416
28431.735
13512.05
13768.622
13941.341
3452.2521
3504.8088
3708.8457
859.66037
644.08962
142.32055
221122.12
267403.57
225146.1
234446.27
244160.8
210743.89
201959.31
186735.94
165447.02
145924.54
133035.37
109180.75
90094.341
73653.014
58202.76
45516.48
34822.245
26361.914
19485.577
13712.183
8531.2363
5211.1123
1804.5016
-41802.309
603.66914
-25969.397
-5984.944
-8879.1586
-29575.651
-22302.869
-23370.094
-24738.036
-16837.021
-6861.2868
467.65526
10138.831
19169.184
25646.378
29461.656
30047.632
28322.884
23655.66
18019.031
12132.572
5970.4193
863.26409
-208955.57
-208667
-242409.18
-211015.09
-191437.53
-180674.64
-145445.17
-134369.2
-114306.11
-102481.45
-93760.278
-86302.106
-82538.608
-74814.08
-70030.982
-62527.693
-53939.283
-45068.481
-36334.648
-27145.978
-19624.262
-12158.158
-6760.5285
270035.44
261497.84
232618.2
262992.22
240128.71
227225.72
208005.34
188919.69
232441.74
205060.76
229992
187906.52
238287.81
180629.49
207746.77
185843.52
197094.33
211695.92
196398.47
194504.5
188727.88
182485.57
170304.17
180723.4
159910.18
156999.98
171962.77
140518.87
150736.76
147676.03
118681.21
127481.51
127091.63
93701.422
110920.89
110505.16
74214.633
92788.904
89755.617
55274.419
73506.673
71523.345
38300.248
55989.028
55084.022
25582.984
41238.601
41203.816
16634.241
28153.052
29950.31
10301.649
18102.885
20879.993
6709.1536
10194.818
14512.842
5577.4349
6358.1617
9905.7575
3168.6959
2355.5314
6527.5964
3550.7379
2808.217
5047.2222
878.81913
-148.17508
1320.4047
-24312.531
-48077.397
-2325.9452
-28286.804
7557.5293
16822.776
-3933.3138
-4733.0964
9863.0964
-17377.281
-15631.497
-6214.5158
-29569.62
-19781.918
14031.805
-34908.896
-8088.0428
-2179.9633
-23472.385
-20477.91
-10202.124
-36602.393
-23191.135
-6958.029
-31242.988
-14652.943
-12267.508
-22075.683
-16980.16
-15027.993
-19948.574
-14533.948
-16813.357
-13234.257
-6771.9571
-15269.144
-7154.781
-1367.4231
-16968.739
-2334.0427
2503.0354
-14217.382
482.84295
8392.7662
-10380.099
3939.6187
12076.543
-6440.6507
5830.5711
13875.276
-1710.2087
6206.6949
14910.053
2103.0514
7406.936
13521.657
5854.9451
5910.5253
11688.458
6255.9191
7128.9902
4997.0682
5807.2041
3095.2627
4875.2348
5208.8991
1014.654
1663.9335
2220.6176
-331364.74
-348308.8
-399640.59
-225938.92
-190412.3
-289234.81
-215625.68
-266117.37
-279532.27
-264864.02
-193066.04
-255443.52
-202119.32
-181213.22
-227068.45
-196086.74
-162338.05
-219199.03
-178497.16
-143301.61
-191165.22
-158951.04
-126460.8
-174955.72
-137900.56
-113589.92
-153880.13
-125039.88
-105055.83
-136772.83
-109742.31
-97741.531
-119278.69
-96141.218
-91666.833
-104751.87
-82278.008
-89547.31
-92273.267
-71508.973
-84342.006
-79293.356
-60437.73
-77926.46
-67241.27
-50604.225
-69409.559
-57692.24
-41222.385
-60231.729
-47101.094
-33302.876
-48971.317
-37721.643
-25645.525
-38202.747
-29313.992
-17663.676
-27866.337
-21016.902
-15271.974
-17806.629
-13521.899
-6577.6124
-9280.8797
-4793.003
-3500.0999
-4515.8471
-4672.2675
)
;

boundaryField
{
    free
    {
        type            calculated;
    }
    fixed
    {
        type            calculated;
    }
    freeTop
    {
        type            calculated;
    }
}


// ************************************************************************* //
