/*--------------------------------*- C++ -*----------------------------------*\
  =========                 |
  \\      /  F ield         | OpenFOAM: The Open Source CFD Toolbox
   \\    /   O peration     | Website:  https://openfoam.org
    \\  /    A nd           | Version:  6
     \\/     M anipulation  |
\*---------------------------------------------------------------------------*/
FoamFile
{
    version     2.0;
    format      ascii;
    class       pointScalarField;
    location    "0.87";
    object      p;
}
// * * * * * * * * * * * * * * * * * * * * * * * * * * * * * * * * * * * * * //

dimensions      [1 -1 -2 0 0 0 0];

internalField   nonuniform List<scalar> 
3969
(
56183.771
40328.36
259.55126
531.60044
68388.863
-165162.7
697.02899
-211.35202
72034.277
62420.677
55331.602
40372.008
26742.533
14121.385
6027.4436
-874.35467
-1295.2227
-1255.0892
-398.4327
540.53839
1128.0077
989.15522
24838.262
34527.764
37286.185
45444.568
47363.437
54355.295
54576.519
60048.295
60932.535
62543.808
64186.575
65123.612
65176.482
65918.733
65346.954
64415.938
63861.81
62151.846
61218.504
59112.442
57986.052
56277.047
55017.503
53750.304
52609.629
51589.388
50542.139
49560.246
48744.134
47331.266
46078.884
44381.519
42456.638
40109.924
37701.574
34860.665
31658.086
28353.5
24645.65
21137.822
17395.777
13705.125
10346.549
6722.8357
4317.5271
1866.7338
261.92433
-10870.387
-7590.1774
-19725.343
-19086.28
-29848.433
-26561.467
-37652.743
-36571.36
-43829.315
-45221.571
-49532.454
-52169.594
-52488.455
-55124.956
-54872.602
-55490.042
-55221.834
-53911.86
-53418.828
-52051.582
-50160.823
-49838.901
-47448.797
-47021.546
-45072.017
-44253.932
-42256.751
-41210.23
-39457.615
-37910.3
-36458.409
-34411.097
-32606.259
-30359.568
-28097.455
-25649.598
-23130.439
-20274.247
-17605.8
-14565.314
-11766.431
-9199.0054
-6653.9557
-4450.9537
-2415.387
-838.78102
87.320746
67065.434
38995.766
6300.1611
-43139.607
-69962.182
-99270.781
-83326.663
-21018.303
-32414.035
-36028.726
-40926.752
-47501.304
-49602.363
-53763.701
-55722.462
-60373.388
-51332.971
-67420.527
-60383.893
-65480.7
-66050.233
-62658.773
-66073.848
-60361.047
-61594.729
-57865.281
-56455.464
-54136.546
-52700.783
-50708.326
-49442.902
-48052.509
-47562.556
-46594.364
-45233.83
-44661.598
-43686.94
-42245.587
-40934.347
-39283.443
-37198.861
-35081.087
-32620.445
-28968.935
-26569.713
-23339.927
-19888.002
-16345.868
-13073.511
-9638.5035
-6536.0556
-3764.1746
-1408.0413
341.45242
1453.848
1001.6544
1207.2305
-355.01755
-616.66136
-941.03643
-1237.639
677.40956
1584.6768
2972.5632
5481.8548
8218.2973
11389.108
14729.387
18180.997
21792.178
25144.212
27461.016
33302.754
35166.292
38099.994
41207.704
43605.007
46022.398
48163.819
50082.229
51691.022
53479.299
54637.22
56260.912
57397.038
59166.066
60369.381
62158.258
62854.647
64968.254
65223.735
66552.806
66412.985
64683.739
66625.109
66652.822
61113.559
62474.26
55824.606
54780.234
53074.649
49392.659
41130.215
40700.534
25924.375
29089.131
17346.121
11666.514
43910.853
30141.082
28482.21
19815.795
18935.463
8977.9753
-19223.423
45428.121
34936.63
8862.1949
1219.1094
-14437.14
-35463.535
-181.31233
27.187508
252.96294
465.97047
856.07857
928.46883
820.20906
645.67433
-198.06421
-480.45626
-447.51671
-639.86291
-313.05147
185.63565
-73.85043
26747.382
34596.748
36079.666
37224.69
40955.13
41363.198
44594.163
46689.708
46903.017
50166.493
50956.832
50064.135
52809.618
51413.314
51832.138
50884.007
50662.799
49319.627
48401.804
47179.994
46241.905
44879.14
43958.59
42983.703
42299.967
41309.457
40540.532
39870.355
38976.115
38029.886
36957.405
35615.286
34044.886
32233.865
30221.145
27776.294
25233.658
22524.692
19754.826
17026.915
14041.631
11450.917
8672.8162
6350.2032
4275.8698
2096.6184
409.35884
20208.47
28905.867
24481.806
27658.755
29749.835
31990.198
31375.35
33368.103
33508.435
35190.583
34184.529
35335.643
34853.112
34447.968
34979.625
34118.744
34194.201
32898.758
32697.118
31655.236
30806.118
29856.663
29019.041
28374.972
27600.062
27120.313
26829.01
26141.327
25892.231
25315.226
24777.284
24009.359
23098.487
22039.209
20741.554
19304.003
17731.494
16113.249
14297.698
12490.593
10531.601
8792.9319
6819.1364
5043.67
3493.5372
1620.681
291.64923
17720.595
23165.136
15951.094
18412.317
19528.31
18066.021
18483.423
19181.044
19244.45
18795.07
19980.707
18930.921
19487.74
18391.732
18483.987
17716.975
17742.5
16875.294
17132.396
16208.452
16417.176
15832.768
15785.615
15306.421
15319.88
15052.182
15006.306
14960.415
14955.545
14790.284
14652.526
14302.135
13887.695
13278.141
12600.69
11705.575
10753.839
9668.5592
8394.393
7370.7112
6134.4124
5168.2677
3822.0444
3048.7165
2003.9195
995.46275
296.43363
7667.0232
12905.122
7325.8569
10223.293
8174.8081
7780.6154
4937.2158
4999.9883
2674.4973
5964.1277
1593.8593
3708.2737
1744.7043
2277.4273
2054.0377
1687.8534
1717.4711
1371.9587
1559.982
984.58902
1125.9882
492.26549
87.560525
112.8708
308.34366
278.94343
574.27126
863.3893
1175.701
1495.534
1845.6368
2114.8527
2312.33
2518.8598
2602.7268
2697.5123
2623.6556
2582.3166
2627.9964
2720.735
2524.2929
2418.7314
2010.3991
1850.6759
1205.8475
832.59447
433.1006
1644.9721
7520.8539
-772.75416
-207.94084
-3549.8965
-5179.7344
-7156.6681
-7742.3186
-10005.387
-9175.7208
-12998.551
-10811.487
-14342.872
-12467.324
-14534.118
-13581.131
-14075.833
-13969.426
-13506.98
-13878.774
-12478.648
-12036.084
-11363.507
-10348.935
-10192.153
-10321.059
-9433.5599
-8928.2858
-8213.9199
-7632.2795
-6830.7669
-6261.7619
-5527.123
-4884.4596
-4266.0428
-3643.564
-3117.3836
-2459.7948
-2585.3558
-2129.6917
-1766.7639
-1279.5453
-1045.52
-624.09971
-572.53835
-42.164366
364.5341
-3016.4282
-759.71434
-7168.8741
-9567.8777
-12638.245
-14957.046
-18813.082
-19987.598
-24632.11
-24720.848
-28584.34
-29022.949
-30478.875
-31481.801
-32014.944
-31694.726
-31734.622
-31174.29
-30495.367
-30173.69
-28559.069
-28442.887
-26205.106
-25394.466
-23994.016
-23508.157
-22532.415
-21656.837
-20629.269
-19575.506
-18541.594
-17349.591
-16128.438
-14900.489
-13596.115
-12221.673
-10816.505
-9423.3574
-8079.5164
-6987.0552
-5588.6565
-4223.1003
-3014.0294
-1778.7097
-974.20114
-108.83714
468.77011
-10045.807
-10509.992
-18113.31
-17719.051
-25072.62
-25605.44
-32494.497
-32108.668
-40013.182
-37494.724
-44014.297
-44445.437
-45879.709
-46605.555
-46869.373
-46775.711
-46125.84
-45499.107
-44888.165
-43316.127
-42992.504
-41161.625
-40671.754
-39311.03
-38442.001
-37378.208
-36621.567
-35217.699
-33813.785
-32390.33
-30830.705
-29196.203
-27335.623
-25475.771
-23390.841
-21255.261
-18897.726
-16703.747
-14339.628
-11594.61
-9241.1045
-6985.0587
-5082.2349
-3238.405
-2018.2531
-752.13704
98.201152
36117.97
31026.253
29169.145
23476.67
23474.356
17261.511
15698.562
34362.775
29723.227
23899.855
19339.834
18947.019
12259.71
15640.146
33450.539
34523.453
23549.385
18736.538
14169.763
7883.8545
12432.916
24690.815
22565.896
11475.773
10664.977
2934.7673
-10453.725
3426.3027
17734.049
13441.841
5274.119
728.66092
-5018.5327
-14535.899
-7813.4267
-1439.4306
7291.759
-4698.5804
-5397.149
-13310.053
-16925.778
-11142.481
1897.5348
-7681.275
4420.7734
1620.7031
-6507.0312
-4139.7668
-21334.372
-4065.9231
-11535.791
-20611.01
-21301.396
-24787
-28503.926
-22819.616
-5436.4414
-2112.9975
-5789.41
-10352.034
-7738.2112
-15889.377
-15143.785
-30016.355
-38418.152
-39977.695
-40072.059
-44216.551
-45294.928
-40759.245
-24030.496
-23613.308
-26166.421
-29041.739
-28720.186
-30140.003
-34577.024
-30916.333
-35969.938
-41479.838
-43063.46
-44686.829
-45172.923
-45371.419
-36783.427
-36359.221
-40206.194
-42045.233
-45633.01
-44957.384
-47303.123
-38120.132
-41719.985
-43952.116
-46906.802
-48362.318
-48886.238
-50655.921
-44392.889
-45312.046
-47577.701
-49723.742
-50790.786
-51864.833
-52482.424
-46291.125
-49449.756
-50030.189
-53710.873
-55411.742
-56832.802
-57845.133
-51522.018
-52099.948
-53142.333
-54186.566
-55893.582
-54485.708
-56402.042
-53239.878
-55920.695
-54784.198
-57574.814
-58543.034
-58979.457
-60850.504
-54740.097
-56266.329
-57029.423
-59133.162
-59504.362
-58062.895
-60447.592
-58866.961
-57440.792
-58568.691
-59226.79
-60158.324
-59438.37
-62364.279
-57486.718
-58011.957
-60209.093
-60785.715
-61191.982
-59772.621
-61514.627
-59580.406
-58803.229
-60120.24
-59411.82
-60115.908
-58747.224
-60954.333
-58699.875
-58069.8
-59944.268
-59734.677
-60656.493
-59338.201
-61153.436
-58089.011
-57766.442
-58996.643
-58307.194
-58924.867
-57208.046
-58510.877
-57211.209
-56709.888
-57942.5
-57235.596
-58393.04
-56572.427
-58185.051
-55752.209
-55314.597
-56338.247
-55362.899
-56267.702
-54386.072
-55903.886
-54181.321
-53937.711
-54817.714
-53859.806
-55035.306
-53313.855
-54876.847
-52860.112
-51953.203
-53049.226
-51783.751
-52976.422
-51206.006
-52597.602
-51092.174
-50696.48
-51421.073
-50449.02
-51555.037
-49878.068
-51412.278
-49894.172
-48758.425
-49971.268
-48628.641
-49636.854
-48091.063
-49557.941
-48287.257
-47925.63
-48523.984
-47340.243
-48533.051
-47056.015
-48611.713
-47086.001
-46632.674
-46719.463
-46251.069
-46902.04
-45702.068
-47051.257
-45388.6
-45720.508
-45038.083
-45746.906
-45988.445
-45392.312
-46304.183
-44898.759
-44452.217
-44354.042
-44557.689
-44806.459
-44131.372
-45290.324
-43624.092
-43163.567
-43359.487
-43485.093
-43525.216
-43376.124
-43902.962
-42309.587
-41921.728
-42214.348
-42132.938
-42297.48
-42282.181
-42698.345
-40894.99
-40462.26
-40895.645
-40926.902
-41257.028
-41210.817
-41591.419
-39089.426
-39092.41
-39360.918
-39463.563
-39766.914
-39711.585
-40160.319
-37404.192
-37339.881
-37650.237
-37852.784
-38163.573
-38241.1
-38682.105
-35275.577
-35415.576
-35688.45
-35958.381
-36338.932
-36461.219
-36988.453
-33056.675
-33270.181
-33537.634
-33901.264
-34211.468
-34487.045
-34923.676
-30597.321
-30913.563
-31128.308
-31515.243
-31899.005
-32230.308
-32727.51
-27977.561
-28323.068
-28491.905
-29031.369
-29243.44
-29504.897
-30186.583
-25144.555
-25343.604
-25630.061
-25815.086
-26522.483
-27084.48
-27548.937
-22310.233
-22763.892
-22649.783
-23311.292
-23397.714
-23743.861
-24382.964
-19118.397
-19339.884
-19423.147
-19861.364
-20143.452
-20685.228
-21222.835
-16023.023
-16201.327
-16296.7
-16616.642
-16842.66
-17465.724
-17988.511
-12722.432
-12986.191
-12926.822
-13213.379
-13511.38
-14098.035
-14530.448
-9787.5075
-9926.8581
-9748.1581
-10177.806
-10215.578
-10923.385
-11299.356
-6783.4756
-6837.9061
-6661.3426
-6959.3086
-6948.6572
-7823.2699
-8092.8351
-4356.607
-4321.2477
-4118.7964
-4359.8663
-4321.9653
-5158.7371
-5284.9659
-2036.3913
-1908.228
-1721.8852
-1841.6117
-1810.6545
-2559.0384
-2634.1223
-505.86562
-399.81316
-229.35972
-284.60273
-235.91064
-815.14386
-976.17593
249.32069
329.26755
467.09585
514.12655
500.33205
175.83868
169.39973
-1522.7786
-1643.4603
-1665.0202
-1572.0758
-1274.349
-1075.5001
-1045.7335
-2397.4428
-2584.1624
-2353.4724
-2352.631
-2092.0034
-1596.7588
-1726.7719
-1595.0105
-1845.2613
-1599.5621
-1436.6512
-1271.3733
-969.61552
-1033.2215
-517.49087
-699.77671
-658.94685
-590.89069
-261.31438
-153.08141
18.17073
803.96651
625.85577
877.99415
1078.3129
1311.3694
1384.2544
1350.5119
1366.5803
1370.135
1449.5612
1626.385
1923.8466
1890.0541
1778.0812
1200.0998
1150.5089
1249.0857
1443.8777
1637.3946
1505.5267
1689.3852
26209.542
18604.701
24080.401
16712.609
17947.256
14122.654
19283.327
35853.131
32575.647
31814.03
30637.173
27231.434
25898.952
20480.906
40765.205
37099.896
36127.715
34107.447
31910.202
33145.063
27166.332
41356.45
42640.122
39168.166
38832.701
37486.164
33953.794
33172.38
49623.453
47267.516
45853.258
45376.176
42143.9
43222.424
37022.69
49850.598
50962.808
48671.111
47246.989
45223.793
41559.911
39161.444
56059.532
54807.816
52952.464
52854.423
51118.067
48067.654
49520.939
56407.839
56649.056
56075.588
52202.496
52790.818
50623.997
48086.711
60394.48
61967.043
59784.057
57773.972
57905.475
55713.614
55125.866
63039.357
62165.38
59954.679
59782.454
59108.101
56703.292
56456.584
64620.12
63850.351
64787.103
62931.225
62787.158
60531.736
60780.882
65039.648
66258.383
64545.995
63665.957
63373.456
61709.627
62054.794
66965.704
66026.84
66108.714
64980.662
65221.594
62799.207
62413.324
66808.136
66753.94
66205.07
65885.357
65225.363
64444.499
64635.08
66226.123
66853.088
65947.775
66176.97
65447.605
64341.927
64883.348
66348.875
65484.791
65441.236
65168.97
65451.372
64547.453
64552.404
65014.812
64914.771
64670.315
64681.117
64538.245
63619.873
64083.928
63625.605
63295.573
63250.953
63332.844
63139.091
62677.915
62788.573
62107.276
62056.684
62150
61922.837
62079.952
61785.883
62153.063
60464.576
60169.34
60298.317
60240.63
60420.5
60130.283
60428.844
59202.865
58618.434
59058.811
58788.522
59192.692
59059.194
59440.678
57400.762
56872.947
57428.598
57180.719
57566.284
57282.603
57780.241
56244.353
55567.969
56324.914
55863.202
56385.615
56247.601
56917.384
54898.207
54246.216
54976.12
54417.932
54994.362
54651.259
55414.861
53956.677
53040.634
53994.524
53293.749
54022.467
53606.075
54460.165
52931.134
51791.522
52938.16
52075.292
52776.429
52222.146
53097.547
51836.616
50915.332
51974.822
50996.287
51809.124
51042.526
52059.457
51058.297
49824.309
50726.008
49761.789
50525.142
49559.789
50576.621
49671.457
48507.139
49633.985
48490.754
49202.97
48056.142
49062.104
48426.479
47318.939
48119.258
46972.961
47561.442
46344.813
47262.855
46927.044
45734.54
46515.154
45292.268
45847.776
44428.154
45282.5
45079.42
43897.871
44503.008
43284.258
43654.37
42147.19
42947.949
42972.076
41828.427
42352.99
41067.61
41269.202
39840.03
40560.876
40559.41
39437.243
39823.925
38536.105
38705.429
37297.945
37787.418
37983.225
36903.338
37100.401
35910.502
35661.522
34418.965
34526.65
34643.609
33659.968
33823.263
32517.076
32501.991
31407.21
31471.286
31607.026
30926.574
30535.085
29802.777
29358.767
28245.78
28419.833
28187.608
27449.982
26921.107
26160.345
25713.743
24309.546
24981.765
24317.999
23773.672
23179.533
22516.675
21984.588
21036.568
21435.239
20752.833
20178.851
19617.528
18953.01
18391.48
17542.627
17845.756
16756.735
16253.855
15647.603
15056.815
14523.792
14002.172
14238.141
13053.029
12532.693
11940.892
11479.703
11027.313
10678.353
10855.984
9554.8663
9104.7604
8463.1307
8181.5978
7672.575
7577.5382
7673.1841
6046.3104
5423.6317
5032.6902
4796.3306
4498.5084
4656.0486
4809.0471
3574.5967
3264.8317
2902.1509
2744.3928
2422.0067
2628.5669
2624.23
1454.9251
1121.6208
811.87216
673.34421
682.34588
992.4801
1037.5525
591.0529
620.84241
432.41873
452.98043
377.08935
474.34105
367.87051
16660.349
18939.901
22674.36
24804.835
31223.086
34866.771
36014.53
40442.87
43142.834
46914.631
47701.08
50173.829
51694.32
51247.901
53077.362
52836.497
52235.884
52226.923
51378.59
50784.377
49929.891
48944.783
47972.372
47104.486
46017.042
44931.079
43565.139
42223.576
40742.831
39053.19
37243.691
35341.091
33139.374
30805.391
28801.891
25565.696
23118.68
20884.135
17694.619
15041.869
12402.07
9798.8731
7463.1507
5357.7122
3551.5316
2019.4542
272.09517
3760.6355
3007.7885
13488.337
10619.616
21577.618
20817.805
26465.533
25633.542
32696.112
30567.743
35236.025
36054.869
36223.471
38265.919
38749.302
39166.606
39535.478
38539.056
38803.015
37744.504
37377.427
36284.377
35732.597
34598.472
33809.253
32422.868
32141.576
30855.694
29756.707
28543.324
27253.457
25827.842
24255.473
22792.655
20840.076
19048.406
17273.517
15360.362
13249.048
11346.444
9362.8469
7315.4938
5615.7017
3894.037
2558.8381
1082.3895
168.53304
-4807.6404
2519.1756
7255.2199
3998.6946
9330.0705
7017.5732
12297.546
10899.803
14555.852
12264.084
17500.805
15423.035
19144.678
17916.205
19234.353
19988.958
19790.842
20333.173
20369.89
20247.695
20100.578
20059.136
19751.649
19500.502
19123.978
18678.606
18063.637
17193.873
16453.036
15479.617
14471.674
13416.477
12412
11246.677
10136.393
9098.3572
7993.4708
6905.3786
5783.3104
4964.0652
3959.2565
3096.1469
2426.7711
1830.1391
1347.0313
1034.4762
75.715402
-16705.427
-8567.092
-5994.8661
-7340.7046
-3226.613
-5709.6618
-1352.7957
-3284.6449
-1964.5992
341.36971
-290.73352
1004.6471
2222.3182
2808.8892
4761.4721
4128.3321
5516.6486
5553.3966
6195.3988
5980.7153
6666.5277
6548.1006
6781.0512
6649.5127
6572.7962
6110.2371
5848.6087
5479.4352
5055.3824
4488.7351
3983.6449
3581.565
3042.3687
2605.8863
2256.366
1890.1433
1523.1441
1255.8072
975.2077
790.16539
560.98026
369.03139
369.82505
202.09516
462.28007
195.75365
142.00705
-26611.891
-14680.372
-11436.142
-14782.336
-9340.1238
-14135.262
-13212.63
-14847.156
-11974.647
-14352.897
-11120.532
-14840.554
-11247.324
-13332.533
-12373.726
-12367.518
-11688.154
-11119.055
-10889.837
-10108.938
-9495.9788
-9002.6493
-8484.8711
-8138.2298
-7897.2617
-7989.0726
-7727.0756
-7813.4621
-7912.1997
-8121.0996
-8195.0018
-8264.0484
-8237.3881
-8048.4555
-7825.7434
-7505.3803
-7015.5606
-6461.4405
-5864.462
-5103.2286
-4323.7573
-3513.5361
-2671.3655
-1764.8464
-994.61977
-110.04981
-127.76746
-31474.84
-20934.984
-23031.985
-22221.653
-24459.179
-26417.382
-27358.893
-26902.287
-31189.997
-31076.155
-32503.824
-34435.268
-32181.969
-34653.547
-31509.358
-32487.074
-29744.403
-29640.163
-27752.593
-27010.131
-25720.223
-25022.576
-23840.478
-22849.565
-21486.08
-20576.981
-20055.931
-19727.668
-19425.464
-19136.235
-18868.313
-18379.434
-17791.866
-17030.847
-16112.755
-15011.169
-13786.974
-12446.873
-11015.817
-9433.9252
-7926.7591
-6376.6963
-4735.6669
-3375.8903
-1838.8554
-668.40296
194.36454
-35342.53
-32118.374
-27294.417
-36068.492
-33277.539
-39623.666
-40934.763
-42481.494
-47401.716
-46732.823
-48895.432
-47866.505
-48871.468
-48525.002
-48597.341
-47719.477
-48087.968
-46081.47
-45844.266
-43989.808
-42972.629
-41261.606
-40207.984
-38699.158
-38027.102
-35820.462
-35057.527
-34322.162
-33642.379
-33084.865
-32352.552
-31354.364
-30287.723
-28885.144
-27242.078
-25399.661
-23450.369
-21194.715
-18730.293
-16340.096
-13764.779
-11150.853
-8736.4384
-6272.4988
-4103.2252
-1886.9958
-764.84248
41811.917
47142.46
34063.849
36888.356
28532.301
22825.107
21512.771
36457.311
34612.786
31735.513
28867.598
26124.814
26719.919
14020.731
34269.976
37544.484
31837.812
30893.564
30315.991
23815.151
22966.641
40943.691
37007.34
36589.342
37000.282
31479.294
30369.259
25827.884
41631.39
40369.243
40337.488
37574.183
33901.529
33745.547
25286.364
44490.625
42718.742
39742.826
39670.875
38585.973
34016.837
35574.143
47950.155
43894.732
45182.074
44043.93
38568.836
42075.346
36957.769
47720.728
48925.414
46819.483
44246.192
44522.642
41783.952
39266.352
52650.44
49131.168
45855.344
49756.101
45620.819
44889.139
42281.315
51895.958
48747.84
52221.697
49909.745
47710.487
47184.295
46487.138
51918.035
53874.827
51077
50766.076
48623.781
49431.845
46457.645
55214.196
52045.815
52323.971
51730.068
51507.842
49761.747
48741.667
54019.344
53559.359
53170.857
54276.457
50875.704
52269.006
50724.815
54097.576
52759.401
54171.208
52730.332
52203.872
52178.976
51072.715
54204.752
53666.02
53461.576
53209.018
52295.312
52732.74
51312.249
53504.571
52116.47
53922.07
52808.521
52388.382
52022.805
51756.297
52115.11
52216.29
52399.323
52427.647
51525.048
51662.473
51190.031
51722.473
50969.106
52195.775
51317.615
51063.624
51156.666
51161.058
50014.949
50370.6
50334.621
50444.373
49955.513
50066.682
49646.91
49454.471
49075.13
49678.184
49499.631
49260.995
49279.128
49360.337
47370.652
48130.819
48185.286
48273.366
47888.362
48029.666
47807.967
46646.287
47364.894
47229.169
47269.798
47144.67
47112.606
47424.08
45234.994
46214.546
45775.034
46124.268
45740.764
46142.377
45864.228
44214.724
45421.804
44939.547
45188.497
45193.693
45160.651
45019.247
42958.426
44579.677
43601.672
44331.244
43794.806
44125.42
43980.929
42264.671
43691.875
43098.9
43178.673
43248.005
43170.522
43014.792
41535.714
42799.808
41826.728
42290.552
41999.022
42002.689
41729.403
40543.776
41551.809
41242.393
41301.864
40957.762
40964.132
40652.934
39511.444
40931.299
39878.31
40049.258
39699.776
39689.174
39277.632
38644.793
39523.839
38855.064
38840.454
38487.133
38270.143
37846.907
37282.542
38205.117
37336.895
37337.112
36767.226
36670.412
36084.714
35903.506
36669.887
35905.295
35690.175
35173.755
34960.452
34331.587
34192.774
34891.118
33965.722
33796.723
33217.613
33046.962
32351.578
32401.254
32918.978
32099.682
31732.054
31197.437
30921.371
29947.417
30151.148
30554.199
29647.284
29219.068
28862.666
28350.454
27768.83
27825.986
28043.27
27403.446
26916.805
26511.979
26278.423
25546.902
25417.041
25710.047
24822.719
24040.855
24139.581
23038.005
22852.378
22669.814
22086.88
21913.194
21223.13
20540.856
20934.797
19896.656
19906.259
19414.691
19036.357
18506.697
18231.891
18097.609
17422.985
16917.505
16451.273
15975.241
15442.956
15024.923
15119.595
14387.574
13979.172
13312.066
12938.709
12361.85
12297.818
12227.942
11847.538
11248.282
10672.301
10323.377
9805.2747
9714.8787
9603.0752
9279.4057
8320.7823
7677.3059
7348.1092
6841.7656
6828.1154
6824.2304
6753.905
6140.2542
5613.2537
5437.6748
4867.3284
4997.2586
4883.8231
4759.2594
3599.831
3387.106
2934.0348
2595.1728
2676.3798
2571.7457
2616.8142
1974.6325
1613.0022
1480.4778
1185.8451
1375.7681
1315.5553
1231.5454
164.97259
10.517244
-155.03434
-218.90352
-104.14872
-251.54307
136.31065
40284.559
35104.209
33907.024
29197.388
24662.321
16515.541
16668.611
28312.406
18439.703
18962.809
14790.064
11881.638
8395.4253
9476.4152
29571.596
24697.313
26923.06
23273.431
20270.738
17737
11450.919
28203.524
24718.841
23680.854
20480.419
18523.472
14955.295
17077.7
31399.959
28127.807
27196.562
24001.852
22422.476
22739.51
17872.939
31845.888
28880.107
28182.784
25178.769
23828.801
22887.288
20097.88
33544.432
32946.937
32087.644
28872.312
28139.262
27621.296
24061.035
35414.694
32685.593
30624.898
28994.796
29400.349
26159.636
24749.848
36301.786
33389.532
35155.62
33569.382
31101.008
30797.108
28745.215
35003.511
36172.124
35745.97
31758.271
32075.476
31386.041
30259.062
37642.031
37109.861
35000.892
34209.936
34755.194
33514.221
30750.357
38063.637
35859.483
37435.853
35456.477
35958.436
33445.993
34185.983
36693.605
37423.843
38276.733
35251.102
36242.612
34869.903
34114.333
37458.775
37555.716
37680.166
35435.276
37062.099
35679.428
34113.275
36648.415
37960.602
37574.044
36542.948
37344.613
35869.67
34747.63
36378.999
36798.583
36973.225
36130.467
36334.897
36027.519
34387.258
35776.7
37282.931
37197.67
36043.969
36638.949
36530.173
35296.424
35020.697
36043.459
35689.528
35273.284
35652.281
35576.18
34264.687
34762.4
35611.727
35614.739
35132.746
35443.124
35584.199
34548.207
33389.634
34313.383
34390.968
34021.766
34309.217
34415.533
33572.915
33130.658
33862.113
33876.124
33546.58
33824.735
34090.719
33613.498
32375.023
32591.604
32727.912
32474.583
32810.959
33080.35
32616.062
31864.555
31841.197
32143.65
31953.242
32416.597
32431.885
32377.094
31273.476
30892.05
31375.526
31130.875
31464.791
31402.739
31712.602
30710.712
30353.865
30817.842
30517.206
30998.682
30771.121
31374.685
30338.102
29757.309
29744.433
30268.366
29872.678
30044.459
30549.887
29608.406
29061.015
29664.077
29053.265
29793.441
28981.619
29887.505
29319.049
28462.264
28923.919
28488.742
28889.842
28284.473
28919.162
28770.659
27856.519
28527.077
27667.828
28412.617
27285.129
28026.474
28060.001
27212.198
27577.3
26863.927
27308.477
26298.469
26794.23
27369.132
26474.132
26931.925
25952.834
26500.386
25238.667
25631.252
26364.93
25629.499
25791.924
24890.647
25285.155
24003.673
24204.742
25397.669
24633.368
24735.489
23751.534
24077.507
22715.867
22618.221
24042.379
23423.184
23277.664
22365.882
22578.342
21099.797
21030.993
22585.468
22115.543
21841.338
21087.857
21062.24
19774.279
19588.813
20999.977
20689.101
20195.114
19441.863
19298.642
17911.645
17520.076
19161.91
18919.935
18204.348
17724.337
17313.195
16326.744
15652.684
17249.667
17247.311
16483.856
15961.322
15645.931
14452.051
13947.331
15115.906
15238.797
14613.695
13917.613
13700.192
12777.32
11815.418
13068.405
13363.549
12406.434
11912.083
11612.469
10573.774
9770.0363
11053.509
11163.618
10325.19
9999.8737
9608.0009
8814.612
8137.7049
8808.8135
9158.7154
8231.6518
8002.1821
7546.8323
6895.5935
6266.703
6898.4526
7178.7076
6154.3133
6107.1392
5590.9683
5177.281
4695.3276
4820.2042
4945.1901
4087.246
4082.1939
3666.0419
3451.8865
3167.701
3151.3365
3463.6806
2518.6637
2668.0338
2284.0078
2177.7955
2044.219
1268.4846
1141.5365
438.85084
594.91282
381.40206
454.92344
636.24957
253.07922
222.41486
-210.591
-94.866916
4.7254289
-133.33996
180.034
30443.967
29819.461
20596.435
21075.743
11691.675
6648.2411
4073.6508
21294.762
21540.317
19314.613
15404.395
8807.3599
11891.467
1247.0218
18889.881
21266.058
20254.425
16055.857
14549.962
10715.15
1703.6131
21371.945
19343.1
16491.47
14121.351
9751.7991
8776.1092
7995.0032
21715.502
17719.835
18849.346
15366.732
11907.445
14813.763
3258.1474
18736.349
19533.054
17111.97
14186.849
16006.66
9632.8983
9236.1088
23456.966
19327.252
17172.869
17798.571
14774.617
14424.542
11142.73
21021.237
18486.238
18754.227
15855.713
15187.869
12631.868
11606.06
21453.292
21788.192
18720.224
18679.507
16910.324
16354.026
14061.811
23311.023
19794.894
18367.49
16553.113
17604.992
14424.023
14569.661
22280.263
21526.385
18237.586
19927.112
18281.984
17529.948
15562.195
21279.267
20292.573
19030.442
18586.195
18703.629
15624.388
17127.131
21287.311
22481.413
18070.734
19726.836
17615.553
18118.005
16888.707
21651.974
20598.114
19345.126
19134.012
20338.228
16623.966
19117.577
20606.373
20992.828
17817.038
20192.071
18578.403
17240.523
19042.918
20651.89
19974.28
19708.675
18890.06
19538.021
17690.526
20129.595
18999.45
20654.995
18062.683
19331.224
19018.79
17795.888
19093.105
19879.414
19305.12
18656.461
18908.016
19311.14
17760.961
19633.382
18063.2
19494.924
17952.441
18898.333
18625.855
17738.561
18911.304
18458.559
18992.812
18013.795
18376.9
18695.992
17707.29
19334.589
17447.981
18724.379
17385.826
18237.821
18123.117
17723.248
18506.124
17249.344
18230.758
17374.947
17893.843
18218.46
17466.568
18588.707
16683.539
17911.611
16921.41
17826.861
17438.99
17341.946
18050.398
16407.047
17501.085
17028.41
17345.34
17344.65
17263.541
17785.117
16054.76
17253.654
16462.847
17022.649
16818.33
16973.875
17178.122
15936.134
16578.92
16588.616
16595.502
16663.152
16587.008
16808.324
15584.698
16582.311
16060.043
16424.079
15912.892
16324.125
16169.571
15460.52
16369.514
15805.541
15944.022
15682.971
15661.843
15707.589
15152.164
15941.866
15250.109
15420.829
15027.139
14910.434
15063.225
14965.359
15551.454
14941.278
14933.33
14541.123
14233.751
14414.658
14559.434
15142.579
14283.148
14337.803
13735.159
13417.713
13599.183
14207.298
14605.013
13736.408
13630.571
13052.328
12584.33
12707.936
13666.99
14004.773
12903.263
12874.351
12172.082
11574.645
11837.342
13063.646
13224.778
12179.658
12109.692
11309.585
10785.966
11000.159
12341.345
12459.469
11288.311
11124.799
10321.934
9710.4325
9864.0671
11502.877
11431.688
10249.354
10146.507
9304.5975
8808.7637
8967.814
10629.648
10447.377
9321.9474
9134.2575
8425.9718
7680.1181
8031.7895
9523.4248
9338.0689
8160.6396
8129.9226
7198.5023
6761.7053
7047.1384
8631.6966
8208.7903
6991.3238
6965.1245
6156.2741
5746.0594
5940.6974
7602.2616
7079.2313
5872.2237
5975.9011
5121.6988
4657.1583
4971.5129
6433.8469
5605.0975
4776.0969
4730.6111
4029.7536
3799.8531
4180.3287
5349.4378
4843.9213
3988.6467
3911.2825
3301.6308
2997.469
3194.7709
4181.2751
3319.862
2658.3767
2601.2274
2070.4798
2029.4629
2387.882
3283.1507
2759.0887
2371.5595
2279.7227
1880.2503
1933.3546
1868.2047
1992.4928
1571.3437
1136.7974
1018.4524
766.91301
850.68357
742.32398
1249.0415
1125.8825
745.44151
914.14131
765.77886
866.14167
721.48975
108.09448
-420.22253
-364.60615
-299.85861
-414.04214
-170.00869
-197.92484
20341.519
10340.43
6248.4349
4296.5048
-1532.5348
-5854.5567
-8010.8891
12873.297
7780.5626
5643.1956
1886.0873
-1807.7452
-4949.2865
-6949.2765
14704.927
8375.4014
6672.4435
2380.8976
1956.7154
-4925.6807
-5976.5153
11764.614
6110.0755
3470.9692
681.08369
-2602.1292
-3786.5666
-4774.6327
8408.8739
4623.3529
5440.3942
-44.067817
2522.2064
-3403.4895
-5447.7236
8835.4324
5734.23
3922.9396
3067.3105
-1631.5004
-661.15166
-1961.7695
9153.5225
3602.7233
6282.4255
-1128.4641
899.80128
-964.99337
-3910.5244
8299.012
6718.7901
2631.1619
3369.0271
774.51113
457.95673
-1993.6527
9417.4561
2624.6781
4757.2841
2023.5345
927.80493
361.11664
-1776.7634
5324.4178
4502.973
3736.9853
1523.842
886.75641
713.70672
-1342.0472
5972.1988
4326.5951
3821.9995
2495.8264
1963.7422
1362.5696
-159.96349
5096.493
3823.2412
2511.5123
2057.9303
960.0044
1722.6056
137.16594
5030.4487
3709.5635
3248.5775
2981.233
2659.8331
2950.1007
38.188499
3616.9089
3011.6644
3538.4869
2444.536
2123.7005
1738.0342
741.89721
3942.8249
4108.0973
2617.4691
3517.1263
1553.1549
3325.3102
1741.4652
2801.8334
2956.7895
2632.8222
2919.8113
1779.9474
3111.4103
1697.7331
3401.3936
3557.8973
2698.7114
4008.7103
2151.6373
3844.6579
2418.0325
2720.5755
2645.0696
2866.6683
3578.7779
2043.4512
3370.7443
2342.0656
2752.8647
3709.4108
3069.6612
4098.7551
2465.823
4108.7421
3313.4757
2898.0744
3028.9525
2798.9744
3628.2813
2396.5825
3938.9013
2859.7621
2690.6776
3535.227
2933.2702
4114.148
2996.0067
4183.6703
3411.7756
3063.7229
3274.3288
2839.1243
3856.6237
2645.6174
3931.7226
3339.696
2804.6996
3570.1739
3102.9635
3826.3623
3045.79
4232.0301
3661.7795
3197.8369
3341.8947
3010.6078
3420.3352
3110.2849
3900.503
3554.9953
3113.0009
3443.6416
3104.9394
3481.358
3417.6834
3730.5372
3710.5144
3200.145
3672.7466
3095.1418
3376.182
3385.5888
3394.4281
3741.1237
3589.3964
3659.5751
3188.8998
3313.5187
3377.1785
3307.3514
3493.6299
3615.25
3569.0573
3206.0096
3052.9932
3250.0036
3006.9743
3177.0104
3826.8418
3688.8462
3349.2171
3087.0782
3355.725
2845.4943
3052.0039
3859.6264
3734.5135
3352.6321
2970.8638
3090.05
2596.8582
2710.8724
4016.9935
3838.7163
3459.8544
2883.9216
3066.349
2461.6864
2345.2356
4026.3999
3903.703
3351.6375
2830.3477
2840.3399
2227.2872
1871.3865
4121.0029
3908.025
3411.5321
2826.2964
2727.5784
2121.5052
1624.8704