/*--------------------------------*- C++ -*----------------------------------*\
  =========                 |
  \\      /  F ield         | OpenFOAM: The Open Source CFD Toolbox
   \\    /   O peration     | Website:  https://openfoam.org
    \\  /    A nd           | Version:  6
     \\/     M anipulation  |
\*---------------------------------------------------------------------------*/
FoamFile
{
    version     2.0;
    format      ascii;
    class       pointScalarField;
    location    "1.37";
    object      p;
}
// * * * * * * * * * * * * * * * * * * * * * * * * * * * * * * * * * * * * * //

dimensions      [1 -1 -2 0 0 0 0];

internalField   nonuniform List<scalar> 
625
(
-907985.16
1368949.1
148.99652
-2526.1864
-1667946.8
2582908.8
-1934.0253
672.90997
-673054.57
-15628.396
145137.77
1040.6774
-215.11301
-912.33011
-331771.06
-379895.31
-361616.96
-353681.7
-313389.98
-295550.71
-262601.89
-232406.03
-216240.3
-179838.85
-160660.79
-136217.32
-116779.87
-96468.236
-79578.06
-63393.024
-49078.481
-36757.87
-25173.831
-16617.394
-9381.1217
-2956.541
-902.61076
451293.67
339925.53
415503.29
337020.82
323300.33
310196.64
272626.95
253368.77
232267.33
206703.42
185078.7
161620.16
141960.88
120567.06
101010.55
82390.801
64915.333
49525.044
34765.591
23605.339
12749.451
5910.5553
791.17592
-859081.55
60825.073
391504.32
458744.9
601972.32
417046.73
391539.37
404847.04
315431.92
289580.65
274347.89
233937.82
214622.68
181364.12
159313.46
133718.33
111835.57
92194.097
72435.014
56761.996
42029.883
29389.974
18892.511
10742.217
4360.6432
54.551567
-1177.5578
896.11607
1437.204
-1223.123
-5446.9418
-12643.22
-23572.663
-36873.067
-52147.881
-69757.523
-89093.746
-110049.44
-132111.48
-155394.55
-180286
-201213.96
-218014.27
-270599.95
-272994.92
-307624.93
-315837.04
-378553.64
-346419.08
-391987.7
-447223.96
-354680.15
-957538.74
-911902.85
-839553.74
1488841.1
1527534.3
1454249.3
-1741.9622
-1789.4833
-2748.9368
750.01153
1429.4593
1322.505
-208791.09
-237108.97
-233893.33
-205311.28
-186253.87
-178158.86
-147509.08
-136303.52
-114397.73
-99169.487
-87712.63
-74070.157
-61001.827
-49991.608
-40147.538
-30857.015
-23218.172
-16457.142
-10888.017
-7335.1886
-3754.1738
-1729.0441
-847.65903
49542.302
25454.66
51406.438
26024.397
43073.631
36102.117
40443.927
34564.99
34465.822
34152.559
31323.719
30417.807
27255.993
23846.704
20330.773
17143.119
13330.404
10022.696
7084.1189
4320.3376
2219.3255
306.03011
-846.13512
271147.09
231400.04
221867.66
198066.12
213216.53
180302.57
177082.81
158452.5
148275.99
132708.28
119354.61
104659.27
91276.79
77822.406
65443.735
53445.041
42081.619
31784.532
22893.356
14361.266
8925.2256
4107.8727
683.75945
-518514.57
-482696.36
-507804.74
18755.338
-7172.7691
47735.845
158590.53
228490.3
334898.96
614541.94
596919.02
622485.56
521221.28
501271.32
484219.46
411649.96
403290.83
428188.28
354571.06
354186.28
356455.58
342959.76
339662.95
366740.87
307828.43
295270.38
301571.01
291397.12
277128.45
288788.74
263651.15
241280.9
258317.19
237046.83
219130.48
229812.41
212098.32
193908.02
205426.87
187858.93
170755.74
178620.23
165444.88
148555.63
155185.42
141962
126692.24
131310.81
120745.49
106140.72
109920.69
99962.418
87367.412
90476.395
81198.634
70192.174
71914.172
63584.503
53908.679
55180.056
47680.461
40012.763
40834.369
33474.855
27401.458
27723.579
21965.472
17580.513
17352.234
11425.719
8593.1266
8286.9185
4674.8695
3591.1349
3149.4471
574.8723
-901.9344
-684.4873
1129.5489
1537.9505
2182.2867
553.99643
1035.6347
1212.3889
-2330.1353
-2016.1574
-2426.1654
-482507.44
-405078.34
-452372.23
-466223.86
-395847.04
-430734.76
-449771.68
-380004.97
-420176.86
-380224.39
-345256.9
-375277.02
-362603.61
-333574.81
-336101.9
-328898.5
-282161.91
-317504.2
-291049.39
-273896.76
-296809.28
-269958.29
-243340.76
-263708.4
-230922.65
-222564.98
-234575.1
-208264.9
-194641.09
-217065.67
-182614.98
-173436.51
-188601.65
-159348.7
-147605.91
-166471.6
-132962.9
-127769.26
-143160.01
-112427.7
-107422.6
-121318.51
-91481.523
-88798.28
-100189.53
-72935.909
-71228.422
-80928.861
-56118.368
-55618.16
-63059.554
-41040.601
-41361.627
-47004.704
-27913.31
-28923.204
-32646.913
-17245.216
-17748.04
-21068.247
-8639.4604
-8363.2725
-11180.148
-2267.0943
-2698.2046
-4391.1388
175.41098
80.99322
-578.93541
-226342.01
-224634.55
-185788.64
-210785.35
-201041.77
-186465.55
-173576.98
-162398.35
-141640.49
-130887.93
-121724.48
-104292.78
-89993.467
-77641.462
-64869.955
-53202.764
-42119.117
-32302.599
-23556.159
-15777.717
-9512.4874
-4681.7137
-71.507944
62167.112
-18345.46
-6273.5829
-44821.501
-58878.506
-32990.903
-55290.056
-42782.837
-41565.364
-38285.508
-38241.972
-32923.695
-29484.329
-26327.37
-22438.759
-18793.636
-15073.12
-11919.975
-8549.4133
-5538.2539
-3415.037
-898.22932
15.274644
202150.06
205085.84
256358.83
209172.67
218027.85
199578.13
168441.68
155529.63
134276.9
117390.66
102352.08
86796.649
74567.703
60978.659
51120.176
40921.641
32435.637
24617.809
18575.843
12790.111
8501.8666
4140.4381
2930.0825
-335380.66
-355630.09
-290222.07
-267060.12
-292391.93
-268300.06
-208711.71
-229310.53
-266423.26
-182273.06
-241837.71
-196077.83
-199792.07
-179484.43
-199001.35
-141668.21
-188030.59
-194838.7
-145355.51
-170815.72
-163576.42
-128721.66
-143657.24
-153152.53
-113874.8
-127620.12
-147040.46
-97264.975
-118923.38
-124177.21
-84902.935
-99127.823
-110355.67
-68416.281
-87133.727
-97889.941
-59150.176
-73738.647
-84152.779
-48457.347
-61017.48
-70815.847
-38645.488
-48940.583
-58888.331
-30207.467
-38971.607
-47292.064
-22971.027
-29095.993
-36848.751
-16519.437
-21032.831
-27056.6
-11377.899
-13444.651
-18956.977
-7338.3159
-8595.8949
-12173.948
-2806.567
-4556.0133
-6036.6161
-1846.4004
-2038.5955
-3335.6871
685.7036
510.20989
592.53859
36093.799
78938.182
52029.534
64.785171
-37703.534
-2828.1995
-41112.548
-29479.052
2670.3882
-26631.439
-23290.594
12479.517
-18681.226
-33904.568
-22935.564
-16119.221
-39261.847
-1029.3059
-18435.8
-28519.206
-831.11938
-6782.2725
-25134.718
-9445.5869
-3303.083
-27994.492
-3332.2165
-4615.0784
-19334.389
-6408.9765
1080.861
-17033.675
-5279.2605
1364.0815
-15974.72
-7415.84
2060.2569
-13894.841
-5069.4805
2923.989
-10446.197
-5855.1864
3816.9467
-9693.0915
-5540.4711
3235.852
-7758.8154
-5170.746
3109.2755
-6254.5867
-4778.8615
2643.1965
-5125.3761
-4149.0175
1614.6271
-3379.0405
-4051.4294
1004.5617
-2507.3012
-2878.6482
527.46496
-746.01342
-2300.6396
835.82545
-801.1257
-1329.135
-281.75902
-822.27991
-1204.6529
265989.89
313569.16
362796.49
182547.47
179550.51
238814.33
182693.21
284204.39
248229.01
221686.47
206575.02
201765.25
169023.11
216642.86
199210.42
166790.31
198311.37
190421.14
154954.78
186882.72
163660.83
141797.44
165730.91
156579.79
125541.2
153819.3
135607.04
118205.15
135867.36
121496.56
103800.03
119573.92
105367.8
92834.258
103984.06
92813.965
79998.362
91221.424
79608.204
69611.184
77135.71
67169.286
58164.512
64426.541
55432.396
48174.83
52392.439
45871.2
38323.097
41821.619
36099.647
30096.479
31528.952
28146.549
21944.061
23265.886
20603.634
15526.939
14603.323
14246.521
10180.759
9448.4501
9594.6361
4366.9937
3258.7617
3214.5105
2336.7487
1783.3244
3382.3392
)
;

boundaryField
{
    free
    {
        type            calculated;
    }
    fixed
    {
        type            calculated;
    }
    freeTop
    {
        type            calculated;
    }
}


// ************************************************************************* //
