/*--------------------------------*- C++ -*----------------------------------*\
  =========                 |
  \\      /  F ield         | OpenFOAM: The Open Source CFD Toolbox
   \\    /   O peration     | Website:  https://openfoam.org
    \\  /    A nd           | Version:  6
     \\/     M anipulation  |
\*---------------------------------------------------------------------------*/
FoamFile
{
    version     2.0;
    format      ascii;
    class       pointVectorField;
    location    "1.51";
    object      lm;
}
// * * * * * * * * * * * * * * * * * * * * * * * * * * * * * * * * * * * * * //

dimensions      [1 -2 -1 0 0 0 0];

internalField   nonuniform List<vector> 
3969
(
(0 0 0)
(0 0 0)
(-4076.3265 87.703938 24.616509)
(-4082.9755 918.04722 -82.294961)
(0 0 0)
(0 0 0)
(-3975.3902 870.77436 -81.894506)
(-3973.1583 42.487484 25.437335)
(0 0 0)
(0 0 0)
(0 0 0)
(0 0 0)
(0 0 0)
(0 0 0)
(0 0 0)
(-3843.2477 176.85635 11.045948)
(-3651.8332 258.57994 -0.93655903)
(-3687.0386 353.05954 -12.784618)
(-3915.4493 473.58804 -26.277545)
(-4190.9559 613.64151 -42.039103)
(-4340.9429 747.50009 -57.929721)
(-4273.9299 847.39615 -71.624272)
(-3.7719489 -17.1718 -18.725572)
(-2.1625461 -30.777133 -24.79009)
(-5.8115042 -49.877157 -30.8323)
(-16.342346 -69.188843 -33.834388)
(-31.432673 -90.986267 -38.135451)
(-54.516555 -113.04373 -40.107495)
(-82.80936 -136.18256 -43.733705)
(-120.053 -159.86804 -45.272737)
(-163.46011 -183.41894 -48.036416)
(-215.72828 -207.0876 -49.024834)
(-275.53282 -230.37978 -50.696531)
(-343.58117 -252.82993 -51.329567)
(-419.85696 -274.07998 -51.743116)
(-503.99753 -294.11911 -51.942205)
(-595.87917 -311.88046 -51.6009)
(-694.80928 -327.81244 -51.305629)
(-800.60475 -341.07984 -50.825836)
(-912.36916 -351.55188 -50.290385)
(-1029.497 -358.99884 -49.833441)
(-1150.9947 -363.20105 -49.41193)
(-1275.9854 -364.0934 -49.174975)
(-1403.5184 -361.69463 -48.986829)
(-1532.6102 -356.06306 -48.91725)
(-1662.334 -347.48227 -48.832267)
(-1791.7328 -336.08827 -48.741874)
(-1920.1348 -322.20837 -48.438186)
(-2046.5927 -306.3142 -47.975726)
(-2170.5625 -288.68767 -47.189676)
(-2291.532 -269.79616 -45.920434)
(-2409.0964 -250.04773 -44.297477)
(-2522.9991 -229.76426 -42.088899)
(-2632.9658 -209.3447 -39.386815)
(-2739.0279 -188.99622 -36.196434)
(-2841.1414 -168.86582 -32.56903)
(-2939.338 -149.30981 -28.434778)
(-3033.7426 -130.18531 -24.204223)
(-3124.7326 -111.3789 -19.529375)
(-3212.0078 -93.394783 -14.877852)
(-3296.2679 -75.320618 -10.300137)
(-3377.4764 -57.96141 -5.6524826)
(-3455.8456 -40.305466 -1.2733581)
(-3532.0219 -22.768037 2.9763121)
(-3605.2702 -5.5665211 7.0091146)
(-3677.7351 12.849355 10.71785)
(-3747.2675 30.008028 14.358659)
(-3816.7365 48.470562 17.625078)
(-3882.5268 66.327894 20.943783)
(3.0121924 13.836799 20.60364)
(-0.22389609 27.313029 20.027093)
(-0.69266087 42.321891 27.308893)
(-11.601699 62.933053 22.987794)
(-28.418206 83.476061 22.617542)
(-49.899629 106.12475 18.515019)
(-79.788864 129.44725 15.08038)
(-114.73847 153.96198 10.279795)
(-157.0946 178.32808 5.3084162)
(-206.34808 203.9596 -0.63925412)
(-261.71105 228.39614 -6.5376886)
(-324.42343 253.6879 -13.722292)
(-393.23492 278.07749 -20.77926)
(-468.76658 301.88431 -28.936167)
(-550.1858 325.3447 -37.382835)
(-637.54133 347.55991 -46.4327)
(-730.44935 369.38843 -55.886605)
(-828.19642 389.83316 -65.63528)
(-930.76403 409.80688 -75.609914)
(-1037.1632 428.63545 -85.527219)
(-1147.2569 446.85219 -95.353932)
(-1260.2548 464.32621 -104.79156)
(-1375.6391 481.13696 -113.619)
(-1493.0504 497.69427 -121.7453)
(-1611.7223 513.61551 -128.91949)
(-1731.2437 529.50387 -135.04302)
(-1851.4356 545.35576 -139.78043)
(-1971.4027 561.01735 -143.26671)
(-2090.9652 576.92873 -145.34555)
(-2209.9131 592.98702 -146.04353)
(-2327.8745 609.43873 -145.38847)
(-2444.6898 626.15588 -143.49425)
(-2560.1977 643.30125 -140.49142)
(-2674.2696 660.82151 -136.57754)
(-2786.839 678.77942 -132.01424)
(-2897.745 697.01999 -126.9596)
(-3006.9202 715.70742 -121.66587)
(-3114.3603 734.44493 -116.70828)
(-3219.9416 753.51372 -111.71277)
(-3323.0533 772.59953 -107.22321)
(-3424.0363 791.3698 -103.0164)
(-3522.088 809.82575 -99.430462)
(-3617.3343 828.00913 -96.145271)
(-3709.1815 845.44936 -93.231226)
(-3797.4989 862.20119 -90.466199)
(-3881.9878 878.07221 -87.49804)
(-3978.3182 896.83744 -84.974009)
(0 0 0)
(0 0 0)
(0 0 0)
(0 0 0)
(0 0 0)
(0 0 0)
(0 0 0)
(-5.6272955 12.438467 -19.879302)
(0.2363715 43.199321 -36.82901)
(5.7003139 49.111888 -46.317594)
(0.45898765 80.733945 -56.304549)
(-10.575746 100.09186 -65.113324)
(-27.013001 124.69894 -70.86572)
(-52.175035 151.85187 -79.052026)
(-81.926847 174.11925 -83.213086)
(-120.65881 203.43026 -90.110951)
(-164.98845 226.71643 -93.30986)
(-216.96013 254.7692 -98.951779)
(-275.25973 278.22984 -101.65737)
(-341.17653 303.95902 -104.95384)
(-413.5056 327.86812 -107.15576)
(-492.29671 350.95648 -109.06625)
(-576.80687 373.63589 -110.90412)
(-667.18606 394.49035 -112.26939)
(-762.3238 414.69348 -113.77902)
(-862.37982 433.32326 -115.1491)
(-966.30411 450.72915 -116.59539)
(-1073.9511 466.87578 -118.12576)
(-1184.5306 481.69484 -119.71413)
(-1297.674 495.45967 -121.37262)
(-1412.7532 508.07031 -123.02893)
(-1529.3839 520.01416 -124.6473)
(-1646.616 531.06734 -126.30826)
(-1764.3791 541.85841 -127.87894)
(-1882.5227 552.11922 -128.93625)
(-2000.345 562.49832 -129.77798)
(-2117.5855 573.09201 -130.21782)
(-2233.9533 584.15631 -130.25454)
(-2349.1632 595.87759 -129.81686)
(-2463.0721 608.39717 -128.85318)
(-2575.4488 621.89208 -127.42681)
(-2686.2019 636.39236 -125.53442)
(-2796.0087 652.20419 -122.98423)
(-2902.5206 668.07642 -120.62745)
(-3007.1052 685.44724 -117.01261)
(-3109.5833 703.18799 -113.75219)
(-3209.6143 721.49912 -110.11867)
(-3307.4124 739.85604 -106.32624)
(-3402.0529 758.18156 -102.58656)
(-3493.9212 776.07293 -98.771138)
(-3582.6017 793.46866 -95.052484)
(-3668.0554 810.01089 -91.311251)
(-3750.2995 825.80717 -87.66276)
(-3812.8206 837.14646 -83.718058)
(-4173.1042 801.18092 -70.967233)
(-4219.0102 696.6902 -57.390315)
(-4044.4188 561.33995 -41.277878)
(-3746.1908 422.15628 -25.73631)
(-3563.7414 309.22316 -12.621272)
(-3568.0858 218.7251 -0.93906611)
(-3784.1575 135.65127 11.81225)
(-3808.0188 22.423919 22.216284)
(-3752.6027 3.7288292 19.85045)
(-3680.3576 -15.33633 17.408648)
(-3606.9231 -34.114303 14.831789)
(-3531.6647 -52.813075 11.731982)
(-3454.343 -71.27828 8.2842811)
(-3374.878 -89.415002 4.2360654)
(-3293.0128 -107.28004 -0.3951742)
(-3208.6894 -124.73317 -5.6541662)
(-3121.4631 -141.85768 -11.383572)
(-3027.9526 -158.59155 -17.392628)
(-2938.2121 -175.59086 -23.479395)
(-2842.1477 -191.58737 -30.302744)
(-2742.0075 -207.76984 -36.010632)
(-2638.598 -223.58903 -41.740447)
(-2531.5722 -239.09149 -46.611619)
(-2420.9838 -254.2091 -50.608886)
(-2306.8021 -268.83882 -53.523275)
(-2189.3762 -282.73704 -55.2309)
(-2068.8798 -295.77888 -55.646782)
(-1945.8057 -307.68759 -54.733754)
(-1820.6822 -318.17492 -52.558857)
(-1694.053 -327.10215 -49.081476)
(-1566.7758 -334.05264 -44.593763)
(-1439.6252 -338.89331 -39.110451)
(-1313.4588 -341.36383 -32.897706)
(-1189.2358 -341.30921 -26.111824)
(-1067.8204 -338.61061 -18.998022)
(-950.23815 -333.20915 -11.750916)
(-837.15472 -325.12548 -4.5675926)
(-729.59379 -314.40093 2.4019764)
(-628.07139 -301.36841 8.9881766)
(-535.07042 -286.63599 14.990082)
(-446.02467 -268.24912 20.336323)
(-365.85054 -248.74436 25.361531)
(-293.73663 -228.62234 29.063308)
(-229.82228 -206.71669 32.569225)
(-173.51936 -184.46783 34.888759)
(-124.73706 -161.50136 37.150015)
(-84.512911 -138.71432 37.972645)
(-51.956513 -117.7118 39.136884)
(-25.251076 -94.48818 37.930748)
(-6.9284059 -75.763945 38.269804)
(5.7157781 -54.895601 34.901678)
(10.989022 -39.252761 32.15592)
(11.494884 -20.99042 26.257093)
(-2.0570889 -10.141621 13.474023)
(0 0 0)
(0 0 0)
(0 0 0)
(0 0 0)
(0 0 0)
(0 0 0)
(0 0 0)
(0 0 0)
(0 0 0)
(0 0 0)
(0 0 0)
(0 0 0)
(0 0 0)
(0 0 0)
(-4069.1375 912.36395 -82.001157)
(-4055.7834 906.71146 -81.719302)
(-4042.3895 900.77792 -81.742358)
(-4029.0056 894.96172 -81.755436)
(-4015.5245 888.92087 -81.904834)
(-4002.2142 883.07181 -81.791995)
(-3988.7156 877.03124 -81.980184)
(-4063.8976 81.958377 24.709432)
(-4051.1408 76.098776 24.660183)
(-4038.4507 70.407993 24.784772)
(-4025.6016 64.799209 24.941128)
(-4012.6922 59.123863 25.069407)
(-3999.6418 53.640127 25.184899)
(-3986.5163 48.210754 25.354133)
(2.2542534 -14.164877 -16.924805)
(3.6830886 -24.966188 -17.833588)
(2.7132576 -38.227121 -22.858514)
(-4.9381316 -51.796123 -26.043651)
(-16.10627 -65.492561 -29.110117)
(-35.3585 -81.595583 -32.326078)
(-58.939841 -97.095377 -34.986042)
(-91.053606 -114.66213 -38.251913)
(-130.33471 -131.70528 -40.358014)
(-178.13468 -149.78938 -43.243976)
(-234.89747 -167.59055 -45.346634)
(-301.06139 -185.15121 -47.237367)
(-377.22506 -202.44762 -49.030755)
(-463.11652 -218.5154 -50.326454)
(-558.92515 -233.23419 -51.718195)
(-664.20293 -246.1002 -52.727855)
(-778.40777 -256.608 -53.718351)
(-900.40995 -264.41823 -54.669533)
(-1029.4141 -269.22634 -55.501916)
(-1163.7505 -270.72936 -56.443866)
(-1302.1071 -268.77557 -57.326078)
(-1442.7082 -263.41595 -58.24153)
(-1583.9973 -254.67721 -59.080022)
(-1724.3275 -242.90494 -59.790572)
(-1862.1997 -228.2691 -60.2833)
(-1996.4025 -211.4265 -60.486721)
(-2125.7719 -192.71306 -60.202286)
(-2249.5671 -172.59479 -59.395979)
(-2366.9984 -151.69248 -58.139976)
(-2477.9908 -130.3901 -56.213173)
(-2582.2105 -109.12214 -53.695655)
(-2679.7862 -88.187672 -50.65067)
(-2771.0046 -67.786152 -47.138649)
(-2856.1588 -48.215486 -43.127641)
(-2935.6799 -29.405121 -38.945171)
(-3010.2867 -11.34709 -34.44945)
(-3080.317 5.8023394 -29.969988)
(-3146.5384 22.287568 -25.403452)
(-3209.5682 38.27361 -21.032352)
(-3270.0883 53.601301 -16.664264)
(-3328.8669 68.878014 -12.661696)
(-3386.4519 83.592629 -8.6571274)
(-3443.7266 98.42933 -5.0814974)
(-3501.6661 113.10546 -1.5094057)
(-3560.0229 127.56753 1.7396883)
(-3621.1711 142.39554 4.8755244)
(-3700.1455 157.91432 7.8275738)
(7.7779493 -10.122731 -11.860199)
(9.8320561 -15.427441 -12.399873)
(8.1782534 -27.400821 -17.034635)
(2.5306649 -34.835574 -19.017774)
(-9.3319077 -46.081479 -22.66135)
(-25.269512 -56.71191 -24.637997)
(-48.575536 -68.401715 -28.681689)
(-79.267103 -80.610888 -30.491116)
(-117.43214 -92.652847 -34.609001)
(-164.81981 -105.59457 -37.19416)
(-221.69646 -117.68233 -40.285193)
(-288.52042 -130.27039 -43.208277)
(-366.05626 -141.61895 -46.103005)
(-454.19077 -152.14108 -48.83785)
(-553.01158 -161.31711 -51.502425)
(-661.90191 -168.78642 -53.901169)
(-779.98228 -174.15856 -56.40336)
(-906.35622 -177.00987 -58.755923)
(-1039.394 -177.13591 -61.16973)
(-1177.5376 -174.24281 -63.548589)
(-1318.6713 -168.36098 -65.869369)
(-1461.0387 -159.47761 -68.073455)
(-1602.3237 -147.72573 -70.102019)
(-1741.0353 -133.43757 -71.760757)
(-1875.2338 -116.94475 -73.0571)
(-2003.8761 -98.603457 -73.643823)
(-2125.6776 -79.209946 -73.575393)
(-2239.965 -58.756886 -72.954954)
(-2346.565 -38.143391 -71.304497)
(-2445.3016 -17.542108 -68.997661)
(-2536.4124 2.6327148 -65.951002)
(-2620.379 22.204906 -62.318865)
(-2697.8757 40.858007 -58.114713)
(-2769.4595 58.653309 -53.613883)
(-2836.2752 75.578963 -48.898244)
(-2898.88 91.446488 -44.033422)
(-2958.3866 106.68785 -39.346262)
(-3015.683 121.09995 -34.663788)
(-3071.6797 135.18735 -30.353471)
(-3127.3716 148.61248 -26.187681)
(-3183.3524 162.19172 -22.403431)
(-3241.1473 175.27125 -18.835907)
(-3300.7323 188.57824 -15.4992)
(-3363.9491 202.09926 -12.511982)
(-3430.4303 215.51413 -9.5130449)
(-3502.1651 229.80359 -6.8054842)
(-3584.8182 244.77909 -3.9516763)
(14.037078 -6.4505974 -8.6444195)
(14.380372 -11.439382 -9.4238433)
(14.306893 -17.381649 -11.881588)
(5.6316059 -23.795961 -14.309869)
(-5.5128731 -29.637846 -16.754179)
(-25.456246 -36.840656 -20.062408)
(-51.188705 -42.485409 -22.355681)
(-84.843415 -49.493368 -26.361493)
(-126.87531 -55.434199 -29.588381)
(-178.09351 -61.526015 -32.66082)
(-238.11035 -67.314896 -36.522959)
(-308.18636 -72.158922 -39.778658)
(-387.76201 -76.358921 -43.292132)
(-476.87623 -79.540486 -46.739505)
(-575.21319 -81.55974 -50.255612)
(-681.66228 -81.958923 -53.620735)
(-795.59716 -80.722473 -57.077786)
(-915.35172 -77.631204 -60.437593)
(-1039.8572 -72.52064 -63.893496)
(-1167.0703 -65.479698 -67.207738)
(-1295.7452 -56.417989 -70.385644)
(-1423.8216 -45.394154 -73.387945)
(-1550.1624 -32.725471 -75.94532)
(-1673.2241 -18.601734 -78.098163)
(-1791.962 -3.1709062 -79.624394)
(-1905.4182 13.069055 -80.531604)
(-2013.0686 30.021715 -80.860072)
(-2114.6612 47.358527 -80.348193)
(-2210.3951 64.730187 -79.079469)
(-2300.4364 81.973595 -77.169668)
(-2385.3232 98.935634 -74.58817)
(-2465.8331 115.41733 -71.431701)
(-2542.5786 131.43189 -67.836901)
(-2616.708 147.01886 -63.927833)
(-2688.8571 161.96959 -59.719337)
(-2760.1383 176.70707 -55.487045)
(-2831.3305 191.03822 -51.196548)
(-2903.3146 205.32075 -46.951017)
(-2976.7653 219.50932 -42.945848)
(-3052.4432 233.77873 -38.911971)
(-3131.0244 248.42089 -35.359094)
(-3212.9299 262.99477 -31.592213)
(-3298.4288 278.53897 -28.524618)
(-3388.491 294.14595 -25.131404)
(-3482.3068 310.56194 -22.198363)
(-3581.3947 327.61281 -19.153995)
(-3677.1144 344.55399 -16.241181)
(16.494968 -2.7827996 -2.5476089)
(16.330516 -3.0875801 -1.7806425)
(14.580775 -6.0131201 -4.824036)
(5.4967972 -6.9659714 -7.0145639)
(-11.552614 -8.0993557 -10.670328)
(-34.442243 -9.6201624 -13.113104)
(-66.160367 -9.0534065 -17.90868)
(-105.31662 -10.048752 -20.858308)
(-153.59277 -8.63999 -24.949942)
(-209.79256 -8.3282703 -29.248535)
(-274.86962 -6.0418498 -33.191274)
(-348.01917 -3.975546 -37.047214)
(-428.46895 -1.0014872 -41.195349)
(-516.09306 2.8417864 -45.24476)
(-609.31935 7.0842501 -49.41515)
(-707.98789 12.456279 -53.619412)
(-810.23852 18.353267 -57.775517)
(-915.62761 25.346228 -61.980666)
(-1022.5963 33.131322 -66.142698)
(-1130.4514 41.734326 -70.079855)
(-1238.0445 51.326415 -73.938975)
(-1344.8489 61.434117 -77.397146)
(-1449.8025 72.29188 -80.524469)
(-1552.6114 83.958096 -83.27392)
(-1652.9286 96.164432 -85.513385)
(-1750.8185 108.9861 -87.165122)
(-1846.312 122.1978 -88.034362)
(-1939.6369 135.79983 -88.239031)
(-2031.1414 149.67724 -87.723516)
(-2121.2525 163.87946 -86.519469)
(-2210.6387 178.26538 -84.623948)
(-2299.8 192.88399 -82.140158)
(-2389.5255 207.79879 -79.158665)
(-2480.3233 222.84065 -75.684965)
(-2572.9471 238.31406 -71.96043)
(-2667.8974 254.00242 -67.941464)
(-2765.6655 270.245 -63.91658)
(-2866.7533 286.83787 -59.812858)
(-2971.2447 304.09228 -55.862)
(-3079.5896 321.97027 -52.04415)
(-3191.3773 340.58039 -48.455487)
(-3306.9894 359.94971 -45.050157)
(-3425.6366 380.19626 -41.946162)
(-3547.7471 401.07401 -38.835407)
(-3671.6132 422.63947 -36.046441)
(-3798.2339 444.95155 -33.271698)
(-3909.1873 465.77457 -30.296728)
(19.20656 2.8037258 4.160912)
(16.852882 5.3191495 3.2015197)
(15.901853 9.7244327 1.2789214)
(1.1976069 13.803953 -0.92212002)
(-17.760592 19.855707 -3.8458954)
(-46.695639 25.238685 -7.7489337)
(-83.224368 32.693117 -11.541239)
(-128.61972 39.126462 -15.177675)
(-181.3639 47.327891 -20.199667)
(-242.21693 54.671503 -24.285316)
(-309.62834 63.1681 -28.708573)
(-383.04237 70.588345 -33.619025)
(-461.51037 79.251286 -38.466089)
(-544.25866 86.985297 -43.378202)
(-630.28724 95.295679 -48.366391)
(-718.72492 103.36872 -53.289179)
(-808.85469 111.52586 -58.092388)
(-899.83825 119.72122 -62.857281)
(-991.42913 128.02965 -67.454121)
(-1082.8782 136.55066 -71.836996)
(-1174.4446 145.273 -76.036292)
(-1270.4127 154.9647 -80.182544)
(-1367.8143 165.19173 -84.054412)
(-1458.4868 175.01382 -87.08818)
(-1549.0019 185.28074 -89.568459)
(-1639.7829 196.02708 -91.544324)
(-1731.0729 207.307 -93.015143)
(-1823.3596 219.22395 -94.021909)
(-1917.0537 231.80699 -94.416568)
(-2012.6393 245.06678 -94.290846)
(-2110.5304 259.03772 -93.560553)
(-2211.1706 273.79183 -92.344478)
(-2314.9172 289.29782 -90.551531)
(-2422.1717 305.65024 -88.311441)
(-2533.1843 322.82429 -85.608616)
(-2648.1809 340.91424 -82.566964)
(-2767.2788 359.87815 -79.248419)
(-2890.771 379.7544 -75.64602)
(-3035.02 402.7833 -72.622218)
(-3175.4537 426.11712 -69.111106)
(-3311.58 449.12812 -65.670986)
(-3450.3738 473.06181 -62.078964)
(-3590.7278 497.84043 -58.928246)
(-3731.9429 523.15007 -55.587094)
(-3872.4341 549.08799 -52.684705)
(-4012.248 575.35704 -49.440269)
(-4132.9111 599.25232 -46.129591)
(16.226338 6.7266179 11.545171)
(12.194248 16.870271 10.67398)
(10.053077 26.172273 10.864384)
(-4.932389 37.518986 8.4213045)
(-25.953345 49.578782 4.8810339)
(-56.025298 62.091847 1.2697452)
(-94.11587 76.16939 -2.9759053)
(-139.80329 89.14355 -7.8207415)
(-192.9334 103.65626 -12.715715)
(-252.54109 116.52518 -17.831725)
(-318.14476 130.42313 -23.373688)
(-388.52217 142.86332 -28.969779)
(-463.40254 155.43815 -34.60704)
(-541.50803 166.87676 -40.545859)
(-622.28341 178.09013 -46.364455)
(-705.18328 188.49589 -52.353774)
(-789.55224 198.62509 -58.157263)
(-875.24683 208.20009 -64.034128)
(-961.84687 217.75194 -69.682201)
(-1049.4006 227.00717 -75.192865)
(-1138.0213 236.46534 -80.507223)
(-1229.9377 246.53206 -85.549272)
(-1320.518 256.08185 -90.213427)
(-1413.1254 266.38169 -94.541825)
(-1506.0523 276.81398 -98.273624)
(-1600.6688 287.84361 -101.53873)
(-1697.7332 299.52833 -104.26109)
(-1797.4659 312.02282 -106.40479)
(-1900.121 325.39918 -107.89219)
(-2005.8455 339.68687 -108.69703)
(-2114.9186 354.94043 -108.79653)
(-2227.4112 371.17993 -108.17957)
(-2343.483 388.48373 -106.85027)
(-2463.0682 406.76218 -104.85747)
(-2586.2569 426.20596 -102.28159)
(-2712.8295 446.52193 -99.154767)
(-2842.672 467.93908 -95.633197)
(-2975.6616 490.25757 -91.894073)
(-3111.6461 513.67933 -87.896077)
(-3275.1799 541.8994 -84.756267)
(-3412.3985 566.78793 -80.85249)
(-3551.2046 592.18681 -77.138629)
(-3689.2836 618.10776 -73.733232)
(-3825.7924 644.26119 -70.430334)
(-3959.4134 670.47159 -67.349378)
(-4089.1909 696.42581 -64.20881)
(-4207.4328 720.51315 -61.165169)
(9.8671268 13.998893 16.604464)
(7.1989026 26.577619 15.811191)
(6.2986515 40.051386 18.014832)
(-8.4002289 55.520257 15.600941)
(-26.170621 72.41258 13.019951)
(-54.322164 90.56568 9.3172111)
(-88.062944 109.40048 5.0241846)
(-130.00154 128.11969 0.26609952)
(-178.47143 147.70882 -4.8941089)
(-233.56457 165.8188 -10.566161)
(-295.08871 185.03759 -16.733121)
(-361.71521 201.98315 -22.658482)
(-434.08521 219.67519 -29.685996)
(-510.36624 235.69912 -36.393829)
(-591.27497 251.40494 -43.700485)
(-675.37991 266.10413 -50.921839)
(-763.01283 280.26181 -58.415624)
(-853.29333 293.87717 -65.829015)
(-946.24726 307.0083 -73.244498)
(-1041.6103 320.00043 -80.557675)
(-1139.0995 332.73357 -87.550464)
(-1238.8654 345.64451 -94.364385)
(-1340.5415 358.6199 -100.66431)
(-1444.3564 371.84656 -106.42858)
(-1550.06 385.51548 -111.68611)
(-1657.6324 399.61737 -116.24)
(-1767.2946 414.21446 -120.0591)
(-1878.6744 429.49449 -123.06017)
(-1991.7908 445.36463 -125.1782)
(-2106.4885 461.86664 -126.34586)
(-2222.762 478.98003 -126.60153)
(-2340.4135 496.78886 -125.918)
(-2459.3523 515.1998 -124.35981)
(-2579.4168 534.23483 -121.9879)
(-2700.4841 553.89127 -118.8948)
(-2822.3314 574.10543 -115.23938)
(-2944.9157 594.8192 -111.0905)
(-3067.7428 616.08671 -106.74642)
(-3190.7989 637.80111 -102.44214)
(-3314.0542 660.05252 -98.062193)
(-3435.2801 682.43417 -93.918919)
(-3555.6683 704.93044 -89.984565)
(-3673.9054 727.53598 -86.469856)
(-3789.4682 750.006 -83.09197)
(-3901.2024 772.1619 -80.043959)
(-4008.631 793.67791 -76.884267)
(-4106.0859 813.256 -73.639812)
(0 0 0)
(0 0 0)
(0 0 0)
(0 0 0)
(0 0 0)
(0 0 0)
(0 0 0)
(0 0 0)
(0 0 0)
(0 0 0)
(0 0 0)
(0 0 0)
(0 0 0)
(0 0 0)
(0 0 0)
(0 0 0)
(0 0 0)
(0 0 0)
(0 0 0)
(0 0 0)
(0 0 0)
(0 0 0)
(0 0 0)
(0 0 0)
(0 0 0)
(0 0 0)
(0 0 0)
(0 0 0)
(0 0 0)
(0 0 0)
(0 0 0)
(0 0 0)
(0 0 0)
(0 0 0)
(0 0 0)
(0 0 0)
(0 0 0)
(0 0 0)
(0 0 0)
(0 0 0)
(0 0 0)
(0 0 0)
(0 0 0)
(0 0 0)
(0 0 0)
(0 0 0)
(0 0 0)
(0 0 0)
(0 0 0)
(-3.1562466 3.7216465 11.014613)
(-5.3337981 5.4994895 7.5033449)
(-7.6421317 5.712779 2.603965)
(-8.3553185 5.9914727 -0.90757982)
(-8.0453756 5.5685164 -4.4767181)
(-7.6852462 6.2079721 -8.5194691)
(-5.3930627 2.847507 -11.085878)
(-6.1004259 28.307489 15.373885)
(-10.054855 31.979837 6.3529962)
(-11.476998 30.259506 -0.60997873)
(-12.019171 29.433327 -6.4269877)
(-11.306646 31.233775 -12.428042)
(-8.8332623 31.20741 -19.694043)
(-5.2825669 31.04089 -27.160066)
(-7.3781782 39.513915 17.016597)
(-13.167225 37.599974 9.7036568)
(-16.134088 40.822785 -2.0713134)
(-15.360505 40.965627 -8.7450374)
(-14.269872 39.438146 -19.093361)
(-9.7583069 40.97299 -26.108149)
(-4.3315289 44.049292 -39.064983)
(-20.328835 66.3907 13.278517)
(-23.189449 68.536276 4.3991664)
(-25.354755 68.815586 -6.2449984)
(-24.723232 68.676324 -14.523081)
(-22.649192 69.471942 -25.09972)
(-16.79837 72.4816 -35.5661)
(-9.8390042 72.133291 -45.548519)
(-34.815178 85.563437 12.054795)
(-39.816521 86.233327 2.143257)
(-42.418571 87.903773 -9.6099798)
(-40.985473 88.680427 -20.343187)
(-37.918613 89.845539 -31.32826)
(-31.806146 91.057718 -41.589114)
(-23.44749 93.410043 -54.577733)
(-57.708684 110.16667 7.311657)
(-61.000699 111.856 -2.6439337)
(-62.600441 112.95248 -14.889166)
(-60.687811 114.67925 -24.798192)
(-57.107238 115.01259 -37.496324)
(-49.55579 118.17313 -48.889604)
(-40.066699 119.36714 -60.274872)
(-86.520143 133.80432 3.7799079)
(-89.831753 135.22628 -7.8295932)
(-91.028201 137.80514 -19.43694)
(-89.059139 139.29096 -30.628193)
(-84.476304 140.85916 -42.952539)
(-76.689892 144.07567 -54.104506)
(-66.751916 145.73415 -67.601992)
(-121.00395 158.27001 -1.601371)
(-124.25142 161.50838 -12.086911)
(-124.8725 163.75394 -25.105582)
(-122.02057 165.03912 -36.41349)
(-116.43251 166.49354 -48.301273)
(-108.43937 168.31871 -60.562843)
(-96.849174 170.27514 -72.429501)
(-163.63047 184.51214 -6.3253105)
(-165.64553 186.4199 -18.360165)
(-165.46625 188.81438 -30.042395)
(-162.30215 191.46172 -41.505095)
(-156.81973 193.92268 -53.845738)
(-147.66885 196.35458 -65.429744)
(-136.23357 198.71056 -78.58403)
(-211.22778 208.89015 -12.290839)
(-213.29877 212.67216 -23.333032)
(-212.70987 215.42668 -35.251521)
(-209.34734 218.02328 -47.222702)
(-202.46916 219.24439 -59.056551)
(-193.17683 221.46305 -70.77103)
(-181.04476 223.46157 -82.751124)
(-266.80894 235.24216 -18.273157)
(-267.69585 238.40989 -29.258791)
(-266.912 241.59394 -41.583283)
(-262.17697 243.36147 -52.101542)
(-255.74456 246.04789 -64.240664)
(-245.66928 248.35896 -74.912783)
(-233.38615 251.12926 -87.68904)
(-328.261 260.0489 -24.472474)
(-328.99144 263.97269 -35.906662)
(-326.77394 267.08421 -46.221403)
(-322.29775 270.23882 -57.639546)
(-314.9589 272.04989 -68.903375)
(-304.54109 274.0279 -79.432966)
(-292.28937 276.31511 -91.844075)
(-396.8441 285.73624 -31.532482)
(-396.03997 289.24845 -42.011681)
(-393.69434 292.82014 -52.464092)
(-388.46035 294.69451 -63.031464)
(-380.80234 297.0694 -73.677631)
(-370.05348 299.62346 -83.656329)
(-357.53354 301.47973 -94.967179)
(-471.20701 309.6653 -38.743587)
(-469.64637 313.58411 -48.78911)
(-466.89103 317.11266 -58.270428)
(-460.62652 319.66878 -68.230936)
(-452.76484 322.4158 -78.198464)
(-441.8606 324.11207 -87.26071)
(-429.47569 326.39306 -98.162988)
(-551.62932 333.91169 -46.522595)
(-549.37694 337.71167 -55.828699)
(-545.45835 341.04755 -64.454037)
(-539.00158 343.46991 -73.838206)
(-530.83864 345.61169 -82.537147)
(-519.85092 347.55273 -91.234007)
(-507.37191 349.41943 -100.76792)
(-638.09916 356.51145 -54.705285)
(-634.6026 360.1686 -63.033703)
(-630.14287 363.8651 -70.886315)
(-623.03639 366.14471 -79.052244)
(-614.4195 368.68229 -87.189777)
(-603.32688 370.33949 -94.671169)
(-590.98955 372.2426 -103.37472)
(-729.63574 378.55073 -63.230547)
(-725.36015 382.32481 -70.673153)
(-719.89231 385.6798 -77.391683)
(-712.31534 387.78941 -84.87163)
(-703.42667 390.08273 -91.693241)
(-692.36264 391.47929 -98.360417)
(-680.09662 393.21598 -105.81943)
(-826.5072 399.3755 -72.11985)
(-820.95248 402.871 -78.29502)
(-814.75637 406.21734 -84.307057)
(-806.56787 408.32522 -90.44273)
(-797.28518 410.48522 -96.320919)
(-786.16875 411.78508 -101.99944)
(-774.00657 413.3322 -108.21462)
(-927.71385 419.28729 -81.029304)
(-921.19873 422.60532 -86.304727)
(-914.09494 425.8118 -91.166082)
(-905.29893 427.54449 -96.296521)
(-895.77616 429.52648 -101.09435)
(-884.61699 430.55268 -105.68926)
(-872.63756 431.97407 -110.63375)
(-1033.1347 438.02754 -90.110156)
(-1025.4714 441.10414 -94.208643)
(-1017.4784 443.97276 -98.111164)
(-1008.1623 445.6492 -102.13568)
(-998.24953 447.34382 -105.80817)
(-987.04086 448.22349 -109.42613)
(-975.21335 449.30669 -113.09683)
(-1142.0693 455.91141 -98.963702)
(-1133.3528 458.595 -102.07074)
(-1124.5227 461.26324 -104.99607)
(-1114.6109 462.53808 -107.93743)
(-1104.3745 463.94251 -110.59646)
(-1093.1466 464.51524 -113.1723)
(-1081.4552 465.37434 -115.61333)
(-1254.0272 472.76762 -107.53737)
(-1244.3274 475.10627 -109.6944)
(-1234.626 477.28525 -111.64453)
(-1224.1822 478.37341 -113.62894)
(-1213.6237 479.41413 -115.24722)
(-1202.3102 479.75077 -116.8842)
(-1190.7513 480.2421 -118.16911)
(-1368.4782 488.89492 -115.59596)
(-1357.8699 490.76518 -116.90235)
(-1347.3534 492.62471 -117.97156)
(-1336.455 493.2906 -119.04919)
(-1325.5218 493.85186 -119.71277)
(-1314.1636 493.85532 -120.53017)
(-1302.7226 493.98375 -120.69869)
(-1484.9541 504.42784 -122.99999)
(-1473.4757 505.72543 -123.55401)
(-1462.2951 506.97635 -123.76958)
(-1450.8692 507.25036 -124.15926)
(-1439.573 507.4219 -123.96673)
(-1428.1808 507.11728 -123.96288)
(-1416.7359 506.84096 -123.1675)
(-1602.7652 519.27925 -129.61788)
(-1590.7113 520.04469 -129.37975)
(-1578.7943 520.86919 -129.12987)
(-1566.8453 520.71202 -128.75679)
(-1555.4182 520.32247 -127.68417)
(-1543.81 519.63326 -127.16515)
(-1532.5771 518.8111 -125.45635)
(-1721.6709 533.90479 -135.08791)
(-1709.0109 534.136 -134.37451)
(-1696.4808 534.27551 -133.66324)
(-1684.4562 533.70409 -132.32409)
(-1672.6337 532.77624 -131.3041)
(-1660.8203 531.52563 -129.96189)
(-1649.4675 530.30533 -127.66208)
(-1841.1171 548.39653 -139.44515)
(-1828.0714 547.9918 -138.53414)
(-1815.1474 547.4591 -137.23076)
(-1802.4052 546.33448 -135.73961)
(-1790.621 544.62456 -134.10262)
(-1778.442 543.28928 -132.09142)
(-1767.2425 541.30458 -129.69545)
(-1960.6653 562.78225 -142.62564)
(-1947.3361 561.5085 -141.47524)
(-1933.737 560.52449 -139.85737)
(-1921.1644 558.62555 -138.17711)
(-1908.6522 556.79619 -135.96438)
(-1896.7621 554.6456 -133.96341)
(-1885.3467 552.24036 -131.0803)
(-2079.9749 577.23349 -144.59791)
(-2066.2119 575.39889 -143.16144)
(-2052.6725 573.63087 -141.6142)
(-2039.6468 571.43235 -139.54288)
(-2027.174 568.81532 -137.38576)
(-2015.0632 566.27109 -135.10228)
(-2003.4743 563.16322 -132.06021)
(-2198.615 592.0879 -145.1494)
(-2184.8852 589.4593 -143.81481)
(-2171.0429 587.16098 -142.14374)
(-2157.9481 584.26123 -140.12289)
(-2145.236 581.17398 -137.9081)
(-2132.9383 578.08084 -135.54092)
(-2121.2927 574.37424 -132.52351)
(-2316.4496 607.21536 -144.54566)
(-2302.5957 603.96112 -143.24604)
(-2288.7605 601.00476 -141.71514)
(-2275.5561 597.62336 -139.72776)
(-2262.7365 594.0086 -137.62304)
(-2250.3461 590.41963 -135.31212)
(-2238.5452 586.09473 -132.4517)
(-2433.1304 622.82988 -142.73654)
(-2419.377 619.01184 -141.65615)
(-2405.5564 615.48478 -140.27109)
(-2392.3037 611.60427 -138.44029)
(-2379.4085 607.49852 -136.55137)
(-2366.8471 603.41482 -134.38198)
(-2354.8874 598.52504 -131.79989)
(-2548.5652 639.00094 -139.91972)
(-2534.8989 634.66607 -139.05873)
(-2521.1735 630.60378 -137.91336)
(-2507.9167 626.26849 -136.31422)
(-2494.9638 621.69784 -134.73599)
(-2482.2577 617.15921 -132.7816)
(-2470.1246 611.74443 -130.55428)
(-2662.5121 655.70483 -136.24645)
(-2648.9959 650.98632 -135.66417)
(-2635.4108 646.44085 -134.81795)
(-2622.1841 641.71313 -133.46787)
(-2609.1866 636.72736 -132.27376)
(-2596.3415 631.77685 -130.5563)
(-2584.0426 625.915 -128.77707)
(-2774.8706 673.02205 -131.92361)
(-2761.5246 667.97281 -131.63536)
(-2748.1281 662.99693 -131.06015)
(-2734.9255 657.91078 -130.0535)
(-2721.9219 652.6247 -129.22852)
(-2708.9572 647.27502 -127.76722)
(-2696.4632 641.05807 -126.51276)
(-2885.4778 690.81384 -127.11638)
(-2872.3593 685.60328 -127.0768)
(-2859.0457 680.25631 -126.85704)
(-2845.9681 674.95881 -126.10682)
(-2832.8657 669.30464 -125.58753)
(-2819.3204 663.40129 -124.54606)
(-2807.1192 657.22295 -123.75008)
(-2994.6066 709.23399 -122.08885)
(-2981.2859 703.72615 -122.59609)
(-2968.0616 698.13144 -122.21174)
(-2955.1738 692.49413 -122.10267)
(-2941.9011 686.73412 -121.72788)
(-2928.5582 680.85393 -121.18036)
(-2916.1251 674.14311 -121.02859)
(-3100.4098 727.77132 -117.16727)
(-3088.2531 722.3807 -117.75173)
(-3075.398 716.56002 -118.10419)
(-3062.1946 710.84242 -117.75528)
(-3049.3402 704.77856 -118.16208)
(-3036.6437 699.16417 -117.43928)
(-3022.7627 692.1095 -117.04831)
(-3205.6833 747.03336 -112.4093)
(-3192.9135 741.29922 -112.96718)
(-3179.9307 735.29159 -113.19332)
(-3167.0482 729.47009 -113.30007)
(-3153.8317 723.32923 -113.58007)
(-3140.7035 717.11964 -113.34224)
(-3127.6856 710.1972 -113.69986)
(-3308.0664 765.85089 -107.85594)
(-3295.2215 760.13993 -108.45077)
(-3282.4186 754.14094 -108.98101)
(-3269.3716 748.25227 -109.02233)
(-3256.3063 741.96807 -109.74657)
(-3242.9666 735.81164 -109.59383)
(-3229.5444 729.09248 -109.92221)
(-3407.7715 784.77282 -103.63213)
(-3394.9303 779.05443 -104.40265)
(-3382.0368 772.9446 -104.76225)
(-3369.0873 766.98884 -105.09078)
(-3355.8854 760.70967 -105.67456)
(-3342.5215 754.56685 -105.6559)
(-3329.1803 747.85817 -106.14832)
(-3504.6588 803.28785 -99.889256)
(-3491.7383 797.5963 -100.5493)
(-3478.9111 791.52033 -100.90453)
(-3465.8276 785.50192 -101.20875)
(-3452.6457 779.29848 -101.84096)
(-3439.3015 773.08667 -101.97208)
(-3425.8233 766.54563 -102.43174)
(-3598.584 821.37704 -96.55405)
(-3585.6011 815.63562 -97.090692)
(-3572.624 809.50215 -97.258702)
(-3559.5559 803.52902 -97.707496)
(-3546.3207 797.35094 -98.183339)
(-3532.9262 791.17404 -98.339137)