/*--------------------------------*- C++ -*----------------------------------*\
  =========                 |
  \\      /  F ield         | OpenFOAM: The Open Source CFD Toolbox
   \\    /   O peration     | Website:  https://openfoam.org
    \\  /    A nd           | Version:  6
     \\/     M anipulation  |
\*---------------------------------------------------------------------------*/
FoamFile
{
    version     2.0;
    format      ascii;
    class       pointScalarField;
    location    "0.85";
    object      p;
}
// * * * * * * * * * * * * * * * * * * * * * * * * * * * * * * * * * * * * * //

dimensions      [1 -1 -2 0 0 0 0];

internalField   nonuniform List<scalar> 
625
(
1161221.4
-1700316.9
9409.2454
14387.017
1984265
-3460903.7
13425.217
4554.1578
842463.08
-92111.588
-191267.07
-8570.9215
7247.3626
10676.473
485511.99
542536.28
535896.81
544904.62
488898.47
484067.18
449108.9
416652.99
402392.03
358784.76
334668.3
305504.81
272850.21
243703.79
213052.56
184326.54
153108.58
129313.35
100417.57
77367.558
56238.972
33396.802
21658.973
-604732.41
-398722.73
-552299.71
-443607.82
-418216.52
-424435.31
-371068.62
-351477.36
-333363.1
-301519.45
-279137.05
-251022.88
-228620.5
-199470.93
-174913.19
-149281
-123569.31
-100478.17
-76428.649
-56959.864
-36243.728
-19807.051
-3918.3197
1261442.9
-154942.41
-389777.9
-647920.37
-840032.46
-629862.75
-552446.58
-669405.54
-503598.37
-480640.14
-466900.26
-433937.46
-409801.68
-363201.77
-336627.03
-296485.99
-262032.03
-227468.67
-191461.84
-159481.29
-127299.63
-97319.618
-70434.614
-45087.267
-24182.253
-3330.2651
11114.46
5314.725
-2164.3496
26183.635
38133.906
54229.693
77508.427
103888.63
130282.52
159510.71
189739.65
220688.85
253246.7
282688.16
320107.43
345681.99
379051.97
391939.79
461782.98
467887.22
486576.74
572112.64
519377.84
645113.44
526185.25
579828.75
1191822.1
1179714.8
1189918.1
-1898223.7
-1919408.2
-1917506.9
20224.364
21076.762
24146.559
-1825.2487
3393.4188
756.74958
306515.83
330948.24
343332.38
309611.9
293515.29
297731.57
265197.99
260806.55
235530.65
219015.87
204753.67
184070.25
164415.83
146409.49
127534.38
108253.97
91393.585
74852.66
57663.774
47163.689
32714.178
20424.917
14162.475
-61462.95
-49709.778
-69916.338
-33490.743
-52982.215
-39445.518
-37681.364
-29738.362
-29789.205
-23040.402
-21396.284
-18455.097
-14955.758
-10912.942
-9068.6178
-5949.3358
-3217.1063
-1178.2524
626.95878
2954.8602
2923.4574
7728.9859
8503.3311
-396923.51
-334670.1
-312216.77
-272335.69
-312010.41
-249630.08
-250389.96
-229516.17
-208328.99
-190347.13
-173668.54
-154407.99
-136746.87
-119781.08
-103047.95
-86340.526
-70961.68
-55286.591
-42182.575
-27337.692
-17535.259
-8510.1748
1759.1582
802847.93
716750.96
725288.2
-124666.37
-85208.003
-151549.78
-103175.14
-178285.99
-328513.85
-921489.94
-917204.37
-970531.36
-746543.19
-700302.57
-691808
-618014.63
-581667.4
-624394.85
-500628.47
-505061.68
-520535.36
-498099.86
-500545.46
-530312.67
-456496.95
-439965.6
-460429.84
-431908.47
-435422.89
-460992.37
-406785.17
-386956.27
-416373.31
-375986.06
-364614.25
-387419.17
-343947.89
-332412.21
-359981.66
-312772.39
-305433.49
-325868.45
-284772.79
-275446.19
-294711.44
-251923.05
-245132.76
-263323.09
-222021.38
-215162.62
-230888.76
-192396.46
-185964.21
-200520.22
-162689.5
-157132.94
-168731.01
-134613.23
-128579.32
-139071.18
-107155.06
-102770.54
-111044.99
-81899.817
-76939.063
-83194.22
-58518.331
-54778.481
-59771.697
-35309.69
-33000.019
-36330.813
-19086.263
-19589.835
-20590.655
-7345.7245
-2434.5681
-5367.6682
-12572.171
-13268.135
-14609.985
4893.1978
4425.5668
6676.4637
15188.558
16745.416
16454.981
653433.18
585987.7
611172.21
599908.13
559627.66
622422.28
642735.77
558707.58
579799.43
556915.85
499116.62
553352.8
546626.76
513856.47
521502.94
523961.91
452121.41
488196.08
483095.88
440548.22
469112.15
463874.33
408920.12
424344.89
425405.76
381087.41
405651.68
392868.76
351387.84
375365.09
365417.96
320641.43
338531.23
330245.23
290837.44
311156.27
294835.08
262438.3
277669.23
262775.2
233596.23
246127.57
228697.49
204226.93
215133.22
195428.67
175939.38
184322.31
164207.21
148335.57
155141.97
133765.38
121778.57
126759.06
103332.91
96156.55
99600.02
79043.577
71366.148
76848.759
55485.736
49528.233
53649.893
35057.568
34672.103
35382.645
27334.773
27412.062
29448.878
300640.27
390497.17
296661.47
337576.76
303517.69
290784.8
287486.5
249538.18
243595.97
218422.37
205217.29
181271.35
162843.59
145936.16
126730.84
110580.3
93064.496
77725.221
62810.967
47817.281
35379.01
22649.999
7738.0026
-66140.798
11815.315
-10288.017
30598.636
28287.612
28467.86
28377.184
33060.922
22010.653
31311.257
27468.769
27266.431
26710.421
25042.514
24316.634
23444.112
21484.673
21170.159
18014.033
16891.229
15863.759
11836.908
9785.3129
-217780.21
-210276.57
-317750.36
-293848.15
-286931.81
-303775.1
-267497.37
-260505.07
-231387.71
-220111.82
-202392.29
-181553.97
-164874.62
-144531.06
-126861.39
-108033.16
-90072.998
-72789.67
-57383.656
-40878.692
-28452.784
-13622.919
-8323.6518
389614.46
480469.91
398981.97
390587.54
411108.51
350397.51
277867.86
298395.66
334905.52
259078.07
344300.23
277784.37
303669.76
264729.71
278241.48
226396.09
277984.03
271661.83
236473.17
265335.98
237307.76
224722.38
234549.24
236516.02
200532.41
221350.04
222374.76
190573.19
212109.19
193759.29
172887.67
188844.46
185006.36
153144.14
173883.1
167737.44
142722.23
154799.06
151543.57
124942.58
136841.1
135000.27
109282.47
118855.46
118616.45
94077.057
102981.89
101933.03
80163.278
85506.86
86543.512
65073.026
70379.336
70524.838
52328.729
54605.892
56913.621
40748.679
44866.977
44138.72
27054.118
30707.59
28904.356
21562.676
19708.469
23235.639
7624.5141
4767.5423
4897.9779
-104768.63
-122712.83
-107102.66
-51589.408
-26919.746
-55080.839
-12435.733
-26545.217
-44350.771
-6300.56
-26648.923
-66427.183
-11030.945
-12476.702
-12728.402
-6320.1522
5493.0154
-39818.832
11088.409
-2335.1442
-25762.319
-7429.4434
10267.2
-19972.769
10233.46
12541.111
-24581.082
9486.0678
10938.934
-13262.221
6766.5116
14242.161
-13782.255
12228.482
18771.246
-9948.6753
12811.26
18148.948
-7239.073
12529.601
18835.287
-3628.0073
12727.926
20519.763
-629.55211
13741.327
20355.058
1142.9315
13112.428
19209.107
3816.9975
12352.929
19373.208
4505.1036
13461.282
16372.547
7980.3213
13485.892
15782.313
5180.1742
10934.237
8408.7598
7216.8291
10648.048
13139.462
8286.5202
11529.959
12613.91
12880.401
-382281.34
-428794.24
-489110.69
-278066.39
-225832.99
-348770.94
-266857.45
-390830.49
-367821.64
-351150.38
-296431.13
-339687.11
-269202.22
-312769.9
-322784.99
-260059.75
-300836.89
-310062.69
-258533.38
-276134.62
-287573.72
-225361.44
-261527.2
-285195.16
-208534.37
-248111.16
-254545.29
-199154.32
-225004.75
-235839.72
-175612.62
-204742.94
-216499.54
-158658.6
-185418.73
-194771.38
-140904.59
-168231.68
-174060.76
-124181.41
-146966.08
-152860.88
-105786.3
-128315.69
-132046.34
-90082.586
-109276.84
-113200.83
-73732.288
-91414.12
-93064.427
-59298.121
-72868.889
-74979.654
-44352.368
-57355.519
-58249.049
-32933.758
-40869.635
-41248.031
-21446.084
-28185.543
-27404.323
-8030.7844
-10559.689
-7023.041
-936.65083
-6249.2541
-7382.9444
)
;

boundaryField
{
    free
    {
        type            calculated;
    }
    fixed
    {
        type            calculated;
    }
    traction
    {
        type            calculated;
    }
}


// ************************************************************************* //
