/*--------------------------------*- C++ -*----------------------------------*\
  =========                 |
  \\      /  F ield         | OpenFOAM: The Open Source CFD Toolbox
   \\    /   O peration     | Website:  https://openfoam.org
    \\  /    A nd           | Version:  6
     \\/     M anipulation  |
\*---------------------------------------------------------------------------*/
FoamFile
{
    version     2.0;
    format      ascii;
    class       pointVectorField;
    location    "0.4";
    object      lm;
}
// * * * * * * * * * * * * * * * * * * * * * * * * * * * * * * * * * * * * * //

dimensions      [1 -2 -1 0 0 0 0];

internalField   nonuniform List<vector> 
3969
(
(-4.0340813e-15 -4.7705825e-17 1.3312818e-16)
(9.2297575e-16 -2.6090405e-16 -6.0252577e-16)
(1360.0512 -289.9721 -25.806995)
(1269.139 -641.57266 -1.9773199)
(-7.1783695e-15 2.6020842e-15 -1.0366567e-15)
(-4.622429e-15 2.1493156e-15 -1.5432914e-15)
(1230.1416 -603.69834 4.5832974)
(1302.0163 -279.89279 -38.616844)
(-6.09887e-15 1.0869625e-16 -2.0095736e-16)
(-3.193382e-15 6.5333688e-16 6.3735029e-17)
(-2.9260211e-15 2.9260844e-16 -4.8432863e-17)
(-1.7497804e-15 -1.5755452e-16 -2.074758e-16)
(-4.3254872e-15 8.6218995e-16 7.3228779e-16)
(-2.4697388e-15 -4.9707839e-16 4.8086129e-16)
(5.2680668e-16 -4.7467027e-16 -5.3018058e-16)
(1273.5556 -322.08641 -25.182479)
(1202.3357 -349.78804 -24.385226)
(1200.8508 -391.90621 -22.747333)
(1258.3735 -451.77299 -20.568019)
(1330.3678 -521.26567 -16.843866)
(1365.441 -581.17022 -11.944021)
(1337.0848 -617.67679 -6.2776291)
(46.415113 60.062501 54.518234)
(90.898534 94.647673 58.199509)
(147.95177 118.45167 56.009281)
(217.08835 131.7653 46.361611)
(293.81761 135.22252 30.651001)
(377.17071 126.32725 9.1659451)
(459.24358 108.11399 -13.253984)
(537.57727 80.208153 -36.699402)
(603.69731 46.691083 -55.05318)
(656.46508 9.4646941 -68.59225)
(691.67566 -27.98727 -73.536329)
(709.51292 -63.843825 -71.093294)
(711.71448 -94.957375 -60.793512)
(701.01804 -121.10943 -46.11192)
(682.37866 -140.84971 -28.771557)
(660.34162 -154.96936 -12.371265)
(639.12332 -164.20405 0.98959042)
(621.30857 -169.10038 10.220701)
(608.65478 -170.63315 15.309486)
(600.88963 -169.44933 17.498572)
(596.81533 -165.76593 18.986268)
(594.61217 -159.72012 22.008639)
(592.94154 -151.36041 28.294803)
(591.50138 -141.01723 38.219981)
(591.24433 -129.39211 50.817737)
(594.33642 -118.05475 63.966814)
(603.50859 -107.78721 74.679865)
(621.23991 -100.25603 80.508877)
(649.13826 -96.478652 79.543809)
(687.34364 -97.088842 71.574319)
(734.02295 -102.13458 57.656445)
(786.05385 -111.16084 40.313121)
(839.42527 -123.29022 22.665401)
(889.71712 -137.3655 7.899618)
(933.54406 -152.11568 -1.3417165)
(968.4636 -166.09773 -3.7817703)
(993.82938 -178.80651 0.41602353)
(1011.6531 -188.80681 10.293973)
(1023.9185 -196.52336 23.022089)
(1035.3867 -202.09982 35.045072)
(1049.7076 -206.17785 44.117611)
(1071.2209 -210.39732 46.886866)
(1100.9536 -215.80546 42.988269)
(1140.2354 -223.41583 33.412956)
(1185.1942 -233.45541 17.660337)
(1235.0248 -249.54404 2.787502)
(1281.7087 -265.12069 -13.838143)
(2.9520556 -62.354186 -79.337746)
(62.074994 -88.999665 -50.084201)
(126.26101 -129.59273 -43.277533)
(195.36272 -152.80952 -12.857386)
(272.77739 -177.49605 4.2806247)
(352.82522 -195.15143 26.200894)
(433.13981 -202.27606 42.210134)
(508.31557 -202.0445 57.023656)
(576.26664 -191.17591 67.982265)
(632.86304 -174.33696 76.448265)
(675.60465 -150.03894 81.60748)
(703.72637 -123.67515 84.324659)
(717.49806 -95.784302 83.984052)
(719.12589 -70.429027 81.190729)
(710.57461 -48.700963 75.747908)
(695.59 -31.573613 68.430052)
(677.30315 -19.624692 59.811791)
(658.95488 -11.985196 50.981322)
(642.81672 -8.1563593 42.923493)
(630.05747 -7.0954834 36.568314)
(620.87842 -8.049243 32.548765)
(614.69952 -11.257713 31.049432)
(610.35757 -16.519563 31.422726)
(607.13041 -25.315712 33.443946)
(604.48783 -37.982191 35.510422)
(603.05677 -55.691727 36.431442)
(604.2267 -78.666499 35.783228)
(609.87157 -106.18167 32.709878)
(621.861 -137.60492 27.755593)
(642.1978 -171.239 21.806731)
(671.5034 -205.38717 16.217575)
(709.8116 -238.24596 12.430716)
(755.4395 -268.38766 11.648911)
(805.65936 -294.98902 14.424626)
(856.67828 -317.89055 20.460902)
(904.60235 -337.67254 28.405377)
(946.10151 -355.30696 36.215888)
(978.73597 -372.92589 41.275948)
(1001.9759 -391.64373 42.655766)
(1018.7446 -413.16592 38.722902)
(1031.6245 -438.54163 30.299164)
(1045.3187 -467.49471 18.907873)
(1064.0979 -499.42464 6.4892437)
(1090.7366 -532.65966 -3.686544)
(1126.2923 -564.81988 -10.082588)
(1169.1998 -593.67632 -11.196816)
(1218.8739 -619.75519 -7.6795103)
(-3.9179893e-16 -2.8384427e-17 -1.6191597e-16)
(6.8869455e-16 3.3255846e-16 -2.9305012e-16)
(-3.0379221e-16 -4.0639439e-16 3.7376104e-16)
(8.6048107e-16 -8.7588792e-17 1.0515471e-16)
(5.0258192e-16 -7.4376592e-16 6.4035694e-16)
(-2.9679417e-15 -3.4669267e-16 7.3060073e-16)
(8.9003905e-16 -2.834795e-16 1.0120244e-16)
(30.006452 -52.20269 77.00229)
(65.835079 -134.31221 89.070176)
(121.94204 -126.34105 80.581477)
(183.32253 -168.45257 69.953769)
(262.47373 -187.20167 52.868092)
(336.26927 -202.78194 29.648709)
(422.35274 -215.51014 5.735021)
(494.66688 -219.90933 -17.934952)
(566.97267 -220.36675 -35.497502)
(619.98617 -211.01324 -47.98717)
(659.16106 -200.34414 -49.632759)
(683.87693 -180.42288 -44.417699)
(688.62985 -159.29403 -29.47566)
(681.01046 -135.84971 -9.6701206)
(663.99344 -113.09678 11.958355)
(643.05588 -94.391951 31.79851)
(622.99698 -80.030693 46.615806)
(606.12856 -72.033133 55.753383)
(594.16665 -69.308735 59.282172)
(585.7841 -71.312504 59.5653)
(579.31944 -76.458169 59.278266)
(572.4417 -83.56735 61.22949)
(563.81381 -91.807335 67.02854)
(553.46755 -101.12508 76.894259)
(542.90486 -111.8683 89.514535)
(534.83702 -125.08205 102.54595)
(532.23302 -141.34641 113.0982)
(537.11948 -161.81938 119.13901)
(552.67406 -186.55822 118.44936)
(579.4988 -215.42864 110.85664)
(616.94896 -247.39093 97.178898)
(662.87827 -280.84189 79.562743)
(713.76944 -313.85581 61.082647)
(765.37165 -344.31409 45.068594)
(813.37806 -369.92986 34.818057)
(853.12895 -390.81443 32.043296)
(887.72403 -407.40977 37.232206)
(907.42509 -415.5574 49.40899)
(923.05965 -422.60791 66.154433)
(934.24348 -429.38867 82.431946)
(945.97132 -438.45174 94.892311)
(963.57066 -452.46246 99.484434)
(989.68284 -472.08222 94.662918)
(1025.5244 -496.92844 80.921238)
(1069.4964 -524.66263 61.096405)
(1117.7009 -552.20278 39.331347)
(1161.0817 -573.96136 20.697836)
(1299.1718 -573.04167 -7.7212277)
(1321.3887 -531.94968 -15.365452)
(1275.8944 -472.09761 -19.211231)
(1196.6136 -409.01307 -18.476034)
(1150.6033 -361.48055 -17.237317)
(1162.215 -331.7897 -20.333977)
(1234.5234 -308.93429 -27.089913)
(1240.4114 -257.56134 -41.5479)
(1205.8535 -241.22633 -42.600677)
(1165.8654 -228.75143 -39.934977)
(1125.7946 -224.09025 -34.289084)
(1090.0511 -226.53207 -25.418497)
(1059.4613 -233.39142 -15.25109)
(1033.97 -241.33984 -5.9557667)
(1012.1244 -246.72555 0.90441681)
(992.0666 -246.39828 4.5118904)
(970.67951 -239.16357 5.1400934)
(945.02752 -225.01432 3.2440687)
(914.89427 -206.68879 0.052927426)
(878.71864 -183.65987 -4.4383245)
(836.10568 -162.42515 -6.6595087)
(789.05366 -145.00406 -7.6446682)
(739.88386 -134.01614 -6.2530641)
(691.3726 -130.65187 -3.3068272)
(646.26347 -134.83899 0.61555638)
(606.83582 -145.03469 4.4965561)
(574.56466 -159.13351 7.7644703)
(550.05741 -174.40881 9.7239935)
(533.00792 -188.9462 10.611274)
(522.46906 -200.72263 10.415693)
(517.3284 -209.48317 10.229816)
(516.44668 -215.21389 10.655673)
(519.1784 -219.13319 12.672053)
(525.31476 -222.0449 16.579917)
(534.90298 -224.78485 22.494892)
(548.15785 -227.08914 29.851411)
(564.85982 -228.2063 38.010075)
(584.15229 -226.20448 45.640681)
(604.51324 -219.3006 51.706219)
(625.38366 -204.52142 55.776452)
(638.3655 -181.20589 56.869597)
(644.83573 -149.87713 56.227478)
(642.47536 -110.31936 52.212219)
(626.71755 -65.420121 47.896944)
(597.52799 -18.201868 43.121917)
(552.99802 25.949504 37.205751)
(498.25705 65.987679 32.376782)
(433.20724 97.851074 25.288349)
(357.18973 113.16689 17.444189)
(285.75609 122.85311 8.4512072)
(209.64222 114.6086 -4.3969405)
(145.20213 99.240526 -15.391688)
(82.549884 73.044265 -29.397536)
(48.914905 49.406883 -31.945464)
(-6.7652979e-16 3.5118239e-16 1.2802193e-16)
(-2.3129286e-15 2.7505878e-16 1.3239036e-16)
(-3.6393531e-15 -1.4253491e-16 -1.5464221e-16)
(-4.9195801e-15 -9.3657526e-16 4.6870719e-16)
(-4.0844143e-15 -8.2232132e-16 1.723462e-16)
(-2.0271537e-15 -1.8079967e-16 2.6438577e-16)
(-2.0670014e-15 8.6459225e-16 1.4474963e-15)
(-4.5036838e-15 1.2268482e-15 -2.065022e-16)
(-1.9919023e-15 1.1694967e-15 -1.6367101e-16)
(-2.9438013e-15 1.1112212e-15 -1.969436e-16)
(-2.4504202e-15 9.597151e-16 -1.1789697e-16)
(-5.2893259e-15 2.5926013e-15 -8.0820905e-16)
(-1.8775489e-15 1.1365606e-15 -5.8525306e-16)
(-7.4714327e-17 -2.094137e-16 9.7564992e-17)
(1264.3993 -643.20237 -3.1226567)
(1262.9058 -645.55211 -0.64623545)
(1260.2484 -648.05295 3.9694461)
(1256.2181 -649.05956 7.8110736)
(1250.1492 -646.328 9.8978483)
(1242.9411 -638.30157 8.8242327)
(1234.7942 -624.44313 6.2828178)
(1366.6317 -279.6109 -23.495918)
(1369.2231 -274.39332 -21.937781)
(1364.543 -274.18593 -22.727905)
(1353.9467 -276.54924 -26.020498)
(1339.4926 -279.6383 -31.267144)
(1323.8498 -281.28469 -35.237869)
(1311.7471 -280.79839 -39.161595)
(25.162942 26.279886 46.971137)
(69.250263 46.162765 38.162614)
(118.83706 61.569345 45.140436)
(181.20553 70.024849 39.229553)
(250.77724 70.105793 30.610464)
(330.57069 63.959374 17.541964)
(411.76946 49.680341 1.0685852)
(493.97718 31.024116 -15.7042)
(569.55573 7.295447 -32.040685)
(635.19867 -18.301334 -44.056203)
(686.17435 -44.848474 -51.100922)
(720.69519 -70.220326 -51.870935)
(737.72517 -92.944819 -45.938831)
(739.04511 -113.00759 -35.345757)
(727.79978 -129.23214 -21.576541)
(708.27659 -142.35162 -7.5343684)
(685.95115 -152.23851 4.5456961)
(664.70128 -159.08963 13.434116)
(647.62238 -163.12152 18.626745)
(635.47795 -164.17847 21.206558)
(627.79415 -161.99654 22.864731)
(622.71104 -156.56268 25.769476)
(618.55587 -148.4008 31.387165)
(614.56272 -138.47751 40.181815)
(611.4375 -128.43988 51.081873)
(611.58664 -119.96147 62.212194)
(618.08396 -114.63997 70.419233)
(633.62868 -113.90819 73.995148)
(660.12726 -117.74911 71.371643)
(697.40378 -126.14413 62.576626)
(743.16422 -137.8695 49.157747)
(793.69545 -151.57719 33.658407)
(844.3675 -165.73143 18.87059)
(890.64806 -178.99323 7.5469288)
(929.06649 -190.33443 1.3618031)
(957.76689 -199.37446 1.0419082)
(976.78745 -206.06233 5.6471393)
(987.94 -210.77754 14.198021)
(994.57584 -214.86797 23.476512)
(1000.7388 -219.11327 31.423567)
(1010.0344 -224.65589 36.079991)
(1026.134 -232.27713 35.687717)
(1050.3249 -242.47485 30.602142)
(1082.311 -254.84656 21.123808)
(1121.7407 -269.06388 9.3109735)
(1165.4217 -285.60278 -2.3020797)
(1212.1006 -301.98929 -14.165192)
(16.271626 19.69162 33.03268)
(55.010416 26.376901 30.227391)
(106.02148 38.692631 36.163239)
(165.38146 40.120854 32.384317)
(237.26579 38.399213 28.100752)
(315.86564 29.770024 18.621278)
(400.39814 16.22665 8.3103538)
(486.02206 -0.94532551 -5.0819955)
(567.07207 -21.106295 -16.247292)
(639.51665 -41.689043 -26.120152)
(698.38792 -62.257158 -31.6949)
(740.73197 -81.122298 -32.216624)
(764.95271 -98.04178 -27.832221)
(771.76317 -112.82943 -19.229242)
(763.95507 -124.75256 -8.1315849)
(746.01568 -134.53644 3.1761707)
(722.81973 -141.95161 13.162906)
(699.19826 -147.26134 20.3175)
(678.36006 -150.17772 24.4581)
(662.0557 -150.50998 26.461879)
(650.08582 -147.83966 27.725327)
(641.11968 -142.47834 30.032926)
(633.4714 -135.00553 34.652468)
(626.2631 -126.63979 41.651953)
(620.23812 -119.05271 50.302293)
(617.51767 -114.37153 58.526762)
(620.9537 -113.66413 64.072848)
(633.33976 -118.26549 65.663864)
(656.59932 -127.73227 61.707767)
(690.5015 -141.09812 52.995344)
(732.74512 -156.75219 40.999642)
(779.59986 -172.84937 27.992951)
(826.32083 -187.70475 16.40576)
(868.57349 -200.22809 8.3489579)
(902.92766 -209.88491 4.7620389)
(927.81691 -216.9233 5.8260339)
(943.53906 -222.10503 10.296204)
(952.21151 -226.31842 16.963441)
(956.91854 -231.21541 23.478975)
(961.90154 -237.45771 28.145926)
(970.5364 -245.87751 29.847923)
(985.87169 -256.86358 27.477756)
(1009.3333 -270.29974 22.151525)
(1040.9976 -285.17285 13.896725)
(1079.0447 -301.56571 4.2645494)
(1122.8579 -319.51948 -4.8332335)
(1166.699 -335.89203 -15.08397)
(12.235528 11.92377 21.848224)
(54.825536 18.640043 19.926244)
(106.44054 23.460115 26.732452)
(174.51569 22.328817 25.670487)
(252.10601 15.15084 23.745119)
(339.67438 3.7399988 18.061156)
(429.69388 -12.278863 9.9451513)
(518.96704 -29.57013 2.2074691)
(601.65605 -48.117286 -5.5492376)
(673.15892 -65.255352 -11.254164)
(728.6073 -80.694849 -12.986391)
(766.63191 -93.757566 -11.469422)
(785.63635 -104.22992 -6.1486628)
(787.83148 -112.43464 1.3859008)
(775.92401 -118.27693 9.9504312)
(754.44236 -122.38303 18.067539)
(728.68764 -124.81734 24.45192)
(702.50135 -125.9349 28.380964)
(679.21489 -125.70226 30.127027)
(660.09878 -123.92352 30.432346)
(645.21506 -120.56193 30.499352)
(633.19117 -115.94 31.792062)
(622.65093 -110.31683 34.912706)
(613.14662 -104.73442 40.071802)
(604.86811 -100.75225 46.410604)
(599.62289 -99.534174 52.672414)
(599.8667 -102.47219 57.231295)
(608.21009 -110.09296 58.312399)
(626.46623 -122.1578 55.46548)
(654.94907 -137.72776 48.775338)
(692.26509 -155.39797 39.240346)
(735.50445 -173.38575 28.575932)
(780.71665 -190.22834 18.79732)
(823.80365 -204.87704 11.515819)
(861.23709 -216.77411 7.8266836)
(890.87832 -226.24699 7.930353)
(912.31285 -233.9411 11.26797)
(926.68239 -240.98481 16.408856)
(936.90803 -248.67033 21.627453)
(946.61579 -258.02835 25.452448)
(959.48812 -270.04472 26.626333)
(978.95467 -284.77193 24.344939)
(1006.7677 -302.2194 19.289251)
(1043.2912 -321.27682 11.041539)
(1087.1925 -341.9779 2.829028)
(1137.5006 -363.42768 -6.577504)
(1183.6175 -382.51001 -14.865488)
(9.62719 6.4718698 10.577789)
(57.373927 9.5634604 11.397057)
(121.04658 10.136278 17.067072)
(200.24823 3.2688467 19.288476)
(292.26986 -9.0271682 20.034082)
(388.32886 -23.449379 17.355595)
(484.58252 -41.745182 14.774501)
(574.19667 -57.837807 10.353451)
(652.45851 -73.64341 7.4863409)
(714.32738 -85.713256 6.7288456)
(757.74163 -95.450814 7.9625616)
(781.96246 -101.61506 11.505828)
(787.72329 -104.84876 16.945702)
(778.8432 -105.95319 22.824045)
(758.53007 -104.9607 28.173633)
(732.20482 -103.17487 32.178301)
(703.65281 -100.27558 34.381707)
(676.64154 -97.184371 34.912559)
(653.02821 -93.791214 34.065337)
(633.65458 -90.055507 32.826403)
(617.95097 -86.278523 32.01315)
(605.09293 -82.451342 32.397668)
(594.07599 -79.074363 34.275371)
(583.88785 -76.801246 37.723001)
(575.38492 -76.299272 42.169418)
(569.7555 -78.66218 46.411312)
(569.00734 -84.49769 49.302528)
(575.14822 -94.190193 49.947388)
(589.92161 -107.55811 47.760922)
(614.18082 -124.04863 42.706616)
(647.59117 -142.62268 35.510301)
(688.47734 -162.05872 27.336502)
(734.09063 -181.22044 19.561097)
(780.99527 -199.17726 13.594772)
(825.56825 -215.32517 10.346794)
(864.98258 -229.72696 10.334761)
(897.33588 -242.80103 12.924884)
(922.73582 -255.32665 17.21676)
(942.67579 -268.37727 21.751657)
(960.39589 -283.10657 25.144578)
(979.43963 -300.04983 25.733497)
(1004.1864 -319.76085 23.066446)
(1037.3981 -342.07328 17.498316)
(1080.1657 -366.39112 9.1795425)
(1131.3384 -392.1369 1.3492421)
(1189.9974 -418.49181 -7.6976054)
(1241.6483 -441.92775 -13.965005)
(4.8479579 1.2802721 -2.6526059)
(66.444151 4.034705 -4.6621632)
(138.02904 -2.5185138 5.7536325)
(231.28907 -15.604596 11.776964)
(330.65324 -33.227933 17.413689)
(432.81349 -50.9529 20.594666)
(529.57591 -68.932885 22.161492)
(615.79585 -82.727108 22.527282)
(685.46605 -93.966996 24.114631)
(736.20629 -100.12408 25.872567)
(766.5521 -102.97025 28.657438)
(777.71607 -101.6302 32.351677)
(771.95113 -98.181432 35.813658)
(753.9044 -92.599185 38.667928)
(727.92039 -86.233831 40.305822)
(698.73068 -79.721085 40.579754)
(669.75215 -73.545171 39.594507)
(643.60213 -68.211313 37.600479)
(621.46266 -63.682715 35.157999)
(603.49388 -60.00469 33.010395)
(589.20569 -57.128849 31.45358)
(579.28685 -55.702103 31.563387)
(571.23606 -54.71633 32.910407)
(562.50698 -54.755039 35.184266)
(555.09823 -56.895891 38.113608)
(550.51965 -61.779793 41.08718)
(549.95012 -69.778622 43.328323)
(555.11837 -81.275857 44.072058)
(567.72626 -96.123256 42.839876)
(588.98422 -114.00079 39.598709)
(619.3113 -134.10142 34.671125)
(658.13337 -155.45827 28.721475)
(703.8473 -177.12112 22.769416)
(753.73745 -198.25568 17.853132)
(804.53366 -218.08249 14.805063)
(852.84089 -236.79514 14.197752)
(895.82852 -254.40594 15.847229)
(931.39823 -271.70696 19.123173)
(964.90289 -290.33494 23.113846)
(991.86303 -310.28933 25.937118)
(1015.2165 -332.25035 26.604445)
(1041.8543 -357.12801 23.871892)
(1076.3385 -384.91642 18.23337)
(1120.8755 -414.70857 9.7552552)
(1175.3858 -445.74459 1.8206673)
(1238.8236 -476.67446 -7.4864042)
(1296.1671 -504.41848 -11.842446)
(1.5066048 -14.510471 -27.578647)
(66.304039 -16.461484 -17.154261)
(143.73911 -29.797633 -6.3866479)
(238.9233 -48.130875 6.3009584)
(339.28278 -67.661245 17.462825)
(439.6862 -84.81198 25.917075)
(533.66693 -99.416417 32.36958)
(615.06658 -108.65049 37.559843)
(679.46956 -113.53228 41.510474)
(724.25753 -113.04007 44.975277)
(749.26142 -108.68039 47.973828)
(755.88881 -100.24433 50.489718)
(747.55244 -90.283163 51.605759)
(728.4815 -79.010284 51.731948)
(703.22031 -68.150519 50.367728)
(675.9905 -58.191073 47.933991)
(649.66301 -49.758844 44.423554)
(626.61961 -43.054555 40.550531)
(607.48446 -38.102851 36.744335)
(592.42573 -34.744194 33.689641)
(580.77213 -32.694949 31.662196)
(572.56041 -32.243706 31.434524)
(565.01936 -32.556335 31.60279)
(558.93105 -34.999948 33.712044)
(553.73216 -39.90551 36.271188)
(551.15625 -47.295004 38.87697)
(552.18996 -57.906453 40.62161)
(558.4652 -72.078196 40.905812)
(571.60489 -89.716528 39.381581)
(592.83537 -110.29054 35.998645)
(622.91338 -133.17238 31.171564)
(661.61997 -157.40346 25.637134)
(707.74789 -182.149 20.496307)
(759.07164 -206.44331 16.735593)
(812.43004 -229.79331 15.205633)
(864.48482 -252.26472 16.396475)
(911.59921 -273.64741 19.745233)
(951.77855 -294.76153 24.353868)
(984.35288 -316.47115 28.347656)
(1016.5829 -341.37438 31.367301)
(1040.17 -367.01348 30.079025)
(1065.3738 -395.45191 25.298807)
(1097.0963 -426.39412 17.330222)
(1138.4584 -459.04825 7.4832773)
(1189.75 -492.47064 -1.1218916)
(1249.5366 -524.81558 -8.7188261)
(1307.4822 -554.07426 -9.7226523)
(-4.2578369 -24.323962 -42.5198)
(62.658364 -28.207762 -33.741941)
(135.70709 -56.172425 -21.69359)
(223.88102 -81.544475 -3.1439257)
(314.71442 -105.35825 13.505408)
(408.09518 -123.76198 27.335823)
(496.34427 -136.71069 39.03163)
(575.67452 -141.82458 48.105616)
(641.01336 -140.99658 55.178093)
(689.82921 -133.2584 60.5091)
(720.44238 -122.02665 64.07039)
(733.93888 -106.19837 65.687913)
(732.70381 -90.334526 65.942343)
(719.98644 -74.202736 63.921361)
(700.22443 -60.022974 60.36732)
(676.93776 -47.815298 55.373674)
(653.9191 -38.128579 49.72984)
(633.36352 -30.757952 43.961812)
(616.63658 -25.398365 38.850588)
(603.99038 -21.924821 34.908684)
(594.70067 -20.109107 32.485442)
(588.04707 -20.388107 31.688501)
(582.65592 -22.757969 32.191161)
(578.39429 -27.944703 33.848238)
(574.96014 -36.625456 35.970615)
(573.2199 -48.882899 37.626169)
(574.65161 -65.205013 38.469598)
(581.01469 -85.31704 37.61429)
(594.11134 -108.4812 35.225704)
(615.48962 -134.085 31.387871)
(645.98805 -160.94145 26.731677)
(685.4336 -188.12447 22.115198)
(732.47946 -214.65702 18.529769)
(784.60736 -239.96685 16.871164)
(838.31776 -263.83253 17.62405)
(889.75229 -286.85627 20.875964)
(935.22424 -309.02426 25.467533)
(972.38465 -331.37255 30.186956)
(1000.7001 -354.72949 33.526259)
(1021.5614 -379.87359 34.248443)
(1039.1651 -407.50126 30.86671)
(1058.0101 -436.96033 24.158956)
(1082.9898 -468.1327 14.894381)
(1117.5053 -499.68218 4.9319378)
(1162.2109 -530.9067 -2.8053642)
(1215.1523 -560.1183 -8.0168955)
(1268.3589 -585.60444 -8.1774229)
(-1.8726199e-15 -1.0357256e-16 4.2324109e-16)
(-4.3693994e-15 5.8098526e-16 1.0825799e-16)
(-1.86708e-15 5.0203615e-16 5.7484399e-16)
(-1.1298519e-15 4.4303811e-16 -1.5186772e-16)
(-1.5283164e-15 1.7502349e-16 4.7144117e-17)
(-3.9278597e-15 -6.147074e-18 -1.0233878e-17)
(-3.270765e-15 8.5080195e-17 2.8271762e-17)
(-1.444637e-15 3.1767481e-17 -1.0328492e-16)
(-1.9600489e-15 -2.0641393e-16 2.5996682e-17)
(-1.0758982e-15 -5.0887233e-16 -1.6282415e-16)
(-1.1902312e-15 -6.3217422e-16 -1.0496995e-16)
(-2.2455722e-15 -1.0363924e-16 3.7607835e-16)
(-1.7254929e-15 1.2766475e-16 7.9907906e-17)
(-6.542485e-16 2.4659353e-16 4.7610311e-16)
(-1.0183069e-15 2.0413811e-16 3.0876606e-16)
(-1.2825224e-16 3.2154578e-16 2.6910031e-16)
(-2.4669526e-15 5.8726168e-16 -3.2350189e-17)
(-1.9694108e-15 5.8752001e-16 2.9593509e-16)
(-1.9972486e-15 5.0741204e-16 1.6376266e-16)
(-5.0142844e-16 5.9082617e-16 -1.5096731e-17)
(2.8672985e-17 2.0007103e-16 -2.079567e-16)
(-3.5598279e-15 1.6770216e-16 6.1584209e-17)
(1.5219227e-15 -3.8112137e-16 -3.4960392e-16)
(-8.8364966e-17 -1.5289127e-16 1.7491834e-16)
(2.7397895e-16 -2.6900304e-16 -2.0413732e-16)
(-5.1236454e-16 -3.7600259e-16 -4.411389e-17)
(-1.3114086e-15 -5.3747975e-16 1.2489795e-16)
(2.0041989e-16 -4.4379834e-16 -1.4360784e-16)
(-1.3448657e-15 3.3966264e-16 -2.7012678e-16)
(-2.2010094e-15 1.2158219e-16 1.1470551e-16)
(-1.2722141e-15 -2.3577892e-16 -7.7366055e-17)
(-2.6936153e-15 2.298542e-17 6.0151854e-16)
(-1.8084585e-15 2.5926424e-16 8.2177642e-17)
(-1.0121806e-15 3.7760621e-16 1.5728837e-17)
(-3.5076342e-15 -1.049112e-16 -1.8966684e-16)
(-1.2388067e-16 -2.746004e-16 -1.3203227e-16)
(-1.1077126e-15 -2.2449831e-16 5.9960705e-17)
(-7.9462407e-16 5.2806017e-17 1.8160622e-16)
(-1.481116e-15 2.6347307e-16 -6.003674e-17)
(5.3541372e-16 1.9494005e-16 5.7756958e-17)
(-2.5861876e-15 -7.0653702e-17 -1.8824779e-16)
(-1.6152529e-15 1.8241927e-16 3.8488004e-16)
(-1.0389662e-15 3.299921e-17 2.9700946e-16)
(-3.8817577e-15 -1.9427146e-16 -1.2145786e-15)
(-1.6161979e-15 2.8442108e-16 -1.856842e-16)
(8.1577518e-16 1.8112067e-17 2.0819295e-16)
(-2.485062e-15 2.8178417e-16 -5.4749215e-16)
(-1.8307085e-15 4.4562511e-16 -1.4619564e-16)
(-1.4586292e-15 4.0358521e-16 -4.0281137e-16)
(35.018424 -22.39958 -37.999257)
(40.664797 -31.05992 -21.860847)
(49.660084 -32.001155 -7.4727323)
(53.663875 -33.606034 3.7584621)
(51.889687 -31.785918 15.931729)
(49.939689 -33.469006 26.368201)
(45.63462 -23.070121 43.430992)
(84.225139 -109.49318 -40.369713)
(94.225302 -125.93951 -13.853512)
(98.118061 -116.40649 1.5171417)
(98.590012 -112.87855 14.381754)
(100.96884 -120.29032 26.6159)
(94.566852 -118.06745 41.625879)
(90.531028 -121.54116 67.840348)
(138.12757 -137.61009 -22.111387)
(150.20989 -132.89704 -11.301396)
(157.08666 -141.12005 6.8013526)
(156.55068 -140.85939 20.711946)
(155.88452 -137.89929 36.224186)
(150.25265 -136.54716 47.580134)
(142.22344 -145.91681 71.144663)
(199.87238 -171.64689 -3.6602739)
(205.30013 -176.09415 2.2536236)
(206.59942 -176.07156 16.916783)
(207.59702 -176.92218 23.926803)
(205.60773 -177.92118 34.760708)
(202.8713 -181.18633 48.703354)
(193.13241 -177.45773 59.080855)
(273.02665 -196.04432 9.1606494)
(275.20998 -199.46564 13.241785)
(276.85178 -204.12701 18.987111)
(275.67047 -204.41853 24.794655)
(274.3497 -207.40092 31.310633)
(271.4196 -206.44518 38.775014)
(267.4487 -207.01296 47.260246)
(346.42217 -208.99272 25.774025)
(344.5928 -212.33441 23.445289)
(342.3619 -214.50569 24.526795)
(340.98414 -218.45611 22.919601)
(339.10508 -220.34547 24.095357)
(340.47507 -223.60737 26.720475)
(337.48794 -219.71443 28.698778)
(423.58565 -215.22409 35.720739)
(417.12434 -219.11508 30.952434)
(412.80187 -224.73978 25.197433)
(409.92221 -227.77986 19.033182)
(408.89948 -233.1021 15.41106)
(409.72598 -235.84719 10.593298)
(413.24515 -235.75523 7.6930817)
(493.21397 -210.90206 46.447736)
(485.48739 -215.40459 34.811795)
(480.50933 -219.05642 24.711058)
(476.46715 -224.35196 14.447834)
(476.94031 -229.0243 4.7749254)
(479.31835 -233.02607 -3.4881948)
(486.07181 -232.63327 -11.190362)
(560.03171 -199.14354 53.280905)
(548.25589 -202.06038 40.362976)
(539.3586 -207.07314 26.203938)
(536.36828 -213.31654 10.80181)
(536.5327 -220.22858 -2.4704177)
(540.76792 -226.53154 -15.943345)
(548.9562 -230.54004 -27.976039)
(612.96952 -177.86789 60.09489)
(600.95498 -181.75512 43.15236)
(592.99838 -186.50531 26.266858)
(588.09294 -193.55461 10.430451)
(588.15667 -200.03114 -6.1337673)
(593.72747 -206.89619 -21.775697)
(603.42258 -212.87366 -37.157529)
(656.14772 -152.72585 64.825881)
(642.33269 -155.11888 47.404295)
(633.34135 -160.58088 30.574681)
(627.9274 -167.6187 12.406661)
(627.0447 -176.37025 -4.5089852)
(632.4329 -185.18532 -21.942513)
(641.77747 -194.07911 -38.575041)
(684.42805 -122.9693 68.133315)
(671.16244 -126.04243 51.518124)
(660.91518 -131.91012 34.190182)
(655.10719 -140.67376 17.471409)
(653.76797 -148.93918 0.38101299)
(658.68602 -157.23905 -15.898311)
(666.46563 -169.11874 -32.908393)
(700.0183 -94.165207 70.077389)
(687.03968 -96.501189 54.750229)
(676.78021 -103.19062 40.129402)
(670.73206 -111.15837 24.663683)
(667.99898 -120.21259 9.5757632)
(671.21869 -130.30693 -3.8252755)
(676.25594 -142.0902 -19.346763)
(704.14499 -66.70442 69.988792)
(692.16437 -69.571135 57.521786)
(681.90894 -76.728201 45.472374)
(674.81659 -85.520268 32.979954)
(670.6444 -95.634667 20.912738)
(671.56019 -105.37134 10.484589)
(673.71535 -116.83474 -1.3763553)
(698.75053 -44.020524 67.792639)
(688.13368 -47.04485 58.735976)
(677.78685 -54.677913 49.844731)
(670.22987 -64.045734 40.972932)
(665.06391 -74.121847 32.185029)
(662.82963 -84.839489 25.610673)
(662.44746 -94.745594 17.816131)
(687.40886 -26.389727 63.605744)
(678.0014 -29.803756 57.964134)
(668.17811 -38.436889 52.46399)
(660.08607 -48.480309 46.759023)
(653.61276 -59.486578 41.831234)
(648.66167 -70.631999 38.231075)
(646.0302 -79.050547 34.853506)
(672.50462 -14.521801 57.682874)
(664.59024 -18.755704 55.443618)
(655.43539 -27.968202 52.585674)
(646.97863 -38.774019 50.160674)
(639.99178 -50.316177 48.208462)
(632.81478 -61.925752 47.189831)
(628.60575 -69.143983 47.439426)
(657.29937 -7.9015681 51.007507)
(650.6334 -12.896493 51.268324)
(642.3012 -22.809897 50.978058)
(633.72429 -34.637014 50.671064)
(626.31827 -46.777645 51.182506)
(617.76096 -58.97838 51.862769)
(612.50876 -65.580822 54.57081)
(643.3573 -5.5729503 44.355713)
(637.77857 -11.380006 46.698513)
(630.37161 -22.020454 47.96799)
(621.86072 -34.517587 49.356852)
(614.42811 -47.138189 51.437765)
(605.39502 -59.64155 52.967226)
(599.53274 -66.484601 56.874624)
(631.94259 -6.3848916 39.07014)
(627.23627 -13.098401 42.546272)
(620.49186 -24.027223 45.005035)
(612.28501 -37.298755 47.435585)
(604.7305 -50.207168 50.309727)
(595.82592 -62.93445 52.297806)
(589.52399 -70.401253 56.3707)
(623.19429 -9.5099124 35.733761)
(618.91435 -16.828671 40.005279)
(612.6742 -28.085523 43.25118)
(604.67584 -41.650091 46.340906)
(596.96067 -54.657959 49.639925)
(588.53583 -67.225322 51.917293)
(581.64789 -75.745324 55.565866)
(616.57428 -14.368614 34.956282)
(612.62142 -22.253865 39.680494)
(606.44745 -33.476491 43.556938)
(598.61224 -47.278622 47.278189)
(590.50114 -60.215683 50.886128)
(582.36663 -72.413908 53.732128)
(574.50335 -81.717021 57.02301)
(611.54596 -21.096373 36.445942)
(607.69455 -29.390468 41.593138)
(601.29323 -40.659741 46.374598)
(593.36375 -54.291274 50.812246)
(584.61326 -66.818972 54.958214)
(576.23139 -78.357113 58.841427)
(567.11817 -88.124538 62.093633)
(607.66809 -30.62241 39.584726)
(603.85461 -38.91204 45.435509)
(596.97392 -50.028578 51.232149)
(588.85106 -63.282473 56.584913)
(579.11815 -75.505573 61.771431)
(570.06587 -86.44911 66.966678)
(559.28222 -95.890817 70.997329)
(605.06508 -43.303628 43.214592)
(601.17409 -51.600107 49.935854)
(594.13069 -62.785774 57.201736)
(585.29808 -75.516588 63.690366)
(574.6195 -87.556316 70.287529)
(564.19807 -97.444117 77.085811)
(551.90573 -105.86432 82.474372)
(604.31445 -60.485592 45.803338)
(600.66712 -68.594087 54.040969)
(593.41872 -79.570083 62.718328)
(583.8272 -92.219898 70.338304)
(572.35625 -103.74728 78.78467)
(560.36382 -112.82302 87.029319)
(546.68539 -119.61147 94.233929)
(606.74118 -82.502562 46.596851)
(603.54544 -90.262447 56.459425)
(596.37314 -101.35964 65.810343)
(586.41709 -113.60099 75.516005)
(573.97927 -124.69109 84.90825)
(560.55841 -133.19272 94.717823)
(545.92187 -137.98607 103.56425)
(614.03197 -109.12487 44.415295)
(611.64855 -116.68816 55.567096)
(604.40644 -127.5392 65.979875)
(594.33452 -139.88413 76.89272)
(581.78431 -150.68897 87.340415)
(567.32073 -159.11655 98.660472)
(552.18106 -161.51854 108.95271)
(628.20922 -139.89531 39.896255)
(626.11292 -147.27649 51.800662)
(619.6218 -158.10689 62.944834)
(609.35967 -170.37856 74.227911)
(596.92867 -181.16522 85.567723)
(581.98167 -189.21819 97.028174)
(567.19556 -190.01194 108.27475)
(649.83994 -173.47844 33.402849)
(648.42548 -180.71869 45.665163)
(642.29223 -191.36471 56.5256)
(632.52488 -203.79084 67.939012)
(620.47911 -214.56749 79.071478)
(605.88218 -222.67545 90.063638)
(592.0648 -222.40458 101.43514)
(679.82192 -208.12311 26.560078)
(678.35009 -215.28741 38.038484)
(672.89097 -225.8566 48.247602)
(663.68486 -238.3481 58.791091)
(652.37096 -249.25187 69.117759)
(638.79679 -257.52648 78.751286)
(626.40899 -257.10327 89.262639)
(717.3016 -242.092 20.715591)
(715.47954 -249.24626 30.828663)
(710.44841 -259.58978 39.502275)
(701.94215 -272.02454 48.687804)
(691.4797 -283.07558 57.453719)
(679.39432 -291.49784 65.102493)
(668.59665 -291.86974 73.778498)
(760.72667 -273.64269 17.529973)
(757.99639 -280.6529 25.507484)
(753.16665 -290.65465 32.282173)
(745.26925 -302.87578 39.611024)
(735.62054 -313.90274 46.394998)
(725.20508 -322.58123 51.724187)
(715.85699 -324.55273 57.772588)
(807.40494 -301.47791 17.892079)