/*--------------------------------*- C++ -*----------------------------------*\
  =========                 |
  \\      /  F ield         | OpenFOAM: The Open Source CFD Toolbox
   \\    /   O peration     | Website:  https://openfoam.org
    \\  /    A nd           | Version:  6
     \\/     M anipulation  |
\*---------------------------------------------------------------------------*/
FoamFile
{
    version     2.0;
    format      ascii;
    class       pointScalarField;
    location    "0.8";
    object      E;
}
// * * * * * * * * * * * * * * * * * * * * * * * * * * * * * * * * * * * * * //

dimensions      [1 -1 -2 0 0 0 0];

internalField   nonuniform List<scalar> 
625
(
57888.569
66010.637
-889048.3
-441785.27
56728.491
61666.178
-669456.8
-1356414.8
15785.469
9353.9162
40807.934
-490289.96
-504826.02
-353435.57
78625.464
69005.025
65819.038
63395.133
59552.257
59268.714
57087.41
54931.193
50502.259
42873.35
31205.611
14828.219
-4267.2049
-25328.14
-45643.499
-64227.465
-76588.964
-84968.494
-82495.558
-77066.413
-65019.915
-47534.441
-17322.403
70227.098
48111.551
47066.242
38396.837
28619.227
20007.525
11611.679
5258.8977
931.0505
-1134.84
1084.9712
6027.1321
15561.048
28255.497
44171.351
60184.288
76672.188
88282.822
96409.486
96250.48
84933.05
69937.836
36486.294
16329.05
6506.341
34917.525
105122.47
99686.513
61335.177
62682.154
52628.559
29185.729
30999.169
20839.595
19786.903
20152.59
22455.154
28592.041
33271.707
39095.364
43354.38
47107.26
50583.776
52924.609
53306.259
52006.127
45121.056
34581.358
15363.642
-971204.52
-1036729.1
-988703.68
-12541.851
-31314.875
-41771.337
-52584.331
-59624.891
-60452.575
-58805.994
-50256.786
-39208.974
-24259.324
-8735.5402
7345.6091
21166.287
33238.604
41851.966
47568.076
52521.144
53842.152
60351.954
62389.042
69848.693
70011.674
81046.474
50499.651
49604.149
50311.689
49797.329
46743.036
48077.237
-500541.17
-499325.38
-501842.31
-1003663.9
-1002894.6
-1005566.4
32494.868
27412.982
28101.425
23471.162
18371.734
11705.104
5563.0359
-1013.6307
-4646.0343
-7188.2935
-6066.1277
-2320.3791
4849.5257
14375.735
25387.277
37032.241
48201.836
56926.909
64341.32
62692.271
61709.601
51342.767
24255.666
11321.511
6185.3673
6883.6354
2575.1703
3010.0703
3451.7432
3085.1532
5763.8913
6253.6844
8208.1423
10078.676
11868.834
14566.284
17873.397
22005.617
26314.655
30811.858
32422.303
34036.998
27823.647
25802.102
12459.581
693.75845
28931.115
29223.11
32375.08
31361.368
32378.631
33037.976
31789.165
31117.354
27783.328
23634.076
15559.13
5364.7402
-7774.1562
-22554.088
-38442.253
-52836.155
-65753.582
-72850.756
-77465.741
-71564.641
-62228.39
-45098.718
-14104.422
10736.405
11006.132
10852.778
5293.689
4531.2192
7395.8054
19754.435
21022.975
21715.25
86273.097
84663.82
88992.501
90258.267
84971.58
80618.866
60638.157
55708.018
57512.577
53397.745
56247.218
53075.692
42317.856
39131.233
40988.927
31210.207
32529.375
30597.512
24397.11
24052.392
27721.31
18695.679
15826.503
15605.463
13522.342
14550.426
12942.325
13529.486
12479.408
11631.12
15087.309
14978.974
14061.557
20907.622
19494.381
19832.262
28790.91
25560.752
27582.016
39493.556
33316.013
37030.981
51509.194
41511.981
47587.376
64150.262
50270.165
58257.996
75574.484
58776.903
68278.201
84888.277
66324.068
76369.614
89082.807
70684.506
80353.717
86661.143
70067.606
78699.908
77123.413
63833.269
71085.898
59348.117
54657.822
58587.895
30276.552
26174.405
32161.476
-657677.74
-655510.03
-653948.63
-600898.35
-660505.58
-661091.41
-686099.26
-632143.67
-631049.72
77117.423
70779.451
69084.382
74025.614
71140.984
73019.935
70464.062
65218.083
64194.785
65099.067
60421.603
62089.407
61240.805
60050.167
58760.231
61110.704
55025.023
55626.568
58702.677
55629.174
55513.487
57537.054
52803.327
52121.759
51240.852
49294.505
46311.173
42600.485
41795.974
39427.252
32666.004
30576.795
27917.617
16191.429
15319.073
12650.414
-2161.7809
-1889.5609
-4012.9803
-21490.157
-20878.795
-22140.905
-40269.89
-39233.386
-38822.953
-55947.403
-55088.553
-53553.956
-67278.519
-67081.437
-63465.523
-72958.356
-72854.723
-69485.552
-73223.168
-74912.131
-68813.483
-64617.767
-69856.294
-63132.234
-52703.197
-57957.485
-52402.233
-41587.287
-41424.052
-39758.052
-13966.396
-14826.197
-13758.593
49387.385
46407.366
39884.815
32429.852
27776.058
17969.723
13604.164
9097.6527
5253.8155
7274.8084
10715.783
15296.78
22934.868
31062.17
39448.675
47567.126
53902.619
58826.8
59216.932
56816.396
48637.674
36400.706
26964.846
7456.0877
23058.92
9021.4606
21373.924
21907.275
25499.102
30008.397
30144.36
30333.932
26081.268
21543.106
14759.902
7980.8685
469.78671
-7384.0262
-15384.798
-22893.598
-29898.037
-34972.446
-37148.61
-36478.586
-31476.692
-20592.993
41509.241
25933.658
31490.308
30330.507
27742.203
25737.202
23805.66
21626.472
16497.742
10826.207
2777.1197
-8122.001
-19824.96
-32550.909
-44576.687
-54771.802
-62013.313
-65680.434
-63901.338
-57206.701
-45779.261
-26159.583
-5207.5779
42284.265
37424.247
37801.569
39391.573
38936.778
37380.732
35340.812
35318.442
32985.57
28494.136
26471.753
26038.473
22039.449
22605.893
21556.394
14930.818
14439.344
12857.386
9036.8922
8701.9472
6658.087
2772.6544
3055.0233
1499.1097
279.25321
73.328675
-1818.1834
-342.89036
-1482.9225
-2323.5631
2348.4027
1232.7418
797.98019
7283.6407
6225.8874
5925.8079
15002.564
13764.824
14322.476
24618.975
23280.147
24271.536
35336.515
34284.879
35588.762
46678.41
45666.878
46751.652
56599.161
56126.872
57293.587
65547.296
65254.459
64863.885
69782.053
68218.144
69687.757
66551.306
70680.091
68314.084
62948.139
63411.524
62134.763
50262.064
51471.014
50893.998
27380.154
26838.849
28511.559
9584.0902
8382.6323
6489.5546
14528.492
20388.422
19779.145
8417.047
5786.9831
4941.773
9340.8506
13502.23
13682.264
11767.339
11826.936
12346.114
12987.536
14286.024
14708.052
14372.918
16874.345
17974.43
16679.125
17759.278
18434.715
16593.746
18024.447
19749.037
16755.114
17802.689
18503.039
15887.015
16104.702
16805.439
14930.7
14315.461
14294.766
14004.333
12387.506
11458.745
12840.344
10323.48
9058.61
11833.495
8483.7418
6367.5639
10352.973
5856.6505
3994.7456
8474.4594
3336.5979
1044.5109
5806.3845
-885.2682
-1722.538
2450.6304
-4061.2804
-5107.9692
-2725.1868
-6830.9381
-8351.5978
-13974.549
3327.4835
-8394.5894
-9284.8164
-14846.175
-13446.023
-12744.857
-18062.309
-17117.241
32317.776
33883.36
37315.428
29155.454
32617.756
39059.573
30165.72
35507.345
37651.808
30625.342
30560.901
34023.247
28924.01
29348.085
32930.476
27420.885
27401.263
30415.457
27726.066
24881.782
27196.995
24409.441
22772.244
26186.898
21898.174
19965.284
22000.86
16529.494
14729.219
16428.459
8893.9183
7251.3006
8721.2462
-1125.4229
-2309.5669
-1334.8206
-13950.165
-13714.659
-13257.546
-27757.824
-25996.554
-26542.609
-42206.142
-38397.727
-39649.437
-55592.559
-49051.284
-51787.921
-65962.673
-58083.853
-61185.168
-73232.963
-62591.665
-66242.727
-74038.365
-62665.341
-67027.164
-67935.2
-58212.343
-61237.554
-58157.728
-49034.428
-52782.605
-37895.569
-30921.487
-34842.625
-13262.339
-7269.8218
-9334.8076
)
;

boundaryField
{
    free
    {
        type            zeroGradient;
    }
    fixed
    {
        type            zeroGradient;
    }
    traction
    {
        type            zeroGradient;
    }
}


// ************************************************************************* //
