/*--------------------------------*- C++ -*----------------------------------*\
  =========                 |
  \\      /  F ield         | OpenFOAM: The Open Source CFD Toolbox
   \\    /   O peration     | Website:  https://openfoam.org
    \\  /    A nd           | Version:  6
     \\/     M anipulation  |
\*---------------------------------------------------------------------------*/
FoamFile
{
    version     2.0;
    format      ascii;
    class       pointVectorField;
    location    "0.8";
    object      lm;
}
// * * * * * * * * * * * * * * * * * * * * * * * * * * * * * * * * * * * * * //

dimensions      [1 -2 -1 0 0 0 0];

internalField   nonuniform List<vector> 
625
(
(0 0 0)
(0 0 0)
(2019.1608 -948.81215 500.90692)
(1586.011 -1564.5094 118.39389)
(0 0 0)
(0 0 0)
(1800.0195 -1907.3817 113.90932)
(2227.9447 -1283.7338 495.69914)
(0 0 0)
(0 0 0)
(0 0 0)
(1861.5658 -1068.9382 396.84374)
(1754.5005 -1213.6627 304.46929)
(1692.392 -1402.9939 216.86119)
(-28.193822 -17.153321 2.5058438)
(-65.530532 -15.869791 20.514433)
(-101.98532 -8.1837154 39.071402)
(-133.64431 11.900616 56.123057)
(-156.97943 40.67601 73.442869)
(-162.45398 73.41505 90.12154)
(-153.52363 108.47476 108.29802)
(-122.65206 141.26927 126.45704)
(-70.491311 168.57307 146.67681)
(5.1700331 186.10293 166.31137)
(104.22204 190.0946 188.43567)
(225.64416 177.74527 210.65142)
(366.15544 146.72705 233.45908)
(522.48581 96.65733 256.80053)
(689.07657 28.034315 280.33296)
(860.45605 -57.201136 304.20537)
(1031.0369 -155.21253 328.12035)
(1196.5045 -263.45665 352.55091)
(1351.8386 -375.81173 376.50085)
(1498.5691 -491.42569 401.16023)
(1633.1548 -606.74548 425.0769)
(1756.5954 -718.10605 447.82474)
(1875.2947 -828.7075 471.1031)
(-22.592019 12.985901 7.989077)
(-61.912385 28.954267 -27.942359)
(-112.62333 46.515745 -52.913913)
(-147.59619 50.766066 -81.408576)
(-179.71651 55.233859 -102.57218)
(-199.93838 46.882983 -123.07418)
(-214.02739 37.188848 -141.86771)
(-210.74177 14.963428 -155.48372)
(-194.23278 -19.320279 -166.97923)
(-161.28749 -61.908216 -174.00064)
(-110.40674 -121.10573 -176.83287)
(-41.074461 -192.03573 -174.90782)
(46.631555 -277.43129 -168.47913)
(152.44842 -375.59843 -156.71304)
(274.67788 -485.4398 -140.40475)
(411.18686 -604.8597 -119.36608)
(558.71597 -730.80466 -94.326009)
(713.45994 -860.54413 -65.890184)
(871.07094 -990.24553 -34.999257)
(1026.8074 -1116.5921 -3.1153993)
(1177.4163 -1238.027 29.801361)
(1318.8136 -1349.9455 60.409552)
(1454.7013 -1458.6728 91.685034)
(0 0 0)
(0 0 0)
(0 0 0)
(-2.3161591 13.544923 -26.941385)
(-0.74624034 32.342527 -39.851171)
(-17.779218 33.120984 -49.454121)
(-25.65 25.46842 -62.59753)
(-26.179384 3.178896 -72.200049)
(-29.424077 -15.349257 -83.32596)
(-15.571015 -54.659886 -93.598703)
(2.4784072 -100.23458 -104.06942)
(34.114195 -160.57261 -110.47081)
(79.636978 -232.34053 -116.6132)
(140.07088 -315.82681 -121.50471)
(215.60243 -415.16648 -122.92176)
(307.34996 -524.67107 -122.15014)
(414.02978 -646.67314 -117.91526)
(534.88119 -777.97692 -109.57362)
(667.93214 -915.71167 -97.242344)
(810.33011 -1057.4279 -80.498119)
(958.94275 -1199.1292 -59.452187)
(1109.8359 -1337.372 -34.676)
(1259.3728 -1468.7238 -6.9115838)
(1403.6773 -1590.6683 22.902694)
(1540.2304 -1701.5375 53.480493)
(1662.3893 -1795.8016 83.188067)
(1912.8179 -1752.7739 211.48347)
(1955.9932 -1539.6564 297.39518)
(2080.5404 -1407.9175 393.82803)
(2083.5181 -1162.7649 465.68387)
(1980.1704 -1062.0138 443.6191)
(1857.6869 -950.3515 417.59013)
(1724.8386 -832.35514 388.91216)
(1580.6112 -710.54835 358.25702)
(1425.6748 -587.10125 326.38275)
(1262.0519 -466.32194 293.61197)
(1092.6661 -351.5386 260.81004)
(922.09123 -247.25447 228.80674)
(754.88744 -156.54295 197.9561)
(596.0002 -82.183318 169.22288)
(450.7307 -25.010095 142.57896)
(321.58045 14.547339 118.9579)
(212.50079 38.832678 97.612155)
(123.80464 48.890199 81.388952)
(57.508037 44.725082 65.717584)
(8.1864727 38.640919 53.050809)
(-21.163375 25.373252 44.216583)
(-32.136349 5.1845784 37.429238)
(-31.456698 -3.7746571 31.997486)
(-27.522746 -15.745524 27.608386)
(-10.470752 -15.58438 20.620095)
(-4.2578291 -12.907319 16.51903)
(0 0 0)
(0 0 0)
(0 0 0)
(0 0 0)
(0 0 0)
(0 0 0)
(1639.739 -1649.5977 117.5814)
(1693.0094 -1735.7192 115.4552)
(1747.1757 -1819.9237 115.0946)
(2071.0215 -1033.2664 499.37103)
(2123.8029 -1116.4948 497.17743)
(2176.479 -1199.8134 496.95016)
(-28.864538 4.3079184 6.1725204)
(-68.236718 9.63286 16.361572)
(-106.0453 18.801186 20.988321)
(-147.14969 39.726643 29.03952)
(-174.81539 63.217745 35.412569)
(-190.47198 90.681176 46.511196)
(-188.23834 116.61302 54.935202)
(-163.52096 138.30968 66.864062)
(-117.2772 148.77825 77.809347)
(-46.732521 146.2046 89.628331)
(44.152422 128.10442 102.14016)
(153.31614 92.593665 114.68307)
(277.1289 40.622984 128.65288)
(411.96363 -26.832844 143.65256)
(553.39862 -107.19044 160.34584)
(698.72606 -197.93992 179.07197)
(845.37048 -296.14606 199.76065)
(991.49673 -399.58002 222.99061)
(1136.5208 -506.49657 247.74621)
(1281.5098 -616.37301 274.99187)
(1426.0974 -728.17585 303.52118)
(1570.9111 -840.77907 333.9664)
(1720.1166 -956.75628 365.76522)
(-21.22402 -3.2283058 -2.9048008)
(-61.053117 -7.2287726 -7.0101435)
(-112.27636 0.47164098 -7.3362828)
(-158.35253 16.154512 -11.34924)
(-195.64985 35.416185 -11.491852)
(-217.33833 56.179678 -12.286756)
(-219.74276 73.342139 -11.717699)
(-199.99112 81.851883 -8.4996726)
(-159.3669 80.881797 -4.8757745)
(-97.164875 66.86806 1.9776026)
(-17.511218 39.081464 9.8066172)
(77.795059 -2.389031 20.282683)
(185.01398 -56.955348 32.570421)
(301.45075 -123.19661 46.803728)
(424.90188 -199.90915 63.184227)
(554.17695 -285.6352 81.609295)
(688.43479 -379.81557 102.32308)
(828.2112 -481.54371 125.3218)
(973.48235 -591.45691 150.87693)
(1125.8201 -708.10831 178.7993)
(1284.6108 -833.54062 209.90134)
(1450.6546 -964.3149 241.60218)
(1614.9976 -1097.7453 275.20637)
(-16.171791 -8.1722325 2.7028468)
(-65.627085 -7.9307949 -10.422611)
(-120.69958 6.8003664 -29.528325)
(-165.41604 23.456196 -45.43373)
(-200.19172 34.686652 -61.681409)
(-221.97842 46.680488 -74.868579)
(-225.545 46.624742 -83.369013)
(-213.47124 41.694013 -90.164498)
(-181.71037 25.824249 -91.869868)
(-132.70875 -1.7960366 -90.043311)
(-66.558018 -39.881706 -84.972558)
(15.892064 -90.742059 -75.786731)
(112.94022 -153.08295 -63.915562)
(223.82993 -227.56658 -48.712667)
(346.65 -313.25909 -30.715592)
(480.09169 -409.87435 -9.9856754)
(621.98064 -516.18243 13.325808)
(770.77219 -631.02032 38.949862)
(923.84358 -752.87937 66.672981)
(1079.9418 -879.93175 95.892987)
(1235.7445 -1010.3238 126.0341)
(1391.6886 -1142.5088 156.83995)
(1540.9211 -1272.7108 186.92008)
(0 0 0)
(0 0 0)
(0 0 0)
(0 0 0)
(0 0 0)
(0 0 0)
(0 0 0)
(0 0 0)
(0 0 0)
(-22.096832 12.519991 -5.0441624)
(-18.203926 11.420999 -14.975181)
(-10.719077 2.800611 -20.015036)
(-48.06994 47.572276 -31.141343)
(-33.280646 37.142132 -36.753817)
(-18.166321 27.024233 -38.895594)
(-85.797201 55.952187 -54.884953)
(-62.000774 43.435992 -56.438681)
(-39.574586 31.599419 -53.341979)
(-106.81413 53.779401 -77.405651)
(-79.084863 39.500978 -74.600171)
(-50.953959 26.740031 -69.392095)
(-132.07092 48.317556 -97.457852)
(-94.261537 31.88394 -91.908783)
(-60.027405 10.876605 -82.269116)
(-146.48804 36.433332 -116.23179)
(-102.84137 14.674392 -107.35947)
(-63.318952 -8.4080802 -95.585034)
(-151.00642 14.87387 -131.81875)
(-101.8798 -16.57165 -122.71239)
(-58.607764 -44.607001 -106.41316)
(-144.73077 -17.845311 -146.35435)
(-89.604827 -46.395698 -133.4866)
(-42.913138 -83.049734 -119.64279)
(-125.06841 -56.978026 -156.06929)
(-66.498639 -98.20716 -144.19503)
(-15.67507 -137.16021 -127.0144)
(-89.415603 -111.73429 -163.6942)
(-27.096296 -156.5145 -150.71879)
(26.922067 -203.09569 -133.71338)
(-37.34751 -176.5983 -166.58667)
(26.871225 -228.86535 -154.43689)
(83.541753 -280.22949 -138.03517)
(31.724833 -256.13795 -165.88535)
(97.736927 -314.27033 -154.6129)
(157.02366 -371.75818 -139.05159)
(118.72057 -347.52272 -160.79026)
(185.75441 -411.56982 -150.9019)
(246.5508 -474.90173 -136.82558)
(222.60382 -451.41963 -150.82432)
(289.79844 -521.21746 -142.86905)
(351.93595 -589.32843 -130.9095)
(342.53083 -565.86879 -136.49059)
(409.46987 -640.42476 -130.72862)
(472.18115 -713.80005 -120.65167)
(476.19659 -688.65605 -117.50746)
(542.32992 -767.80834 -113.84335)
(605.17485 -845.31398 -106.03751)
(620.91223 -817.34396 -94.254044)
(685.83015 -900.06134 -92.780642)
(748.21482 -981.23104 -87.11011)
(772.93663 -948.56744 -67.456971)
(836.26087 -1034.1253 -67.781349)
(897.88397 -1118.2164 -63.916578)
(928.01454 -1079.1254 -37.742889)
(989.64924 -1166.7812 -39.423134)
(1050.1672 -1252.8022 -37.222103)
(1082.2594 -1205.8647 -6.41327)
(1142.1687 -1294.5299 -8.7505093)
(1201.2981 -1381.6466 -7.8906179)
(1231.3036 -1326.226 26.089948)
(1289.2338 -1414.742 23.096688)
(1346.9582 -1502.1938 23.129812)
(1372.541 -1437.657 57.462932)
(1428.538 -1526.1106 54.999702)
(1484.9411 -1613.0211 54.389906)
(1503.5054 -1541.1663 88.618056)
(1558.5744 -1628.4504 86.375342)
(1613.3367 -1714.1588 85.373808)
(1917.205 -1154.813 396.01393)
(1968.7398 -1236.7847 394.07578)
(2020.3743 -1319.0483 393.51806)
(1798.7997 -1291.5975 301.298)
(1853.1286 -1375.5166 299.63743)
(1904.414 -1457.1667 299.04558)
(1742.6649 -1488.0018 214.95996)
(1798.286 -1574.394 212.5296)
(1851.2201 -1659.4736 211.90897)
(-26.372104 -20.214155 7.9570898)
(-23.456811 -13.877149 13.414554)
(-15.187539 -8.6246023 13.106958)
(-53.339124 -21.149127 25.602952)
(-38.633478 -14.810596 18.668702)
(-21.529198 -10.329974 21.468316)
(-80.163935 -16.768476 33.624747)
(-63.023777 -13.098989 32.06737)
(-42.434092 -7.0133686 29.158183)
(-105.91273 0.76915928 47.504738)
(-79.591324 3.5591056 40.817937)
(-52.807088 4.2842025 35.951575)
(-119.63 25.992215 59.662803)
(-86.866701 21.162559 49.293559)
(-55.25799 18.740305 43.811609)
(-119.10422 50.736514 72.504309)
(-82.850886 43.716343 62.628391)
(-45.706402 38.143909 51.576119)
(-104.36819 81.356692 87.865477)
(-62.017947 67.57585 75.229496)
(-19.919107 56.277844 62.778908)
(-68.59752 106.60447 103.93656)
(-20.979244 87.99347 89.696228)
(23.421168 71.392955 75.943256)
(-11.780996 128.96794 122.69635)
(39.302097 99.276771 106.6494)
(89.30596 75.703206 91.333542)
(68.136995 136.12319 141.12137)
(122.08367 103.95517 126.38211)
(174.51803 72.138682 109.22735)
(169.37156 134.52248 163.13208)
(225.99569 93.425796 146.39456)
(281.32906 54.938038 130.08305)
(292.21752 115.79199 185.6199)
(350.94523 66.864069 169.60608)
(408.2207 21.18908 153.48812)
(433.53985 79.132921 209.61509)
(493.39244 22.941606 194.26559)
(551.71308 -29.65637 178.89751)
(589.66784 24.165676 234.56895)
(649.78703 -38.903415 220.4706)
(708.69852 -97.797844 206.59676)
(755.24132 -48.886934 260.5682)
(815.11157 -117.66699 248.00726)
(874.27202 -182.45843 235.87325)
(925.05453 -137.11727 287.07164)
(984.43129 -211.25777 276.32025)
(1043.1579 -281.00969 266.23481)
(1094.2643 -238.65576 314.3436)
(1152.3627 -316.39895 305.19929)
(1210.5863 -390.21906 297.45567)
(1257.4559 -348.01586 341.42641)
(1314.5886 -428.77961 334.43296)
(1372.391 -506.56972 328.69852)
(1412.3952 -462.868 369.07532)
(1469.0874 -546.30024 363.25245)
(1525.3505 -625.80594 359.36126)
(1556.8819 -579.45696 395.64934)
(1611.7513 -662.8124 391.18797)
(1667.7272 -744.85591 389.043)
(1690.0241 -694.20233 421.42485)
(1743.5689 -778.28449 418.05789)
(1798.9988 -860.92306 417.10015)
(1813.2962 -805.62391 445.62431)
(1866.4517 -889.01173 443.75324)
(1920.3377 -972.11967 443.05744)
(1927.2057 -913.64758 469.45612)
(1979.3152 -996.32219 468.25755)
(2031.9547 -1078.8636 466.84379)
(1.2996484 -3.4953871 7.5175038)
(-8.5442585 -7.1410139 10.887834)
(-23.300674 -1.0377943 15.702184)
(-31.956197 5.4180396 15.310774)
(-37.171518 13.4643 21.489999)
(-29.797015 21.942695 22.256239)
(-7.7745471 23.466312 27.78303)
(32.541139 21.346544 34.275881)
(91.89462 6.611453 42.522611)
(170.6256 -19.404435 53.638368)
(268.79792 -61.443866 66.507953)
(384.2919 -120.22059 82.276232)
(514.02637 -194.70939 99.957529)
(655.12079 -284.47496 120.11818)
(803.51689 -386.93166 142.53937)
(955.86903 -498.57129 166.79791)
(1108.8057 -616.34034 193.10628)
(1259.9244 -736.47442 220.69844)
(1407.0157 -856.26186 249.30841)
(1549.1426 -973.24649 278.62616)
(1686.0553 -1086.4257 307.72167)
(1817.6939 -1195.0958 336.77514)
(1938.6778 -1294.6159 363.64585)
(3.0234385 -3.3971013 1.6765926)
(-4.7905079 -4.2670476 -6.1762964)
(-16.935564 -9.7424739 -12.086727)
(-27.701279 -7.0816873 -16.646773)
(-37.601572 -11.27589 -22.125315)
(-30.917401 -13.414807 -23.166313)
(-13.054803 -23.102262 -23.620596)
(23.793969 -40.718026 -20.659087)
(76.482478 -68.443282 -15.8252)
(146.06776 -106.3818 -8.9191566)
(229.56628 -157.45798 1.1876575)
(324.80694 -218.89153 12.19468)
(428.92539 -290.81593 25.889631)
(539.8383 -371.97236 41.265122)
(655.95898 -460.84222 58.206171)
(776.63863 -556.89679 77.212132)
(902.18917 -659.50819 98.091809)
(1033.1929 -768.55002 120.89654)
(1170.7 -884.02549 146.14865)
(1315.4993 -1005.9693 173.33975)
(1468.7566 -1134.9007 202.51305)
(1629.455 -1268.5108 233.85516)
(1810.4107 -1419.4327 267.39725)
(10.905195 8.5584365 -18.499917)
(-5.7113021 11.132302 -28.019207)
(-24.900797 17.460714 -31.89443)
(-39.633303 24.022405 -40.765045)
(-44.054953 13.765763 -42.655951)
(-39.861918 2.0685321 -48.861698)
(-22.099734 -20.743705 -53.836151)
(9.0737375 -57.844364 -55.727895)
(52.970081 -99.082493 -57.823188)
(111.51656 -156.37888 -55.82467)
(183.05574 -220.77875 -52.957865)
(268.23339 -296.76038 -47.527708)
(365.05704 -383.09801 -39.066905)
(473.66374 -478.54146 -28.681242)
(592.3196 -583.57164 -15.217037)
(720.17788 -696.87882 0.97047882)
(855.76884 -817.52693 19.823877)
(997.7374 -944.23705 41.51251)
(1144.5051 -1075.3753 65.831602)
(1294.6986 -1209.4572 91.997056)
(1446.6198 -1344.371 120.67769)
(1599.2754 -1478.987 149.58432)
(1753.3399 -1614.574 180.61135)
(-17.267883 0.34357476 6.23883)
(-14.721908 -0.26330691 7.2019137)
(-8.0165699 -0.38734012 5.2524866)
(-53.339587 2.1507509 12.583511)
(-39.071489 2.7354295 8.5456927)
(-25.539901 0.88272072 10.100368)
(-81.050253 9.4354919 15.417197)
(-64.132932 12.110251 15.171898)
(-42.914043 4.9657494 14.634673)
(-111.67055 25.36167 21.752676)
(-85.458027 23.84951 18.733859)
(-58.34232 12.919007 16.290492)
(-130.40867 42.756471 25.941793)
(-98.778094 36.859817 22.503911)
(-65.774316 25.618663 21.078178)
(-139.55186 62.971597 34.136318)
(-100.12611 54.307167 29.511746)
(-63.310667 35.576899 24.820377)
(-130.36496 83.505646 41.546827)
(-85.257272 67.231985 35.432438)
(-42.891007 44.713276 30.267294)
(-102.23665 97.501257 51.153743)
(-51.70169 73.120754 43.79821)
(-6.0427219 44.848098 36.738775)
(-53.056628 101.03429 61.494104)
(2.0319566 71.494302 53.40739)
(52.005498 37.348077 46.917905)
(18.489096 94.183995 72.97485)
(76.604477 55.170229 64.164011)
(128.64254 15.342159 56.668667)
(110.32598 70.932443 85.89475)
(169.96248 25.074602 77.860993)
(224.52435 -20.394376 69.798147)
(220.08784 30.908869 99.754962)
(281.03952 -21.557785 91.76844)
(336.88836 -73.161499 84.530967)
(345.30901 -25.386206 115.33351)
(406.36611 -84.205698 108.23)
(462.54039 -140.82283 101.50749)
(481.89137 -97.514756 132.61419)
(542.17749 -161.51505 126.43713)
(598.3078 -222.84813 120.45934)
(625.92269 -182.73903 151.73097)
(685.14885 -251.32714 146.61619)
(740.88397 -316.91236 141.45187)
(774.38701 -278.73922 173.0081)
(832.25321 -350.84128 168.80879)
(887.06028 -420.10261 164.54046)
(923.93429 -381.94459 196.20231)
(980.20984 -457.1715 193.11459)
(1034.2705 -529.57008 189.60898)
(1072.3924 -490.30966 221.57129)
(1127.4773 -567.52745 219.09524)
(1180.7368 -642.79835 216.31095)
(1218.5422 -600.47737 248.25448)
(1273.2419 -680.61864 246.79291)
(1325.3107 -757.31707 244.41271)
(1368.4764 -715.99832 278.02239)
(1409.4905 -789.41344 274.38967)
(1467.3541 -871.73848 273.75374)
(1509.6211 -827.52929 307.31238)
(1549.5262 -901.38927 303.83242)
(1607.3004 -985.25769 303.56309)
(1642.3989 -935.18502 336.00783)
(1693.4337 -1016.0175 335.11203)
(1744.6302 -1097.1422 333.7377)
(1779.6695 -1044.5252 366.15473)
(1831.5446 -1126.4335 365.0822)
(1882.901 -1208.1766 363.70495)
(-22.061283 -2.3304818 -3.2054459)
(-14.259424 -3.1864614 -1.2026728)
(-6.7799341 -3.7346963 0.24062248)
(-49.725327 -3.7665136 -8.274821)
(-33.085666 -4.373363 -5.4125472)
(-19.937677 -5.7027723 -6.9615155)
(-88.811395 -0.53415981 -9.4912041)
(-62.984624 -5.1737303 -9.991225)
(-43.195152 -6.8782875 -11.931053)
(-124.72419 11.651515 -16.339875)
(-87.533288 2.9849306 -15.547804)
(-59.238177 -2.1411459 -18.39711)
(-151.34514 23.885787 -17.582792)
(-106.64246 9.2978979 -17.294724)
(-74.332238 1.9328177 -22.698664)
(-163.86801 36.354497 -19.990375)
(-113.96704 16.94556 -20.451438)
(-73.008731 3.0465089 -24.192413)
(-160.3302 46.700631 -20.573023)
(-103.94002 18.525216 -21.115235)
(-58.706154 -0.97424588 -26.401907)
(-135.19021 45.658755 -17.842082)
(-75.326543 12.557771 -18.56998)
(-25.874823 -11.663963 -22.317091)
(-91.367731 38.63349 -14.651203)
(-29.021771 -2.0882332 -15.665392)
(24.511137 -34.908049 -19.708003)
(-26.939263 16.899154 -7.7021398)
(36.933046 -29.655547 -8.4078834)
(91.735747 -67.174169 -11.760216)
(53.371879 -17.151241 0.68659336)
(116.61287 -68.423328 -0.041063823)
(173.18769 -112.73359 -3.034195)
(148.13846 -63.439008 11.527098)
(210.93454 -120.08532 10.757247)
(267.67822 -169.24728 8.3353296)
(254.15613 -122.46371 24.667001)
(314.96526 -182.6741 24.090811)
(371.3093 -236.42475 21.76093)
(368.23312 -191.98645 39.627586)
(426.86483 -255.36953 38.855334)
(482.51162 -313.4188 37.131197)
(488.94377 -271.2924 56.765868)
(545.28498 -337.13869 56.077182)
(599.85836 -398.74468 54.447429)
(614.73325 -358.85623 75.922275)
(668.96505 -426.80092 75.162648)
(722.13731 -491.78362 73.711819)
(745.46021 -454.17116 97.301988)
(797.6737 -524.17867 96.412987)
(849.81997 -591.94427 95.192669)
(881.16489 -556.91216 120.82423)
(932.24667 -628.55778 119.92037)
(983.32484 -699.07752 118.68431)
(1023.0473 -666.48715 146.82597)
(1073.1626 -740.26587 145.78249)
(1123.5741 -813.414 144.81116)
(1170.6217 -783.4516 174.90692)
(1221.344 -859.58955 173.94469)
(1271.5658 -934.71051 173.09203)
(1323.5046 -905.44852 205.34547)
(1382.9571 -990.33479 205.34663)
(1427.2651 -1063.5327 203.40249)
(1489.7391 -1038.2743 237.71782)
(1540.2854 -1117.4709 236.85393)
(1590.4763 -1197.6315 235.49121)
(1659.2871 -1176.1511 272.24659)
(1710.9355 -1257.7721 270.83406)
(1762.8115 -1339.691 269.59264)
(-15.251498 2.1936617 1.9672115)
(-6.8700185 -0.9710445 -7.7979244)
(-1.9417773 2.3737289 -11.334713)
(-55.518277 8.9300028 -14.319449)
(-39.915324 6.4124508 -21.278202)
(-22.614497 7.0110771 -23.600315)
(-96.195519 23.802824 -30.784732)
(-72.244116 17.234085 -32.518882)
(-45.225859 14.691478 -33.267534)
(-127.43903 31.987042 -48.385002)
(-96.741218 30.036668 -48.838486)
(-63.138155 20.235926 -47.171281)
(-152.83938 39.105664 -62.666699)
(-112.95905 26.721813 -58.97634)
(-72.992208 14.119931 -53.163267)
(-164.73807 38.927016 -76.104636)
(-119.59961 25.062623 -70.376886)
(-74.081608 5.0639556 -64.577358)
(-161.70566 29.821492 -84.048296)
(-110.74244 10.094057 -76.515246)
(-59.94085 -14.334173 -69.071889)
(-144.0741 15.682192 -90.233744)
(-89.037668 -11.976361 -82.793537)
(-34.787119 -44.738526 -74.187361)
(-109.31246 -11.023868 -92.438978)
(-50.597863 -44.413084 -83.255045)
(6.3667473 -80.898743 -74.578717)
(-58.499219 -47.408609 -90.168113)
(1.953766 -87.566899 -81.958037)
(60.914503 -130.46093 -73.370764)
(7.7306567 -93.542793 -85.494047)
(69.39825 -140.37092 -77.44532)
(129.93689 -188.57771 -69.009319)
(89.303051 -151.80626 -76.58845)
(151.70798 -204.35428 -69.238465)
(212.83926 -257.47195 -62.067274)
(184.54625 -220.18072 -65.065845)
(246.74875 -278.4455 -58.845681)
(308.09023 -336.46824 -52.3248)
(292.81211 -299.65209 -50.443161)
(354.70669 -362.85485 -45.129576)
(415.7632 -425.35065 -39.718652)
(412.66617 -389.3349 -32.936755)
(473.69312 -457.15839 -28.576396)
(534.15938 -523.88577 -24.552256)
(542.72856 -488.94495 -12.732648)
(602.71716 -560.73905 -9.4796632)
(662.29467 -631.32051 -6.4851424)
(681.26559 -597.46597 10.099767)
(740.02506 -672.65513 12.542301)
(798.67824 -746.81356 14.333167)
(826.76485 -713.70398 35.449761)
(884.39871 -791.8435 37.029779)
(941.8579 -869.02255 37.672365)
(977.00315 -836.41883 62.995583)
(1033.2925 -916.63584 63.669607)
(1089.8296 -996.56352 63.706018)
(1130.4499 -963.47992 92.29142)
(1186.283 -1046.3001 92.513013)
(1241.5337 -1127.9788 91.378975)
(1285.3657 -1094.2693 122.79372)
(1339.6442 -1177.4477 122.14148)
(1394.4659 -1260.818 121.08242)
(1439.9794 -1226.1996 153.89572)
(1494.3655 -1310.6623 152.67943)
(1548.1827 -1394.5585 151.21087)
(1593.1202 -1358.0721 184.89081)
(1646.7256 -1443.4082 183.74604)
(1700.2748 -1527.7425 181.77798)
)
;

boundaryField
{
    free
    {
        type            zeroGradient;
    }
    fixed
    {
        type            fixedValue;
        value           uniform (0 0 0);
    }
    traction
    {
        type            zeroGradient;
    }
}


// ************************************************************************* //
