/*--------------------------------*- C++ -*----------------------------------*\
  =========                 |
  \\      /  F ield         | OpenFOAM: The Open Source CFD Toolbox
   \\    /   O peration     | Website:  https://openfoam.org
    \\  /    A nd           | Version:  6
     \\/     M anipulation  |
\*---------------------------------------------------------------------------*/
FoamFile
{
    version     2.0;
    format      ascii;
    class       pointScalarField;
    location    "1.56";
    object      E;
}
// * * * * * * * * * * * * * * * * * * * * * * * * * * * * * * * * * * * * * //

dimensions      [1 -1 -2 0 0 0 0];

internalField   nonuniform List<scalar> 
28033
(
95702.86
88265.884
10831.489
10305.096
107922.16
104098.92
11206.058
11608.812
53222.517
36280.682
23448.445
16193.557
8676.8469
5001.9367
2855.0828
2573.5129
4507.0328
7805.452
13616.28
22369.57
33579.133
47028.897
72689.611
12878.961
11853.88
11794.82
11251.736
10663.629
10738.569
9573.2897
10104.907
9902.8782
9581.7106
10273.96
10069.903
10508.529
11125.534
11946.682
70637.299
41163.858
38195.655
36957.186
37092.545
36290.867
35549.101
34328.286
33183.865
31460.135
30081.331
28427.7
26665.39
24917.836
23086.879
21300.336
19516.399
18054.149
16490.99
15122.245
13960.361
12794.251
11768.641
10932.8
9807.8066
9266.3779
8129.3365
7622.4616
6617.9156
6035.4228
5495.35
4733.2474
4094.2431
3642.7566
3165.8168
3094.7436
2345.2163
2259.0991
1793.6407
1373.6573
940.65669
612.19393
237.24534
17.453773
-158.08092
-141.47571
-219.46186
-1.0981685
-8.4762012
230.52526
232.35223
370.51425
338.6295
353.53706
300.74897
273.27658
237.33945
242.45409
258.93158
317.24055
372.25174
476.51196
507.7515
697.01453
762.72674
888.9746
1069.3635
1210.3478
1472.7129
1953.0071
2181.351
2628.2287
2934.2739
3410.7128
3794.1785
4215.4009
4581.178
5070.0481
5358.97
5773.2191
6246.7285
6572.098
7162.548
7261.5664
7932.2936
8117.5058
8800.786
8960.3256
9768.8909
9738.8369
10751.187
10440.512
11631.068
11303.852
11657.726
72149.372
40475.738
47634.683
40139.167
41686.699
40240.707
38986.132
37970.539
37090.955
35169.467
34394.094
32325.394
31394.987
29420.786
28061.233
26262.362
24706.363
22942.663
21312.223
19940.277
18046.922
17099.333
15402.83
15157.713
13488.814
13350.328
11748.484
11357.167
9908.3372
9386.1531
7896.4196
7345.1724
6370.6381
5784.085
5126.0547
4784.4189
4388.9043
4026.5988
3682.8667
3677.5548
3358.4289
3264.0621
3045.4927
2956.0837
2750.6416
2728.0635
2605.3261
2630.5195
2606.7804
2637.422
2632.4544
2616.1871
2519.1836
2411.5424
2199.802
1989.9765
1747.8902
1525.7625
1348.9943
1252.1524
1225.4164
1304.0873
1459.326
1687.5242
1967.444
2265.2088
2627.072
3002.6141
3463.4581
3644.308
4135.1663
4344.8597
4961.5021
5169.6478
5699.7884
6022.9943
6353.4621
6775.6813
6990.2781
7343.5801
7619.618
7847.6123
8227.5143
8488.4278
8912.5519
9271.9587
9753.8899
10158.494
10650.032
11050.249
11446.432
11723.019
11931.221
11996.396
11852.303
65956.933
43698.032
27899.288
21963.486
10894.567
6208.3524
3935.9997
3384.0599
5488.3233
10423.357
15445.882
24487.814
35997.963
52423.371
71222.339
130945.02
62340.093
31862.401
49784.905
41957.462
42459.745
41947.195
40713.825
40014.902
38904.789
37192.995
34587.152
34357.692
30364.868
30538.508
26319.921
27569.934
21620.348
23872.047
18915.306
19553.37
18535.752
16422.299
16417.84
13500.222
13978.272
12683.072
11107.159
11291.026
8011.0204
7504.2844
6795.4601
5966.8309
5865.7143
5355.9275
6922.9312
4553.4928
5534.848
5037.9911
4774.3117
4415.2423
4010.1171
3617.0197
3295.9297
3104.6348
3004.7537
3024.0932
3090.8341
3161.3064
3170.203
3074.1376
2853.4416
2521.8791
2092.9195
1675.514
1286.0007
1021.5588
922.23074
977.28243
1222.8604
1551.3336
1989.0571
2395.8057
2793.2696
3108.1447
3354.2712
3604.4084
3288.092
4151.5926
4039.6195
4299.6033
4425.1213
4782.842
5101.3678
5393.763
5657.4378
5882.6572
6087.3711
6214.3072
6417.3666
6580.6284
6882.4791
7166.6779
7619.2787
8010.4891
8544.2429
8953.964
9431.7583
9739.941
10060.554
10226.182
10376.246
10519.43
10481.531
11119.523
12177.998
12331.359
10870.396
10713.875
10554.216
9911.3954
9945.0899
9472.6943
11077.985
9261.615
10899.926
9470.8451
12727.247
10273.636
13088.169
12601.249
10923.593
11901.356
11070.097
10934.137
10401.24
9985.5497
9516.3335
8976.7126
8543.7719
8035.7377
7633.2168
7293.7335
6837.317
6551.0443
6215.0203
5917.7064
5606.4103
5282.2483
4946.4007
4601.619
4239.047
3904.0307
3491.6478
3351.096
2874.0507
2816.7471
1150.3129
2253.4418
1559.3275
1417.4586
1071.8708
795.50053
561.70169
374.06246
263.26988
226.59184
268.05333
372.05336
525.36382
694.58525
870.35687
1015.4288
1135.0983
1211.0919
1261.3953
1294.5011
1316.4093
1371.7237
1436.3368
1517.129
1686.7489
1787.4418
1978.766
2069.4901
2316.9033
2155.1596
3004.43
2154.0246
2745.4093
3965.1496
2858.684
4115.337
4561.6352
5712.2605
6159.49
6754.8041
7399.3319
8142.6011
9523.0643
10674.999
11373.172
11121.624
13981.925
14159.906
15129.902
17299.535
18098.526
20591.506
21430.259
23339.511
24822.574
27313.488
27534.509
31501.65
30936.985
32618.384
34197.605
36129.266
34857.123
36021.954
39084.871
40449.759
30214.463
83194.9
57135.51
58244.008
55685.265
56383.872
57268.161
58694.733
57945.33
58901.592
58786.512
58512.142
56198.83
54568.997
55643.363
57144.123
61092.823
65900.547
67514.606
65241.608
68943.601
68723.273
67906.653
71916.761
75830.335
74196.49
74136.842
70897.089
68752.394
67465.226
66663.495
73469.479
11163.194
11112.577
11122.876
11016.14
10980.76
10929.884
10902.338
10882.633
10929.689
10950.583
11063.507
11028.319
11138.658
10821.889
11627.841
11837.435
11412.157
11751.236
11429.902
11677.894
11607.998
11626.313
11613.296
11650.333
11630.245
11722.842
11617.925
11678.409
11483.523
12045.548
50279.553
32818.171
30229.64
28942.81
28370.277
28128.981
27819.861
27339.156
26365.423
25843.623
24171.547
23291.496
21412.986
20645.474
18664.684
17997.552
16571.67
15728.02
14510.888
13746.168
12654.818
11613.204
10747.616
9451.7707
8647.6847
7539.0672
6792.7714
5993.1234
5576.5428
5217.3591
4896.9046
4901.8728
4969.9944
5004.078
5136.9098
4823.2565
4821.2451
4519.0318
4451.6226
4144.1472
4108.405
3853.8102
3791.3262
3692.0221
3411.5462
3215.2297
2833.7295
2468.6524
1970.9034
1540.0718
1076.515
758.38946
540.89618
513.62349
652.5532
953.18923
1377.1151
1867.0209
2373.906
2842.2389
3225.2101
3538.6801
3696.355
3849.5742
3786.6956
3799.1998
3984.4163
3831.4292
3995.3878
3635.0489
3726.1592
3641.2338
3675.7536
3698.5193
3733.5969
3845.2756
4042.8295
4247.7285
4671.8567
5025.1963
5657.8238
6160.0209
6829.3946
7334.8963
7874.0951
8510.9266
8989.0059
9401.0645
9911.0672
10043.983
10719.975
10657.689
11544.2
11397.638
12322.936
31099.932
21596.474
22583.727
20304.242
20739.115
19904.332
19853.591
19390.327
18987.888
18353.805
17570.347
16862.685
15890.276
14990.439
14002.509
13387.058
12157.357
11665.037
10759.461
10179.772
9322.7375
8776.7704
7921.2127
7366.6603
6620.1759
6075.0772
5435.5764
4973.5556
4540.7496
4208.8933
3965.8707
3856.0058
3562.256
3397.5887
3284.5845
3120.1423
3106.6969
3037.8854
2818.5736
2650.3068
2499.2047
2392.9077
2326.2603
2143.7345
2035.2925
1991.9154
1846.6319
1743.6296
1605.4491
1458.4312
1304.8868
1192.7361
1100.3326
1078.1949
1113.8279
1224.3059
1382.345
1593.6496
1822.7046
2047.6816
2260.2579
2445.5437
2587.4842
2704.58
2837.069
3006.148
2881.5839
3556.1637
3503.383
3662.538
3946.1246
4017.0337
4121.1245
4276.472
4444.8149
4652.5604
4912.3105
5198.9931
5613.9724
5891.9414
6525.2804
6736.9872
7515.0099
7523.2902
8698.145
9029.4304
9730.7898
9844.7898
10679.019
10589.386
11453.827
11241.494
12229.335
11177.558
13249.146
19471.033
12496.53
14962.201
13411.4
14027.26
13169.701
13306.035
13118.257
12876.32
12591.299
12096.735
11768.98
10959.267
10601.386
9849.3204
9349.5555
8774.9423
8382.1755
7760.2359
7410.5026
6923.5917
6481.3694
6043.0146
5535.248
5065.7683
4573.6381
4194.7134
3774.3099
3544.8517
3262.6489
3155.2575
2935.2188
2977.9698
2899.4934
2893.1737
2786.6202
2591.5839
2269.8647
2291.7913
2131.0461
2115.8512
2045.5984
1881.8602
1949.6272
1971.4842
1925.9399
1862.7863
1792.6637
1671.9727
1518.8557
1408.0255
1277.4638
1233.2881
1225.1947
1319.0774
1458.3729
1677.4117
1919.7596
2181.2846
2425.3127
2649.2315
2839.4913
2961.7185
3102.4742
3181.5276
3187.605
3470.1899
3355.5671
3645.7257
3568.8756
3764.5374
3764.6037
4048.7903
4220.8347
4439.8935
4651.8037
4908.6023
5240.3761
5542.9072
5928.0461
6386.3499
6781.2983
7179.9611
8030.028
8327.9696
8409.4379
8773.1246
9250.5028
9691.6897
9822.6868
10561.468
10341.321
11291.471
10556.773
13676.178
11690.317
7246.9792
8134.2252
8283.0258
8377.5638
8308.9631
8407.6497
8414.4289
8134.6005
8170.1182
7844.1027
7680.1865
7165.484
7105.8158
6359.5174
6406.19
5670.7147
5647.2016
5065.2726
5039.0064
4439
4373.734
3799.4987
3662.7821
3174.7491
2996.9118
2577.167
2426.2438
2108.9431
2020.1324
1811.3091
1806.1175
1724.1672
1623.1289
1667.4234
1506.7434
1593.0656
1940.2292
1840.1735
1793.6334
1701.2737
1708.1589
1693.2301
1676.5265
1612.277
1597.2881
1598.8581
1598.9056
1583.8761
1583.8291
1572.8501
1556.7204
1562.3699
1567.2798
1604.3593
1661.3222
1751.9245
1860.3887
2000.5665
2144.2815
2305.0657
2457.262
2583.9061
2761.2838
2844.6575
3020.7385
3089.3807
3247.6187
3516.3365
3397.1854
3864.5078
4009.7299
3929.5817
3927.6965
4208.6299
4401.176
4676.4061
4906.0287
5267.4828
5556.5664
6012.3752
6283.2065
7007.2375
7102.0081
7857.6592
8090.7885
9208.7692
9238.3002
10205.094
10069.445
11163.232
10613.883
12225.544
10461.622
14584.697
7062.6254
2793.912
4461.5886
3788.2173
4726.8956
4396.4074
4963.9045
4690.8067
4978.4382
4892.0527
4841.226
4698.4128
4562.2333
4363.3917
4129.7894
4040.8526
3718.0516
3737.0738
3398.0844
3397.5762
3080.01
3090.5527
2716.1911
2696.257
2295.8338
2178.3997
1912.6672
1730.623
1596.0835
1476.1287
1448.2907
1403.3854
1389.7144
1420.1514
1411.6341
1330.7139
1532.4726
923.08926
942.00793
868.8067
1036.4009
942.4734
990.27223
1056.2089
1127.8389
1177.208
1224.2869
1212.4559
1216.9903
1188.2293
1174.2169
1143.1475
1168.5334
1175.3513
1252.8235
1328.6422
1450.137
1575.1882
1719.8448
1861.5489
2000.5155
2130.1586
2260.1764
2423.7575
2452.6738
2697.338
2843.2251
2810.9326
3099.8906
3218.0358
3605.7178
3569.2759
4153.596
4941.9218
5025.7348
5311.4552
5493.3591
5820.6641
6104.856
6438.9102
6830.7138
7243.625
7601.2287
8166.1471
8510.9176
9031.2046
9205.4536
9590.8045
9935.6225
10137.406
10677.638
10696.989
11761.437
10369.302
15135.489
3687.4435
960.52784
1719.1538
1646.308
2020.3334
2329.7908
2415.1776
2704.5491
2719.1337
2913.3818
2801.1919
2987.814
2702.1499
2890.591
2530.5235
2677.0347
2326.2072
2492.0769
2130.701
2330.6463
1966.9284
2107.044
1728.7737
1819.4379
1414.6097
1538.7109
1124.1596
1224.6709
941.76857
987.85183
835.53763
828.2578
816.71037
802.32303
785.18855
867.72568
808.26401
1236.3107
1095.6004
1198.0051
1094.6073
1204.5101
1155.4628
1270.0711
1283.7698
1329.5129
1324.5333
1364.5903
1363.0712
1382.197
1388.7189
1416.3152
1444.0177
1500.1865
1564.7784
1654.074
1751.591
1857.4902
1982.8112
2089.0637
2192.8683
2349.7766
2424.7517
2505.0617
2756.3816
2748.8298
2943.365
3082.896
3306.9214
3416.8381
3550.8255
3779.605
3935.3176
3538.898
3673.0991
3877.6777
4163.1208
4434.2579
4758.1379
5071.4145
5522.1864
5758.1361
6440.2686
6558.2095
7383.5463
7501.1712
8476.229
8577.7772
9674.1794
9564.8301
10887.69
10373.177
12048.74
10527.277
15468.455
2268.1797
-414.79335
742.32275
131.56871
1019.8207
939.51925
1541.0899
1466.0462
1901.5976
1818.9705
2039.3787
1909.4693
1983.7562
1871.9849
1785.1755
1790.9831
1642.5355
1690.2857
1518.2838
1644.8169
1384.9899
1562.6476
1206.9949
1336.9809
1028.93
1013.8225
760.4596
752.6882
537.86128
579.63249
460.13453
544.47732
531.19235
538.87579
606.87868
586.69466
562.56318
520.52321
478.42421
560.11787
503.44971
587.35065
617.83703
710.61936
800.06138
875.93252
1020.5608
1065.6464
1159.6264
1168.5207
1224.2831
1205.4527
1254.3084
1259.6053
1335.0486
1394.7106
1520.1092
1635.9332
1795.7337
1922.0578
2124.4975
2233.5305
2380.9771
2605.6837
2654.2931
2897.5213
3032.1373
3244.8746
3438.6848
3586.5712
4012.4251
3996.2085
4423.3351
4694.5434
5138.3381
5407.982
5709.5107
5946.735
6303.6421
6604.267
6973.1406
7417.8887
7759.3095
8277.0813
8652.7951
9105.1769
9455.3105
9827.8216
10186.794
10316.673
10833.937
10645.277
12071.545
10397.83
15855.492
2001.2219
80.402494
789.51356
797.27208
1194.9567
1502.8281
1700.9438
1889.2457
2044.2626
2162.5747
2162.795
2310.5631
2204.2614
2277.1266
2160.605
2195.166
2033.8733
2095.1583
1921.7259
1961.069
1704.5298
1742.2482
1473.0593
1644.3214
1199.2617
1397.2019
1014.9531
1120.356
838.74186
910.05088
715.82104
776.19543
639.03704
706.70145
691.20762
644.38925
754.35542
722.49456
764.48363
812.40532
775.03833
851.95404
882.86207
952.31249
952.64421
1056.7485
1060.6116
1129.3484
1138.3877
1180.9798
1170.8765
1192.8324
1190.7407
1202.7513
1228.6287
1265.8949
1331.9199
1401.9472
1497.8529
1618.8738
1721.5848
1837.2173
2007.9001
2068.3003
2248.4149
2349.907
2516.57
2652.9784
2806.2918
3028.5237
3101.7428
3349.1939
3581.1015
3555.5843
3568.9625
3726.4182
3966.2
4206.8502
4523.0066
4762.8795
5215.2641
5410.4466
6006.7697
6177.7151
6893.0674
7076.6327
7912.7301
8090.0576
9018.7116
9176.0197
10362.814
10352.232
11906.835
10660.346
15614.653
2924.4171
867.80632
1987.6509
1688.5455
2355.0088
2371.6806
2870.3601
2724.735
3097.5984
2889.2766
3065.0627
2820.7706
2790.6921
2551.6109
2416.9006
2225.6665
2090.4659
1957.6478
1843.8994
1824.5893
1738.5206
1880.6405
1665.9337
1561.2584
1307.7939
1274.633
916.03129
910.60675
617.57195
637.72289
468.87962
509.11683
447.54414
531.51018
392.42898
563.10692
382.99171
474.7078
349.43461
331.0998
311.68723
294.74243
361.29734
367.55845
524.17591
576.65652
725.38015
780.37419
892.7038
909.83474
971.2707
961.16944
991.00173
991.11142
1041.6648
1087.3267
1190.3457
1280.4309
1446.596
1559.9017
1720.3435
1887.837
1995.8963
2176.592
2305.498
2500.0291
2635.7346
2834.781
3073.5734
3255.3996
3567.3646
3808.9664
4100.6864
4395.6905
5071.713
5260.9148
5598.3062
5881.2912
6178.3511
6544.8878
6833.9055
7307.3652
7616.4109
8149.5812
8508.3958
9012.6026
9387.0001
9836.3731
10194.975
10539.179
10930.116
10908.074
12009.291
10724.349
15471.547
6069.3503
3923.3462
5217.1256
5009.6886
5730.7608
5754.017
6000.8377
5812.9426
5915.5518
5873.0915
5716.4302
5665.8374
5503.0495
5311.3523
5154.2354
4881.1015
4712.6699
4424.7573
4267.8218
3970.7507
3771.7417
3445.5748
3067.8927
2974.5092
2677.5558
2566.3725
2222.586
2207.9347
1847.7502
1865.6482
1568.3852
1587.9827
1430.5065
1358.3541
1405.8905
1286.496
1317.1732
1296.1228
1249.3526
1325.0904
1280.5454
1355.1394
1317.2037
1419.3907
1376.0929
1466.0132
1452.4172
1508.1652
1490.1215
1513.3402
1482.1397
1471.6365
1448.9136
1439.8214
1438.3767
1466.3842
1504.7027
1579.1952
1672.7117
1763.6693
1916.6325
2021.0247
2170.8633
2308.1251
2465.6465
2569.9499
2750.916
2921.6924
3066.5442
3239.2294
3405.0709
3566.7306
3711.2083
3877.8053
4076.0185
3978.0928
4409.1567
4492.5483
4935.5237
5115.3301
5626.3067
5844.6216
6434.3385
6666.3967
7324.6274
7538.7799
8290.8285
8458.5737
9291.4542
9453.3385
10321.332
10572.854
11662.027
11293.672
15387.896
6994.2691
6276.5458
7251.0601
7369.7109
8066.877
8009.5926
8073.0859
7867.8583
7901.3522
7603.9223
7311.9392
7030.3931
6665.4938
6220.3791
5962.155
5396.6433
5348.4061
4699.1915
4747.9855
4145.7193
4262.8646
3633.0376
3605.5826
3339.6322
2988.265
2607.7935
2276.9932
1900.1688
1545.409
1309.0693
1018.9363
967.25419
689.94339
828.02846
551.46719
661.54979
534.55848
534.04448
493.27079
405.84006
414.2489
312.36128
383.57405
338.95214
434.82109
448.30012
540.1703
534.23139
584.00345
537.80822
509.33841
422.83254
361.01738
269.82253
233.38549
209.94505
247.76775
324.15749
448.53354
610.84895
796.54501
998.40245
1196.5522
1439.7057
1609.8743
1879.9046
2092.704
2310.6514
2539.3925
2806.3063
3069.3753
3326.4723
3591.7408
3985.8732
4310.1014
4785.2017
4894.9918
5284.1748
5499.9481
5881.062
6217.3973
6653.2244
7070.7043
7588.4751
8049.4414
8638.4688
9097.1287
9705.1667
10155.289
10679.943
11210.501
11432.387
12242.425
11798.448
14378.387
16322.11
11138.335
13108.553
13199.195
13775.621
13378.213
13516.834
13080.011
12931.655
12534.563
12131.31
11667.366
11261.334
10591.008
10162.546
9579.3189
9077.7233
8524.418
8115.3759
7586.4089
7098.4856
6792.1236
6563.1105
6100.6761
5698.7114
5308.2024
4894.7291
4605.251
4259.2224
4048.6588
3832.1447
3619.5854
3549.4781
3401.3319
3361.7497
3329.0179
3177.4357
3170.9145
2957.6918
2950.3697
2717.5446
2713.9596
2508.3972
2511.8952
2374.2355
2379.8851
2315.4373
2318.5062
2289.6954
2283.1253
2256.2965
2246.6612
2232.6174
2237.7947
2263.8136
2318.325
2397.9403
2504.9742
2635.3383
2767.9713
2910.2064
3038.9379
3157.8819
3252.6545
3332.5382
3409.0368
3465.7323
3551.6076
3662.5875
3773.9465
3875.7551
3982.6635
4226.3553
4191.786
4421.8766
4557.5813
4711.1042
4980.5812
5247.5759
5542.2534
5913.6614
6228.4367
6637.334
6983.7199
7414.1863
7739.8894
8181.8325
8478.9188
8902.9739
9256.3848
9708.6507
10146.403
11183.444
11270.848
14366.965
25793.319
21266.765
21881.647
21008.823
20551.561
19787.544
19563.967
18572.573
18295.002
17414.284
16729.356
15994.662
14977.14
14193.766
13257.958
12298.639
11564.563
10574.794
10050.719
9052.3148
8650.3977
7729.589
7296.3338
6418.1286
6100.9666
5083.3808
4675.3905
3826.9168
3297.586
2779.7617
2268.2054
2046.8419
1651.6723
1618.8802
1362.5997
1309.7001
1230.2966
1127.8667
1117.7154
949.71239
963.64705
821.57014
820.01875
748.11791
737.28366
680.5072
655.90402
545.32427
452.48484
272.17111
91.860508
-136.8854
-343.20537
-546.40484
-683.33007
-763.09475
-759.70113
-669.72545
-511.74448
-283.45543
-25.597325
279.54117
548.73076
881.24965
1112.9138
1444.2315
1631.8211
1921.3773
2126.8889
2356.8717
2527.044
2866.9419
2872.7599
3266.0183
3332.5262
3665.5365
3784.8515
4048.3779
4258.1075
4631.1039
4964.386
5445.4755
5932.8706
6548.0869
7119.6636
7833.9903
8445.3949
9182.8794
9809.779
10484.684
11104.766
11627.813
12224.365
12238.88
13507.593
38533.273
30484.035
30103.777
27668.79
28216.727
27102.383
26811.997
26135.471
25661.335
24773.103
23979.981
22850.121
21936.055
20654.64
19552.844
18266.622
17232.649
15922.553
15263.335
13971.891
13447.79
12320.698
11607.459
10678.296
9927.699
9079.9605
8474.7578
7588.6512
7050.1397
6287.4083
5898.4862
5370.088
5109.9503
4924.513
4610.4619
4560.8753
4353.2704
4286.073
3997.3847
3927.873
3618.6272
3498.7478
3239.2028
3127.1881
2954.4411
2884.5831
2791.7973
2737.4313
2664.5392
2582.8255
2469.6363
2336.6738
2191.788
2044.1097
1925.1333
1845.4327
1823.832
1862.066
1967.5712
2116.441
2302.3309
2506.3349
2706.6208
2899.0899
3062.9267
3250.4634
3382.6558
3589.4362
3676.2073
3818.7468
4065.1761
4117.2183
4427.5847
4518.9576
4745.5356
4881.6435
5116.0324
5292.7242
5539.7666
5795.1577
6088.352
6431.3483
6829.6363
7220.9803
7702.9158
8113.8331
8610.9041
8991.9808
9423.2241
9770.2276
10081.577
10442.356
10801.842
11396.621
12627.881
47432.861
38978.337
36456.335
34065.419
34816.647
33174.291
33107.559
32147.226
31086.683
29955.456
28178.497
26932.261
25270.236
23692.909
22477.554
20803.483
19973.253
18260.821
17650.742
15774.544
15332.408
13056.666
12598.188
10408.974
9810.2022
8378.5164
7814.3416
7113.1637
6829.4291
6729.3126
6547.4392
6626.8516
6531.3956
6501.8551
6193.0209
6118.9494
5844.6437
5495.5765
5258.3291
4856.0079
4620.0581
4299.1005
4044.2694
3728.9905
3400.4205
2985.6583
2551.6577
2048.5384
1582.1352
1144.3654
816.83429
631.68375
622.48072
776.07486
1102.9396
1537.8306
2030.0732
2540.2691
2986.0092
3349.4935
3595.459
3741.0052
3756.6283
3729.5465
3614.684
3515.1056
3270.3333
3200.4566
2921.34
3045.6861
2712.2917
2822.4849
2573.201
2713.3879
2673.4729
2939.9559
3160.2998
3588.4329
4109.8495
4732.0475
5370.7715
6140.8898
6754.5702
7510.527
8032.4071
8670.5747
9085.6305
9610.5417
10010.089
10472.718
10951.559
11532.189
11954.728
12751.749
12870.213
27369.272
28189.027
22040.202
21419.775
20325.57
20577.019
19941.85
20242.144
20219.947
21020.971
20349.985
20414.787
23019.753
24501.683
30447.164
20398.195
17778.485
14549.918
15060.684
13431.725
13592.529
12862.216
13222.996
13622.027
13326.329
13574.639
14316.096
15167.711
17734.099
21267.028
12503.376
9914.2145
6213.6495
6087.6238
5061.752
4821.7941
4809.9397
4475.6464
4586.392
4752.8557
5116.826
5374.2568
6407.3946
9002.1327
12391.889
8158.7825
6621.1803
4950.931
4108.6619
3956.4607
3612.3038
3595.9153
3411.0728
3687.4554
3669.6919
4013.0325
4185.6174
5384.6168
6887.45
8202.5596
4467.5422
3293.4711
1766.6418
1551.2837
1065.6544
1044.8616
907.9762
903.01825
854.45179
968.00717
1098.7731
1434.7788
2076.7654
2903.622
4939.9926
3297.2384
2030.9045
1240.2588
1102.9261
873.77469
845.60254
740.15863
771.98293
790.32262
813.27124
943.33033
1017.2932
1331.7764
1972.1608
3290.8199
1415.9549
711.96942
310.13999
88.347549
24.626877
-78.364777
-86.34115
-136.89374
-128.59317
-95.132548
-44.927341
120.44689
313.35488
856.23404
1793.4607
1449.9986
791.35326
413.71773
327.33852
216.23756
203.09873
163.66043
176.8164
184.91864
205.15044
243.04001
304.43428
457.0023
834.28306
1692.2213
1807.3586
1115.9902
562.89792
427.07334
278.4715
220.53982
194.92854
213.54082
197.92131
271.38468
336.09283
489.01703
762.1113
1408.019
2090.3818
4023.029
2981.1934
1972.2612
1720.8422
1439.0576
1387.4158
1329.973
1318.6583
1335.2966
1317.9574
1593.7284
1542.9334
2197.2148
3220.3499
4424.0443
5929.8965
4711.131
3141.0995
2891.8817
2377.9074
2376.0978
2214.384
2320.151
2278.6398
2393.5091
2619.7188
3048.219
3887.9429
5395.325
6980.3804
11212.66
7877.6792
6293.604
5433.4437
4984.7847
4650.7494
4625.3679
4535.6174
4648.7626
4737.6453
5190.6486
5159.9904
6815.5023
8816.7002
11738.392
16430.871
13508.284
10838.052
9888.8772
9093.8193
9048.2924
8683.9836
9041.7222
9072.8389
8852.9497
9495.7262
9730.4812
11297.532
14401.341
17372.158
27869.392
22097.693
19473.704
18106.871
17384.906
17024.013
17604.564
17817.14
17694.362
17392.265
17621.964
18125.159
19663.67
22527.436
29249.869
37621.574
38606.471
31187.683
30574.088
29246.9
27701.025
29810.473
31241.688
29055.456
30502.782
29546.284
30274.478
32136.284
35807.973
43210.724
91612.025
80857.728
81599.677
83692.841
85607.796
84989.977
88775.299
91905.667
94079.759
93690.592
91119.677
87011.206
86668.514
87598.947
86158.33
65022.197
54650.913
55499.38
54044.844
50897.239
54625.088
53185.551
53499.889
57419.058
53385.42
54808.48
52775.69
57237.335
61454.203
68230.758
45736.176
48512.095
45719.144
44355.37
47226.973
41400.589
41188.424
41546.318
38087.253
43714.83
42909.453
49039.14
48208.201
47194.9
49632.262
43523.995
48620.262
47936.202
44867.09
44294.63
44461.155
43516.601
44252.768
44501.932
43742.128
45948.218
46589.641
48218.9
49450.403
46230.854
45106.184
46384.603
45007.532
48095.318
45808.833
45690.649
46344.467
45566.917
46398.957
48842.648
47119.314
48718.865
46996.195
46862.303
46327.188
40645.674
43925.323
44068.575
44507.554
44458.526
44361.847
43730.711
43673.596
44165.866
43205.617
44958.785
44559.504
44774.35
44841.761
42256.607
40741.421
42799.803
43323.117
43389.733
43639.175
44000.758
44322.292
44224.788
44579.369
44973.291
44183.503
44724.393
43873.612
42713.225
42918.047
39556.962
40174.153
41311.9
42245.681
42677.977
42388.441
42456.782
42789.933
42266.948
42970.535
42749.705
42534.555
42085.394
40669.146
40840.514
37794.4
39482.194
39963.867
40706.978
40173.225
40990.71
40820.306
41082.91
41252.117
40911.762
40861.747
40324.908
40147.29
39681.317
39030.194
37344.015
37003.971
38072.974
38234.556
38877.182
38716.903
39028.804
38971.184
38282.015
39504.189
38430.44
39300.752
38346.629
38038.341
38609.015
35379.215
36178.931
36482.994
37180.825
36979.849
37572.861
37389.419
37548.496
38040.325
37220.307
38127.586
37295.837
37412.048
37157.167
37269.799
34903.397
33932.311
34584.855
34681.152
35018.075
35006.268
35108.018
34971.153
34607.126
35047.89
34425.477
34704.827
34332.793
34127.34
35390.947
32763.79
32719.781
32528.319
33222.076
32965.619
33246.949
33331.433
33207.921
33750.582
33563.338
33835.809
33709.773
33712.937
33889.144
34063.892
31263.14
30504.605
31154.214
30587.099
30992.443
31230.331
31204.707
30740.733
30500.79
30496.84
30094.716
30336.437
30098.05
29828.02
31637.847
29397.112
28437.305
28659.748
29253.953
29334.3
28952.443
28883.51
29065.528
29403.059
29465.032
29973.45
29876.18
29979.133
30331.304
30670.713
27251.477
26817.63
27229.997
26924.479
26453.3
27135.836
27122.483
26688.547
26414.166
26324.062
25707.635
25964.139
25945.669
25706.423
27269.706
25326.036
24293.985
24539.644
24643.302
25244.458
24916.373
24865.287
24632.974
25248.712
25102.975
25784.895
25738.018
25645.38
25545.557
27171.625
23285.766
23104.429
23031.909
23107.914
22592.815
23094.25
22701
23162.165
22764.597
22840.421
22281.59
22163.015
22090.767
22213.939
22630.797
21988.861
21148.728
21752.702
21294.274
21666.549
21123.181
21936.121
21071.135
21469.898
21357.556
21315.344
21731.568
22021.971
21893.664
23580.835
19925.089
19627.997
19430.695
19817.193
19570.336
19968.233
19740.62
19852.144
19823.314
19786.374
20184.836
19896.584
19559.7
19384.569
20022.6
19295.438
18555.655
19080.907
18537.72
18705.462
18316.371
18834.033
18494.418
18661.516
18205.125
18344.087
18366.452
19392.959
18821.094
20219.968
17642.591
17565.498
17236.494
17670.349
17187.133
17893.139
17150.877
17589.052
16900.302
18207.255
17603.493
17921.072
17088.69
16625.072
19159.465
17631.779
16133.313
16847.851
16158.572
16552.422
16307.024
16461.651
16021.992
16564.832
15982.199
15714.633
15801.378
16120.403
16132.562
18170.373
15895.695
15906.606
15358.126
15691.045
15177.709
15002.861
14918.077
14962.207
15016.3
14991.853
15242.462
15627.075
15922.746
15200.483
18369.149
16224.561
14373.825
14346.299
13965.815
14449.624
13960.959
14572.602
14053.393
14211.678
13976.617
14320.181
14317.535
13917.119
13829.267
16741.37
14208.183
13343.727
13459.283
13384.107
13087.168
13410.491
12816.257
12885.948
12841.555
12820.942
12826.188
13173.52
13975.279
13924.012
15776.975
13710.097
12403.848
12599.59
12045.075
12573.434
11859.146
12099.681
11954.837
11942.475
11964.718
12039.115
11090.253
11881.65
10952.951
14838.037
11974.144
10919.332
10626.264
11266.824
10309.175
10413.766
10486.612
10276.009
10601.747
10389.085
10767.919
11206.04
10956.81
11305.97
12988.044
11015.767
10039.2
9675.6917
9363.746
9509.3033
9516.7375
9426.0319
9339.0344
9293.6279
9313.3162
9292.7508
9672.4771
9423.5985
8769.418
12290.635
9180.4726
8215.6365
8515.0962
8460.0567
8353.8839
8285.2497
8168.8895
8128.2055
7950.1876
7910.4377
7884.0479
7809.2478
8899.3817
8119.2779
9902.2421
8581.9163
7927.3743
8127.658
7620.2452
7796.2319
6886.8486
7452.8326
7045.9367
7966.1398
7280.892
7329.9571
7194.0063
7068.1207
6856.0201
8446.3405
7538.7091
6690.7151
6682.6643
6583.6987
6593.9857
6592.6798
6580.0508
6542.7041
6315.6616
6281.5112
6286.4219
6383.3114
6406.0597
6395.7343
7551.1652
6436.102
5813.6472
6100.1836
5981.6525
6109.4065
5867.5512
6087.8064
5706.7486
5993.8595
5727.2805
6021.7345
5742.7869
5899.5703
5790.7392
6333.8389
5746.5247
5377.469
5596.9988
5514.9691
5567.7746
5470.2606
5490.3123
5476.2872
5448.9702
5467.9564
5353.3866
5451.7789
5407.9911
5332.6503
5687.3402
5261.1676
5001.209
5285.5737
5466.2588
5247.5731
5191.2018
5318.8893
5190.1717
5288.6345
5230.2289
5360.6663
5285.0349
5329.5754
5416.6023
5627.9203
4923.9588
4897.3633
5101.0735
4613.1963
5013.9788
4875.3329
5003.4135
4827.9665
5149.7945
4561.3466
5086.5581
4839.8881
5076.9635
4845.8911
5394.5612
4511.6499
4522.026
4971.9471
4801.2864
5026.2192
4649.4004
4963.6069
4654.0146
4825.4979
5156.1491
4846.3765
4981.6112
4752.1606
4995.1744
5004.8013
4725.8005
5017.205
4979.5595
5061.7844
4818.3317
4907.1524
4785.4949
4794.0403
4822.5661
4574.2819
4807.7907
4590.9401
4927.4937
4770.7301
4743.5214
5017.9572
4585.9499
4872.3293
4579.5833
4888.5644
4473.5748
4765.6764
4461.2112
4581.4272
4549.5219
4492.3347
4694.9786
4548.1652
4530.9955
4824.6624
4616.6856
4576.9209
4559.5307
4651.8738
4457.2607
4418.2311
4393.2425
4241.0339
4401.6473
4136.1091
4392.1669
4184.4771
4255.485
4310.6382
4480.8865
4628.3955
4319.9147
4480.13
4201.2312
4357.1516
4030.5576
4176.4799
3998.3105
4012.3663
3990.0228
3950.203
3964.2608
3971.2247
3920.0662
4218.9716
4272.4186
4145.9498
4003.4301
4034.287
3950.6806
3768.8547
3868.6188
3594.6757
3767.9065
3548.59
3618.5825
3628.8386
3521.9146
3558.3586
3978.1948
4145.6648
3797.3652
3855.5656
3663.7634
3704.9201
3463.7379
3536.9955
3366.404
3417.9449
3281.0484
3337.0983
3288.7252
3209.174
3234.6487
3761.6715
3816.3288
3638.1519
3491.972
3432.2008
3413.5449
3178.5866
3297.1149
3061.2223
3139.5333
3025.8725
2993.3961
3039.3335
2919.7682
2920.4487
3706.2165
3791.7841
3412.9793
3382.3195
3256.9735
3251.3218
3023.8032
3130.9309
2904.7013
3007.4349
2838.4828
2868.196
2889.8881
2776.725
2752.1605
3829.2976
3706.3194
3358.0283
3258.073
3152.8575
3120.3959
2910.5045
2999.1979
2812.6676
2844.1564
2770.1801
2733.9636
2801.6256
2730.2047
2626.057
4141.1826
3876.4979
3351.8438
3285.6022
3146.2377
3149.6736
2901.1282
3034.8811
2784.6417
2885.8819
2767.2308
2744.7585
2839.2372
2795.3868
2616.4084
4587.0165
4062.7463
3418.9617
3333.1
3213.9333
3130.512
2910.3547
2978.1257
2801.0184
2842.7792
2774.6641
2747.9275
2870.6674
2897.0169
2626.472
5116.5501
4333.2758
3495.6493
3441.2598
3234.5074
3211.6259
2945.3591
3084.9097
2848.751
2919.6457
2841.2857
2815.4801
2943.5414
3018.4293
2653.0687
5585.3811
4552.487
3559.9441
3454.6497
3298.7143
3195.6546
2942.7168
2999.3261
2794.3329
2839.0517
2786.0334
2765.623
2905.18
3054.1757
2603.4399
5923.4089
4686.9282
3496.8436
3455.7094
3201.6513
3131.5099
2846.1949
2971.0742
2750.1183
2808.0863
2740.1934
2717.4629
2842.1736
3010.8254
2498.2474
6009.6579
4624.1938
3373.4757
3273.8795
3057.1444
2962.2169
2703.9421
2759.1707
2533.5907
2566.5374
2505.1217
2493.6318
2602.8554
2805.1539
2267.7941
5818.8277
4409.1966
3056.6892
3027.8712
2772.0501
2699.1226
2402.9298
2506.2686
2299.1509
2352.0665
2281.4229
2263.0682
2339.1975
2520.7059
1983.7454
5334.4803
3954.0096
2682.4863
2654.7727
2422.5576
2344.0224
2103.1255
2186.5771
1967.9589
1990.875
1911.0958