/*--------------------------------*- C++ -*----------------------------------*\
  =========                 |
  \\      /  F ield         | OpenFOAM: The Open Source CFD Toolbox
   \\    /   O peration     | Website:  https://openfoam.org
    \\  /    A nd           | Version:  6
     \\/     M anipulation  |
\*---------------------------------------------------------------------------*/
FoamFile
{
    version     2.0;
    format      ascii;
    class       pointScalarField;
    location    "0.31";
    object      E;
}
// * * * * * * * * * * * * * * * * * * * * * * * * * * * * * * * * * * * * * //

dimensions      [1 -1 -2 0 0 0 0];

internalField   nonuniform List<scalar> 
3969
(
38922.238
41469.713
1464.8458
1283.4568
41594.873
42912.842
1397.7343
1250.679
18926.359
7362.3393
2420.1676
2156.6347
6236.5327
15721.686
34113.769
2504.5646
1782.5601
1614.8865
1448.1509
1199.6307
1339.8825
1873.4062
38141.712
31436.156
31356.658
31078.789
30074.295
28976.063
27236.559
25676.185
23869.484
22181.979
20665.598
19148.747
17631.652
16182.293
14748.088
13282.042
11997.818
10705.508
9564.1484
8455.1008
7549.2106
6775.4098
6242.6849
5890.8538
5605.6154
5482.0555
5192.1707
5020.5756
4816.1179
4555.9539
4298.4504
4041.9125
3771.0323
3581.2869
3422.1019
3430.8274
3348.2478
3309.3445
3225.7963
3022.8038
2995.5739
2625.9155
2822.572
2263.827
2754.1216
1964.5279
2250.2881
39077.418
28661.529
32612.794
31148.336
30995.262
29272.241
28156.449
26386.401
24984.732
23183.852
21585.583
19982.246
18411.733
16970.118
15281.014
13859.606
12414.018
10966.649
9859.9311
8644.8419
7834.5362
7169.5022
6461.9885
6088.0582
5751.4741
5696.2772
5151.8969
5198.7492
4923.7621
4603.8444
4456.8246
4068.9255
3966.1683
3754.1864
3722.2735
3786.1563
3791.7625
3734.0101
3821.6175
3743.5289
3787.1015
3494.7102
3406.3612
3020.3378
2957.1444
2592.9619
2405.8827
21563.305
8952.4719
2897.0304
3431.8352
5424.1211
13415.023
28284.677
58212.596
39450.194
30295.089
38389.687
32480.582
33221.892
30981.065
28421.99
27290.364
24814.275
24410.388
23035.143
22206.172
20316.755
18662.996
17117.055
15152.961
13813.65
12224.507
11004.295
9900.1177
9064.6273
8415.1688
7884.2759
7531.9239
7137.6562
6103.406
5510.9817
5189.9202
4732.2341
4402.6929
4230.7937
3996.9312
3887.5272
3600.6409
3052.5056
3927.7069
3382.5148
3032.8479
2818.6914
2493.5326
2328.6305
2052.5186
1936.8182
1849.5846
1622.4121
1934.1549
2323.4045
1051.8105
2120.0767
836.7665
1556.0781
1048.8635
2529.2168
2653.92
1982.469
2535.9415
2502.9427
2528.505
2645.2437
2782.3173
2926.9411
3128.6357
3408.5005
3710.6559
2958.096
3428.4482
3450.9873
3540.5646
3647.0409
3806.612
4082.745
4341.2122
4711.9625
5000.0418
5372.6196
5676.8857
5982.935
6362.2268
6807.1434
7438.4821
8219.0405
9270.128
10427.042
11865.999
13495.774
15159.751
16097.478
18293.321
19956.569
22217.759
23638.51
25263.363
26943.263
29222.917
30420.288
32927.797
32959.486
32688.298
33811.999
44263.276
26555.545
27780.183
27571.294
27753.624
27804.186
27640.666
29682.41
27182.35
28652.271
31248.071
32351.665
31922.334
32839.772
27703.894
1384.2543
1560.3487
1504.4385
1535.38
1493.0149
1591.1628
1501.3782
1543.8813
1531.128
1523.7202
1576.2719
1554.6726
1625.9697
1629.7253
23579.781
20000.777
20350.058
19901.861
19859.881
19089.603
18288.405
17288.629
16271.88
15379.902
14378.1
13313.76
12371.383
11332.329
10438.032
9737.3977
9072.5884
8449.3674
7919.0358
7423.4996
7001.686
6633.1045
6340.3708
6013.1416
5684.8981
5449.0661
5124.6052
5011.7397
4964.9211
4917.186
4893.9484
4795.3848
4617.1493
4441.8649
4267.8449
4053.8383
3915.9897
3676.719
3614.3937
3402.5832
3355.9629
3173.9429
3144.0559
2638.6817
2853.9286
1917.9628
2825.6271
10167.926
8955.9289
9811.3748
9560.4999
9495.461
9202.2415
8630.745
8339.6594
7770.8359
7382.8354
6897.4621
6495.5429
6167.9326
5906.1394
5670.2035
5348.1478
5086.4118
4789.3699
4543.5874
4311.8119
4157.8164
4060.9951
3943.1803
3949.5714
3989.5416
3971.2476
3923.4337
3980.5714
3954.6127
3954.7792
3947.9918
3855.44
3758.6964
3674.777
3569.6314
3517.9218
3509.6284
3356.5431
3370.3063
3140.1707
3244.5174
2819.3915
3074.1101
2401.717
3035.5236
1755.8304
3361.8153
3546.8516
1977.8475
3052.6104
2562.0946
2943.419
2811.1038
2858.2726
2719.9202
2587.9313
2625.42
2550.0548
2425.2262
2374.635
2250.6306
2187.924
2194.3812
2209.9926
2184.9458
2191.0813
2072.2975
1922.0638
1750.8376
1728.8122
1786.8705
1757.8429
1816.7713
2071.355
2171.6779
2363.8614
2542.1244
2648.6316
2747.2019
2807.1743
2873.2199
2990.4735
3129.3177
3322.436
3583.6252
3882.5369
3941.2755
3911.3751
3803.5713
3687.8908
3119.5144
3193.9759
1863.5647
3693.4774
2156.216
486.93437
1006.3177
1019.4779
1226.3409
1317.2459
1292.8256
1500.1057
1398.8709
1410.7445
1418.0554
1457.3222
1546.3254
1565.499
1628.588
1651.3649
1701.9815
1776.12
1757.327
1782.4758
1972.0692
2218.2826
2474.7242
2672.6456
2908.4208
3174.3457
3251.5608
3388.3509
3536.8798
3622.5135
3696.7146
3756.735
3751.2186
3801.7982
3791.1826
3802.8116
3858.1121
3729.0392
3503.488
3174.1625
3217.6414
2763.4982
2777.7243
2180.0368
2619.88
1785.3309
3721.4847
5919.0354
3504.1696
3770.5482
3390.3188
3372.1648
3409.1221
3127.0802
3093.4091
2872.4394
2872.7629
2844.9825
2679.0812
2497.9301
2338.9956
2235.5815
2057.2133
1994.5245
1858.1679
1787.2356
1671.6675
1872.7703
1541.0399
1436.9305
1512.0064
1569.0916
1445.4083
1525.9238
1614.6515
1710.217
1788.9534
1890.4058
1999.7174
2076.0451
2211.7224
2323.0051
2523.6966
2693.174
2873.2719
2874.4842
3271.6433
3167.6733
3236.2453
3139.4976
3113.0322
3099.806
2419.6841
3676.2671
14612.048
12178.207
12216.237
12056.456
12309.821
12050.256
11787.945
11335.239
10829.918
10305.437
9789.1601
9340.8824
8646.4091
8213.2049
7642.0385
7231.2155
6753.9935
6371.7226
5993.337
5599.1493
5308.457
5212.7292
4726.4761
4531.95
4439.7759
4497.8074
4526.9794
4558.6091
4502.2058
4513.9577
4466.4478
4396.4757
4326.3313
4288.6256
4204.9075
4248.9082
4215.2382
4101.3334
4187.8635
3775.4023
3563.3155
3170.0006
2939.0469
2530.4477
2267.4507
2074.2128
3022.3173
23044.218
21000.061
20599.135
21341.546
21124.27
20837.402
19894.461
19161.065
18187.673
17114.528
16338.135
15180.155
14023.85
12825.684
11901.187
10969.798
10216.876
9498.0327
8836.8479
8257.0561
7791.8002
6952.988
6836.7729
5892.0103
5475.4349
5000.9884
4664.9748
4470.6417
4410.6526
4371.5558
4276.799
4195.3743
3972.3027
3767.5576
3476.0824
3264.6815
2981.6264
3011.7935
2758.5455
2838.0887
2865.2661
2987.3418
2960.3539
2963.7379
2806.3712
2905.4905
2824.1232
11431.98
12236.905
10565.646
10611.044
10853.103
11299.127
14189.568
4504.4645
4303.7356
3705.4851
3767.8172
3910.5895
4284.6504
5712.1479
1280.9085
768.85114
343.57183
538.88479
426.65795
729.15952
1506.357
792.74999
295.4302
74.785213
47.04799
195.41043
662.97812
1618.8165
2371.8782
1495.4168
1078.1496
992.92069
1184.4973
1708.7459
2783.227
8289.5258
6134.5778
5308.7918
5076.4118
5282.0882
6191.65
8860.625
15839.28
15871.034
13281.982
13667.243
13338.053
14456.322
18822.68
45185.378
39478.463
42506.537
45102.401
44895.587
47704.164
46377.157
40277.203
41378.72
38273.838
37157.53
40477.721
41251.858
42085.173
35286.018
36036.173
36601.461
36560.607
36254.926
36362.79
37318.794
35670.503
39164.628
38822.253
39217.729
39347.674
39157.757
36431.39
33878.119
34496.08
35961.324
35980.388
35743.967
34425.978
34100.541
32767.728
33384.978
34211.806
34584.434
34216.872
33281.97
32302.471
30543.302
30981.354
32162.688
32092.737
31858.973
31844.547
31100.225
29321.568
29022.131
29582.014
29479.54
29267.918
28678.997
28254.244
27222.502
27031.84
27702.78
27620.873
27629.497
27179.395
27209.112
25839.632
25301.414
25316.111
25646.343
25154.349
24808.294
24997.449
24028.632
23712.473
24292.474
23672.223
23790.06
23353.282
23716.814
22554.796
22033.621
21958.884
22147.072
22024.066
21002.771
22417.636
21025.63
20236.554
20837.712
20194.864
20225.863
19966.449
21052.021
19057.149
18620.615
18960.77
18512.625
19113.797
17883.324
19568.273
17678.729
16903.903
17303.66
16937.68
16905.076
16467.748
17796.524
15811.326
14919.088
15807.383
14973.815
15668.688
14828.139
16200.886
14117.36
13596.667
14110.168
13475.546
13944.19
13099.287
14351.673
12637.97
11914.223
12775.202
12000.245
12586.998
11823.491
12906.681
11200.645
10715.489
11530.489
10599.49
11269.978
10414
11504.151
10019.898
9559.6651
10371.885
9552.115
10179.867
9433.3742
10383.747
9033.7533
8593.8825
9462.4602
8500.4891
9167.3408
8374.9172
9384.5512
8163.2045
7846.1748
8621.9356
7766.0511
8386.08
7679.5777
8696.6688
7568.4807
7288.8253
7982.5473
7192.0259
7785.9989
7174.5255
8301.9346
7092.2087
6996.2878
7553.7494
6896.2859
7377.9752
6771.5847
7975.294
6819.2774
6923.1174
6974.0633
6849.004
7003.3622
6608.0876
7945.6149
6742.4698
6731.0111
6691.372
6735.3293
6704.6823
6443.1663
7719.4261
6779.7156
6458.5601
6594.841
6371.1659
7044.0757
6154.1447
7291.3467
6827.2015
6034.9598
6512.1157
5900.4386
6371.0129
5500.8372
6779.3252
6123.3803
5827.1182
5833.1443
5700.376
5894.3332
5450.6289
6233.0512
5902.0162
5158.714
5732.5714
5227.3404
5647.6904
5003.1491
5749.1115
5259.1262
5047.6082
5296.5336
4998.8939
5257.3959
4774.5143
5321.6164
5077.9524
4695.4752
5111.8156
4756.2847
5052.5711
4616.6069
5084.7982
4742.5569
4577.5646
4897.7593
4607.0867
4833.0693
4449.2799
4890.5703
4641.5869
4464.359
4745.8044
4447.9578
4621.2734
4336.5618
4802.2931
4504.2088
4355.3547
4529.2838
4319.1912
4417.4585
4185.0783
4654.6156
4474.0458
4287.9536
4440.5343
4180.8286
4258.7691
4661.6368
4678.1785
4591.7274
4144.2007
4239.1629
4067.5623
4357.6707
3471.4295
4592.9871
4167.2714
3752.1312
3837.1573
3720.95
3710.6356
3964.3142
4356.2215
4213.9154
3862.8433
3931.9026
3641.4172
3765.745
3453.0613
4363.4205
4121.252
3595.0603
3596.089
3446.9649
3408.7343
3296.7964
4013.2555
3748.2842
3274.1456
3350.3414
3088.5562
3175.2404
2993.0803
3530.9396
3426.0666
2962.9384
2991.8273
2880.7653
2852.1233
2755.085
3178.1071
3007.5862
2695.9557
2821.051
2657.9209
2618.5399
2602.8827
2830.3314
2656.7432
2528.4182
2530.4176
2459.3686
2392.5417
2458.1224
2550.615
2460.9909
2398.1582
2419.1146
2374.0353
2316.2085
2401.1833
2402.7475
2196.8493
2243.4392
2182.5702
2182.111
2122.3119
2204.0094
2190.5887
2125.1668
2195.3276
2123.0509
2113.0518
2149.3335
2111.9878
2201.4184
2594.5101
2640.0914
2601.1723
2663.6806
2641.2391
2620.9495
2635.7404
302.2374
1117.4735
970.43615
992.97949
902.81878
1122.8594
571.24189
1350.7803
1675.3091
1765.738
1819.7616
1774.0466
1918.2165
1233.8091
610.51794
973.26671
876.37455
953.07987
784.70102
1084.2578
272.13364
1025.8873
1800.3853
1789.2628
1688.268
1885.2447
1760.6417
1166.9117
1325.8203
1521.0741
1346.64
1487.0206
1221.6388
1543.4547
848.2158
1919.4782
2188.8242
2142.9805
2165.2026
2236.6158
2181.6438
2086.0109
36538.387
33316.075
31826.588
31081.038
31768.744
32729.408
33704.141
35222.61
32967.625
32989.825
32669.518
33194.286
33846.452
34918.958
34530.087
34842.648
34514.676
34272.569
34817.008
34495.794
34561.537
33043.673
33540.991
33714.158
33899.659
33760.601
33310.232
33627.429
31917.38
32006.235
32367.154
32282.218
32315.933
31766.749
31648.004
29878.862
30080.124
30157.776
30170.741
30284.074
29871.717
30228.852
28413.942
28206.457
28237.453
28071.161
28256.732
28185.288
28429.455
26362.665
26205.074
26212.186
26273.54
26129.262
26074.12
26515.968
24763.367
24490.306
24536.219
24361.77
24586.324
24118.354
25100.485
22841.16
22574.305
22581.736
22388.723
22488.361
22274.675
23038.742
21252.831
21036.765
21204.387
20845.535
21171.201
20740.692
21546.312
19902.737
19495.206
19303.321
19365.866
19235.516
19211.162
19719.85
18231.308
17878.923
18010.171
17645.799
17781.099
17447.88
18661.138
16946.083
16463.203
16279.501
16169.789
16370.259
16565.154
16938.628
15429.474
14841.829
14945.901
14781.791
15013.499
14084.139
15439.357
13711.553
13404.853
13518.294
13052.042
13328.349
13108.308
13788.465
12321.324
12078.868
12004.144
11887.969
11951.545
11586.639
12344.489
11053.901
10700.735
10839.531
10501.323
10648.279
10319.491
10945.359
9771.1414
9602.727
9639.8174
9381.4703
9543.9557
9151.3133
9752.9482
8745.3483
8570.3646
8640.5846
8403.3496
8512.0122
8152.9579
8711.4309
7792.9473
7672.8132
7783.8884
7495.6859
7638.7394
7290.9957
7825.2735
7011.1431
6921.6113
7012.3091
6766.315
6924.9352
6556.8409
7123.7031
6476.2626
6302.4879
6439.7814
6202.2687
6330.4609
5995.5601
6699.4757
6116.8813
5947.7811
6083.717
5824.3697
5981.8916
5648.3502
6449.3116
6034.8847
5747.7227
5859.246
5613.9273
5765.8306
5404.7265
6381.2711
6072.1552
5549.9269
5815.9562
5470.9462
5713.1932
5301.6865
6410.235
5951.1906
5443.3441
5664.9957
5322.7525
5596.9634
5093.9786
6235.0049
5850.262
5232.336
5469.6427
5145.8076
5482.8319
4944.1492
6038.5919
5497.0131
4896.2461
5246.423
4846.2972
5238.2518
4606.4354
5629.6436
5129.7774
4675.5935
4897.0906
4553.8689
4953.9432
4348.3118
5251.4325
4810.9664
4314.796
4610.5715
4276.426
4690.297
4064.9224
4864.0456
4487.8649
4111.25
4363.3988
4041.8219
4425.246
3845.9887
4574.2732
4281.6782
3921.7836
4155.601
3862.7281
4223.3341
3673.4191
4347.5657
4111.8244
3782.2893
3971.664
3719.6213
4001.7893
3575.9835
4262.8993
4018.4431
3667.3836
3843.0488
3642.6128
3823.7547
3534.2702
4092.7995
3953.2944
3623.3788
3780.41
3485.2478
3727.7211
3753.4059
4059.5452
4087.882
3621.5038
3548.8899
3564.1221
3780.1113
2920.0056
4323.337
3714.3555
3394.1006
3509.2603
3261.8916
3530.6232
3599.7909
4021.2286
3891.2796
3533.1715
3478.1334
3409.2546
3531.306
3263.3025
4087.8705
3776.5455
3298.4276
3280.2044
3313.7207
3279.3102
3218.1278
3813.4978
3529.5144
3113.6943
3148.9078
3078.3137
3133.8075
3025.2408
3472.8498
3078.232
2776.5117
2733.0838
2754.8914
2759.0105
2741.7034
3127.4737
3007.9601
2795.9563
2722.8692
2798.5497
2701.0945
2731.9355
2819.3569
2377.4455
2111.612
2138.4348
2128.7288
2045.4022
2177.4768
2420.1805
2650.9792
2668.8549
2574.326
2611.6762
2507.875
2754.3582
2631.164
1863.6213
1676.7066
1696.9508
1631.5804
1676.3982
1727.0804
1702.9507
2505.2262
2495.4996
2429.1078
2443.1729
2430.8779
2445.8531
2406.2688
39776.331
29037.853
26415.294
25878.757
26264.294
24556.496
24121.115
22522.463
21543.324
20318.416
19033.643
17590.235
16193.265
14904.151
13518.756
12862.838
11686.589
10810.11
10122.946
9510.5764
9001.3151
8520.4275
7991.7545
7374.38
6743.6656
6090.4771
5634.669
5234.3947
5044.0415
4930.7375
4861.891
4782.4204
4661.7884
4436.4853
4273.549
3662.9556
3307.1682
3207.2462
2861.8846
2629.8793
2638.7121
2647.7979
2702.9835
2745.5152
2803.4101
2484.7564
3227.493
17202.874
17482.542
13692.413
14080.371
13863.541
12742.103
12658.344
11912.539
11510.97
10613.463
10202.941
9301.8315
8919.2327
8270.3775
7721.3074
7417.8213
6834.9006
6409.9966
6119.1644
5736.4496
5445.5305
5168.4068
4889.8107
4730.9198
4602.0042
4577.0267
4748.226
4915.0318
5004.4444
5026.6403
5014.2728
4990.593
4900.1046
4897.498
4808.9058
4651.5247
4707.4781
4769.5853
4792.8684
4668.2944
4604.896
4243.1911
3980.9421
3312.9865
3253.9388
1627.7264
3982.5328
5646.7123
6192.8545
4839.9843
5473.5965
4977.7257
3713.2092
4702.5737
3590.2512
3953.0082
3503.5496
3426.9506
3373.2966
2990.5513
3201.4411
3037.3924
2884.9736
2730.7633
2521.6324
2443.6382
2211.9128
2155.8646
2030.7855
2023.7683
1937.155
2026.9648
2004.9185
2204.93
2201.7526
2296.8645
2329.171
2350.3975
2324.2493
2386.0035
2433.418
2479.4589
2649.432
2740.6579
2892.5557
2969.4859
3033.503
2963.6917
2940.26
2681.3826
2687.0024
2556.3764
2194.7236
4183.4823
1919.7374
1850.1329
640.73427
2506.5863
942.25365
1867.1944
716.60079
997.52973
1343.84
787.67147
1411.26
829.55779
1318.5606
1493.5379
1678.5117
1885.4775
1845.2609
1932.0153
1965.8346
1983.2134
1997.1566
2075.175
2085.9516
2269.5167
2401.8914
2671.2286
2921.8209
3142.4327
3360.8942
3519.5219
3638.3323
3765.5147
3912.2213
3990.2254
4192.6052
4344.0041
4463.4031
4591.8097
4675.3579
4563.0006
4531.9767
4115.4996
3987.5312
3292.7058
3440.3856
1868.7416
4421.2288
4964.3762
1523.7843
2311.39
1907.2736
2171.1093
2113.5686
2421.5935
2231.2314
1980.7061
2189.8167
1792.2838
2078.8161
2048.8425
1957.7868
2143.502
2075.457
2189.9904
2116.5656
2133.7871
2038.8467
2076.6086
2018.0167
2131.1414
2063.8346
2183.1723
2262.5537
2259.7737
2444.1806
2544.6557
2597.5414
2656.3253
2701.8586
2742.2583
2849.1383
2995.4675
3061.317
3245.143
3363.5857
3360.9509
3512.2974
3287.7814
3324.12
2942.8643
2961.0618
2648.2026
2445.3811
3698.8248
11680.719
9659.1026
7448.4382
9608.7533
7886.9517
9283.2886
8540.3997
8172.7024
8759.0063
8229.2664
9037.4642
8324.6038
8090.2186
7757.6808
7347.0501
7043.1207
6549.781
6205.2618
5752.441
5405.791
5036.1911
4812.9889
4688.3827
4464.3902
4635.1511
4450.6513
4827.5939
4882.7486
4965.4288
4957.1761
4926.0048
4802.5862
4711.1469
4686.1856
4645.076
4675.8539
4795.1756
4707.4143
4907.0128
4606.2504
4545.1164
4057.6796
3806.5159
3128.3728
3090.5843
2087.3749
3373.6633
32186.079
19460.464
22519.991
19857.566
21498.28
20489.467
19838.502
19824.369
18130.926
17645.053
16035.956
15512.856
13873.753
12871.047
12078.288
11211.897
10738.929
9998.2425
9402.3776
8703.3703
8045.7368
7238.5446
6549.6993
5651.7018
5452.0867
4744.9544
4584.6924
4670.9286
4728.428
4817.2709
4728.9899
4541.0171
4289.4994
4018.2465
3663.5344
3473.844
3347.112
3356.15
3214.8036
3512.6341
3556.2278
3661.7873
3561.5395
3466.3029
3201.2231
3012.2996
2692.6071
29380.651
25215.303
24690.159
24354.317
24722.863
24852.955
25755.672
26388.817
27355.786
25837.433
25778.339
25648.447
26275.716
26748.797
24512.211
26076.967
26156.919
25967.495
26046.295
26059.193
25925.291
23776.35
24658.426
24911.255
25135.279
24943.384
24898.311
24197.497
22820.134
23802.376
24278.206
24367.87
24377.28
24357.426
23904.815
21705.238
22081.528
22220.494
22483.839
22310.961
22305.481
22268.683
20829.744
21168.795
21369.822
21311.545
21358.753
21523.649
21536.333
19432.811
19595.444
19631.076
19791.656
19758.063
19744.934
19989.789
18528.524
18798.592
18654.835
18749.602
18643.393
18950.305
19178.385
17279.495
17403.478
17396.75
17388.995
17385.669
17601.948
17837.201
16247.579
16492.762
16399.535
16368.969
16481.87
16558.795
16945.58
15189.054
15211.168
15307.041
15258.642
15299.748
15450.201
15783.314
14223.205
14301.108
14221.329
14149.645
14352.35
14279.218
14534.591
13117.985
13175.003
13248.837
13178.521
13304.459
13229.439
13708.008
12214.606
12319.252
12089.332
12176.338
12197.052
12451.209
12406.901
11344.481
11375.927
11304.653
11330.598
11358.799
11290.786
11488.63
10433.703
10478.092
10441.697
10395.914
10513.386
10523.3
10737.345
9642.0798
9715.6883
9676.6015
9611.8431
9755.0337
9753.9122
9836.4154
8948.7502
9002.6689
8975.2924
8924.1844
9099.9364
9013.1192
9164.8036
8338.6697
8429.3272
8402.0055
8359.7406
8465.5765
8420.7581
8564.8315
7878.5494
7931.1899
7956.8976
7862.5791
8025.1205
7965.1455
8087.4698
7501.1958
7563.833
7611.9996
7524.5364
7667.7256
7590.4785
7705.6906
7211.1289
7235.4356
7366.9338
7233.4158
7372.4575
7245.8564
7424.9798
6940.1846
6909.8529
7116.1516
6955.3225
7059.2179
6980.7294
7124.9327
6671.5514
6554.7047
6734.6016
6649.5741
6727.2644
6593.5535
6794.5823
6335.5357
6165.3263
6442.6257
6288.0683
6370.5587
6230.4964
6395.9534
6102.8484
5811.6145
6072.6414
5937.4244
6009.0773
5894.0093
6062.2258
5897.8667
5584.2536
5717.785
5688.4752
5726.9112
5523.1733
5723.8755
5658.4164
5228.2757
5605.0145
5419.8029
5474.0706
5282.2473
5492.0886
5463.2587
5156.8029
5352.7373
5223.2254
5287.5063
5092.2157
5269.4014
5287.1669
4936.8274
5193.911
5097.7503
5116.4124
4910.7371
5085.8754
5046.2426
4815.3422
5025.7443
4925.1965
4901.7862
4757.4087
4901.7998
4857.4686
4669.5878
4845.903
4777.2122
4756.3315
4620.3396
4766.5614
4660.4087
4517.9588
4665.4736
4621.0083
4573.0115
4510.5639
4560.8532
4469.4778
4371.5883
4495.8396
4452.0288
4452.6067
4276.2172
4368.2483
4327.9466
4194.3534
4248.9844
4270.8137
4166.8042
4150.465
4326.7808
4132.9408
3849.9397
4107.5131
3950.1089
4105.5377
3828.7532
4174.3014
3951.78
3708.9369
3634.1118
3908.6833
3564.0943
3777.9268
3553.6932
3637.7803
3461.2395
3450.668
3560.6741
3425.1402
3293.5458
3505.0266
3456.5237
3187.6447
3076.0777
3294.7683
3035.9543
3191.8914
3119.1505
3245.9671
2975.9822
2915.8068
3074.6391
2903.2929
2949.014
2909.6539
3091.3773
2866.4822
2754.9145
2944.7647
2716.5707
2842.5543
2758.8787
2951.3579
2797.1889
2681.8079
2888.9331
2690.2477
2835.6127
2632.542
2675.3318
2533.2311
2511.5827
2655.1052
2445.7647
2618.2153
2505.1782
2869.0745
2885.8255
2795.8576
2933.6957
2792.8081
3104.0081
2718.8184
2372.7473
2298.2672
2333.8529
2421.519
2367.7578
2388.344
2117.8191
3054.8924
3004.4734
2969.9218
3002.023
2952.1783
2964.716
3031.7104
12864.17
10066.079
9403.6382
9144.6729
9174.6871
9380.9719
10259.531
13529.195
14745.236
14114.958
14206.823
14299.659
14417.847
14778.658
12572.289
13146.532
13377.574
13269.519
13419.758
12996.152
12963.001
12256.515
13033.084
13469.697
13584.424
13444.416
13321.879
12664.255
11623.565
12010.346
12350.29
12300.921
12453.637
12158.571
12035.249
11229.226
11508.316
11380.502
11451.6
11398.627
11300.46
11284.427
10431.046
10711.297
10795.323
10820.86
10849.967
10870.54
10749.839
10069.14
10229.886
9993.7523
9995.3541
10034.077
9995.2136
10138.381
9470.8329
9607.2695
9488.831
9481.3727
9479.3051
9601.4294
9683.3279
9012.3773
9018.7635
8874.2299
8806.5614
8966.1433
8967.7174
9038.041
8493.4582
8580.9212
8401.4514
8405.1139
8426.1193
8540.1885
8590.622
8069.5159
8102.0412
7884.1733
7842.8745
7878.3768
7912.0255
7986.1407
7646.9355
7623.2764
7475.3532
7525.0494
7461.7389
7605.9961
7588.6763
7296.8005
7182.262
7080.366
6954.809
7038.9208
6999.3626
7171.6065
6962.0075
6821.8936
6637.3123
6627.862
6693.4747
6551.8046
6713.9662
6579.6392
6331.0051
6264.7579
6214.6609
6283.135
6179.3132
6317.8988
6178.842
6061.6188
5852.8479
5860.2412
5876.2886
5838.4249
5990.33
5856.9067
5672.651
5505.2247
5557.7306
5549.7745
5509.2773
5573.2554
5500.6596
5380.2048
5203.5112
5246.7933
5249.7533
5183.9149
5323.1194
5198.4641
5122.3083
4930.3166
5003.4004
4970.0407
4945.0376
5083.0069
4878.7007
4892.3386
4722.0856
4765.4135
4770.4893
4765.828
4848.8097
4628.0175
4766.638
4568.7888
4617.3179
4630.5633
4568.1187
4724.0638
4477.6131
4600.73
4432.246
4477.5228
4430.8596
4497.8476
4607.8597
4380.7171
4520.2837
4402.0629
4326.9667
4424.2168
4487.9115
4590.1725
4374.0956
4514.0433
4397.3374
4269.0511
4429.4769
4414.7028
4468.947
4464.1685
4533.6474
4330.0827
4494.0008
4294.0403
4502.0121
4529.8668
4400.6554
4730.0843
4541.7664
4229.8054
4610.3304
4512.116
4657.2807
4716.9354
4273.6781
4491.6494
4419.5114
4499.8321
4582.2791
4592.4984
4552.4807
4610.6125
4566.4996
4348.8185
4504.9208
4624.6648
4529.4572
4566.2455
4549.6716
4485.5824
4377.6126
4518.4179
4606.9262
4513.9217
4474.4504
4450.3827
4453.5353
4347.1025
4428.5759
4577.0384
4473.8237
4367.9782
4423.4864
4439.8846
4317.3027
4407.3483
4589.462
4468.6845
4311.8231
4356.8596
4356.9468
4248.3361
4367.0471
4561.0662
4396.3268
4255.8545
4304.592
4317.3857
4256.9688
4320.4544
4474.5044
4373.9234
4226.4615
4251.4107
4271.3622
4194.3368
4229.6354
4527.0927
4455.5774
4223.0015
4212.1197
4210.613
4201.9839
4222.6406
4507.5692
4354.5643
4295.8691
4230.7778
4174.6741
4218.0255
4045.9786
4568.8496
4212.9634
4335.3504
4040.5266
4108.4342
4097.0097
4132.1177
4439.2753
4263.9037
4386.2005
4026.3352
4148.8246
4069.4025
4030.7023
4375.6625
4179.6263
4259.8429
3715.8006
3977.7478
3834.3055
3892.0477
4241.8802
4063.4532
4175.525
3716.3728
3953.3655
3829.8531
3814.2448
4114.3633
3863.7177
3792.5214
3262.0498
3535.435
3365.0456
3374.8207
3690.9697
3585.342
3681.575
3320.1485
3529.6897
3449.5221
3435.9402
3685.4628
3441.713
3045.6677
2660.6986
2876.3693
2749.2649
2651.4254
2824.4672
2824.4103
3264.471
3096.7488
3192.4467
3121.5951
3106.5361
3392.4297
3193.3603
2013.3775
1679.8866
1827.1228
1696.3026
1696.0993
1582.9435
1324.8432
3372.7362
3510.6265
3246.0729
3207.3785
3201.1233
3266.0741
3445.445
4480.9007
3531.5612
3097.8338
3010.3543
2846.1128
3048.9711
3077.4258
4016.2534
4748.4499
4550.6231
4726.6373
4666.2819
4603.805
4724.5514
4579.7219
4687.205
4666.0548
4799.8673
4701.8658
4597.8621
4436.3124
3943.4991
4484.3374
5003.3618
5229.3201
5052.1534
5067.6303
4599.4082
4268.7333
4476.0012
4501.5822
4496.3449
4446.7595
4230.9186
4499.0287
3809.7307
3498.1565
3643.434
4007.8681
3782.2911
3742.0864
3749.5213
4121.9086
3657.3645
3918.0261
4000.1544
3965.0418
4244.5205
4089.5891
3817.7429
3237.1731
3204.3628
3150.5379
3224.0204
3284.7134
3293.0739
3599.8798
3076.7683
3259.9353
3356.9073
3388.586
3624.125
3572.0003
3435.1335
2870.7915
2893.7471
2884.4612
2931.8202
3084.0025
3167.8446
3254.4636
2727.6122
2829.0456
2812.8696
2866.2038
2956.4898
3043.1215
3162.9497
2486.024
2576.3188
2631.0763
2793.8806
2884.6988
3105.8267
2991.6102
2337.9466
2565.5561
2466.9417
2621.7135
2587.1749
2869.2895
2845.0961
2376.6656
2464.7937
2417.2656
2585.0081
2524.905
2783.9371
2656.4343
2365.1727
2477.909
2408.8853
2387.064
2492.9708
2767.1723
2614.2533
2301.228
2419.1835
2339.1348
2383.3144
2363.6571
2720.2597
2598.1658
2211.9589
2379.2737
2290.3668
2274.8979
2312.3754
2685.9178
2524.3205
2118.8647
2321.9413
2193.6343
2229.0637
2222.2236
2557.7133
2476.0029
2057.935
2253.8048
2131.5277
2163.9125
2135.9003
2557.6642
2407.1896
1961.6877
2188.8385
2076.6648
2097.0979
2087.8028
2449.1991
2426.4042
1952.0967
2180.8142
2052.6539
2128.7628
2048.0182
2451.0269
2450.8221
1953.9486
2175.1068
2052.1394
2083.2217
2019.6426
2429.3107
2507.9592
2010.5953
2271.5059
1998.9223
2222.2224
2061.5604
2524.1284
2684.8716
2103.9454
2336.7937
2147.7969
2341.8019
2036.5261
2488.6328
2819.0551
2136.8954
2466.1086
2284.9806
2445.8638
2075.2131
2719.8738
2962.7341
2282.1595
2667.0011
2270.1773
2601.5835
2166.068
2654.0845
3273.472
2373.8422
2659.7395
2395.2912
2742.0839
2187.8548
2856.0603
3305.5494
2484.8747
2788.7508
2607.296
2811.8424
2315.5603
2939.084
3484.6861
2675.7608
2981.4529
2640.4081
2995.1038
2419.5167
3056.7368
3597.7826
2668.6822
2912.5528
2740.0347
3026.7275
2438.1625
3111.9828
3613.5085
2724.811
3051.9639
2851.1923
3110.6543
2558.134
3214.7783
3660.7975
2781.5904
3060.272
2831.1061
3109.2051
2591.2024
3198.5022
3699.6889
2824.5837
3090.3276
2917.3982
3166.2231
2609.5944
3252.9503
3752.5776
2873.8939
3160.9462
2962.1181
3153.2133
2746.8211
3346.0279
3834.9458
2984.7709
3255.9466
3026.3571
3261.2087
2819.0738
3293.9842
3949.349
3103.2181
3358.1619
3112.1315
3307.6231
2915.5
3393.4252
4040.3722
3161.8238
3437.6136
3174.5199
3447.0961
2984.1029
3476.2467
4070.4536
3264.0098
3533.8761
3274.0691
3415.9882
3092.1714
3402.5618
4014.5182
3395.9192
3487.6637
3359.5861
3405.2272
3120.1024
3463.8806
3982.655
3428.1356
3433.3006
3394.332
3370.2662
3252.685
3354.9568
3792.2204
3429.2513
3307.9199
3330.0664
3244.2801
3096.1803
3176.0923
3654.8971
3274.437
3164.7616
3231.1207
3073.8989
3155.5971
3080.9658
3330.6803
3194.6172
2996.9171
3113.5422
2958.1771
3039.8905
2765.7918
2996.206
2821.0099
2653.4073
2818.8463
2530.4592
2759.2289
2570.6961
2906.9029
2879.6055
2697.4034
2867.8386
2611.9175
3146.2094
2602.0627
2141.9881
2082.9765
2050.6286
2157.868
1993.8526
2208.3924
1514.0914
3366.1617
3445.1872
3222.4635
3265.607
3230.3511
3406.3464
3393.2797
1804.9435
1475.9958
1250.5285
1185.328
1094.7764
1047.4468
645.19704
1174.8528
2040.3135
2164.0304
2359.8342
2291.6611
2048.2372
1748.1068
1288.4141
1473.1386
1342.8039
1455.7567
1383.9652
1225.6141
750.62798
1306.8675
2217.7
2790.2488
3086.4719
3058.0069
2803.7249
2332.5161
1282.8285
1404.5295
1004.1301
906.7302
805.91502
791.45046
790.99853
1396.2167
1774.494
1808.7646
2046.903
2145.1766
2161.4076
1816.0314
1323.4681
1296.7273
1186.4548
1211.3852
1155.9106
950.05119
1321.9964
1563.5853
1484.6114
1304.5966
1404.9189
1279.4204
1332.5146
1321.643
1443.8715
1444.6504
1367.2399
1322.6403
1469.3287
1263.2501
1634.0727
1539.8937
1617.6906
1155.138
1226.6708
1072.057
1017.7915
1120.4273
1461.3191
1464.8334
1489.6836
1350.9078
1632.5967
1437.5158
1709.5414
1537.0045
1709.5022
1343.8874
1219.7481
1343.5102
1164.3733
1344.3872
1616.1601
1671.3272
1385.396
1437.4272
1623.8105
1319.8917
1543.9903
1655.3029
1914.4936
1438.5847
1455.9195
1492.8234
1565.4579
1509.1701
1650.7842
1821.9739
1702.3649
1482.008
1686.7554
1540.7769
1589.2808
1720.9288
1845.5409
1709.7223
1578.2551
1686.1926
1723.1839
1678.235
1724.8961
1879.972
1828.5928
1631.7001
1794.7505
1750.7391
1746.445
1791.0499
1943.1315
1868.7905
1706.0754
1828.8116
1862.2987
1827.9665
1771.0493
1944.1386
1938.7899
1741.8213
1914.8205
1893.2797
1870.2493
1853.8588
2042.2035
1969.0824
1829.687
1959.3015
1937.8493
1941.068
1916.8357
2016.1757
2045.9506
1889.944
1973.9972
2003.9325
1961.944
2010.8088
2134.2665
2123.2571
1943.1077
2077.5163
2073.4052
2055.1258
2225.8981
2225.6832
2079.0137
2180.5112
2133.8378
2179.155
2101.5849
2334.2259
2192.6865
2297.1286
2291.7515
2203.7365
2335.0338
2352.5769
2514.0118
2350.3355
2548.2456
2267.2271
2306.4842
2541.9906
2393.6959
2809.3708
2501.8827
2548.1459
2525.2252
2438.0513
2684.9778
2684.6811
2862.0216
2578.963
2782.0375
2770.8303
2539.4752
2931.1073
2759.689
3057.9855
2744.7599
3027.9499
2838.6519
2819.161
3082.5115
2988.2287
3231.4752
2875.5968
3023.2149
3027.9913
2766.7067
3206.1609
3074.1311
3274.9319
2913.0436
3201.6367
3118.8099
3004.1319
3407.4723
3231.6495
3359.0634
3073.8143
3288.9559
3242.7207
3030.5428
3470.3409
3297.8891
3447.5251
3114.6696
3377.2329
3303.7227
3124.9151
3582.3014
3380.5374
3484.6615
3181.4352
3453.5162
3387.7395
3223.2295
3713.8649
3501.6608
3563.9287
3260.9874
3550.7729
3473.9699
3311.297
3771.6402
3520.2138
3604.6923
3333.6073
3611.3717
3519.7542
3383.179
3864.0551
3651.6016
3659.8894
3408.2411
3636.086
3603.9466
3492.0761
3919.9496
3744.2341
3726.1226
3471.4272
3705.9651
3692.899
3452.4377
4012.2096
3787.6441
3709.6733
3501.3749
3741.5503
3643.5404
3561.7295
4017.6285
3884.6595
3781.0404
3543.9368
3737.9735
3657.7568
3570.3229
4046.5082
3883.5144
3657.7495
3309.3106
3599.6175
3468.9548
3421.7033
3858.5547
3724.4631
3654.2616
3268.2141
3583.6793
3448.4864
3398.2893
3806.2376
3690.4391
3368.3343
2888.446
3231.7385
3016.9195
3047.4808
3415.6504
3320.6944
3247.9942
2873.9502
3200.8533
3043.2762
3120.9868
3339.9622
3247.6699
2847.569
2330.3747
2675.8004
2428.6887
2475.061
2637.3923
2656.5958
3014.2003