/*--------------------------------*- C++ -*----------------------------------*\
  =========                 |
  \\      /  F ield         | OpenFOAM: The Open Source CFD Toolbox
   \\    /   O peration     | Website:  https://openfoam.org
    \\  /    A nd           | Version:  6
     \\/     M anipulation  |
\*---------------------------------------------------------------------------*/
FoamFile
{
    version     2.0;
    format      ascii;
    class       pointScalarField;
    location    "0.58";
    object      E;
}
// * * * * * * * * * * * * * * * * * * * * * * * * * * * * * * * * * * * * * //

dimensions      [1 -1 -2 0 0 0 0];

internalField   nonuniform List<scalar> 
28033
(
97078.71
102855.89
-2735835.1
-1279698.3
117201.19
120107.84
-1922311
-4100047.4
65403.201
45227.977
30667.95
21150.536
12724.252
7872.7381
5343.147
4813.2674
7534.399
11454.508
19469.937
29981.66
43911.1
60041.054
93294.433
-1524142.5
-1515437.1
-1508284.2
-1502755.1
-1496904
-1490901.9
-1485752.4
-1480097.9
-1474626.4
-1469200.1
-1463916.8
-1458492.4
-1452881.7
-1448044.8
-1096742.8
81094.159
54260.162
52300.579
51889.442
52845.666
53059.731
53192.914
52926.744
52340.313
51568.564
50568.784
49464.668
48233.003
46956.837
45630.952
44253.509
42989.131
41555.164
40310.049
38891.969
37708.778
36395.811
35168.69
33961.078
32757.413
31734.217
30490.177
29507.126
28474.515
27440.387
26530.102
25621.278
24791.611
23772.448
22976.855
22185.69
21416.006
20696.825
19891.717
19222.066
18452.774
17724.539
17041.253
16344.942
15671.545
15022.011
14368.896
13761.285
13153.218
12600.794
12052.785
11562.427
11090.472
10663.24
10269.893
9908.8625
9581.7508
9281.7219
9010.6697
8764.7585
8526.8432
8331.3202
8126.028
8002.5028
7761.3155
7661.8258
7575.1166
7302.4653
7249.2682
7097.1065
6992.4214
6794.9159
6763.8572
6546.9846
6603.9427
6374.5286
6494.316
6295.8382
6448.1599
6277.4889
6493.7637
6236.0499
6540.1191
6268.7645
6538.2646
6438.1983
6803.2261
6635.0573
7078.2994
7452.6063
6999.5972
8130.7019
7245.7558
6001.2661
7029.9572
76680.336
45899.669
51234.527
49111.039
49867.55
50352.905
50115.995
50145.061
49663.115
48769.117
48078.956
46787.647
45685.247
44515.823
43184.832
42016.801
40558.409
39309.972
38053.361
36782.538
35473.553
34378.587
33028.925
32000.133
30747.784
29729.642
28602.403
27491.75
26492.038
25334.13
24415.771
23421.041
22601.942
21772.126
21009.413
20218.561
19325.947
18594.343
17807.794
17179.586
16446.794
15793.856
15136.363
14493.433
13863.41
13255.86
12657.187
12084.102
11535.531
11003.674
10513.383
10040.914
9608.2642
9203.4344
8835.22
8490.4318
8183.3522
7900.4956
7634.4005
7407.9208
7176.1446
6985.7457
6775.0244
6617.607
6414.9799
6302.7654
6136.7906
6080.3832
5931.2894
5700.8185
5601.619
5415.7053
5407.7151
5241.271
5258.5892
5098.2422
5160.1632
5050.21
5087.5125
5070.895
5103.5284
5141.2285
5175.4998
5291.946
5287.6282
5473.3164
5535.9844
5662.9975
5770.68
6115.7875
5899.1957
6317.1984
6545.708
6670.1258
6366.8496
76210.782
51324.722
36334.046
27713.188
15704.515
9701.5877
7007.715
6302.4295
8893.8053
15398.472
21957.596
34347.423
49216.42
70647.377
91181.139
151826.27
61099.212
43280.567
56947.061
50211.089
54906.62
52325.358
53720.341
51539.248
52026.44
50732.883
49174.633
48418.792
46687.724
46131.662
44168.976
43281.405
40793.432
40465.09
38209.443
37108.136
36110.812
34697.024
33668.652
32401.705
30934.359
30381.946
28506.081
28131.699
26763.405
25833.632
24905.589
23942.057
23097.747
21729.872
21831.926
20404.336
19742.673
18923.019
18138.048
17379.89
16627.138
15870.457
15142.611
14411.825
13703.834
13001.84
12329.888
11671.238
11053.262
10461.425
9912.3873
9399.2973
8925.4408
8492.1072
8089.5099
7726.771
7389.2898
7080.5695
6794.0032
6527.7914
6273.2153
6039.8092
5807.03
5583.4158
5399.3772
5151.3457
4534.9749
5814.4189
4529.2291
4437.2254
4238.6525
4069.2448
3925.3424
3791.2439
3660.5207
3566.8258
3475.8502
3411.0991
3370.6734
3316.3041
3328.027
3282.647
3341.2642
3311.684
3422.7512
3423.3283
3571.6053
3668.3498
3878.7914
4030.8519
4476.3538
4740.6509
5626.5511
2826.1605
-3086825.6
-2904170.6
-2589422.2
-3120187.7
-2608650.5
-3143444.8
-2628505.9
-2968425.2
-3179050.5
-2993394
-2669205.1
-3217634.1
-2690775.8
-3247481.8
-3063990.7
1567.2646
5495.0591
7542.314
7390.767
6993.7594
6719.5922
6447.7239
6282.5625
6084.5876
5990.9313
5935.2413
5838.9891
5821.6581
5688.8505
5671.3502
5603.8767
5634.86
5630.0503
5683.1789
5735.4909
5799.9885
5884.9167
5986.0555
6088.9475
6197.5368
6601.6572
7076.4302
5935.2735
6835.8713
6924.5123
7119.6816
7305.3472
7487.1402
7687.2083
7899.9583
8126.3711
8373.9158
8641.1652
8939.5133
9258.4153
9617.9394
10001.394
10429.169
10883.675
11381.597
11908.106
12473.321
13061.655
13688.863
14330.14
14999.434
15677.725
16402.321
17094.657
17828.683
18607.838
19569.204
20455.505
20791.978
21990.423
22926.607
23186.886
24576.023
25653.447
26504.249
27710.321
28515.165
29572.837
30809.611
32076.935
33381.882
34470.982
35790.079
37225.899
38274.711
39851.367
41028.052
42655.948
43826.607
45269.525
47156.36
48309.222
49346.103
51119.28
52401.894
52592.273
54418.506
54686.974
54785.955
53432.77
54332.536
54948.425
54264.738
49937.222
89140.124
72725.395
67976.77
66081.15
66317.878
67792.413
68725.988
68755.774
69327.199
69416.606
69048.915
67262.01
66076.496
67370.102
69306.262
76724.359
71079.394
72820.817
70944.666
74410.787
74234.184
74061.892
78634.064
83393.943
81265.483
80127.632
76259.96
73278.876
72070.825
70542.969
79597.975
-1439932.7
-1440604.9
-1440295.3
-1440466.9
-1440515
-1440546.4
-1440603.6
-1440609.2
-1440613.7
-1440691.8
-1440683.1
-1440770.3
-1440702.5
-1440928.2
-1441179.7
-3077345.2
-3077900.1
-3078240
-3078373
-3078116.6
-3078262.7
-3078345.3
-3078393.9
-3078474.8
-3078468.7
-3078550.9
-3078734.5
-3078618.9
-3079507.2
-3078371.2
60684.302
47597.452
44240.692
43297.591
43462.634
43496.193
43709.263
43546.541
43257.991
42747.529
42062.794
41241.739
40286.69
39311.436
38203.916
37159.149
36024.158
34937.371
33817.808
32791.29
31729.475
30662.759
29728.451
28671.367
27787.642
26835.108
25924.504
25096.423
24259.418
23459.66
22623.506
21947.86
21186.871
20547.856
19949.212
19259.929
18724.84
18028.134
17526.033
16945.197
16376.464
15766.947
15308.615
14708.11
14233.602
13679.175
13196.098
12701.939
12235.067
11786.199
11365.438
10960.984
10590.253
10240.066
9920.7575
9622.541
9354.4625
9106.0543
8881.7517
8676.8891
8482.8844
8311.7489
8136.4511
7998.9839
7726.194
7689.5822
7589.8442
7583.6415
7484.5259
7260.7151
7262.2964
7094.6107
7130.6421
7012.9081
6994.9935
6964.7596
6912.1376
6962.272
6855.8135
7020.0605
6869.6532
7055.9659
7205.3837
7035.9301
7194.7052
7082.8636
7387.06
7210.618
7794.11
7154.2833
8041.8028
7809.1489
7800.0918
9970.9463
9529.9542
39945.745
34636.202
34534.533
33495.385
33513.348
33234.809
33157.179
33007.425
32745.953
32363.676
31806.144
31285.21
30577.475
29854.684
29030.37
28301.334
27459.583
26638.441
25817.787
25012.821
24206.844
23446.409
22716.708
21960.982
21275.006
20609.789
19965.094
19307.387
18721.752
18143.713
17582.573
17075.524
16557.232
16042.539
15560.657
15044.9
14698.92
14225.096
13844.684
13412.75
13077.032
12603.666
12286.939
11856.776
11511.637
11140.692
10775.356
10432.965
10084.103
9765.5089
9444.5215
9152.9211
8872.4032
8612.8765
8373.6242
8153.4041
7954.2454
7774.6324
7609.2506
7469.9381
7330.6706
7227.4127
7121.0612
7026.8007
6892.3945
7070.6837
6708.4334
6886.6266
6765.1199
6771.9749
6747.8767
6645.3388
6664.4703
6590.0783
6676.1542
6623.5805
6719.3674
6705.5863
6841.8061
6798.6188
7041.448
6878.282
7265.9335
7149.7028
7598.5802
7480.9174
7913.4979
7769.0175
7985.6598
8151.726
8448.4576
8030.9536
9292.0789
8581.2617
8953.424
25185.41
22494.313
24510.527
24292.783
24555.587
24082.192
24034.58
23770.666
23517.623
23184.788
22838.292
22411.957
21888.719
21369.845
20838.45
20234.03
19643.033
19048.457
18481.752
17910.542
17383.565
16784.527
16317.079
15728.477
15307.257
14788.208
14344.022
13901.359
13525.239
13101.574
12737.803
12391.525
12052.665
11744.386
11480.25
11144.283
10860.956
10478.757
10311.88
10088.724
9758.5056
9601.4714
9367.2298
9104.0447
8902.5872
8644.6391
8414.359
8197.2093
7962.961
7754.579
7542.3906
7347.4975
7160.0827
6987.5911
6828.6255
6684.2048
6553.8492
6439.951
6335.5542
6250.0097
6173.276
6110.1892
6057.0704
5998.2524
6026.5282
5912.619
6205.3795
6071.873
5954.7415
5877.2155
5904.1123
5858.9294
5919.6175
5917.1793
6013.3327
5996.4283
6125.283
6167.1797
6251.2658
6361.4277
6420.256
6590.9513
6587.8412
6753.4686
6942.4327
7213.8304
7395.9612
7252.6164
7897.0779
7442.3896
8007.7165
8112.9911
8445.2175
8562.1191
8737.0577
16026.055
13712.777
15414.876
16101.83
16417.036
16387.184
16331.764
16220.125
15977.706
15843.015
15502.71
15291.248
14896.523
14639.407
14174.09
13880.097
13454.412
13088.782
12683.433
12306.643
11926.231
11584.163
11253.418
10928.72
10638.194
10330.291
10088.477
9804.8623
9551.3336
9330.0046
9108.6308
8902.7462
8721.2027
8530.4977
8415.2752
8137.0477
8186.7919
8097.2271
8119.5572
7923.116
7860.7365
7686.8162
7551.6781
7419.4171
7321.6155
7162.8443
7042.7981
6892.9174
6744.2032
6605.6203
6456.5704
6324.1411
6189.5289
6070.216
5956.8688
5859.6536
5767.7682
5699.1864
5626.6968
5590.1093
5536.8605
5518.0841
5493.5496
5503.7976
5456.2142
5540.6224
5454.8
5595.9326
5576.7182
5637.7144
5770.5257
5830.2325
5807.7152
5843.7952
5974.3911
6015.9907
6296.3465
6193.4822
6597.5451
6448.3455
6899.9965
6690.7827
7269.9277
6924.6198
7313.7876
7159.2275
7524.9678
7538.2852
7925.1023
7584.8763
8681.0614
7717.7888
9233.5
8180.2755
9179.6374
9812.2724
7415.1136
8996.8944
9399.9681
9995.4846
9993.5791
10053.516
9886.3712
9806.562
9653.873
9504.0731
9334.6399
9138.7574
8916.6152
8701.536
8476.351
8210.4186
8004.3149
7773.7123
7549.7836
7369.0179
7133.683
6978.2427
6757.0306
6613.0517
6429.7728
6303.9474
6138.274
6073.3383
5930.3756
5856.3533
5775.3648
5696.4013
5661.5012
5589.5358
5490.6786
5733.0536
5300.6159
5640.898
5676.7411
5614.0776
5548.8791
5555.077
5483.1361
5427.6346
5336.3282
5280.6236
5188.0986
5114.5367
5029.064
4946.3537
4866.6613
4788.5923
4718.9897
4655.7537
4600.9819
4554.8863
4523.1013
4491.6876
4481.4713
4477.3286
4469.8851
4488.217
4524.8308
4527.0783
4572.8423
4743.9994
4639.6692
4790.3899
4745.7255
4921.7993
4956.3666
5176.9586
5445.7211
5544.1132
5743.2015
5831.8121
6014.3969
6159.8715
6311.8742
6411.3263
6733.2953
6598.8307
7037.2186
6950.193
7248.7911
7452.8687
7424.8899
7791.6542
7860.3959
8218.8736
8002.5184
8881.8755
8117.3658
9302.7511
5654.1369
3458.0866
4171.0517
4456.3491
4936.0658
5156.5302
5199.0411
5307.8828
5240.4859
5283.1664
5138.7321
5170.6383
4986.3874
4993.717
4815.9459
4782.1597
4631.8299
4585.2036
4435.2685
4391.6822
4276.877
4217.4929
4139.5805
4076.6914
4039.0803
3992.2372
3958.2037
3936.1047
3904.4767
3884.1722
3903.1962
3888.6477
3927.7381
3950.6653
3969.8751
4086.9059
4043.3072
4489.5661
4511.7033
4390.434
4468.9961
4458.1079
4503.9519
4517.8732
4515.5818
4506.9381
4489.5691
4466.2058
4432.0861
4395.708
4351.3538
4311.1849
4268.6063
4232.0237
4198.6441
4174.7242
4155.2755
4149.0782
4145.7723
4162.9074
4162.3801
4216.6228
4229.2747
4273.6139
4332.845
4401.9117
4434.2873
4529.698
4648.2405
4734.9294
4772.6911
4917.7215
4870.1007
4931.082
5251.0105
5320.9338
5585.2771
5599.1595
5958.4479
5843.61
6390.6323
6097.325
6753.0215
6527.7697
6997.8814
7067.5537
7303.6011
7372.1201
7833.379
7504.3993
8338.3744
7714.5045
9128.8484
7917.3625
9437.8613
3733.5265
1120.2277
1490.6438
1390.2707
1772.8982
1882.7864
2081.7183
2113.6037
2199.1478
2215.3047
2242.2649
2251.0839
2238.7655
2226.795
2177.6484
2174.6147
2093.6128
2091.1983
2025.5195
2011.3315
1976.0437
1959.0472
1940.7272
1931.8596
1951.4093
1929.5219
1979.8715
1982.0622
2044.1091
2082.6688
2139.5316
2195.7986
2280.2955
2331.8259
2461.0107
2495.5754
2673.3534
2684.9735
2880.038
2847.8555
3090.2449
3146.6058
3259.4402
3328.5859
3383.0228
3420.5826
3467.3093
3480.7592
3503.2447
3507.8871
3517.5271
3516.3578
3522.9801
3525.0832
3537.1448
3549.3533
3570.6028
3602.6179
3633.0571
3679.0393
3734.1686
3789.9482
3846.9545
3940.243
4007.3103
4090.8073
4204.1881
4302.4451
4436.1382
4497.399
4753.9981
4762.547
4961.277
5096.9849
5226.373
5461.8939
5492.8995
5822.5858
5851.8942
6205.5554
6215.748
6565.9865
6636.593
6838.9869
7025.0653
7096.3885
7292.0806
7420.7292
7674.6305
7681.0099
8365.5295
7971.0076
8971.7685
7859.8476
9741.8497
3083.0594
472.20945
316.79734
162.74582
305.00782
548.90769
652.79393
825.96476
909.01308
1062.6017
1058.5544
1206.755
1173.8246
1276.2207
1260.8301
1336.0979
1306.5856
1400.454
1358.2664
1446.4918
1417.2212
1468.4556
1495.5137
1569.9804
1600.0062
1668.0298
1725.574
1782.8788
1857.6468
1914.5049
2007.0871
2099.2718
2179.326
2305.4031
2398.5898
2531.3855
2631.0676
2816.1851
2874.8931
2991.1344
3090.7476
3149.9221
3228.2109
3310.3026
3366.1948
3436.1065
3471.1101
3503.7632
3519.3025
3531.8598
3531.5723
3535.3225
3529.8796
3532.6153
3534.6391
3540.2271
3556.7677
3577.2632
3596.9634
3648.6233
3676.4551
3732.6249
3793.0957
3861.4575
3914.0901
4015.4148
4089.2361
4178.7732
4247.7661
4415.8564
4425.7824
4605.2249
4725.7603
4836.9282
5038.8271
5143.2915
5369.06
5492.1012
5718.9325
5774.412
6143.5303
6020.4762
6547.6022
6339.9322
6864.8592
6829.3963
7166.6289
7386.8025
7517.2254
7669.4411
8070.5371
7450.2896
8836.5694
7806.3706
9755.293
4297.4608
1260.8886
929.7979
603.22277
681.16157
801.99839
909.57278
999.58343
1107.7536
1174.5754
1240.9786
1295.1185
1324.1326
1357.5583
1346.8155
1378.3734
1335.5014
1374.1324
1337.5147
1388.9126
1449.6973
1545.7825
1511.6881
1515.1741
1527.0003
1551.1191
1588.4753
1617.3983
1686.1032
1721.0977
1809.6912
1846.9581
1941.2766
2024.9645
2100.5103
2214.085
2303.4523
2427.1057
2518.8719
2621.8269
2723.494
2832.1907
2930.7302
3005.5325
3076.225
3111.9365
3160.1807
3180.8545
3208.617
3216.2224
3232.751
3233.9096
3243.8821
3251.4776
3262.3522
3278.6098
3303.5472
3326.5425
3369.0124
3411.2516
3454.146
3524.9538
3581.2671
3653.9336
3732.5849
3832.6372
3911.6174
4011.9235
4171.9781
4226.8728
4410.7598
4549.0824
4587.6211
4833.3004
4916.8719
5212.3692
5241.2445
5573.5255
5517.0956
6009.3666
5867.3136
6320.5982
6407.6487
6475.6657
6973.4898
6693.8539
7234.0419
7094.9239
7263.1737
7631.165
7678.1282
7915.1339
8740.2092
7776.682
9687.2689
7219.8477
3846.0419
3432.927
3215.9352
3302.8095
3399.5196
3511.8026
3575.0183
3690.8548
3816.2282
3823.3821
3945.3543
3936.3044
3970.1937
3958.8463
3959.2607
3887.4098
3921.272
3778.2746
3784.3754
3765.0082
3633.0317
3497.0995
3479.5858
3485.1452
3474.532
3455.5741
3470.5701
3467.4254
3477.0517
3494.5689
3518.3782
3563.2705
3581.74
3661.9543
3698.469
3764.2603
3839.6194
3881.7497
3973.702
4018.6159
4090.2016
4103.1312
4157.483
4167.9385
4195.0425
4196.2199
4195.8686
4176.366
4160.1387
4130.8846
4103.3874
4075.5675
4049.6368
4026.4747
4012.8481
3999.2754
4001.1734
4005.2484
4016.3504
4042.6087
4075.9245
4100.6846
4165.0546
4196.6401
4266.1989
4310.8113
4427.5313
4450.783
4578.8218
4676.3541
4742.2533
4899.6897
5088.5101
5095.7546
5188.5244
5408.9188
5472.0663
5841.6558
5742.214
6170.6437
6126.5197
6426.266
6494.8556
6745.8122
6797.1049
7060.349
7252.5103
7338.2964
7597.1459
7788.2932
7702.4989
8199.2481
7630.6602
9742.1004
8458.6914
6527.5761
5977.8207
6176.0893
6127.3151
6308.2183
6203.5919
6271.0643
6297.2056
6350.1529
6282.8862
6354.6163
6228.6135
6212.1217
6068.9889
5995.0403
5831.0658
5749.2335
5564.5238
5487.0447
5423.4942
5963.159
5720.8357
5684.1049
5582.6281
5423.9477
5352.2237
5197.5685
5131.7954
5012.7773
4954.4443
4898.7755
4797.5927
4792.5756
4710.0327
4693.1661
4667.0856
4645.1125
4646.7465
4623.8125
4630.0664
4601.1881
4613.2827
4581.0082
4571.6257
4526.9504
4496.6029
4443.7936
4399.798
4342.402
4291.3268
4234.4206
4185.3787
4135.2887
4095.3383
4057.9285
4031.2749
4012.9062
3996.8336
3996.9596
4004.6528
4006.4809
4037.6069
4071.3129
4096.1515
4158.0756
4217.2811
4253.0165
4340.4335
4427.7468
4486.3504
4622.7907
4710.0456
4811.24
5245.426
5280.1339
5379.2808
5600.2085
5605.8668
5971.16
5956.7292
6300.6957
6358.1852
6621.1143
6779.487
6918.9851
7240.1688
7215.7624
7538.5984
7704.0388
7666.6199
8057.1221
8407.9516
8384.2665
9430.7036
19468.652
12272.649
12907.773
12638.435
12780.401
12478.846
12572.154
12483.943
12476.926
12437.999
12403.013
12285.423
12153.563
11942.783
11794.006
11475.754
11270.228
10978.907
10685.284
10458.728
10092.81
9874.9248
10342.653
10254.272
9976.1678
9782.8936
9519.9585
9305.5446
9084.1203
8848.7254
8690.4788
8456.7675
8302.2495
8127.491
7986.8541
7853.6799
7708.0016
7608.4022
7462.6928
7385.5475
7242.0384
7165.9219
7030.9764
6934.4062
6808.0018
6696.2242
6567.0487
6446.3259
6311.8984
6185.6738
6055.9166
5931.1481
5812.6198
5699.9679
5597.4494
5503.2103
5422.0193
5348.1351
5285.4562
5240.7272
5188.2759
5166.2545
5137.5251
5131.4043
5102.9558
5125.1066
5103.2768
5151.6774
5169.3063
5198.1768
5260.0651
5297.0785
5388.8526
5477.2342
5524.0626
5571.4736
5716.8323
5765.9531
5968.4714
6045.1311
6180.3338
6344.5562
6378.5668
6646.7707
6561.1036
6938.4526
6754.8773
7129.179
7139.2004
7323.812
7502.138
7795.472
7856.7486
7824.8423
9508.8524
29950.362
23806.327
23085.682
22568.533
21926.718
21742.683
21605.575
21333.94
21396.557
21170.344
20964.842
20736.035
20331.022
19952.401
19511.48
18925.549
18497.862
17877.205
17390.199
16838.289
16327.324
15852.508
15244.896
14761.752
14308.516
13748.454
13378.163
12886.445
12438.976
12076.967
11644.728
11340.836
10947.207
10672.582
10314.668
9989.5692
9727.6119
9425.743
9202.1157
8915.2341
8714.3714
8457.1314
8252.2667
8017.1729
7807.2166
7583.6601
7374.0019
7159.9502
6955.2447
6753.3812
6560.3385
6373.222
6198.6323
6031.2412
5878.7516
5736.2287
5607.009
5489.2062
5386.7488
5289.3986
5208.0116
5135.1609
5067.265
5016.7271
4973.3456
4955.9323
4938.394
4914.6321
4882.8153
4912.1893
4887.3556
4962.6655
4961.1798
5008.8792
5113.1635
5132.2907
5221.709
5336.1846
5403.1915
5549.892
5674.177
5807.4768
5966.0803
6118.6856
6280.6155
6478.6455
6567.5522
6991.6756
6792.9293
7403.9088
7155.9353
7700.6976
7188.5127
8401.6572
9315.3973
43942.901
35287.651
33605.772
32097.018
32415.264
32004.278
32015.265
32087.489
32104.772
31815.411
31581.224
31083.67
30551.711
29897.168
29173.759
28408.501
27617.809
26820.47
25974.824
25202.694
24363.787
23583.605
22817.296
22172.953
21425.956
20753.881
20138.019
19446.123
18853.706
18215.597
17663.049
17051.463
16495.691
16017.726
15475.136
15031.985
14564.871
14154.029
13683.556
13305.952
12879.111
12498.627
12105.324
11733.408
11357.659
10999.673
10638.184
10295.06
9955.6456
9631.6044
9322.3474
9026.1571
8751.2671
8490.463
8254.2973
8030.4196
7830.4942
7648.0939
7475.4495
7329.6187
7183.3729
7066.4407
6933.6955
6844.5754
6709.2681
6636.5249
6533.0653
6470.5423
6412.1032
6335.0539
6330.09
6245.1263
6262.9083
6217.91
6284.7483
6223.3085
6333.9147
6319.0496
6405.1199
6486.8715
6527.9284
6661.1125
6687.0908
6862.448
6851.0684
7049.1553
7060.4244
7228.1097
7138.3194
7621.409
7187.2279
7864.78
7566.0483
7833.7727
8854.8677
53598.273
43927.88
40819.768
40365.317
41335.074
40843.66
41373.144
41476.267
41291.832
41113.75
40424.582
39935.535
39046.434
38072.366
37173.58
36012.684
35106.553
33982.373
32854.967
31829.453
30836.727
29640.951
28894.607
27706.159
26802.03
25906.89
24878.085
24243.39
23218.38
22702.124
21745.21
21063.802
20256.879
19521.451
18859.516
18173.983
17756.184
16994.579
16523.675
15877.938
15377.946
14820.069
14312.765
13798.422
13308.474
12827.867
12362.384
11916.795
11481.383
11071.751
10674.269
10300.782
9946.9137
9615.6941
9304.223
9016.3245
8751.5601
8499.6085
8276.7111
8061.3392
7871.3382
7684.8701
7525.2038
7363.9185
7204.8452
7047.9958
6875.1481
6772.5919
6618.6386
6700.7233
6462.0521
6492.3821
6358.2549
6350.9587
6277.2386
6293.7171
6255.7938
6295.1111
6317.9788
6335.0573
6392.8839
6461.0945
6516.6492
6599.1256
6715.7687
6800.0153
6886.9068
7132.5539
7183.3714
7435.1314
7736.8507
8226.2152
7952.0713
8985.277
8706.4494
39846.424
37438.817
31580.308
30839.18
30130.15
30356.961
29736.887
30268.011
30444.256
30501.644
30466.141
30403.867
32820.566
35352.511
44044.811
27511.727
22352.104
19453.156
19269.904
18011.668
17971.489
17421.012
17779.755
18021.3
17927.568
18223.94
18798.165
20323.102
23392.687
29533.669
18060.398
13995.491
10365.236
9752.3595
8835.5431
8608.3013
8507.4663
8334.0732
8443.659
8573.7471
8995.5915
9498.3661
10902.844
14156.822
19034.654
11725.178
8980.5552
6955.4815
6011.1481
5672.4188
5373.2783
5294.2324
5146.0815
5345.1114
5471.7815
5805.0508
6191.295
7723.2125
9755.6476
12762.841
7146.2841
5288.9631
3616.3371
3139.7445
2710.6848
2560.7758
2467.6759
2408.5212
2473.1754
2615.3618
2802.3494
3302.8473
4207.1489
5549.9323
8276.6106
5221.1738
3342.0432
2260.194
1898.0437
1613.7836
1517.4467
1438.9876
1440.7234
1475.1432
1530.9088
1749.0873
1968.8394
2541.9297
3653.0678
5669.0217
3127.2756
1967.8214
1345.5437
991.6939
826.41245
680.83666
636.15847
604.81011
633.0516
686.57086
823.56896
1056.1914
1458.2554
2303.9828
3964.9
3069.5289
1832.143
1158.9771
873.78127
674.26789
577.80447
520.8378
518.98116
545.78709
617.16489
767.96427
979.2275
1384.8418
2191.0834
3860.6849
3816.584
2408.3688
1623.8798
1226.8318
979.49697
838.93652
766.63004
751.98516
779.79543
884.23285
1018.3225
1263.1873
1754.6198
2778.7483
4201.3121
6066.4423
4360.9482
2746.5538
2241.6359
1778.8546
1618.5362
1476.3206
1462.507
1490.9424
1574.9824
1948.3756
2130.2417
3129.5807
4726.9668
7197.2774
8679.3795
6632.8156
4313.3857
3753.9767
3011.4487
2811.8229
2614.0417
2621.0014
2672.6587
2756.6528
3207.0756
3809.4808
4998.7926
7077.9509
9729.3135
14443.584
9972.1956
7444.7826
6411.7476
5506.5288
5120.4805
4906.1595
4840.4134
4953.3981
5102.3273
5772.9342
5810.0392
8000.7805
10815.513
14949.276
19833.159
15820.843
12008.141
10594.475
9348.7636
9100.0837
8640.0096
8840.3807
8826.3982
8706.1801
9619.0232
10211.699
12275.668
16389.403
19119.381
30904.808
25406.209
20251.743
18926.273
17351.934
16763.206
16926.567
17111.355
16851.625
17075.502
17302.225
18263.74
20624.911
23812.981
33311.838
41830.422
43917.55
34215.13
33142.66
31179.608
29092.716
30951.888
32384.717
30137.233
31919.448
31156.828
32264.894
34478.937
39195.348
47867.198
99860.232
81736.247
82112.015
83582.311
84995.864
84272.286
88769.599
93326.317
95321.633
93690.48
90665.57
85979.598
84832.542
87158.836
84880.569
71647.13
64461.981
60684.688
58720.977
56140.239
57780.689
56894.186
57147.685
60712.382
57882.764
58748.091
57982.099
61841.714
65886.496
75108.495
58858.17
60984.382
57543.612
55388.326
55464.846
50945.786
50638.458
51094.265
48953.873
52784.134
52917.295
57553.137
59589.918
60276.923
61775.012
56882.339
63020.375
61933.89
60143.55
58807.851
58096.138
57520.434
57816.731
57888.216
58446.789
59881.043
61559.147
62323.642
63385.3
58798.946
56458.731
60233.446
61237.096
62293.343
60607.8
59914.186
59873.074
59325.904
59962.591
61073.959
61437.235
62899.331
62657.148
60470.984
56312.614
55568.862
60703.124
61450.265
61950.491
62175.04
61906.741
61478.908
61390.406
61619.27
61598.761
62488.499
62675.122
61968.578
60297.252
55930.453
54918.355
58517.613
60127.882
61669.801
61541.919
61659.386
61848.895
61763.567
62076.372
62299.284
61988.856
61846.845
60560.56
57699.232
55383.278
54631.748
57251.641
59184.235
60356.041
61261.726
61247.142
61357.095
61518.104
61397.735
61456.542
61186.67
60385.72
59216.706
56343.468
52947.89
52872.639
55321.404
57138.155
58353.516
58680.152
59346.213
59481.395
59505.053
59692.116
59215.571
58799.954
57906.684
56675.25
54465.532
53093.582
52365.502
53833.337
55623.867
56635.292
57613.691
57926.529
58246.803
58284.179
57848.25
58065.967
57376.238
56796.875
55324.563
53655.584
51890.422
50496.546
51994.117
53531.37
54519.486
55102.281
55710.549
55948.711
56044.938
56261.171
55666.956
55520.272
54433.257
53592.932
51942.559
50668.229
49776.547
50324.172
51702.335
52541.523
53302.546
53642.249
53966.398
53972.662
53842.129
53610.244
52981.834
52379.68
51262.533
50104.506
49436.406
48186.849
48819.776
49658.856
50557.988
51169.73
51640.192
51883.133
52054.354
52213.803
51841.799
51522.748
50949.749
50003.099
49167.269
48087.327
46706.791
47000.791
48474.615
48663.258
49409.199
49622.208
49869.188
49840.926
49817.124
49492.554
49051.814
48551.776
47696.563
46952.512
46762.186
45413.593
45521.378
46298.368
46944.277
47524.397
47667.628
48273.02
47733.103
48184.407
47943.809
47724.564
47339.342
46479.598
46156.313
45342.005
43801.34
43983.822
45061.458
45207.734
45657.298
45990.321
46428.281
46110.998
46045.231
45695.313
45373.954
45021.238
44386.655
43875.475
43738.02
42738.704
42501.424
43285.63
43243.552
44112.784
44171.284
44437.83
44321.046
44607.266
44365.913
44330.217
43911.799
43704.809
42679.141
43102.997
41214.785
41194.397
42012.694
42075.095
42341.094
42618.318
42700.902
42713.917
42662.517
42387.808
42081.22
41724.971
41265.944
41011.205
40712.934
39895.453
39695.043
40450.902
40696.451
40989.264
41007.2
41138.604
41104.037
41316.066
41077.032
40835.458
40774.718
40483.096
40308.234
40251.868
38633.399
38406.07
38949.556
38931.248
39346.911
39487.328
39910.675
39615.713
39701.813
39451.38
39243.068
39136.975
38742.713
38367.625
38150.798
37288.59
37139.976
37829.469
37785.334
38031.285
37890.527
38287.635
38142.649
38368.178
37932.639
38125.123
37768.049
37794.848
37325.934
37403.708
35923.822
35823.577
36287.004
36423.502
36631.226
36804.438
36910.393
36851.351
36831.431
36934.775
36652.116
36511.935
36121.305
35594.1
36138.7
34899.152
34498.883
35209.729
35077.254
35407.731
35397.113
35570.632
35446.315
35519.61
35411.018
35192.842
34991.599
34790.734
34599.296
34708.006
33464.314
33455.814
33802.362
33977.388
34015.553
34106.434
34234.416
34107.704
34236.548
34031.633
33897.789
33863.87
33912.634
33273.514
33625.463
32593.902
32292.322
32558.932
32510.632
32864.362
32643.272
33150.574
32841.936
33069.647
32867.141
32906.958
32639.331
32281.821
32046.336
32397.259
31157.291
30845.794
31490.377
31269.139
31582.319
31699.742
31847.244
31603.914
31862.517
31535.79
31701.93
31587.507
31379.024
31137.499
31131.101
30207.593
29846.456
30238.396
30152.895
30739.119
30435.851
30686.737
30544.444
30680.365
30520.913
30459.233
30169.963
30083.704
29754.543
30198.583
29013.919
28578.78
29205.704
28963.074
29329.945
29231.211
29477.043
29323.375
29516.169
29290.997
29374.147
29170.713
29069.406
28959.942
28854.605
28046.49
27674.457
28127.205
27941.932
28261.457
28205.649
28394.229
28286.517
28406.06
28250.019
28220.209
28156.27
27830.818
27525.547
28099.736
27048.099
26363.058
27013.385
26903.23
27311.997
27177.536
27342.959
27181.097
27234.745
27085.755
27141.91
26918.427
26957.134
26670.546
26961.105
26047.483
25542.183
26233.209
25915.971
26267.542
26183.127
26337.998
26126.599
26332.816
26089.448
26259.528
25962.614
26046.329
25528.278
26020.259
25303.919
24469.49
25159.015
24889.832
25378.94
25102.478
25445.067
25182.862
25454.905
25157.406
25241.71
25035.855
25040.227
24683.364
25097.366
24258.24
23561.334
24283.917
24007.476
24396.564
24205.863
24543.679
24200.991
24485.788
24164.625
24394.089
24053
24176.045
23740.298
24191.373
23405.674
22702.677
23363.43
23044.482
23521.131
23290.182
23613.756
23346.854
23589.897
23333.325
23430.184
23200.825
23288.231
22886.369
23346.805
22464.386
21865.415
22582.59
22402.735
22622.043
22456.342
22731.659
22508.341
22736.971
22532.454
22629.944
22431.62
22467.375
22213.454
22346.033
21731.102
21213.181
21547.059
21470.57
21680.795
21622.354
21815.32
21676.114
21816.439
21481.763
21712.9
21497.268
21570.205
21164.083
21776.56
20801.622
20251.333
20826.888
20594.153
20983.477
20737.539
21052.085
20770.865
20993.013
20805.009
20917.596
20712.049
20740.094
20478.446
20836.583
20144.624
19557.897
20129.689
19953.962
20181.745
20052.12
20283.964
20049.897
20292.841
19999.494
20229.159
19857.51
20130.936
19605.196
20118.986
19585.212
18706.097
19422.028
19034.802
19530.35
19190.884
19583.925
19223.986
19518.057
19219.679
19367.843
19175.472
19285.081
18879.673
19390.707
18743.218
17987.053
18658.252
18366.235
18712.185
18465.876
18803.91
18459.955
18793.613
18425.26
18703.102
18332.802
18578.595
18124.182
18645.038
18098.008
17264.234
17970.484
17573.688
18030.372
17696.205
18070.447
17727.338
18005.79
17730.098
17914.148
17635.483
17848.476
17375.699
17925.312
17361.039
16564.37
17223.544
16891.059
17282.746
16968.872
17362.167
16955.211
17323.477
16953.96
17201.101
16891.183
17110.388
16657.191
17216.411
16701.593
15854.282
16546.273
16156.762
16566.432
16256.927
16601.926
16263.663
16560.079
16243.419
16472.847
16162.42
16390.674
15935.002
16494.567
16002.556
15180.365
15835.016
15449.644
15866.743
15525.459
15922.054
15527.028
15856.433
15532.006
15749.675
15459.022
15681.376
15233.191
15794.272
15347.011
14493.747
15153.945
14761.862
15148.797
14849.555
15203.089
14833.926
15151.018
14826.987
15044.932
14758.262
14970.716
14534.971
15092.819
14682.226
13833.398
14492.902
14061.898
14474.592
14151.301
14522.16
14144.944
14455.426
14144.61
14350.27
14075.545
14280.915
13857.884
14406.635
14039.892
13193.424
13826.031
13411.221
13803.509
13500.665
13866.041
13479.514
13793.742
13480.27
13676.54
13410.042
13602.749
13194.308
13730.974
13423.928
12561.145
13209.623
12768.563
13163.128
12863.614
13219.09
12834.353
13148.26
12835.652
13029.177
12767.292
12957.339
12557.996
13081.343
12815.779
11973.927
12598.292
12155.042
12554.685
12261.877
12618.222
12231.455
12542.556
12228.594
12412.913
12154.598
12334.532
11940.002
12452.995
12256.446
11404.999
12027.908
11588.403
11979.139
11684.119
12031.806
11639.828
11953.745
11638.991
11822.978
11566.587
11747.315
11357.252
11861.336
11712.305
10871.508
11493.287
11044.209
11430.085
11146.696
11494.694
11108.833
11422.982
11105.459
11280.225
11027.212
11197.532
10806.946
11300.933
11210.918
10380.771
10990.204
10542.548
10932.711
10645.015
10982.623
10591.522
10902.96
10582.09
10761.683
10508.555
10679.259
10292.247
10777.834
10745.96
9919.4641
10526.024
10085.573
10463.026
10177.356
10516.767
10133.269
10445.54
10128.721
10298.943
10045.789
10210.697
9818.7337
10294.819
10313.309
9497.4621
10103.441
9657.476