/*--------------------------------*- C++ -*----------------------------------*\
  =========                 |
  \\      /  F ield         | OpenFOAM: The Open Source CFD Toolbox
   \\    /   O peration     | Website:  https://openfoam.org
    \\  /    A nd           | Version:  6
     \\/     M anipulation  |
\*---------------------------------------------------------------------------*/
FoamFile
{
    version     2.0;
    format      ascii;
    class       pointScalarField;
    location    "1.78";
    object      E;
}
// * * * * * * * * * * * * * * * * * * * * * * * * * * * * * * * * * * * * * //

dimensions      [1 -1 -2 0 0 0 0];

internalField   nonuniform List<scalar> 
3969
(
1092.9747
-271.86503
-52254.373
-28256.376
1750.8099
1380.109
-39300.131
-75902.235
29.485554
171.65795
14.817946
42.560449
154.45257
122.97656
152.08226
-31332.023
-28612.374
-28345.565
-28085.104
-28545.175
-28181.022
-18800.597
1663.6256
462.76387
263.17455
253.31653
110.40121
115.6246
-118.14231
310.69208
-458.9369
-112.34067
-246.02697
-465.32163
-339.401
-720.95742
-404.90981
-963.86015
-539.81227
-834.95563
-560.44393
-627.93837
-567.87048
-398.82701
-479.31628
-163.98524
-481.9258
-58.658387
-174.35883
-141.02817
61.668977
38.731868
41.043284
215.48485
157.21409
211.81997
354.88704
236.24903
835.8014
102.43659
1373.9349
-140.78356
1700.1321
859.55863
852.76187
2455.8947
410.83073
1163.6964
3868.3693
3938.2486
-2230.739
4217.9379
431.09696
3385.704
1864.117
3119.2035
2472.1701
2380.5986
3075.1643
1371.2646
2845.4871
1858.9238
2175.2218
1853.9638
1772.4904
2402.2384
1314.2972
2507.8992
1785.7353
2119.2689
2227.8895
2021.9946
2443.8482
2241.2724
2825.5905
2054.1706
2514.0027
2402.4147
1970.1781
2341.3645
1912.6681
2021.8604
1749.1847
1693.4136
1589.2229
1525.0244
1231.7453
1020.2172
1023.3969
856.98855
428.25654
491.25926
-108.76938
-18.84083
134.04779
-1669.5249
564.4602
373.46064
24.087059
240.88349
-97.862035
167.45858
-124.40223
4122.5742
6362.8942
-5378.7935
4644.9106
1606.7107
962.25858
4186.5383
-133.29226
5999.2249
-1767.8768
5685.8772
-406.45783
1250.6628
1104.4561
-243.04917
1360.2976
12.832272
815.2748
686.01661
596.83479
893.1272
677.14734
966.25401
665.01761
1097.4915
1230.9458
1148.8146
1379.0185
1503.7861
1520.5117
1362.2908
1307.5263
1093.3986
1008.2485
639.2954
731.89314
1259.6585
-228.09086
-87.494627
-337.27197
-966.54765
-911.30202
-1601.4815
-1817.9513
-2176.6833
-2144.309
-4151.3184
-55370.4
-50388.068
-56751.542
-57149.421
-54048.513
-50262.468
-62694.454
3684.2688
368.19462
1914.4069
1731.0403
1917.78
1958.4851
1972.1036
1964.271
2066.7781
2166.6057
1756.5906
1435.6735
2149.9981
2164.757
2242.9448
2203.2091
2211.3534
2188.8142
2092.2662
2060.198
1926.1191
1890.966
1633.2146
1469.3596
1290.4497
1193.3711
1049.4017
830.24976
864.83921
417.1062
752.12058
254.07074
590.67263
-302.41002
11.372493
304.84471
102.33156
80.520277
507.52276
-40.222757
726.97093
-669.50098
1277.392
-1002.8482
1769.7809
-815.53761
3183.8411
729.91167
554.49423
480.05937
615.68513
673.31006
715.18547
20.85003
-1083.7016
-767.29735
-1432.2407
-1526.7248
-1141.055
-461.51147
-1596.7625
-31035.448
-31130.093
-30576.865
-30874.305
-30865.135
-30446.427
-31707.588
-57979.34
-58708.49
-58602.951
-58450.516
-58160.401
-58933.646
-56553.718
2011.8976
-119.26028
509.10189
283.64938
-412.33951
245.69868
-677.15736
-50.716596
-598.47062
-167.40186
-410.18369
-343.24049
-166.72603
-95.724619
-78.185968
8.6707131
200.83689
64.496393
173.27375
126.01587
151.82535
103.26381
249.72102
7.7089795
241.75308
227.73512
192.43015
298.218
282.98557
178.76031
249.69829
203.0433
78.471094
163.25777
-38.525185
-39.557637
-18.84941
-300.96978
-209.63751
-550.69896
-16.173739
-1416.3568
142.64476
-1100.9057
-818.48027
1672.3135
-135.03922
940.23292
-268.09723
181.35307
-265.78825
-190.18377
-23.414616
-495.14162
-100.8918
-623.60018
-519.5927
-707.83247
-644.8328
-745.89417
-1123.475
-1064.7394
-1189.3543
-1159.582
-1280.0243
-1256.9117
-1158.2316
-1225.3701
-918.74642
-1208.8261
-839.82479
-981.16429
-914.65397
-976.81296
-965.87329
-1163.7742
-1095.6742
-1101.4892
-1182.347
-1116.1536
-1122.0798
-1151.5748
-1107.8393
-919.18415
-1674.8885
-343.54257
-1830.2782
-132.05873
-1332.3869
532.74881
-630.91804
1562.225
-32.826581
1409.0421
811.92888
-351.26537
393.48127
-49.162426
-167.62843
25.41445
-57.4513
321.24942
103.28696
778.27879
400.63043
841.1396
581.78952
921.76217
622.14481
658.33334
651.01142
585.03665
794.14429
537.75762
589.37429
65.307739
307.86354
29.853202
-27.566812
-183.1308
59.136409
-185.43046
81.131081
117.36113
68.812888
209.30964
190.79976
278.95568
248.1496
557.39736
126.69217
1164.3164
875.19008
1012.1856
1813.8414
600.22515
2034.5579
481.11084
1128.8578
62.955764
1791.6866
355.32039
-306.06495
121.12999
-127.40001
-243.56432
74.005717
-441.56899
-338.26021
-459.96534
-813.90757
-935.67665
-609.10154
-1175.6289
-619.56204
-1259.1382
-405.5424
-1143.0272
-445.32096
-1076.7072
-747.81924
-886.56015
-291.14575
-287.95632
-272.91379
-386.03603
-67.197247
-313.65017
-337.92919
-359.24022
-527.81918
-552.60824
-580.56376
-721.0062
-668.33269
-693.83412
-918.56642
-544.96672
-1060.727
-1520.4747
-1677.0179
-1508.377
-2130.7089
-585.4372
-2240.6694
502.32432
-1083.3372
2362.0933
485.84719
-581.77568
201.42047
-577.78774
-361.08195
-352.31065
-710.94654
-227.1125
-386.01873
-505.76593
21.849214
-379.18415
-109.11953
-269.46931
-109.8096
-322.17542
-280.11642
-329.66129
-378.33177
-228.5331
-249.9489
-424.07475
-422.4198
-690.91425
-377.85844
-576.56209
-600.89599
-475.42514
-451.51072
-386.04462
-346.61568
-272.98974
-261.36537
-106.54826
-255.06221
100.44589
-57.666624
189.11855
128.36653
1323.6524
827.93691
1744.2416
1512.3369
1405.9274
2211.8295
410.76541
2928.7427
845.4142
-650.62392
350.14513
81.589378
322.5215
387.62397
305.41235
165.8746
491.8322
-238.80123
284.56654
-110.55649
180.84182
148.40384
-66.643987
256.23402
-73.423873
220.89021
108.70482
127.74822
183.59043
481.28449
211.70998
536.70551
549.64394
368.71091
517.07046
402.39674
332.73651
354.04242
283.38042
172.74717
180.59653
77.769779
27.199494
-26.322618
-122.52785
-267.27453
-51.588276
-890.04341
-807.06414
-729.53444
-1301.374
-792.71095
-881.1167
-1536.0705
1792.5097
1042.8031
-2186.6856
-245.3382
-1792.3558
-1186.3108
-1859.8876
-1492.7457
-2405.0898
-847.41777
-2855.4598
-357.56361
-2501.2134
-979.04795
-1828.6344
-1050.9797
-1375.3508
-1038.5286
-928.11333
-963.99629
-656.44323
-676.5846
-625.46768
-268.32862
-230.54118
-370.4381
-65.879335
139.13972
266.01887
422.30188
548.44762
581.95884
760.14474
707.67907
921.08056
748.06176
930.32966
794.74586
1189.6558
961.46281
1213.0748
1404.1194
1595.2318
1692.3351
2511.44
1859.0032
3191.0906
4245.6945
-93.603106
-311.5441
-368.89683
-505.90514
-288.81668
-316.99752
-279.97151
122.03054
-55.639933
-183.32746
-207.74509
-128.87014
-2.6967487
-34.702637
-89.657616
-286.98387
-368.45207
-379.42136
-335.96747
-293.63524
-302.89163
-38.039949
-114.27105
-60.962241
-84.662444
-49.287717
105.21797
87.281673
-197.4235
-260.87263
-305.31587
-322.06172
-354.05215
-271.05686
-211.28522
-214.80989
-624.55174
-516.56072
-755.19266
-695.25811
-690.85403
-579.81096
-687.97843
-445.51302
-1097.4418
-1291.1281
-1243.506
-1326.0407
-916.19326
4143.978
5814.4621
5749.1963
6442.6174
6514.8054
5927.696
4635.3656
2144.4983
3073.452
526.22719
-373.78425
2305.7083
673.06471
3446.6893
695.07981
370.7635
2801.436
1468.8688
583.45946
158.58399
2654.9245
2974.9123
3793.4736
1245.0815
1827.3834
2042.7702
3448.2242
1240.2461
2843.8461
2630.9015
4016.6949
2758.0089
2696.0435
2473.9602
4516.9135
3365.5484
1966.708
413.20538
1421.3402
435.05363
1835.9255
1145.0607
2815.1138
2742.8139
4296.461
3382.5056
3960.1533
4250.2165
4948.9128
3234.3495
2610.9845
1389.9848
1520.9599
565.12377
294.72785
761.39462
3494.8235
2448.5679
3030.1229
2889.3527
4370.6988
4620.7423
5923.796
1945.3963
2244.7522
1316.837
3269.9781
663.83422
612.0579
1016.2295
3895.921
2558.0522
3658.198
1459.2743
3384.7533
3019.4682
3520.9804
1427.8086
2896.6131
895.56202
3275.017
2611.8535
269.23354
2518.9379
3649.8365
1663.8695
3026.9739
1449.9015
1491.4229
3062.309
1348.0314
1702.297
2185.014
2629.2282
1322.7003
3647.8446
961.49215
3019.5639
2894.0432
2802.0062
1715.5655
2342.3072
1364.2962
1479.347
1221.5341
2566.5675
1368.8999
2905.2958
1082.2057
2788.8059
1520.0878
2633.1782
1919.2964
2688.1473
1917.3107
1542.9898
2102.133
1158.0516
1931.8678
2836.0316
1433.8482
2453.9012
1419.2068
2205.6857
1339.5852
1942.1816
2187.7394
1844.6276
2363.7439
1115.9255
2263.0795
1049.6894
2267.4697
2475.6154
1778.5673
2168.103
1524.5846
2192.8194
1214.921
1992.8772
2615.7984
1641.5072
2470.6194
1313.9637
2241.6588
1041.3202
2185.3878
2449.5659
1860.1892
2340.5743
1399.6897
2242.4961
1034.7157
2137.7973
2700.4608
1828.4537
2367.4972
1513.2565
2306.1146
1165.8024
2290.8918
2542.4314
1961.8882
2369.8243
1523.8761
2243.4916
1020.9791
2043.198
2410.7349
2391.1525
1952.7404
1926.4503
2162.0561
1251.3729
2287.1262
2304.6442
2454.2519
1832.3244
2059.3596
1686.2206
1459.617
2429.8852
2401.7761
2381.2822
2282.3384
1738.8185
2838.4579
1857.3267
2757.7358
2917.6714
2125.5244
2738.6569
1747.0755
2241.5958
1119.8465
2715.865
2103.5395
2615.2305
1818.8968
2258.5762
1925.3398
1862.0088
2344.9433
2800.8365
1889.7959
2485.2655
1898.5461
2082.7023
1606.8755
2291.3264
2110.5577
2276.5505
1962.7286
1902.9622
1828.2062
1570.2985
2017.5116
2385.4802
1950.0202
2000.9849
1792.7371
1757.3679
1466.7996
1887.1029
2027.5508
1863.898
1778.0749
1625.8811
1571.4641
1333.2726
1765.8197
1967.0837
1724.3828
1702.0418
1537.1969
1441.8134
1224.4271
1583.54
1701.8318
1531.6424
1429.8629
1297.7179
1196.9636
1059.9882
1291.4084
1659.715
1480.2074
1402.5074
1236.3413
1074.8293
1145.3607
1461.6983
1019.0509
1091.6792
995.4688
879.34982
1194.3333
309.24988
1141.004
820.50436
627.1931
700.91356
594.6763
429.17016
1084.0033
688.39705
828.74819
811.82496
705.23713
412.92066
500.60857
47.48907
310.25204
632.44577
519.7028
356.85248
426.64189
102.18897
82.999062
375.12051
210.78653
99.111136
28.386083
-166.39015
-278.86208
-264.08114
-245.78417
102.90126
-218.72589
-141.25659
-262.15086
-397.38778
-435.74523
-552.95408
-426.23354
-511.39101
-576.73634
-737.71021
-856.51106
-916.55851
-915.63096
-884.29018
-989.81315
-1056.79
-1026.6108
-1345.9727
-982.04378
-1579.7661
-1456.4509
-1319.4673
-1405.6849
-1494.0108
-1430.6026
-1578.755
-2078.5979
-1290.8028
-1034.1191
-1291.6635
-1026.5482
-1464.8242
-1155.1861
-1708.0408
-3914.4935
-3349.6802
-3295.3097
-3299.3813
-3076.1758
-3317.2579
-3599.346
-35714.655
-39217.349
-38645.711
-38477.269
-38820.766
-38281.546
-38577.985
-37451.094
-38602.418
-38343.799
-38406.97
-38207.496
-41282.924
-37537.223
-39332.51
-36038.923
-35610.901
-35728.754
-35412.462
-32293.756
-36532.317
-39066.623
-38799.478
-39326.307
-39011.198
-39568.206
-38998.09
-39808.612
-37910
-33425.603
-36338.687
-36745.618
-35907.699
-36148.292
-36987.479
-34806.532
-41236.05
-38615.236
-38257.786
-41984.624
-38112.031
-39377.751
-38692.058
-34395.581
-35144.736
-34699.869
-30964.34
-34659.384
-34732.176
1221.9193
2018.4075
1895.5686
2039.4382
2122.2803
2437.8964
1531.9995
-268.05696
-369.0143
-146.62798
495.84791
1.0454684
-317.89573
201.73692
778.46914
1255.8487
949.9894
701.89817
1869.2643
1050.795
1972.9303
93.196682
-48.92551
-280.21628
455.94655
-176.05688
-412.41462
-10.10673
1290.3778
975.04032
1501.4588
1206.5345
1749.218
1478.8401
1832.428
-168.28105
-166.84197
-652.71709
-679.08187
-559.2382
-1113.702
-53.451512
1410.2843
881.78589
1277.2305
1434.0346
1390.2555
1557.9384
1654.3908
-111.92342
-245.35946
-637.59597
-509.47856
-676.82003
-634.2051
306.55422
855.9282
509.95683
792.03556
365.33186
1019.2503
222.01529
1221.9371
618.59304
-137.75457
-66.295715
-75.890585
-5.3991889
21.215649
702.77601
388.08763
32.864327
242.69555
44.981767
169.93111
-326.65045
409.35677
515.22122
-49.415374
-278.07591
250.78402
114.4488
446.28805
939.67227
323.3267
-23.599222
163.66785
-240.21085
207.27727
-641.66755
468.71473
313.61827
-181.62153
-432.81086
-19.076401
-77.776486
779.39232
1093.2181
552.84732
-40.012644
-149.45472
94.35213
540.20404
-487.27836
957.53673
319.51697
-191.29636
103.76936
-540.83737
315.96933
-56.695108
546.99955
457.77098
117.7069
78.087448
144.4348
495.44793
-91.382812
1179.0425
598.0648
-168.45168
285.02883
-105.90005
260.52972
-40.513948
840.45351
566.95868
124.44316
298.97935
-97.709546
665.98345
49.498074
1247.4806
793.24266
138.20225
332.64581
200.26089
538.46035
82.844971
1189.0111
801.34924
99.338195
536.22111
55.433382
714.28932
248.25298
1436.8345
1050.3364
466.73813
622.58219
360.95783
870.78294
322.32756
1571.5471
1058.126
297.58975
657.9277
323.77026
877.63876
417.41841
1747.7578
1332.738
625.41374
806.44179
573.49412
1024.8288
685.17927
1913.092
1272.7184
557.16774
854.80821
575.50729
1136.1424
761.21776
1992.6821
1673.1803
707.88712
1072.6686
732.08162
1324.9977
908.99462
2072.8684
1568.8635
743.17954
1002.6268
836.12555
1261.6214
957.61997
2199.147
1703.7811
936.15191
1159.1832
964.43427
1507.9483
1138.1696
2395.0839
1824.6174
857.79149
1270.1473
975.31218
1460.3814
1161.6945
2318.3769
1708.9926
1122.3477
1180.9682
1076.7961
1556.8997
1232.1785
2450.4634
1931.9071
995.47366
1277.983
1136.9291
1577.4069
1265.2339
2459.4266
1827.4317
1108.4231
1275.3592
1153.9988
1526.5802
1303.1469
2446.4022
1881.2971
1124.0391
1272.1559
1186.2234
1569.6412
1316.8329
2404.3607
1897.2648
1131.1499
1235.7929
1244.9607
1431.6961
1361.6046
2407.6504
1895.8803
1185.9619
1303.6012
1221.0047
1414.8628
1419.3754
2215.2107
1852.4394
1211.8765
1239.5618
1157.8102
1537.8554
1665.7641
2452.432
2193.1543
1335.34
1096.6003
1300.1332
1616.1483
895.52934
2356.5575
1795.4185
936.88475
1200.9498
985.73009
1481.4394
1229.5413
2157.0878
2235.0019
1998.8434
1496.6163
1608.6329
1462.9086
1303.5141
2379.5151
1844.2521
725.38464
1005.5322
1129.9104
1286.5897
1553.9412
2304.0269
2522.485
2125.6061
1885.2808
1747.9419
1687.9639
1482.2989
2233.808
2192.6083
1392.3698
1154.7865
1569.1852
1391.1656
1707.169
2238.5794
2008.5116
1148.2331
1469.5315
1187.278
1091.4066
1279.8421
2162.5609
2546.8229
2636.576
1990.8303
2265.663
2042.5295
2538.9347
2088.464
1650.0882
241.11625
489.00924
250.03718
500.33113
476.15966
1395.492
-326.63381
564.21968
351.66691
630.95386
412.95948
745.02603
929.22273
4734.824
3566.1326
3557.2635
3433.9985
3386.5288
3582.8581
3890.0014
1581.1494
6.9180733
-513.40881
-241.18628
-856.96418
169.60333
-1182.0822
-206.40122
-923.19478
-529.85247
-97.788493
-1135.9158
-13.609375
-970.73038
-671.12535
-183.20603
-717.27882
14.449348
-547.39799
16.310108
-285.90394
-10.722969
9.817984
86.073828
2.2462798
116.54171
29.378938
220.21433
173.23415
122.05903
146.6989
118.53398
24.897321
-42.920738
-79.897934
-482.4878
-27.422477
-576.60944
-628.48047
-924.52118
-907.56618
-988.03204
-1045.5491
-770.32181
-584.87374
735.47451
-960.52764
1019.9134
978.32064
-590.35039
-347.11072
1029.8265
-896.90319
677.10101
-29.356537
18.833188
721.63787
-377.56322
481.54568
208.24985
259.61958
631.43285
180.27467
541.58364
220.56431
486.83786
444.58678
505.22233
655.99639
634.6636
775.92623
731.05812
889.01382
1198.0233
1020.287
1199.5807
1229.2154
1326.4741
1292.321
1370.1172
1394.0571
1475.4524
1396.848
1565.8894
1466.665
1844.1935
1524.4566
1954.4016
1736.5189
2053.9884
1610.0956
2527.239
-495.71713
2755.1923
488.52812
-74.331208
-830.70996
269.64719
-828.75789
439.42345
-85.591832
-46.231474
487.75771
33.576983
168.62268
846.00812
-50.722703
153.4626
-173.05206
-115.24792
-14.410697
104.30125
-68.633597
79.06534
-18.149951
-22.782911
-35.344735
-171.76652
-51.862641
-335.14762
-11.964191
-475.74946
-164.23781
-279.70058
-253.05034
-323.5667
-254.03572
-365.87857
-347.1213
-350.17684
-434.49822
-322.95664
-323.37671
-283.41105
-227.15433
-51.639626
-182.12435
570.69877
11.55608
432.68334
3363.1827
115.53065
615.09536
-860.05747
907.29822
-1041.3012
1191.9671
-1533.716
1092.0352
-905.63053
-64.902413
311.59357
-742.1003
44.282349
873.64683
154.55607
537.49459
380.42189
198.82419
293.99222
294.64727
299.50728
308.34499
308.06129
563.97501
652.83339
956.88768
610.53885
918.34633
756.53512
742.23217
734.66473
770.88887
767.66937
720.22764
872.15479
778.74742
943.14658
825.91223
1098.9101
827.01337
1344.0113
873.92259
1666.4806
795.96565
2203.4796
-433.35778
4574.5653
447.64604
-156.72026
59.625349
155.72158
-272.56881
168.19957
-660.22803
1142.5958
-1238.3462
1670.4281
-1018.5494
1122.4061
27.415268
422.23176
130.88575
352.15491
245.29068
539.54302
472.48569
614.71793
525.11284
484.72373
591.98085
354.31623
-31.194996
-483.82885
-274.09201
-410.84859
-420.89653
-342.95491
-296.11155
-328.48516
-332.1543
-233.11041
-170.45999
-214.13253
-93.817861
87.677152
-44.526922
398.74787
230.56853
711.37976
542.90179
1229.3107
1103.9997
1090.5396
3607.1791
280.13467
1343.0717
-1351.8419
1751.5933
-1095.9523
706.46798
1231.8107
-944.3946
2149.8009
-185.22334
-67.167928
881.74413
-1276.1844
630.34724
-524.62928
-116.31206
-185.40529
-249.84562
-155.85894
-267.54136
-259.62585
-364.20683
-252.50916
-492.00818
394.9075
972.46679
962.77008
899.97621
891.66599
807.97817
776.80248
652.91701
572.91024
593.7947
449.16136
324.78417
547.14378
10.304583
394.59862
40.818236
167.80299
-24.867099
234.41121
-161.16854
573.0017
-1009.311
3176.0856
1627.8308
-2130.3141
330.21014
-2949.6562
-602.40716
-1731.9994
-1610.6847
-2123.8702
-677.59496
-2140.8375
-2327.4994
351.20439
-2193.0518
690.03874
-1630.6771
301.28319
-713.75131
-175.80225
-172.67438
-63.501512
64.003731
230.90433
410.1215
311.51347
893.74068
470.5197
-81.638211
193.17579
43.291216
293.66386
343.9432
370.18496
530.88928
658.10436
545.87347
668.39457
704.33585
1191.8853
1072.3807
1412.8801
1598.7221
1999.7418
2210.3302
2996.3894
2876.4068
4135.2832
4586.759
920.19145
1253.9264
1196.6857
1169.6123
1133.4116
789.28858
1066.0176
119.76389
55.415453
-181.33978
-183.58539
-316.54947
-240.62025
195.18571
10.916429
-179.05617
147.74253
-60.131682
76.816574
-12.871301
516.28249
447.51295
78.90222
118.72313
228.07053
79.528156
301.17037
251.56463
28.898368
-293.45203
276.53941
-681.93258
133.81095
-622.95034
-114.27434
222.10162
256.5389
-164.34538
667.39079
242.11489
482.4731
849.25312
53.167473
-656.93598
294.23178
-725.94304
-291.30895
-419.57846
-381.83046
-0.33244008
338.95162
-44.751742
303.28933
440.14949
104.4157
543.35342
77.947989
-350.16324
-5.6463091
117.3393
-58.25456
100.47825
-109.04587
-160.47265
-22.739057
-59.34319
-258.42201
-112.53171
-196.10595
-229.62415
-105.46039
73.736287
-5.7249464
300.38527
325.84246
389.54482
469.00817
77.569036
-132.54057
127.31735
-385.89071
-247.02787
-323.02234
-470.52121
-31.927333
152.24487
-168.61351
127.96954
359.03579
170.44061
367.93802
259.26336
70.604048
424.12602
28.771743
327.38964
-628.02162
34.060335
-38.237409
190.58009
-280.8027
91.188609
-291.61691
281.72134
-127.33406
461.78818
424.77119
134.95695
541.7991
272.21044
86.573956
147.88827
160.98155
99.066604
-62.863958
288.14425
-146.7235
12.167528
-77.144765
335.86761
381.66468
158.52614
458.99414
185.3431
519.46136
328.86604
422.26009
287.77845
82.859022
436.22467
191.88747
212.63148
0.36930451
397.74177
416.74968
160.67992
646.35049
210.65845
534.37441
383.91128
622.32982
436.3903
320.70276
610.4494
319.49552
497.48283
251.05724
562.47957
362.34562
293.8635
688.7627
359.35262
673.97427
389.11439
811.77679
518.31838
576.75275
747.19435
512.58473
574.76852
392.94463
672.90104
341.10246
486.80467
812.05371
543.07475
751.97151
581.47373
1011.9262
497.02946
784.78253
943.927
657.15538
654.57655
483.17495
854.65241
366.37331
843.43906
834.86016
726.96779
645.52048
807.01696
967.93914
439.02268
929.86033
889.39453
705.72208
867.92578
658.74015
1009.6733
491.22474
715.67949
945.68906
770.10161
661.9922
749.59101
842.38367
178.43898
990.03422
940.19182
704.69547
775.31366
813.5454
847.3791
567.09295
855.11643
834.63702
758.89951
734.22871
778.97222
898.82467
265.05118
729.46848
933.43605
709.42509
696.0613
751.62588
690.97572
279.55723
817.73334
816.94744
632.3091
635.58377
722.57478
707.42327
285.69352
647.51492
795.57338
582.62755
617.03086
689.96182
645.41729
92.548601
618.8851
645.5945
482.6057
532.49007
559.1815
403.09868
122.16902
473.12814
647.03617
526.33935
506.57397
474.31349
703.62347
-38.099611
408.79406
535.10591
242.7006
243.19201
216.71129
97.50461
-380.74425
268.1289
241.69478
277.22491
112.52499
710.45247
403.9923
-226.51928
218.09359
630.62569
-111.21249
386.01226
-155.49412
-270.72901
-93.775691
-165.95767
305.64487
-57.625894
-49.489459
214.64266
196.73046
-551.48464
-202.91568
184.85757
-363.16739
68.109057
-232.1578
-265.68822
-147.86848
-206.66328
271.07036
-159.33961
-158.38486
-309.23009
-502.7994
-1153.9467
-984.99525
-376.97995
-1081.3966
-350.19357
-386.42784
272.37647
-65.155101
389.95308
413.78387
326.70889
357.16685
-426.56068
-808.55969
-926.98634
-1337.2919
-463.67591
-1112.2192
-648.38338
-625.13195
43.896342
-806.41031
344.22736
129.79243
62.479566
261.17835
-293.2863
1415.0593
2407.8376
1720.7777
2345.2998
1850.5589
2172.3391
1545.785
599.62992
-577.49273
-32.226993
-248.54856
-241.16345
-313.08446
-428.67315
523.05388
1198.0724
939.86324
1053.0397
670.39543
780.89713
346.19586
-227.27625
-34.338984
-121.14142
175.54768
225.46804
515.18445
447.34742
-0.50336914
-262.87039
-244.10117
-296.79101
3.1040946
-329.048
430.22392
-175.46877
135.71483
70.792211
453.13692
-13.401454
512.42055
-398.97613
475.6067
51.998691
645.44399
133.63058
903.95033
78.607216
801.72735
115.47005
34.494923
-699.90245
35.415015
-839.69981
-132.37107
-346.19037
622.74487
-101.90498
719.06824
200.43524
599.73939
597.03496
144.04338
382.47181
255.72686
-485.10924
89.111765
-171.24326
-117.13146
-3.708045
668.63071
-329.08443
70.924643
120.34596
-446.29389
159.69494
-489.46555
580.93714
49.789601
103.78518
54.767073
400.06362
202.27515
480.11539
810.7484
-147.1754
-138.6479
204.30149
-512.9809
-64.586127
-605.33978
633.72055
-188.25949
-137.3687
-120.01331
139.64787
61.507488
257.41614
769.00187
-199.92024
-163.22148
604.61191
-174.5034
403.53911
-218.59909
451.16168
-600.7384
-120.46382
-171.02791
-437.41903
81.489189
61.483396
490.61548
-155.51456
-4.5110967
192.46965
253.29354
278.25021
445.76573
555.92589
-765.24411
155.80859
-186.61119
-84.848882
-50.194704
-0.36532882
326.57093
-239.1054
85.297161
-18.595241
241.18861
114.23569
543.96019
640.30387
-352.02872
123.48933
55.713002
72.700183
102.49568
237.29002
469.08882
-370.27684
193.09614
-62.517198
281.04414
72.699073
387.56114
717.22685
-177.98629
201.46609
178.55542
213.6382
95.699948
478.38682
511.45422
-415.79875
227.17171
8.715403
251.69423
235.6392
435.06675
657.66418
64.459214
335.58394
232.11995
473.95983
129.24991
553.18662
523.34919
-242.2872
144.30492
214.37661
174.67007
276.8943
631.13109
749.42598
51.12467
391.49787
218.66918
333.72664
572.05925
752.57181
492.06366
-33.587609
322.27401
95.128719
260.06316
374.25133
507.74492
664.30596
185.75346
211.50563
391.53781
25.533681
759.62276
897.64866
550.16901
39.630201
343.73765
-122.00482
653.96093
427.6409
827.76031
704.2592
-271.34526
517.78859
349.97329
288.76938
729.59691
819.73678
543.31804
277.76578
742.3954
-14.704825
344.01336
823.30289
674.26367
782.47243
235.27909
341.05676
166.8865
463.9732
803.08369
699.28201
686.49561
1.5015858
533.5086
221.93643
357.27989
787.60243
735.1753
648.73049
286.21141
583.3563
293.35266
357.18735
949.91974
730.08205
816.24291
172.96134
540.22432
172.06449
401.49134
910.02837
683.547
659.02448
280.16211
553.85908
403.13558
459.33708
950.66569
697.39295
872.29738
277.63228
617.55977
381.74684
305.91832
917.87527
766.31413
644.45506
198.96993
633.86075
349.52826
401.18928
1049.9377
718.53621
978.57077
740.96163
678.63504
681.00837
248.90501
1302.8729
642.01585
897.51764
-300.92097
783.42539
77.745297
596.31836
1009.259
719.21514
1451.5198
1058.8148
1191.6899
914.71085
515.69088
1329.133
758.30977
1045.4055
-538.31736
844.69685
-14.807792
597.0208
1161.8955
797.38138
1492.6901
1229.3673
1483.6676
1142.4332
870.28658
1359.7692
861.50497
1568.3237
-134.08151
1118.8794
255.90148
597.86985
1300.4609
967.90057
1688.4414
1396.0081
1894.2041
1401.8688
1589.0356
1746.9891
1125.387
1111.8858
366.76358
917.69767
461.9029
314.64372
518.74999
603.1022
2842.0001
2456.4744
2893.6619
2412.5121
2591.7162
2999.6945
2638.0982
162.62446
-278.20195
-372.54849
-666.63529
-630.65421
-816.33625
-1169.597
2788.853
1617.1408
2201.7337
1769.4065
1973.2306
1913.4096
2543.1715
570.14048
944.88699
760.84792
738.22772
642.15555
613.4533
405.77472
-277.78723
-356.61717
-367.40487
-427.70145
-177.08312
-398.05264
-40.154592
214.19523
-278.82415
-215.75442
-314.23347
-334.98186
-456.11785
10.015861
-30.397937
123.68123
592.55308
775.40385
757.53796
939.87035
408.08399
633.18474
103.73491
198.62406
-778.33442
-280.493
-1109.8335
-57.097421
256.85292
-418.12133
-50.888096
-8.6732353
158.09534
531.23009
227.23471
253.84661
-11.820732
698.74583
269.55585
716.6469
-115.98569
339.39978
302.61623
-175.58511
-110.06051
-379.59282
-442.07716
-301.40584
-164.69735
-93.516828
-88.900019
454.55392
401.66502
941.4747
359.44306
444.901
425.52073
150.09736
143.76226
-0.72052333
-171.184
-260.59781
-140.24958
-160.84458
-139.88066
222.29502
45.68959
397.91953
12.687445
137.56995
417.67553
226.19883
350.75216
328.92607
390.68032
259.15208
297.08707
79.30333
-194.7415
608.73536
-76.489323
243.99423
-308.40878
169.00191
411.50374
347.78234
963.76743
146.47949
786.18536
172.87989
483.12861
892.53587
235.02481
420.2286
375.92041
67.156778
235.70553
103.77833
807.61027
483.46918
599.41362
513.31337
493.42617
288.41676
468.54061
1125.0355
379.83596
503.61374
674.57715
84.807613
356.14819
232.45959
950.49343
202.10956
693.68907
497.90842
282.3857
472.84221
427.41127
1195.4041
485.02011
612.07896
610.31755
229.1871
395.31463
284.3499
987.97932
176.55723
594.60252
580.85734
182.96017
541.86046
388.64603
1250.8966
497.57774
761.03727
638.68501
311.56548
436.97444
321.39763
1240.4714
143.35582
578.99775
677.95566
33.220674
522.00535
367.16235
1423.5788
261.71008
959.88017
416.63969
314.71485
562.87918
344.06177
1260.7791
184.14356
783.66912
555.34576
525.97568
382.65506
82.700755
1465.9425
116.03138
905.98236
629.64463
576.93947
356.37461
370.73881
1394.8271
53.723053
1050.1217
295.91574
729.30514
344.62663
-84.510806
1538.6301
131.67771
859.77475
431.78661
997.93126
211.43711
354.38473
1283.6516
118.68816
853.53345
657.83508
671.68488
208.75246
115.86876
1487.1084
370.7775
1038.0229
320.00885
979.75084
264.90559
192.31469
1439.7027
112.71279
604.91114
430.95737
890.63377
37.384849
165.56704
1343.7823
151.77302
923.25188
609.7991
888.12438
230.9064
213.80163
1435.8648
216.34324
818.11849
298.25602
800.56833
88.621259
71.194968
1357.6494
187.94233
691.2411
492.56675
892.18384
147.33528
125.92278
1401.848
140.3029
749.16729
427.51698
705.03866
51.458666
116.33516
1281.3445
114.48666
719.33019
356.29521
734.10405
244.37909
-20.749436
1486.2334
399.09433
806.30716
358.01217
846.29422
58.938161
67.568425
1183.3516
-77.895595
419.29522
327.91083
714.38428
132.40646
7.8416125
1501.0685
508.94455
971.43031
514.98123
839.28067
124.69991
-71.471884
738.89509
463.50745
226.97901
470.39983
564.95292
180.28351
2.0198194
1124.8697
360.83648
483.55004
475.24814
705.92666
306.07826
0.29231906
994.53847
1381.1076
646.07231
1122.1648
773.07799
389.32502
-130.68876
794.14137
-31.427337
-80.762422
165.63518
187.98957
358.87322
148.4887
999.99368
1518.1784
965.10712
1427.4313
1012.604
899.63545
-266.19698
757.3247
329.26608
-144.21493
281.97902
-84.697758
265.40319
245.61295
1031.3724
876.1034
518.68995
1099.1963
521.4031
1520.7679
243.48854
469.32963
129.17684
62.78214
408.81532
-107.74338
419.53582
-933.10092
2156.8421
1991.3836
2009.6711
2047.5872
2097.9156
2359.6759
2286.8136
141.1115
304.6818
167.66582
257.93904
136.84261
196.23219
-78.824396
-103.68601
94.152178
223.84792
477.08866
457.70824
602.32415
679.96419
-189.10705
-739.10221
-810.73006
-816.81665
-768.86535
-720.28685
-732.42693
190.70013
582.61144
978.28491
1137.4873
1177.9458
1149.0434
883.08855
-3.8870539
-569.30193
-851.2056
-1347.5848
-1360.2528
-1332.8507
-718.35421
364.65896
345.78572
532.82795
1014.6973
1163.6784
1106.6595
897.84045
-13.712667
-394.97681
-765.55282
-819.2198
-986.17582
-1173.6189
-535.71161
153.30428
240.67038
183.60102
549.7268
317.22542
1080.9785
600.70876
253.55137
-246.97205
213.3345
-727.77172
390.97101
-637.8583
-1.0189668
-150.11857
165.4356
-438.65006
40.023467
-314.24622
348.54018
367.72094
269.00548
-668.35508
855.52575
-364.67973
733.51245
446.49545
57.556544
-197.03362
182.20995
-46.941615
-819.46284
146.4209
-280.26159
587.56274
77.929625
-710.68388
203.65798
-213.47288
646.19299
187.58391
-231.3864
-247.74193
-112.16225
-194.29077
-348.52628
-431.94464
91.825916
118.54992
-277.98113
-827.80732
374.56531
-664.26657
303.04635
-65.926811
-61.740084
-201.57228
-569.28123
28.235603
-357.60822
-320.81683
59.813971
-134.74315
-342.6315
-1063.7379
150.52288
-644.90534
-97.04572
58.253672
-55.606913
-177.60454
-492.39886
176.58492
-468.86633
-208.56339
49.921293
-114.42842
-429.3732
-964.55795
65.470315
-725.59723
-115.20416
90.607703
-151.83516
-168.08692
-582.29121
177.42482
-522.00053
-19.053238
-88.401987
-106.45711
-353.96707
-990.05093
67.444269
-670.76275
-252.31545
22.705518
-106.89753
-212.21499
-675.56499
244.11316
-830.38002
-1.3878276
20.091719
-135.45435
-410.3528
-706.25203
-239.00399
-550.68718
-62.109334
-43.69754
-259.01164
-185.19519
-707.94229
-200.03159
-417.78263
-392.50499
-85.813919
35.44531
-265.59776
-862.92222
-15.34927
-789.46797
-738.62569
0.46575083
-374.96515
-156.48726
-667.58842
-315.25592
-558.32259
-543.34782
-145.50356
121.99641
-359.14972
-904.47088
-225.4346
-522.82421
-886.00897
-218.30626
-321.32359
-270.79308
-920.23718
-70.970007
-785.55637
-578.06243
-262.56538
-83.743463
-243.5815
-935.30136
-369.72279
-614.47274
-993.03162
-392.75754
-161.23111
-465.33533
-1085.5625
-321.3443
-643.87862
-780.14986
-210.02692
-183.76444
-432.63819
-963.62488