/*--------------------------------*- C++ -*----------------------------------*\
  =========                 |
  \\      /  F ield         | OpenFOAM: The Open Source CFD Toolbox
   \\    /   O peration     | Website:  https://openfoam.org
    \\  /    A nd           | Version:  6
     \\/     M anipulation  |
\*---------------------------------------------------------------------------*/
FoamFile
{
    version     2.0;
    format      ascii;
    class       pointScalarField;
    location    "0.27";
    object      p;
}
// * * * * * * * * * * * * * * * * * * * * * * * * * * * * * * * * * * * * * //

dimensions      [1 -1 -2 0 0 0 0];

internalField   nonuniform List<scalar> 
3969
(
771182.55
-1237504.7
16.567095
725.28455
1531006.5
-2485974.8
934.59634
-484.00887
660137.18
437429.42
216794.2
-25756.775
-214412.48
-481054
-532017.35
-610.30926
-1460.6721
-987.79885
-246.631
698.25337
1194.9682
1013.4882
260676.2
291568.69
286314.07
300905.36
296855.26
300033.13
295383.8
291618.61
287204.22
280689.35
276218.47
270598.1
263812.63
258076
252436.56
245730.88
240406.27
234026.88
227991.29
220903.57
214035.15
206239.47
198256.63
190134.24
180410
170940.44
161017.51
151348.19
141553.91
131090.04
120458.14
109440.56
97851.731
85971.287
73999.361
62341.75
50665.79
40520.529
30888.572
23187.689
16639.738
11606.527
7477.7613
4849.9363
2043.4461
791.44485
445.53592
-275948.66
-241164.28
-289357.16
-264477.68
-292895.38
-275373.73
-283681.36
-271455.9
-273460.81
-264829.87
-262367.86
-257884.9
-250634.17
-248260.57
-241447.27
-236188.78
-231078.59
-223953.48
-219146.81
-212174.23
-204761.15
-199158.83
-190068.32
-183491.78
-174570.63
-166088.93
-156757.97
-147247.96
-138139.74
-128055.55
-118906.13
-107824.17
-97312.81
-85766.818
-74702.14
-63568.815
-53392.645
-43295.064
-34561.294
-26629.277
-19952.041
-14693.637
-10242.653
-6635.1746
-3582.4206
-1532.1295
-84.875942
1149132.5
848484.9
371848.48
-62422.47
-409812.9
-878922.82
-724115.65
-328706
-372461.34
-237107.59
-344668.93
-296209.15
-314350.92
-300789.76
-304049.27
-290696.37
-284107.24
-294761.38
-277086.24
-282818.89
-273011.95
-268344.87
-262785.91
-254958.72
-249116.03
-241201.39
-233228.99
-225942.73
-217625.75
-209150.11
-200001.05
-191414.2
-183483.65
-173150.34
-161430.83
-151978.07
-141008.16
-129308.27
-117448.86
-104742.8
-91816.944
-79106.889
-65808.455
-53468.968
-42089.942
-32477.688
-23964.617
-16772.809
-11417.579
-7075.191
-3943.8342
-1747.3849
-201.42799
715.34888
1380.4285
773.44983
1245.0955
-957.16725
-1251.4691
-1075.8077
-864.61541
467.81278
762.74274
2910.9174
6223.6711
9923.8756
14495.184
19819.065
26193.507
33976.812
42368.26
51548.362
65910.861
76503.357
88638.128
101427.29
113643.55
125365.38
136732.01
147117.89
157526.52
167715.57
177036.44
187106.94
196902.86
206326.38
215792.74
224540.56
232329.4
240418.4
247010.63
254107.18
258152.04
260578.16
272700.66
285783.7
278518.48
291753.87
289905.62
294409.31
308108.15
315270.02
304477.5
320871.96
304334.1
300056.83
314381.09
306392.31
688023.51
739698.11
776693.12
768812.28
763632.15
765004.12
625179.05
-967661.18
-1221777.1
-1403370.4
-1493549.7
-1416412.1
-1408988.1
-1078342
1138.5507
1286.5573
1501.3382
1306.0619
982.60026
259.85443
875.89709
64.883295
-358.61747
-932.06041
-1447.2319
-1339.5648
-1248.9019
-981.70716
218281.5
226251.08
229172.74
232153.65
231591.72
231362.63
227053.91
227237.99
220500.75
221154.57
215406.82
210527.2
208884.34
204523.6
199622.44
195032
190569.42
185217.87
179771.99
174252.81
168555.57
161930.47
155359.57
148223.13
141463.91
133313.86
125320.12
117495.39
109176.85
100725.88
92318.521
83547.592
74722.87
65724.448
56803.334
47852.201
39293.105
31230.974
24127.687
18166.758
12828.497
9032.1733
5844.8455
4047.3482
2290.7916
1377.4076
634.19716
132800.4
134655.65
136649.61
143581
145705.53
150899.7
147838.7
147089.98
145154.73
143877.36
140639.92
138806.76
134545.48
131130.42
128631.61
125127
122157.03
118517.72
115246.68
111584.83
107285.92
102926.31
98368.338
93976.628
88870.506
84341.78
79707.148
73802.831
69211.064
63859.974
58755.913
53584.117
48315.341
43016.623
37646.584
32230.597
26728.881
21814.908
17093.017
12976.992
9358.037
6748.5448
4525.6103
3346.1547
2004.353
1258.9685
530.16712
58318.685
67280.239
63532.349
68611.056
67018.925
71245.474
69499.135
71730.426
68900.264
68389.556
67652.602
66137.863
64308.998
61712.033
59006.584
57798.204
56441.989
54835.328
53673.913
52084.073
51173.416
49906.935
47931.141
45665.068
43686.673
40872.287
38133.098
35857.672
33284.473
30638.06
28115.937
25604.697
23048.224
20472.141
17845.554
15006.191
12248.561
9606.4863
6829.4411
4980.8629
3212.799
2239.2532
1365.6966
1097.7481
919.57861
335.80455
280.58038
-10295.409
-11628.001
-14814.706
-10833.982
-16170.882
-13036.399
-17108.522
-14620.481
-15015.143
-10246.271
-12636.713
-10136.753
-11645.712
-9717.8924
-9685.4627
-8554.34
-9004.2808
-8489.533
-8443.8327
-8547.7906
-8446.379
-9498.5339
-10969.468
-10598.006
-10255.082
-10314.566
-9882.8846
-9565.9205
-9184.9503
-8573.7106
-7756.8943
-6736.0436
-5750.5018
-4640.6923
-3638.7959
-2833.9381
-2285.5384
-2024.7662
-1610.0165
-1179.5688
-1180.696
-1082.7584
-892.19794
-430.91219
-69.770349
-117.95988
210.4876
-90904.022
-80567.832
-82152.969
-85500.11
-90548.519
-88992.893
-90471.349
-88520.645
-88228.37
-83772.674
-84668.718
-80149.12
-80712.965
-76416.971
-76167.718
-72996.3
-72099.634
-69548.746
-67881.189
-65904.21
-62064.62
-57095.872
-54147.68
-49360.913
-48059.397
-47051.444
-44085.491
-41320.363
-38922.123
-36025.005
-32862.175
-29587.915
-26139.356
-22617.292
-19229.503
-16253.036
-13840.638
-11320.798
-11263.841
-9355.9311
-7629.7264
-5871.7008
-4225.9504
-2735.6063
-1346.0168
-998.60443
31.049153
-167028.8
-155878.53
-157399.99
-168333.67
-171545.29
-170682.83
-171312
-167099.57
-167432.65
-160730.31
-161177.54
-155612.48
-154438.25
-151284.98
-148487.21
-144289.84
-141342.45
-137353.25
-133820.18
-129826.27
-123941.51
-119745.74
-110618.57
-104336.52
-98320.673
-93351.089
-89077.081
-83697.103
-78434.476
-72889.242
-67304.132
-60988.347
-54634.553
-47941.38
-41542.252
-35222.992
-29332.636
-23953.561
-18897.199
-15086.78
-12146.422
-9299.8477
-6779.7012
-4553.4586
-2732.9148
-1412.7319
-28.862952
-270684.24
-194065.15
-229996.74
-231268.79
-242183.66
-238450.86
-241172.67
-236437.52
-237105.68
-229204.83
-230150.52
-223308.13
-219895.91
-214961.05
-209723.13
-204527.36
-198860.3
-194368.45
-188312.26
-182716.87
-176882.39
-169610.09
-162990.38
-156462.38
-148879.5
-141968.37
-135984.92
-127054.84
-118710.22
-110175.03
-101183.73
-91684.082
-81833.772
-71853.048
-61978.705
-52256.633
-43372.039
-35482.624
-28609.866
-21924.575
-17081.875
-12764.699
-9320.0905
-6296.1787
-3865.9537
-1781.2718
-766.16067
500127.84
482197.79
504697.32
504361.32
506408.03
493386.54
466119.45
329767.86
362452.21
345505.4
352418.45
355943.26
347833.01
345098.31
161526.89
193828.16
164356.77
180904.91
171426.3
170466.8
182165.51
15438.944
-6411.4134
-12833.164
2432.8404
-3578.5328
-27550.191
41569.971
-124309.88
-123800.28
-133524.18
-117339.98
-123366.78
-120041.57
-70888.56
-347192.9
-375341.49
-367023.91
-377090.68
-384028.21
-379068.34
-350820.52
-429557.99
-390616.64
-342219.01
-351255.34
-331056.8
-305544.2
-340996.09
-446876.31
-459727.11
-518276.23
-535398.24
-546913.95
-538384.73
-415966.38
-351656.84
-404241.13
-406562.63
-413365.51
-432873.43
-413419.98
-378789.83
-292387.27
-326736.08
-345437.19
-347161.52
-346608.72
-323136.9
-341475.2
-299312.95
-328476.57
-320955.03
-341021.65
-329116.39
-328285.26
-306971.75
-301744.18
-316957.51
-326350.86
-328069.71
-329109.14
-314818.84
-319031.27
-298320.83
-294005.09
-299894.06
-305773.06
-305820.51
-300141.71
-296610.03
-288919.6
-296949.55
-300280.36
-305139.06
-302252.01
-302836.04
-301191.67
-290250.91
-285950.37
-287423.32
-290196.02
-287612.24
-289218.28
-287511.74
-282020.99
-284338.3
-285278.63
-287756.97
-289130.41
-288648.24
-289820.23
-281636.8
-277609.78
-276124.31
-279040.67
-277933.69
-275698.49
-276772.44
-274820.91
-275064.04
-272454.04
-275347.15
-274144.21
-271322.61
-278677.51
-268393.61
-268063.43
-266136.26
-270400.88
-268501.6
-263430.26
-270423.44
-265540.43
-260045.67
-263496.42
-262148.62
-263874.67
-260674.51
-267497.5
-257150.57
-255114.65
-258506.11
-256790.93
-259396.25
-254093.27
-259732.9
-253789.89
-248975.19
-253711.71
-250481.71
-253145.11
-249071.78
-255185.43
-246903.08
-242432.09
-248266.75
-244446.23
-248885.57
-244117.55
-249774.68
-240708.12
-237990.4
-242878.72
-238969.43
-243553.28
-237995.54
-242914.91
-234927.75
-232029.87
-237577.64
-232862.72
-238438.92
-231727.91
-237840.68
-228431.73
-226354.46
-231609.41
-226420.94
-232221.26
-225242.53
-231758.91
-221507.73
-219834.71
-225085.94
-219865.41
-226285.5
-218815.33
-225568.05
-215044.95
-212666.27
-218049.26
-212634.87
-218973.54
-211515.52
-218133.73
-207045.42
-205187.01
-210398.01
-205220.19
-211580.26
-204054.76
-210852.33
-199496.24
-197129.58
-202533.25
-197212.89
-202752.26
-196278.91
-202358.75
-190725.65
-189641.19
-193573.19
-188329.44
-194699.34
-188461.78
-194657.36
-181927.97
-181922.47
-182525.99
-181122.74
-184839.91
-180459.33
-185770.53
-171914.38
-173452.49
-171602.68
-174607.92
-175633.26
-174213.18
-177783.33
-165220.01
-164470.4
-163926.69
-165275.82
-165948.76
-163835.3
-168410.7
-156465.5
-155195.88
-155066.31
-155763.94
-155830.97
-155378.1
-157347.94
-146533.51
-145204.99
-145446
-145272.75
-145243.57
-145694.51
-146789.22
-136809.77
-134960.14
-135780.57
-134944.04
-135414.79
-135287.63
-136199.58
-125832.61
-124706.77
-124686.89
-123863.2
-123913.96
-123673.66
-124727.16
-114901.65
-113035.02
-113155.59
-112047.55
-112088.08
-111827.54
-112920.89
-102624.5
-101031.69
-100840.41
-99656.662
-99562.704
-99388.964
-100222.46
-90363.831
-88501.341
-88162.078
-86773.089
-86523.919
-86508.358
-86897.801
-77699.484
-75801.276
-75198.506
-73652.204
-73323.127
-73953.375
-74056.152
-65297.431
-63334.15
-62540.42
-61153.552
-60970.627
-61077.276
-61275.04
-54030.217
-51717.837
-51040.627
-48924.183
-49051.669
-49990.137
-49441.534
-43262.955
-40941.701
-39495.396
-38341.076
-37553.377
-38999.921
-38719.322
-33549.206
-31329.964
-30385.695
-28905.402
-28738.26
-30106.68
-29678.42
-25819.496
-23536.717
-22600.811
-21151.866
-20859.609
-22135.179
-22181.056
-18813.902
-16949.121
-15709.468
-14476.415
-14354.887
-15535.965
-15781.183
-13630.138
-11837.41
-10612.12
-9660.8133
-9502.5261
-10296.391
-10883.643
-9204.2776
-7289.809
-6178.5121
-5287.123
-5168.7296
-5803.4729
-6625.0808
-5736.6627
-4030.042
-3196.1877
-2397.4293
-2415.3099
-2766.2046
-3576.2732
-2789.3607
-1162.4379
-411.55952
303.99578
216.03463
-107.53121
-754.5248
-749.1563
458.86894
899.61004
1387.9389
1103.3853
836.58273
359.9339
417.53427
1453.7288
1940.328
2135.0883
1867.8036
1407.1681
1320.3087
-371.14426
-125.27789
-398.45326
-959.32051
-1483.7545
-1866.9687
-1641.12
-1994.3817
-1226.2984
-1633.4061
-2280.0761
-2458.4559
-2720.6651
-2112.3593
-1230.2534
-735.54594
-1136.9298
-1727.4221
-2010.76
-2324.0263
-1803.9817
51.176678
436.07656
214.56345
-144.98303
-240.37575
-750.61192
-141.10238
1361.5289
1811.4637
2078.5857
1657.5441
1549.1411
1282.0435
1178.9334
2182.5535
2832.263
2477.6436
2100.219
1877.8037
1299.5749
2071.011
2283.0613
2695.4991
2877.0717
2617.0239
2172.5955
1962.8851
2118.3646
319044.34
314785.44
359037.36
350833.18
362161.94
343618.42
332886.75
334150.63
342449.37
358933.68
356834.74
364206.48
341803.81
336396.25
325448.32
327758.79
338651.12
339794.64
340140.49
324264.02
322774.05
310344.26
317657.66
327848.41
329407.95
329080.65
320404.2
323005.12
310945.49
312297.65
315690.14
318294.23
318050.79
313456.16
310016.87
301296.4
301769.58
308916.05
305623.55
308910.01
300634.9
304567.25
300235.39
299647.2
301573.15
300483.65
306549.38
300105.4
306490.98
291436.84
289869.87
295978.14
287688.38
294449.94
290152.77
294001.74
289168.44
289689.04
290178.44
288727.02
293386.53
287638.39
295825.68
284987.04
280705.06
283729.18
279090.16
285136.12
279372.94
287857.89
279696.63
275914.26
281575.76
275713.65
282023.17
277507.4
283108.37
272209.82
272020.34
273595.09
269437.6
274221.58
270187.43
277296.36
269430.54
265144.98
267460.22
264588.45
268916.24
264781.03
265039.61
262707.62
260189.51
261657.06
258603.49
262072.55
259922.99
264269.95
256402.4
254797.41
253620.42
254149.84
255784.62
253664.59
258395.14
252662.02
248070.99
248797.79
246883.96
250590.91
247189.86
250898.82
245434.01
242589.11
242382.03
241988.04
243305.54
240737.69
244467.24
239312.75
235795.35
236977.49
235021.35
236935.44
234741.31
237641.33
232104.38
229621.24
230202.44
228409.62
230332.4
227911.28
231038.39
225518.01
222231.22
223245.95
221419.07
223161.01
220671.04
223673.86
218072.98
214445.4
216119.77
213830.44
215678.6
213099.62
215989.74
210015.87
206542.98
208298.26
205828.36
207475.22
204597.27
207770.64
201577.1
198127.84
200361.39
197556.24
199028.52
196314.81
199380.07
192330.58
189681.25
191385.07
188589.63
189810.89
187054.14
190201.27
183358.65
179870.68
182381.88
179221.14
180606.98
177850.31
181280.17
173855.08
170400.96
173243.98
169845.18
171266.92
168566.42
171722.74
163854.52
161155.95
163483.2
160397.56
161674.01
159032.66
162667.88
154260.1
151637.47
153811.99
150916.05
152395.64
149692.51
153380.55
143738.49
141528.22
143942.76
141070.69
142322.73
139497.19
143444.7
133327.46
131811.49
133450.69
130979.77
132150.76
129479.15
133480.3
122472.42
121024.75
122632.62
120368.9
121449.45
118631.14
122724.6
110912.88
109789.24
110944.29
108919.84
109804.19
107186.07
111378.5
98930.07
97891.532
98890.211
97108.344
97794.775
95657.426
99577.275
86450.022
85565.108
86217.851
84630.949
85222.566
83442.136
86763.314
73979.476
72987.778
73300.486
72072.53
72285.94
71758.749
74504.551
61234.656
60554.013
60830.965
59727.955
60370.282
60086.296
62099.925
50107.831
49283.956
48678.605
48212.563
48332.221
48563.761
51238.662
39099.151
38345.956
37937.17
37542.517
37910.801
38503.192
41075.587
29454.054
29167.02
28194.823
28423.463
28671.106
29905.734
31896.6
21763.703
21408.302
20580.295
20925.62
21040.334
22511.311
24547.058
15263.462
15078.2
14236.004
14517.023
14851.287
16401.689
18248.298
10342.206
10266.543
9326.3193
9625.7093
10096.468
11274.471
13283.192
6476.358
6083.4307
5227.2166
5551.5244
6115.0572
7091.5347
9082.9428
3762.0984
3514.9568
2683.0087
2885.1236
3443.7174
4031.3992
5679.8905
995.37266
279.92419
-404.26687
-214.66773
297.39052
709.47143
2402.1246
195.04928
-100.05524
-650.2452
-478.43535
-471.60208
-164.60443
645.93847
-339.8838
-1005.614
-1465.411
-1464.292
-1299.797
-443.01963
221.02983
313061.77
249068.47
241266.63
242053.29
248632.46
252468.51
242579.1
243511.23
239904.92
238278.28
231116.85
228641.97
222888.91
217026.3
213732.36
208554.96
202056.4
196744.61
190910.97
184879.07
178500.58
171734.9
164980.24
158110.77
150825.48
143554.78
135270.97
127201.3
118761.48
109778
100637.12
91186.429
81547.41
71912.585
63018.057
52531.136
44486.074
37426.343
30172.499
23733.857
18368.707
13438.056
9393.6445
5984.8328
3387.0825
1826.5197
300.9264
181786.37
189196.58
138328.89
165401.93
182484.02
171568.93
179502.48
170896.07
173364.78
167391.43
166783.32
162801.38
156725.9
154834.68
151242.01
148950.25
144399.2
140169.44
136565.35
131832.53
127265.12
122531.87
117486.39
111994.91
106396.59
99671.936
95917.526
89229.517
83798.462
77737.361
71731.99
65371.186
58941.722
52516.218
45425.829
39370.261
33453.734
26762.948
21683.453
16411.374
12568.822
8865.5102
6100.2235
3897.5612
2107.7687
905.41451
252.77716
87128.535
107829.76
56003.254
96221.005
78957.894
74782.028
76592.269
74085.462
73380.151
70585.127
72942.683
70660.025
73831.988
71992.42
72959.771
72573.318
70240.289
68556.802
66843.274
63597.892
61305.149
58610.102
55986.191
53473.779
51063.316
48896.461
46482.11
43123.507
40667.656
37375.396
34193.05
30769.905
27480.37
24064.683
20976.595
18327.581
15820.125
13562.167
11546.706
9966.151
8392.7087
6582.9302
4987.0184
3288.2073
1838.5167
735.94541
-324.99532
-12927.047
20208.074
-9279.816
14956.896
-3325.2887
8139.074
1698.5353
-4459.8671
-813.65174
-254.55713
-1719.9405
2126.386
226.25967
6591.956
7798.7772
8419.8193
8079.3646
8101.515
7767.9373
7008.4848
6999.6164
6618.0161
6469.9047
6277.5047
5884.4582
5434.6307
4971.8868
5031.1797
4584.9962
4327.6924
4008.7987
3808.0122
3489.8828
3293.4082
3151.2352
3051.3021
2872.4129
2870.3845
2710.8475
2605.7089
2122.1671
1554.8621
961.10752
312.4602
-197.01457
-519.4127
-590.13526
-138893.85
-66027.761
-79808.461
-53105.207
-77127.374
-59970.784
-74874.278
-68944.699
-66703.722
-67762.734
-62178.197
-65899.402
-60934.484
-63764.766
-61468.345
-60543.08
-59147.891
-57961.972
-56580.55
-55480.271
-54119.444
-52705.283
-51007.179
-49274.965
-46718.508
-45257.071
-41841.981
-39286.365
-36662.522
-34025.696
-31358.953
-28634.659
-25652.651
-22585.907
-19584.939
-16387.831
-13087.314
-10048.281
-7305.2277
-4909.5774
-3048.7669
-1713.715
-1032.6784
-552.99263
-630.47197
-237.84328
-635.25554
-217597.04
-160704.66
-136578.55
-140543.91
-151405.78
-146128.11
-155374.15
-142697.72
-156211.5
-152592.9
-155585.96
-150844.77
-148193.12
-146412.62
-141498.94
-138421.44
-133979.82
-130039.34
-126042.03
-122513.14
-118580.03
-113874.37
-109103.75
-102160.95
-95094.031
-87985.318
-83528.447
-77777.412
-72477.639
-66864.641
-61600.528
-55808.04
-49960.607
-44045.15
-38060.274
-32108.385
-26145.206
-20587.614
-15873.32
-11330.917
-7956.4319
-5394.9321
-3458.6185
-2474.3725
-1622.2056
-1289.9456
-299.23995
-273134.04
-209491.75
-217730.42
-210163.37
-236694.37
-229297.2
-237706.45
-230945.14
-237053.28
-230002.67
-225807.15
-225054.08
-220085.62
-216276.27
-211877.16
-207855.58
-204066.3
-199078.26
-195249.44
-189795.9
-184452.97
-178311.97
-171694.94
-163766.38
-156752.97
-143449.8
-135527.01
-127108.89
-118494.87
-110139.04
-101294.46
-92155.227
-83220.77
-73439.205
-64237.824
-54658.545
-44932.891
-36759.637
-27956.272
-20833.958
-15007.94
-10037.335
-6817.9316
-4195.2182
-2798.1018
-1183.5358
-1048.2205
372643.98
411951.73
402112.36
418870.79
414063.25
393317.18
367151.48
269538.25
313360.17
308607.43
317600.65
308513.57
295736.88
272679.32
253921.8
279405.65
288405.84
294913.24
285966.5
285402.73
272095.25
246570.8
257628.11
259136.67
267414.82
255707.86
261085.18
237441.7
241242.66
250913.57
256528.71
255413.09
253764.26
250398.59
235806.29
237936.03
249805.78
241126.71
251924.38
242262.02
244657.13
242753.38
235602.6
239029.31
238013.6
240505.92
233083.49
238625.68
233981.54
230607.65
242756.23
232099.45
240702.17
236064.51
235375.28
233632.69
231706.65
232747.12
224525.18
234338.08
224997.45
230703.7
228097.99
224492.41
229422.93
225771.41
231787.55
223587.06
229228.97
224675.86
221038.07
227222
218896.72
224478.97
218721.91
222081.71
220651.82
220909.2
220324.17
216970.64
219864.92
216910.48
217363.66
214655.38
214393.37
216613.03
212420.09
216952.11
210882.55
213680.9
214478.15
210702.67
210461.76
208460.79
212112.8
206361.17
209230.23
208335.24
207276.94
205995.43
205851.52
205215.94
202555.56
204844.11
202542.01
200789.11
201110.29
200816.98
201798.39
197661.36
198666.63
198630.82
196118.94
195894.78
195585.36
196493.26
192855.78
195072.81
193847.68
190759.8
191041.36
190839.72
190625.45
187958.7
189186.44
188478.43
185294.09
186001.73
184818.98
185556.65
182754.92
183721.86
182679.03
179515.69
179954.06
179367.59
179600.12
177075.48
177992.5
177140.22
172265.18
174575.07
173041
173514.92
170967.47
171868.05
170728.65
165729.45
168233.55
166341.67
166679.13
164558.73
165444.96
164517.93
158334.44
161533.32
158747.02
159656.14
157588.11
159053.49
157324.15
150842.86
154033.69
151218.3
151927.16
150682.14
151650.08
150139.51
142347.83
147304.78
143162.14
145261.32
143205.49
145230.73
143224.64
135254.96
139162.14
136163.75
136668.29
136350.33
137182.98
135925.67
127788.7
131099.18
128193.63
129208.24
128880.51
129792.64
128511.93
119321.68
122399.26
120443.12
121139.36
120602.87
121708.74
120503.59
111014.46
114842.84
111941.78
112805.31
112828.78
113874.69
113096.37
102876.24
105517.78
103697.89
104394.77
104542.62
105411.1
104867.21
94017.889
96490.219
94674.798
95361.934
95492.428
96552.781
96241.139
85039.532
87022.109
85753.118
86260.536
86572.748
87636.69
87518.197
75790.498
77375.574
76180.617
76613.15
76991.892
78177.634
78063.563
66436.071
67458.641
66601.6
66764.22
67479.873
68510.451
68654.566
57058.502
57718.047
56935.641
57192.441
57913.067
59079.512
59394.907
47985.127
48011.929
47866.287
47587.744
48662.422
49701.254
50424.942
39261.467
39667.398
38801.832
38709.33
40138.076
40289.725
42460.994
31619.755
31190.071
31146.948
30843.571
31805.404
33306.763
33378.119
24659.879
23356.187
23985.913
23383.35
25276.968
25496.612
27392.765
18559.072
17879.397
18083.668
17655.021
18926.164
19661.705
21005.264
13564.997
12452.608
12968.397
12196.589
14003.152
14266.603
16027.485
9543.1469
8763.2737
8878.0423
8591.4297
9907.4872
10151.666
11891.892
6361.5107
5195.0691
5538.6437
5106.3832
6225.0936
6583.3178
8264.301
3970.143
3223.6409
3193.3886
3007.85
3733.3172
4020.7462
5345.8823
2021.0292
1085.9988
1101.1716
1017.8607
1408.1313
1841.6381
2855.6132
1130.6413
426.50328
289.14265
194.05212
202.31517
782.94406
1125.0827
123.67339
-370.15928
-696.05439
-978.47595
-888.57066
-525.46227
-366.14233
239458.73
249417.92
273549.07
268661.41
278865.47
255578.86
256218.05
186717.54
224013.07
234796.37
240120.28
240955.76
224740.91
212635.68
181786.84
167745.46
188498.89
180797.11
190927.17
172276.87
179222.36
158791.94
164514.85
175044.93
171379.17
175644.06
170860.46
154835.54
164879.68
163508.11
171308.91
164778.04
174248.57
162797.21
167161
157284.6
154507.18
158683.47
155054.86
154481
160238.93
157517.81
157376.23
157132.67
164580.01
156009.79
163567.24
162631.78
158368.14
155059.82
150789.23
153042.53
149613.08
153913.25
151860.33
154669.51
153353.7
148414.52
157281.34
150754.23
152106.67
154676.63
153379.39
148195.28
147798.3
151580.15
143136.26
149095.19
148730.22
150736.03
148234.68
145710.9
147582.91
143490.59
146763.69
147738.15
146272.25
144780.74
140581.66
147068.7
139786.83
145475.48
142853.15
148194.27
140982.77
139426.25
144432.41
135951.71
142088.5
139686.43
141901.2
137582.15
137241.08
140852.23
133395.18
138701.22
137637.68
136749.8
133774.14
135700.62
135998.17
130001.45
135667.33
133788.62
133341.9
131311.85
132378.09
132047.27
128615.23
131488.06
131065.76
129448.9
127883
129317.61
129218.03
124913.46
127861.36
128411.02
127624.31
124592.02
126519.62
125341.87
122381.58
124526.93
124812.52
122657.79
121927.41
122653.36
122176.08
119197.76
121282.86
121308.94
119909.84
118079.56
119172.37
118637.43
115989.5
117494.81
117360.39
116056.18
115271.71
115408.66
114988.92
112267.76
113821.02
113706.88
112435.79
111976.11
111393.05
110724.04
108454.33
109976.83
109588.07
108101.71
108457.66
106609.04
106618.93
104544.05
106191.81
104840.56
104138.54
104140.52
102161.42
102655.16
100794.25
101784.68
100406.74
100043.33
99433.851
97558.334
97888.627
95919.074
97567.391
95381.458
95675.991
94401.14
92933.048
91760.154
93204.255
91308.63
90585.218
91307.079
88163.897
88175.067
87351.201
85786.768
88133.14
84822.8
86421.014
83677.858
81749.143
82629.883
81542.017
82378.594
80084.516
81553.522
77581.948
76979.522
77312.399
76132.563
77613.373
74772.558
76402.73
71919.501
71722.582
71290.895
70991.241
71734.105
69388.058
70946.274
66054.799
66154.054
66098.923
65772.719
66493.234
64142.932
65458.995
60069.955
60579.423
60165.981
60063.526
60505.235
58385.548
59497.098
54024.049
54636.689
54212.014
54162.128
54620.22
52605.761
53283.293
47725.92
48544.738
47940.583
48136.64
48361.031
46418.158
47181.507
41360.123
42286.654
41620.75
41786.017
41929.699
40578.722
41285.478
34700.282
35982.885
34985.606
35459.96
35459.719
34326.975
34673.413
28542.207
30006.307
28772.671
29281.383
29178.916
28495.128
28800.101
22599.582
24255.828
22302.324
23397.746
23200.012
22899.342
24188.746
17112.197
18536.344
16936.718
17933.476
17817.466
17957.456
19207.348
12395.699
14050.967
12192.247
13226.565
13192.358
13372.102
15175.447
8843.0426
9890.5097
8236.5589
9429.5868
9398.2544
9707.3588
11644.035
5701.8773
6742.8573
5132.1867
6339.3262
6155.3174
6551.2346
8827.7283
3913.9886
4188.4471
3103.0005
4021.0343
3962.7474
4358.4539
6226.8493
2242.6011
2642.8803
1600.2197
2496.9492
2365.4725
2573.1584
4154.6826
1318.0304
849.51524
473.14755
879.26479
789.82226
1041.6106
2316.1117
774.1788
841.90467
411.32591
625.23711
486.36861
612.6052
1061.8984
21.95328
-497.56524
-648.04504
-663.03405
-783.51867
-698.15639
-349.72583
132928.62
139059.84
133184.8
147755.13
140018.08
132117.06
125770.24
95609.916
143237.05
132614.95
145092.77
127568.84
132588.1
109149.14
90607.07
84901.808
89440.74
92229.958
87979.726
81193.693
81784.588
72149.687
92505.411
92217.798
101729.37
88612.051
97866.854
77118.901
81547.102
78803.706
80319.913
76138.788
77154.831
72553.49
74671.269
71362.982
85286.577
75002.616
80465.539
78430.395
78512.256
77263.392
74289.16
80733.31
69054.196
75223.007
75237.554
71497.661
74263.59
71610.975
82607.675
68781.496
76040.727
72457.474
69877.092
75192.686
73041.779
82175.025
66655.03
72220.003
70714.281
70534.744
73427.276
73900.212
79761.43
64917.358
70254.312
71269.981
68398.513
72043.996
72306.952
78684.742
63569.064
71113.862
69073.762
68512.736
70903.558
69990.722
76370.407
61966.832
68305.672
67340.769
66082.702
69081.439
67745.765
77464.335
61004.541
67783.664
66409.307
64820.585
66815.621
67238.159
73382.546
60782.023
66646.212
66905.896
60484.629
68852.731
67164.918
71099.659
58778.286
65462.237
64354.609
60431.88
66543.605
64641.093
67745.131
59457.026
62843.207
63368.299
58696.848
66022.409
62004.01
66681.299
57815.179
62000.795
61306.547
57850.366
63576.55
60884.407
64178.666
56452.976
60194.566
59864.76
56511.29
61480.287
58405.983
62545.61
54841.093
58632.05
57771.86
54520.229
59547.42
56733.047
60417.547
53164.591
56576.964
55513.025
52866.367
57804.913
54384.945
58235.959
51284.399
54381.338
53409.402
51264.366
55087.244
52012.27
55433.964
49236.406
52235.378
51443.291
48644.801
53014.561
49653.026
52800.067
47331.332
50584.14
48275.277
47075.055
50544.882
46985.894
49841.661
45445.185
47072.041
45668.344
44803.715
47863.536
44689.24
47295.829
42851.723
44842.418
42886.066
43107.535
45350.301
42200.425
43479.887
41129.211
41482.179
40662.802
40732.462
42743.694
39664.567
41777.561
38231.385
40345.09
37494.138
39115.273
39886.171
36943.624
39681.185
35760.904
37602.172
35629.303
36516.867
38288.896
34367.313
36391.625
33095.487
34793.337
33044.693
34037.195
35938.491
31727.602
33588.933
30627.529
32405.911
30758.944
31646.466
33633.547
29154.802
30608.781
27843.568
29658.333
27764.357
28925.427
31013.104
26394.667
27512.028
25083.691
26583.491
25039.439
26158.647
28273.043
23612.685
24329.165
22142.327
23546.246
22137.803
23146.146
25481.779
20794.802
21160.091
19327.79
20432.195
19212.668
20312.743
22703.072
17859.999
18012.777
16413.88
17279.806
16337.961
17361.46
19573.206
15127.534
15163.766
13730.532
14428.527
13738.855
14728.231
16981.124
12593.348
12309.995
11171.17
11703.576
11448.056
12120.647
14511.804
9947.3332
10007.287
8828.1495
9774.0542
9128.9085
10440.987
12051.154
8010.5657
7597.4763
7035.6459
7736.8556
7466.0413
8811.9229
9827.8614
6208.258
6166.7725
5599.1239
6521.5656
6111.2715
7346.694
7945.0891
4628.4043
4163.8825
4267.0848
4778.6687
4786.5652
5934.0391
6472.2187
3330.218
3501.1244
3473.752
4100.324
3961.0447
4951.9647
5152.6445
2373.2933
2057.212
2424.7123
2745.6409
2901.0599
3626.872
3861.6307
1487.4499
1593.6176
1842.6638
2218.8313
2041.1002
2553.8518
2786.9421
914.03162
750.67979
1104.4292
1069.9875
1082.1435
1483.2722
1727.5999
526.50131
524.86291
715.11349
831.79637
652.3589
842.40645
929.52058
58.586886
-141.51378
-290.10915
-524.89235
-675.83692
-687.78521
-423.61472
-6505.5955
-14511.797
-9882.0931
-8913.0496
-8826.8601
-12222.536
5707.0614
-6939.9722
-5099.3786
-4687.6483
-960.65731
-4447.5852
-1920.3379
-3305.1503
4995.7086
-21401.067
-16606.441
-24531.26
-16178.66
-22252.815
-2827.1417
-7726.6624
-12514.564
-2090.3169
-7415.2542
-6437.6607
702.36053
-9660.8379
-1100.9175
-5804.6207
-5036.7191
-18704.435
-3115.3573
-22302.062
1756.6996
-2533.2419
-11838.55
-12432.897
-8374.1436
-9219.1445
-6329.421
-5669.2831
-1872.8102
-6892.8598
292.53977
-10786.601
-2932.4929
-9276.7499
-361.63106
-508.79389
-7477.0031
-8237.4297
-8543.8195
-7014.9589
-5345.3004
-3646.6436
-282.78747
-8986.8637
-1447.8732
-9635.3113
-2666.1679
-5908.1623
-5073.1838
-2976.1552
-5851.0795
-4356.5334
-9439.583
-5500.8246
-5783.4679
-3483.6538
-1731.5452
-6466.0734
-4178.9996
-9101.9184
-5257.0335
-6484.0159
-3549.6235
-2917.8728
-5382.2028
-5724.5639
-7139.3255
-6448.4378
-3737.1332
-3363.8522
-1389.926
-6649.6136
-5254.7597
-7998.7612
-4828.8138
-5290.5872
-3439.4914
-2657.1291
-6184.4143
-2181.5567
-4997.097
-8492.3414
-3500.4216
-6735.9495
-1406.5941
-3444.3925
-8544.1716
-4899.1379
-9009.0205
-3508.8289
-5323.1719
-3945.7208
-4057.0396
-8197.7833
-3408.3875
-9832.7968
-3172.7465
-5749.6777
-2865.0902
-4581.1252
-7330.2811
-2765.761
-9696.3463
-3007.3106
-4835.3354
-3670.1373
-4266.5328
-6933.3803
-2749.0168
-9740.4562
-2885.3695
-5671.5056
-3160.1247
-3667.1137
-6543.8255
-2588.7302
-9319.7098
-2918.1519
-5197.0309
-3109.4999
-3387.5744
-6500.3065
-2489.443
-9222.1325
-2407.6853
-5763.8802
-2628.4634
-2942.2665
-6112.5771
-2323.1584
-8172.1782
-2505.5486
-5650.1584
-2271.0872
-2075.814
-5687.4525
-1624.0055
-8154.681
-2253.9552
-5553.0512
-2338.0969
-1732.6951
-4577.3374
-2647.5501
-7383.5964
-2093.3752
-5247.9735
-1288.2914
-1282.3907
-3953.7055
-2468.323
-5914.2897
-1611.6721
-4980.3568
-1602.6178
-1430.5228
-3272.6682
-2698.9235
-4199.2282
-1931.9741
-4494.3282
-1881.0544
-53.893887
-2887.2634
-1868.6923
-3217.9873
-2011.0172
-3693.6857
-1106.5921
-374.89554
-2458.5812
-2139.2199
-2814.4863
-1760.1204
-3397.8343
-1365.1593
-837.3429
-2329.4083
-2073.2261
-2800.1816
-1505.3618
-3295.8674
-1426.9034
-694.47583
-1793.9508
-1500.4799
-1870.9492
-1016.9816
-2525.0158
-1461.2524