/*--------------------------------*- C++ -*----------------------------------*\
  =========                 |
  \\      /  F ield         | OpenFOAM: The Open Source CFD Toolbox
   \\    /   O peration     | Website:  https://openfoam.org
    \\  /    A nd           | Version:  6
     \\/     M anipulation  |
\*---------------------------------------------------------------------------*/
FoamFile
{
    version     2.0;
    format      ascii;
    class       pointVectorField;
    location    "0.27";
    object      u;
}
// * * * * * * * * * * * * * * * * * * * * * * * * * * * * * * * * * * * * * //

dimensions      [0 1 0 0 0 0 0];

internalField   nonuniform List<vector> 
3969
(
(0 -1.1705275e-20 0)
(0 -6.4016367e-20 0)
(1.6201948 -0.066595243 0.0038065444)
(1.5459967 -0.44468154 0.001006826)
(0 6.3845684e-19 0)
(0 5.273639e-19 0)
(1.5481809 -0.44624677 0.0010503026)
(1.6223001 -0.068350489 0.0037756382)
(0 2.6670108e-20 0)
(0 1.6030511e-19 0)
(0 7.179547e-20 0)
(-4.2933248e-19 -3.8658149e-20 0)
(0 2.1155006e-19 0)
(0 -1.2196496e-19 0)
(0 -1.1646682e-19 0)
(1.610887 -0.11389762 0.0034462011)
(1.6015734 -0.16115206 0.0030833089)
(1.5922815 -0.20840442 0.0027341895)
(1.5830136 -0.25562287 0.0023824793)
(1.5737691 -0.30284321 0.0020504069)
(1.5645375 -0.35009161 0.001711677)
(1.5552893 -0.39736976 0.0013664026)
(0.003549457 0.0081611299 0.009020818)
(0.0054974891 0.014536339 0.01126004)
(0.010008371 0.021595156 0.012520128)
(0.016866687 0.028584436 0.012891802)
(0.025481508 0.035588731 0.013023085)
(0.036320979 0.042406194 0.012892274)
(0.048810597 0.049019201 0.01282802)
(0.063377347 0.055382892 0.012604571)
(0.079607681 0.061408332 0.01249254)
(0.097744412 0.067073604 0.01223475)
(0.11756986 0.072410007 0.01212274)
(0.13916517 0.077327869 0.011892468)
(0.1624141 0.081797753 0.011691404)
(0.18731085 0.085885972 0.011500867)
(0.21383486 0.089449035 0.011273292)
(0.24183887 0.092555943 0.011068425)
(0.27137587 0.095183258 0.010867956)
(0.30236451 0.097303735 0.010657198)
(0.33478723 0.098916312 0.010441622)
(0.36857924 0.099990543 0.010213563)
(0.40371969 0.10052495 0.0099776396)
(0.44013875 0.10050075 0.0097275019)
(0.47779329 0.099899361 0.0094664877)
(0.51661836 0.098714401 0.0091954963)
(0.55652542 0.096932441 0.0089221196)
(0.59747153 0.094594376 0.0086547464)
(0.63935986 0.091667607 0.0083937526)
(0.68215334 0.088171473 0.0081313326)
(0.72577694 0.084113134 0.0078682482)
(0.77015648 0.079508695 0.0076007746)
(0.81525122 0.074365098 0.0073109191)
(0.86098575 0.06869036 0.0069992361)
(0.90728667 0.062496725 0.0066597624)
(0.95407771 0.055805212 0.0062918052)
(1.0012594 0.04864093 0.0059155252)
(1.0487491 0.04102775 0.0055314914)
(1.0964328 0.033041365 0.0051576015)
(1.1442364 0.024684439 0.0048315822)
(1.1920823 0.016081232 0.0045378604)
(1.2399089 0.0072237999 0.0043091967)
(1.2876994 -0.001776394 0.0041161826)
(1.335402 -0.010905718 0.0039870645)
(1.383049 -0.020141202 0.0038853743)
(1.4306004 -0.029363964 0.0038237577)
(1.4781064 -0.038706816 0.0037826392)
(1.5255269 -0.047992016 0.0037737009)
(1.5728862 -0.057301781 0.0037817433)
(0.00053538222 -0.0084375836 -0.011132505)
(0.0040105363 -0.01409471 -0.011644187)
(0.0075351511 -0.020905319 -0.014057917)
(0.013452199 -0.027620215 -0.013879191)
(0.021510368 -0.034989051 -0.014217228)
(0.031034206 -0.042264005 -0.013925686)
(0.042492305 -0.049783687 -0.013866716)
(0.055456983 -0.057270586 -0.013618716)
(0.070163515 -0.064970291 -0.013493317)
(0.086520554 -0.072712727 -0.013256457)
(0.10441685 -0.080624167 -0.013102164)
(0.12401249 -0.088668968 -0.012907093)
(0.14504453 -0.096834059 -0.012711534)
(0.16767276 -0.10515914 -0.012470076)
(0.19174373 -0.11367491 -0.012270554)
(0.21729517 -0.12232595 -0.012032341)
(0.24429009 -0.13119974 -0.011815158)
(0.27264037 -0.14020771 -0.011577804)
(0.30242057 -0.14947109 -0.011323918)
(0.33351393 -0.15887527 -0.011051534)
(0.36593304 -0.16854341 -0.010730171)
(0.3996735 -0.17832408 -0.01039199)
(0.43462873 -0.18837185 -0.0099666617)
(0.47081997 -0.19855077 -0.0095349464)
(0.50810968 -0.20886416 -0.0090693568)
(0.54650675 -0.21931317 -0.0085798057)
(0.58586292 -0.22986084 -0.008066527)
(0.62627409 -0.24057057 -0.0075459593)
(0.66759498 -0.25132683 -0.0070440001)
(0.7097849 -0.26215545 -0.0065084635)
(0.75282428 -0.27305126 -0.0059664453)
(0.79663863 -0.2839614 -0.005392558)
(0.8412018 -0.29487805 -0.0047895368)
(0.88642444 -0.3057469 -0.0041554918)
(0.93224315 -0.31654468 -0.0035002944)
(0.97855491 -0.32723726 -0.0028331684)
(1.0252697 -0.33777399 -0.0021891672)
(1.0722741 -0.34815653 -0.0015756701)
(1.1194811 -0.35837308 -0.0010268012)
(1.1668233 -0.36841376 -0.00055612077)
(1.214231 -0.37830928 -0.00015863508)
(1.261662 -0.38805503 0.00014275244)
(1.3090996 -0.39768864 0.00038194989)
(1.3565214 -0.4072147 0.000550371)
(1.4039317 -0.41667069 0.00069009186)
(1.4513188 -0.42605356 0.00080225694)
(1.4986838 -0.43538541 0.00090635935)
(0 -6.9645062e-21 0)
(0 8.1597754e-20 0)
(0 -9.9714406e-20 0)
(2.1113076e-19 -2.1491104e-20 0)
(0 -1.8249311e-19 0)
(0 -8.5065775e-20 0)
(0 -6.9555562e-20 0)
(0.0034292996 -0.005483768 0.0085455657)
(0.0049624535 -0.016844051 0.011975424)
(0.0078416414 -0.019225601 0.012360854)
(0.014633346 -0.028872833 0.013057777)
(0.022195322 -0.034970681 0.013101256)
(0.032123458 -0.042654007 0.012585569)
(0.043468397 -0.05021048 0.01265397)
(0.05666287 -0.057620992 0.012012134)
(0.071345 -0.065538929 0.012046224)
(0.087747038 -0.073132625 0.011458668)
(0.10570413 -0.08146381 0.011566242)
(0.12525311 -0.089131978 0.011026313)
(0.14650828 -0.097588645 0.010797732)
(0.16922286 -0.10590627 0.010442977)
(0.19337589 -0.11442301 0.010135196)
(0.21902363 -0.12322836 0.0098574836)
(0.24603841 -0.13207908 0.0095695042)
(0.2744644 -0.14123712 0.0093056231)
(0.30424638 -0.1505354 0.0090304675)
(0.33538421 -0.16007001 0.0087419597)
(0.36784038 -0.16979128 0.0084386353)
(0.40158563 -0.17971883 0.0081153882)
(0.43658391 -0.18981426 0.0077670532)
(0.47276253 -0.20006185 0.0074143492)
(0.51011302 -0.21051334 0.0070214173)
(0.5486172 -0.22105201 0.0065928878)
(0.58795068 -0.23177831 0.0063018217)
(0.62832893 -0.24250198 0.0059535334)
(0.66963708 -0.25334363 0.0056242068)
(0.71184724 -0.26423441 0.0052606656)
(0.75490389 -0.27516809 0.0048672355)
(0.79876189 -0.28612818 0.00445208)
(0.84335686 -0.29706738 0.0040042609)
(0.88862111 -0.30795747 0.0035412481)
(0.93446072 -0.31873719 0.0030758249)
(0.9807744 -0.32944481 0.0026378578)
(1.0275078 -0.3399027 0.0022358027)
(1.0744394 -0.35025515 0.0019043324)
(1.1216416 -0.36038105 0.0016206003)
(1.1689396 -0.37034583 0.0014225356)
(1.2163175 -0.3801449 0.0012714971)
(1.2637439 -0.38981658 0.0011705281)
(1.31118 -0.39938007 0.0011005069)
(1.358629 -0.4088592 0.0010509735)
(1.4060626 -0.41828025 0.0010203961)
(1.4534781 -0.42763795 0.0010085225)
(1.5008499 -0.43696491 0.0010230634)
(1.5574707 -0.39893415 0.0013449321)
(1.5667133 -0.35162805 0.0016701409)
(1.5759618 -0.30443783 0.0020150082)
(1.5851668 -0.25719298 0.0023900488)
(1.5944564 -0.21008142 0.0027648178)
(1.6037279 -0.16284301 0.0031205874)
(1.6130154 -0.11562225 0.0034625553)
(1.5750359 -0.059064999 0.0036401537)
(1.5277107 -0.049756887 0.0035209714)
(1.4803477 -0.040488392 0.0034098548)
(1.432893 -0.031236656 0.0032769748)
(1.3853585 -0.022049461 0.003109868)
(1.3377441 -0.01292132 0.0028952483)
(1.2900417 -0.0038793494 0.0026158175)
(1.2422536 0.0050535685 0.0022568612)
(1.1944127 0.01383191 0.0018138631)
(1.1465412 0.02242807 0.0013039141)
(1.0986909 0.03072454 0.00072169118)
(1.0510161 0.038709253 0.00011273996)
(1.003438 0.046345125 -0.0005462693)
(0.95621032 0.053537448 -0.0011882538)
(0.90935832 0.060263879 -0.0018344118)
(0.8629923 0.066490842 -0.0024509071)
(0.81718793 0.072205127 -0.0030503666)
(0.77202911 0.077393108 -0.003633115)
(0.72757476 0.082051524 -0.0041975319)
(0.68389864 0.086166014 -0.0047563325)
(0.64105106 0.089750844 -0.0053102944)
(0.59911002 0.092758696 -0.0058435788)
(0.55812889 0.095224752 -0.0063698854)
(0.51816999 0.097099693 -0.0068744717)
(0.47932464 0.098403447 -0.0073501466)
(0.44164579 0.099117583 -0.0077836714)
(0.40519797 0.099261772 -0.0081897038)
(0.3700392 0.098832406 -0.0085495)
(0.33621802 0.097856995 -0.0088893772)
(0.30376729 0.096339971 -0.0092031033)
(0.27273973 0.094316636 -0.0095133376)
(0.24314473 0.091793936 -0.0098123704)
(0.2150294 0.088815275 -0.010113802)
(0.18856898 0.085166051 -0.010323235)
(0.16367536 0.081218797 -0.010697074)
(0.14026179 0.076844032 -0.010839475)
(0.11868425 0.071984531 -0.011166702)
(0.098712611 0.06669652 -0.011343793)
(0.080512474 0.061151048 -0.011639737)
(0.064258227 0.054968642 -0.011749464)
(0.049783394 0.048775927 -0.011947169)
(0.036925168 0.042150606 -0.012127793)
(0.026335448 0.035299929 -0.012259011)
(0.017395516 0.028287096 -0.012137212)
(0.010791943 0.021475581 -0.011731499)
(0.0060392052 0.013873588 -0.010558379)
(0.0064007498 0.0080378946 -0.0066642717)
(0 8.6167388e-20 0)
(0 6.7489424e-20 0)
(0 -3.4972884e-20 0)
(0 -2.2980151e-19 1.150037e-19)
(0 -2.0176775e-19 0)
(0 -4.4361664e-20 0)
(0 2.121395e-19 0)
(0 3.0102395e-19 0)
(0 2.8695195e-19 0)
(0 2.7265326e-19 0)
(0 2.3547919e-19 -2.8927629e-20)
(0 6.3613007e-19 0)
(0 2.7887063e-19 0)
(0 -5.1382507e-20 0)
(1.5462895 -0.44490926 0.00100928)
(1.5465826 -0.44515208 0.0010189606)
(1.54687 -0.44538208 0.0010427416)
(1.5471454 -0.44560032 0.0010554689)
(1.5474061 -0.44579067 0.0010721501)
(1.5476591 -0.44595986 0.0010676892)
(1.5479141 -0.44611057 0.0010604847)
(1.6205227 -0.066756077 0.0038222597)
(1.6208419 -0.066942553 0.0038245157)
(1.6211273 -0.067149728 0.0038272044)
(1.6213818 -0.06737984 0.0038141217)
(1.6216108 -0.067622527 0.0037933775)
(1.6218269 -0.067864789 0.0037826237)
(1.6220566 -0.068107623 0.0037712467)
(0.00079942363 0.0063695357 0.0081167373)
(0.0028842776 0.01100403 0.0082664071)
(0.007101417 0.016545435 0.0094205637)
(0.0136967 0.021693694 0.0097056525)
(0.022179777 0.026821682 0.0097345543)
(0.032911423 0.03196522 0.0097489155)
(0.045282601 0.03674833 0.0095658688)
(0.059654434 0.041461448 0.0095378318)
(0.075796038 0.045703444 0.0092961441)
(0.093748881 0.049772176 0.0092271051)
(0.11338848 0.053433476 0.0090455277)
(0.1347488 0.056708131 0.0088889288)
(0.15781107 0.059677529 0.0087263461)
(0.1824474 0.062171381 0.0085659775)
(0.20870257 0.064242016 0.0084153627)
(0.23648009 0.065894586 0.0082424034)
(0.26574712 0.067094541 0.0080933434)
(0.29645998 0.067802516 0.0079337801)
(0.32859744 0.068043744 0.0077664221)
(0.36211378 0.067776085 0.0075922146)
(0.3969653 0.067005267 0.0074148656)
(0.43310251 0.06570531 0.0072242239)
(0.47048243 0.063886978 0.0070368392)
(0.50901916 0.061532931 0.0068436694)
(0.54867896 0.058660478 0.0066708818)
(0.58937602 0.055242566 0.0064752515)
(0.63102708 0.051322724 0.0063064364)
(0.67359723 0.046888225 0.0061360053)
(0.71700488 0.041941798 0.0059685803)
(0.76118945 0.036508957 0.0057887851)
(0.80610488 0.030589494 0.0055985802)
(0.85167942 0.024194236 0.0053893108)
(0.89784721 0.017351653 0.0051611211)
(0.94453027 0.010079373 0.0049186688)
(0.99163807 0.0024172441 0.0046681302)
(1.0390758 -0.0055945894 0.0044217761)
(1.0867512 -0.013908021 0.0041854313)
(1.1345605 -0.022479366 0.0039856553)
(1.1824434 -0.031242733 0.0038085737)
(1.2303168 -0.040176387 0.0036800158)
(1.278156 -0.049213213 0.0035661387)
(1.3259108 -0.05835795 0.0035048802)
(1.37361 -0.067547067 0.0034418699)
(1.4211895 -0.076784044 0.0034238119)
(1.4687479 -0.086070707 0.003400643)
(1.5161853 -0.095332809 0.0034068715)
(1.5635726 -0.10462239 0.0034184168)
(-0.0017111344 0.00415959 0.0054225149)
(0.00047246204 0.0067559237 0.0053941208)
(0.0048998133 0.011174685 0.0062268453)
(0.011340197 0.014358109 0.006287714)
(0.019922119 0.018021444 0.0064176692)
(0.030280566 0.021347304 0.0062788022)
(0.042553951 0.02451704 0.0063620281)
(0.056797223 0.027447688 0.0061104453)
(0.072704272 0.030069678 0.0061702844)
(0.090426587 0.032493073 0.0060022243)
(0.10987481 0.034458193 0.0059405975)
(0.13103032 0.036230854 0.0058186914)
(0.15382183 0.03754665 0.0057447454)
(0.17827013 0.038511001 0.0056630718)
(0.20427595 0.039078214 0.0055680592)
(0.23177616 0.039282827 0.0054625122)
(0.26076425 0.039054135 0.0053594176)
(0.29119251 0.038397058 0.0052581568)
(0.32304864 0.037295581 0.0051465746)
(0.35628444 0.035727639 0.0050425532)
(0.3908609 0.033688995 0.0049245925)
(0.42673803 0.03118035 0.0048097351)
(0.46381956 0.028191464 0.0046957209)
(0.50210891 0.024733956 0.0045964828)
(0.54149027 0.020778079 0.0044845944)
(0.58191644 0.016373556 0.0044109792)
(0.62332332 0.011488642 0.004331511)
(0.6656487 0.0061384602 0.0042544091)
(0.7088258 0.00035523643 0.004185521)
(0.75280885 -0.0058765949 0.0041047709)
(0.79753789 -0.012532064 0.0040161149)
(0.84294617 -0.019597135 0.0039173632)
(0.88897001 -0.027048886 0.0038042862)
(0.9355289 -0.034859039 0.0036822882)
(0.98253286 -0.04298811 0.0035565087)
(1.0298866 -0.05140327 0.0034351849)
(1.0774974 -0.060048407 0.0033185198)
(1.1252556 -0.068892303 0.0032287813)
(1.1731083 -0.077875198 0.0031487006)
(1.2209541 -0.086984856 0.003094519)
(1.2687958 -0.096158733 0.0030514295)
(1.3165416 -0.10540132 0.0030323498)
(1.3642593 -0.11467386 0.0030145389)
(1.4118498 -0.12396275 0.003014004)
(1.4594279 -0.13328293 0.0030162238)
(1.506876 -0.14256704 0.0030320541)
(1.5542722 -0.15187184 0.0030584575)
(-0.0035190067 0.002221067 0.0032415972)
(-0.001249133 0.0037090475 0.0030577896)
(0.0028211229 0.0059091331 0.0032340758)
(0.0094807416 0.0077547698 0.0033161978)
(0.017750629 0.0095163904 0.0031824871)
(0.028318648 0.01124694 0.0032377546)
(0.040568617 0.012508676 0.0029541851)
(0.054641374 0.013797888 0.0030534531)
(0.070458905 0.014666114 0.0029154677)
(0.088084336 0.015338631 0.0028460276)
(0.10730296 0.015774412 0.0028021851)
(0.12821439 0.015845371 0.0027412079)
(0.15075771 0.015649414 0.0026953889)
(0.17488324 0.01507257 0.0026545755)
(0.20056564 0.014210102 0.0026382385)
(0.22779595 0.012940747 0.0025586858)
(0.25649141 0.011304369 0.0025219887)
(0.28664648 0.0092637249 0.0024563219)
(0.3182136 0.0068111393 0.0024151229)
(0.35113533 0.0039482692 0.0023677945)
(0.38538994 0.00066507529 0.0023347992)
(0.42090921 -0.003058326 0.0023059635)
(0.45771832 -0.0071988901 0.0022916893)
(0.49568124 -0.011805862 0.0022643077)
(0.53476684 -0.016809968 0.0022803182)
(0.57491876 -0.022254115 0.0022727033)
(0.61607514 -0.028111125 0.002274226)
(0.65815096 -0.034368189 0.0022935205)
(0.7011038 -0.041013653 0.0023081397)
(0.7448702 -0.048046869 0.0023199503)
(0.78939556 -0.055432295 0.0023328421)
(0.8346216 -0.063171166 0.0023382238)
(0.88047968 -0.071227019 0.0023379368)
(0.92689069 -0.079575186 0.0023355632)
(0.97376506 -0.088183819 0.0023339722)
(1.0210091 -0.097005707 0.0023335893)
(1.0685216 -0.10601029 0.0023435911)
(1.1162149 -0.11514494 0.0023613218)
(1.1640013 -0.12438171 0.0023809823)
(1.2118067 -0.13368393 0.00242467)
(1.2595957 -0.14301749 0.0024532124)
(1.3073239 -0.15239062 0.002508735)
(1.3550093 -0.16174242 0.0025285934)
(1.4025889 -0.17111566 0.002589365)
(1.4501464 -0.18046214 0.0026076555)
(1.4975868 -0.18979359 0.0026637561)
(1.5449876 -0.19912137 0.0026910849)
(-0.00393187 0.00028971326 0.00027997758)
(-0.0016600564 0.00020236068 -0.00050951926)
(0.0023611869 0.00081555907 -0.00038821957)
(0.008664113 0.00082102744 -0.00039310153)
(0.017139167 0.00080707452 -0.00033915555)
(0.027380966 0.00078259026 -0.00045466028)
(0.039399324 0.00029083581 -0.00023516368)
(0.053247656 -9.0642356e-05 -0.00032898523)
(0.068829326 -0.00095626916 -0.00024687387)
(0.08610685 -0.0018297954 -0.00018088981)
(0.10506583 -0.0031460029 -0.00017999782)
(0.12578946 -0.0046221848 -0.00017819153)
(0.14805682 -0.0064296228 -0.00021881709)
(0.17196388 -0.0085559215 -0.00018393829)
(0.19739519 -0.010946937 -0.00023679171)
(0.22436442 -0.013690489 -0.00022119389)
(0.25275974 -0.01674803 -0.00024097587)
(0.2826228 -0.020184041 -0.00023052238)
(0.31385348 -0.023977431 -0.00022018691)
(0.34647811 -0.028145623 -0.00020631605)
(0.3804527 -0.032703498 -0.00019673097)
(0.41577751 -0.037632788 -0.00016640362)
(0.45224822 -0.042967912 -0.00013901018)
(0.48992836 -0.048655303 -6.8426461e-05)
(0.52873003 -0.05472666 -1.6874863e-05)
(0.56859345 -0.061160476 6.7700805e-05)
(0.6094377 -0.06795024 0.00018639903)
(0.65122299 -0.075090462 0.00030716529)
(0.69389265 -0.082562926 0.00042616759)
(0.73739245 -0.090351474 0.00055738587)
(0.78167368 -0.098439284 0.0006800898)
(0.82667341 -0.10681445 0.00080707023)
(0.8723244 -0.11544103 0.00092891157)
(0.91854969 -0.12430279 0.0010562969)
(0.96525678 -0.13335821 0.0011823335)
(1.0123501 -0.14257785 0.0013166162)
(1.0597339 -0.15191818 0.0014490733)
(1.1073002 -0.1613446 0.0015855806)
(1.1549752 -0.17082961 0.0017249178)
(1.2026949 -0.18033255 0.0018421639)
(1.2504366 -0.18983764 0.0019497733)
(1.2981129 -0.19932415 0.0020406321)
(1.3457726 -0.20878213 0.0021152364)
(1.393332 -0.21821598 0.0021829992)
(1.4408861 -0.22761368 0.0022298331)
(1.488332 -0.23698011 0.0022844552)
(1.5357364 -0.24632479 0.0023359235)
(-0.0042278567 -0.001761716 -0.00239864)
(-0.0017129083 -0.0027828381 -0.003110548)
(0.0018227687 -0.0042165953 -0.0032835128)
(0.0083688062 -0.0058570186 -0.0034093694)
(0.016524646 -0.0076160613 -0.0035759366)
(0.026736879 -0.0095063978 -0.0034064605)
(0.038620504 -0.011654594 -0.0035013504)
(0.052407939 -0.013843168 -0.0034745831)
(0.06775484 -0.01636052 -0.0034177883)
(0.084951711 -0.018997612 -0.0034318749)
(0.10374631 -0.021918336 -0.0034701132)
(0.12416562 -0.024932832 -0.0034223639)
(0.14617461 -0.028369229 -0.003349828)
(0.16979681 -0.031939594 -0.0033088008)
(0.19490859 -0.035888163 -0.003230796)
(0.221533 -0.040083931 -0.0031507911)
(0.24963186 -0.044600369 -0.0031055516)
(0.27914703 -0.04941566 -0.0030292949)
(0.31007818 -0.054549554 -0.002964159)
(0.34236388 -0.060010824 -0.0028827564)
(0.37602108 -0.065780012 -0.0027889862)
(0.41085686 -0.071919488 -0.0026397868)
(0.44700078 -0.078359747 -0.0025008698)
(0.48433136 -0.085182808 -0.0023495513)
(0.52281313 -0.092311115 -0.0021682279)
(0.56234111 -0.099759594 -0.0019658793)
(0.6028982 -0.10752089 -0.0017615797)
(0.64440134 -0.11557102 -0.001562387)
(0.68679701 -0.12388789 -0.0013491543)
(0.73003659 -0.13245758 -0.0011374174)
(0.77407263 -0.14126645 -0.00091685429)
(0.81884403 -0.15029631 -0.00069011436)
(0.86428866 -0.15951478 -0.00045895926)
(0.910326 -0.16890484 -0.00021795545)
(0.95686482 -0.17843032 2.8891459e-05)
(1.0038152 -0.18805789 0.00027785723)
(1.0510663 -0.19775624 0.00052322152)
(1.0985297 -0.20749188 0.00076817408)
(1.1461172 -0.21722529 0.00096987589)
(1.1937924 -0.22693701 0.0011791129)
(1.241437 -0.23661596 0.0013543446)
(1.2890632 -0.2462436 0.0015126894)
(1.3366519 -0.25580606 0.0016266824)
(1.3841826 -0.26532704 0.0017419624)
(1.4316861 -0.27477239 0.00181296)
(1.4791054 -0.28418241 0.0019085904)
(1.5264937 -0.29354154 0.0019752465)
(-0.0034940053 -0.0036458414 -0.0054533714)
(-0.00047064105 -0.0064305901 -0.0062251267)
(0.003090653 -0.0096471063 -0.0070162569)
(0.0094884783 -0.013046706 -0.0072404834)
(0.017564899 -0.016598481 -0.0072064053)
(0.027532357 -0.020254784 -0.0071671162)
(0.039311425 -0.024190958 -0.0071019516)
(0.052797333 -0.028096467 -0.0069604348)
(0.067982317 -0.032341416 -0.0068827954)
(0.084872909 -0.036577743 -0.0067425091)
(0.1033809 -0.041150179 -0.0066438897)
(0.12351543 -0.045857206 -0.0065247435)
(0.14525866 -0.050854986 -0.0064556584)
(0.16854308 -0.056041813 -0.0063218636)
(0.19333343 -0.061497646 -0.0062235884)
(0.21962853 -0.067177126 -0.0061050717)
(0.24736287 -0.073139957 -0.0060067649)
(0.27653244 -0.079337205 -0.005871185)
(0.30708592 -0.085845769 -0.0057517089)
(0.3390093 -0.092594565 -0.0055939553)
(0.37224429 -0.099695848 -0.005436326)
(0.40685935 -0.10693544 -0.0052127045)
(0.44261508 -0.11459224 -0.0050442862)
(0.47960064 -0.12260879 -0.0047575141)
(0.5177099 -0.13080156 -0.0045065122)
(0.55687227 -0.13927697 -0.0042348841)
(0.59708341 -0.14796271 -0.0039352865)
(0.6382304 -0.1568768 -0.0036166182)
(0.68028535 -0.16598685 -0.003303505)
(0.72320567 -0.17530491 -0.0029729414)
(0.76693101 -0.18479149 -0.0026374707)
(0.81141421 -0.19443056 -0.0022859644)
(0.85659207 -0.20420063 -0.0019270579)
(0.90238311 -0.2140816 -0.001548077)
(0.94870478 -0.22402726 -0.0011684435)
(0.99545619 -0.23402924 -0.0007774851)
(1.0425344 -0.2440344 -0.00039628787)
(1.0898423 -0.25402166 -3.2894538e-05)
(1.1373096 -0.26396926 0.00030936835)
(1.1848313 -0.27383397 0.00060966976)
(1.232402 -0.28363219 0.00086006246)
(1.2799551 -0.29333991 0.0010599286)
(1.3274919 -0.3029747 0.001225101)
(1.3749847 -0.31252142 0.0013491595)
(1.4224498 -0.32199673 0.0014526871)
(1.4698666 -0.33141478 0.0015427265)
(1.5172461 -0.34077819 0.0016266598)
(-0.0019278873 -0.0064448254 -0.0076850868)
(0.0010753435 -0.010001159 -0.0089023564)
(0.0044930838 -0.015153495 -0.010160678)
(0.010923002 -0.020104207 -0.010353805)
(0.018646352 -0.025344636 -0.010488822)
(0.028653458 -0.030896493 -0.010359064)
(0.040119988 -0.036486656 -0.010309185)
(0.053446234 -0.042250512 -0.010124063)
(0.068380298 -0.048166693 -0.010050077)
(0.084983339 -0.054124326 -0.0098612139)
(0.1032912 -0.060415303 -0.0097429495)
(0.12310333 -0.066690809 -0.0096368991)
(0.14458218 -0.073336023 -0.0094437007)
(0.16751019 -0.080055282 -0.0092993238)
(0.19201125 -0.087035198 -0.0091265304)
(0.21793615 -0.09419922 -0.0089648331)
(0.24533556 -0.1015943 -0.0087855194)
(0.27412159 -0.10920834 -0.0086115771)
(0.30430711 -0.11705711 -0.0084142466)
(0.33584508 -0.12514049 -0.0082063007)
(0.36873168 -0.13344272 -0.0079717387)
(0.40285514 -0.14201542 -0.0076902718)
(0.43833441 -0.15079603 -0.0073991695)
(0.47492312 -0.15985953 -0.0070582378)
(0.51266642 -0.1690889 -0.0067270749)
(0.55146853 -0.17854644 -0.0063366947)
(0.59130206 -0.18817724 -0.005928961)
(0.63210936 -0.19796991 -0.0055323343)
(0.673831 -0.20792004 -0.0051234024)
(0.71641865 -0.21800516 -0.0046973548)
(0.75982894 -0.2281936 -0.0042597534)
(0.80401825 -0.23847745 -0.0038023271)
(0.84892098 -0.24882327 -0.0033247717)
(0.89446621 -0.25921352 -0.002826082)
(0.94056788 -0.26960813 -0.0023175886)
(0.98712352 -0.27999345 -0.0017982416)
(1.0340323 -0.29032483 -0.001296672)
(1.0812054 -0.30058542 -0.00081953908)
(1.1285278 -0.31073897 -0.00039211968)
(1.1759505 -0.32078194 -8.4314727e-06)
(1.2234175 -0.33070412 0.00030841742)
(1.2708958 -0.34050773 0.00057238352)
(1.3183587 -0.3501933 0.0007720642)
(1.3658028 -0.35977624 0.00093444433)
(1.4132273 -0.36926739 0.0010556739)
(1.4606218 -0.37869264 0.0011678036)
(1.5079812 -0.3880547 0.0012637875)
(0 -2.5412939e-20 0)
(0 1.4255266e-19 0)
(0 1.2318142e-19 0)
(0 1.0870544e-19 -3.7262817e-20)
(0 4.29444e-20 0)
(0 -1.5082684e-21 0)
(0 2.0875586e-20 0)
(0 7.7945847e-21 0)
(0 -5.0646472e-20 0)
(0 -1.2485877e-19 0)
(0 -1.5511257e-19 -2.5755807e-20)
(0 -2.5429301e-20 0)
(0 3.1324287e-20 0)
(0 6.0505085e-20 0)
(0 5.0088069e-20 0)
(0 7.8895642e-20 0)
(0 1.4409266e-19 0)
(0 1.4415605e-19 7.2611709e-20)
(0 1.2450046e-19 0)
(0 1.4496726e-19 0)
(0 4.9090156e-20 0)
(-8.7345233e-19 4.1148011e-20 0)
(3.7342449e-19 -9.3513325e-20 0)
(-2.1681549e-20 -3.7513958e-20 0)
(6.7224472e-20 -6.6003565e-20 -5.0087874e-20)
(-1.2571563e-19 -9.2257363e-20 0)
(-3.2177199e-19 -1.3187799e-19 0)
(4.9175753e-20 -1.0889197e-19 0)
(0 8.3340861e-20 0)
(0 2.9831847e-20 0)
(0 -5.7851574e-20 0)
(0 5.6397863e-21 1.4759078e-19)
(0 6.3614017e-20 0)
(0 9.2650833e-20 0)
(0 -2.5741394e-20 0)
(0 -6.7376952e-20 0)
(0 -5.5083721e-20 0)
(0 1.2956676e-20 0)
(0 6.4646711e-20 -1.4730833e-20)
(0 4.78312e-20 0)
(0 -1.7335849e-20 0)
(0 4.4759055e-20 0)
(0 8.0968061e-21 0)
(0 -4.7667151e-20 0)
(0 6.978659e-20 0)
(0 4.4440426e-21 5.1082979e-20)
(0 6.9139589e-20 0)
(0 1.093402e-19 0)
(0 9.9025134e-20 0)
(0.0037827733 -0.0026191698 -0.0058044951)
(0.0046788415 -0.003333987 -0.0039786594)
(0.0055893124 -0.0035090647 -0.0020846714)
(0.0059438449 -0.00370756 -0.00053936118)
(0.0057933098 -0.0034320966 0.0010419173)
(0.0054772159 -0.003568452 0.002755925)
(0.004439473 -0.0023914756 0.0045575814)
(0.0072352255 -0.013487037 -0.0095303035)
(0.0091370316 -0.014749123 -0.0054658994)
(0.0099679315 -0.013873965 -0.0025734958)
(0.010141481 -0.013452829 -0.00025405002)
(0.010226279 -0.01416362 0.002096079)
(0.0091444244 -0.013988612 0.0048441314)
(0.0080003405 -0.013944181 0.0083519964)
(0.010287845 -0.019266372 -0.010209178)
(0.012592197 -0.018505595 -0.0072856427)
(0.014136212 -0.019139802 -0.0034754848)
(0.014385648 -0.019096819 -0.00058703282)
(0.014222143 -0.018700453 0.0028565221)
(0.013020237 -0.0189249 0.0054320493)
(0.011427843 -0.019654369 0.0097375939)
(0.017017644 -0.027929398 -0.01051618)
(0.019132758 -0.02832163 -0.0073894021)
(0.020403029 -0.02802346 -0.0036283415)
(0.020923892 -0.027974304 -0.00060654815)
(0.020626013 -0.028046063 0.0027413543)
(0.019562941 -0.028422189 0.006346377)
(0.017367959 -0.027947491 0.0095709033)
(0.024473399 -0.035130762 -0.0107788)
(0.026785661 -0.034958233 -0.0076303316)
(0.028404925 -0.035173582 -0.0039676999)
(0.028808381 -0.035057527 -0.00055767762)
(0.028639701 -0.03517348 0.0029604192)
(0.027412623 -0.035180268 0.0061512549)
(0.025552413 -0.035356654 0.010007997)
(0.034324969 -0.042903959 -0.010575308)
(0.036363011 -0.042883637 -0.0074859661)
(0.037798672 -0.042814886 -0.0038653393)
(0.038298389 -0.042981032 -0.00077326922)
(0.038000801 -0.042847207 0.0028793844)
(0.036827541 -0.042820432 0.0062595833)
(0.034794877 -0.04270429 0.0095002436)
(0.045481918 -0.050141208 -0.010574778)
(0.047672404 -0.050349347 -0.0073713363)
(0.049161448 -0.050644876 -0.003972671)
(0.049663848 -0.050670749 -0.00073644779)
(0.049474409 -0.050793885 0.0027830913)
(0.048369572 -0.050999312 0.0059342845)
(0.046454963 -0.050677671 0.0095828338)
(0.05856023 -0.057975813 -0.010384343)
(0.060637538 -0.058196233 -0.0073695923)
(0.062050123 -0.058255884 -0.0038834109)
(0.062571587 -0.058386584 -0.00069886826)
(0.062229207 -0.05824498 0.0025832081)
(0.061208974 -0.058131145 0.0059214581)
(0.059211094 -0.057898707 0.0090268302)
(0.073185179 -0.065545956 -0.010327535)
(0.07526608 -0.065805272 -0.007145486)
(0.076685627 -0.066189794 -0.0039624005)
(0.077171858 -0.066236362 -0.00082655698)
(0.076989704 -0.066451396 0.0024802479)
(0.075934794 -0.066309707 0.0056454152)
(0.074124868 -0.066141212 0.0090758163)
(0.089461406 -0.073430125 -0.010146639)
(0.091503249 -0.073756724 -0.0071727797)
(0.09286695 -0.073869874 -0.0039382259)
(0.09346731 -0.074218446 -0.00074393907)
(0.093140641 -0.074082431 0.0024111174)
(0.09215961 -0.073936822 0.0055465604)
(0.0903017 -0.073628122 0.0086374953)
(0.10738587 -0.081332978 -0.010028449)
(0.10938061 -0.081684973 -0.00705091)
(0.11076576 -0.082060982 -0.0038165878)
(0.11120565 -0.082075914 -0.00093099332)
(0.11108144 -0.082200315 0.0022962909)
(0.11004726 -0.082086022 0.0052267884)
(0.10830995 -0.08196342 0.0086263376)
(0.12686955 -0.089364927 -0.0099475616)
(0.12886521 -0.089799444 -0.0068686355)
(0.13010951 -0.090078572 -0.0039753001)
(0.13074349 -0.090358737 -0.0008640342)
(0.13048759 -0.090351336 0.0022284993)
(0.12943775 -0.090162889 0.0051039023)
(0.12790491 -0.089918576 0.0083052345)
(0.1479505 -0.097657055 -0.0097349038)
(0.14977695 -0.097988196 -0.0068150098)
(0.15114066 -0.09842247 -0.0038960927)
(0.15164502 -0.098480016 -0.00093466416)
(0.15144659 -0.098543102 0.00207663)
(0.15050445 -0.098515318 0.0048635425)
(0.14891458 -0.098151486 0.0080029937)
(0.17044459 -0.10594584 -0.0096287855)
(0.17228778 -0.10638812 -0.0067221986)
(0.17366792 -0.10677609 -0.0039289284)
(0.17412303 -0.10693896 -0.00099079983)
(0.17403896 -0.10709982 0.0019572835)
(0.17305864 -0.10689051 0.0046592931)
(0.17163001 -0.10661928 0.007785103)
(0.19448673 -0.11454618 -0.0094737075)
(0.19632441 -0.11495788 -0.0066133573)
(0.1976057 -0.11532503 -0.003914524)
(0.19813521 -0.11551437 -0.00098142483)
(0.19799037 -0.11554642 0.001794055)
(0.19711512 -0.11541576 0.0045313942)
(0.19567627 -0.11509702 0.0075039994)
(0.21999632 -0.12319392 -0.0093046954)
(0.22173993 -0.12361756 -0.0065450361)
(0.22308399 -0.12406342 -0.0038735775)
(0.22355413 -0.12422551 -0.0010888003)
(0.22347933 -0.12435091 0.0017224871)
(0.22261325 -0.1242042 0.0043215687)
(0.22124626 -0.12388374 0.0072872909)
(0.24688238 -0.13207634 -0.0091634243)
(0.24865086 -0.13255513 -0.0064274958)
(0.2499318 -0.1329611 -0.0038688234)
(0.25040803 -0.13313652 -0.0010640343)
(0.2503478 -0.13325084 0.0016009194)
(0.2495184 -0.13307657 0.0041893581)
(0.24819873 -0.13277311 0.007073215)
(0.27522408 -0.14114378 -0.0089729549)
(0.27691613 -0.14161557 -0.0063599869)
(0.27820497 -0.14205982 -0.0038014651)
(0.27866554 -0.14226793 -0.0011189177)
(0.27862884 -0.14237923 0.0015053773)
(0.27782135 -0.14223028 0.0040425023)
(0.2765513 -0.14190711 0.0068573811)
(0.30490284 -0.15041287 -0.008810881)
(0.30656768 -0.15090591 -0.0062240883)
(0.30783034 -0.15135768 -0.0037545442)
(0.30826779 -0.15155411 -0.001120853)
(0.30825954 -0.1516807 0.0014299826)
(0.30747252 -0.15152609 0.0039074871)
(0.3062692 -0.15123764 0.0066444642)
(0.33593198 -0.15987549 -0.0085866613)
(0.33756092 -0.16038258 -0.0060972229)
(0.33878717 -0.16085322 -0.0036909972)
(0.33922676 -0.16109215 -0.0011321329)
(0.33923448 -0.16121569 0.0013404629)
(0.33847874 -0.16109592 0.0037638285)
(0.3373284 -0.16077703 0.006421797)
(0.36828906 -0.16954596 -0.0083627458)
(0.36985624 -0.1700725 -0.0059417635)
(0.37105574 -0.17056121 -0.0036014818)
(0.37148622 -0.17078438 -0.0011268873)
(0.37150699 -0.17093227 0.0012714908)
(0.37078763 -0.17079749 0.0036187712)
(0.36969469 -0.17050983 0.0061913573)
(0.40190914 -0.179399 -0.008086323)
(0.40343115 -0.17994423 -0.0057532112)
(0.40460033 -0.18042932 -0.0034962281)
(0.40501704 -0.18069245 -0.0011176649)
(0.40505928 -0.1808312 0.0011998671)
(0.40436994 -0.18073265 0.0034692766)
(0.40334109 -0.18044778 0.0059469817)
(0.43677454 -0.18944242 -0.0077658464)
(0.43824707 -0.18998563 -0.0055304654)
(0.43936398 -0.19048703 -0.0033757827)
(0.43978328 -0.19074859 -0.0010896076)
(0.43982457 -0.19092359 0.0011387743)
(0.43919293 -0.19082957 0.0033067394)