/*--------------------------------*- C++ -*----------------------------------*\
  =========                 |
  \\      /  F ield         | OpenFOAM: The Open Source CFD Toolbox
   \\    /   O peration     | Website:  https://openfoam.org
    \\  /    A nd           | Version:  6
     \\/     M anipulation  |
\*---------------------------------------------------------------------------*/
FoamFile
{
    version     2.0;
    format      ascii;
    class       pointScalarField;
    location    "1.8";
    object      p;
}
// * * * * * * * * * * * * * * * * * * * * * * * * * * * * * * * * * * * * * //

dimensions      [1 -1 -2 0 0 0 0];

internalField   nonuniform List<scalar> 
3969
(
41605.285
-1455.0909
388.22267
30.990866
60372.919
19322.208
-389.49053
232.12133
25326.752
22991.132
23619.152
19428.408
30967.513
21307.926
38922.476
654.09773
757.1985
694.70719
97.941714
-310.25068
-345.79741
-336.67887
9426.937
-530.86983
-2940.7192
-10392.793
-12471.715
-20322.921
-21051.878
-28284.422
-29549.029
-32989.803
-36151.478
-38233.355
-39010.04
-41175.265
-42503.003
-42657.193
-44322.707
-43842.249
-44621.622
-43637.866
-43703.609
-42879.25
-42329.127
-41366.051
-40168.071
-38917.301
-37410.879
-35910.605
-34819.175
-32860.653
-31333.244
-29539.869
-27568.995
-25470.822
-23548.953
-21069.986
-18841.825
-16706.301
-14083.806
-11747.751
-9428.9814
-7128.4959
-5016.2533
-3026.1087
-1643.4886
-460.73387
166.77197
5749.1938
3055.6027
11157.328
9351.7741
16980.583
14397.018
20419.35
19537.735
24102.092
23630.875
27282.783
28923.706
30266.554
31721.637
33288.535
33778.617
35150.755
35903.496
36042.615
37540.061
36295.288
38157.872
36345.425
37717.273
36236.288
36566.587
34579.363
34485.59
33122.039
32068.572
31141.514
29440.274
28120.264
26200.425
24519.874
22388.4
20437.712
18205.93
15953.776
13649.205
11234.912
9232.0874
7151.9166
5398.8131
3588.5556
1998.6209
773.45783
29466.241
33338.749
22285.986
31381.482
29628.246
25843.851
32348.479
2470.091
11604.206
18078.811
23407.739
30322.513
35216.85
40761.492
43840.549
51304.358
48353.83
55164.189
58271.272
59457.726
65748.985
61341.61
68557.41
63877.743
67919.532
64595.033
65862.736
63710.169
63722.92
61638.057
60815.109
58863.495
57946.878
55546.258
52948.44
51017.61
48833.482
45985.7
43568.221
40889.949
37820.999
34914.845
31991.544
28303.664
25229.926
22073.159
18826.864
15503.616
12539.518
9445.6617
6799.6263
4249.6085
2187.0227
159.89563
-584.54073
-643.10162
-719.93576
464.65485
101.92623
851.86276
988.17353
-205.73628
-204.60573
-575.15254
-1654.9621
-2881.6278
-4304.387
-5885.8026
-7366.245
-9313.8131
-10725.412
-11958.911
-15289.835
-16186.625
-17487.367
-19204.218
-20315.696
-21498.182
-22419.389
-23057.429
-23733.363
-24410.733
-24359.503
-24925.367
-24374.874
-25072.132
-24243.048
-24564.421
-22948.132
-23411.156
-21282.61
-21753.347
-18959.207
-16772.578
-17790.692
-17599.446
-11451.251
-13797.404
-8568.1895
-7268.622
-9692.9446
-5694.5942
-1874.7854
-2588.4933
6508.6881
1398.5874
6189.2651
8310.4021
41827.27
45730.01
48687.8
46321.389
51426.456
46992.761
56106.614
-19330.503
-28913.233
-22013.118
-24157.779
-10467.957
-709.4514
-3771.2234
124.61583
260.44632
-175.06103
-213.87993
-316.75983
-172.91649
-90.790216
603.72895
605.8104
665.74383
605.06607
340.16151
78.853985
336.36775
7473.4252
-323.56606
-3155.9154
-5825.723
-9516.8205
-12385.299
-16447.021
-19363.274
-22594.601
-25697.624
-29107.619
-29237.231
-34166.203
-34389.733
-36418.041
-36814.713
-38084.078
-37554.349
-38004.33
-37168.278
-37253.521
-35848.571
-35352.263
-34022.198
-33492.482
-31692.466
-30656.186
-29331.993
-27869.58
-26293.666
-24787.495
-22989.244
-21301.666
-19496.746
-17652.16
-15740.424
-13756.505
-11841.714
-9861.3487
-8108.61
-6227.487
-4711.0159
-3174.6519
-2134.6001
-1089.1152
-294.88824
399.51293
10235.361
130.6045
681.90083
-2312.41
-6590.6235
-9053.0526
-10692.215
-14009.132
-15766.185
-18586.403
-19613.085
-21955.233
-22772.289
-23247.129
-24879.327
-24764.907
-25510.459
-24964.05
-25304.058
-24713.544
-24204.75
-23459.103
-22681.808
-22015.402
-20977.274
-20231.184
-19436.901
-18143.524
-17592.821
-16410.516
-15531.23
-14435.107
-13491.734
-12316.579
-11241.911
-10038.835
-8852.3936
-7721.3891
-6524.3543
-5371.6339
-4256.5015
-3188.0116
-2264.7765
-1294.2429
-630.69105
81.356618
354.97808
9293.1719
2034.007
4046.4242
490.60734
-1870.3522
-2539.948
-4394.6877
-6560.5601
-8358.7292
-9497.2779
-11920.521
-11980.276
-13512.56
-13582.369
-14448.978
-14251.991
-14986.502
-14183.71
-14930.519
-13563.366
-13986.861
-12637.128
-12651.596
-11375.128
-11066.756
-10044.859
-9564.7704
-8896.7728
-8402.1069
-7573.2872
-7099.4105
-6315.5782
-5773.6156
-4967.9166
-4468.3192
-3745.6804
-3073.993
-2513.0664
-1774.6135
-1226.3432
-631.15675
-167.53315
284.83893
567.43013
638.26115
768.00733
404.52156
11686.62
4565.0589
4556.489
2699.4284
986.42637
465.20355
1230.2603
-1073.6117
221.35921
-3509.7253
-1008.7367
-3459.1614
-2746.7488
-3801.7378
-4351.258
-3915.0713
-4177.6399
-3460.8845
-3456.9158
-2480.2321
-2536.151
-1690.1469
-1114.2996
-198.87342
-167.93961
820.44616
968.12168
1577.5715
1844.9259
2213.4901
2277.2864
2604.9737
2598.625
2748.7424
2668.443
2721.6791
2693.6109
2655.2827
2419.8047
2111.9126
1982.2654
1905.2277
1665.9915
1539.9055
1318.7767
1026.2195
466.63027
13222.57
6754.943
8621.6349
6890.1661
7574.4355
7499.7857
7401.8847
7070.3951
6852.9305
6073.2036
7034.9562
5705.6926
6777.4633
6154.1559
6877.5069
7398.3928
7102.803
8413.1025
7894.1317
9161.7751
8485.9748
8738.7101
8429.7252
7764.4766
8748.0588
9532.7724
9081.2326
9467.5897
9270.8124
9435.7559
9073.5944
9176.0791
8640.4816
8505.5842
7987.251
7512.8937
7186.0805
6454.0861
6579.3259
5954.4174
5448.536
4728.2463
4059.2493
3460.3389
2567.8493
1881.7131
516.3701
11610.392
8007.805
7622.4996
9610.8893
9272.4561
9831.4857
11728.051
11116.032
13657.739
13107.61
15743.612
15673.049
16544.902
18012.649
17994.836
19224.456
19160.502
20693.409
20051.128
21742.09
20622.35
21487.107
20194.415
20368.383
19253.534
19867.988
19347.104
19283.075
18827.719
18356.048
17942.255
17176.887
16425.272
15588.316
14526.397
13557.994
12328.421
11258.639
10068.189
9221.6414
7896.5698
6636.6791
5393.5192
4019.3878
2867.5118
1727.6929
625.98614
11253.951
10051.045
12129.656
11836.038
15078.153
14825.151
18804.961
18057.82
22045.886
21416.059
24429.155
25501.516
27576.104
27189.491
29297.998
28906.398
30755.298
29959.587
31959.291
30908.972
32412.384
31221.169
31939.492
31527.603
31085.941
31153.725
30656.078
29784.013
28888.875
27821.573
26742.445
25406.377
23960.201
22468.915
20751.592
19034.419
17227.728
15329.999
13651.557
11519.651
9689.0084
7833.749
6187.3008
4519.6539
3242.4031
1936.5826
918.49812
26041.873
23714.706
24891.661
26556.845
25604.563
21735.583
20688.701
19874.736
21551.534
20584.853
20781.955
21967.572
22048.618
18407.057
14744.826
12998.575
15432.286
16885.465
19138.082
16210.263
14589.879
11514.962
10395.802
11329.205
12134.924
14023.355
18257.469
12450.255
18629.028
15370.54
16861.749
18268.454
18707.397
19924.132
18894.903
13771.62
3230.5457
4542.8392
4544.8778
6376.7887
8278.9595
4450.4159
20103.489
25238.272
15627.425
17398.82
21333.045
18205.347
20405.651
-5058.7437
-2943.8704
-200.95871
1021.6839
1370.7579
3318.8212
3696.1055
4139.6236
-1332.4885
101.82157
315.8524
1070.8926
5432.0475
8040.0969
13669.376
15944.371
17281.895
16582.331
19364.934
20851.946
19189.835
12512.23
11504.673
13037.869
14434.247
16307.4
17599.303
21338.613
16646.851
19591.919
23102.466
25425.385
26414.1
28671.281
28256.507
19780.079
20952.982
23935.396
25770.497
29320.067
30886.622
32965.749
21111.208
25114.357
27279.026
30389.395
33286.343
34438.024
36024.849
25567.579
27250.889
31061.724
32721.013
34218.814
36983.394
38997.451
25693.32
30468.399
33070.565
37247.277
39874.734
43169.89
45263.41
30253.203
32555.615
34738.141
37610.525
40390.526
43777.448
46498.4
31724.112
35207.354
37830.942
41272.826
44817.853
48073.663
51249.574
32641.848
37005.757
39058.409
43928.892
46223.32
50947.524
52316.421
35441.975
37579.014
41067.332
44343.442
48193.859
51493.141
56143.174
36646.168
39481.663
44023.517
48108.097
50610.206
55179.39
57358.471
37815.728
40692.685
44767.814
47558.334
50912
54686.27
58387.126
39315.119
41436.641
46142.42
49431.728
53029.384
57419.632
60152.102
39543.812
42759.443
46979.858
50094.915
53418.79
56815.864
59707.207
40751.913
43651.251
47907.413
50752.249
54472.36
58168.756
61179.36
40792.88
43716.984
47913.171
50486.022
54228.857
57140.819
60224.092
41209.044
44467.81
48297.994
50853.647
54620.645
57644.896
60844.082
41415.387
43763.995
47881.857
49914.266
53853.021
56322.126
59434.358
41266.429
44063.384
47628.762
49869.371
53575.524
55920.948
59234.37
41091.576
43073.389
47170.655
48795.892
52377.595
54514.047
57708.633
40525.328
43326.844
46502.822
47965.312
51646.852
53658.525
56857.111
40077.013
42471.753
45050.736
46780.387
50271.469
51976.151
55243.723
38559.751
42108.39
43497.048
46356.081
49136.078
51146.017
53949.45
38946.48
40814.031
42733.561
45018.804
47326.575
49348.071
51775.18
37664.456
39645.23
41513.423
43736.319
45638.945
47906.09
49489.222
36656.859
38266.916
40102.841
41617.269
43429.046
45820.583
47230.5
35486.212
36843.231
38570.531
40003.948
41906.393
44066.903
45315.175
33871.925
35450.589
36788.736
38112.883
39727.829
41688.164
42816.949
32478.002
33639.052
34926.401
36066.102
37586.164
39414.471
40523.713
30544.418
31840.795
32851.115
33908.336
35252.837
37000.796
38018.596
28737.849
29805.043
30711.591
31636.343
32906.98
34487.306
35295.793
26600.368
27673.509
28309.625
29155.957
30216.218
31792.878
32470.317
24449.177
25308.648
25841.268
26684.704
27618.506
28546.583
29678.039
22039.867
22776.474
23356.341
23730.329
24877.394
26452.711
26623.495
19905.957
20628.875
20732.429
21512.2
21960.61
22892.593
23597.51
17236.491
17805.426
17867.009
18503.702
19011.845
20038.298
20442.545
14775.297
15150.994
15331.637
15681.213
16110.638
17066.561
17397.071
12167.811
12510.846
12499.034
12808.832
13215.975
14035.951
14281.762
9878.1225
10113.443
10018.164
10359.679
10536.025
11313.709
11514.566
7516.9288
7494.7074
7393.1939
7621.972
7725.8356
8496.8688
8609.6253
5524.4083
5432.9531
5365.9601
5508.205
5525.4961
6171.0476
6152.1772
3461.3345
3240.4337
3159.295
3175.2875
3160.8645
3724.3292
3698.4049
1952.4519
1738.3791
1678.4209
1632.6729
1656.1915
2055.8157
2033.9492
678.64748
286.30698
365.77307
239.44991
280.27781
423.64721
426.82667
870.14413
1042.8802
961.95138
852.36945
579.10009
529.92661
501.46897
1524.7507
1395.1367
1169.3665
1190.2858
905.02038
762.98129
1066.5668
708.57931
828.60606
547.70115
451.32878
239.33954
291.21766
419.60285
99.196987
60.263125
-35.274434
-157.13584
-412.54904
-281.25809
-267.03753
-638.62158
-519.8165
-958.41437
-920.99196
-1246.0146
-1122.3722
-968.80182
-839.50714
-787.41555
-859.69542
-1088.0174
-1278.0757
-1097.2669
-1037.4643
-402.40744
-695.89155
-684.05039
-902.66429
-1010.3603
-854.81065
-1125.2345
10046.538
13040.662
11089.804
14085.29
11492.58
11958.977
8154.314
880.13735
2755.1056
2057.9537
2149.8112
5181.0139
4807.6281
7998.0767
-2455.659
-45.229965
1009.3622
2235.5409
2859.6054
1386.5077
2978.6647
-5791.8229
-6852.3998
-4264.5432
-4150.2679
-3544.4984
-307.8303
288.99376
-12379.579
-10056.445
-8017.375
-7131.7931
-4844.9049
-5246.4151
-628.94379
-14611.549
-14848.532
-12230.588
-10902.954
-7453.6628
-3662.9592
-1636.6922
-20420.95
-18062.824
-15187.553
-13578.513
-11481.862
-7900.6169
-7693.4264
-22124.584
-21394.013
-18833.383
-14119.656
-13311.61
-10488.939
-5996.7962
-27334.994
-25793.164
-22617.058
-18425.895
-17150.15
-13296.761
-11020.473
-30737.001
-27535.312
-23435.21
-20742.25
-18044.923
-14062.708
-10738.102
-33506.593
-29956.264
-28429.766
-24126.866
-21698.448
-17414.005
-14927.86
-34810.556
-33164.285
-28664.167
-25057.272
-22078.06
-18481.047
-15051.899
-38610.163
-33757.583
-31168.547
-27326.55
-24651.142
-20129.509
-16391.628
-39904.777
-36405.425
-32407.501
-29035.828
-24942.958
-21430.842
-17369.344
-41253.45
-37732.622
-33660.324
-31068.966
-27337.78
-23592.983
-19885.631
-43002.863
-37876.544
-34183.45
-30587.959
-27369.766
-23996.435
-19717.239
-43491.184
-39119.076
-35743.896
-32556.936
-29057.374
-25469.082
-21177.72
-43911.537
-39143.234
-35951.266
-32602.55
-28767.674
-25626.757
-21284.296
-43655.606
-39669.105
-36525.433
-32997.071
-29794.19
-26787.476
-22813.521
-43903.868
-39454.585
-36367.512
-33126.943
-29729.552
-26738.897
-22689.091
-43382.864
-39185.789
-36572.024
-33317.454
-30274.514
-27482.092
-23834.98
-42915.952
-38871.141
-36360.736
-33169.122
-29965.136
-27191.907
-23700.325
-41995.302
-38355.779
-36069.67
-32867.077
-30042.44
-27509.286
-24610.355
-41263.2
-37694.289
-35462.42
-32357.435
-29587.113
-27128.052
-24427.796
-40108.317
-36583.338
-34974.157
-31694.114
-29465.592
-27058.31
-24797.451
-39088.281
-35478.643
-34038.548
-30845.855
-28757.72
-26517.568
-24403.56
-37387.997
-34558.645
-32955.27
-30198.096
-28059.431
-26002.664
-24348.302
-36206.957
-33312.664
-31812.738
-29263.567
-27375.579
-25433.003
-24039.318
-34403.859
-31934.319
-30754.147
-28215.766
-26390.889
-24586.383
-23399.905
-32664.418
-30693.753
-29169.919
-27078.027
-25341.454
-23748.324
-22685.821
-30958.803
-29126.469
-27840.864
-25899.183
-24266.953
-22699.352
-21863.355
-28882.666
-27532.9
-26081.245
-24416.997
-22775.439
-21381.11
-20747.606
-26859.219
-25797.089
-24421.421
-22945.599
-21401.141
-20188.81
-19700.996
-24747.14
-23903.686
-22502.6
-21276.213
-19853.269
-18797.43
-18253.439
-22516.169
-21990.409
-20628.145
-19560.68
-18056.769
-17119.183
-16489.257
-20126.28
-19667.643
-18458.822
-17507.348
-16347.843
-15720.929
-15349.977
-18139.673
-17850.195
-16466.472
-15800.463
-14627.617
-13264.794
-13486.113
-15226.904
-15391.776
-14305.052
-13442.008
-12633.586
-11751.371
-11801.948
-12903.033
-13080.317
-11709.715
-11523.539
-10452.744
-9787.478
-9942.8863
-10547.167
-10896.668
-9748.3736
-9615.7718
-8495.1345
-8084.6731
-8062.6279
-8203.8422
-8543.5389
-7497.4278
-7462.1159
-6472.2098
-6384.1018
-6212.5853
-6074.3906
-6488.0595
-5536.6987
-5603.9502
-4737.4733
-4704.6268
-4558.6395
-4118.055
-4345.1035
-3591.5067
-3744.737
-2980.6665
-3166.0579
-3001.154
-2437.5977
-2581.3397
-2074.3012
-2234.1273
-1677.0139
-1978.4707
-1715.386
-1064.4269
-1134.6866
-839.94905
-893.27006
-537.21361
-759.10319
-568.48484
-150.98941
-264.85086
-19.03346
-159.60449
-31.712164
-264.10647
-206.77218
212.6128
121.61171
178.16411
92.456735
216.66264
10.371292
133.57198
7633.7509
5721.1014
5061.3686
3347.0524
2483.8182
-190.20911
204.00726
-1750.2059
-2630.2705
-5986.9699
-5596.9223
-8244.5593
-9068.1211
-10247.501
-11152.639
-12754.703
-13155.075
-14483.26
-15249.641
-15995.205
-16633.365
-17010.131
-17419.151
-17704.675
-17913.256
-17658.589
-17415.186
-17027.166
-16616.927
-15899.456
-15022.691
-14089.904
-12965.354
-11770.953
-10871.267
-9075.7802
-7833.1137
-6857.5433
-5294.3215
-4236.1083
-3233.2824
-2239.4706
-1407.9368
-769.97826
-267.6517
48.824968
765.88323
7905.4388
9345.3227
5123.5373
8261.5066
6323.6313
5195.1104
4556.5813
5535.639
1000.5964
4294.1977
-81.870172
1266.8473
-561.66938
-1100.9328
-2570.6967
-2939.9816
-4479.9938
-4009.0436
-5911.5724
-5482.7415
-6739.5657
-6536.8512
-7411.2255
-7111.4422
-7580.3317
-7217.193
-7323.3537
-7112.1426
-7057.9624
-6761.6086
-6515.5655
-6121.7944
-5620.0964
-5326.0927
-4452.1246
-4053.6452
-3536.5884
-2851.6934
-2054.4865
-1692.5365
-1009.3093
-567.60958
-144.37302
145.04547
382.52639
627.74984
705.53956
7145.7767
7339.6774
6168.7625
11487.301
9847.8032
11898.382
10597.995
13345.908
11343.371
14078.61
11230.083
12745.515
10951.579
11350.991
9626.1847
9224.3819
8554.7959
7954.8759
7043.2669
6896.0983
6017.5578
5662.9096
4930.4143
4711.4969
3940.4101
3719.9098
3249.0405
3198.8884
3049.6693
2890.4458
2830.5973
2834.6856
2743.3269
2859.5605
2965.6375
2875.6211
2896.0937
2870.1806
2953.8979
2595.6904
2568.8115
2247.5321
1952.6589
1544.2896
1241.5686
679.84867
917.86633
10600.201
10125.911
11139.55
13903.855
13847.952
17741.79
17347.724
18941.036
19580.533
20213.627
19733.448
22311.773
19329.984
21047.246
18839.263
20568.975
18623.044
19311.041
17859.827
18210.922
16757.538
16619.013
15540.857
15191.713
14294.152
13972.122
13202.55
12537.607
11973.498
11359.863
10877.565
10022.603
9521.6482
8879.1494
8216.2784
7579.6419
6978.7474
6317.0439
5708.2932
4920.1378
4296.6745
3643.4786
2864.508
2305.3251
1473.6465
1048.7593
455.55781
10031.606
10387.871
10392.419
17381.358
15599.963
21543.048
21904.712
25024.153
24871.726
28533.78
26890.724
30975.304
29279.136
31700.377
30594.805
31472.619
31012.595
31097.234
30470.729
30262.276
29121.742
28850.924
27629.182
27227.334
25852.763
25040.345
23748.177
22797.953
21873.802
20941.733
19953.381
18827.228
17847.432
16571.393
15494.323
14286.829
13030.425
11715.344
10497.647
9018.0151
7757.3679
6338.5462
5047.6804
3711.5319
2563.5
1331.5263
716.87142
11728.962
10611.508
17019.356
19067.621
22501.637
26145.629
28354.193
31320.094
32948.583
35857.171
36978.479
42323.986
40012.766
44436.684
42014.904
45218.488
43079.123
44285.39
42733.138
42880.78
41593.179
41182.111
39691.135
38630.202
36690.909
35261.811
33678.885
32487.83
30956.974
29541.147
28117.358
26525.315
24890.473
23189.489
21463.65
19687.791
17716.886
15909.868
13942.422
12047.244
10085.611
8305.5231
6353.4476
4836.0927
3073.1283
1800.7735
382.70857
10715.073
15243.902
17260.927
23463.748
26032.147
31413.112
36286.207
38862.9
43410.353
46912.148
49927
51212.948
52954.85
54061.566
55577.992
55727.848
57127.741
56396.26
57176.279
55977.236
55832.842
54370.779
53631.514
51936.206
50669.631
47933.991
46965.702
45383.078
43551.692
41793.286
39902.204
37664.002
35563.456
33284.052
30783.732
28291.387
25687.052
22999.439
20322.839
17510.108
14866.194
11994.862
9607.6619
7036.3398
4867.2874
2690.1252
1223.98
15047.823
14465.681
16076.626
15905.774
17749.795
18163.869
16686.097
4563.734
5114.3803
8668.5959
10738.133
10952.064
8952.9683
9830.398
328.56134
816.73116
4297.3329
4842.2402
4034.306
7199.3249
6291.8498
-4862.2488
-3587.9183
-1493.8805
-746.33806
2594.0294
3521.3171
3806.9046
-9343.4807
-6684.8014
-5683.9563
-3727.7879
-101.88567
712.20034
3334.1396
-11777.252
-9536.8291
-6519.5763
-4643.6604
-3804.9915
-1041.3522
-52.020231
-16590.142
-12861.522
-11554.927
-9429.0724
-5213.344
-5606.6846
-1658.6092
-18510.446
-16777.651
-14290.872
-11022.584
-8773.1661
-5190.4725
-1851.6244
-23727.554
-19885.549
-14720.919
-15237.441
-10818.681
-7389.2072
-4176.5253
-25264.391
-20074.739
-20727.937
-16776.831
-12876.366
-9698.8211
-7336.1769
-27120.776
-26496.174
-20996.733
-17951.848
-13917.149
-11346.097
-6600.518
-31482.196
-25951.673
-23220.343
-20352.146
-17016.657
-12423.266
-8857.0545
-32796.529
-29728.475
-25570.437
-23492.236
-17208.672
-14783.743
-10010.043
-34342.918
-29539.54
-28170.959
-23725.825
-19743.657
-15944.036
-11350.833
-35884.399
-31979.799
-27770.726
-24293.325
-19764.417
-16638.529
-12637.52
-36870.696
-32215.822
-30285.724
-26373.042
-21900.476
-17753.135
-13795.283
-36743.679
-33866.54
-30042.421
-27195.498
-21957.542
-18381.474
-14242.002
-37451.637
-33693.455
-31006.58
-26979.678
-22777.153
-19337.542
-15631.771
-37241.911
-34712.839
-30604.463
-27888.868
-23260.691
-19883.981
-15349.212
-37393.449
-33976.237
-31111.567
-27974.909
-23894.653
-20337.259
-16759.854
-36337.65
-34304.691
-30699.644
-27939.171
-23604.058
-20648.185
-16518.667
-35913.671
-33808.702
-30499.094
-27631.833
-24190.192
-20957.606
-17572.154
-34985.981
-33311.648
-29450.329
-27358.81
-23596.992
-21149.522
-17149.912
-33866.054
-32383.464
-29151.571
-27099.498
-24008.24
-21301.728
-17583.72
-32457.365
-31930.042
-28091.213
-26586.89
-23230.142
-21126.462
-17215.007
-31799.902
-30834.937
-27734.684
-25767.055
-23555.963
-20653.629
-17637.783
-30703.697
-29609.487
-26570.852
-25223.802
-22816.9
-20447.174
-17228.206
-29328.802
-28044.637
-26222.945
-24128.004
-22058.909
-19989.928
-16709.517
-27782.212
-27349.933
-24326.089
-23212.963
-21306.614
-19398.801
-16183.316
-26695.419
-25282.804
-23611.306
-22178.599
-20489.33
-18554.55
-15677.02
-24907.68
-23929.663
-22020.61
-20814.847
-19112.771
-17619.889
-14715.013
-23415.322
-22066.246
-20771.402
-19445.78
-18166.476
-16640.046
-14026.896
-21648.165
-20328.454
-19059.219
-17976.633
-16683.649
-15522.438
-12865.017
-19902.813
-18404.452
-17581.141
-16357.162
-15354.232
-14067.022
-11710.711
-17923.483
-16420.118
-15681.928
-14664.157
-13729.363
-12837.469
-10662.38
-16047.742
-14519.15
-14032.028
-12952.778
-12219.285
-11440.777
-9396.0286
-14131.012
-12477.153
-12257.652
-11051.362
-10613.22
-9494.3131
-8011.5727
-12008.994
-10358.826
-9920.8187
-9341.2192
-8532.3533
-8453.8912
-7100.5387
-10088.746
-8366.6976
-8618.8759
-7507.1251
-7429.445
-6799.002
-5615.941
-8194.6175
-6704.9021
-6788.5332
-5876.5216
-5634.5196
-5315.1246
-4410.9676
-6349.8045
-4751.0451
-4992.1312
-3927.7601
-4147.2345
-3803.0874
-3180.9665
-4670.2395
-3390.9257
-3563.0699
-2837.1736
-2946.4853
-2621.3781
-2192.1811
-3079.6406
-1777.6664
-2074.8347
-1229.8499
-1444.5543
-1324.7566
-1205.1195
-1817.4138
-941.28964
-1109.3958
-427.33226
-708.86977
-571.54318
-385.6805
-530.07865
142.65589
90.064232
590.24931
324.01893
514.51413
281.08217
140.48061
575.32086
548.56901
814.83776
693.85288
658.10651
693.91016
791.36599
1173.6392
1199.1033
1362.9471
1122.9794
1267.9587
946.388
10307.246
12792.525
14079.401
15533.271
16969.233
16061.292
14686.704
4572.0979
11711.973
11957.995
12861.772
13366.902
13199.642
10259.158
3364.7437
4953.2001
5860.08
6537.1281
7797.1435
7318.6373
9599.9129
-2291.4466
-705.64965
1953.7226
2563.4156
4474.7395
6860.0323
3924.6622
-4556.3992
-1598.1462
1047.9954
2814.6515
4774.1601
2420.9919
6223.8429
-6940.5803
-5523.6627
-3986.7194
-1668.5771
-515.00793
2057.9956
5380.914
-9707.8355
-8366.697
-5228.3519
-2986.0953
-195.20567
1734.1712
2971.2902
-13300.677
-10164.019
-7355.6696
-4491.691
-2688.0115
246.7176
4045.037
-14796.154
-11465.475
-9665.4963
-7081.2321
-3413.0064
-943.95666
2012.7578
-16081.827
-14590.913
-12012.139
-7170.6465
-4534.5675
-2045.6397
1389.4689
-19347.144
-16490.738
-11869.52
-8839.3007
-6518.8468
-3105.0256
1326.5412
-21125.461
-16236.765
-14536.936
-9979.2007
-7453.3862
-2458.4282
-630.31412
-21255.983
-18789.522
-15845.459
-10919.899
-8206.8899
-4686.9539
-962.02555
-22912.362
-19235.236
-16014.141
-10779.856
-8566.7667
-5013.7083
-54.806149
-23355.521
-20861.846
-17280.332
-13024.24
-10219.981
-6716.0532
-1359.7022
-24433.595
-20410.254
-17619.431
-13020.964
-9534.1593
-6596.661
-945.28333
-24709.615
-21946.862
-18782.419
-13943.372
-10906.783
-8372.4838
-2978.5696
-25267.521
-21498.948
-18251.714
-13936.704
-10778.748
-7872.8054
-2320.1726
-25271.269
-21972.586
-18903.657
-15045.069
-11713.895
-9172.0438
-3994.5997
-25042.908
-21372.979
-18710.634
-14609.937
-11264.885
-8667.7868
-3764.9281
-24756.677
-21775.955
-18793.888
-15244.324
-11981.189
-9775.6404
-5088.4892
-24746.969
-20924.972
-18238.589
-14833.22
-11716.289
-9379.2434
-4908.8051
-24117.056
-20702.623
-18256.665
-15388.263
-12258.512
-9917.0469
-5892.2126
-23828.549
-19939.726
-17904.523
-14856.579
-11882.656
-9402.8972
-6134.4234
-22944.396
-19619.244
-17432.368
-14904.812
-11902.471
-9747.1766
-6641.7551
-22277.353
-18795.864
-16590.311
-14477.278
-11457.597
-9059.5053
-6958.6009
-21081.691
-17922.934
-16192.6
-13951.402
-11239.99
-9079.0014
-6999.0656
-20355.743
-17247.639
-15177.902
-13299.85
-10904.744
-8635.1501
-6960.1749
-19057.772
-16217.872
-14781.56
-12676.849
-10665.301
-8213.9268
-6880.9676
-17895.5
-15352.473
-13707.994
-12001.554
-9780.8289
-7810.4771
-6495.1293
-16753.67
-14517.578
-13001.718
-11302.16
-9397.911
-7516.0036
-6251.6071
-15469.836
-13505.79
-11920.478
-10555.979
-8662.7928
-6971.0629
-5745.8944
-14209.971
-12566.308
-11046.809
-9730.1466
-8019.284
-6352.2708
-5167.9883
-12850.805
-11467.265
-9911.4328
-8888.4762
-7179.9577
-5741.3986
-4665.1966
-11537.424
-10442.512
-8975.7355
-7938.5617
-6477.0724
-5155.9133
-4310.8611
-10160.259
-9329.5693
-7780.5821
-7089.1901
-5557.7151
-4517.1747
-3183.3586
-8786.0047
-8166.8007
-6707.3015
-5980.9753
-4794.4937
-3632.2877
-2673.8503
-7405.3856
-6990.1789
-5505.9093
-5086.0108
-3832.008
-3064.4142
-2297.2792
-6042.3138
-5977.4122
-4619.0352
-4251.0291
-3132.6825
-2535.8158
-1447.6267
-4715.5788
-4817.4066
-3196.7268
-3081.956
-2073.9614
-1566.7949
-818.29194
-3606.4448
-3711.773
-2332.2043
-2443.3331
-1462.9878
-1148.7093
-427.10118
-2360.1387
-2617.3195
-1306.1799
-1508.1071
-566.96407
-478.83819
118.03074
-1455.7567
-1701.2581
-518.38692
-729.09852
20.51071
-20.648055
445.55188
-557.6348
-744.20401
299.5699
-63.927257
548.0052
416.15901
751.69652
70.112451
-32.613483
740.20088
482.88442
940.28713
747.17714
780.39877
630.17783
592.57364
1219.2228
943.79208
1149.3559
982.85036
926.55584
817.19431
944.11667
1308.2464
1094.0032
1083.0199
1174.0763
919.22257
11208.81
12865.69
12301.661
13390.253
14706.151
13982.407
12640.585
8197.5751
10658.351
11517.706
13377.344
14465.964
11559.151
12449.872
5222.741
4745.2197
5151.5214
7847.9548
7666.5535
9049.1838
10675.696
441.26147
2903.8553
6835.2119
7814.6251
10693.169
10754.893
9040.5201
-1480.7625
2543.932
2479.675
4158.4305
7630.6278
6307.5101
12451.629
-1660.6397
-767.04853
2427.7065
4477.4328
5457.4799
9981.8887
11638.514
-6634.6115
-2315.8175
563.64971
2538.8341
5834.1105
6510.0611
9793.5631
-6165.2823
-2455.1077
-486.7764
2946.2471
4975.391
7720.4127
11161.589
-8314.4823
-5956.0609
-2024.8191
271.44292
3762.2814
6154.4346
10111.705
-10814.518
-5875.3301
-2678.58
1031.2286
2801.8209
7410.6695
9838.5231
-11573.538
-8207.7501
-3060.2744
-1269.1814
2744.6054
5756.4424
10126.753
-11650.492
-7819.4721
-4558.6321
-1101.2301
1332.1297
6823.4449
8911.7903
-13102.554
-11099.107
-4329.1399
-2437.9956
2264.6598
5380.6134
8987.601
-14447.949
-9845.3604
-5903.3401
-2769.9618
-235.59528
5430.6473
8802.0729
-14254.978
-11539.64
-5498.7192
-3922.0609
598.81425
5729.1841
8491.4993
-14966.892
-10919.094
-7131.9047
-3246.3144
-281.74969
4793.3436
7597.6766
-14145.967
-12386.039
-6162.1627
-4281.4511
-217.24923
4266.0482
8371.1154
-15180.777
-11041.569
-7075.0913
-4138.9335
-980.43693
4102.4481
7164.4487
-13844.485
-12027.454
-6776.1195
-4827.0755
-479.72619
3381.0699
7386.2594
-14360.716
-11251.112
-7215.5229
-4355.1056
-1181.1629
3129.2198
6291.7719
-13422.849
-11430.614
-6571.3822
-4752.9586
-781.67931
2416.4737
6477.8966
-13288.421
-10397.905
-6963.7984
-4398.0483
-1387.2897
2407.8849
5644.3507
-12377.985
-10391.094
-6284.4895
-4592.6522
-672.08623
1930.3063
5514.6742
-12001.401
-9321.6963
-6275.4304
-4050.4171
-726.44008
1571.9676
5039.3759
-11110.884
-8884.2488
-5738.7262
-3922.8176
-531.23001
1123.6459
5016.6356
-10769.002
-7748.6275
-5665.7288
-3379.0177
-441.75613
1113.8976
4608.6672
-9784.2087
-7646.45
-4918.3915
-3688.5218
17.834133
440.09854
4737.8896
-9426.3872
-7037.218
-4846.6904
-3017.9537
-371.95306
686.51079
4010.8625
-8400.3662
-6392.2123
-4102.9562
-2748.0497
119.06001
828.62053
4023.3179
-8056.8075
-5645.5765
-3904.6421
-2301.215
26.821671
786.96614
3660.7305
-7230.4927
-5109.6922
-3238.3081
-1992.5027
408.76485
847.67963
3617.5291
-6656.5796
-4370.3774
-2866.94
-1516.7779
512.88595
1060.1804
3577.2376
-5906.5737
-3775.5391
-2242.3633
-1102.1472
889.25538
1278.1647
3399.262
-5282.9438
-3075.0262
-1812.1822
-645.50166
1056.3415
1362.8705
3225.1123
-4546.6056
-2481.3987
-1235.0104
-169.05001
1358.8891
1684.9154
3342.0731
-3823.1331
-1819.7321
-675.97309
293.51477
1569.827
1880.049
3126.5551
-3189.4062
-1174.5619
-211.49826
707.38509
1820.1671
2241.9785
3056.2724
-2427.6464
-650.64055
307.87995
1070.7597
2100.3367
2268.6485
2818.1163
-1773.1701
-51.125906
728.67354
1484.7014
2245.5366
2357.3708
2911.445
-1273.6005
381.66347
1083.2053
1664.1757
2344.606
2517.6753
2709.2557
-570.48269
1010.5712
1372.3546
2002.1401
2480.3127
2484.4332
2451.302
-108.74188
1106.5283
1481.5297
2062.5973
2380.7404
2374.4934
2345.6227
399.52674
1520.5053
1812.0295
2240.539
2430.2497
2385.8238
2049.3918
643.55304
1458.497
1579.3235
1891.2054
2094.6818
1855.7601
1729.7526
971.48208
1530.2671
1667.1201
2011.4731
2006.4439
1882.3746
1632.3857
911.63405
1116.3579
1328.9479
1249.6725
1326.3269
1170.8411
1056.2807
909.8501
1343.4515
1271.8323
1275.2988
1324.4264
1168.7523
960.13812
14145.639
16648.567
17680.428
18313.832
18828.642
17985.963
16582.883
6227.5956
10110.797
10226.438
12610.918
12719.708
13317.626
11986.06
6596.4206
8659.5441
11286.665
13302.106
12550.66
14611.536
13773.738
2655.5045
5521.0524
8455.2985
9215.2028
10657.885
12512.939
11957.202
4169.4801
7390.6253
8378.0501
10587.538
11452.066
13000.344
15605.895
2407.8049
3544.862
4957.9428
7662.2149
10053.711
12445.118
13367.128
-17.733043
5769.3218
5944.1598
11060.254
11476.899
13775.568
16576.076
-317.31105
1334.1722
5431.5937
7818.1979
9853.803
13825.055
16457.304
-2552.2248
3570.2271
5191.6862
8658.561
11882.896
15154.421
16731.267
-735.606
2458.9143
5102.8445
9130.828
11496.374
14929.001
18205.804
-2076.9153
1900.5938
4579.3264
8355.8679
11223.816
15169.996
18142.467
-2453.7497
1721.8595
5230.8514
8675.8752
12060.047
15637.071
18250.993
-3589.3319
1199.6242
4350.7284
7426.6487
11761.281
13793.764
20296.401
-2899.761
2117.032
3611.4986
8492.8841
11782.716
15856.215
19719.215
-2922.4529
538.21315
4588.5363
7308.1426
12792.96
14554.178
19290.026
-3151.1062
1627.3266
4421.4111
8406.8911
12413.718
15219.963
19632.813
-2956.6189
840.21116
4531.4298
6905.3379
12159.81
14329.627
18802.688
-3036.1475
1952.4917
4005.0098
7773.2816
12421.285
14962.162
18988.3
-2281.315
679.77971
4206.1621
6942.7808
11957.776
13754.136
18078.437
-2793.2084
1973.5759
4394.8956
7761.3833
12035.51
14129.236
18348.546
-1682.0049
1254.4497
4499.1717
6896.4476
11459.36
13258.812
17532.952
-2188.4971
2017.8263
4628.1156
7461.7932
11643.302
13461.524
17359.075
-1224.6977
1732.425
4706.2901
7087.6851
11185.661
12530.269
16627.48
-1648.452
2642.7595
4522.3535
7590.7338
10736.783
12545.418
16220.545
-771.93841
2370.9539
4583.8989