/*--------------------------------*- C++ -*----------------------------------*\
  =========                 |
  \\      /  F ield         | OpenFOAM: The Open Source CFD Toolbox
   \\    /   O peration     | Website:  https://openfoam.org
    \\  /    A nd           | Version:  6
     \\/     M anipulation  |
\*---------------------------------------------------------------------------*/
FoamFile
{
    version     2.0;
    format      ascii;
    class       pointVectorField;
    location    "1.7";
    object      u;
}
// * * * * * * * * * * * * * * * * * * * * * * * * * * * * * * * * * * * * * //

dimensions      [0 1 0 0 0 0 0];

internalField   nonuniform List<vector> 
3969
(
(0 -7.5314323e-20 0)
(0 -4.0319164e-19 0)
(-0.81707676 -0.173484 -0.04191176)
(-0.8378673 0.029301599 -0.048631729)
(0 4.1220487e-18 0)
(0 3.3214742e-18 0)
(-0.83282085 0.037899974 -0.048634042)
(-0.81202566 -0.16483606 -0.041995669)
(0 1.7642099e-19 0)
(0 1.0631827e-18 0)
(0 4.6240263e-19 0)
(-2.6556126e-18 -2.3911787e-19 0)
(0 1.2726903e-18 0)
(0 -7.3275226e-19 0)
(0 -7.1576918e-19 0)
(-0.81968736 -0.14803511 -0.04270944)
(-0.82222508 -0.12265252 -0.043519493)
(-0.82478542 -0.097329196 -0.044380389)
(-0.82736009 -0.072040073 -0.045246285)
(-0.82996012 -0.046768484 -0.046127125)
(-0.83259986 -0.021462707 -0.046985247)
(-0.83525469 0.0038973807 -0.047820946)
(-0.0019476524 -0.0051414109 -0.0051880826)
(-0.0030518156 -0.008255449 -0.0065629718)
(-0.0051996764 -0.012665123 -0.0072777453)
(-0.0088173812 -0.016346512 -0.0078033038)
(-0.012995802 -0.020739402 -0.0081078713)
(-0.018567021 -0.024637255 -0.0084021459)
(-0.024640322 -0.028896839 -0.0088003222)
(-0.032023147 -0.03281674 -0.0091136553)
(-0.039959935 -0.036957396 -0.0096599915)
(-0.048968099 -0.040745702 -0.010056135)
(-0.058700572 -0.04485989 -0.010687548)
(-0.069229685 -0.048534487 -0.011276706)
(-0.08059662 -0.052528535 -0.011919047)
(-0.092648263 -0.056246045 -0.012659202)
(-0.10551982 -0.060088604 -0.01338493)
(-0.11900688 -0.063802039 -0.014179424)
(-0.13325578 -0.067604881 -0.015019591)
(-0.14812282 -0.071304107 -0.015882864)
(-0.16369882 -0.075085544 -0.01678673)
(-0.17986075 -0.078791045 -0.017722571)
(-0.1966932 -0.082548645 -0.018679911)
(-0.21409475 -0.086272348 -0.019667345)
(-0.23211734 -0.090027109 -0.020662629)
(-0.2507031 -0.093762542 -0.02168108)
(-0.26986935 -0.097510004 -0.02269638)
(-0.28957246 -0.1012631 -0.02372495)
(-0.30982466 -0.10500731 -0.024743022)
(-0.33059503 -0.10874276 -0.025755472)
(-0.3518803 -0.11248038 -0.026751487)
(-0.37364923 -0.11618052 -0.027732077)
(-0.39589316 -0.119876 -0.028683678)
(-0.41858401 -0.12353167 -0.029609084)
(-0.4417048 -0.12715167 -0.030504069)
(-0.46522168 -0.13073103 -0.031360722)
(-0.48910905 -0.13425596 -0.032188761)
(-0.51334085 -0.13772487 -0.032981667)
(-0.53787522 -0.14112452 -0.033741553)
(-0.56267803 -0.14445763 -0.034467378)
(-0.58771394 -0.14771294 -0.035180832)
(-0.61293413 -0.15088919 -0.03588333)
(-0.63831519 -0.15398576 -0.036568676)
(-0.66380229 -0.15699258 -0.037263782)
(-0.6893692 -0.15992192 -0.037962945)
(-0.71495773 -0.16276677 -0.038686933)
(-0.74057374 -0.16552753 -0.03943648)
(-0.76610751 -0.16823756 -0.040232452)
(-0.79163356 -0.17086169 -0.041064236)
(-0.00022619357 0.0039076879 0.0056107044)
(-0.0026942439 0.0070207617 0.005015061)
(-0.004571551 0.010071962 0.0064168032)
(-0.0082938057 0.013668449 0.0054245795)
(-0.013111288 0.016931407 0.0053011871)
(-0.018684136 0.020404782 0.0043335927)
(-0.025539473 0.023550769 0.0036578954)
(-0.033090714 0.026796684 0.0026431147)
(-0.041705328 0.029721454 0.0017273609)
(-0.051149377 0.032684561 0.00062631218)
(-0.061429707 0.035335976 -0.00042485498)
(-0.072580708 0.038004084 -0.0015930241)
(-0.084480126 0.040390139 -0.0027592478)
(-0.097204555 0.042718195 -0.0039904254)
(-0.11062859 0.044830489 -0.0052381402)
(-0.12484749 0.046855797 -0.006535262)
(-0.13970026 0.048641208 -0.0078516692)
(-0.15533963 0.050381585 -0.0092093624)
(-0.17152118 0.051852247 -0.010582268)
(-0.18850837 0.053296339 -0.011991677)
(-0.20595392 0.054492075 -0.013406922)
(-0.22418533 0.055616682 -0.014849074)
(-0.2428688 0.056547465 -0.016303806)
(-0.2622677 0.057381504 -0.017773285)
(-0.28211061 0.058017214 -0.01923707)
(-0.30259574 0.058545359 -0.020714807)
(-0.32350453 0.058890989 -0.022192374)
(-0.34502793 0.059111329 -0.023672161)
(-0.36699721 0.059148633 -0.025129657)
(-0.38944112 0.059031529 -0.026591437)
(-0.41234343 0.05875209 -0.028036608)
(-0.43564499 0.058303991 -0.029465165)
(-0.45935399 0.057683254 -0.030877615)
(-0.4834076 0.05688716 -0.032264989)
(-0.50779466 0.055912531 -0.03362806)
(-0.53247109 0.054763583 -0.034967295)
(-0.55739596 0.053428975 -0.036270218)
(-0.58253133 0.051917122 -0.03754687)
(-0.60786303 0.050245191 -0.038798118)
(-0.63331211 0.048395259 -0.040006349)
(-0.65888191 0.046399969 -0.041196513)
(-0.68450119 0.044254513 -0.042344442)
(-0.71016388 0.041982231 -0.043474107)
(-0.73580797 0.039592301 -0.044558318)
(-0.76143453 0.037109555 -0.045622848)
(-0.78699117 0.034553279 -0.046649793)
(-0.81247836 0.031934441 -0.047649479)
(0 -4.5989817e-20 0)
(0 5.4273851e-19 0)
(0 -6.4255302e-19 0)
(1.308559e-18 -1.3319887e-19 0)
(0 -1.1005813e-18 0)
(0 -5.0993537e-19 0)
(0 -4.293162e-19 0)
(-0.0023192976 0.0030566864 -0.004687235)
(-0.0038025117 0.00999054 -0.0065750853)
(-0.0053789552 0.010970974 -0.0070705618)
(-0.0092659941 0.017003396 -0.0078896464)
(-0.013635328 0.019967156 -0.0085009609)
(-0.019246151 0.024409981 -0.0087914676)
(-0.025820697 0.028014447 -0.0095676351)
(-0.033231578 0.031750753 -0.0099257682)
(-0.041721616 0.035308578 -0.01076747)
(-0.050922099 0.038620477 -0.011328168)
(-0.061092352 0.04184786 -0.012235438)
(-0.072060701 0.044880388 -0.013024811)
(-0.083787239 0.047511049 -0.013860076)
(-0.096420613 0.050462509 -0.014872483)
(-0.10962847 0.052569834 -0.015719787)
(-0.12372283 0.055221983 -0.016859939)
(-0.13838269 0.057041748 -0.017800594)
(-0.15384135 0.059231245 -0.018970201)
(-0.16986832 0.06083998 -0.02003272)
(-0.1866184 0.062575251 -0.021219853)
(-0.20393358 0.06392794 -0.022368292)
(-0.22190771 0.065259391 -0.023582583)
(-0.24044407 0.066315797 -0.024777868)
(-0.25957579 0.067259757 -0.026005141)
(-0.27928143 0.068013099 -0.027208096)
(-0.29958828 0.068580695 -0.028385773)
(-0.32035698 0.069019835 -0.029610031)
(-0.34165196 0.069235693 -0.030787383)
(-0.36344615 0.069285656 -0.031960691)
(-0.38571754 0.069137315 -0.033096998)
(-0.40843616 0.068797175 -0.034195232)
(-0.43158674 0.068272422 -0.035264576)
(-0.45513358 0.067552563 -0.036289196)
(-0.4790511 0.066639085 -0.037272434)
(-0.50330234 0.065536121 -0.038210311)
(-0.52788034 0.064262907 -0.03911207)
(-0.55266361 0.062752422 -0.039966471)
(-0.57775347 0.061161282 -0.040797187)
(-0.60297955 0.059325769 -0.041587031)
(-0.6283855 0.057376523 -0.042358024)
(-0.65389691 0.055265347 -0.043106514)
(-0.67949105 0.053037698 -0.043854946)
(-0.70511765 0.05068932 -0.044600125)
(-0.73075684 0.048246947 -0.045355851)
(-0.75636575 0.045728272 -0.046134795)
(-0.78191982 0.043144043 -0.046938571)
(-0.80740359 0.040534163 -0.047782118)
(-0.8301952 0.012491088 -0.047771866)
(-0.82753355 -0.01287914 -0.046925667)
(-0.82491225 -0.038171486 -0.046109854)
(-0.8222935 -0.063459735 -0.045320982)
(-0.8197496 -0.088723575 -0.044519007)
(-0.81717274 -0.11405909 -0.043712579)
(-0.81463698 -0.13942445 -0.042863199)
(-0.78662257 -0.16222718 -0.041013825)
(-0.76113846 -0.15959645 -0.040044795)
(-0.73563504 -0.1568826 -0.039046497)
(-0.71010443 -0.15408698 -0.038027698)
(-0.68458535 -0.15119291 -0.036981504)
(-0.65911105 -0.14819958 -0.03590976)
(-0.63372159 -0.14510145 -0.03481485)
(-0.60844787 -0.14190275 -0.033693108)
(-0.58333491 -0.13860495 -0.032549562)
(-0.55841112 -0.13522435 -0.031378661)
(-0.53369136 -0.13174034 -0.030184417)
(-0.50936418 -0.12818308 -0.029002364)
(-0.48516949 -0.12456941 -0.02773605)
(-0.46141151 -0.12089784 -0.02649675)
(-0.43798387 -0.11718542 -0.025218154)
(-0.41496123 -0.11344224 -0.023938442)
(-0.39235975 -0.10968039 -0.022646046)
(-0.37020375 -0.1059074 -0.021347193)
(-0.34851504 -0.10214116 -0.02004305)
(-0.32731992 -0.098373765 -0.018744997)
(-0.30662518 -0.094638177 -0.017439515)
(-0.28646146 -0.090906679 -0.016151365)
(-0.26683151 -0.087223279 -0.01485906)
(-0.24775588 -0.083542896 -0.013590782)
(-0.2292454 -0.079924186 -0.012312985)
(-0.21131759 -0.076302618 -0.011073972)
(-0.1939787 -0.072753184 -0.0098216448)
(-0.17725052 -0.069181539 -0.0086179211)
(-0.16114507 -0.065700028 -0.0073976071)
(-0.14567189 -0.062162057 -0.0062416344)
(-0.13085552 -0.05873827 -0.0050505868)
(-0.11670205 -0.055236301 -0.0039475537)
(-0.10324611 -0.051834149 -0.0028255989)
(-0.090521111 -0.048290919 -0.0017843453)
(-0.078541321 -0.044952382 -0.0006713829)
(-0.067244758 -0.041392394 0.00021529845)
(-0.056765558 -0.038112371 0.0013154332)
(-0.047086765 -0.034458076 0.0020940462)
(-0.038144896 -0.031156898 0.0031192208)
(-0.030241657 -0.027404657 0.0038462654)
(-0.023033808 -0.024332228 0.004691282)
(-0.016752307 -0.020360666 0.005250869)
(-0.011468377 -0.017252795 0.0059858512)
(-0.0071313597 -0.01343273 0.006185402)
(-0.0039778766 -0.010387663 0.0063058815)
(-0.0017918636 -0.0064382373 0.0058636838)
(-0.0027397841 -0.0040956839 0.0035857574)
(0 5.5736086e-19 0)
(0 4.3571655e-19 0)
(0 -2.2578834e-19 0)
(0 -1.4836209e-18 7.4247508e-19)
(0 -1.3026322e-18 0)
(0 -2.8640325e-19 0)
(0 1.3696115e-18 0)
(0 1.8959267e-18 0)
(0 1.8072976e-18 0)
(0 1.7172408e-18 0)
(0 1.4831088e-18 -1.8219369e-19)
(0 4.0065117e-18 0)
(0 1.7563994e-18 0)
(0 -3.2362032e-19 0)
(-0.83725968 0.030426852 -0.04862552)
(-0.83666339 0.031540706 -0.048623083)
(-0.83605506 0.032642827 -0.048634427)
(-0.83543841 0.033729959 -0.048642785)
(-0.8348047 0.034805387 -0.048652709)
(-0.8341526 0.03585395 -0.048656357)
(-0.83348649 0.036896016 -0.048636739)
(-0.81646575 -0.17248202 -0.041931611)
(-0.81584914 -0.17144379 -0.041949909)
(-0.81522727 -0.17038805 -0.041963444)
(-0.8145989 -0.1693057 -0.04196711)
(-0.81395949 -0.16820808 -0.041968143)
(-0.81331675 -0.16709499 -0.041973855)
(-0.81267059 -0.1659728 -0.04198438)
(-0.00070030604 -0.0098744655 -0.0047103312)
(-0.0022980392 -0.01800174 -0.0047557532)
(-0.0043344901 -0.026923702 -0.005676024)
(-0.0080072983 -0.035160937 -0.0060702412)
(-0.012035134 -0.04309008 -0.0064410692)
(-0.017671669 -0.05084002 -0.0068079189)
(-0.023508255 -0.057649428 -0.0072077824)
(-0.03081893 -0.064319107 -0.0076478861)
(-0.038550911 -0.069883451 -0.0081008721)
(-0.047402789 -0.075003992 -0.0086757016)
(-0.056873453 -0.079229913 -0.0092763673)
(-0.06729417 -0.082668855 -0.0098931744)
(-0.078437358 -0.085442315 -0.010627091)
(-0.090415794 -0.087287592 -0.011355097)
(-0.10316282 -0.088499966 -0.012174758)
(-0.1166764 -0.088907198 -0.013029159)
(-0.13098779 -0.088722347 -0.01392805)
(-0.14601735 -0.087843744 -0.014875011)
(-0.16180649 -0.086502338 -0.015858738)
(-0.17831496 -0.084638043 -0.016873058)
(-0.19553268 -0.082439357 -0.017931402)
(-0.21343587 -0.079934471 -0.018999924)
(-0.23201849 -0.077257671 -0.020103654)
(-0.25123619 -0.074479994 -0.021212614)
(-0.2710905 -0.071734759 -0.022339658)
(-0.29154634 -0.069091371 -0.023447288)
(-0.312563 -0.06666633 -0.024566465)
(-0.33412618 -0.064555039 -0.025666017)
(-0.35619766 -0.062830716 -0.026747388)
(-0.37873406 -0.061587763 -0.027804971)
(-0.40170555 -0.060897852 -0.028832235)
(-0.42507063 -0.060812226 -0.029828832)
(-0.44878451 -0.061397969 -0.03078856)
(-0.47280456 -0.062686804 -0.031711078)
(-0.4970941 -0.064705419 -0.032601014)
(-0.52159657 -0.067483 -0.033449564)
(-0.54628266 -0.070993868 -0.034273317)
(-0.57110323 -0.075261636 -0.035056707)
(-0.59601949 -0.080244607 -0.03583209)
(-0.6209896 -0.085904241 -0.036585263)
(-0.64599235 -0.092204445 -0.037323484)
(-0.67098451 -0.099074978 -0.03806519)
(-0.69594837 -0.10645985 -0.038802611)
(-0.72085476 -0.11426972 -0.039556836)
(-0.74569796 -0.12242582 -0.040321967)
(-0.77043272 -0.13084464 -0.041107547)
(-0.7951178 -0.13939956 -0.041906744)
(0.00053796945 -0.011234375 -0.0031871562)
(-0.0011301084 -0.020451307 -0.0035323917)
(-0.0036149363 -0.031602763 -0.0040303611)
(-0.0070392983 -0.040625054 -0.0045608777)
(-0.011577048 -0.05026954 -0.0048296537)
(-0.016650261 -0.058579746 -0.0052279531)
(-0.022873095 -0.066601674 -0.0057038608)
(-0.029869426 -0.073434326 -0.006024949)
(-0.037666462 -0.07948063 -0.0067526985)
(-0.046349544 -0.084413716 -0.0072244289)
(-0.05587555 -0.088364854 -0.0079159077)
(-0.066176712 -0.09114568 -0.0086169268)
(-0.077343842 -0.092926299 -0.0093920692)
(-0.08932532 -0.093503849 -0.010212943)
(-0.10212298 -0.09314079 -0.011104221)
(-0.11572233 -0.091704167 -0.01199241)
(-0.1301047 -0.089395356 -0.012966734)
(-0.1452613 -0.086185322 -0.013973814)
(-0.16123373 -0.082269054 -0.015013916)
(-0.17793333 -0.077670092 -0.016111584)
(-0.19541768 -0.072581236 -0.017224556)
(-0.21360063 -0.067088123 -0.018370459)
(-0.23249699 -0.061341538 -0.019545792)
(-0.25206301 -0.055506128 -0.020726864)
(-0.27229514 -0.049692448 -0.02191512)
(-0.29311653 -0.04406392 -0.023120205)
(-0.31453602 -0.038763145 -0.024315434)
(-0.33650041 -0.033902317 -0.025491097)
(-0.35895347 -0.029642819 -0.02665856)
(-0.38187784 -0.026075997 -0.027795173)
(-0.40521011 -0.023320763 -0.028902499)
(-0.42890602 -0.021462831 -0.029978186)
(-0.45291511 -0.020583715 -0.031012475)
(-0.47719116 -0.020738821 -0.032011863)
(-0.50167832 -0.021974812 -0.032968549)
(-0.52633036 -0.024310151 -0.033892276)
(-0.55110699 -0.027752858 -0.034774649)
(-0.57595371 -0.032297588 -0.035627197)
(-0.60084207 -0.037894981 -0.036457313)
(-0.62572682 -0.044506774 -0.03725833)
(-0.65059 -0.052065583 -0.038044596)
(-0.67538931 -0.060475795 -0.038826554)
(-0.70012227 -0.069659946 -0.039594369)
(-0.72475181 -0.079475274 -0.040372644)
(-0.74930112 -0.089831634 -0.041151313)
(-0.77370912 -0.10057546 -0.041935735)
(-0.79806355 -0.11155604 -0.042741183)
(0.0016140894 -0.007510413 -0.002158789)
(-0.00021373152 -0.014330328 -0.0022106162)
(-0.0021933002 -0.021432419 -0.002550362)
(-0.0061149304 -0.02807969 -0.0029474327)
(-0.010167779 -0.034273588 -0.0032405554)
(-0.015934245 -0.040352867 -0.0037187778)
(-0.02205628 -0.045374052 -0.0040506249)
(-0.029376151 -0.050271639 -0.0047432553)
(-0.037321317 -0.054116121 -0.0053049142)
(-0.04637851 -0.057502268 -0.0059156917)
(-0.055947076 -0.060073037 -0.0067259279)
(-0.066589315 -0.06185923 -0.0074671384)
(-0.077869794 -0.062985608 -0.0083124804)
(-0.090054397 -0.063265334 -0.009207618)
(-0.10296943 -0.062946101 -0.010150987)
(-0.11670614 -0.061853012 -0.011113159)
(-0.13119207 -0.060196833 -0.012164452)
(-0.14647607 -0.057904699 -0.013192932)
(-0.16247686 -0.055154166 -0.014325473)
(-0.17921916 -0.051934853 -0.015442941)
(-0.19665348 -0.048410128 -0.016624712)
(-0.21478359 -0.044598641 -0.01781637)
(-0.23359679 -0.040689291 -0.019035838)
(-0.25306533 -0.03669662 -0.020248015)
(-0.27314258 -0.032774303 -0.021504588)
(-0.29383565 -0.029015099 -0.022726632)
(-0.31510798 -0.025515363 -0.02394971)
(-0.33690139 -0.022371595 -0.025170065)
(-0.35920865 -0.019688166 -0.026364648)
(-0.38197404 -0.017525173 -0.027541366)
(-0.40516214 -0.015977293 -0.028695915)
(-0.42873268 -0.015100606 -0.029816065)
(-0.45264503 -0.014948352 -0.030908813)
(-0.4768475 -0.015570762 -0.031963081)
(-0.50130237 -0.01698024 -0.032990661)
(-0.52596254 -0.019214956 -0.033974673)
(-0.55078564 -0.022253078 -0.034934217)
(-0.57573268 -0.026104086 -0.035857994)
(-0.60075772 -0.030727813 -0.036757145)
(-0.62582416 -0.036094079 -0.037636068)
(-0.65090343 -0.042142803 -0.038497102)
(-0.67596124 -0.048820453 -0.039348231)
(-0.70097994 -0.05605052 -0.04018167)
(-0.72593121 -0.063744456 -0.041029214)
(-0.75081022 -0.071829964 -0.041855131)
(-0.77557795 -0.080185056 -0.042705863)
(-0.80029183 -0.088719237 -0.04354397)
(0.0022381889 -0.00056154395 -0.00057722454)
(0.00062006362 -0.00048405339 -0.00050686108)
(-0.0014988765 -0.0013425472 -0.0007208898)
(-0.0049199122 -0.0013243578 -0.0013040864)
(-0.0096668653 -0.0019844568 -0.0016081259)
(-0.015117607 -0.0022311988 -0.0021673266)
(-0.021736052 -0.0026521081 -0.0028548582)
(-0.029107732 -0.0031259496 -0.0034404849)
(-0.037587502 -0.0035291519 -0.0041834358)
(-0.04674324 -0.0040963323 -0.0050222108)
(-0.056882772 -0.0046053961 -0.0058202487)
(-0.067825504 -0.0052288477 -0.0066666068)
(-0.079499878 -0.0059407359 -0.0075777933)
(-0.092037788 -0.0066054008 -0.008545121)
(-0.10523294 -0.0074812059 -0.0095017266)
(-0.1192218 -0.0083033712 -0.010548704)
(-0.13385887 -0.009290911 -0.011582146)
(-0.14918771 -0.010275699 -0.012694429)
(-0.16518374 -0.011368837 -0.013816276)
(-0.18179844 -0.012515828 -0.014958348)
(-0.19908814 -0.013739887 -0.016139103)
(-0.21697594 -0.015061543 -0.017311913)
(-0.23545768 -0.016435456 -0.018514877)
(-0.2544955 -0.017876178 -0.019739345)
(-0.27411935 -0.01942207 -0.020954468)
(-0.2942886 -0.021027945 -0.022170139)
(-0.31498177 -0.022722818 -0.023416545)
(-0.33619721 -0.02447869 -0.024642048)
(-0.35791376 -0.026326176 -0.025859227)
(-0.38010742 -0.028234138 -0.02707522)
(-0.4027635 -0.030228874 -0.028262626)
(-0.42585471 -0.032289768 -0.029437208)
(-0.44935557 -0.034423227 -0.030585043)
(-0.47323352 -0.036628343 -0.031709535)
(-0.49746581 -0.038894682 -0.032805314)
(-0.52200521 -0.041230748 -0.03387175)
(-0.54683205 -0.043617056 -0.034916081)
(-0.5718888 -0.046064082 -0.035926578)
(-0.59714856 -0.048549655 -0.036919693)
(-0.62257552 -0.051083966 -0.037884333)
(-0.64813258 -0.053659264 -0.038831681)
(-0.67376627 -0.05625864 -0.039764311)
(-0.69945734 -0.058886054 -0.040685472)
(-0.72514471 -0.061518099 -0.041602067)
(-0.75083133 -0.064169568 -0.042507514)
(-0.77644179 -0.066807281 -0.043422604)
(-0.80201875 -0.069444584 -0.044335319)
(0.002718342 0.0066174514 0.00087385536)
(0.00098827581 0.012897434 0.00093850806)
(-0.0005281819 0.019279633 0.0006467099)
(-0.0045540627 0.025263254 0.00029760844)
(-0.0089580568 0.030988416 -9.6704516e-05)
(-0.014969769 0.03603014 -0.00083235212)
(-0.021671397 0.040694573 -0.0014032209)
(-0.029680074 0.044387877 -0.0021068673)
(-0.038304569 0.047642916 -0.0030082764)
(-0.048069682 0.049825444 -0.0037840254)
(-0.058524596 0.051360002 -0.0046827768)
(-0.069838599 0.051835661 -0.0056394256)
(-0.081880852 0.051618369 -0.0066693474)
(-0.094670536 0.050401961 -0.0076675547)
(-0.10810141 0.048363761 -0.0087688761)
(-0.12224857 0.045547517 -0.0098438477)
(-0.13695722 0.041866236 -0.0109794)
(-0.15233126 0.037557846 -0.012098834)
(-0.16822154 0.032511311 -0.013267893)
(-0.18471931 0.026955948 -0.014428453)
(-0.2017304 0.020861325 -0.015632039)
(-0.21926469 0.014421238 -0.016831123)
(-0.23730985 0.0076719518 -0.018070556)
(-0.25589672 0.00072970523 -0.019282231)
(-0.27500475 -0.0063010271 -0.020518068)
(-0.2946068 -0.013320406 -0.021757849)
(-0.31473511 -0.020218502 -0.023000937)
(-0.33536626 -0.026908976 -0.024220813)
(-0.35650316 -0.033297994 -0.025454549)
(-0.3781374 -0.039293795 -0.026670237)
(-0.40027577 -0.044830005 -0.027880685)
(-0.42289954 -0.049825679 -0.029080799)
(-0.44600736 -0.05423263 -0.030267936)
(-0.46957693 -0.058006318 -0.031434867)
(-0.49359555 -0.061101783 -0.032590857)
(-0.51803491 -0.063515575 -0.033721526)
(-0.54287163 -0.06522065 -0.034837548)
(-0.56806425 -0.066228905 -0.035929069)
(-0.59358999 -0.066560705 -0.036994825)
(-0.61940808 -0.066255296 -0.038049829)
(-0.64543239 -0.065312479 -0.039088995)
(-0.67164723 -0.063810315 -0.040116694)
(-0.69799464 -0.061800037 -0.041124375)
(-0.72442479 -0.059346397 -0.042133924)
(-0.75089446 -0.05654121 -0.043121887)
(-0.77733428 -0.053442332 -0.044128313)
(-0.80375202 -0.050171624 -0.045117395)
(0.0023995838 0.010026779 0.0025865253)
(0.00054641001 0.020079686 0.002380878)
(-0.0011989526 0.029570316 0.0026252154)
(-0.0050097199 0.039104663 0.0020645456)
(-0.0097086141 0.047637703 0.0015916894)
(-0.01562801 0.055780722 0.00081851054)
(-0.022671402 0.062851893 0.0001597811)
(-0.030625974 0.06903879 -0.0007976675)
(-0.039600001 0.074154117 -0.001643234)
(-0.049436097 0.078067396 -0.0026068211)
(-0.060136711 0.080855134 -0.0036090277)
(-0.071607887 0.082387513 -0.0046522986)
(-0.083830331 0.082682458 -0.0056924109)
(-0.096768642 0.08176646 -0.0068007532)
(-0.11033181 0.079604576 -0.0079121255)
(-0.12457008 0.076345246 -0.0090618656)
(-0.13935717 0.07192862 -0.010209858)
(-0.15474375 0.066575455 -0.011397089)
(-0.17064938 0.060252608 -0.012595451)
(-0.18709678 0.053202243 -0.013799564)
(-0.2040339 0.045434412 -0.01502977)
(-0.22150236 0.037129927 -0.016264286)
(-0.23942377 0.028436413 -0.01749917)
(-0.2578903 0.019567551 -0.018742288)
(-0.27680516 0.010520281 -0.020012182)
(-0.29622926 0.0015621892 -0.02125524)
(-0.31614813 -0.0072628564 -0.022520814)
(-0.33656575 -0.015735315 -0.023785975)
(-0.35747728 -0.023776675 -0.02505066)
(-0.37891128 -0.03122783 -0.026314713)
(-0.40085056 -0.038002104 -0.027576334)
(-0.42329747 -0.043995237 -0.028835081)
(-0.44625718 -0.049135134 -0.030081483)
(-0.46970683 -0.053348106 -0.031321649)
(-0.49364515 -0.05660192 -0.032546884)
(-0.51804098 -0.058862473 -0.033755066)
(-0.54288212 -0.060115366 -0.034952638)
(-0.5681183 -0.060381267 -0.036126655)
(-0.59374261 -0.059668711 -0.037286062)
(-0.61966686 -0.058038137 -0.038428858)
(-0.64588328 -0.055555371 -0.03954686)
(-0.67232303 -0.052273816 -0.04064581)
(-0.69894091 -0.0482783 -0.041732631)
(-0.72566519 -0.043675008 -0.04279991)
(-0.75245346 -0.038572888 -0.043854614)
(-0.77923845 -0.033080746 -0.044897503)
(-0.80599866 -0.027348707 -0.045930845)
(0.0013255969 0.0089133517 0.0037957915)
(-0.00060731895 0.016937436 0.0038550551)
(-0.0023073392 0.025273533 0.0042157457)
(-0.0063441618 0.033169291 0.0037355773)
(-0.01073406 0.040746132 0.003269359)
(-0.016889658 0.047806583 0.0024889001)
(-0.023628193 0.054226924 0.0017444221)
(-0.03165267 0.059855856 0.00080405116)
(-0.040448668 0.064785077 -9.2528716e-05)
(-0.050225469 0.068695098 -0.0011271421)
(-0.060837697 0.071896832 -0.002190406)
(-0.072208747 0.073975831 -0.0032242287)
(-0.084388483 0.075269066 -0.004389882)
(-0.097275713 0.075567284 -0.005549942)
(-0.1108346 0.074967963 -0.0067274032)
(-0.12509447 0.073495614 -0.0079572494)
(-0.13992514 0.071192741 -0.0091841823)
(-0.15542313 0.068123811 -0.01045598)
(-0.17143289 0.064369638 -0.011717055)
(-0.1880603 0.059987924 -0.013020624)
(-0.20518971 0.055086476 -0.014310947)
(-0.22286619 0.049766705 -0.015645037)
(-0.24107954 0.044096817 -0.016959171)
(-0.25980676 0.038230464 -0.018302016)
(-0.27902704 0.032224911 -0.019635118)
(-0.29876222 0.026208244 -0.020976398)
(-0.31900498 0.020271824 -0.02234077)
(-0.33975113 0.014508694 -0.023682543)
(-0.36100619 0.0090130787 -0.025030124)
(-0.38276169 0.0038861889 -0.026375837)
(-0.40500163 -0.00082092071 -0.027712098)
(-0.42773591 -0.0050232324 -0.029044215)
(-0.45093607 -0.0086798791 -0.030360518)
(-0.47459768 -0.011738863 -0.031668229)
(-0.49869391 -0.014180648 -0.032952668)
(-0.52320287 -0.015976317 -0.034224698)
(-0.54809744 -0.017122035 -0.035475428)
(-0.57333787 -0.017634894 -0.036700025)
(-0.59889401 -0.017517766 -0.037905517)
(-0.62470541 -0.016808537 -0.039088087)
(-0.65075174 -0.015545999 -0.04024901)
(-0.67697297 -0.013773641 -0.041390288)
(-0.70331751 -0.01154828 -0.042504892)
(-0.72973876 -0.0089355097 -0.043602924)
(-0.75618657 -0.0060078463 -0.044670847)
(-0.78261971 -0.0028330653 -0.045729356)
(-0.8089851 0.00049576178 -0.046765147)
(0 -1.6843803e-19 0)
(0 9.4225788e-19 0)
(0 8.1484046e-19 0)
(0 7.1908243e-19 -2.4649214e-19)
(0 2.840756e-19 0)
(0 -9.9771423e-21 0)
(0 1.3809207e-19 0)
(0 5.1745213e-20 0)
(0 -3.3622228e-19 0)
(0 -8.288889e-19 0)
(0 -1.0297321e-18 -1.7098281e-19)
(0 -1.6881526e-19 0)
(0 2.0794986e-19 0)
(0 4.0168103e-19 0)
(0 3.2328262e-19 0)
(0 5.0921498e-19 0)
(0 9.3001514e-19 0)
(0 9.3255649e-19 4.697307e-19)
(0 8.0356152e-19 0)
(0 9.3566022e-19 0)
(0 3.1685159e-19 0)
(-5.4247711e-18 2.5555893e-19 0)
(2.3103241e-18 -5.7855362e-19 0)
(-1.3437703e-19 -2.325025e-19 0)
(4.1715108e-19 -4.0957493e-19 -3.1081257e-19)
(-7.7915526e-19 -5.7178897e-19 0)
(-1.9942654e-18 -8.1734802e-19 0)
(3.0478196e-19 -6.7489173e-19 0)
(0 5.020432e-19 0)
(0 1.7950912e-19 0)
(0 -3.4832102e-19 0)
(0 3.3956831e-20 8.8863561e-19)
(0 3.8301636e-19 0)
(0 5.5784523e-19 0)
(0 -1.5498806e-19 0)
(0 -4.0449536e-19 0)
(0 -3.3069331e-19 0)
(0 7.7784982e-20 0)
(0 3.8810441e-19 -8.8436072e-20)
(0 2.8715304e-19 0)
(0 -1.0407518e-19 0)
(0 2.6871532e-19 0)
(0 4.973214e-20 0)
(0 -2.9324561e-19 0)
(0 4.2932314e-19 0)
(0 2.7339498e-20 3.1425958e-19)
(0 4.2534282e-19 0)
(0 6.7265469e-19 0)
(0 6.0919919e-19 0)
(-0.0018775051 0.0012601963 0.0029227346)
(-0.0024591123 0.0016940399 0.002099503)
(-0.0030472408 0.0017841429 0.0010932548)
(-0.0033228163 0.0019092412 0.000314684)
(-0.0032984369 0.001806053 -0.00050998859)
(-0.0032651996 0.0019532023 -0.0013966743)
(-0.0027256925 0.0013696893 -0.0023842789)
(-0.004275554 0.0072752802 0.0041261731)
(-0.0052495905 0.0080974346 0.002246119)
(-0.0056918734 0.0076637765 0.00094178405)
(-0.0058918262 0.0075272188 -0.00021938139)
(-0.0060218418 0.0080736914 -0.0013365941)
(-0.0055917566 0.0081647126 -0.002790433)
(-0.0050774848 0.0083170532 -0.0045803061)
(-0.0059605305 0.0094122005 0.004450112)
(-0.007271542 0.0090504737 0.0031313656)
(-0.0081151666 0.0096997051 0.0010716239)
(-0.0082908444 0.0098601233 -0.00021570787)
(-0.0082841864 0.0097750005 -0.0020407252)
(-0.0077902904 0.010103226 -0.0033198612)
(-0.0070760577 0.010973328 -0.0056714344)
(-0.010233778 0.014269804 0.0038401431)
(-0.011136399 0.014753356 0.0023727795)
(-0.011852704 0.014890837 0.00059090687)
(-0.012089497 0.015017117 -0.00081960801)
(-0.012080568 0.015311137 -0.002510361)
(-0.011525189 0.015991418 -0.0043237699)
(-0.010601279 0.015963154 -0.0059964373)
(-0.014487709 0.017243095 0.0036285086)
(-0.015703579 0.017405783 0.0021511121)
(-0.016546195 0.017733113 0.00032015704)
(-0.016738274 0.018035457 -0.0013705396)
(-0.016703874 0.018473019 -0.003082892)
(-0.016154941 0.018848126 -0.0047406679)
(-0.015250297 0.019491822 -0.0067999063)
(-0.020407364 0.021199772 0.0027080923)
(-0.021316178 0.021570587 0.0013200203)
(-0.022102197 0.021926861 -0.0004820435)
(-0.022263399 0.022382884 -0.0018953974)
(-0.022217389 0.022702053 -0.0037597061)
(-0.021550867 0.023212255 -0.0054584362)
(-0.020632998 0.023729884 -0.0071252342)
(-0.026945213 0.024166786 0.0020906975)
(-0.027983528 0.024527717 0.0005168889)
(-0.028651116 0.025072106 -0.0010876457)
(-0.028888945 0.025462661 -0.0026586289)
(-0.028760858 0.026032312 -0.0043917344)
(-0.028224027 0.026770427 -0.0059627311)
(-0.027301153 0.027347099 -0.0078880322)
(-0.034573967 0.027610785 0.0010737082)
(-0.035526076 0.028247695 -0.00021924506)
(-0.036246212 0.028786042 -0.0019957323)
(-0.036367788 0.029345117 -0.0034776907)
(-0.036191436 0.029823114 -0.0050485921)
(-0.035639507 0.030445263 -0.0067839798)
(-0.034605789 0.031012949 -0.0083657098)
(-0.04310879 0.030559145 0.00024697118)
(-0.044021329 0.031057911 -0.0013155995)
(-0.044575913 0.031606528 -0.0028212225)
(-0.044732333 0.032244067 -0.0042533573)
(-0.044576673 0.032987615 -0.0059026881)
(-0.04402202 0.033699062 -0.0074091365)
(-0.043098343 0.034555496 -0.0091633289)
(-0.052457995 0.033527089 -0.00085062108)
(-0.053333824 0.034308043 -0.0021639791)
(-0.053947261 0.034975635 -0.0036893633)
(-0.054100204 0.035748885 -0.0052600415)
(-0.053904032 0.036391903 -0.0067114771)
(-0.053279303 0.037107274 -0.0083122304)
(-0.052336181 0.037755854 -0.0098771852)
(-0.062751351 0.036290059 -0.0018826933)
(-0.063564637 0.03695342 -0.0032318094)
(-0.064068267 0.037646254 -0.0048591424)
(-0.064143512 0.038288274 -0.006098879)
(-0.063934765 0.039073943 -0.0076717765)
(-0.063340617 0.039850314 -0.0091134513)
(-0.062396141 0.040914491 -0.010707749)
(-0.073781876 0.038898153 -0.0029627646)
(-0.074588039 0.039707385 -0.0043576387)
(-0.075081509 0.040561583 -0.0056995512)
(-0.075212143 0.041485564 -0.0071102702)
(-0.075006482 0.042262478 -0.0086644119)
(-0.074324122 0.043171702 -0.0099956629)
(-0.073479512 0.043975716 -0.011622491)
(-0.085718831 0.041425672 -0.0041251788)
(-0.086386222 0.042187746 -0.0054979014)
(-0.086836533 0.043028991 -0.0068319771)
(-0.08688639 0.043713386 -0.0082502702)
(-0.086629493 0.04458453 -0.0096076909)
(-0.085977057 0.045505204 -0.010987058)
(-0.085104447 0.046474608 -0.012457799)
(-0.098339097 0.043722573 -0.0053093295)
(-0.09898641 0.044599914 -0.0066077436)
(-0.099485693 0.045512603 -0.0079272241)
(-0.099509587 0.046476648 -0.0092323928)
(-0.099266196 0.047432665 -0.010683762)
(-0.098639355 0.048432658 -0.01194851)
(-0.097762183 0.049365127 -0.013489729)
(-0.11173569 0.045926861 -0.0065034612)
(-0.11235631 0.046782048 -0.0078730549)
(-0.11276725 0.047710184 -0.0090644088)
(-0.11270754 0.04855084 -0.01047202)
(-0.11249583 0.049477543 -0.011736697)
(-0.11178129 0.050440813 -0.013035679)
(-0.11094174 0.051503894 -0.014443554)
(-0.12587937 0.047941366 -0.0077982923)
(-0.12648049 0.048879526 -0.0090477127)
(-0.12680811 0.049839547 -0.010269108)
(-0.12686762 0.050848679 -0.011545392)
(-0.12652908 0.051863991 -0.012858773)
(-0.12592077 0.05297664 -0.014094852)
(-0.12503186 0.053980257 -0.015534404)
(-0.14072182 0.049808286 -0.0090518699)
(-0.14121711 0.050724554 -0.010346169)
(-0.14162236 0.051757788 -0.011492096)
(-0.14148109 0.052680481 -0.012799287)
(-0.14124719 0.053729314 -0.014039442)
(-0.14053331 0.054740991 -0.015246024)
(-0.13967874 0.055895788 -0.016603797)
(-0.15623192 0.05152198 -0.010408693)
(-0.15680049 0.052537145 -0.011614077)
(-0.15702268 0.053545857 -0.012754796)
(-0.15701375 0.05460496 -0.013999029)
(-0.15666578 0.055665645 -0.015197975)
(-0.15601534 0.056840979 -0.016398354)
(-0.15512167 0.057922943 -0.017737761)
(-0.17247117 0.053088805 -0.01173644)
(-0.17285978 0.054063599 -0.012931221)
(-0.17319549 0.055152761 -0.014064827)
(-0.17302159 0.056165749 -0.015266082)
(-0.17273426 0.057281588 -0.016455741)
(-0.17201295 0.058377072 -0.017611593)
(-0.17115307 0.059592876 -0.018883493)
(-0.18927933 0.054505343 -0.01312682)
(-0.18975166 0.055551466 -0.014289777)
(-0.18993184 0.056632633 -0.015360424)