/*--------------------------------*- C++ -*----------------------------------*\
  =========                 |
  \\      /  F ield         | OpenFOAM: The Open Source CFD Toolbox
   \\    /   O peration     | Website:  https://openfoam.org
    \\  /    A nd           | Version:  6
     \\/     M anipulation  |
\*---------------------------------------------------------------------------*/
FoamFile
{
    version     2.0;
    format      ascii;
    class       pointVectorField;
    location    "1.31";
    object      u;
}
// * * * * * * * * * * * * * * * * * * * * * * * * * * * * * * * * * * * * * //

dimensions      [0 1 0 0 0 0 0];

internalField   nonuniform List<vector> 
3969
(
(0 -5.787e-20 0)
(0 -3.1068929e-19 0)
(-1.810355 -0.53707207 0.0018429901)
(-1.8978973 -0.12789339 -0.0021898799)
(0 3.1647816e-18 0)
(0 2.5594441e-18 0)
(-1.8932115 -0.12858882 -0.0021298014)
(-1.8056826 -0.53771004 0.0017891691)
(0 1.3474252e-19 0)
(0 8.1110886e-19 0)
(0 3.5455972e-19 0)
(-2.0516738e-18 -1.8473773e-19 0)
(0 9.8871695e-19 0)
(0 -5.6971771e-19 0)
(0 -5.5449503e-19 0)
(-1.821334 -0.48583003 0.0013812759)
(-1.8322323 -0.43463078 0.00091120704)
(-1.8431224 -0.38349292 0.00038734152)
(-1.854011 -0.33239978 -0.0001404125)
(-1.864924 -0.28133423 -0.00068987582)
(-1.8758852 -0.23024582 -0.0012203654)
(-1.8868958 -0.17911125 -0.001720213)
(-0.0044736201 -0.013804536 -0.014641091)
(-0.0067836859 -0.022510618 -0.018415748)
(-0.013166971 -0.032807433 -0.020085945)
(-0.022909908 -0.043208454 -0.020482272)
(-0.035039428 -0.053814721 -0.02030736)
(-0.050139723 -0.06468383 -0.019731311)
(-0.067223011 -0.075361389 -0.01929406)
(-0.086983157 -0.086325731 -0.018572931)
(-0.10860529 -0.096996587 -0.018143365)
(-0.13250226 -0.10783901 -0.017443524)
(-0.15826212 -0.11866331 -0.0170243)
(-0.1859035 -0.12943485 -0.016470383)
(-0.21536322 -0.14026933 -0.015975833)
(-0.24642843 -0.15115822 -0.015516612)
(-0.27917105 -0.16199627 -0.015023399)
(-0.31329486 -0.17292612 -0.014545438)
(-0.34887639 -0.18389788 -0.014098092)
(-0.38573864 -0.19489586 -0.013629733)
(-0.42385943 -0.20596382 -0.013177856)
(-0.46310959 -0.21705798 -0.012716145)
(-0.50345302 -0.22820831 -0.012263513)
(-0.54478499 -0.23940994 -0.011804174)
(-0.58706369 -0.25065236 -0.011343431)
(-0.63021411 -0.26195908 -0.010875933)
(-0.67418321 -0.27329424 -0.010401739)
(-0.7188996 -0.28471102 -0.0099220259)
(-0.7643335 -0.29615191 -0.009432038)
(-0.81042218 -0.30765731 -0.0089276281)
(-0.85713683 -0.31920617 -0.00841241)
(-0.9044157 -0.3307906 -0.0078851902)
(-0.95223119 -0.34241941 -0.0073420265)
(-1.0005367 -0.35407644 -0.0067873739)
(-1.0493002 -0.36575636 -0.0062201413)
(-1.0984779 -0.37745318 -0.005641118)
(-1.1480416 -0.38915514 -0.0050493312)
(-1.1979536 -0.40084322 -0.0044621681)
(-1.2481697 -0.41253021 -0.0038449466)
(-1.2986611 -0.42416388 -0.0032500255)
(-1.3493805 -0.43577711 -0.0026447903)
(-1.4003036 -0.4473217 -0.0020550654)
(-1.451385 -0.45881626 -0.0014656002)
(-1.5025806 -0.47023395 -0.00089964357)
(-1.5538767 -0.48156972 -0.00035496597)
(-1.6051847 -0.49283206 0.00016139669)
(-1.6565565 -0.50399173 0.00063749353)
(-1.7078395 -0.51508797 0.0010716522)
(-1.7591278 -0.52609267 0.001459223)
(-0.0024221013 0.011926531 0.016323849)
(-0.010653333 0.021682463 0.015228887)
(-0.017609249 0.031442729 0.018316753)
(-0.028706154 0.041338049 0.017299287)
(-0.043447158 0.051117831 0.017056576)
(-0.060076663 0.060103287 0.015988338)
(-0.080152518 0.068560019 0.015026934)
(-0.10228051 0.076181478 0.013859426)
(-0.12698759 0.082980897 0.012753962)
(-0.15388011 0.088945498 0.011556078)
(-0.18280879 0.094033386 0.010424764)
(-0.21375132 0.098266885 0.0092734291)
(-0.24646781 0.10163874 0.0081628056)
(-0.28088992 0.10412204 0.0070557209)
(-0.31687726 0.10580963 0.0060094851)
(-0.35430768 0.10662654 0.004990088)
(-0.39310849 0.10668399 0.0040256476)
(-0.43310046 0.10594204 0.0031119088)
(-0.47426881 0.10449741 0.0022500397)
(-0.51645267 0.10232212 0.0014591593)
(-0.55960985 0.099536795 0.00071721769)
(-0.60364152 0.096053906 6.008235e-05)
(-0.64849358 0.092046305 -0.00056104287)
(-0.69410155 0.087441579 -0.001093623)
(-0.74035827 0.082314867 -0.0015674546)
(-0.78726025 0.076686848 -0.0019782402)
(-0.83470364 0.070604975 -0.0023389153)
(-0.88274332 0.064061578 -0.0026414291)
(-0.93125256 0.057089999 -0.0028769024)
(-0.9802018 0.049723611 -0.0030875796)
(-1.0295815 0.041986594 -0.0032435109)
(-1.0793207 0.033893439 -0.0033716363)
(-1.1294095 0.025464945 -0.0034633596)
(-1.1797917 0.016716396 -0.0035273393)
(-1.2304493 0.0076715204 -0.0035664295)
(-1.2813394 -0.0016567497 -0.0035890769)
(-1.3324147 -0.011249686 -0.0035757821)
(-1.3836582 -0.021090862 -0.0035686165)
(-1.4350441 -0.031142371 -0.0035284743)
(-1.4864919 -0.041412826 -0.0034700685)
(-1.5380218 -0.051851752 -0.0033990541)
(-1.5895613 -0.062453819 -0.0033026172)
(-1.6411062 -0.073183949 -0.0031919049)
(-1.6926044 -0.084024679 -0.003045155)
(-1.7440579 -0.094940229 -0.002880628)
(-1.795419 -0.1059114 -0.0026756368)
(-1.8466981 -0.11691053 -0.0024438596)
(0 -3.5135125e-20 0)
(0 4.1389405e-19 0)
(0 -4.928255e-19 0)
(1.0106833e-18 -1.0287795e-19 0)
(0 -8.5474441e-19 0)
(0 -3.9661282e-19 0)
(0 -3.3223058e-19 0)
(-0.0065411123 0.0080009617 -0.012831497)
(-0.011780579 0.02625805 -0.017163899)
(-0.017497133 0.029652034 -0.017456448)
(-0.029835788 0.044260889 -0.018711488)
(-0.043312695 0.052079819 -0.018744976)
(-0.060445116 0.062309432 -0.018351486)
(-0.080070916 0.070552984 -0.018406908)
(-0.102104 0.078460379 -0.017843527)
(-0.12677702 0.085456096 -0.017793376)
(-0.15331033 0.091473812 -0.017352758)
(-0.18227813 0.096769467 -0.017327021)
(-0.21287416 0.10084502 -0.016931018)
(-0.24557192 0.104239 -0.016713947)
(-0.27981387 0.10673946 -0.016458564)
(-0.31562929 0.10824246 -0.016156102)
(-0.35292246 0.10910158 -0.015941368)
(-0.39150353 0.10897331 -0.015630716)
(-0.43135574 0.10817683 -0.015371706)
(-0.4723195 0.10659023 -0.015080981)
(-0.51433643 0.10429051 -0.014779888)
(-0.55731825 0.10133723 -0.014482395)
(-0.60117116 0.09772004 -0.014164935)
(-0.6458573 0.093524039 -0.013841485)
(-0.69125786 0.088727458 -0.013499107)
(-0.73741763 0.083449454 -0.013128357)
(-0.78421323 0.077588066 -0.012705183)
(-0.83154172 0.07141125 -0.01237346)
(-0.87940326 0.064674343 -0.011951865)
(-0.92778434 0.05756837 -0.011548384)
(-0.97661732 0.050044506 -0.011104133)
(-1.0258668 0.042158915 -0.010639523)
(-1.0755061 0.033929669 -0.010163695)
(-1.1254826 0.025372935 -0.0096653894)
(-1.1757765 0.016508594 -0.0091526843)
(-1.226334 0.0073542346 -0.008624143)
(-1.2771597 -0.0020494589 -0.0080860329)
(-1.3281232 -0.011756291 -0.0075431881)
(-1.3793303 -0.021619956 -0.0069872473)
(-1.4306276 -0.03174978 -0.0064317039)
(-1.4820343 -0.042050147 -0.0058796416)
(-1.5335035 -0.052527904 -0.005329655)
(-1.5850077 -0.063148055 -0.0047988135)
(-1.6365081 -0.0738925 -0.0042822936)
(-1.6879821 -0.084739283 -0.0037912547)
(-1.7394032 -0.095651997 -0.0033311838)
(-1.7907443 -0.10662317 -0.0029045185)
(-1.8420018 -0.1175975 -0.0025184438)
(-1.8822224 -0.17979034 -0.0016066563)
(-1.8712044 -0.23093796 -0.0011058933)
(-1.8602675 -0.28201254 -0.00063711131)
(-1.8493177 -0.33308544 -0.00019015141)
(-1.8384608 -0.38415699 0.00027241476)
(-1.8275494 -0.43530246 0.00074448725)
(-1.8166584 -0.48648933 0.001257441)
(-1.7544778 -0.52674436 0.0015322128)
(-1.7031996 -0.51574586 0.0012617597)
(-1.6519111 -0.50466983 0.0010284663)
(-1.600603 -0.49351025 0.00081297726)
(-1.549319 -0.4822578 0.00062659871)
(-1.498088 -0.47091795 0.0004610959)
(-1.4469574 -0.45948986 0.00031381032)
(-1.3959502 -0.44798139 0.00018560554)
(-1.3451202 -0.4363999 7.4511495e-05)
(-1.2944866 -0.42477031 -2.3792124e-05)
(-1.2440816 -0.4130474 -0.00010264038)
(-1.1940832 -0.40132835 -0.00018648036)
(-1.1442259 -0.38955264 -0.00021246312)
(-1.0948299 -0.37776728 -0.00024747551)
(-1.0457897 -0.36597094 -0.00023981272)
(-0.99718606 -0.35417624 -0.00021740974)
(-0.94904138 -0.34239073 -0.00015743161)
(-0.90139671 -0.33062128 -6.1135468e-05)
(-0.85428401 -0.31887995 7.663963e-05)
(-0.80775544 -0.30716161 0.00025746728)
(-0.76182857 -0.29549005 0.00049728059)
(-0.7165801 -0.28384738 0.00078081685)
(-0.67201719 -0.27226087 0.0011321925)
(-0.6282169 -0.26070609 0.0015410377)
(-0.58522647 -0.24921051 0.0020171827)
(-0.54309769 -0.23776633 0.0025547858)
(-0.50190064 -0.22636919 0.0031609102)
(-0.46168732 -0.2150348 0.0038337449)
(-0.42255735 -0.20375321 0.0045657785)
(-0.38453581 -0.1925243 0.0053660291)
(-0.34776044 -0.18137477 0.0062374748)
(-0.31224378 -0.17027266 0.0071367579)
(-0.27815417 -0.15925367 0.0081198872)
(-0.24560296 -0.14818323 0.0090586724)
(-0.21461252 -0.13736162 0.010213996)
(-0.18515805 -0.12644076 0.011127616)
(-0.1576035 -0.11573233 0.012338876)
(-0.13181226 -0.10487535 0.01333506)
(-0.10793044 -0.094248683 0.014623067)
(-0.086354078 -0.083348329 0.015634074)
(-0.066751781 -0.073068182 0.016808568)
(-0.049176176 -0.062089342 0.01781672)
(-0.034493355 -0.051713965 0.018893196)
(-0.022076705 -0.041295811 0.019249519)
(-0.012742658 -0.031420271 0.018982466)
(-0.0067642633 -0.020215242 0.017243907)
(-0.0087992861 -0.013082477 0.010708729)
(0 4.2773129e-19 0)
(0 3.3452797e-19 0)
(0 -1.7335253e-19 0)
(0 -1.1390732e-18 5.7004687e-19)
(0 -1.0001163e-18 0)
(0 -2.1989059e-19 0)
(0 1.0515431e-18 0)
(0 1.4609532e-18 0)
(0 1.3926579e-18 0)
(0 1.3232624e-18 0)
(0 1.1428462e-18 -1.4039385e-19)
(0 3.0873167e-18 0)
(0 1.353437e-18 0)
(0 -2.4937364e-19 0)
(-1.8973433 -0.12793096 -0.0021717816)
(-1.896803 -0.1279841 -0.0021563219)
(-1.8962427 -0.12805349 -0.0021608315)
(-1.8956736 -0.12813032 -0.0021610953)
(-1.8950807 -0.12821999 -0.0021645335)
(-1.8944706 -0.12832905 -0.0021661031)
(-1.8938447 -0.12843856 -0.0021379608)
(-1.8097725 -0.53722776 0.0018308542)
(-1.8091914 -0.53735276 0.0018193479)
(-1.808611 -0.53746363 0.001809786)
(-1.8080301 -0.53754847 0.0018097196)
(-1.8074424 -0.53761424 0.0018096041)
(-1.8068557 -0.537661 0.0018051458)
(-1.8062674 -0.53769294 0.0017944258)
(-0.0015745358 -0.016768793 -0.012710798)
(-0.005978289 -0.028012618 -0.012944332)
(-0.012704884 -0.041774251 -0.015046641)
(-0.022972724 -0.054483598 -0.01545927)
(-0.035359998 -0.067228532 -0.015617883)
(-0.050852632 -0.080156265 -0.015507872)
(-0.068100123 -0.092258143 -0.015201491)
(-0.087848564 -0.10445925 -0.014979731)
(-0.10957906 -0.11565038 -0.014541052)
(-0.13331559 -0.12659751 -0.014289616)
(-0.15897507 -0.13667686 -0.013937976)
(-0.18647568 -0.14614578 -0.013593889)
(-0.21583585 -0.15502161 -0.01327767)
(-0.2468686 -0.16311689 -0.012927563)
(-0.27962013 -0.17060442 -0.012633988)
(-0.31393863 -0.17743852 -0.01230659)
(-0.3498241 -0.18371302 -0.011989092)
(-0.38712608 -0.18940809 -0.011677809)
(-0.42583278 -0.19468398 -0.011343807)
(-0.4658259 -0.19954889 -0.011009592)
(-0.50704103 -0.2041277 -0.010670369)
(-0.54938123 -0.20848746 -0.010313843)
(-0.59277851 -0.21274926 -0.0099565151)
(-0.63712916 -0.21699377 -0.0095815586)
(-0.68237396 -0.22134863 -0.0092051954)
(-0.72843057 -0.22589949 -0.0087949111)
(-0.77520184 -0.23075764 -0.0083825667)
(-0.82262896 -0.23603035 -0.0079527496)
(-0.8706411 -0.24179163 -0.0075113774)
(-0.91915572 -0.24814061 -0.0070511342)
(-0.96811414 -0.25515296 -0.0065798965)
(-1.0174549 -0.26288091 -0.006095735)
(-1.0671108 -0.27139081 -0.0056017559)
(-1.1170334 -0.28071065 -0.0050964396)
(-1.1671681 -0.2908716 -0.004591306)
(-1.2174571 -0.30188002 -0.004074871)
(-1.2678697 -0.31373494 -0.0035599065)
(-1.3183555 -0.32640758 -0.003052259)
(-1.3688752 -0.33988883 -0.0025395324)
(-1.4194053 -0.35410305 -0.0020453464)
(-1.4699042 -0.36902311 -0.0015489297)
(-1.5203614 -0.38455038 -0.0010786615)
(-1.5707453 -0.40063194 -0.00061648912)
(-1.6210413 -0.41715806 -0.00018220232)
(-1.6712644 -0.43404448 0.00023191858)
(-1.7213466 -0.45119339 0.00062608566)
(-1.7713914 -0.46848026 0.0010010609)
(0.0013165543 -0.015587953 -0.0083575366)
(-0.0037611176 -0.026473695 -0.0090794671)
(-0.011614526 -0.041461546 -0.01040447)
(-0.021875764 -0.053500603 -0.010877577)
(-0.035208796 -0.066578365 -0.011054337)
(-0.050397648 -0.078729543 -0.010885961)
(-0.068076722 -0.090590216 -0.011024907)
(-0.087963656 -0.10171106 -0.010617995)
(-0.10979943 -0.11202269 -0.010777327)
(-0.13370224 -0.12164135 -0.010499562)
(-0.15956656 -0.13020303 -0.010473371)
(-0.18726623 -0.13804001 -0.010310029)
(-0.2168434 -0.14480482 -0.010249025)
(-0.24819164 -0.15071274 -0.01014861)
(-0.28130353 -0.1556919 -0.010061875)
(-0.31603125 -0.15987446 -0.0098893798)
(-0.35232299 -0.16322996 -0.009764891)
(-0.39013502 -0.16589126 -0.0095994427)
(-0.4293877 -0.1679301 -0.0094260458)
(-0.47000247 -0.16945968 -0.009248556)
(-0.5118808 -0.17059028 -0.0090447744)
(-0.55494153 -0.17147078 -0.0088292487)
(-0.59906005 -0.17220749 -0.0085957847)
(-0.64418623 -0.17298847 -0.0083480308)
(-0.69020357 -0.17391092 -0.0080709059)
(-0.73701725 -0.17516023 -0.0077942209)
(-0.78455232 -0.17685692 -0.0074897037)
(-0.83272623 -0.17914238 -0.007164876)
(-0.88143166 -0.18215668 -0.0068238806)
(-0.93061693 -0.18601691 -0.0064616168)
(-0.9801875 -0.1908242 -0.0060807349)
(-1.0300766 -0.19667327 -0.0056894608)
(-1.0802144 -0.20364102 -0.0052773479)
(-1.1305401 -0.21177755 -0.0048626849)
(-1.1809893 -0.22112749 -0.0044313984)
(-1.2315142 -0.23169487 -0.0040010373)
(-1.2820684 -0.24349683 -0.003557861)
(-1.3325982 -0.25648419 -0.0031245141)
(-1.3830849 -0.27064454 -0.0026805031)
(-1.4334882 -0.28587944 -0.0022498851)
(-1.4837895 -0.30215291 -0.0018115135)
(-1.5339658 -0.31932153 -0.0013972602)
(-1.5840123 -0.33732117 -0.00097874461)
(-1.6339102 -0.35598162 -0.00058297641)
(-1.6836932 -0.37520265 -0.00020091727)
(-1.7332981 -0.3948195 0.00017847803)
(-1.7828607 -0.41468005 0.00052803471)
(0.0037206404 -0.0096578895 -0.0050570908)
(-0.0014803707 -0.017389955 -0.0050455142)
(-0.0083932211 -0.026188383 -0.0056684735)
(-0.019472525 -0.034528179 -0.0059915938)
(-0.032390992 -0.04250411 -0.006040397)
(-0.048440709 -0.050844338 -0.0063247579)
(-0.066623851 -0.058170711 -0.0061150863)
(-0.087018034 -0.065737535 -0.0064427078)
(-0.10962952 -0.072549717 -0.0064585382)
(-0.13432597 -0.079084574 -0.0065430283)
(-0.16085778 -0.085187616 -0.0067012524)
(-0.18939945 -0.090715079 -0.0067745904)
(-0.21970235 -0.095851769 -0.0069019051)
(-0.25178313 -0.10043684 -0.0069969104)
(-0.28554384 -0.10466243 -0.007114219)
(-0.32089176 -0.10838774 -0.0071734986)
(-0.35778671 -0.11174923 -0.0072472225)
(-0.3961116 -0.11474591 -0.0072675487)
(-0.43581123 -0.11746486 -0.0073060953)
(-0.47674717 -0.11995445 -0.0073046304)
(-0.51886857 -0.12231252 -0.0072937492)
(-0.5620644 -0.12460117 -0.0072547528)
(-0.60629047 -0.12696698 -0.0071915282)
(-0.65143682 -0.12943917 -0.0070912206)
(-0.69741024 -0.13215835 -0.0069834785)
(-0.74415789 -0.13521059 -0.0068226818)
(-0.79159823 -0.13869258 -0.0066350214)
(-0.8396328 -0.14268925 -0.0064270827)
(-0.88820935 -0.14730329 -0.0061848283)
(-0.93725265 -0.15259164 -0.0059211037)
(-0.9866877 -0.15864206 -0.0056375278)
(-1.036471 -0.16550538 -0.0053306962)
(-1.0865276 -0.17323204 -0.005008578)
(-1.1368135 -0.1818565 -0.0046713354)
(-1.1872721 -0.19139544 -0.0043221402)
(-1.2378593 -0.20186449 -0.0039619262)
(-1.2885295 -0.21324383 -0.0035957452)
(-1.3392453 -0.22552047 -0.0032237885)
(-1.38997 -0.23865699 -0.0028407174)
(-1.4406631 -0.25259215 -0.0024727012)
(-1.4913066 -0.26728379 -0.0020894777)
(-1.5418803 -0.28262339 -0.0017316784)
(-1.5923587 -0.29857777 -0.0013495804)
(-1.6427378 -0.31498693 -0.0010116197)
(-1.6930174 -0.33182009 -0.0006437503)
(-1.7431582 -0.34891066 -0.00030931649)
(-1.7932584 -0.36618574 3.5704864e-05)
(0.0055695371 -0.00046708641 -0.0008107413)
(0.0010465401 0.00014357752 -0.00017231499)
(-0.0058299894 -0.00052695338 -0.0005679305)
(-0.016146019 -0.00028308585 -0.00094596837)
(-0.029896465 -0.00083475138 -0.0012868714)
(-0.0459904 -0.0015699762 -0.001379613)
(-0.064851282 -0.0024384554 -0.0020056397)
(-0.086024461 -0.0040724616 -0.0021064872)
(-0.10964961 -0.0057452147 -0.0025759005)
(-0.13527981 -0.0082043407 -0.0029115713)
(-0.16307769 -0.0108673 -0.0032406041)
(-0.19279273 -0.0141659 -0.0035399642)
(-0.22423373 -0.017850189 -0.0038342217)
(-0.25744112 -0.021994809 -0.0041467899)
(-0.29213629 -0.026633972 -0.0044106386)
(-0.32836414 -0.031705273 -0.0046768294)
(-0.36588459 -0.037196751 -0.0049070205)
(-0.40470013 -0.043099055 -0.0051382739)
(-0.44465996 -0.049364608 -0.0053422405)
(-0.48571096 -0.056027668 -0.0055068463)
(-0.52778242 -0.063037536 -0.0056412437)
(-0.57080615 -0.070436157 -0.0057415848)
(-0.61463393 -0.078107302 -0.0058017805)
(-0.6592613 -0.08609533 -0.0058539613)
(-0.70461681 -0.094379204 -0.0058405486)
(-0.75065847 -0.10294692 -0.0058097364)
(-0.79731042 -0.11176658 -0.0057608554)
(-0.8445546 -0.12083572 -0.0056766297)
(-0.89233611 -0.13014072 -0.0055542386)
(-0.94061468 -0.13966296 -0.0054163923)
(-0.98935584 -0.14940176 -0.0052360131)
(-1.0385248 -0.15932701 -0.0050415487)
(-1.088075 -0.16944211 -0.0048143128)
(-1.137987 -0.17971984 -0.0045731633)
(-1.1882109 -0.19015368 -0.0043075443)
(-1.2387174 -0.20072431 -0.0040307118)
(-1.2894762 -0.21141786 -0.0037365222)
(-1.3404346 -0.22221394 -0.0034324366)
(-1.3915702 -0.23309541 -0.003123499)
(-1.4428465 -0.24405451 -0.0028001751)
(-1.4942403 -0.25507684 -0.0024706541)
(-1.5456869 -0.26612812 -0.0021404405)
(-1.5971782 -0.27721937 -0.001800806)
(-1.6486623 -0.28829018 -0.0014750395)
(-1.7001334 -0.29938817 -0.0011270664)
(-1.7515215 -0.31043035 -0.00080625713)
(-1.802894 -0.321465 -0.00047391017)
(0.0067372527 0.0088388464 0.0034312464)
(0.0020141261 0.016953027 0.0041214178)
(-0.0036157238 0.026027831 0.0039159985)
(-0.014724365 0.034161966 0.0037325155)
(-0.028291553 0.041995055 0.0036031559)
(-0.045134619 0.048640599 0.0028980195)
(-0.064732895 0.054432566 0.0026420342)
(-0.08699893 0.058829955 0.002120402)
(-0.11154157 0.062140534 0.0015396978)
(-0.13846019 0.06392485 0.0010720136)
(-0.16737763 0.064436319 0.00054604585)
(-0.19812438 0.063369029 -9.5812758e-06)
(-0.23066245 0.06104593 -0.00057925963)
(-0.26473097 0.057172188 -0.0010941596)
(-0.30026309 0.052006388 -0.0016239063)
(-0.33709792 0.045504902 -0.0021130291)
(-0.37513235 0.037739496 -0.0025564519)
(-0.41423374 0.028827181 -0.0029702576)
(-0.45433914 0.018835696 -0.0033468938)
(-0.49533118 0.0078865237 -0.0036768673)
(-0.53718136 -0.0039198478 -0.0039857847)
(-0.57974085 -0.016393068 -0.0042629151)
(-0.62303106 -0.029506285 -0.0044884697)
(-0.66704341 -0.043045469 -0.0046722699)
(-0.71169778 -0.05696335 -0.0048110453)
(-0.75696218 -0.071066924 -0.0049252342)
(-0.80283061 -0.085266815 -0.0049862497)
(-0.84927415 -0.099427444 -0.005004577)
(-0.89626433 -0.11344309 -0.004987786)
(-0.94379412 -0.12720523 -0.0049342098)
(-0.99185192 -0.14062291 -0.004847316)
(-1.0404253 -0.15359887 -0.0047365013)
(-1.0894909 -0.16608039 -0.0045888701)
(-1.139049 -0.17798214 -0.0044268389)
(-1.1890536 -0.18927499 -0.0042337324)
(-1.2395111 -0.19991596 -0.0040260134)
(-1.2903697 -0.2098833 -0.0037972186)
(-1.3416118 -0.21915993 -0.0035586154)
(-1.3931935 -0.22777416 -0.0032856222)
(-1.4450822 -0.23573675 -0.0030238485)
(-1.49721 -0.24305297 -0.0027441053)
(-1.5495488 -0.24977621 -0.0024669048)
(-1.6020401 -0.25597265 -0.0021674866)
(-1.6546351 -0.26167282 -0.0018849707)
(-1.7072765 -0.26700083 -0.0015697654)
(-1.7599115 -0.27197238 -0.0012893399)
(-1.8125345 -0.27675661 -0.00097186288)
(0.0056997075 0.014137514 0.0079618814)
(0.00038519184 0.028175137 0.0082260857)
(-0.0055501284 0.042266206 0.0088608559)
(-0.016704879 0.055829275 0.0087082933)
(-0.030507585 0.068370229 0.0080131374)
(-0.047673134 0.079676777 0.0075056287)
(-0.067803936 0.089674099 0.0067743533)
(-0.090484609 0.097889157 0.0059881209)
(-0.11574522 0.10457821 0.0052443049)
(-0.14319537 0.10925445 0.0044521246)
(-0.17276175 0.11222027 0.003680344)
(-0.20415011 0.11317042 0.0029241397)
(-0.23727086 0.11230364 0.002216594)
(-0.27189389 0.10949353 0.0014950586)
(-0.30788971 0.10491288 0.00081678499)
(-0.34513945 0.098547416 0.00017126224)
(-0.38349175 0.090557704 -0.00042054642)
(-0.42285256 0.0810151 -0.00099535064)
(-0.46312739 0.070108368 -0.0015101596)
(-0.50422076 0.057934474 -0.0019893917)
(-0.54608992 0.044726829 -0.0024217698)
(-0.58865847 0.03049363 -0.0028101503)
(-0.63187745 0.015608798 -0.0031194581)
(-0.6757781 0.00021943986 -0.0034353666)
(-0.72024824 -0.015608939 -0.0036735785)
(-0.76529154 -0.031619429 -0.003865711)
(-0.8109175 -0.04770464 -0.00402228)
(-0.85709694 -0.063642625 -0.0041524342)
(-0.90382435 -0.079303362 -0.0042251079)
(-0.95111754 -0.094526349 -0.0042741741)
(-0.99895532 -0.1091869 -0.0042801)
(-1.0473368 -0.12317145 -0.0042617461)
(-1.0962619 -0.13638235 -0.0042044356)
(-1.1457178 -0.14872561 -0.0041324968)
(-1.1956786 -0.16016631 -0.0040190078)
(-1.2461533 -0.17063155 -0.0038998674)
(-1.297084 -0.18011463 -0.0037490879)
(-1.3484592 -0.18861145 -0.0035868682)
(-1.4002588 -0.19611794 -0.0034056701)
(-1.4523828 -0.20269032 -0.0032128092)
(-1.504842 -0.20837785 -0.0030011729)
(-1.5575484 -0.2132328 -0.0027754791)
(-1.6104696 -0.21732885 -0.0025429961)
(-1.6635198 -0.22076835 -0.0022949178)
(-1.7166533 -0.22366609 -0.002030116)
(-1.7698078 -0.22611662 -0.0017614712)
(-1.8229276 -0.22829287 -0.0014738641)
(0.0024277361 0.014928498 0.011365456)
(-0.0036873734 0.028107131 0.011978449)
(-0.0099048029 0.042587898 0.013376935)
(-0.021531632 0.055944814 0.012856497)
(-0.035089843 0.068731186 0.012513112)
(-0.052679529 0.080540296 0.011617541)
(-0.072549277 0.091019749 0.010818902)
(-0.095359084 0.10011833 0.0098411559)
(-0.12051813 0.10775148 0.0089284628)
(-0.14792143 0.11367034 0.0079337491)
(-0.17752007 0.11809772 0.006961733)
(-0.20882585 0.12072456 0.0060781035)
(-0.24203471 0.12181198 0.0050943688)
(-0.27670138 0.12121483 0.0041967334)
(-0.31286538 0.11904389 0.0033245141)
(-0.3502811 0.11534467 0.0024978131)
(-0.38890442 0.11020529 0.0017057767)
(-0.42857319 0.10372854 0.00097889487)
(-0.4692191 0.096017581 0.00029263665)
(-0.51075057 0.08719773 -0.00033303502)
(-0.55308711 0.077365841 -0.00089990564)
(-0.59617609 0.066735454 -0.0014315429)
(-0.63998925 0.055316743 -0.0018818493)
(-0.68444911 0.043385674 -0.0023006146)
(-0.72951442 0.030973937 -0.0026372129)
(-0.77517172 0.01827064 -0.0029508846)
(-0.821411 0.0053779563 -0.0032214961)
(-0.86820133 -0.0075684833 -0.0034277471)
(-0.91552858 -0.020448936 -0.0035866394)
(-0.96338345 -0.033143609 -0.0037128705)
(-1.0117366 -0.045567187 -0.0037946)
(-1.0605934 -0.057625144 -0.0038458437)
(-1.1099251 -0.069243986 -0.0038633436)
(-1.1597202 -0.080359613 -0.0038549679)
(-1.2099511 -0.090935339 -0.0038126162)
(-1.2606108 -0.10090981 -0.0037625853)
(-1.3116392 -0.11029061 -0.0036743372)
(-1.3630501 -0.11904972 -0.0035846199)
(-1.4147592 -0.12719676 -0.0034611411)
(-1.4667497 -0.13474363 -0.0033350327)
(-1.5189737 -0.14172978 -0.0031867099)
(-1.571382 -0.1481835 -0.0030288328)
(-1.6239255 -0.15415358 -0.0028501604)
(-1.676548 -0.15970231 -0.0026558923)
(-1.7292043 -0.16489484 -0.0024363047)
(-1.7818486 -0.16979786 -0.0022068992)
(-1.8344146 -0.17450817 -0.0019498753)
(0 -1.285954e-19 0)
(0 7.197764e-19 0)
(0 6.223395e-19 0)
(0 5.4920371e-19 -1.8825992e-19)
(0 2.1696452e-19 0)
(0 -7.6201055e-21 0)
(0 1.054688e-19 0)
(0 3.947153e-20 0)
(0 -2.564722e-19 0)
(0 -6.32281e-19 0)
(0 -7.854853e-19 -1.3042662e-19)
(0 -1.287732e-19 0)
(0 1.5862531e-19 0)
(0 3.0640595e-19 0)
(0 2.4780829e-19 0)
(0 3.9033245e-19 0)
(0 7.1289161e-19 0)
(0 7.1448824e-19 3.5988926e-19)
(0 6.1596015e-19 0)
(0 7.1721882e-19 0)
(0 2.4287992e-19 0)
(-4.1879731e-18 1.9729384e-19 0)
(1.7850917e-18 -4.470244e-19 0)
(-1.0378765e-19 -1.7957598e-19 0)
(3.2213494e-19 -3.1628444e-19 -2.4001757e-19)
(-6.0178955e-19 -4.416278e-19 0)
(-1.5402938e-18 -6.3128816e-19 0)
(2.3540217e-19 -5.2126109e-19 0)
(0 3.8995787e-19 0)
(0 1.394516e-19 0)
(0 -2.7057269e-19 0)
(0 2.6377366e-20 6.902843e-19)
(0 2.9752373e-19 0)
(0 4.3332922e-19 0)
(0 -1.2039342e-19 0)
(0 -3.1453287e-19 0)
(0 -2.5714489e-19 0)
(0 6.0485078e-20 0)
(0 3.0178737e-19 -6.8767294e-20)
(0 2.2328827e-19 0)
(0 -8.0928154e-20 0)
(0 2.0895195e-19 0)
(0 3.8520564e-20 0)
(0 -2.2708734e-19 0)
(0 3.3246483e-19 0)
(0 2.1171516e-20 2.4336042e-19)
(0 3.293825e-19 0)
(0 5.2089908e-19 0)
(0 4.7175985e-19 0)
(-0.006900572 0.0041872103 0.0082755886)
(-0.0082366091 0.005248747 0.005585194)
(-0.0096485772 0.0053904283 0.0028261799)
(-0.010172662 0.0057246282 0.00060436707)
(-0.0099349365 0.0052589146 -0.0016350313)
(-0.009641873 0.0054909069 -0.0040014096)
(-0.0079050218 0.0040166761 -0.0066993859)
(-0.014778866 0.021971272 0.012081153)
(-0.017372314 0.023299669 0.0067892493)
(-0.018351714 0.021769821 0.0029431545)
(-0.018544704 0.021056384 -0.00019681105)
(-0.018733371 0.022156232 -0.0032689532)
(-0.017210075 0.02216993 -0.0071215939)
(-0.015586169 0.022390208 -0.011871996)
(-0.020701458 0.029006807 0.012956739)
(-0.023730398 0.02769391 0.009055169)
(-0.025684251 0.028542613 0.0038607158)
(-0.025988138 0.028516712 5.6135603e-05)
(-0.025655267 0.028020137 -0.0044781317)
(-0.024176947 0.028549484 -0.0079979257)
(-0.022183823 0.030139169 -0.013754663)
(-0.033601609 0.041927276 0.012652863)
(-0.036091449 0.042187523 0.0083817042)
(-0.037671278 0.041797967 0.00352249)
(-0.038139 0.04154107 -0.00037805016)
(-0.037811117 0.041792842 -0.0047747303)
(-0.036330214 0.042728971 -0.0095074591)
(-0.033526558 0.042500683 -0.013839997)
(-0.046902377 0.050734424 0.012382616)
(-0.049640312 0.050163933 0.0082540912)
(-0.051540253 0.050135273 0.003567237)
(-0.051898336 0.05014818 -0.00082992127)
(-0.05159785 0.050403946 -0.0052217862)
(-0.050023832 0.050862594 -0.0094472991)
(-0.047621543 0.051675538 -0.014472313)
(-0.064309819 0.060605912 0.011473725)
(-0.066644335 0.060415573 0.0074646751)
(-0.068375315 0.060277353 0.0028871982)
(-0.068789599 0.060408049 -0.0010709153)
(-0.068384609 0.060549462 -0.0055837371)
(-0.066769381 0.060958116 -0.0099694925)
(-0.064182369 0.061559097 -0.014159029)
(-0.08375556 0.06858555 0.010729873)
(-0.086163006 0.068338412 0.0065904927)
(-0.087771106 0.068367278 0.0024138114)
(-0.088175697 0.06840716 -0.0015614733)
(-0.087778358 0.068763136 -0.0058398322)
(-0.086287425 0.069460006 -0.0097836907)
(-0.083924095 0.070031018 -0.01433427)
(-0.10588616 0.076437447 0.0096858687)
(-0.10817387 0.076421449 0.0060379863)
(-0.10974746 0.076397395 0.0017444021)
(-0.11011209 0.076563937 -0.0020470589)
(-0.10957055 0.076726032 -0.0059899866)
(-0.10818046 0.077243807 -0.010126013)
(-0.1056284 0.077793582 -0.013998575)
(-0.13041736 0.083145186 0.0088323457)
(-0.13258608 0.082983954 0.0049264489)
(-0.13394732 0.082981268 0.0011844678)
(-0.13428593 0.083134777 -0.0024629453)
(-0.13389831 0.083642701 -0.0063163962)
(-0.13245152 0.084072931 -0.010018495)
(-0.13024091 0.08492181 -0.014077989)
(-0.15706403 0.089105649 0.007769594)
(-0.15911506 0.089103076 0.0043598645)
(-0.16048844 0.089064788 0.00055939386)
(-0.16086224 0.089436962 -0.0030514707)
(-0.1603257 0.08967952 -0.0066428143)
(-0.15893181 0.090186449 -0.010267707)
(-0.15666894 0.090784903 -0.013936099)
(-0.1859171 0.094207234 0.0068010359)
(-0.18783435 0.094090677 0.0034176872)
(-0.18907891 0.094194237 -0.00023300854)
(-0.1892696 0.094255419 -0.0033742312)
(-0.18890643 0.094679141 -0.0069405566)
(-0.18749877 0.095164709 -0.010237367)
(-0.18541482 0.096090855 -0.013942242)
(-0.21664692 0.09836295 0.005892092)
(-0.21844594 0.098318943 0.0025634399)
(-0.21956015 0.098377743 -0.00061134802)
(-0.21990539 0.098704093 -0.0039009094)
(-0.2194126 0.099034737 -0.0072613706)
(-0.21797508 0.099622978 -0.010391538)
(-0.21607462 0.10027743 -0.01385063)
(-0.24928526 0.10178916 0.0049252737)
(-0.25084532 0.10166139 0.0017621829)
(-0.25194196 0.10178212 -0.0012958613)
(-0.25211838 0.10185757 -0.0043954371)
(-0.25164597 0.10226108 -0.0074976189)
(-0.25035081 0.10287155 -0.010456937)
(-0.24846347 0.10352359 -0.013699266)
(-0.28348859 0.10422152 0.00402169)
(-0.28493321 0.10415476 0.0010266701)
(-0.28605137 0.10420153 -0.0018256679)
(-0.28612276 0.10443772 -0.0047838422)
(-0.28575549 0.10486952 -0.0077463823)
(-0.28442789 0.10541508 -0.010531781)
(-0.28266914 0.1060851 -0.013661848)
(-0.3193119 0.10593086 0.0031478355)
(-0.3207087 0.10582006 0.00025725865)
(-0.32160231 0.10585493 -0.0023903842)
(-0.32169938 0.10605956 -0.0052615075)
(-0.3212641 0.10638884 -0.0079507938)
(-0.32000959 0.10694149 -0.010644791)
(-0.31831123 0.10758708 -0.01352623)
(-0.35659963 0.10672044 0.002279209)
(-0.35781476 0.10660481 -0.0004067359)
(-0.35869286 0.10666936 -0.0029193564)
(-0.35875949 0.1068523 -0.0055733653)
(-0.35832492 0.10724093 -0.0081745653)
(-0.35713097 0.10778513 -0.01068145)
(-0.35549743 0.10842159 -0.013439371)
(-0.39519142 0.1067647 0.0014856756)
(-0.39634881 0.10666685 -0.0010765702)
(-0.39712765 0.10669302 -0.0034254867)
(-0.39710646 0.1068658 -0.0059695918)
(-0.39669799 0.10722381 -0.0083830066)
(-0.39551894 0.10772448 -0.010746723)
(-0.39395615 0.10835213 -0.013326264)
(-0.43505522 0.1060223 0.00070503126)
(-0.43608899 0.10590336 -0.0016695141)
(-0.43677641 0.1059308 -0.0038988837)
(-0.43675077 0.10611459 -0.0062692992)
(-0.4363284 0.10645364 -0.0085238884)
(-0.43519015 0.1069522 -0.01077468)
(-0.43368323 0.1075478 -0.013187167)
(-0.47605374 0.1045608 2.0267949e-06)
(-0.47697646 0.10444684 -0.0022383252)
(-0.47760497 0.10445997 -0.0043442986)
(-0.4775123 0.1046303 -0.0065643099)
(-0.47708968 0.10493658 -0.0086954122)
(-0.47597766 0.1054165 -0.010799934)
(-0.47455266 0.10599874 -0.013044121)
(-0.51808945 0.102394 -0.00066422983)
(-0.5189182 0.10225546 -0.0027651808)
(-0.51946064 0.10227137 -0.0047189032)
(-0.51934832 0.10243855 -0.0068170321)
(-0.51891829 0.10272366 -0.0087940943)
(-0.51784792 0.1031979 -0.010779101)
(-0.51645893 0.10372459 -0.012874056)
(-0.56110613 0.099561586 -0.0012680678)
(-0.56184081 0.099440899 -0.003222781)
(-0.56230815 0.099443419 -0.0050798938)
(-0.56215646 0.09958422 -0.0070356305)
(-0.56171451 0.09985099 -0.0088923968)
(-0.56066749 0.10028598 -0.010747336)
(-0.5593421 0.10078715 -0.012702847)
(-0.60500627 0.096106502 -0.001809891)
(-0.60563914 0.09596703 -0.0036519957)