/*--------------------------------*- C++ -*----------------------------------*\
  =========                 |
  \\      /  F ield         | OpenFOAM: The Open Source CFD Toolbox
   \\    /   O peration     | Website:  https://openfoam.org
    \\  /    A nd           | Version:  6
     \\/     M anipulation  |
\*---------------------------------------------------------------------------*/
FoamFile
{
    version     2.0;
    format      ascii;
    class       pointVectorField;
    location    "0.88";
    object      u;
}
// * * * * * * * * * * * * * * * * * * * * * * * * * * * * * * * * * * * * * //

dimensions      [0 1 0 0 0 0 0];

internalField   nonuniform List<vector> 
625
(
(0 1.6900111e-19 0)
(0 1.5208745e-19 0)
(0.42913745 0.041831906 0.078498231)
(0.42370435 -0.062143277 0.087260498)
(0 2.1913693e-19 0)
(0 1.1893285e-18 0)
(0.41344397 -0.076301549 0.087048866)
(0.41885878 0.027597541 0.078380299)
(0 -2.5689794e-20 0)
(1.1811734e-19 -2.7436565e-19 0)
(0 5.6129467e-19 0)
(0.42774762 0.015771804 0.080648523)
(0.42632846 -0.010138904 0.082837981)
(0.42505146 -0.03605755 0.08507815)
(0.0018545444 0.0049314037 0.0043242541)
(0.00519179 0.010044557 0.0042751167)
(0.010141099 0.015181291 0.0063217839)
(0.017822814 0.019848425 0.0080789118)
(0.026157775 0.024085793 0.010591981)
(0.037526964 0.028072057 0.013457751)
(0.049524627 0.031600534 0.016635821)
(0.063633965 0.034629651 0.01999699)
(0.079109182 0.037662773 0.023659351)
(0.095993499 0.039917226 0.027275284)
(0.11422818 0.042178918 0.031061059)
(0.13380446 0.043965114 0.034837722)
(0.15455065 0.045451635 0.038622861)
(0.17641454 0.046625706 0.042382345)
(0.19930765 0.047453672 0.04609374)
(0.22308065 0.04795373 0.049772314)
(0.24763106 0.048111549 0.053390555)
(0.27281385 0.047960507 0.056967391)
(0.29847159 0.047490774 0.060508421)
(0.32446926 0.046715783 0.064040772)
(0.35067296 0.045762152 0.067570635)
(0.37690538 0.044568317 0.071157873)
(0.40311154 0.043208783 0.074793388)
(-0.0014438211 -0.0016518954 -0.0038818542)
(0.0030698416 -0.0041222207 -0.00043956403)
(0.0080573819 -0.0070784039 0.00067151774)
(0.015656904 -0.010123447 0.0044051154)
(0.024148249 -0.012097057 0.0075371892)
(0.035620089 -0.016096797 0.011626036)
(0.047381541 -0.018210554 0.015421877)
(0.061429514 -0.021603592 0.019837756)
(0.076702953 -0.024734028 0.02401202)
(0.093281215 -0.027642702 0.028509011)
(0.11140735 -0.031013217 0.032908124)
(0.13055864 -0.034052422 0.037344159)
(0.15108909 -0.037232052 0.04178233)
(0.17260953 -0.040312009 0.046150829)
(0.19521653 -0.043287497 0.050521628)
(0.21869367 -0.046160122 0.054811217)
(0.24298707 -0.048865242 0.059073608)
(0.26793027 -0.051380338 0.063264955)
(0.29339977 -0.053690553 0.067416184)
(0.31923449 -0.05576773 0.071487941)
(0.34533096 -0.05764192 0.075531792)
(0.37149266 -0.059289313 0.07948859)
(0.39766794 -0.060759774 0.083406653)
(0 1.5344668e-19 0)
(-2.0969214e-18 -4.5118687e-19 0)
(0 1.1435203e-18 0)
(0.0011362292 -0.0026997939 0.0036619734)
(0.0037913706 -0.011998633 0.0063723716)
(0.0081231777 -0.013496068 0.0078256457)
(0.013456499 -0.019297117 0.010419895)
(0.02222937 -0.024713053 0.014322876)
(0.031427034 -0.027657415 0.016897665)
(0.0427615 -0.032393446 0.021235521)
(0.056000517 -0.035980398 0.024829484)
(0.070233569 -0.03955336 0.029009245)
(0.086473571 -0.043284021 0.033165794)
(0.10363926 -0.046282033 0.037229898)
(0.1225396 -0.049812662 0.041462256)
(0.14244017 -0.052680697 0.045495352)
(0.16366546 -0.055749435 0.049555533)
(0.18592991 -0.058555681 0.05351671)
(0.20915026 -0.061208222 0.057395701)
(0.2332433 -0.063737317 0.061206598)
(0.25802245 -0.066049303 0.064950241)
(0.28336705 -0.068193988 0.068642338)
(0.309124 -0.070130133 0.072295781)
(0.3351327 -0.071889522 0.075947745)
(0.36127267 -0.073480103 0.079608254)
(0.38739619 -0.074924045 0.083313775)
(0.41477972 -0.050224796 0.084865022)
(0.41604298 -0.024316123 0.082727807)
(0.41748849 0.0015665926 0.080584277)
(0.39287887 0.028987956 0.074524545)
(0.36675642 0.030314303 0.070673029)
(0.34061499 0.031433647 0.066775851)
(0.31455035 0.032323578 0.06283308)
(0.28869917 0.032924825 0.058862753)
(0.26319828 0.033220004 0.054850192)
(0.23820407 0.033200901 0.050803682)
(0.21385365 0.032829964 0.046732127)
(0.19031334 0.032165744 0.042631148)
(0.16767236 0.031174408 0.038525687)
(0.14608625 0.029916546 0.034390082)
(0.12565806 0.028389034 0.030309304)
(0.10642664 0.02667266 0.026188731)
(0.088488692 0.024748171 0.022160533)
(0.072117633 0.02253438 0.018265138)
(0.056995728 0.02026565 0.014432227)
(0.043468446 0.018135359 0.010615723)
(0.031548794 0.015404047 0.0073811454)
(0.02128958 0.012999335 0.0039668199)
(0.012867575 0.010117558 0.0015618628)
(0.0060526036 0.0080495529 -0.00094419569)
(0.00121025 0.0042648843 -0.0028981295)
(9.9952069e-05 0.0026720241 -0.002550238)
(0 -2.7399164e-19 0)
(0 -2.8571592e-19 -5.8931764e-19)
(0 -8.420724e-19 0)
(0 4.9508877e-19 0)
(0 -5.4780622e-20 1.7466987e-19)
(0 3.7708829e-19 0)
(0.42113031 -0.06571699 0.087192852)
(0.41859433 -0.069277699 0.087153291)
(0.41600791 -0.072819131 0.087107018)
(0.42660285 0.038356847 0.078491891)
(0.42404184 0.034778623 0.078462754)
(0.4214411 0.031199578 0.078412289)
(-0.00046803126 0.0031866396 0.0035783403)
(0.0032886578 0.0065530928 0.0032776834)
(0.0084067894 0.0097321774 0.0055174596)
(0.015825686 0.012349057 0.0072789315)
(0.024522143 0.015056751 0.010096743)
(0.035758592 0.01719793 0.013131745)
(0.047768238 0.019037523 0.016425802)
(0.062023663 0.02070598 0.020058801)
(0.077358478 0.022020921 0.023771922)
(0.094287768 0.022972189 0.027629365)
(0.11257381 0.023882202 0.031528605)
(0.13209243 0.024330753 0.035473997)
(0.15283944 0.024672047 0.039403333)
(0.1747102 0.024720978 0.043292821)
(0.19759298 0.024573614 0.047174581)
(0.22139193 0.024193548 0.050985072)
(0.24595799 0.023615266 0.054765378)
(0.27117717 0.022863374 0.058489757)
(0.29688093 0.021924922 0.062201213)
(0.32292778 0.020871483 0.06587096)
(0.34916571 0.019688762 0.069538344)
(0.37545565 0.018438059 0.073240624)
(0.40172048 0.017112421 0.076936632)
(-0.0015268762 0.0016379029 0.00097669926)
(0.002971011 0.0026487429 0.0019025684)
(0.0075110047 0.0041182049 0.0039484598)
(0.014968032 0.0052086662 0.0064336153)
(0.024048361 0.0058043098 0.0094019254)
(0.034800068 0.0063089047 0.012660037)
(0.047158759 0.0067483085 0.016168205)
(0.061263558 0.0066012885 0.020049139)
(0.076538994 0.0066140627 0.023885555)
(0.093539095 0.0061684757 0.027940941)
(0.11164895 0.0057332639 0.031991074)
(0.1311506 0.0050175084 0.036100692)
(0.15183939 0.0041997702 0.040171267)
(0.17363107 0.0032458253 0.044244575)
(0.1964686 0.0021533604 0.048277042)
(0.22019199 0.0009634046 0.052253221)
(0.2447169 -0.00030986821 0.056199668)
(0.26988464 -0.0016548895 0.060083828)
(0.29554315 -0.0030483454 0.063943513)
(0.32156479 -0.0044672327 0.067741582)
(0.34778354 -0.005895662 0.071550058)
(0.37407746 -0.0073261466 0.075316441)
(0.40035526 -0.0087403708 0.079092123)
(-0.0021489638 0.00013806202 -0.00050678843)
(0.0027001114 -0.0004037032 0.0010909021)
(0.0066998949 -0.00039501393 0.0028158619)
(0.014914637 -0.0015383978 0.0057281332)
(0.023538158 -0.0028763787 0.0087156485)
(0.03440607 -0.0035181322 0.012125916)
(0.046934609 -0.0054665942 0.016089364)
(0.060720608 -0.0067246045 0.019917673)
(0.076124525 -0.0083855171 0.024056805)
(0.092978127 -0.01028011 0.028289651)
(0.11101656 -0.011989247 0.032490305)
(0.13050705 -0.014052453 0.036786374)
(0.1510548 -0.015979651 0.041010349)
(0.1728139 -0.018039564 0.045247207)
(0.19554081 -0.020089857 0.04941993)
(0.21921105 -0.022122219 0.053559797)
(0.2436636 -0.024142122 0.057646096)
(0.26876386 -0.026094407 0.061680478)
(0.29438195 -0.027987712 0.065670284)
(0.32035702 -0.029792753 0.069616162)
(0.34653887 -0.031491757 0.073509584)
(0.37280668 -0.033126448 0.077393944)
(0.39901499 -0.034637557 0.081223275)
(0 -1.7360883e-19 0)
(0 2.8683937e-19 6.0165757e-19)
(0 6.2494524e-19 0)
(-3.1314021e-19 6.2525042e-21 0)
(1.3079151e-19 -1.9379304e-19 -9.6522368e-21)
(-8.242401e-19 -7.4126941e-19 0)
(0 2.8197468e-19 0)
(0 7.5781399e-19 -2.0154517e-20)
(0 8.3452515e-19 0)
(0.00059024232 -0.00088477809 -0.0019596062)
(0.0014448243 -0.0016730924 -0.00029939101)
(0.0017027509 -0.001121033 0.00098214262)
(0.0052891715 -0.0076908957 0.00091502052)
(0.0050137183 -0.0087974763 0.0020351105)
(0.0051362005 -0.0089031587 0.0040710126)
(0.0091494117 -0.0087645747 0.0022262912)
(0.0096925707 -0.0095140913 0.0036315461)
(0.0097094757 -0.012400312 0.0061378131)
(0.016521304 -0.012780179 0.0059701692)
(0.016288431 -0.015483348 0.0071517169)
(0.015382156 -0.016205042 0.0087984373)
(0.0252017 -0.016143846 0.0090303288)
(0.024738223 -0.017985861 0.010129239)
(0.024117091 -0.021215401 0.012391711)
(0.035498913 -0.01913645 0.012812465)
(0.034902841 -0.022122301 0.014208035)
(0.033691689 -0.024650894 0.015680093)
(0.047499783 -0.022429517 0.016969939)
(0.046627482 -0.025593788 0.017900787)
(0.045258667 -0.028729129 0.01986562)
(0.061175082 -0.025694394 0.021018385)
(0.059901245 -0.028746266 0.022071368)
(0.058580634 -0.032204272 0.02359411)
(0.076047467 -0.028675606 0.025348215)
(0.07484274 -0.032363802 0.026424563)
(0.072941946 -0.035632212 0.027882696)
(0.092706544 -0.032114148 0.029695142)
(0.091064414 -0.035579388 0.030656426)
(0.089261726 -0.039227955 0.032060004)
(0.11029759 -0.03506073 0.034047288)
(0.10868206 -0.038769319 0.035058404)
(0.10657671 -0.042401707 0.036292913)
(0.12951 -0.038372427 0.038469142)
(0.1276467 -0.042107492 0.039371532)
(0.12546361 -0.045738804 0.04052119)
(0.14970679 -0.041361813 0.042777183)
(0.14776524 -0.045070106 0.043638013)
(0.14547242 -0.048830045 0.044710335)
(0.17113866 -0.044454085 0.04710374)
(0.16906581 -0.048207257 0.047926057)
(0.16665439 -0.051849736 0.048827526)
(0.19354526 -0.047339368 0.051360426)
(0.19137905 -0.051030991 0.052055919)
(0.18893462 -0.054772233 0.052880653)
(0.21688486 -0.050151363 0.055538295)
(0.21464647 -0.053854357 0.056187026)
(0.21212192 -0.05750057 0.056868202)
(0.24103155 -0.052782795 0.059692603)
(0.23871185 -0.056414205 0.06021797)
(0.23615488 -0.060079771 0.060772408)
(0.26583617 -0.05521756 0.063753806)
(0.26345317 -0.058843122 0.064179743)
(0.26088046 -0.062474181 0.064614666)
(0.29117152 -0.057463133 0.067780425)
(0.28874714 -0.061043688 0.068099331)
(0.28615713 -0.064654404 0.068406402)
(0.31690975 -0.059478515 0.071738635)
(0.31443647 -0.063045531 0.071950472)
(0.31183914 -0.066636438 0.072150013)
(0.34288457 -0.061288424 0.075667573)
(0.34037387 -0.064830022 0.07578075)
(0.33778713 -0.068405081 0.07588111)
(0.36899171 -0.062899885 0.079536165)
(0.3664651 -0.066443551 0.079576022)
(0.36387655 -0.070000598 0.079605401)
(0.39510824 -0.064343723 0.083378798)
(0.39254643 -0.067883461 0.08336237)
(0.38997328 -0.07142942 0.083345175)
(0.42521784 0.012281452 0.080657359)
(0.42267163 0.0087230663 0.08064754)
(0.42006715 0.0051625643 0.080605762)
(0.42377932 -0.013644331 0.082830227)
(0.42122867 -0.017215008 0.082807355)
(0.41864426 -0.020747671 0.082757912)
(0.42247684 -0.039641915 0.085035945)
(0.41993872 -0.043208163 0.084971875)
(0.41735289 -0.046730516 0.084927277)
(0.0035258999 0.0039900306 0.0019364997)
(0.0023167627 0.0036492517 0.0003275962)
(0.0026403956 0.0024999009 -0.0013496895)
(0.0057967848 0.0084658523 0.0020578589)
(0.005292355 0.0070857395 -9.9941777e-05)
(0.0038240793 0.005832124 -0.0017010506)
(0.011351156 0.013820128 0.0039574578)
(0.0097409378 0.011725427 0.0024369944)
(0.0089422539 0.010114778 0.00030165915)
(0.017795838 0.017062415 0.0058326193)
(0.017069828 0.01471903 0.0044491709)
(0.015533521 0.012525434 0.0025185163)
(0.02671071 0.021670615 0.0087532897)
(0.025465507 0.018793933 0.0068502174)
(0.023888889 0.016146142 0.0052481001)
(0.037320797 0.024816415 0.011521257)
(0.03593258 0.021322859 0.010265732)
(0.034326846 0.018617927 0.0085061436)
(0.049287036 0.028177217 0.014891857)
(0.047945581 0.024979272 0.013456513)
(0.046279471 0.021598597 0.011824853)
(0.063248218 0.031193091 0.018448723)
(0.061792396 0.027361652 0.017065644)
(0.059879842 0.023982734 0.015530778)
(0.078400886 0.033878422 0.022139426)
(0.076873556 0.030019828 0.020719326)
(0.074836592 0.026417562 0.019414546)
(0.09520385 0.036142322 0.025925307)
(0.093511728 0.032264249 0.024824239)
(0.091511734 0.028527347 0.023263708)
(0.11330679 0.038295269 0.029786461)
(0.11154116 0.034384102 0.028546991)
(0.10936558 0.030552857 0.027264617)
(0.13270869 0.04007978 0.033664288)
(0.13080294 0.036121731 0.032603904)
(0.12863965 0.032286005 0.031344932)
(0.15328495 0.041566883 0.037572674)
(0.151358 0.037673253 0.036524557)
(0.14907459 0.033788665 0.035365422)
(0.17503514 0.04279489 0.041404891)
(0.17296925 0.03890657 0.04048654)
(0.1706546 0.03502688 0.03943123)
(0.19775138 0.043661792 0.045257664)
(0.19564681 0.039822885 0.044416762)
(0.19327059 0.035966684 0.043455834)
(0.22140182 0.04422335 0.049021048)
(0.21919764 0.040434467 0.04828893)
(0.21677938 0.036599723 0.04745254)
(0.24579627 0.044458184 0.05276761)
(0.2435321 0.040710628 0.052146874)
(0.24108261 0.036914706 0.051430649)
(0.27083791 0.044361524 0.056451546)
(0.26850813 0.040654591 0.055946453)
(0.26602083 0.036900759 0.055356389)
(0.29636063 0.043944543 0.060121625)
(0.29396871 0.040282162 0.059724625)
(0.29145873 0.03656308 0.059261004)
(0.32222685 0.043234247 0.063768437)
(0.31978735 0.039602268 0.063464619)
(0.31725466 0.035927919 0.063121274)
(0.34829464 0.042282078 0.067381682)
(0.34580564 0.03867741 0.067196001)
(0.34326099 0.035021392 0.066966526)
(0.37444813 0.041088301 0.071061255)
(0.37191777 0.037500037 0.070930889)
(0.36936022 0.033880005 0.070783151)
(0.40058096 0.039744116 0.074736428)
(0.39803394 0.036173692 0.074653424)
(0.39545859 0.032572965 0.074586809)
(-0.0013048255 0.00066749497 -0.001004113)
(0.00058663464 0.0029280188 -0.00035002345)
(0.004709692 0.0016887575 0.0021391008)
(0.011962974 0.0033825243 0.0039710171)
(0.019884096 0.0040007747 0.0067950341)
(0.030333604 0.0046894453 0.010041259)
(0.042126597 0.0057404223 0.013457036)
(0.055563899 0.006320431 0.017187105)
(0.070569102 0.007327223 0.021001989)
(0.086982651 0.0078650516 0.024981496)
(0.10479741 0.0085479577 0.029019688)
(0.12396029 0.0089655519 0.033099391)
(0.14436044 0.0093300196 0.037196547)
(0.16590378 0.0094792546 0.041286173)
(0.18853843 0.0094614575 0.045363128)
(0.21207695 0.0092658421 0.049391982)
(0.23644707 0.0088527774 0.053412565)
(0.26147919 0.0082616188 0.057373022)
(0.28702674 0.0074798319 0.061306631)
(0.31294396 0.0065356639 0.065198685)
(0.33907572 0.0054335664 0.069061194)
(0.36528992 0.0042159284 0.07289755)
(0.39148793 0.0029266793 0.076738383)
(-0.0020413109 0.000227452 0.00096803267)
(0.00058892002 -0.0021316208 0.0020860983)
(0.0056017337 -0.0038278541 0.0042629663)
(0.012135998 -0.0043793791 0.0063007346)
(0.019892586 -0.00527893 0.0090338715)
(0.030443079 -0.0066994822 0.012716043)
(0.04173598 -0.0067809087 0.015817643)
(0.055311028 -0.0079314209 0.019841968)
(0.070007037 -0.0082936705 0.02359136)
(0.086364276 -0.0091573255 0.027725393)
(0.10398724 -0.0096690515 0.031712353)
(0.12312378 -0.010486299 0.0358409)
(0.1433506 -0.011195454 0.039905881)
(0.16486108 -0.012094809 0.043999911)
(0.18738771 -0.012957549 0.047999445)
(0.21087291 -0.014004471 0.052013509)
(0.23519082 -0.015069745 0.055951578)
(0.26018315 -0.016236881 0.059843522)
(0.28569641 -0.017479894 0.0637144)
(0.311598 -0.018770575 0.067533191)
(0.33771054 -0.020123202 0.071341973)
(0.36391397 -0.021498522 0.07513671)
(0.39012577 -0.022909387 0.078921121)
(-0.0021181237 -0.0026594184 0.0026093213)
(0.0022643861 -0.0047847842 0.0039029692)
(0.0061284509 -0.010134293 0.0067809146)
(0.011968007 -0.010400977 0.0082606757)
(0.020242396 -0.014696781 0.012104896)
(0.030448779 -0.016850259 0.015010025)
(0.041561574 -0.018926147 0.018656969)
(0.055194497 -0.021777155 0.022524199)
(0.069523711 -0.023502349 0.026428892)
(0.085961829 -0.025837628 0.030504652)
(0.10340692 -0.027728997 0.03457189)
(0.1224058 -0.029720505 0.038676128)
(0.14257037 -0.031689806 0.042791159)
(0.16394863 -0.033514271 0.046804616)
(0.1864021 -0.035425273 0.0508259)
(0.20980331 -0.037248926 0.054756918)
(0.23405736 -0.039043824 0.058637076)
(0.25898086 -0.040807933 0.062455699)
(0.28446427 -0.042524947 0.066237323)
(0.31032412 -0.04417977 0.069969745)
(0.33641605 -0.045787677 0.073692283)
(0.36261452 -0.047336411 0.077395496)
(0.38876443 -0.048833534 0.081140359)
(0.00077057239 0.0011942638 0.0015259001)
(0.00014841543 0.0011801332 0.00042578671)
(0.00053234287 0.00053029458 -0.00071246525)
(0.0042090842 0.0057754773 0.0017787068)
(0.0042356945 0.004480437 0.00065575756)
(0.0027577704 0.0037425392 -0.00016418871)
(0.0093617365 0.0073879319 0.0039936226)
(0.0076697077 0.0058053964 0.0031320466)
(0.007257696 0.0041753175 0.0024516694)
(0.016078044 0.010230815 0.0060889973)
(0.015588124 0.0080219392 0.0049989604)
(0.014407624 0.0055165966 0.0044397797)
(0.025018927 0.012257136 0.0086740766)
(0.023804007 0.0093435857 0.0080362579)
(0.022585279 0.0068762136 0.0072450793)
(0.035665627 0.01392647 0.012034655)
(0.034523578 0.011037532 0.011223215)
(0.032929526 0.0080173674 0.010531611)
(0.04766669 0.015646834 0.015366382)
(0.046310282 0.012461595 0.014593673)
(0.044855631 0.0090533725 0.013943466)
(0.061572281 0.017175533 0.019029846)
(0.060284387 0.013422775 0.018324032)
(0.058360613 0.0099990742 0.017724915)
(0.076829517 0.018073963 0.022875835)
(0.075186519 0.014588155 0.022271032)
(0.073351273 0.010954309 0.021568541)
(0.093529766 0.019221871 0.026792466)
(0.091913047 0.015483307 0.026096399)
(0.089914392 0.011651546 0.025488501)
(0.11162896 0.019951048 0.030750022)
(0.10986015 0.016115978 0.030154423)
(0.10770276 0.012309049 0.029581245)
(0.13096783 0.020431724 0.034773067)
(0.12911002 0.016631888 0.034203785)
(0.1269242 0.012789966 0.033609415)
(0.15156738 0.02081561 0.038752217)
(0.14963407 0.016984456 0.03820117)
(0.14733168 0.013115479 0.037683914)
(0.17328248 0.020902652 0.042725769)
(0.17123394 0.017096722 0.042255807)
(0.16887638 0.013248315 0.041750916)
(0.19600562 0.020813579 0.046659738)
(0.19389687 0.017010039 0.046216324)
(0.19148553 0.013199752 0.045768622)
(0.21966501 0.020495789 0.050548561)
(0.21746743 0.01675624 0.050172878)
(0.21500428 0.012974154 0.049770024)
(0.24408095 0.019999759 0.054391654)
(0.24181723 0.016264749 0.054069233)
(0.23932527 0.012530124 0.053726478)
(0.26916552 0.019287772 0.058188962)
(0.26683471 0.015600337 0.057930695)
(0.26430912 0.011909272 0.057639925)
(0.29473258 0.018414382 0.061957558)
(0.29234065 0.0147495 0.061744692)
(0.28979944 0.011105475 0.061520846)
(0.32065147 0.017391326 0.065690343)
(0.31822842 0.013757856 0.065543035)
(0.31566208 0.010136547 0.065361298)
(0.34677424 0.016219615 0.069407024)
(0.34430688 0.012622857 0.069315399)
(0.34173926 0.009031662 0.069172927)
(0.37300274 0.014964392 0.073143989)
(0.37048069 0.011368362 0.073066577)
(0.36790591 0.0078083078 0.072980121)
(0.39920021 0.013651601 0.076881561)
(0.39665387 0.010067831 0.076830295)
(0.39407253 0.0065148943 0.076781721)
(-0.00052115156 0.00069475289 0.00014291419)
(-0.00046293567 0.00063706532 -8.5097506e-05)
(-0.00014772821 0.0003493797 -7.4428398e-05)
(0.0034847321 0.0015979672 0.00089743839)
(0.0033598078 0.00065174721 0.00084331075)
(0.0020182661 -0.00030813289 0.001282398)
(0.0085682521 0.0022499554 0.0034505764)
(0.0078815207 0.00052327707 0.0040001736)
(0.0073985645 -0.0011447987 0.0037756274)
(0.015139334 0.0026001831 0.0055752203)
(0.015264136 -2.7816828e-05 0.0057993139)
(0.013965825 -0.0024530386 0.0057429755)
(0.024448435 0.0029906059 0.0089234177)
(0.023613499 0.00021096663 0.0094215431)
(0.022098068 -0.0019376412 0.0087618346)
(0.034734322 0.0030433234 0.01223485)
(0.033970192 -0.00027572169 0.012242904)
(0.032514223 -0.0031807794 0.012290946)
(0.046926567 0.0033047604 0.015646332)
(0.045951598 -0.00020218145 0.016064388)
(0.04419118 -0.0034857121 0.015642478)
(0.060836995 0.0028508921 0.019777274)
(0.059612528 -0.00090415015 0.019937932)
(0.057706306 -0.0039540595 0.019661937)
(0.075870935 0.0027754326 0.023553127)
(0.074524845 -0.00089343138 0.023639827)
(0.072579403 -0.0045778285 0.023456677)
(0.092696902 0.0023447859 0.027692309)
(0.091198794 -0.0016440377 0.027888937)
(0.089062043 -0.0051568486 0.027673594)
(0.11064169 0.0017270522 0.031791992)
(0.10896044 -0.0021313589 0.031896782)
(0.10676551 -0.0058852983 0.031679532)
(0.12997355 0.0010827635 0.035914202)
(0.12820812 -0.0028470411 0.036008226)
(0.12592505 -0.0065426024 0.035842137)
(0.15052472 0.0002611606 0.040037898)
(0.14861969 -0.0035831683 0.040133599)
(0.14624103 -0.0074115791 0.039944998)
(0.17214398 -0.00064779623 0.04411993)
(0.17014388 -0.0045520224 0.044169318)
(0.16771769 -0.0082929584 0.044037973)
(0.1948532 -0.0017021779 0.048179192)
(0.19275276 -0.0054841484 0.048232344)
(0.1902779 -0.0092598964 0.048080985)
(0.21843001 -0.0028127176 0.052168926)
(0.2162446 -0.0065999582 0.052196445)
(0.21373023 -0.010323498 0.052080131)
(0.24282488 -0.0040315089 0.056129211)
(0.24055716 -0.0077565343 0.056149637)
(0.23801512 -0.011474271 0.0560338)
(0.26785773 -0.0053169211 0.060018497)
(0.26551955 -0.0090143958 0.060024392)
(0.26296346 -0.012671565 0.059923354)
(0.29339802 -0.0066502426 0.063887566)
(0.29099884 -0.010307773 0.063881054)
(0.28842813 -0.013944833 0.063791418)
(0.31931094 -0.0080190416 0.067683743)
(0.31684303 -0.011661412 0.067684824)
(0.31427561 -0.015273707 0.06759726)
(0.34542933 -0.009425196 0.071508532)
(0.34290033 -0.013039719 0.07147489)
(0.34034324 -0.016622284 0.071400198)
(0.37162719 -0.010851422 0.075266597)
(0.36909411 -0.014424807 0.075255437)
(0.36651005 -0.017996995 0.075171146)
(0.39782827 -0.01225561 0.079037409)
(0.3952792 -0.015829533 0.079008446)
(0.39270199 -0.019363986 0.078960628)
(-0.00071557767 -0.00083663105 -0.00028397347)
(-0.00096688149 -0.00078266428 0.00018010055)
(-0.00085579885 -0.0011471674 0.0010657045)
(0.0041125404 -0.0015750927 0.00128342)
(0.0042843024 -0.0014969569 0.0019483723)
(0.0036215208 -0.0033408802 0.0028859438)
(0.0079827798 -0.0028701445 0.0033232981)
(0.0077549152 -0.005723701 0.0044035974)
(0.0079217441 -0.0074307667 0.0054542421)
(0.015890291 -0.0047684732 0.0059927368)
(0.015104682 -0.0057780243 0.0066252698)
(0.014559753 -0.0085255921 0.007277805)
(0.024053274 -0.005741885 0.0093075246)
(0.023438775 -0.0088550235 0.010095906)
(0.022654447 -0.011350326 0.01094658)
(0.034835965 -0.0074843172 0.012469335)
(0.033861101 -0.010151398 0.013197516)
(0.032780501 -0.01351768 0.013832729)
(0.046957262 -0.0092994513 0.016565525)
(0.045613745 -0.012346712 0.017350544)
(0.044499226 -0.015621192 0.017927371)
(0.06048693 -0.010711283 0.020418069)
(0.059271479 -0.014183965 0.020918602)
(0.057729492 -0.017797333 0.021558688)
(0.075758297 -0.012629579 0.024492139)
(0.074092454 -0.016005826 0.025203071)
(0.07253634 -0.019826981 0.02578652)
(0.092290911 -0.01444264 0.028804081)
(0.090691406 -0.018111679 0.029352559)
(0.088790887 -0.021919522 0.029819707)
(0.11018185 -0.01625824 0.03295197)
(0.10834025 -0.019950836 0.033462698)
(0.10640407 -0.023860545 0.03398822)
(0.12946095 -0.018254765 0.037249731)
(0.1275604 -0.021960609 0.037763778)
(0.12539133 -0.025839643 0.038176795)
(0.1498323 -0.020142387 0.041448896)
(0.14779321 -0.023946246 0.04187739)
(0.14558547 -0.02785756 0.042286474)
(0.17141905 -0.022168806 0.04565176)
(0.16931082 -0.025920909 0.046050797)
(0.16694482 -0.029751681 0.046420222)
(0.19398832 -0.024132085 0.049786073)
(0.19177555 -0.027894345 0.050142717)
(0.1893856 -0.031702711 0.050450996)
(0.21749325 -0.026102386 0.053884343)
(0.21522841 -0.029838898 0.054173335)
(0.21273857 -0.033597373 0.054446273)
(0.24179635 -0.028041876 0.057911873)
(0.23944505 -0.031760969 0.058157725)
(0.23694696 -0.035460764 0.058381897)
(0.26674761 -0.029929318 0.061895914)
(0.26436063 -0.033620628 0.062083232)
(0.26181293 -0.037257793 0.062249686)
(0.29223321 -0.03175062 0.065826016)
(0.28977682 -0.035401019 0.065956795)
(0.28722635 -0.039016486 0.066080305)
(0.31807208 -0.033489838 0.069715093)
(0.31559582 -0.037138018 0.069794595)
(0.31303459 -0.040695058 0.069866983)
(0.34415973 -0.03515178 0.073560095)
(0.34162663 -0.038757795 0.073607016)
(0.33906591 -0.042299847 0.073630415)
(0.37032981 -0.03673403 0.077399001)
(0.36779329 -0.040323797 0.077402094)
(0.36522943 -0.043846356 0.077384962)
(0.39647345 -0.038220166 0.081195149)
(0.39391254 -0.041801295 0.081172225)
(0.39134359 -0.045307757 0.081147934)
)
;

boundaryField
{
    free
    {
        type            calculated;
    }
    fixed
    {
        type            calculated;
    }
    freeTop
    {
        type            calculated;
    }
}


// ************************************************************************* //
