/*--------------------------------*- C++ -*----------------------------------*\
  =========                 |
  \\      /  F ield         | OpenFOAM: The Open Source CFD Toolbox
   \\    /   O peration     | Website:  https://openfoam.org
    \\  /    A nd           | Version:  6
     \\/     M anipulation  |
\*---------------------------------------------------------------------------*/
FoamFile
{
    version     2.0;
    format      ascii;
    class       pointVectorField;
    location    "1.04";
    object      u;
}
// * * * * * * * * * * * * * * * * * * * * * * * * * * * * * * * * * * * * * //

dimensions      [0 1 0 0 0 0 0];

internalField   nonuniform List<vector> 
3969
(
(0 0 0)
(0 0 0)
(2.5782767 -0.33392503 0.029695276)
(2.4073132 -0.89233302 0.028429884)
(0 0 0)
(0 0 0)
(2.4050236 -0.89783714 0.027975508)
(2.5759175 -0.3395847 0.029204904)
(0 0 0)
(0 0 0)
(0 0 0)
(0 0 0)
(0 0 0)
(0 0 0)
(0 0 0)
(2.5564184 -0.40426665 0.029152937)
(2.5348201 -0.47382964 0.029108224)
(2.5134319 -0.54328308 0.028993358)
(2.4922355 -0.6126854 0.02904381)
(2.471135 -0.68218096 0.02901199)
(2.4500191 -0.7518298 0.029007551)
(2.428924 -0.82182095 0.028795045)
(0.0087276503 0.016920163 0.018160788)
(0.014370697 0.030019275 0.021848563)
(0.02468433 0.044111109 0.024389865)
(0.039572826 0.057470806 0.024931131)
(0.057821449 0.070720686 0.025321319)
(0.080425283 0.082829913 0.025066761)
(0.10601517 0.094133154 0.02508377)
(0.1355045 0.10418528 0.024750494)
(0.16780214 0.1130803 0.02472395)
(0.20332317 0.12056072 0.024418312)
(0.24156613 0.12690935 0.024441937)
(0.28256581 0.13181462 0.024264825)
(0.32600247 0.13543507 0.024207008)
(0.37186734 0.13774872 0.024160052)
(0.41997144 0.13867411 0.024063074)
(0.47004951 0.13835435 0.02403566)
(0.522163 0.13673133 0.023997251)
(0.57604645 0.13384765 0.023955315)
(0.63166125 0.12971784 0.023931025)
(0.68882432 0.12438084 0.023875717)
(0.74746008 0.11784443 0.023852433)
(0.80743329 0.11019654 0.023793177)
(0.86864243 0.10141466 0.023753234)
(0.93099135 0.091609299 0.023697127)
(0.99434108 0.080739266 0.023645556)
(1.0586526 0.068995543 0.02360713)
(1.1237739 0.05630062 0.023579393)
(1.1896664 0.042764684 0.02355713)
(1.256242 0.028437523 0.023560718)
(1.3233809 0.013364414 0.023594532)
(1.3910674 -0.0023837866 0.0236511)
(1.4592078 -0.018772212 0.023749646)
(1.5277492 -0.035737015 0.023878149)
(1.5966369 -0.053239299 0.02404979)
(1.6658453 -0.071221655 0.024256171)
(1.7352759 -0.089681776 0.024514467)
(1.80498 -0.10846621 0.024781389)
(1.8747974 -0.12775421 0.025136392)
(1.9448564 -0.14719702 0.025453582)
(2.0149392 -0.16714903 0.025900894)
(2.0852326 -0.187164 0.026259513)
(2.1555082 -0.2075691 0.026760943)
(2.2258823 -0.22820101 0.027216377)
(2.2963052 -0.24883524 0.027686322)
(2.3666619 -0.26999145 0.028268945)
(2.4371099 -0.29094544 0.028763972)
(2.5074232 -0.3121276 0.029438765)
(-0.00010496012 -0.01635868 -0.021587262)
(0.006650713 -0.026300811 -0.022043695)
(0.013580019 -0.038864909 -0.026666677)
(0.02563285 -0.051055849 -0.025096968)
(0.041526386 -0.064576455 -0.025011553)
(0.060224575 -0.078208858 -0.023348171)
(0.082366826 -0.091982341 -0.022119278)
(0.10703097 -0.10612062 -0.020534717)
(0.1346456 -0.12034929 -0.019053349)
(0.16502363 -0.13523595 -0.017492898)
(0.1976152 -0.14988709 -0.016041841)
(0.23296649 -0.16541267 -0.014563514)
(0.27037569 -0.18091922 -0.013102804)
(0.31021106 -0.19694212 -0.011625852)
(0.35208721 -0.21336496 -0.01020818)
(0.3960992 -0.23011041 -0.0087598537)
(0.44211313 -0.24739085 -0.0073431619)
(0.4899147 -0.26486264 -0.005936451)
(0.53963138 -0.28295716 -0.0045159451)
(0.59096525 -0.30124437 -0.003149475)
(0.64392003 -0.32004038 -0.001747979)
(0.69845329 -0.33909455 -0.00041554453)
(0.75435104 -0.35855362 0.00096185723)
(0.81166023 -0.37832415 0.0022744947)
(0.87016274 -0.39830996 0.0035588035)
(0.929898 -0.41861397 0.0048393404)
(0.99063307 -0.43905931 0.0060942736)
(1.0524868 -0.45986064 0.0073382374)
(1.1152668 -0.48076419 0.0085202551)
(1.1788958 -0.50184101 0.0097213902)
(1.2433318 -0.5230904 0.010877891)
(1.3084667 -0.54444795 0.012031872)
(1.3742774 -0.56592158 0.013156971)
(1.4406649 -0.58748683 0.014268108)
(1.5076037 -0.60912059 0.015361917)
(1.5750112 -0.63082838 0.016431866)
(1.642873 -0.65257481 0.017497574)
(1.7111026 -0.67434385 0.018539261)
(1.7796839 -0.69617715 0.019578041)
(1.8485842 -0.71797893 0.020589653)
(1.9177378 -0.73983065 0.021608161)
(1.9871403 -0.76165539 0.022593741)
(2.0567466 -0.78346174 0.023581789)
(2.1265357 -0.80526213 0.024552622)
(2.1964573 -0.82700664 0.025514277)
(2.2665553 -0.84871965 0.026440476)
(2.3366955 -0.87045907 0.02739813)
(0 0 0)
(0 0 0)
(0 0 0)
(0 0 0)
(0 0 0)
(0 0 0)
(0 0 0)
(0.0062998008 -0.011136423 0.016915119)
(0.0088757943 -0.033633035 0.023804672)
(0.014708903 -0.036885866 0.024896661)
(0.027640112 -0.055811776 0.025792137)
(0.042839263 -0.067348277 0.026131452)
(0.061658 -0.081626595 0.024783856)
(0.083744006 -0.09656003 0.024989849)
(0.10820344 -0.10992794 0.023682585)
(0.13582144 -0.12577185 0.023928771)
(0.1656027 -0.13930959 0.022805958)
(0.19816531 -0.15590994 0.023401064)
(0.23338222 -0.17008653 0.022395343)
(0.27071195 -0.18645926 0.022499782)
(0.31052407 -0.20242493 0.022112638)
(0.35226981 -0.21868962 0.021942408)
(0.39623821 -0.23580867 0.021783145)
(0.44211831 -0.25274268 0.021598004)
(0.48988069 -0.27050973 0.021469766)
(0.53946614 -0.28839415 0.021335383)
(0.59074066 -0.30677683 0.021202592)
(0.64364185 -0.32547063 0.02109833)
(0.69805691 -0.34454049 0.021001927)
(0.75393401 -0.36392202 0.020908819)
(0.81113513 -0.383586 0.020835932)
(0.86963605 -0.4036607 0.02074348)
(0.92941379 -0.42390555 0.020606374)
(0.99000463 -0.44451748 0.020694215)
(1.051763 -0.46518221 0.020679136)
(1.1144151 -0.48613681 0.020758964)
(1.177962 -0.50722808 0.020836137)
(1.242284 -0.5284731 0.02094812)
(1.3073278 -0.54985294 0.021110467)
(1.3730197 -0.5713486 0.021310453)
(1.4393163 -0.59292432 0.021548889)
(1.5061376 -0.61458214 0.021829738)
(1.5734493 -0.63631807 0.022163054)
(1.6412164 -0.6580617 0.022500127)
(1.709318 -0.67989192 0.022925802)
(1.7778191 -0.70170372 0.023338983)
(1.8466231 -0.72355585 0.023811314)
(1.9156937 -0.74539142 0.024289905)
(1.9850352 -0.76723973 0.024803241)
(2.0545685 -0.78904546 0.025327495)
(2.1243172 -0.81084739 0.025871236)
(2.1942037 -0.83258531 0.026419996)
(2.2642726 -0.85429962 0.026996067)
(2.3343419 -0.87603899 0.027532176)
(2.4267056 -0.82741928 0.027936658)
(2.4477164 -0.75742199 0.028057627)
(2.4688544 -0.6878049 0.028324768)
(2.489918 -0.618318 0.028573921)
(2.5110726 -0.54891715 0.028947749)
(2.5324256 -0.47945901 0.029137812)
(2.5540962 -0.40996591 0.029360504)
(2.5052154 -0.31784441 0.028014593)
(2.4346685 -0.29664943 0.027113793)
(2.3643089 -0.27554262 0.026137713)
(2.2939272 -0.25455229 0.025200318)
(2.2235549 -0.23375081 0.024214245)
(2.1532299 -0.21313181 0.023225825)
(2.0829693 -0.19274534 0.022240257)
(2.0127877 -0.17259065 0.021240692)
(1.9427204 -0.15272082 0.020235385)
(1.8727956 -0.13312316 0.019222077)
(1.8030027 -0.11389778 0.018208321)
(1.7334789 -0.095072872 0.017198429)
(1.6640939 -0.076565315 0.016144303)
(1.5950159 -0.058563738 0.015100766)
(1.526236 -0.041034724 0.014028494)
(1.4578111 -0.024062022 0.012955401)
(1.3897853 -0.0076641219 0.011861825)
(1.3222225 0.008080479 0.010746844)
(1.2551777 0.023146465 0.0096200898)
(1.1887283 0.037442976 0.0084735255)
(1.1229432 0.050974822 0.0072948303)
(1.0579009 0.063613215 0.0061127622)
(0.99369519 0.075390406 0.0048919224)
(0.93039069 0.086181731 0.0036561251)
(0.86812569 0.095994645 0.0023871743)
(0.80696856 0.10473891 0.0011118996)
(0.7470405 0.11241838 -0.00020725017)
(0.6884503 0.1189392 -0.0015162125)
(0.63131408 0.1243174 -0.0028675373)
(0.57574281 0.1284809 -0.0042184842)
(0.52186409 0.13142724 -0.0055894535)
(0.46979714 0.13315617 -0.0069935975)
(0.41964585 0.13362839 -0.008370789)
(0.37173724 0.13255666 -0.0096623084)
(0.326001 0.13038179 -0.011173622)
(0.28242985 0.12698952 -0.012411797)
(0.24162328 0.12220761 -0.013923277)
(0.20322043 0.11609341 -0.015211559)
(0.16777373 0.10896821 -0.016770591)
(0.13543246 0.1000204 -0.017926369)
(0.10627471 0.090496926 -0.01926795)
(0.080047892 0.079521 -0.020461143)
(0.058020045 0.067706412 -0.021541222)
(0.039192444 0.054875297 -0.021975205)
(0.025057806 0.042237805 -0.021779986)
(0.014219319 0.027530973 -0.020100469)
(0.013597406 0.015889956 -0.013071448)
(0 0 0)
(0 0 0)
(0 0 0)
(0 0 0)
(0 0 0)
(0 0 0)
(0 0 0)
(0 0 0)
(0 0 0)
(0 0 0)
(0 0 0)
(0 0 0)
(0 0 0)
(0 0 0)
(2.4069964 -0.89322489 0.028319314)
(2.4067223 -0.89401947 0.028264378)
(2.4064402 -0.89473356 0.028221668)
(2.4061547 -0.89545812 0.028198936)
(2.4058663 -0.89614352 0.028178916)
(2.4055814 -0.89677779 0.028157043)
(2.4052848 -0.89745168 0.028048564)
(2.5782801 -0.33446168 0.029652076)
(2.5780227 -0.33516856 0.029625812)
(2.5777609 -0.33584448 0.029525004)
(2.5774901 -0.33654438 0.029440962)
(2.5771901 -0.33724972 0.029351958)
(2.5768437 -0.33799311 0.029273513)
(2.5765679 -0.33869696 0.029246366)
(0.0013772313 0.012227506 0.01649797)
(0.0056397752 0.02241055 0.016275313)
(0.013551698 0.033515106 0.018806567)
(0.026251261 0.044004677 0.019442977)
(0.042617705 0.05388838 0.019713531)
(0.06355567 0.063409957 0.019962872)
(0.087611069 0.071738443 0.019845349)
(0.1156055 0.079454239 0.020104528)
(0.1467856 0.085683134 0.019859954)
(0.18127744 0.091031899 0.020100399)
(0.21867301 0.095032291 0.02006756)
(0.25899584 0.09776074 0.020089216)
(0.3020699 0.099363694 0.020176302)
(0.34769008 0.099534719 0.020202108)
(0.39573868 0.098455304 0.020306033)
(0.446064 0.096078839 0.020365326)
(0.49854503 0.092424502 0.020457345)
(0.55297338 0.087468917 0.020548666)
(0.60929473 0.081294767 0.020621797)
(0.66731113 0.073886182 0.020702006)
(0.72691164 0.065309346 0.020781723)
(0.78793197 0.055604004 0.020847698)
(0.85028106 0.04482213 0.020929527)
(0.9137495 0.033020614 0.021002316)
(0.97832375 0.02027655 0.021100213)
(1.0437866 0.0066082248 0.021164224)
(1.1100469 -0.0078556818 0.021270955)
(1.1770236 -0.023069655 0.021390489)
(1.2445724 -0.038994324 0.021532303)
(1.3126024 -0.055508021 0.021695638)
(1.3810506 -0.072575818 0.02189235)
(1.4498012 -0.090142329 0.022116744)
(1.5187983 -0.10812204 0.022377232)
(1.5879832 -0.12648677 0.022670501)
(1.657284 -0.14517669 0.022998764)
(1.7266487 -0.16413344 0.023361955)
(1.7960759 -0.18334066 0.02374647)
(1.8654513 -0.20276628 0.02419197)
(1.9348551 -0.22232942 0.024629774)
(2.004162 -0.24210332 0.025137919)
(2.0734473 -0.26191021 0.025613797)
(2.1426012 -0.28198665 0.026193175)
(2.2117694 -0.30198917 0.02667095)
(2.2807499 -0.32220865 0.027290968)
(2.3497303 -0.3425577 0.027833124)
(2.4185809 -0.3627684 0.028385501)
(2.4873415 -0.38348235 0.028911899)
(-0.0042280999 0.0082296153 0.011646655)
(-0.0011365936 0.014126461 0.010970773)
(0.0064320737 0.023383529 0.01335677)
(0.017956998 0.03010696 0.013435858)
(0.033955692 0.037494483 0.014096041)
(0.053424338 0.043943405 0.014057234)
(0.076707804 0.049669452 0.014644754)
(0.10389342 0.054458023 0.014438782)
(0.13414506 0.058129011 0.015017794)
(0.16780636 0.060939552 0.015109771)
(0.20454951 0.062375328 0.015344011)
(0.24425325 0.062879881 0.015611633)
(0.2867466 0.062051519 0.015871233)
(0.3319277 0.059997336 0.016153344)
(0.37963199 0.056737 0.016420157)
(0.4296718 0.052294885 0.016629709)
(0.48191764 0.046632353 0.016868629)
(0.53622713 0.0397539 0.017097745)
(0.59248285 0.03169788 0.017314666)
(0.65052057 0.022463407 0.017543981)
(0.71018127 0.012114098 0.017754125)
(0.77136191 0.00070655619 0.017961462)
(0.83380543 -0.011720826 0.018180792)
(0.89753721 -0.02506215 0.018394182)
(0.96227322 -0.039337961 0.018595754)
(1.0279395 -0.054361226 0.018861665)
(1.0944153 -0.070162427 0.019109896)
(1.1615701 -0.086642267 0.019368443)
(1.2292718 -0.10367383 0.019669616)
(1.2974594 -0.1212607 0.019974732)
(1.3660018 -0.13928991 0.020303567)
(1.4348072 -0.15771755 0.020674618)
(1.5038234 -0.17646959 0.021052977)
(1.5729518 -0.19550532 0.021474594)
(1.6421442 -0.21475754 0.02191577)
(1.7113451 -0.23420685 0.022390952)
(1.7805359 -0.25377839 0.022879887)
(1.8495883 -0.27351119 0.023427199)
(1.9186825 -0.29324185 0.023926039)
(1.9874978 -0.31316741 0.02453908)
(2.056384 -0.33302097 0.025067898)
(2.124978 -0.35302559 0.025700521)
(2.1936041 -0.37298225 0.026268019)
(2.2619589 -0.39305423 0.026920035)
(2.3303331 -0.41315177 0.027502878)
(2.3985096 -0.43329412 0.028090092)
(2.4667419 -0.4536492 0.028637237)
(-0.0075896316 0.004767472 0.0072109239)
(-0.0034285934 0.0086271617 0.0067146754)
(0.0038539713 0.013464036 0.0076229016)
(0.016552978 0.017753273 0.0077475346)
(0.032257508 0.021561348 0.007997699)
(0.052588945 0.024988223 0.0084383328)
(0.076165009 0.02709819 0.0082902268)
(0.10321024 0.028882382 0.0090184335)
(0.13339273 0.029378887 0.0092686285)
(0.16692494 0.029136413 0.0095885291)
(0.20309993 0.027910283 0.010116242)
(0.24223308 0.025588955 0.010515322)
(0.28397021 0.022313113 0.010954667)
(0.32828804 0.017909743 0.011424743)
(0.37501724 0.012534649 0.011918677)
(0.42402857 0.0060285295 0.012296607)
(0.47519251 -0.0015437721 0.012772523)
(0.52836183 -0.010177971 0.013158604)
(0.58343038 -0.019892852 0.013613791)
(0.64018504 -0.030580696 0.014026773)
(0.69856873 -0.042260499 0.014467211)
(0.75835488 -0.054877024 0.014899738)
(0.81959692 -0.06835824 0.015328687)
(0.88198145 -0.082731304 0.015730919)
(0.9454756 -0.09783204 0.016196441)
(1.0099518 -0.11367833 0.016591956)
(1.0753256 -0.13019639 0.016994335)
(1.1414044 -0.14728946 0.017439335)
(1.2081629 -0.16492296 0.01786605)
(1.275451 -0.18304141 0.018305364)
(1.3431857 -0.20155107 0.018782608)
(1.4113078 -0.22043908 0.019257004)
(1.479718 -0.23962598 0.019760408)
(1.5483636 -0.25907209 0.020282863)
(1.6171779 -0.27875517 0.020828201)
(1.6861288 -0.29858854 0.021381277)
(1.7551226 -0.31861901 0.021976725)
(1.8242267 -0.33870678 0.022556584)
(1.8932941 -0.35895027 0.02317716)
(1.9623474 -0.37925656 0.023838893)
(2.0314389 -0.39954786 0.024429628)
(2.1003719 -0.42005271 0.025179875)
(2.1694193 -0.44041709 0.025751285)
(2.2382663 -0.46099793 0.026519493)
(2.3072405 -0.48155829 0.027100357)
(2.3760422 -0.50213175 0.027798787)
(2.4448808 -0.5228496 0.028427089)
(-0.0068094486 0.0011254929 0.0014936195)
(-0.0013542015 0.0018577678 -0.00012569864)
(0.0073004609 0.0037429381 0.00054693783)
(0.020660491 0.0045896668 0.00071220109)
(0.038182611 0.0047314309 0.0013277603)
(0.059156907 0.0049228592 0.0013955408)
(0.083304142 0.0034283959 0.0024769782)
(0.11074017 0.002062057 0.0027868895)
(0.14115945 -0.00082849067 0.0034712634)
(0.17436056 -0.0039818858 0.0042834448)
(0.21023267 -0.0084620555 0.0048678152)
(0.24884296 -0.013496654 0.0054947662)
(0.28970594 -0.019492933 0.0060961899)
(0.3330003 -0.026464218 0.0067966992)
(0.37837419 -0.034078423 0.0073519258)
(0.42595601 -0.042758682 0.0080399215)
(0.47535423 -0.052119495 0.008639817)
(0.52668886 -0.062474221 0.0093065159)
(0.57964798 -0.073591534 0.0099568845)
(0.6343144 -0.085547163 0.010587249)
(0.69046589 -0.098333021 0.011219623)
(0.74816969 -0.11182644 0.011815741)
(0.8070371 -0.12608368 0.012412372)
(0.8671709 -0.14099335 0.013047737)
(0.92843177 -0.15655961 0.013607903)
(0.99075703 -0.17273221 0.014189869)
(1.0539958 -0.18946226 0.014818406)
(1.1181106 -0.20674018 0.015426476)
(1.1830252 -0.22449015 0.016016778)
(1.2486358 -0.24270326 0.016655245)
(1.3149114 -0.26131151 0.017258703)
(1.3817568 -0.28031277 0.017894325)
(1.4491187 -0.29964035 0.018524299)
(1.5169473 -0.31928189 0.019174824)
(1.585183 -0.33919052 0.019822121)
(1.6537633 -0.35936661 0.020501748)
(1.7226965 -0.37972805 0.021165777)
(1.7918555 -0.4003204 0.021866483)
(1.8612633 -0.42108811 0.022583528)
(1.9308885 -0.44195936 0.023260335)
(2.0007321 -0.46304773 0.02399447)
(2.0706589 -0.48421133 0.024709792)
(2.1408422 -0.50544978 0.025399527)
(2.2109812 -0.52687654 0.026179835)
(2.281362 -0.54825935 0.026847888)
(2.3516525 -0.56977338 0.027638491)
(2.4221204 -0.59134842 0.028317222)
(-0.0061991429 -0.0024368417 -0.003700343)
(0.0014970396 -0.0034445629 -0.0053387632)
(0.010803121 -0.0052779507 -0.0052221946)
(0.026337301 -0.0079099027 -0.0054117112)
(0.044589443 -0.011063032 -0.0052195246)
(0.066825753 -0.01479406 -0.0044949782)
(0.091657408 -0.019596752 -0.003966236)
(0.11994881 -0.024533733 -0.0034447689)
(0.15038707 -0.030786887 -0.0024855722)
(0.183788 -0.037238032 -0.0018327937)
(0.21932695 -0.04479775 -0.0011113461)
(0.25724579 -0.052507174 -0.00019784972)
(0.29720089 -0.061460967 0.00070048871)
(0.33930579 -0.07059574 0.001573168)
(0.38329555 -0.080723564 0.002496656)
(0.4291311 -0.09135183 0.0034450297)
(0.4767732 -0.10269224 0.0043123045)
(0.52604517 -0.11463595 0.005229428)
(0.57696743 -0.12719371 0.0061041879)
(0.62935963 -0.14038673 0.0069846525)
(0.68326321 -0.15412276 0.0078588478)
(0.73839647 -0.16847273 0.0087514025)
(0.79490926 -0.18333625 0.0096238488)
(0.85264463 -0.19882025 0.010451003)
(0.91162015 -0.21480061 0.011269778)
(0.97166008 -0.23127529 0.012103686)
(1.0327938 -0.24827278 0.012902648)
(1.0949249 -0.26572131 0.013657984)
(1.1579954 -0.28361729 0.014432432)
(1.2219514 -0.3019349 0.015175176)
(1.2867491 -0.32066427 0.015919969)
(1.3523283 -0.33978949 0.016663009)
(1.4186445 -0.35928896 0.017404665)
(1.4856587 -0.37912433 0.018136271)
(1.5532943 -0.39933061 0.018892199)
(1.6215608 -0.41980959 0.019623504)
(1.6903443 -0.44060877 0.020376201)
(1.7596649 -0.46170569 0.021145556)
(1.8294339 -0.48299176 0.021854688)
(1.899694 -0.50456493 0.022644714)
(1.9702494 -0.52633074 0.023399666)
(2.0411919 -0.54826603 0.024186449)
(2.1124113 -0.57038311 0.024948725)
(2.1838514 -0.59264558 0.025774985)
(2.2555894 -0.61496196 0.026506745)
(2.3274183 -0.63742547 0.027354461)
(2.3994231 -0.65987476 0.028131678)
(-0.0044418538 -0.0063705481 -0.010052166)
(0.0047573747 -0.010809485 -0.011390317)
(0.01455666 -0.016079232 -0.012733644)
(0.030233013 -0.022087349 -0.012734347)
(0.048891507 -0.028679102 -0.012173988)
(0.070938405 -0.035828935 -0.011411837)
(0.095984924 -0.043908354 -0.010623967)
(0.12377423 -0.052117458 -0.0095236085)
(0.15402766 -0.061455448 -0.0085099387)
(0.18679396 -0.07073407 -0.007460521)
(0.22172975 -0.081100218 -0.0063265584)
(0.25880868 -0.091659439 -0.0052474754)
(0.29790293 -0.10295048 -0.0042091847)
(0.33896068 -0.11461693 -0.0030691681)
(0.38179251 -0.12686301 -0.001997929)
(0.42647147 -0.13953944 -0.00086327476)
(0.47277096 -0.15275424 0.00018576834)
(0.52076425 -0.16637452 0.0013217234)
(0.57023873 -0.1805568 0.0023884537)
(0.62124148 -0.19510212 0.0034886997)
(0.67361387 -0.21022203 0.0045519773)
(0.72750318 -0.22560627 0.0056312683)
(0.78253939 -0.24155651 0.0066300654)
(0.83888221 -0.25804498 0.0076768908)
(0.89644961 -0.27481632 0.0086734927)
(0.95514691 -0.29205428 0.0096310767)
(1.0150424 -0.30964269 0.010575305)
(1.0759696 -0.32763856 0.011534853)
(1.1379376 -0.34599758 0.012444971)
(1.2008908 -0.36477207 0.013361071)
(1.2647771 -0.3839054 0.01425227)
(1.3295604 -0.40340602 0.015145413)
(1.395198 -0.42325914 0.016013648)
(1.4616316 -0.44347198 0.016889801)
(1.5288406 -0.46398879 0.017743625)
(1.5967493 -0.48484404 0.018603938)
(1.6653445 -0.50599718 0.019459289)
(1.734548 -0.52740241 0.020297919)
(1.8043462 -0.54914056 0.021166922)
(1.8746505 -0.57106437 0.022001379)
(1.9454463 -0.59320437 0.02285653)
(2.0166948 -0.615537 0.02368287)
(2.0882642 -0.63808402 0.024554508)
(2.1602305 -0.66069753 0.02537484)
(2.2324237 -0.68344301 0.026235947)
(2.30486 -0.70625955 0.027127691)
(2.377497 -0.72903669 0.028016691)
(-0.0026914673 -0.012073863 -0.014424063)
(0.0053722378 -0.017577042 -0.016714133)
(0.014073369 -0.02663408 -0.018839213)
(0.029119349 -0.03546853 -0.018727755)
(0.046256947 -0.045233444 -0.018235689)
(0.067702837 -0.055764476 -0.017249562)
(0.091413722 -0.066786896 -0.016232489)
(0.11823789 -0.078084525 -0.014934676)
(0.14743109 -0.090210995 -0.013819181)
(0.17913242 -0.10206681 -0.012474185)
(0.21326743 -0.11532051 -0.011166294)
(0.24932321 -0.12792455 -0.010065411)
(0.2877857 -0.14182442 -0.008598516)
(0.32798088 -0.15556808 -0.0074226314)
(0.37034058 -0.1700207 -0.0060736433)
(0.41438453 -0.18472387 -0.0048328961)
(0.4603323 -0.19991589 -0.0035269708)
(0.50789252 -0.2154905 -0.0022654923)
(0.55711357 -0.23145777 -0.0010029101)
(0.60788412 -0.24783354 0.0002466078)
(0.66015935 -0.26456217 0.0014693692)
(0.71379176 -0.28170395 0.0027086339)
(0.76891227 -0.29919126 0.003884235)
(0.82522754 -0.31709076 0.0050793565)
(0.88281078 -0.33526196 0.0061940186)
(0.94156444 -0.35379521 0.0073303624)
(1.0014746 -0.37264589 0.0084695783)
(1.0624563 -0.39180439 0.0095443972)
(1.1244621 -0.41127453 0.010601304)
(1.1874159 -0.43105137 0.011651817)
(1.2512771 -0.45108982 0.012672356)
(1.3160014 -0.47141858 0.013683565)
(1.3815175 -0.49200312 0.01467873)
(1.4478042 -0.51283012 0.015655602)
(1.514781 -0.53390288 0.016627447)
(1.5824321 -0.55519137 0.017580764)
(1.650682 -0.57668608 0.018523632)
(1.7195154 -0.59839915 0.019474747)
(1.7888477 -0.6202568 0.020383076)
(1.8586609 -0.64230614 0.021318095)
(1.9289017 -0.66445837 0.022224383)
(1.9995319 -0.68678106 0.023153186)
(2.0704743 -0.70917082 0.024058047)
(2.1417489 -0.73162517 0.024952619)
(2.2131944 -0.75416008 0.025887743)
(2.2849231 -0.77667411 0.02677502)
(2.3567713 -0.79913724 0.027734357)
(0 0 0)
(0 0 0)
(0 0 0)
(0 0 0)
(0 0 0)
(0 0 0)
(0 0 0)
(0 0 0)
(0 0 0)
(0 0 0)
(0 0 0)
(0 0 0)
(0 0 0)
(0 0 0)
(0 0 0)
(0 0 0)
(0 0 0)
(0 0 0)
(0 0 0)
(0 0 0)
(0 0 0)
(0 0 0)
(0 0 0)
(0 0 0)
(0 0 0)
(0 0 0)
(0 0 0)
(0 0 0)
(0 0 0)
(0 0 0)
(0 0 0)
(0 0 0)
(0 0 0)
(0 0 0)
(0 0 0)
(0 0 0)
(0 0 0)
(0 0 0)
(0 0 0)
(0 0 0)
(0 0 0)
(0 0 0)
(0 0 0)
(0 0 0)
(0 0 0)
(0 0 0)
(0 0 0)
(0 0 0)
(0 0 0)
(0.0066789767 -0.004838346 -0.011400313)
(0.0084834346 -0.0064180114 -0.0079330786)
(0.010437751 -0.006836475 -0.0041661264)
(0.011204608 -0.0072124382 -0.0010873573)
(0.010937167 -0.0067340147 0.0020204067)
(0.010289982 -0.0071250074 0.0053928338)
(0.0084754663 -0.0045203762 0.0090342181)
(0.013282625 -0.025644737 -0.018354316)
(0.01699541 -0.029071031 -0.010305557)
(0.018737749 -0.027331431 -0.0048563502)
(0.019200623 -0.026586147 -0.00023615787)
(0.019414744 -0.028263989 0.0043381907)
(0.017328367 -0.027860885 0.0097027109)
(0.015272519 -0.027606056 0.016790389)
(0.019513985 -0.036318687 -0.019373349)
(0.024406888 -0.034898547 -0.013830829)
(0.027540529 -0.036910973 -0.0061431662)
(0.027956627 -0.036903845 -0.00071552732)
(0.027783963 -0.036050591 0.0061354776)
(0.025387611 -0.03641817 0.010979157)
(0.022022494 -0.038216914 0.019871641)
(0.032612351 -0.052735091 -0.018896714)
(0.036462372 -0.054182362 -0.013186534)
(0.039033562 -0.053787328 -0.0059574702)
(0.040022721 -0.053977827 -0.00036349186)
(0.039561553 -0.054238296 0.0061152507)
(0.037260874 -0.055309968 0.013164197)
(0.03314527 -0.053966638 0.01923682)
(0.047160514 -0.066345422 -0.018952838)
(0.051762227 -0.066664148 -0.01319289)
(0.055026422 -0.067803598 -0.0061906953)
(0.055723009 -0.067700773 0.00030439587)
(0.055394138 -0.068221939 0.0068686197)
(0.053035027 -0.068152206 0.012900303)
(0.049341959 -0.068758465 0.020363242)
(0.066186901 -0.080752788 -0.017436605)
(0.069934118 -0.081317854 -0.011997043)
(0.072561742 -0.081531733 -0.0052682605)
(0.07343613 -0.082426353 0.0002531541)
(0.072854705 -0.082155959 0.0071288135)
(0.07052545 -0.082617152 0.013295253)
(0.066716012 -0.082080526 0.019286118)
(0.087574166 -0.094337934 -0.016557728)
(0.09143604 -0.095365312 -0.010870934)
(0.094183247 -0.096931334 -0.0048246322)
(0.095033223 -0.097215634 0.00097426913)
(0.09465843 -0.097941726 0.0074025607)
(0.09257035 -0.098459864 0.013029773)
(0.089031564 -0.098022389 0.019526311)
(0.11214387 -0.10890522 -0.015088293)
(0.1157918 -0.11029915 -0.010082026)
(0.11817458 -0.11082482 -0.0038825631)
(0.11894861 -0.11153245 0.0015815586)
(0.11832239 -0.11150508 0.0073650126)
(0.11634844 -0.11131717 0.013206982)
(0.11275148 -0.11085321 0.018614977)
(0.13958664 -0.12333992 -0.01397566)
(0.14288883 -0.12439319 -0.0085752658)
(0.14521607 -0.12591295 -0.0031925536)
(0.14590996 -0.12658797 0.0020207708)
(0.14552705 -0.12750426 0.0077006285)
(0.14364598 -0.12746745 0.013109876)
(0.14040314 -0.12728706 0.018900619)
(0.16935475 -0.13779745 -0.01254078)
(0.17263498 -0.13953119 -0.0077968237)
(0.17475473 -0.14040538 -0.0025111605)
(0.17565025 -0.14155909 0.0029165305)
(0.17494854 -0.14138488 0.0081216601)
(0.17318755 -0.14127216 0.013264177)
(0.16996388 -0.14074638 0.01834373)
(0.20208674 -0.15306059 -0.011249611)
(0.2049959 -0.15442453 -0.0065283142)
(0.20709744 -0.15584815 -0.0012306682)
(0.20754235 -0.15622917 0.0032624627)
(0.20719617 -0.15697914 0.0084681611)
(0.2053738 -0.15710517 0.013207375)
(0.20232232 -0.1568376 0.01865845)
(0.23691563 -0.16795788 -0.010145172)
(0.23986542 -0.16972497 -0.0052883047)
(0.24154704 -0.1709509 -0.0009387703)
(0.24237228 -0.17211485 0.0040102543)
(0.24179672 -0.17245442 0.0088996283)
(0.2399234 -0.17204178 0.013381343)
(0.23743968 -0.17196146 0.018236951)
(0.27436605 -0.18403138 -0.0086553329)
(0.27682113 -0.18539873 -0.0043016209)
(0.27868603 -0.18689788 0.00020698036)
(0.27922533 -0.18742761 0.0046966274)
(0.27871664 -0.18779609 0.0092592859)
(0.2770618 -0.18817561 0.01353944)
(0.27443596 -0.18746205 0.018266665)
(0.3137913 -0.19964755 -0.0075657641)
(0.31624138 -0.20133823 -0.0032355384)
(0.31804152 -0.20278826 0.00084534877)
(0.3184429 -0.2035746 0.0052090727)
(0.31809618 -0.2043972 0.0096229668)
(0.31641312 -0.2040534 0.013630683)
(0.31412989 -0.20384087 0.018219068)
(0.35550312 -0.21632945 -0.0062633408)
(0.35786185 -0.21789553 -0.0021275437)
(0.35939313 -0.21914801 0.0017304514)
(0.35990059 -0.22003713 0.0060294713)
(0.35946551 -0.22031868 0.0099647425)
(0.35796327 -0.22037928 0.014001035)
(0.3556664 -0.21995748 0.018193085)
(0.39934614 -0.23293084 -0.0050260076)
(0.40145138 -0.23443189 -0.001141123)
(0.40301754 -0.23597557 0.0025873725)
(0.40340468 -0.23672075 0.0064588264)
(0.40303718 -0.23736795 0.010456622)
(0.40155069 -0.2373537 0.014089451)
(0.39943867 -0.23697496 0.018205233)
(0.44502532 -0.25010749 -0.0038107908)
(0.44711232 -0.25176752 -2.9790551e-05)
(0.44850148 -0.25307213 0.0033553042)
(0.44888544 -0.25383751 0.0072667064)
(0.44852729 -0.2543973 0.010835915)
(0.44715732 -0.25430211 0.01439892)
(0.44513272 -0.25401358 0.018257552)
(0.4927513 -0.26766529 -0.0025299204)
(0.49461873 -0.2692018 0.00089456681)
(0.49598507 -0.27058742 0.0042805156)
(0.49629265 -0.27143173 0.0078085561)
(0.49596067 -0.27196155 0.011259279)
(0.49462819 -0.27199019 0.014634514)
(0.49272067 -0.27162531 0.018274996)
(0.54216776 -0.28559668 -0.0013709946)
(0.54394902 -0.28712677 0.0019865518)
(0.54521118 -0.28849729 0.0050888521)
(0.54546536 -0.28921798 0.0084821778)
(0.54517653 -0.28980936 0.01172662)
(0.54390862 -0.28976539 0.014907071)
(0.54212283 -0.28955123 0.018324258)
(0.59333922 -0.30387704 -0.00010847366)
(0.59500116 -0.30541459 0.0029808486)
(0.59615791 -0.3067172 0.0059252421)
(0.59639157 -0.30756579 0.0091184749)
(0.59611375 -0.30808762 0.012143119)
(0.59489566 -0.30816512 0.015163568)
(0.59323344 -0.30785673 0.018370256)
(0.64613114 -0.32258201 0.0010627819)
(0.64764884 -0.32403698 0.003982011)
(0.64872942 -0.32537571 0.006762839)
(0.64893936 -0.32610959 0.0097468849)
(0.6486667 -0.32669148 0.012599027)
(0.64753321 -0.32670012 0.015432595)
(0.64596554 -0.32649451 0.018432051)
(0.70043566 -0.34156798 0.0022565307)
(0.70184884 -0.34304536 0.0049924613)
(0.70285231 -0.34429027 0.0075857684)
(0.70301384 -0.34510641 0.010374769)
(0.70276919 -0.34562295 0.013046842)
(0.70167273 -0.34572505 0.015695285)
(0.7002223 -0.34551098 0.018509067)
(0.75618501 -0.36095131 0.0034377958)
(0.75749437 -0.36233793 0.0059861615)
(0.7583943 -0.36359805 0.008387333)
(0.7585578 -0.36434841 0.010998347)
(0.75829456 -0.36493074 0.013488444)
(0.75728824 -0.3650235 0.015952376)
(0.75593884 -0.36484319 0.018583204)
(0.81330987 -0.3805664 0.0046119244)
(0.8144964 -0.38199448 0.0069527059)
(0.81533248 -0.38314639 0.0091817066)
(0.8154443 -0.38397415 0.011624147)
(0.81522014 -0.38447704 0.013918196)
(0.81427198 -0.38458684 0.016225939)
(0.81299752 -0.38443715 0.018675899)
(0.8716516 -0.40051383 0.0057046316)
(0.87280654 -0.40188621 0.0079235906)
(0.87350148 -0.40298217 0.0099568095)
(0.8736517 -0.40381892 0.012259426)
(0.8733821 -0.4043023 0.014343539)
(0.87247719 -0.40453863 0.016510379)
(0.87130753 -0.40444401 0.018727213)
(0.93119514 -0.42070893 0.0068321088)
(0.93228586 -0.42202325 0.0088458286)
(0.93285362 -0.42312195 0.010738926)
(0.93301812 -0.42393327 0.012913743)
(0.93269123 -0.42439212 0.014738505)
(0.93195992 -0.42465909 0.01674238)
(0.93087851 -0.42456619 0.018728601)
(0.99185743 -0.44115015 0.0079241116)
(0.99283544 -0.44241105 0.009702845)
(0.99336251 -0.44351482 0.011600444)
(0.99352391 -0.44429669 0.013360007)
(0.99327683 -0.44480625 0.015269784)
(0.99251502 -0.44508969 0.017085403)
(0.99144461 -0.44502047 0.018971127)
(1.053606 -0.46179527 0.0089950533)
(1.0544062 -0.46300394 0.010665311)
(1.0549413 -0.46410493 0.01237029)
(1.0550026 -0.46482737 0.01396617)
(1.0547724 -0.46537514 0.015786591)
(1.0540712 -0.46560118 0.017341727)
(1.05307 -0.4656949 0.019139627)
(1.1162383 -0.48259757 0.010033543)
(1.1169902 -0.48383493 0.011615142)
(1.117388 -0.48486119 0.013075042)
(1.11749 -0.48560212 0.014661028)
(1.1171986 -0.48615489 0.016217564)
(1.116568 -0.48646024 0.017690924)
(1.1156213 -0.48654529 0.019340064)
(1.1797764 -0.50363118 0.011121561)
(1.1803855 -0.50477215 0.01249521)
(1.180779 -0.50580727 0.01390112)
(1.1808102 -0.5065339 0.015264997)
(1.180538 -0.50712673 0.016724877)
(1.1799587 -0.50741155 0.018045552)
(1.1790627 -0.50757763 0.019558392)
(1.2440685 -0.52476576 0.012126035)
(1.2446263 -0.52591514 0.013419521)
(1.2449376 -0.52690843 0.014634709)
(1.2449497 -0.52763981 0.015923936)
(1.2446853 -0.52821134 0.017220444)
(1.2441242 -0.52854696 0.018427376)
(1.2432931 -0.52874414 0.019791604)
(1.3091148 -0.54607354 0.013173686)
(1.3095836 -0.54716087 0.014305274)
(1.3098426 -0.54812507 0.015439582)
(1.3098338 -0.54884278 0.016572096)
(1.3095587 -0.54944432 0.017749153)