/*--------------------------------*- C++ -*----------------------------------*\
  =========                 |
  \\      /  F ield         | OpenFOAM: The Open Source CFD Toolbox
   \\    /   O peration     | Website:  https://openfoam.org
    \\  /    A nd           | Version:  6
     \\/     M anipulation  |
\*---------------------------------------------------------------------------*/
FoamFile
{
    version     2.0;
    format      ascii;
    class       pointScalarField;
    location    "0.22";
    object      E;
}
// * * * * * * * * * * * * * * * * * * * * * * * * * * * * * * * * * * * * * //

dimensions      [1 -1 -2 0 0 0 0];

internalField   nonuniform List<scalar> 
625
(
10033.576
8820.4268
18334.174
15412.393
9733.5873
7892.7349
16546.063
18740.746
2939.9292
1143.646
6514.8121
13971.554
11837.096
18830.055
13977.92
12979.179
12753.068
12587.356
11518.627
10964.471
9985.7378
9079.8862
8182.5242
6802.3809
5733.4566
4082.8372
2540.4211
547.52726
-1391.3311
-3236.7961
-4646.194
-5236.1408
-4259.0038
-2586.5649
1162.3972
4845.057
11626.179
13946.836
11150.205
12853.269
11554.721
10496.614
9944.4895
7980.2079
7044.5415
5816.4043
4563.7207
4365.7238
4301.894
5316.4912
6988.7544
9472.6065
12546.865
15868.232
19237.016
22108.032
24037.728
24742.61
24263.143
20328.059
2864.0374
370.51509
5119.1198
16304.529
20382.049
13012.424
15851.399
14051.765
10343.775
11062.064
9222.7426
8208.0097
7381.0118
6604.7303
6852.8645
7321.6307
8763.5341
10718.804
13078.744
15818.813
18462.342
20712.646
22213.636
22713.326
22010.974
21126.06
18956.079
12658.322
15100.287
13816.62
9450.9413
5957.4704
3008.8996
945.69797
-144.95178
-591.45029
-278.91555
483.54933
1662.5887
2915.0225
4492.7379
6009.2692
7526.5681
8455.6623
9790.6965
11708.425
12222.913
13598.353
13772.317
14841.569
15202.73
16098.891
6826.1367
7660.6998
7969.248
6197.8414
5808.8248
5778.2153
15262.245
16029.451
15900.169
18248.906
18853.597
18864.833
5959.3394
4423.3741
5053.9163
4651.0567
4274.4059
4098.6205
3470.545
2783.1672
2279.8368
1927.6651
1888.0105
2222.8262
3196.1152
4801.3515
7076.601
9808.6856
12843.738
15684.061
18145.742
19608.582
20687.253
19757.463
18406.867
2286.076
1669.2661
2217.1278
1847.7744
2034.9167
2134.5554
1752.5956
2044.7219
1832.2305
1929.8373
2267.1118
2743.6666
3578.1103
4586.7412
5789.6298
7118.5611
8420.1156
9519.7191
10783.387
10838.029
11695.109
11761.791
13538.562
5680.7933
4975.87
4936.8475
4543.7968
4425.9352
4037.6907
3643.9829
3305.2301
2862.135
2597.3882
1975.6394
1296.3354
249.91413
-1040.8264
-2542.1527
-4084.6386
-5512.1088
-6206.4404
-6511.436
-4733.8792
-1697.8243
3141.9051
10944.216
1700.2297
2045.6823
2017.1531
414.80956
242.74085
622.21076
3057.4889
3014.1264
3176.4558
13812.234
14456.604
15210.34
18464.372
17255.936
16947.03
13519.728
12075.125
13370.79
14126.286
14641.141
14023.446
13168.243
11155.669
12562.709
11583.006
11354.041
11116.465
10810.115
9426.3188
10829.652
9287.6044
7516.807
8802.4737
7817.452
7116.1065
8067.1639
7221.9689
5731.8093
7048.2013
6368.5706
5432.9055
6521.0967
6581.6823
5482.0674
6800.052
7352.7193
6423.4417
7756.8671
9093.4938
8142.2196
9461.0402
11436.566
10500.298
11901.298
14330.503
13493.567
14769.592
17474.315
16659.518
17884.768
20519.955
19842.359
20932.999
23053.61
22485.105
23408.789
24618.695
24127.482
24920.903
24726.214
24605.172
25213.33
23676.66
23627.567
24233.969
20986.724
20818.224
21650.259
13923.215
14593.931
14695.207
12326.468
12655.277
12181.167
18718.04
19550.312
19364.661
14074.17
12569.408
13312.272
14934.992
13576.306
14514.153
14448.726
14023.758
14791.834
13403.606
12772.645
13636.208
12906.091
12623.023
13202.644
11972.974
11012.087
12341.884
10857.787
10736.397
11646.053
10220.865
9401.9803
10447.602
8798.1817
8743.6277
9296.511
7602.7811
6919.6994
8383.2981
6225.938
5956.0196
6888.0919
4854.2579
4239.0853
5606.4055
3068.4725
2778.2662
4099.9465
1420.7617
1099.367
2528.0107
-333.32961
-563.02282
1015.7408
-1861.5168
-1961.6054
-347.44337
-2921.1307
-2967.6715
-1262.8924
-3188.5361
-3134.076
-1572.0935
-2564.1351
-2635.5357
-918.48846
-539.22643
-948.3955
637.84357
3036.0464
2451.9769
3612.6998
6195.1225
6478.3793
6917.7337
12460.995
12671.286
12981.828
9004.4588
9047.0178
8512.1673
8251.0467
8569.3718
7016.34
6859.7633
5764.6054
4783.0535
3906.1901
3880.2659
3830.0569
4341.4152
5624.1557
7471.3446
9784.2852
12322.582
14779.382
16845.948
18486.77
19305.52
19195.37
20154.969
1028.7442
4318.903
1630.371
3460.2797
3090.4044
3220.5535
3705.745
3583.059
4111.8936
3959.9931
4443.53
4633.6571
4819.927
5092.2411
5135.2394
5029.2883
4832.72
4623.6901
4584.842
4951.5277
5788.1159
7082.665
12311.413
7105.9904
3756.3007
5239.969
4753.1039
4472.5649
4138.9242
3557.5413
3458.7695
2540.5492
2443.4926
1716.7861
809.23935
-429.68378
-1940.6613
-3637.6933
-5226.977
-6467.0361
-6976.4371
-6333.7564
-4140.9273
-440.60551
5154.4603
12242.776
7104.0883
6570.9686
6724.0818
6859.616
7178.9941
7211.4289
7004.2682
7215.578
7122.5668
6308.6409
6306.199
6324.0304
6329.7798
6603.2411
6789.3977
5706.3435
5716.477
5639.7747
5085.3386
5225.2024
5291.3927
4375.1091
4478.9812
4593.5977
3802.8671
3663.1669
3822.562
3288.4146
3309.8965
3353.7397
3128.5418
3024.4595
3063.0029
3389.6532
3340.0699
3498.9044
4339.5427
4231.6991
4349.886
5881.8951
5777.7964
5910.5533
8075.4644
7976.195
8125.5194
10691.372
10710.562
10801.996
13588.345
13657.826
13672.423
16241.267
16501.459
16408.347
18538.255
18735.162
18764.967
19342.489
21028.375
20171.624
20079.102
21309.845
20769.644
19838.326
20108.887
20135.883
18905.885
19329.026
19654.014
1561.2776
1359.323
992.91327
2910.0308
3897.9936
3741.0309
1899.3251
1339.6425
1255.0697
2157.644
2894.3268
2867.1557
2407.4231
2266.4508
2171.6237
2370.4339
2303.4244
2343.2614
2255.611
2456.4993
2554.5375
2611.8064
2363.2413
2333.1603
2447.1068
2525.1266
2731.2624
2821.1542
2755.9805
2784.5571
3083.2828
2995.7029
3075.7233
3456.5448
3526.9361
3503.0793
4042.3372
4141.824
3901.0976
4617.3509
4791.4193
4440.4179
5275.8694
5524.1985
4987.5323
5910.0715
6156.2498
5498.9008
6468.9189
6711.0189
5961.0664
6976.7027
7120.3929
6420.6084
7635.5967
7633.6249
6925.8652
7878.1501
8169.1399
7392.633
8565.5347
9216.2412
8806.92
9377.7103
9435.1559
9234.163
12339.456
12358.107
12340.987
5801.1283
5816.9691
6270.3966
4803.6802
4612.1462
5266.8442
5014.3093
6228.7509
6085.9711
4982.0931
5079.7364
5400.2936
4515.444
5283.623
5386.8186
4135.9933
4589.4271
4889.3623
3981.035
4102.325
4305.1941
3316.0755
3768.9025
4407.4293
3170.6947
3421.4652
3778.7486
2817.9632
2920.6412
3409.4295
2253.1742
2303.2557
2848.53
1664.2745
1417.8883
2045.3733
628.62794
172.88068
930.1514
-593.5404
-1333.2773
-422.82018
-2030.5624
-2997
-1973.5944
-3488.9383
-4695.0017
-3500.1428
-4733.3882
-6004.3646
-4765.1693
-5384.837
-6782.8707
-5403.8589
-5263.7462
-6277.2748
-5088.2708
-3329.1308
-4695.7255
-3500.6364
-769.37911
-1045.1265
-109.57992
4200.3422
4159.6012
5036.6625
11513.408
11275.575
11917.491
)
;

boundaryField
{
    free
    {
        type            zeroGradient;
    }
    fixed
    {
        type            zeroGradient;
    }
    freeTop
    {
        type            zeroGradient;
    }
}


// ************************************************************************* //
