/*--------------------------------*- C++ -*----------------------------------*\
  =========                 |
  \\      /  F ield         | OpenFOAM: The Open Source CFD Toolbox
   \\    /   O peration     | Website:  https://openfoam.org
    \\  /    A nd           | Version:  6
     \\/     M anipulation  |
\*---------------------------------------------------------------------------*/
FoamFile
{
    version     2.0;
    format      ascii;
    class       pointVectorField;
    location    "0.93";
    object      lm;
}
// * * * * * * * * * * * * * * * * * * * * * * * * * * * * * * * * * * * * * //

dimensions      [1 -2 -1 0 0 0 0];

internalField   nonuniform List<vector> 
625
(
(0 0 0)
(0 0 0)
(-1111.632 718.22575 238.47744)
(-673.22177 1215.9765 206.79914)
(0 0 0)
(0 0 0)
(-650.81198 1168.9087 208.203)
(-1086.563 673.32507 235.67602)
(0 0 0)
(0 0 0)
(0 0 0)
(-999.91191 843.36443 231.67629)
(-890.86702 965.25911 223.72326)
(-784.11417 1090.1184 214.8864)
(15.930207 23.894676 20.74067)
(28.999986 44.719728 31.263383)
(49.695023 58.412917 43.843832)
(75.176525 68.342627 56.003545)
(103.51203 70.947524 68.833831)
(133.39916 66.554152 80.010507)
(161.0991 56.782341 89.371273)
(184.76391 41.119163 96.640013)
(200.37191 22.36913 102.44333)
(205.47404 1.5276021 106.76341)
(197.13442 -17.926046 109.98064)
(172.95771 -33.365438 113.01746)
(131.34356 -41.455509 116.69457)
(71.700125 -39.286197 121.29684)
(-5.7821849 -24.1021 127.49677)
(-99.840461 5.848962 135.51586)
(-208.02152 52.147029 145.16137)
(-328.24935 114.16161 156.91586)
(-456.18293 191.57555 169.7933)
(-588.82089 282.89417 184.10764)
(-724.16873 384.33067 198.69709)
(-857.26212 492.31918 213.00458)
(-986.96681 606.63309 226.24675)
(-7.4141557 -0.6206567 -8.8617322)
(2.757463 -1.1896743 -3.8611148)
(19.290477 -6.0081725 0.9714007)
(40.804713 -8.8160463 9.5941576)
(64.457949 -10.843868 18.669083)
(92.820521 -16.148677 28.801796)
(120.37702 -16.345192 38.837643)
(149.95008 -15.844774 49.765475)
(176.21036 -9.2313251 61.10987)
(200.22454 3.4393792 73.080971)
(217.56924 25.001853 85.096839)
(226.99093 57.793014 97.504)
(226.04345 102.09634 110.00174)
(212.16708 160.04414 122.07578)
(184.13245 231.49935 133.88163)
(140.41272 315.95872 144.76877)
(80.586422 412.41209 154.8906)
(4.9659887 519.03306 163.72519)
(-85.466052 632.74125 171.77413)
(-188.87072 751.67674 178.68576)
(-302.55255 871.6991 185.33867)
(-423.27047 990.77014 191.71332)
(-548.83668 1105.9376 198.84674)
(0 0 0)
(0 0 0)
(0 0 0)
(9.6515022 -10.029106 8.2894393)
(25.345794 -35.351976 9.4866393)
(49.344438 -41.402223 8.2019404)
(73.78637 -52.684125 8.9136494)
(103.32819 -66.697738 12.72526)
(134.04408 -69.305853 13.587321)
(167.10284 -77.368916 15.790822)
(196.821 -76.272297 16.806957)
(225.88541 -72.930501 18.280686)
(249.80815 -60.96908 20.393164)
(266.81049 -39.315788 22.975406)
(274.71418 -7.6940717 27.896099)
(271.1957 38.132111 34.621676)
(254.47493 96.651676 44.057629)
(223.14479 170.0095 56.111964)
(176.1369 256.73244 70.599165)
(113.2428 355.63873 87.300159)
(34.86085 464.81494 105.49764)
(-57.913759 581.15349 124.58289)
(-163.1233 701.75402 143.80491)
(-278.25469 823.30581 162.30725)
(-400.25284 942.80684 179.51413)
(-525.7093 1058.0684 194.25347)
(-761.57074 1042.3319 215.27309)
(-865.97264 918.00376 220.99775)
(-975.08331 798.47633 227.41813)
(-962.35861 562.06216 226.96511)
(-832.36757 447.03908 219.5893)
(-697.88743 335.90088 214.4055)
(-561.94212 231.76155 210.13495)
(-427.21593 137.81652 206.13503)
(-297.07514 57.077931 201.82123)
(-175.0979 -7.840292 196.7987)
(-64.499254 -56.352535 190.88238)
(31.876728 -88.058017 183.83929)
(111.69961 -104.16566 175.70129)
(173.65716 -106.64778 166.52782)
(217.14911 -98.031524 156.29811)
(242.51446 -81.806322 145.12142)
(251.65609 -60.395949 132.94832)
(245.60877 -38.786787 120.07108)
(228.30134 -16.241345 105.44794)
(201.24017 2.294966 90.293941)
(168.64304 16.25091 74.601723)
(133.94828 25.278552 56.79052)
(97.02586 29.429731 40.195977)
(64.240644 28.591705 22.323263)
(34.071905 21.416644 7.6560786)
(14.6607 12.712934 -5.3899095)
(0 0 0)
(0 0 0)
(0 0 0)
(0 0 0)
(0 0 0)
(0 0 0)
(-665.77579 1205.251 207.70087)
(-660.36241 1194.5655 207.36975)
(-653.973 1182.3912 207.76221)
(-1107.2391 706.46664 237.27897)
(-1101.2127 695.77827 237.16905)
(-1094.2523 684.20098 236.42246)
(6.411577 16.761255 19.208347)
(20.817586 33.165342 23.96141)
(41.606433 43.347382 34.067022)
(65.887572 49.654951 44.806067)
(94.733566 49.591885 55.62099)
(124.25739 44.079487 65.717951)
(153.04904 34.794244 74.601684)
(178.65146 21.30416 82.63488)
(197.95501 7.2207361 89.249432)
(208.34732 -6.7089981 95.224305)
(207.38809 -17.111447 100.69504)
(192.47751 -21.347492 106.39696)
(162.00776 -16.576924 112.47811)
(114.66222 -0.096184784 119.56387)
(50.326981 29.929631 127.7575)
(-30.559455 75.162099 137.08486)
(-126.42166 135.54344 147.62047)
(-235.55116 210.75174 159.23053)
(-354.58648 299.6063 171.07115)
(-481.59001 398.94688 183.90492)
(-611.89078 506.70673 196.39853)
(-743.55239 618.2864 208.13768)
(-874.48002 733.12472 220.01795)
(-0.78014841 11.051403 11.256159)
(12.968087 20.828229 15.128476)
(31.894697 27.226353 25.211349)
(56.568898 32.136314 34.547691)
(84.787627 30.183818 45.046512)
(114.52369 26.551902 55.166101)
(144.57686 19.775619 64.82329)
(171.99573 11.281553 74.037115)
(194.8949 4.0025803 82.195811)
(210.78574 -1.7558877 90.253385)
(216.45415 -1.9007461 98.037916)
(210.24728 5.0233275 105.66219)
(189.4855 21.968271 113.69886)
(153.18372 51.132607 122.08961)
(100.26242 93.766838 130.98265)
(30.948873 151.04562 140.36585)
(-53.969839 222.59502 150.29312)
(-153.14049 307.88755 160.3681)
(-263.64395 404.64737 170.73553)
(-383.65161 510.59083 181.60343)
(-509.17954 623.03316 191.41863)
(-637.78489 738.36859 202.57364)
(-767.43495 855.18033 212.78901)
(-6.3095342 5.379397 2.9429177)
(6.5630145 10.612265 6.8748102)
(24.611798 15.041009 13.980006)
(48.933782 15.648309 22.459722)
(76.542963 13.052204 31.841835)
(106.29081 11.237631 41.524081)
(137.05 5.642393 51.58604)
(166.23459 2.8260966 60.743465)
(192.83008 1.165768 70.446147)
(213.08309 3.6914551 80.063476)
(225.27021 13.326571 89.578453)
(226.64894 30.946748 99.542369)
(215.00529 60.161763 109.61103)
(188.74614 101.70152 119.94498)
(146.47549 157.04902 130.41877)
(88.151629 226.68885 140.85807)
(13.604235 309.80572 151.18811)
(-75.420815 405.29495 161.1604)
(-177.67385 510.89293 170.8993)
(-290.18046 624.32255 179.92911)
(-410.32201 741.62342 189.21001)
(-534.69141 861.19726 197.82718)
(-660.44461 978.5555 206.74837)
(0 0 0)
(0 0 0)
(0 0 0)
(0 0 0)
(0 0 0)
(0 0 0)
(0 0 0)
(0 0 0)
(0 0 0)
(0.68471486 -0.90693669 -6.9938088)
(6.1020089 -4.8855415 -5.1144438)
(9.6590608 -6.0433654 -0.78416896)
(13.157964 -13.417508 -3.9342164)
(19.330197 -21.565136 -1.565647)
(23.617339 -27.859916 3.4098408)
(29.982306 -17.003185 0.66590204)
(37.746361 -25.98274 1.8565745)
(44.632061 -38.594986 5.2517234)
(49.432636 -20.863936 8.3095981)
(58.81732 -34.39577 7.7620946)
(66.038097 -44.889059 8.2579603)
(75.062677 -28.248211 15.607898)
(83.988605 -41.845852 13.566178)
(93.120053 -56.710137 12.813596)
(100.51266 -30.400305 24.058801)
(110.83834 -44.67878 20.128279)
(121.6032 -59.791449 16.854883)
(129.18173 -33.14499 32.296888)
(138.66855 -48.866209 26.263692)
(150.28766 -65.958302 20.286326)
(155.68431 -30.305307 40.776633)
(167.55356 -45.856611 32.847411)
(179.02921 -63.423795 24.360778)
(181.65887 -24.169997 50.05201)
(192.38306 -39.507303 39.804377)
(204.92497 -57.236266 28.01747)
(203.64818 -10.043246 59.38024)
(214.38496 -24.48023 46.625451)
(227.64627 -43.789706 32.249882)
(219.504 13.868999 69.164536)
(230.112 -1.072336 54.410652)
(243.43178 -19.889491 37.164654)
(227.79324 47.17902 79.695441)
(237.64729 33.233425 62.91096)
(251.17168 14.320288 43.684719)
(225.55254 93.91527 90.636127)
(234.93985 80.517288 72.525681)
(248.20391 61.579554 51.852187)
(211.25584 153.11525 102.10689)
(219.77094 139.99865 83.278114)
(232.74624 121.79804 61.861858)
(183.04586 225.72417 113.88034)
(190.79855 213.3553 94.985321)
(203.32029 195.65726 73.935706)
(139.7267 311.13082 125.65774)
(146.71971 299.11893 107.59454)
(158.60399 282.42029 87.627123)
(80.751456 407.90734 137.34392)
(87.01906 396.33833 120.79258)
(98.315816 380.59018 102.78193)
(6.3557375 514.30094 148.54243)
(12.122485 502.99929 134.18603)
(22.55729 488.26677 118.83714)
(-82.743796 627.57136 159.3012)
(-77.428958 616.40501 147.56936)
(-67.683488 602.76097 135.27116)
(-184.5241 745.11049 169.29641)
(-179.38109 733.98092 160.58138)
(-170.62508 721.12544 151.63308)
(-296.96573 863.86676 178.92574)
(-291.95058 852.81645 173.20435)
(-283.91738 840.53466 167.20925)
(-416.90151 981.51611 188.28552)
(-411.70108 969.92849 184.97251)
(-404.60718 958.07109 181.86252)
(-541.64513 1095.2382 197.86293)
(-535.94893 1083.9054 196.66265)
(-529.92689 1072.1739 195.17466)
(-995.32499 832.18533 230.18672)
(-989.54458 821.52699 229.25257)
(-982.48086 809.46816 228.44113)
(-885.37998 953.7146 222.61481)
(-879.1996 942.97804 222.08902)
(-873.13025 930.22259 221.78938)
(-776.83666 1079.5248 214.79619)
(-771.40102 1068.8542 215.1231)
(-765.51788 1055.9237 214.98099)
(20.953479 16.726589 11.262205)
(19.233414 16.084306 6.6885433)
(19.125671 16.979495 0.94703184)
(32.790499 34.325028 23.38728)
(35.431245 31.767669 16.29249)
(37.271183 30.03722 11.041276)
(56.562787 47.426191 36.272537)
(60.689771 41.612739 30.962346)
(63.419159 38.601859 26.383576)
(81.335295 55.741866 49.651533)
(87.502007 48.244459 45.35495)
(93.424512 42.149635 42.445364)
(111.61294 56.845963 63.847516)
(120.16927 47.621602 60.942071)
(127.29431 38.940736 58.808954)
(141.58072 52.88396 76.404101)
(150.58508 41.575775 74.736776)
(159.91545 31.689029 74.650363)
(169.50998 43.013162 87.480316)
(179.71426 31.023614 87.564197)
(189.46325 18.578003 88.934283)
(192.8593 28.610873 96.914716)
(203.11954 14.690193 98.917336)
(214.21978 1.3786232 102.34888)
(207.91411 9.9213207 104.62721)
(218.33681 -3.4442222 109.21726)
(229.66399 -18.484318 114.83528)
(211.98363 -8.64283 111.79872)
(221.86396 -24.458314 117.79893)
(233.60766 -39.454308 125.5746)
(202.3732 -26.919744 117.07338)
(211.96871 -42.239886 125.65276)
(223.45436 -58.640886 135.72872)
(176.76352 -40.973736 122.62865)
(185.63567 -56.92949 133.02883)
(196.92484 -73.801908 145.33461)
(133.78889 -48.004212 128.24102)
(141.86537 -64.006383 140.21711)
(152.78902 -81.195512 154.214)
(72.778696 -44.879926 134.45269)
(80.142303 -60.899079 147.47357)
(90.667365 -78.178794 162.68776)
(-5.7493803 -29.21649 141.6779)
(1.0418637 -45.04769 155.00421)
(11.043745 -62.227557 170.73393)
(-100.39161 0.98587507 149.70924)
(-94.160451 -14.506976 162.86313)
(-84.707716 -31.316668 178.32398)
(-209.09378 46.80503 159.01299)
(-203.12201 31.825524 171.20064)
(-194.2141 15.585065 185.43221)
(-328.74635 108.19771 169.19453)
(-323.02691 94.149999 179.62853)
(-314.68599 78.5445 192.20485)
(-456.36618 184.73548 179.88473)
(-450.8139 171.29614 188.70531)
(-442.87731 156.39577 198.63481)
(-588.21939 274.74811 191.20381)
(-582.68044 262.15897 197.8605)
(-575.36999 248.14408 204.95433)
(-721.54874 374.58448 203.43468)
(-716.01952 362.59255 207.34979)
(-708.9217 349.59019 211.48072)
(-853.50042 482.25579 214.78857)
(-847.67587 470.81426 216.93954)
(-840.97023 458.84986 218.59001)
(-982.44182 595.44747 226.28709)
(-976.49534 584.42413 227.13197)
(-969.65263 573.00123 227.12406)
(6.5122658 1.6736756 -1.1146667)
(29.909119 6.1584296 9.6643063)
(56.201496 5.8267403 21.916332)
(88.944923 4.9206456 33.884071)
(123.88348 -1.7075409 48.358974)
(158.10832 -10.932963 61.047219)
(192.0902 -23.855862 73.736189)
(219.81033 -39.409856 85.723438)
(241.32072 -55.804032 96.456235)
(252.74859 -71.185249 106.98313)
(251.2169 -82.669365 116.41261)
(235.21711 -87.728424 125.7766)
(203.13539 -82.946212 134.5649)
(153.74046 -66.018681 143.19399)
(87.380974 -34.753021 151.70097)
(4.5677247 12.380011 159.94551)
(-93.223687 75.425527 168.08704)
(-203.77869 153.83222 176.09634)
(-324.48913 245.82995 184.09322)
(-452.65471 348.64654 192.03055)
(-584.53917 458.90337 200.48089)
(-717.46594 573.46813 209.42554)
(-849.80781 688.14396 218.00406)
(5.2545194 0.3233818 2.7773934)
(27.040237 -2.6448278 9.0758327)
(53.086039 -6.5718351 16.916984)
(85.284965 -10.127894 26.556464)
(118.69449 -18.484702 35.593442)
(154.08993 -25.874491 44.801372)
(188.17642 -37.155015 53.712819)
(218.66389 -47.783614 61.737893)
(243.70084 -58.146464 69.74176)
(259.92231 -65.149112 76.965003)
(265.01949 -67.025959 84.557834)
(257.01026 -61.093058 92.477522)
(233.71888 -43.959865 100.77699)
(194.14773 -14.719053 109.99188)
(137.97842 29.543394 119.86623)
(65.231799 88.671018 130.48824)
(-22.768776 163.06946 141.66721)
(-124.43233 251.28258 153.23167)
(-237.39857 351.32308 164.89251)
(-358.80586 460.41805 176.52691)
(-485.63208 575.0058 188.24236)
(-614.65223 691.94708 198.90842)
(-744.13083 809.62403 210.42014)
(2.62228 -3.5682589 5.6474474)
(26.641791 -6.2006501 8.4560789)
(51.283177 -19.518406 15.509649)
(81.137986 -22.144295 19.184652)
(114.62978 -33.260043 25.495544)
(147.71178 -41.133771 31.999939)
(182.80222 -48.786683 36.542196)
(214.27801 -57.392313 42.198751)
(241.88851 -60.054082 46.46608)
(262.13532 -60.493447 51.359368)
(273.01947 -52.54136 56.402164)
(272.11516 -35.734232 62.282534)
(257.29564 -6.9907947 69.430254)
(227.62187 35.204492 77.902852)
(181.73729 91.923801 88.145319)
(119.93593 163.70442 99.795835)
(42.590342 249.61456 112.97718)
(-49.008278 348.23273 127.17852)
(-152.91167 457.04785 142.16869)
(-266.72105 573.16512 157.50784)
(-387.54262 692.90538 172.60158)
(-511.99459 813.75922 187.85635)
(-637.59465 931.62482 201.22312)
(9.194236 6.2501838 9.6605676)
(9.2903874 6.1441333 6.5321405)
(10.010495 4.5316841 1.0651501)
(26.099065 23.779708 18.243881)
(29.566045 19.884359 14.178022)
(30.633736 15.620347 10.781308)
(47.401493 31.591485 28.694866)
(52.308731 24.348561 26.129186)
(55.03049 17.331147 23.590549)
(72.670431 36.23743 40.838894)
(79.168026 27.998171 38.635314)
(84.576758 18.146889 35.668222)
(101.84351 35.417121 52.130553)
(110.44083 24.530291 50.571437)
(117.41912 13.445068 49.04749)
(131.72239 30.000577 63.647466)
(140.80437 18.429168 63.045362)
(148.85545 5.2836275 61.713257)
(160.35047 20.93124 73.753444)
(170.32916 7.8651477 74.02239)
(180.34294 -6.1138439 73.749631)
(185.38377 8.6889261 82.935431)
(195.91336 -5.1984214 84.049371)
(206.46147 -20.232039 84.579273)
(204.14527 -4.6031588 91.134426)
(214.25224 -18.946469 93.496762)
(225.71966 -34.791576 94.989844)
(213.41631 -17.109756 98.31238)
(223.58377 -31.950901 101.57932)
(235.4502 -48.59852 104.22705)
(211.32116 -26.479282 105.29727)
(220.7618 -41.340189 109.69979)
(233.07692 -58.149771 113.27773)
(195.08088 -29.550774 112.17347)
(203.96198 -44.541672 117.15499)
(216.18581 -62.066127 121.8858)
(163.39608 -23.841807 119.23001)
(171.45838 -38.721704 125.05203)
(183.60571 -56.260918 130.42665)
(114.96155 -6.8668132 127.06026)
(122.3414 -21.376453 133.12699)
(134.26866 -39.009967 138.93293)
(49.803262 23.58877 135.46424)
(56.647475 9.3553298 141.51325)
(68.094502 -8.0697328 147.54541)
(-31.421332 68.574175 144.72729)
(-25.13343 54.900119 150.48969)
(-14.140931 37.963623 156.25411)
(-127.51282 128.65056 154.73512)
(-121.35118 115.65524 159.76104)
(-110.97655 99.20995 164.91553)
(-235.97458 203.31579 165.3126)
(-230.07052 190.90924 169.26154)
(-220.44355 175.31932 173.68002)
(-354.61012 291.24388 176.10965)
(-348.49334 279.592 179.27193)
(-339.57595 264.51229 182.3524)
(-480.08368 389.53821 187.45884)
(-474.49391 378.68653 188.91423)
(-465.95208 364.69683 191.10808)
(-608.88979 496.18136 198.64213)
(-603.7506 485.63958 198.66549)
(-595.99767 472.42618 200.2838)
(-739.85226 607.94008 209.33999)
(-733.88137 597.31418 209.36984)
(-726.87468 584.73919 209.42617)
(-870.13189 721.51281 219.84386)
(-863.92987 710.94337 219.45444)
(-857.42302 698.94211 218.7381)
(2.947952 4.1960977 4.6684115)
(4.9698829 3.3719405 1.8203349)
(6.9726238 1.7223644 1.5076201)
(18.848072 12.86473 10.82233)
(23.193034 8.7035033 8.7198679)
(24.888854 2.9155322 8.0324116)
(39.723236 16.620298 21.364757)
(44.862832 9.1007096 19.508363)
(49.336344 1.1854041 17.403524)
(63.997454 18.850634 30.495014)
(71.822087 9.7034806 28.186045)
(77.696158 -1.6846701 26.568036)
(93.283088 16.476562 41.709571)
(101.9032 4.8476712 39.387894)
(108.99796 -7.2031263 36.795907)
(122.90482 12.230656 52.169666)
(131.96195 -0.044934237 49.162969)
(141.44765 -14.481216 46.701609)
(152.40016 5.8443696 61.612021)
(162.77479 -8.0839434 58.559907)
(172.55165 -23.459002 55.228491)
(179.89421 -2.357913 71.531721)
(189.79309 -16.487534 67.726524)
(201.14253 -32.483105 64.626108)
(201.7433 -8.737786 79.533284)
(211.73187 -23.375948 75.543718)
(223.73829 -40.994836 72.018705)
(216.74511 -13.449447 87.980327)
(226.2062 -28.350195 83.846804)
(238.85306 -46.251041 80.089946)
(221.14044 -12.520081 95.973967)
(230.07217 -27.473493 91.364287)
(242.96995 -45.883874 87.56371)
(213.60765 -4.4045634 103.84431)
(221.80085 -19.169438 99.206792)
(234.83433 -38.137797 95.667966)
(191.62285 13.594951 112.28647)
(199.11054 -0.88339079 107.72637)
(211.9251 -19.822556 104.15627)
(154.1133 43.613568 120.93008)
(160.87327 29.477662 116.28477)
(173.47115 10.608553 113.16261)
(100.44311 86.964933 130.20355)
(106.68988 73.387992 125.85634)
(118.74573 54.85695 123.09542)
(30.598155 144.58168 139.86162)
(36.388892 131.50708 135.73688)
(47.957497 113.66335 133.44015)
(-54.441617 216.31956 149.97091)
(-48.732179 203.90894 146.19117)
(-38.005257 186.74957 144.34096)
(-153.04514 301.31664 160.29163)
(-147.55656 289.35771 156.85461)
(-137.44104 273.32582 155.60907)
(-263.31079 397.54468 170.65776)
(-257.44333 386.3291 167.89153)
(-248.27793 371.10985 166.79811)
(-382.24962 502.85697 181.56961)
(-375.71949 491.94342 178.64965)
(-367.67058 478.03886 178.12461)
(-506.97841 614.7926 190.97239)
(-499.66715 603.08953 189.71019)
(-492.79203 590.70072 189.45559)
(-633.91171 728.95976 202.17287)
(-627.81452 717.89448 200.3796)
(-620.91086 705.37467 200.2071)
(-762.10792 844.48247 212.56509)
(-755.92912 833.89674 211.57689)
(-749.8938 821.52741 211.15166)
(0.18420349 0.72725966 0.23766063)
(1.6959588 -0.6725376 0.80999981)
(3.4536304 -0.82923095 2.1223443)
(15.835711 3.9257243 4.671562)
(20.607434 1.492698 5.4470573)
(24.633936 -3.7236829 5.9177062)
(33.966091 4.2853592 11.430656)
(40.682972 -6.5762796 11.466137)
(47.215887 -12.53625 12.296451)
(58.473429 1.7227946 19.169361)
(65.86123 -6.9395615 18.694447)
(74.235 -16.433698 18.370081)
(85.612262 -0.6641438 28.900954)
(95.19718 -14.225066 27.411754)
(104.79696 -24.242311 25.315659)
(114.94173 -4.8422375 37.199079)
(123.95641 -18.316518 34.417539)
(135.53551 -30.859698 32.037306)
(144.92695 -9.6949997 46.899959)
(155.11551 -24.704468 42.651385)
(167.76211 -37.425933 38.984242)
(173.06949 -12.4853 54.851961)
(183.05839 -28.394779 49.620534)
(196.80219 -42.942593 44.592957)
(197.99771 -13.58514 63.530388)
(208.14401 -29.346858 56.89404)
(222.63732 -45.124047 50.821709)
(216.68185 -9.6308571 72.13615)
(226.509 -26.443876 64.096738)
(241.48571 -42.232786 56.659275)
(227.20376 0.92558978 80.598719)
(236.55702 -15.155086 71.465656)
(251.60927 -32.216313 62.980223)
(227.0298 20.33048 89.848364)
(235.9476 4.2746062 79.74704)
(250.72128 -13.092218 70.208918)
(214.08537 51.044569 99.387055)
(222.33381 35.247318 88.506715)
(236.53767 17.602934 78.382038)
(186.96228 93.969636 109.56005)
(194.72071 78.98538 98.397919)
(208.08285 61.291184 87.864904)
(144.37432 150.72864 120.25821)
(151.596 136.25884 109.12454)
(163.98165 118.69573 98.672849)
(86.130183 221.24538 131.27322)
(93.048884 207.47811 120.60854)
(104.17644 190.4661 110.55648)
(12.436999 304.90861 142.54991)
(19.0175 291.98047 132.68499)
(29.015946 275.53468 123.5308)
(-75.576657 400.55531 153.71948)
(-69.07637 388.11529 145.0889)
(-60.379487 372.58883 137.05892)
(-176.22825 505.81945 164.76257)
(-169.90507 494.11957 157.55678)
(-162.2157 479.38563 150.87683)
(-287.12746 618.13139 175.43224)
(-280.79147 606.7109 169.78183)
(-274.2831 592.88875 164.73195)
(-405.89222 734.75918 185.89689)
(-399.45507 723.56712 181.59946)
(-393.8182 710.52428 178.21455)
(-528.81601 852.53172 195.87256)
(-522.74711 841.57725 193.15249)
(-517.28987 828.81548 191.24677)
(-653.5594 968.76605 205.94598)
(-647.432 957.55317 204.48335)
(-642.38392 944.9647 203.21989)
)
;

boundaryField
{
    free
    {
        type            zeroGradient;
    }
    fixed
    {
        type            fixedValue;
        value           uniform (0 0 0);
    }
    traction
    {
        type            zeroGradient;
    }
}


// ************************************************************************* //
