/*--------------------------------*- C++ -*----------------------------------*\
  =========                 |
  \\      /  F ield         | OpenFOAM: The Open Source CFD Toolbox
   \\    /   O peration     | Website:  https://openfoam.org
    \\  /    A nd           | Version:  6
     \\/     M anipulation  |
\*---------------------------------------------------------------------------*/
FoamFile
{
    version     2.0;
    format      ascii;
    class       pointScalarField;
    location    "1.63";
    object      p;
}
// * * * * * * * * * * * * * * * * * * * * * * * * * * * * * * * * * * * * * //

dimensions      [1 -1 -2 0 0 0 0];

internalField   nonuniform List<scalar> 
28033
(
142427.11
-182194.87
4910.6903
653.00254
261571.7
-246645.12
1965.2852
-881.29402
108170.67
94475.989
79892.611
64320.636
47421.708
34674.118
19016.946
5214.5033
-10472.84
-21514.545
-40992.004
-49894.174
-68478.66
-89631.404
-87735.473
-16081.788
-9814.3067
-10443.399
-7008.2338
-6405.7775
-4400.0985
-2363.0353
-155.99745
1817.219
4153.9786
6536.989
7900.109
9750.9731
10877.294
9659.0414
31488.884
34928.933
29030.46
31421.891
28257.668
29692.865
27807.157
27386.434
26169.467
25787.875
23694.529
23051.028
21684.788
20872.82
19023.781
18036.803
16917.281
15630.975
14591.241
13480.205
12462.786
11325.67
10904.361
9789.1753
9157.8318
8568.9166
8051.9897
7465.3596
7106.4026
6635.4013
6443.6141
6040.2206
5901.0001
5686.6126
5732.0019
5448.1678
5743.1778
5980.9587
5745.632
6356.2053
6478.3538
6696.7349
7241.8196
7945.3261
8550.1972
9529.6768
10427.725
11648.842
12833.266
14356.509
15830.371
17609.609
19405.793
21388.447
23459.116
25612.327
27871.168
30143.792
32465.258
34804.727
37097.808
39359.158
41511.713
43680.563
45668.867
47386.444
49163.06
50757.703
51874.393
52906.012
53762.068
54455.652
54606.079
54791.23
54322.272
54135.466
52920.177
52265.484
50572.37
49362.428
47208.031
45581.887
42996.938
40388.023
37730.811
34723.367
31989.864
29208.816
25144.718
22713.673
20080.453
15009.119
15568.612
13840.487
10790.925
-34312.054
-25087.694
-28747.917
-23219.543
-25787.411
-23775.201
-23674.087
-21626.533
-21469.183
-19192.406
-18937.008
-16826.477
-15983.81
-14565.536
-13411.992
-11965.988
-10989.122
-9574.7736
-8519.9413
-7610.7272
-6385.4169
-5666.7279
-4525.4914
-4101.7923
-2870.432
-2641.8073
-1695.0561
-1367.3616
-803.98817
-577.11177
-43.552915
-91.104567
304.85635
238.5556
227.32222
89.824056
-8.5400476
-293.06618
-627.91493
-997.05518
-1612.2941
-2091.749
-2906.0278
-3646.5249
-4627.2376
-5652.9765
-6862.4264
-8144.2432
-9606.8652
-11167.351
-12870.618
-14684.934
-16619.118
-18668.774
-20779.675
-22994.037
-25252.466
-27538.859
-29846.548
-32144.518
-34391.625
-36585.059
-38687.12
-40662.105
-42498.664
-44159.743
-45745.468
-47057.596
-48267.059
-48812.759
-49804.941
-49933.202
-50291.034
-50135.184
-49906.179
-49328.799
-48552.509
-47607.303
-46341.191
-44923.341
-43303.675
-41468.94
-39394.218
-37297.61
-34859.657
-32358.148
-29741.074
-27062.618
-24017.801
-21397.753
-18577.278
-15511.698
-13031.464
-11718.949
-8672.993
202219.49
189727.01
133599.21
137132.94
97108.262
64781.116
47485.556
14437.258
-8331.2187
-39347.821
-60884.184
-90207.229
-121632.11
-148538.1
-166478.14
-51547.852
-37601.647
-17516.114
-32075.427
-25517.186
-26042.421
-25075.801
-23888.907
-23761.856
-21925.31
-21329.182
-18373.864
-18889.9
-15357.542
-16714.878
-13992.102
-14898.082
-10857.152
-11839.055
-8671.1919
-8617.6136
-7171.108
-7117.947
-6302.2121
-4755.3796
-4825.4902
-4278.8558
-4037.2801
-3558.5781
-3623.7512
-2379.4309
-2976.4232
-2123.1049
-2599.818
-2120.583
-2422.3456
-2260.1875
-2509.3586
-2597.1028
-2918.8541
-3183.7187
-3644.841
-4165.9586
-4795.362
-5516.6914
-6459.6736
-7388.1039
-8589.6771
-9830.1688
-11280.631
-12840.232
-14568.445
-16394.252
-18397.831
-20482.527
-22651.314
-24963.817
-27280.905
-29657.47
-32070.948
-34450.636
-36813.209
-39095.599
-41312.414
-43406.561
-45381.503
-47347.196
-49256.591
-48115.778
-51764.269
-52289.175
-52958.221
-53461.338
-53602.77
-53481.091
-53139.887
-52462.179
-51603.764
-50392.176
-48931.196
-47222.446
-45287.563
-43004
-40663.336
-37986.771
-35183.315
-32178.776
-29154.75
-25860.378
-22723.606
-19539.906
-16389.856
-14345.72
-11807.258
-10694.626
12460.534
13141.641
9386.7
10365.7
5714.8331
5835.1914
1664.068
133.43141
-2752.6215
-5122.5886
-5262.2764
-9102.9893
-8921.5121
-13884.776
-11773.417
19865.934
15503.785
15337.765
18009.771
19943.702
23099.06
25926.528
28994.462
31808.272
34788.824
37490.925
40058.876
42483.576
44859.06
47047.966
48915.614
50743.469
52195.324
53429.115
54511.847
55215.294
55781.426
56037.652
56071.845
55568.26
54856.735
53590.279
54412.406
51412.246
50634.845
48887.268
47012.478
44922.407
42799.123
40489.551
38111.776
35703.678
33228.169
30783.351
28358.585
25980.393
23667.596
21489.951
19364.298
17420.434
15563.334
13889.844
12327.647
10919.937
9667.1542
8539.0667
7511.3699
6666.8631
6110.9506
5308.0089
4701.4412
4298.173
4061.8827
3725.7877
3542.6779
3620.0357
3644.0933
3568.7142
3839.7692
3965.0853
4455.7818
4715.4181
5331.2135
5520.4256
6599.2486
7071.7238
7849.1152
8857.6578
9757.6118
10658.774
11719.452
12940.318
13695.307
15525.456
17049.392
18386.182
18136.858
19706.389
21699.001
24048.569
24213.99
25979.042
26094.455
27556.346
27956.623
28644.294
31274.634
31985.069
30440.282
44001.517
103515.46
115579.89
121802.55
126105.1
128115.46
131611.87
131532.43
133278.3
131750.12
129523.55
131816.31
124468.19
120257.01
125824.24
100950.35
-158094.87
-198553.56
-194934.12
-209358.51
-202693.51
-193905.79
-222224.24
-236072.8
-222701.61
-223507.88
-215851.83
-210144.27
-198281.92
-194839.52
-176078.7
243.92475
229.82546
1035.787
1457.1949
2598.4696
3280.8894
3541.7575
3619.259
3716.0491
3334.674
2993.7868
2110.9232
1620.2884
1059.294
1150.188
-2608.1072
260.13012
-560.11744
-1169.7489
-2014.5873
-2106.0059
-2614.9466
-2501.9483
-2273.8975
-2039.7339
-1082.9167
-410.18705
-83.446053
3455.4864
-1846.9398
32493.253
31091.211
26283.729
26301.608
26319.228
25974.302
25284.179
25285.773
24290.848
23299.075
22575.403
21836.228
20529.147
19360.727
18277.895
17626.593
16211.084
15265.328
14257.536
13318.118
12546.211
11854.953
10966.494
10197.505
9728.4601
9043.4602
8576.4256
8108.1688
7794.5785
7354.9941
7179.4797
6873.8615
6824.5143
6576.7904
6381.663
6583.5525
6501.5571
6406.0327
6788.7871
6983.8271
7345.1594
7782.7822
8242.435
8806.8323
9436.0395
10310.242
11124.751
12264.988
13360.276
14705.555
16081.132
17657.615
19267.095
21034.465
22851.177
24759.575
26705.379
28689.433
30695.293
32679.401
34626.617
36522.076
38351.7
40125.011
41529.599
43076.206
44277.567
45326.195
46242.105
47021.138
47471.204
47944.216
47881.937
48058.199
47526.008
47239.832
46202.995
45616.122
44021.866
43023.763
41198.822
39565.844
37636.18
35738.975
33234.058
30801.221
28465.439
25428.723
23024.623
20833.838
17065.948
15025.615
12887.649
6606.2807
1436.5251
30027.216
25263.982
21566.61
23038.645
21737.27
22029.262
21593.842
21286.983
20656.605
20561.822
19459.297
18948.636
18051.19
17504.516
16370.409
15609.771
14534.293
13960.754
12870.467
12157.621
11329.665
10444.704
9799.7081
9229.9499
8680.6599
8046.5758
7707.8391
7227.542
6903.945
6564.3489
6328.7425
6042.1679
5890.2338
5743.2697
5756.2175
5585.3447
5564.7034
5620.7494
5673.0467
5780.8645
6009.7889
6394.5727
6571.3491
7094.6456
7607.3435
8311.9082
9024.7135
9968.3959
10888.906
12028.18
13185.13
14514.52
15859.694
17350.211
18874.016
20456.51
22090.842
23747.018
25402.632
27056.598
28670.62
30263.838
31796.992
33232.054
34546.037
36288.991
37629.249
39027.826
39902.411
40603.922
41100.974
41585.735
41520.88
41771.971
41042.473
41032.238
39895.899
39539.07
37921.76
37353.183
35466.617
34105.069
32339.316
29691.457
27541.285
25518.554
22786.507
20893.059
18581.584
15640.526
13268.56
10907.232
6788.4421
2915.9366
-3943.8303
23254.527
21697.322
18129.406
19009.173
17983.438
18746.293
18179.055
18356.486
18016.17
17476.918
16987.461
16607.263
15907.7
15096.238
14497.786
13803.808
13065.913
12287.945
11572.939
10980.741
10349.689
9671.6361
9313.5475
8641.3301
8205.8119
7753.2065
7428.8201
6968.813
6806.7667
6391.2964
6272.2194
6008.6447
5925.2385
5715.0823
5605.0817
5568.4922
5597.145
5519.3428
5704.6222
5814.7644
5875.4126
6106.7276
6537.1465
6929.8211
7435.2491
7968.474
8605.437
9328.4935
10139.315
11038.43
12020.508
13101.891
14214.575
15455.882
16695.721
18013.352
19361.484
20719.233
22085.698
23440.741
24775.318
26064.262
27284.205
28390.641
29556.586
30608.009
31606.492
32147.901
33190.057
33760.479
34090.612
34307.85
34197.741
34144.461
33931.737
33480.607
32950.247
32141.24
31430.786
30234.767
29139.685
27967.067
26139.552
24837.931
23507.525
21489.6
19429.903
17774.688
15495.055
13403.837
11444.924
7902.4987
5680.6291
263.6811
-2472.2862
18719.574
17830.885
13920.059
15440.29
14434.41
14876.228
14724.689
14925.269
14385.102
14447.846
14009.555
13740.761
13041.068
12825.806
12028.96
11753.912
10875.715
10613.24
9872.0498
9482.3402
8707.6133
8423.2501
7837.4024
7390.0518
7079.0772
6693.9771
6400.201
6149.1758
5887.5097
5660.2129
5555.0775
5306.7366
5215.9092
5069.0186
5110.0318
4871.0919
4980.1529
4866.6984
4998.0272
4912.8083
5244.6212
5359.469
5510.6136
5686.8811
5989.521
6389.3573
6806.4584
7351.916
7928.4943
8594.0935
9295.7883
10102.956
10908.088
11825.288
12727.177
13714.74
14693.244
15711.142
16721.33
17751.445
18750.595
19731.884
20679.642
21631.916
22468.317
23305.681
24123.143
24374.647
25146.424
25581.427
26063.216
26251.917
26540.846
26565.129
26321.7
26040.408
25533.037
25116.506
24264.206
23619.911
22634.771
21717.168
20401.448
19207.519
17783.498
16865.343
15226.01
13681.781
11960.265
10338.707
7906.5361
5963.175
3097.622
-35.611499
-4141.4695
15467.197
13326.315
10527.697
11905.474
10994.182
11653.957
11701.558
11574.711
11512.144
11421.418
11128.98
10849.82
10605.81
10112.964
9867.1329
9403.3819
8835.3719
8572.9761
8060.8436
7587.7057
7367.6963
6964.1895
6633.2917
6364.0769
6160.5035
5808.4982
5735.1545
5399.3013
5360.6158
5132.0801
5089.6541
4853.6649
4886.5799
4743.022
4653.3895
4590.3595
4680.9587
4574.2713
4461.9364
5023.8125
4724.0204
4852.0907
5122.8248
5292.2933
5602.8711
5873.2193
6166.1603
6538.3464
6967.8106
7393.8513
7909.1842
8478.1811
9039.2707
9700.2609
10353.865
11059.565
11786.317
12522.849
13301.252
14043.33
14824.573
15529.492
16364.762
16933.632
17664.728
18338.05
18837.005
19344.175
19726.293
20153.12
20444.198
20628.486
20529.148
20458.987
20000.288
19802.595
19535.968
19048.173
18617.97
18084.669
17269.074
16732.658
15723.802
15136.868
13912.054
13202.259
11571.266
10692.385
9061.5144
7529.1213
5976.6272
4337.1551
2527.7542
-500.25478
-3256.4669
9504.7599
9704.8932
7457.2281
8624.8608
7874.0815
8510.3442
8198.8529
8588.1099
8386.956
8443.2627
8210.7619
8225.4121
7730.3318
7788.37
7285.7785
7131.6852
6731.1504
6790.7305
6097.1845
6196.7339
5762.4974
5574.2403
5326.9707
5192.6368
4960.0733
4868.6471
4734.5713
4610.0159
4575.7043
4410.7005
4388.3257
4267.6472
4308.0915
4101.8117
4183.1696
4089.6936
4089.7558
3937.8269
4503.5429
4274.421
4511.1333
4405.0376
4445.3085
4535.7764
4650.3598
4751.7387
4901.576
5079.3693
5286.3883
5510.2283
5789.1153
6078.0476
6394.5177
6745.7022
7123.4101
7505.7466
7933.3839
8366.905
8810.8475
9269.8538
9749.4166
10218.372
10665.331
11157.529
11620.326
11990.897
12491.102
12815.057
13158.713
13462.069
13759.056
13764.856
13928.745
13450.069
13096.906
13115.372
12914.56
12813.96
12421.984
12394.346
11550.26
11702.136
10473.743
10551.238
9215.905
9224.3698
7716.8217
7691.95
6133.3617
5918.3283
4662.0728
3430.0076
1924.2501
-290.02724
-1655.9335
4981.0807
5416.3035
3816.7328
5248.5305
4614.9814
4943.9054
5133.7647
5402.1933
5160.1765
5325.0884
5280.5181
5131.1672
5146.7933
5025.4391
4785.8184
4817.3467
4582.0364
4396.8107
4266.1127
4233.3215
4016.9577
4011.8833
3932.0195
3829.1758
3892.5135
3743.4428
3806.6189
3704.2704
3786.8264
3618.4035
3767.6689
3620.8444
3636.9512
3539.9472
3592.3116
3401.7584
3476.3766
3336.3038
3389.2127
3178.4286
3158.6309
3076.0864
3034.8974
3047.4613
3032.4811
3057.8378
3013.8236
3064.6772
3058.7665
3105.7984
3151.1925
3220.945
3281.0517
3405.761
3491.8554
3635.5228
3778.0917
3946.0294
4115.3125
4326.5032
4532.361
4737.1951
5010.4997
5228.7662
5473.8094
5751.3568
5965.2907
6197.7269
6410.9415
6652.142
6786.009
7002.5473
6957.1432
7236.901
7452.0889
7518.7434
7458.6427
7351.334
7296.0433
7075.104
6857.4921
6715.7004
6147.444
6235.3774
5364.5626
5484.2126
4537.4753
4612.0489
3604.9867
3371.4866
2129.6562
1547.7607
1030.6546
185.23301
-493.76819
513.99032
1749.4064
666.7918
2079.421
1420.6689
2236.0391
2134.855
2446.5906
2353.4565
2664.3535
2551.4205
2826.5162
2649.6051
2768.1297
2721.6329
2913.9774
2560.704
2998.9079
2736.0216
2880.9433
2797.5024
2941.4236
2794.1069
3006.2613
2941.2633
2999.1458
3111.829
3118.6647
3168.9907
3145.8077
3277.8309
3083.1582
3247.1816
3112.7352
3154.1412
2967.8603
3083.7951
2724.9435
2929.912
2678.2706
2661.3173
2540.1518
2369.2247
2146.273
2031.5021
1818.1734
1623.4187
1466.3744
1273.398
1074.5715
888.45908
702.84689
498.92033
322.15029
136.22193
-35.079205
-199.82262
-336.73898
-478.64725
-577.16374
-678.12194
-737.12361
-781.62
-801.34987
-771.23494
-742.69702
-655.59402
-575.86353
-449.45762
-332.83283
-201.32443
-73.222913
9.8785091
164.45094
184.46176
387.20768
444.69334
635.17905
716.09196
850.35335
930.48734
937.54672
1063.9555
1006.2414
942.9218
1130.8017
642.27825
1227.8413
345.26512
1211.2254
705.97168
1529.6271
1330.8685
821.87547
1201.2724
-3974.5397
-2373.9918
-2530.6784
-1481.2
-1649.439
-1073.555
-1271.3291
-575.35508
-820.40624
-401.90863
-245.81637
-86.813479
-93.161261
320.39686
363.99818
423.32018
624.73598
882.24456
715.91378
1140.1027
1152.4934
1417.65
1500.5509
1733.5644
1787.0482
2001.8339
2127.4925
2145.6907
2341.7832
2330.402
2440.1392
2359.452
2505.035
2306.6572
2373.8144
2223.3947
2156.0146
1990.2683
1926.4258
1673.8815
1493.479
1275.0643
1014.1389
816.53061
578.39811
296.04797
-19.114677
-287.23106
-635.8258
-977.19545
-1318.272
-1660.9393
-2053.9648
-2392.9312
-2768.3903
-3131.0275
-3485.9636
-3809.6142
-4160.7508
-4443.9453
-4727.5307
-4999.9576
-5209.7185
-5414.7691
-5588.3224
-5710.7727
-5799.5857
-5862.3961
-5870.1352
-5828.8764
-5814.9502
-5637.8746
-5532.0868
-5432.3218
-5335.3729
-5208.6157
-4953.6136
-4798.9767
-4608.2051
-4449.0878
-4189.4401
-4090.4789
-3764.9488
-3609.2295
-3432.3779
-2869.645
-3059.2727
-1917.0716
-2429.2817
-1041.1708
-1628.4676
-863.25932
-955.37851
604.74814
2220.957
-8394.3461
-6054.5325
-5704.5757
-4584.6115
-4942.7019
-4248.8497
-4184.8087
-3693.1669
-3656.7402
-3021.8204
-2886.0144
-2562.529
-2174.7969
-1720.2826
-1696.0466
-1109.7014
-922.5886
-549.93414
-349.3104
144.77825
185.15915
715.57099
721.67061
1196.3158
1255.7971
1619.0118
1637.1942
1943.8626
2051.8937
2078.6659
2244.4207
2169.7574
2266.6137
2103.7963
2250.4194
1898.7773
2031.7072
1645.7145
1629.1576
1284.1172
1099.6599
767.39917
508.14166
79.056551
-270.85038
-713.07402
-1163.1475
-1618.3958
-2141.7936
-2683.3641
-3227.8966
-3822.3361
-4444.3618
-5055.2611
-5700.2461
-6359.4251
-7000.1057
-7646.5836
-8302.6624
-8892.5277
-9510.0227
-10076.629
-10588.166
-11100.725
-11539.927
-11920.97
-12250.298
-12541.26
-12710.784
-12909.563
-12963.792
-12952.126
-12965.168
-12494.926
-11735.198
-11089.651
-10673.239
-10490.448
-10013.521
-9868.1922
-9102.726
-9172.551
-8148.1103
-8162.6757
-7321.69
-6741.6017
-6503.2581
-4974.4871
-5370.9352
-3200.6444
-3447.1884
-2004.4007
-789.52277
1060.2071
3020.0429
-12334.632
-8814.2796
-7931.4405
-7579.0701
-7297.8915
-6959.0537
-6727.5109
-6336.7715
-5839.9511
-5532.1975
-5106.1239
-4570.0345
-4093.7204
-3725.8624
-3254.9235
-2629.0494
-2494.0749
-1739.9437
-1656.1034
-1066.6377
-923.40514
-626.99456
-635.02445
71.079581
14.447534
530.74519
571.09008
982.68993
960.31803
1199.3614
1290.233
1236.8482
1320.4616
1212.9812
1179.0107
991.16157
911.45175
599.58869
449.2297
89.401075
-205.49642
-567.53532
-964.07416
-1426.5915
-1878.8325
-2397.7583
-2988.7248
-3563.0344
-4226.4632
-4891.0656
-5607.4855
-6334.3518
-7120.9311
-7885.762
-8701.1551
-9515.5677
-10336.143
-11148.054
-11970.179
-12748.195
-13528.106
-14262.385
-14954.216
-15639.162
-16248.385
-16805.547
-17288.006
-17695.183
-18052.481
-18299.845
-18461.903
-18611.711
-18550.104
-18392.896
-17740.934
-17993.13
-17194.83
-16740.517
-16262.999
-15735.517
-15237.662
-14492.72
-13902.646
-13100.401
-12224.921
-11532.453
-10297.58
-9614.608
-8213.9609
-7018.4813
-5843.9401
-3726.9908
-2069.4167
511.65454
4995.288
-15314.155
-13414.997
-11800.534
-11213.56
-10649.55
-10386.255
-9907.2396
-9345.2085
-8981.2374
-8167.8569
-7827.5438
-6915.7088
-6674.9806
-5559.6709
-5316.3988
-4410.1382
-4020.1663
-3183.7766
-2991.1985
-2015.2328
-1903.1738
-1035.1115
-1104.4737
-371.80495
-364.93675
361.39331
345.33119
821.14786
891.19768
1207.1516
1212.0373
1296.6071
1354.1207
1175.5449
1278.4598
946.21017
953.45443
566.76219
424.54372
-9.7023524
-291.86788
-805.95774
-1240.518
-1835.4388
-2400.9045
-3060.9459
-3786.9841
-4529.4283
-5346.1722
-6235.1577
-7148.9507
-8124.7572
-9157.3384
-10213.487
-11309.773
-12449.708
-13586.749
-14739.356
-15912.929
-17041.17
-18169.361
-19257.278
-20279.903
-21285.326
-22193.188
-23060.867
-23824.164
-24515.823
-25051.385
-25509.134
-25894.602
-26059.005
-26211.71
-26157.677
-25826.595
-26068.245
-25671.319
-25045.337
-24386.473
-23664.158
-22754.821
-21823.864
-20719.688
-19581.571
-18242.802
-17094.814
-15304.962
-14246.699
-12315.402
-10625.287
-9231.0384
-5918.362
-3591.9841
1386.1284
6446.7315
-22135.38
-18710.916
-15834.804
-15624.533
-15064.371
-14473.009
-14043.524
-13269.639
-12714.17
-11819.174
-11041.727
-10449.228
-9456.4662
-8650.0154
-7873.8205
-7015.1137
-6238.1436
-5467.6419
-4803.8743
-3991.5124
-3708.3614
-2608.2612
-2445.5123
-1678.2748
-1483.5259
-694.91432
-795.50289
-147.59568
-113.16077
216.10349
276.62583
461.47398
404.38534
381.88758
297.38672
82.549393
-38.314654
-400.18855
-668.10795
-1098.4303
-1537.607
-2075.3979
-2621.1064
-3280.808
-3978.4517
-4747.0111
-5626.4094
-6499.1282
-7509.3188
-8547.5992
-9655.6195
-10804.554
-12041.447
-13277.84
-14584.143
-15908.899
-17249.353
-18602.017
-19967.659
-21289.27
-22618.796
-23884.463
-25103.59
-26274.186
-27338.242
-28368.07
-29272.463
-30035.796
-30741.969
-31292.299
-31680.553
-31994.381
-32068.363
-32085.17
-31876.701
-31714.7
-31286.884
-30719.624
-29960.45
-29078.969
-28090.879
-26914.577
-25659.739
-24242.341
-22781.106
-21089.339
-19381.461
-17671.162
-15340.309
-13790.577
-10881
-8431.1219
-5581.7874
-1071.1425
4558.0123
-25666.058
-22954.211
-18836.598
-19357.349
-18508.452
-17990.512
-17284.275
-16506.305
-15564.134
-14592.931
-13922.811
-12539.323
-11892.247
-10673.66
-9733.668
-8584.1292
-7860.6067
-6497.3108
-6027.4124
-4892.2214
-4197.1153
-3305.3884
-3004.713
-2226.92
-1895.6833
-1226.969
-881.51191
-431.35011
-225.7467
104.44999
287.70951
347.80254
554.27101
443.30407
443.9874
164.80899
63.830933
-321.61418
-575.87779
-1064.8428
-1506.1157
-2112.6974
-2742.9164
-3501.6781
-4318.8867
-5237.0917
-6231.2521
-7325.7836
-8504.8345
-9784.8403
-11130.558
-12579.838
-14097.813
-15684.11
-17325.355
-19027.101
-20750.571
-22500.49
-24258.021
-25999.342
-27717.618
-29381.001
-30987.937
-32479.899
-33861.725
-35154.473
-36290.324
-37330.646
-38267.224
-38956.583
-39558.591
-39853.61
-40010.025
-40083.248
-39755.242
-39413.343
-38764.138
-37999.832
-36993.912
-35916.955
-34588.595
-33120.268
-31507.453
-29759.095
-27775.791
-25826.091
-23603.901
-21344.181
-18867.499
-16787.973
-13266.677
-11604.595
-7567.4654
-3061.6772
4130.1392
-36080.751
-23581.876
-23609.575
-22930.432
-22372.31
-21181.113
-20840.982
-19495.404
-18795.182
-17685.306
-16445.806
-15510.053
-14391.141
-13063.56
-12003.744
-10825.697
-9787.5396
-8613.6662
-7843.6865
-6412.1955
-5735.6478
-4675.0615
-4149.7085
-3291.9196
-3131.7791
-1998.3833
-1839.1626
-1056.6934
-955.74678
-433.44451
-297.6148
-103.06632
42.07256
51.988048
96.710304
-283.78936
-287.48485
-705.98207
-1010.4773
-1494.6448
-2016.8808
-2665.547
-3385.6467
-4194.4376
-5154.7969
-6149.906
-7339.5942
-8580.2035
-9975.985
-11450.263
-13061.122
-14749.192
-16556.784
-18418.385
-20379.419
-22383.1
-24428.447
-26495.564
-28577.382
-30623.056
-32644.732
-34611.224
-36479.213
-38229.991
-39857.517
-41275.36
-42535.75
-43723.804
-44884.836
-45613.555
-46144.69
-46359.839
-46586.757
-46401.847
-46078.628
-45520.285
-44857.552
-43822.782
-42719.947
-41328.776
-39776.58
-38002.527
-36158.2
-33979.4
-31813.281
-29486.866
-26885.579
-24441.932
-21812.15
-19200.154
-16292.689
-14725.759
-10921.965
-7700.0547
-694.81844
71325.061
72631.54
70665.737
73832.68
74160.324
75009.522
77649.93
76258.577
75796.598
75561.056
75510.11
72628.273
72100.738
75117.86
62641.186
65191.082
69575.562
65987.829
69914.33
68747.715
71228.411
68901.983
71652.354
70849.251
71241.522
70117.005
69276.618
68922.499
68696.625
58636.167
45269.37
53955.208
47795.044
49942.654
50480.012
49887.864
50841.586
50208.892
50708.262
49892.341
50316.514
50030.962
46804.03
52410.181
46801.602
40814.188
43057.317
42302.325
42727.695
43941.289
43731.639
44233.807
44243.554
44211.388
44281.546
43627.945
42945.315
41954.249
45749.776
31000.28
28533.808
32452.063
29081.01
31801.531
30531.917
31854.781
31619.293
31626.549
31816.775
31636.855
31231.376
31473.103
31294.876
32181.162
28646.481
21680.934
25103.899
22848.276
24310.905
24211.817
24401.504
24237.592
24182.849
24064.926
23901.104
23204.677
23744.611
22388.215
24133.599
22596.904
12037.802
12884.335
12995.901
12533.555
13391.88
13439.367
13110.539
13114.493
13203.083
13437.004
13077.293
12983.873
13328.028
15004.54
12106.866
3880.3282
5633.1424
3943.7284
5594.0604
4680.2348
5211.0751
4773.173
4867.7918
4882.6037
4663.9496
4173.8701
4699.6645
5708.1386
3763.2507
7940.8639
-4435.9295
-4371.2759
-3623.33
-4439.1603
-4055.263
-4211.6519
-4446.1928
-4305.2164
-4822.0853
-4044.8921
-5357.0367
-3718.1337
-4038.0611
-4053.5771
1067.1604
-12280.73
-12907.156
-12444.839
-12085.478
-12634.011
-12526.968
-12929.379
-13219.428
-13239.446
-12817.49
-14289.015
-12393.886
-11916.835
-14148.156
-7137.2045
-21210.1
-25498.232
-21389.835
-24124.421
-22814.988
-23570.099
-23733.774
-23582.001
-23910.895
-22470.468
-23485.816
-22179.454
-21160.875
-21727.502
-15048.592
-33001.787
-30691.813
-31178.196
-30509.524
-32064.889
-32228.157
-32636.106
-33113.611
-32831.352
-33172.417
-33777.555
-30483.126
-31374.168
-32459.801
-24106.563
-39939.871
-41709.489
-38857.719
-39599.016
-38698.47
-39749.858
-39741.732
-39309.64
-39734.309
-38035.154
-39631.388
-39045.055
-35749.424
-40102.458
-23866.572
-51191.348
-60968.297
-54325.405
-58670.982
-60579.606
-59441.532
-60603.981
-63468.885
-61585.337
-64214.176
-59649.593
-59202.974
-59129.401
-55854.887
-52661.83
-61050.756
-51185.88
-48080.253
-49013.785
-51025.621
-55259.727
-52971.605
-51315.626
-49261.389
-48822.824
-49893.925
-49451.486
-48772.613
-52323.393
-45101.36
-55748.222
-52385.269
-63148.587
-65458.459
-67956.489
-73422.498
-70393.083
-65816.072
-74875.898
-73878.991
-71993.229
-68521.847
-66574.364
-62070.686
-51986.563
-39564.084
-39437.526
-44690.29
-46477.996
-47551.012
-50149.428
-51248.356
-52548.452
-54478.13
-51736.2
-50831.882
-47397.251
-47987.014
-46020.02
-44711.746
-27933.188
-32178.907
-31928.182
-34986.426
-37615.422
-36407.547
-38392.616
-37760.584
-36779.878
-38618.339
-37002.527
-37884.51
-35742.908
-31971.151
-32290.5
-27627.302
-31573.121
-32426.033
-33131.572
-34120.064
-34959.612
-35418.651
-35751.499
-35848.383
-34710.072
-34737.562
-33446.621
-32348.995
-31287.58
-29247.241
-27855.776
-30725.663
-30533.65
-32857.902
-33428.573
-34046.423
-35155.02
-34804.811
-35319.8
-35208.822
-33992.814
-33372.85
-31628.07
-30219.481
-29174.487
-25861.152
-26712.903
-27393.183
-28680.45
-29219.039
-30049.681
-30122.686
-30233.299
-30289.532
-29865.831
-29533.173
-29036.033
-27904.168
-27306.368
-25964.466
-24364.361
-26401.561
-26756.344
-27987.177
-28479.68
-29147.05
-29604.889
-29672.552
-29871.322
-29515.769
-28906.564
-28480.127
-27543.966
-26527.48
-26550.087
-23650.353
-23683.512
-24765.07
-24864.551
-25932.946
-25933.707
-26387.704
-26481.145
-26467.884
-26269.326
-25893.024
-25474.051
-25103.645
-24368.673
-24199.865
-21570.154
-22976.806
-23281.082
-24050.912
-24239.05
-24919.239
-25055.711
-25206.757
-25596.261
-24862.067
-24729.414
-24600.905
-23890.801
-23662.212
-23025.014
-20988.32
-20766.875
-21396.525
-21361.832
-21985.43
-22030.351
-22450.269
-22477.137
-22131.789
-22642.655
-22456.435
-22296.418
-21983.797
-21862.83
-21813.728
-19005.038
-19645.841
-19827.426
-20279.631
-20519.12
-20846.858
-20918.463
-21188.496
-21177.112
-21157.516
-21110.609
-21032.144
-20835.438
-20905.633
-20817.365
-18161.919
-17882.149
-18148.912
-18302.233
-18700.758
-18603.959
-18979.574
-19181.017
-19275.707
-19324.789
-19387.877
-19433.959
-19445.262
-19284.919
-19465.343
-16635.041
-16589.738
-16784.364
-16904.915
-17019.976
-17353.841
-17388.06
-17600.296
-17626.54
-17778.346
-17752.819
-18058.525
-17588.612
-18054.336
-18056.136
-15289.888
-14992.076
-15410.728
-15194.198
-15398.062
-15473.975
-15866.098
-15590.635
-15944.231
-15939.325
-16183.656
-16160.991
-16385.677
-16580.778
-16753.348
-13887.048
-13727.702
-14095.723
-13743.385
-14406.21
-14106.835
-14040.323
-14709.452
-14615.219
-14895.618
-14778.061
-15229.247
-14884.237
-15581.949
-15542.932
-12606.414
-12255.787
-12659.2
-12358.721
-12597.56
-12419.388
-13083.203
-12860.877
-13067.834
-13068.007
-13371.242
-13570.956
-13550.939
-13661.297
-13769.108
-11453.048
-11056.032
-11306.404
-10974.501
-11381.896
-11158.192
-11483.329
-11652.933
-11540.12
-11930.859
-11921.612
-12351.386
-12206.106
-13039.977
-12938.003
-10063.008
-9966.1768
-9938.046
-9894.5676
-10071.041
-10018.199
-10186.186
-10317.675
-10542.863
-10654.947
-10868.76
-11025.451
-11353.419
-11336.696
-11670.474
-9126.1021
-8638.0851
-8913.5385
-8645.6797
-9041.4478
-8696.8142
-8960.8761
-9102.4601
-9162.806
-9454.5386
-9553.7505
-9943.2687
-9905.3244
-10707.328
-10815.427
-7758.9927
-7689.5158
-7557.3954
-7595.0467
-7628.7498
-7551.6016
-8052.7962
-7904.6901
-8183.1724
-8262.3195
-8473.752
-8716.1804
-8745.2705
-9237.9353
-9303.3944
-6961.5489
-6542.5619
-6821.4624
-6344.7454
-6798.6165
-6495.9695
-6934.9282
-6995.4135
-7085.3865
-7274.7067
-7460.3497
-7959.5661
-8076.857
-8775.1348
-9047.6535
-5499.0757
-5828.23
-5445.4732
-5590.0869
-5611.2289
-5699.3395
-5730.0211
-5972.0584
-5998.485
-6538.9114
-6595.0951
-6835.0276
-6823.8722
-7354.4192
-7486.6455
-5159.9256
-4663.4229
-4908.8203
-4570.7513
-4871.2326
-4762.9848
-4994.3875
-4986.2028
-5297.8456
-5259.8948
-5775.1448
-5921.7845
-6259.2457
-6722.2994
-6682.6193
-3840.9972
-3998.5637
-3734.428
-3889.7711
-3942.155
-3772.3332
-4317.2848
-4151.9673
-4545.5462
-4667.0117
-4645.9767
-5397.0662
-5422.7529
-5984.3492
-5994.7814
-3623.7983
-3078.8547
-3312.4288
-2891.1875
-3326.447
-3149.3524
-3529.8124
-3520.6744
-3797.1962
-3933.3746
-4095.6241
-4380.5256
-4681.9607
-5077.249
-5335.0447
-2527.5855
-2284.7631
-2591.0151
-2298.3183
-2532.9631
-2503.7474
-2684.7632
-2751.3668
-3016.6052
-3251.7881
-3645.0328
-4199.761
-3889.1022
-4755.5085
-4743.1344
-2209.9347
-1584.4101
-2109.8778
-1577.7519
-2222.6468
-1867.0434
-2277.016
-2311.2086
-2534.3134
-2738.7057
-2917.0107
-3225.7607
-3532.037
-3909.1267
-4080.376
-1465.0858
-1196.1951
-1338.4697
-1295.3279
-1488.1233
-1362.2447
-1760.7889
-1735.4207
-2113.441
-2259.0849
-2576.0012
-2807.8895
-2981.0394
-3601.4549
-3742.1622
-1114.7998
-731.39069
-1088.87
-711.3163
-1155.6869
-951.91548
-1321.7422
-1331.4795
-1594.6524
-1806.9831
-2042.1534
-2331.1809
-2630.6432
-3164.8464
-3169.6357
-657.49611
-378.93472
-676.69984
-362.77313
-797.11087
-643.44467
-904.92889
-950.22044
-1254.9475
-1502.5794
-1669.7033
-2151.6756
-2088.0411
-2891.6206
-2904.0611
-454.88193
-72.684948
-434.74313
-106.41595
-524.95246
-272.07111
-814.03542
-623.24412
-1165.2732
-1128.5707
-1494.6632
-1784.577
-1929.6007
-2435.3408
-2622.9088
-137.6531
146.76568
-212.73447
143.15823
-254.70349
-150.26047
-431.2784
-484.56467
-752.18873
-894.49101
-1199.4378
-1570.8485
-1662.1697
-2420.6061
-2364.8685
-73.045746
266.65135
-61.736094
306.28383
-167.71305
116.84029
-361.14526
-217.14545
-665.21758
-735.09929
-1081.4423
-1340.3254
-1561.0492
-2068.1293
-2181.4776
13.206467
375.20312
26.641226
363.2805
-64.031181
120.19244
-243.22699
-179.05295
-577.49855
-649.16534
-934.34803
-1309.6879
-1436.5727
-2077.6043
-2084.585
102.51972
329.58484
59.51827
447.54371
58.805717
187.49252
-96.782149
-194.77253
-404.87843
-612.27413
-856.20633
-1193.4392
-1366.7941
-1850.6989
-2050.9844
87.605915
207.73852
22.711877
225.94576
-31.997519
79.827517
-169.11256
-187.6716
-476.35657
-571.17405
-971.56006
-1235.7438
-1433.1867
-2021.1432
-2074.3666
-153.89911
190.37154
-64.789232
294.9733
-153.06927
119.714
-327.5318
-158.8333
-646.13658
-722.12459
-932.43768
-1285.2953
-1423.1558
-2017.7729
-2074.2011
-392.29983
-95.593152
-357.41363
8.6646012
-346.37786
-172.07733
-449.90843
-434.06429
-780.91499
-787.85731
-1144.1893
-1382.7516
-1580.0059
-2172.0474
-2163.952
-703.23578
-310.22013
-582.98662
-144.77693
-556.35862
-239.46425
-654.71282
-526.15841
-870.02879
-943.92201
-1257.8298
-1538.4922
-1730.3754
-2291.5436
-2312.868
-1158.3041
-705.07099
-988.58661
-559.90994
-918.24365
-686.20082
-1034.2233
-875.57652
-1288.107
-1265.1506
-1632.2717
-1849.0475
-2026.3908
-2584.2552
-2622.7446
-1565.1114
-1154.8397
-1386.5167
-899.72234
-1279.1482
-980.12109
-1294.019
-1192.721
-1539.1516
-1559.8362
-1894.4268
-2124.8075
-2309.0423
-2910.962
-2890.5582
-2236.7392
-1719.709
-1959.2984
-1481.6048
-1851.9666
-1516.3319
-1888.4086
-1702.0313
-2088.3036
-2042.4244
-2396.4321
-2582.5126
-2801.1486
-3323.897
-3337.5175
-2888.3914
-2360.2194
-2572.1194
-2043.2108
-2364.5546
-2070.28
-2360.8759
-2217.3155
-2564.2088
-2543.9064
-2878.0603
-3112.2192
-3265.1277
-3847.0044
-3833.7157
-3727.796
-3134.0569
-3351.9365
-2783.2009
-3192.2554
-2822.2079