/*--------------------------------*- C++ -*----------------------------------*\
  =========                 |
  \\      /  F ield         | OpenFOAM: The Open Source CFD Toolbox
   \\    /   O peration     | Website:  https://openfoam.org
    \\  /    A nd           | Version:  6
     \\/     M anipulation  |
\*---------------------------------------------------------------------------*/
FoamFile
{
    version     2.0;
    format      ascii;
    class       pointVectorField;
    location    "1.87";
    object      u;
}
// * * * * * * * * * * * * * * * * * * * * * * * * * * * * * * * * * * * * * //

dimensions      [0 1 0 0 0 0 0];

internalField   nonuniform List<vector> 
28033
(
(0 0 0)
(0 0 0)
(0.22960482 0.040048524 -0.0038230083)
(0.22466263 -0.058497756 -0.003616464)
(0 0 0)
(0 0 0)
(0.22425958 -0.05858095 -0.0035478466)
(0.22923052 0.039913131 -0.0040513514)
(0 0 0)
(0 0 0)
(0 0 0)
(0 0 0)
(0 0 0)
(0 0 0)
(0 0 0)
(0 0 0)
(0 0 0)
(0 0 0)
(0 0 0)
(0 0 0)
(0 0 0)
(0 0 0)
(0 0 0)
(0.22917674 0.0333005 -0.0040713714)
(0.22866766 0.026982934 -0.0040619361)
(0.22816959 0.020802462 -0.004093433)
(0.22774762 0.014702102 -0.0040457299)
(0.22734418 0.008686168 -0.0039915898)
(0.22696987 0.002718977 -0.0039162763)
(0.22663738 -0.0032109873 -0.0038246419)
(0.22633563 -0.009129412 -0.0037235618)
(0.22606492 -0.015047156 -0.0036308821)
(0.22582101 -0.020998153 -0.0035334398)
(0.22560677 -0.026973598 -0.0034622837)
(0.22540378 -0.033028861 -0.0034174532)
(0.22524261 -0.0391419 -0.0033874642)
(0.22504671 -0.045383994 -0.0033821452)
(0.22492523 -0.051761168 -0.0034596006)
(-0.00085148216 -0.0012623007 -0.0010696551)
(-0.0013985189 -0.0017163586 -0.0013194924)
(-0.0020401525 -0.0021524491 -0.0014020131)
(-0.0027311165 -0.0025724775 -0.0014341453)
(-0.0034684379 -0.002889006 -0.0013831623)
(-0.0042282471 -0.0032183362 -0.0013161163)
(-0.0050346598 -0.0034506345 -0.0012281485)
(-0.0058405259 -0.0036769997 -0.0011264678)
(-0.0066770174 -0.003818149 -0.0010265961)
(-0.0074996923 -0.0039417137 -0.00092032143)
(-0.0083309149 -0.0039845194 -0.00082846813)
(-0.0091344043 -0.004010059 -0.00072801528)
(-0.0099289172 -0.0039589398 -0.00065102573)
(-0.010686378 -0.0038897549 -0.00056628276)
(-0.011419083 -0.0037517857 -0.0005044038)
(-0.012100921 -0.0035947178 -0.00044306093)
(-0.012748955 -0.0033775246 -0.00039808144)
(-0.013342777 -0.003145305 -0.00035144936)
(-0.0138898 -0.0028567333 -0.00032687341)
(-0.014372686 -0.0025536665 -0.00030179623)
(-0.01480978 -0.0022039501 -0.00028584075)
(-0.01517482 -0.001840509 -0.00027952823)
(-0.015487612 -0.0014369511 -0.00027571413)
(-0.015731089 -0.0010178435 -0.00027516687)
(-0.015912531 -0.00056435152 -0.0002846498)
(-0.016025162 -9.7505101e-05 -0.00029022657)
(-0.016074213 0.00040107871 -0.00030044701)
(-0.016053021 0.00091465548 -0.00030870604)
(-0.015959539 0.0014575608 -0.00032189114)
(-0.015799929 0.0020099271 -0.00032581717)
(-0.015562781 0.002599801 -0.00033506236)
(-0.015251408 0.0031955067 -0.00033985334)
(-0.014865515 0.0038232877 -0.00033833779)
(-0.014396964 0.0044599707 -0.00033804142)
(-0.013848293 0.0051284365 -0.00033118457)
(-0.013212594 0.0058093472 -0.0003270423)
(-0.012492093 0.0065135376 -0.00031419978)
(-0.011676536 0.0072372247 -0.00030102766)
(-0.010767755 0.007977198 -0.00029068392)
(-0.0097597935 0.0087383211 -0.00027488145)
(-0.0086516506 0.0095133018 -0.00026074028)
(-0.007439498 0.010307858 -0.00024536575)
(-0.0061176199 0.011116411 -0.00023345786)
(-0.0046851741 0.011941156 -0.00022074002)
(-0.0031399724 0.012776915 -0.00021146142)
(-0.0014768294 0.013626202 -0.000204321)
(0.00030273629 0.014485771 -0.00019947951)
(0.0022049669 0.015354232 -0.00019855256)
(0.0042273173 0.016231591 -0.00019993527)
(0.0063754653 0.017114528 -0.00020518496)
(0.00864683 0.018003999 -0.0002133121)
(0.011045938 0.018895669 -0.00022484141)
(0.013570808 0.019791982 -0.00023939416)
(0.016224481 0.020686796 -0.00025698683)
(0.019005865 0.021584209 -0.00027766966)
(0.021916671 0.02247721 -0.0003010043)
(0.024956483 0.023369509 -0.00032749282)
(0.028126276 0.024255466 -0.00035658022)
(0.03142561 0.025137271 -0.00038890208)
(0.034855321 0.026009875 -0.00042391348)
(0.038414814 0.0268754 -0.00046244833)
(0.042104753 0.027729091 -0.00050413659)
(0.045923163 0.028572319 -0.00054922484)
(0.049873923 0.029399322 -0.00059900101)
(0.053948884 0.030215243 -0.00065033069)
(0.058156452 0.031010583 -0.00070921619)
(0.062487595 0.031786797 -0.00076962055)
(0.066944148 0.032543298 -0.00083416012)
(0.071524653 0.03327804 -0.00090666205)
(0.076227019 0.033988681 -0.00097969578)
(0.081048399 0.034674305 -0.0010585461)
(0.085985667 0.035327552 -0.0011388531)
(0.091038151 0.035962774 -0.0012282305)
(0.096200916 0.036548761 -0.0013145311)
(0.1014704 0.037130904 -0.0014135092)
(0.10684737 0.037639791 -0.0015037849)
(0.11231648 0.038163754 -0.0016116025)
(0.11789393 0.038591759 -0.0017052417)
(0.12354523 0.039048675 -0.0018197274)
(0.12930397 0.039398055 -0.0019158814)
(0.13512547 0.039773748 -0.0020371229)
(0.14103847 0.040051087 -0.0021336881)
(0.1470165 0.040334985 -0.0022583943)
(0.15306033 0.040537667 -0.0023570387)
(0.15917229 0.040730685 -0.0024798999)
(0.16533545 0.040862031 -0.0025868933)
(0.17156036 0.040948649 -0.0027052829)
(0.17781657 0.041005694 -0.0028125789)
(0.18413126 0.041004705 -0.0029356673)
(0.19046049 0.040987018 -0.003042129)
(0.1968444 0.040874415 -0.0031435324)
(0.20323167 0.040844479 -0.0032822666)
(0.20966256 0.040631348 -0.003331475)
(0.21614734 0.040532355 -0.003470407)
(0.22261648 0.040387835 -0.0035146315)
(-0.00036134192 0.00092294593 0.0011684118)
(-0.0011069669 0.0012470881 0.00094206574)
(-0.0016951884 0.0016882661 0.0011084079)
(-0.0023618074 0.001894304 0.00090043619)
(-0.0031252772 0.0021750451 0.00076907667)
(-0.0039070288 0.0023970422 0.00054782065)
(-0.0047228023 0.0025383846 0.00032403035)
(-0.005552126 0.0026688208 7.530785e-05)
(-0.0064162421 0.0027462134 -0.00018385432)
(-0.0072567273 0.0027711818 -0.00043438168)
(-0.0081098502 0.002763029 -0.00069769803)
(-0.0089361429 0.0027009765 -0.00094371135)
(-0.0097442105 0.0026069888 -0.0011919569)
(-0.010520539 0.0024626635 -0.0014260624)
(-0.011264882 0.0022900705 -0.0016555037)
(-0.011965685 0.0020705515 -0.001873507)
(-0.012624277 0.0018247195 -0.0020830681)
(-0.013228554 0.001539921 -0.0022808683)
(-0.013786312 0.0012289439 -0.0024742132)
(-0.014284355 0.00088616973 -0.0026560831)
(-0.014725859 0.00052087338 -0.0028294894)
(-0.015107345 0.0001230917 -0.0030010828)
(-0.015430802 -0.00028611744 -0.0031604186)
(-0.015686093 -0.0007309885 -0.0033197104)
(-0.01588545 -0.0011846755 -0.0034733005)
(-0.01601126 -0.0016669863 -0.0036203982)
(-0.01607708 -0.002163905 -0.0037704463)
(-0.016071072 -0.0026810506 -0.0039113078)
(-0.01599908 -0.0032175336 -0.0040574453)
(-0.015855648 -0.0037692253 -0.0041949637)
(-0.01563939 -0.0043452782 -0.004335801)
(-0.015351746 -0.0049327207 -0.004474161)
(-0.014984729 -0.005546399 -0.0046113025)
(-0.014542795 -0.0061720443 -0.0047468676)
(-0.014015935 -0.0068241212 -0.004880812)
(-0.013411423 -0.0074886942 -0.0050157395)
(-0.012712415 -0.0081795886 -0.0051404008)
(-0.011928773 -0.0088872783 -0.0052700387)
(-0.011049571 -0.0096164197 -0.0053924034)
(-0.010077231 -0.010363876 -0.0055131849)
(-0.0090016442 -0.011134267 -0.0056284148)
(-0.0078286961 -0.011920943 -0.0057407723)
(-0.0065458957 -0.012730133 -0.0058469332)
(-0.0051598169 -0.013555369 -0.005949651)
(-0.0036597053 -0.014400975 -0.0060460762)
(-0.0020499719 -0.015262477 -0.0061381842)
(-0.00032328902 -0.016141761 -0.0062244258)
(0.0015180807 -0.017036207 -0.0063058096)
(0.0034793609 -0.017946446 -0.0063816044)
(0.0055586962 -0.018870092 -0.0064525308)
(0.0077604523 -0.019807869 -0.0065180395)
(0.010082947 -0.020757512 -0.006578832)
(0.012529407 -0.021719085 -0.0066344638)
(0.015098951 -0.022691264 -0.0066853812)
(0.017793527 -0.023673489 -0.0067314217)
(0.020612652 -0.024664439 -0.0067727219)
(0.023558051 -0.025664058 -0.00680914)
(0.026628986 -0.026670564 -0.0068406644)
(0.029826623 -0.027683673 -0.0068673933)
(0.033151205 -0.028702493 -0.0068885239)
(0.036602268 -0.029725374 -0.0069050054)
(0.040180911 -0.03075239 -0.006915136)
(0.043886073 -0.031781096 -0.0069204092)
(0.047718628 -0.032812141 -0.0069185616)
(0.051676745 -0.033841679 -0.0069118535)
(0.055762144 -0.034872483 -0.00689681)
(0.059971528 -0.035897947 -0.0068770297)
(0.064305799 -0.036922572 -0.0068482207)
(0.068762247 -0.037938583 -0.0068159927)
(0.073339356 -0.038947339 -0.0067695373)
(0.078038125 -0.039952859 -0.0067214186)
(0.082851028 -0.040942153 -0.0066635143)
(0.087782613 -0.041925351 -0.0065981579)
(0.092822481 -0.042891133 -0.0065263807)
(0.097976432 -0.043846568 -0.0064445651)
(0.10323154 -0.044781922 -0.0063593811)
(0.10859392 -0.045704149 -0.0062623827)
(0.11405216 -0.046602842 -0.0061630574)
(0.11960801 -0.047486211 -0.0060531046)
(0.12525321 -0.048342799 -0.0059401931)
(0.13098688 -0.049181376 -0.0058188456)
(0.13680242 -0.049991262 -0.0056938151)
(0.14269517 -0.050779012 -0.0055627863)
(0.14866333 -0.051537844 -0.0054276504)
(0.15469592 -0.052268965 -0.0052897901)
(0.16079578 -0.052972802 -0.0051470148)
(0.16694923 -0.053643155 -0.0050041411)
(0.17315802 -0.054285303 -0.0048596906)
(0.17941124 -0.05489612 -0.0047127786)
(0.18570939 -0.055473403 -0.0045697759)
(0.19203833 -0.056019709 -0.0044268866)
(0.19841186 -0.056543294 -0.0042872448)
(0.20480753 -0.057042558 -0.0041405045)
(0.21127242 -0.057508188 -0.0040186441)
(0.2177994 -0.058031014 -0.003844703)
(0 0 0)
(0 0 0)
(0 0 0)
(0 0 0)
(0 0 0)
(0 0 0)
(0 0 0)
(0 0 0)
(0 0 0)
(0 0 0)
(0 0 0)
(0 0 0)
(0 0 0)
(0 0 0)
(0 0 0)
(-0.00078197778 0.00052518842 -0.0010327987)
(-0.0014342336 0.0018333185 -0.0012261074)
(-0.001931374 0.0018167026 -0.0012781626)
(-0.0026998865 0.0025012703 -0.0013374408)
(-0.0033932595 0.0026801846 -0.0013084697)
(-0.0041826425 0.0030159971 -0.0012101612)
(-0.0049716802 0.0032052018 -0.0011211912)
(-0.0058096115 0.0034322914 -0.0010241878)
(-0.0066382206 0.0035252489 -0.00091077669)
(-0.0074730019 0.0036275861 -0.00080934)
(-0.0083014889 0.0036487511 -0.00071273209)
(-0.0091261446 0.003631381 -0.00061073842)
(-0.0099132189 0.0035718482 -0.00052586832)
(-0.010689737 0.0034587094 -0.0004427099)
(-0.011414784 0.0033102588 -0.00037196088)
(-0.012118653 0.0031197492 -0.00030386771)
(-0.012771408 0.0028948896 -0.00025379164)
(-0.013365607 0.0026178571 -0.00020444945)
(-0.013932365 0.0023329098 -0.00016589125)
(-0.014412528 0.0019869542 -0.0001419988)
(-0.014869199 0.0016449285 -0.00011040224)
(-0.015245433 0.0012533755 -0.0001030315)
(-0.01556584 0.00084097471 -8.9314072e-05)
(-0.015817673 0.00039814673 -8.4926875e-05)
(-0.016019894 -5.2005762e-05 -8.3509068e-05)
(-0.016137275 -0.00054839929 -8.5415567e-05)
(-0.016216416 -0.0010327514 -8.6408954e-05)
(-0.016191817 -0.0015812132 -9.1746299e-05)
(-0.016136434 -0.0021030128 -9.3161348e-05)
(-0.015975864 -0.0026926744 -9.3906889e-05)
(-0.015772406 -0.0032613307 -9.5406964e-05)
(-0.015474141 -0.003885008 -9.1822944e-05)
(-0.015117351 -0.0044998434 -8.8619674e-05)
(-0.014667674 -0.0051634639 -7.9117804e-05)
(-0.01414959 -0.0058215025 -7.065553e-05)
(-0.013546352 -0.0065137979 -5.7825324e-05)
(-0.0128503 -0.0072264421 -4.3253829e-05)
(-0.01206845 -0.007961206 -2.4292016e-05)
(-0.011197288 -0.0087075401 -8.7420457e-06)
(-0.010225387 -0.0094851283 1.1545457e-05)
(-0.0091596437 -0.010272234 2.8711539e-05)
(-0.0079881714 -0.011087395 4.8215233e-05)
(-0.006714747 -0.01191374 6.3524683e-05)
(-0.0053312837 -0.01276505 8.0388077e-05)
(-0.0038398519 -0.013627746 9.1924363e-05)
(-0.0022335226 -0.014512981 0.00010392804)
(-0.0005143811 -0.015409256 0.00011043254)
(0.0013229954 -0.016325272 0.00011634213)
(0.0032777154 -0.017252314 0.0001169497)
(0.0053529809 -0.018196087 0.00011641788)
(0.0075486366 -0.019150483 0.00011103446)
(0.0098672085 -0.020119168 0.00010382793)
(0.012308208 -0.021097682 9.2685747e-05)
(0.014873586 -0.022088042 7.9078032e-05)
(0.017563395 -0.02308771 6.217121e-05)
(0.020378536 -0.024096705 4.24262e-05)
(0.023319408 -0.025114073 1.9689027e-05)
(0.026386764 -0.026138923 -6.2847173e-06)
(0.029580597 -0.027170474 -3.5281765e-05)
(0.032901745 -0.028207831 -6.7876179e-05)
(0.036350008 -0.029250121 -0.00010389828)
(0.039925917 -0.030296209 -0.00014393748)
(0.043629107 -0.031345305 -0.00018781794)
(0.047459746 -0.032396025 -0.0002362374)
(0.051417216 -0.033447328 -0.00028897725)
(0.055501082 -0.034498155 -0.00034657583)
(0.059710688 -0.035547293 -0.00040897719)
(0.064047259 -0.0365948 -0.00047574953)
(0.068497944 -0.037623961 -0.00054890907)
(0.073080805 -0.038671529 -0.00062559156)
(0.077778585 -0.039692399 -0.00070645112)
(0.082593007 -0.040710464 -0.00079239277)
(0.087523633 -0.041715582 -0.00088322658)
(0.092565566 -0.042709475 -0.00097670686)
(0.097716199 -0.043687501 -0.0010749124)
(0.102973 -0.044650847 -0.0011755241)
(0.1083313 -0.045595436 -0.0012797437)
(0.11378838 -0.046521407 -0.0013856978)
(0.11933954 -0.047426205 -0.0014945561)
(0.12498096 -0.048308116 -0.0016042545)
(0.13070832 -0.049166623 -0.0017166208)
(0.13651754 -0.049998734 -0.0018289952)
(0.1424034 -0.050804383 -0.001943649)
(0.14836224 -0.05158119 -0.0020580268)
(0.15438825 -0.052328047 -0.0021742478)
(0.16047748 -0.053044803 -0.0022892974)
(0.16662324 -0.053727144 -0.00240669)
(0.17282332 -0.054380667 -0.0025211763)
(0.17906767 -0.054994822 -0.002638512)
(0.18535834 -0.055583716 -0.0027506178)
(0.19168046 -0.056129791 -0.0028674842)
(0.19804788 -0.056660642 -0.0029742155)
(0.20443464 -0.057150838 -0.0030927379)
(0.21090522 -0.057637849 -0.0031984981)
(0.21738395 -0.058160386 -0.0033392872)
(0.22456687 -0.051844911 -0.0037322916)
(0.22469665 -0.045526956 -0.003855657)
(0.22485267 -0.039248083 -0.0038981583)
(0.225039 -0.033159076 -0.0039375056)
(0.2252305 -0.027096685 -0.0039135803)
(0.22544393 -0.02112787 -0.0039008328)
(0.22568623 -0.015180683 -0.0038441759)
(0.22594862 -0.0092555506 -0.0037989998)
(0.22626665 -0.0033481984 -0.0037518811)
(0.22657741 0.0025909982 -0.0037014821)
(0.22696133 0.0085516237 -0.0036797585)
(0.22735343 0.01456907 -0.003669469)
(0.22779782 0.020653879 -0.0036778877)
(0.22821477 0.026859492 -0.0037340663)
(0.22881021 0.033130255 -0.0038197841)
(0.22229585 0.040259355 -0.0043616106)
(0.21572974 0.040348928 -0.0044721454)
(0.2092745 0.040529519 -0.004613508)
(0.20283551 0.040666618 -0.0047292373)
(0.19643219 0.040779159 -0.0048734689)
(0.19005591 0.040855545 -0.0050083675)
(0.18371084 0.040895833 -0.0051484429)
(0.17740006 0.040898358 -0.0052907624)
(0.17113172 0.040857602 -0.0054290135)
(0.16490897 0.040780656 -0.0055703331)
(0.15873844 0.04065847 -0.0057054009)
(0.15262563 0.040498788 -0.0058399186)
(0.14657439 0.040296099 -0.0059696721)
(0.14058899 0.040055334 -0.0060988094)
(0.13467846 0.039772794 -0.0062209028)
(0.12884647 0.039452088 -0.006338169)
(0.12309829 0.03909234 -0.0064481285)
(0.11743691 0.038694062 -0.0065526551)
(0.11186796 0.038260065 -0.0066505833)
(0.10639557 0.037787809 -0.0067411982)
(0.10102288 0.037283126 -0.0068253096)
(0.095755318 0.036741751 -0.0069015991)
(0.090594283 0.036171309 -0.0069712013)
(0.085545518 0.035565985 -0.0070326916)
(0.080609284 0.034935461 -0.0070873047)
(0.075791333 0.034274607 -0.0071345372)
(0.071085155 0.033589117 -0.0071749265)
(0.066526727 0.032865712 -0.0072005104)
(0.062063517 0.032142179 -0.007227718)
(0.057738915 0.031381761 -0.0072442553)
(0.053538087 0.030608162 -0.007254951)
(0.049466576 0.029815172 -0.0072575495)
(0.045523026 0.029007291 -0.0072540483)
(0.041709487 0.028184436 -0.0072440694)
(0.038025546 0.027349946 -0.0072280879)
(0.034471831 0.02650406 -0.0072060854)
(0.031048221 0.025649525 -0.0071788147)
(0.027754812 0.024786801 -0.0071457571)
(0.024591311 0.023918585 -0.0071079103)
(0.021557427 0.023045025 -0.0070646116)
(0.018652827 0.022169075 -0.0070168685)
(0.015876938 0.021290582 -0.0069636965)
(0.01322918 0.02041273 -0.0069064682)
(0.010708848 0.019535056 -0.0068436392)
(0.0083151042 0.0186612 -0.0067769503)
(0.0060469643 0.017790124 -0.0067044157)
(0.0039033543 0.016926118 -0.0066280941)
(0.0018828676 0.01606758 -0.0065457029)
(-1.5833814e-05 0.015219167 -0.0064594611)
(-0.0017945369 0.014379078 -0.006366976)
(-0.0034551645 0.013551745 -0.0062706123)
(-0.0049998739 0.012735938 -0.0061682392)
(-0.0064307593 0.01193466 -0.0060614353)
(-0.0077507371 0.01114756 -0.0059495063)
(-0.0089634205 0.010379045 -0.0058341891)
(-0.010068201 0.0096221459 -0.0057107668)
(-0.011074318 0.0088902726 -0.0055889186)
(-0.011980211 0.0081719315 -0.0054566719)
(-0.012784551 0.0074667774 -0.0053233397)
(-0.013502198 0.0067917167 -0.005188865)
(-0.014135192 0.0061347117 -0.0050512305)
(-0.014663544 0.0054805155 -0.0049033201)
(-0.015127451 0.0048698704 -0.0047658344)
(-0.015500501 0.0042602973 -0.0046188712)
(-0.015802037 0.0036801866 -0.0044728291)
(-0.016018128 0.0031073244 -0.004322612)
(-0.01617017 0.0025706661 -0.0041703861)
(-0.016240899 0.0020339261 -0.0040185728)
(-0.016248321 0.0015341172 -0.0038648805)
(-0.016183922 0.0010418579 -0.003707767)
(-0.016054457 0.00057744052 -0.003550545)
(-0.015858129 0.00013066162 -0.0033841022)
(-0.015595327 -0.00029559452 -0.003218256)
(-0.015268179 -0.00069305181 -0.0030458663)
(-0.014887632 -0.0010667159 -0.0028683225)
(-0.014433878 -0.0014228938 -0.0026843933)
(-0.01393556 -0.0017335001 -0.0024913822)
(-0.013370429 -0.0020350191 -0.0022949225)
(-0.012761718 -0.0022828348 -0.0020855115)
(-0.012099441 -0.0025166614 -0.0018694236)
(-0.011392758 -0.0026981183 -0.0016443214)
(-0.010642045 -0.0028513474 -0.0014122653)
(-0.0098656646 -0.0029594324 -0.0011669518)
(-0.009053081 -0.003034296 -0.00091882742)
(-0.0082162522 -0.003057715 -0.00066342158)
(-0.0073706943 -0.0030435763 -0.00040147419)
(-0.0065147148 -0.0029802108 -0.00014117627)
(-0.0056633925 -0.0028817924 0.00011690575)
(-0.0048138403 -0.0027344171 0.0003631704)
(-0.0040013896 -0.0025460774 0.0005991056)
(-0.0032103874 -0.0023043558 0.00079790277)
(-0.0024984657 -0.0020077745 0.00096156749)
(-0.0017843878 -0.0017585697 0.0010808451)
(-0.0011876924 -0.0013098714 0.00099712749)
(-0.00089863574 -0.0009834274 0.00073976588)
(0 0 0)
(0 0 0)
(0 0 0)
(0 0 0)
(0 0 0)
(0 0 0)
(0 0 0)
(0 0 0)
(0 0 0)
(0 0 0)
(0 0 0)
(0 0 0)
(0 0 0)
(0 0 0)
(0 0 0)
(0 0 0)
(0 0 0)
(0 0 0)
(0 0 0)
(0 0 0)
(0 0 0)
(0 0 0)
(0 0 0)
(0 0 0)
(0 0 0)
(0 0 0)
(0 0 0)
(0 0 0)
(0 0 0)
(0 0 0)
(0.22472541 -0.058665753 -0.0036287566)
(0.22473754 -0.058762478 -0.003640872)
(0.22473263 -0.058818829 -0.0036529184)
(0.22473318 -0.058869477 -0.0036529168)
(0.22472916 -0.058905196 -0.0036475632)
(0.22472158 -0.058931133 -0.0036300431)
(0.22470635 -0.058946567 -0.0036121082)
(0.22468533 -0.058954402 -0.0035852758)
(0.22465843 -0.058956782 -0.0035627426)
(0.22462117 -0.058950231 -0.0035419823)
(0.22459179 -0.058945479 -0.003521593)
(0.2245386 -0.058913922 -0.0035146392)
(0.22449837 -0.058889126 -0.0035118253)
(0.22444584 -0.058836113 -0.0035184759)
(0.22440635 -0.058787123 -0.0035370998)
(0.22973435 0.040228494 -0.0038345761)
(0.22974527 0.040261457 -0.0038127844)
(0.22974727 0.040300631 -0.0038298678)
(0.2297606 0.040329534 -0.0038425505)
(0.22975147 0.040338482 -0.0038587102)
(0.22974764 0.040344299 -0.0038907049)
(0.22973466 0.040348643 -0.0039186707)
(0.22971553 0.040343436 -0.0039542612)
(0.22968896 0.040336414 -0.0039869484)
(0.22965399 0.040323447 -0.0040154768)
(0.22961422 0.040300894 -0.004041546)
(0.22956541 0.040272975 -0.0040598129)
(0.22951841 0.040240815 -0.0040553999)
(0.22945993 0.040161816 -0.0040829376)
(0.22941979 0.040146017 -0.0040605036)
(-0.00055176431 -0.00074006434 -0.0010653978)
(-0.0012248795 -0.0010696861 -0.0010781556)
(-0.0018473106 -0.001517088 -0.0012666294)
(-0.0025941538 -0.0018666045 -0.0012471908)
(-0.0033202925 -0.002169503 -0.0012532349)
(-0.0041224077 -0.0024501016 -0.0011913043)
(-0.0049283275 -0.0026674615 -0.0011370328)
(-0.0057785275 -0.002874059 -0.0010493698)
(-0.0066221371 -0.0030086422 -0.00098013049)
(-0.0074706046 -0.00312753 -0.00089985626)
(-0.0083220241 -0.0031878824 -0.00081935542)
(-0.009144326 -0.0032211779 -0.00075359645)
(-0.0099582434 -0.0031992105 -0.00068714677)
(-0.010733539 -0.0031539201 -0.00062959976)
(-0.011483957 -0.0030574544 -0.00057956583)
(-0.012181089 -0.0029340071 -0.0005398445)
(-0.012848512 -0.0027685413 -0.00050356039)
(-0.013454526 -0.0025767997 -0.00048035742)
(-0.014015109 -0.0023470451 -0.00046126731)
(-0.014511911 -0.0020932983 -0.00045090909)
(-0.014961492 -0.0018061854 -0.00044643648)
(-0.015337615 -0.0014986825 -0.00044726537)
(-0.015661926 -0.001157216 -0.00045352595)
(-0.015916123 -0.00080103583 -0.00046437068)
(-0.016107846 -0.00041296147 -0.00047842407)
(-0.016230851 -1.1440128e-05 -0.00049187565)
(-0.016289066 0.00042211364 -0.00051182001)
(-0.016276935 0.00086533929 -0.0005268231)
(-0.016194282 0.00133643 -0.00054525077)
(-0.016041589 0.0018257931 -0.00055950554)
(-0.015815718 0.0023311243 -0.00057523608)
(-0.01551227 0.0028579139 -0.00058614165)
(-0.015135424 0.0034027952 -0.00059586318)
(-0.014678318 0.0039654971 -0.00060252439)
(-0.014138909 0.0045476542 -0.00060682644)
(-0.013512467 0.0051429668 -0.00060701632)
(-0.01279945 0.0057614445 -0.00060735409)
(-0.011996848 0.0063898754 -0.00060530431)
(-0.011095017 0.0070376344 -0.00060010062)
(-0.010098829 0.0077004516 -0.00059514933)
(-0.0089988898 0.008376565 -0.00058834704)
(-0.0077939797 0.0090643501 -0.00058322483)
(-0.0064829413 0.0097695922 -0.00057740672)
(-0.0050583551 0.010482087 -0.00057379586)
(-0.0035226267 0.011207837 -0.00057153548)
(-0.0018687731 0.01194298 -0.00057016759)
(-9.7148478e-05 0.012686093 -0.00057275503)
(0.0017953823 0.013437532 -0.00057596642)
(0.0038102096 0.014195091 -0.00058315053)
(0.0059491357 0.014957802 -0.00059204512)
(0.0082130167 0.015724979 -0.00060434986)
(0.010603555 0.016494495 -0.00061853838)
(0.013120978 0.017266186 -0.00063615677)
(0.015766706 0.018037617 -0.00065546885)
(0.018540793 0.018809037 -0.00067811346)
(0.021444252 0.019577123 -0.00070236191)
(0.024477006 0.020343002 -0.00072974106)
(0.027639968 0.021102989 -0.00075906652)
(0.030932711 0.021857629 -0.0007912039)
(0.034356037 0.022604062 -0.00082554497)
(0.037909536 0.023342201 -0.00086309616)
(0.041593247 0.024069699 -0.00090303426)
(0.045406925 0.024785334 -0.00094622386)
(0.049350997 0.025487075 -0.00099209912)
(0.053421058 0.026176794 -0.0010426519)
(0.05762542 0.026845701 -0.001095012)
(0.061956245 0.027502516 -0.0011503343)
(0.066406821 0.028135596 -0.001209596)
(0.070984983 0.028749945 -0.0012704623)
(0.075683626 0.029339121 -0.0013379489)
(0.080504557 0.029908026 -0.001409051)
(0.085439802 0.030448794 -0.0014823738)
(0.090493819 0.030967901 -0.001561234)
(0.095655364 0.031452017 -0.0016398486)
(0.10092817 0.031917769 -0.0017248376)
(0.10630509 0.032336989 -0.0018078349)
(0.1117798 0.032747525 -0.0018991102)
(0.11735711 0.033095438 -0.0019838795)
(0.12301682 0.033446207 -0.0020814778)
(0.12877737 0.033723276 -0.0021675697)
(0.13460478 0.034000254 -0.002267757)
(0.14052712 0.034215843 -0.0023581639)
(0.14650936 0.034408086 -0.0024587819)
(0.15256417 0.034555439 -0.0025520705)
(0.15867906 0.034675803 -0.0026567448)
(0.16485808 0.034744678 -0.0027487019)
(0.17108881 0.034783664 -0.0028498304)
(0.17736052 0.034786922 -0.0029501879)
(0.18368118 0.03475355 -0.0030498137)
(0.1900269 0.034661673 -0.0031374064)
(0.19641427 0.034584938 -0.0032618335)
(0.20281425 0.034423807 -0.0033388206)
(0.20926274 0.03420683 -0.0034575605)
(0.21573555 0.034052853 -0.0035960397)
(0.22229509 0.033647313 -0.0037498127)
(-0.00035951088 -0.00065871027 -0.0008682572)
(-0.00098631474 -0.00072881377 -0.0010114638)
(-0.0017218826 -0.001203903 -0.0011033595)
(-0.0024185107 -0.0014125318 -0.0011557362)
(-0.0032079026 -0.0017116912 -0.0011425645)
(-0.0039920789 -0.0019338532 -0.0011113805)
(-0.0048519852 -0.0021535681 -0.0010568482)
(-0.0056863308 -0.0023253744 -0.0010053417)
(-0.006557971 -0.0024589447 -0.00095792194)
(-0.0074264839 -0.0025773991 -0.00088122253)
(-0.008288038 -0.0026359221 -0.00084533611)
(-0.0091297746 -0.002679065 -0.00078374244)
(-0.0099600408 -0.0026740819 -0.00074559274)
(-0.010753931 -0.0026485404 -0.00069871496)
(-0.011512278 -0.0025750804 -0.0006765668)
(-0.012233423 -0.0024856579 -0.00064210534)
(-0.01290706 -0.0023518283 -0.00063110167)
(-0.013530168 -0.0022024083 -0.00061368779)
(-0.014100548 -0.0020111997 -0.00061364115)
(-0.014615809 -0.0018094095 -0.00061058264)
(-0.015069719 -0.0015665539 -0.0006199935)
(-0.015463128 -0.001314077 -0.00062979341)
(-0.015795364 -0.0010258124 -0.00064780493)
(-0.016061392 -0.00072816291 -0.00066414798)
(-0.016261644 -0.00039856995 -0.00068703803)
(-0.01639594 -5.7970946e-05 -0.00071075713)
(-0.016463193 0.00031051288 -0.00073580698)
(-0.016460251 0.00068741631 -0.00075785084)
(-0.016386839 0.0010949193 -0.00078535521)
(-0.016244358 0.0015065902 -0.00080632433)
(-0.016025588 0.0019469791 -0.0008287928)
(-0.015732469 0.0023958454 -0.00084864688)
(-0.015365654 0.0028673349 -0.00086481394)
(-0.014913663 0.0033486385 -0.00088085435)
(-0.014383535 0.003848298 -0.00089071318)
(-0.01376634 0.00436215 -0.00090294625)
(-0.013060861 0.0048902378 -0.00090962667)
(-0.012262778 0.0054309859 -0.00091444458)
(-0.01137307 0.005985278 -0.000918404)
(-0.010382982 0.0065534939 -0.00092152765)
(-0.0092933625 0.007130457 -0.00092333557)
(-0.0080982143 0.0077213564 -0.00092400863)
(-0.0067925193 0.0083209503 -0.00092922671)
(-0.0053791664 0.0089302074 -0.00093039677)
(-0.003850462 0.0095490783 -0.0009351957)
(-0.0022048976 0.010174373 -0.00094069817)
(-0.00044194062 0.010807244 -0.00094751161)
(0.0014429922 0.011445696 -0.00095658419)
(0.0034495316 0.012089399 -0.00096767795)
(0.0055807151 0.012736256 -0.00098069153)
(0.0078366246 0.013387336 -0.00099591071)
(0.010219711 0.014038304 -0.0010132808)
(0.01272926 0.01469224 -0.0010326805)
(0.015367957 0.015343611 -0.0010542005)
(0.01813445 0.01599548 -0.0010776574)
(0.021031094 0.016642704 -0.0011029535)
(0.024056847 0.017288271 -0.0011306506)
(0.02721327 0.017926406 -0.0011596372)
(0.030499399 0.018560618 -0.0011912156)
(0.033916885 0.019185296 -0.0012245273)
(0.037464027 0.019802853 -0.0012601004)
(0.04114249 0.02040936 -0.0012980363)
(0.044950955 0.021004589 -0.0013376753)
(0.048888835 0.021587861 -0.0013811085)
(0.052956564 0.022158871 -0.0014264123)
(0.057156081 0.022712077 -0.0014725655)
(0.061467353 0.023252737 -0.0015237813)
(0.065915228 0.023768577 -0.0015745407)
(0.070490096 0.024267989 -0.0016358879)
(0.075188649 0.024745776 -0.0016946515)
(0.0800071 0.02520731 -0.0017588864)
(0.084942132 0.025638571 -0.001821124)
(0.089993693 0.026056214 -0.0018918567)
(0.095156485 0.026432986 -0.0019557773)
(0.1004303 0.026806142 -0.0020355439)
(0.10580693 0.027121963 -0.0020988015)
(0.11128612 0.027447745 -0.0021868567)
(0.11686318 0.027697939 -0.0022487787)
(0.12253045 0.027973849 -0.0023449871)
(0.12828985 0.028155468 -0.0024034988)
(0.13412912 0.028373131 -0.0025057873)
(0.14005083 0.0284985 -0.0025679433)
(0.14604377 0.028634662 -0.0026608918)
(0.15210856 0.028704997 -0.0027415405)
(0.15824382 0.028777832 -0.0028335712)
(0.16442404 0.028780675 -0.0029067186)
(0.17066744 0.028779382 -0.0030001033)
(0.17694124 0.02872607 -0.003079183)
(0.1832841 0.028626348 -0.0031619577)
(0.18962776 0.028532202 -0.0032669012)
(0.1960438 0.028355981 -0.0033466409)
(0.20244673 0.028152824 -0.0034511424)
(0.20892213 0.027933351 -0.0035722176)
(0.21540883 0.027632307 -0.0036998136)
(0.22200071 0.027285948 -0.0038555159)
(-0.00030250444 -0.00045901831 -0.0007387035)
(-0.00095685407 -0.00057174825 -0.00082201334)
(-0.0015622 -0.00086848892 -0.00097223085)
(-0.0023155011 -0.0010775527 -0.0010114657)
(-0.0030794051 -0.0012959614 -0.001017686)
(-0.0039227379 -0.0015191714 -0.00098476886)
(-0.004756676 -0.0016862235 -0.00096980581)
(-0.0056285273 -0.0018453578 -0.0009402977)
(-0.0065186676 -0.0019703441 -0.00088630436)
(-0.0073941366 -0.0020733615 -0.00086626202)
(-0.0082722366 -0.0021334263 -0.00082658339)
(-0.0091322187 -0.002184247 -0.00079771089)
(-0.009976216 -0.0021898117 -0.00076898054)
(-0.010775367 -0.0021757184 -0.00075803536)
(-0.011558685 -0.0021307723 -0.00073451933)
(-0.012283612 -0.002062494 -0.00073263508)
(-0.012975611 -0.0019645756 -0.00072544417)
(-0.013604715 -0.0018445689 -0.00073225676)
(-0.014193709 -0.0017005983 -0.00073722761)
(-0.014711076 -0.0015337361 -0.0007526604)
(-0.015181649 -0.00134313 -0.00076963016)
(-0.015580763 -0.0011372399 -0.00079195612)
(-0.015924841 -0.00090397022 -0.00081652804)
(-0.016196319 -0.00066123566 -0.00084436324)
(-0.016409446 -0.00038852434 -0.00087721035)
(-0.016550487 -0.00011123907 -0.00090606006)
(-0.016625805 0.00019480472 -0.00094039008)
(-0.016630444 0.00050807433 -0.00097302448)
(-0.016567451 0.00084375739 -0.0010060214)
(-0.016429751 0.0011891522 -0.0010351421)
(-0.016219644 0.0015545897 -0.0010678527)
(-0.015936531 0.0019290576 -0.0010925063)
(-0.01557233 0.0023213074 -0.0011204527)
(-0.015130928 0.0027232894 -0.0011421844)
(-0.01460835 0.0031422871 -0.0011641175)
(-0.013997931 0.0035692635 -0.0011822607)
(-0.013302743 0.0040119692 -0.0011973671)
(-0.012518132 0.0044621453 -0.0012113861)
(-0.011630995 0.004926795 -0.0012244697)
(-0.010649496 0.0053952221 -0.0012365259)
(-0.009565508 0.005878991 -0.0012463018)
(-0.0083765927 0.0063686545 -0.0012592639)
(-0.0070795408 0.0068671837 -0.0012663567)
(-0.0056720093 0.0073726077 -0.001277043)
(-0.0041491056 0.0078847653 -0.0012890219)
(-0.0025118615 0.0084023699 -0.0012996485)
(-0.00075447649 0.0089257033 -0.0013136967)
(0.001122731 0.0094528039 -0.0013275953)
(0.0031229805 0.0099837215 -0.0013440591)
(0.005246773 0.010516852 -0.0013608308)
(0.0074964688 0.011052162 -0.0013807611)
(0.0098721319 0.011587452 -0.0014005051)
(0.01237568 0.012123834 -0.0014237019)
(0.015007242 0.012657412 -0.00144665)
(0.017767627 0.013190619 -0.0014725963)
(0.020657821 0.013719077 -0.0014989779)
(0.023677445 0.014244756 -0.0015276779)
(0.026827776 0.014763677 -0.0015568793)
(0.030108376 0.015277986 -0.0015889284)
(0.033519883 0.015782931 -0.0016210465)
(0.037062003 0.016281104 -0.0016562298)