/*--------------------------------*- C++ -*----------------------------------*\
  =========                 |
  \\      /  F ield         | OpenFOAM: The Open Source CFD Toolbox
   \\    /   O peration     | Website:  https://openfoam.org
    \\  /    A nd           | Version:  6
     \\/     M anipulation  |
\*---------------------------------------------------------------------------*/
FoamFile
{
    version     2.0;
    format      ascii;
    class       pointVectorField;
    location    "0.43";
    object      lm;
}
// * * * * * * * * * * * * * * * * * * * * * * * * * * * * * * * * * * * * * //

dimensions      [1 -2 -1 0 0 0 0];

internalField   nonuniform List<vector> 
625
(
(-3.6361799e-15 2.112754e-16 -3.2990721e-16)
(2.8178306e-17 1.9013092e-16 6.1994168e-17)
(1169.7963 -357.97036 -52.94078)
(1078.2875 -726.45444 213.75145)
(6.5239771e-16 2.739523e-16 -5.5565719e-16)
(-3.7042918e-15 1.4868296e-15 -1.3023874e-15)
(841.43277 -594.66407 209.89079)
(944.83742 -234.53005 -52.827427)
(-1.9658614e-16 -3.2115893e-17 -1.1045223e-16)
(1.4766345e-16 -3.4299605e-16 -2.8648028e-16)
(-1.0135278e-15 7.0169807e-16 1.7538027e-16)
(1051.7196 -411.37081 8.9853135)
(1063.9766 -510.46302 71.221104)
(1130.1054 -646.05521 147.16206)
(24.746384 31.25763 22.510432)
(67.44203 52.940141 7.9771856)
(120.48246 57.284039 5.3998737)
(174.60297 49.098505 2.7998775)
(222.13961 28.393123 1.8243266)
(266.28192 3.3676702 3.7904127)
(297.18013 -25.040935 4.5171969)
(321.41061 -52.187042 6.946396)
(339.89527 -73.261445 8.1562576)
(354.12017 -88.930785 10.112229)
(369.23657 -97.64477 11.406742)
(388.9331 -101.06225 12.374542)
(414.94657 -102.10071 12.541165)
(450.49097 -103.19233 11.487916)
(495.17195 -107.3503 8.7926521)
(549.75212 -116.4909 4.4389984)
(611.65895 -131.56996 -1.2934217)
(680.59399 -151.93609 -8.8760105)
(752.6491 -178.08263 -16.144498)
(827.24829 -208.28584 -25.226564)
(902.99439 -241.15614 -32.819187)
(976.94818 -274.49648 -40.535455)
(1049.3758 -309.27872 -45.57716)
(1.9197558 -17.361645 -33.108027)
(58.611429 -38.633412 24.783721)
(119.35755 -70.509167 49.262365)
(168.04068 -82.411487 88.136673)
(212.34525 -88.057377 114.03684)
(253.95107 -104.14808 141.63209)
(283.22656 -106.1355 160.67982)
(304.57073 -115.71109 178.85619)
(317.92384 -124.00684 189.24572)
(325.66877 -135.02957 196.61169)
(332.56196 -151.25782 199.84534)
(340.16711 -171.43428 201.04927)
(353.96369 -198.70056 201.61417)
(375.3829 -232.56878 201.98168)
(407.13574 -273.17528 203.30989)
(450.0732 -319.99406 205.27445)
(504.64087 -371.90128 207.81727)
(569.93427 -427.21363 210.70979)
(644.4738 -483.44974 213.351)
(726.03155 -539.1949 215.42076)
(811.46856 -591.53432 216.35451)
(897.74087 -639.61717 216.30141)
(987.30654 -683.88265 214.5084)
(-4.8813632e-16 1.9183015e-16 -1.0607077e-16)
(-2.6214496e-15 -5.6404768e-16 7.244144e-16)
(-2.4010456e-15 1.4295629e-15 -1.6975308e-16)
(7.5837836 -27.590073 42.873714)
(19.645601 -95.776701 64.045657)
(59.226698 -93.910996 76.101794)
(74.92522 -105.14514 95.499585)
(100.50173 -117.6066 121.82066)
(119.88041 -105.99169 136.23618)
(126.23912 -100.82239 161.32608)
(134.98802 -91.758178 178.28016)
(134.77744 -85.442751 194.68366)
(134.08056 -83.679132 209.64805)
(134.17056 -87.611552 221.55217)
(138.07826 -100.02577 231.90214)
(148.14732 -119.21657 239.63386)
(165.96179 -146.69329 246.01041)
(193.78774 -181.43622 250.31826)
(232.5196 -221.89519 252.39817)
(282.86443 -267.80501 252.31882)
(343.87472 -316.55713 249.85186)
(414.30278 -366.72141 245.41741)
(491.65797 -416.35913 239.20078)
(573.55228 -463.56937 232.06699)
(657.16565 -507.11191 223.62001)
(736.35486 -542.75164 214.50566)
(894.75952 -514.49115 146.48232)
(833.49705 -384.31625 71.236934)
(864.5123 -303.65362 10.61294)
(840.67503 -192.51785 -46.079081)
(768.67768 -157.70566 -40.727606)
(690.51745 -123.15832 -36.630672)
(612.20907 -91.966408 -32.713599)
(534.46198 -64.403748 -29.360085)
(459.37362 -41.717165 -26.722661)
(389.38213 -25.321704 -24.047098)
(326.44875 -14.954046 -21.531444)
(273.12688 -10.830627 -18.255571)
(230.6051 -12.018495 -13.927351)
(199.82123 -16.932706 -8.378447)
(180.06739 -24.329627 -0.88324022)
(169.97775 -31.714104 7.2523032)
(167.34445 -36.000354 15.376958)
(164.43817 -35.693385 23.684789)
(163.90079 -33.084464 29.494461)
(157.41898 -23.453389 31.375329)
(144.14683 -11.323954 31.043066)
(120.45868 5.2976544 24.362978)
(87.77149 12.687782 16.150052)
(58.08435 24.471518 3.6475562)
(14.902229 19.982186 -10.162967)
(1.928176 17.398623 -14.804115)
(-1.3028228e-15 -3.4252847e-16 3.3068324e-16)
(-2.0449562e-15 -3.5718549e-16 -7.3673077e-16)
(-1.4121951e-15 -1.0527101e-15 6.223458e-16)
(-1.2019486e-15 6.189313e-16 -3.4292956e-16)
(-1.2511779e-16 -6.848356e-17 2.1836215e-16)
(-3.8898857e-17 4.7141393e-16 -3.1043199e-16)
(1017.5213 -696.07818 211.63102)
(958.71642 -662.86778 211.77959)
(898.68705 -630.16967 210.72583)
(1114.3185 -326.6741 -52.548064)
(1058.0113 -296.65152 -52.556328)
(1001.2848 -265.79372 -52.788194)
(12.989705 7.6404877 13.542147)
(53.753352 16.686304 4.1526766)
(98.666801 17.275939 18.367584)
(152.1914 6.7608273 22.670699)
(203.48838 -5.8188912 34.180563)
(255.34628 -27.407512 39.741431)
(294.08223 -49.159743 48.191958)
(327.48857 -70.666603 53.522703)
(348.81476 -88.849464 59.113674)
(362.25275 -103.15446 62.727859)
(373.99443 -112.92619 65.462169)
(387.13496 -121.08925 66.773042)
(407.45915 -129.52721 66.702802)
(437.46325 -140.83277 64.916342)
(477.99089 -156.25084 61.874664)
(528.21406 -176.70389 57.428062)
(585.64904 -200.88585 51.73972)
(648.49047 -228.52041 45.388963)
(713.4188 -258.44 38.767068)
(781.06005 -288.64296 31.940149)
(848.52935 -320.08657 25.787737)
(916.88055 -350.76977 19.895687)
(993.01409 -385.22282 14.9415)
(4.0417554 7.921282 8.3950259)
(56.350824 16.54977 16.644194)
(113.86441 11.131304 32.389205)
(175.28175 -1.4000849 47.470631)
(231.68144 -22.380089 60.995698)
(275.44689 -44.995266 74.822343)
(307.90386 -64.347424 85.547423)
(328.13719 -84.411157 94.947069)
(338.06039 -98.41392 100.65421)
(343.397 -111.49334 104.79695)
(347.21626 -122.00486 106.40512)
(354.08421 -133.11423 106.76074)
(367.67024 -145.95514 105.84025)
(389.97354 -162.01396 104.61471)
(422.95895 -182.61482 102.96483)
(466.98559 -208.25342 101.10255)
(522.16353 -238.92531 98.89487)
(588.10409 -274.67913 96.616241)
(663.10346 -314.15423 93.805298)
(745.97714 -356.91832 90.459136)
(834.42482 -401.4106 87.291736)
(927.15982 -447.15214 83.377595)
(1017.1534 -489.80401 78.908249)
(-1.7977945 12.004294 -4.0922718)
(74.39833 10.179238 19.675005)
(137.39181 -6.9361502 50.15243)
(202.15392 -34.380134 77.318335)
(247.4557 -57.834283 101.39222)
(282.41159 -75.233225 119.75652)
(303.42941 -94.081222 133.14061)
(314.24204 -106.25787 141.02343)
(318.4137 -117.17275 146.03619)
(319.83482 -127.28229 148.01841)
(321.86488 -136.61634 148.84584)
(327.99578 -148.99876 149.03651)
(340.08394 -164.0317 149.35401)
(360.64092 -184.19677 149.99592)
(391.22075 -210.06383 150.92604)
(433.32087 -242.60512 152.26311)
(488.47574 -282.01439 153.54836)
(556.43653 -327.91755 154.74085)
(637.27834 -379.58461 155.33501)
(728.87944 -435.20707 155.63465)
(829.09787 -492.2202 154.78915)
(932.6581 -549.4563 153.28205)
(1028.5481 -596.93237 149.57028)
(-2.5953868e-15 -2.1703571e-16 4.2716933e-18)
(-3.8783653e-15 3.5858996e-16 7.5215743e-16)
(-9.8459492e-16 7.8127033e-16 2.7525688e-16)
(-3.9146975e-16 7.8165185e-18 1.2560621e-16)
(1.6350797e-16 -2.4226884e-16 -1.2066667e-17)
(-1.0304172e-15 -9.2669207e-16 -7.5672327e-16)
(-6.4481012e-16 3.525084e-16 2.7116342e-16)
(-3.5205005e-15 9.4737515e-16 -2.5196009e-17)
(-3.8147498e-15 1.043275e-15 1.2924308e-16)
(17.188566 -13.96742 -10.508635)
(19.78623 -18.110462 8.3287913)
(18.528922 -7.4696566 20.790438)
(58.901674 -83.393346 31.877252)
(45.690722 -80.71727 39.248444)
(38.597622 -74.143328 53.151103)
(103.76776 -88.946195 56.471454)
(92.410458 -80.708798 64.173896)
(77.007769 -93.058909 72.039973)
(141.28163 -96.182884 91.680978)
(121.29559 -100.43256 94.166402)
(98.853333 -92.048269 95.598491)
(185.7279 -108.2455 117.57558)
(156.46941 -104.71006 118.77521)
(130.05051 -104.21038 120.05287)
(217.03401 -108.01822 142.79062)
(182.82044 -103.10827 142.87979)
(151.65875 -98.361528 140.80099)
(242.33064 -108.9022 163.20693)
(204.53635 -105.09805 164.7007)
(167.65534 -92.828456 163.63936)
(262.21303 -112.03019 182.02335)
(216.41023 -102.54644 180.78595)
(177.95772 -90.404533 180.54824)
(272.37507 -115.23547 193.18116)
(226.30428 -104.17082 194.98614)
(182.83078 -88.04034 195.02954)
(280.74632 -123.74027 201.98124)
(231.49295 -109.16935 204.77343)
(185.0477 -91.440102 207.74892)
(286.62169 -135.48052 206.9227)
(236.74331 -119.23155 212.43489)
(188.04793 -100.14596 216.91301)
(295.53939 -154.94331 210.45893)
(244.92759 -137.27913 217.70287)
(194.15307 -116.19185 224.5409)
(309.47698 -180.75726 212.55027)
(258.40667 -161.32541 221.97254)
(205.99925 -138.73157 230.52323)
(330.96256 -214.01474 214.76456)
(279.40017 -193.02234 225.96728)
(225.3996 -168.2316 235.6177)
(362.05876 -253.87526 217.01407)
(309.83202 -231.25769 229.12783)
(254.2629 -205.1028 239.58021)
(403.76883 -300.15879 219.23632)
(350.49314 -275.69059 232.00165)
(293.70433 -247.64802 242.22912)
(456.39061 -350.97056 221.45771)
(402.23398 -324.40728 233.62829)
(344.19709 -295.40554 243.2042)
(519.30547 -404.78269 222.94444)
(463.92377 -376.42829 234.05477)
(405.25199 -346.42134 242.34741)
(591.13508 -459.30665 223.72906)
(534.97621 -429.12315 233.11853)
(475.55349 -398.6284 239.7863)
(669.67747 -512.92043 223.41734)
(612.39579 -481.45866 230.6149)
(553.00063 -450.1875 235.45569)
(752.38478 -563.01127 222.00762)
(694.94594 -530.62783 226.77245)
(635.29695 -499.10173 230.20397)
(836.80849 -608.83051 218.95654)
(778.55842 -575.79334 221.49789)
(719.2958 -544.01746 223.50434)
(920.47328 -648.61401 214.17273)
(861.68896 -615.58948 215.5583)
(803.26731 -583.44354 216.05632)
(1008.6096 -385.65138 9.7172448)
(956.11134 -357.36266 10.193497)
(903.07499 -327.97221 10.154719)
(998.15921 -475.2231 71.022403)
(947.15666 -447.4578 71.497283)
(893.02044 -417.19126 71.272223)
(1060.5506 -608.06121 145.30967)
(1006.0835 -578.96551 145.77099)
(945.96154 -545.10945 145.71668)
(31.612238 31.489437 6.6065942)
(23.40432 26.969374 -1.7222273)
(21.343906 15.735739 -8.2505943)
(62.401235 48.011927 -2.7552695)
(49.133919 33.846527 -4.7913286)
(34.076762 25.099328 -8.2022866)
(109.54042 52.721514 4.8213976)
(90.159866 42.50568 6.8442741)
(75.427262 31.778613 4.6999192)
(149.0975 42.854417 7.4316504)
(130.3381 28.309631 10.263209)
(107.06887 18.273665 12.737784)
(195.66529 26.644785 12.579732)
(167.62308 16.724932 17.563845)
(141.21981 8.8099731 21.002687)
(227.66851 3.0762728 15.208479)
(197.77402 -4.9016758 21.053758)
(166.95322 -11.502345 28.503623)
(256.33073 -20.944648 17.658128)
(222.16454 -24.425419 22.964163)
(186.52456 -28.43089 28.174841)
(277.16936 -43.429442 18.670472)
(238.01726 -44.179351 23.012714)
(198.4615 -43.001955 27.809604)
(292.74478 -62.180001 17.493563)
(248.74623 -56.615958 21.434507)
(205.70874 -51.30422 22.94666)
(303.15349 -74.553825 16.993538)
(259.45293 -63.66395 17.360587)
(211.65242 -55.883319 17.304186)
(319.48757 -81.360833 15.109398)
(271.16263 -67.425811 14.124636)
(221.81433 -54.924341 10.919308)
(338.01051 -84.21747 13.21304)
(288.42924 -65.834883 9.8470939)
(236.41428 -50.664237 4.5905729)
(364.93477 -83.966767 10.743025)
(313.47576 -63.060023 5.7101811)
(259.92359 -44.973964 -1.5255224)
(400.49059 -84.075569 7.9267721)
(347.87601 -61.160021 1.7157796)
(293.17012 -40.794199 -6.2691047)
(445.65897 -86.865804 4.4798971)
(392.33684 -62.482819 -2.0478879)
(336.75333 -40.265263 -10.398541)
(500.17865 -94.153763 0.1977771)
(446.1446 -68.738153 -6.1845956)
(390.12291 -44.930124 -14.049854)
(562.28938 -107.09072 -5.2548857)
(507.94277 -80.794702 -10.622414)
(451.7603 -55.608512 -17.461108)
(630.80192 -125.74359 -11.475903)
(576.18101 -99.063315 -15.606348)
(519.98798 -72.619546 -21.4452)
(703.02339 -150.13644 -18.2685)
(648.42423 -122.56243 -21.435358)
(592.12827 -94.990426 -25.507394)
(777.8396 -179.24077 -25.658744)
(722.89041 -151.4122 -27.431978)
(667.05726 -122.83469 -30.198932)
(852.43288 -211.0973 -32.777407)
(797.92333 -182.65398 -33.457781)
(742.40177 -153.45405 -35.228793)
(926.86914 -245.24099 -39.621068)
(872.70416 -216.5624 -39.950899)
(817.30726 -187.08142 -40.356019)
(1001.3846 -280.78188 -45.629354)
(946.9035 -251.66712 -45.801994)
(892.03815 -221.95952 -45.878583)
(-7.5417462 -0.0047419925 -0.6641834)
(11.160337 4.0344263 4.0728822)
(37.557165 -12.067641 16.067498)
(72.440801 -13.966326 26.23817)
(103.63916 -23.457859 35.982107)
(131.98062 -33.009611 49.235901)
(153.98529 -37.776025 56.062683)
(164.35818 -42.709114 62.605221)
(170.1074 -43.447728 64.138987)
(170.37389 -40.954248 64.581045)
(171.20355 -37.913332 62.768164)
(178.09895 -34.593474 59.983453)
(194.89936 -35.216728 57.493892)
(224.03212 -40.83769 55.185911)
(265.76883 -52.17261 52.879976)
(318.39122 -69.550806 50.429887)
(379.41925 -92.063886 47.354718)
(445.31844 -118.63683 43.457584)
(513.61023 -147.79507 38.774607)
(582.27536 -178.19659 33.511883)
(649.79098 -208.77981 27.791727)
(716.97324 -239.6069 21.524945)
(779.93424 -268.2074 15.584272)
(-8.7562426 2.2601506 8.9811754)
(12.696061 -12.262244 23.235562)
(50.339709 -21.816977 40.098735)
(82.838546 -31.738794 53.830423)
(116.8835 -41.334048 70.411035)
(142.33558 -53.632765 84.465439)
(155.17889 -57.87654 95.607963)
(160.96776 -62.423366 105.64381)
(159.12651 -60.96789 112.81805)
(154.83972 -59.840656 118.27856)
(152.78192 -58.04971 120.25306)
(156.902 -59.258297 120.61235)
(168.99791 -65.28072 119.23371)
(190.97983 -76.256575 116.76187)
(223.04833 -92.785878 113.8044)
(265.26473 -114.37044 110.6146)
(317.18505 -140.503 106.91967)
(377.78086 -170.59061 102.79631)
(445.82043 -203.76774 98.575322)
(520.29815 -239.81244 93.732108)
(599.29245 -276.99824 88.874582)
(682.63678 -316.15587 83.463368)
(777.46486 -359.62449 79.516527)
(-21.901587 -22.885662 32.897458)
(32.360924 -30.502115 50.119266)
(66.059084 -77.653033 69.10213)
(97.170117 -80.804827 82.083512)
(124.08909 -96.86728 101.67957)
(136.66984 -103.97355 116.38065)
(140.75467 -97.808566 131.78073)
(139.44279 -93.691413 143.17786)
(136.05302 -86.553471 151.86165)
(132.68837 -81.311815 157.2847)
(132.17633 -79.310701 161.0497)
(135.82168 -82.153194 164.00781)
(145.19475 -90.357631 166.63042)
(161.73559 -103.51917 169.34478)
(187.48119 -122.91028 172.25404)
(224.03223 -148.17637 174.61778)
(272.88907 -179.82792 176.16522)
(334.51223 -217.97547 176.4885)
(408.64643 -261.91841 175.09868)
(493.76387 -310.45522 171.9051)
(587.36959 -361.71458 167.13051)
(685.93326 -413.78004 160.50619)
(789.56563 -465.44107 154.15578)
(10.542757 1.630522 5.9577993)
(6.0506198 1.2803623 2.039757)
(7.0543093 -2.3957001 -1.9316866)
(50.531248 14.616106 1.7872078)
(42.517166 7.6527767 3.7069957)
(27.422241 6.6875167 3.17371)
(87.256963 9.1259514 17.15366)
(68.678251 -1.5695461 17.529479)
(56.761885 -2.9009907 16.395578)
(130.89856 4.627114 25.077367)
(113.38511 -5.4953268 24.922476)
(93.581658 -8.9069826 25.849508)
(176.16051 -8.5088884 35.970476)
(151.59316 -19.370347 37.505662)
(127.48201 -19.26785 38.803144)
(219.2899 -25.569999 45.008417)
(188.21586 -32.551938 46.934793)
(160.18431 -31.08513 48.577704)
(252.83034 -43.802113 53.45627)
(218.0871 -46.807214 54.430909)
(185.70049 -43.580079 57.416472)
(281.71723 -61.054235 58.610968)
(241.34223 -60.692277 60.218474)
(202.47559 -52.568324 63.574451)
(299.51989 -76.805342 64.011746)
(254.8973 -70.196888 64.184486)
(212.26503 -59.643982 66.399745)
(312.69545 -87.171036 65.876587)
(265.21001 -76.83506 65.230765)
(218.36842 -62.279426 66.022972)
(324.37094 -95.654796 67.022048)
(274.12631 -80.853425 65.14201)
(223.46603 -63.505167 64.941154)
(338.62026 -101.96051 66.606901)
(286.80904 -83.610389 63.983814)
(233.75653 -63.259131 62.28662)
(360.5219 -108.98052 65.184087)
(307.72834 -88.051174 62.023702)
(252.72212 -65.625678 59.345612)
(392.13906 -118.85133 62.776104)
(338.52059 -96.20115 59.593768)
(282.78186 -71.762839 56.738067)
(434.17502 -133.12921 59.535398)
(380.34275 -109.16294 56.650337)
(324.31857 -83.258959 53.814684)
(485.60491 -152.26158 55.435396)
(431.66808 -127.23844 52.973845)
(375.81776 -100.24302 50.766304)
(544.22395 -175.61877 50.401665)
(490.31919 -150.12376 48.612101)
(434.82951 -122.13459 47.102982)
(607.25958 -202.77883 44.792171)
(553.57679 -176.51833 43.580175)
(498.88894 -148.01779 42.828518)
(672.7588 -232.29741 38.695254)
(619.39617 -205.50654 37.948054)
(564.86485 -176.30621 37.994392)
(740.77061 -262.76023 32.2923)
(684.76163 -234.96411 32.11718)
(632.10999 -206.14025 32.762936)
(805.25103 -293.3728 26.19907)
(751.46973 -265.59832 26.505382)
(698.88163 -236.47 27.048992)
(871.12167 -324.23664 20.187508)
(818.85572 -296.35515 20.231432)
(765.86453 -267.02754 21.092504)
(939.0646 -355.36925 15.081455)
(886.4497 -327.09889 14.946297)
(833.60066 -297.9513 15.656916)
(13.245804 4.3902948 5.4952068)
(7.8394555 3.1763335 0.93264621)
(6.8444432 4.2862882 3.2940208)
(52.34229 7.5175519 12.671468)
(40.501439 2.3865347 12.357705)
(25.857566 -3.025449 18.423916)
(105.10863 0.82083352 33.014383)
(82.96807 -4.5139278 37.431569)
(72.552374 -9.6030976 38.889126)
(152.50756 -10.682794 48.046275)
(129.95512 -19.545077 48.797078)
(107.47551 -27.433622 52.632192)
(204.79556 -29.20888 64.654402)
(171.97235 -33.800456 68.728942)
(145.07013 -34.897027 69.909717)
(239.2517 -46.790806 80.311371)
(204.56562 -48.475662 80.717561)
(174.09093 -49.654815 84.38848)
(268.83571 -63.335976 90.603096)
(230.78979 -62.049109 93.952567)
(192.99133 -59.44383 95.943974)
(286.4886 -79.349377 101.84099)
(243.23611 -74.057524 103.82546)
(201.95287 -65.504524 105.44829)
(295.19474 -90.690818 107.05904)
(249.36634 -80.429034 109.27699)
(205.45587 -69.247135 111.94614)
(300.34631 -100.53736 111.39985)
(252.70146 -87.00743 113.71709)
(205.32574 -72.165083 116.37109)
(304.8397 -109.09927 112.82312)
(255.46467 -92.50644 114.43513)
(206.35179 -74.482896 118.15598)
(312.61231 -118.32942 112.54846)
(263.07514 -98.951914 114.61393)
(212.03509 -78.957225 118.11488)
(327.20255 -129.79885 111.33315)
(277.44426 -108.7127 113.42239)
(225.03872 -87.364608 116.83656)
(349.82503 -144.70414 109.49374)
(300.38827 -122.67726 111.79591)
(246.99181 -99.811261 114.952)
(382.39177 -164.23301 107.32737)
(333.19875 -141.13776 109.97916)
(278.97766 -117.25631 112.50077)
(425.10414 -188.25125 104.83881)
(375.8605 -164.66115 107.62447)
(321.0034 -139.72744 109.87704)
(477.92769 -217.09415 101.98613)
(428.1026 -192.92848 104.98498)
(373.13178 -166.86736 106.76077)
(540.14811 -250.4926 98.786503)
(489.93346 -225.38549 101.71541)
(434.52628 -198.37471 103.05591)
(611.03317 -287.05958 95.275653)
(559.3598 -261.39641 98.044792)
(503.91161 -233.16691 99.107925)
(688.66725 -326.82086 91.159162)
(635.75166 -300.0619 93.944977)
(580.4838 -271.18691 94.595317)
(768.68085 -367.39281 87.477684)
(722.71028 -342.61657 90.153072)
(662.39494 -310.94092 89.784565)
(859.36649 -411.28404 82.880488)
(804.60853 -382.35808 84.184907)
(748.97542 -351.60333 84.592671)
(949.64928 -454.14938 78.443989)
(893.88779 -424.30952 79.262677)
(837.6915 -393.14983 79.533994)
(8.0865075 -5.292894 -3.2378596)
(-1.9205948 -1.6056358 9.050643)
(-2.5402695 -8.08644 17.323183)
(74.283372 -15.041328 21.583403)
(64.124024 -8.87391 33.118921)
(48.621581 -23.473814 40.93862)
(123.3284 -37.502713 53.746293)
(103.05154 -53.049685 60.180436)
(87.149098 -59.605244 64.200871)
(177.34659 -61.316866 79.499689)
(150.00699 -61.324492 82.013654)
(123.7309 -69.792487 82.247875)
(214.6919 -73.928538 106.6211)
(182.23726 -81.862989 106.16274)
(152.68689 -82.43317 105.13694)
(244.19617 -88.252817 123.1984)
(207.22 -89.228039 121.37347)
(171.74152 -89.008337 120.26041)
(261.34503 -97.934471 138.4219)
(220.89154 -95.868996 136.89718)
(180.83306 -92.087937 136.27863)
(270.09033 -104.20263 146.6964)
(226.93286 -98.917464 144.87478)
(183.11522 -89.626664 146.08828)
(273.82633 -110.09564 152.06103)
(228.88971 -99.055508 151.9768)
(182.50335 -89.878844 153.86599)
(275.7815 -115.43709 154.69087)
(230.3371 -102.94603 155.7411)
(181.38218 -89.686279 158.30917)
(279.10235 -122.88302 155.54351)
(232.66176 -107.045 157.80506)
(182.20341 -91.986001 161.327)
(286.13498 -133.26215 156.06132)
(239.10916 -115.4527 159.62809)
(187.4911 -98.412862 163.38559)
(298.80469 -147.17665 156.49057)
(250.82904 -128.30026 160.56324)
(198.53226 -109.68335 164.75508)
(319.14777 -166.47817 157.11745)
(270.02775 -146.26367 161.81638)
(216.9491 -125.54382 166.3058)
(348.67393 -191.2113 158.01897)
(298.256 -169.75683 163.02878)
(244.57661 -147.45533 167.70806)
(389.0658 -222.28188 159.15207)
(337.16573 -199.50626 164.06731)
(282.57524 -175.35999 169.13253)
(441.41043 -259.75486 159.99096)
(388.04089 -235.57759 164.94634)
(332.77088 -209.57215 170.0239)
(506.18789 -303.61061 160.5292)
(451.3591 -277.66445 165.06239)
(395.096 -249.84982 170.06442)
(583.08074 -352.58476 160.34662)
(526.94154 -324.98918 164.36354)
(469.88439 -295.70978 169.19187)
(670.75665 -405.6384 159.18751)
(613.16965 -376.20395 162.73388)
(555.3185 -345.45823 166.73728)
(766.52284 -460.2877 157.2573)
(708.08142 -429.69981 160.12086)
(649.79792 -397.92385 163.17007)
(866.87234 -514.59533 154.35698)
(807.46564 -482.8285 156.19494)
(748.62219 -450.53433 158.26717)
(968.39224 -566.20247 150.51366)
(908.59764 -533.33118 151.48731)
(848.85657 -500.28633 152.73345)
)
;

boundaryField
{
    free
    {
        type            zeroGradient;
    }
    fixed
    {
        type            fixedValue;
        value           nonuniform List<vector> 
25
(
(-2.5953868e-15 -2.1703571e-16 4.2716933e-18)
(-1.3028228e-15 -3.4252847e-16 3.3068324e-16)
(-1.9658614e-16 -3.2115893e-17 -1.1045223e-16)
(-3.6361799e-15 2.112754e-16 -3.2990721e-16)
(-3.8783653e-15 3.5858996e-16 7.5215743e-16)
(-2.0449562e-15 -3.5718549e-16 -7.3673077e-16)
(-9.8459492e-16 7.8127033e-16 2.7525688e-16)
(-1.4121951e-15 -1.0527101e-15 6.223458e-16)
(-4.8813632e-16 1.9183015e-16 -1.0607077e-16)
(6.5239771e-16 2.739523e-16 -5.5565719e-16)
(-3.9146975e-16 7.8165185e-18 1.2560621e-16)
(1.4766345e-16 -3.4299605e-16 -2.8648028e-16)
(1.6350797e-16 -2.4226884e-16 -1.2066667e-17)
(-1.0304172e-15 -9.2669207e-16 -7.5672327e-16)
(-2.6214496e-15 -5.6404768e-16 7.244144e-16)
(-6.4481012e-16 3.525084e-16 2.7116342e-16)
(-1.0135278e-15 7.0169807e-16 1.7538027e-16)
(-3.5205005e-15 9.4737515e-16 -2.5196009e-17)
(-3.8147498e-15 1.043275e-15 1.2924308e-16)
(-2.4010456e-15 1.4295629e-15 -1.6975308e-16)
(-1.2019486e-15 6.189313e-16 -3.4292956e-16)
(2.8178306e-17 1.9013092e-16 6.1994168e-17)
(-1.2511779e-16 -6.848356e-17 2.1836215e-16)
(-3.8898857e-17 4.7141393e-16 -3.1043199e-16)
(-3.7042918e-15 1.4868296e-15 -1.3023874e-15)
)
;
    }
    freeTop
    {
        type            zeroGradient;
    }
}


// ************************************************************************* //
