/*--------------------------------*- C++ -*----------------------------------*\
  =========                 |
  \\      /  F ield         | OpenFOAM: The Open Source CFD Toolbox
   \\    /   O peration     | Website:  https://openfoam.org
    \\  /    A nd           | Version:  6
     \\/     M anipulation  |
\*---------------------------------------------------------------------------*/
FoamFile
{
    version     2.0;
    format      ascii;
    class       pointVectorField;
    location    "1.01";
    object      lm;
}
// * * * * * * * * * * * * * * * * * * * * * * * * * * * * * * * * * * * * * //

dimensions      [1 -2 -1 0 0 0 0];

internalField   nonuniform List<vector> 
28033
(
(0 0 0)
(0 0 0)
(-2837.5326 1067.2029 -1.3376926)
(-2304.045 1861.9914 21.51379)
(0 0 0)
(0 0 0)
(-2324.5555 1879.818 28.359622)
(-2854.5965 1085.0791 -7.3495719)
(0 0 0)
(0 0 0)
(0 0 0)
(0 0 0)
(0 0 0)
(0 0 0)
(0 0 0)
(0 0 0)
(0 0 0)
(0 0 0)
(0 0 0)
(0 0 0)
(0 0 0)
(0 0 0)
(0 0 0)
(-2812.1443 1119.5621 -0.50403764)
(-2776.5433 1167.9273 0.55719767)
(-2739.827 1215.7039 1.3427861)
(-2702.2374 1262.8292 2.3711125)
(-2664.8025 1309.8285 3.3618)
(-2627.9816 1357.0173 4.5385869)
(-2592.2556 1404.625 5.8175556)
(-2557.8287 1453.0211 7.1831893)
(-2524.5614 1502.1913 8.7664235)
(-2492.3231 1552.2224 10.413632)
(-2460.8328 1603.033 12.201722)
(-2429.712 1654.3579 14.126789)
(-2398.6851 1706.1778 15.828599)
(-2367.3422 1758.1536 17.794259)
(-2336.0777 1810.6321 19.669297)
(-6.314083 -8.2728272 -10.930948)
(-9.0654391 -15.782124 -14.045676)
(-12.727569 -23.843162 -15.336477)
(-18.488669 -31.761408 -15.209377)
(-25.184053 -39.881334 -14.515235)
(-33.394408 -48.042548 -13.606736)
(-42.7184 -56.150931 -12.501386)
(-53.196929 -64.323739 -11.68057)
(-64.856432 -72.316038 -11.006605)
(-77.691354 -80.441646 -10.66722)
(-91.8696 -88.406879 -10.60719)
(-107.41427 -96.279792 -10.896492)
(-124.60925 -103.86914 -11.362788)
(-143.45113 -111.14075 -12.054512)
(-164.34841 -117.99407 -12.732183)
(-187.19324 -124.03679 -13.391377)
(-212.27221 -129.20673 -13.876574)
(-239.58028 -133.21346 -14.130127)
(-269.23099 -135.92195 -13.881954)
(-301.01883 -136.96769 -13.272151)
(-335.05548 -136.29721 -12.078699)
(-370.93274 -133.52902 -10.294627)
(-408.71559 -128.79661 -7.9415519)
(-447.89965 -121.70319 -4.9601602)
(-488.24337 -112.40922 -1.3690908)
(-529.38391 -100.85831 2.6363068)
(-571.03548 -87.1336 7.1737386)
(-612.68455 -71.213176 12.016416)
(-653.98602 -53.412736 17.146734)
(-694.69555 -33.916001 22.383968)
(-734.19258 -12.800737 27.608208)
(-772.37797 9.5160177 32.751136)
(-809.00773 32.672316 37.669451)
(-843.74078 56.56892 42.26987)
(-876.53125 80.84369 46.421804)
(-907.12025 105.15617 50.039701)
(-935.48458 129.22872 53.049956)
(-961.595 152.84348 55.37041)
(-985.48021 175.62468 56.967837)
(-1007.1822 197.50532 57.784999)
(-1026.7542 218.13124 57.793637)
(-1044.4008 237.3877 56.963698)
(-1060.2064 255.12393 55.331538)
(-1074.4171 271.15054 52.818921)
(-1087.2464 285.4483 49.562748)
(-1098.9459 297.90094 45.502775)
(-1109.7957 308.4957 40.752211)
(-1120.1226 317.23495 35.354871)
(-1130.2285 324.15913 29.403423)
(-1140.4875 329.35434 22.996439)
(-1151.2321 332.93889 16.244182)
(-1162.8365 335.07546 9.2691523)
(-1175.639 335.9605 2.1962456)
(-1189.9787 335.82073 -4.8449645)
(-1206.1577 334.91725 -11.729206)
(-1224.4423 333.52293 -18.341348)
(-1245.0534 331.93172 -24.573936)
(-1268.1556 330.43371 -30.340129)
(-1293.8531 329.32509 -35.57112)
(-1322.1914 328.8716 -40.217417)
(-1353.1497 329.33868 -44.249825)
(-1386.6566 330.94185 -47.665226)
(-1422.5764 333.86983 -50.464779)
(-1460.7631 338.30873 -52.670407)
(-1500.9542 344.2701 -54.336591)
(-1543.0536 351.99783 -55.446733)
(-1586.6592 361.38484 -56.112025)
(-1631.638 372.53128 -56.334196)
(-1677.8011 385.3092 -56.035623)
(-1724.8506 399.80192 -55.357508)
(-1772.676 415.83295 -54.302563)
(-1821.1271 433.39682 -52.809759)
(-1870.0421 452.38752 -50.908082)
(-1919.2726 472.71932 -48.607375)
(-1968.7576 494.30247 -45.912487)
(-2018.3108 517.04159 -42.848475)
(-2067.916 540.84676 -39.444751)
(-2117.3322 565.61073 -35.758437)
(-2166.5647 591.25739 -31.857446)
(-2215.3296 617.65291 -27.822647)
(-2263.5863 644.7344 -23.74103)
(-2311.0946 672.4011 -19.73439)
(-2357.679 700.51275 -15.893743)
(-2403.099 728.91148 -12.29702)
(-2447.4621 757.64169 -9.0895896)
(-2490.3341 786.50081 -6.2714995)
(-2531.647 815.41191 -3.9609752)
(-2571.3713 844.27984 -2.0802594)
(-2609.337 872.98159 -0.7729791)
(-2645.6234 901.49833 0.19258272)
(-2680.1334 929.66901 0.60584976)
(-2712.9796 957.44115 0.77498562)
(-2744.216 984.93485 0.5440591)
(-2773.7903 1011.5612 0.061868147)
(-2805.9288 1039.3476 -0.68421295)
(-7.8124134 29.137511 26.749192)
(-9.0958347 37.23704 37.445669)
(-12.97718 47.193779 46.295653)
(-13.456807 55.415678 51.943022)
(-17.847798 66.061179 56.150033)
(-21.355793 76.016355 59.700542)
(-25.522832 86.097438 62.500856)
(-30.589033 96.79988 65.190779)
(-36.02494 107.70971 67.578023)
(-41.931194 118.67211 70.002961)
(-48.743119 130.49288 72.178926)
(-56.405092 142.43106 74.13418)
(-65.260419 155.22843 75.827972)
(-75.576282 168.54142 76.964269)
(-87.59606 182.60943 77.587924)
(-101.6932 197.48424 77.379932)
(-117.90988 213.09044 76.320148)
(-136.61408 229.4483 74.407465)
(-157.90773 246.68282 71.428699)
(-181.62233 264.23847 67.498853)
(-208.14963 282.67355 62.628181)
(-236.99635 301.25871 56.940504)
(-268.32838 320.17809 50.42074)
(-301.73556 339.16875 43.392211)
(-337.11144 358.00276 35.926903)
(-373.83235 376.39333 28.236747)
(-411.9487 394.28765 20.585592)
(-450.71174 411.42339 13.037458)
(-490.07667 427.55991 5.9081165)
(-529.42399 442.70244 -0.6982088)
(-568.55111 456.54273 -6.666158)
(-607.10928 469.18297 -11.826552)
(-644.83973 480.41476 -16.172848)
(-681.41005 490.25254 -19.567911)
(-716.65811 498.76943 -22.116614)
(-750.43767 505.88571 -23.676422)
(-782.4983 511.8915 -24.392416)
(-812.70831 516.54431 -24.234056)
(-841.1237 520.36622 -23.291817)
(-867.50547 523.17771 -21.569731)
(-891.89172 525.29681 -19.146915)
(-914.22972 526.83291 -16.062141)
(-934.50628 527.9759 -12.35679)
(-952.73766 528.90047 -8.0685868)
(-968.96312 529.80455 -3.2385434)
(-983.24875 530.87998 2.0978221)
(-995.69719 532.3385 7.8936744)
(-1006.4448 534.38429 14.095211)
(-1015.6706 537.24431 20.635619)
(-1023.5881 541.13042 27.432442)
(-1030.4594 546.27274 34.385046)
(-1036.5697 552.88192 41.379271)
(-1042.2497 561.17395 48.282632)
(-1047.8356 571.33755 54.956143)
(-1053.6907 583.55082 61.252812)
(-1060.1661 597.95671 67.029903)
(-1067.6082 614.66901 72.153077)
(-1076.3341 633.7606 76.505465)
(-1086.6266 655.2634 79.995556)
(-1098.7193 679.1635 82.561042)
(-1112.7954 705.40343 84.176012)
(-1128.9753 733.8826 84.851817)
(-1147.3218 764.46183 84.635846)
(-1167.8413 796.96848 83.613096)
(-1190.4832 831.20295 81.896469)
(-1215.1582 866.94764 79.623003)
(-1241.727 903.97744 76.946006)
(-1270.0755 942.05885 74.018624)
(-1299.9596 980.9381 71.024914)
(-1331.3021 1020.3654 68.032772)
(-1363.8661 1060.287 65.280127)
(-1397.5608 1100.3057 62.750534)
(-1432.2295 1140.4303 60.555904)
(-1467.7878 1180.3987 58.711685)
(-1504.1225 1220.1133 57.227504)
(-1541.1948 1259.4559 56.041827)
(-1578.9276 1298.3051 55.111849)
(-1617.29 1336.598 54.337469)
(-1656.2148 1374.2137 53.630316)
(-1695.659 1411.1086 52.895221)
(-1735.54 1447.1805 52.032998)
(-1775.7824 1482.3792 50.968631)
(-1816.268 1516.6273 49.636608)
(-1856.8779 1549.8735 48.00349)
(-1897.4621 1582.0513 46.058597)
(-1937.8646 1613.1244 43.817545)
(-1977.9196 1643.0366 41.327584)
(-2017.4568 1671.7704 38.651166)
(-2056.3131 1699.2843 35.879032)
(-2094.3408 1725.5824 33.106721)
(-2131.3982 1750.6433 30.437048)
(-2167.3836 1774.4836 27.986244)
(-2202.2192 1797.089 25.835691)
(-2235.8082 1818.6035 24.03275)
(-2268.8575 1839.3026 22.650464)
(0 0 0)
(0 0 0)
(0 0 0)
(0 0 0)
(0 0 0)
(0 0 0)
(0 0 0)
(0 0 0)
(0 0 0)
(0 0 0)
(0 0 0)
(0 0 0)
(0 0 0)
(0 0 0)
(0 0 0)
(-12.389696 9.3325291 -16.298568)
(-8.8244724 32.258903 -28.186012)
(-7.187099 34.227251 -32.822885)
(-10.092121 48.374824 -38.140858)
(-12.51855 55.128736 -38.680649)
(-16.738788 66.189855 -39.525271)
(-21.479641 76.742514 -39.468051)
(-26.819514 88.115943 -39.627038)
(-32.664301 99.831217 -39.534514)
(-38.968799 112.67048 -40.135324)
(-46.117052 125.56861 -40.532089)
(-53.770742 139.0026 -41.31499)
(-63.012382 153.48786 -41.931443)
(-73.279162 168.29742 -42.668081)
(-85.514108 183.95073 -42.71113)
(-99.655103 199.75702 -42.949638)
(-115.69035 216.80636 -41.829335)
(-134.86112 234.49538 -40.787775)
(-155.77299 251.87417 -38.237291)
(-179.94655 270.90071 -35.337802)
(-206.37867 288.75132 -31.505596)
(-235.4052 307.99611 -26.62801)
(-266.73231 326.69133 -21.105814)
(-300.40183 345.33081 -14.92943)
(-335.88513 363.33458 -8.2193337)
(-372.89151 381.43974 -1.2223133)
(-411.50353 398.12373 6.1582161)
(-450.17064 414.75213 13.352834)
(-490.23136 429.77423 20.660698)
(-529.22316 443.69468 27.443723)
(-568.84238 456.78946 33.96633)
(-607.4517 468.48382 39.673577)
(-645.30386 478.89821 44.882037)
(-682.00174 488.03457 49.238097)
(-717.59564 496.52158 52.846014)
(-751.41228 503.19691 55.539651)
(-782.69142 508.12355 57.415013)
(-812.76795 512.91024 58.500152)
(-840.84695 516.57681 58.667382)
(-866.91546 519.45187 58.099041)
(-890.96057 521.74655 56.758553)
(-912.9526 523.56762 54.690727)
(-932.9041 525.09224 51.947984)
(-950.86692 526.51093 48.575289)
(-966.89154 528.00761 44.610043)
(-981.07315 529.77888 40.118348)
(-993.53189 532.0374 35.148036)
(-1004.4189 534.99005 29.771913)
(-1013.9187 538.85785 24.058446)
(-1022.2522 543.85806 18.096515)
(-1029.6693 550.20664 11.970885)
(-1036.4512 558.10826 5.7867499)
(-1042.9021 567.75808 -0.3583611)
(-1049.3423 579.32472 -6.3570763)
(-1056.0996 592.95175 -12.111065)
(-1063.5003 608.75059 -17.525183)
(-1071.8569 626.78929 -22.518818)
(-1081.4588 647.09869 -27.0246)
(-1092.5654 669.66275 -30.992384)
(-1105.3929 694.42261 -34.392375)
(-1120.115 721.28113 -37.211414)
(-1136.8554 750.10168 -39.453634)
(-1155.6877 780.72614 -41.137517)
(-1176.6422 812.96648 -42.291967)
(-1199.6971 846.62797 -42.947341)
(-1224.8147 881.53127 -43.142515)
(-1251.8649 917.42764 -42.878919)
(-1281.0606 954.37173 -42.27382)
(-1312.1158 992.10401 -41.229277)
(-1343.7354 1029.8312 -39.775647)
(-1377.5755 1068.2182 -37.993044)
(-1412.6641 1106.9976 -35.787936)
(-1449.0244 1146.0489 -33.184471)
(-1486.4515 1185.2571 -30.198842)
(-1524.8628 1224.5605 -26.809765)
(-1564.1251 1263.8872 -23.054004)
(-1604.1174 1303.1505 -18.962835)
(-1644.7132 1342.252 -14.590724)
(-1685.7787 1381.0831 -10.012623)
(-1727.1765 1419.5103 -5.3156018)
(-1768.7539 1457.3946 -0.60508356)
(-1810.3641 1494.5783 4.0134551)
(-1851.8463 1530.9041 8.4281189)
(-1893.0497 1566.2115 12.539785)
(-1933.8218 1600.3522 16.258909)
(-1974.0248 1633.1887 19.520507)
(-2013.5311 1664.6121 22.279115)
(-2052.2294 1694.5322 24.522229)
(-2090.0317 1722.8965 26.255436)
(-2126.8562 1749.6797 27.516352)
(-2162.658 1774.8863 28.350164)
(-2197.3715 1798.5633 28.824414)
(-2230.9871 1820.7544 28.990992)
(-2263.4549 1841.6066 28.932421)
(-2292.9424 1859.6796 28.682143)
(-2351.8507 1825.897 25.781761)
(-2385.2972 1776.4514 23.396844)
(-2417.593 1726.1798 21.006378)
(-2449.3094 1675.7834 18.491656)
(-2479.3614 1624.4962 16.090736)
(-2513.1895 1575.7827 13.642127)
(-2542.1791 1524.2647 11.326106)
(-2576.7208 1475.9974 8.9324795)
(-2610.9248 1427.6053 6.8138308)
(-2645.0827 1378.9325 4.5989373)
(-2680.6379 1330.8089 2.5780199)
(-2717.5035 1283.055 0.49300537)
(-2755.0925 1235.4108 -1.3530658)
(-2789.7758 1185.7597 -3.3785823)
(-2825.8414 1137.0329 -5.2473901)
(-2817.5027 1055.1112 -6.7819054)
(-2792.3843 1029.6724 -5.9687703)
(-2762.1091 1002.1873 -4.7151706)
(-2730.3456 973.88357 -3.1114081)
(-2696.9993 944.85318 -0.97374808)
(-2662.1805 915.26069 1.3575053)
(-2625.8401 885.19577 3.905743)
(-2588.0374 854.81718 6.5267551)
(-2548.8084 824.32404 9.1017757)
(-2508.241 793.87126 11.56811)
(-2466.3784 763.65434 13.8243)
(-2423.3526 733.85569 15.832338)
(-2379.2351 704.63209 17.566291)
(-2334.0476 676.09473 19.060082)
(-2287.888 648.38171 20.288196)
(-2241.0223 621.65197 21.302879)
(-2193.3832 595.94039 22.175462)
(-2145.1108 571.30799 22.997956)
(-2096.2932 547.79724 23.865694)
(-2047.0181 525.42847 24.870865)
(-1997.394 504.21727 26.099109)
(-1947.521 484.17611 27.621053)
(-1897.5448 465.31874 29.480014)
(-1847.5713 447.66219 31.70313)
(-1797.8432 431.24469 34.269388)
(-1748.4794 416.0595 37.102849)
(-1699.6704 402.15525 40.252786)
(-1652.1785 390.14815 43.357524)
(-1605.1199 378.85309 46.510961)
(-1559.6269 369.3227 49.536683)
(-1515.8481 361.18716 52.291755)
(-1473.9969 354.55003 54.569752)
(-1434.2815 349.32606 56.292956)
(-1396.9277 345.44795 57.334155)
(-1362.1026 342.8029 57.615041)
(-1329.9298 341.23054 57.082236)
(-1300.4743 340.54032 55.717657)
(-1273.7421 340.49898 53.535581)
(-1249.6769 340.85542 50.581758)
(-1228.161 341.32828 46.930838)
(-1209.0211 341.63829 42.678635)
(-1192.0326 341.49435 37.93719)
(-1176.9292 340.62849 32.828777)
(-1163.4103 338.77883 27.477853)
(-1151.1536 335.72523 22.005695)
(-1139.8206 331.26658 16.526903)
(-1129.0708 325.25586 11.143158)
(-1118.5633 317.56885 5.9458812)
(-1107.9665 308.14702 1.0049258)
(-1096.9726 296.93886 -3.6036973)
(-1085.2661 283.98411 -7.8561207)
(-1072.5936 269.28128 -11.66242)
(-1058.6781 252.97275 -15.060436)
(-1043.2907 235.09396 -17.924959)
(-1026.2265 215.82221 -20.288518)
(-1007.2841 195.34447 -22.119633)
(-986.36981 173.81283 -23.371063)
(-964.43474 151.69875 -24.019706)
(-938.60029 128.22218 -23.915437)
(-910.4201 105.06132 -23.376149)
(-881.68695 81.717562 -21.978475)
(-848.75634 57.82822 -19.888727)
(-814.2748 35.132638 -17.166938)
(-778.0108 12.654058 -13.887927)
(-740.57988 -8.6414317 -9.9116235)
(-700.68263 -29.143492 -5.3983093)
(-659.84622 -47.695978 -0.39039549)
(-618.05948 -65.059397 4.887861)
(-575.43932 -80.40084 10.516439)
(-533.14035 -93.968037 16.184979)
(-490.94316 -105.5147 21.890176)
(-449.42831 -114.91162 27.449324)
(-409.18665 -122.01188 32.695235)
(-369.97711 -127.59942 37.729969)
(-332.64392 -130.97577 42.069901)
(-297.5684 -132.21301 45.936588)
(-264.21469 -132.52885 49.24306)
(-233.85657 -130.50641 51.686752)
(-205.26467 -128.15552 53.697725)
(-179.61424 -123.74261 54.735569)
(-156.29845 -119.03854 55.378503)
(-135.20777 -113.90769 55.454646)
(-116.10329 -107.69934 54.781189)
(-99.277048 -101.02472 53.709974)
(-84.20479 -94.470306 52.342092)
(-70.687079 -87.292287 50.50299)
(-58.821299 -79.756939 48.298862)
(-48.404884 -72.490095 46.086222)
(-39.169346 -64.527051 43.347603)
(-31.293509 -56.380589 40.407607)
(-24.50599 -48.015513 36.942616)
(-19.354543 -39.305374 32.918405)
(-15.419473 -30.884464 28.301419)
(-11.817595 -21.587925 22.408787)
(-13.657095 -11.7044 12.246071)
(0 0 0)
(0 0 0)
(0 0 0)
(0 0 0)
(0 0 0)
(0 0 0)
(0 0 0)
(0 0 0)
(0 0 0)
(0 0 0)
(0 0 0)
(0 0 0)
(0 0 0)
(0 0 0)
(0 0 0)
(0 0 0)
(0 0 0)
(0 0 0)
(0 0 0)
(0 0 0)
(0 0 0)
(0 0 0)
(0 0 0)
(0 0 0)
(0 0 0)
(0 0 0)
(0 0 0)
(0 0 0)
(0 0 0)
(0 0 0)
(-2304.6241 1863.8545 21.638482)
(-2305.2445 1865.3597 21.990428)
(-2305.9229 1866.44 22.469938)
(-2306.6243 1867.1051 23.029879)
(-2307.4493 1867.5749 23.653638)
(-2308.3568 1867.9144 24.298806)
(-2309.4112 1868.2806 24.957718)
(-2310.6122 1868.7894 25.607736)
(-2311.9666 1869.5138 26.211583)
(-2313.4723 1870.499 26.758788)
(-2315.1239 1871.762 27.202755)
(-2316.8538 1873.221 27.600976)
(-2318.7038 1874.8394 27.888948)
(-2320.5902 1876.5485 28.118467)
(-2322.5155 1878.2664 28.327556)
(-2837.6726 1068.4368 -1.3159041)
(-2837.5729 1069.5598 -1.3211747)
(-2837.5375 1070.6226 -1.4145977)
(-2837.6083 1071.6431 -1.5860665)
(-2837.9197 1072.6045 -1.8704279)
(-2838.4996 1073.5282 -2.2552177)
(-2839.4348 1074.427 -2.754518)
(-2840.7335 1075.314 -3.3329843)
(-2842.3813 1076.2207 -3.9719588)
(-2844.3 1077.1681 -4.6488492)
(-2846.3906 1078.1927 -5.312195)
(-2848.4898 1079.3298 -5.9548383)
(-2850.4698 1080.5854 -6.5364572)
(-2852.1866 1082.0221 -6.960152)
(-2853.5195 1083.5978 -7.3617864)
(-3.7838776 -7.147177 -9.7633111)
(-6.0206487 -13.919713 -11.291789)
(-9.5901413 -20.89317 -11.776829)
(-14.995795 -27.808357 -11.562479)
(-21.511585 -35.055354 -10.87562)
(-29.518008 -42.357125 -9.7717605)
(-38.618211 -49.802591 -8.7958953)
(-48.881586 -57.155832 -7.8974571)
(-60.377083 -64.669562 -7.1988193)
(-73.006678 -71.916088 -6.7696953)
(-86.956839 -79.19638 -6.6937884)
(-102.35418 -86.069289 -6.7925423)
(-119.29707 -92.7876 -7.2096221)
(-137.99718 -98.905384 -7.7321105)
(-158.6475 -104.43609 -8.3448224)
(-181.38165 -109.05806 -8.9108881)
(-206.33109 -112.78593 -9.3736113)
(-233.51464 -115.20463 -9.6162139)
(-263.08186 -116.20375 -9.5041498)
(-294.96567 -115.60703 -9.0118627)
(-329.0002 -113.19063 -8.0677331)
(-365.12357 -108.85075 -6.5860937)
(-403.07397 -102.51593 -4.5885807)
(-442.5333 -94.05917 -2.0662638)
(-483.30378 -83.512179 0.99620638)
(-524.90837 -70.934656 4.4762073)
(-566.99813 -56.295446 8.3890279)
(-609.19473 -39.900242 12.612974)
(-651.09954 -21.774954 17.080719)
(-692.31747 -2.1863999 21.655909)
(-732.47985 18.584837 26.289323)
(-771.33097 40.327401 30.800617)
(-808.50128 62.761377 35.122282)
(-843.78596 85.704054 39.177104)
(-877.06495 108.64255 42.881353)
(-908.02404 131.50975 46.067302)
(-936.72187 153.97267 48.729894)
(-963.10668 175.71722 50.865392)
(-987.09706 196.64127 52.247842)
(-1008.8004 216.4961 53.008077)
(-1028.3187 235.0479 53.043347)
(-1045.7821 252.2616 52.365331)
(-1061.2466 267.88368 50.901354)
(-1074.9864 281.93125 48.776565)
(-1087.2053 294.27887 45.916805)
(-1098.1607 304.93158 42.402336)
(-1108.1134 313.88198 38.283928)
(-1117.3736 321.17982 33.610958)
(-1126.2525 326.9039 28.473482)
(-1135.1006 331.17296 22.95301)
(-1144.2589 334.13808 17.15105)
(-1154.0878 335.98682 11.170204)
(-1164.9344 336.93295 5.1197287)
(-1177.1388 337.21491 -0.89206347)
(-1191.0142 337.09268 -6.7634643)
(-1206.8424 336.82966 -12.396947)
(-1224.8664 336.69944 -17.708619)
(-1245.2738 336.9651 -22.63018)
(-1268.2021 337.87882 -27.107717)
(-1293.7289 339.66863 -31.101767)
(-1321.8683 342.54427 -34.598217)
(-1352.5846 346.66967 -37.588125)
(-1385.7758 352.19229 -40.076836)
(-1421.3299 359.22336 -42.096479)
(-1458.9396 367.76553 -43.63987)
(-1498.895 378.07578 -44.753341)
(-1540.0612 389.81353 -45.476661)
(-1582.9822 403.18309 -45.789236)
(-1627.3492 418.16989 -45.782115)
(-1672.7782 434.68351 -45.349713)
(-1719.1619 452.61828 -44.577106)
(-1766.2998 471.96023 -43.415671)
(-1814.0765 492.59497 -41.88934)
(-1862.358 514.45592 -39.998887)
(-1911.0384 537.46307 -37.746383)
(-1959.9934 561.52834 -35.156011)
(-2009.1453 586.5572 -32.255045)
(-2058.3413 612.45577 -29.1008)
(-2107.5119 639.12968 -25.744324)
(-2156.4553 666.46832 -22.270991)
(-2205.0896 694.37139 -18.757725)
(-2253.2925 722.77564 -15.321603)
(-2300.6518 751.44702 -11.996486)
(-2346.5627 780.12571 -8.9400314)
(-2392.8997 809.47406 -6.2100547)
(-2437.4821 838.65203 -3.8536134)
(-2480.6184 867.72755 -1.9137785)
(-2522.344 896.65113 -0.40704807)
(-2562.4923 925.33199 0.66178076)
(-2601.1446 953.69018 1.3442938)
(-2638.1216 981.72048 1.5986345)
(-2673.5543 1009.2148 1.6107154)
(-2707.4458 1036.3932 1.2770191)
(-2739.696 1062.7665 0.81011066)
(-2773.9519 1090.2784 0.14482)
(-0.93391766 -5.1657677 -8.0871776)
(-2.6383951 -9.8224943 -8.7564952)
(-6.2639146 -16.330712 -8.4327181)
(-11.39247 -22.451452 -8.2553111)
(-17.769718 -29.000902 -6.9926602)
(-25.557907 -35.697274 -6.0247202)
(-34.528404 -42.378652 -4.8970698)
(-44.78928 -49.223716 -3.9535537)
(-56.222811 -55.879732 -3.1439654)
(-68.819376 -62.613449 -2.7549133)
(-82.90294 -69.02415 -2.4589848)
(-98.331324 -75.278286 -2.571115)
(-115.49452 -81.079811 -2.8298274)
(-134.44005 -86.323962 -3.2805237)
(-155.44573 -90.873403 -3.8259968)
(-178.57511 -94.493571 -4.3604329)
(-204.0467 -97.064528 -4.8306038)
(-231.88404 -98.270543 -5.1016689)
(-262.21352 -98.025871 -5.1288749)
(-294.88392 -96.090139 -4.7915132)
(-329.88061 -92.372974 -4.0603846)
(-367.00085 -86.705924 -2.8809935)
(-406.05178 -79.060625 -1.2363007)
(-446.68039 -69.330631 0.88185277)
(-488.60286 -57.585115 3.4702738)
(-531.37878 -43.896296 6.4821271)
(-574.64393 -28.363419 9.8606612)
(-617.9287 -11.116643 13.523212)
(-660.87384 7.6274407 17.420503)
(-702.99598 27.615943 21.446684)
(-743.9633 48.650902 25.48369)
(-783.37835 70.426882 29.470095)
(-820.97705 92.663672 33.307986)
(-856.52324 115.08706 36.900573)
(-889.75704 137.39951 40.142358)
(-920.58319 159.39338 42.984502)
(-948.89079 180.75632 45.340969)
(-974.64742 201.33088 47.161988)
(-997.82025 220.84709 48.412667)
(-1018.5415 239.16627 49.057781)
(-1036.8063 256.12708 49.082149)
(-1052.8422 271.64441 48.414772)
(-1066.7998 285.56392 47.178944)
(-1078.7736 297.88972 45.260993)
(-1089.1073 308.57062 42.769178)
(-1098.0097 317.63441 39.698101)
(-1105.7739 325.11227 36.122283)
(-1112.7034 331.08625 32.08223)
(-1119.1282 335.67266 27.668939)
(-1125.3921 339.01007 22.942122)
(-1131.8459 341.28132 18.001586)
(-1138.8537 342.68185 12.927294)
(-1146.7673 343.44213 7.8151826)
(-1155.9316 343.7985 2.7501932)
(-1166.6675 344.00825 -2.1830905)
(-1179.2669 344.31971 -6.9087867)
(-1193.9798 344.99198 -11.363913)
(-1211.0095 346.25715 -15.496176)
(-1230.5091 348.34397 -19.263382)
(-1252.5688 351.44588 -22.644297)
(-1277.2269 355.73899 -25.625205)
(-1304.4647 361.35652 -28.198526)
(-1334.2003 368.41763 -30.382872)
(-1366.3609 376.99155 -32.182365)
(-1400.5657 387.05176 -33.594705)
(-1437.7173 398.9565 -34.721212)
(-1474.0994 411.60296 -35.456704)
(-1519.9593 428.02852 -36.059364)
(-1563.892 445.1416 -36.149725)
(-1607.457 463.19218 -35.948274)
(-1651.818 482.55192 -35.380567)
(-1697.0476 503.20127 -34.497417)
(-1743.1134 525.08471 -33.280763)
(-1789.8976 548.14645 -31.731092)
(-1837.3177 572.28839 -29.856371)
(-1885.2342 597.4143 -27.684694)
(-1933.613 623.44603 -25.238083)
(-1982.2922 650.26715 -22.569011)
(-2031.2474 677.8091 -19.731693)
(-2080.2784 705.92275 -16.791793)
(-2129.3328 734.56319 -13.838321)
(-2178.2087 763.55782 -10.937022)
(-2227.2615 793.06604 -8.192843)
(-2270.7495 820.89755 -5.5478201)
(-2313.1442 848.60478 -3.2510444)
(-2359.0573 877.90229 -1.3214988)
(-2405.0426 907.56856 0.22025593)
(-2450.1639 937.15433 1.4092337)
(-2494.1253 966.55162 2.2055093)
(-2536.9585 995.77665 2.6583875)
(-2578.4874 1024.696 2.7695877)
(-2618.722 1053.1992 2.6819397)
(-2657.8098 1081.6469 2.2255425)
(-2695.3459 1109.1552 1.8118664)
(-2734.4721 1137.9629 1.0269953)
(1.6627888 -3.6424714 -6.2009632)
(0.51825895 -7.1793249 -6.2411035)
(-2.9661826 -12.63142 -5.4429907)
(-7.8718624 -17.638933 -4.6333008)
(-14.064739 -23.39961 -3.2454015)
(-21.732733 -29.115765 -2.03667)
(-30.745169 -35.056137 -0.7537275)
(-40.905896 -40.901409 0.37307443)
(-52.310957 -46.918524 1.1264545)
(-65.123001 -52.618374 1.8440766)
(-79.262221 -58.336489 2.1037868)
(-95.008502 -63.582301 2.2148526)
(-112.50705 -68.52694 2.0387976)
(-131.93498 -72.742662 1.6982669)
(-153.4862 -76.30552 1.2278442)
(-177.38138 -78.785875 0.72513919)
(-203.70897 -80.214808 0.25627924)
(-232.56632 -80.162428 -0.11368902)
(-264.03825 -78.67824 -0.24581998)
(-298.01113 -75.406402 -0.12673864)
(-334.46778 -70.336252 0.30833811)
(-373.14134 -63.285138 1.1589122)
(-413.8055 -54.251437 2.3880489)
(-456.12202 -43.210992 4.0549375)
(-499.7472 -30.199439 6.1251647)
(-544.21137 -15.347005 8.5857146)
(-589.08126 1.2909569 11.361943)
(-633.9024 19.433392 14.444407)
(-678.1712 38.926858 17.730249)
(-721.47596 59.49543 21.142417)
(-763.37784 80.866333 24.610013)
(-803.50501 102.75131 28.045437)
(-841.53581 124.88833 31.339295)
(-877.19346 146.97389 34.440125)
(-910.26312 168.71502 37.254828)
(-940.60977 189.91392 39.713744)
(-968.09401 210.27092 41.754321)
(-992.7682 229.60808 43.384945)
(-1014.5922 247.74935 44.455112)
(-1033.5992 264.56147 45.039606)
(-1049.9597 279.88842 45.030929)
(-1063.8232 293.66058 44.529371)
(-1075.327 305.83811 43.407257)
(-1084.7301 316.38816 41.793763)
(-1092.2889 325.33104 39.664087)
(-1098.2563 332.70963 37.061893)
(-1102.9453 338.60947 34.036007)
(-1106.68 343.13376 30.645696)
(-1109.8013 346.43103 26.949164)
(-1112.6631 348.66348 23.016729)
(-1115.6334 350.03229 18.924851)
(-1119.0778 350.74341 14.742964)
(-1123.3566 351.03766 10.547477)
(-1128.8196 351.14512 6.4074466)
(-1135.792 351.32086 2.3861723)
(-1144.5674 351.79782 -1.4588417)
(-1155.402 352.81866 -5.0849336)
(-1168.5062 354.59131 -8.4493103)
(-1184.0365 357.32401 -11.534476)
(-1202.0983 361.17836 -14.319647)
(-1222.742 366.30861 -16.8004)
(-1245.9593 372.82037 -18.978454)
(-1271.7024 380.80775 -20.865402)
(-1299.8965 390.30868 -22.445555)
(-1330.1455 401.31458 -23.778024)
(-1364.4311 414.43866 -24.828842)
(-1392.0805 426.36909 -25.551967)
(-1440.2618 445.70208 -26.06756)
(-1481.3966 463.93828 -26.538297)
(-1522.1121 482.87 -26.525883)
(-1563.6469 502.98967 -26.252181)
(-1606.0465 524.25112 -25.665778)
(-1649.4963 546.69958 -24.771392)
(-1694.1806 570.33164 -23.587733)
(-1739.7452 595.00973 -22.116004)
(-1786.128 620.63974 -20.356441)
(-1833.2839 647.15639 -18.353617)
(-1881.1573 674.4751 -16.143118)
(-1929.6754 702.51974 -13.775642)
(-1978.7361 731.19554 -11.322988)
(-2028.2672 760.43312 -8.8497475)
(-2077.9563 790.06561 -6.4246031)
(-2128.5583 820.35842 -4.154986)
(-2178.2615 850.64296 -2.0056293)
(-2220.8685 878.29832 -0.28893395)
(-2267.406 907.65997 1.2616915)
(-2316.6469 938.36631 2.4212163)
(-2366.0209 969.32387 3.3153404)
(-2414.8438 1000.3399 3.8049554)
(-2463.0567 1031.256 4.0685276)
(-2510.4036 1062.0931 3.9808322)
(-2556.9949 1092.7163 3.7233686)
(-2602.7773 1123.3735 3.2283901)
(-2647.4346 1153.3601 2.6839628)
(-2692.9656 1184.3476 1.9776798)
(3.2917506 -2.386323 -3.7176956)
(2.6980556 -4.5290218 -3.0831209)
(-0.1221215 -8.7078982 -1.6062995)
(-4.5510869 -12.652807 -0.71974411)
(-10.546723 -17.333899 1.0588553)
(-18.241131 -22.109893 2.42076)
(-27.026391 -26.89905 3.9369873)
(-37.161783 -31.904537 5.0195169)
(-48.746381 -36.703013 6.1884772)
(-61.544984 -41.552173 6.8410203)
(-75.938667 -46.105771 7.3893397)
(-91.979384 -50.37917 7.5954153)
(-109.90258 -54.181108 7.5900663)
(-129.84056 -57.31501 7.3604694)
(-152.15506 -59.701604 6.9999234)
(-176.85177 -60.984827 6.5380854)
(-204.21034 -61.138761 6.0432944)
(-234.28588 -59.81264 5.6366786)
(-267.11166 -56.963821 5.3371439)
(-302.62941 -52.289459 5.2197136)
(-340.75888 -45.822904 5.404431)
(-381.20361 -37.342691 5.8487327)
(-423.78249 -26.92334 6.6543335)
(-468.04724 -14.491646 7.8006799)
(-513.62785 -0.17097531 9.3190896)
(-560.00056 15.94293 11.156607)
(-606.72461 33.67534 13.323687)
(-653.20633 52.794264 15.745241)
(-699.01008 73.105187 18.371198)
(-743.58753 94.267829 21.144712)
(-786.50541 116.0387 23.98765)
(-827.33738 138.10869 26.817587)
(-865.74856 160.15871 29.577326)
(-901.44029 181.92303 32.178444)
(-934.17938 203.12296 34.559247)
(-963.84995 223.51506 36.645895)
(-990.20169 242.83263 38.4115)
(-1013.324 260.91432 39.77218)
(-1033.4082 277.64579 40.695418)
(-1050.3546 292.88994 41.184361)
(-1064.3877 306.51477 41.206636)
(-1075.6352 318.56081 40.739888)
(-1084.322 328.892 39.8354)
(-1090.7003 337.62175 38.475959)
(-1095.0479 344.74663 36.690211)
(-1097.657 350.37112 34.522881)
(-1098.869 354.60003 32.01576)
(-1099.0214 357.56916 29.216618)
(-1098.4788 359.45269 26.182157)
(-1097.6147 360.42966 22.974205)
(-1096.808 360.71539 19.651756)
(-1096.4343 360.52555 16.274748)
(-1096.863 360.10105 12.902419)
(-1098.4475 359.66924 9.5876196)
(-1101.5133 359.4782 6.3759996)
(-1106.3564 359.74546 3.3080071)
(-1113.2329 360.69885 0.41485425)
(-1122.3513 362.52677 -2.2809012)
(-1133.8717 365.41706 -4.7679709)
(-1147.9041 369.5086 -7.0321976)
(-1164.4987 374.93909 -9.0826062)
(-1183.6697 381.78927 -10.913694)
(-1205.3721 390.136 -12.533281)
(-1229.5216 400.01419 -13.948593)
(-1256.1076 411.4748 -15.177596)
(-1284.395 424.2664 -16.163653)
(-1316.7384 439.29003 -17.028771)
(-1346.8507 454.33044 -17.622871)
(-1382.1891 472.03903 -18.056956)
(-1419.0073 491.04745 -18.176533)
(-1456.9731 511.24016 -18.086123)
(-1495.0652 532.20386 -17.701227)
(-1535.619 554.74186 -17.072774)
(-1578.427 578.77083 -16.198139)
(-1621.9384 603.6787 -15.044383)
(-1666.4986 629.50262 -13.65817)
(-1712.2891 656.28589 -12.05172)
(-1759.2694 683.941 -10.261585)
(-1807.4182 712.43212 -8.34515)
(-1856.6488 741.66227 -6.3505296)
(-1906.9117 771.60125 -4.3462285)
(-1958.1064 802.1484 -2.3938472)
(-2010.05 833.251 -0.56134107)
(-2062.6707 864.81792 1.108864)
(-2117.1832 897.4198 2.5559046)
(-2170.3357 929.59642 3.7233274)
(-2223.9319 962.20193 4.5955529)
(-2277.9432 995.1682 5.1822626)
(-2331.9396 1028.3397 5.4756439)
(-2385.8774 1061.6984 5.5227612)
(-2439.544 1095.2053 5.2886099)
(-2492.8913 1128.6801 4.9429406)
(-2546.0025 1162.4984 4.3582828)
(-2598.4203 1195.7831 3.7883355)
(-2650.8364 1229.7082 3.0245881)
(4.6296008 -0.53191497 -1.1412797)
(5.0064182 -1.5773466 0.038116723)
(2.7724212 -4.6586092 1.8126154)
(-1.2559636 -7.2889249 3.2266769)
(-7.3654715 -10.77861 5.410294)
(-14.599926 -14.223812 7.0498442)
(-23.326827 -17.893882 8.6679545)
(-33.487383 -21.471946 10.265154)
(-44.871348 -25.193362 11.371361)
(-57.744569 -28.609827 12.422089)
(-72.241001 -31.986033 13.091136)
(-88.467141 -34.87517 13.551193)
(-106.63159 -37.416932 13.686836)
(-127.08721 -39.185644 13.654675)
(-149.89771 -40.252607 13.379672)
(-175.35452 -40.11887 12.959269)
(-203.6562 -38.943655 12.487445)
(-234.78179 -36.152483 11.954769)
(-268.88071 -31.908551 11.461801)
(-305.83929 -25.801342 11.113129)
(-345.53526 -17.901159 10.869807)
(-387.71989 -8.0042159 10.885431)
(-432.10458 3.8168863 11.125491)
(-478.23754 17.568734 11.680576)
(-525.69412 33.15418 12.489451)
(-573.9358 50.405288 13.635985)
(-622.40807 69.165147 15.03028)
(-670.556 89.158544 16.70026)
(-717.80511 110.15493 18.563219)
(-763.62788 131.80107 20.613569)
(-807.51022 153.86766 22.744672)
(-849.04041 175.9491 24.946036)
(-887.79984 197.81591 27.108431)
(-923.51467 219.13355 29.199252)
(-955.91525 239.64174 31.132791)
(-984.88739 259.09532 32.873625)
(-1009.8357 277.231 34.323413)
(-1029.2381 293.25415 35.451104)
(-1045.996 308.08299 36.252014)