/*--------------------------------*- C++ -*----------------------------------*\
  =========                 |
  \\      /  F ield         | OpenFOAM: The Open Source CFD Toolbox
   \\    /   O peration     | Website:  https://openfoam.org
    \\  /    A nd           | Version:  6
     \\/     M anipulation  |
\*---------------------------------------------------------------------------*/
FoamFile
{
    version     2.0;
    format      ascii;
    class       pointVectorField;
    location    "0.38";
    object      lm;
}
// * * * * * * * * * * * * * * * * * * * * * * * * * * * * * * * * * * * * * //

dimensions      [1 -2 -1 0 0 0 0];

internalField   nonuniform List<vector> 
28033
(
(0 0 0)
(0 0 0)
(5744.5466 -686.94667 29.164914)
(5391.0697 -2001.1671 -40.190667)
(0 0 0)
(0 0 0)
(5384.5047 -1974.3737 34.515807)
(5751.389 -666.90163 -46.640335)
(0 0 0)
(0 0 0)
(0 0 0)
(0 0 0)
(0 0 0)
(0 0 0)
(0 0 0)
(0 0 0)
(0 0 0)
(0 0 0)
(0 0 0)
(0 0 0)
(0 0 0)
(0 0 0)
(0 0 0)
(5720.9439 -769.30543 21.821331)
(5699.185 -852.30809 15.018739)
(5677.7655 -934.92195 8.5589348)
(5657.138 -1017.6553 3.1173394)
(5636.5393 -1100.2609 -1.7592789)
(5615.8783 -1182.7151 -5.7271292)
(5595.0979 -1265.176 -9.3493073)
(5573.7719 -1347.3817 -12.600012)
(5552.3633 -1429.2844 -15.201806)
(5530.1608 -1510.9249 -17.679183)
(5507.8515 -1592.2011 -20.063077)
(5485.0092 -1673.6619 -22.656749)
(5461.6318 -1754.8098 -26.174414)
(5438.1794 -1836.4625 -29.899483)
(5414.6243 -1918.4116 -34.653616)
(-2.1626803 -1.9670424 -1.0313291)
(-6.8482791 -1.9947466 0.82600677)
(-12.134326 -0.31432256 3.4791876)
(-17.169694 1.4859018 6.362183)
(-22.790937 4.7968948 9.9135554)
(-27.959926 8.5671579 13.70943)
(-33.064108 13.525542 18.20259)
(-37.515344 19.060907 22.587884)
(-41.474992 25.787557 27.456843)
(-44.455853 33.075329 32.287926)
(-46.393205 41.480734 37.051529)
(-46.891921 50.485686 41.534736)
(-46.038057 60.386528 46.048292)
(-43.340859 70.803887 49.980602)
(-39.0363 81.90391 53.706326)
(-32.650811 93.438245 56.810945)
(-24.374494 105.47076 59.778751)
(-14.08038 117.61776 62.186389)
(-1.7777372 130.2226 64.18977)
(12.68661 142.84252 65.763633)
(29.175761 155.65761 67.070331)
(47.800475 168.4717 67.826456)
(68.49129 181.2463 68.452444)
(91.412105 194.0875 68.582977)
(116.35241 206.75358 68.478817)
(143.53629 219.4097 68.110362)
(172.82951 231.797 67.607186)
(204.39056 244.20285 66.79907)
(238.08422 256.22268 65.939946)
(274.00906 268.05945 65.045076)
(312.31151 279.68899 64.006066)
(352.69979 290.83235 63.015039)
(395.46395 301.62562 62.066545)
(440.53352 311.84395 61.126348)
(487.92747 321.65848 60.212529)
(537.64299 330.78253 59.454879)
(589.49886 339.30668 58.812803)
(643.73887 347.24911 58.289046)
(700.03494 354.53696 57.988822)
(758.50935 361.22354 57.995087)
(819.12122 367.37355 58.23262)
(881.90473 373.04546 58.823699)
(946.88571 378.22174 59.715943)
(1014.204 383.00761 60.954709)
(1084.0173 387.36807 62.388589)
(1156.5786 391.29854 63.975913)
(1232.1279 394.72654 65.543269)
(1310.9903 397.54381 66.927398)
(1393.4396 399.59475 67.936048)
(1479.764 400.68017 68.377925)
(1570.1667 400.57404 68.075085)
(1664.7929 399.02024 66.88259)
(1763.6702 395.76545 64.700499)
(1866.7229 390.5515 61.482548)
(1973.752 383.15188 57.239903)
(2084.45 373.36143 52.036716)
(2198.4114 361.02463 45.981472)
(2315.1551 346.02547 39.212829)
(2434.1465 328.30319 31.887644)
(2554.8232 307.83961 24.160297)
(2676.6117 284.67157 16.181659)
(2798.953 258.85744 8.0780648)
(2921.2883 230.54435 -0.02207826)
(3043.103 199.83216 -8.0415395)
(3163.8582 166.9578 -15.863998)
(3283.0776 132.08612 -23.359448)
(3400.1946 95.499463 -30.367193)
(3514.8536 57.50731 -36.986267)
(3626.4022 18.391356 -42.825951)
(3734.5668 -21.544147 -47.631993)
(3838.7207 -61.881516 -51.41661)
(3938.6485 -102.22821 -53.917941)
(4034.0004 -142.15006 -54.922065)
(4124.6094 -181.33998 -54.325297)
(4210.483 -219.31358 -52.077915)
(4291.6681 -255.82335 -48.181478)
(4368.526 -290.43493 -42.712974)
(4441.3757 -323.04399 -35.84813)
(4510.896 -353.25976 -27.821001)
(4577.6016 -381.25241 -18.8891)
(4642.4301 -406.73954 -9.4053575)
(4706.0044 -429.90081 0.2950107)
(4769.2925 -450.90891 9.831552)
(4832.936 -470.07049 18.995122)
(4897.5983 -487.65229 27.304797)
(4963.9703 -503.88789 34.665463)
(5032.4931 -519.44668 40.627342)
(5103.5284 -534.56987 45.267334)
(5177.1512 -549.975 48.138071)
(5253.557 -565.8418 49.721933)
(5331.8846 -582.48531 49.199881)
(5413.2075 -600.9661 47.861615)
(5494.705 -619.64861 44.334035)
(5578.4778 -641.0582 40.68277)
(5662.1872 -663.25879 34.430395)
(-0.93894787 3.1313451 4.9918678)
(-6.4534101 3.2420282 1.604386)
(-12.41478 4.5999846 0.41620261)
(-17.810645 2.2730231 -2.7132826)
(-23.945572 1.1799174 -5.8674062)
(-30.340619 -1.7516613 -9.6902362)
(-36.379861 -4.8976981 -13.964742)
(-42.548669 -9.3245195 -18.566451)
(-48.065715 -14.480159 -23.581943)
(-53.030732 -20.610005 -28.606696)
(-56.784819 -27.887764 -33.777268)
(-59.579724 -35.969643 -38.798687)
(-60.528997 -45.186031 -43.600081)
(-60.123639 -55.255331 -48.287494)
(-57.873569 -66.107384 -52.514639)
(-53.80927 -77.926377 -56.590172)
(-48.006921 -90.272327 -60.112401)
(-40.225904 -103.46332 -63.354943)
(-30.827196 -117.20726 -66.278836)
(-19.68725 -131.47027 -68.781398)
(-6.8921084 -146.35926 -70.942445)
(7.5142849 -161.81145 -72.83317)
(23.310525 -177.62903 -74.304939)
(40.861576 -194.23588 -75.479917)
(59.770472 -211.24228 -76.272154)
(80.427485 -228.96467 -76.622712)
(102.68441 -247.4198 -76.690873)
(126.81503 -266.47277 -76.165052)
(152.80859 -286.49926 -75.351144)
(180.84601 -307.15508 -73.888783)
(211.04801 -328.90289 -72.170962)
(243.46408 -351.32588 -69.960133)
(278.20341 -374.75813 -67.462322)
(315.275 -398.97917 -64.69901)
(354.62776 -424.03438 -61.886938)
(396.19517 -449.8006 -59.131417)
(439.8635 -476.21464 -56.563008)
(485.54467 -503.36222 -54.50068)
(533.08906 -530.92944 -52.905797)
(582.47588 -559.13666 -51.992709)
(633.53031 -587.80056 -51.82962)
(686.31828 -617.00082 -52.434631)
(740.87175 -646.75925 -53.755161)
(797.36114 -677.15135 -55.682487)
(856.00163 -708.26101 -58.036208)
(917.10451 -740.18752 -60.592603)
(981.01393 -773.02456 -63.092431)
(1048.1206 -806.8493 -65.258869)
(1118.8037 -841.71328 -66.827804)
(1193.4177 -877.62057 -67.559533)
(1272.2557 -914.53395 -67.265363)
(1355.522 -952.35333 -65.819201)
(1443.3175 -990.92884 -63.165902)
(1535.6254 -1030.0551 -59.325386)
(1632.3109 -1069.4831 -54.385024)
(1733.1309 -1108.9288 -48.489362)
(1837.7478 -1148.0893 -41.822406)
(1945.753 -1186.6517 -34.587988)
(2056.6896 -1224.3133 -26.989384)
(2170.0777 -1260.7915 -19.208618)
(2285.4308 -1295.8321 -11.397043)
(2402.276 -1329.2253 -3.6597603)
(2520.1491 -1360.7982 3.9365394)
(2638.6113 -1390.4362 11.365144)
(2757.2182 -1418.0487 18.62188)
(2875.5308 -1443.614 25.703248)
(2993.1074 -1467.1285 32.5911)
(3109.4472 -1488.6954 39.307628)
(3224.1263 -1508.2108 45.685215)
(3336.481 -1526.0347 51.600286)
(3445.9595 -1542.043 56.92194)
(3552.2289 -1556.6517 61.405819)
(3654.6066 -1569.8696 64.79583)
(3752.7489 -1582.0087 66.85196)
(3846.3172 -1593.3073 67.354606)
(3935.126 -1604.0504 66.121241)
(4019.1424 -1614.5597 63.052337)
(4098.504 -1625.1416 58.137383)
(4173.5378 -1636.1625 51.445509)
(4244.7302 -1647.9194 43.18426)
(4312.7156 -1660.7532 33.61735)
(4378.2629 -1674.9318 23.115776)
(4442.1963 -1690.6723 12.090492)
(4505.4037 -1708.1532 0.99643704)
(4568.7376 -1727.4311 -9.7162289)
(4632.9995 -1748.5151 -19.624846)
(4698.8861 -1771.2871 -28.353548)
(4766.9429 -1795.5583 -35.622017)
(4837.5268 -1821.0322 -41.230769)
(4910.8202 -1847.3742 -45.091913)
(4986.7698 -1874.1125 -47.284608)
(5065.0794 -1900.8801 -47.844812)
(5145.3569 -1927.2292 -47.134693)
(5227.0172 -1952.6412 -45.375424)
(5308.881 -1977.2047 -42.718611)
(0 0 0)
(0 0 0)
(0 0 0)
(0 0 0)
(0 0 0)
(0 0 0)
(0 0 0)
(0 0 0)
(0 0 0)
(0 0 0)
(0 0 0)
(0 0 0)
(0 0 0)
(0 0 0)
(0 0 0)
(-1.7981635 2.163393 -5.0189304)
(-7.6181049 5.861992 -2.5393309)
(-13.80802 4.8970992 -0.23385788)
(-20.043769 3.7097197 2.5409174)
(-26.935342 2.9531626 5.8202604)
(-33.135505 -0.62095433 9.8344063)
(-40.323691 -3.0339762 14.298858)
(-46.321461 -7.7795245 18.907603)
(-52.669822 -12.663259 24.297485)
(-57.328766 -19.278927 29.266668)
(-61.411599 -25.932669 34.700894)
(-64.640895 -34.374457 39.949498)
(-65.414939 -43.363468 45.178596)
(-65.796765 -53.048092 49.978987)
(-63.017733 -64.295282 54.703107)
(-59.63624 -74.983368 58.805041)
(-53.735085 -87.773747 62.567821)
(-45.887358 -100.04172 65.697528)
(-36.517074 -113.79584 68.282276)
(-24.68479 -127.79174 70.257688)
(-11.688585 -142.28887 71.847431)
(3.4846811 -157.6252 72.538649)
(20.149462 -173.72867 73.056944)
(38.598809 -190.36793 72.929496)
(58.536979 -207.74673 72.447436)
(80.249923 -226.00523 71.742497)
(103.3822 -244.70658 70.687224)
(128.42357 -264.83445 69.576745)
(154.9768 -285.02642 68.360917)
(183.46639 -306.7964 67.1235)
(213.87653 -328.84429 65.931386)
(246.20841 -351.8099 64.804564)
(280.65121 -375.42916 63.80971)
(317.15446 -399.70036 62.964189)
(355.91542 -424.45626 62.281677)
(396.55594 -449.78909 61.876618)
(439.47513 -475.79188 61.61272)
(484.50422 -501.95561 61.729653)
(531.38524 -528.69823 62.074374)
(580.2995 -555.92714 62.736574)
(631.07466 -583.69443 63.723633)
(683.7902 -612.08815 64.972898)
(738.50358 -641.2108 66.448124)
(795.35261 -671.18346 68.053752)
(854.54778 -702.11708 69.664687)
(916.36431 -734.1284 71.129147)
(981.12071 -767.299 72.277084)
(1049.1723 -801.68599 72.924692)
(1120.8696 -837.29394 72.899085)
(1196.5415 -874.08545 72.042074)
(1276.4565 -911.95839 70.23269)
(1360.8066 -950.76622 67.39015)
(1449.6786 -990.30468 63.489876)
(1543.0509 -1030.3325 58.55421)
(1640.7864 -1070.5755 52.662483)
(1742.6414 -1110.7397 45.929447)
(1848.2784 -1150.5265 38.507957)
(1957.2866 -1189.642 30.563144)
(2069.2017 -1227.8075 22.270696)
(2183.5283 -1264.7711 13.796477)
(2299.7569 -1300.3049 5.294983)
(2417.3768 -1334.2174 -3.098596)
(2535.8861 -1366.3447 -11.269249)
(2654.7843 -1396.5484 -19.107355)
(2773.5821 -1424.727 -26.529756)
(2891.7857 -1450.829 -33.433335)
(3008.9347 -1474.6127 -39.713086)
(3124.2408 -1496.5991 -45.226617)
(3238.194 -1516.2798 -49.91737)
(3348.4443 -1533.3332 -53.61166)
(3456.2744 -1548.9292 -56.230007)
(3560.255 -1562.4244 -57.410075)
(3660.286 -1574.1921 -57.329031)
(3755.9754 -1584.5688 -55.709605)
(3847.0967 -1593.7748 -52.563214)
(3933.5448 -1602.1966 -47.890867)
(4015.3902 -1610.2271 -41.74868)
(4092.8173 -1618.2864 -34.263781)
(4166.1971 -1626.7964 -25.628918)
(4236.0321 -1636.1762 -16.088128)
(4302.9586 -1646.7984 -5.9431584)
(4367.716 -1658.9897 4.473067)
(4431.1106 -1672.9946 14.797715)
(4493.9808 -1688.9755 24.665941)
(4557.1493 -1706.99 33.715858)
(4621.385 -1726.9973 41.623697)
(4687.351 -1748.8494 48.100321)
(4755.577 -1772.3126 52.934846)
(4826.4176 -1797.0625 55.979757)
(4900.0272 -1822.722 57.200378)
(4976.3662 -1848.8755 56.627698)
(5055.1696 -1875.0856 54.432509)
(5136.0051 -1900.9506 50.814882)
(5218.2847 -1926.1633 46.02788)
(5301.1727 -1950.5383 40.720964)
(5408.4998 -1890.6055 26.573268)
(5432.1948 -1807.5951 19.128693)
(5457.0092 -1725.1361 12.462774)
(5480.3459 -1642.7608 6.2330336)
(5505.4009 -1560.8821 0.99880743)
(5528.2723 -1478.9971 -4.1136137)
(5552.6132 -1397.4099 -7.9423562)
(5575.2258 -1315.9411 -12.106523)
(5597.5886 -1234.5225 -15.444987)
(5619.8638 -1153.8173 -18.533803)
(5642.1509 -1073.1949 -21.705803)
(5662.8734 -992.21299 -25.068864)
(5684.6505 -911.45934 -28.976327)
(5706.0614 -830.67574 -33.599187)
(5727.9648 -748.70926 -39.713946)
(5669.7157 -643.46479 -49.574019)
(5587.1593 -621.16794 -51.829113)
(5503.8287 -600.19122 -53.665076)
(5421.6043 -580.91232 -54.596673)
(5340.7252 -563.14311 -53.75315)
(5261.6276 -546.8035 -51.639597)
(5185.1135 -531.72963 -47.628997)
(5111.2792 -517.5122 -41.796426)
(5040.2594 -503.74628 -34.304149)
(4971.7978 -490.03975 -25.171866)
(4905.6377 -475.71084 -14.950301)
(4840.9999 -460.48098 -3.8371042)
(4777.429 -443.65041 7.5596165)
(4713.8838 -424.89048 18.919305)
(4649.7846 -403.93986 29.734567)
(4584.0655 -380.36614 39.575757)
(4516.001 -354.1295 48.039146)
(4444.9121 -325.20897 54.977519)
(4370.2319 -293.6409 60.190661)
(4291.5292 -259.69555 63.720532)
(4208.5735 -223.61143 65.580594)
(4121.1928 -185.81063 65.957584)
(4029.4586 -146.68514 65.016239)
(3933.4103 -106.71543 62.992508)
(3833.3687 -66.350942 60.038032)
(3729.4263 -25.983053 56.440421)
(3622.2542 13.551777 52.139308)
(3511.4196 53.087749 47.199386)
(3398.1468 90.492928 42.041256)
(3282.2939 127.06461 36.301364)
(3164.4158 161.68491 30.050267)
(3044.8271 194.46343 23.261299)
(2923.9523 225.17665 15.918004)
(2802.2627 253.66038 8.0510196)
(2680.2643 279.80773 -0.26008371)
(2558.5082 303.51177 -8.8776379)
(2437.5907 324.69244 -17.607364)
(2318.1331 343.29402 -26.208274)
(2200.7594 359.29463 -34.411888)
(2086.0734 372.70779 -41.94385)
(1974.6251 383.59003 -48.550445)
(1866.8855 392.04129 -54.022331)
(1763.2183 398.20621 -58.216099)
(1663.8664 402.26684 -61.067387)
(1568.939 404.43844 -62.599005)
(1478.418 404.95396 -62.916324)
(1392.1668 404.05671 -62.197912)
(1309.9541 401.9811 -60.678562)
(1231.4776 398.94516 -58.622965)
(1156.4108 395.1425 -56.313626)
(1084.3874 390.69833 -53.987557)
(1015.1345 385.80158 -51.933852)
(948.32447 380.36623 -50.204973)
(883.79435 374.64753 -49.095008)
(821.3945 368.42621 -48.485896)
(761.06671 361.85208 -48.487968)
(702.67914 354.84955 -48.991416)
(646.47777 347.47022 -49.991027)
(592.52834 339.0178 -51.143434)
(540.49271 330.70615 -52.754046)
(490.89416 321.69344 -54.445074)
(443.88504 311.63454 -56.002219)
(398.89484 301.85031 -57.690375)
(356.41884 291.22701 -59.295741)
(316.26428 280.33728 -60.749758)
(278.63699 268.76917 -62.082329)
(243.05355 257.45661 -63.113343)
(209.97273 245.30695 -64.082047)
(178.83582 233.48232 -64.881696)
(149.93898 221.17701 -65.434234)
(123.08187 208.81878 -65.81794)
(98.252116 196.35998 -65.889738)
(75.676771 183.5805 -65.673682)
(54.88768 171.1057 -65.224934)
(36.190522 158.39003 -64.452776)
(19.637993 145.55207 -63.238439)
(4.9768988 133.16159 -61.781005)
(-7.5116577 120.38467 -59.778798)
(-18.05839 108.3739 -57.522038)
(-26.608731 96.141068 -54.730753)
(-32.946255 84.500132 -51.502007)
(-37.647692 73.321067 -47.93891)
(-40.607492 63.0277 -44.242348)
(-41.669375 52.562799 -39.660946)
(-41.334459 43.826123 -35.503025)
(-39.812478 35.230988 -30.836661)
(-37.112413 27.755876 -26.09619)
(-33.4687 20.924892 -21.541349)
(-29.425906 15.331607 -17.354307)
(-24.780904 10.25149 -13.218735)
(-20.117301 6.4593905 -9.4368088)
(-15.249598 3.0475495 -6.2398223)
(-10.287698 1.006069 -3.4877098)
(-6.0565615 -0.63465766 -1.1820827)
(-1.2317832 -1.5206031 1.2132748)
(0 0 0)
(0 0 0)
(0 0 0)
(0 0 0)
(0 0 0)
(0 0 0)
(0 0 0)
(0 0 0)
(0 0 0)
(0 0 0)
(0 0 0)
(0 0 0)
(0 0 0)
(0 0 0)
(0 0 0)
(0 0 0)
(0 0 0)
(0 0 0)
(0 0 0)
(0 0 0)
(0 0 0)
(0 0 0)
(0 0 0)
(0 0 0)
(0 0 0)
(0 0 0)
(0 0 0)
(0 0 0)
(0 0 0)
(0 0 0)
(5395.2273 -2005.0917 -40.437932)
(5400.4992 -2008.8271 -39.304722)
(5406.1093 -2012.4814 -36.450454)
(5411.8049 -2015.9462 -32.217873)
(5416.9268 -2018.7833 -26.474582)
(5420.9495 -2020.7234 -19.564972)
(5423.4534 -2021.4508 -11.787781)
(5424.1506 -2020.7077 -3.5507899)
(5422.952 -2018.4713 4.7169334)
(5419.9798 -2014.8053 12.662921)
(5415.3452 -2009.8404 19.672393)
(5409.686 -2003.9461 25.737035)
(5403.2167 -1997.3971 30.235642)
(5396.6462 -1990.3556 33.202895)
(5390.1047 -1982.7585 34.72803)
(5753.4066 -683.69979 28.857635)
(5762.5313 -680.78802 27.298004)
(5771.6894 -678.33694 24.128984)
(5780.3229 -676.10858 19.3795)
(5788.0611 -673.99383 13.267003)
(5794.2181 -672.04583 6.0883546)
(5798.2817 -670.32392 -1.8705759)
(5799.8952 -668.85851 -10.150928)
(5798.9291 -667.69821 -18.353818)
(5795.5109 -666.84006 -26.093632)
(5789.9707 -666.20191 -32.887933)
(5782.8651 -665.87247 -38.536976)
(5774.982 -665.56588 -42.753056)
(5766.7024 -665.64516 -45.252378)
(5758.8971 -666.02102 -46.508127)
(-1.7230819 1.1817634 -0.22247646)
(-7.5060113 2.5392244 2.0760331)
(-12.857707 4.3087206 3.7574987)
(-18.240025 6.6105416 6.2393599)
(-24.12276 9.6968065 9.1775137)
(-29.504797 13.431145 12.629588)
(-35.030609 17.726234 16.226395)
(-39.676397 23.117423 20.08776)
(-44.183076 28.78559 24.186859)
(-47.455692 35.613196 28.302921)
(-49.783243 42.668655 32.261162)
(-50.712138 50.822796 36.314659)
(-50.240615 59.141685 39.884808)
(-48.044076 68.428099 43.407614)
(-44.088843 77.777146 46.452033)
(-38.136107 87.921224 49.293432)
(-30.308138 98.076278 51.600392)
(-20.518659 108.80047 53.732261)
(-8.5319843 119.44032 55.395121)
(5.448072 130.42336 56.763437)
(21.505033 141.3561 57.774542)
(39.704202 152.32546 58.521201)
(59.970976 163.36385 58.920759)
(82.319968 174.22207 59.126888)
(106.8663 185.07604 59.033444)
(133.52086 195.71222 58.805502)
(162.31816 206.33717 58.31594)
(193.26847 216.60977 57.780294)
(226.49444 226.69151 57.107909)
(261.88178 236.57466 56.355063)
(299.50992 245.93697 55.571076)
(339.46429 255.00016 54.797423)
(381.71447 263.57044 54.038393)
(426.2132 271.66887 53.29944)
(473.0639 279.15496 52.633832)
(522.19353 286.06506 52.023942)
(573.57057 292.45183 51.549698)
(627.15083 298.14291 51.220823)
(682.95414 303.34899 51.019162)
(740.82001 307.95371 51.130015)
(800.84099 312.04996 51.418647)
(862.95997 315.6407 51.994729)
(927.26241 318.71221 52.854481)
(993.84112 321.27176 53.920238)
(1062.8628 323.27122 55.166637)
(1134.5809 324.63376 56.497043)
(1209.2402 325.24418 57.784326)
(1287.1627 324.96905 58.887619)
(1368.6449 323.64285 59.647529)
(1453.9802 321.08494 59.907696)
(1543.4016 317.1074 59.523496)
(1637.0712 311.52239 58.380055)
(1735.0485 304.15569 56.39721)
(1837.2817 294.84949 53.542238)
(1943.5994 283.47592 49.826489)
(2053.7169 269.93219 45.306396)
(2167.2471 254.15278 40.073156)
(2283.7215 236.10014 34.243475)
(2402.6126 215.77322 27.948089)
(2523.3575 193.19761 21.316593)
(2645.3784 168.43117 14.478629)
(2768.1066 141.55791 7.540889)
(2890.9699 112.70749 0.60819001)
(3013.4451 82.004214 -6.2353342)
(3134.948 49.632122 -12.876833)
(3255.0722 15.831046 -19.231054)
(3373.1714 -19.177212 -25.321394)
(3488.7935 -55.232817 -30.7484)
(3601.5536 -91.911946 -35.764942)
(3710.6686 -128.99211 -39.692619)
(3816.0289 -166.06535 -42.835467)
(3917.0981 -202.81827 -44.834071)
(4013.5793 -238.89364 -45.601072)
(4105.2769 -274.03434 -45.012479)
(4192.113 -307.93166 -43.037485)
(4274.1729 -340.35472 -39.660271)
(4351.7062 -371.0967 -34.98528)
(4425.0687 -400.04129 -29.141425)
(4494.8553 -427.08522 -22.318545)
(4561.6633 -452.27849 -14.753784)
(4626.3033 -475.5806 -6.7681418)
(4689.4985 -497.20534 1.3962513)
(4752.1801 -517.30854 9.4490931)
(4815.175 -536.27556 16.952579)
(4879.1168 -554.11875 23.797281)
(4944.5385 -571.44413 29.684904)
(5012.2398 -588.45093 34.493873)
(5082.3483 -605.5336 38.071309)
(5155.3549 -623.01059 40.318357)
(5230.9122 -641.10199 41.154958)
(5309.0796 -660.0131 40.711843)
(5389.7811 -680.09466 38.966428)
(5471.3512 -700.67507 35.934738)
(5555.0796 -723.15232 32.323857)
(5638.5488 -745.75795 27.04023)
(-2.7836805 1.3056276 0.90613503)
(-8.2415593 2.704826 2.0302609)
(-13.41532 5.2304629 3.2622692)
(-19.294844 7.0889691 5.5769034)
(-25.346871 10.51553 7.9929024)
(-31.143484 13.633098 10.737772)
(-36.643885 18.061629 13.779758)
(-42.003976 22.553648 17.049196)
(-46.468876 27.950845 20.632574)
(-50.105851 33.680404 23.816396)
(-52.791676 40.178513 27.518223)
(-54.064533 46.998614 30.535035)
(-53.936052 54.510135 33.859996)
(-52.067093 62.268858 36.571184)
(-48.534018 70.552789 39.353878)
(-42.933937 79.07657 41.438943)
(-35.614583 87.961739 43.651007)
(-26.004424 96.935611 45.239765)
(-14.602413 106.15159 46.716309)
(-0.95575597 115.38341 47.788015)
(14.649267 124.67859 48.69258)
(32.417164 133.98737 49.227634)
(52.18048 143.1852 49.648202)
(74.139173 152.35521 49.766727)
(98.125798 161.32317 49.766608)
(124.27095 170.25269 49.528668)
(152.52323 178.87413 49.238447)
(182.99208 187.32357 48.834696)
(215.60467 195.50298 48.313195)
(250.45273 203.33604 47.788581)
(287.57648 210.78402 47.26829)
(326.97463 217.83439 46.700506)
(368.63215 224.3975 46.169892)
(412.6191 230.38691 45.675037)
(458.94227 235.83847 45.212834)
(507.5266 240.72263 44.848347)
(558.39358 244.94449 44.563345)
(611.44425 248.60388 44.372493)
(666.60958 251.64535 44.362404)
(723.89578 254.15461 44.507569)
(783.2733 256.03521 44.810041)
(844.72817 257.42555 45.344765)
(908.35542 258.18319 46.1128)
(974.24044 258.3592 47.01092)
(1042.5772 257.85956 48.040256)
(1113.5836 256.6072 49.138883)
(1187.5384 254.47308 50.182854)
(1264.753 251.34076 51.067399)
(1345.5355 247.05011 51.656527)
(1430.1819 241.4526 51.827631)
(1518.9336 234.39284 51.458773)
(1611.9595 225.72747 50.45869)
(1709.3295 215.33249 48.759524)
(1811.0024 203.10083 46.334981)
(1916.8203 188.95773 43.19195)
(2026.5098 172.8467 39.376857)
(2139.6974 154.74677 34.961582)
(2255.9241 134.65293 30.043114)
(2374.6707 112.59377 24.726624)
(2495.3772 88.61142 19.121471)
(2617.4704 62.779556 13.336848)
(2740.3707 35.19272 7.4573263)
(2863.5034 5.966303 1.5901079)
(2986.342 -24.747149 -4.2109075)
(3108.2744 -56.802488 -9.8148801)
(3228.9576 -89.834773 -15.286815)
(3347.4442 -123.98936 -20.149284)
(3463.8166 -158.72011 -24.895781)
(3577.241 -193.66652 -28.929954)
(3687.1932 -228.62042 -32.294888)
(3793.2919 -263.39317 -34.843485)
(3895.1225 -297.57561 -36.471257)
(3992.3613 -330.92675 -37.063492)
(4084.767 -363.25039 -36.505455)
(4172.2935 -394.28424 -34.807389)
(4254.9345 -423.94803 -31.963218)
(4332.9678 -452.0508 -28.075516)
(4406.6969 -478.6383 -23.211211)
(4476.7423 -503.60483 -17.596892)
(4543.5966 -527.11507 -11.37924)
(4608.2293 -549.17112 -4.8490885)
(4671.2177 -570.06201 1.8428626)
(4733.61 -589.76388 8.2623352)
(4796.2057 -608.72485 14.74142)
(4859.5556 -627.33938 20.320714)
(4924.618 -645.36577 25.080704)
(4991.8481 -663.38774 28.892084)
(5061.5528 -681.61792 31.683389)
(5134.0505 -700.39041 33.290624)
(5209.4259 -719.67756 33.864972)
(5287.0931 -739.78328 33.100111)
(5367.7546 -760.91266 31.546422)
(5449.1204 -782.35579 28.488606)
(5532.9112 -805.49887 25.163312)
(5616.4639 -828.64889 19.935683)
(-3.8621609 1.6036834 1.377495)
(-9.1794463 3.3462315 2.2798686)
(-14.924942 5.588529 3.4333941)
(-20.772203 7.825763 5.2422737)
(-26.875322 10.786436 6.8000443)
(-32.485654 14.012566 9.1670613)
(-38.732767 17.539673 11.600322)
(-43.751358 21.830929 14.385466)
(-48.673153 26.151623 16.889555)
(-52.58528 31.523367 19.960772)
(-55.512052 36.704903 22.486867)
(-57.022557 42.930387 25.344459)
(-57.213652 48.969535 27.678992)
(-55.707932 55.855661 30.176508)
(-52.383905 62.631294 32.036242)
(-47.291414 69.962978 34.105199)
(-40.096211 77.223841 35.529548)
(-31.050403 84.832072 36.958944)
(-19.868596 92.35379 37.99884)
(-6.6719294 99.999849 38.909119)
(8.5838031 107.59854 39.506943)
(25.900205 115.10574 40.00122)
(45.292882 122.58413 40.235385)
(66.723 129.855 40.370877)
(90.255982 137.06091 40.31326)
(115.88414 143.98237 40.199721)
(143.64495 150.7458 39.974436)
(173.5216 157.23717 39.667515)
(205.62092 163.40566 39.35095)
(239.92636 169.23742 39.025394)
(276.4854 174.65422 38.661166)
(315.3239 179.63947 38.331265)
(356.47492 184.07766 38.04243)
(399.95303 188.0058 37.774352)
(445.71668 191.34543 37.562143)
(493.75266 194.06991 37.399224)
(543.99382 196.221 37.312419)
(596.386 197.72922 37.332125)
(651.0364 198.65862 37.419044)
(707.7229 198.94535 37.610889)
(766.49686 198.70389 37.990173)
(827.37616 197.8326 38.473201)
(890.38311 196.3506 39.138429)
(955.66535 194.19641 39.893145)
(1023.3935 191.31328 40.732814)
(1093.7947 187.60881 41.602361)
(1167.1499 182.95638 42.411547)
(1243.7705 177.24204 43.076775)
(1323.9641 170.31976 43.494481)
(1408.0274 162.05935 43.565661)
(1496.2018 152.32965 43.198626)
(1588.6584 141.01938 42.32146)
(1685.4722 128.03667 40.882305)
(1786.6097 113.31246 38.861708)
(1891.9223 96.807797 36.266453)
(2001.1503 78.503207 33.133622)
(2113.9314 58.410061 29.521377)
(2229.8218 36.554299 25.506853)
(2348.3116 12.989656 21.171872)
(2468.8533 -12.220623 16.608722)
(2590.8721 -38.985296 11.89475)
(2713.7948 -67.20178 7.1110385)
(2837.0437 -96.748893 2.3340841)
(2960.0841 -127.46019 -2.379517)
(3082.2736 -159.18821 -6.9800746)
(3203.3363 -191.6883 -11.306719)
(3322.2496 -224.82395 -15.48339)
(3438.7895 -258.29856 -19.226717)
(3552.782 -291.91222 -22.368887)
(3663.0967 -325.25409 -25.085401)
(3769.616 -358.2067 -27.046028)
(3871.8433 -390.48966 -28.261079)
(3969.4813 -421.82791 -28.594026)
(4062.3299 -452.1019 -27.992003)
(4150.2531 -481.17604 -26.511234)
(4233.3055 -508.86401 -24.066928)
(4311.7075 -535.1639 -20.810035)
(4385.8039 -560.04367 -16.79275)
(4456.1144 -583.53935 -12.198504)
(4523.2812 -605.75922 -7.1680706)
(4588.0529 -626.81034 -1.928585)
(4651.215 -646.9066 3.3674395)
(4713.6866 -666.16476 8.4165992)
(4776.058 -684.81884 13.275674)
(4839.3318 -703.2701 17.173049)
(4904.3391 -721.70973 20.829383)
(4971.433 -740.2258 23.478235)
(5040.9281 -759.21666 25.447702)
(5113.3702 -778.65987 26.377176)
(5188.469 -798.89268 26.465088)
(5266.1121 -819.7604 25.527788)
(5346.6954 -841.71588 23.766492)
(5427.9003 -863.85621 20.99306)
(5511.8509 -887.61924 17.757269)
(5595.1971 -911.17609 13.196971)
(-4.5488875 1.6670961 1.4336843)
(-10.056057 2.7285559 2.130843)
(-15.549237 5.0898837 2.6870855)
(-21.388792 6.8604815 3.8506173)
(-27.382571 9.8881547 5.1793221)
(-33.882189 12.165748 7.177774)
(-39.584645 15.700932 9.0260395)
(-45.224173 18.974896 10.907611)
(-50.343389 23.10367 13.436001)
(-54.449259 27.216469 15.286232)
(-57.570753 31.975561 17.727819)
(-59.47278 36.874578 19.539506)
(-59.93364 42.174724 21.746588)
(-58.597003 47.709474 23.23003)
(-55.770851 53.382546 25.11148)
(-50.766194 59.309352 26.272604)
(-44.105545 65.262595 27.600733)
(-35.222292 71.317281 28.517992)
(-24.494952 77.3269 29.373446)
(-11.597374 83.35097 29.94069)
(3.2023478 89.234428 30.448757)
(20.164131 95.074129 30.723651)
(39.042147 100.70957 30.934718)
(60.065939 106.23511 30.994301)
(83.076824 111.50782 31.000543)
(108.21481 116.60174 30.926247)
(135.40478 121.43579 30.788551)
(164.78865 125.96526 30.660886)
(196.30724 130.17398 30.507782)
(230.06046 134.01791 30.349115)
(266.05912 137.42973 30.232628)
(304.35094 140.3646 30.144371)
(344.95225 142.78716 30.081242)
(387.84941 144.65352 30.054601)
(433.06757 145.90435 30.071857)
(480.53854 146.56986 30.126318)
(530.33923 146.57135 30.217204)
(582.40823 145.97947 30.356071)
(636.40592 144.71788 30.579492)
(692.515 142.92313 30.924384)
(750.70334 140.44335 31.279982)
(810.96293 137.35641 31.762192)
(873.3796 133.628 32.310037)
(938.07802 129.19463 32.926113)
(1005.2454 124.00608 33.591654)
(1075.1065 117.96395 34.251274)
(1147.9494 110.96719 34.851559)
(1224.0738 102.89696 35.330452)
(1303.792 93.630988 35.605872)
(1387.3912 83.048444 35.610835)
(1475.1094 71.041168 35.273718)
(1567.1135 57.514084 34.542703)
(1663.476 42.398861 33.378633)
(1764.164 25.645984 31.76831)
(1869.0338 7.2401904 29.715967)
(1977.8308 -12.819618 27.25169)
(2090.205 -34.49849 24.418463)
(2205.721 -57.753802 21.274265)
(2323.8827 -82.512719 17.884642)
(2444.1504 -108.69582 14.314089)
(2565.9588 -136.19918 10.626958)
(2688.7418 -164.91192 6.8875236)
(2811.9241 -194.69258 3.1484884)
(2934.9322 -225.39882 -0.55064244)
(3057.2607 -256.86355 -4.1007857)
(3178.257 -288.86305 -7.5495025)
(3297.5292 -321.24841 -10.724284)
(3414.3909 -353.64415 -13.502826)
(3528.502 -386.00423 -16.048174)
(3639.0748 -418.02002 -18.066902)
(3745.9037 -449.54694 -19.485586)
(3848.4591 -480.29947 -20.339804)
(3946.4721 -510.09896 -20.481136)
(4039.7015 -538.89063 -19.958479)
(4127.9401 -566.38904 -18.660616)
(4211.3186 -592.67754 -16.710118)
(4290.0032 -617.64398 -14.135893)
(4364.3676 -641.35578 -11.009238)
(4434.9284 -663.85274 -7.4959797)
(4502.285 -685.27233 -3.6851178)
(4567.2292 -705.72432 0.23240517)
(4630.5197 -725.39791 4.1146508)
(4693.0476 -744.50842 7.8500482)
(4755.6129 -763.21796 11.228942)
(4819.1013 -781.83247 14.247403)
(4883.9966 -800.49984 16.634615)
(4951.0521 -819.46231 18.421016)
(5020.5046 -838.82668 19.533436)
(5092.7894 -858.90551 19.945252)
(5167.86 -879.59057 19.623919)
(5245.3568 -901.03876 18.531728)
(5325.9037 -923.43803 16.798748)
(5407.006 -946.03519 14.271828)
(5491.0409 -970.05493 11.253913)
(5574.2864 -993.8099 7.2495103)
(-5.5991476 1.2619521 1.5666193)
(-10.91459 2.4351901 1.7593034)
(-16.701746 4.3137968 2.350548)
(-22.439995 6.1290232 3.3941237)
(-29.152657 8.1796269 4.3630403)
(-34.822439 10.580274 5.679846)
(-41.11103 13.155986 6.6711405)
(-46.811268 16.253333 8.6722133)
(-52.006253 19.181771 9.7999283)
(-56.244479 23.005784 11.652479)
(-59.735014 26.501677 12.981276)
(-61.76579 30.76622 14.702394)
(-62.349767 34.797142 15.776055)
(-61.471627 39.337905 17.31362)
(-58.647918 43.703637 18.161371)
(-54.108693 48.389037 19.244614)
(-47.553101 52.85652 19.931777)
(-39.067089 57.474581 20.623481)
(-28.548727 61.895845 21.028524)
(-16.051293 66.270537 21.45486)
(-1.5134581 70.47295 21.63574)
(15.009896 74.503683 21.821142)
(33.550839 78.358441 21.854258)
(54.100078 81.972996 21.882815)
(76.667724 85.381565 21.834483)
(101.28392 88.529515 21.777073)
(127.99425 91.387662 21.720397)
(156.80168 93.947306 21.679393)
(187.79109 96.160636 21.646355)
(220.99143 97.976237 21.678968)
(256.43893 99.349176 21.744622)
(294.1917 100.24246 21.852491)
(334.22945 100.60597 22.008614)
(376.60979 100.37734 22.218334)
(421.27746 99.568458 22.446683)
(468.22217 98.120269 22.718019)
(517.47088 96.09328 22.990335)
(568.57596 93.390335 23.380602)
(621.97172 90.082883 23.702883)
(677.52381 86.044748 24.012381)
(735.14417 81.398491 24.399441)
(794.85657 76.151601 24.811225)
(856.72648 70.221768 25.255865)
(920.89277 63.5967 25.733661)
(987.52725 56.208163 26.216533)
(1056.8757 47.976397 26.685328)
(1129.2171 38.802123 27.10891)
(1204.8545 28.577418 27.438971)
(1284.0977 17.191465 27.62619)
(1367.2288 4.5351753 27.622484)
(1454.4842 -9.487065 27.375804)
(1546.0277 -24.95521 26.849868)
(1641.9316 -41.925669 26.013336)
(1742.166 -60.429664 24.854432)
(1846.5898 -80.472381 23.373538)
(1954.9589 -102.03498 21.589315)