/*--------------------------------*- C++ -*----------------------------------*\
  =========                 |
  \\      /  F ield         | OpenFOAM: The Open Source CFD Toolbox
   \\    /   O peration     | Website:  https://openfoam.org
    \\  /    A nd           | Version:  6
     \\/     M anipulation  |
\*---------------------------------------------------------------------------*/
FoamFile
{
    version     2.0;
    format      ascii;
    class       pointScalarField;
    location    "0.38";
    object      p;
}
// * * * * * * * * * * * * * * * * * * * * * * * * * * * * * * * * * * * * * //

dimensions      [1 -1 -2 0 0 0 0];

internalField   nonuniform List<scalar> 
28033
(
897077.59
-1197360.5
7018.2751
3004.0944
1662681.7
-1692603.3
3640.6595
1344.1441
748168.96
668791.47
576732.21
473094.73
355310.83
249328.82
140331.93
19447.283
-101471.28
-209976.69
-339895.02
-410306.63
-553322.26
-674174.95
-662687.51
-12714.202
-6257.8712
-6476.988
-3199.2147
-2593.8734
-811.93918
816.28917
2541.9329
4056.5353
5813.2192
7633.2362
8619.0202
10252.768
11564.593
10847.902
227071
247907.18
224990.89
241387.65
236260.59
242950.89
243127.1
244159.04
243779.97
244103.63
241765.72
240087.63
238391.7
236082.53
233238.38
230094.95
227627.56
224532.5
220998.99
217797.11
214699.4
210978.55
207889.61
204361.14
200551.02
197261.59
193791.47
189991.64
186401.47
182843.27
179224.57
175252.41
171803.45
168336.44
164144.37
160843.53
157070.64
154018.78
149931.71
146791.31
143059.86
139749.52
136450.5
133445.69
130321.76
127520.07
124659.1
122043.41
119337.19
116871.37
114273.57
111829.37
109290.4
106783.43
104213.74
101607.58
98953.086
96237.466
93468.482
90677.513
87836.142
84973.388
82067.454
79259.219
76358.628
73601.286
70985.404
68018.571
64948.465
62054.734
59093.426
56313.24
53281.388
50537.665
47385.484
44884.223
41651.919
39442.733
36278.079
34385.546
31588.571
29839.708
27511.625
25857.941
23983.252
22454.658
21130.275
19969.423
17789.467
17146.878
16194.429
12985.734
14859.715
13939.879
12337.54
-216260.29
-182819.09
-213323.87
-193229.43
-218873.26
-215201.68
-220589.44
-217747.14
-221931.06
-217753.63
-219094.32
-215818.96
-214406.78
-212706.71
-209554.13
-207719.71
-204186.5
-201575.33
-198936.18
-195537.29
-192347.65
-190021.25
-185709.61
-183683.01
-180082.76
-176522.51
-174207.83
-169824.42
-167607.3
-162961.64
-160392.97
-156354.03
-153167.14
-149699.35
-146365.73
-143199.4
-139039.47
-136233.02
-132301.11
-129359.12
-125900.68
-122850.09
-119682.98
-116785.18
-113858.98
-111146.94
-108459.41
-105910.72
-103418.21
-100987.01
-98600.908
-96222.759
-93849.41
-91452.998
-89013.311
-86532.642
-83991.164
-81387.104
-78733.659
-76022.787
-73274.066
-70488.397
-67702.628
-64866.612
-62081.942
-59230.541
-56533.208
-53758.624
-51301.138
-48246.148
-45714.318
-42944.874
-40447.468
-37782.667
-35323.895
-32852.483
-30438.681
-28194.508
-25993.835
-23935.383
-22038.764
-20257.598
-18559.041
-17148.486
-15695.439
-14436.206
-13261.275
-12226.171
-10933.131
-10134.777
-9190.1944
-7816.8567
-7139.4306
-7283.4305
-5439.4111
1361713.9
1292692.5
938785.55
949937.45
667515
410382.96
271431.68
17867.366
-175667.49
-418278.07
-593543.92
-822171.01
-1050271.2
-1221566.4
-1302742.3
-351688.73
-268919.21
-128321.28
-260833
-213120.15
-231551.02
-221486.1
-235900.3
-220800.6
-231308.19
-231278.1
-222373.51
-228098.31
-217957.13
-222977.8
-215896.34
-211885.2
-209835.56
-204404.98
-204778.13
-198798.2
-193975.3
-193670.53
-189984.04
-187222.23
-184314.86
-176929.21
-177683.76
-169248.85
-169293.05
-165749.91
-161957.76
-158398.53
-155010.22
-151791.63
-144768.75
-143864.52
-140239.58
-136563.57
-133114.58
-129685.72
-126386.63
-123149.06
-120048.84
-117066.02
-114201.35
-111414.32
-108737.74
-106118.64
-103591.84
-101093.6
-98629.398
-96161.664
-93691.404
-91175.999
-88626.526
-86035.074
-83391.763
-80704.896
-77997.53
-75246.848
-72502.631
-69737.458
-66991.308
-64225.482
-61493.232
-58980.036
-56224.224
-52846.45
-50667.778
-48023.201
-45249.153
-42539.084
-39876.504
-37210.341
-34613.18
-32083.435
-29685.175
-27375.67
-25198.47
-23148.191
-21300.797
-19511.25
-17983.019
-16499.643
-15201.343
-13896.268
-12825.938
-11636.971
-10613.071
-9643.7081
-8576.1755
-8456.2582
-7597.0728
-7836.5584
13486.658
13159.832
9977.0253
10258.13
6659.6985
6836.0151
3639.6241
2481.1099
401.91313
-1778.0418
-1790.6594
-4667.9585
-4753.389
-9760.6361
-8529.8039
20910.785
15587.085
14819.046
16172.034
16679.324
18192.969
19417.293
20847.92
22145.334
23738.528
25264.105
26755.269
28686.534
30580.726
32767.463
34908.6
37374.583
39830.764
42484.417
45228.093
48021.244
50943.057
53839.634
56772.444
59742.506
62690.59
64742.572
69761.958
71713.657
74948.738
77947.385
81096.447
84119.603
87216.282
90245.759
93273.226
96256.898
99181.816
102064.26
104880.46
107634.82
110328.85
112994.56
115594.97
118209.39
120808.52
123439.23
126109.01
128868.58
131664.11
134604.21
137621.47
140759.91
144054.6
147202.65
150809.92
153893.78
155947.24
162986.78
164712.72
167032.35
174779.91
175882.96
180062.68
181194.02
189602.39
187603.54
196848.97
198170.96
202541.93
205406.56
206789.49
214903.5
215294.78
216989.45
224405.93
222868.24
230812.88
228812.7
236213.17
240579.68
239466.71
240839.02
247214.28
246591.76
246087.33
251129.49
249196.5
247189.6
242216.52
240017.93
249141.13
241977.43
222389.74
279926.2
633935.94
692632.27
730703.02
763274.46
776984.96
800887.25
799229.87
810915.27
800468.94
781088.61
795793.34
744119.07
718472.91
752532.41
597289.65
-978420.85
-1233820.5
-1223926.7
-1321836.7
-1288216.6
-1231707.1
-1414959.5
-1506123.5
-1412296.9
-1415394.1
-1359352.3
-1311379.8
-1231103.8
-1216403.4
-1143758.4
2684.4778
2725.3969
3107.4755
3224.9276
3920.2918
4313.7069
4341.1055
4404.5546
4480.0066
4376.6289
4304.4527
3754.3414
3622.197
3376.7773
3270.5418
-110.78188
2921.7167
2469.4413
2238.4708
1692.5849
1872.8741
1474.7018
1608.4991
1680.6556
1689.6932
2275.7064
2536.5568
2456.2392
5471.101
468.61223
224074.65
228227.32
203718.23
207206.94
211151.71
213418.56
215713.74
217311.75
217983.75
217355.38
216266.05
216216.9
213728.8
211741.85
209051.87
207629.61
204475.84
201906.09
198692.97
196234.18
193180.67
190450.82
187228.06
183964.73
180721.99
178120.43
174470.36
171206.16
168108.94
164899.21
161019.24
158045.79
155308.29
151675.23
148464.55
144988.28
141896.26
138296.18
135280.5
132453.53
129482.06
126462.24
123695.78
120823.06
118122.41
115567.17
112977.51
110590.82
108151.58
105854.16
103521.46
101260.53
98971.108
96695.469
94391.619
92068.176
89711.813
87312.393
84894.14
82434.99
79944.996
77409.158
74900.674
72387.35
69730.545
67110.41
64092.067
61624.039
59160.442
56464.553
53860.172
51272.414
48600.669
46163.21
43493.213
41115.698
38535.946
36354.281
33818.628
31954.601
29664.622
27742.176
25986.832
24298.771
22577.228
21094.744
19712.074
18052.11
16861.129
16053.744
13730.794
13084.295
12122.29
7504.6239
3578.7815
208960.25
190606.34
169228.19
176807.69
176937.01
179299.01
181126.45
183095.46
183578.66
184239.1
183743.88
183164.35
181587.63
180677.37
178593.18
176693.91
174296.16
172509.31
169856.8
167615.28
164939.53
162139.43
159743.95
157091.6
154570.63
151589.86
149054.3
146401.01
143514.33
140740.79
138160.53
135442.09
132385.2
129592.08
126894.65
124168.77
121417.59
118764.32
116170.18
113518.88
110867.93
108617.7
105833.64
103572.68
101178.9
99011.671
96766.856
94710.897
92576.043
90602.891
88554.489
86610.746
84620.181
82667.738
80692.123
78712.79
76708.113
74694.731
72648.89
70590.219
68499.27
66393.041
64326.019
62201.858
60100.939
58372.373
56822.012
54640.228
52760.628
50586.764
48446.048
46395.872
43974.973
41996.298
39328.78
37662.79
34878.654
33456.66
30699.206
29502.983
26988.366
25539.671
23837.921
21661.544
19770.036
18485.454
16695.246
15729.121
14350.316
12652.6
11272.194
10132.923
7100.6894
4610.7846
-978.63377
162921.46
163798.74
139903.42
148130.57
145096.29
148845.68
151184.34
153096.32
152901.53
154129.81
153431.37
153381.5
152085.72
151253.09
149378.07
148313.98
146167.85
144597.46
142325.31
140543.49
138277.55
136482.69
134150.33
132136.7
129574.77
127634.44
125260.81
122914.65
120653.57
118430.35
115989.97
113616.16
111411.11
109162.85
106935.24
104561.06
102553.56
100479.36
98259.469
96077.664
93887.236
91730.296
89877.933
87916.434
86048.246
84166.05
82342.242
80569.546
78836.476
77144.494
75464.477
73834.124
72182.293
70568.586
68928.442
67293.349
65640.666
63976.85
62279.774
60577.617
58837.842
57075.565
55326.545
53420.295
51709.067
50089.932
48672.82
46648.396
45095.385
43380.899
41601.052
39657.998
37646.777
35764.535
33944.351
32039.152
30353.896
28458.611
26946.215
25158.611
23615.87
22263.268
20469.934
19097.911
17472.971
16343.66
14680.827
13904.209
12346.028
11246.668
10106.069
7750.9538
6411.0109
2316.0792
579.9192
132407.22
132600.64
109400.63
118620.97
113274.15
118426.11
119322.67
120376.54
121128.65
122447.83
121915.3
122133.62
121080.53
120845.45
119326.76
118547.78
116783.45
115876.72
113961.64
112685.6
110863.04
109251.7
107469.35
105746.23
104034.21
102302.77
100454.23
98784.174
96924.744
95106.505
93306.546
91530.031
89716.178
87833.147
86185.364
84148.404
82497.089
79974.361
78075.905
76409.876
74895.485
73315.245
71638.226
70003.671
68485.991
66986.439
65531.188
64127.656
62730.664
61375.739
60030.19
58717.548
57400.203
56113.246
54805.964
53527.554
52223.911
50930.259
49619.074
48308.701
46986.711
45650.472
44303.548
42955.813
41664.208
40215.227
39116.76
37588.304
35894.751
34559.027
33202.862
31708.072
30413.992
28901.987
27415.112
25926.874
24468.758
23133.882
21687.166
20424.348
19135.659
18005.428
16671.382
15567.405
14466.911
13811.025
12633.346
11597.727
10473.894
9476.6333
7809.4098
6646.8549
4427.6189
2352.0959
-936.70931
108916.71
99140.139
81145.765
88972.473
86604.088
89472.229
90346.006
91881.016
91811.368
92858.525
92415.836
92509.199
91877.443
91681.319
90343.031
90041.398
88557.633
87907.951
86371.21
85644.234
84095.961
83189.178
81628.85
80648.614
79113.634
77923.031
76475.677
75175.334
73744.506
72480.381
71062.517
69744.706
68327.149
67077.32
65738.712
64429.055
63950.609
63773.287
62529.172
62266.375
60773.946
59527.192
58380.153
57185.315
56023.843
54825.321
53678.021
52529.933
51433.232
50342.486
49280.506
48245.12
47210.467
46198.478
45185.236
44186.285
43170.563
42166.898
41147.434
40117.387
39099.72
37996.512
36993.541
35898.057
34703.504
33754.351
32560.826
31390.835
30182.342
29022.234
27869.234
26498.573
24673.256
23413.855
21978.133
20806.153
19748.662
18605.7
17586.172
16628.974
15512.168
14781.328
13622.144
13079.513
11886.734
11535.235
10232.935
9757.3392
8568.7556
7590.6759
6534.0347
5453.5798
4108.2504
1984.9392
-240.61814
69308.13
69957.043
53895.614
62022.399
57602.865
59062.283
61121.274
61374.754
61187.372
62793.944
61895.377
62485.31
61828.962
61888.906
60906.227
60984.265
59764.002
59652.86
58445.914
58036.711
56848.249
56285.35
55237.165
54604.074
53556.467
52865.073
51914.686
51165.028
50229.595
49402.092
48492.628
47627.279
46760.538
45910.036
44950.984
44235.816
43816.073
43505.775
43116.821
42901.453
42650.146
41814.168
40937.659
40143.302
39340.935
38531.191
37744.705
36984.051
36233.397
35498.014
34781.557
34077.868
33377.962
32700.258
32022.051
31353.251
30689.499
30033.911
29367.777
28717.827
28040.435
27402.67
26709.582
26011.578
25414.82
24587.271
24001.086
23248.335
22497.97
21754.409
20904.63
19903.88
18980.903
17647.857
16527.639
15746.119
14981.856
14167.541
13432.009
12824.803
11814.951
11588.477
10356.7
10285.204
9018.7273
9079.4779
7733.9159
7851.2391
6621.237
6615.8218
5686.3125
4915.0043
3705.8762
2136.122
1221.1113
40156.317
35928.15
29013.138
34176.453
29725.806
32139.59
32844.704
32470.368
32771.754
33174.758
32940.149
32946.862
32796.563
32856.45
32265.451
32458.985
31664.309
31844.107
31022.687
31195.41
30427.783
30496.582
29813.253
29691.397
29031.336
28859.873
28236.798
27939.356
27378.001
27081.067
26560.828
26222.749
25754.128
25350.886
24941.087
24612.294
24094.111
23959.03
23188.692
22524.195
22205.601
21857.638
21397.846
21089.204
20734.773
20379.862
20027.495
19704.534
19365.215
19054.995
18748.136
18451.461
18161.452
17887.745
17603.63
17341.827
17065.92
16808.97
16529.649
16271.552
15997.93
15718.533
15439.76
15172.018
14834.064
14577.846
14221.888
13877.793
13534.904
13157.223
12766.452
12303.228
11737.175
11606.84
11251.812
10836.085
10334.39
9861.0524
9465.2897
8940.0774
8541.7794
8201.6032
7532.6112
7561.954
6665.3661
6897.8301
5954.4217
6209.3427
5258.8075
5187.2128
4127.0243
3693.076
3231.0504
2628.0826
2045.4833
2509.0115
4999.9313
274.50779
3575.7008
2461.455
2905.3227
3042.3963
3326.818
2190.9049
3517.1696
2478.2279
2952.7312
2757.6741
3070.6309
2598.039
3269.5898
2744.4201
3341.726
2935.8418
3440.7783
3142.2286
3673.2
3229.418
3572.7728
3449.1553
3679.2423
3595.1772
3786.7455
3779.4007
3886.7053
3886.3189
3991.4924
3993.8279
4107.9957
4153.9599
4142.6181
4330.6911
4395.2255
4332.089
4237.2892
4313.9477
4428.6036
4369.4246
4397.9392
4418.2929
4404.4537
4428.1017
4446.7521
4466.9669
4490.251
4524.2026
4562.0389
4604.6902
4654.9652
4713.3666
4778.5546
4842.3862
4931.9998
4995.3768
5103.5168
5173.0534
5282.6206
5371.075
5464.0755
5580.5681
5647.7622
5750.4753
5822.1628
5872.1679
5912.318
5875.1224
5839.6012
5724.4959
5699.9424
5622.8765
5568.6557
5396.8606
5307.0331
5112.5409
4991.5619
4878.6862
4570.3779
4596.0228
4271.3447
4089.4405
4109.6598
3476.0662
3966.6107
3003.8988
3778.0843
3278.7399
3933.2445
3753.7018
3152.5923
3390.2604
-25784.872
-26806.235
-23430.665
-21458.662
-22741.013
-24102.207
-22955.613
-25057.379
-24596.928
-25175.313
-25180.963
-25407.905
-24987.869
-24975.315
-24794.423
-24162.944
-24279.484
-23405.971
-23557.302
-22683.721
-22730.906
-22163.804
-22021.588
-21099.412
-20961.392
-20212.922
-19977.581
-19243.009
-18953.589
-18308.146
-17907.123
-17324.025
-16882.975
-16301.055
-15897.198
-15281.012
-14887.381
-14343.605
-13891.231
-13356.29
-12938.701
-12484.822
-12099.444
-11652.943
-11253.712
-10871.402
-10496.382
-10112.624
-9751.9286
-9384.5996
-9008.5342
-8637.4009
-8264.8037
-7877.6124
-7490.396
-7098.6203
-6696.7327
-6280.2031
-5876.9497
-5438.9223
-5015.521
-4578.6478
-4146.0899
-3688.1564
-3290.2454
-2829.6615
-2419.9427
-2003.6044
-1601.3136
-1225.1573
-864.09315
-501.09601
-227.47121
79.220812
301.47136
397.43093
660.01164
772.9643
987.13876
1049.9104
1258.8393
1237.5577
1491.6703
1474.2122
1555.7542
1948.9958
1552.3778
2578.7724
1759.9854
2966.2781
2176.0366
2587.4726
2255.8594
3139.3908
4333.639
-61767.85
-61555.42
-50677.033
-52341.158
-53457.082
-53928.613
-55115.046
-55354.699
-57023.684
-56580.239
-57188.322
-56955.178
-56859.035
-56258.325
-56045.341
-54988.485
-54664.89
-53523.777
-52939.022
-51823.982
-51252.534
-49114.47
-48110.948
-46957.487
-46279.889
-45157.599
-44289.309
-43235.139
-42316.943
-41263.7
-40362.269
-39308.743
-38398.725
-37382.344
-36413.506
-35458.119
-34501.251
-33565.122
-32643.045
-31773.528
-30909.902
-30047.725
-29216.111
-28435.078
-27633.873
-26885.644
-26128.129
-25388.981
-24669.327
-23952.17
-23232.002
-22527.561
-21811.377
-21091.408
-20368.695
-19635.714
-18892.516
-18132.025
-17379.41
-16577.615
-15805.375
-14991.567
-14178.286
-13364.985
-12547.321
-11709.075
-10896.497
-10098.677
-9311.7417
-8562.5353
-7808.8278
-7110.9716
-6458.1874
-5513.7479
-4371.4868
-3799.8982
-3319.5138
-2975.7837
-2417.1023
-2382.2575
-1550.0129
-1876.7503
-915.95101
-1238.6867
-558.21991
-379.08841
-346.70637
722.9753
18.099748
1723.034
1127.1669
1958.5822
2781.2402
3789.6822
5201.5035
-98571.352
-78089.662
-70809.66
-72116.639
-74364.309
-75426.799
-76913.162
-78273.993
-79854.274
-79823.669
-80156.082
-80501.558
-79808.781
-79244.878
-78803.239
-77428.794
-77039.358
-75404.405
-74731.316
-73568.349
-73042.304
-72978.38
-72319.606
-71546.543
-70641.038
-68972.284
-67952.9
-66225.273
-64990.17
-63448.412
-62107.676
-60624.483
-59297.097
-57797.959
-56419.944
-54973.286
-53643.412
-52228.04
-50927.435
-49592.066
-48336.202
-47051.737
-45861.126
-44646.733
-43490.836
-42349.068
-41248.423
-40151.979
-39084.948
-38023.86
-36970.17
-35925.64
-34876.977
-33829.607
-32771.609
-31713.422
-30637.107
-29552.627
-28454.723
-27338.361
-26211.128
-25058.161
-23915.942
-22736.377
-21608.2
-20425.636
-19288.547
-18117.418
-16993.353
-15855.658
-14764.168
-13784.427
-12677.069
-11671.263
-10694.783
-9551.2565
-8446.0549
-7652.9586
-6882.8106
-6186.0716
-5657.0091
-4918.1971
-4490.0026
-3874.6027
-3321.8752
-2969.1746
-2198.1806
-1963.3842
-1155.1667
-489.87444
-14.872351
1376.951
2221.6859
3636.9171
6749.0566
-118233.05
-114035.58
-102396.7
-101321.06
-103497.66
-104368.43
-107230.76
-108709.09
-109171.21
-110675.25
-110448.22
-110221.58
-109788.23
-108911.32
-107877.79
-106763.41
-105312.99
-103818.27
-102539.68
-100663.69
-99826.478
-97848.545
-98251.16
-97134.545
-95617.947
-94012.83
-92257.093
-90280.161
-88530.522
-86486.368
-84721.702
-82656.539
-80892.268
-78900.025
-77059.172
-75188.794
-73309.489
-71470.315
-69654.046
-67892.05
-66116.915
-64455.121
-62785.372
-61198.867
-59634.797
-58121.642
-56650.875
-55201.506
-53789.506
-52402.402
-51019.527
-49654.707
-48288.294
-46914.845
-45532.216
-44139.423
-42722.439
-41283.155
-39836.227
-38347.862
-36845.752
-35330.922
-33781.614
-32222.124
-30686.398
-29111.154
-27555.5
-26023.7
-24514.928
-22987.239
-21590.572
-20092.492
-18716.157
-17437.422
-16130.374
-15175.729
-13950.184
-12719.987
-11647.169
-10680.986
-9639.5829
-8807.6421
-7895.5706
-7152.7222
-6272.9274
-5798.5361
-4689.1467
-4477.2897
-3436.8289
-2622.1781
-2301.1733
52.821046
1267.5082
4905.7144
8332.6537
-169158.88
-153289.98
-128797.23
-136925.66
-134423.26
-140570.93
-140554.39
-143514.4
-143870.14
-145105.6
-144606.12
-144482.33
-143329.69
-142449.08
-140680.66
-139106.28
-137447.79
-135152.03
-133479.79
-131151.33
-129171.69
-127127.27
-124494.25
-121836.42
-119804.4
-117431.62
-115428.96
-112860.76
-110710.56
-108254.47
-105960.11
-103520.42
-101290.28
-98914.693
-96634.688
-94284.976
-91984.932
-89708.766
-87533.953
-85301.897
-83224.409
-81112.4
-79095.069
-77107.847
-75186.326
-73307.767
-71485.256
-69689.861
-67941.564
-66215.798
-64502.33
-62812.671
-61117.946
-59426.873
-57723.445
-56016.322
-54279.175
-52536.756
-50767.24
-48969.199
-47164.842
-45321.042
-43469.123
-41579.958
-39725.175
-37818.962
-35957.2
-34090.703
-32243.222
-30386.878
-28564.112
-26801.647
-25096.478
-23391.842
-21745.729
-20229.172
-18700.378
-17316.566
-15924.33
-14641.467
-13428.741
-12263.448
-11174.961
-10113.551
-9178.9263
-8147.5483
-7235.8097
-6443.183
-5068.4629
-4600.813
-2801.3349
-1443.1642
175.99936
3012.5687
6801.4856
-187389.36
-179264.15
-151089.22
-163332.36
-165183.59
-169507.74
-170692.51
-174291.69
-174853.78
-174959.52
-175484.06
-174156.39
-173199.16
-171796.22
-169477.91
-167925.37
-165492.82
-163010
-160966.11
-158053.73
-155795.43
-153148.38
-150510.17
-148243.79
-145243.52
-142625.84
-139995.22
-136976.13
-134660.94
-131530.15
-129003.84
-125946.64
-123184.2
-120277.45
-117491.83
-114764.32
-111908.63
-109263.6
-106436.83
-103844.72
-101199.11
-98658.499
-96196.089
-93797.526
-91488.403
-89241.838
-87071.168
-84959.211
-82899.784
-80880.43
-78884.286
-76904.27
-74921.733
-72925.377
-70906.09
-68856.794
-66769.249
-64642.207
-62478.589
-60278.546
-58047.152
-55791.812
-53521.814
-51215.151
-48924.865
-46566.826
-44271.31
-42052.76
-39885.137
-37576.096
-35497.243
-33317.5
-31180.925
-29161.789
-27109.735
-25147.548
-23271.999
-21462.545
-19737.623
-18164.779
-16630.171
-15239.049
-13909.524
-12751.276
-11521.441
-10563.294
-9488.8385
-8512.0025
-7445.0501
-6819.5906
-4791.1523
-4591.7611
-2041.3559
996.43368
6600.8103
-260697.65
-177071.56
-187395.61
-189045.64
-196617.46
-194689.65
-200538.68
-202246.8
-201904.8
-202675.72
-201991.3
-201368.11
-199086.63
-197543.69
-194877.66
-192857.66
-190501.69
-187307.78
-184910.62
-181920.24
-178807.99
-175961.5
-173214.14
-170046.82
-167241.56
-163898.74
-160969.99
-157550.13
-155083.32
-151622.32
-148698.08
-145193.13
-142079.43
-138468.79
-135132.38
-132274
-129200.67
-125958.48
-122866.74
-119849.31
-116808.9
-113925.43
-111076.08
-108330.25
-105671.34
-103097.22
-100609.02
-98192.396
-95828.386
-93521.833
-91229.841
-88967.71
-86692.933
-84409.537
-82100.277
-79759.271
-77371.223
-74951.67
-72485.527
-69978.322
-67444.367
-64888.923
-62304.114
-59714.863
-57120.331
-54434.11
-51761.935
-49109.022
-46676.299
-44202.285
-41773.719
-39194.019
-36827.861
-34424.376
-32090.134
-29830.085
-27727.693
-25603.817
-23687.91
-21813.933
-20073.356
-18427.52
-16983.754
-15488.991
-14249.222
-13060.644
-11799.141
-10826.538
-9765.0929
-8772.2942
-7494.808
-7490.8999
-5125.7576
-3410.547
2018.5658
494251.65
489830.36
474365.74
488052.8
490388.97
493792.11
511849.55
499309.56
495961.49
495189.72
490799.61
474351.01
469500.19
494381.68
418720.53
451933.62
469230.26
440785.65
457984.76
459731.14
469977.85
455758.42
473056.85
467941.61
471293.73
460525.02
458764.06
457991.09
463011.5
398047.16
339368.76
389987.01
343131.4
359651.21
359692.42
355230.64
361106.77
356780.97
360147.22
354696.04
353481.54
356795.27
333451.78
367849.01
340535.92
302539.86
305146.11
303956.99
300093.22
309499.79
306487.94
311179.36
311599.84
307748.7
309135.41
309683.87
297861.08
299356.37
321177.09
231784.56
216863.54
245945.24
213492.65
231829.23
224493.1
232566.35
229324.73
229004.38
230095.2
230116.28
226096.14
226324.47
223331.49
229910.32
207076.01
161711.39
170483.89
157525.41
163480.56
163369.38
164391.46
163692.1
164008.24
165358.85
164187.36
160418.79
166555.5
156266.96
167691.54
158632.74
92526.362
93067.629
93913.202
89960.009
94274.032
94016.699
94031.913
94123.687
92035.821
92977.678
92476.538
86023.276
93046.569
87867.588
86475.766
21054.394
21853.144
14666.135
20632.086
17478.209
18752.945
18289.145
18489.574
16702.952
21836.624
12432.419
20776.001
24811.798
9631.3857
44402.655
-43590.893
-51544.56
-44477.539
-49427.324
-48002.463
-48462.797
-48866.031
-47948.759
-50017.614
-44673.489
-51625.754
-44792.988
-42881.498
-59643.531
-2097.0991
-102690.13
-128229.93
-114337.45
-119093.77
-119265.13
-121517.58
-122320.32
-121847.19
-126014.87
-118057.38
-133708.26
-115910.06
-115011.88
-139526.67
-70310.463
-174319.39
-213062.45
-179499.97
-199893.4
-190925.5
-195693.8
-193838.97
-194319.94
-196090.33
-187708.11
-191921
-190968.93
-175362.29
-202200.46
-118604.11
-260113
-251939.1
-253551.77
-249939.97
-259371.27
-260468.33
-262463.02
-265096.95
-266620.15
-261567.72
-275401.04
-241621.67
-255414.17
-279297.69
-189356.47
-299734.37
-335018.06
-297041.02
-310847.52
-298401.63
-308316.68
-305460.79
-305873.12
-302580.73
-300486.77
-302571.16
-307388.92
-279071.12
-337158.93
-169785.02
-368858.04
-444451.24
-387403.6
-420626.96
-431712.7
-427951.62
-431340.69
-450622.32
-441389.35
-452732.7
-427962.68
-417056.52
-428012.01
-414974.92
-379789.72
-408737.87
-355353.69
-324170.99
-327421.22
-341575.26
-366055.97
-350743.48
-336610.9
-322644.5
-321217.53
-329037.64
-331251.07
-330464.99
-367751.46
-329340.58
-364299.87
-341505.46
-405797.71
-425232.68
-441762.75
-480657.33
-461723.44
-432031.9
-491319.23
-481215.79
-464789.83
-441030.65
-421460.29
-402619.03
-335944.93
-262412.17
-264997.21
-297215
-304741.42
-318540.67
-328336.86
-337654.68
-346980.28
-356670.99
-340490.94
-333578.57
-313606.32
-314809.91
-311822.98
-312415.74
-217288.41
-248261.78
-243736.17
-265768.1
-281622.31
-273219.54
-286868.57
-283862.31
-275801.14
-287330.73
-276065.08
-280070.92
-270686.96
-241137.93
-250725.75
-222003.37
-251544.41
-254900.12
-261157.91
-267801.99
-274066.76
-275870.79
-278286
-277591.78
-271821.26
-271474.3
-264496.45
-254470.63
-250203.33
-235538.59
-235260.06
-256571.6
-249550.75
-268814.73
-270675.86
-276134.93
-282217.41
-281238.04
-282904.13
-282980.93
-275337.76
-270117.59
-258653.52
-248389.53
-245351.2
-229416.59
-239620.01
-245549.03
-255084.06
-258300.08
-265455.22
-264776.5
-266118.69
-266057.8
-261818.13
-260472.08
-255018.86
-248318.72
-242029.08
-229131.85
-228555.14
-244263.13
-244698.14
-254274.99
-254655.15
-260043.13
-261785.85
-262514.29
-262149.61
-259993.08
-254730.77
-251998.87
-245674.31
-235897.51
-237585.33
-230714.02
-235469.24
-241440.8
-245510.58
-252043.73
-253373.73
-255755.34
-256819.12
-255552.29
-254507.93
-251532.87
-247438.15
-242544.86
-235456.11
-229797.11
-226781.75
-235732.96
-237152.37
-243436.48
-242942.31
-248358.92
-246744.22
-248694.09
-247218.42
-245449.05
-243129.89
-239484.04
-236732.63
-231867.99
-229605.42
-227090.58
-229622.11
-233571.24
-235242.68
-238817.04
-239678.22
-241486.85
-241456.33
-240793.87
-240800.85
-237760.52
-236559.43
-233321.5
-229297.4
-227787.28
-223242.02
-228690.8
-229705.89
-233899.65
-234532.87
-237832.76
-237135.87
-238886.62
-238497.11
-237224.15
-236673.82
-234756.09
-231978.42
-229537.68
-227900.59
-223039.88
-223757.5
-226367.14
-227255.85
-228885.78
-229287.53
-230641.17
-230756.23
-230827.01
-230456.58
-229415.72
-227715.48
-226847.14
-224400.04
-224056.62
-220399.45
-221732.54
-222026.91
-224696.65
-225125.23
-227369.5
-226884.42
-228172.6
-228035.1
-227732.84
-226438.26
-226398.55
-224302.61
-223558.64
-222043.07
-216994.61
-218028.68
-220098.9
-219922.49
-221489.14
-221566.46
-221923.12
-222644.56
-222536.19
-222033.92
-221810.6
-221291.13
-220323.1
-219022.06
-219669.22
-215000.29
-215045.62
-215823.04
-217210.89
-217531.67
-218179.88
-218975.95
-218413.57
-219217.25
-219311.9
-218767.79
-218646.04
-216942.52
-217562.17
-216697
-211178.34
-212184.34
-213594.85
-213090.79
-213771.63
-214136.42
-215324.27
-214244.22
-213954.43
-213982.01
-213197.12
-213413.07
-212100.23
-211809.84
-211779.8
-209351.48
-208736.64
-210003.27
-209422.18
-210863.01
-211246.47
-211062.38
-211407.61
-211829.79
-211837.93
-211531.96
-211870.47
-211706.41
-210053.06
-212067.05
-206340.01
-206231.58
-206865.22
-206564.64
-207109.53
-207316.17
-207492.67
-207054.04
-207021.6
-206999.47
-206377.19
-206417.42
-205643.1
-205761.66
-205670.74
-202481.53
-202739.88
-203687.7
-204008.95
-203907.81
-204145.27
-203599.61
-204566.61
-204299.84
-204614.34
-203519.09
-204627.01
-203771.06
-204660.48
-204321.24
-200151.74
-199617.16
-200409.73
-199727.48
-200648.73
-200573.04
-201237.2
-200408.47
-200903.59
-200517.12
-199812.34
-200878.72
-199600.35
-200312.55
-199679.85
-197081.14
-196724.15
-197431.65
-197203.71
-197108.49
-197045.39
-197489.13
-197839.08
-197315.62
-197564.69
-197308.4
-197794.84
-196981.58
-197317.51
-197066.57
-192874.41
-193481.22
-193877.89
-193807.22
-194279.81
-194011.62
-194414.53
-193999.63
-194241.02
-194144.33
-193744.89
-194520.54
-193617.36
-193024.27
-194466.81
-190882
-189871.29
-190684.39
-190645.18
-190765.16
-190948.3
-191197.9
-191056.49
-190474.96
-191535.66
-190263.58
-190736.25
-189657
-190930.88
-190660.41
-186719.57
-186907.2
-187377.81
-187618.43
-187499.86
-187832.34
-187527.82
-187375.88
-187635.71
-187395.41
-186746.94
-187728.22
-187137.73
-186826.94
-187094.78
-183699.07
-183835
-183860.86
-184104.3
-184027.92
-183854.82
-184493.45
-184286.76
-184151.19
-184605.87
-183392.27
-184501.16
-183492.1
-183776.43
-184003.67
-181012.11
-179856.39
-180761.03
-180262.49
-180694.4
-180977.13
-181100.42
-180815.27
-180894.86
-180897.75
-180943.06
-180792.8
-179786.24
-180667.22
-180014.94
-176735.41
-176799.72
-176786.4
-177580.56
-177187.23
-178027.41
-177542.76
-177755.15
-177427.21
-177638.74
-176906.07
-178026.74
-176320.92
-176798.69
-177512.2
-174298.97
-172997.16
-173671.33
-173661.12
-174270.87
-174224.53
-174055.63
-174144.55
-174205.45
-174055.33
-173751.41
-173696.62
-173235.58
-174145.79
-172990.47
-169821.31
-170153.27
-170653.4
-170507.19
-170342.23
-170852.95
-170676.15
-170886.06
-170640.25
-170859.4
-170224.6
-170880.06
-169651.91
-169630.7
-170597.21
-167740.69
-165916.07
-166797.08
-167135
-167356.37
-167180.23
-167354.23
-167379.63
-167152.89
-167086.8
-166518.87
-167124.3
-166139.71
-166690.45
-166602.78
-163416.66
-162996.43
-163407.09
-163644.07
-163407.61
-164320.66
-163569.14
-163793
-163094.86
-163813.7
-163138.79
-163605.28
-162771.88
-162779.67
-163146.22
-160485.1
-159139.84
-159983.18
-160073.79
-160110.55
-160410.53
-160170.86
-160255.39
-159995.61
-160258.47
-159510.88
-160134.58
-159153.47
-159451.38
-159506.98
-156682.4
-155761.72
-156318.17
-156537.44
-156483.49
-156919.49
-156541.87
-156751.39
-156409.52
-156634.19
-156020.94
-156443.94
-155639.38
-155796.15
-155811.5
-153138.3
-152081.45
-152777.63
-152843.23
-152891.48
-153149.35
-153037.67
-153091.57
-152782.78
-152965.9
-152304.9
-152822.81
-152010.45
-152260.26
-152321.57
-149252.58
-148672.46
-149204.09
-149286.29
-149239.22
-149704.38
-149293.01
-149538.5
-149153.25
-149460.76
-148764.01
-149253.21
-148325.11
-148727.17
-148320.77
-145485.56
-145260.4
-145270.39
-146197.54
-145357.76
-145879.34
-145710.73
-145692.93
-145567.44
-145633.92
-145048.69
-145446.26
-144902.59
-144761.51
-145499.33
-142705.26
-141208.63
-141885.78
-141828.71
-142196.35
-142024.53
-142179.7
-142039.46
-141900.74
-141638.51
-141409.43
-141937.13
-141051.63
-141497.35
-141285.24
-138618.36
-137926.69
-138200.31
-138608.71
-138147.92
-138699.08
-138305.79
-138557.13
-138160.03
-138402.24
-137819.51
-138214.87
-137606.78
-137626.17
-137860.8
-135572.83
-134181.17
-134841.23
-134814.9
-134834.72
-134989.14
-134872.66
-134894.17
-134643.86
-134805.19
-134223.4
-134778.06
-133910.26
-134292.4
-134262.69
-131853.66
-130839.06
-131263.74
-131352.84
-131194.9
-131500.53
-131282.8
-131352.75
-131125.91
-131234.25
-130711.94
-131085.14
-130502.18
-130758.74
-130813.45
-128644.57
-127355.43
-127909.18
-127850.56
-127831.53
-127972.5
-127851.84
-127891.01
-127654.27
-127832.09
-127270.04
-127759.49
-127082.58
-127392.46
-127416.49
-125273.01
-124124.72
-124561.88
-124554.18
-124458.29
-124653.91
-124531.19
-124517.45
-124362.13
-124457.59
-123996.11
-124415.84
-123803.35
-124126.98
-124179.43
-122189.2
-120918.85
-121412.56
-121306.03
-121260.76
-121422.77
-121282.68
-121303.3
-121117.94
-121254.25
-120783.58
-121207.38
-120624.87