/*--------------------------------*- C++ -*----------------------------------*\
  =========                 |
  \\      /  F ield         | OpenFOAM: The Open Source CFD Toolbox
   \\    /   O peration     | Website:  https://openfoam.org
    \\  /    A nd           | Version:  6
     \\/     M anipulation  |
\*---------------------------------------------------------------------------*/
FoamFile
{
    version     2.0;
    format      ascii;
    class       pointScalarField;
    location    "1.22";
    object      E;
}
// * * * * * * * * * * * * * * * * * * * * * * * * * * * * * * * * * * * * * //

dimensions      [1 -1 -2 0 0 0 0];

internalField   nonuniform List<scalar> 
625
(
22595.005
26402.739
4674.915
3177.8798
30009.411
19370.942
4518.904
4245.3907
4503.957
2538.577
15837.02
5990.2027
1110.6557
4239.8659
26959.497
20524.014
17423.003
16421.103
10961.006
10481.333
7306.322
5201.276
4872.0025
2359.2399
1819.9971
1139.238
1134.1152
519.29838
1134.8626
1077.1801
1559.1875
2061.2406
3175.1069
3010.4023
5053.3161
3392.7456
5073.8855
39946.071
23355.803
33357.424
25848.08
19783.359
23653.574
13232.354
14597.923
12620.362
9017.1162
10097.284
8087.158
8239.208
7609.2431
7924.8165
7739.2034
8037.8469
8068.5084
8683.4307
7877.6766
9371.5677
7245.4866
8194.8389
7586.2295
1437.7105
9904.1374
40920.845
51213.414
22478.928
30548.382
32834.879
14889.945
19795.811
15892.206
13337.583
14302.111
9951.4115
12015.319
10092.846
10146.855
10491.11
9429.5392
9870.4393
9104.6881
8687.6396
7893.5757
6908.7559
5776.4021
5737.747
4047.554
-1154.1505
6473.614
6525.3168
4050.2405
5015.5499
4126.8306
3609.736
2835.6213
2131.1263
1490.3982
1133.4338
1007.6854
501.89899
1819.6172
2088.1935
4052.6783
3651.227
5997.5304
10706.514
12923.566
17249.052
18484.682
28718.806
29575.409
41505.285
17688.499
20621.324
22361.135
19612.084
17459.916
16002.839
2642.6467
3819.6903
2966.0019
3719.9649
4701.1552
4022.0512
11248.796
6034.6415
6716.7662
5804.4187
3518.3361
4480.1441
2416.1224
2333.8358
1774.1017
1361.1626
1954.6491
1536.4795
1718.9279
1814.3617
2136.4281
2196.7128
2832.6438
2804.3517
3517.1112
3651.3528
4673.301
3253.3767
7591.6852
6051.0664
4167.0703
5406.8248
3663.0743
4378.6511
4233.5428
2572.1199
4070.5631
2768.9344
3595.1406
3058.7627
3305.1283
3474.4976
3666.7097
3669.5636
3833.5935
3758.8263
3533.3551
3962.1586
2735.81
3791.6511
2287.7378
8182.33
14081.382
11169.764
10111.41
7493.1405
6824.9666
2441.1835
3550.5949
932.58817
-30.984695
254.7855
-1289.4268
-552.98667
-1251.2267
-920.5301
-1105.7273
-499.92776
-485.5715
555.18693
473.38974
2623.9296
2593.589
4940.4998
7457.9716
2621.8291
3721.0956
4267.6231
1188.3468
744.34568
1581.7126
7541.1353
7175.2681
6095.6532
42914.363
41985.145
39941.014
45747.433
38679.424
38333.872
29580.572
22775.114
29095.398
29959.126
30310.346
24999.191
29077.995
20639.994
28282.222
22189.738
21789.514
20793.806
21818.619
16949.61
20338.407
18164.903
11886.257
17920.991
15202.542
14079.636
14679.046
16237.991
10202.702
15750.083
12502.999
10624.856
12470.329
13768.344
9191.4321
12904.072
11615.622
9357.369
12551.543
12396.767
9037.0157
11617.789
11633.242
9034.1091
12124.889
11408.481
9133.1879
11429.89
11219.5
9116.5712
11094.049
10593.904
8965.3949
10717.868
10148.509
9017.678
10039.009
9190.256
8536.7644
8995.3735
8251.2209
7920.0873
7958.5044
6476.836
6856.071
6625.4492
6212.3181
6083.5377
5937.2445
6139.8517
6837.3391
6013.4119
214.0982
984.29766
-1420.9122
6017.5905
6272.037
5164.6308
29571.369
29663.126
30903.161
26623.035
25523.084
28791.171
25345.359
24861.718
29000.44
18449.61
17864.193
19735.394
17301.22
16500.644
18674.503
13567.137
10363.53
14709.18
10479.153
10057.605
11761.591
9191.2122
6442.1385
9515.1866
6727.5339
6186.8532
6823.1317
5945.2623
2905.3872
6948.2321
4233.6172
3142.0337
4514.7173
4740.2487
1578.0526
4771.5956
3261.6397
1756.1006
3962.7199
3833.1458
1338.291
3909.5529
3629.5424
1602.4867
4183.9831
3663.3098
1793.2859
4209.8475
4165.5375
2318.7932
4579.1563
4226.6675
2768.0752
4863.809
4876.1918
3737.9846
5170.4829
4474.223
4015.5223
5003.8016
5816.8923
5557.3343
5550.0746
4295.6039
3598.8203
3736.4918
5910.7575
5492.6578
5744.5826
23191.707
19247.745
14239.608
14084.549
10930.017
7698.5217
7675.5104
4540.1974
3851.3467
2549.1226
2327.4182
1835.1832
1289.0447
1046.4157
1159.9797
1240.7843
1411.2083
1920.6953
2326.5102
3121.893
4643.1248
4374.2319
9205.2011
3026.0857
9597.5759
1988.3058
7216.2183
4288.175
6404.2836
5466.6076
5863.8325
6759.8256
6155.9272
6650.2621
7529.2225
6884.7731
7908.5303
8064.7579
8143.8803
8548.7768
8506.1038
8477.369
8016.8441
8184.7933
4773.4761
11748.116
14414.457
4008.3622
9015.6261
1953.6261
5211.357
3404.9107
-387.76333
3124.3402
-2750.9144
636.88889
-2228.1274
-1491.5033
-2072.5839
-1924.0212
-1798.7142
-1324.629
-714.81927
54.98052
1270.6282
2736.2386
4092.6142
6108.6556
7698.9542
14269.456
14788.127
15668.313
12038.752
14080.611
15092.696
10441.51
11195.812
12745.29
8522.6536
9846.9842
10341.545
8402.2242
7713.6624
9857.3913
6687.7877
6947.0765
6838.5494
5599.7313
4978.0924
6474.8851
5172.5634
5002.8489
5178.1697
4550.9928
2592.7101
3809.7366
4004.9186
3463.0923
4158.1681
4062.1083
2626.1361
2699.0937
3140.5363
2158.2611
3342.161
3539.272
2361.9599
2846.3997
3358.4318
2173.7547
2912.2942
3391.435
2141.6911
2821.7443
3505.2756
2492.622
3063.8421
3681.9293
2583.9899
3018.6001
3718.1658
3026.0625
3115.1954
4109.6983
3212.6048
3472.8133
3224.5945
4211.1643
3052.0281
3474.3632
5874.0547
3863.433
4278.5554
3320.7293
2436.6247
7426.8911
7576.7977
7668.4741
4052.9474
3776.0237
3015.5254
6116.1752
8780.9932
8815.4867
3752.5962
1681.8084
2666.5346
4103.5701
6221.55
6353.2858
5129.5774
3154.2689
3029.2006
4113.1297
3644.5605
4469.8846
3858.5812
3558.4521
3386.8828
5284.7543
3538.0636
3078.8681
3515.167
3228.5997
3485.4925
5021.1346
4022.5887
3431.1371
4769.2048
3358.6616
3445.4893
5028.1816
3997.4631
3982.3515
5454.3703
4473.7304
3917.6118
5412.3279
4331.2606
3934.0008
5814.1541
4923.487
4439.1519
5741.5793
4825.064
4226.4333
5913.5684
5139.0758
4422.1411
5709.1647
4878.3395
4298.5866
5893.0661
5329.5194
4492.0012
5675.4283
4395.6242
3845.6418
7562.9869
2771.621
5457.3057
3719.1534
3157.843
2271.1354
8896.0193
9296.4824
9420.4748
15912.25
15209.168
14555.881
9033.9979
6441.0881
7778.0989
9760.2456
12836.779
12086.329
8850.2968
5245.5488
6068.9492
5429.83
6641.1625
7033.6613
4616.672
3501.6297
5156.763
4753.3975
2263.297
3775.8318
1389.8038
1463.0922
4641.3682
2624.2712
133.99185
2724.5471
1474.4087
-112.59457
3057.1499
790.21592
-1235.2826
2507.3433
1238.8276
-961.23031
2278.2405
759.05915
-1912.5224
2292.8235
1192.2788
-1505.9095
2295.5173
1334.8347
-1804.5251
2443.8099
1749.381
-1226.935
2752.6128
2270.03
-1008.6857
3116.0868
2777.5274
53.761557
3650.7854
3525.225
431.51312
3898.883
4211.2929
2590.9488
5066.298
4724.7621
2905.3211
4734.4958
5982.9234
6055.2566
7483.6734
7688.2256
6557.2143
7134.6056
)
;

boundaryField
{
    free
    {
        type            zeroGradient;
    }
    fixed
    {
        type            zeroGradient;
    }
    freeTop
    {
        type            zeroGradient;
    }
}


// ************************************************************************* //
