/*--------------------------------*- C++ -*----------------------------------*\
  =========                 |
  \\      /  F ield         | OpenFOAM: The Open Source CFD Toolbox
   \\    /   O peration     | Website:  https://openfoam.org
    \\  /    A nd           | Version:  6
     \\/     M anipulation  |
\*---------------------------------------------------------------------------*/
FoamFile
{
    version     2.0;
    format      ascii;
    class       pointScalarField;
    location    "0.5";
    object      E;
}
// * * * * * * * * * * * * * * * * * * * * * * * * * * * * * * * * * * * * * //

dimensions      [1 -1 -2 0 0 0 0];

internalField   nonuniform List<scalar> 
3969
(
27608.892
26341.445
-1161728.5
-539543.87
31530.587
28713.5
-813941.6
-1743441.8
15692.991
6885.9716
2762.4366
2124.0593
4648.9026
10997.27
22883.996
-637746.27
-630941.66
-625733.51
-620713.64
-617024.98
-613164.65
-460890.13
29462.518
25107.353
25984.79
26428.196
26524.42
26332.835
25641.14
25032.804
24095.003
23277.045
22440.47
21675.979
20887.923
20143.564
19490.173
18790.097
18236.828
17603.982
17050.985
16457.443
15898.202
15322.79
14752.755
14164.46
13630.936
13063.297
12380.085
11868.674
11278.777
10706.267
10178.478
9711.3207
9243.9276
8885.1419
8719.2735
8322.7964
8533.4833
8024.6429
8562.8907
8048.4873
8738.5143
8686.1264
8909.5866
9633.6844
9908.1436
8997.3389
9824.7067
26641.985
20234.917
24267.071
23583.45
24436.467
23664.382
23625.018
22763.641
22275.63
21413.715
20593.051
19866
19041.364
18325.813
17409.445
16723.848
16029.881
15277.145
14824.114
14073.013
13615.232
13210.891
12379.942
11955.184
11340.448
11026.65
9946.722
9602.3437
8956.8519
8537.1327
8154.5344
7698.577
7382.7161
7055.9551
6903.3877
6699.5964
6771.2415
6491.0577
6715.8998
6706.7351
7034.7542
7295.2458
7380.9822
7871.0602
8362.3278
8837.4023
9477.1483
16542.027
7581.3042
2897.2802
3292.5354
4520.24
10134.635
19687.288
39411.632
28230.399
22709.594
29963.306
26066.97
27590.357
26181.643
25191.344
24468.382
23071.971
23314.822
22681.675
22482.908
21578.228
20975.104
20457.834
19590.278
19107.073
18371.559
17734.791
17133.507
16566.56
16020.842
15429.959
14735.575
14472.756
12554.643
11664.889
10996.669
10116.977
9326.152
8608.4955
7885.4968
7321.7857
6701.3491
5576.9392
7332.3224
5394.1534
5355.7434
5118.2526
4893.6549
5046.0342
4813.3765
5051.0123
5238.962
6161.4514
4021.1618
-1310558.6
-1098456.8
-1327617.7
-1255443.5
-1265934.7
-1135508.4
-1380709.4
3872.8297
7041.6373
8989.7608
8492.9223
8142.0943
7651.4048
7498.0854
7193.3298
7148.729
7525.1451
8128.2367
6321.9681
7653.3538
7882.0021
8279.7299
8811.4674
9249.9657
9884.1945
10446.231
11096.73
11667.825
12331.356
12987.421
13609.879
14222.6
14826.924
15473.995
16129.075
16848.678
17562.624
18379.603
19242.467
19909.186
20804.813
22171.464
22752.834
24041.295
24749.225
25409.114
26555.304
27682.381
27452.99
28947.884
27415.842
26582.297
26259.304
33887.416
21399.382
20952.526
20543.102
20612.259
20580.466
20538.094
22119.547
16765.489
17721.61
19347.842
20152.38
19994.313
20979.747
17705.994
-607913.35
-608370.52
-608148.13
-608483.97
-608467.1
-608495.54
-609033.38
-1307142.4
-1307601.7
-1307881.4
-1308003.4
-1308094
-1308830.6
-1309185.7
18979.39
16443.637
17052.653
17016.923
17352.544
17207.644
16886.191
16507.16
15944.499
15520.389
14980.221
14422.055
13955.479
13455.191
13027.727
12684.932
12350.376
12041.535
11804.458
11574.517
11359.511
11109.915
10903.613
10648.403
10385.68
10190.176
9782.6268
9691.3592
9340.9625
9165.3295
8959.054
8795.9315
8640.9762
8560.2781
8510.7936
8386.7148
8619.5443
8614.2886
8820.6665
9033.7888
9387.6369
9246.9009
10332.702
9743.5429
11127.658
11864.807
12627.823
8695.287
7685.8352
8340.1254
8197.9468
8314.3751
8237.7849
7931.6963
7858.9009
7507.7867
7318.7882
7014.8788
6783.5618
6685.1276
6606.9595
6542.2037
6402.3322
6332.2992
6251.1768
6200.9915
6198.9323
6247.8175
6300.1345
6322.4784
6411.8131
6536.3686
6613.5277
6559.703
6750.0461
6749.2119
6899.2755
7005.2194
7144.1814
7275.9366
7510.0458
7693.5231
7910.789
8349.3722
8047.6567
9040.8337
8651.6042
9643.9981
9588.6262
10475.688
10132.643
12197.789
10883.982
13163.107
3377.2214
1915.2425
2729.0845
2272.9608
2571.746
2485.9902
2567.2445
2509.1269
2424.4569
2475.8729
2396.4335
2281.8974
2211.3107
2132.0907
2114.7372
2149.0414
2212.0615
2270.3965
2415.2103
2484.7355
2505.2991
2521.9845
2625.3762
2812.2841
2875.5303
3032.6879
3455.2653
3691.7027
3958.6586
4318.1838
4586.3177
4987.4115
5301.2112
5715.5891
6058.3181
6580.5666
6864.9114
7757.4917
8220.3928
8593.47
9363.9922
9370.6551
10292.056
10378.874
11831.822
11042.937
13495.202
1806.2602
319.29495
646.53626
576.8711
711.86986
773.11495
729.75561
870.13616
795.3565
772.30166
747.23583
745.76058
801.84469
798.83753
815.98403
855.68031
940.82152
1118.47
1256.8729
1462.5163
1834.3827
2336.8111
2871.2482
3307.5593
3679.9606
4084.3468
4301.0523
4659.4392
5024.3005
5405.4582
5727.801
6160.2655
6447.1991
6856.8671
7270.1282
7472.2569
8045.1642
8154.0367
8390.0339
8586.4294
9186.9624
9283.3153
10192.594
10042.389
11461.572
10536.809
13464.025
4388.6674
2478.426
2706.6281
2329.9453
2391.1215
2457.6386
2329.7177
2388.7532
2283.1097
2298.7656
2282.2908
2144.0595
2038.4161
1959.3769
1965.2103
1902.5713
1942.8657
1944.141
2028.7111
2048.1146
2532.1246
2060.0565
2023.5668
2292.5379
2479.5087
2587.2123
2944.673
3270.7633
3551.1148
3868.2462
4209.8843
4573.8443
4964.2933
5333.9431
5707.8268
6274.2255
6439.5841
7253.2881
7489.1368
8215.8392
8345.8679
9132.5022
9528.8718
10222.693
10690.382
11248.685
13841.183
10379.963
8654.2355
8884.8893
8810.6102
9191.6318
9177.1056
9221.0678
9084.5855
8905.5265
8683.9979
8452.5966
8271.1787
7894.3662
7709.4463
7423.6921
7251.4915
7039.5674
6936.2138
6854.1053
6782.721
6659.1443
7145.1922
6118.3524
5930.1114
5938.6004
6032.7336
6062.8607
6230.3679
6274.3709
6447.6358
6544.648
6738.9336
6870.8283
7084.5309
7323.005
7464.4888
7932.7621
7880.8199
8427.4297
8816.6831
9222.2274
9813.7756
9862.0719
10485.737
10651.852
10741.177
12877.194
16124.748
15126.583
15265.076
16075.871
16368.012
16597.52
16338.081
16143.815
15809.502
15259.814
15051.562
14517.348
14041.636
13418.811
13001.246
12477.419
12072.02
11642.575
11273.135
10917.635
10785.197
10053.221
10467.961
9660.6176
9779.807
9481.5714
9266.8604
9091.3844
8920.8179
8729.8744
8504.4573
8452.4016
8285.78
8285.5854
8179.0737
8295.4998
8251.4736
8687.8699
8670.2041
8945.28
9184.9048
9504.8192
9857.8991
10629.145
10472.733
12087.027
12307.017
9064.7099
9335.5054
7677.2259
7699.9
7833.28
8256.2202
10612.313
4084.973
3602.9143
3093.2426
3105.0924
3213.5279
3593.4954
4822.4078
1488.4441
960.55968
492.04375
608.13981
518.43372
794.79237
1555.5978
1028.8629
500.34357
296.92767
267.23114
417.80508
850.13747
1765.9114
1895.0523
1175.4479
862.24383
789.46122
963.46552
1407.9216
2357.1212
5805.1649
4138.5419
3581.2559
3376.2223
3593.8164
4332.9797
6482.1963
10585.054
10516.107
8733.6707
8970.6467
8869.5943
9701.2293
12959.558
30129.889
26314.691
28317.761
30242.092
30202.466
32403.851
31899.281
27546.418
28117.348
26164.913
25548.028
27951.682
28615.197
29589.143
25632.738
26330.694
26930.814
26825.441
26678.934
26951.312
27952.763
26943.354
29356.853
28917.376
29417.491
29570.287
29713.833
27696.068
26363.746
26933.607
28102.656
28135.582
28035.383
27310.691
27226.666
26627.598
26821.478
27376.797
27809.292
27547.09
26675.204
26229.184
25310.202
25763.632
26629.773
26644.424
26681.738
26655.579
26111.177
25323.086
24990.845
25231.766
25338.957
25029.387
24672.823
24389.912
24115.614
24062.445
24750.268
24541.401
24610.549
24290.759
24343.188
23847.962
23257.725
23122.766
23547.283
23045.693
22753.768
22923.257
22850.286
22489.627
22894.569
22391.377
22537.453
22263.724
22283.81
22115.955
21607.007
21463.763
21724.686
21609.406
20628.819
21680.931
21410.718
20643.52
21115.229
20587.349
20596.057
20345.951
20944.472
20313.214
19887.548
20162.031
19771.199
20299.738
19168.482
20254.244
19831.543
19092.862
19455.668
19179.347
19116.758
18694.721
19508.141
18971.395
18119.419
18965.746
18200.368
18823.639
18038.62
18962.404
18249.123
17747.655
18215.895
17679.166
18089.612
17309.528
18220.324
17675.862
16892.096
17769.464
17005.63
17601.12
16827.854
17728.522
16988.971
16446.158
17241.353
16374.086
17032.752
16163.447
17187.661
16475.919
15811.635
16718.758
15835.819
16566.387
15704.804
16749.761
15947.554
15294.881
16220.096
15257.094
16045.431
15111.11
16238.236
15434.703
14740.834
15696.563
14725.404
15536.824
14575.628
15789.778
14839.743
14248.431
15089.089
14214.409
14985.732
14122.23
15374.301
14258.891
13746.102
14493.385
13649.053
14388.228
13575.122
14790.062
13624.056
13290.353
13708.361
13456.977
13779.102
12989.741
14149.524
13022.905
12802.065
13006.837
12780.7
13049.565
12556.991
13921.031
12653.589
12252.645
12564.484
12310.574
13190.639
12083.127
12963.276
12410.212
11585.91
12212.856
11499.245
12052.645
11246.638
12212.595
11578.311
11103.532
11407.063
11011.735
11350.296
10896.145
11515.19
11193.039
10336.734
11044.573
10250.064
10828.494
10107.963
10812.047
10451.205
9898.3474
10328.591
9650.1431
10126.186
9452.6867
10164.176
9999.4219
9294.7907
9787.7288
9069.453
9594.6603
8894.7983
9584.5713
9446.5323
8817.7876
9267.0333
8567.361
9024.138
8305.4026
8976.6155
8952.3165
8345.065
8774.146
8068.5972
8531.6459
7855.7236
8481.9754
8555.8014
8046.3395
8378.7562
7739.9668
8058.65
7414.0259
8001.0297
8220.2668
7644.1242
8082.6588
7318.3932
7810.7642
7708.5282
7596.2983
8037.1255
7535.7295
7710.539
7235.5843
7616.1097
6286.9762
7352.643
7283.7854
7161.8086
7291.7257
6959.6333
6992.5933
7137.6703
6988.192
7586.4647
7197.6456
7528.7487
6804.8305
7246.8503
6499.7389
6896.946
7674.1919
7110.1502
7452.3227
6830.1763
7092.6618
6447.8234
6807.4583
7478.3665
7013.5333
7424.8081
6683.201
7068.9031
6453.7316
6692.2357
7691.6603
7270.3346
7621.5084
7050.7964
7283.9015
6645.721
6743.6923
7564.8704
7039.053
7501.8843
6862.8766
7141.5974
6600.419
6755.8837
7820.5506
7469.8649
7825.4415
7329.8872
7491.443
6991.1523
6884.9214
8178.4738
7890.3021
8219.9988
7733.1602
7979.4012
7479.3282
7324.4537
8835.486
8464.6697
8892.9323
8458.74
8655.1743
8224.0768
8190.1203
7560.9268
7795.5997
7875.9314
7712.3468
7781.4296
7453.1332
7374.8049
-779357.19
-857807.08
-857847.68
-857972
-858087.95
-858058.63
-857760.86
-849520.93
-848569.14
-848534.44
-848764.12
-848719.93
-914353.37
-848891.22
-905724.23
-838971.81
-839061.19
-839038.63
-839006.26
-760582.98
-839024.25
-833614.98
-832768.44
-833544.8
-833416.98
-833706.51
-833214.27
-833590.32
-827174.25
-750429.32
-826680.86
-826640.84
-826303.15
-826340.49
-826489.22
-746124.16
-885273.86
-821752.27
-821537.87
-885932.13
-821344.72
-821519.8
-878814.37
-814868.92
-815408.06
-815226.36
-739762.82
-815293.82
-815384.22
28860.843
25675.225
24373.779
23650.535
24180.11
24998.769
25600.12
27987.38
25983.89
26061.234
25808.163
26085.301
26563.519
27316.08
28546.228
28634.76
28323.775
28043.132
28519.494
28196.052
28119.139
27958.614
28385.297
28524.208
28659.169
28454.412
28049.034
28289.259
28109.802
28196.514
28496.313
28391.804
28378.806
27782.663
27699.748
26909.855
27234.263
27276.925
27407.239
27338.297
27024.928
27133.478
26691.8
26530.276
26585.36
26228.963
26554.629
26517.114
26641.765
25379.537
25442.647
25451.326
25546.896
25387.882
25361.981
25672.104
24942.418
24704.122
24721.163
24632.836
24800.973
24537.422
25163.001
23867.69
23629.506
23656.862
23521.561
23631.422
23539.338
24035.336
23020.421
22861.108
23014.192
22732.391
23009.233
22743.246
23251.148
22130.723
22033.13
21885.568
21956.91
21872.333
21927.175
22354.395
21421.963
21180.378
21240.746
21047.055
21067.412
20947.34
21281.982
20489.482
20397.888
20466.501
20209.554
20400.325
20387.396
20736.612
19919.366
19662.696
19547.738
19545.967
19691.234
19389.518
19725.1
19248.612
18995.282
19019.499
18729.318
18835.088
18547.882
18956.298
18528.035
18366.293
18288.757
18181.812
18241.207
17942.406
18195.728
17981.121
17718.368
17768.73
17487.39
17579.874
17275.349
17483.677
17354.87
17187.017
17142.047
16900.09
17010.795
16613.313
16831.808
16844.124
16634.58
16580.436
16358.149
16418.984
16030.167
16240.065
16306.356
16084.834
16055.811
15764.227
15858.708
15439.827
15652.248
15789.187
15538.631
15502.698
15233.398
15351.245
14885.408
15080.662
15265.371
14955.742
14973.774
14686.285
14813.628
14303.384
14550.587
14718.192
14445.203
14464.078
14158.628
14341.034
13756.058
13994.089
14248.883
13872.083
13905.498
13633.562
13778.453
13189.484
13460.476
13711.925
13283.669
13417.826
13070.408
13270.701
12646.776
12961.321
13068.905
12722.476
12869.162
12466.961
12719.873
12055.879
12331.284
12609.575
12134.471
12270.736
11942.353
12167.461
11511.32
11797.112
11976.16
11489.422
11743.023
11371.049
11578.098
10927.355
11229.488
11386.313
11046.804
11154.473
10809.113
11060.819
10424.008
10695.148
10899.554
10415.715
10619.528
10332.799
10527.099
9873.1479
10164.683
10335.379
9963.8779
10134.638
9819.2019
10012.997
9441.7502
9689.0065
9889.7893
9514.2595
9660.7218
9436.4361
9604.3043
9000.2852
9272.1343
9490.9162
9092.9314
9278.3276
9077.0446
9187.2118
8732.1284
8924.5708
9166.473
8821.9478
8978.0344
8788.6401
8821.0161
8340.7852
8633.7322
8858.219
8516.9676
8728.24
8514.217
8647.8988
8806.5647
8507.1483
9006.5905
8449.9375
8586.0275
8386.1527
8650.9302
7307.6176
8310.7419
8262.6906
8209.4665
8335.4772
8170.3308
8273.3205
8269.1598
8213.5716
8591.9342
8534.7689
8512.479
8478.2122
8408.8513
8105.3678
8282.7269
8662.2955
8251.5248
8368.9747
8407.3241
8302.1669
8155.5768
8322.8429
8783.6048
8630.1994
8770.6424
8656.4473
8602.9601
8349.0588
8534.3652
9056.967
8880.8367
8793.28
8976.8577
8787.1199
8647.3465
8781.2654
9178.4756
8679.7163
8959.57
8994.0791
8896.0681
8953.1166
9165.495
9557.445
9647.5482
9590.5072
9697.7949
9464.2888
9547.3232
9381.0292
10247.172
9557.7748
9816.3402
9694.8705
9642.4262
9749.982
9709.7345
7846.5627
8306.3062
8253.5562
8338.684
8184.5072
8047.4036
8106.4873
7885.0219
6735.9202
6669.985
6631.1098
6452.1658
6682.5628
6565.0714
30424.674
22415.394
21270.296
21501.146
22469.521
21956.283
22069.074
21452.485
21011.469
20539.485
19877.131
19196.387
18511.912
17930.938
17103.423
16950.009
16197.341
15672.92
15200.198
14732.874
14274.574
13851.431
13400.737
12950.563
12553.847
12030.981
11718.624
11187.416
10792.665
10410.937
10014.468
9707.9255
9380.5439
9152.1431
8971.0122
8810.8823
8188.3515
8979.1894
8605.4935
8619.4502
8803.0877
8874.5982
9104.9464
9378.8115
10282.201
11674.523
13827.81
13540.749
13716.352
11119.797
11673.871
12007.094
11255.687
11551.172
11181.959
11040.234
10575.926
10360.248
9808.2632
9561.339
9112.9
8708.209
8562.0797
8176.752
7951.3573
7804.6653
7620.8566
7494.6972
7444.0778
7348.4827
7370.9451
7321.9196
7194.4854
7561.7015
7423.9399
7541.5694
7578.2483
7690.5086
7832.4443
7962.5132
8166.1767
8376.8144
8533.1
8875.7924
9156.2344
9534.3123
9829.0212
10449.124
10634.128
11353.361
11403.03
12626.948
10720.791
14844.289
4802.6823
4971.5379
4037.0084
4602.0584
4304.5987
3419.7283
4254.3792
3505.2135
3855.3173
3610.7878
3553.5785
3677.6011
3352.761
3871.2602
3772.4828
3751.0201
3740.3951
3716.4473
3824.7653
3815.7011
3932.4995
4026.2262
4165.9693
4282.3047
4460.2198
4515.7617
4852.2516
4902.5064
5172.3758
5393.2089
5643.4661
5884.3816
6156.6318
6438.6693
6698.7901
7028.216
7288.6204
7717.1466
7936.3059
8432.2328
8653.2737
9250.0302
9415.2992
10283.285
10223.384
11076.136
13513.993
1772.1832
1578.0373
333.93134
1937.5491
475.86151
1362.8521
157.45302
583.26908
658.33687
270.10311
755.80591
176.46996
554.01075
697.90399
810.08794
970.30698
963.87624
1096.9112
1262.1311
1425.3932
1623.5161
1900.264
2094.307
2446.3478
2694.2909
3128.8178
3505.2815
3892.5426
4315.5004
4717.8805
5112.8771
5554.3647
6020.9015
6379.5934
6912.246
7296.1753
7817.5711
8216.047
8805.7382
9047.192
9888.235
9911.9128
10927.51
10671.249
12131.649
10555.443
13855.126
3953.3241
1104.9509
1593.0027
1197.1817
1326.8632
1311.0494
1477.2444
1504.441
1082.5641
1503.8677
983.14705
1356.9067
1217.8547
1209.278
1383.2517
1353.3658
1521.8871
1598.2759
1787.7532
1894.5151
2117.7779
2280.2845
2617.3819
2809.0119
3127.3865
3446.5211
3567.4467
3941.8806
4217.7738
4547.5778
4879.3223
5258.8013
5569.0364
5942.5652
6375.1676
6660.4484
7141.2342
7573.3287
7794.5476
8549.5069
8678.7788
9444.192
9652.0677
10515.814
10529.562
11148.212
12778.995
8649.8897
7121.1933
5280.1826
7122.3796
5500.1034
6834.0897
6217.8875
5989.0175
6641.7703
6537.7043
7330.9911
6955.7724
6894.066
6755.4625
6607.1862
6506.4217
6339.403
6281.823
6212.0037
6235.2241
6221.5939
6271.3332
6323.3566
6168.948
5957.9071
5781.7267
6104.5197
6196.1998
6388.4618
6567.2485
6786.5505
6968.0812
7217.8068
7444.0376
7739.8148
7874.7744
8369.0001
8331.1491
9081.1697
9044.7644
9657.9139
9803.1198
10414.812
10538.501
11311.806
11473.552
12400.871
23538.506
14348.891
17017.721
14898.078
16627.141
16085.175
15900.326
16169.429
15247.157
15269.556
14654.187
14893.885
13848.287
13452.312
12922.573
12421.271
12150.665
11763.015
11487.461
11164.293
10845.839
10438.635
10175.965
9525.2384
10018.251
8874.2004
8543.3833
8377.4051
8130.7747
7995.4046
7848.0771
7762.807
7690.9206
7689.9679
7648.3406
7634.6175
8042.2624
8264.7819
8338.8498
8758.632
9106.7938
9561.3636
10033.127
10731.554
11038.67
12317.58
11028.098
23261.937
19501.465
18877.633
18525.356
18736.318
18805.608
19598.363
21211.184
21810.12
20339.941
20250.991
20058.58
20504.698
20903.164
20173.824
21395.635
21354.97
21131.051
21111.504
21112.156
20938.135
20123.303
20795.535
20923.194
21065.961
20842.329
20744.309
20157.67
19795.676
20586.65
20956.972
20961.274
20952.01
20882.903
20469.776
19441.494
19813.545
19876.272
20120.022
19921.066
19903.999
19893.146
19118.052
19438.142
19628.431
19543.631
19571.624
19697.41
19723.703
18465.215
18685.834
18667.063
18823.718
18798.322
18804.19
19077.097
18026.62
18285.387
18163.221
18277.847
18164.721
18465.969
18734.852
17368.032
17507.478
17474.392
17490.319
17508.665
17742.705
18061.61
16813.38
17023.045
16920.317
16942.869
17045.19
17168.011
17633.368
16299.56
16306.809
16353.242
16330.709
16377.39
16574.824
17023.939
15806.907
15882.163
15764.908
15745.887
15933.822
15977.884
16332.61
15236.83
15313.455
15326.185
15268.099
15400.864
15439.345
15995.549
14782.363
14924.216
14676.853
14774.288
14777.103
15120.516
15308.622
14386.755
14507.355
14330.18
14377.398
14413.223
14457.724
14852.908
13956.05
14047.531
13922.985
13865.011
13983.805
14107.362
14487.244
13567.296
13679.281
13549.864
13494.653
13596.639
13714.989
14002.207
13246.356
13314.303
13208.624
13145.535
13277.759
13313.279
13652.569
12945.888
12986.974
12881.112
12853.777
12903.635
12973.811
13307.5
12686.792
12627.881
12602.705
12522.701
12614.297
12661.755
12967.136
12441.143
12326.937
12314.53
12244.603
12331.432
12346.948
12639.863
12201.949
11990.894
12068.325
11965.014
12021.568
12005.814
12341.658
11954.886
11691.94
11840.318
11664.19
11701.364
11739.768
12010.366
11656.911
11371.463
11446.646
11391.535
11364.339
11358.187
11704.639
11279.867
11025.076
11232.979
11065.954
11026.488
11101.755
11280.598
11034.344
10688.749
10830.348
10730.796
10697.188
10757.946
11000.568
10745.981
10413.42
10488.005
10471.603
10399.087
10435.938
10674.363
10366.557
9993.6449
10271.505
10089.529
10091.726
10108.647
10335.778
10082.528
9739.7915
9933.3409
9812.5396
9805.8993
9829.6551
10043.542
9805.0849
9424.3684
9651.5873
9558.9508
9521.6782
9562.9454
9742.3759
9533.6245
9171.4026
9423.441
9301.9354
9283.0899
9331.3399
9477.3479
9321.6333
8989.3415
9177.8156
9118.309
9072.5168
9123.7768
9291.4168
9146.9005
8761.718
9038.6006
8940.8152
8925.4274
9033.182
9084.8482
8970.1414
8748.5936
8917.7122
8842.2366
8875.8633
8810.3621
8928.3705
8995.909
8628.1782
8801.6077
8805.8011
8692.6571
8750.5396
8857.7756
8775.5173
8468.8096
8943.2804
8617.544
8911.3504
8774.5588
9156.7172
9081.1805
8694.2139
8841.0444
9056.6803
8670.0901
8971.4087
8717.789
8704.4985
8755.0972
8854.4246
8880.9968
8967.6986
8932.0404
9067.7907
9284.7843
9021.1192
9091.4953
9181.405
8972.854
9161.3606
8929.673
9029.1488
9016.9665
9111.4701
9223.8719
9235.4077
9314.7366
9170.4631
9444.1552
9381.3129
9357.0721
9541.5546
9264.9039
9508.5045
9306.4788
10034.757
9789.1963
9911.7609
9993.1443
9982.1123
10058.936
9613.9873
9620.7322
9760.6538
9702.8187
10059.336
9637.2376
9794.9576
9616.9253
10983.44
10614.747
11054.307
11010.219
10982.385
11259.313
10714.718
11643.094
12307.848
12090.805
12380.92
12238.213
12288.229
12103.765
13353.737
12479.428
13270.559
13089.137
13199.986
13089.132
13343.173
10574.388
8122.5832
7349.4393
7053.5273
7035.4453
7245.2254
8045.4609
11101.969
11831.878
11115.224
11160.957
11189.602
11329.693
11717.188
10559.467
10828.859
11002.078
10766.943
10866.948
10496.872
10518.36
10442.208
10972.704
11276.753
11310.873
11171.817
11052.472
10504.425
10177.292
10444.922
10782.811
10660.341
10784.378
10470.213
10373.703
10007.606
10239.769
10112.182
10157.063
10064.868
9991.0943
9953.4897
9596.7353
9817.1984
9950.0971
9931.1219
9964.7544
9946.516
9819.9946
9449.4178
9612.052
9432.9315
9443.1602
9469.8313
9406.2305
9542.9544
9142.4997
9241.2852
9209.4451
9185.4818
9193.7085
9283.4358
9345.1276
8912.1181
8916.878
8847.0203
8799.0688
8949.4447
8917.9382
9006.9164
8597.6248
8675.0482
8575.454
8576.8499
8599.0885
8666.4517
8727.187
8361.6367
8397.2244
8264.5806
8218.8095
8284.3243
8274.4347
8356.3001
8108.885
8101.0478
8038.4692
8069.4702
8030.2597
8093.8644
8086.5628
7929.8182
7851.9198
7800.9877
7702.432
7771.0473
7695.6334
7870.9706
7801.8345
7707.0501
7586.4253
7532.2146
7625.834
7422.2082
7573.2553
7634.32
7445.7608
7399.281
7348.7405
7421.1815
7231.6043
7347.6524
7488.0247
7391.6435
7201.6676
7224.5536
7221.3056
7088.6477
7224.6781
7405.6254
7261.609
7078.3794
7132.0262
7103.3011
6945.7838
6994.7553
7334.3282
7215.7999
7008.7073
7031.9569
7024.0763
6821.8981
6931.9609
7284.7785
7168.8078
6936.0376
6980.3455
6927.7697
6751.6213
6848.6773
7206.1837
7136.1584
6930.8123
6930.4384
6890.8444
6726.5345
6765.562
7159.645
7164.9246
6928.6898
6933.2423
6889.1903
6673.0818
6746.5526
7166.2583
7121.0877
6917.7635
6918.1465
6810.7518
6678.4142
6719.1455
7150.1121
7116.0018
6959.7613
6848.0396
6875.0073
6763.3335
6747.1276
7158.6043
7151.2934
6950.1939
6826.1425
6922.5993
6718.5206
6695.7489
7200.7554
7154.9823
6950.0408
7060.2039
6787.1021
6919.2854
6856.6315
7072.7631
7413.945
7044.4419
6853.9582
7117.0342
6886.6339
6907.8507
7338.7206
7177.8321
7109.2423
6993.3549
7046.8928
6992.1066
6926.5344
7354.7664
7284.7583
7273.9722
7002.9927
7142.1828
7103.5105
6973.3338
7480.0224
7412.7151
7271.1939
7128.481
7231.5222
7197.6928
7070.9635
7560.0142
7422.943
7396.9342
7227.8447
7312.9601
7325.121
7166.8904
7680.4144
7580.9098
7525.0611
7359.7652
7423.2866
7480.9555
7312.7378
7820.7668
7673.5562
7639.0886
7490.3775
7584.9799
7669.5184
7460.1434
7992.5942
7858.0416
7819.4184
7706.1734
7750.9656
7808.686
7615.2713
8205.6248
8026.1732
7973.6763
7904.2983
7879.0533
8044.0994
7923.8791
8352.3762
8156.8421
8198.6047
8128.149
8131.2267
8376.1737
8145.3076
8752.7511
8698.6813
8469.5116
8493.2534
8341.6587
8625.1761
8289.1081
8966.6501
8430.4451
8692.3326
8564.3301
8669.7578
8885.1765
8700.7597
9529.094
9269.2388
9268.6034
9123.0691
9034.2475
9305.7816
9064.2086
9647.4412
8987.952
9348.4439
9173.1346
9266.4379
9561.2389
9308.7274
10132.467
9911.3259
10039.108
9926.9844
9867.8769
10066.627
9882.1229
10546.298
9874.5418
10198.68
9962.8008
9950.2021
10273.065
10084.913
10812.436
10610.516
10804.825
10752.707
10835.477
11044.638
10792.862
10912.14
10463.649
10784.098
10603.746
10410.772
10661.408
10612.805
12408.036
12236.009
12295.794
12088.369
12209.646
12752.673
12571.696
10906.213
10381.907
10764.655
10524.394
10431.161
10573.998
9919.172
14395.933
13887.541
13834.134
13571.316
13695.75
13610.633
14040.461
4070.3204
3046.7841
2560.9739
2434.781
2296.0596
2482.8381
2632.5451
3425.9098
3791.7265
3487.4768
3550.2649
3496.198
3488.6459
3708.1877
3941.3235
3893.3142
3769.5502
3820.7167
3712.0545
3655.0842
3608.1086
3406.1815
3780.2488
4168.662
4329.6781
4175.6817
4218.4584
3838.6688
3760.609
3929.5081
3906.6457
3843.7016
3792.2172
3586.881
3827.5574
3441.7877
3157.5108
3266.1741
3620.2126
3413.6917
3380.9005
3374.304
3789.358
3425.2816
3670.3764
3724.4111
3677.7625
3850.1484
3732.5296
3615.7185
3164.4431
3116.4133
3063.7309
3103.1775
3171.0228
3143.9805
3475.252
3079.2859
3222.577
3323.0851
3325.3725
3498.4992
3424.9372
3418.6594
2970.8313
2986.9603
2977.5786
2959.6349
3117.6072
3137.2897
3296.1027
2872.1864
2938.1861
2930.9393
2946.7744
3038.4559
3053.3263
3258.3466
2693.6117
2768.54
2838.2914
2922.22
3026.7523
3162.9706
3099.7687
2586.1207
2751.6438
2692.635
2800.3562
2800.1811
2982.8386
2908.9147
2704.5565
2672.3861
2686.3393
2804.4839
2820.0356
2951.5619
2653.3792
2644.5962
2717.471
2700.6557
2654.0568
2821.8772
2996.7662
2631.8174
2650.1885
2706.4644
2705.7121
2711.3989
2763.9518
3006.8612
2707.2531
2635.1513
2777.9161
2735.5539
2679.7608
2805.2348
3057.0894
2739.9882
2684.5536
2835.4962
2770.3238
2748.9777
2861.7511
3051.2729
2877.0431
2777.5182
2930.3182
2867.6672
2840.8844
2925.9225
3203.8536
2981.9357
2851.4491
3013.1667
2971.4565
2923.8449
3035.5579
3277.408
3181.9641
3011.0573
3177.6758
3124.7662
3123.4589
3172.748
3456.6029
3373.2485
3170.4549
3308.9344
3255.3524
3227.8155
3307.7139
3603.6092
3594.2486
3351.8325
3529.4236
3374.5366
3488.3706
3513.3601
3853.9869
3900.5986
3571.3827
3742.0971
3632.3255
3731.4886
3657.4445
3970.8144
4158.5231
3723.2728
3990.2317
3887.3799
3983.0857
3811.7687
4328.5222
4402.2942
4004.5816
4303.1326
4021.704
4276.7992
4007.524
4430.9777
4778.3443
4211.6984
4397.5474
4282.6117
4525.6254
4179.7382
4728.0489
4917.575
4466.3118
4722.4336
4592.2068
4738.0488
4456.6916
4940.2741
5277.6221
4743.8486
5012.2601
4780.8034
5062.7638
4712.6572
5194.9848
5568.0946
5020.2607
5176.5271
5089.6454
5299.9687
4926.0238
5467.0687
5839.5599
5238.3995
5536.4516
5391.3905
5590.254
5262.057
5746.3622
6169.8089
5573.6261
5830.7572
5639.6157
5887.2833
5529.4303
6010.3263
6473.0542
5858.0926
6124.2198
5967.7245
6204.1043
5820.0976
6290.4405
6832.7576
6179.7074
6459.6623
6291.7278
6479.8123
6154.7845
6661.926
7124.2855
6448.8983
6821.7186
6589.6292
6844.953
6560.8235
6885.1215
7539.4026
6959.7867
7232.5053
6965.0158
7246.4361
6827.2675
7246.7529
7795.2405
7081.3756
7456.4724
7290.4793
7551.5029
7211.9934
7584.8344
8242.9161
7670.5407
8096.7052
7732.9717
8026.7373
7613.9159
7932.903
8311.0231
8080.016
8133.4774
8098.4922
8243.4314
7962.3998
8299.7514
8971.888
8411.2287
8775.7639
8564.8077
8826.5944
8525.4995
8701.6912
9107.1978
9086.5549
9014.6927
8990.0459
9008.0308
8756.7729
8943.9634
9617.9978
9209.2737
9434.6561
9327.4919
9481.5143
9423.257
9537.1991
9923.1071
9964.4648
9825.332
9883.8616
9858.8609
9752.4192
9622.6497
10501.458
10344.61
10375.761
10417.442
10305.842
10308.964
10408.534
11098.636
10950.081
10801.314
10935.615
10806.077
11178.523
10671.437
11064.889
11161.403
11421.539
11438.31
11542.327
11511.863
10822.905
13415.644
12807.946
12775.846
12487.769
12842.857
12423.295
12726.208
1533.1307
1135.2306
854.01206
797.7018
721.4489
750.24959
578.54263
839.75394
1343.9947
1377.0042
1512.1028
1463.6256
1383.6783
1318.3203
862.92094
796.39424
635.91383
680.72188
646.68644
569.91551
296.88727
889.26122
1528.2996
1986.3358
2193.5108
2171.5694
2017.3106
1693.9396
836.97699
846.43095
513.7711
371.37536
273.22536
284.93259
304.36865
930.29478
1174.9448
1219.4449
1448.8264
1524.2652
1567.2629
1253.351
832.7871
808.19186
703.62956
731.90054
634.47952
473.59508
696.44111
1055.8101
957.26803
833.01562
919.88046
827.15078
895.09576
825.12489
945.9524
909.50783
869.15951
821.88302
981.23182
765.71782
1023.2158
990.02147
1021.7218
659.69391
748.76915
641.67365
601.38469
600.21831
892.27251
866.21604
931.49182
817.78158
1102.9979
927.27516
1072.778
920.5461
1049.1805
746.30141
673.25313
809.01383
631.60552
722.52322
952.79735
985.39225
761.91407
823.52904
1004.3089
712.02989
816.63539
973.28243
1213.1865
702.15161
834.15928
838.28233
860.88488
766.42998
928.80813
1136.3517
1052.7112
845.78566
1018.9506
831.36039
836.04335
1012.0243
1211.228
1048.0142
937.45996
1038.667
984.17695
929.42719
1063.2632
1317.8396
1204.9791
1045.2135
1185.7246
1056.8431
1059.0228
1215.553
1481.1361
1312.8207
1181.5913
1306.9753
1224.5011
1203.4421
1335.8385
1621.9477
1493.9869
1341.1168
1508.1827
1373.7736
1379.5546
1578.9125
1863.5298
1662.8446
1551.8568
1688.0907
1558.462
1597.2675
1862.7265
2014.2225
1916.1841
1796.9002
1885.7185
1803.9856
1809.5062
2189.0812
2298.5687
2149.2519
2008.5821
2135.6872
2036.0066
2071.9426
2608.3687
2539.5325
2307.4035
2408.2787
2399.539
2317.4853
2292.5231
2902.642
2673.328
2667.2945
2644.4053
2636.5017
2601.8113
2661.6451
3251.6787
2992.7567
3017.5669
2809.1259
2887.932
2935.3556
2879.9343
3703.5486
3224.2821
3209.714
3172.8219
3118.4081
3253.9381
3242.8839
3968.0817
3478.9202
3580.6893
3534.255
3392.4514
3632.7583
3530.4206
4347.9224
3792.9935
4011.9755
3801.5155
3825.7222
3948.09
3932.7334
4699.0299
4147.1386
4213.8148
4198.3426
4018.8107
4295.6128
4265.2002
5028.4239
4465.0488
4661.826
4528.196
4452.1648
4715.7089
4646.6882
5381.3813
4849.6604
4958.9981
4905.3597
4766.2269
5063.284
5018.2001
5783.0067
5223.6638
5378.3752
5277.0171
5117.3678
5457.6024
5359.8597
6101.5805
5573.9359
5700.138
5619.3673
5518.8726
5875.7887
5826.2481
6511.5461
5969.6848
6120.4021
6066.5324
5902.8993
6271.1794
6149.5237
6874.8626
6379.6443
6527.4534
6409.9905
6304.5504
6674.2055
6591.8696
7195.9727
6745.0181
6803.0611
6823.2762
6699.8735
7031.1609
7008.674
7740.0118
7219.4187
7356.6551
7334.8054
7050.769
7558.9498
7412.3185
7855.0172
7535.7426
7660.8619
7521.1028
7495.6404
7830.7063
7842.6069
8545.3028
8145.5187
8186.4385
8220.1181
7995.3098
8475.9071
8370.3003
8713.6496
8278.1736
8550.0841
8348.6842
8287.7682
8628.395
8578.3281
9279.3479
9063.0797
9129.5454
9145.707
8936.6696
9400.8873
9332.6295
9737.9529
9057.427
9418.505
9126.6463
9174.9842
9498.9004
9456.137
10254.893
10116.4
10245.702
10243.121
10181.166
10489.436