/*--------------------------------*- C++ -*----------------------------------*\
  =========                 |
  \\      /  F ield         | OpenFOAM: The Open Source CFD Toolbox
   \\    /   O peration     | Website:  https://openfoam.org
    \\  /    A nd           | Version:  6
     \\/     M anipulation  |
\*---------------------------------------------------------------------------*/
FoamFile
{
    version     2.0;
    format      ascii;
    class       pointVectorField;
    location    "0.5";
    object      lm;
}
// * * * * * * * * * * * * * * * * * * * * * * * * * * * * * * * * * * * * * //

dimensions      [1 -2 -1 0 0 0 0];

internalField   nonuniform List<vector> 
3969
(
(0 0 0)
(0 0 0)
(5112.32 -1263.0072 74.535002)
(4691.233 -2116.6964 49.699503)
(0 0 0)
(0 0 0)
(4699.9816 -2152.6562 48.901287)
(5122.4338 -1297.6251 74.640602)
(0 0 0)
(0 0 0)
(0 0 0)
(0 0 0)
(0 0 0)
(0 0 0)
(0 0 0)
(5060.2027 -1367.3392 72.324897)
(5008.8604 -1473.4463 69.72829)
(4956.9505 -1580.7273 66.383154)
(4904.4523 -1688.5794 62.755629)
(4851.4334 -1796.6734 59.037328)
(4798.0939 -1904.1936 55.469665)
(4744.4376 -2011.0492 52.333735)
(-11.946135 0.99905755 11.205132)
(-32.040597 12.610596 21.904333)
(-47.546514 33.451284 33.486735)
(-55.201668 59.152503 42.236237)
(-55.6692 91.561026 52.157232)
(-44.979679 127.57939 61.209535)
(-22.918968 167.58809 70.452875)
(13.732318 209.27173 78.466409)
(65.747612 251.5717 85.435225)
(134.56346 291.77385 90.125221)
(220.94521 329.15414 92.821538)
(324.59059 360.79386 92.271814)
(444.76174 385.41628 88.712539)
(580.35752 401.98055 82.3745)
(728.75727 408.57185 73.089333)
(887.27875 405.51346 61.985061)
(1053.6362 392.73003 49.58055)
(1224.5308 370.34967 36.502769)
(1397.4234 339.38815 23.68943)
(1569.6428 301.00671 11.771885)
(1739.4204 256.48626 1.3580315)
(1905.2466 207.34923 -7.2202989)
(2066.3195 154.77714 -13.741535)
(2222.2353 100.02146 -18.130044)
(2372.906 43.790742 -20.465817)
(2518.8106 -12.691364 -20.832339)
(2660.1245 -69.527799 -19.414939)
(2797.5371 -126.32101 -16.500513)
(2931.4645 -183.00404 -12.251392)
(3062.248 -239.66579 -6.9681977)
(3190.478 -296.42764 -1.0095884)
(3316.4588 -353.5234 5.3183741)
(3440.4702 -411.01963 11.575958)
(3562.8627 -469.12721 17.506967)
(3683.7739 -527.78432 22.777291)
(3803.161 -587.03021 27.268039)
(3921.3418 -646.56085 30.96295)
(4037.5958 -706.4039 34.145456)
(4152.5222 -765.99704 36.749351)
(4264.913 -825.08749 39.604591)
(4375.77 -883.63278 42.505923)
(4483.9735 -940.57551 46.232524)
(4590.5687 -997.14366 50.281695)
(4695.6944 -1051.6057 55.198741)
(4799.5016 -1105.3888 60.172116)
(4903.6564 -1158.3912 65.256247)
(5007.9525 -1210.492 69.866985)
(-10.964453 -0.67509446 -3.5793381)
(-38.047065 -8.6692763 -23.020562)
(-65.812414 -18.887575 -42.209151)
(-81.951737 -39.055362 -57.36047)
(-91.59944 -63.341091 -71.01872)
(-92.411243 -92.391684 -82.301169)
(-82.664143 -127.62246 -92.487981)
(-61.466304 -167.62541 -99.534192)
(-26.66645 -213.92261 -104.84635)
(22.5808 -264.67893 -106.67062)
(87.185556 -320.22613 -106.46354)
(167.51308 -379.3712 -102.93107)
(262.29896 -440.94205 -97.294232)
(371.6909 -503.95279 -89.26303)
(493.53827 -567.19426 -79.786243)
(626.64672 -629.45436 -69.183383)
(768.45821 -689.97231 -58.210749)
(916.5221 -747.58529 -47.506102)
(1068.6044 -802.39587 -37.604535)
(1222.3748 -853.56316 -29.077827)
(1375.7475 -901.75119 -22.083904)
(1527.5971 -946.65749 -16.996827)
(1676.4477 -989.34811 -13.39419)
(1822.0269 -1029.9089 -11.442488)
(1964.048 -1069.094 -10.379455)
(2102.8007 -1107.7262 -9.6147863)
(2238.1514 -1145.8597 -9.0773461)
(2370.6987 -1184.9806 -8.0184909)
(2500.8228 -1224.5965 -6.3927531)
(2628.6431 -1265.3358 -3.9352196)
(2754.7301 -1307.408 -0.74786955)
(2879.0849 -1350.7312 3.102874)
(3002.0277 -1395.3337 7.3648948)
(3123.5946 -1441.008 11.828101)
(3244.0051 -1487.5361 16.254426)
(3363.2051 -1534.7225 20.463209)
(3481.4191 -1582.1599 24.452064)
(3598.3726 -1629.7286 28.019294)
(3714.0903 -1677.0969 31.357198)
(3828.394 -1724.3239 34.301506)
(3941.0664 -1771.4607 37.111647)
(4051.968 -1818.4232 39.435191)
(4161.2047 -1865.8323 41.683456)
(4268.7423 -1913.6184 43.486761)
(4375.0201 -1962.4511 45.231846)
(4480.4984 -2012.3694 46.705173)
(4585.6965 -2063.7194 48.18785)
(0 0 0)
(0 0 0)
(0 0 0)
(0 0 0)
(0 0 0)
(0 0 0)
(0 0 0)
(-10.01205 3.6548757 -2.5290761)
(-33.081497 -3.5135916 11.222028)
(-55.554149 -15.969128 21.710851)
(-67.328802 -40.150589 30.777081)
(-75.270819 -63.931658 39.705936)
(-71.026063 -95.407065 46.507232)
(-61.095059 -133.72676 55.326008)
(-35.614424 -174.42955 60.311072)
(-2.0635851 -222.27004 67.006473)
(48.900366 -273.1461 69.198683)
(111.05927 -328.74404 73.198983)
(190.63307 -384.78563 70.230597)
(286.51676 -444.94261 65.399544)
(396.27932 -505.71544 57.389259)
(518.74895 -566.22421 47.016632)
(652.40338 -627.09617 34.838659)
(794.42604 -685.5199 21.605229)
(942.49567 -742.70256 8.2633841)
(1094.1379 -796.9441 -4.5035807)
(1247.1696 -848.86813 -16.055405)
(1399.721 -898.13029 -25.874093)
(1550.4233 -945.23647 -33.837634)
(1698.4369 -990.55552 -39.833297)
(1843.0319 -1034.4544 -43.944757)
(1984.2048 -1077.9368 -46.298178)
(2121.7144 -1120.7836 -47.219251)
(2255.8809 -1164.36 -46.418138)
(2387.9606 -1207.5752 -45.103707)
(2517.095 -1251.7114 -42.252446)
(2643.949 -1296.181 -38.50336)
(2768.7122 -1341.0565 -33.920146)
(2891.7348 -1386.3755 -28.703886)
(3013.3682 -1432.0475 -23.25728)
(3133.9454 -1478.0485 -17.828322)
(3253.6631 -1524.3899 -12.827328)
(3372.6355 -1571.0325 -8.1121223)
(3491.0114 -1618.4384 -4.3394882)
(3608.3014 -1665.1214 -0.49287461)
(3724.4754 -1712.6378 2.7126876)
(3839.1551 -1759.947 6.3741259)
(3951.8966 -1807.2634 10.286003)
(4062.781 -1854.6261 14.835452)
(4171.5252 -1902.1992 20.09722)
(4278.636 -1950.1823 25.869673)
(4384.4079 -1998.9736 31.929534)
(4489.6092 -2048.8575 37.920894)
(4594.8082 -2099.9807 43.413464)
(4753.2314 -2047.8192 52.862781)
(4806.7676 -1940.59 56.408893)
(4860.4915 -1833.6033 59.454256)
(4913.4627 -1724.7766 61.920447)
(4966.1295 -1616.7263 64.425237)
(5018.2899 -1508.9789 67.187166)
(5069.7838 -1402.5516 70.547239)
(5017.2 -1244.9595 72.446205)
(4912.3575 -1192.6322 69.780298)
(4807.9732 -1139.9228 67.526947)
(4703.5923 -1085.9642 65.096053)
(4598.6489 -1031.0233 62.609431)
(4492.534 -974.79272 59.982928)
(4384.758 -917.64625 57.130233)
(4275.0543 -859.693 54.115881)
(4163.1903 -801.35802 50.800652)
(4049.0831 -742.61315 47.081371)
(3933.0294 -683.89106 42.997962)
(3814.4393 -624.62749 38.281701)
(3694.3238 -565.91011 33.346073)
(3572.196 -506.39414 27.862796)
(3448.3604 -446.71478 22.217851)
(3322.7897 -386.55269 16.572666)
(3195.42 -325.92742 11.257539)
(3066.1744 -264.84691 6.4744622)
(2934.7385 -203.51139 2.5820889)
(2800.9012 -141.9544 -0.50314239)
(2664.1324 -80.535666 -2.6236102)
(2523.9453 -19.441537 -4.0559234)
(2379.8077 40.803624 -5.0133116)
(2231.1917 99.723254 -5.9548231)
(2077.8655 156.47995 -7.1266613)
(1919.57 210.22769 -9.0443153)
(1756.679 259.83865 -11.970798)
(1589.8882 304.02061 -15.983668)
(1420.521 341.50488 -21.225898)
(1250.2319 371.12347 -27.562231)
(1081.5087 391.75796 -34.729306)
(916.7322 403.08163 -42.327262)
(758.6207 404.26415 -49.920795)
(611.22775 394.83358 -56.773073)
(475.41096 376.97762 -63.894429)
(353.11834 352.24644 -68.291377)
(247.92933 320.36147 -72.303462)
(158.69901 283.93133 -74.08601)
(86.573315 245.76594 -74.381526)
(31.890809 203.96115 -72.088823)
(-7.0998561 164.88924 -68.261747)
(-32.876273 128.59903 -62.682396)
(-45.028396 93.388036 -55.79023)
(-46.819783 63.243194 -46.131775)
(-40.142015 39.18311 -37.427439)
(-26.744451 17.341594 -25.06388)
(-2.8389149 3.1395166 -7.8853831)
(0 0 0)
(0 0 0)
(0 0 0)
(0 0 0)
(0 0 0)
(0 0 0)
(0 0 0)
(0 0 0)
(0 0 0)
(0 0 0)
(0 0 0)
(0 0 0)
(0 0 0)
(0 0 0)
(4692.3528 -2119.7073 49.919145)
(4693.1501 -2122.9426 49.835293)
(4694.0382 -2126.446 49.371344)
(4695.0476 -2130.3099 48.919643)
(4696.1757 -2134.6863 48.575057)
(4697.5059 -2139.9389 48.354165)
(4698.8832 -2145.7334 48.754188)
(5112.2822 -1268.5489 74.131723)
(5112.682 -1273.1205 73.843184)
(5113.6146 -1277.4337 73.96133)
(5114.9904 -1281.6149 74.175104)
(5116.7717 -1285.6887 74.587871)
(5118.6851 -1289.7883 74.827915)
(5120.5914 -1294.0174 74.819397)
(-14.63465 13.011923 11.814901)
(-37.924936 26.307323 18.887465)
(-55.568041 43.563502 25.065289)
(-66.056077 64.219346 32.123215)
(-69.030065 88.515429 38.277627)
(-60.935671 115.91099 45.124099)
(-41.852802 145.00974 51.091231)
(-8.3090201 174.80352 57.441988)
(40.506101 203.26228 61.905924)
(106.17422 229.71103 65.89505)
(188.94521 252.16631 67.586531)
(289.2013 269.26668 67.419939)
(406.50115 280.37591 64.891311)
(538.80284 283.94566 60.289783)
(684.66828 279.79201 53.622525)
(841.44205 267.88287 45.408473)
(1006.1962 248.21035 36.210936)
(1175.9492 221.1648 26.456649)
(1348.0999 187.77886 16.785498)
(1520.0059 148.78478 7.6456833)
(1689.6936 105.29719 -0.42018368)
(1855.5594 58.249335 -7.2108086)
(2016.7774 8.6250932 -12.43159)
(2172.6634 -42.812323 -16.086397)
(2323.5121 -95.386394 -18.0186)
(2469.2735 -148.77828 -18.602768)
(2610.3709 -202.52013 -17.454252)
(2747.4877 -256.53182 -15.00926)
(2880.9845 -310.94255 -11.354807)
(3011.3649 -365.52409 -6.7115723)
(3139.1712 -420.58769 -1.3159425)
(3264.697 -476.2018 4.4616635)
(3388.3334 -532.39842 10.352575)
(3510.3754 -589.33343 16.037582)
(3630.9676 -646.82059 21.177127)
(3750.2498 -704.86879 25.801552)
(3868.2576 -763.20141 29.687025)
(3984.6352 -821.52675 33.065904)
(4099.5485 -879.55389 36.059931)
(4212.3542 -936.99622 39.084727)
(4323.5176 -993.54581 42.138356)
(4431.9723 -1049.1317 45.721307)
(4539.1896 -1103.7775 49.609319)
(4644.1119 -1157.2439 54.009456)
(4748.1888 -1210.2832 58.521926)
(4852.1256 -1262.7871 63.132673)
(4955.6797 -1314.6648 67.610455)
(-21.713674 9.0765089 8.6380272)
(-44.609796 19.372674 10.376602)
(-63.305643 34.453879 15.320239)
(-75.719815 48.914724 18.796501)
(-80.310893 67.684059 23.231282)
(-75.392962 87.451817 27.091222)
(-58.481677 108.15293 31.908322)
(-27.190544 128.36253 35.329502)
(18.959705 146.828 39.53039)
(82.043998 162.70848 41.979875)
(162.39582 174.08208 43.695034)
(260.22806 180.69004 43.801408)
(374.75064 181.07613 42.478933)
(504.95891 174.99195 39.443996)
(648.55132 162.15197 35.027873)
(802.96866 142.72755 29.296578)
(965.55079 116.90518 22.775094)
(1133.387 85.240691 15.874007)
(1303.846 48.463723 8.9171873)
(1474.3335 7.3823921 2.3506687)
(1642.7872 -37.159274 -3.5283914)
(1807.7262 -84.233051 -8.5098539)
(1967.954 -133.08439 -12.402485)
(2123.3827 -183.11718 -15.032483)
(2273.4542 -234.05759 -16.513447)
(2418.5905 -285.17918 -16.481496)
(2559.2278 -336.82507 -15.279745)
(2695.8999 -388.68186 -13.046353)
(2828.993 -440.72731 -9.5778131)
(2959.091 -493.32786 -5.3139672)
(3086.6472 -546.44361 -0.38248374)
(3211.9404 -600.26788 4.9863918)
(3335.4386 -654.88419 10.459618)
(3457.2873 -710.27139 15.749025)
(3577.787 -766.33828 20.702642)
(3696.9015 -823.02429 25.156735)
(3814.8401 -879.87399 29.00056)
(3931.1288 -936.80966 32.494398)
(4046.231 -993.39131 35.541161)
(4158.9961 -1049.3021 38.595525)
(4270.3415 -1104.6082 41.686034)
(4379.0396 -1158.7266 45.075305)
(4486.3354 -1212.3744 48.725658)
(4591.5622 -1264.8766 52.696382)
(4695.8882 -1317.2076 56.77389)
(4799.6933 -1369.1598 61.025324)
(4903.2298 -1420.8614 65.135374)
(-30.072361 5.8718272 6.757192)
(-51.955545 12.314773 7.8448352)
(-71.840829 20.920019 7.8165479)
(-84.537964 31.139179 9.1863199)
(-91.817735 42.835282 9.8229474)
(-87.438927 55.586913 11.830811)
(-72.129213 67.35395 12.658943)
(-42.98766 78.827379 15.304703)
(1.215657 87.51926 16.917296)
(62.42085 93.310269 18.527674)
(140.28077 95.012309 19.823215)
(235.61106 91.620226 20.27506)
(347.64854 82.934766 19.79023)
(475.04712 68.325052 18.650468)
(615.85343 48.026166 16.486962)
(767.88708 21.897101 13.219516)
(928.15941 -9.5421551 9.5859137)
(1093.9496 -45.766781 5.3635403)
(1262.4482 -86.013537 1.1830321)
(1431.0638 -129.45327 -2.9544493)
(1597.8269 -175.2921 -6.6610484)
(1761.1437 -222.76953 -9.9512197)
(1920.3903 -271.4023 -12.491158)
(2074.3974 -320.82513 -14.301697)
(2223.5846 -370.32079 -15.088381)
(2367.9826 -420.1549 -15.105465)
(2508.1343 -470.05702 -14.183389)
(2644.2344 -520.06772 -12.04519)
(2777.0226 -570.39449 -9.0904589)
(2906.8511 -621.20926 -5.2808551)
(3034.1554 -672.5465 -0.7347303)
(3159.3324 -724.73822 4.2379338)
(3282.6931 -777.72144 9.388087)
(3404.4955 -831.52536 14.502843)
(3524.8947 -886.14877 19.347576)
(3644.0383 -941.26421 23.760557)
(3761.79 -996.70408 27.702355)
(3878.2507 -1052.2174 31.287888)
(3992.9925 -1107.3867 34.4654)
(4105.9531 -1162.1351 37.706883)
(4217.1456 -1216.0258 40.703774)
(4325.9461 -1269.2821 44.130424)
(4433.344 -1321.7529 47.46046)
(4538.604 -1373.6463 51.259585)
(4642.9556 -1425.2644 54.900232)
(4746.7947 -1476.7761 58.816032)
(4850.5607 -1528.2542 62.413682)
(-30.782852 0.6707256 0.21134043)
(-52.676819 0.79172892 -3.2518168)
(-74.008078 4.9299333 -4.0031086)
(-89.38715 8.9557218 -5.6678263)
(-97.33015 14.067574 -6.6464265)
(-95.649447 19.98839 -7.9382429)
(-82.60022 23.818687 -7.2636434)
(-55.678131 27.216736 -7.2294416)
(-13.548385 26.773861 -6.1323912)
(44.834923 23.741168 -4.6968738)
(120.33494 15.688039 -3.5053799)
(213.4189 3.3701629 -2.5971567)
(322.87815 -14.23515 -2.0310941)
(447.75845 -37.29388 -1.6208337)
(586.11641 -65.169189 -2.0381133)
(735.68689 -98.147143 -2.6167096)
(893.41037 -135.26225 -3.783533)
(1056.8029 -176.37301 -5.1507866)
(1222.8094 -220.29243 -6.7251781)
(1389.2949 -266.62721 -8.4420646)
(1554.0815 -314.37181 -10.219215)
(1715.9032 -363.00288 -11.929238)
(1873.051 -411.91261 -13.17417)
(2025.7871 -460.7958 -14.039088)
(2173.6399 -509.45175 -14.479915)
(2316.999 -557.86151 -14.176129)
(2455.9963 -606.00036 -12.918444)
(2591.289 -654.18064 -10.911416)
(2723.3784 -702.54738 -8.1013287)
(2852.6447 -751.36476 -4.3856478)
(2979.5807 -800.83922 -0.12039189)
(3104.4781 -851.15422 4.62398)
(3227.6716 -902.34916 9.5749486)
(3349.366 -954.43416 14.505075)
(3469.7748 -1007.3037 19.210139)
(3588.849 -1060.7535 23.551643)
(3706.7904 -1114.562 27.483059)
(3823.195 -1168.3915 31.0158)
(3938.2036 -1222.0679 34.305996)
(4051.2956 -1275.2079 37.296627)
(4162.6526 -1327.9217 40.339558)
(4271.7751 -1379.8703 43.358954)
(4379.3415 -1431.5028 46.552321)
(4484.8639 -1482.495 49.79203)
(4589.6288 -1533.6056 53.070351)
(4693.7574 -1584.6773 56.342947)
(4797.7171 -1636.0763 59.487434)
(-32.020214 -5.4459223 -4.6035705)
(-55.317607 -8.9674451 -6.260686)
(-78.709748 -11.541928 -10.829651)
(-94.726087 -13.017081 -15.271812)
(-104.64645 -13.882902 -19.966863)
(-103.96405 -15.776226 -22.751161)
(-92.42397 -19.562811 -25.650931)
(-66.51724 -25.176946 -27.334861)
(-26.549475 -34.734215 -27.744299)
(30.468167 -47.287416 -27.95263)
(103.99179 -64.553236 -27.455595)
(194.61615 -85.679954 -26.151629)
(301.49736 -112.40875 -24.265823)
(423.90793 -143.17006 -22.477072)
(559.44655 -178.84949 -20.471618)
(706.05214 -218.27004 -18.58037)
(861.09299 -261.20259 -17.053662)
(1021.6534 -306.78693 -15.703518)
(1185.1827 -354.24892 -14.749148)
(1349.1303 -403.01009 -14.109761)
(1511.6269 -452.12378 -13.809341)
(1671.1212 -501.16694 -13.557969)
(1826.8441 -550.16381 -13.617933)
(1977.5676 -598.37913 -13.623208)
(2124.1565 -645.93104 -13.521393)
(2266.0776 -692.76765 -12.874878)
(2404.1177 -739.35048 -11.778171)
(2538.6627 -785.75279 -10.060039)
(2670.1678 -832.30211 -7.5000592)
(2799.057 -879.29757 -4.2598132)
(2925.7102 -927.00963 -0.35721835)
(3050.4761 -975.62081 4.0374388)
(3173.5393 -1025.2293 8.7125777)
(3295.239 -1075.7086 13.399128)
(3415.5207 -1127.1276 18.010808)
(3534.6996 -1179.0912 22.293045)
(3652.4642 -1231.4653 26.222954)
(3769.0522 -1283.8959 29.854006)
(3883.8895 -1336.2203 33.052749)
(3997.1058 -1388.2782 36.222513)
(4108.4504 -1439.7273 39.10653)
(4217.8529 -1490.8583 42.239638)
(4325.4024 -1541.3493 45.047517)
(4431.2849 -1591.8262 48.195825)
(4536.2333 -1642.257 50.944112)
(4640.3853 -1693.0401 53.965181)
(4744.6462 -1744.3463 56.50079)
(-27.541586 -6.9133344 -7.7159892)
(-48.424191 -17.718279 -15.330358)
(-74.361721 -25.440539 -23.542626)
(-92.003831 -32.593256 -31.343505)
(-102.99517 -40.83967 -38.136713)
(-103.95939 -50.595676 -44.04672)
(-93.575169 -63.388708 -48.994852)
(-69.904817 -78.414302 -51.917249)
(-31.803083 -97.878919 -53.85759)
(22.547311 -120.10252 -54.077525)
(93.332408 -147.71075 -53.174959)
(180.88878 -179.19726 -51.093371)
(284.7362 -215.27076 -48.152259)
(403.57726 -255.14076 -44.237687)
(535.62328 -298.54873 -39.929954)
(678.77521 -344.88046 -35.339267)
(830.29736 -393.48137 -30.895011)
(987.63589 -443.49828 -26.585784)
(1147.9465 -494.41144 -22.826508)
(1308.9789 -545.23162 -19.665382)
(1468.5982 -595.85553 -17.094782)
(1625.7906 -645.23141 -15.579029)
(1778.4015 -693.66544 -13.915899)
(1927.4356 -740.93936 -13.345299)
(2072.1289 -786.57212 -12.705694)
(2212.619 -831.80918 -11.999801)
(2349.599 -876.30729 -11.042873)
(2483.2324 -920.54384 -9.3748828)
(2614.0867 -964.88805 -7.089819)
(2742.5345 -1009.864 -4.0147921)
(2868.8839 -1055.5648 -0.30553278)
(2993.4719 -1102.2487 3.9657359)
(3116.5071 -1149.948 8.5081457)
(3238.1637 -1198.6688 13.165338)
(3358.5996 -1248.2436 17.720002)
(3477.8064 -1298.441 21.972615)
(3595.8507 -1349.0903 25.918311)
(3712.5507 -1399.8079 29.412482)
(3827.8172 -1450.5717 32.842868)
(3941.4556 -1500.8491 35.649394)
(4053.1394 -1551.221 38.686044)
(4162.8563 -1601.0242 41.299759)
(4270.8051 -1650.729 44.016185)
(4377.1475 -1700.3762 46.574158)
(4482.3977 -1750.2689 49.03757)
(4587.0163 -1800.6408 51.489893)
(4691.6941 -1851.8921 53.540636)
(-17.679688 -15.842161 -10.531648)
(-43.830293 -28.433219 -18.771274)
(-72.439691 -37.631863 -30.871501)
(-90.671986 -48.306666 -42.215446)
(-102.95145 -61.980697 -52.484899)
(-103.92983 -79.849048 -61.17353)
(-94.925574 -100.92142 -68.405038)
(-72.474303 -126.39554 -73.452024)
(-36.18379 -156.32927 -77.052488)
(15.850306 -190.15036 -78.101701)
(84.493387 -229.55399 -77.501686)
(169.03145 -271.81498 -75.094284)
(269.74522 -319.27737 -70.610711)
(384.86231 -368.91764 -65.149311)
(513.3917 -421.42184 -58.524201)
(652.66617 -475.23314 -51.440375)
(800.59403 -529.94412 -44.086358)
(954.23699 -584.564 -36.997919)
(1111.1472 -638.49126 -30.503652)
(1268.9451 -691.06884 -24.887773)
(1425.7855 -741.95525 -20.3792)
(1579.9028 -790.77623 -16.956423)
(1730.8046 -837.73395 -14.503591)
(1877.678 -882.90292 -12.921546)
(2020.6914 -926.15788 -12.010026)
(2160.0693 -968.67437 -11.158452)
(2295.9927 -1010.3701 -10.246517)
(2428.9118 -1052.0273 -8.8278339)
(2559.2591 -1094.1284 -6.7889981)
(2687.3492 -1136.9403 -4.0110763)
(2813.4958 -1180.7523 -0.59897372)
(2937.9703 -1225.7821 3.4007482)
(3060.8773 -1272.0022 7.7443084)
(3182.483 -1319.3568 12.252343)
(3302.7649 -1367.626 16.704696)
(3421.9578 -1416.4999 20.928396)
(3539.9322 -1465.8204 24.870728)
(3656.7128 -1515.2477 28.519107)
(3771.9872 -1564.4877 31.77875)
(3885.8107 -1613.6455 34.874957)
(3997.7582 -1662.4068 37.642649)
(4107.9097 -1711.0906 40.284371)
(4216.2453 -1759.5903 42.686075)
(4322.9835 -1808.447 45.022921)
(4428.5662 -1857.6078 47.075701)
(4533.4876 -1907.6076 49.140431)
(4638.7084 -1958.6711 50.877994)
(0 0 0)
(0 0 0)
(0 0 0)
(0 0 0)
(0 0 0)
(0 0 0)
(0 0 0)
(0 0 0)
(0 0 0)
(0 0 0)
(0 0 0)
(0 0 0)
(0 0 0)
(0 0 0)
(0 0 0)
(0 0 0)
(0 0 0)
(0 0 0)
(0 0 0)
(0 0 0)
(0 0 0)
(0 0 0)
(0 0 0)
(0 0 0)
(0 0 0)
(0 0 0)
(0 0 0)
(0 0 0)
(0 0 0)
(0 0 0)
(0 0 0)
(0 0 0)
(0 0 0)
(0 0 0)
(0 0 0)
(0 0 0)
(0 0 0)
(0 0 0)
(0 0 0)
(0 0 0)
(0 0 0)
(0 0 0)
(0 0 0)
(0 0 0)
(0 0 0)
(0 0 0)
(0 0 0)
(0 0 0)
(0 0 0)
(-12.587643 3.9717812 -4.382931)
(-11.559116 4.6261716 -5.7501194)
(-11.859899 4.0746206 -4.7652929)
(-12.033656 4.1603215 -3.6881733)
(-11.680668 3.8837784 -2.7071837)
(-12.035745 3.867321 -0.60124142)
(-13.004225 4.8451406 -1.2454575)
(-34.637322 4.0979775 -20.169768)
(-31.268785 3.3173023 -15.393337)
(-28.266292 1.6658903 -10.675421)
(-26.945599 0.89535636 -6.2989091)
(-27.646737 0.56048177 -1.83266)
(-28.393484 0.54728876 3.1595733)
(-31.178347 3.0638001 6.027297)
(-55.420523 -6.1851055 -35.039141)
(-48.45501 -5.6052254 -26.825804)
(-44.263704 -7.5983766 -17.371429)
(-42.529761 -8.4579597 -11.452466)
(-41.837281 -8.0410475 -2.5238897)
(-44.345364 -9.1254543 4.0520529)
(-48.551708 -8.4798828 14.337118)
(-66.433621 -30.533739 -45.915509)
(-59.325106 -32.265453 -34.727084)
(-52.58044 -31.984015 -23.969663)
(-49.932328 -32.885784 -13.912299)
(-49.421611 -33.461482 -2.8289906)
(-53.143244 -34.909683 8.3063086)
(-58.010334 -32.719183 19.201886)
(-75.05058 -55.606709 -57.696152)
(-63.204467 -54.906403 -44.228767)
(-54.879851 -56.39604 -29.383354)
(-51.485687 -57.218022 -15.573469)
(-50.870244 -57.985191 -1.6133346)
(-54.537055 -58.248528 10.822347)
(-61.517052 -58.459715 27.066882)
(-71.938961 -88.392554 -66.794442)
(-59.605343 -88.728028 -51.083305)
(-50.189166 -89.040738 -33.994956)
(-46.161704 -90.977681 -18.786046)
(-45.323217 -90.575637 -1.0041218)
(-50.908333 -91.308905 14.901016)
(-58.331982 -90.157624 30.945114)
(-61.398698 -124.98559 -74.469906)
(-46.446156 -126.21128 -56.623197)
(-35.565281 -128.29481 -37.642385)
(-30.503214 -129.71104 -19.407803)
(-29.768884 -130.19915 -0.069937348)
(-34.278381 -132.27483 17.340334)
(-43.640084 -130.01839 38.67761)
(-37.359373 -169.12965 -80.146618)
(-21.722134 -171.09102 -60.456663)
(-10.75407 -172.60849 -38.780658)
(-4.8855047 -173.85066 -18.870335)
(-5.3308507 -173.43581 1.4448314)
(-9.4903217 -173.03995 21.905552)
(-20.538208 -171.882 41.394612)
(-2.1585749 -217.21345 -83.607096)
(14.550517 -219.90078 -62.506673)
(27.147191 -223.34844 -40.865613)
(32.366902 -224.18221 -18.957868)
(33.419196 -225.39472 3.266808)
(27.575411 -224.084 24.297992)
(17.550106 -222.51241 47.875)
(47.847531 -271.4597 -85.144883)
(64.884864 -274.82901 -62.975517)
(76.362306 -276.8075 -40.17395)
(83.116798 -279.28861 -17.66028)
(82.991714 -278.6888 4.9726392)
(77.949013 -277.18547 26.859583)
(66.449489 -274.64442 49.456695)
(112.04568 -329.02443 -84.053506)
(128.68915 -333.47751 -62.01527)
(141.04457 -336.97957 -38.883671)
(146.5583 -337.44357 -17.056686)
(147.76914 -337.90167 5.9635248)
(141.90807 -335.4718 27.493842)
(130.96562 -333.47286 53.038272)
(190.98282 -390.13405 -81.523229)
(207.54502 -395.33798 -59.188191)
(218.4893 -398.22531 -37.825641)
(224.75327 -399.86187 -15.621363)
(225.01927 -399.33059 6.6121811)
(219.50524 -396.41814 27.613316)
(209.78708 -393.2311 51.567609)
(284.54022 -453.87269 -76.535326)
(299.32862 -458.7565 -55.880399)
(310.33282 -462.09094 -35.597284)
(315.88283 -462.68203 -14.888655)
(316.63623 -462.22488 5.8707876)
(311.66858 -459.78282 25.486)
(302.31848 -455.16009 47.412327)
(390.92355 -517.55087 -70.788859)
(404.95187 -522.8773 -51.880968)
(415.26363 -526.05218 -33.692717)
(420.25422 -526.95708 -14.8817)
(421.50009 -526.73269 3.9659784)
(417.19716 -523.14512 21.412209)
(409.86535 -518.51131 41.510439)
(510.0774 -581.73671 -63.638608)
(522.64655 -586.79609 -47.138668)
(531.58089 -589.42833 -31.556195)
(536.65018 -590.21234 -14.924513)
(537.90527 -589.11816 0.78150281)
(535.07937 -585.60937 16.492466)
(528.89591 -580.52634 33.188815)
(639.99237 -643.72697 -55.936519)
(650.63246 -648.38084 -42.429033)
(658.72913 -651.21216 -29.548266)
(663.31083 -651.67016 -16.182628)
(664.95595 -650.81889 -2.7998987)
(663.25061 -647.30299 9.7620599)
(658.93316 -641.99097 23.470154)
(778.32404 -703.50423 -48.095196)
(787.29078 -708.01273 -37.566613)
(794.09882 -710.27719 -27.934211)
(798.39647 -710.44425 -17.174193)
(800.30095 -709.46849 -7.2498243)
(799.91663 -705.66775 2.6572878)
(797.43747 -700.63652 12.865052)
(923.3826 -760.1839 -40.444083)
(930.38217 -764.0854 -33.300316)
(936.10672 -766.17662 -26.427804)
(940.01973 -766.36785 -18.952951)
(942.14099 -765.2528 -11.92185)
(942.9964 -761.82706 -4.8769345)
(942.27121 -756.84745 2.0102381)
(1072.5428 -813.36408 -33.65677)
(1077.7988 -816.76389 -29.306506)
(1082.448 -818.62357 -25.405549)
(1085.8936 -818.46124 -20.717506)
(1088.3391 -817.5668 -16.507211)
(1090.2167 -814.17986 -12.183139)
(1091.1474 -809.84658 -8.3745848)
(1223.8782 -862.96298 -27.734947)
(1227.603 -865.9136 -26.136606)
(1231.1614 -867.56917 -24.811386)
(1234.2815 -867.60733 -22.649194)
(1236.8966 -866.72546 -21.002234)
(1239.6476 -863.91055 -19.048829)
(1242.0455 -859.86883 -17.83741)
(1375.5476 -909.34123 -23.13805)
(1377.8413 -911.80743 -23.817734)
(1380.6112 -913.51687 -24.573068)
(1383.3916 -913.41052 -24.611411)
(1386.1681 -912.93108 -24.99414)
(1389.6113 -910.35939 -25.059567)
(1393.1168 -907.05135 -25.908488)
(1526.0189 -952.7769 -19.853808)
(1527.2504 -955.03737 -22.252549)
(1529.3711 -956.71908 -24.70784)
(1531.7665 -956.89407 -26.466109)
(1534.704 -956.57688 -28.442949)
(1538.4841 -954.69088 -30.131783)
(1542.9223 -952.02633 -32.501363)
(1674.2463 -994.11309 -17.683252)
(1674.6335 -996.05429 -21.391379)
(1676.2703 -997.95968 -25.149929)
(1678.4358 -998.28684 -28.142342)
(1681.3935 -998.62146 -31.268754)
(1685.5131 -997.29341 -34.205691)
(1690.542 -995.3524 -37.497614)
(1819.5736 -1033.5497 -16.487388)
(1819.3466 -1035.8113 -21.121372)
(1820.7846 -1037.8449 -25.679051)
(1822.5413 -1038.7457 -29.413248)
(1825.7441 -1039.3271 -33.396002)
(1829.8264 -1038.5036 -37.03819)
(1835.1706 -1037.4252 -40.906147)
(1961.5094 -1072.3877 -16.025177)
(1961.1708 -1074.8012 -20.899439)
(1962.1769 -1076.9541 -26.151243)
(1963.9539 -1078.4762 -30.210477)
(1967.1339 -1079.3081 -34.734195)
(1971.0795 -1079.5457 -38.782621)
(1976.6146 -1079.3361 -42.942677)
(2100.1655 -1110.7185 -15.485509)
(2099.8314 -1113.406 -20.769748)
(2100.5457 -1116.1026 -26.18789)
(2102.543 -1117.9707 -30.336058)
(2105.4186 -1119.2514 -35.269036)
(2109.4069 -1120.2659 -39.505526)
(2114.7503 -1120.8574 -43.629529)
(2235.8042 -1149.3448 -14.864805)
(2235.369 -1152.4502 -20.465619)
(2236.055 -1155.4901 -25.130219)
(2237.7549 -1157.8724 -30.18632)
(2240.8596 -1159.9761 -34.463638)
(2244.6276 -1161.677 -38.891239)
(2249.7474 -1163.0337 -42.658221)
(2368.595 -1188.7601 -13.628363)
(2367.9812 -1192.1168 -19.06931)
(2368.8344 -1195.7272 -23.597293)
(2370.39 -1198.3472 -28.729107)
(2373.3273 -1201.0338 -32.741902)
(2377.0712 -1202.9255 -37.561473)
(2381.8756 -1205.6923 -41.254893)
(2498.6034 -1228.8609 -11.812165)
(2498.2862 -1232.7817 -16.836926)
(2498.828 -1236.5324 -21.519785)
(2500.5708 -1239.6567 -26.095156)
(2503.226 -1242.6852 -30.385281)
(2506.9043 -1245.4078 -34.85854)
(2511.4344 -1248.7043 -38.5303)
(2626.5999 -1270.2122 -8.8921153)
(2626.0813 -1274.294 -13.960744)
(2626.7922 -1278.4804 -18.104731)
(2628.3589 -1281.84 -22.833606)
(2630.9389 -1285.3643 -26.822224)
(2634.5165 -1288.3531 -31.220536)
(2638.6895 -1292.3958 -34.856796)
(2752.5087 -1312.6216 -5.4739144)
(2752.1196 -1317.0704 -10.055572)
(2752.6924 -1321.3489 -14.254323)
(2754.2142 -1324.9903 -18.626788)
(2756.6709 -1328.685 -22.561318)
(2760.0119 -1332.0733 -26.760706)
(2763.8721 -1336.5646 -30.372223)
(2876.8589 -1356.2491 -1.2073696)
(2876.4318 -1360.7428 -5.683021)
(2876.9308 -1365.1637 -9.5714883)
(2878.3597 -1368.9405 -13.883959)
(2880.6396 -1372.8609 -17.646805)
(2883.7728 -1376.5779 -21.702921)
(2887.3422 -1381.3413 -25.24679)
(2999.7251 -1400.8284 3.3042514)
(2999.2965 -1405.4237 -0.86711991)
(2999.6877 -1409.9066 -4.7082172)
(3000.9924 -1413.8244 -8.8381351)
(3003.1282 -1417.8946 -12.501874)
(3006.0491 -1421.7905 -16.384337)
(3009.3701 -1426.6963 -19.873036)
(3121.3407 -1446.3964 8.0229171)
(3120.8968 -1450.9965 3.9871517)
(3121.1987 -1455.428 0.29643866)
(3122.4095 -1459.4057 -3.7242391)
(3124.4288 -1463.5189 -7.2736635)
(3127.1053 -1467.6731 -11.052389)
(3130.2185 -1472.5756 -14.470135)
(3241.7964 -1492.67 12.578028)
(3241.3598 -1497.1685 8.7453372)
(3241.5689 -1501.5702 5.0801024)
(3242.6769 -1505.6298 1.1606419)
(3244.5674 -1509.8363 -2.3726418)
(3247.0756 -1514.0598 -6.0892147)
(3250.1433 -1518.9029 -9.465948)
(3361.1757 -1539.4517 16.900829)
(3360.7609 -1543.8802 13.137515)
(3360.9204 -1548.1901 9.5355479)
(3361.9901 -1552.2811 5.6319565)
(3363.8606 -1556.4576 2.1896021)
(3366.1273 -1560.9889 -1.5552787)
(3369.1685 -1565.8038 -4.7960227)
(3479.4733 -1586.5725 20.814499)
(3479.0935 -1590.8766 17.193012)
(3479.19 -1595.1177 13.562358)
(3480.2852 -1599.2076 9.7067177)
(3481.9856 -1603.575 6.2970469)
(3484.4146 -1607.8103 2.5513391)
(3487.3245 -1612.917 -0.92699566)
(3596.7068 -1633.5563 24.533677)
(3596.2904 -1637.9636 20.835485)
(3596.5181 -1642.0832 17.381418)
(3597.5186 -1646.1832 13.440637)
(3599.2806 -1650.5724 9.9465698)
(3601.4903 -1655.4767 6.1777151)
(3604.6806 -1660.0792 2.8699627)
(3712.5626 -1680.9457 27.740753)
(3712.2106 -1684.9955 24.227436)
(3712.4472 -1689.0189 20.643433)
(3713.4738 -1693.1746 16.797827)
(3715.2667 -1697.5498 13.365701)
(3717.5998 -1702.199 9.5951161)
(3720.6628 -1707.1051 6.0626458)
(3827.0691 -1727.8363 30.837192)
(3826.7844 -1731.8217 27.34342)
(3827.0727 -1735.8258 23.852927)
(3828.1637 -1739.989 20.152468)
(3829.9687 -1744.3557 16.748269)
(3832.2092 -1749.2369 12.900384)
(3835.3586 -1754.3083 9.5823924)
(3939.95 -1774.7315 33.689727)
(3939.7074 -1778.6387 30.402682)
(3940.0835 -1782.6089 27.061276)
(3941.1922 -1786.7424 23.473861)
(3942.9387 -1791.1716 20.1568)
(3945.264 -1796.0755 16.580685)
(3948.2963 -1801.2877 13.295823)
(4051.1359 -1821.6237 36.341497)
(4051.0193 -1825.4709 33.368163)
(4051.5174 -1829.428 30.244357)
(4052.6036 -1833.5306 26.978334)
(4054.3924 -1838.0074 23.937726)
(4056.6116 -1842.9257 20.570046)
(4059.4567 -1848.2611 17.527774)
(4160.6279 -1868.8992 38.967257)
(4160.6465 -1872.675 36.363888)
(4161.2021 -1876.5902 33.568765)
(4162.3064 -1880.7045 30.68314)
(4164.0407 -1885.1872 27.904802)
(4166.0978 -1890.0937 24.991339)
(4168.7593 -1895.5178 22.353479)
(4268.5334 -1916.6792 41.379754)
(4268.7719 -1920.4102 39.252069)
(4269.4354 -1924.3236 36.906163)
(4270.5721 -1928.447 34.493026)
(4272.2024 -1932.9161 32.182134)
(4274.12 -1937.8611 29.769063)
(4276.4371 -1943.3417 27.606055)
(4375.1895 -1965.4773 43.692422)
(4375.6211 -1969.208 42.072371)
(4376.3755 -1973.0701 40.250872)
(4377.4975 -1977.164 38.382743)
(4379.0595 -1981.624 36.515542)