/*--------------------------------*- C++ -*----------------------------------*\
  =========                 |
  \\      /  F ield         | OpenFOAM: The Open Source CFD Toolbox
   \\    /   O peration     | Website:  https://openfoam.org
    \\  /    A nd           | Version:  6
     \\/     M anipulation  |
\*---------------------------------------------------------------------------*/
FoamFile
{
    version     2.0;
    format      ascii;
    class       pointVectorField;
    location    "0.71";
    object      u;
}
// * * * * * * * * * * * * * * * * * * * * * * * * * * * * * * * * * * * * * //

dimensions      [0 1 0 0 0 0 0];

internalField   nonuniform List<vector> 
625
(
(0 0 0)
(0 0 0)
(2.6644305 -0.36922315 0.048458236)
(2.4783524 -0.94951074 0.035017611)
(0 0 0)
(0 0 0)
(2.485183 -0.96333943 0.033961852)
(2.6711244 -0.383376 0.047986494)
(0 0 0)
(0 0 0)
(0 0 0)
(2.6172333 -0.51481919 0.044335017)
(2.5707444 -0.65881019 0.041622184)
(2.5250274 -0.80345028 0.038283353)
(0.0097090091 0.029530327 0.02602991)
(0.03311771 0.059239019 0.027391013)
(0.07367366 0.086546804 0.028888951)
(0.13153271 0.10994346 0.028988412)
(0.19993118 0.12719254 0.029633756)
(0.28352935 0.13942161 0.029809252)
(0.37570177 0.14545081 0.030665369)
(0.47786218 0.14547475 0.031244696)
(0.58818622 0.14040224 0.032371837)
(0.70496843 0.12938527 0.032943294)
(0.82788703 0.11379515 0.03405801)
(0.9557518 0.093338333 0.035048803)
(1.0876885 0.068708466 0.036038485)
(1.223151 0.040293684 0.03708041)
(1.3614162 0.0085415047 0.038121479)
(1.5019537 -0.026252324 0.039195802)
(1.6443924 -0.063379397 0.040181608)
(1.7881578 -0.10302786 0.041374946)
(1.9331736 -0.14417153 0.042290929)
(2.0787457 -0.18700674 0.043530289)
(2.2250349 -0.23117261 0.044750746)
(2.3715136 -0.27610194 0.045949904)
(2.5176635 -0.32205911 0.047602346)
(-0.0054538781 -0.022836019 -0.034611337)
(0.017853823 -0.047124084 -0.026817278)
(0.053555968 -0.078991559 -0.029312427)
(0.10045653 -0.10753956 -0.025044379)
(0.15840078 -0.13597179 -0.022393766)
(0.23032408 -0.17046298 -0.018661763)
(0.30850713 -0.20179962 -0.016114999)
(0.39808873 -0.23700902 -0.012053051)
(0.49485428 -0.27398308 -0.0090506587)
(0.59934181 -0.31168582 -0.0053130895)
(0.71025355 -0.35193098 -0.0019268301)
(0.82708215 -0.39320107 0.0016363616)
(0.94902067 -0.43601837 0.0049719251)
(1.0753869 -0.47997376 0.0082877436)
(1.20571 -0.52496309 0.011472147)
(1.3392944 -0.57080733 0.014484597)
(1.4757587 -0.61734512 0.017416203)
(1.6145902 -0.66435086 0.020123208)
(1.7554258 -0.7117874 0.022819241)
(1.8978706 -0.7593566 0.025258988)
(2.0416991 -0.80712982 0.027786871)
(2.1864457 -0.8547006 0.030089572)
(2.3319634 -0.90214495 0.032423068)
(0 0 0)
(0 0 0)
(0 0 0)
(0.0045844461 -0.015652732 0.023710459)
(0.023017992 -0.063643277 0.029154427)
(0.060790165 -0.080836595 0.023702383)
(0.10616332 -0.11285779 0.020930205)
(0.16796395 -0.15053152 0.022313767)
(0.23748143 -0.17748307 0.018798705)
(0.31694335 -0.21402718 0.01967052)
(0.40605392 -0.24967582 0.018733859)
(0.50293703 -0.28693674 0.019048397)
(0.60717035 -0.32599884 0.019421684)
(0.7179933 -0.36587941 0.019731128)
(0.83459357 -0.40788565 0.02051995)
(0.95632782 -0.45055142 0.021278608)
(1.0826046 -0.49462479 0.022168368)
(1.2127474 -0.53955861 0.02319823)
(1.3462601 -0.58526005 0.024250073)
(1.4826306 -0.6316794 0.025379391)
(1.6214229 -0.67857841 0.026552857)
(1.7621894 -0.72583971 0.027743054)
(1.9046731 -0.77340064 0.02897766)
(2.0483572 -0.82095845 0.030241348)
(2.1932218 -0.86867768 0.031551205)
(2.3386514 -0.9160119 0.032912377)
(2.5320972 -0.81717566 0.037426369)
(2.5772132 -0.6726825 0.041053761)
(2.6238793 -0.52915734 0.045009298)
(2.5245973 -0.33631444 0.045273101)
(2.3780037 -0.29031836 0.042964528)
(2.2316148 -0.24525254 0.040613005)
(2.0854781 -0.20114307 0.038148327)
(1.939805 -0.15840141 0.035658217)
(1.7949306 -0.11722432 0.033032169)
(1.6511225 -0.077844517 0.030306724)
(1.5087413 -0.040705843 0.027422187)
(1.3681864 -0.0059927859 0.024388961)
(1.2299269 0.025805686 0.021170696)
(1.0944404 0.054315421 0.01783826)
(0.96251928 0.079245212 0.014274119)
(0.8345127 0.099891445 0.01065977)
(0.711713 0.11652726 0.0067455878)
(0.59432906 0.12782622 0.0032640156)
(0.48457274 0.13336307 -0.00078668764)
(0.38184602 0.13518374 -0.0050582)
(0.28834115 0.12990859 -0.0084752121)
(0.20646521 0.1188814 -0.012691089)
(0.13480953 0.10214412 -0.015446458)
(0.077358339 0.083158672 -0.02106651)
(0.034090174 0.054793218 -0.021172725)
(0.016201574 0.02624455 -0.018373341)
(0 0 0)
(0 0 0)
(0 0 0)
(0 0 0)
(0 0 0)
(0 0 0)
(2.4798187 -0.95325771 0.034554293)
(2.4816794 -0.95681525 0.034569867)
(2.4831763 -0.96029261 0.034274142)
(2.6666276 -0.37236804 0.048404716)
(2.6682801 -0.37609963 0.048184508)
(2.6699575 -0.37946422 0.048063818)
(-0.0034412782 0.016653361 0.018514799)
(0.020059184 0.033209792 0.014559748)
(0.059970733 0.047180083 0.016189726)
(0.1146277 0.057166194 0.016200979)
(0.18178055 0.063240084 0.017333755)
(0.26281606 0.06424894 0.018297206)
(0.35222509 0.060237791 0.019372598)
(0.45204923 0.051934119 0.020874892)
(0.55920363 0.038529736 0.022186969)
(0.67372049 0.020612338 0.023605104)
(0.7941964 -0.0011924364 0.025234055)
(0.91967117 -0.027153607 0.026731668)
(1.0495919 -0.056447453 0.028299835)
(1.1832102 -0.088911164 0.029870216)
(1.3198308 -0.12419714 0.031421248)
(1.4590353 -0.1617924 0.032920765)
(1.600254 -0.20157766 0.034457592)
(1.7431141 -0.24304746 0.035951703)
(1.8873486 -0.28591222 0.037369411)
(2.0323699 -0.33016632 0.038997526)
(2.1782825 -0.37533082 0.040273981)
(2.3244815 -0.42107277 0.041904104)
(2.4708063 -0.46799696 0.043343932)
(-0.0095839112 0.0038738617 0.00072007299)
(0.015406934 0.0049687327 -0.0011402616)
(0.052156051 0.0063164184 0.00057460383)
(0.10472997 0.0044485976 0.0025053107)
(0.17047244 -0.0023025553 0.0037916294)
(0.24721913 -0.011746687 0.0056995441)
(0.33426389 -0.025002135 0.0075925713)
(0.43083391 -0.042658224 0.0097459015)
(0.53490405 -0.063594244 0.011686807)
(0.64660252 -0.08828879 0.014009816)
(0.76403198 -0.11628088 0.016136813)
(0.88704985 -0.14742355 0.018350466)
(1.0145752 -0.18135167 0.020551809)
(1.146035 -0.21779422 0.022706436)
(1.2807713 -0.25643209 0.024785523)
(1.418309 -0.29695971 0.026836898)
(1.5580953 -0.33910279 0.028819405)
(1.6997939 -0.38252476 0.030701561)
(1.8429871 -0.42714479 0.032617416)
(1.9872783 -0.4725082 0.034395143)
(2.1326348 -0.51860882 0.036212599)
(2.2784183 -0.56518273 0.038086206)
(2.4249279 -0.61211731 0.039848772)
(-0.013310785 -0.0099145976 -0.011616361)
(0.012375406 -0.019174037 -0.012339129)
(0.046526447 -0.030197 -0.011634462)
(0.098914752 -0.046362671 -0.0099913789)
(0.16111164 -0.065261233 -0.0082577872)
(0.23533955 -0.084539388 -0.0058820648)
(0.31965486 -0.10929509 -0.0033059095)
(0.41247233 -0.13514996 -0.00081701597)
(0.51370918 -0.16419899 0.0018929555)
(0.6219566 -0.19615383 0.004710342)
(0.73651743 -0.23027444 0.0074014946)
(0.85670411 -0.26697614 0.010246163)
(0.98157973 -0.3056261 0.012959112)
(1.1106857 -0.34614305 0.015614236)
(1.2432887 -0.38829503 0.018228067)
(1.3789789 -0.4317377 0.02071337)
(1.5171271 -0.47633095 0.023120919)
(1.6574925 -0.52185073 0.025452011)
(1.79948 -0.56799239 0.027649524)
(1.9429992 -0.61475167 0.029880502)
(2.0874969 -0.66181399 0.031898605)
(2.2329185 -0.70903095 0.034033711)
(2.3788901 -0.7563119 0.0360845)
(0 0 0)
(0 0 0)
(0 0 0)
(0 0 0)
(0 0 0)
(0 0 0)
(0 0 0)
(0 0 0)
(0 0 0)
(0.0089215979 -0.0098735983 -0.015498609)
(0.013057108 -0.013421344 -0.0034225934)
(0.01203291 -0.0095340186 0.007589033)
(0.035040848 -0.057427546 -0.014438661)
(0.035279819 -0.058814096 -0.0016603436)
(0.034212939 -0.05689962 0.014929609)
(0.065342042 -0.080456031 -0.015858787)
(0.069719141 -0.079989583 -0.0033120809)
(0.07052157 -0.086509214 0.012539741)
(0.11105895 -0.11145647 -0.012481441)
(0.11608817 -0.1154972 -0.0012654672)
(0.11399766 -0.11371263 0.011042499)
(0.17070125 -0.1443255 -0.011370361)
(0.17389884 -0.14595763 -0.001831606)
(0.17424863 -0.14986727 0.011283686)
(0.23838829 -0.17525541 -0.0092002516)
(0.24291287 -0.17795195 0.0009050836)
(0.24285409 -0.17961227 0.010924609)
(0.31765334 -0.20869568 -0.0065076225)
(0.32154894 -0.21298445 0.00074755637)
(0.32187737 -0.21532832 0.011767335)
(0.40587385 -0.24429673 -0.0042342679)
(0.40951499 -0.24636084 0.0032114583)
(0.41001646 -0.2497589 0.011842047)
(0.50196739 -0.28019643 -0.0015291052)
(0.50532852 -0.28442423 0.0047901725)
(0.5059362 -0.28686456 0.01286662)
(0.60571405 -0.31887104 0.0010838595)
(0.60893197 -0.32228563 0.0068221058)
(0.60982034 -0.32551375 0.01385978)
(0.71595064 -0.3583174 0.0038606596)
(0.71902115 -0.36224762 0.0088668686)
(0.71985728 -0.36523948 0.014997373)
(0.83220402 -0.39975273 0.0066545002)
(0.83500006 -0.40349668 0.010948801)
(0.83608614 -0.40667454 0.016331887)
(0.95354922 -0.44212046 0.0093360521)
(0.95627416 -0.44593603 0.013079457)
(0.95734532 -0.44926259 0.017733506)
(1.079503 -0.48589289 0.012048422)
(1.0820081 -0.4896926 0.015233396)
(1.0831953 -0.49296341 0.019146135)
(1.2093618 -0.53056329 0.014656569)
(1.2117506 -0.53430767 0.017314527)
(1.2130065 -0.53768571 0.020653114)
(1.3426097 -0.57613042 0.01715403)
(1.3448841 -0.5798528 0.019390357)
(1.346188 -0.58319723 0.022165774)
(1.4787474 -0.62235994 0.019602689)
(1.4808974 -0.62600627 0.021420319)
(1.4822688 -0.62939341 0.023669137)
(1.6173184 -0.66913252 0.02190977)
(1.6193938 -0.67277043 0.023357047)
(1.620811 -0.67614829 0.025201611)
(1.7578928 -0.7162896 0.024172631)
(1.759876 -0.71983734 0.025308431)
(1.7613352 -0.72323754 0.026706267)
(1.9001714 -0.76368496 0.026320608)
(1.9020921 -0.76725765 0.027159743)
(1.9035947 -0.7706552 0.028219112)
(2.0437043 -0.81119882 0.02847253)
(2.0455515 -0.81464287 0.02902716)
(2.0471096 -0.81807371 0.029743562)
(2.1883562 -0.85866536 0.030520607)
(2.1901754 -0.86220867 0.030868023)
(2.191756 -0.86569085 0.031260559)
(2.3336781 -0.90607627 0.032576798)
(2.3353997 -0.90946999 0.03262356)
(2.3371408 -0.91289339 0.032804827)
(2.6194677 -0.51813391 0.044825266)
(2.6212225 -0.52169268 0.044783048)
(2.6227385 -0.52518648 0.044866259)
(2.5725485 -0.66220351 0.041656643)
(2.5743034 -0.66592295 0.041395558)
(2.5757678 -0.66920002 0.041223885)
(2.5267297 -0.80721163 0.037980547)
(2.5285772 -0.8107212 0.037892636)
(2.5301595 -0.81405771 0.037700019)
(0.022275191 0.0237979 0.012845161)
(0.022172486 0.026241613 0.0042205732)
(0.023732862 0.025640152 -0.0057196318)
(0.042527741 0.055237961 0.015040209)
(0.045791974 0.055245558 0.0010411751)
(0.044988904 0.053460924 -0.010534574)
(0.086581066 0.084106037 0.015695112)
(0.086911764 0.082711003 0.0057012812)
(0.087651155 0.082607062 -0.0091535483)
(0.14002742 0.10504728 0.01686633)
(0.14334616 0.10373051 0.0057773174)
(0.14308218 0.10365018 -0.0061456585)
(0.21045441 0.12403102 0.018689776)
(0.21395697 0.12161104 0.0077141233)
(0.21345821 0.12022961 -0.0027097673)
(0.29255275 0.13452097 0.019262203)
(0.29439752 0.13168185 0.010967749)
(0.29535871 0.13051193 -7.9884682e-05)
(0.38413732 0.14032262 0.021128677)
(0.38717052 0.1377257 0.012618819)
(0.38772764 0.1357381 0.002946328)
(0.48606925 0.14042975 0.022645748)
(0.48868662 0.13736533 0.014917474)
(0.48904304 0.13564758 0.006352924)
(0.59523481 0.13550802 0.024457144)
(0.59781798 0.13130322 0.017397852)
(0.59890114 0.129074 0.0096349481)
(0.71190505 0.12403903 0.025955743)
(0.71427949 0.12068936 0.020078774)
(0.71523041 0.11776939 0.012598106)
(0.83413341 0.10838969 0.027760638)
(0.83641757 0.10480079 0.02207912)
(0.837454 0.10197064 0.015763232)
(0.96140521 0.088116868 0.029449768)
(0.96367448 0.084328267 0.02453809)
(0.96486271 0.081298382 0.018914028)
(1.0928827 0.063628169 0.03115168)
(1.0950995 0.059747032 0.026811614)
(1.09628 0.056641623 0.021837391)
(1.2278904 0.035387008 0.032804902)
(1.2299924 0.031485452 0.029045991)
(1.2312401 0.028283773 0.024694177)
(1.3657185 0.0038079056 0.034466659)
(1.36776 -0.00010516829 0.031179524)
(1.3690843 -0.0033718629 0.027432523)
(1.5058882 -0.030743817 0.036002486)
(1.5078876 -0.034622523 0.033246813)
(1.50922 -0.03790639 0.030016047)
(1.6479588 -0.067755448 0.037611133)
(1.6498536 -0.071604258 0.035230862)
(1.651263 -0.074984229 0.032513168)
(1.7914361 -0.10711499 0.039088042)
(1.7933287 -0.11088913 0.037112216)
(1.7947407 -0.11419456 0.034856229)
(1.9360754 -0.14812274 0.040566307)
(1.9378757 -0.15187406 0.039041686)
(1.9393525 -0.15528707 0.037145172)
(2.0814614 -0.19084163 0.042232571)
(2.0833133 -0.1945029 0.040743164)
(2.0847859 -0.19792742 0.039332491)
(2.227509 -0.23484658 0.043596782)
(2.2292606 -0.23853978 0.042582151)
(2.2307364 -0.24190138 0.041515792)
(2.3736879 -0.27989201 0.045034743)
(2.3754286 -0.2832318 0.044436123)
(2.376976 -0.28678236 0.043626682)
(2.5202551 -0.32552129 0.046964234)
(2.5218549 -0.32908197 0.046344429)
(2.5234685 -0.33272522 0.045956953)
(-0.00023112599 0.0088879319 -0.011770184)
(0.025118623 0.033781126 -0.0116896)
(0.062366892 0.040375282 -0.0075460725)
(0.11995667 0.050474904 -0.0071481093)
(0.18785453 0.054418988 -0.0037785561)
(0.2681073 0.054177939 -0.0013759188)
(0.35892966 0.049318131 0.0014057578)
(0.45818215 0.039634176 0.0044490177)
(0.56599401 0.025626561 0.0072221996)
(0.6803644 0.0072064749 0.010374735)
(0.80073894 -0.015129145 0.013073219)
(0.92634133 -0.041430772 0.01611889)
(1.0562454 -0.070889178 0.018891607)
(1.1898315 -0.10345136 0.021600787)
(1.3264814 -0.13872488 0.024260564)
(1.4656524 -0.17631226 0.026756029)
(1.6068673 -0.21593723 0.029202093)
(1.749742 -0.25733504 0.031510213)
(1.8938549 -0.30016974 0.033776604)
(2.038986 -0.34427219 0.035944561)
(2.1847724 -0.38941494 0.038133981)
(2.3309018 -0.43527197 0.040260238)
(2.4774245 -0.48216989 0.042616352)
(-0.0082885044 0.0042924752 0.0019795713)
(0.016693629 0.0060753527 0.00083155884)
(0.056891443 0.00045365213 0.0030018878)
(0.11124791 -0.0012064744 0.0026403552)
(0.1764439 -0.010086199 0.0039399212)
(0.25466621 -0.021127174 0.0057157221)
(0.34168895 -0.035680726 0.0070763701)
(0.4384161 -0.054109043 0.0090681371)
(0.54279048 -0.076213128 0.011109527)
(0.65421007 -0.10130495 0.013034131)
(0.77177034 -0.12990882 0.015205083)
(0.89469047 -0.16148729 0.017361407)
(1.0220832 -0.19551811 0.01946619)
(1.1534889 -0.23214419 0.021632515)
(1.2881378 -0.27073847 0.02371843)
(1.4255645 -0.3112424 0.025768665)
(1.5653168 -0.35325504 0.027800062)
(1.706915 -0.39665327 0.029714929)
(1.8500426 -0.44109135 0.031688217)
(1.9943488 -0.48646076 0.033528494)
(2.1395922 -0.53251795 0.03540483)
(2.2852791 -0.57910154 0.037248316)
(2.4320975 -0.6262235 0.039094396)
(-0.012361869 -0.01022502 0.010702656)
(0.018319112 -0.015659455 0.01100892)
(0.05491823 -0.040104187 0.015479309)
(0.10529858 -0.04872583 0.011526928)
(0.16977584 -0.072724996 0.013860575)
(0.24391226 -0.094361952 0.013721924)
(0.32784197 -0.11830369 0.013871262)
(0.42123885 -0.1471736 0.015190749)
(0.5219967 -0.17613464 0.015777679)
(0.63032877 -0.20927745 0.017099353)
(0.74456439 -0.24389199 0.018310357)
(0.8645709 -0.2809215 0.019594592)
(0.98924414 -0.31986679 0.021068533)
(1.1181965 -0.36049976 0.022468715)
(1.2506399 -0.40267485 0.02397503)
(1.3861752 -0.44608758 0.025464396)
(1.5242633 -0.4906084 0.026964433)
(1.6644832 -0.53600119 0.028464232)
(1.8064588 -0.5820947 0.02999794)
(1.949886 -0.62874742 0.03145352)
(2.0943139 -0.67569269 0.033047258)
(2.2397891 -0.72297523 0.034460187)
(2.3856087 -0.77008323 0.036191146)
(0.0051472225 0.0080957094 0.0083734638)
(0.0050800832 0.0089029797 0.0033199718)
(0.008282289 0.0075444318 -0.0047953794)
(0.031695607 0.03198454 0.0067818169)
(0.035579922 0.031550204 0.00011197761)
(0.032784114 0.031527249 -0.0068026927)
(0.071582457 0.043114134 0.0081947652)
(0.072242013 0.041838117 0.0028711482)
(0.07275945 0.040552404 -0.0030837262)
(0.12478759 0.053948461 0.0094306608)
(0.12856713 0.052644349 0.0035457704)
(0.12772686 0.050699833 -0.0022717511)
(0.19271269 0.058897777 0.010091248)
(0.19564849 0.056558385 0.0055834644)
(0.19572979 0.054623121 0.00038955547)
(0.27185221 0.059265969 0.012212167)
(0.27492249 0.057120349 0.0076193322)
(0.27434709 0.054763116 0.0026554705)
(0.36104213 0.055379315 0.013743358)
(0.36416855 0.052869108 0.0094435639)
(0.36465792 0.050175373 0.0052451211)
(0.4599358 0.046853127 0.015519196)
(0.46303066 0.04330235 0.011873994)
(0.46313467 0.040454922 0.0076096891)
(0.56656685 0.032845226 0.01756542)
(0.56950896 0.029923649 0.014002177)
(0.57003222 0.027086121 0.010609871)
(0.68041522 0.015405808 0.019379554)
(0.68329688 0.011816637 0.016261929)
(0.68381371 0.008537273 0.012977692)
(0.80026151 -0.0065654948 0.021452625)
(0.80284709 -0.010302554 0.018715107)
(0.80358565 -0.013309631 0.015729293)
(0.92516718 -0.032382976 0.023410891)
(0.92778049 -0.036052019 0.020916307)
(0.92865561 -0.039434846 0.018325298)
(1.0546475 -0.061500062 0.025369545)
(1.0570993 -0.065348899 0.023194136)
(1.0580258 -0.068695732 0.020940298)
(1.1877715 -0.093872542 0.027332469)
(1.190101 -0.097660818 0.025422276)
(1.1911403 -0.10108829 0.02340725)
(1.3239889 -0.12890869 0.029207702)
(1.3262357 -0.13273242 0.027549072)
(1.3273677 -0.13616364 0.025826083)
(1.4628298 -0.16637733 0.031056452)
(1.4649644 -0.17014987 0.029645891)
(1.4661465 -0.17360402 0.028134444)
(1.6036767 -0.20590616 0.032859298)
(1.6057433 -0.20963688 0.031631718)
(1.6070259 -0.21311942 0.030375914)
(1.7462848 -0.24721979 0.034590154)
(1.7482734 -0.25093435 0.033597212)
(1.7495619 -0.25434245 0.032503675)
(1.890184 -0.28990645 0.036303243)
(1.8920492 -0.29354653 0.035450498)
(1.8934641 -0.29709567 0.034605103)
(2.0349287 -0.3339901 0.038060864)
(2.0368924 -0.33766107 0.037375868)
(2.0382592 -0.3410756 0.036581575)
(2.1805483 -0.3789815 0.039535985)
(2.1825996 -0.38254342 0.039208984)
(2.1839023 -0.38598614 0.038623831)
(2.3266346 -0.42475133 0.041404193)
(2.3283723 -0.42818025 0.041095727)
(2.3297874 -0.4317916 0.040571765)
(2.4729258 -0.47126779 0.043095777)
(2.4745215 -0.47487018 0.042862237)
(2.4761237 -0.47840718 0.042670237)
(-0.0025071624 0.002532366 -0.00053503926)
(-0.00028999862 0.0029633544 -0.0016028673)
(0.0019919805 0.0035228563 0.00032741603)
(0.024623875 0.0045438974 -0.0032117546)
(0.027650089 0.0051100062 -0.0019559467)
(0.024605789 0.0036203929 -0.00095551316)
(0.063278732 0.0038564422 -0.00050583078)
(0.065332888 0.0020415839 0.0017489496)
(0.065495941 0.0014732054 0.0015336273)
(0.11415344 0.00038544055 0.00013792089)
(0.11968878 -0.0020175207 0.0015482829)
(0.11767864 -0.0041355072 0.0017804094)
(0.18032072 -0.0060947274 0.0022885207)
(0.18390801 -0.0092224073 0.0045508266)
(0.18247546 -0.0099101006 0.0028645216)
(0.2560617 -0.016424286 0.0042748545)
(0.26001567 -0.019758378 0.0052572306)
(0.2594202 -0.021637854 0.0050798442)
(0.3426316 -0.029847104 0.0058649112)
(0.34644779 -0.033952821 0.0075964835)
(0.34582281 -0.036067298 0.0062159806)
(0.43852022 -0.048023817 0.0085163191)
(0.44207879 -0.051897386 0.0095601551)
(0.44156462 -0.053523269 0.0086525106)
(0.54200824 -0.068756997 0.010364331)
(0.54528401 -0.073026146 0.011338382)
(0.5453939 -0.075671093 0.010426475)
(0.65304652 -0.093649172 0.012828925)
(0.65621952 -0.098038286 0.013801655)
(0.65630359 -0.10039176 0.012843804)
(0.76997228 -0.12170707 0.015125243)
(0.77282941 -0.12595557 0.015834859)
(0.77322301 -0.12872833 0.014854429)
(0.89242398 -0.15270341 0.01737697)
(0.89521194 -0.1570634 0.018022593)
(0.89575769 -0.15989022 0.017165986)
(1.0194869 -0.18650893 0.019721739)
(1.0220901 -0.19085067 0.020260701)
(1.0227006 -0.19380681 0.01936865)
(1.1504608 -0.22281796 0.021935285)
(1.152906 -0.22711442 0.022344055)
(1.1537268 -0.23009062 0.021554379)
(1.2848343 -0.26123961 0.024129513)
(1.2871581 -0.26543169 0.024472616)
(1.2880737 -0.26854861 0.023726783)
(1.42198 -0.3015942 0.026237869)
(1.4241792 -0.30572502 0.026491996)
(1.4252166 -0.30884936 0.025802707)
(1.5614633 -0.34350426 0.028297703)
(1.5635595 -0.34753056 0.028480996)
(1.5646835 -0.35073523 0.027867752)
(1.7028749 -0.38678795 0.030250356)
(1.7048513 -0.39076483 0.030388051)
(1.7061035 -0.39394975 0.029811463)
(1.8457641 -0.4311625 0.032213129)
(1.8477115 -0.43500425 0.032257715)
(1.8489884 -0.43830992 0.031808075)
(1.9899395 -0.47641328 0.03400749)
(1.99168 -0.48035611 0.034117817)
(1.9931102 -0.48353728 0.033636649)
(2.1351254 -0.52235373 0.036053958)
(2.1366091 -0.5261035 0.035787319)
(2.1382655 -0.52943475 0.035577623)
(2.2805031 -0.56891607 0.037766607)
(2.2822951 -0.57241686 0.037780883)
(2.2836762 -0.5758942 0.037344509)
(2.4269001 -0.61562429 0.039627514)
(2.4287212 -0.61937759 0.039490912)
(2.4303745 -0.62267881 0.039322402)
(-0.0030001869 -0.0070476266 -0.0052925958)
(-0.0035525181 -0.006302087 -0.00016905555)
(-0.0035367017 -0.0059360709 0.0050238486)
(0.025908405 -0.019160534 -0.007005967)
(0.029011329 -0.015284941 0.00031956468)
(0.026713632 -0.017766727 0.006223618)
(0.059256989 -0.03362473 -0.0060457421)
(0.062775001 -0.039090773 0.0010706683)
(0.063320884 -0.039280435 0.0081511566)
(0.11118731 -0.052229862 -0.0051980938)
(0.1136986 -0.050985837 0.0013339925)
(0.11381125 -0.05297143 0.0066763211)
(0.17219822 -0.069361771 -0.0030513227)
(0.17568512 -0.073047033 0.0027075584)
(0.17631491 -0.073992414 0.0078395598)
(0.2456891 -0.091230718 -0.0018873482)
(0.24878502 -0.093866164 0.0034811955)
(0.24939752 -0.095948677 0.0078951358)
(0.32896642 -0.11561061 0.00062136821)
(0.33188541 -0.1182902 0.0056303782)
(0.33296481 -0.11987386 0.0093582131)
(0.42107224 -0.14147504 0.0026993527)
(0.42380137 -0.14493959 0.0065306992)
(0.42506975 -0.14769344 0.010307483)
(0.52141018 -0.17097906 0.0048975311)
(0.52409989 -0.17434082 0.0088580756)
(0.52547069 -0.17681461 0.012107743)
(0.62892536 -0.2027735 0.0075027886)
(0.63149628 -0.20632662 0.010700262)
(0.63289687 -0.20913776 0.013409726)
(0.74277479 -0.23680042 0.0098020838)
(0.74518176 -0.24054028 0.012653473)
(0.74675267 -0.24354161 0.015177909)
(0.86231082 -0.27336405 0.012340684)
(0.86463166 -0.27709791 0.014836072)
(0.8661749 -0.28018855 0.016886035)
(0.9866087 -0.3117575 0.01477774)
(0.98877274 -0.31559056 0.016854199)
(0.99041096 -0.31878872 0.018663422)
(1.115192 -0.35208257 0.017160999)
(1.1173015 -0.35584398 0.01894809)
(1.1189201 -0.35909296 0.02047292)
(1.2473514 -0.39390975 0.019532155)
(1.2493456 -0.39766154 0.021009223)
(1.2510184 -0.40099969 0.022270425)
(1.3826066 -0.43709369 0.021792165)
(1.3845592 -0.44084634 0.023018738)
(1.3862044 -0.44417577 0.024042503)
(1.520436 -0.48142363 0.024006307)
(1.522285 -0.48508212 0.024972623)
(1.5239884 -0.48844507 0.025818256)
(1.660443 -0.52663468 0.026127518)
(1.6622943 -0.53031006 0.026911117)
(1.6639798 -0.53367619 0.027534607)
(1.8021913 -0.57259412 0.028181735)
(1.8039423 -0.57617409 0.028757356)
(1.8056431 -0.57953038 0.029258753)
(1.9454195 -0.61907463 0.030242406)
(1.9472033 -0.62268739 0.030624707)
(1.9489343 -0.62606088 0.030938949)
(2.0896851 -0.66592458 0.032091922)
(2.0913739 -0.66941134 0.032400548)
(2.0930954 -0.67277146 0.032625743)
(2.2349256 -0.71302988 0.03412081)
(2.2366387 -0.71656824 0.034321138)
(2.2384539 -0.71996185 0.034357958)
(2.3806103 -0.76016729 0.036027626)
(2.3823178 -0.76349641 0.036044784)
(2.3840083 -0.76705606 0.035933098)
)
;

boundaryField
{
    free
    {
        type            calculated;
    }
    fixed
    {
        type            calculated;
    }
    traction
    {
        type            calculated;
    }
}


// ************************************************************************* //
