/*--------------------------------*- C++ -*----------------------------------*\
  =========                 |
  \\      /  F ield         | OpenFOAM: The Open Source CFD Toolbox
   \\    /   O peration     | Website:  https://openfoam.org
    \\  /    A nd           | Version:  6
     \\/     M anipulation  |
\*---------------------------------------------------------------------------*/
FoamFile
{
    version     2.0;
    format      ascii;
    class       pointScalarField;
    location    "0.02";
    object      p;
}
// * * * * * * * * * * * * * * * * * * * * * * * * * * * * * * * * * * * * * //

dimensions      [1 -1 -2 0 0 0 0];

internalField   nonuniform List<scalar> 
3969
(
0.00012934838
0.00023319198
5419.0649
554.90591
0.00024871882
0.00035019691
964.48966
-626.9555
0.00014560501
0.00018792005
0.00021584068
0.00022971921
0.00020410118
0.00018555453
0.00012309487
-13518.723
-6400.7228
-5005.3793
-1050.3869
2264.0424
6677.535
6147.3478
9.1474976e-05
0.00013117285
0.00016615228
0.00014761821
4.7801022e-05
4.9902305e-05
0.00043612299
0.0023312026
0.0076085915
0.018908859
0.037786387
0.072812546
0.1332201
0.23391972
0.43563379
0.84480735
1.6823004
3.4540675
7.0707637
14.125084
27.440824
51.122734
92.876281
159.80213
270.11085
434.6991
658.27584
956.71314
1358.954
1883.7131
2631.7911
3805.7011
5658.4594
8348.6599
12001.162
16106.654
19943.699
23379.84
25630.555
28185.903
27986.453
28024.621
27566.42
22373.378
22179.457
17615.755
10642.758
8.3686391e-05
0.00012203794
0.00023400985
0.0004183313
0.00069294496
0.0011428961
0.0019019623
0.0029757552
0.0057883528
0.0097624183
0.01960242
0.030888721
0.045170016
0.041526141
-0.046527035
-0.36632905
-1.238196
-3.2901685
-7.6848831
-16.475321
-32.980064
-62.623716
-113.66945
-195.24594
-322.11732
-509.9681
-774.17878
-1111.7872
-1530.5228
-2051.2535
-2721.8581
-3663.132
-5073.2046
-7217.731
-10234.848
-14030.512
-18035.603
-21545.275
-24704.392
-26424.652
-27113.058
-26881.059
-25758.525
-22843.304
-19510.058
-16167.603
-10587.806
0.00029378944
0.00037153688
0.00044347119
0.00043556936
0.00041014007
0.00034193019
0.00017776595
0.00012519615
0.00011419902
0.00020798918
0.00024903339
0.00057094477
0.00083009451
0.0018876308
0.0042820355
0.0063755919
0.015975557
0.02488225
0.029745108
0.015933343
-0.047871755
-0.23583721
-0.71024154
-1.8153966
-4.2433307
-9.3002134
-19.278661
-37.847757
-70.595899
-124.70552
-208.47385
-337.26987
-509.54882
-758.88503
-1067.5341
-1465.7783
-1975.2336
-2657.8288
-3647.4081
-5179.4627
-7558.9067
-10774.196
-15856.018
-19325.302
-25204.985
-28375.82
-29250.498
-28435.914
-26973.937
-25562.338
-23659.653
-21305.916
-17600.471
-12991.255
10535.12
5415.6055
648.93761
1003.8528
-7746.647
-7397.0713
-13796.171
22704.517
20747.61
21580.599
24298.977
26239.426
27637.848
28526.704
28492.892
27221.47
24778.647
21266.031
16272.562
11859.807
8589.2144
5874.4849
4125.3523
3001.8355
2222.6032
1648.3502
1179.868
826.32185
551.51534
353.98648
215.43793
127.21826
71.919215
39.117648
20.631336
10.553782
5.2777601
2.5930632
1.2307505
0.65272529
0.2334858
0.10929581
0.079491653
0.035790874
0.018679844
0.01021671
0.003173628
0.0017021518
0.0011560071
0.00044847903
0.00032792583
0.00020543493
0.00011120438
0.00010213238
0.00013590388
0.0001824089
0.00021786647
0.00023432441
0.00019837613
0.00018959353
0.00013716213
0.00021956511
0.00032124451
0.00042206831
0.00048199889
0.00045680866
0.00039517944
0.00027602291
2474.1206
4169.8197
4602.7659
5268.953
4755.4142
2767.5342
2927.6352
-2334.4628
-1211.6674
-2265.2243
-2901.7663
-2474.6096
1745.0557
-1317.3963
9.8483444e-05
0.00012161013
0.00017478389
0.00027419844
0.00044016198
0.00080052557
0.0017010571
0.0037695869
0.008606084
0.018091926
0.037704538
0.072814358
0.13517231
0.25859979
0.49819105
0.97718362
1.9670679
3.9636207
7.8965964
15.364514
29.136847
53.570251
95.229254
162.63251
269.96298
424.04482
652.93931
968.77152
1399.3525
1984.6161
2806.3704
3985.3469
5608.9254
7755.5042
10391.474
12873.851
15441.761
17642.256
19340.296
21076.642
21311.089
22598.742
20510.128
18211.916
16883.605
9537.7745
5529.0767
0.00010482504
0.00012634116
0.0001887505
0.00036247746
0.00070397984
0.0015005419
0.0030562708
0.0059308751
0.010946245
0.019911649
0.035374543
0.064628631
0.11937239
0.22742959
0.43747364
0.84996996
1.6569033
3.1943671
6.0837993
11.301583
20.719861
36.774845
63.858869
107.2639
176.3001
275.84659
420.16758
638.39641
942.49946
1360.7459
1953.4354
2772.0563
3882.2461
5260.3187
6749.4207
8235.6185
9566.5619
10424.326
10986.182
12238.914
12594.693
13970.713
12661.058
12675.883
10243.877
5984.4258
1266.2873
0.00010092445
0.00010063506
0.00013682241
0.0003095176
0.00072593635
0.0018088264
0.0039916307
0.0077956434
0.013852256
0.022746341
0.03563329
0.056365936
0.096316141
0.17659413
0.33843399
0.66417189
1.3017751
2.4848803
4.6523486
8.2410817
14.430495
24.421189
41.108929
67.738517
107.65659
168.58155
256.90704
378.90477
532.09642
748.99886
1033.2919
1431.376
1960.2436
2633.643
3485.329
4294.242
5110.6286
5493.0006
6141.0484
6651.6576
6818.5365
8068.0897
7382.0014
7407.5581
5507.0983
2384.8124
1741.7354
0.00011178318
0.00010613362
0.00013411716
0.00027637522
0.00068492989
0.0017924314
0.00408376
0.0081018015
0.014449787
0.023033487
0.034431294
0.050936374
0.078060869
0.12253776
0.19717129
0.33769722
0.56957995
0.89305433
1.3368331
1.1862667
1.6709941
-0.1972363
-6.4314636
-14.609752
-28.642092
-47.589012
-68.696649
-88.157931
-97.045249
-89.926653
-71.031232
-37.306163
-12.944683
-11.238756
-130.62498
-312.56112
-669.01652
-1158.6602
-1432.5529
-2201.1916
-2152.3958
-1582.5467
-1564.5772
-26.681901
507.80899
1543.6327
2469.4057
9.5891443e-05
8.6228062e-05
0.00012198761
0.00027903013
0.00075212059
0.0018573824
0.0040422377
0.0076841874
0.012896764
0.020556352
0.030412976
0.039969934
0.049006064
0.065093857
0.0936647
0.13668654
0.15923052
0.033992202
-0.52861617
-2.8478864
-5.1180535
-25.425566
-39.347767
-69.691411
-116.06794
-189.49612
-293.16052
-427.85127
-605.37491
-831.14003
-1131.7112
-1540.7727
-2083.72
-2869.3701
-3784.5527
-4715.1758
-5631.6983
-6273.9662
-5678.5024
-6549.0942
-6762.9541
-7496.0891
-6324.3051
-5540.0707
-4164.5975
-2339.026
341.37964
9.2519326e-05
7.6942156e-05
0.00010130193
0.00024635331
0.00072112982
0.0019600307
0.0044636139
0.0087126077
0.014523081
0.021402766
0.025114083
0.025362337
0.017801987
-0.0037123301
-0.051460978
-0.17283565
-0.50389678
-1.3821028
-3.5260269
-8.4041298
-17.914441
-38.934915
-72.485936
-130.51037
-222.25331
-360.53595
-534.16732
-765.14959
-1050.9845
-1410.0567
-1875.7879
-2502.7607
-3386.5739
-4651.2359
-6134.5419
-8179.3496
-10307.319
-12551.255
-14549.273
-15982.897
-16998.526
-17329.555
-14974.111
-14104.789
-9948.6574
-5759.4897
55.187678
8.5460528e-05
9.1160413e-05
0.00012553588
0.00020684417
0.00041102085
0.001053447
0.0024914537
0.0054396028
0.010532872
0.018385136
0.026174463
0.030328056
0.029347764
-0.0020165451
-0.09941065
-0.35160111
-0.95525539
-2.3374262
-5.3720373
-11.71552
-24.504677
-48.565114
-91.472058
-166.15168
-283.48477
-472.36362
-737.81071
-1098.4837
-1572.532
-2185.4339
-2979.9263
-4036.869
-5458.9813
-7365.1827
-9641.2957
-12503.34
-15252.414
-17450.658
-19609.85
-21057.973
-22050.154
-22160.334
-20824.18
-19763.133
-15376.004
-10930.917
-3430.5846
0.00018526514
0.00018488766
0.00024272954
0.00026221988
0.00024824069
0.00023772169
0.00018020696
0.00020352238
0.00025986694
0.00031226059
0.00034128848
0.00032422657
0.00030851099
0.00022847354
0.00024408845
0.00031329236
0.00038029431
0.00040043894
0.00040230116
0.00037424212
0.00026559199
0.00025450679
0.00035539349
0.00042133852
0.00046775546
0.00043178202
0.00039072523
0.00028773724
0.00026618337
0.00032734704
0.00040719576
0.00043900439
0.00041942598
0.00036923427
0.00026024442
0.00024098057
0.00031855185
0.00038252142
0.00040753549
0.0003820307
0.00031940746
0.00023674026
0.0002037992
0.00022653583
0.00027380838
0.00028988885
0.00027159386
0.00022394383
0.00018786972
0.0001205532
0.00014746722
0.00017375212
0.000193859
0.00021896115
0.00021168844
0.00013542574
8.8014781e-05
8.1320876e-05
7.4979282e-05
7.2399864e-05
9.7149696e-05
0.000114501
9.4406705e-05
0.00012450411
2.3567074e-05
-2.9065639e-05
-4.8027508e-05
-2.7442493e-05
6.0937181e-05
9.3450433e-05
0.00019733178
6.954363e-05
-7.3916058e-05
-0.00016698272
-0.00015914381
-5.2582383e-05
0.0001085998
0.00046565418
0.00028894516
0.0001421574
2.9078221e-05
5.6155821e-05
0.00019109085
0.0003729587
0.0013681989
0.0015679465
0.0015387299
0.0013893627
0.0013054372
0.00099721564
0.00099779444
0.0033204787
0.0046145288
0.0053097008
0.0054125001
0.0053034473
0.0041192931
0.0027048785
0.0066060786
0.010553394
0.012991196
0.013378272
0.012980601
0.010752059
0.0069306198
0.012656651
0.017454998
0.022240599
0.025596447
0.024530015
0.021095727
0.011342356
0.018504482
0.026504679
0.032101085
0.036673375
0.037488521
0.034773224
0.02044579
0.020605223
0.022042261
0.02820741
0.034067194
0.035899361
0.041432162
0.028046416
0.010919998
-0.0054635474
-0.01063747
-0.006913193
0.00026721514
0.019448121
0.02316159
-0.014902997
-0.073787572
-0.11305204
-0.12551017
-0.11636164
-0.072990135
-0.01735649
-0.075981518
-0.20710675
-0.31301636
-0.36714368
-0.36279057
-0.29022755
-0.12672944
-0.23781562
-0.47276619
-0.6805124
-0.80169537
-0.80697887
-0.71210105
-0.3714255
-0.63764637
-1.0121953
-1.3569851
-1.5735817
-1.5872919
-1.4909361
-0.88517972
-1.597389
-2.1728738
-2.6896403
-3.0244466
-3.026398
-2.9613815
-1.9591928
-3.7916469
-4.7178365
-5.4664452
-5.9439711
-5.8751121
-5.8674311
-4.2093573
-8.5071183
-10.148394
-11.276484
-11.952932
-11.695445
-11.733351
-8.8523432
-18.037295
-21.117374
-22.961649
-23.974926
-23.315356
-23.336162
-18.09916
-36.036426
-41.834748
-45.006173
-46.667367
-45.35607
-45.2518
-35.578616
-68.327897
-78.539015
-84.011065
-86.718756
-84.057229
-83.547881
-66.564875
-122.62526
-138.96204
-147.66775
-151.92869
-148.09569
-148.05235
-119.77966
-210.07547
-233.68907
-246.93232
-253.56644
-246.52018
-243.40377
-199.26052
-340.13865
-370.34156
-388.30596
-395.40532
-385.91889
-385.05405
-330.85272
-530.98158
-563.08602
-582.62385
-593.04504
-584.19967
-573.43352
-497.48022
-783.69607
-807.91633
-831.80583
-836.27066
-829.51586
-819.56826
-736.66029
-1100.0553
-1095.8501
-1136.085
-1132.1598
-1131.5167
-1120.049
-1042.0139
-1477.3845
-1429.0325
-1476.2839
-1468.4469
-1473.5326
-1467.5754
-1415.8897
-1908.9366
-1792.4618
-1851.6223
-1842.3808
-1866.6861
-1874.2456
-1872.0282
-2426.3806
-2218.9261
-2290.0213
-2288.3707
-2348.5914
-2391.893
-2452.5058
-3146.2912
-2836.6658
-2927.0685
-2958.9087
-3072.337
-3168.5155
-3265.0848
-4328.7807
-3935.3045
-4046.1058
-4104.5174
-4268.5218
-4470.5426
-4583.9059
-6382.0515
-5974.4918
-6113.9106
-6249.9853
-6510.5198
-6841.463
-6871.8962
-9683.2199
-9378.1932
-9584.4685
-9763.5014
-10106.949
-10610.22
-10576.934
-14260.215
-14308.771
-14541.295
-14801.518
-15323.761
-16146.274
-14925.952
-19846.024
-19925.313
-20453.677
-20688.792
-20792.315
-21505.212
-21536.161
-25576.373
-25278.202
-25485.671
-25589.736
-26387.383
-26312.191
-28339.616
-28261.713
-28258.093
-28400.731
-28452.689
-29273.279
-29140.303
-31705.934
-29107.869
-29094.979
-28711.711
-28412.951
-29178.146
-28358.66
-31653.269
-28418.748
-28034.546
-26865.735
-26414.051
-26604.238
-25587.647
-28869.33
-26945.235
-26463.852
-24813.823
-24403.634
-23924.66
-23076.732
-25256.68
-25165.569
-25228.458
-23787.043
-23628.78
-22586.191
-21952.375
-22593.187
-23012.041
-23401.147
-22641.333
-22847.748
-21816.645
-21585.99
-21042.534
-21347.647
-22086.217
-22204.156
-22813.839
-21972.157
-21378.23
-20010.228
-19675.632
-20306.429
-21079.393
-21583.435
-21055.252
-21147.437
-19593.449
-15292.449
-16054.57
-15873.493
-15745.104
-16526.16
-16031.259
-14639.848
-22238.054
-24672.671
-28185.632
-28297.716
-26987.559
-25328.563
-23126.228
-11198.276
-13958.385
-14914.779
-15281.636
-14869.103
-12657.773
-11494.939
-8504.9095
-10650.642
-11569.609
-11756.836
-11361.267
-9477.386
-8624.9283
640.83817
1416.8712
735.95353
411.03377
571.58163
-287.06726
97.123857
5567.8222
5185.9208
4849.2743
5747.5427
4102.1649
3922.0414
3628.2022
11475.151
14540.823
15469.963
15619.25
16670.56
13341.66
12423.037
13777.372
15163.97
16926.794
16568.371
15414.935
14597.069
12852.323
9.8634434e-05
9.8785424e-05
0.00010054698
0.00011096531
9.4356375e-05
0.00011572151
6.2497415e-05
0.00011828834
0.00011121696
0.00010375552
9.5274899e-05
9.3614005e-05
0.00010332772
9.5753035e-05
0.00017585341
0.00017069457
0.00013577806
0.00013511118
9.2104102e-05
0.00016639135
0.00013289666
0.00029750128
0.00027582159
0.00026634694
0.00026072255
0.0002665986
0.00028908357
0.00023406018
0.00042857347
0.00061206447
0.00070301098
0.00079692697
0.00078404246
0.00079261116
0.00051797233
0.0012657268
0.0014573209
0.0017218812
0.0017170495
0.0020122985
0.0019254539
0.0010705214
0.0018461839
0.0030993156
0.0039439555
0.0053593137
0.0042508434
0.0041133541
0.0024049866
0.0057629864
0.0069116076
0.0082592844
0.0082851289
0.0084557857
0.007713253
0.0046233743
0.0099963778
0.013230289
0.0151835
0.016750238
0.014724124
0.017525536
0.0076056598
0.020296825
0.023484004
0.026091016
0.029467235
0.024789366
0.030683852
0.015981421
0.036689392
0.041449123
0.044082521
0.05014399
0.041501744
0.053502744
0.027612822
0.077640122
0.078838268
0.07952087
0.083380699
0.07573665
0.077240463
0.049242263
0.13856855
0.1522821
0.14683301
0.15878757
0.12562243
0.15649607
0.1061207
0.28882114
0.29103138
0.27696891
0.31399522
0.27364994
0.28807776
0.2410593
0.58209073
0.59132444
0.63526214
0.63745078
0.6182256
0.62631542
0.40975488
1.0641065
1.2539031
1.3391681
1.4159656
1.2783836
1.4245171
0.84146032
2.1831561
2.5443256
2.7978369
2.94986
2.7409649
2.9962516
1.7146765
4.4201186
5.1119501
5.6965823
6.0230784
5.5476779
6.1477842
3.5215536
8.8013749
10.041989
11.204194
11.871441
10.821537
12.173156
7.072863
17.080147
19.178524
21.285804
22.581831
20.35518
23.191415
13.877352
32.16751
35.5295
39.078801
41.471911
37.195814
42.813348
26.564756
58.509016
63.560378
69.305767
73.385205
65.554135
75.699584
49.033217
103.35288
110.34706
119.18781
125.682
112.57304
130.72486
89.136044
174.44973
183.06603
196.47505
205.1037
185.29424
215.24298
152.97334
288.18815
297.20197
314.07285
326.88525
296.77524
339.0807
253.52991
451.27362
453.69725
479.0749
497.24359
451.83308
519.74581
414.68809
679.64955
666.61082
701.14847
723.87344
666.21657
773.60565
645.26049
966.97604
928.79893
973.83431
995.91122
924.76656
1066.9797
929.54251
1335.2686
1239.8445
1288.3182
1303.7877
1232.2421
1422.034
1307.3363
1774.4925
1585.3563
1645.6392
1649.6733
1590.5727
1833.2088
1755.8222
2365.777
2037.3088
2098.9378
2080.3181
2042.9468
2357.1352
2324.12
3292.6067
2780.5244
2857.2908
2813.8125
2809.9137
3229.5733
3183.1986
4837.5565
4183.5631
4263.5509
4176.4806
4241.5182
4725.0449
4561.9667
7383.3046
6617.2216
6724.7261
6634.7749
6700.1196
7226.4026
7209.8056
11060.162
10355.607
10525.304
10398.061
10673.639
11425.706
11196.042
15745.122
15157.053
15302.514
15232.077
15725.033
16105.063
15931.294
19693.984
20224.401
20266.513
20618.035
20674.238
20442.617
20983.647
24826.577
24310.492
24715.007
23843.363
26278.068
24089.957
27045.948
27826.121
26432.572
26740.852
26171.67
28424.065
26006.006
29527.597
30003.955
28859.8
28882.438
27587.37
29442.08
26690.565
30024.703
29790.174
28379.197
27872.224
26741.433
28132.713
26349.327
28941.996
29992.895
28435.375
28333.743
26971.418
27441.91
25897.695
27087.997
28191.277
28028.498
27945.122
26836.411
26418.871
24976.764
24968.891
24242.355
23601.932
24175.307
23339.15
23070.367
21813.811
22785.142
24028.393
25984.189
26988.13
26612.749
25888.067
24101.65
22588.709
21065.227
21689.475
22541.844
21837.409
22167.76
20842.025
18665.963
21598.793
24887.399
25925.595
26837.424
26973.815
25958.791
24010.03
0.0001338026
0.00011295335
0.00016478078
0.00024778772
0.00059319068
0.0013719988
0.0032800259
0.0072597284
0.013656572
0.02469131
0.044030215
0.073921205
0.13708699
0.27674392
0.51421347
1.0894436
2.3786893
4.9780646
10.100664
19.827686
37.636403
69.196463
122.49988
209.26061
346.0252
541.17932
814.14882
1209.7383
1688.782
2330.1865
3192.345
4378.9715
6041.8943
8148.877
10351.529
13233.57
15525.819
15981.405
17080.541
19098.834
20536.876
21738.826
21471.437
19276.136
15629.195
9627.4103
3043.6911
0.00016464237
0.00011475265
8.6127402e-05
0.0001213459
0.00046023111
0.0017024915
0.0047920179
0.011207673
0.022267714
0.038112262
0.057878042
0.078252765
0.10699406
0.16923905
0.34397851
0.79963272
1.8495819
4.017523
8.1497252
15.573042
28.387944
49.746442
84.423635
138.3602
225.36587
321.65753
489.96771
661.38257
928.51057
1228.0856
1619.6934
2163.3833
2952.0497
3958.7047
5406.5534
6944.846
8278.6121
10898.998
13335.071
15901.044
17238.012
17881.287
16978.914
14708.2
12170.505
9110.5432
3599.2885
0.00018544129
8.7435984e-05
3.1204668e-06
-2.2214452e-05
0.00032639077
0.0019719966
0.0057903534
0.012577545
0.022876608
0.035006089
0.045506284
0.048379957
0.059091576
0.04790211
0.098602739
0.34679408
1.0121485
2.4017648
4.9152369
9.0558186
15.599315
25.862234
41.960004
68.955469
107.26654
186.58525
255.69039
370.92826
555.81352
770.75562
1064.2332
1479.1227
2047.257
2829.2997
3786.2266
4569.3693
5524.3791
6052.0516
6232.7506
6387.6111
6429.5178
6651.8252
6536.0028
5488.1475
5301.358
3134.9048
-2204.9666
0.00019409807
7.4438233e-05
-3.3236747e-05
-8.9788917e-05
0.00022240876
0.0016849389
0.0050395288
0.011993351
0.022639327
0.035641368
0.045438867
0.044891854
0.012253281
-0.058696655
-0.11287334
-0.067571784
0.18223385
0.70568337
1.4372101
2.0655327
2.1180761
0.97550391
-1.5267663
-5.5502556
-7.0798698
-12.70065
-4.6163628
-0.67691556
7.0159912
0.34903033
-17.437346
-56.839462
-100.05294
-116.92041
-166.73251
-111.3448
-104.52381
-133.32615
73.136062
488.60715
1004.587
1513.8648
1626.673
1293.1071
1698.918
-97.817748
-1194.8244
0.00018724059
6.8587358e-05
-2.638556e-05
-0.00011126729
0.000231594
0.001464581
0.0049599443
0.012606258
0.024404517
0.037862499
0.04508414
0.030552139
-0.019693493
-0.13220895
-0.26781083
-0.40894929
-0.59087238
-1.0022785
-2.1755507
-5.1756778
-11.620834
-23.609126
-43.979454
-69.890831
-114.20211
-177.61035
-251.11741
-351.06564
-479.45128
-657.1355
-911.48418
-1265.8151
-1724.7752
-2313.2084
-2927.9926
-3661.96
-4426.2955
-5213.8978
-6012.1952
-6636.8204
-7138.403
-7262.3399
-7047.5906
-6659.3636
-5069.1488
-3676.1186
-2050.7977
0.00017479647
8.3208255e-05
2.8537173e-05
6.6939047e-06
0.00026653568
0.0014899978
0.0047244371
0.011180394
0.020964718
0.030514467
0.037760644
0.020096838
-0.038488385
-0.15823775
-0.3633586
-0.72334633
-1.4399037
-3.0109882
-6.5015244
-13.82305
-27.950684
-52.832234
-93.624642
-144.835
-246.13673
-335.19143
-494.43716
-688.60585
-943.1866
-1286.6847
-1772.7842
-2469.5646
-3429.3052
-4725.2557
-6199.8673
-7897.6995
-9646.4993
-11155.899
-12136.591
-12924.77
-13263.95
-13115.541
-12786.701
-11449.978
-9021.2127
-5719.0352
-2559.0614
8.9814082e-05
6.1063007e-05
8.5976411e-05
0.00014146536
0.00038221944
0.0011840788
0.0030595548
0.0062348312
0.011457801
0.015500806
0.017564529
0.021356161
0.014199697
-0.0063449912
-0.061326755
-0.21390254
-0.63912436
-1.7506004
-4.4046763
-10.180852
-21.813374
-43.115587
-80.06824
-141.89195
-208.78696
-394.13726
-613.58867
-916.99231
-1331.0633
-1894.0581
-2667.8287
-3740.2321
-5123.6876
-7079.6465
-8979.8257
-11573.352
-13727.261
-14366.529
-16429.457
-18001.296
-19665.989
-20783.638
-20705.5
-18778.144
-14788.018
-10631.046
-5210.6341
0.00010525284
9.9703949e-05
0.00011531887
0.00012744842
0.00012196244
0.0001355264
0.00010029533
7.5155437e-05
3.8175389e-05
4.315807e-06
-5.246914e-06
-1.0040857e-05
4.4328245e-05
6.018223e-05
0.00012541005
5.1198305e-05
-3.6728398e-05
-8.8518082e-05
-9.9628454e-05
-3.4601951e-05
4.4705721e-05
0.0003388978
0.00032520801
0.00022695105
0.00012223926
4.8178498e-05
5.794254e-05
0.00012747359
0.0009497166
0.0012632354
0.0013284255
0.0012131444
0.0010190086
0.00078723842
0.00052233847
0.0023145685
0.0035252593
0.004185301
0.0042655146
0.0038742357
0.0030122571
0.0017574394
0.0050238258
0.0079793483
0.0098256706
0.01046368
0.0098754471
0.0081462429
0.0046218895
0.0093372547
0.014824608
0.018920863
0.020967876
0.020266375
0.017495703
0.0098551389
0.016295128
0.02468736
0.030993345
0.034669255
0.0342474
0.030858548
0.018332994
0.025857296
0.035298847
0.043232206
0.048711305
0.049057073
0.047411706
0.030340601
0.04183318
0.048600126
0.053397806
0.059099163
0.057752128
0.061096979
0.04386371
0.066630133
0.066566
0.063862707
0.067797037
0.060732891
0.078174388
0.063779826
0.12760926
0.1203122
0.098688941
0.095287343
0.08083202
0.10257729
0.094731334
0.26293831
0.26051916
0.23528066
0.21481217
0.18753099
0.20297878
0.18306087
0.56661323
0.63325482
0.61209884
0.58771284
0.52872796
0.49445005
0.43032982
1.2387649
1.4774426
1.5434789
1.5119522
1.4417175
1.2565697
1.0247478
2.5861881
3.2072873
3.5113266
3.5025691
3.4177055
3.0134554
2.3016629
5.2073072
6.5293087
7.2932398
7.3785564
7.2592008
6.5077771
4.91584
10.113824
12.599526
14.125373
14.373141
14.230558
13.005707
9.9104722
19.027196
23.273976
25.961843
26.438551
26.312313
24.469228
19.086351
34.760474
41.577257
45.870745
46.55635
46.524967
43.86521
35.343328
61.883588
72.2128
78.62211
79.317784
79.714453
76.035126
63.489229
106.95386
122.10986
131.0974
131.40657
133.12918
127.99302
110.91243
179.78836
200.47686
212.99739
212.01165
216.34499
208.53168
186.02473
293.30097
320.80717
337.12513
333.39493
345.28925
332.89785
310.15013
458.83648
490.37652
511.95883
506.20047
527.20972
513.42001
497.95855
689.46245
736.76532
759.14256
737.97101
769.24499
746.61701
718.09823
1048.402
1070.1082
1083.02
1044.2354
1109.1925
1079.7152
1075.1189
1485.567
1471.5019
1495.2512
1433.6402
1532.9704
1492.4476
1512.2374
2093.9463
2018.0424
2028.193
1926.5432
2076.4751
2016.3546
2082.9281
2920.102
2749.2846
2740.7216
2582.4005
2792.9145
2708.7729
2837.9172
4062.2857
3786.6691
3758.1283
3531.7706
3820.4724
3681.4716
3861.478
5613.0099
5271.993
5226.5711
4899.7567
5218.7238
4997.9243
5263.9698
7688.1788
7348.3059
7268.1276
6860.3713
7296.5894
6991.7127
7306.5441
10106.115
9891.3641
9866.0132
9435.903
9810.3745
9230.1196
9588.1324
12472.204
12821.704
12762.704
12276.422
12716.555
12234.251
12143.074
15741.639
15722.564
15517.244
15277.389
15217.085
14817.973
15255.621
17376.297
17792.998
17825.283
17607.67
17866.273
17138.527
18631.394
19099.629
19930.798
19546.543
20042.153
19021.477
19267.078
19725.243
20075.292
21468.666
20905.392
21338.348
20010.383
20421.065
21328.247
20727.35
21397.977
20783.147
21659.416
20074.926
21390.376
21472.337
20961.186
22313.251
22235.244
22884.637
21262.721
21862.263
20915.06
18519.391
19686.824
19085.007
20056.007
18588.281
19836.467
19622.511
18457.202
19252.157
20272.974
20475.791
19698.599
20223.191
18631.953
15334.538
16842.548
16560.676
16822.303
16494.024
16486.12
15872.921
9100.0421
8812.8148
9684.955
9264.6473
9797.1821
9709.0886
9811.442
4301.4272
2377.4166
2391.9147
2357.1429
2314.3887
1516.1241
5015.0961
0.00010491312
0.00011029844
0.00011578442
0.00013527475
0.00013757736
0.00017279585
0.00011504205
4.6328867e-05
-2.6108745e-05
-9.3727248e-05
-0.00010787001
-0.00010257906
-1.1890489e-05
3.2022533e-05
5.0908907e-05
-0.00012564912
-0.00030287402
-0.00039795389
-0.0004138645
-0.000273217
-0.00010399459
0.00032389943
0.00017376471
-6.2799395e-05
-0.00027983541
-0.00037141734
-0.00031134206
-0.00011052492
0.0012494576
0.0015771066
0.001550633
0.0012812033
0.00095405757
0.0006126181
0.00042148951
0.0035910031
0.0053928839
0.0062239976
0.0061806005
0.0053991249
0.0040396079
0.0023796831
0.0081799138
0.013130987
0.016015821
0.01683658
0.015454213
0.012115313
0.0069981125
0.015552092
0.025514661
0.0319947
0.03465398
0.03289985
0.026833461
0.015688172
0.025035921
0.040729529
0.051814132
0.057519238
0.056306647
0.048026036
0.028713932
0.03491596
0.053326438
0.067423172
0.076340812
0.077157745
0.070215285
0.043705246
0.042131046
0.05470011
0.06516252
0.075173934
0.078570008
0.081267123
0.055302738
0.050724749
0.043153225
0.035760802
0.039518347
0.041432691
0.067050176
0.055990839
0.078035905
0.037177104
-0.0054508768
-0.020431471
-0.030934484
0.023211718
0.050475212
0.17351254
0.10706833
0.019104001
-0.027145331
-0.05962739
-0.0023513661
0.071161441
0.43179596
0.40275073
0.29792038
0.21774687
0.15259166
0.15463461
0.21748011
1.0162135
1.1821344
1.1617033
1.0773955
0.97437792
0.82701587
0.70116919
2.201263
2.8502601
3.1133732
3.1030986
2.9808899
2.5594139
1.8902556
4.4108768
5.9614551
6.8260682
7.0191739
6.9321217
6.1254193
4.3369253
8.2657247
11.260385
13.117877
13.677372
13.707499
12.508687
8.8519786
14.745099
19.757444
23.033522
24.133017
24.405792
22.957653
16.60989
25.404515
33.004532
37.960141
39.66162
40.296527
39.028012
29.406509
42.698189
53.256219
60.055073
62.355181
63.640312
63.219925
50.119533
70.612874
84.299948
92.66907
95.473829
97.951007
99.16913
83.28167
114.54283
131.12331
140.748
143.48971
147.697
151.24557
135.16358
184.14395
202.52803
211.64433
214.53636
223.66811
231.51203
222.24571
278.69758
300.30689
310.70017
310.18156
319.82755
318.22706
316.90712
452.21505
467.37905
469.65318
446.97337
487.68688
508.2621
546.36471
644.36984
589.05156
611.02798
628.88489
663.02129
669.02729
747.78243
915.64532
881.33395
883.50899
856.94287
915.57559
918.28653
1060.0423
1292.2816
1192.3604
1186.615
1146.9838
1241.5269
1212.2502
1475.3703
1804.1515
1616.4233
1598.7636
1537.5809
1678.9723
1604.1262
2024.5311
2488.8539
2184.8167
2160.4378
2062.2695
2262.6233
2114.2788
2744.9474
3408.3616
2987.9923
2929.8491
2813.8008
3100.9662
2873.2666
3759.1795
4555.4111
4013.5003
3966.0563
3830.9515
4203.0273
3900.3634
5048.7359
5875.3332
5394.7905
5330.1414
5171.8967
5682.8338
5173.7213
6609.642
7603.5199
7141.3344
6945.3088
6792.1093
7432.3147
6906.8432
8867.848
9047.2387
8666.851
8828.8463
8635.9648
9587.1599
8800.4792
10907.258
10676.478
10818.801
10888.575
10649.874
11526.107
10680.071
12494.902
12484.007
12191.94
12866.078
12394.402
13491.202
12773.26
13991.407
13840.534
14137.26
14514.654
13826.343
14899.246
14070.72
14858.354
15008.409
14415.668
15393.848
14571.522
15739.515
15363.994
14884.718
15037.254
15206.02
16073.995
14915.999
15893.728
15082.387
14012.64
14145.71
14125.377
14753.09
13710.739
14205.434
14191.668
13149.83
13580.453
14048.413
15191.694
13512.201
14409.012
13931.362
12021.368
9232.6658
11009.258
10365.677
9529.1832
10026.274
9390.7273
7882.6935
6655.3585
7548.4133
7476.1522
7055.2031
7064.2186
6852.3839
5749.0171
1426.1849
2017.7613
284.12325
75.072867
313.52381
772.33354
422.17742
0.0001142116
0.00011384671
0.00012929805
0.00015716835
0.00016494435
0.00020127011
0.00013570256
5.3224092e-06
-9.9125153e-05
-0.00018622141
-0.00020347835
-0.00018765582
-7.3809107e-05
2.9694765e-06
-4.888312e-05
-0.00032445935
-0.00056459689
-0.00067654364
-0.00068558418
-0.00049698468
-0.00022398157
0.00018797038
-0.0001322927
-0.0004864531
-0.00074467173
-0.00082776674
-0.00070196663
-0.00029594105
0.0011937799
0.0013752954
0.0012307222
0.00076528191
0.00059882765
0.00031193344
0.00024905855
0.0037309585
0.0057220051
0.0067795917
0.0067830645
0.0062116038
0.0049752698
0.0032785789
0.0087839506
0.01452342
0.018444778
0.0200034
0.019070595
0.015871676
0.010686479
0.017482126
0.029883667
0.038345228
0.042661349
0.041687676
0.035194148
0.024232526
0.029241706
0.049885658
0.063510044
0.071392758
0.071017724
0.060842636
0.043409318
0.041106451
0.066757531
0.082082597
0.092279716
0.093591596
0.081858792
0.061992528
0.047707685
0.065747897
0.071456099
0.078419521
0.081638509
0.075191562
0.065815591
0.044314467
0.031658281
0.0076519635
-0.0026892636
0.00053370049
0.013962667
0.038163423
0.042543904
-0.032472264
-0.12851227
-0.16141781
-0.16425791
-0.1014912
-0.011481204
0.060092264
-0.10407879
-0.26373527
-0.33335333
-0.35142051
-0.26157337
-0.068462193
0.19653147
0.018662493
-0.17724712
-0.31431547
-0.35784307
-0.32671925
-0.038995562
0.61435087
0.58054965
0.43829926
0.27178316
0.20901571
0.049308283
0.28477992
1.5026254
1.9272485
2.0649831
1.9588643
1.9186104
1.373202
1.2342367
3.1319935
4.4613724
5.2261856
5.3234483
5.4139077
4.2506801
3.2437097
5.7457864
8.577357
10.343605
10.799248
11.205815
9.2090478
6.8070277
9.7634292
14.55673
17.664397
18.525386
19.593405
16.608744
12.482965
15.736801
22.787011
27.292094
28.330705
30.457555
26.332824
20.894536
24.344093
33.778832
39.626301
40.268739
44.401172
39.115227
33.570965
37.043537
49.443851
56.000129
55.030063
62.107979
54.996954
52.065112
57.013301
72.771979
79.390473
75.389274
87.382644
77.89546
82.108529
86.369342
105.88386
112.64351
104.51734
123.18711
107.81937
121.70187
134.88384
163.34375
170.30852
151.50929
183.32264
168.40261
196.29146
201.33481
225.82181
242.02108
215.48771
268.9637
236.26032
289.0709
298.7524
351.79005
372.47814
318.56078
395.62823
342.59452
432.3391
452.50694
497.00094
530.45271
457.04924
569.88002
497.63842
628.92065
657.56494
707.25127
756.3895
652.76439
810.33944
701.9088
888.56069
946.07938
994.88146
1062.935
915.21538
1122.8544
975.35766
1218.1536
1351.4343
1400.3082
1500.8004
1302.4058
1564.6915
1356.2937
1657.868
1881.1562
1956.071
2079.1675
1839.2297
2130.7923
1879.2354
2216.5941
2564.2199
2703.0578
2878.4514
2597.4016
2922.1545
2570.1544
2886.7016
3414.1109
3746.491
3847.8643
3590.9227
3864.5332
3501.0481
3800.2035
4212.0762
4729.7674
4898.6215
4763.6654
5032.6138
4570.0729
4616.742
5131.2518
6150.4681
6079.5608
6061.1538
6077.1782
5533.3694
5441.2356
5776.9518
7006.1752
6784.3336
6986.1344
7061.2203
6333.5384
6448.8876
6278.4728
7853.2875
7379.8058
7645.6022
7691.0353
6709.6389
7153.4442
6502.2832
8358.9115
7336.5955
7978.6672
7737.7821
6718.7258
7539.2621
6595.3566
7463.4163
6684.1326
7317.812
7135.5088
6367.3168
7504.1136
6631.9001
8275.3378
7151.8066
7866.8546
7327.6418
6073.6726
7134.1515
5929.5118
6283.7952
5187.969
5813.9114
5260.8476
4950.3009
6693.9385
5490.4494
6633.8817
6109.7403
6533.6822
6514.7688
5747.2178
5977.5567
3724.377
3863.7111
2565.7911
2467.2418
2698.0371
1614.6994
3063.5888
2697.7472