/*--------------------------------*- C++ -*----------------------------------*\
  =========                 |
  \\      /  F ield         | OpenFOAM: The Open Source CFD Toolbox
   \\    /   O peration     | Website:  https://openfoam.org
    \\  /    A nd           | Version:  6
     \\/     M anipulation  |
\*---------------------------------------------------------------------------*/
FoamFile
{
    version     2.0;
    format      ascii;
    class       pointVectorField;
    location    "0.02";
    object      u;
}
// * * * * * * * * * * * * * * * * * * * * * * * * * * * * * * * * * * * * * //

dimensions      [0 1 0 0 0 0 0];

internalField   nonuniform List<vector> 
3969
(
(0 0 0)
(0 0 0)
(0.013988907 0.0073379322 0.00023326353)
(0.013917225 -0.0073897154 -0.00014832958)
(0 0 0)
(0 0 0)
(0.013874048 -0.0072169946 5.8547469e-05)
(0.014120822 0.007205015 -2.0707292e-05)
(0 0 0)
(0 0 0)
(0 0 0)
(0 0 0)
(0 0 0)
(0 0 0)
(0 0 0)
(0.013836864 0.0047529865 -0.00019307125)
(0.013576456 0.0029407554 -0.00017945221)
(0.01336329 0.0014031647 -0.0001550975)
(0.013307878 -3.8780113e-05 -3.6752526e-06)
(0.013352504 -0.0014607577 9.4261489e-05)
(0.013456285 -0.0030247594 0.0001981573)
(0.013743447 -0.0048083932 0.00012295561)
(8.9084295e-13 8.1107343e-13 9.199308e-13)
(1.7070234e-12 2.1340707e-12 1.7364998e-12)
(3.1029623e-12 4.5390358e-12 3.1178948e-12)
(5.480838e-12 8.7776453e-12 5.5302429e-12)
(9.5274899e-12 1.5683232e-11 9.493295e-12)
(1.6429746e-11 2.6953773e-11 1.6209145e-11)
(2.9109104e-11 4.6366466e-11 2.842615e-11)
(5.4682703e-11 8.3353324e-11 5.3782756e-11)
(1.0962065e-10 1.6211521e-10 1.0648105e-10)
(2.2725466e-10 3.3536196e-10 2.2182151e-10)
(4.6401649e-10 7.1394202e-10 4.5677173e-10)
(9.4642805e-10 1.5190582e-09 9.4456032e-10)
(1.8854794e-09 3.1838567e-09 1.8784232e-09)
(3.6018238e-09 6.582638e-09 3.7153327e-09)
(6.8848665e-09 1.3471585e-08 7.3395496e-09)
(1.3100792e-08 2.7409492e-08 1.4350522e-08)
(2.4561318e-08 5.5831724e-08 2.8301406e-08)
(4.5687622e-08 1.139543e-07 5.6503685e-08)
(8.4254329e-08 2.3215899e-07 1.1340645e-07)
(1.5288032e-07 4.6942003e-07 2.2679347e-07)
(2.7077852e-07 9.3563143e-07 4.4858425e-07)
(4.6210645e-07 1.8280245e-06 8.7089454e-07)
(7.536518e-07 3.4831684e-06 1.6542577e-06)
(1.1502851e-06 6.4544315e-06 3.0544975e-06)
(1.6282614e-06 1.1592765e-05 5.484314e-06)
(2.0501394e-06 2.0147119e-05 9.5062166e-06)
(2.1184838e-06 3.3849771e-05 1.5927907e-05)
(1.1100238e-06 5.4833703e-05 2.5723378e-05)
(-2.4515171e-06 8.57589e-05 4.0279508e-05)
(-1.1768099e-05 0.0001296722 6.1552134e-05)
(-3.2711235e-05 0.00019056272 9.2861055e-05)
(-7.4328889e-05 0.00027432317 0.0001398113)
(-0.00014626506 0.00039074706 0.00021116635)
(-0.00025474499 0.00055453423 0.00031601243)
(-0.00038870227 0.00078220675 0.00046402655)
(-0.00051861969 0.0010954013 0.00065162417)
(-0.00058648446 0.0015021899 0.00086228714)
(-0.00052000731 0.0020007225 0.0010700631)
(-0.00025376864 0.00258125 0.0012245431)
(0.00027793913 0.0032162116 0.001327812)
(0.0010798527 0.0039066622 0.0013374272)
(0.0021702054 0.004590392 0.0012881363)
(0.0035142166 0.0052501828 0.0012137495)
(0.0050956282 0.0058912681 0.0010445137)
(0.0068646386 0.0063811026 0.00097080284)
(0.0088433637 0.0069013794 0.00082045915)
(0.010966738 0.0072485764 0.0006834694)
(-7.9958262e-13 7.0854433e-13 8.9822594e-13)
(-1.5463186e-12 1.7552071e-12 1.6283641e-12)
(-2.9650171e-12 3.7924108e-12 2.9782843e-12)
(-5.411338e-12 7.7000628e-12 5.3854698e-12)
(-9.3400843e-12 1.4683033e-11 9.3562935e-12)
(-1.5513701e-11 2.6694424e-11 1.5509594e-11)
(-2.5173863e-11 4.7580162e-11 2.5757729e-11)
(-4.2077342e-11 8.3885343e-11 4.437839e-11)
(-7.5346507e-11 1.496554e-10 8.1271878e-11)
(-1.4696644e-10 2.7122704e-10 1.5283041e-10)
(-2.963777e-10 4.9627324e-10 2.8979907e-10)
(-5.8718774e-10 8.9102947e-10 5.2753979e-10)
(-1.0521282e-09 1.4980024e-09 8.5317664e-10)
(-1.7122939e-09 2.2638607e-09 1.1364313e-09)
(-2.387061e-09 2.697913e-09 9.0426261e-10)
(-2.4540707e-09 1.1759314e-09 -1.1491432e-09)
(-3.1034236e-10 -6.690366e-09 -8.1574825e-09)
(7.6099702e-09 -3.1476463e-08 -2.7069247e-08)
(2.8584141e-08 -9.6794342e-08 -7.2451022e-08)
(7.6446944e-08 -2.5231163e-07 -1.7330001e-07)
(1.7593278e-07 -5.9693052e-07 -3.8488197e-07)
(3.6765021e-07 -1.3178865e-06 -8.0689234e-07)
(7.1097952e-07 -2.7495193e-06 -1.6122875e-06)
(1.2824682e-06 -5.4786955e-06 -3.0809087e-06)
(2.1407277e-06 -1.043119e-05 -5.6530483e-06)
(3.281752e-06 -1.9019624e-05 -9.9619089e-06)
(4.4626463e-06 -3.3247326e-05 -1.6846899e-05)
(5.1856427e-06 -5.5467729e-05 -2.7311408e-05)
(4.1499427e-06 -8.8755623e-05 -4.2650212e-05)
(-1.1425181e-06 -0.00013658225 -6.4460355e-05)
(-1.5270734e-05 -0.00020295018 -9.5042722e-05)
(-4.5661621e-05 -0.0002930515 -0.0001382731)
(-0.00010258594 -0.00041469939 -0.00020073198)
(-0.00019617049 -0.00057978726 -0.00029260469)
(-0.00032862664 -0.00080492232 -0.00042569139)
(-0.00048155377 -0.0011083556 -0.0006087267)
(-0.0006073404 -0.0015087981 -0.00083655)
(-0.00061512205 -0.001997734 -0.0010823301)
(-0.0004101468 -0.0025672045 -0.0012957367)
(7.9851048e-05 -0.0031934108 -0.0014328189)
(0.00088782155 -0.0038470295 -0.0014648311)
(0.0020031582 -0.0045063535 -0.0013882567)
(0.0033824296 -0.0051458003 -0.0012465481)
(0.0050003632 -0.0057496264 -0.0010704336)
(0.006796361 -0.0062939955 -0.00088748899)
(0.0088303888 -0.0067315143 -0.00073825984)
(0.011038556 -0.007162532 -0.00049619986)
(0 0 0)
(0 0 0)
(0 0 0)
(0 0 0)
(0 0 0)
(0 0 0)
(0 0 0)
(-1.0793588e-12 7.7249318e-13 -1.129874e-12)
(-1.9271251e-12 2.100764e-12 -2.0214941e-12)
(-3.5208503e-12 4.5801141e-12 -3.5766945e-12)
(-6.2539973e-12 9.1978647e-12 -5.993428e-12)
(-9.8829833e-12 1.734235e-11 -1.0492829e-11)
(-1.5758506e-11 2.9658942e-11 -1.4728774e-11)
(-2.4280689e-11 5.0760396e-11 -2.5443092e-11)
(-4.4394155e-11 8.6125995e-11 -3.7610193e-11)
(-7.7020834e-11 1.5443913e-10 -8.0393248e-11)
(-1.6607882e-10 2.7495517e-10 -1.5751578e-10)
(-3.3414549e-10 5.1291194e-10 -3.2099068e-10)
(-6.5209904e-10 9.3865338e-10 -6.1025018e-10)
(-1.1476809e-09 1.5968229e-09 -1.0039074e-09)
(-1.7215452e-09 2.3688662e-09 -1.2859165e-09)
(-2.0037878e-09 2.5627971e-09 -7.5703066e-10)
(-9.841018e-10 -1.7719159e-13 2.3756023e-09)
(3.6030958e-09 -1.0974825e-08 1.2158942e-08)
(1.6397733e-08 -4.3537661e-08 3.710541e-08)
(4.6321141e-08 -1.2617245e-07 9.4221687e-08)
(1.0955714e-07 -3.1671419e-07 2.1597862e-07)
(2.3353465e-07 -7.2604558e-07 4.6150335e-07)
(4.6097755e-07 -1.5541965e-06 9.3322998e-07)
(8.5092591e-07 -3.1410081e-06 1.8005139e-06)
(1.4683995e-06 -6.0321012e-06 3.3158827e-06)
(2.3773154e-06 -1.1021448e-05 5.8646461e-06)
(3.5884335e-06 -1.9263313e-05 9.9188025e-06)
(4.8429345e-06 -3.2418107e-05 1.6284261e-05)
(5.2132388e-06 -5.2666513e-05 2.5873993e-05)
(3.4887007e-06 -8.2316013e-05 3.9880632e-05)
(-2.7386129e-06 -0.00012416699 5.9809111e-05)
(-1.7429226e-05 -0.00018163772 8.7947868e-05)
(-4.6817627e-05 -0.00025954239 0.00012826713)
(-9.9917656e-05 -0.00036571701 0.00018779152)
(-0.00018669633 -0.00051259011 0.00027801018)
(-0.00031390243 -0.00072241935 0.00041082269)
(-0.00046491608 -0.0010024021 0.00059384092)
(-0.0006170209 -0.0014411385 0.00082822779)
(-0.00062252091 -0.0019252715 0.0010753194)
(-0.0004315815 -0.0025430135 0.0012783784)
(8.2249617e-05 -0.0032111609 0.0013852487)
(0.00093561571 -0.0038852262 0.0013779912)
(0.0020911001 -0.0045289426 0.0012802571)
(0.0034831376 -0.0051307001 0.0011383508)
(0.0050783857 -0.0056938395 0.00098829101)
(0.0068520334 -0.006216567 0.00083575651)
(0.0088600927 -0.0066587046 0.00067878675)
(0.011050351 -0.0071496371 0.00044078727)
(0.013838054 -0.0047139607 -0.00018392363)
(0.01350396 -0.0029749844 -0.00024496537)
(0.013387317 -0.001438525 -0.0001150109)
(0.013454882 -0.00010802157 -1.6296479e-05)
(0.013420379 0.0013238688 0.0002158785)
(0.013655732 0.0028223349 0.00028017917)
(0.014025155 0.0045929266 0.0003131649)
(0.011214437 0.0071794185 -0.00048301257)
(0.0089405698 0.006674167 -0.00066427886)
(0.0069141412 0.0062631882 -0.00088149851)
(0.0051303295 0.0057452994 -0.0010167231)
(0.0035322067 0.0051790951 -0.001171602)
(0.002158785 0.0045523682 -0.0012893765)
(0.0010362246 0.0038874787 -0.0013650178)
(0.0002012354 0.003206511 -0.0013629266)
(-0.00033254202 0.0025402066 -0.0012664854)
(-0.00058171579 0.001936416 -0.0010905195)
(-0.00061643113 0.0014513894 -0.0008619758)
(-0.00051086138 0.0010227651 -0.00061772499)
(-0.00035799706 0.00073556295 -0.00043465928)
(-0.00022655622 0.00052577283 -0.00029511769)
(-0.00012701927 0.00037856676 -0.00019967151)
(-6.4011843e-05 0.00027170418 -0.00013695583)
(-2.8353679e-05 0.00019250066 -9.469736e-05)
(-1.0051055e-05 0.00013311053 -6.5114527e-05)
(-1.5363746e-06 8.9177876e-05 -4.3878731e-05)
(1.7922041e-06 5.7615882e-05 -2.8669276e-05)
(2.6074051e-06 3.5867152e-05 -1.8129797e-05)
(2.3608405e-06 2.1446049e-05 -1.0998175e-05)
(1.8062474e-06 1.2373138e-05 -6.435325e-06)
(1.2152646e-06 6.8896853e-06 -3.6292384e-06)
(7.5898955e-07 3.7051983e-06 -1.9772729e-06)
(4.447223e-07 1.9321145e-06 -1.040779e-06)
(2.4977582e-07 9.8168215e-07 -5.3270832e-07)
(1.3658583e-07 4.8893175e-07 -2.6637218e-07)
(7.3805338e-08 2.4063265e-07 -1.3129907e-07)
(3.9977126e-08 1.1794816e-07 -6.4458381e-08)
(2.1865753e-08 5.7975951e-08 -3.1839193e-08)
(1.1983875e-08 2.8711093e-08 -1.589447e-08)
(6.7550537e-09 1.4812791e-08 -8.2204541e-09)
(3.7345764e-09 7.0694353e-09 -3.7601039e-09)
(1.9207778e-09 3.3766663e-09 -1.8637117e-09)
(1.0065548e-09 1.6251902e-09 -9.6332886e-10)
(4.6710869e-10 7.9036822e-10 -4.5715021e-10)
(2.1816365e-10 3.8383385e-10 -2.1387059e-10)
(1.0229995e-10 1.9647439e-10 -1.0363022e-10)
(5.1281757e-11 1.0065859e-10 -4.3140769e-11)
(2.8633318e-11 5.6263771e-11 -2.5224378e-11)
(1.6949331e-11 3.3068437e-11 -1.6618817e-11)
(1.0490331e-11 1.8464563e-11 -9.4355634e-12)
(6.4204198e-12 1.0101142e-11 -6.0415006e-12)
(3.663736e-12 5.4786176e-12 -3.4690029e-12)
(2.0327073e-12 2.4586999e-12 -1.732503e-12)
(1.1530776e-12 9.502954e-13 -9.3391961e-13)
(0 0 0)
(0 0 0)
(0 0 0)
(0 0 0)
(0 0 0)
(0 0 0)
(0 0 0)
(0 0 0)
(0 0 0)
(0 0 0)
(0 0 0)
(0 0 0)
(0 0 0)
(0 0 0)
(0.014039472 -0.0075853614 -0.00019055915)
(0.014148495 -0.0076696752 -0.00016748688)
(0.014198 -0.0076873215 -0.0001131403)
(0.014224571 -0.0077079222 -3.1706622e-05)
(0.014206683 -0.0076887474 3.4648449e-05)
(0.014143132 -0.0076030011 9.1951065e-05)
(0.01407414 -0.0075517588 7.2927581e-05)
(0.014200803 0.0076025734 0.00022765182)
(0.014263009 0.0075941756 0.00023447523)
(0.014306497 0.0075967146 0.00016234991)
(0.014345225 0.0075959295 9.1768967e-05)
(0.014357258 0.0075975076 3.0598039e-05)
(0.014344856 0.0075367124 -3.0428214e-05)
(0.014336776 0.0075564874 -2.681036e-05)
(-1.8212948e-06 -3.638997e-05 1.1758372e-12)
(-3.6114267e-06 -7.2157298e-05 1.906586e-12)
(-5.3397658e-06 -0.00010668999 3.1013525e-12)
(-6.9767394e-06 -0.00013939719 5.1184612e-12)
(-8.494338e-06 -0.00016971926 8.8269392e-12)
(-9.866594e-06 -0.00019713738 1.6263213e-11)
(-1.1070026e-05 -0.00022118242 3.2412961e-11)
(-1.2084037e-05 -0.00024144295 6.7646222e-11)
(-1.2891267e-05 -0.00025757227 1.4218482e-10)
(-1.3477884e-05 -0.00026929437 2.9061675e-10)
(-1.3833812e-05 -0.00027640857 5.7571081e-10)
(-1.39529e-05 -0.00027879297 1.0944174e-09)
(-1.3833021e-05 -0.00027640641 2.0343192e-09)
(-1.347609e-05 -0.000269289 3.7719934e-09)
(-1.2888026e-05 -0.00025756108 7.0829027e-09)
(-1.2078632e-05 -0.00024142029 1.358701e-08)
(-1.1061531e-05 -0.00022113655 2.6716683e-08)
(-9.8541975e-06 -0.0001970441 5.3463748e-08)
(-8.4782585e-06 -0.00016952949 1.0748194e-07)
(-6.9609323e-06 -0.0001390132 2.1428518e-07)
(-5.3384009e-06 -0.00010592229 4.2056044e-07)
(-3.6635813e-06 -7.0648927e-05 8.0757671e-07)
(-2.0210532e-06 -3.3491453e-05 1.5128087e-06)
(-5.5208532e-07 5.4307803e-06 2.7570103e-06)
(5.0068312e-07 4.6271759e-05 4.8795031e-06)
(7.6903969e-07 8.9637403e-05 8.3501168e-06)
(-3.980328e-07 0.00013666887 1.3867752e-05)
(-4.0603258e-06 0.00018917548 2.2309303e-05)
(-1.2069381e-05 0.00024983431 3.4741963e-05)
(-2.7957423e-05 0.00032244288 5.285543e-05)
(-5.805806e-05 0.00041204018 7.917525e-05)
(-0.00011190222 0.00052515657 0.00011783057)
(-0.00020056118 0.00066987154 0.00017438212)
(-0.00032969609 0.00085422422 0.00025587847)
(-0.0004904117 0.0010849248 0.00036684222)
(-0.0006505566 0.0013642613 0.00050370707)
(-0.00074806439 0.0016837484 0.00066068188)
(-0.0007106823 0.0020379367 0.00080577533)
(-0.00046628555 0.0024089787 0.00091897884)
(3.8765739e-05 0.0027920656 0.0009888955)
(0.00082983782 0.0031962266 0.0009856331)
(0.0019214958 0.0035846161 0.00096424152)
(0.003256422 0.0039936278 0.00087495983)
(0.0048798646 0.0043538283 0.00077595669)
(0.0066763872 0.0046146584 0.00069040287)
(0.0086997992 0.0048771298 0.00048586995)
(0.010998199 0.0047720001 0.00029693509)
(-2.5757002e-06 -5.146319e-05 1.6109336e-12)
(-5.1073295e-06 -0.00010204583 2.4704683e-12)
(-7.5515707e-06 -0.00015088244 3.6580738e-12)
(-9.8666021e-06 -0.0001971374 5.4791727e-12)
(-1.2012813e-05 -0.00024001929 8.7569951e-12)
(-1.395348e-05 -0.00027879437 1.6113888e-11)
(-1.5655397e-05 -0.0003127992 3.4241887e-11)
(-1.7089441e-05 -0.00034145192 7.7636841e-11)
(-1.8231069e-05 -0.00036426225 1.7269247e-10)
(-1.9060735e-05 -0.00038083985 3.6228276e-10)
(-1.9564225e-05 -0.00039090098 7.088411e-10)
(-1.9732897e-05 -0.0003942733 1.2998976e-09)
(-1.9563855e-05 -0.00039089883 2.266645e-09)
(-1.9060043e-05 -0.00038083473 3.8407755e-09)
(-1.8230261e-05 -0.0003642521 6.5711264e-09)
(-1.7089243e-05 -0.00034143247 1.1662246e-08)
(-1.565794e-05 -0.00031276176 2.1727925e-08)
(-1.3964259e-05 -0.00027872144 4.2094052e-08)
(-1.2044841e-05 -0.00023987592 8.3180001e-08)
(-9.9491395e-06 -0.00019685495 1.6389737e-07)
(-7.7472464e-06 -0.00015032936 3.183554e-07)
(-5.545072e-06 -0.00010097543 6.0331958e-07)
(-3.5084289e-06 -4.9428131e-05 1.1151105e-06)
(-1.9066714e-06 3.7878368e-06 2.0038638e-06)
(-1.1636615e-06 5.8339826e-05 3.5035741e-06)
(-1.9566351e-06 0.00011421685 5.9349889e-06)
(-5.294037e-06 0.0001718562 9.7860913e-06)
(-1.2669635e-05 0.0002323857 1.5620162e-05)
(-2.6600192e-05 0.00029759322 2.4256124e-05)
(-5.1262892e-05 0.00037035119 3.6823245e-05)
(-9.3415963e-05 0.00045462717 5.5032366e-05)
(-0.00016273024 0.00055530881 8.1291134e-05)
(-0.00026932979 0.00067771397 0.00011916345)
(-0.00041756132 0.00082637355 0.00017193641)
(-0.0005962031 0.0010033559 0.0002425601)
(-0.00076793139 0.0012063707 0.00033033621)
(-0.00087189043 0.0014269705 0.0004281569)
(-0.00083370101 0.0016545706 0.00052215815)
(-0.0005816367 0.0018781258 0.00059488367)
(-7.2748277e-05 0.0020945248 0.00064139658)
(0.00072603895 0.0023110876 0.00063908623)
(0.0018037857 0.0025153449 0.00062536906)
(0.0031459721 0.0027364642 0.00056073359)
(0.0047711595 0.0028929162 0.00051739929)
(0.0066033304 0.0030279695 0.00041897926)
(0.00870723 0.0030668886 0.00029494838)
(0.011092617 0.0029759342 0.00011722016)
(-1.8212951e-06 -3.638997e-05 1.9381163e-12)
(-3.6114275e-06 -7.2157297e-05 2.9332647e-12)
(-5.3397671e-06 -0.00010668999 4.1747716e-12)
(-6.9767417e-06 -0.00013939719 5.8311134e-12)
(-8.4943419e-06 -0.00016971926 8.572032e-12)
(-9.8666012e-06 -0.00019713738 1.5053514e-11)
(-1.1070039e-05 -0.00022118242 3.2906455e-11)
(-1.2084064e-05 -0.00024144294 7.8910323e-11)
(-1.2891322e-05 -0.00025757225 1.840062e-10)
(-1.3478e-05 -0.00026929431 3.9607906e-10)
(-1.3834059e-05 -0.00027640848 7.7761964e-10)
(-1.3953418e-05 -0.00027879287 1.3952707e-09)
(-1.383408e-05 -0.00027640645 2.3103359e-09)
(-1.3478236e-05 -0.00026928965 3.5962436e-09)
(-1.2892403e-05 -0.00025756356 5.4558317e-09)
(-1.2087654e-05 -0.00024142751 8.4548972e-09)
(-1.1080213e-05 -0.00022115505 1.3974073e-08)
(-9.8928461e-06 -0.00019708815 2.4971365e-08)
(-8.5577575e-06 -0.00016962924 4.7545467e-08)
(-7.1230018e-06 -0.00013923087 9.1823908e-08)
(-5.6630648e-06 -0.00010638138 1.7664093e-07)
(-4.2997157e-06 -7.158415e-05 3.3156965e-07)
(-3.2325109e-06 -3.5336252e-05 6.0760628e-07)
(-2.7921292e-06 1.911322e-06 1.0818637e-06)
(-3.5136861e-06 3.9797993e-05 1.8715448e-06)
(-6.228278e-06 7.8119961e-05 3.1537865e-06)
(-1.2193745e-05 0.00011691212 5.1716092e-06)
(-2.3313104e-05 0.00015656113 8.2486225e-06)
(-4.2506032e-05 0.00019791975 1.2794218e-05)
(-7.4388675e-05 0.00024242308 1.9461922e-05)
(-0.0001260872 0.0002920922 2.9078856e-05)
(-0.00020718253 0.00034938284 4.2935561e-05)
(-0.00032739624 0.00041719445 6.2438868e-05)
(-0.00049007989 0.00049770205 8.9090465e-05)
(-0.00068158802 0.00059306968 0.00012512193)
(-0.00086413037 0.00070261524 0.00016830296)
(-0.00097365712 0.00082211353 0.00022010177)
(-0.00093366781 0.00094770375 0.00027052574)
(-0.00067512517 0.0010644258 0.00031611732)
(-0.00015687436 0.0011713844 0.00034323353)
(0.00064826429 0.0012646048 0.00034282318)
(0.0017262373 0.0013366129 0.00033773527)
(0.003092355 0.0014153553 0.00028966293)
(0.004719822 0.0014453171 0.00025798164)
(0.006609388 0.0014932687 0.0001794205)
(0.0087521892 0.0014870352 0.00010446357)
(0.011114035 0.0014117884 1.1202336e-05)
(-1.5131864e-14 1.2178036e-12 2.0621282e-12)
(-2.0031953e-14 2.7974845e-12 3.1613601e-12)
(-3.0847085e-14 5.1284532e-12 4.4889648e-12)
(-4.7242794e-14 8.6487484e-12 6.1453065e-12)
(-5.4935134e-14 1.4292345e-11 8.567036e-12)
(5.0071258e-14 2.4424462e-11 1.4264645e-11)
(1.5796011e-13 4.5684345e-11 3.0832392e-11)
(-4.1829024e-13 9.1842534e-11 7.5945306e-11)
(-3.5560666e-12 1.9109403e-10 1.8095281e-10)
(-1.4018546e-11 3.9257131e-10 3.9404102e-10)
(-4.4055642e-11 7.7285267e-10 7.7152384e-10)
(-1.2611367e-10 1.4398376e-09 1.3564413e-09)
(-3.4237965e-10 2.5404847e-09 2.1405968e-09)
(-9.0259318e-10 4.2669268e-09 3.0479509e-09)
(-2.3025629e-09 6.8472896e-09 3.9094313e-09)
(-5.7208369e-09 1.0561595e-08 4.523491e-09)
(-1.3822168e-08 1.5776332e-08 4.7406236e-09)
(-3.2483603e-08 2.2750281e-08 4.5387438e-09)
(-7.4201307e-08 3.1313942e-08 4.3967884e-09)
(-1.6544582e-07 3.9460382e-08 2.8620936e-09)
(-3.5771087e-07 4.3021283e-08 5.3461028e-09)
(-7.5556754e-07 3.4159745e-08 1.8733729e-09)
(-1.5342918e-06 -1.0550648e-08 -1.4137689e-08)
(-3.0147713e-06 -1.1927639e-07 -5.2220757e-08)
(-5.7200068e-06 -3.4432327e-07 -1.2591753e-07)
(-1.0493714e-05 -7.6419996e-07 -2.5021012e-07)
(-1.8640041e-05 -1.4819152e-06 -4.3213101e-07)
(-3.2123717e-05 -2.5991686e-06 -6.7870473e-07)
(-5.3953872e-05 -4.2235749e-06 -9.5806956e-07)
(-8.8851039e-05 -6.4611035e-06 -1.2143121e-06)
(-0.00014394192 -9.5034009e-06 -1.3627729e-06)
(-0.00022881451 -1.3625644e-05 -1.3230869e-06)
(-0.00035316076 -1.8868589e-05 -1.2619516e-06)
(-0.0005203763 -2.492908e-05 -1.2875981e-06)
(-0.00071754906 -2.9018458e-05 -1.5077286e-06)
(-0.00090636774 -2.875546e-05 -2.5736898e-06)
(-0.0010208307 -1.8526274e-05 1.3741752e-07)
(-0.0009840195 2.143743e-06 -1.2318425e-06)
(-0.0007213473 2.7781619e-05 5.6974986e-07)
(-0.00019285033 5.818044e-05 9.1384571e-07)
(0.00062611638 6.8397654e-05 2.3990979e-06)
(0.0017218811 7.6026527e-05 1.7739609e-06)
(0.0031025465 7.2411692e-05 -1.6560646e-05)
(0.0047215351 4.3765663e-05 1.4077589e-06)
(0.0066045848 4.6087252e-05 -1.8346945e-05)
(0.0087412912 -8.7323588e-06 1.7991386e-05)
(0.011091263 -3.8316964e-05 6.0202194e-06)
(1.8212952e-06 3.6389972e-05 1.8984814e-12)
(3.6114275e-06 7.2157302e-05 2.9828362e-12)
(5.3397672e-06 0.00010669 4.3055559e-12)
(6.9767418e-06 0.00013939721 5.9274252e-12)
(8.4943421e-06 0.00016971929 8.2063245e-12)
(9.8666014e-06 0.00019713743 1.3189894e-11)
(1.1070039e-05 0.00022118251 2.7831626e-11)
(1.2084063e-05 0.00024144312 6.7553629e-11)
(1.2891319e-05 0.00025757262 1.6144841e-10)
(1.3477982e-05 0.00026929507 3.5219933e-10)
(1.3833996e-05 0.00027640997 6.9109607e-10)
(1.3953224e-05 0.00027879566 1.204005e-09)
(1.383353e-05 0.00027641142 1.8430192e-09)
(1.3476743e-05 0.00026929809 2.414386e-09)
(1.2888474e-05 0.0002575773 2.4860404e-09)
(1.2077678e-05 0.00024144911 1.2495505e-09)
(1.1055739e-05 0.00022118805 -2.7155775e-09)
(9.8347262e-06 0.00019713709 -1.1980081e-08)
(8.4240011e-06 0.00016969904 -3.1259546e-08)
(6.8239281e-06 0.00013932368 -7.1414472e-08)
(5.0155594e-06 0.00010648765 -1.4238449e-07)
(2.9336501e-06 7.1683519e-05 -3.1528585e-07)
(4.167879e-07 3.5373028e-05 -6.0109189e-07)
(-2.7698323e-06 -2.0571884e-06 -1.1258484e-06)
(-7.0951163e-06 -4.0335744e-05 -2.0268345e-06)
(-1.3274621e-05 -7.9377394e-05 -3.4942105e-06)
(-2.2474562e-05 -0.00011938444 -5.7896652e-06)
(-3.6482295e-05 -0.00016085765 -9.2391804e-06)
(-5.8056741e-05 -0.00020473249 -1.4258029e-05)
(-9.1573645e-05 -0.00025245396 -2.1366376e-05)
(-0.00014381656 -0.00030612804 -3.133416e-05)
(-0.00022431191 -0.00036854465 -4.5270968e-05)
(-0.00034344468 -0.00044269155 -6.4832453e-05)
(-0.00050653364 -0.00053037493 -9.2152094e-05)
(-0.00070418844 -0.00063058889 -0.00012805527)
(-0.00090037172 -0.0007378209 -0.00017240144)
(-0.0010312642 -0.00084154392 -0.00021904418)
(-0.0010161495 -0.0009369916 -0.00026792984)
(-0.00076578319 -0.0010099025 -0.00028694536)
(-0.00023961586 -0.001078635 -0.00030509272)
(0.00057205881 -0.0011449013 -0.00028895121)
(0.0016758659 -0.001203672 -0.00028164406)
(0.0030625208 -0.0012885966 -0.00024221143)
(0.0046903628 -0.0013599132 -0.00020962313)
(0.0066012235 -0.0014221771 -0.00017842743)
(0.0087695557 -0.0014694785 -0.00011358225)
(0.011103409 -0.0014494175 -4.2817603e-05)
(2.5757002e-06 5.1463191e-05 1.5556445e-12)
(5.1073296e-06 0.00010204583 2.5641711e-12)
(7.5515709e-06 0.00015088244 3.9094283e-12)
(9.8666023e-06 0.00019713742 5.667411e-12)
(1.2012813e-05 0.00024001931 8.131773e-12)
(1.395348e-05 0.00027879442 1.2797652e-11)
(1.5655397e-05 0.00031279929 2.5013047e-11)
(1.7089441e-05 0.00034145209 5.7140626e-11)
(1.8231068e-05 0.00036426259 1.330025e-10)
(1.9060731e-05 0.00038084054 2.8663599e-10)
(1.9564211e-05 0.00039090233 5.64358e-10)
(1.9732836e-05 0.00039427588 9.7437614e-10)
(1.9563624e-05 0.0003909035 1.4598179e-09)
(1.9059301e-05 0.00038084286 1.7852542e-09)
(1.8228154e-05 0.00036426578 1.3717704e-09)
(1.7083687e-05 0.00034145477 -9.9298259e-10)
(1.5643927e-05 0.0003127972 -7.7254073e-09)
(1.3930131e-05 0.00027877628 -2.3609522e-08)
(1.1964374e-05 0.00023995799 -5.8072825e-08)
(9.7656206e-06 0.00019697158 -1.2991157e-07)
(7.3414604e-06 0.00015048123 -2.7238317e-07)
(4.686824e-06 0.00010114482 -5.6486425e-07)
(1.7558766e-06 4.9660167e-05 -1.0563032e-06)
(-1.6649503e-06 -3.6883903e-06 -2.0129855e-06)
(-5.8082991e-06 -5.8575291e-05 -3.6778019e-06)
(-1.1170921e-05 -0.00011510355 -6.4096914e-06)
(-1.8607338e-05 -0.00017381317 -1.0684368e-05)
(-2.9465549e-05 -0.00023592081 -1.7168682e-05)
(-4.6009532e-05 -0.00030325418 -2.6630698e-05)
(-7.1990849e-05 -0.00037855704 -4.0060693e-05)
(-0.00011358536 -0.00046565686 -5.8834171e-05)
(-0.00018002013 -0.00056959141 -8.5015175e-05)
(-0.00028243793 -0.00069603376 -0.0001217062)
(-0.00042897018 -0.00084971576 -0.00017281575)
(-0.0006143201 -0.001031777 -0.00024147695)
(-0.0008078048 -0.0012347321 -0.00032900775)
(-0.00094545966 -0.0014491067 -0.00042968376)
(-0.00094260694 -0.0016586214 -0.00052752686)
(-0.00071588913 -0.0018620343 -0.00061695475)
(-0.00020756572 -0.0020547293 -0.00066154315)
(0.00060733873 -0.0022388421 -0.00066744992)
(0.0017242431 -0.0024302786 -0.00064443005)
(0.003108533 -0.0026421828 -0.00056825359)
(0.0047559631 -0.0028012738 -0.00051198273)
(0.0066264364 -0.002969222 -0.00039645372)
(0.0087424676 -0.0030310372 -0.00026903756)
(0.011044838 -0.0029915521 -6.8630939e-05)
(1.8212948e-06 3.6389972e-05 1.167566e-12)
(3.6114268e-06 7.2157301e-05 2.0755619e-12)
(5.3397659e-06 0.00010669 3.4586223e-12)
(6.9767395e-06 0.00013939721 5.570322e-12)
(8.4943383e-06 0.00016971929 8.6576857e-12)
(9.8665957e-06 0.00019713743 1.3678392e-11)
(1.1070031e-05 0.00022118251 2.3864133e-11)
(1.208405e-05 0.00024144311 4.7308157e-11)
(1.2891295e-05 0.00025757258 1.0027734e-10)
(1.3477934e-05 0.00026929499 2.0989266e-10)
(1.383389e-05 0.00027640981 4.1620823e-10)
(1.3953021e-05 0.00027879535 7.4289019e-10)
(1.3833197e-05 0.00027641086 1.1238045e-09)
(1.3476363e-05 0.00026929705 1.3620419e-09)
(1.288849e-05 0.00025757512 8.5738572e-10)
(1.2079465e-05 0.00024144405 -1.7949756e-09)
(1.1062844e-05 0.00022117563 -9.6545114e-09)
(9.8553937e-06 0.00019710662 -2.9143733e-08)
(8.4763266e-06 0.00016962642 -7.3290751e-08)
(6.9459606e-06 0.00013915786 -1.6793037e-07)
(5.2830637e-06 0.00010612752 -3.6170471e-07)
(3.5044034e-06 7.0919969e-05 -7.4488227e-07)
(1.5975514e-06 3.3823632e-05 -1.4605902e-06)
(-4.7353904e-07 -5.1197254e-06 -2.7710515e-06)
(-2.8256159e-06 -4.6171575e-05 -5.0272303e-06)
(-5.7566538e-06 -9.0045735e-05 -8.7904178e-06)
(-9.7238618e-06 -0.00013793067 -1.4662474e-05)
(-1.5583057e-05 -0.00019178454 -2.3603086e-05)
(-2.4972137e-05 -0.00025428557 -3.6656083e-05)
(-4.0825717e-05 -0.00032902973 -5.5222293e-05)
(-6.8342439e-05 -0.00042088027 -8.1338164e-05)
(-0.00011598646 -0.00053649229 -0.00011824977)
(-0.00019527839 -0.00068460302 -0.00017102196)
(-0.00031699058 -0.00087503404 -0.00024648302)
(-0.00048213892 -0.0011155971 -0.00035052878)
(-0.00066792123 -0.0014051726 -0.00048745165)
(-0.00081870548 -0.001734322 -0.00064436003)
(-0.00084626241 -0.0020823014 -0.00080096227)
(-0.00064850405 -0.0024338083 -0.00093039742)
(-0.00016129581 -0.0027818 -0.0010037233)
(0.0006469327 -0.0031260641 -0.0010122864)
(0.0017682508 -0.0034826111 -0.00096120545)
(0.0031534462 -0.0038450489 -0.00086088875)
(0.0048034802 -0.0041717965 -0.00076415216)
(0.0066312834 -0.0044936365 -0.00060339918)
(0.0087126971 -0.0046715355 -0.00047849574)
(0.010975881 -0.0047322497 -0.00023581971)
(0 0 0)
(0 0 0)
(0 0 0)
(0 0 0)
(0 0 0)
(0 0 0)
(0 0 0)
(0 0 0)
(0 0 0)
(0 0 0)
(0 0 0)
(0 0 0)
(0 0 0)
(0 0 0)
(0 0 0)
(0 0 0)
(0 0 0)
(0 0 0)
(0 0 0)
(0 0 0)
(0 0 0)
(0 0 0)
(0 0 0)
(0 0 0)
(0 0 0)
(0 0 0)
(0 0 0)
(0 0 0)
(0 0 0)
(0 0 0)
(0 0 0)
(0 0 0)
(0 0 0)
(0 0 0)
(0 0 0)
(0 0 0)
(0 0 0)
(0 0 0)
(0 0 0)
(0 0 0)
(0 0 0)
(0 0 0)
(0 0 0)
(0 0 0)
(0 0 0)
(0 0 0)
(0 0 0)
(0 0 0)
(0 0 0)
(-1.1138312e-12 5.7981397e-13 5.7331917e-13)
(-1.6042168e-12 7.984724e-13 4.6285198e-13)
(-2.0027313e-12 1.0146051e-12 2.8685387e-13)
(-2.1921354e-12 1.1230461e-12 3.32852e-14)
(-2.0398683e-12 1.0212942e-12 -2.5637825e-13)
(-1.6814328e-12 8.3502649e-13 -4.8372417e-13)
(-1.2136958e-12 6.7235106e-13 -6.4181993e-13)
(-1.9282353e-12 1.6517898e-12 1.1954882e-12)
(-2.7967628e-12 2.1289082e-12 9.5984332e-13)
(-3.397449e-12 2.5944802e-12 5.3644589e-13)
(-3.5736969e-12 2.792544e-12 3.3021646e-14)
(-3.4486303e-12 2.6423308e-12 -4.5818904e-13)
(-2.9189429e-12 2.2367663e-12 -9.0294439e-13)
(-2.2205016e-12 1.8788304e-12 -1.2753687e-12)
(-3.3770209e-12 3.4756642e-12 2.2084001e-12)
(-4.3905435e-12 4.1758819e-12 1.6882051e-12)
(-5.2113869e-12 4.9005244e-12 9.6049557e-13)
(-5.5666582e-12 5.2158833e-12 5.0376773e-14)
(-5.3408389e-12 4.980405e-12 -8.6919361e-13)
(-4.6525561e-12 4.3030024e-12 -1.6685542e-12)
(-3.611611e-12 3.8234971e-12 -2.2573055e-12)
(-5.3421156e-12 6.4620531e-12 3.7169157e-12)
(-6.3575811e-12 7.2739592e-12 2.9389269e-12)
(-7.1259665e-12 8.198886e-12 1.81892e-12)
(-7.4916739e-12 8.6181062e-12 3.5957199e-13)
(-7.3001605e-12 8.2849283e-12 -1.2100182e-12)
(-6.6721073e-12 7.4855677e-12 -2.6364189e-12)
(-5.9308669e-12 7.0869977e-12 -3.9385162e-12)
(-8.5187413e-12 1.1883272e-11 6.1808891e-12)
(-8.6894381e-12 1.2316592e-11 4.4686477e-12)
(-8.7811425e-12 1.3107293e-11 2.5673491e-12)
(-8.7950758e-12 1.343281e-11 2.5147888e-13)
(-8.5407237e-12 1.298317e-11 -2.1377622e-12)
(-8.5045859e-12 1.230549e-11 -4.3215709e-12)
(-8.768819e-12 1.2620349e-11 -6.2329586e-12)
(-1.3215262e-11 2.164946e-11 9.5269348e-12)
(-1.1264767e-11 2.0821345e-11 6.2390648e-12)
(-9.9181774e-12 2.1045721e-11 3.2947534e-12)
(-9.179657e-12 2.10435e-11 5.8321191e-14)
(-9.2401642e-12 2.0485835e-11 -3.2090719e-12)
(-1.017153e-11 1.9815261e-11 -6.0035865e-12)
(-1.2398749e-11 2.210121e-11 -9.3030028e-12)
(-2.183248e-11 3.9161785e-11 1.4460988e-11)
(-1.9318491e-11 3.7140291e-11 8.8269947e-12)
(-1.565964e-11 3.6319947e-11 4.0587533e-12)
(-1.3359702e-11 3.5937919e-11 -3.0229039e-13)
(-1.3107015e-11 3.560241e-11 -4.6998239e-12)
(-1.5846824e-11 3.5276781e-11 -8.5511043e-12)
(-2.0181634e-11 3.8933301e-11 -1.3449464e-11)
(-4.4204695e-11 7.3697937e-11 2.3932301e-11)
(-4.2265524e-11 7.1361139e-11 1.2762014e-11)
(-3.6344705e-11 6.992007e-11 4.6836424e-12)
(-3.6163628e-11 6.9917849e-11 -1.8285887e-12)
(-3.4779291e-11 6.8601347e-11 -7.9146412e-12)
(-3.5942915e-11 6.8361983e-11 -1.3353874e-11)
(-3.9201586e-11 7.1910478e-11 -2.1230295e-11)
(-8.8527463e-11 1.3818457e-10 4.4489634e-11)
(-1.0539575e-10 1.4121282e-10 2.4827279e-11)
(-1.1905765e-10 1.4621837e-10 9.4494274e-12)
(-1.1278622e-10 1.4605561e-10 -3.9228253e-12)
(-1.0682599e-10 1.424949e-10 -1.428295e-11)
(-9.9181219e-11 1.3723644e-10 -2.5406177e-11)
(-8.5692009e-11 1.3371926e-10 -3.8680614e-11)
(-2.0310142e-10 2.6353275e-10 9.1167185e-11)
(-2.5692082e-10 2.8084846e-10 5.1732368e-11)
(-2.8633695e-10 2.9800029e-10 2.0499491e-11)
(-2.9916547e-10 3.0177372e-10 -4.98656e-12)
(-2.8528901e-10 2.934919e-10 -2.8856528e-11)
(-2.5219571e-10 2.7535307e-10 -5.4478033e-11)
(-1.9544327e-10 2.5545055e-10 -8.3058116e-11)
(-4.0153048e-10 4.8511151e-10 1.855181e-10)
(-5.3163496e-10 5.2486726e-10 1.1654677e-10)
(-6.2357297e-10 5.6393246e-10 5.4722088e-11)
(-6.601294e-10 5.8032779e-10 -2.7661534e-12)
(-6.3001243e-10 5.6342708e-10 -5.8823307e-11)
(-5.4602389e-10 5.1656102e-10 -1.2157197e-10)
(-4.0194592e-10 4.7217519e-10 -1.8130408e-10)
(-7.4439188e-10 8.4969276e-10 3.5246522e-10)
(-9.7296504e-10 9.0745389e-10 2.301655e-10)
(-1.1433628e-09 9.6812558e-10 1.136797e-10)
(-1.2166034e-09 9.9214525e-10 -2.3389915e-12)
(-1.1646931e-09 9.6609964e-10 -1.1575402e-10)
(-1.0095206e-09 8.9788954e-10 -2.4006158e-10)
(-7.6031959e-10 8.4727203e-10 -3.6411596e-10)
(-1.1846852e-09 1.3323485e-09 5.8754268e-10)
(-1.4678782e-09 1.338841e-09 3.9725762e-10)
(-1.7061408e-09 1.3930483e-09 2.1114063e-10)
(-1.8233893e-09 1.4249524e-09 1.5343103e-11)
(-1.7578652e-09 1.4044341e-09 -1.8631596e-10)
(-1.5655178e-09 1.3534023e-09 -4.0976475e-10)
(-1.2545121e-09 1.3699677e-09 -6.3355415e-10)
(-1.5771928e-09 1.8030044e-09 7.9819501e-10)
(-1.6972898e-09 1.553778e-09 5.473654e-10)
(-1.8676443e-09 1.4579573e-09 3.0788568e-10)