/*--------------------------------*- C++ -*----------------------------------*\
  =========                 |
  \\      /  F ield         | OpenFOAM: The Open Source CFD Toolbox
   \\    /   O peration     | Website:  https://openfoam.org
    \\  /    A nd           | Version:  6
     \\/     M anipulation  |
\*---------------------------------------------------------------------------*/
FoamFile
{
    version     2.0;
    format      ascii;
    class       pointVectorField;
    location    "1.16";
    object      lm;
}
// * * * * * * * * * * * * * * * * * * * * * * * * * * * * * * * * * * * * * //

dimensions      [1 -2 -1 0 0 0 0];

internalField   nonuniform List<vector> 
3969
(
(0 0 0)
(0 0 0)
(-4411.901 1562.3697 138.59356)
(-3894.2927 2407.4017 140.01665)
(0 0 0)
(0 0 0)
(-3946.1187 2307.6146 139.86716)
(-4463.4752 1462.7492 138.34848)
(0 0 0)
(0 0 0)
(0 0 0)
(0 0 0)
(0 0 0)
(0 0 0)
(0 0 0)
(-4345.831 1668.5373 139.00028)
(-4280.7029 1774.4516 139.79045)
(-4216.1963 1880.0525 139.98524)
(-4152.0565 1985.7935 140.18388)
(-4088.1092 2091.3862 140.14319)
(-4024.0099 2197.0711 140.19601)
(-3959.4687 2302.6641 140.10815)
(-46.487709 -64.892578 -61.061841)
(-89.608375 -109.59644 -64.709068)
(-149.79157 -149.0046 -63.65865)
(-221.98393 -180.988 -57.452246)
(-302.90542 -205.38719 -50.616782)
(-391.75063 -221.37157 -42.902489)
(-484.36846 -229.14197 -36.622856)
(-580.63852 -229.21835 -30.153611)
(-676.87737 -221.99696 -25.774795)
(-773.32997 -209.09919 -21.250199)
(-868.09775 -191.00886 -18.435544)
(-961.16754 -169.14617 -15.844794)
(-1051.9015 -144.07101 -14.364071)
(-1140.6478 -117.02938 -13.024348)
(-1227.487 -88.296225 -12.19562)
(-1312.9543 -58.984082 -11.613773)
(-1397.5685 -28.756944 -11.175771)
(-1481.7943 1.7426079 -10.943848)
(-1566.1681 32.763855 -10.810616)
(-1651.1567 64.28419 -10.816472)
(-1737.0362 96.545763 -11.018135)
(-1824.1148 129.7634 -11.435278)
(-1912.4022 164.18072 -12.169928)
(-2001.969 200.11626 -13.234223)
(-2092.736 237.60536 -14.68283)
(-2184.5242 277.12659 -16.519443)
(-2277.2159 318.60825 -18.610981)
(-2370.6123 362.1154 -20.970288)
(-2464.6192 407.7553 -23.334812)
(-2559.2195 455.43467 -25.524806)
(-2654.3588 505.18117 -27.260602)
(-2750.1356 556.8683 -28.224803)
(-2846.6509 610.47915 -28.18069)
(-2944.053 665.91675 -26.823392)
(-3042.5585 722.98668 -23.796837)
(-3142.0812 781.82343 -19.280051)
(-3243.1806 842.13696 -12.730786)
(-3345.4143 903.8428 -4.2298979)
(-3449.1041 966.92471 5.8111579)
(-3554.0394 1031.0414 17.660189)
(-3660.0398 1096.277 30.75674)
(-3767.0727 1162.3775 45.234586)
(-3874.5388 1228.7365 60.431468)
(-3982.7308 1296.1261 76.250706)
(-4090.5388 1362.7624 92.288064)
(-4198.3972 1429.8444 108.10808)
(-4305.9008 1496.4577 123.76035)
(-11.368282 78.294359 97.699852)
(-61.944563 113.49773 86.399597)
(-115.69208 161.99795 92.257714)
(-179.81742 197.34965 72.894685)
(-253.96536 239.34954 60.996598)
(-332.82275 277.54597 43.407001)
(-414.86838 312.82956 29.012875)
(-498.71324 346.91016 14.963833)
(-583.19792 378.62989 2.7367351)
(-667.27005 409.71579 -7.3876198)
(-749.184 438.34709 -15.310297)
(-829.84355 467.47494 -21.579032)
(-907.94541 495.65707 -25.41666)
(-984.34211 524.2626 -27.830348)
(-1058.44 553.304 -28.443193)
(-1131.2521 583.20162 -28.046744)
(-1202.7815 614.56295 -26.557559)
(-1273.6689 647.03043 -24.702754)
(-1344.5912 681.81841 -22.606957)
(-1415.7104 718.1278 -20.637931)
(-1487.7731 756.85304 -19.098422)
(-1560.9426 797.67917 -18.138825)
(-1635.4517 840.77022 -17.891278)
(-1711.469 886.13864 -18.4783)
(-1788.9999 933.73618 -19.659998)
(-1867.8867 983.54271 -21.361994)
(-1948.212 1035.4784 -23.556407)
(-2029.6171 1089.5942 -25.853825)
(-2112.1128 1145.7817 -27.915662)
(-2195.4995 1203.8718 -29.537318)
(-2279.5782 1263.8814 -30.319853)
(-2364.3765 1325.6257 -30.016545)
(-2449.9025 1389.0896 -28.384377)
(-2536.2254 1454.0621 -25.225177)
(-2623.5331 1520.4604 -20.422368)
(-2711.9692 1588.058 -14.049352)
(-2801.6373 1656.5824 -5.8152615)
(-2892.9469 1725.9135 3.6980952)
(-2985.9375 1795.7532 14.746429)
(-3080.6658 1865.8492 26.871216)
(-3177.2968 1935.8744 40.010164)
(-3275.7578 2005.7126 53.796439)
(-3375.9873 2074.9128 68.133661)
(-3477.756 2143.428 82.674451)
(-3580.911 2210.919 97.339456)
(-3684.9927 2277.4513 111.86515)
(-3789.7427 2342.7923 126.12243)
(0 0 0)
(0 0 0)
(0 0 0)
(0 0 0)
(0 0 0)
(0 0 0)
(0 0 0)
(-39.525384 55.852894 -78.97847)
(-67.860211 149.9957 -98.871627)
(-112.61589 153.10625 -93.738111)
(-175.93512 217.85833 -89.8411)
(-246.85079 251.79778 -83.190918)
(-319.72672 289.39927 -72.319583)
(-400.62474 328.67883 -66.869001)
(-478.90615 357.33384 -59.632311)
(-561.23757 391.87294 -56.216313)
(-640.76888 415.95036 -52.254865)
(-720.83222 446.33487 -51.373199)
(-800.81052 469.43492 -48.966813)
(-876.6689 496.47353 -50.121482)
(-952.05472 521.47503 -50.297739)
(-1025.6592 548.21014 -51.506583)
(-1097.7629 576.05617 -52.728945)
(-1169.4178 605.52488 -54.005245)
(-1240.1164 637.09458 -55.283664)
(-1311.003 671.0885 -56.483449)
(-1382.0129 707.28871 -57.535926)
(-1453.7375 746.17046 -58.564489)
(-1526.3345 787.26381 -59.545622)
(-1600.1192 830.7456 -60.573518)
(-1675.2246 876.14504 -61.701815)
(-1751.6386 923.54029 -62.942759)
(-1829.9703 972.67195 -64.106935)
(-1909.341 1022.7674 -65.565561)
(-1990.2604 1074.1747 -67.072564)
(-2072.7719 1126.5438 -68.310136)
(-2156.8989 1179.8366 -69.095605)
(-2242.6804 1234.0915 -69.172393)
(-2330.1993 1289.3038 -68.211342)
(-2419.4868 1345.5348 -65.954146)
(-2510.6949 1402.9937 -62.100611)
(-2603.7618 1461.6407 -56.447602)
(-2699.0424 1521.7716 -48.934008)
(-2796.0744 1582.7856 -39.192947)
(-2894.8841 1646.0829 -27.790997)
(-2995.8467 1709.9788 -14.390942)
(-3098.2777 1775.2417 0.63079087)
(-3202.344 1841.4145 16.991267)
(-3307.4956 1908.2897 34.382539)
(-3413.7148 1975.5076 52.457069)
(-3520.425 2042.8375 70.803376)
(-3627.458 2109.8702 89.042355)
(-3734.3271 2176.4564 106.80757)
(-3840.5056 2242.072 123.63833)
(-4011.5697 2201.647 140.18073)
(-4076.2613 2095.3065 140.24177)
(-4140.204 1989.348 140.11053)
(-4204.3002 1883.9971 139.47575)
(-4268.4378 1778.69 139.02236)
(-4333.019 1673.5292 138.42207)
(-4397.8977 1568.176 138.37536)
(-4357.991 1397.3777 123.4794)
(-4251.1651 1331.2616 108.41268)
(-4143.138 1265.8313 93.743121)
(-4034.3395 1201.2271 79.253103)
(-3924.8397 1137.488 65.225891)
(-3814.8759 1075.1189 51.786659)
(-3704.7276 1014.2203 39.120771)
(-3594.6773 954.90625 27.405559)
(-3484.9525 897.32793 16.755185)
(-3375.6591 841.26395 7.492439)
(-3267.1711 786.6618 -0.16644699)
(-3159.7414 733.69997 -6.748968)
(-3052.8822 682.13517 -11.314595)
(-2947.4157 631.59493 -14.523482)
(-2842.9845 582.03557 -16.099581)
(-2739.8064 533.56804 -16.388786)
(-2637.9025 486.01997 -15.539633)
(-2537.2989 439.50283 -13.829165)
(-2438.0905 394.03847 -11.542177)
(-2340.3357 349.84443 -9.0167024)
(-2244.145 306.96014 -6.5335268)
(-2149.6208 265.64188 -4.3923862)
(-2056.8621 225.88903 -2.8102024)
(-1965.8855 187.86393 -1.9612525)
(-1876.7203 151.5057 -1.8690568)
(-1789.3674 116.8166 -2.6457348)
(-1703.6356 83.681957 -4.1849363)
(-1619.3289 51.905931 -6.3106473)
(-1536.0503 21.368672 -8.8949583)
(-1453.4937 -8.1591984 -11.605193)
(-1370.9179 -36.728848 -14.245867)
(-1288.0686 -64.431556 -16.328034)
(-1204.1049 -91.387966 -17.693369)
(-1118.5012 -117.16512 -18.089341)
(-1031.1241 -140.88707 -17.422372)
(-941.38725 -162.93447 -14.913582)
(-849.6722 -182.25295 -10.766492)
(-755.46573 -198.08419 -5.4441044)
(-660.68454 -209.61251 2.2082556)
(-565.18622 -215.03442 9.983254)
(-471.10202 -214.82252 19.9679)
(-378.22167 -206.76083 30.307393)
(-292.83585 -191.58354 40.621471)
(-211.55266 -168.61457 50.859032)
(-143.76747 -138.84697 57.066981)
(-83.620725 -98.22883 60.709341)
(-59.173097 -60.992037 45.634691)
(0 0 0)
(0 0 0)
(0 0 0)
(0 0 0)
(0 0 0)
(0 0 0)
(0 0 0)
(0 0 0)
(0 0 0)
(0 0 0)
(0 0 0)
(0 0 0)
(0 0 0)
(0 0 0)
(-3899.9856 2395.1435 139.99284)
(-3906.1963 2383.2186 139.76195)
(-3912.5604 2371.6536 139.27094)
(-3918.9231 2360.0047 138.9999)
(-3925.4056 2347.9999 138.97189)
(-3932.0998 2335.3379 139.20158)
(-3938.6734 2321.8234 139.80422)
(-4419.2501 1550.2236 138.4513)
(-4426.1648 1537.7631 138.18901)
(-4432.7237 1525.5273 137.99642)
(-4438.9053 1513.3385 138.03432)
(-4444.9896 1500.9613 138.15041)
(-4450.9671 1488.5042 138.25872)
(-4457.1425 1475.9193 138.48512)
(-26.458989 -35.976264 -53.199726)
(-73.322034 -66.610094 -43.942406)
(-131.78584 -96.353656 -46.399836)
(-203.87406 -119.78575 -41.747293)
(-284.21703 -136.32927 -37.116287)
(-373.5167 -146.94401 -32.627249)
(-466.09023 -150.18178 -27.882995)
(-561.96302 -147.74876 -24.874006)
(-658.43563 -138.85441 -21.26912)
(-754.49453 -125.59318 -19.279816)
(-848.95608 -107.55452 -17.387782)
(-941.27617 -86.403028 -16.032092)
(-1031.4555 -62.532214 -15.029984)
(-1119.305 -36.620369 -14.158836)
(-1205.1085 -9.1896908 -13.731514)
(-1289.2205 19.449558 -13.218225)
(-1372.3823 48.97086 -12.91003)
(-1454.9332 79.259953 -12.609766)
(-1537.5614 110.35073 -12.390136)
(-1620.6565 142.32 -12.315249)
(-1704.6342 175.3014 -12.388104)
(-1789.74 209.4787 -12.697311)
(-1876.1278 245.11161 -13.302603)
(-1963.8244 282.29664 -14.246344)
(-2052.752 321.3061 -15.5584)
(-2142.7866 362.15957 -17.202204)
(-2233.878 405.00812 -19.167707)
(-2325.7361 449.93536 -21.227653)
(-2418.2975 496.83692 -23.292012)
(-2511.4788 545.87049 -25.114371)
(-2605.2413 596.89895 -26.436928)
(-2699.6111 649.91672 -27.001283)
(-2794.7299 704.88065 -26.546376)
(-2890.6827 761.62508 -24.700617)
(-2987.6583 820.2092 -21.490572)
(-3085.8041 880.36526 -16.501498)
(-3185.2477 942.07777 -9.8932299)
(-3286.0986 1005.2228 -1.3554202)
(-3388.3789 1069.5235 8.6985975)
(-3492.0239 1134.8755 20.345424)
(-3596.8722 1201.1818 33.232397)
(-3702.926 1267.9345 47.381705)
(-3809.6714 1335.2678 62.146411)
(-3917.3072 1402.6425 77.653078)
(-4024.7606 1469.6481 93.248727)
(-4132.6563 1536.6861 108.77305)
(-4239.6381 1602.8358 124.17828)
(-12.413413 -23.121142 -34.837854)
(-56.597654 -38.127068 -27.608438)
(-117.0079 -61.897369 -30.967968)
(-187.83852 -74.198647 -27.401994)
(-270.31567 -84.619974 -25.557697)
(-358.40064 -88.947283 -22.520264)
(-450.82052 -87.286718 -21.451633)
(-546.83088 -80.434583 -19.027353)
(-642.3476 -68.407217 -18.516198)
(-737.85055 -52.68711 -17.488162)
(-831.21444 -32.746604 -16.98069)
(-922.82958 -10.704345 -16.504039)
(-1011.6773 14.27176 -16.259142)
(-1098.0286 40.763917 -16.059203)
(-1182.3935 68.763742 -15.731725)
(-1265.1464 97.664335 -15.31264)
(-1346.7405 127.55806 -14.868336)
(-1427.7352 158.2674 -14.378965)
(-1508.6703 189.8669 -13.95782)
(-1590.0619 222.50174 -13.650493)
(-1672.2436 256.22117 -13.508156)
(-1755.6106 291.34225 -13.671787)
(-1840.2159 327.91926 -14.1681)
(-1926.193 366.20255 -15.014703)
(-2013.4849 406.27166 -16.236985)
(-2102.0131 448.31244 -17.752885)
(-2191.528 492.32147 -19.566724)
(-2281.9223 538.45042 -21.538407)
(-2373.0883 586.68249 -23.338701)
(-2464.8999 636.99972 -24.939709)
(-2557.28 689.35506 -25.967099)
(-2650.3347 743.74205 -26.21818)
(-2744.0839 800.01872 -25.348543)
(-2838.6847 858.19164 -23.271455)
(-2934.2968 918.07699 -19.65639)
(-3031.0785 979.54542 -14.44671)
(-3129.1429 1042.5758 -7.6090704)
(-3228.7144 1106.8167 0.99495793)
(-3329.6714 1172.2936 11.070479)
(-3432.1509 1238.5492 22.655572)
(-3535.8564 1305.6798 35.428733)
(-3640.9765 1373.1178 49.308109)
(-3746.8206 1440.8923 63.836556)
(-3853.7011 1508.5276 79.007914)
(-3960.5629 1575.8351 94.233403)
(-4067.8889 1642.8491 109.59375)
(-4174.5546 1709.2516 124.73761)
(-2.2931208 -11.66536 -17.894743)
(-47.203038 -21.1041 -12.367728)
(-104.19063 -31.972571 -13.719295)
(-177.27341 -37.365965 -12.023767)
(-258.15293 -39.52899 -11.661563)
(-346.92879 -36.435915 -12.048343)
(-439.85099 -28.267109 -11.370511)
(-534.44314 -16.342107 -13.079306)
(-629.51709 -0.24317928 -13.628609)
(-723.74192 19.107689 -14.660012)
(-816.09957 40.98196 -15.586575)
(-906.18294 65.211545 -16.217421)
(-993.52049 91.291247 -16.894859)
(-1078.6597 118.63378 -16.90347)
(-1161.6117 147.08815 -16.921454)
(-1242.6574 176.64224 -16.637295)
(-1322.5264 207.03161 -16.234432)
(-1401.7117 238.28836 -15.761016)
(-1480.8369 270.55483 -15.248038)
(-1560.3745 303.82464 -14.850837)
(-1640.7918 338.34896 -14.627551)
(-1722.2963 374.29976 -14.716259)
(-1805.1414 411.87151 -15.107335)
(-1889.4015 451.19283 -15.837567)
(-1974.9625 492.46193 -17.006127)
(-2061.8315 535.73818 -18.489117)
(-2149.7129 581.13035 -20.238772)
(-2238.6037 628.6205 -22.007487)
(-2328.285 678.19632 -23.707653)
(-2418.6046 729.87009 -25.117914)
(-2509.6068 783.58363 -25.914393)
(-2601.2569 839.28763 -25.883068)
(-2693.632 896.87207 -24.803459)
(-2786.8703 956.29886 -22.4179)
(-2881.1286 1017.3264 -18.562472)
(-2976.551 1079.9858 -13.154579)
(-3073.3409 1143.9625 -6.1158678)
(-3171.5439 1209.2384 2.5507981)
(-3271.3095 1275.4503 12.668536)
(-3372.576 1342.4429 24.269553)
(-3475.2686 1410.1729 36.873987)
(-3579.3648 1477.9726 50.699394)
(-3684.3863 1546.2208 64.944504)
(-3790.5261 1614.019 80.020203)
(-3896.8253 1681.6786 94.986935)
(-4003.7716 1748.7984 110.25367)
(-4110.1797 1815.1512 125.18362)
(1.385267 0.5554401 1.1054789)
(-40.68967 -0.61938651 7.4389466)
(-97.934874 -3.2852655 5.9641385)
(-168.33961 -0.42665093 4.2813318)
(-249.93604 6.8076749 1.2557573)
(-338.06419 15.749537 -0.93841835)
(-428.92925 30.993037 -5.48095)
(-522.8579 47.396535 -8.1384518)
(-616.28139 68.092962 -11.102947)
(-709.54249 90.140183 -13.92567)
(-800.27439 114.97643 -15.74195)
(-889.10823 141.02501 -17.556353)
(-974.94346 168.49259 -18.513996)
(-1058.5358 197.0303 -19.107685)
(-1139.7236 226.3165 -19.258433)
(-1219.2789 256.54525 -19.010941)
(-1297.506 287.43124 -18.473978)
(-1375.1199 319.21548 -17.754139)
(-1452.5456 351.96952 -16.962464)
(-1530.5005 385.81428 -16.285657)
(-1609.1825 421.07485 -15.782684)
(-1689.1358 457.96581 -15.651448)
(-1770.3654 496.53149 -15.800589)
(-1852.9865 536.91676 -16.478697)
(-1937.0695 579.31747 -17.533869)
(-2022.336 623.80709 -18.957296)
(-2108.7929 670.39576 -20.608402)
(-2196.175 719.17136 -22.379482)
(-2284.3932 770.06062 -24.022935)
(-2373.2928 823.08158 -25.316127)
(-2462.8944 878.11389 -25.966987)
(-2553.1252 935.14413 -25.802034)
(-2644.1252 993.99005 -24.489268)
(-2735.9936 1054.6251 -21.88509)
(-2828.8755 1116.8428 -17.806522)
(-2922.9805 1180.5009 -12.161242)
(-3018.3908 1245.5399 -4.9530531)
(-3115.3813 1311.5341 3.864932)
(-3213.8719 1378.4966 14.14665)
(-3314.069 1446.2865 25.693075)
(-3415.5981 1514.4571 38.39062)
(-3518.7409 1582.9146 52.030458)
(-3622.8443 1651.4375 66.235813)
(-3728.2112 1719.5981 81.07799)
(-3833.8986 1787.4313 95.877786)
(-3940.2426 1854.5366 110.89059)
(-4046.3213 1920.9736 125.57562)
(7.0831075 11.34113 18.242708)
(-38.726194 12.870186 26.0672)
(-92.70837 20.098058 22.957783)
(-165.02239 32.325621 20.321306)
(-245.77486 46.664664 15.826666)
(-332.83744 64.909711 9.5377201)
(-423.2593 85.663288 4.3200345)
(-516.04043 108.3998 -0.95906138)
(-608.26128 133.27231 -5.930491)
(-699.668 159.52215 -10.275132)
(-788.57294 187.48008 -13.888296)
(-875.57306 215.69164 -16.830952)
(-959.3953 245.30376 -18.675665)
(-1041.1377 274.99182 -20.00956)
(-1120.3227 305.57363 -20.476283)
(-1197.8462 336.55598 -20.495733)
(-1274.1225 368.32529 -19.914991)
(-1349.7411 400.69588 -19.150963)
(-1425.3641 434.21885 -18.237154)
(-1501.4128 468.76418 -17.407161)
(-1578.4062 504.8423 -16.798556)
(-1656.3976 542.45799 -16.601213)
(-1735.8633 581.70833 -16.770249)
(-1816.9238 623.08668 -17.393426)
(-1899.2776 666.57817 -18.48682)
(-1983.0832 712.22753 -19.913604)
(-2068.0191 760.07057 -21.588408)
(-2153.9819 810.12065 -23.33881)
(-2240.7912 862.33616 -24.910302)
(-2328.3323 916.68539 -26.132154)
(-2416.5768 973.07132 -26.663752)
(-2505.4275 1031.4308 -26.338035)
(-2595.0959 1091.5551 -24.812323)
(-2685.5625 1153.4813 -22.025462)
(-2777.0869 1216.8216 -17.706487)
(-2869.8063 1281.6517 -11.853544)
(-2963.909 1347.6353 -4.4563655)
(-3059.5333 1414.5609 4.5942366)
(-3156.8572 1482.4445 14.900849)
(-3255.6745 1550.8652 26.552219)
(-3356.1323 1619.5738 39.193017)
(-3458.1601 1688.3634 52.850214)
(-3561.3984 1757.0849 66.931147)
(-3665.9045 1825.3395 81.718966)
(-3770.956 1893.195 96.308878)
(-3876.7863 1960.2928 111.27607)
(-3982.5813 2026.647 125.77603)
(6.3037878 27.553475 43.806418)
(-40.844573 37.885494 45.498861)
(-94.822269 56.681365 44.883915)
(-166.26141 76.925486 39.029718)
(-245.34463 100.89615 30.126618)
(-330.26499 125.20709 21.192765)
(-418.85964 152.38232 12.550024)
(-509.28053 179.40448 3.8959347)
(-599.26898 208.23468 -3.1462695)
(-688.57245 236.89816 -9.7240374)
(-775.81116 266.64238 -14.656063)
(-860.50731 296.09312 -18.472229)
(-942.5491 326.27022 -21.094118)
(-1022.2396 356.43517 -22.720405)
(-1099.6396 387.21938 -23.244281)
(-1175.4878 418.31345 -23.105266)
(-1250.0109 450.24722 -22.284539)
(-1324.0778 482.92422 -21.196879)
(-1397.9619 516.86476 -19.880324)
(-1472.4402 552.01575 -18.74569)
(-1547.6725 588.77386 -17.725046)
(-1624.3715 627.32337 -17.382571)
(-1702.3334 667.83934 -17.080663)
(-1781.6054 710.46454 -17.72666)
(-1862.4496 755.32255 -18.73754)
(-1944.6373 802.23842 -20.19193)
(-2028.067 851.44294 -21.986723)
(-2112.5132 902.88486 -23.827131)
(-2197.8657 956.44357 -25.523575)
(-2283.9506 1012.111 -26.805144)
(-2370.7473 1069.7658 -27.383283)
(-2458.1984 1129.3114 -27.031318)
(-2546.4538 1190.6041 -25.437648)
(-2635.4762 1253.5409 -22.546245)
(-2725.6278 1317.8717 -18.022211)
(-2816.9439 1383.5772 -12.040307)
(-2909.6017 1450.3216 -4.3835215)
(-3003.9093 1518.0274 4.7290025)
(-3099.6901 1586.4042 15.223581)
(-3197.3426 1655.3143 26.940353)
(-3296.6965 1724.3436 39.812456)
(-3397.6485 1793.5177 53.37279)
(-3499.9594 1862.3461 67.596776)
(-3603.6066 1930.9174 82.178752)
(-3708.0927 1998.7671 96.850135)
(-3813.3023 2065.9512 111.64424)
(-3918.7743 2132.1974 126.02256)
(3.5183158 46.652416 59.953471)
(-45.309253 58.940885 65.098092)
(-99.610917 91.302521 65.302055)
(-170.87692 120.82148 55.713888)
(-247.59954 152.52192 44.259812)
(-331.17796 185.08623 32.622621)
(-417.46691 218.02455 20.740744)
(-505.35798 250.10052 10.037908)
(-593.13409 282.80015 0.67976782)
(-679.94257 313.68037 -7.6100953)
(-764.7217 346.1246 -14.159386)
(-847.12867 376.22242 -18.856119)
(-926.98584 407.57436 -22.430058)
(-1004.511 438.04095 -24.334897)
(-1080.1129 469.22743 -25.238813)
(-1153.8662 500.55766 -25.052854)
(-1226.6535 532.73442 -24.214459)
(-1298.7301 565.7999 -22.849032)
(-1370.9323 600.08425 -21.387038)
(-1443.5615 635.86713 -19.925971)
(-1517.2103 673.31574 -18.816625)
(-1592.0515 712.71815 -18.187905)
(-1668.4531 754.23351 -18.032978)
(-1746.2146 797.83432 -18.590381)
(-1825.5792 843.74748 -19.697183)
(-1906.2649 891.80607 -21.239987)
(-1988.2083 942.26787 -23.148138)
(-2071.3358 994.91101 -25.074959)
(-2155.3431 1049.7061 -26.870039)
(-2240.1008 1106.675 -28.196525)
(-2325.5616 1165.5935 -28.807187)
(-2411.6468 1226.4289 -28.391365)
(-2498.4994 1288.9694 -26.719522)
(-2586.103 1353.123 -23.649138)
(-2674.8478 1418.6137 -18.946902)
(-2764.6075 1485.4525 -12.759221)
(-2855.8881 1553.1839 -4.8605406)
(-2948.6239 1621.7742 4.5062503)
(-3043.1608 1690.9201 15.198769)
(-3139.3343 1760.3906 27.154657)
(-3237.433 1830.0014 40.05444)
(-3337.1853 1899.4388 53.787478)
(-3438.5437 1968.5556 68.000883)
(-3541.3023 2037.1159 82.590341)
(-3645.0983 2104.8295 97.217861)
(-3749.7338 2171.7776 111.8536)
(-3854.8001 2237.5652 126.17045)
(0 0 0)
(0 0 0)
(0 0 0)
(0 0 0)
(0 0 0)
(0 0 0)
(0 0 0)
(0 0 0)
(0 0 0)
(0 0 0)
(0 0 0)
(0 0 0)
(0 0 0)
(0 0 0)
(0 0 0)
(0 0 0)
(0 0 0)
(0 0 0)
(0 0 0)
(0 0 0)
(0 0 0)
(0 0 0)
(0 0 0)
(0 0 0)
(0 0 0)
(0 0 0)
(0 0 0)
(0 0 0)
(0 0 0)
(0 0 0)
(0 0 0)
(0 0 0)
(0 0 0)
(0 0 0)
(0 0 0)
(0 0 0)
(0 0 0)
(0 0 0)
(0 0 0)
(0 0 0)
(0 0 0)
(0 0 0)
(0 0 0)
(0 0 0)
(0 0 0)
(0 0 0)
(0 0 0)
(0 0 0)
(0 0 0)
(-44.02963 25.888277 49.963031)
(-50.927081 33.578236 32.736597)
(-59.650161 35.358118 16.509208)
(-63.146444 37.055099 2.990894)
(-61.525286 34.688598 -10.278508)
(-58.646351 36.561073 -24.387276)
(-51.898637 24.964924 -41.791716)
(-89.650484 118.72688 72.600829)
(-103.12595 134.75649 38.098847)
(-109.06725 125.42081 16.453336)
(-109.9746 121.17534 -1.5579187)
(-111.37841 128.89153 -19.468058)
(-102.6465 126.96493 -40.1749)
(-95.781101 127.76506 -71.173131)
(-134.66905 160.38486 65.282763)
(-151.12008 153.99406 45.900588)
(-161.58948 161.70091 18.159221)
(-161.80058 160.74173 -3.0331979)
(-160.52674 156.80286 -27.026018)
(-151.7322 157.57625 -43.952977)
(-139.96684 165.85108 -77.454519)
(-197.17749 212.82994 54.042712)
(-208.40814 218.38773 37.220017)
(-214.18032 216.24453 11.636854)
(-216.64391 216.66475 -5.7530986)
(-214.0091 217.3659 -26.539037)
(-206.83284 221.02004 -50.912709)
(-192.35561 216.24814 -69.073804)
(-265.5653 257.03707 44.466412)
(-275.94962 258.53128 29.149733)
(-283.67952 263.44225 8.8504952)
(-283.90026 261.58448 -10.227062)
(-281.90171 262.91029 -29.151856)
(-274.37649 261.77746 -46.459851)
(-263.99243 264.46601 -67.60131)
(-340.37175 293.79719 29.209532)
(-346.57502 296.18299 16.953434)
(-350.06125 296.64734 -0.035469045)
(-350.84692 299.13037 -13.667)
(-346.98647 297.86561 -30.498779)
(-342.08295 299.24824 -46.376584)
(-330.76342 296.47052 -60.17833)
(-419.30314 328.79282 17.935764)
(-423.7176 332.9103 6.8128812)
(-426.59095 338.65034 -6.5237799)
(-425.5493 338.51318 -18.059741)
(-423.31716 340.22608 -32.589336)
(-417.25827 340.24777 -43.833232)
(-409.54856 339.21348 -55.821948)
(-499.93299 361.36144 5.4099333)
(-502.09144 365.71399 -2.4448075)
(-502.69737 367.09699 -13.048039)
(-501.49827 368.58514 -22.420352)
(-498.64215 368.26839 -32.798479)
(-493.37887 366.0186 -43.155004)
(-486.48269 364.09536 -51.874079)
(-582.5325 391.92398 -4.3314723)
(-582.69035 395.15844 -11.575541)
(-582.02794 399.06439 -19.788971)
(-579.71065 399.86123 -26.467902)
(-576.60857 401.55766 -34.604659)
(-572.32913 400.47884 -42.435775)
(-565.98335 399.10547 -49.46313)
(-664.07477 419.38611 -13.495407)
(-662.97942 423.69192 -18.168921)
(-661.4141 425.80828 -24.611741)
(-658.99668 427.31731 -31.233176)
(-655.47198 425.96483 -37.304071)
(-651.38589 424.15178 -43.143683)
(-646.1629 422.25512 -48.143134)
(-745.59539 447.75953 -20.135)
(-743.10056 450.19782 -24.683868)
(-740.67033 452.8098 -30.023531)
(-737.23462 452.65803 -33.659651)
(-733.84217 452.85638 -38.734296)
(-729.6229 452.4324 -43.198352)
(-724.28463 449.97017 -47.268696)
(-825.07246 473.42676 -25.450883)
(-822.22314 476.02266 -29.553895)
(-818.48692 477.76942 -32.415196)
(-815.32558 478.65287 -36.911099)
(-811.44857 478.28309 -40.613579)
(-807.13682 475.67374 -44.370543)
(-803.41464 474.40313 -46.288348)
(-903.01053 501.02157 -29.06348)
(-899.36166 502.13205 -31.976586)
(-895.91126 504.02255 -35.710372)
(-892.227 503.86421 -38.723077)
(-888.33855 502.63059 -42.006316)
(-884.27758 502.3702 -44.855885)
(-880.2066 498.76557 -47.395442)
(-979.21048 527.15968 -30.964993)
(-975.51783 528.51328 -34.198092)
(-971.58582 529.79741 -36.977399)
(-967.46273 529.2838 -40.129885)
(-963.64052 529.06278 -43.070625)
(-959.32012 526.64202 -45.929608)
(-955.47681 524.38595 -48.049987)
(-1053.6889 555.47091 -31.691776)
(-1050.0645 556.2611 -34.841003)
(-1045.8737 556.76228 -37.753295)
(-1042.1063 556.82553 -41.060483)
(-1037.9862 555.03687 -43.772319)
(-1033.7468 553.75104 -46.822839)
(-1029.6472 550.50183 -49.061053)
(-1127.0633 584.24225 -31.366115)
(-1123.2463 584.61156 -34.676514)
(-1119.2574 585.51045 -37.945724)
(-1115.0893 584.57836 -41.092554)
(-1111.0053 583.43328 -44.438362)
(-1106.4094 581.44622 -47.350606)
(-1102.2854 578.43589 -50.083517)
(-1199.0211 614.81964 -30.152225)
(-1195.6126 615.54723 -33.98253)
(-1191.506 615.57369 -37.270655)
(-1187.6202 614.95406 -41.11969)
(-1183.3319 613.35921 -44.47174)
(-1178.811 611.44536 -47.86321)
(-1174.3011 608.06606 -51.077889)
(-1270.6819 647.39412 -28.663485)
(-1267.1989 647.68867 -32.618525)
(-1263.4164 647.92743 -36.658376)
(-1259.2922 647.00121 -40.570609)
(-1255.0856 645.38453 -44.496533)
(-1250.2188 643.1463 -48.231857)
(-1245.5757 639.7903 -51.911242)
(-1341.8814 681.87608 -26.811982)
(-1338.7686 682.44427 -31.36443)
(-1334.9867 682.4268 -35.607063)
(-1331.064 681.49128 -40.039177)
(-1326.6829 679.70045 -44.335381)
(-1321.8005 677.48133 -48.449518)
(-1316.8162 674.03609 -52.664921)
(-1413.5057 718.63999 -25.252275)
(-1410.3982 719.20682 -30.026646)
(-1406.8587 719.19667 -34.768215)
(-1402.8105 718.1697 -39.517975)
(-1398.4769 716.39052 -44.218035)
(-1393.3428 713.97852 -48.688154)
(-1388.2226 710.5022 -53.347556)
(-1485.6694 757.73286 -23.934249)
(-1482.7331 758.47595 -29.102952)
(-1479.1745 758.37666 -34.125239)
(-1475.286 757.3375 -39.209804)
(-1470.7505 755.44212 -44.212281)
(-1465.6385 752.98121 -48.974473)
(-1460.236 749.48944 -54.01969)
(-1558.8575 799.07377 -23.265444)
(-1555.8452 799.86123 -28.625189)
(-1552.4651 799.76397 -33.904266)
(-1548.4276 798.65745 -39.200734)
(-1543.9404 796.80292 -44.475881)
(-1538.6631 794.18756 -49.437217)
(-1533.0721 790.76429 -54.783466)
(-1633.1661 842.65787 -23.21296)
(-1630.2471 843.64853 -28.740989)
(-1626.7186 843.47611 -34.187566)
(-1622.7623 842.35315 -39.676751)
(-1618.0954 840.34002 -45.074973)
(-1612.7454 837.67105 -50.184297)
(-1607.0283 834.25712 -55.666138)
(-1708.9358 888.57868 -23.903845)
(-1705.8014 889.50098 -29.476814)
(-1702.3015 889.2104 -35.073082)
(-1698.2579 887.95522 -40.558227)
(-1693.5603 885.90618 -46.074517)
(-1688.2237 883.12736 -51.170665)
(-1682.3253 879.71035 -56.770184)
(-1786.0441 936.45716 -25.20741)
(-1782.8528 937.39232 -30.833518)
(-1779.3062 936.9275 -36.492121)
(-1775.1832 935.57778 -41.994769)
(-1770.3599 933.35404 -47.441369)
(-1764.8576 930.44598 -52.5847)
(-1758.7809 927.03349 -58.094249)
(-1864.6186 986.49352 -27.032655)
(-1861.3062 987.21197 -32.732672)
(-1857.5657 986.5077 -38.362897)
(-1853.317 984.91571 -43.903027)
(-1848.4858 982.43268 -49.162715)
(-1843.0808 979.44194 -54.266683)
(-1837.0043 976.01679 -59.383431)
(-1944.4776 1038.3463 -29.286638)
(-1941.0953 1038.7989 -34.98996)
(-1937.1711 1037.8852 -40.45738)
(-1933.1242 1036.1067 -45.931513)
(-1928.148 1033.2867 -51.156808)
(-1922.6896 1029.9052 -56.154581)
(-1916.4745 1026.1923 -61.012565)
(-2025.6865 1092.2034 -31.644759)
(-2022.1555 1092.1653 -37.369246)
(-2018.236 1090.9146 -42.758292)
(-2014.0939 1088.5576 -48.190291)
(-2009.1625 1085.4669 -53.232819)
(-2003.7509 1081.8274 -58.116073)
(-1997.472 1077.7474 -62.849409)
(-2108.075 1147.7866 -33.874096)
(-2104.4312 1147.2819 -39.594854)
(-2100.5328 1145.4597 -44.886874)
(-2096.4116 1142.7269 -50.242128)
(-2091.5239 1139.158 -55.137433)
(-2086.1685 1134.9631 -59.890322)
(-2079.9434 1130.5425 -64.389212)
(-2191.4109 1205.158 -35.584578)
(-2187.9149 1203.9181 -41.357241)
(-2184.052 1201.5755 -46.515268)
(-2180.0254 1198.2265 -51.848664)
(-2175.2424 1194.1088 -56.577028)
(-2170.0274 1189.4085 -61.209426)
(-2163.9218 1184.429 -65.510107)
(-2275.7587 1264.099 -36.52683)
(-2272.4127 1262.1444 -42.278078)
(-2268.728 1259.1106 -47.43802)
(-2264.855 1255.1457 -52.665997)
(-2260.3065 1250.4394 -57.270058)
(-2255.292 1245.109 -61.786981)
(-2249.4327 1239.4701 -65.889568)
(-2360.9656 1324.7192 -36.33187)
(-2357.9607 1321.9204 -42.135413)
(-2354.5562 1318.159 -47.215293)
(-2350.978 1313.5168 -52.379189)
(-2346.7297 1308.1551 -56.870441)
(-2342.0194 1302.0853 -61.280872)
(-2336.5294 1295.6857 -65.214411)
(-2447.1433 1386.8817 -34.781885)
(-2444.5837 1383.1744 -40.588067)
(-2441.5898 1378.6133 -45.642164)
(-2438.3729 1373.2478 -50.72792)
(-2434.5318 1367.1474 -55.141143)
(-2430.2446 1360.3275 -59.41827)
(-2425.2177 1353.0909 -63.215193)
(-2534.2611 1450.4919 -31.657712)
(-2532.2755 1445.8427 -37.472465)
(-2529.8022 1440.4872 -42.455286)
(-2527.0882 1434.3628 -47.440346)
(-2523.795 1427.548 -51.735752)
(-2520.0339 1419.9426 -55.896355)
(-2515.6274 1411.8307 -59.580728)
(-2622.5247 1515.4854 -26.819396)
(-2621.2175 1509.9154 -32.577871)
(-2619.4066 1503.7055 -37.49444)
(-2617.2857 1496.8187 -42.370586)
(-2614.5706 1489.291 -46.623862)
(-2611.403 1480.9482 -50.666564)
(-2607.7055 1471.8649 -54.112981)
(-2711.9212 1581.7471 -20.315398)
(-2711.3547 1575.2407 -25.942143)
(-2710.2614 1568.2188 -30.732911)
(-2708.8178 1560.5988 -35.429786)
(-2706.794 1552.383 -39.478599)
(-2704.5795 1542.9848 -43.331497)
(-2701.8237 1533.041 -46.468851)
(-2802.7853 1648.8192 -11.88712)
(-2803.1438 1641.5015 -17.347014)
(-2802.9013 1633.6791 -21.930703)
(-2802.1815 1625.3659 -26.496313)
(-2801.0287 1616.4428 -30.360716)
(-2799.5887 1606.5776 -34.05537)
(-2797.7165 1595.8845 -37.451419)
(-2895.2 1717.1738 -1.9571915)
(-2896.3303 1708.8578 -7.2162547)
(-2896.9233 1700.3195 -11.618922)
(-2897.0406 1691.3696 -15.888921)
(-2896.7498 1681.8156 -19.609381)
(-2896.0851 1671.1811 -22.977869)
(-2895.0293 1659.8988 -25.846214)
(-2989.0409 1785.9822 9.4153628)
(-2990.9688 1777.0608 4.5311528)
(-2992.4242 1767.8313 0.45420685)
(-2993.3876 1758.2093 -3.5267782)
(-2993.9563 1748.1376 -6.884747)
(-2994.3838 1736.8837 -10.000559)
(-2994.5969 1725.0007 -12.717387)
(-3084.6956 1855.217 22.105724)
(-3087.481 1845.5936 17.640875)
(-3089.7767 1835.7172 13.932897)
(-3091.5864 1825.625 10.36258)
(-3093.0739 1815.0177 7.2839455)
(-3094.5063 1803.3044 4.4847003)
(-3095.6385 1790.9248 2.1829207)
(-3182.0838 1924.5591 35.850583)
(-3185.5994 1914.3292 31.853628)
(-3188.7129 1903.9482 28.594502)
(-3191.3795 1893.3618 25.383003)
(-3193.7382 1882.3417 22.707221)
(-3196.1478 1870.2422 20.296766)
(-3198.3624 1857.5363 18.331437)
(-3281.1257 1993.8258 50.321427)
(-3285.2839 1983.1105 46.878456)
(-3289.1737 1972.3043 44.127837)
(-3292.5959 1961.3028 41.349627)
(-3295.8099 1949.9409 39.132997)
(-3299.1707 1937.5516 37.075205)
(-3302.3632 1924.5964 35.527255)
(-3381.7711 2062.6782 65.335707)
(-3386.5336 2051.5723 62.501866)
(-3391.0634 2040.3692 60.24971)
(-3395.238 2029.0448 57.933145)
(-3399.2225 2017.3933 56.137894)
(-3403.4603 2004.8129 54.483895)
(-3407.5422 1991.7402 53.365569)
(-3483.8248 2130.9905 80.605389)
(-3489.0101 2119.5551 78.409037)
(-3494.1345 2108.0734 76.652065)
(-3498.8974 2096.4855 74.812844)
(-3503.6049 2084.5984 73.470137)
(-3508.5724 2071.9263 72.188457)