/*--------------------------------*- C++ -*----------------------------------*\
  =========                 |
  \\      /  F ield         | OpenFOAM: The Open Source CFD Toolbox
   \\    /   O peration     | Website:  https://openfoam.org
    \\  /    A nd           | Version:  6
     \\/     M anipulation  |
\*---------------------------------------------------------------------------*/
FoamFile
{
    version     2.0;
    format      ascii;
    class       pointScalarField;
    location    "1.16";
    object      p;
}
// * * * * * * * * * * * * * * * * * * * * * * * * * * * * * * * * * * * * * //

dimensions      [1 -1 -2 0 0 0 0];

internalField   nonuniform List<scalar> 
3969
(
1105675.5
-1556141.6
10354.922
6640.9086
2049835.9
-3443350.7
7252.1977
4520.3577
865362.09
610680.86
330308.15
-7695.6913
-252872.65
-617516.67
-685653.21
-10088.625
-2984.3212
-1939.5938
3815.9216
9253.7498
13770.728
13353.052
357349.43
415558.36
411718.28
433143.84
430226.97
435492.15
426657.85
422175.39
414254.93
402956.25
395399.99
386178.74
375290.86
366777.96
357001.99
345729.82
336698.61
325390.26
315535.86
303330.37
292995.19
281125.54
269950.78
258882.75
246574.9
234887.07
222570.39
211175.11
200200.6
188029.4
176754.36
165414.94
153728.16
142376.03
131158.63
120256.94
108266.61
98190.758
85782.79
76470.243
64415.617
54789.459
45655.972
34288.627
28464.918
20279.762
13907.162
-362850.86
-315856.19
-389176.75
-352368.47
-399369.43
-368347.64
-388274.27
-366237.49
-372356.01
-359462.82
-355876.28
-350066.15
-336108.23
-334284.55
-321123.23
-313433.36
-304008.46
-291128.46
-283809.02
-271221.37
-260008.59
-251440.11
-237970.68
-229187.38
-216821.65
-206056.22
-193444.9
-182198.04
-171399.11
-160091.45
-151065.83
-139671.46
-130134.43
-119332.27
-109508.45
-99211.72
-89739.332
-78935.162
-69828.61
-59249.152
-49747.507
-40927.04
-32430.267
-23806.826
-15863.089
-9584.9321
-3003.7647
1554787.5
1134843.9
491853.83
-130307.57
-600800.46
-1264281.4
-1026894.7
-450146.94
-509563.71
-342613.9
-482413.11
-425168.99
-443246.13
-427975.41
-427306.09
-410885.12
-382514.13
-420032.31
-381414.02
-392353.52
-377625.96
-366249.43
-360683.28
-342420.54
-334413.34
-319612.62
-305786.48
-294340.09
-281516.36
-269175.55
-256717.22
-245508.27
-235407.37
-223364.72
-208494.52
-197937.91
-185784.06
-172976.72
-161250.3
-149294.6
-137083.62
-125727.62
-114594.04
-99817.333
-90485.742
-79469.777
-68309.309
-57085.057
-47171.861
-36343.238
-26705.725
-18094.714
-9949.6906
-2797.0219
18751.559
12324.843
10132.499
5965.9804
-2644.7794
-2986.0812
-11016.815
25389.361
22979.265
27234.511
36175.85
45224.337
54560.425
64972.711
74908.103
86121.39
96088.717
104812.52
122284.61
130331.52
141739.44
153789.34
165438.52
176957
189250.28
200517.89
212852.5
225628.02
236962.14
249792.09
262387.39
275360.28
288268.03
300932.04
312114.38
325310.82
336067.47
347351.8
356950.87
359650.73
379828.28
397700.55
390191.28
410040.17
405959.11
416605.46
433852.53
446589.6
426748.6
453058.51
419257.46
421665.76
428347.33
412334.86
914271.47
984738.21
1040555.6
1017423.2
1018708.5
1010811.5
818799.52
-1197393.7
-1545749.3
-1813791
-1939828.7
-1862148.4
-1866106.5
-1373939.8
7300.253
8282.494
8982.6236
10326.822
9955.2966
8281.5963
8137.4369
2113.0679
3670.286
2827.4158
1988.9463
3039.1325
7435.7121
2954.8323
319306.91
328991.5
332328.87
336606.28
337165.69
334411.41
329347.21
328799.05
316643.26
318204.23
308785.81
299284.47
297679
288966.2
281738.04
274003.37
267085.9
258149.82
249514.09
240888.01
232407.46
222768.13
213941.92
204772.54
196589.05
186508.1
177228.9
168494.88
158936.07
149650.86
140668.81
131292.8
122239.24
113145.31
104300.27
94973.047
85763.68
77264.386
68414.823
60598.953
51510.825
44845.852
35746.881
29363.271
23612.51
14628.772
8260.9907
202717.21
201349.42
201938.26
212779.19
215593.28
222698.04
216250.38
215237.52
210847.24
209703.88
202399.68
200120.76
193467.4
187985.02
185197.27
179210.88
175424.88
168868.12
164400.83
158331.37
152035.91
145617.75
139286.36
133622.81
127023.39
121735.77
116436.12
109420.9
104492.73
98417.672
92773.868
87084.607
81256.417
75710.405
70016.975
64405.236
58909.061
53814.308
47628.401
43006.409
36771.595
32396.58
26224.475
22763.715
17408.891
11186.232
5039.2435
95431.269
108435.59
98819.622
105699.53
105208.32
107056.14
104955.48
107128.36
102568.1
101307.79
100513.6
97683.147
95667.274
91821.166
88951.639
86852.169
85167.293
82427.132
81176.347
78261.024
77128.021
74823.218
72487.373
69440.208
67148.169
63972.796
61034.915
58839.23
56064.99
53150.14
50340.9
47321.914
44359.266
41321.749
38537.222
35225.668
32454.34
29129.814
26083.894
23686.086
20197.116
18749.844
14798.75
13566.011
10384.603
6657.9776
5381.9133
-4101.6175
-4884.4011
-12585.884
-3503.3602
-11953.67
-8342.2873
-14612.203
-12729.495
-14558.133
-4811.0915
-12052.298
-6294.6133
-8845.2441
-5692.4254
-4610.3199
-3163.0067
-2767.2169
-1865.8999
-1174.3279
-1503.3812
-1112.7011
-2438.6387
-4366.5611
-3655.2316
-2730.3784
-2479.4279
-1670.657
-1024.0109
-617.40082
30.014484
583.31901
1179.9723
1540.4797
2164.3809
2572.4014
3313.7952
3371.7269
3924.0324
4696.3711
5194.6657
5581.5428
5979.4906
4983.8232
6632.3102
5529.3352
6410.796
7193.2371
-112980.81
-96113.384
-104268.99
-108449.9
-117070.75
-115501.27
-118946.51
-114970.78
-116990.34
-107987.02
-112828.53
-101943.34
-105895.9
-96012.032
-97135.417
-90101.886
-88730.084
-84141.176
-80965.343
-78156.516
-71802.636
-64992.355
-61070.127
-53954.796
-52256.251
-50999.333
-46610.905
-43138.01
-40155.147
-37189.13
-33994.114
-31488.84
-28382.098
-25913.699
-22823.66
-20372.608
-18120.514
-14924.043
-15277.608
-12716.409
-10462.484
-8341.5035
-5761.8176
-3127.0323
-1323.7764
1952.9558
5801.2393
-217263.62
-201465.56
-208608.68
-223985.16
-228520.1
-228698.61
-230035.77
-223675.18
-226495.32
-215342.06
-217199.71
-208753.66
-205789.85
-200899.89
-195880.07
-187893.29
-182768.93
-175032.44
-169058.75
-162308.66
-153346.38
-147155.52
-134563.64
-126089.56
-117766.04
-111413.45
-105568.98
-98940.435
-92709.393
-86476.979
-80941.877
-74729.614
-68950.701
-63046.9
-57352.302
-51587.775
-45920.942
-40651.17
-35071.107
-30857.545
-26080.148
-21186.476
-15776.417
-11097.267
-6055.0312
-377.02004
7166.6889
-360617.14
-258877.92
-311565.06
-309027.82
-329719.29
-320886.91
-329347.28
-318187
-326074.46
-306746.3
-313721.97
-301427.49
-294855.78
-287369.58
-277436.7
-269110.47
-258134.75
-250762.03
-240339.02
-231145.58
-222425.18
-211757.68
-202793.13
-193647.92
-184010.75
-175374.69
-167773.97
-157045.59
-147407.26
-138111.76
-128986.95
-119754.36
-110429.78
-101526.34
-92198.007
-83244.56
-74604.058
-65877.975
-58082.658
-48594.565
-40489.102
-32715.968
-25309.991
-18953.083
-12234.8
-5867.4283
2556.1927
730786.48
661568.91
689254.6
687770.62
690042.84
665386.82
631900.62
460567.36
490310.22
468648.78
472227.15
478227.53
463351.35
466850.55
241334.39
283752.72
242221.31
254732.09
243221.14
234295.69
255773.91
43937.92
9667.7414
-11721.709
9429.7939
-7748.7246
-51957.814
61261.473
-134769.73
-143386.48
-157293.88
-141199.25
-157078.34
-161659.08
-85485.796
-456530.46
-483391.55
-486001.38
-502073.97
-518067.04
-512481.5
-468496.52
-529513.32
-499421.7
-413299.36
-428943.6
-406953.77
-374642.41
-439033.1
-591733.7
-621745.68
-711851.83
-733197.38
-755595.7
-743667.31
-573327.81
-454252.87
-518970.41
-528776.5
-545963.72
-565758.51
-547300.13
-499173.2
-408713.79
-466944.08
-492027.25
-496581.64
-500803.79
-468793.3
-487361.11
-405278.05
-443837.18
-438120.25
-468853.13
-451463.44
-448959.61
-427919.85
-413873.14
-439044.75
-457284.05
-462098.09
-464214.07
-443897.68
-451510.18
-409553.41
-404501.75
-416900.07
-427492.78
-430460.57
-420914.55
-418490.99
-394884.35
-409440.65
-416577.62
-425856.19
-422007.82
-424448.53
-423647.34
-397652.85
-394343.16
-397595.94
-405224.25
-405014.88
-405995.12
-403913.37
-385621.72
-391713.59
-394097.22
-401396.17
-404100.63
-405961.07
-407282.86
-385299.82
-381703.66
-381803.58
-385797.03
-386992.48
-380750.13
-385509.98
-373862.8
-378935.76
-374012.74
-381044.93
-380155.81
-378517.65
-387345.15
-363794.29
-365679.48
-364843.07
-371614.66
-370539.74
-362899.08
-375843.73
-362031.74
-353980.7
-359673.17
-359293.75
-361937.7
-359023.82
-370369.92
-345233.16
-344940.19
-351398.9
-350021.27
-354835.79
-346461.15
-356664.55
-341188.82
-335667.59
-342703.27
-339072.36
-343144.98
-337552.2
-348466.24
-328075.76
-323513.53
-332842.46
-328601.88
-335800.36
-329178.95
-339247.42
-317213.55
-315484.29
-322407.34
-318457.71
-325040.68
-317734.71
-325707.88
-306912.66
-304165.65
-312596.86
-307353.26
-315853.27
-307164.49
-316809.77
-295030.35
-294229.93
-301573.36
-295950.16
-304172.93
-295932.42
-305482.02
-283584.68
-282792.56
-290341.44
-284585.1
-293899.49
-285501.41
-295161.92
-273040.35
-271136.88
-278956.01
-272826.9
-282042.68
-273870.13
-283081.9
-260921.51
-259975.13
-267097.93
-261717.45
-270706.1
-262664.09
-272394.75
-250330.72
-247802.4
-255982.01
-249957.66
-258034.23
-251313.96
-260161.42
-237988.2
-237849.29
-243713.3
-237895.01
-246998.3
-240446.42
-249638.47
-226630.55
-227253.09
-229334.97
-227981.94
-233943.7
-229433.64
-237481.36
-213540.81
-216420.32
-215155.92
-219087.23
-222118.88
-221184.04
-226984.98
-205709.19
-204610.28
-205548.91
-207282.9
-209378.37
-208384.14
-214426.76
-194707.12
-192989.8
-194399.38
-195973.62
-197094.87
-197755.11
-200499.2
-182957.83
-181255.64
-183128.12
-183408.88
-184320.2
-186496.53
-187836.62
-172188.52
-169875.43
-172300.86
-172046.63
-173790.92
-175228.22
-176214.08
-160445.35
-159377.7
-160651.15
-160656.47
-161745.6
-163133.72
-164133.58
-149926.9
-147960.32
-149546.59
-149316.1
-150465
-151793.21
-152841.95
-138427.79
-137141.95
-138250.51
-138108.07
-139152.87
-140405.32
-141523.07
-127642.34
-126171.1
-127264.49
-127072.72
-127902.31
-129151.22
-129862.32
-116411.42
-115249.92
-115996.84
-115714.26
-116525.64
-117923.26
-118702.89
-105558.72
-104711.84
-105118.87
-105320.99
-105809.53
-106470.45
-107342.39
-94790.274
-93345.933
-94121.929
-93268.519
-94531.597
-96101.506
-96410.988
-84475.787
-83771.414
-83349.028
-83798.979
-83661.452
-84470.272
-85282.23
-73339.798
-72465.576
-72393.55
-72442.769
-72704.852
-73775.709
-74262.269
-63523.757
-62261.638
-62824.386
-62188.462
-62497.558
-63543.461
-64092.948
-52681.222
-52324.767
-52005.355
-51630.326
-51997.851
-52892.921
-53167.383
-43315.427
-42884.009
-42315.936
-42469.959
-42291.417
-43216.158
-43474.674
-33531.446
-33300.134
-32658.09
-32899.463
-32283.422
-33437.268
-33526.022
-24937.492
-24301.06
-24026.832
-23897.102
-23439.322
-24551.156
-24204.401
-17151.53
-17220.508
-16666.536
-16685.256
-16165.568
-16596.674
-15987.896
-11577.912
-11076.533
-11066.046
-10807.185
-10233.612
-11041.179
-10487.608
-6486.9144
-6482.407
-6199.424
-5468.245
-6280.9584
-6176.0697
-4662.2701
-17809.313
-20260.831
-22932.709
-23039.727
-21648.916
-20391.66
-18046.151
-9841.9705
-10876.375
-11412.184
-12087.023
-11241.505
-9262.3298
-8004.7383
-5678.3849
-7151.613
-7782.239
-7547.3405
-7078.7976
-5120.4317
-4221.8333
4695.9652
5097.4734
4938.8452
4924.2557
5984.7818
5375.8257
6637.9709
12095.243
12303.908
12466.695
13611.188
13003.768
12807.952
12256.376
17312.059
19976.278
20606.374
20925.159
22249.072
19370.37
18678.508
20460.591
21158.997
22866.347
22970.975
22349.08
21246.037
19789.365
450156.46
439898.68
496349.53
479454.62
494374.76
466536.58
457003.18
472299.53
477665.65
498730.58
492961.57
499933.5
470602.75
459475.7
462751.16
463009.16
477118.23
476515.84
475613.29
456603.28
447841.32
443002.43
453197.68
461990.12
463524.49
462127.73
447545.58
450028.77
448575.36
448503.8
452295.18
455010.64
451350.54
447127.09
437207.5
432657.09
434406.19
440570.93
434821.99
437907.91
423695.59
425978.94
433613.86
431809.09
432808.59
432335.06
437501.99
426646.88
435515.01
418123.99
415629.89
422865.81
408610.88
417201.05
410794.11
412220.83
414516.56
417721.53
415513.63
411838.94
417419.33
409653.29
417890.17
407606.28
401650.57
401787.08
396807.71
403158.81
394565.46
403729.41
398972.19
393734.67
400750.24
392038.98
399091.15
391824.58
398232.29
386607.7
387807.66
386413.58
380908.01
386138.41
380077.58
388570.61
382168.89
375964.45
377416.29
372733.62
377612.05
370184.4
370235.76
371126.18
367430.67
367309.17
363991.43
367129.64
363993.39
369813.8
360170.09
358712.39
355268.45
355367.27
355826.45
351508.18
357691.5
353406.28
346664.83
346337.61
343855.96
347875.95
342671.52
346425.08
341460.63
337301.59
335519.35
334527.74
335049.44
330616.7
335037.3
330512.65
325668.93
325381.9
323235.64
324173.77
320948.31
323415.41
319010.2
315388.61
314588.56
311915.5
313157.58
309818.97
312879.68
307844.9
303290.13
302944.35
300630.66
301544.02
298297.47
300735.15
297116.14
291643.71
292346.51
289100.41
290345.19
287216.18
289614.74
284945.07
279909.16
280891.19
277588.85
278510.59
274863.96
277514.68
273887.69
268385.51
270116.08
266038.05
266967.84
263623.63
266605.6
261728.84
257066.63
258415.97
254195.58
254974.65
251282.81
254412.54
250604.95
244481.61
247095.04
242172.23
243386.52
239595.92
243158.23
238813.96
232396.05
235695.96
230302.5
231527.05
227825.16
230925.03
226546.22
221149.15
223743.5
218677.42
219724.6
216056.84
219573.76
215507.97
209541.19
211838.92
207216.31
208401.34
204685.5
208262.18
202766.64
197264.1
200598.68
195484.27
196384.92
192774.57
196215.29
191075.39
186629.06
188510.89
184140.99
184936.17
181762.65
184834.29
179533.98
174817.76
177054.28
172835.26
173542.72
170155.97
173287.46
167401.61
163515.91
165137.27
161384.21
161682.3
158769.97
161711.72
155833.96
152194.71
153817.08
150123.73
150419.97
147764.06
150663.12
144116.84
140987.58
142067.67
138934.89
139036.47
136686.34
138947.91
132652.02
129632.19
130706.74
127805.2
127417.05
125848.61
127330.5
120424.77
118477.33
119109.41
116270.85
116425.39
114803.45
116145.73
109325.35
107872.4
107094.71
106038.87
104929.92
103758.57
105634.48
98168.389
97131.655
96185.295
94832.235
94398.398
91934.221
94885.31
86388.336
85398.886
84548.462
83623.876
83261.4
81624.419
83888.399
76174.998
75644.789
74703.128
73836.014
72856.592
71210.827
73461.683
64389.147
63681.735
62829.025
62188.424
61529.827
61220.579
62739.491
54862.939
54485.851
53598.235
53046.507
52527.315
51516
52925.048
44898.133
44756.547
43688.882
43726.998
42522.488
42140.259
42801.353
34322.306
33974.824
33438.676
33303.247
32867.781
32598.836
34076.795
28496.717
29966.159
29750.972
30018.19
29005.228
28117.348
27354.173
21987.093
22134.64
21493.205
21319.552
21593.091
22025.957
20954.707
24072.113
26674.544
27317.847
28021.389
27937.092
28091.001
26416.503
420303.02
348073.32
336930.41
339385.97
349968.49
356929.48
340818
345139.89
338520.94
336386.32
325527.29
320237.88
312451.62
299791.06
296333.06
286435.93
276344.48
268158.21
258640.7
249788.84
240441.32
230752.43
221419.44
212346.94
202818.33
193690.75
183279.75
173963.77
164591.27
154910.46
145326.32
135973.74
126296.62
116852.92
108303.1
97394.403
88639.157
80999.62
71389.634
62878.008
54838.327
46545.512
39281.285
31510.542
24637.117
17165.464
7081.9523
239759.93
250367.81
193243.5
224518.22
255143.01
238747.3
252119.87
237452.95
244311.94
233272.61
231558.41
227925.37
215105.9
215787.89
208544.17
205198.03
198355.96
191128.85
186066.83
178557.3
172104.05
165050.6
158302.48
150691.44
143515.86
134939.34
130436.64
122533.48
116066.69
109483.29
102912.7
96499.69
89907.15
84046.507
76801.686
71272.355
65108.819
58783.492
52886.02
46811.901
41199.985
35177.532
29819.629
23990.034
19022.49
12778.898
6114.9936
107803.56
143395.62
80427.376
129528.21
109579.67
101803.86
106693.19
102294.04
103770.57
95871.032
104857.91
97031.17
105423.46
99288.36
100535.65
100194.99
95986.51
94400.848
91836.769
87751.483
84865.838
81778.095
78342.482
75376.216
72308.283
69378.377
66523.42
62378.772
59438.979
56114.802
52825.408
49690.097
46576.14
43246.29
39908.385
37164.796
33816.232
30885.747
27668.336
25237.612
22502.941
19585.847
17075.111
14479.971
11830.617
9624.214
2431.8829
-31979.277
18406.724
-16779.242
12152.767
-8753.2596
4611.7202
651.97328
-9068.4574
-4957.3726
1580.0484
-4833.2034
4916.0513
-460.19218
9220.3135
11134.251
11468.362
12031.969
12524.651
12568.739
11898.672
12694.729
12385.341
12497.659
12354.33
11720.233
11104.228
10471.222
10584.501
10047.435
9886.7657
9509.7013
9796.5517
9311.5985
9303.5707
9063.3407
9018.9593
8503.5496
8462.6601
8036.4481
8095.0624
7644.4566
7322.5802
7275.8312
6518.2601
7069.9547
5483.4067
3652.3819
-209508.2
-99372.96
-115106.05
-84031.576
-108521.92
-90693.699
-106993.6
-101722.66
-93110.154
-97580.759
-85508.087
-94187.244
-82798.016
-87682.126
-84176.472
-81765.638
-79534.447
-76594.5
-74440.887
-71365.642
-68639.461
-65689.924
-62834.908
-60041.862
-56558.72
-54614.632
-50550.539
-47449.688
-44625.802
-41755.931
-38826.752
-35855.753
-32915.218
-29722.972
-27007.498
-24035.444
-21253.686
-18204.009
-15696.791
-12646.306
-10198.388
-7210.7126
-5120.4261
-2253.6511
-78.847424
2910.8367
3982.5394
-316316.11
-228396.61
-198485.17
-202621.59
-215852.17
-210109.77
-221737.02
-201127.03
-225576.28
-214802.07
-219508.09
-210872.31
-205427.35
-203795.11
-193848.96
-188949.07
-179715.51
-173043.21
-165269.98
-158825.46
-152288.29
-145347.47
-138392.28
-129182.06
-120226.71
-111579.41
-106012.03
-99459.306
-93506.288
-87241.365
-81788.904
-75623.533
-69774.33
-63921.076
-58103.388
-52455.777
-46542.579
-41077.903
-35645.147
-30040.342
-24886.528
-19757.053
-14667.853
-9996.3335
-5016.4756
306.19039
5399.9377
-389704.51
-300084.74
-300491.3
-304258.95
-329838.44
-330617.62
-333786.59
-328832.42
-335468.65
-323593.21
-313996.34
-310911.9
-302078.46
-295217.19
-287484.28
-279913.5
-274454.46
-264295.01
-258213.95
-248256.17
-239406.88
-229423.05
-219936.94
-208996.7
-200201.53
-183305.78
-174466.78
-164866.93
-155313.85
-146281.17
-136979.4
-127152.01
-118115.98
-108512.95
-99128.851
-90003.751
-81267.669
-72009.184
-63075.408
-54291.812
-46176.454
-37288.409
-30172.848
-22121.861
-14482.644
-7165.6453
-394.87027
525608.17
585913.16
554772.59
582621.57
565406.96
535273.57
498660.16
385317.08
439967.21
433287.85
443350.58
430470.04
415226.08
371920.25
361783.31
397736.24
399804.79
409211.9
396588.87
389798.56
372534.73
358151.69
365837.92
369306.18
380587.4
359886.72
366893.34
332805.82
347520.7
357356.41
363131.04
358977.44
353645.73
351261.06
324371.6
344631.53
356586
342387.83
356520.09
343162.37
342187.96
342196.96
341508.8
338904.21
338768.53
340744.74
325375.68
337583.27
328197.5
331691.6
347896.68
332009.67
338520.45
334730.29
331966.17
327711.95
335241.19
330071.36
315586.97
331756.86
317216.45
322895.18
318631.21
322536.11
323078.96
322712
326803.82
314886.75
321560.11
317009.99
314891.16
322309.57
308954.93
314692.62
306239.8
311707.97
308025.02
316054.89
309714.01
305142.65
307706.42
304043.93
302808
300005.32
304414.61
303579.61
298286.96
304742.18
293997.34
299548.3
300147.52
297338.01
293970.05
292725.21
293940.64
286360.06
290070.91
288538.94
291714.54
287913.16
285951.74
285238.85
280827.93
284606.21
280772.73
281723.37
278341.3
279037.13
277954.34
272236.37
272994.77
273428.14
272702.86
270940.83
269442.05
270094.54
264187.04
267213.73
265424.01
265171.62
262276.05
262509.13
260134.27
256284.08
257674.33
257123.4
255174.58
254702.82
251886.62
252276.42
247638.25
248843.23
247113.59
247528.26
245311.95
244136.04
243234.04
239328.83
240202.11
239308.87
235634.07
237446.83
234342.95
234318.31
230120.9
230959.53
229166.42
227342.28
228939.02
225175.2
224854.86
221416.13
221935.19
221217.89
216809.69
219830.14
214806.9
215543.48
211804.06
213491.15
210826.16
207265.64
210534.75
205328.93
205838.64
203416.2
203923.75
201624.1
196260.02
202120.57
195089.46
197410.07
193488.18
195525.32
192456.47
187861.77
192579.52
186856.59
186798.83
185670.42
185601.1
183495.47
179259.15
182913.9
176877.23
178201.84
176511.2
176592.69
174551.75
169152.04
172300.48
168958.96
168622.23
166655.04
167496.24
164644.92
159633.27
165013.35
158390.91
159261.64
158108.45
158541.57
156111.46
151352.91
154058.24
150002.39
150350.63
149133.89
149235.57
146997.97
141547.45
144911.13
140498.48
140798.21
139579.68
139989.21
137903.83
132657.05
135397.45
131863.8
131799.06
130981.34
131251.09
129181.03
123519.11
125964.51
122471.2
122435.94
121790.4
122042.35
120082.35
114535.68
116437.35
113622.42
113359.4
112960.82
112971.45
110968.73
105361.02
106848.25
104473.8
104030.28
103864.01
103822.95
102488.14
96448.405
97600.39
95835.779
95098.157
95318.56
95441.758
93755.244
88375.839
88418.152
86962.988
85660.266
86844.381
85195.019
85594.638
79188.216
78485.495
78297.491
77108.806
76724.918
78068.316
76251.004
70708.223
69337.008
69378.674
68601.711
68870.766
69234.606
68328.471
61654.324
61350.807
61000.559
60212.126
59969.281
60723.585
59827.67
53787.276
52164.369
52463.604
51034.419
51844.204
52253.769
51760.23
45647.545
45163.738
45410.552
44463.555
45096.081
44607.604
44297.343
37141.751
35447.401
35886.976
34690.855
35225.746
35766.722
36431.006
31193.822
30378.787
31496.049
29988.08
31226.263
30912.899
30344.814
22725.963
22155.241
21974.001
21305.675
21905.936
21889.781
22266.708
15639.244
14574.419
15804.41
14423.442
15434.118
15472.602
14620.489
7631.8662
5314.5189
5197.1972
5120.9088
5736.1984
4916.2543
7709.453
347216.94
362550.77
393888.24
383943.85
391369.97
353586.03
352667.22
271671.3
306843.68
319472.86
322579.44
320567.6
297107.83
285544.92
265161.46
240625.9
271510.85
258362.27
266897.75
241189.86
244032.39
231341.2
233100.7
245863.84
236307.82
240787.58
232077.22
214049.85
241430.7
236001.35
244404.14
233328.67
244623.78
229317.55
232109.75
230024.21
222059.82
225618.94
218505.31
215449.45
223521.92
217491.92
229865.84
228546.29
236623.44
221638.11
232195.68
230698.32
221610.92
225943.44
217568.97
215673.45
211566.25
217316.58
211325.96
214668.92
223274.72
212599.21
224617.02
215370.99
213997.59
217624.53
215927.84
211946.48
213384.66
215793.5
201837.46
209478.51
209204.86
211237.96
213732.5
209722.2
207213.73
201929.07
206191.5
206195.25
203734.87
208319.66
199995.18
207937.89
198175.17
204878.85
200287.39
207879.37
200555.63
198673.37
204237.55
189973.67
197944.29
193567.91
196979.93
197017.84
195373.72
197703.64
186620.45
194532.83
192438.94
189390.41
190739.65
192322.04
190734.09
182014.93
189092.46
184532.26
183683.78
186325.92
186381.38
184535.44
179632.84
181925.18
181737.78
177427.25
181183.23
182598.89
180783.43
173668.32
177104.25
177321.43
174839.3
175290.85
177302.3
173424.66
169476.83
171088.56
171511.59
166678.2
171706.03
171593.61
169332.28
164628.05
166328.81
166359.94
162994.78
164609.35
165636.58
163121.76
159364.72
160037.31
160087.73
156629.44
160942.23
160256.48
158008.5
153933.91
154690.29
154761.2
152086.19
155682.65
153966.97
151603.58
148392.46
148862.91
148899.25
145653.06
151084.77
147478.57
146270.25
143123.44
143973.92
142428.13
140691.22
145523.71
141497.15
140953.34
138053.96
137968.66
136230.8
135418.46
139894.81
135683.41
135225.78
132024.05
132770.27
129971.62
130232.01
134091.81
130114.71
127635.25
128696.18
125213.94
124165
124830
126701.15
124116.07
122824.01
120037.88
121066.15
116992.49
118586.54
122006.12
117096.67
117140.49
114731.56
115031.44
111489.82
113148.01
115235.89
111188.86
111590.93
108542.97
109717.83
105111.9
107217.08
108792.88
105341.08
104686.58
102852.27
102792.98
99352.345
101038.67
102461.43
99368.934
99315.844
96999.761
97435.496
93733.359
95391.916
95886.252
93600.474
92681.028
91159.948
91095.07
87880.895
89173.123
89732.759
87482.061
86852.092
85267.69
85403.303
81989.294
83141.589
83090.07
81548.64
80506.246
79505.931
79143.653
76104.831
77314.318
76737.868
75708.3
74735.819
73628.954
73506.595
70663.846
72074.655
70275.784
69864.773
68273.495
67899.102
67255.685
64744.657
65077.282
63757.446
63831.505
62350.881
61866.825
61387.843
58923.075
59655.195
57339.201
58455.873
56184.374
56341.437
55448.449
53564.809
54045.34
51198.251
51789.408
50729.14
50075.678
49901.672
48387.441
48016.559
45110.812
46898.427
44707.23
44490.073
44023.802
42411.526
42154.29
39676.205
40306.854
38875.856
38908.76
38597.816
37317.985
36906.437
33373.951
35183.818
33126.323
33499.57
32726.21
31675.601
31774.286
28518.056
29243.884
27713.165
28021.001
27253.79
26897.39
26630.817
23163.498
24346.713
22717.304
23051.849
22695.617
22087.823
21917.67
16917.51
18308.597
16587.304
17258.117
16543.288
16180.158
16160.757
11358.353
11608.56
10069.764
10564.347
10404.152
10552.17
10599.289
5385.0794
3427.1849
1835.2405
2149.4834
2570.144
2471.5034
4097.08
202218.77
218548.12
195999.89
218720.45
195386.96
180873.09
166474.38
145317.78
203558.68
192447.81
202326.31
174586.07
186163.74
144438.66
133016.9
131309.24
131522.36
132796.07
125324.95
114828.79
103754.05
113791.48
135236.42
132730.86
141795.79
121551.6
132802.66
107131.23
123732.75
115557.78
116938.26
106928.96
105049.93
104096.89
95919.975
107882.9
124147.16
107634.68
111138.15
110753.93
105765.25
104440.95
115969.05
116357.5
98406.372
107281
103579
98620.758
101329.5
108931
117382.81
99448.798
105153.9
98725.412
94359.985
101615.05
110457.75
119106.44
96606.22
102381.37
98674.51
99071.078
100850.52
112573.99
113782.35
92624.218
96451.571
98530.559
92382.642
97974.612
109176.34
113082.82
90336.857
101320.94
96423.018
96367.828
97114.395
104173.61
108532.72
89107.992
95481.279
93388.18
89478.862
94622.878
101843.43
111870.3
86143.74
95848.968
90672.87
91254.298
91013.324
100823.83
104008.84
87131.816
92737.665
94090.591
82448.481
95847.65
98485.37
101639.24
82469.734
92758.568
88567.909
83012.181
92415.566
95789.87
96371.186
85695.074
87447.982
88006.959
80790.506
92111.688
90337.057
95765.319
81355.006
86616.597
84841.737
79401.156
87329.078
90571.122
91193.242
80550.923
83995.118
83160.654
77516.702
84834.673
85091.339
89436.828
77894.081
82107.35
79940.641
74986.875
81435.876
83976.537
86636.745
76054.395
79155.12
77303.488
73105.404
79696.934
79979.647
83877.802
73398.217
76715.716
74488.545
71432.243
75447.206
77216.314
80477.073
71221.193
74066.686
72448.273
68359.267
73254.634
74096.642
77360.958
68788.377
72288.578
68272.684
66609.817
69957.758
70939
73808.071
66873.235
68259.668
65318.102
64417.122
66741.817
68175.333
70711.944
63795.532
65584.638
62107.321
62493.631
63438.673
65489.88
66107.824
62165.475
61794.057
59460.165
59583.141
60176.409
62566.824
64302.04
58863.462
60599.799
55572.435
58152.327
56739.326
59622.012
62239.62
56081.878
57294.111
53803.759
54925.316
54878.101
56524.901
58437.973
53054.789
54376.97
50687.231
51991.063
52079.54
53885.776
55463.298
50869.238
51724.533
48478.511
49603.32
49527.206
50951.598
52488.628
47759.524
49038.802
45406.959
46896.032
46757.244
48208.361
49304.667
45186.36
46153.422
42942.041
44262.719
43819.312
45314.698
46147.774
42281.096
43349.515
40168.949
41302.066
41438.498
42530.198
43043.073
39718.025
40573.546
37555.244
38991.103
38850.005
39642.996
39835.949
36835.674
37412.204
34865.112
35813.333
35889.502
36716.44
36692.473
33951.203
34643.362
32192.158
33349.221
33428.433
34255.874
33512.061
31442.617
31573.497
29911.559
30020.248
31122.056
30879.549
30561.442
28216.63
29073.906
26764.484
27848.978
28457.017
28543.274
27385.714
25618.521
25720.047
24488.573
24930.095
25719.355
25617.608
25120.112
22770.969
23935.973
22002.535
22453.649
22981.199
22729.908
20584.787
19861.868
19766.362
18931.289
19416.967
20752.346
20013.964
19842.504
18452.449
18888.03
17762.519
17852.817
18309.061
17324.014
14838.984
14408.131
14152.078
13753.387
14127.888
15668.567
14637.84
14053.449
13923.766
13989.297
13523.234
13782.404
13881.481
10938.263
9156.7884
8966.2218
8237.5913
8330.1326
8509.3967
9286.256
8744.8882
8061.1972
7328.9213
7479.6611
7763.6501
7893.1892
8763.8039
4720.5495
988.89184
1104.0363
746.3891
517.19517
781.24291
2137.5743
13521.539
-4491.0791
-3690.1439
-856.76937
-9360.1442
-16637.396
1089.3389
2814.9943
-4622.7268
-7044.7644
-6918.7407
-12901.561
-12777.679
-13165.01
22317.559
-17718.28
-15091.566
-27011.94
-17226.656
-33890.739
-9402.974
1735.0786
-14585.857
-3629.2195
-13608.297
-16775.612
-7012.3251
-19084.546
5981.7762
-4071.9614
-3262.533
-27317.04
-2830.0507
-33817.604
-4317.7439
5600.118
-12065.623
-17034.394
-10126.32
-17799.212
-10915.666
-10166.875
5473.8137
-7756.7774
4082.9085
-18628.112
-5433.923
-14959.601
-6741.4846
6568.0721
-3987.9431
-10517.966
-9811.1809
-9866.9268
-8366.4404
-7625.114
9179.2677
-11184.232
-1188.1652
-13126.29
-6307.9531
-9606.5203
-10094.446
756.79909
-4750.8728
-3651.452
-12610.897
-8382.7991
-8060.8358
-7333.8218
3135.9541
-4662.2989
-4845.7601
-12038.222
-8039.6893
-9905.7302
-6560.3066
2390.1495
-4137.8932
-6665.1097
-8509.9291
-9733.1179
-4068.7529
-6466.2159
3651.1226
-5145.5674
-5016.6072
-10050.957
-5824.8657
-6654.788
-6024.7267
1789.0116
-4643.6201
-120.04558
-5687.6804
-9829.5381
-4579.1784
-9377.5372
4555.8856
551.04678
-7807.185
-4295.1266
-11281.677
-3609.1035
-6236.4538
651.61801
-444.07691
-7314.7495
-2210.4839
-11670.133
-2302.6601
-6849.1022
4042.2575
189.82099
-5380.9653
-111.71779
-10343.223
-1617.8737
-4831.921
2148.0557
309.29283
-4314.0792
466.91791
-10071.268
-1421.5468
-5612.6609
3837.0063
2646.1502
-2841.7724
1258.5948
-8668.8262
-646.04847
-3534.7878
4138.0149
2772.1737
-2766.0158
1556.8925
-8124.552
442.54513
-4672.1841
5066.3106
4023.8988
-1658.9885
2423.8082
-5798.5175
431.66579
-3581.9562
6274.7472
5085.0392
-1093.9158
3429.4408
-5994.4098
931.64762
-3302.7885
6476.9511
5787.322
728.12101
2560.1949
-4308.6703
1618.4592
-2461.9704
8129.0865
6231.0887
1624.4496
2778.9298
-2332.2341
2114.1521
-2076.9447
8258.3753
6491.8698
2963.9487
2828.971
64.798982
1710.9661
-1310.2986
8411.1637
8515.127
3671.1836
3877.5661
1451.0314
1729.0117
-154.19018
9993.6936
8123.6378
4584.1386
3733.6446
2210.3233
2160.8557
-64.935943
9717.1571
7826.7632
5085.788
3725.0726
2581.3762
2461.2817
-7.2829931
10127.21
8096.9262
5927.5684
4548.9785
3940.5994
2969.903
1018.4542
9786.9794
8428.5648
6182.4895
4658.5192
3875.0341
3189.8456
1295.1074
9817.0903
8497.8825
6533.9658
5044.0523
4687.554
3740.4503
1772.8134
9480.8065
8591.433