/*--------------------------------*- C++ -*----------------------------------*\
  =========                 |
  \\      /  F ield         | OpenFOAM: The Open Source CFD Toolbox
   \\    /   O peration     | Website:  https://openfoam.org
    \\  /    A nd           | Version:  6
     \\/     M anipulation  |
\*---------------------------------------------------------------------------*/
FoamFile
{
    version     2.0;
    format      ascii;
    class       pointScalarField;
    location    "1.06";
    object      p;
}
// * * * * * * * * * * * * * * * * * * * * * * * * * * * * * * * * * * * * * //

dimensions      [1 -1 -2 0 0 0 0];

internalField   nonuniform List<scalar> 
3969
(
-388793.11
656147.33
-127.84999
-874.37129
-836848.58
1257140.1
-1194.0997
568.28164
-360252.64
-238306.72
-113782.29
22093.148
123134.98
267162.36
279534.54
1493.9896
2412.3707
2209.0905
707.8342
-957.69975
-1966.122
-1751.7132
-127391.17
-147992.21
-150469.48
-160631.47
-161108.56
-164569.77
-164549.03
-163263.67
-162878.92
-160402.23
-159177.18
-156732.6
-154927.55
-152020.87
-149448.4
-146342.79
-143475.16
-140305.08
-136949.04
-133583.5
-130014.37
-126415.48
-122767.55
-119519.55
-115097.36
-111064.48
-106765.78
-102628.79
-98189.372
-93600.231
-88582.393
-83474.748
-78027.036
-72111.8
-66161.56
-59989.039
-53284.544
-46603.14
-39635.798
-33153.574
-26537.641
-20258.803
-14764.425
-8950.374
-5395.9443
-1657.8138
28.117851
157912.17
147712.06
171278.36
164006.97
180949.56
174729.1
181532.7
178203.97
180513.65
177976.94
177939.57
176195.21
173590.91
171956.75
168595.44
165152.23
161843.44
157211.5
153770.63
148945.91
144523.68
140371.74
135411.53
131072.11
126573.3
121390.58
116808.21
111054.43
106446.3
100945.06
96110.888
90343.721
84731.762
78527.268
72287.221
65721.389
59083.017
51994.786
45223.021
38029.025
31268.858
25088.534
18969.311
13532.5
8392.2779
4100.355
1057.3585
-638717.27
-465664.41
-196512.72
41873.641
237023.84
474942.71
389382.64
170363.3
205578.52
139347.83
197355.64
173189.87
187334.53
179481.28
185521.86
177355.21
179875.56
182882.19
175013.99
179390.61
173453.97
173317.01
168070.23
166056.48
161016.58
158038.83
152792.46
149545.43
144688.14
141006.77
136183.21
132439.47
128697.46
124164.52
118647.12
114594.42
109242.52
103855.24
98036.897
91815.901
85446.337
78848.592
71927.104
62907.562
56847.58
49278.241
41598.247
34104.422
27054.076
20224.994
13977.702
8406.0375
3783.6346
-10.650137
-2379.885
-1558.5565
-1841.124
1363.6743
1710.4514
2230.9123
2324.536
-920.20329
-2147.9023
-4768.8816
-9394.2549
-14322.662
-20141.146
-26361.166
-32893.655
-39843.888
-46434.97
-51730.39
-63149.373
-67612.789
-74361.847
-81053.824
-87185.515
-92910.188
-98603.245
-103833.79
-109079.37
-113886.44
-118883.91
-123796.62
-129154.1
-133557.58
-139057.93
-143544.5
-148718.2
-153077.67
-157673.83
-161977.22
-164412.42
-165458.56
-173389.1
-181978.62
-174639.86
-182110.14
-179042.88
-179162.72
-185838.33
-187875.34
-178501.48
-186142.29
-173467.6
-165067.12
-168093.92
-159571.1
-327740.39
-363746.34
-387989.22
-387183.33
-381169.93
-377779.24
-293811.83
516451.39
637527.65
725256.33
769582.21
718291.58
719155.12
549160.47
-611.42333
-979.42515
-1461.3649
-1917.3057
-1777.5514
-1329.9153
-1295.1463
311.67762
825.69536
933.66142
1291.201
858.96945
122.83764
401.5998
-109777.67
-115290.43
-119125.2
-123096.99
-124918.83
-126282.17
-125261.31
-126479.94
-123708.46
-124628.93
-121543.43
-120369.84
-119158.53
-117617.82
-115359.29
-113848.55
-111432.57
-109351.27
-106521.55
-104130.27
-101279.86
-98473.428
-95571.029
-92613.848
-89756.122
-86483.642
-83008.638
-79635.46
-76007.018
-72138.549
-68170.939
-64037.226
-59599.054
-54989.486
-50347.15
-45238.528
-40033.4
-34876.193
-29827.351
-24948.342
-19854.792
-15666.612
-11282.18
-7861.7646
-5018.5401
-1932.0356
-104.38426
-67419.653
-66725.538
-69186.353
-74122.278
-75562.116
-80334.993
-79048.637
-79260.302
-78669.612
-78011.51
-77109.092
-76212.585
-74441.438
-73156.675
-71964.264
-70587.43
-69111.96
-67788.385
-66025.706
-64454.768
-62381.848
-60468.526
-58496.417
-56634.871
-54530.201
-52795.166
-51073.18
-48462.52
-46547.856
-44183.715
-41797.352
-39361.795
-36683.989
-34046.917
-31198.985
-28265.908
-25261.887
-22308.786
-19224.75
-16168.814
-13083.854
-10467.533
-7669.623
-5273.7407
-3526.3405
-1057.2385
37.972302
-27059.203
-31852.04
-29239.335
-32298.432
-31659.352
-35172.936
-34127.238
-35518.905
-34107.663
-33780.133
-33189.834
-32768.618
-31602.691
-30324.486
-28556.527
-28658.404
-27865.751
-27814.471
-27047.298
-27003.775
-26665.789
-26804.851
-25889.868
-25483.688
-24976.278
-24085.547
-23022.892
-22405.254
-21333.918
-20306.9
-19062.167
-17922.119
-16561.688
-15249.544
-13854.102
-12351.567
-10797.289
-9168.7903
-7339.4137
-6030.6887
-4454.4177
-3493.4173
-1971.3081
-1475.4453
-761.993
193.97366
161.36682
8834.4671
12024.723
14799.151
12607.284
16359.599
14465.541
17317.573
16243.967
16379.656
15476.709
15749.82
15438.92
15926.072
15008.263
14990.398
13753.873
13958.595
12972.027
12868.032
12339.796
12245.618
12673
13320.859
12398.861
12184.927
11706.132
11201.703
10685.68
10303.237
9750.9435
9339.1618
8660.5327
8201.3324
7528.5131
6882.6402
6188.454
5612.8349
4995.0521
4000.2762
3100.3337
2598.601
1991.7328
1692.8647
1069.168
896.93196
681.0602
36.819746
54101.919
49944.046
53164.611
55909.612
59092.43
59501.72
60945.574
61313.597
61599.88
60581.315
60726.805
59511.018
59269.894
57625.239
56793.747
55089.285
54304.814
52283.01
51361.481
49630.821
47310.363
43935.398
41994.271
39301.922
38091.386
37208.479
35513.324
33575.756
32289.811
30527.581
28994.539
27112.68
25443.322
23428.235
21445.407
19456.794
17563.16
15364.019
14704.214
12741.698
11068.673
9082.8499
7532.3898
5641.8072
4177.6474
2362.0686
279.02881
96273.292
93704.388
98090.989
103806.62
107808.01
108754.8
110487.08
110156.82
110829.53
108985.92
109114.66
107069.67
107006.48
105072.72
103608.39
100978.68
99036.832
96169.061
94101.075
91094.67
87828.442
85122.834
79805.476
75830.029
72749.006
69363.492
67205.04
63954.395
61162.819
58117.679
55161.938
51861.202
48508.995
44942.02
41353.128
37468.931
33567.857
29718.663
25718.59
22379.317
18742.521
15046.542
11584.28
8129.2426
5269.6305
2636.8761
333.00988
152518.41
120199.73
140853.7
143821.85
150494.35
151628.29
153777.23
154447.61
154820.9
153772.61
153952.87
151640.35
150328.27
147946.34
144851.9
141876.86
138077.83
135406.75
130927.59
127811.19
123689.82
119742.7
115574.64
112024.05
107804.3
103700.92
100713.69
95824.729
91443.284
86983.628
82337.336
77408.572
72229.108
66859.496
61218.618
55374.833
49390.399
43656.739
37842.823
31451.438
25909.407
20455.524
15716.902
11014.631
7388.7209
3817.5718
1043.5003
-250489.28
-247767.23
-258641.75
-259226.12
-261107.81
-256418.06
-241218.3
-168452.8
-190451.46
-177830.79
-184619.38
-187490.08
-184098.86
-186143.48
-81028.015
-97257.702
-80690.532
-92889.293
-87011.356
-87120.202
-99046.781
318.51964
13411.717
14948.855
5590.6614
5623.422
17518.646
-21735.205
79747.544
78126.58
83389.93
74406.614
74883.824
74650.743
42763.356
198595.38
211827.66
206204.91
208148.94
211348.92
208753.36
188536.89
250207.16
217419.98
192800.48
196171.53
185154.28
169392.99
191927.09
231184.98
233059.99
260300.35
265917
270364.66
269213.88
210980.27
195866.5
219527.65
217143.52
219736.59
227935.7
219437.85
201814.89
170245.69
185932.28
193649.65
193847.21
192782.06
181988.71
188617.25
182799.81
195085.84
190379.38
198653.8
190981.22
189865.45
178657.37
183782.56
189609.68
193141.12
192770.15
193022.1
185329.86
186275.9
187680.43
183452.84
185329.01
186590.77
185047.47
180708.31
178402.2
184287.7
186406.92
186904.25
187332.67
185394.63
183727.36
182845.12
187510.28
183124.59
183049.64
182966.72
179503.4
180401.77
178125.45
185079.89
184047.73
183147.14
181734.15
181911.4
179684.93
180093.08
186421.37
181968.45
179686.14
180558.29
178333.32
176252.72
175196.33
184059.17
181624.75
179033.34
178737.35
176987.03
173373.09
177755.26
182009.83
179220.54
177002.35
177600.48
175302.05
170036.4
173814.43
180123.35
175788.16
176175.43
173659.85
173746.11
169407.66
172873.28
176676.69
173232.45
173637.44
170857.25
171473.07
166223.85
169431.37
174382.97
169998.16
171347.52
168008.83
168539.61
163953.69
167075.72
170513.93
166242.38
168221
164260.9
165697.02
160782.84
163870.06
166509.46
163256.93
164754.51
160898.08
162568.8
157767.41
160331.35
162543.38
159092.61
160952.49
156812.38
158893.85
153740.5
156717.9
158168.55
155258.41
157088.55
152933.56
155215.63
150431.58
153587.99
153602.64
150764.03
152770.68
148656.96
151199.88
146398.16
149514.73
149339.31
146505.37
148500.66
144532.51
147049.33
142617.22
145788.52
144607.4
141729.96
143969.21
140089.77
142783.75
138388.04
141620.54
140156.41
137526.12
139665.76
135955.14
138202.96
134427.25
137478.82
135474.48
133180.42
134722.53
131215.34
134105.53
130293.11
133593.66
130479.8
129425.56
128871.37
127985.68
128885.57
126338.24
129231.86
125240.11
124858.18
123110.89
124811.62
124502.97
123316.28
125387.78
121317.17
120445.86
119366
119977.01
120004.53
118149.65
121224.51
117002.84
115736.45
115028.11
115120.03
114737.89
114011.98
115550.64
111618.7
110641.14
110049.79
109893.59
109546.31
109448.83
110376.5
106538.12
105391.64
105270.86
104776.93
104820.4
104409.57
105147.1
100951.7
100295.09
99730.97
99415.643
99279.491
98909.812
99713.657
95382.705
94477.705
94081.792
93731.001
93668.949
93304.881
94137.584
89183.356
88504.937
88065.275
87765.109
87684.559
87370.774
88141.961
82858.868
82165.985
81754.431
81431.914
81309.752
81058.387
81731.888
76121.329
75478.867
75092.562
74725.961
74649.658
74621.446
75219.45
69076.656
68582.877
68063.242
67927.707
67678.86
67507.756
68182.488
62100.366
61053.819
61040.33
60188.597
60716.661
60982.125
61220.608
54739.868
54257.507
53326.941
53469.218
52935.149
52952.169
53684.081
47074.422
46351.195
45957.906
45661.62
45589.016
45923.253
46421.543
39786.039
39077.588
38701.162
38267.307
38157.276
38616.628
39223.195
32249.878
31757.508
31137.601
30764.61
30782.429
31331.968
31775.708
25459.097
24850.078
24103.97
24033.629
23759.678
24473.052
24938.828
18716.376
17942.1
17272.341
17107.945
16786.101
17792.307
18170.774
12922.606
12124.779
11484.276
11298.743
10975.716
12027.936
12264.439
7424.8164
6504.9141
5934.5181
5663.8868
5476.5324
6467.4649
6607.3123
3245.3487
2509.4148
2046.5865
1825.9962
1650.5541
2488.1907
2781.1479
658.54306
101.6748
-286.47737
-512.39949
-504.86297
41.394785
196.13338
2322.1656
2444.8741
2593.7003
2641.8785
2353.9717
2189.2662
2258.5801
4174.1592
4309.2186
4127.2988
4345.284
4141.7175
3574.8957
3825.6017
2447.477
2770.2126
2499.5629
2513.4296
2447.3179
2251.0254
2311.5791
566.02385
792.68213
819.99636
903.8128
592.19639
711.28213
407.3549
-1869.1113
-1656.3053
-2190.1563
-2245.9397
-2433.2104
-2311.971
-2147.2114
-2964.3461
-3124.0859
-3218.4495
-3289.7394
-3539.4083
-3117.5561
-3184.7524
-2586.8871
-2699.1993
-2957.2129
-3114.0415
-3208.3636
-2807.1692
-3042.5898
-158829.37
-156951.28
-182923.2
-178098.42
-185038.58
-178648.62
-172046.42
-173948.91
-177056.54
-188876.44
-188731.39
-193092.73
-181505.12
-179534.7
-176330.41
-179578.08
-185826.91
-188245.92
-188737.39
-178451.93
-179923.95
-169449.12
-174957.39
-181301.35
-184206.65
-183167.01
-179700.82
-183596.42
-172510.71
-175306.81
-178837.61
-180846.97
-182351.37
-177941.98
-177730.46
-168809.87
-171162.28
-176101.49
-176513.81
-179196.55
-174922.2
-178980.26
-169987.43
-171749.13
-174556.33
-174792.45
-179345.43
-176783.59
-181174.63
-167099.4
-168039.61
-173059.44
-170517.19
-175311.31
-172915.57
-177526.06
-166974.2
-168875.15
-171217.38
-172265.81
-176157.66
-172693.85
-179949.41
-165862.81
-165297.15
-169517.7
-168170.22
-173205.95
-170115.13
-177727.44
-164008.89
-164150.41
-168870.36
-167187.16
-172446.21
-170033.22
-175551.95
-160817.82
-162518.51
-165910.54
-164922.82
-169153.86
-166879.4
-174122.69
-160027.21
-159626.67
-163250.66
-162718.86
-167447.25
-164701.43
-166769.31
-156688.96
-157424
-160830.03
-159576.74
-163849.18
-162095.16
-167148.53
-153732.12
-154697.49
-156248
-157962.01
-159995.85
-159682.17
-164846.86
-152313.02
-151077.58
-153787.69
-153457.21
-157937.17
-155190.54
-160090.05
-148526.65
-148081.71
-149860.12
-150571.18
-153091.85
-151141.81
-156239.29
-145194.32
-144148.73
-147012.42
-146269.92
-149343.89
-147739.96
-151982.55
-141235.29
-140501.59
-142759.25
-142269.08
-145130.96
-143361.13
-147400.6
-137793.29
-136470.51
-139044.86
-138290.82
-140975.04
-139318.12
-143170.12
-133879.49
-132217.9
-134998.93
-133867.88
-136536.89
-134762.94
-138314.81
-130019.26
-128356.44
-131060.18
-129775.09
-132359.63
-130383.41
-133980.01
-126119.42
-124175.45
-127050.06
-125535.61
-127916.56
-125942
-129237.37
-121802.13
-120453.37
-122922.37
-121335.29
-123517.69
-121444.28
-124607.42
-118083.21
-115919.24
-118780.04
-116788.88
-119055.54
-116733.36
-120006.67
-113919.95
-111738.14
-114771.82
-112503.03
-114741.22
-112391.05
-115359.72
-109668.64
-107506.69
-110218.19
-108027.9
-109996.57
-107587.56
-110787.52
-105294.78
-103294.62
-105773
-103698.6
-105613.93
-103289.58
-106041.29
-100565.63
-98563.389
-101109.31
-98948.764
-100692.98
-98169.839
-101071.42
-95731.203
-94059.492
-96193.888
-94193.837
-95709.334
-93364.838
-96115.199
-90586.373
-89051.406
-91051.264
-89115.31
-90505.406
-88113.866
-90696.736
-85248.216
-83832.775
-85531.013
-83712.175
-84924.288
-82487.591
-85075.306
-79443.435
-78171.221
-79717.883
-78025.542
-78864.035
-76782.765
-79278.878
-73340.365
-72292.759
-73664.395
-71916.027
-72831.896
-70838.133
-72928.466
-67158.01
-66205.639
-67087.425
-65744.198
-66062.759
-64621.612
-66087.378
-60162.216
-59298.134
-60309.862
-58738.198
-59451.344
-57908.926
-59161.503
-53516.024
-53244.357
-53090.341
-52561.493
-52396.053
-51211.775
-52809.874
-46679.492
-46135.369
-45955.576
-45272.489
-45359.946
-43593.437
-45885.875
-39441.328
-39189.066
-38706.872
-38296.737
-38122.902
-37060.733
-38816.744
-32740.726
-32391.106
-31980.002
-31537.122
-31294.386
-30413.818
-31973.272
-25824.02
-25557.268
-24950.818
-24617.501
-24327.901
-23959.347
-25276.781
-19465.206
-19011.102
-18469.88
-18228.057
-18033.172
-17950.119
-19087.578
-13648.092
-13283.718
-12548.794
-12522.175
-12204.121
-12471.31
-13287.914
-8079.6133
-7304.0988
-6899.9347
-6841.7681
-6788.1668
-7340.4475
-8190.2993
-4136.3976
-3723.0065
-3284.9663
-3283.4448
-3111.969
-3683.7814
-4163.3119
-970.64658
-544.66538
-171.6535
-115.28353
-321.85937
-887.10498
-1301.4058
-178.40332
-184.68656
163.29695
85.680747
89.334344
-205.69752
-284.56938
-176064.42
-137052.84
-131979.39
-134822.58
-141721.23
-146390.42
-143713.78
-145511.6
-145876.32
-145664.05
-142403.48
-142126.45
-138677.85
-135609.92
-134563.02
-131443.85
-127248.07
-123998.79
-120730.69
-117078.76
-113497.16
-109734.04
-106094.28
-102411.31
-98610.491
-94967.422
-90883.917
-86835.414
-82642.041
-78206.945
-73725.884
-68969.781
-63940.128
-58651.735
-54067.014
-47246.643
-42379.409
-37710.877
-31623.782
-26502.206
-21559.827
-16796.314
-12584.402
-8744.7886
-5537.0154
-2918.2786
-31.119736
-98331.284
-101870.52
-75569.451
-94572.452
-108524.81
-102295.88
-109996.38
-106282.1
-108601.59
-106254.73
-106710.95
-104774.47
-101771.27
-99955.685
-98083.535
-96928.304
-93689.88
-91454.334
-88445.032
-85770.672
-82414.178
-79804.185
-76443.608
-73503.438
-70328.808
-66579.22
-64852.392
-61382.291
-58385.499
-55272.669
-52128.833
-48775.623
-45289.047
-41939.165
-37894.483
-34088.507
-30642.768
-26607.93
-22832.672
-18991.332
-15454.544
-11806.39
-8708.4785
-5748.6693
-3317.9197
-832.35359
411.46857
-47416.523
-61672.709
-31921.433
-55388.534
-46515.45
-45435.46
-47846.717
-47388.001
-47019.894
-46864.261
-47408.44
-47236.89
-47760.48
-47318.815
-46958.668
-46633.317
-44860.45
-43577.251
-42379.852
-40343.922
-38930.364
-37258.402
-35569.493
-34118.995
-32499.151
-31177.93
-29785.055
-27964.966
-26526.337
-24755.91
-23040.029
-21154.729
-19401.067
-17420.996
-15461.402
-13640.113
-11825.322
-9978.4276
-8154.0851
-6854.0261
-5310.9604
-3966.4521
-2931.1
-1919.3379
-1122.2776
-670.77658
809.84685
9401.5178
-10512.162
5480.5957
-8819.3524
-606.30822
-7441.4135
-3886.7378
-278.68677
-3739.0781
-2710.7477
-2530.4695
-4333.0212
-3148.5706
-7053.126
-6825.4031
-7881.384
-6645.2597
-6833.25
-5787.313
-5421.2671
-4665.9099
-4309.0689
-3637.9539
-3383.7081
-2608.0768
-2140.1091
-1465.1732
-1213.941
-687.23958
-524.94054
-133.35077
114.67359
406.10233
718.00151
914.17539
1161.1861
1380.3983
1554.4803
1607.2343
1605.9685
1687.6604
1641.3922
1464.0114
1518.6166
928.73621
1190.2635
817.73058
76649.221
37283.456
45239.577
29064.75
43362.87
32850.804
41883.62
37995.889
37731.262
37745.451
35872.731
37386.101
36134.959
38489.548
37923.07
37767.812
37335.341
37104.913
36484.963
36116.37
35681.957
35055.581
34453.966
33828.065
33252.476
33070.21
31651.558
30775.252
29704.024
28614.272
27486.387
26277.078
24891.525
23445.449
21966.925
20412.588
18617.073
16764.048
14935.872
12860.494
10854.698
8881.2795
7002.9879
5092.9054
3530.3691
1670.3295
1267.8434
116129.18
91759.466
77874.308
80154.772
87518.448
84677.75
90395.43
84460.635
91640.852
90956.931
94172.415
91831.552
91782.334
90401.889
89036.455
86474.149
85249.359
82569.319
81068.156
79036.29
77517.72
75042.318
73282.908
69920.849
66635.278
62741.912
60935.747
58240.948
56036.789
53404.723
50974.4
48205.988
45278.644
42310.138
39133.582
35830.713
32268.683
28830.49
25235.24
21433.571
18009.384
14546.356
11113.632
8297.1232
5218.4823
2823.7651
581.34164
151184.68
124247.97
124685.52
124525.33
138980.94
134898.75
142174.68
138520.02
143421.22
139968.53
139971.3
139726.86
137996.77
136604.29
134896.43
133431.23
131394.19
129225.04
126857.73
124250.75
121181.33
118317.86
114798.9
111176.05
108063.78
101380.38
97376.539
93524.793
89581.704
85689.116
81467.492
77003.375
72442.945
67465.407
62312.994
57062.976
51812.285
46079.661
40098.203
34458.694
28856.4
23203.824
18231.685
13324.726
9100.1157
4834.5872
2184.1371
-196878.16
-214996.37
-210697.35
-219461.84
-220007.12
-209225.45
-196503.37
-142752.08
-168518.24
-167331.08
-173898.42
-170334.03
-162234.81
-146382.93
-137312.58
-150469.56
-160090.47
-162009.3
-159324.94
-158894.94
-155589.88
-135023.73
-141617.51
-145739.32
-150839.07
-145826
-150475.32
-134378.93
-132860.18
-140077.73
-147135.43
-146705.01
-148501.68
-146129.07
-138580.58
-133409.53
-141088.62
-139883.3
-146297.99
-142140.88
-144326.6
-144218.59
-132002.67
-136532.79
-139652.8
-142317.44
-140068.92
-143172.23
-140994.62
-130965.22
-139638
-136671.35
-142948.16
-141952.31
-142512.81
-142606.68
-130979.85
-134676.91
-134056.39
-140234.76
-136381.96
-141746.37
-140973.25
-128415.09
-134908.41
-134583.06
-140065.12
-136933.19
-141888.38
-139326.56
-127172.67
-132851.43
-131784.61
-136630.67
-134854.16
-138065.74
-139154.47
-127823.26
-130663.6
-131400.57
-134887.82
-134504.41
-137179.05
-135599.13
-123879.75
-128302.3
-129142.07
-132562.96
-131772.87
-133472.95
-136843.49
-123111.26
-126423.4
-126314.73
-131205.42
-129212.35
-132583.61
-134162.34
-121533.13
-123240.19
-126675.19
-126751.03
-127816.76
-129162.45
-129149.67
-117694.6
-121455.31
-122849.4
-125073.27
-124458.19
-126216.57
-127387.23
-115874.57
-118172.59
-120458.86
-122017.87
-121557.98
-123920.85
-124599.65
-112889.22
-116089.91
-117416.28
-118783.4
-118705.71
-120222.48
-120727.02
-110429.6
-113215.69
-114392.43
-115905.02
-115619.84
-116849.76
-117637.62
-107302.73
-110333.04
-111227.15
-112362.48
-112099.86
-113327.88
-113722.77
-104129.31
-107771.68
-107999.06
-109240.32
-108961.46
-109904.44
-110326.6
-101048.24
-104686.1
-104543.62
-105651.03
-105214.76
-106203.55
-106361
-97780.155
-101801.75
-101008.78
-102236.88
-101746.35
-102753.39
-102720.32
-94551.265
-98381.666
-97370.461
-98431.372
-98105.214
-98853.015
-98709.582
-90794.752
-95709.834
-93491.077
-95512.072
-94452.536
-95752.447
-95336.938
-87842.474
-91784.751
-90311.19
-91323.775
-90972.035
-91604.935
-91317.551
-84723.544
-88302.981
-86884.122
-87834.665
-87545.693
-88263.599
-87521.976
-81005.126
-84264.543
-83095.112
-83899.095
-83537.161
-83928.696
-83540.875
-77322.219
-80680.833
-79323.865
-80006.063
-79663.479
-80205.248
-79769.802
-73412
-76500.351
-75293.6
-75822.155
-75624.575
-76051.819
-75517.629
-69489.373
-72139.011
-70966.225
-71468.977
-71285.646
-71614.882
-71149.765
-65064.363
-67502.337
-66532.785
-66949.768
-66663.676
-67072.411
-66684.052
-60519.892
-62735.617
-61861.685
-62046.727
-61992.633
-62433.639
-62032.876
-55863.151
-57748.522
-56853.116
-56988.725
-57101.025
-57369.38
-56691.532
-50925.949
-52324.12
-51574.479
-51635.816
-51830.753
-51713.178
-51769.534
-45571.729
-46726.038
-46454.01
-46260.205
-46496.162
-47098.066
-46915.026
-40740.196
-41926.5
-41048.024
-40518.577
-41536.085
-40420.609
-41528.072
-35404.605
-35107.829
-35511.356
-34966.488
-34768.056
-36342.869
-35335.794
-30198.126
-29855.57
-30024.629
-29612.072
-30130.472
-30456.592
-30634.57
-24908.161
-24719.843
-24459.668
-24243.669
-24150.109
-25136.116
-24921.57
-19914.592
-19205.855
-19242.871
-18710.076
-19275.821
-19817.078
-20175.832
-15348.295
-14866.199
-14699.768
-14293.45
-14675.739
-15129.354
-15438.632
-10770.595
-10063.338
-9869.5609
-9408.9799
-9869.5571
-10332.15
-11006.901
-7506.9538
-6849.1003
-6816.7568
-6220.3547
-6747.8833
-6952.9479
-7402.5922
-3720.3879
-3531.6932
-3005.5674
-2677.5852
-3060.596
-3190.7227
-3814.4144
-1787.3119
-1228.419
-1072.5905
-745.46901
-1111.9982
-1239.9588
-1386.4908
667.01329
940.8199
1269.4537
1335.1404
1153.5366
1237.2396
520.40726
-123554.58
-127655.88
-140577.65
-139084.19
-146682.4
-133822.13
-138346.53
-94574.235
-116334.52
-122216.16
-127248.92
-128462.06
-120258.01
-115579.27
-98155.892
-91044.863
-104107.76
-99669.064
-106395.61
-95969.588
-102402.72
-84539.546
-90675.21
-98677.472
-97916.675
-102125.76
-99953.006
-89487.067
-91220.802
-93124.005
-100319.07
-97385.837
-103829.29
-96105.917
-98557.376
-87307.022
-88968.3
-93734.255
-93099.969
-94148.965
-97618.38
-95937.982
-88249.681
-91779.114
-98779.038
-95437.216
-101238.87
-100677.9
-97174.596
-87339.945
-88583.422
-92899.418
-91903.988
-96041.171
-95085.535
-97081.186
-86745.234
-88717.441
-96260.165
-93936.696
-97075.169
-98364.734
-97128.225
-85020.887
-88006.291
-92924.597
-89618.251
-95281.187
-94668.454
-96554.281
-84861.245
-87257.446
-91954.958
-90930.879
-94808.276
-95689.758
-94608.889
-83082.763
-84967.728
-91582.241
-88430.273
-94084.395
-92483.731
-95907.168
-81930.447
-84389.04
-90217.992
-87103.55
-92582.224
-91457.377
-92701.421
-80071.678
-83498.03
-88775.321
-85939.324
-90635.353
-89894.22
-89882.555
-78249.269
-82836.237
-85433.127
-83928.886
-88706.007
-87662.882
-88261.662
-77048.439
-81540.069
-83457.402
-83037.762
-86392.761
-85964.88
-86011.581
-75400.652
-79375.728
-81408.736
-80412.116
-83997.364
-83829.876
-84114.465
-73727.016
-78216.165
-79550.281
-79063.512
-81932.137
-81786.987
-81256.583
-72313.303
-75635.458
-77277.738
-76404.878
-79403.599
-78844.172
-78937.849
-70575.056
-73982.806
-75273.999
-74678.875
-77184.789
-76722.549
-76697.14
-69281.652
-71440.271
-72972.344
-71992.598
-74591.742
-73798.297
-73969.94
-67789.119
-69531.05
-70742.504
-69954.708
-72341.83
-71498.244
-71577.585
-66366.942
-66804.457
-68435.419
-67387.406
-69963.162
-68433.167
-69037.283
-64435.544
-64751.316
-66370.582
-65632.796
-67529.53
-66272.401
-66720.302
-62631.604
-62427.273
-64134.331
-62866.139
-65152.507
-63283.675
-63959.697
-60536.082
-60493.226
-60752.587
-62215.826
-61734.854
-61161.207
-61889.324
-57613.744
-58346.448
-59177.971
-57456.41
-60574.92
-57375.854
-58927.548
-56095.828
-55119.742
-56814.103
-56104.173
-57221.474
-55580.424
-56267.002
-53291.217
-52973.799
-54460.358
-53030.367
-54962.145
-52571.069
-53595.935
-50784.389
-50664.119
-51329.375
-50517.428
-51969.68
-49831.803
-50711.237
-47997.518
-47778.901
-48666.666
-47849.555
-49166.828
-46946.562
-47753.209
-45014.04
-45132.721
-45746.804
-44915.433
-46052.744
-44011.424
-44755.92
-42000.712
-42237.909
-42555.108
-41897.908
-42944.03
-40972.85
-41225.741
-38848.122
-39082.608
-39250.881
-38716.146
-39528.704
-37357.615
-37975.011
-35309.439
-35852.796
-35867.651
-35540.395
-36014.496
-34472.453
-34860.431
-31915.567
-32660.05
-32335.735
-31977.173
-32423.344
-30563.226
-30817.633
-28229.539
-29125.387
-28447.744
-28511.173
-28406.413
-27354.138
-26891.572
-24574.784
-25727.111
-24813.273
-24816.695
-24967.369
-23546.978
-23712.284
-20748.294
-21998.665
-21231.135
-21028.91
-21183.593
-20289
-19601.537
-17161.8
-18630.218
-17431.421
-17342.441
-17440.651
-16360.235
-16041.046
-13913.038
-14983.311
-13803.54
-13960.89
-13860.033
-13200.859
-12835.221
-10377.392
-11671.278
-10331.193
-10591.369
-10359.765
-9803.3028
-9707.5834
-7663.4934
-8604.592
-7153.3819
-7578.9149
-7141.4012
-7006.0286
-6934.7295
-4724.9498
-5319.9303
-4089.8276
-4430.9983
-4181.1548
-4158.4986
-4407.6532
-2675.7507
-3315.8741
-1918.9498
-2380.4699
-2043.7266
-2091.9175
-2510.2121
-323.26241
-160.78312
828.12481
499.13217
637.3986
472.15344
-254.16725
561.32624
527.33364
1325.0305
1125.8409
1025.5621
1168.3455
576.20443
-66957.161
-68157.069
-64675.108
-72825.663
-69587.676
-67844.014
-65714.85
-49146.056
-76477.335
-70654.862
-79058.985
-70219.28
-73366.723
-60033.895
-47751.872
-44797.763
-49586.795
-51370.582
-50343.169
-46687.178
-48782.976
-37758.161
-50172.351
-53431.185
-59354.567
-53869.087
-58475.84
-46530.342
-43819.359
-43775.736
-47465.582
-45482.929
-47828.394
-44089.407
-47295.311
-38113.001
-47138.248
-45301.177
-48951.962
-49689.324
-49772.141
-50361.957
-38771.978
-45225.312
-41425.586
-46609.517
-47991.184
-45837.014
-48089.39
-37932.295
-46929.74
-41773.616
-47766.592
-47464.133
-45746.547
-50287.518
-38197.234
-46397.306
-39767.537
-45542.812
-45948.238
-46110.61
-49440.234
-38379.51
-45340.753
-39120.084
-45061.077
-46368.917
-45847.26
-48839.413
-37112.587
-44535.846
-38404.631
-45108.665
-45452.661
-45223.419
-48696.089
-36521.417
-43862.551
-36989.351
-43970.383
-43862.515
-44947.454
-47682.732
-34446.253
-43720.554
-37324.057
-42645.145
-44540.65
-42745.615
-46688.212
-34447.573
-42375.874
-36772.107
-42388.083
-43807.885
-40570.759
-47730.86
-35461.82
-40070.363
-36598.385
-40791.041
-42644.061
-40321.851
-46008.644
-33755.769
-38834.496
-35972.44
-39555.003
-41561.787
-39039.094
-44933.95
-33124.232
-37755.542
-35630.126
-38883.188
-40442.837
-38090.172
-43833.523
-31998.094
-37068.54
-34260.993
-37790.493
-38870.597
-37067.831
-41672.345
-31554.157
-35933.682
-33485.277
-36590.736
-37897.499
-35633.873
-40646.902
-30503.036
-35142.309
-32296.049
-35669.786
-36099.501
-34497.101
-38767.871
-29801.826
-34009.943
-31580.01
-34226.152
-34965.795
-33291.08
-37234.691
-28623.914
-32933.514
-30264.32
-33184.721
-33487.719
-31777.073
-35547.104
-27930.155
-31564.589
-29557.754
-32263.688
-31831.224
-30759.56
-34044.823
-26754.981
-30390.361
-28722.083
-30348.456
-30324.633
-29244.541
-32040.859
-26043.343
-29300.613
-27461.303
-29219.011
-28885.052
-28101.744
-30729.839
-24950.668
-27467.299
-26795.196
-27237.71
-27543.818
-26707.577
-28832.348
-24242.06
-26761.753
-25340.776
-26715.953
-25844.97
-25709.394
-27109.25
-22854.573
-25950.569
-23885.683
-25421.501
-24539.707
-24260.179
-25902.955
-21996.348
-24333.012
-22753.746
-23717.693
-23148.016
-22782.905
-24470.121
-20615.994
-23066.122
-21201.679
-22562.304
-21740.633
-21429.626
-23004.415
-19629.734
-21478.289
-19951.376
-21076.09
-20145.934
-19882.883
-21581.902
-18184.08
-20070.837
-18384.92
-19476.4
-18554.939
-18390.705
-19961.2
-16988.838
-18377.372
-16801.086
-17790.57
-16933.88
-16603.786
-18367.235
-15455.936
-16657.787
-15212.61
-16152.367
-15245.823
-15125.556
-16846.035
-14090.244
-15000.905
-13593.878
-14252.07
-13492.245
-13225.168
-14878.738
-12501.343
-13134.416
-11780.169
-12426.114
-11673
-11621.959
-13235.747
-11082.807
-11398.098
-10177.158
-10557.177
-10190.733
-9622.6415
-11603.027
-9344.3797
-9652.5674
-8269.4428
-8961.4216
-8140.2715
-8136.5476
-9890.8768
-8085.7291
-7853.8511
-6624.1862
-7122.7043
-6566.4965
-6580.0104
-8081.3728
-6638.2182
-6429.6591
-4983.2744
-5713.4646
-4989.9081
-4934.6182
-6437.4579
-5197.8265
-4352.0121
-3456.7395
-3904.3878
-3406.0029
-3635.9916
-5144.5255
-3878.5504
-3557.0214
-2551.3641
-2959.6303
-2444.9341
-2583.844
-3629.5398
-2548.9912
-1643.0464
-880.29721
-1187.7316
-792.38159
-1233.5372
-2362.6811
-1823.5576
-1352.7801
-876.19788
-1118.1867
-774.12838
-1210.279
-1609.7677
-481.3434
-7.3799851
546.41149
463.09674
679.42456
252.00501
21.988236
-108.82347
-87.788783
406.14593
3.4963152
176.92754
-108.05673
-96.426519
797.98539
1557.1237
1648.2298
1527.5516
1829.083
1368.4706
1440.0334
9243.8059
14166.499
10823.316
10593.455
8594.3048
9858.7941
-1189.6047
9926.0389
8430.6992
8554.7037
4092.2602
4667.6021
2894.9912
1126.8626
683.07266
14021.811
9531.6515
12590.577
8538.3302
10409.24
-1010.6473
8746.8375
9172.2966
1503.7078
3825.684
1618.828
-2857.0455
3601.4361
4312.8507
3997.1454
1643.4321
6951.9946
-1516.255
8496.839
-4131.3078
5451.818
8645.5361
5665.4581
2465.585
940.60308
-281.89599
114.75855
5884.2719
3316.1836
-1686.7371
1911.0426
-2739.7455
1321.8875
-4168.8084
4964.0764
5969.969
3884.8337
1900.2047
301.48186
-1701.2375
-2677.2931
6671.991
5809.3532
-591.68131
2315.942
-3641.0478
-1192.7264
-1129.56
7337.6033
4362.2341
2200.2876
2583.0455
-854.31424
-487.72751
-2789.7976
6924.8347
5452.6699
1891.0039
2619.6649
-1258.8151
-766.37346
-2476.9332
8499.3017
4798.1357
3384.538
2181.0843
-32.917443
-1302.7988
-2029.3
7429.1834
6206.7835
3415.8001
2975.33
-1170.5974
158.19158
-2825.4751
8184.1215
5708.3776
2491.2835
681.26522
2467.8665
-1949.7604
179.2351
7361.2639
4802.7662
6101.6372
1600.4126
2148.2548
-1127.566
-170.78581
8953.8564
4692.6161
5767.6881
417.17299
3167.1431
-1213.8618
387.49679
8212.2437
5600.5434
5233.8493
912.35493
3483.645
-539.7637
477.4439
8453.8241
4819.7736
5196.8772
698.56045
3692.9844
-776.86549
1112.4644
7791.0145
5147.4366
5008.3113
1234.3347
3804.6937
138.84261
1516.1669