/*--------------------------------*- C++ -*----------------------------------*\
  =========                 |
  \\      /  F ield         | OpenFOAM: The Open Source CFD Toolbox
   \\    /   O peration     | Website:  https://openfoam.org
    \\  /    A nd           | Version:  6
     \\/     M anipulation  |
\*---------------------------------------------------------------------------*/
FoamFile
{
    version     2.0;
    format      ascii;
    class       pointScalarField;
    location    "1.06";
    object      p;
}
// * * * * * * * * * * * * * * * * * * * * * * * * * * * * * * * * * * * * * //

dimensions      [1 -1 -2 0 0 0 0];

internalField   nonuniform List<scalar> 
28033
(
-528022.72
840458.89
-102.13093
78.015396
-1095673.7
1112702.8
-276.6026
163.14895
-500752.47
-435571.42
-374049.68
-300953.56
-213856.17
-134906.82
-55666.09
33125.616
116088.85
195215.05
279627.17
321356.82
415367.85
489219.42
477943.48
329.21113
443.24475
684.22594
507.02451
617.97941
297.22056
111.61576
-142.16459
-542.57949
-530.91523
-929.73524
-1097.1989
-1081.7902
-796.82476
-344.43477
-136726.54
-153288.32
-142947.38
-158645.03
-158855.12
-166343
-170618.01
-174590.79
-178296.83
-181944.17
-184702.89
-186921.13
-189921.41
-191517.96
-193318.05
-193947.21
-195251.7
-195266.74
-194878.49
-193943.82
-193056.2
-190782.25
-188838.17
-186316.81
-182969.7
-180187.44
-177053.76
-173671.59
-170377.36
-167493.11
-164540.85
-161822.11
-159727.77
-158030.12
-155656.48
-154981.15
-153558.82
-153020.51
-152226.18
-151460.32
-150559.91
-149769.65
-148474.33
-147132.61
-145300.79
-143210.89
-140628.2
-137729.23
-134357.24
-130717.34
-126727.14
-122554.92
-118211.41
-113831.49
-109447.22
-105188.04
-101079.61
-97209.483
-93579.724
-90272.214
-87241.694
-84478.3
-81951.807
-79747.289
-77627.225
-75720.714
-74098.098
-71900.855
-69410.143
-67063.293
-64445.655
-61784.103
-58755.507
-55518.067
-52033.195
-48362.373
-44541.069
-40660.744
-36641.212
-32829.577
-28943.71
-25223.941
-21720.101
-18212.072
-15236.705
-12369.621
-10102.626
-7819.285
-6079.9113
-4302.5261
-3167.8741
-1896.761
-1027.117
-598.75202
65.120394
162501.83
145399.83
163368.53
154257.48
172837.09
174142.36
180814.28
183186.36
189072.97
190901.47
195078.44
197381.92
200046.89
202824.06
204106.02
206398.02
206514.6
207739.3
207801.78
206964.65
205992.79
205064.42
202017.8
200583.22
197778.47
194084.13
192107.89
187592.4
185561.29
181147.42
179122.17
175751.54
173860.58
171839.52
170328.54
169424.06
167915.82
167771.1
166774.25
166735.55
165942.86
165556.46
164500.67
163448.16
161740.85
159772.49
157172.61
154205.2
150679.83
146786.31
142494.17
137944.62
133179.22
128332.59
123481.79
118732.66
114145.85
109818.12
105766.06
102035.8
98618.937
95502.986
92643.232
89986.175
87461.444
84978.088
82542.877
79972.67
77436.233
74113.796
71114.732
67500.685
63811.339
59733.235
55537.345
51101.317
46599.854
42039.355
37537.502
33174.546
29000.311
25054.461
21437.067
18139.699
15194.815
12629.003
10380.208
8482.5632
6862.7334
5475.5679
4306.9317
3307.7383
2304.8632
1534.009
677.28816
-911677.04
-882052.74
-642497.59
-640063.32
-443394.4
-256011.91
-148936.83
26502.766
169042.04
331022.6
454312.53
601812.34
750115.56
836964.05
889460.38
230791.24
194538.91
104772.68
193242.86
165295.1
182510.25
178282.19
192656.95
186078.57
198509.41
201586.8
200194.59
208056.77
204778.11
211805.32
210231.35
207999.68
212758.93
207431.41
212820.28
207743.14
204238.54
205437.7
202037.93
200819.9
197318.37
191120.84
190794.57
184197.85
183173.03
181448.2
177848.34
176447.48
173864.32
173199.01
169067.89
170558.04
169678.52
169109.28
168431.71
168004.53
167182.43
166330.07
165025.48
163562.5
161471.89
159158.02
156227.54
153015.15
149320.85
145387.63
141126.72
136733.89
132195.33
127666.74
123189.5
118820.37
114674.08
110725.29
107055.09
103629.31
100479.65
97519.76
94779.37
92135.331
89554.476
87115.628
84850.824
80236.963
78876.951
75696.45
72280.138
68758.201
64920.833
60916.931
56678.669
52349.168
47919.939
43486.87
39069.932
34761.525
30576.319
26636.231
22883.608
19441.895
16257.098
13392.126
10802.702
8521.6033
6517.6686
4753.9645
3265.7527
2008.6015
954.27527
212.59537
-259.78313
-837.67553
-737.62962
-644.72941
-441.14999
-188.75526
-102.58749
516.01922
730.8914
950.50456
1001.8252
1705.0226
923.02651
775.03632
369.03381
-484.18817
-1149.7787
-1701.5476
-2621.7891
-3290.309
-4338.8866
-5455.9412
-6868.5649
-8310.8196
-10412.766
-12491.077
-14982.419
-17965.325
-21287.724
-24883.975
-28737.409
-32847.667
-37011.237
-41310.37
-45546.629
-49724.016
-53717.037
-57523.937
-60952.623
-64191.584
-66873.864
-68321.242
-73363.783
-74060.657
-76502.596
-78463.117
-80588.205
-82754.528
-85178.055
-87856.614
-90885.971
-94264.666
-98049.85
-102170.72
-106659.53
-111382.58
-116346.31
-121352.93
-126423.74
-131309.82
-136062.99
-140408.03
-144454.76
-147967.88
-151046.63
-153505.53
-155694.9
-157127.38
-158441.49
-159101.67
-160047.27
-159829.1
-159501.73
-163016.96
-162128.31
-162432.77
-167050.32
-166912.7
-169479.86
-170056.43
-177016.97
-175164.41
-183942.11
-185391.71
-189446.19
-192186.85
-192227.98
-201544.65
-199941.63
-199033.53
-206656.02
-200320.78
-207630.76
-199760.77
-204448.81
-204847.17
-199655.18
-196139.56
-197503.94
-191477.91
-187670.77
-187501.18
-182286.92
-177794.57
-170101.97
-164495.69
-170364.42
-159732.24
-139221.96
-173554.35
-356178.02
-390021.69
-413386.55
-441890.25
-452921.7
-471867.42
-472627.8
-481912.43
-475727.67
-460281.78
-473648.41
-437699.94
-416187.43
-448561
-325997.87
690723.11
843819.12
825079.48
884377.42
852622.49
816145.6
934388.88
985047.77
924247.05
924944.29
887490.6
857163.84
804551.15
797853.29
758499.38
531.95337
742.62934
641.7003
626.14036
328.39285
148.46499
-87.889989
-290.17388
-467.15177
-570.67394
-612.74779
-690.44881
-543.5433
-505.46809
-178.72241
231.25047
385.84827
571.30209
645.75535
644.08832
588.95345
416.32332
214.65559
-1.4038492
-202.05274
-456.21652
-505.81045
-627.79529
-566.86259
-39.588255
-135199.89
-139723.96
-128919.76
-134694.15
-140798.88
-145749.59
-150843.57
-154890.26
-158848.15
-161967.1
-164487.94
-167734.03
-169290.77
-170975.75
-172055.25
-173518.98
-173773.41
-173839.3
-173272.27
-172824.35
-171519.9
-170228.36
-168387.94
-166005.08
-163590.68
-161734.87
-158601.1
-155874.07
-153352.63
-151006.73
-147884.37
-145968.06
-144508.94
-142233.62
-141051.68
-139270.75
-138083.31
-136806.03
-135794.66
-134872.98
-133990.66
-132698.02
-131513.17
-129961.53
-128269.81
-126314.71
-124072.03
-121568.43
-118771.55
-115753.94
-112501.33
-109081.25
-105544.51
-101931.06
-98301.785
-94716.895
-91211.886
-87829.554
-84614.248
-81583.993
-78742.066
-76039.007
-73616.845
-71325.709
-68933.809
-66861.098
-64478.681
-62432.546
-60333.862
-58196.744
-56072.785
-53562.187
-50993.58
-48362.413
-45469.226
-42506.891
-39451.437
-36270.695
-33024.561
-29906.92
-26587.863
-23559.888
-20518.183
-17703.227
-14907.927
-12362.286
-10044.198
-7925.411
-6037.1605
-4490.2378
-3040.743
-1948.0245
-990.55163
-496.56228
169.38322
-126114.46
-117253
-105472.41
-113533.25
-116928.05
-121250.85
-125461.72
-129739.64
-132993.11
-136172.34
-138754.41
-140980.27
-142537.14
-144352.77
-145255.16
-145915.72
-146149.37
-146423.4
-146013.03
-145371.34
-144440.05
-142998.38
-141776.74
-140041.2
-138352.41
-136173.91
-134234.33
-132338.39
-130114.21
-128100.96
-126299.31
-124684.7
-122556.35
-121030.9
-119583.78
-118190.57
-116969.98
-115901.54
-114805.69
-113709.7
-112506.92
-111485.43
-109934.54
-108731.45
-107069.56
-105431.26
-103503.88
-101474.36
-99198.413
-96825.243
-94231.943
-91561.813
-88775.163
-85919.526
-83040.116
-80161.637
-77309.332
-74531.841
-71836.036
-69256.153
-66785.782
-64428.149
-62305.302
-60190.83
-58162.565
-56998.319
-55349.136
-53665.125
-52261.424
-50359.398
-48508.169
-46555.681
-44489.309
-42202.032
-39828.982
-37452.782
-34822.95
-32257.611
-29492.637
-26858.824
-24047.307
-21356.971
-18766.51
-15674.771
-13063.715
-10755.048
-8622.4565
-6787.0697
-5186.2423
-3674.8305
-2571.3252
-1464.4745
-747.00396
-443.17526
446.27571
-103185.25
-101151.77
-86883.673
-94456.297
-94722.554
-99233.567
-103718.75
-107160.47
-109431.77
-112720.36
-114667.04
-116677.63
-118084.11
-119476.27
-120064.62
-120868.95
-121021.69
-121116.46
-120710.41
-120268.18
-119380.72
-118718.56
-117247.41
-116198.1
-114350.53
-113140.44
-111308.79
-109700.96
-107883.34
-106470.54
-104649.62
-103043.32
-101666.63
-100383.82
-99174.971
-97919.85
-96978.598
-96051.773
-94926.751
-93850.568
-92848
-91707.92
-90746.23
-89546.407
-88301.483
-86883.156
-85359.928
-83708.169
-81905.238
-80000.595
-77928.801
-75798.563
-73541.802
-71233.47
-68875.693
-66499.582
-64126.331
-61789.021
-59495.271
-57280.678
-55143.804
-53099.759
-51206.769
-49242.888
-47650.413
-46298.835
-45124.574
-43498.204
-42210.35
-40992.802
-39576.177
-37860.733
-36010.05
-34299.563
-32462.715
-30542.937
-28647.005
-26573.057
-24528.442
-22411.116
-20200.717
-18179.846
-15864.597
-13688.071
-11530.77
-9383.9125
-7409.6823
-5926.7359
-4370.3148
-3133.3923
-2069.625
-1100.9155
-486.83293
105.36447
715.95326
-79582.089
-80044.045
-66696.755
-74302.47
-71919.492
-77554.59
-80082.823
-82543.525
-85084.297
-87862.64
-89239.834
-91109.535
-92111.958
-93398.799
-93783.782
-94446.836
-94452.372
-94604.847
-94254.64
-93839.642
-93341.616
-92392.945
-91597.306
-90558.502
-89487.82
-88355.988
-87076.843
-85943.544
-84617.234
-83430.245
-82073.309
-81057.96
-79820.638
-78661.242
-77686.622
-76443.929
-75440.771
-73897.385
-72620.426
-71771.401
-70852.846
-69943.904
-68832.168
-67782.562
-66708.609
-65523.061
-64349.417
-63081.217
-61739.578
-60346.24
-58874.825
-57339.084
-55757.739
-54107.029
-52433.983
-50720.972
-49000.094
-47268.157
-45561.456
-43864.654
-42237.986
-40631.464
-39089.13
-37645.519
-36293.346
-34892.367
-33933.557
-32517.969
-31130.094
-30141.691
-29074.082
-27842.389
-26955.198
-25749.726
-24440.165
-23124.603
-21711.857
-20276.782
-18734.5
-17136.594
-15529.15
-13874.084
-12143.118
-10245.44
-8771.8645
-7492.9141
-6057.8388
-4763.9136
-3513.4705
-2442.6055
-1566.0569
-784.26925
-219.81451
-51.840301
620.79161
-64131.153
-57638.658
-47602.995
-53405.518
-53123.759
-56289.187
-58469.987
-60801.694
-62282.453
-64303.227
-65443.386
-66677.561
-67524.706
-68406.173
-68519.364
-69104.532
-69039.826
-69076.549
-68702.458
-68661.282
-67915.115
-67610.5
-66756.549
-66240.872
-65235.49
-64584.725
-63502.098
-62776.881
-61674.037
-60926.851
-59873.72
-59127.396
-58010.719
-57334.049
-56448.391
-55580.64
-55749.819
-55987.931
-55267.739
-55322.857
-54511.769
-53715.334
-52972.318
-52214.196
-51368.401
-50489.728
-49639.458
-48692.003
-47721.963
-46738.48
-45655.915
-44551.931
-43387.885
-42159.765
-40896.705
-39588.15
-38237.116
-36879.096
-35498.185
-34129.887
-32805.524
-31428.268
-30220.158
-29033.375
-27728.926
-26889.879
-25833.47
-24844.204
-23920.325
-23058.106
-22166.655
-21001.891
-19612.417
-18614.834
-17585.419
-16602.917
-15751.045
-14769.506
-13732.606
-12677.665
-11496.82
-10378.485
-9073.3888
-7975.5113
-6606.0525
-5509.3977
-4318.5624
-3409.6557
-2348.4564
-1644.1858
-942.18207
-305.29171
-58.62766
151.42935
604.74896
-37034.804
-37259.758
-28557.53
-34276.724
-32025.142
-33764.053
-36415.667
-37248.246
-38182.948
-40204.065
-40439.237
-41605.444
-42014.233
-42611.351
-42606.719
-43155.394
-42831.202
-42858.128
-42731.801
-42343.835
-41982.876
-41630.338
-41165.783
-40736.894
-40239.479
-39744.099
-39209.911
-38755.779
-38074.365
-37625.7
-36928.613
-36384.265
-35668.101
-35204.588
-34303.506
-33928.448
-33681.599
-33726.971
-33549.884
-33665.912
-33598.05
-33011.026
-32310.767
-31676.873
-31041.922
-30416.349
-29800.888
-29211.899
-28619.462
-28039.608
-27436.147
-26834.63
-26201.505
-25545.142
-24848.661
-24127.525
-23356.81
-22561.802
-21738.245
-20891.671
-20026.087
-19210.369
-18352.667
-17518.195
-16884.773
-15988.674
-15515.708
-14878.413
-14308.884
-13884.557
-13276.754
-12755.778
-12400.555
-11690.615
-10880.03
-10538.922
-10082.62
-9631.0932
-9126.2968
-8550.9713
-7877.5727
-7179.1714
-6399.6692
-5607.3351
-4714.3438
-4014.0277
-3042.4263
-2313.0116
-1453.9236
-886.99167
-276.08343
76.663349
330.65576
325.92916
366.23935
-15810.302
-12876.948
-10765.15
-13856.366
-11676.496
-13841.899
-14946.407
-15018.764
-15936.929
-16557.833
-16896.057
-17164.944
-17473.082
-17610.683
-17593.702
-17708.78
-17385.536
-17621.485
-17177.037
-17231.523
-16946.909
-16913.457
-16613.723
-16557.332
-16185.302
-16153.297
-15802.407
-15675.946
-15297.811
-15243.053
-14745.559
-14619.955
-14161.636
-13854.174
-13373.775
-13090.866
-12448.876
-12295.989
-11171.658
-10789.487
-10355.884
-10057.285
-9538.9426
-9281.4471
-8958.3808
-8698.8292
-8500.4609
-8329.6236
-8186.6186
-8082.8541
-7973.5652
-7877.9506
-7771.5365
-7626.0224
-7469.5803
-7259.1739
-7012.4724
-6720.0914
-6394.5015
-6019.9251
-5662.2971
-5253.0621
-4869.6991
-4543.3543
-4158.3054
-3951.4944
-3682.7853
-3517.0219
-3454.7608
-3385.6494
-3430.9391
-3485.166
-3301.3735
-3787.1428
-3964.0773
-4122.6842
-4107.6553
-4156.5995
-4099.8056
-3944.5979
-3722.1996
-3445.7176
-3013.0094
-2633.7044
-2039.5048
-1637.5945
-949.18449
-714.22755
-77.91759
-7.9235677
461.28013
411.72039
559.30345
327.82963
176.78248
11418.937
9758.9902
9993.7422
8930.28
8633.9859
8747.8523
8161.5042
8134.6242
8701.6541
7859.382
8557.1203
8422.7411
8534.4678
8521.7369
8961.1942
8828.569
9085.136
9201.9698
9358.9402
9311.4059
9386.8078
9247.2034
9328.8981
9316.9602
9116.2657
9028.4965
8934.075
8789.0211
8687.2041
8616.7375
8686.7672
8562.0682
8843.3867
8801.9551
9121.1538
9277.607
9564.8468
9640.063
10223.47
10554.232
10853.823
10977.707
11228.889
11253.25
11322.299
11246.699
11087.185
10878.018
10586.338
10230.321
9855.4938
9445.8766
9033.7046
8648.9113
8275.5022
7961.3456
7690.283
7478.2784
7323.691
7206.0977
7144.6894
7094.8023
7040.1633
7013.5619
6891.4645
6818.5506
6601.6026
6347.1767
6049.2669
5604.6022
5189.6177
4731.1774
4138.7041
3440.2161
2754.3562
2146.262
1558.2288
1012.6808
562.52922
171.20249
-117.70363
-306.06622
-399.22073
-412.56232
-315.27724
-230.06799
14.393392
126.78861
519.4032
524.12586
883.46785
712.56055
731.23992
348.91435
44.11672
31762.014
32107.825
27510.115
27203.067
27683.805
29071.35
28232.484
30328.014
30028.257
31083.695
31382.676
32223.618
32157.866
32999.638
33268.016
33329.894
33903.829
33834.735
34072.63
34034.438
34151.915
34166.416
34039.728
33566.422
33283.245
32888.313
32522.473
31966.992
31693.863
31213.039
30933.494
30577.38
30492.285
30182.495
30319.834
30124.179
30347.994
30289.029
30526.576
30420.074
30551.013
30493.553
30485.039
30292.507
30076.056
29697.62
29243.624
28673.082
28012.066
27249.374
26449.297
25589.304
24709.236
23840.738
22985.81
22180.703
21423.722
20741.243
20107.832
19560.73
19052.815
18582.022
18159.432
17703.519
17287.905
16781.603
16247.447
15655.223
14966.262
14198.303
13386.217
12399.033
11457.637
10464.07
9570.2891
8584.4906
7557.3104
6630.3374
5694.4192
4911.7819
4217.7016
3622.8048
3176.7042
2794.1152
2573.5345
2336.0353
2334.1664
2060.8536
2246.6412
1748.397
1936.1796
1328.7538
1163.3653
584.14308
-43.131972
57844.047
58374.397
47922.948
50733.767
50923.149
52299.714
53440.245
54510.173
56350.302
57043.164
58282.267
59136.366
59990.672
60731.242
61237.938
61630.235
62086.548
62133.8
62197.644
62167.972
61778.451
60601.628
59807.167
59328.811
58624.122
57984.307
57052.204
56419.857
55599.979
54858.677
54290.501
53656.709
53297.543
52829.605
52672.527
52334.033
52358.15
52141.513
52183.727
52052.325
52010.884
51766.886
51540.693
51094.577
50574.264
49882.991
49042.035
48063.294
46950.296
45713.761
44408.319
43025.707
41608.333
40201.493
38810.355
37467.418
36197.309
35002.105
33896.499
32874.276
31920.68
31035.473
30179.071
29352.843
28495.604
27635.621
26704.481
25719.313
24623.94
23468.751
22153.273
20831.379
19334.32
17678.898
15252.882
13604.923
12240.991
10729.236
9435.5693
8214.4189
7115.0073
6157.2047
5316.6756
4644.9853
4043.9648
3621.3895
3223.9818
2881.9315
2714.3075
2169.3348
2218.615
1431.243
1208.8047
582.34888
-190.32853
84161.747
69421.735
63194.649
65460.048
67513.73
69180.924
71067.809
73228.352
75487.963
76671.651
78191.613
79807.846
80673.811
81529.527
82447.187
82772.458
83351.371
83302.031
83425.333
83391.312
83476.297
84102.276
84012.5
83988.574
83167.281
82126.107
81158.122
80015.701
78852.285
77868.76
76901.144
75968.124
75306.765
74543.306
74088.503
73561.967
73342.333
72903.5
72764.461
72392.398
72154.713
71704.308
71267.915
70560.057
69815.083
68812.658
67673.234
66341.302
64860.282
63219.035
61479.583
59638.707
57749.097
55850.589
53958.596
52112.336
50337.832
48654.069
47056.306
45560.835
44161.299
42821.15
41565.081
40303.418
39093.895
37837.522
36526.631
35142.888
33706.06
32118.053
30470.754
28754.24
26872.728
24850.972
23077.855
20726.987
18351.058
16406.698
14526.259
12816.253
11227.796
9761.8874
8476.3242
7307.0432
6344.9829
5458.9256
4776.7873
4122.0531
3618.2904
3069.1247
2623.2953
2015.5792
1415.9927
721.43221
-302.09389
97539.038
94417.924
86463.682
86467.334
89180.063
90805.98
94335.968
96797.185
98837.315
101688.08
103195.83
105095.9
106352.34
107832.15
108576.12
109657.28
109806.79
110320.55
110160.39
110078.45
109924.03
109291.38
110046.63
109787.03
108387.32
107434.77
105814.93
104345.82
102871.64
101464.06
100171.96
98874.88
98020.44
96986.653
96418.845
95719.743
95316.969
94828.249
94537.328
94097.09
93696.06
93124.543
92459.89
91573.944
90522.611
89210.843
87680.424
85919.228
83951.453
81780.89
79472.278
77044.188
74548.214
72032.817
69536.978
67093.701
64756.781
62527.04
60419.3
58464.676
56617.162
54891.594
53243.679
51650.457
50077.837
48494.797
46845.798
45198.93
43362.828
41429.914
39393.743
37176.152
34814.734
32510.212
29898.144
27708.264
25118.073
22596.716
20150.21
17842.012
15642.413
13628.012
11771.307
10124.488
8646.3633
7369.6984
6236.1816
5284.2693
4400.3235
3642.9548
2960.9004
2151.1263
1554.6035
721.82595
-367.46168
134706.16
124018.08
107399.39
113840.42
113167.1
119264.93
120810.15
125142.08
127251.3
130559.49
132479.87
134632.5
136217
137859.88
138703.23
139674.38
140281.1
140303.9
140370.79
139910.25
139142.1
138626.62
136672.18
135054.35
133329.71
131774.4
129856.69
128063.83
126163.51
124466.27
122719.98
121225.85
119980.58
118748.12
117847.53
116913.35
116289.54
115570.59
115105.33
114427.18
113887.68
113068.53
112237.04
111090.94
109792.82
108190.5
106347.62
104242.29
101892.19
99315.449
96572.672
93689.669
90711.881
87709.246
84711.385
81772.571
78932.61
76206.757
73626.918
71195.338
68900.97
66732.313
64671.706
62673.679
60707.863
58752.991
56754.857
54666.489
52483.488
50147.648
47685.657
45089.465
42413.757
39504.171
36572.266
33632.099
30644.135
27657.052
24774.365
21965.864
19344.101
16878.292
14626.343
12572.861
10756.13
9124.4266
7731.3437
6473.0185
5407.5543
4440.3669
3564.3614
2704.2775
1893.2622
951.43807
-107.21895
146103.95
142074.94
123330.06
132449.6
135604.93
140403.92
143945.86
148753.17
152112.44
155146.24
158390
160625.86
162770.92
164832.05
165788.3
167451.45
167762.01
168247.55
168104.02
167503.02
166736.7
165430.21
163623.55
162201.06
159558.76
157416.67
155048.56
152430.86
150400.3
147869.91
145996.24
143853.05
142348.65
140724.18
139719.6
138811.58
138061.89
137474.81
136930.56
136417.67
135849.09
135097.75
134205.13
132981.75
131503.61
129640.14
127451.2
124888.16
122003.61
118812.41
115389.88
111767.81
108034.86
104251.95
100494.73
96813.685
93275.214
89915.943
86759.067
83824.674
81096.786
78569.346
76194.102
73949.342
71723.344
69572.988
67261.41
65041.742
62617.369
59950.635
57216.37
54203.492
50954.291
47630.569
44074.925
40481.678
36814.406
33182.45
29640.722
26206.52
22958.436
19918.255
17118.422
14594.897
12331.093
10356.086
8619.4902
7142.1625
5846.5282
4732.5839
3755.8293
2798.6715
1939.3313
1127.2697
141.70396
192444.33
143208.54
148671.55
152126.97
158718.65
161147.77
167345.95
171817.84
175025.73
178912.55
182149.67
184954.08
186861.66
189144.41
190301.9
192053.35
192538.26
192682.99
192537.07
192203.36
190628.63
189440.11
187389.42
185253.63
182389.69
179955.23
176892.2
174113.7
171706.79
169057.59
166758.72
164339.94
162569.93
160474.42
159254.87
158377.13
157669.27
156848.72
156319.38
155728.4
155069.72
154244.79
153190.23
151821.69
150085.4
147966.89
145415.38
142464.84
139119.28
135440.96
131464.5
127285.24
122962.92
118598.55
114254.67
110013.21
105944.74
102083.25
98469.265
95117.32
92018.486
89149.983
86482.051
83951.369
81493.4
79032.139
76441.016
73812.296
71244.79
68337.174
65233.14
61758.099
58208.837
54384.44
50379.552
46297.594
42173.253
38011.218
33962.301
29993.824
26245.847
22731.778
19493.077
16557.222
13946.502
11628.195
9639.0995
7901.5514
6418.6767
5164.7935
4066.9597
3058.614
2331.096
1426.0754
632.52112
-272643.88
-297957.49
-282110.13
-292107.99
-293935.98
-297110.5
-309698.88
-301649
-300329.1
-301809.88
-297748.58
-288039.8
-284960.28
-308345.96
-246793.85
-278808.51
-288888.11
-268480.38
-280590.78
-281861.51
-290399.61
-281651.64
-293993.01
-291547.71
-293865.29
-287773.59
-288611.67
-288906.99
-298003.8
-254566.54
-210681.41
-247251.73
-210875.17
-223757.51
-223152
-220292.74
-225081.52
-222286.66
-224943.72
-222717.04
-221854.68
-226856.84
-211330.38
-240604.77
-222116.86
-185670.9
-188576.81
-187026.81
-182833.49
-191069.93
-187608.85
-192580.79
-193162.42
-191554.52
-192964.89
-195358.06
-188555.4
-190834.03
-212238.93
-150333.04
-128264.48
-148186.4
-125049.43
-138800.71
-132527.05
-139443.7
-136825.49
-137963.54
-138558.16
-140046.89
-138378.53
-139442.82
-140502.54
-146713.53
-134642.35
-91310.77
-91914.056
-86525.2
-88890.531
-89813.492
-90782.586
-90834.277
-91960.042
-93628.881
-94422.607
-92390.65
-98610.747
-92991.471
-103537.81
-99009.036
-40039.753
-39652.704
-41316.661
-38688.677
-42075.151
-41321.933
-43154.773
-42493.984
-42888.307
-43138.455
-44842.936
-41425.664
-48518.027
-45172.655
-51003.693
9627.6879
14944.613
14548.432
12390.593
12765.322
12213.019
11109.36
11000.587
10305.758
6984.4472
11486.76
4757.8016
586.21409
9746.2268
-16505.676
59262.157
65088.16
57489.529
61280.141
59045.356
59715.749
58214.319
58139.349
57526.541
53866.339
56800.701
52247.136
48856.964
59662.511
16403.963
99509.781
121356.26
107017.66
111313.36
109382
110927.78
110065.57
109401.61
110709.38
105618.81
113887.65
101939.83
98851.586
116633.29
68137.788
153169.22
177901.16
153056.4
166411.9
158572.92
161259.6
158880.52
159202.32
158724.74
153783.05
154052.07
155734.79
141974.72
159947.8
103762.38
212829.59
202967.32
201811.45
197800.73
203288.09
203136.61
203291.81
204026.02
204313.13
201320.56
208328.24
184981.01
194129.27
209275.77
155381.88
243054.17
260627.06
235950.38
241979.47
232269.41
237721.37
234949.37
234616.71
231902.26
229029.74
230335.16
235380.6
213505.32
253761.7
144660.09
280483.22
323845.42
282507.04
300993.53
306840.67
303361.81
304868.95
315340.7
309080.35
318463.74
300069.37
292908.42
301510.16
293542.32
275630.46
327377.81
273029.57
253762.66
254116.59
262096.02
277276.81
265583.28
253885.32
246372.37
243870.74
250532.39
252034.6
252167.81
275742.27
252114.88
243661.7
225980.22
263121.01
270819.08
279734.6
301502.64
290391.4
271321.41
307546.32
300883.88
290459.39
274884.98
264400.27
253294.56
217193.67
195224.11
191500.67
208557.37
211430.75
218817.15
225274.81
229941.96
234637.44
239573.38
230490.44
226643.54
214131.16
216769.9
216949.25
219274.41
161376.11
177665.59
175351.18
186570.19
196457.24
189855
197540.32
195238.42
189679.48
197127.11
190673.09
193786.18
189105.51
172182.82
177961.61
172352.16
190384
190936.66
193414.7
195952.46
199853.49
200027.86
200972.8
200623.03
196918.97
196909.15
192991.04
187729.62
185588.9
177497.04
182212.23
193216.61
187549.84
198391.91
198529.39
201334.2
204704.13
203908.45
204815.56
205521.01
200413.15
197547.55
190621.79
186067.3
183445.88
182964.59
188677.75
191255.99
197039.71
197957.37
202171.68
200856.65
201605.79
201569.87
198379.68
198245.95
194292.99
191469.03
187477.66
179939.8
185981.5
194019.27
193777.91
197926.89
197726.41
200671.98
201293.74
201665.11
201149.61
199985.84
196639.06
195441.57
191795.16
186821.39
187632.4
190845.36
193166.81
196251.88
198495.57
201596.84
202365.28
203165.71
203684.83
202625.59
201866.86
200157.14
197721.32
194748.38
191107.56
187484.92
192481.52
197235.51
197395.77
200350.39
199492.6
202463.62
200888.38
202194.11
200932.49
199962.72
198547.15
196130.67
195234.17
192218.39
191317.91
196577.8
197574.43
199651.36
200438.8
202144.63
202518.8
203326.35
203075.5
202808
202445
200407.81
199921.11
197987.19
195647.11
195148.15
198478.52
201338.21
201376.95
203514.75
203270.02
205002.01
204163.41
205146.2
204715.13
203926.58
203517.46
202517.8
200732.27
199699.03
198778.52
202138.68
202403.92
203939.36
203934.79
204620
204773.62
205250.95
205236.47
205085.78
204789.98
203957.62
202818.35
202393.07
200781.85
200923.76
204814.9
205231.57
204800
206726.29
206353.1
207507.43
206786.71
207386.68
207237.76
206815.94
205877.1
205950.54
204630.69
204159.28
203338.65
206181.94
207102.15
208031.64
207643.6
208420.41
208266.71
208000.06
208832.31
208146.03
207815.63
207305.74
207122.06
206143.37
205103.14
205755.07
208867.47
208696.68
208713.11
209978.27
209342.24
209710.96
209978.46
208956.19
209647.05
209347.62
208960.52
208533.07
207752.77
207392.78
207290.87
209488.18
210529.84
210987.11
210744.71
210606.12
210918.32
211167.19
210489.13
209765.36
209999.55
208853.39
209119.98
207663.49
207566.11
207401.94
211399.02
210977.7
211698.13
211338.75
211930.64
212081.69
211408.66
211296.91
211619.99
211056.15
210839
210652.82
210746.48
208158.77
210671.13
212122.44
212077.44
212266.71
211881.28
211903.61
211982.81
211862.47
211242.86
210793.95
210794.53
209802.92
210009.86
208591.69
208748.3
208382.7
211143.61
211707.93
212078.01
212583.1
211637.56
211901.8
210873.09
211503.2
211086.13
210834.35
209949.68
210198.71
209745.01
209246.73
209314.32
211450.86
210930.78
211526.3
210659.54
211284.3
210996.75
210892.46
210009.61
210176.57
209756.59
208634.58
209592.8
208458.11
208296.46
207856.51
210342.71
210212.65
210251.66
210278.42
209378.15
209193.27
209187.45
209182.01
208523.7
208284.07
208095.27
207890.65
206892.66
206412.77
206301.89
207920.06
208156.89
208497.53
208083.6
208095.3
207499.39
207480.07
206803.33
206788.05
206227.66
205755.42
206281.03
205640.12
204148.59
205934.63
206607.46
205632.34
205914.5
205699.66
205218.37
205130.26
204951.17
204566.73
203548.64
204624.03
202989.89
203151.98
201903.61
202578.07
202704.29
203445.5
203290.08
203369.08
203039.56
202485.74
202536.54
201423.1
201241.43
201059.33
200605.39
200121.81
200506.99
200088.74
199201.42
199906.18
200295.76
200254.25
199608.36
199696.54
198773.67
198254.19
198520.2
197970.57
197608.18
197798.31
196615.83
197395.32
196532.18
196557.34
196949.42
197833.17
196246.11
196364.37
195490.93
195345.85
195312.76
194834.99
194359.97
194078.52
193870.74
193790.12
193292.35
192818.61
193235.31
193182.17
193325.38
193184.11
192266.75
192692.18
191358.83
191855.87
190790.26
190730.45
190135.32
190121.95
189504.49
190533.62
189130.88
189627.15
190638.78
190830.83
188844.96
188719.53
188250.57
188037.43
187656.74
186812.8
186706.41
186426.35
186154.74
185861.98
185790.55
185697.46
186599.45
186070.09
186330.38
186141.63
185455.89
184816.8
183758.39
183945.51
183204.27
183147.22
182700.17
182708.67
182283.67
182897.4
182023.25
182482.82
183761.16
184281.03
181741.74
181614.17
181426.95
180756.32
180237.55
179885.69
179644.22
179154.14
178977.2
178586.42
179123.71
178744.43
179635.89
180014.97
180560.36
179303.1
178631.95
178236.37
177178.56
177649.65
176247.62
176409.95
175407.57
176036.28
175524.39
176036.57
175652.65
176583.39
177035.72
178449.35
176166.82
175970.89
175457.49
174628.64
174531.89
173773.67
173633.48
173141.21
173291.43
172758.5
173356.58
173016.41
173911.25
174496.64
175873.22
173969.25
173529.59
173136.71
172209.61
172325.39
171328.1
171441.71
170786.48
171017.52
170522.78
171145.74
170778.96
171908.72
172274.32
173956.31
171994.44
171675.83
171212.04
170402.35
170317.6
169631.23
169545.29
168954.85
169147.2
168682.1
169214.12
169040.61
169908.38
170578.31
172263.72
170695.04
170270.77
169890.44
169116.55
169213.36
168305.53
168334.52
167770.04
167992.97
167465.19
168077.07
167603.21
168807.77
168734.08
170954.63
169957.65
169121.06
169396.89
168028.28
168212.25
167564.42
167388.96
166985.7
167142.51
166454.71
167043.22
166869.54
167455.2
168414.36
170925.24
168816.56
168799.05
168408.94
167974.59
167642.77
167163.13
167027.2
166511.77
166350.13
166141.66
166648.7
166267.23
166882.84
167321.22
169973.59
168706.75
168269.72
168381.4
167308.1
167660.89
166783.19
166920.85
166207.13
166473.53
165820.64
166405.91
165995.31
166343.22
166898.52
170022.01
168314.55
168383.28
168257.89
167608.6
167725.64
167026.24
167041.4
166439.59
166639.62
165936.5
166496
165881.29
166179.18
166625.15
169446.7
168313.84
168240.75
168311.11
167579.86
167815.98
167072.19
167140.98
166502.47
166667.77
165910.82
166350.47
165866.5
165832.74
166340.25
169368.7
168092.24
168278.27
168328.16
167753.46
167914.6
167302.66
167300.65
166676.92
166850.08
166010.25
166478.74
165805.63
165568.36
166059.67
168722.78
167805.48
167961.49
168152.68
167535.88
167812.47
167152.68
167149.52
166560.73
166658.63
165858.74
166205.74
165506.38
165060.13
165597.4
168086.54
167182.62
167508.25
167693.67
167191.96
167443.94
166836.53
166837.27
166223.21
166329.7
165444.75
165730.02
164982.93
164366.4
164869.5
166896.62
166215.45
166530.96
166788.3
166253
166576.91
165977.56
165941.3
165371.98
165410.74
164530.57
164794.39
164006.14
163229.93
163753.91
165393.64
164742.19
165185.08
165407.91
164958.58
165322.38
164732.87
164700.32
164137.52
164140.23
163296.91
163466.41
162643.76
161781.59
162279.29
163277.41
162771.21
163193.55
163444.56
163006.57
163392.05
162801.99
162750.86
162209.71
162213.33
161353.77
161472.35
160684.92
159748.17
160271.14
160730.55
160212.25
160703.25
160938.97
160543.44
160945.65
160370.2
160315.16
159836.09
159776.1
158947.42
159048.24
158263.39
157317.24
157838.35