/*--------------------------------*- C++ -*----------------------------------*\
  =========                 |
  \\      /  F ield         | OpenFOAM: The Open Source CFD Toolbox
   \\    /   O peration     | Website:  https://openfoam.org
    \\  /    A nd           | Version:  6
     \\/     M anipulation  |
\*---------------------------------------------------------------------------*/
FoamFile
{
    version     2.0;
    format      ascii;
    class       pointVectorField;
    location    "1.35";
    object      u;
}
// * * * * * * * * * * * * * * * * * * * * * * * * * * * * * * * * * * * * * //

dimensions      [0 1 0 0 0 0 0];

internalField   nonuniform List<vector> 
28033
(
(0 6.0322351e-19 0)
(0 4.0887973e-18 0)
(-1.8600012 -0.58669879 -0.0021946054)
(-1.9604938 -0.14987475 -0.0030488323)
(0 3.7357208e-18 0)
(0 6.0142848e-18 0)
(-1.9594846 -0.15002395 -0.002971866)
(-1.8590891 -0.58686085 -0.0022910272)
(0 1.3260031e-18 0)
(0 3.8858953e-19 0)
(0 3.1283869e-18 0)
(0 -1.4855016e-18 0)
(0 1.9862143e-18 0)
(0 -1.1611608e-18 0)
(0 -2.7575666e-20 0)
(-9.0329807e-19 -2.9467113e-19 0)
(0 5.4531276e-19 0)
(0 2.681069e-19 0)
(0 -1.025099e-18 0)
(0 9.9233424e-19 0)
(0 1.1940293e-18 0)
(0 -9.6910532e-19 0)
(0 1.2504186e-18 0)
(-1.8662807 -0.55939634 -0.0022517867)
(-1.8725539 -0.53209102 -0.0023044465)
(-1.8788272 -0.50478685 -0.0023600749)
(-1.8850976 -0.47748284 -0.0024099297)
(-1.8913662 -0.45018424 -0.0024656847)
(-1.8976373 -0.42288548 -0.0025165575)
(-1.9039082 -0.39559144 -0.0025722334)
(-1.9101838 -0.36829707 -0.0026249169)
(-1.9164618 -0.34100375 -0.0026787834)
(-1.9227453 -0.31370952 -0.0027320221)
(-1.9290328 -0.28641267 -0.0027847081)
(-1.9353243 -0.25911282 -0.0028364334)
(-1.9416192 -0.23181037 -0.0028910428)
(-1.9479148 -0.20450192 -0.0029431961)
(-1.9542071 -0.17719085 -0.0029967238)
(-0.0035201997 -0.0075308711 -0.0076612917)
(-0.0034989321 -0.010890911 -0.011285352)
(-0.004000497 -0.014811124 -0.013620838)
(-0.0054712349 -0.018872765 -0.01532506)
(-0.0072522756 -0.023059828 -0.016391671)
(-0.0099434669 -0.02747957 -0.017141376)
(-0.013203784 -0.032025183 -0.017634117)
(-0.017163837 -0.036587605 -0.017928996)
(-0.021721106 -0.041357441 -0.018120871)
(-0.026929214 -0.046095286 -0.018230047)
(-0.032688176 -0.050954637 -0.018266881)
(-0.039063343 -0.055843511 -0.018242199)
(-0.045976195 -0.060817666 -0.018250934)
(-0.053511159 -0.065815821 -0.018163928)
(-0.061545143 -0.070884496 -0.018126157)
(-0.070196147 -0.075980192 -0.017991952)
(-0.079365808 -0.081179024 -0.017924631)
(-0.089114251 -0.086353163 -0.017783371)
(-0.099406478 -0.091657491 -0.017639398)
(-0.11024662 -0.09695359 -0.017462341)
(-0.12163531 -0.10235879 -0.017294022)
(-0.13354967 -0.10775679 -0.017063694)
(-0.14600078 -0.11326137 -0.016853858)
(-0.15895795 -0.11878787 -0.016605075)
(-0.17243649 -0.12437267 -0.016340935)
(-0.18639866 -0.13002672 -0.01607152)
(-0.20084677 -0.13570007 -0.015800894)
(-0.21575881 -0.14145951 -0.015517571)
(-0.23114097 -0.14723919 -0.015231474)
(-0.24695176 -0.15309068 -0.0149606)
(-0.26320878 -0.15898255 -0.01468544)
(-0.27987083 -0.16492074 -0.014422097)
(-0.29695538 -0.17092909 -0.014173187)
(-0.31444187 -0.17695704 -0.013933301)
(-0.33232183 -0.18307582 -0.013693142)
(-0.35059911 -0.1892223 -0.013469207)
(-0.36925002 -0.1954412 -0.013257622)
(-0.38829498 -0.20170778 -0.013045073)
(-0.40771152 -0.20802939 -0.012821965)
(-0.42750192 -0.21442613 -0.0126079)
(-0.44766922 -0.22085782 -0.012379893)
(-0.46819792 -0.2273723 -0.012145002)
(-0.48910133 -0.23393056 -0.011890438)
(-0.51036345 -0.24055317 -0.011624357)
(-0.53198049 -0.24722162 -0.011337714)
(-0.5539474 -0.2539473 -0.011033498)
(-0.57625099 -0.26071156 -0.010711446)
(-0.59888697 -0.26752256 -0.010372288)
(-0.62183652 -0.27436277 -0.010019847)
(-0.64509309 -0.28123606 -0.0096565415)
(-0.66863586 -0.28812783 -0.0092870752)
(-0.69245434 -0.2950375 -0.008915991)
(-0.71652808 -0.30195443 -0.0085481828)
(-0.74084341 -0.30887496 -0.0081888179)
(-0.76538153 -0.31579208 -0.0078423406)
(-0.79012734 -0.32270137 -0.0075133955)
(-0.81506454 -0.32959843 -0.0072051986)
(-0.84017877 -0.33648035 -0.0069205288)
(-0.8654562 -0.34334458 -0.0066610461)
(-0.8908857 -0.3501899 -0.0064274165)
(-0.91645537 -0.35701639 -0.006218834)
(-0.94215863 -0.36382433 -0.0060337985)
(-0.96798343 -0.37061469 -0.0058705481)
(-0.99393421 -0.37739034 -0.0057229604)
(-1.0199879 -0.3841519 -0.005595339)
(-1.0461616 -0.39090421 -0.0054692229)
(-1.0724404 -0.39764235 -0.0053565551)
(-1.0988235 -0.40437779 -0.0052426481)
(-1.1253101 -0.41110895 -0.0051223825)
(-1.1518961 -0.41783343 -0.0049999391)
(-1.178581 -0.42455471 -0.0048709815)
(-1.2053602 -0.4312724 -0.0047310376)
(-1.2322292 -0.43798529 -0.0045814186)
(-1.2591841 -0.44468966 -0.0044232353)
(-1.2862175 -0.45138684 -0.00425526)
(-1.313325 -0.45806823 -0.0040822142)
(-1.3404954 -0.46473752 -0.0039040466)
(-1.3677256 -0.47138387 -0.003726562)
(-1.3950002 -0.47801206 -0.0035491204)
(-1.4223183 -0.48460969 -0.00338079)
(-1.4496652 -0.49118407 -0.0032164594)
(-1.4770335 -0.49772453 -0.0030681802)
(-1.5044209 -0.50423622 -0.0029288883)
(-1.5318111 -0.51071297 -0.0028073939)
(-1.5592077 -0.51716153 -0.002699723)
(-1.5865966 -0.5235778 -0.002607817)
(-1.6139873 -0.52996492 -0.0025308089)
(-1.6413583 -0.53632933 -0.0024657749)
(-1.6687308 -0.54266513 -0.0024137582)
(-1.6960787 -0.54898915 -0.002368078)
(-1.723429 -0.55528832 -0.0023336183)
(-1.7507547 -0.56158495 -0.0022981848)
(-1.7780831 -0.56786291 -0.0022729826)
(-1.8053946 -0.57414344 -0.0022417893)
(-1.8326998 -0.58041963 -0.0022180645)
(-0.0024896084 0.0068108576 0.0091317708)
(-0.004901694 0.010374782 0.0097601413)
(-0.0060995199 0.014666515 0.012905115)
(-0.0078371955 0.018670682 0.013814038)
(-0.010631977 0.023078954 0.014891284)
(-0.013832209 0.027726813 0.015417532)
(-0.017835204 0.03209279 0.015808222)
(-0.022467269 0.036763589 0.015952456)
(-0.027877023 0.041268418 0.016026894)
(-0.033842468 0.04578244 0.015999192)
(-0.040586379 0.050254006 0.015905894)
(-0.047889011 0.054628405 0.015783584)
(-0.055914388 0.058948255 0.015607932)
(-0.064531715 0.063156203 0.015441918)
(-0.073825268 0.067260327 0.015222512)
(-0.08371613 0.071249476 0.01502634)
(-0.09426434 0.075100405 0.014782608)
(-0.10540321 0.078810069 0.01455442)
(-0.11717299 0.082381996 0.014306562)
(-0.12953164 0.085768367 0.014055136)
(-0.14248849 0.089003561 0.013785312)
(-0.15602665 0.092055957 0.013527772)
(-0.17012792 0.094912226 0.013244134)
(-0.18478878 0.097587679 0.012969831)
(-0.19998866 0.10005808 0.012685896)
(-0.21571954 0.10232508 0.012393735)
(-0.23195914 0.10439385 0.012116106)
(-0.24869546 0.1062424 0.011818261)
(-0.26591907 0.10789658 0.011537118)
(-0.28360107 0.10932426 0.011241473)
(-0.30174589 0.11056382 0.01095803)
(-0.3203257 0.11158201 0.01067457)
(-0.33934248 0.11240419 0.010394129)
(-0.35877224 0.1130162 0.010117461)
(-0.37861667 0.11343178 0.009842072)
(-0.39885683 0.11364064 0.0095755157)
(-0.41948468 0.11364657 0.0092956225)
(-0.44050188 0.11346351 0.0090313168)
(-0.46188691 0.113071 0.0087589136)
(-0.48364758 0.11248239 0.0084883205)
(-0.50576222 0.11169004 0.008213339)
(-0.52823144 0.11069391 0.0079356251)
(-0.55104081 0.10949229 0.0076514061)
(-0.57418433 0.10808266 0.0073619283)
(-0.59764712 0.10646358 0.0070643807)
(-0.62142145 0.10463293 0.0067587664)
(-0.64548984 0.10259077 0.0064448525)
(-0.66984188 0.10033557 0.0061214981)
(-0.69445957 0.097869649 0.005789914)
(-0.71932872 0.095193608 0.0054496973)
(-0.74443176 0.092311585 0.0051022476)
(-0.76975251 0.089227329 0.0047484955)
(-0.79527312 0.085946796 0.0043900997)
(-0.82097797 0.082476612 0.0040287843)
(-0.84684944 0.078824689 0.0036667252)
(-0.87287313 0.07499947 0.0033061105)
(-0.89903376 0.071010629 0.0029491968)
(-0.92531828 0.066867321 0.0025984784)
(-0.95171447 0.062579927 0.0022560845)
(-0.97821207 0.058157573 0.0019241254)
(-1.0048016 0.053610094 0.0016042665)
(-1.0314756 0.048945609 0.0012984071)
(-1.0582278 0.04417274 0.0010068791)
(-1.0850533 0.039297677 0.00073099834)
(-1.1119481 0.034327449 0.00047027885)
(-1.1389091 0.029265688 0.0002250889)
(-1.1659344 0.024118107 -5.6929235e-06)
(-1.1930226 0.018886169 -0.00022486738)
(-1.220166 0.013573043 -0.00042766865)
(-1.2473682 0.0081792712 -0.00062694972)
(-1.274631 0.0027110103 -0.00081248327)
(-1.3019384 -0.002838571 -0.00099351496)
(-1.3293011 -0.0084592279 -0.001168453)
(-1.356703 -0.014157791 -0.001338909)
(-1.3841475 -0.019925918 -0.0015069646)
(-1.4116235 -0.025765074 -0.0016712143)
(-1.4391279 -0.031670101 -0.0018336371)
(-1.4666526 -0.03763829 -0.0019924868)
(-1.4941915 -0.043664004 -0.0021479611)
(-1.5217369 -0.04974336 -0.0022974476)
(-1.5492841 -0.055869212 -0.0024414525)
(-1.576824 -0.062037192 -0.0025757557)
(-1.6043553 -0.068239181 -0.0027017228)
(-1.6318686 -0.074470799 -0.0028137504)
(-1.6593654 -0.080724063 -0.0029144154)
(-1.6868382 -0.086995291 -0.0029980913)
(-1.7142901 -0.093277208 -0.0030679088)
(-1.7417163 -0.0995676 -0.0031195525)
(-1.7691213 -0.10586058 -0.0031561358)
(-1.796503 -0.11215527 -0.0031757144)
(-1.8238659 -0.11844811 -0.0031807032)
(-1.8512106 -0.12473907 -0.0031716641)
(-1.8785418 -0.13102605 -0.0031514461)
(-1.905861 -0.13731191 -0.0031214898)
(-1.9331768 -0.143593 -0.0030864364)
(0 -1.6634567e-18 0)
(0 -1.2345292e-18 0)
(0 1.1653865e-18 0)
(0 -7.3716978e-19 0)
(0 -6.2978498e-19 0)
(0 3.4740487e-18 0)
(0 -1.0132002e-18 0)
(-2.3179324e-18 6.4792078e-19 0)
(0 -5.8232816e-19 0)
(0 1.4017586e-18 0)
(0 1.6645482e-18 0)
(0 5.8149602e-19 0)
(0 3.0978541e-19 0)
(0 -6.3819058e-19 0)
(0 4.4096985e-19 0)
(-0.0045583444 0.003069271 -0.0067032353)
(-0.0056006913 0.012088243 -0.010341916)
(-0.0059048673 0.013251791 -0.012060476)
(-0.0084152185 0.019766055 -0.014213372)
(-0.010479934 0.022954802 -0.015055931)
(-0.014028422 0.028214907 -0.015772403)
(-0.01773397 0.032295568 -0.016230737)
(-0.02253525 0.037274673 -0.016567708)
(-0.027743004 0.041554288 -0.016746914)
(-0.03378909 0.046362211 -0.016901509)
(-0.04043356 0.050643374 -0.01698746)
(-0.047691625 0.055165727 -0.017024418)
(-0.055686964 0.059452793 -0.017054641)
(-0.064225658 0.063682006 -0.017034843)
(-0.073504929 0.06781484 -0.017027451)
(-0.083327632 0.071762631 -0.016960013)
(-0.093829933 0.075655841 -0.0169387)
(-0.10493196 0.079325154 -0.016825006)
(-0.11666021 0.082880084 -0.016750938)
(-0.12900382 0.086272454 -0.016619719)
(-0.1419104 0.089441048 -0.016498066)
(-0.15544369 0.092512426 -0.016341016)
(-0.16951418 0.095316273 -0.016169184)
(-0.18418011 0.097999854 -0.01599666)
(-0.19935533 0.10040445 -0.015783762)
(-0.21509802 0.10268545 -0.015588776)
(-0.23131798 0.10469861 -0.015364959)
(-0.24806424 0.10656999 -0.015154557)
(-0.26527459 0.10817475 -0.014928784)
(-0.28295696 0.10963214 -0.014720441)
(-0.30110006 0.11083926 -0.014500612)
(-0.31967707 0.11186347 -0.014298295)
(-0.33868118 0.1126778 -0.014095226)
(-0.35810482 0.11329284 -0.013904484)
(-0.37793724 0.11370729 -0.013714645)
(-0.39815126 0.1139048 -0.013537926)
(-0.41876868 0.11393835 -0.013363016)
(-0.43976947 0.11373579 -0.013185789)
(-0.4611368 0.11334858 -0.013012029)
(-0.48287773 0.11275095 -0.012828015)
(-0.50497888 0.11195391 -0.012640318)
(-0.527433 0.11094726 -0.012439161)
(-0.55023399 0.1097356 -0.012226178)
(-0.5733705 0.10831179 -0.011995772)
(-0.59683359 0.10667981 -0.011750237)
(-0.62061029 0.10483408 -0.011485099)
(-0.6446885 0.10277863 -0.011204061)
(-0.66905295 0.10051078 -0.010905238)
(-0.69368797 0.098035203 -0.010593764)
(-0.71857693 0.095352208 -0.010269495)
(-0.74370187 0.092467818 -0.0099389212)
(-0.76904495 0.089384858 -0.0096028778)
(-0.794588 0.086111158 -0.0092686023)
(-0.82031254 0.082651631 -0.0089377582)
(-0.84620168 0.07901572 -0.0086168087)
(-0.87223829 0.075209519 -0.0083076172)
(-0.89840717 0.071243419 -0.0080152339)
(-0.9246946 0.067124468 -0.0077408953)
(-0.95108755 0.062862202 -0.0074870893)
(-0.97757658 0.058464579 -0.0072545966)
(-1.0041516 0.053939552 -0.0070429293)
(-1.0308068 0.049294424 -0.0068514444)
(-1.0575362 0.044536314 -0.0066781673)
(-1.0843358 0.039670454 -0.006520318)
(-1.1112033 0.034702938 -0.0063749839)
(-1.1381374 0.029638377 -0.0062384349)
(-1.1651338 0.024477488 -0.0061062477)
(-1.1922036 0.019233412 -0.005977457)
(-1.2193161 0.013892565 -0.0058468647)
(-1.2465098 0.0084772574 -0.0057116563)
(-1.2737548 0.0029725763 -0.0055693726)
(-1.3010565 -0.0026086537 -0.0054210259)
(-1.3284118 -0.0082682842 -0.0052627683)
(-1.3558153 -0.014001125 -0.0050975285)
(-1.3832612 -0.019805103 -0.0049256662)
(-1.4107427 -0.025676701 -0.0047489772)
(-1.4382531 -0.031611436 -0.0045699147)
(-1.4657847 -0.03760513 -0.0043921361)
(-1.4933286 -0.043652722 -0.0042178182)
(-1.5208785 -0.049749362 -0.0040507453)
(-1.5484255 -0.055888979 -0.00389332)
(-1.5759647 -0.062066847 -0.0037484858)
(-1.6034883 -0.068276609 -0.0036175267)
(-1.6309943 -0.074513664 -0.0035024535)
(-1.6584767 -0.080772036 -0.0034029111)
(-1.6859361 -0.087047958 -0.0033193798)
(-1.7133695 -0.093335891 -0.0032502097)
(-1.7407796 -0.09963345 -0.003194387)
(-1.7681662 -0.10593561 -0.0031494635)
(-1.7955328 -0.11224166 -0.0031133074)
(-1.8228818 -0.11854674 -0.0030837581)
(-1.8502162 -0.12485179 -0.0030581598)
(-1.8775406 -0.13115176 -0.0030353789)
(-1.9048563 -0.13744905 -0.0030135308)
(-1.9321694 -0.14373733 -0.0029931028)
(-1.9532012 -0.17733606 -0.0029254337)
(-1.9469106 -0.20465117 -0.0028786056)
(-1.9406254 -0.23195703 -0.0028314071)
(-1.9343367 -0.25926016 -0.0027874513)
(-1.9280597 -0.28655754 -0.0027429634)
(-1.9217772 -0.3138538 -0.0027022275)
(-1.9155092 -0.34114505 -0.0026600131)
(-1.9092347 -0.36844096 -0.0026205022)
(-1.902977 -0.39573447 -0.002579007)
(-1.8967003 -0.42303291 -0.0025406392)
(-1.8904467 -0.45033111 -0.0024974439)
(-1.8841736 -0.4776377 -0.0024574649)
(-1.8779146 -0.50494212 -0.0024137348)
(-1.8716387 -0.53225456 -0.0023723179)
(-1.8653666 -0.55956026 -0.0023302366)
(-1.8317887 -0.58058253 -0.0023180004)
(-1.8044904 -0.5742999 -0.0023452883)
(-1.7771868 -0.56801209 -0.0023683748)
(-1.7498724 -0.56171346 -0.0023827546)
(-1.7225478 -0.55540488 -0.0023839421)
(-1.6952092 -0.54908137 -0.0023739461)
(-1.667858 -0.54274215 -0.0023475962)
(-1.6404928 -0.53638376 -0.0023069102)
(-1.6131161 -0.53000363 -0.0022502002)
(-1.58573 -0.52360024 -0.0021777781)
(-1.5583377 -0.51716998 -0.0020906938)
(-1.5309448 -0.51071212 -0.0019899716)
(-1.5035556 -0.50422448 -0.001875714)
(-1.4761776 -0.49770554 -0.0017494404)
(-1.4488207 -0.491157 -0.0016143051)
(-1.4214891 -0.48457835 -0.0014707327)
(-1.3941935 -0.4779706 -0.0013216767)
(-1.3669415 -0.47133477 -0.0011675606)
(-1.3397401 -0.46467454 -0.0010094299)
(-1.3125984 -0.45799059 -0.00084894063)
(-1.2855218 -0.45128763 -0.0006856746)
(-1.2585176 -0.44456711 -0.00051984051)
(-1.2315892 -0.43783343 -0.00035076285)
(-1.204744 -0.43108764 -0.00017838857)
(-1.1779814 -0.42433467 -3.4584568e-07)
(-1.1513079 -0.41757568 0.00018247486)
(-1.1247175 -0.41080745 0.00037834893)
(-1.0982658 -0.40404005 0.00056860525)
(-1.0718505 -0.39726617 0.00078390766)
(-1.0455656 -0.39049049 0.0010081849)
(-1.0193747 -0.38370957 0.0012476725)
(-0.99329197 -0.3769247 0.001500362)
(-0.96731991 -0.37013172 0.0017692083)
(-0.94146545 -0.36333092 0.0020542774)
(-0.91573625 -0.3565197 0.0023552017)
(-0.89014014 -0.34969746 0.0026719743)
(-0.86468864 -0.3428623 0.0030037746)
(-0.83939213 -0.33601467 0.0033491697)
(-0.81426469 -0.32915374 0.0037067247)
(-0.78931907 -0.32228131 0.0040746791)
(-0.76457135 -0.31539828 0.0044506673)
(-0.74003588 -0.30850818 0.0048326101)
(-0.71572962 -0.30161358 0.0052180077)
(-0.69166745 -0.29471974 0.0056045225)
(-0.66786621 -0.28783073 0.0059896523)
(-0.64433992 -0.28095322 0.0063715923)
(-0.62110437 -0.27409206 0.0067477822)
(-0.59817149 -0.26725481 0.007117259)
(-0.5755555 -0.26044632 0.0074782045)
(-0.55326496 -0.25367441 0.0078298953)
(-0.53131313 -0.24694261 0.0081719341)
(-0.50970297 -0.24025949 0.0085041216)
(-0.48845038 -0.23362378 0.0088264801)
(-0.46754782 -0.22704891 0.0091432025)
(-0.44702131 -0.22052388 0.0094446967)
(-0.42685088 -0.21406888 0.0097495182)
(-0.40705041 -0.20767338 0.010043709)
(-0.38762841 -0.20131924 0.010336862)
(-0.36862216 -0.19504576 0.010619227)
(-0.34993263 -0.18884591 0.010920005)
(-0.33166906 -0.18266139 0.011213325)
(-0.31382044 -0.1765734 0.011503695)
(-0.29633398 -0.17053069 0.01179884)
(-0.27926116 -0.16453736 0.012103849)
(-0.26260943 -0.15856683 0.012416037)
(-0.2464049 -0.15269715 0.012728423)
(-0.23059574 -0.14683341 0.013033309)
(-0.21528181 -0.14104236 0.013348673)
(-0.20037794 -0.13529455 0.013673479)
(-0.18596898 -0.12958707 0.013983787)
(-0.17203453 -0.12394024 0.014297319)
(-0.15858297 -0.1183031 0.014603928)
(-0.14568349 -0.11275156 0.014901652)
(-0.13322752 -0.10726717 0.015196499)
(-0.12132775 -0.10177566 0.015483683)
(-0.1099852 -0.096388823 0.015741421)
(-0.099116135 -0.0910386 0.016027033)
(-0.088872136 -0.085731429 0.016243767)
(-0.07909143 -0.080530395 0.016508935)
(-0.069941629 -0.07529412 0.016708988)
(-0.061317679 -0.070226735 0.016934849)
(-0.053235247 -0.065123465 0.017084542)
(-0.045694443 -0.060171738 0.017307445)
(-0.0388232 -0.055112048 0.017395583)
(-0.032406875 -0.050392867 0.017565639)
(-0.026645593 -0.045465511 0.01757978)
(-0.021455688 -0.040767964 0.017604281)
(-0.016944465 -0.036069428 0.017450559)
(-0.012923292 -0.031547698 0.017256655)
(-0.009712252 -0.027058953 0.016808129)
(-0.0070566678 -0.022619912 0.016034504)
(-0.0054590897 -0.018254614 0.014920994)
(-0.0041324961 -0.014771609 0.013435571)
(-0.003922838 -0.010279497 0.010146977)
(-0.0058702701 -0.0070310103 0.0054208597)
(0 1.8740539e-18 0)
(0 7.1230824e-19 0)
(0 1.8488068e-18 0)
(0 1.8611267e-18 0)
(0 1.9397446e-18 0)
(0 1.16653e-18 0)
(0 4.6502921e-20 0)
(0 -1.0570193e-18 -1.1597879e-18)
(0 1.2516504e-19 0)
(0 1.1252765e-18 0)
(0 2.7134044e-18 0)
(0 2.3775082e-18 0)
(0 1.7018589e-18 0)
(0 1.6447143e-18 0)
(0 1.8781304e-18 0)
(0 7.7218384e-18 0)
(0 3.2878562e-18 0)
(0 1.2065497e-18 0)
(0 2.177761e-18 0)
(0 -1.896025e-19 0)
(0 5.0760486e-19 0)
(0 5.7841297e-18 0)
(0 -2.3537813e-18 -1.0206729e-18)
(0 3.4404584e-18 0)
(0 4.3009352e-18 0)
(0 1.4213141e-18 0)
(0 5.8177298e-19 0)
(0 1.3503454e-18 0)
(0 2.4345817e-18 0)
(0 3.1315213e-19 0)
(-1.9604296 -0.14988538 -0.0030533421)
(-1.9603653 -0.14988773 -0.003050665)
(-1.9603 -0.14989317 -0.0030436175)
(-1.9602311 -0.14990086 -0.0030344494)
(-1.9601609 -0.14991037 -0.0030228733)
(-1.9600884 -0.14992344 -0.003011597)
(-1.9600153 -0.14993779 -0.0030003128)
(-1.9599439 -0.14995332 -0.0029903307)
(-1.9598744 -0.14996901 -0.0029819226)
(-1.9598085 -0.14998384 -0.0029754056)
(-1.9597462 -0.14999649 -0.002970967)
(-1.9596886 -0.1500078 -0.0029679736)
(-1.9596344 -0.15001662 -0.0029677247)
(-1.9595834 -0.15002069 -0.002966718)
(-1.9595354 -0.15002557 -0.0029714189)
(-1.8599394 -0.58669515 -0.0021914012)
(-1.8598716 -0.58669461 -0.0021901429)
(-1.8598051 -0.58669716 -0.0021914388)
(-1.8597383 -0.58670223 -0.002193618)
(-1.8596731 -0.58671174 -0.0021978671)
(-1.8596092 -0.58672422 -0.0022036406)
(-1.8595474 -0.58674022 -0.0022118947)
(-1.8594881 -0.58675845 -0.0022215716)
(-1.8594315 -0.58677813 -0.0022331662)
(-1.8593774 -0.58679747 -0.0022455328)
(-1.8593261 -0.58681538 -0.0022582566)
(-1.8592766 -0.58682996 -0.0022705268)
(-1.8592293 -0.58684147 -0.0022804302)
(-1.8591821 -0.58684733 -0.0022890818)
(-1.8591362 -0.58685321 -0.0022910897)
(-0.0018920529 -0.008486078 -0.0077294831)
(-0.0026670108 -0.013252284 -0.0094826437)
(-0.0032988621 -0.019043755 -0.011838437)
(-0.0051493764 -0.024366206 -0.012979927)
(-0.0069154662 -0.029735499 -0.014180301)
(-0.0098807487 -0.035223983 -0.014801245)
(-0.013122878 -0.040689375 -0.015344223)
(-0.017313529 -0.046366552 -0.015629981)
(-0.021823519 -0.051914382 -0.015887404)
(-0.027122081 -0.057648793 -0.016010753)
(-0.032879803 -0.063230534 -0.016077525)
(-0.039277774 -0.068976323 -0.016133973)
(-0.04615941 -0.074528099 -0.016119742)
(-0.053631967 -0.080211944 -0.0161155)
(-0.061612111 -0.085711453 -0.016067354)
(-0.070182218 -0.091296768 -0.016024026)
(-0.07926538 -0.096733491 -0.015934115)
(-0.088872633 -0.10218213 -0.015863824)
(-0.099065514 -0.10753175 -0.015747482)
(-0.10977637 -0.11286337 -0.015620229)
(-0.12102719 -0.1181076 -0.015478196)
(-0.13281887 -0.12329437 -0.015315646)
(-0.14514959 -0.12845209 -0.015121532)
(-0.15797927 -0.13350865 -0.014934651)
(-0.17136305 -0.13853327 -0.014708393)
(-0.18522828 -0.14348814 -0.014483686)
(-0.19960613 -0.1483921 -0.014241034)
(-0.21445894 -0.15322609 -0.014002262)
(-0.2298126 -0.15800888 -0.013751914)
(-0.24561323 -0.16274456 -0.013503634)
(-0.26188268 -0.16740808 -0.013260259)
(-0.27859951 -0.17203956 -0.013018983)
(-0.29575825 -0.17661383 -0.012792442)
(-0.3133422 -0.18114252 -0.012566798)
(-0.33135916 -0.18564109 -0.01235375)
(-0.3497996 -0.19009234 -0.012145236)
(-0.36864781 -0.19453546 -0.011941449)
(-0.38791397 -0.19893448 -0.011743842)
(-0.40759845 -0.2033468 -0.011539781)
(-0.42768214 -0.20773657 -0.011340807)
(-0.44818112 -0.21213426 -0.011134754)
(-0.46907704 -0.21653185 -0.010912082)
(-0.49037246 -0.22096079 -0.010683097)
(-0.51206681 -0.2254025 -0.010436783)
(-0.53413916 -0.2298808 -0.010173967)
(-0.55659168 -0.23439371 -0.0098962759)
(-0.57940735 -0.23894744 -0.0096004875)
(-0.60257476 -0.24354885 -0.0092922857)
(-0.62607712 -0.24819789 -0.0089708151)
(-0.64989857 -0.2529007 -0.0086419794)
(-0.67401818 -0.2576569 -0.0083080457)
(-0.69841792 -0.26246948 -0.0079751917)
(-0.72307523 -0.2673393 -0.0076464764)
(-0.74797061 -0.27226748 -0.0073281246)
(-0.77308192 -0.27725542 -0.0070231928)
(-0.79839013 -0.28230438 -0.0067363827)
(-0.8238753 -0.28741669 -0.0064699124)
(-0.84952038 -0.29259443 -0.0062263641)
(-0.87530895 -0.29784099 -0.0060066069)
(-0.90122714 -0.30316021 -0.0058105576)
(-0.92726232 -0.30855648 -0.0056371389)
(-0.95340425 -0.31403518 -0.0054846927)
(-0.97964401 -0.31960128 -0.0053500609)
(-1.0059766 -0.32526079 -0.0052315927)
(-1.0323879 -0.3310202 -0.0051208063)
(-1.0588926 -0.33688438 -0.0050198797)
(-1.0854651 -0.34286627 -0.0049221436)
(-1.1121071 -0.34895352 -0.0048255541)
(-1.138821 -0.35516438 -0.0047260009)
(-1.1656 -0.3614944 -0.0046215224)
(-1.1924387 -0.36795325 -0.0045079595)
(-1.2193347 -0.37453641 -0.0043870766)
(-1.2462805 -0.38124653 -0.0042571195)
(-1.2732706 -0.38808021 -0.0041204343)
(-1.3002983 -0.39503597 -0.0039767068)
(-1.3273564 -0.40210847 -0.0038300848)
(-1.3544358 -0.40929579 -0.0036802088)
(-1.3815306 -0.41658857 -0.0035320955)
(-1.4086301 -0.42398595 -0.0033861062)
(-1.4357306 -0.43147516 -0.0032475239)
(-1.46282 -0.43905719 -0.003114678)
(-1.4898955 -0.44671783 -0.0029942506)
(-1.5169522 -0.45445651 -0.0028827969)
(-1.5439807 -0.46226295 -0.0027860555)
(-1.5709841 -0.47013271 -0.002698272)
(-1.5979566 -0.47806104 -0.0026248614)
(-1.6249002 -0.48604218 -0.0025608308)
(-1.6518108 -0.49406816 -0.0025074271)
(-1.6786948 -0.50213932 -0.002461804)
(-1.7055483 -0.51024511 -0.0024232024)
(-1.732381 -0.51838486 -0.0023891516)
(-1.759187 -0.52655275 -0.0023581871)
(-1.785981 -0.5347413 -0.0023304949)
(-1.8127545 -0.5429501 -0.0023015216)
(-1.8395188 -0.55116923 -0.0022755709)
(-0.00026739457 -0.0094765655 -0.0065298779)
(-0.0010413385 -0.014033885 -0.0086885076)
(-0.0028921325 -0.021962331 -0.0099693834)
(-0.0044007633 -0.02775974 -0.011457041)
(-0.006830398 -0.034624339 -0.012156272)
(-0.0096603614 -0.040930598 -0.012789612)
(-0.013282962 -0.047586243 -0.013174748)
(-0.01728414 -0.053992307 -0.013509888)
(-0.022047824 -0.060482688 -0.013747008)
(-0.02729526 -0.066854951 -0.013839402)
(-0.03312041 -0.073212221 -0.014004751)
(-0.039476382 -0.079448662 -0.013989344)
(-0.046371944 -0.08564131 -0.014084911)
(-0.053800473 -0.091666325 -0.014035214)
(-0.061744519 -0.097633204 -0.014085386)
(-0.070252736 -0.10342295 -0.013986463)
(-0.079224964 -0.10912029 -0.014009876)
(-0.088804649 -0.11463129 -0.013904611)
(-0.098858186 -0.12003777 -0.013860711)
(-0.10948675 -0.12524678 -0.013744369)
(-0.12062734 -0.13034165 -0.013657265)
(-0.13232432 -0.13525376 -0.013503696)
(-0.14453887 -0.14002326 -0.01338032)
(-0.15729928 -0.14462492 -0.013204638)
(-0.17058013 -0.14907028 -0.01303785)
(-0.18438728 -0.15337124 -0.012834939)
(-0.19870777 -0.15750158 -0.012645867)
(-0.21353534 -0.16148953 -0.012430304)
(-0.22886075 -0.16532447 -0.012219211)
(-0.24467842 -0.16901645 -0.01199938)
(-0.26097594 -0.17256357 -0.011791507)
(-0.27774865 -0.17597562 -0.011576213)
(-0.29498097 -0.17925866 -0.011370897)
(-0.31267626 -0.18241397 -0.01117119)
(-0.3308254 -0.18546072 -0.010976152)
(-0.34942079 -0.18839983 -0.010789199)
(-0.36847147 -0.19124574 -0.010608207)
(-0.38796035 -0.1940071 -0.010430622)
(-0.40788288 -0.19669017 -0.010252493)
(-0.42824405 -0.19932633 -0.010074413)
(-0.44904382 -0.20190615 -0.009882971)
(-0.47026673 -0.20447055 -0.0096939534)
(-0.49192945 -0.20700895 -0.0094803546)
(-0.51399859 -0.20955219 -0.0092676995)
(-0.53648493 -0.21210996 -0.0090309482)
(-0.55936964 -0.21469504 -0.0087854655)
(-0.58263919 -0.21731974 -0.0085228856)
(-0.60627804 -0.21999876 -0.0082503957)
(-0.63026778 -0.22273993 -0.0079656795)
(-0.65458672 -0.22555653 -0.0076767943)
(-0.67921293 -0.22845505 -0.0073833175)
(-0.70412295 -0.23144612 -0.0070929175)
(-0.72929151 -0.23453604 -0.0068074994)
(-0.75469499 -0.23773266 -0.0065332849)
(-0.78030842 -0.24104308 -0.0062725086)
(-0.80610916 -0.24447416 -0.0060297496)
(-0.83207477 -0.24803316 -0.005806377)
(-0.85818574 -0.25172747 -0.0056049616)
(-0.88442298 -0.25556527 -0.0054250665)
(-0.91077149 -0.25955465 -0.005266923)
(-0.9372161 -0.26370461 -0.0051289751)
(-0.96374599 -0.26802463 -0.0050087778)
(-0.99035099 -0.27252242 -0.004904754)
(-1.0170209 -0.27721108 -0.0048108511)
(-1.0437518 -0.28209611 -0.0047262651)
(-1.0705366 -0.28719297 -0.0046492684)
(-1.0973585 -0.2924934 -0.0045729106)
(-1.1242361 -0.29801991 -0.0044948826)
(-1.1511518 -0.30377699 -0.0044077363)
(-1.1781008 -0.30976541 -0.0043196092)
(-1.2050769 -0.31599368 -0.0042210265)
(-1.2320744 -0.32245647 -0.0041183697)
(-1.2590859 -0.32915965 -0.0040071626)
(-1.2861066 -0.33609708 -0.0038915509)
(-1.3131278 -0.34326948 -0.0037700198)
(-1.3401427 -0.35066783 -0.0036468104)
(-1.3671425 -0.35829101 -0.0035206234)
(-1.3941215 -0.36612564 -0.0033981794)
(-1.4210703 -0.3741705 -0.0032763033)
(-1.447985 -0.38240728 -0.0031628339)
(-1.4748573 -0.39083712 -0.0030525541)
(-1.5016847 -0.39943692 -0.0029545065)
(-1.5284651 -0.40820752 -0.0028634377)
(-1.5551904 -0.41712688 -0.0027794504)
(-1.5818684 -0.42619783 -0.0027081216)
(-1.6084907 -0.43539386 -0.0026476186)
(-1.6350655 -0.44471197 -0.0025949618)
(-1.6615861 -0.45414077 -0.0025488598)
(-1.6880688 -0.46366517 -0.0025105014)
(-1.7145025 -0.47327824 -0.0024740925)
(-1.7409084 -0.48296359 -0.0024447679)
(-1.7672738 -0.49271432 -0.0024128522)
(-1.793623 -0.50251248 -0.0023880669)
(-1.8199425 -0.51235104 -0.0023572094)
(-1.846253 -0.5222144 -0.0023315646)
(0.00057050711 -0.0090843722 -0.005846572)
(-0.00053370597 -0.015112324 -0.0071808444)
(-0.0015819973 -0.022816726 -0.0086332845)
(-0.0037552225 -0.029743248 -0.0096443968)
(-0.0061416455 -0.036872034 -0.010211193)
(-0.0094112748 -0.044010936 -0.010668895)
(-0.012882117 -0.050935322 -0.011082252)
(-0.017248027 -0.057929373 -0.011347479)
(-0.021951466 -0.064647708 -0.011507051)
(-0.027298998 -0.07150435 -0.011696095)
(-0.033127199 -0.07800116 -0.011761049)
(-0.039539868 -0.084595969 -0.011869637)
(-0.04642122 -0.090837134 -0.011881711)
(-0.053850581 -0.097101647 -0.011952212)
(-0.061801251 -0.10305634 -0.011911142)
(-0.070241407 -0.10891107 -0.011967644)
(-0.079253813 -0.11452325 -0.011906359)
(-0.088745301 -0.11995782 -0.011901367)
(-0.098797194 -0.12517224 -0.011839675)
(-0.1093653 -0.1301675 -0.011794248)
(-0.12048706 -0.13496165 -0.011702483)
(-0.13213032 -0.13950398 -0.011624377)
(-0.14432965 -0.1438574 -0.011505413)
(-0.15704811 -0.14795514 -0.011386954)
(-0.17031998 -0.15186252 -0.011241594)
(-0.18410901 -0.15552182 -0.011094249)
(-0.19843708 -0.15898398 -0.010930146)
(-0.21327144 -0.1622217 -0.010755841)
(-0.22863394 -0.16525654 -0.010581642)
(-0.24449073 -0.16807909 -0.010401504)
(-0.26085391 -0.17071039 -0.010219904)
(-0.27770061 -0.17314741 -0.010038337)
(-0.29503909 -0.17540313 -0.0098659891)
(-0.31285044 -0.17748306 -0.0096935467)
(-0.33113892 -0.17940403 -0.0095280369)
(-0.34988989 -0.18116994 -0.009369741)
(-0.36909999 -0.18279845 -0.0092147189)
(-0.38876607 -0.18429858 -0.0090639398)
(-0.40891485 -0.18570898 -0.0089113373)
(-0.42951788 -0.18701368 -0.0087495442)
(-0.45056703 -0.18826594 -0.0085954489)
(-0.47207343 -0.18945464 -0.0084207687)
(-0.49402001 -0.19061576 -0.0082516527)
(-0.51640493 -0.19176505 -0.0080614851)
(-0.53921865 -0.1929203 -0.0078610545)
(-0.56244229 -0.19410193 -0.0076499357)
(-0.58606613 -0.19532796 -0.0074247545)
(-0.61006914 -0.19661658 -0.0071902543)
(-0.63443169 -0.19798226 -0.0069475135)
(-0.65912959 -0.19944182 -0.0067003418)
(-0.68413946 -0.20100816 -0.0064507564)
(-0.70943347 -0.20269487 -0.0062051556)
(-0.73498596 -0.20451339 -0.0059648105)
(-0.76076929 -0.20647558 -0.0057357888)
(-0.78675733 -0.20859206 -0.0055197702)
(-0.81292459 -0.21087332 -0.0053206762)
(-0.83924752 -0.21333018 -0.005139794)
(-0.86570397 -0.21597314 -0.0049786587)
(-0.89227451 -0.2188133 -0.0048369362)
(-0.91894174 -0.22186184 -0.0047147213)
(-0.94569034 -0.22513037 -0.0046095277)
(-0.97250801 -0.22863047 -0.004520109)
(-0.99938288 -0.23237426 -0.0044428878)
(-1.0263059 -0.23637434 -0.004374366)
(-1.053272 -0.24063978 -0.0043143519)
(-1.0802649 -0.24518073 -0.0042549765)
(-1.1072949 -0.2500245 -0.0041997883)
(-1.1343368 -0.25513999 -0.0041324232)
(-1.1614083 -0.2605624 -0.0040767419)
(-1.1884765 -0.26630233 -0.0040055554)
(-1.2155541 -0.27235083 -0.0039304889)
(-1.2426235 -0.27871535 -0.0038493831)
(-1.2696864 -0.28539753 -0.0037598584)
(-1.2967316 -0.29239078 -0.0036667697)
(-1.3237531 -0.29969362 -0.0035674295)
(-1.3507417 -0.30729973 -0.0034678756)
(-1.3776909 -0.31520255 -0.003366401)
(-1.4045941 -0.32339099 -0.0032677107)
(-1.4314438 -0.33185834 -0.003170843)
(-1.4582359 -0.34058895 -0.0030798911)
(-1.4849652 -0.34957591 -0.0029934319)