/*--------------------------------*- C++ -*----------------------------------*\
  =========                 |
  \\      /  F ield         | OpenFOAM: The Open Source CFD Toolbox
   \\    /   O peration     | Website:  https://openfoam.org
    \\  /    A nd           | Version:  6
     \\/     M anipulation  |
\*---------------------------------------------------------------------------*/
FoamFile
{
    version     2.0;
    format      ascii;
    class       pointScalarField;
    location    "1.92";
    object      p;
}
// * * * * * * * * * * * * * * * * * * * * * * * * * * * * * * * * * * * * * //

dimensions      [1 -1 -2 0 0 0 0];

internalField   nonuniform List<scalar> 
3969
(
197968.21
-409267.72
307.86657
811.46734
576034.51
-543642.33
1127.3804
-435.3567
195183.92
115351.09
45106.938
-39877.744
-97723.804
-186342.18
-194770.16
-1196.4392
-1934.3203
-1763.4229
-604.94987
786.77574
1656.509
1413.4933
75589.476
83161.551
89442.236
94785.769
98913.502
100737.54
105303.45
104522.51
107823.03
107613.64
109007.98
109350.29
110161.17
110005.65
110451.14
110415.71
110235.13
110112.11
109520.99
109037.36
108076.81
107029.53
105819.75
104654.65
102486.65
100296.95
97588.826
94968.054
91780.317
88329.617
84262.405
80033.303
75271.165
70069.992
64804.763
59140.958
52987.753
46806.5
40274.031
34220.889
27819.604
21790.245
16273.788
10621.028
6577.7293
2845.0187
314.35776
-92528.303
-92280.415
-105338.64
-103458.5
-111107.43
-110090.2
-111726.21
-111473.59
-111644.49
-111653.38
-111088.82
-111095.66
-110092.2
-110468.49
-109112.07
-108646.88
-107415.71
-105981.28
-105269.86
-102984.01
-101920.19
-99471.495
-97657.148
-94666.775
-92607.576
-88567.265
-85943.881
-80948.169
-77788.475
-73195.312
-69368.74
-64712.048
-60175.574
-55230.314
-50304.432
-45216.453
-40097.012
-34753.107
-29838.631
-24519.088
-19758.847
-15524.816
-11303.304
-7736.5294
-4392.8911
-1798.5154
-163.862
461744.82
372067.33
221239.22
77025.862
-34884.302
-186656.36
-172811.74
-77836.117
-96364.743
-68954.564
-101574.83
-87646.509
-99166.377
-94840.089
-102008.5
-96701.907
-102990.3
-106511.98
-101804.8
-108446.04
-103871.36
-108843.39
-104588.45
-107955.3
-104785.83
-106298.23
-103759.71
-104193.06
-102033.69
-101642.72
-99348.495
-98573.033
-96776.803
-94703.477
-91389.616
-89179.008
-85514.807
-81853.113
-77491.355
-72746.494
-67774.776
-62561.398
-56800.909
-49845.174
-44512.432
-38574.898
-32195.44
-26124.13
-20364.162
-14901.883
-9866.2923
-5569.4115
-2014.0894
539.22402
2280.7236
1474.9227
1865.3237
-964.26921
-1305.0737
-1790.266
-1941.4761
1128.5663
2787.3168
5228.3639
9322.5621
13680.77
18795.279
24165.825
29898.212
35983.217
41635.371
46109.295
56552.729
60307.154
66282.06
72272.26
77908.492
82987.203
88188.904
92760.153
97332.441
101189.13
105271.56
108409.54
112450.83
114342.57
117978.99
119339.37
122358.91
123127.6
125535.58
125959.9
127061.91
126026.29
128786.92
132869.6
128975.93
130548.18
129992.74
128641.04
130548.86
131832.15
127183.87
129458.73
124478.23
118171.89
117748.14
116421.47
183448.02
207913.57
232176.1
238342.96
242713.64
258950.69
211758.88
-314634.41
-370018.29
-403066.29
-411063.76
-365178.25
-339330.52
-235687.32
251.84176
681.02452
990.56196
1521.8361
1532.4602
1288.9891
1211.0442
-445.23013
-957.59852
-892.45529
-1126.2681
-560.31082
236.74231
-167.40633
61414.972
61521.704
67797.922
72627.298
75286.909
79050.043
79587.504
82376.808
82429.609
84429.75
84087.611
85570.03
85963.22
87123.944
86997.025
87707.548
87326.115
87696.121
86905.005
86792.657
85799.944
85251.547
84004.614
83054.115
81647.575
80074.971
77899.547
75814.282
73244.825
70319.525
67183.892
63737.373
59813.404
55786.61
51446.37
46659.55
41710.019
36878.583
31886.142
27149.114
22043.672
17781.79
13192.889
9536.6859
6223.3142
2989.6749
633.70653
33982.826
30626.814
37157.345
40895.098
43672.944
48300.978
49843.2
51329.678
52668.84
53750.924
54708.551
55381.62
55302.461
55764.331
55788.666
56087.613
55990.633
56237.537
55798.791
55637.608
54999.749
54421.037
53786.815
53112.483
52218.307
51573.662
50797.146
49220.176
48041.519
46437.411
44643.212
42649.379
40335.428
37944.811
35204.513
32385.313
29384.819
26379.565
23028.197
19851.197
16432.034
13502.662
10192.775
7487.8494
4945.4471
2356.9065
424.20088
8595.4195
9293.6891
13045.66
15631.483
17131.662
21344.415
22255.33
23870.254
24282.174
25142.035
25254.377
26283.703
26085.633
26119.794
25496.315
26444.368
26360.322
27140.185
26819.394
27696.02
27586.069
28596.052
28050.101
28565.899
28501.023
28400.07
27848.553
27894.456
27210.297
26682.331
25702.346
24833.626
23530.449
22274.83
20755.561
19107.297
17272.771
15378.393
13217.556
11470.59
9330.4282
7757.5468
5532.4447
4345.9206
2707.8774
1329.3817
306.4005
-13417.502
-17693.976
-14731.15
-13577.05
-13492.821
-11690.115
-10765.296
-10235.288
-8392.8839
-8377.4057
-6507.6933
-6854.5128
-6073.6485
-5524.6529
-5264.723
-4015.0299
-4213.863
-3239.6146
-3246.2606
-2590.5685
-2682.2414
-2758.5946
-3231.5704
-2130.8236
-1905.4812
-1110.3598
-469.61416
310.85849
861.06393
1593.4874
2043.5856
2722.3846
2990.2425
3465.2199
3663.6331
3947.623
3874.8012
3872.0805
3985.7535
4021.1936
3627.8521
3344.8513
2600.6725
2354.3535
1429.8121
948.81069
497.56483
-40055.045
-38824.462
-36623.378
-38282.687
-38321.09
-37967.021
-37929.21
-37714.724
-37609.687
-36386.851
-36399.25
-35673.56
-35193.886
-34307.078
-33869.584
-32668.969
-32799.31
-31264.055
-31368.979
-30043.897
-29022.629
-26474.062
-25611.677
-23389.016
-22594.612
-21669.202
-20364.889
-18382.151
-17280.643
-15578.745
-14278.713
-12624.623
-11380.131
-9843.5303
-8495.0516
-7229.4074
-6127.7073
-4871.1716
-4912.8366
-4150.9011
-3490.981
-2659.4316
-2265.8559
-1466.0324
-1324.3971
-447.10915
280.57923
-63675.965
-64384.559
-64502.296
-68092.272
-69413.417
-69750.248
-69740.703
-69661.367
-69207.865
-68319.747
-68092.331
-67159.444
-67538.05
-66607.233
-66506.225
-65057.318
-64991.061
-63235.914
-63250.643
-61237.792
-60120.707
-58080.837
-55078.381
-52105.357
-50268.787
-47424.198
-45940.879
-43175.65
-40910.927
-38277.705
-35836.786
-33108.575
-30419.084
-27640.907
-24937.145
-22053.921
-19283.367
-16646.689
-14115.662
-12067.387
-9778.7806
-7568.9518
-5559.8588
-3589.2264
-2170.5622
-725.78852
368.70027
-96371.202
-76830.951
-88125.567
-91415.946
-93842.457
-95411.842
-95696.985
-96902.96
-96240.704
-96504.672
-96521.103
-96060.535
-95238.763
-95498.002
-93551.682
-93649.002
-91285.49
-91712.136
-88801.99
-88812.005
-86141.847
-85097.966
-82347.97
-80803.621
-78061.503
-75180.476
-73364.553
-69598.767
-66111.963
-62514.117
-58778.867
-54771.744
-50607.659
-46390.16
-41961.082
-37518.119
-32969.46
-28719.38
-24452.344
-19680.706
-15804.268
-12058.283
-8997.2004
-5970.5205
-3876.9171
-1745.057
-247.20355
149189.23
150755.11
165261.06
171507.45
176995.66
184000.23
172719.33
93142.426
108550.84
112355.11
120541.43
128770
139034.15
136534.49
40804.08
56300.178
57793.733
70182.416
74238.719
83422.491
83505.289
-10939.433
-15033.851
-4567.3941
6179.732
13045.241
18718.914
38990.634
-58154.426
-48819.694
-42380.781
-30134.845
-24828.022
-15017.491
313.19965
-127114.85
-133530.64
-119001.78
-115306.26
-108476
-99283.675
-85881.037
-158342.47
-131456.28
-113658.63
-109977.68
-96279.443
-84818.063
-87021.827
-139130.92
-134938.26
-146444.07
-145284.64
-142741.01
-135021.88
-100501.54
-121793.38
-134744.61
-130187.82
-129324.39
-131129.78
-120576.63
-106881.07
-100873.19
-105446.94
-108497.13
-106528.74
-103472.71
-93421.71
-96980.234
-112668.09
-119074.72
-113913.06
-116483.57
-109247.89
-105283.95
-94878.618
-112506.44
-111648.63
-110893.34
-108339.72
-106673.38
-98380.896
-98171.616
-114647.57
-110516.51
-109074.87
-107582.17
-103983.45
-99007.351
-95421.569
-113240.74
-111914.69
-109977.19
-108284.68
-104476.86
-101479.76
-99190.006
-114754.72
-110565.64
-107877.74
-106775.81
-103772.37
-101613.04
-98444.985
-114420.45
-111931.02
-109843.12
-106668.87
-105161.41
-101730.76
-100923.75
-114811.42
-111261.23
-109054.19
-108135.18
-105442.21
-102172.07
-100380.54
-114517.63
-112220.17
-109323.2
-107965.93
-104845.66
-101089.32
-103139.81
-114204.99
-111804.52
-109629.95
-108646.67
-106435.89
-101071.84
-103221.62
-113978.56
-111138.52
-110583.25
-108040.96
-106530.3
-102794.16
-103258.27
-112997.47
-110909.87
-110100.04
-107016.12
-107096.97
-101825.1
-103697.15
-113127.51
-110056.07
-110279.76
-107310.2
-106905.85
-102767.06
-103898.08
-111696.14
-109241.94
-109693.75
-106220.22
-106844.14
-101916.47
-103704.14
-110992.47
-108621.27
-109181.75
-105828.93
-106633.8
-102188.39
-103590.85
-109541.28
-107440.83
-108385.43
-104926.43
-106053.97
-101119.06
-102980.64
-108485.79
-106626.41
-107638.78
-104195.25
-105478.74
-101042.6
-103097.51
-106808.37
-104918.8
-106305.23
-102896.38
-104544.95
-99891.307
-102061.5
-105357.31
-103737.91
-105049.25
-101927.52
-103491.96
-99259.049
-101559.97
-103422.06
-101565.29
-103371.72
-100189.61
-102120.65
-97775.771
-100252.49
-101446.71
-100052.25
-101659.55
-98770.745
-100330.82
-96610.565
-99024.934
-98989.585
-97767.128
-99185.26
-96373.771
-98779.742
-94963.979
-97725.333
-96081.365
-96135.033
-95801.993
-95281.043
-95972.399
-93395.136
-95751.592
-92843.746
-93169.679
-92124.829
-93627.951
-93704.319
-92258.941
-93938.357
-90062.818
-90296.218
-89717.69
-90388.861
-90784.272
-89246.956
-91813.164
-87207.591
-86740.906
-86663.297
-87175.665
-87327.016
-86689.561
-88229.594
-82916.135
-82863.265
-82937.631
-83367.145
-83559.676
-83756.627
-84733.389
-78935.578
-78797.269
-79311.244
-79516.087
-80148.989
-80132.765
-80965.117
-74427.429
-74735.273
-74913.8
-75368.045
-75850.061
-76076.921
-77002.577
-69897.396
-70098.848
-70383.344
-70864.447
-71438.882
-71798.294
-72724.687
-64884.467
-65265.482
-65515.404
-66102.767
-66678.484
-67184.848
-68101.543
-59744.821
-60170.552
-60419.598
-61046.98
-61536.967
-62178.662
-63016.995
-54418.294
-54849.605
-55106.608
-55667.855
-56198.839
-57102.829
-57949.396
-48858.604
-49419.456
-49537.78
-50271.518
-50658.881
-51183.01
-52231.411
-43362.976
-43427.295
-43865.69
-43952.521
-45004.523
-46232.558
-46860.809
-37941.939
-38397.95
-38172.849
-38953.123
-39047.407
-39862.718
-40574.445
-32072.678
-32144.742
-32223.773
-32651.267
-33029.778
-34115.086
-34715.257
-26586.274
-26656.834
-26744.726
-26937.624
-27256.531
-28340.335
-29029.984
-21080.15
-21247.92
-21039.482
-21202.159
-21573.458
-22644.276
-23117.122
-16209.572
-16178.157
-15766.416
-16118.702
-16164.698
-17244.187
-17700.764
-11395.451
-11177.234
-10773.401
-10949.956
-10884.562
-12116.504
-12484.716
-7460.7936
-7100.0516
-6685.4607
-6756.6494
-6649.1089
-7801.9384
-8029.0877
-3763.0409
-3231.0445
-2847.1397
-2743.849
-2693.2047
-3670.3322
-3764.4219
-1191.0113
-724.13021
-407.06989
-275.70072
-167.0669
-888.33204
-1185.5992
142.75039
511.23725
763.71099
1005.0514
989.88564
483.99669
462.39783
-2299.289
-2484.9788
-2516.3101
-2397.5581
-1893.2248
-1668.6694
-1719.7581
-3629.7498
-3943.414
-3685.45
-3763.6225
-3439.0129
-2728.1563
-3139.387
-2409.18
-2768.9313
-2484.0765
-2279.211
-2040.0649
-1747.0006
-1881.5544
-817.13847
-1092.3352
-1030.5675
-991.71775
-546.9146
-462.99435
-270.4566
1205.3497
1001.9388
1425.8182
1683.5837
2027.0228
2074.1112
1921.6809
2099.8154
2244.423
2345.6111
2539.7319
2941.6473
2816.6533
2741.6796
2016.2047
1982.4715
2204.0009
2480.5594
2690.8405
2457.8799
2646.4687
94179.676
97157.766
113382.04
114880.22
121160.63
122011.33
119338.64
100727.02
105921.11
114957.73
116756.66
123603.8
119750.34
123031.01
105176.01
110382.95
116692.25
120414.89
124006.39
119600.74
123670.23
103596.19
106669.55
114327.81
117129.71
120059.4
121120.56
126554.38
105836.82
110244.56
114439.86
117514.53
120980.07
120749.79
123970.05
106877.52
107734.97
114188.03
115508.33
120952.85
120958.28
126540.46
108201.27
111086.54
114752.57
115938.3
121380.04
121941.22
126002.77
109411.65
109943.44
115517.36
116059.91
120219.46
120985.91
126224.83
110184.85
112221.7
115178.23
117656.13
121107.61
120962.56
126855.33
111568.14
111927.75
116638.28
116219.16
121359.41
120931.8
127414.3
112337.8
112905.13
116776.14
116613.71
121362.29
121319.78
125896.95
112456.56
113535.88
117427.19
117386.47
121337.07
121298.16
126597.83
113521.06
113757.68
116848.66
117233.04
121185.54
121079.84
122846.16
113685.94
114161.05
117455.12
117045.67
121116.09
121100.78
125370.1
113378.65
114221.64
115919.87
117422.76
119700.96
120395.43
124244.17
114659.54
113976.14
116615.37
116814.07
120584.2
119342.57
123433.42
113970.69
113725.99
115540.89
116185.85
118586.47
118013.95
122023.79
113754.04
112971.71
115718.24
115329.58
118386.73
117848.18
121287.61
113013.38
112278.49
114474.33
114243.74
116843.85
115957.16
119251.33
112330.49
111267.28
113835.36
113341.56
115977.27
115117.33
118320.04
111391.46
109899.52
112488.2
111618
114062.2
112912.3
115846.04
110158.36
108693.19
111317.02
110305.84
112874.43
111423.61
114358.15
108832.58
106895.08
109509.31
108287.74
110483.5
108901.24
111557.58
106735.35
105376.4
107798.39
106360.38
108465.78
106697.1
109118.91
105223.62
102919.95
105463.56
103603.11
105618.75
103498.01
106059.65
102770.39
100403.5
103200.56
100926.66
102973.19
100739.32
102946.98
100212.81
97601.351
99893.997
97670.359
99307.955
96924.785
99288.869
97118.227
94742.665
96779.897
94616.312
96080.149
93640.526
95512.038
93669.53
91033.974
93092.917
90578.638
91837.708
89175.874
91150.296
89806.29
87443.625
89040.597
86605.588
87685.974
85036.166
86803.745
85583.098
83230.521
84629.258
82196.804
83013.889
80257.834
81834.428
81045.518
78732.18
79839.156
77398.074
78016.903
75208.722
76753.78
75925.721
73764.487
74636.715
72290.83
72497.708
70020.063
71451.082
70567.511
68572.557
69269.901
66880.514
67176.228
64805.281
65737.708
65087.137
63228.096
63449.578
61424.805
61025.838
58969.294
59369.896
58526.506
56806.25
57139.294
54933.068
54966.924
53042.31
53545.616
52603.829
51687.223
50889.334
49770.531
48979.309
47347.237
47949.448
46502.684
45246.528
44463.018
43223.017
42545.575
40394.493
41707.745
39602.597
38718.554
37737.953
36778.438
36021.277
34629.049
35537.849
33456.28
32600.813
31794.453
30846.806
30031.154
28821.664
29573.314
26878.779
26168.42
25212.267
24417.424
23650.546
23010.847
23609.52
20815.156
20070.882
19247.334
18647.51
18014.772
17658.982
18127.876
15192.014
14593.184
13661.726
13298.139
12577.495
12669.296
12943.473
9687.6542
8872.937
8290.6751
7989.1807
7639.298
8037.3841
8331.6599
5655.0612
5200.8351
4667.268
4452.8789
3999.7692
4439.2863
4520.3893
2238.3843
1778.8113
1348.5664
1175.0068
1273.8507
1794.9005
1964.7229
825.67665
800.41752
508.13118
554.63578
468.19787
697.41523
652.89811
132285.49
102795.1
98415.599
98821.235
103984.86
105549.34
105222.12
106248.11
107187.5
106810.39
106120.67
106226.94
105256.31
103867.48
104669.78
103255.78
102024.58
100728.37
99719.073
98046.741
96618.437
94578.115
92683.682
90332.533
87796.422
85143.056
81820.394
78564.022
74876.404
70973.778
66908.657
62591.258
58000.821
53272.382
49153.549
43014.665
38561.122
34631.84
29220.005
24734.757
20439.669
16252.599
12555.765
9120.8999
6225.3706
3632.2566
676.51227
88833.788
85318.437
61624.529
74617.006
80930
78092.38
81838.655
80471.461
80095.883
80714.228
79724.88
79943.98
77710.14
77764.319
76786.865
77172.083
75386.983
75371.841
73551.054
73059.986
71026.239
70189.372
67947.294
66375.003
64014.696
61351.911
59913.891
57005.731
54192.841
51436.058
48396.455
45315.987
42028.608
38982.925
35219.935
31818.917
28792.209
25314.866
21790.987
18532.843
15395.025
12134.233
9372.8171
6665.9495
4394.1109
1904.6616
365.2202
61782.624
62196.996
36661.186
52228.025
44612.543
43579.323
43468.69
43584.151
42191.37
42969.974
41980.423
42585.476
42971.665
42712.977
42808.858
42640.58
42034.66
41162.764
40779.574
39513.079
38763.81
37625.921
36366.859
35293.47
33768.563
32463.188
31179.886
29339.078
27651.415
25853.71
23975.041
22075.879
20277.846
18333.264
16418.924
14770.155
13022.945
11249.651
9546.5532
8420.7689
6956.3194
5640.2197
4681.2202
3570.9506
2717.8562
1923.1961
119.96863
29225.222
31865.407
14367.127
23961.674
16066.468
20935.917
16360.419
13718.339
14751.134
13232.535
12766.196
13965.708
11215.972
14756.631
13752.085
15153.905
13453.107
14026.422
12791.187
12892.698
11870.282
11715.597
10845.403
10573.027
9417.3217
8887.055
7726.8468
7109.8882
6115.9779
5678.4367
4794.375
4286.4046
3642.4077
3132.1859
2716.4892
2326.6247
1915.3872
1654.6595
1486.3822
1377.5343
1095.0006
1026.2045
996.80893
709.1658
1003.639
346.03828
135.75987
-11702.638
2408.8487
-9330.1782
1134.9703
-10441.504
-4895.5772
-11339.111
-10089.728
-11683.969
-11607.412
-11908.457
-13359.04
-13389.569
-15566.666
-15848.465
-16402.458
-16555.793
-17144.301
-17054.789
-17476.21
-17817.032
-17901.334
-18194.805
-18419.541
-18907.782
-19594.958
-19163.809
-19152.671
-18911.27
-18603.091
-18245.14
-17657.596
-16910.768
-15995.544
-15029.972
-13928.151
-12569.757
-11155.265
-9778.1423
-8210.4193
-6633.5294
-5124.5067
-3721.6923
-2311.6916
-1226.02
-54.13687
-230.8091
-37221.916
-30713.27
-27924.759
-30338.263
-36867.297
-36408.479
-41829.718
-39931.03
-45871.449
-46904.718
-50659.382
-49175.305
-51995.995
-50886.335
-52360.693
-50830.981
-52162.656
-50699.157
-51333.106
-50582.561
-50856.217
-49732.959
-49687.204
-47640.648
-46228.829
-43641.954
-43258.095
-41774.022
-40846.018
-39273.259
-37918.655
-36038.397
-34056.907
-31853.793
-29474.197
-26884.356
-24110.608
-21323.731
-18561.131
-15386.783
-12715.344
-9929.6607
-7236.1873
-5040.255
-2736.8708
-1052.5494
274.78994
-62552.87
-49340.723
-54572.252
-55030.287
-66631.975
-65485.688
-71626.954
-71116.028
-75838.189
-75633.356
-76681.901
-79861.85
-80072.038
-81505.101
-81529.107
-82731.962
-82315.295
-83127.618
-82538.513
-82788.591
-81823.21
-81651.69
-80276.097
-79258.611
-78110.781
-74609.03
-72472.945
-70443.193
-68289.057
-66015.339
-63319.758
-60288.629
-57032.928
-53254.587
-49373.963
-45193.137
-40782.398
-36523.763
-31492.522
-26911.299
-22380.691
-17761.574
-13676.835
-9734.6056
-6379.4404
-3006.9661
-1279.5301
106799.6
124068.87
126543.3
135988.19
142836.89
143406.69
138693.34
82133.907
100253.13
103748.58
111844.83
113314.09
110842.16
106909.56
79392.903
89834.998
97404.327
103460.85
103031.34
108118.56
109597.46
79510.357
87852.227
92055.833
97774.36
97434.033
103102.12
96200.843
79995.278
87886.431
92211.733
96183.998
99685.498
100798.32
100006.73
82635.069
90780.036
91128.87
97842.4
95883.124
100745.45
101784.48
82842.013
89437.564
90920.089
95683.992
96348.218
99376.167
100606.06
84936.617
92335.665
90907.487
97218.217
97812.094
100392.06
102887.24
85925.799
90997.342
91264.56
96162.068
95266.199
100906.24
101733.49
86915.89
93297.399
91725.537
97656.032
96577.196
101415.46
100511.46
88057.217
92412.37
92321.575
97330.013
96827.668
100174.08
102148.41
89681.42
93047.032
93443.014
96604.031
97192.85
100154.2
99989.724
89128.636
93016.637
93256.341
96606.782
97275.901
98904.705
102282.01
90367.482
93360.159
92729.027
97354.098
96017.1
99125.959
100847.64
91036.293
92440.865
95122.626
96003.715
96956.985
98867.56
99235.739
89857.351
93275.048
93536.362
95909.635
95595.265
97642.761
98886.497
90495.076
92379.452
93778.913
95635.664
95495.071
97990.465
98609.754
89828.245
92591.983
93007.618
94733.066
94629.378
96238.646
96774.576
89570.774
91961.645
92609.782
94228.053
94114.622
95555.313
96427.948
88758.139
91473.05
91525.987
92886.084
92506.38
93975.372
94298.09
87816.609
90885.362
90691.541
92041.664
91847.204
92934.829
93380.532
86771.683
89885.431
89148.992
90428.656
89722.271
90857.577
91018.116
85379.636
88853.548
87854.797
88981.762
88359.686
89334.078
89452.659
84011.553
87372
85829.151
86871.257
86208.738
86892.112
86857.599
81900.129
86090.267
83627.791
85353.699
84116.214
85105.829
84857.509
80287.999
83700.727
81609.768
82552.825
81662.587
82126.682
81733.699
78455.927
81566.763
79698.727
80302.199
79618.192
79824.72
79088.476
76098.369
78616.102
76806.741
77166.857
76218.432
76247.728
75655.448
73317.096
75971.089
73940.036
74137.999
73320.57
73248.95
72554.715
70354.557
72794.168
70628.247
70803.686
69820.48
69683.832
68695.13
67286.027
69125.372
67101.303
67025.791
66163.243
65757.141
64894.338
63467.442
65262.637
63219.763
63140.123
62011.807
61758.194
60779.833
59661.24
61087.486
59237.764
58794.464
58068.269
57678.219
56655.517
55560.028
56780.217
54781.848
54384.155
53626.518
53014.993
51680.174
51021.584
51687.705
50016.927
49439.856
48884.922
47992.102
47472.906
46238.129
46868.152
45577.844
44785.246
44239.8
44077.763
43218.181
41899.894
42353.884
40589.106
39543.49
39839.552
37899.748
38173.899
36707.079
35733.288
35420.257
34281.853
33492.883
34333.047
32790.186
31808.716
31090.062
30503.961
29675.076
29542.52
29193.137
28716.599
26726.046
26161.988
25276.278
24660.975
24015.042
24385.386
23569.592
21830.016
20873.342
20388.504
19522.958
19598.89
19569.287
19399.549
17341.467
16688.422
16112.665
15426.108
15386.984
15373.531
15223.249
12704.989
11863.587
11388.122
10708.171
10857.865
10928.458
11194.405
9292.6024
8626.4079
8377.2352
7659.3046
7913.382
7803.4141
7943.3029
5334.573
5027.2495
4445.6369
4010.0053
4240.2858
4184.0189
4531.4246
2962.1265
2462.5629
2282.6546
1928.9937
2246.1919
2222.6644
2246.93
315.26551
-13.184965
-247.0342
-319.67027
-98.630522
-277.19335
339.9563
64460.75
74632.118
87490.457
92780.922
103688.85
103030.95
108156.69
51970.868
68829.67
77274.603
84609.211
90483.538
89942.544
90203.49
54708.684
54473.82
65449.519
66109.045
74113.473
70387.53
79878.187
48876.789
53928.403
62517.456
64677.815
70447.645
73192.453
68563.217
54188.85
57148.895
64084.227
64836.504
71568.692
68637.561
74449.653
53716.047
54839.117
60322.131
62009.922
64511.001
69941.886
71851.494
55572.317
57623.251
64377.502
63900.538
69867.612
71672.029
72444.002
56097.178
57364.878
61893.373
62782.4
66633.523
69047.813
72759.526
57516.764
58763.408
64456.318
64247.991
68291.973
70753.094
72295.438
57868.209
59095.588
63534.544
63109.896
67660.124
69066.613
72271.273
58683.056
59886.711
64278.033
64230.458
67649.069
69942.05
71592.23
58817.516
60094.505
64693.54
63729.724
68157.41
69095.418
72746.299
59854.596
60361.357
65004.377
63610.52
68114.132
68460.303
71256.113
59384.936
61383.533
65531.431
64255.356
67903.313
68731.114
70547.239
59599.99
61821.577
64244.138
63131.489
67374.875
67620.705
69716.459
59932.95
62640.245
64134.345
64157.016
67371.765
67782.029
69486.894
60164.388
61747.491
63641.003
63076.667
66228.971
66680.866
68433.302
59889.007
62416.282
63752.804
63482.846
66258.927
66735.552
67934.759
60170.364
61521.116
63085.539
62332.345
65110.901
65130.608
66563.265
59924.685
61627.875
62843.934
62399.74
64959.038
64973.173
66289.374
60138.682
60549.825
62072.576
61172.72
63641.667
63256.832
64548.539
59844.068
60356.4
61582.205
60838.942
63156.896
62725.815
63858.229
59868.69
59059.903
60578.424
59449.375
61872.26
60830.699
62194.692
59127.268
58469.16
59882.82
59093.464
60885.773
60050.013
61012.563
58583.846
57265.605
58786.899
57324.677
59315.869
57837.25
58907.49
57573.064
56564.62
56797.432
57729.87
57329.238
56923.027
57739.475
55770.457
55435.662
55919.667
53818.583
56331.146
53462.984
54990.95
55090.012
53173.15
54307.792
53331.659
54075.694
52404.274
53027.975
53108.656
51845.88
52752.252
50827.376
52210.677
49706.029
50515.762
51426.806
50144.798
50333.323
48858.704
49778.225
47387.884
47948.339
49134.375
47844.742
48165.747
46573.58
47311.606
44710.622
45145.778
46714.835
45752.469
45711.127
44106.883
44631.835
42162.724
42382.979
44159.39
43298.104
42939.187
41448.513
41820.335
39273.709
38998.928
41254.066
40465.536
39890.131
38578.701
38668.598
35981.733
36109.299
38038.989
37635.033
36929.036
35813.752
35567.845
33539.155
33260.781
34917.938
34781.525
33649.64
32586.872
32329.565
29867.76
29365.138
31298.619
31211.746
29879.718
29307.542
28505.587
26874.083
26010.687
27706.05
28228.866
26724.222
26133.515
25564.653
23721.927
23234.232
24055.607
24588.731
23369.783
22577.668
22161.912
20716.926
19510.026
20430.354
21211.568
19582.088
19061.199
18526.951
17093.328
16236.955
17053.063
17562.725
16146.059
15868.128
15277.913
14255.793
13440.367
13348.868
14215.797
12629.465
12619.064
11918.08
11111.106
10546.111
10409.818
10932.548
9432.0556
9579.9677
8769.9864
8398.1928
7960.8888
7065.5043
7508.585
6212.6452
6433.2434
5846.666
5720.0708
5580.1272
4671.8732
5109.1907
3833.2808
4142.3738
3574.4237
3530.7216
3573.1228
1881.886
1737.7972
787.71809
1100.3418
830.31409
966.5243
1410.3228
446.65137
332.79801
-232.46775
-70.247484
46.609504
-127.70853
380.45907
30622.644
40295.24
44727.198
54923.037
60356.862
65908.183
65895.719
24576.314
45799.774
47735.605
57750.852
58436.479
62966.904
57789.783
23461.943
26435.992
31499.257
37941.253
40300.401
41917.712
48081.755
19121.272
30697.355
35941.433
42916.141
42903.979
49375.761
42711.61
23370.575
28178.573
30841.268
33216.379
37838.531
37059.257
43726.926
22694.447
30347.888
31188.26
36318.235
37986.531
42253.182
44140.655
22225.426
30739.97
29176.838
34198.889
37365.745
38220.642
42222.108
24386.133
32783.197
29654.876
36061.743
37211.069
38574.834
42930.774
25135.58
32627.459
29295.113
34356.607
36305.146
38158.463
42472.913
26208.518
33479.174
29443.74
34966.67
36388.942
38705.67
41554.222
26684.381
33499.068
29889.827
35124.717
36766.233
38237.12
42035.91
27591.08
34053.594
29182.76
35159.617
35471.685
38609.678
40586.403
26797.235
34297.299
30611.737
34787.683
37151.104
37351.904
40366.701
27797.174
34621.165
30295.166
35015.03
36290.297
35675.63
41069.669
29658.166
33611.49
31117.766
34747.267
36545.027
36620.086
40336.361
29200.805
33564.216
30956.399
34445.091
35947.88
35395.93
39620.774
29583.993
33208.647
31688.309
34597.584
35956.341
35593.252
39820.011
29244.077
33734.595
31127.653
34386.291
35049.487
35011.519
38301.418
29813.293
33295.292
31350.661
34050.723
35255.737
34614.177
38368.916
29433.942
33474.734
30768.612
33938.546
34055.475
33875.99
37032.722
29635.607
33020.303
31096.068
33366.363
33968.289
33475.213
36580.352
29134.469
32914.61
30311.248
32931.218
32938.934
32429.338
35359.406
29262.092
32158.56
30456.703
32604.465
32251.961
31918.085
34502.797
28610.021
31852.319
30021.321
31358.608
31189.066
30649.827
32845.538
28651.287
31284.837
29517.121
30779.066
30428.125
29860.66
32012.757
28062.592
30291.646
29149.474
29192.168
29235.36
28550.349
30204.64
28060.195
29791.775
28126.737
28948.357
28071.02
27768.704
28773.197
27012.1
29640.009
27099.368
28094.568
26850.524
26432.87
27457.513
26773.833
28444.389
26350.213
26590.53
25596.518
24970.71
26003.902
25725.519
27534.362
24935.622
25619.068
24287.735
23644.742
24409.406
25115.281
26244.626
23967.427
24315.952
22882.73
22094.732
23007.328
23933.818
25156.474
22542.905
22923.24
21313.022
20634.62
21234.248
22928.994
23565.392
21095.47
21305.958
19806.674
18844.519
19706.945
21479.604
22069.089
19606.395
19903.128
18198.473
17541.314
18147.506
20231.865
20423.155
18090.843
18067.158
16567.526
15624.683
16215.228
18500.459
18506.433
16196.588
16321.414
14689.133
14086.855
14655.791
17001.848
16710.397
14714.338
14539.689
13365.232
12278.99
13238.672
15033.102
14821.121
12703.449
12901.793
11294.074
10844.196
11516.544
13481.962
12794.272
10879.21
10928.616
9691.5823
9218.5228
9786.8969
11662.649
11045.54
9095.1374
9436.489
8039.8093
7650.4953
8212.0574
9757.3435
8620.9889
7379.7628
7416.4849
6443.7433
6294.2782
6982.8706
7981.2864
7436.5496
6118.7329
6261.9708
5245.6544
5119.864
5424.8584
6102.7457
4979.4679
4144.3837
4138.2088
3407.164
3639.3621
4134.4198
4694.9842
4206.2056
3612.9361
3691.5072
3073.8697
3364.8904
3247.351
2856.1356
2244.206
1777.5564
1693.3256
1301.2279
1653.9562
1432.0964
1725.3758
1636.0324
1218.1907
1507.1458
1316.0931
1566.8533
1312.5005
222.56218
-509.31049
-450.8139
-387.26297
-550.55021
-218.41976
-232.70539
-14642.42
-7375.7508
149.5185
6191.9018
15067.441
19266.9
29954.532
-11136.871
-7080.2024
-1872.8331
5971.6671
11589.026
15967.464
21456.371
-5793.3431
-9225.1282
-2318.6171
23.956169
6424.0825
7958.9247
20391.22
-9104.2028
-6580.2465
1497.3304
3027.5646
8031.9757
14022.627
13156.958
-4626.6794
-2219.3629
1548.7641
945.18551
9601.2325
5363.5662
18124.875
-4613.6638
-4936.3259
-1710.6766
2444.2612
6870.411
9467.413
12457.138
-4987.0119
-855.5315
2991.9504
4391.0689
8337.3933
7856.0099
15309.964
-2977.0602
-3362.6352
358.8116
2628.8601
5884.4552
9043.0315
13116.86
-3594.8474
-1504.038
2992.8386
2774.6814
8463.3965
8899.9795
11664.44
-2424.4823
-881.53176
1958.5468
2799.1573
6621.786
7990.6245
11883.563
-2049.4279
-887.98957
1989.3011
2673.4087
6394.0255
7688.4482
11006.425
-2120.4664
-312.66154
1803.8614
3232.1538
5799.9673
8016.0994
10496.625
-1322.7882
-859.79854
1691.2341
2281.616
6315.0973
6382.2837
11095.612
-912.99872
-238.47478
3000.9497
4431.9996
4121.2493
8189.7015
8585.7302
9.2517019
612.8711
382.89307
3346.7601
4358.2466
7090.812
8274.101
-1099.1824
1403.1665
664.76924
4867.5506
3712.0212
7454.5703
8029.4954
-176.28834
553.9613
1330.9785
4172.2381
3293.5024
6603.0684
7552.3098
-378.40338
1773.3667
1398.2582
4820.2266
3385.873
7237.8922
7320.3113
551.88142
1167.5611
1675.3438
4140.8856
3123.0453
6152.8046
6493.4927
398.81796
2311.6226
1869.6969
4870.4956
3183.6711
6644.4749
6482.4081
1566.307
1908.7155
2062.1799
4062.9985
3027.3584
5802.39
5755.4553
1448.6938
3028.0168
2273.7614
4822.7134
3107.0424
6127.0463
5592.0191
2242.5205
2910.1021
2905.6863
3720.9665
3062.5277
5307.8026
4967.2145
2760.4306
3930.8386
3002.422
4190.7217
3520.7792
5527.5092
4931.4306
3383.5554
3756.5578
3401.2787
3595.5865
3798.3478
4528.405
4517.3405
3606.7414
5016.9303
3502.7813
4394.801
4097.6264
4513.0046
4269.9638
4571.9388
4987.1658
4048.2099
3766.8412
4147.2342
3641.002
3794.684
4986.3885
5210.3604
4123.7967
3929.6591
3868.1114
3575.2789
3456.1994
5306.7691
5305.327
4501.6475
3846.2811
4036.4345
3275.9899
2941.6795
5553.7678
5764.0517
4555.3209
3947.4634
3886.9095
3126.8243
2438.2562
5921.4598
5784.3153
4780.849
4036.455
3790.4965
2863.2029
2065.003
5908.6321
5961.7488
4820.6776
4005.6688
3522.0124
2833.3121
1580.1497
6062.7445