/*--------------------------------*- C++ -*----------------------------------*\
  =========                 |
  \\      /  F ield         | OpenFOAM: The Open Source CFD Toolbox
   \\    /   O peration     | Website:  https://openfoam.org
    \\  /    A nd           | Version:  6
     \\/     M anipulation  |
\*---------------------------------------------------------------------------*/
FoamFile
{
    version     2.0;
    format      ascii;
    class       pointScalarField;
    location    "0.85";
    object      p;
}
// * * * * * * * * * * * * * * * * * * * * * * * * * * * * * * * * * * * * * //

dimensions      [1 -1 -2 0 0 0 0];

internalField   nonuniform List<scalar> 
28033
(
2031726.5
-3143009.9
10167.088
6889.1115
3741863.8
-4471795
7705.0974
4939.3767
1686662.4
1500848.6
1288914.2
1036306.3
769997.1
511758.81
247690.73
-50379.569
-347310.89
-620147.5
-953221.28
-1126806.7
-1528287.2
-1809331.4
-1828549.2
-7149.0233
-3635.3104
-5010.9363
-2154.5326
-1661.314
992.07718
3179.836
6022.4069
8531.4331
11165.103
13778.281
15250.216
16554.059
16884.559
14771.175
560610.98
596024.27
551697.46
585176.15
574010.42
588234.71
590251.02
591378.67
590220.88
590886.52
585332.34
579588.5
576682
570480.01
563543.05
554877.64
550591.75
542141.85
534755.18
526942
520515.05
512046.29
506215.51
498440.67
490752.82
484240.23
477372.7
469789.22
462945.36
455780.21
448942.41
441097.12
434655
427943.4
419082.75
412777.4
405046.74
399316.88
390157.94
383755.6
375307.28
367642.29
359642.33
352453.25
344300.24
337025.2
329092.06
321792.57
313932.92
306758.81
299036.66
291883.74
284463.07
277318.01
270151.04
263126.63
256153.88
249277.06
242438.78
235731.55
229029.13
222357.81
215660.02
209266.48
202518.11
196201.61
190485.56
183368.54
175706.41
168897.65
161550.11
154633
147249.89
140151.07
132446.37
125396.28
117511.94
110577.8
102581.35
95853.498
88150.278
81437.306
74006.142
66922.288
60165.548
53597.878
47685.566
41881.397
35669.898
30814.418
26461.184
20320.051
19368.294
16713.33
13963.353
-506129.47
-422093.72
-525618.45
-469299.09
-546298.67
-536831.85
-552423
-544661.18
-558410.92
-545740.75
-552333.04
-542158.72
-540647.72
-535649.48
-529551.71
-523618.69
-516840.19
-509299.89
-503857.97
-496484.3
-488637.33
-484647.27
-474527.68
-471381.01
-462982.98
-456862.67
-451510.73
-443490.66
-439019.07
-430036.79
-424766.45
-417362.72
-410665.98
-404635.81
-397832.55
-392249.33
-383244.46
-378027.76
-369404.88
-363581.89
-355739.31
-349046.79
-341489.89
-334571.63
-327041.61
-319988.03
-312560.36
-305350.29
-298055.48
-290787.92
-283557.16
-276339.12
-269163.46
-262059.44
-254962.95
-247980.34
-241022.67
-234151.83
-227334.75
-220592.55
-213879.02
-207240.14
-200611.05
-193978.74
-187371.79
-180675.69
-174144.49
-167480.35
-161248.97
-153596.09
-147208.76
-139926.14
-133207.37
-126002.69
-119051.73
-111931.85
-104802.32
-97767.004
-90634.916
-83694.091
-76745.96
-69914.382
-63090.87
-56571.382
-49957.174
-43678.177
-37468.21
-31606.075
-25692.453
-20460.421
-15409.122
-10534.293
-6557.678
-3962.8604
-811.34528
3110019.6
2911147.2
2123517.4
2127895.2
1475158.3
856249.3
515843.18
-107696.42
-585485.29
-1204728.3
-1641903.9
-2240246.6
-2824161.8
-3306545
-3506959.6
-933332.81
-663119.15
-276685.3
-658176.06
-524383.83
-576273.84
-555732.91
-593003.55
-556761.87
-583912.67
-587260.74
-558874.6
-580618.85
-548981.72
-571152.43
-552185.54
-544607.99
-532587.32
-525888.37
-521487.06
-510693.23
-499041.78
-500902.87
-493232.87
-486474.76
-482874.08
-464746.57
-470127.02
-449924.71
-452548.94
-445548.69
-438603.8
-431322.62
-425141.77
-419560.65
-402131.37
-402400.89
-395220.41
-387323.62
-379832.66
-372151.91
-364519.04
-356774.95
-349018.31
-341319.34
-333634.27
-325832.24
-318116.78
-310355.77
-302735.27
-295122.16
-287623.91
-280190.29
-272861.56
-265612.62
-258412.54
-251374.62
-244335.35
-237407.99
-230553.16
-223700.08
-216932.48
-210132.94
-203349.95
-196511.12
-189606.61
-183138.57
-176523.69
-166344.72
-161502.39
-154421.71
-146930.94
-139512.52
-132062.33
-124476.15
-116897.32
-109286.72
-101799.65
-94242.869
-86787.135
-79324.916
-72069.644
-64764.319
-57817.737
-50854.785
-44254.219
-37656.424
-31602.538
-25536.49
-20062.498
-14884.623
-10197.363
-6764.9516
-3465.8806
-1745.2752
17196.723
18552.93
15971.643
17080.704
12468.574
12727.578
7895.374
5896.9311
2470.971
-830.83084
-315.69911
-5289.1133
-3011.4326
-7543.578
-3857.4607
21634.357
18317.117
19533.919
23590.016
27271.494
32518.899
37817.406
43718.235
49496.986
56144.445
62466.316
68849.866
75875.8
82956.728
90176.077
97330.39
104785.93
112008.76
119481.86
126857.42
134225.93
141635.49
148978.05
156119.34
163239.24
170160.96
174723.9
186870.11
190996.86
198459.6
205230.17
212206.72
218974.66
225885.29
232763.47
239696.5
246729
253755.94
260940.8
268147.34
275471.7
282833.88
290341.43
297822.6
305448.67
313078.22
320760.88
328474.1
336240.35
343936.86
351715.21
359432.08
367097.52
375242.02
382186.52
390243.58
396557.74
400433.58
416016.03
418764.42
423083.76
439802.12
440086.59
449301.39
450348.77
467987.87
462015.25
481894.89
482824.97
493190.24
498070.81
501096.09
518277.32
519305.87
523799.47
538657.68
538250.21
553019.44
552823.1
568010.46
580212.39
573887.03
582608.09
594166.35
599564.72
595601.97
608511.65
602145.87
600296.33
590271.93
586981.6
599589.19
591050.31
546874.78
672136.73
1481956.1
1598223.4
1688451.5
1750595.8
1787927.1
1834878.2
1837319.1
1858139.8
1839214.7
1802894.8
1827523.4
1719154.6
1666622.8
1741027.1
1425928.9
-2485456.3
-3146719.7
-3133632.2
-3388591.1
-3323873.7
-3177505
-3651949.8
-3906528.5
-3651542
-3659143.7
-3507802.1
-3369642.6
-3162454.2
-3126062.4
-2957606.9
5998.1998
5932.1288
6729.9724
7286.3534
8442.0093
9141.6713
9430.3833
9569.9792
9444.9168
9048.2544
8506.148
7606.3287
6894.1351
6539.8943
6751.4019
4535.8266
6871.2925
6250.0451
5473.6705
4485.2042
4128.4551
3546.6769
3560.0338
3771.8636
4068.8087
5095.7411
5834.9941
6340.1903
9295.8035
4647.7565
540300.98
550377.72
497583.46
502479.66
511693.59
518689.85
521767.47
525570.26
526429.25
524914.02
520770.11
521846.2
514272.74
510099.78
502355.76
500793.53
491383.44
486716.16
478385.53
473718.7
466575.87
461484.18
453852.13
447548.5
440564.84
435885.19
428150.26
422077.91
415717.15
409849.14
401948.3
396119.21
390807.46
383398.15
377220.45
370127.07
363810.22
355921.26
349571.31
343418.83
336844.14
329726.28
323111.6
316017.6
309100.99
302422.79
295365.58
288817.2
281878.32
275328.02
268571.59
262085.75
255498.11
249091.21
242690.63
236394.4
230145.28
223954.67
217842.91
211767.1
205717.22
199631.88
193720.86
187773.01
181400.37
175493.85
168365.23
162430.6
156417.23
150293.08
144086.82
137758.61
131204.29
124896.12
118191.79
111782.22
105102.2
98713.069
91945.203
85898.437
79214.356
73169.162
67117.851
61533.077
55581.196
49954.091
44560.129
39087.036
34268.197
30063.996
24887.391
21371.651
18129.111
11917.875
6634.1619
495616.87
454828.54
408311.59
423108.3
424537.29
429399.15
432755.56
436949.36
437734.39
438980.9
436858.47
435544.42
431157.3
429464.14
423960.5
419631.43
413829.81
410502.6
403982.93
399543.27
393621.2
387394.4
382558.35
377397.37
372338.64
366144.96
361442.39
356344.68
350670.15
345309
340361.23
335168.96
329091.05
323724.07
318305.26
312771.53
307094.19
301691.75
296177.21
290408.26
284454.8
279358.47
272669.05
267267.65
261290.76
255777.52
249895.79
244460.81
238623.76
233262.01
227573.91
222231.22
216731.15
211425.71
206100.86
200868.97
195652.61
190531.07
185401.58
180346.89
175279.02
170241.36
165365.91
160315.64
155357.16
151644.63
147514.87
142550.29
138433.1
132935.57
127667.74
122470.48
116684.24
111202.07
105085.15
99949.806
93466.417
88505.896
82030.558
77165.041
70925.574
65716.198
60420.675
53975.369
48770.269
43630.664
38514.604
34397.548
30113.132
25741.481
21954.837
18312.761
13965.282
9231.2177
2489.6079
378442.27
382840.57
335228.42
352077.39
346227.91
354639.66
358597.71
362816.32
362128.67
363792.27
361626.21
361726.2
357802.29
355720.66
350893.43
348997.91
343264.24
340235.82
334559.92
331475.81
326002.03
322887.93
317882.18
314101.8
308446.67
305172.63
300231.98
295689.73
291223.42
287040.9
282205.45
277598.28
273304.25
268874.65
264435.03
259654.54
255609.56
251237.12
246644.76
241849.53
236832.52
231973.03
227686.46
222993.63
218384.72
213635.98
208896.95
204238.05
199545.3
194972.56
190317.78
185853.05
181282.82
176885.71
172445.27
168090.59
163759.9
159486.32
155196.79
150982.65
146744
142514.6
138368.98
133885.17
129980.07
126382.42
123168.68
118725.51
115035.25
111336.31
107175.32
102517.12
97645.732
93024.254
88357.23
83540.093
79001.314
74063.613
69584.629
64780.088
60116.292
55898.695
50866.9
46809.109
42769.37
38253.703
33866.004
30523.947
26610.011
23217.585
20012.27
15726.385
12809.659
6484.1152
3093.9271
305237.47
303609.1
256813.21
273567.8
264549.85
275165.25
276336.37
279392.77
279865.03
282817.07
280839.21
281730.9
277838.2
278372.26
273854.58
272869.94
267956.21
267202.51
262105.36
260165.22
255667.52
252961.23
248891.95
245661.48
242391.91
239088.54
235478.87
232559.56
228951.77
225529.76
222169.01
218729.33
215241.16
211487.81
208494.71
204048.12
200947.18
195667.76
191779.93
187973.15
185009.23
181280.9
177416.11
173503.73
169878.44
166198.06
162563.49
159036.56
155438.34
151959.85
148437.41
145040
141589.62
138266.68
134891.87
131634.39
128337.4
125121.15
121875.62
118694.15
115507.65
112312.09
109105.76
105973.83
102880.33
99496.144
97025.42
93429.264
89330.382
86280.923
83051.981
79232.081
76239.064
72656.734
68966.704
65324.21
61683.593
58132.563
54454.314
50909.053
47397.911
43975.312
40386.543
36663.833
33359.722
31046.307
27919.471
25073.888
22144.027
19485.057
16383.289
13613.743
10273.665
6359.6876
1951.7321
239251.27
219791.75
184843.68
201910.43
198379.49
204042.34
205822.36
208629.3
208021.78
209547.46
208376.27
207932.12
206333.92
205613.86
202250.84
201874.92
197739.91
197250.44
192885.01
192426.01
188555.94
187586.64
183739.64
182787.8
179200.19
177378.68
174389.4
172101.94
169190.51
167077.14
164219.32
161827.01
159060.23
156829.76
154109.16
151500.98
151252.84
151318.91
149035.67
149873.7
145993.48
143415.19
140958.99
138264.06
135557.94
132726.2
129911.58
127097.07
124322.67
121562.53
118813.85
116152.37
113451.61
110833.06
108209.55
105643.76
103059.58
100536.5
97989.741
95475.432
92994.54
90351.649
87971.864
85455.843
82515.859
80574.665
77656.806
75084.999
72188.375
69498.848
66808.168
63172.575
58952.517
55856.176
52618.213
49750.077
47165.103
44432.914
41780.102
39261.631
36480.14
34215.579
31409.15
29386.573
26712.61
24848.233
22192.571
20372.671
17915.95
15860.577
13726.564
11363.059
9405.6663
5649.0346
2804.9735
144701.62
144941.85
114315.43
131925.8
123038.7
127312.08
129844.85
131467.45
129832.4
133545.33
130392.88
132512.35
129399.38
130617.88
127342.16
128327.32
124836.42
125934.96
121996.01
122645.16
119106.43
118890.01
116316.66
115784.03
113340.72
112663.82
110679.75
109650.27
107935.6
106484.68
104847.44
103268.23
101758.97
100062.08
98283.194
97123.764
96612.723
96645.971
96795.321
96425.382
96622.524
94660.119
92735.381
91013.099
89193.484
87350.127
85511.148
83768.055
81973.441
80255.839
78530.498
76871.582
75178.425
73569.558
71946.052
70347.956
68770.621
67208.968
65638.1
64086.212
62498.409
61002.167
59370.134
57714.791
56399.205
54374.274
53125.041
51391.154
49664.743
48057.675
45986.211
43772.887
41944.168
39110.349
36460.534
34786.968
32929.754
31209.501
29465.781
27932.833
25928.993
24712.614
22603.582
21517.834
19420.597
18560.979
16455.152
15609.237
13732.247
12861.269
11336.027
9788.771
8294.8625
5631.5308
4179.3646
71722.68
61726.877
54994.297
62890.613
56245.298
59430.09
61000.424
59942.364
59893.529
59595.779
59564.549
58436.816
58176.7
58295.921
56392.728
57466.964
54917.763
56227.567
53593.704
55497.44
52724.628
54522.42
52210.562
53214.982
51335.323
51937.006
50283.976
50467.271
49049.292
49043.08
47958.359
47660.871
46701.271
46171.383
45473.414
44878.802
44005.638
44078.785
42513.148
40825.581
40591.055
39951.4
39007.49
38593.993
37938.637
37320.739
36619.774
36074.841
35377.795
34822.636
34201.489
33647.666
33059.121
32542.896
31981.963
31463.078
30934.367
30427.87
29874.407
29359.276
28830.964
28250.702
27672.008
27186.864
26405.556
25964.956
25213.362
24504.933
23843.851
23096.389
22369.548
21595.822
20302.429
20323.248
19687.94
19016.481
18022.246
17234.158
16457.897
15568.529
14773.011
14107.569
13067.522
12733.015
11546.076
11432.038
10270.33
10327.888
9287.4745
9113.4091
8097.5396
7500.1743
7172.9759
5900.0419
5764.4903
-22415.07
-15239.625
-19811.542
-12421.317
-14418.511
-12779.912
-13766.163
-12906.027
-16931.847
-13647.003
-17219.191
-15644.091
-17166.973
-16003.504
-17641.658
-15376.704
-17516.296
-14607.112
-16708.913
-14232.175
-15685.295
-13204.594
-15058.727
-12992.73
-13840.178
-12401.212
-12723.589
-11770.51
-11756.095
-11165.879
-11077.965
-10705.83
-10495.504
-10083.713
-9867.2511
-9731.9036
-8978.1436
-8846.996
-8416.8741
-8638.4622
-8174.7212
-7681.3496
-7660.7694
-7336.8292
-7007.2165
-6795.744
-6445.1321
-6073.3758
-5738.2437
-5350.6868
-4971.1788
-4555.9061
-4162.9408
-3739.117
-3316.5811
-2901.2742
-2473.7601
-2043.1824
-1660.9484
-1201.3176
-857.39639
-433.60819
-39.798594
283.73157
726.47969
1002.5905
1377.0212
1738.058
1998.5961
2371.3811
2500.5288
2640.7005
2767.9586
3230.9663
3540.0072
3772.8178
3817.2915
4078.4936
4125.3807
4335.9892
4489.0456
4508.0063
4822.5615
4807.5278
4993.937
5276.4768
5115.8844
5775.6457
5258.4517
6148.2642
5958.3062
6710.0657
6913.9099
6545.1147
7433.7917
-92143.561
-93513.925
-76926.599
-74376.566
-74984.136
-79227.884
-77712.708
-82725.048
-82313.754
-85179.759
-84700.118
-86190.786
-85712.701
-85269.01
-85412.928
-83731.239
-84426.39
-81428.674
-83172.527
-79251.353
-80602.142
-77772.934
-78386.605
-74983.51
-75579.78
-72615.152
-72976.538
-70316.194
-70225.1
-68156.187
-67618.134
-65900.43
-65051.736
-63594.476
-62690.275
-61124.774
-60304.618
-58819.912
-57650.49
-56250.367
-55083.588
-53694.915
-52607.122
-51131.623
-49872.579
-48562.922
-47294.196
-45912.112
-44658.759
-43313.986
-41990.618
-40642.747
-39342.644
-37983.169
-36660.126
-35348.909
-34019.029
-32715.047
-31429.245
-30141.577
-28880.95
-27623.891
-26428.631
-25160.496
-24067.705
-22832.51
-21674.597
-20543.748
-19392.107
-18244.035
-17174.479
-15905.321
-14936.399
-13763.087
-13131.522
-12416.594
-11207.209
-10329.401
-9181.9229
-8258.7533
-7206.073
-6288.2715
-5229.203
-4306.6607
-3371.4067
-2140.6344
-1564.9691
172.42526
414.70343
2392.6084
2673.9989
4005.7486
4828.1204
6381.4779
8670.1683
-180464.38
-178940.95
-144953.15
-149182.03
-151347.47
-153059.73
-156709.99
-157582.5
-163055.08
-162167.43
-164152.46
-164278.37
-164210.74
-162596.43
-162888.16
-159515.71
-159432.87
-155945.2
-155136.02
-151458.01
-151147.97
-144657.69
-143340.85
-139516.48
-138717.35
-135507.97
-134006.54
-131145.3
-129426.41
-126898.57
-125107.71
-122667.74
-120889.93
-118567.49
-116421.41
-114398.32
-112088.08
-110046.32
-107758.47
-105723
-103537.51
-101326.87
-99085.407
-96950.954
-94641.127
-92449.087
-90155.349
-87849.61
-85603.079
-83297.798
-80995.749
-78724.111
-76450.503
-74162.06
-71914.208
-69676.613
-67434.902
-65220.045
-63050.102
-60826.343
-58689.058
-56533.18
-54372.153
-52263.988
-50146.493
-47995.079
-45903.347
-43826.231
-41715.431
-39657.015
-37538.017
-35507.263
-33412.077
-30700.947
-27075.336
-25005.133
-23250.598
-21343.147
-19339.802
-17920.654
-15598.094
-14526.404
-12114.565
-11037.24
-8907.5021
-7423.8847
-5872.8514
-3695.1356
-2823.0774
-42.540393
690.79551
2949.3215
4798.516
7051.718
9402.1677
-271754.57
-213641.34
-191300.1
-195927.87
-200938.72
-203565.68
-208804.81
-212604.88
-217199.77
-218063.34
-219432.47
-220645.47
-219451.51
-218092.38
-217676.51
-213368.73
-214101.7
-208462.3
-208506.16
-204730.21
-204977.67
-204455.65
-203556.53
-201143.36
-200536.05
-195537.1
-194537.18
-189640.36
-187913.08
-183842.92
-181559.35
-178048.05
-175572
-172107.81
-169352.27
-166050.46
-163245.03
-159962.84
-157002.27
-153777.72
-150756.85
-147417.5
-144392.28
-141080.1
-137908.51
-134640.16
-131462.84
-128180.32
-124991.09
-121728.37
-118514.65
-115291.16
-112088.33
-108884.97
-105712.91
-102560.59
-99410.039
-96311.413
-93208.489
-90134.799
-87092.916
-84033.291
-81052.725
-78020.575
-75122.738
-72130.817
-69202.252
-66203.595
-63270.077
-60257.188
-57319.829
-54479.78
-51381.105
-48307.896
-45518.306
-41934.729
-38084.187
-35263.226
-32343.728
-29603.18
-27064.222
-24273.397
-21820.999
-19186.066
-16659.794
-14305.983
-11668.105
-9514.331
-6891.7112
-4534.2306
-2193.1264
697.03159
3448.7004
6549.2177
11794.414
-318445.5
-299633.41
-269851.42
-263854.64
-270231.73
-272990.13
-281592.58
-285612.82
-288497.37
-292179.94
-293373.56
-292138.93
-292593.18
-289715.33
-287946.78
-285018.49
-281867.55
-277688.24
-275728.95
-270107.8
-269546.7
-264076.95
-266635.9
-264060.19
-261297.87
-257570.46
-254304.68
-249748.04
-246401.57
-241761.45
-238582.09
-233905.84
-230617.16
-226363.75
-222547.34
-218661.34
-214542.23
-210558.2
-206440.84
-202447.19
-198189.13
-194205.76
-189985.5
-185892.35
-181696.72
-177520
-173362.64
-169132.92
-164956.43
-160780.42
-156596.07
-152443.9
-148317.12
-144199.92
-140124.18
-136080.08
-132064.44
-128074.81
-124137.51
-120210.25
-116293.43
-112439.27
-108540.29
-104668.35
-100850.73
-96966.67
-93083.341
-89296.66
-85409.114
-81485.669
-77704.805
-73672.844
-69760.12
-65943.672
-62059.253
-58915.252
-54701.141
-50771.411
-46846.779
-43102.877
-39249.904
-35582.858
-31852.398
-28301.334
-24645.275
-21382.127
-17651.373
-14749.777
-11198.526
-8083.5297
-5260.6757
-1180.7666
2140.1811
7264.8206
12897.548
-440503.14
-394543.68
-325363.49
-348583.27
-343181.63
-360007.41
-361799.96
-370107.36
-372733.49
-376491.16
-376023.88
-377188.03
-374155.12
-373047.69
-368745.24
-365005.16
-361506.72
-355439.86
-352500.77
-346308.16
-342900.85
-337310.08
-332624.19
-325447.54
-322231.12
-316096.38
-313288.48
-306647.8
-303261.97
-297414.58
-293396.98
-287733.67
-283850.79
-278581.32
-274126.04
-269081.07
-264220.7
-259239.42
-254468.11
-249296.33
-244494.75
-239336.45
-234332.5
-229200.71
-224122.41
-218988.84
-213915.86
-208756.73
-203691.3
-198594.75
-193507.08
-188467.11
-183438.46
-178439.12
-173472.46
-168555.89
-163646.87
-158801.47
-153983.13
-149178.49
-144431.59
-139680.72
-134946.12
-130206.92
-125527.11
-120792.25
-116121.77
-111409.28
-106672.36
-101852.17
-97068.695
-92282.056
-87518.747
-82657.69
-77766.89
-73121.657
-68305.011
-63587.936
-58806.936
-54110.436
-49515.928
-44936.529
-40462.591
-36069.582
-31796.977
-27565.221
-23496.429
-19643.779
-15452.438
-12160.909
-7814.182
-4200.2901
-51.314486
5005.4212
10995.578
-473243.35
-449835.4
-370037.04
-412080.7
-414402.02
-430147.45
-433111.73
-444611.63
-446858.48
-447719.26
-450865.86
-447326.74
-446092.21
-442779.02
-437176.36
-433473.74
-427913.98
-421190.11
-417367.65
-409850.35
-404828.23
-399218.26
-393604.78
-389165.18
-383017.5
-377593.66
-372211.87
-365871.57
-361745.36
-355031.71
-350302.45
-343894.81
-338535.2
-332508.53
-326995.25
-321616.24
-315610.49
-310167.34
-303956.08
-298294.66
-292246.05
-286291.89
-280325.03
-274285.47
-268282.15
-262208.74
-256149.84
-250075.37
-244012.41
-237954.29
-231911.16
-225906.17
-219930.26
-213991.7
-208103.23
-202266.85
-196476.18
-190744.88
-185052.23
-179425.21
-173812.12
-168257.14
-162692.28
-157143.62
-151532.61
-145919.93
-140197.79
-134763.84
-129218.02
-123402.74
-117910.86
-112104.3
-106269.05
-100568.54
-94656.969
-88867.183
-83016.274
-77249.679
-71511.994
-65890.37
-60272.179
-54779.091
-49327.839
-44064.154
-38755.435
-33776.231
-28751.047
-23986.615
-19250.462
-15086.289
-10041.885
-6678.3287
-1625.1312
3317.5518
10152.744
-671289.59
-418850.78
-458910.33
-468722.3
-489560.68
-485788.6
-503945.81
-509826.28
-509489.77
-513772.88
-512073
-512434.22
-506907.03
-503026.68
-497561.28
-491887.65
-488062.69
-478951.4
-475092.23
-465874.53
-460584.33
-452829.68
-448989.84
-440840.85
-437351.09
-428225.77
-424155.4
-415473.55
-412485.84
-404400.8
-399533.17
-392102.41
-386175.83
-378746.21
-371920.34
-366691.83
-360345.51
-353633.35
-346958.74
-340407.28
-333518.34
-326822.77
-319939.59
-313075.24
-306200.41
-299276.49
-292392.63
-285503.32
-278595.61
-271756.83
-264890.58
-258103.16
-251330.44
-244608.79
-237950.01
-231343.38
-224787
-218298.36
-211866.03
-205468.91
-199127.41
-192825.25
-186531.1
-180252.81
-173945.83
-167490.44
-160909.69
-154370.62
-148334.7
-141964.47
-135608.51
-128828.3
-122393.94
-115727.34
-109052.12
-102430.29
-95916.031
-89223.955
-82749.658
-76175.065
-69760.381
-63371.253
-57177.721
-50952.571
-45018.34
-39175.252
-33439.045
-28070.08
-22825.578
-17976.576
-13148.274
-9700.3228
-4953.5311
-902.45044
5874.9374
1196566
1151903
1129560.9
1159461.8
1165242.1
1173538.2
1212225.4
1187991.3
1178733.7
1174958.8
1168446.7
1132620
1123128.6
1177635.2
1027944.5
1055676.8
1074955.4
1030465
1055576.3
1068470.4
1085982.6
1057895.3
1095910.5
1085545.3
1094186.2
1072815
1067364.4
1067447.1
1075146.5
935220.71
800026.93
898949.3
809301.2
847108.51
843853.03
838999.73
848764.11
841891.11
849290.1
836820.87
834885.5
840647.74
789402.79
860761.8
806011.04
689955.21
689179.52
694565.34
685775.2
706530
701984.59
711731.09
712744.99
706493.25
709596.28
710770.65
687829.86
690859
733233
543958.04
487652.06
550203.79
488148.71
526179.42
512745.47
529898.32
524942.03
523066.8
527825.83
526189.09
520323.79
518073.26
511939.1
525207.61
474784.46
352586.47
361677.65
345917.4
355326.82
357592.01
358955.03
357065
358596.04
361382.38
359566.56
351067.92
365266.71
345995.29
363147.41
351482.39
178407.8
181780.07
186594.91
179750.26
189675.66
191651.46
189326.31
191538.53
186486.88
191677.63
185541.3
177034.06
191478.16
171063.9
189161.91
4435.4954
-1205.0437
-4008.4254
5797.2247
-48.603732
3757.6032
826.0412
3469.0906
-2618.446
11782.344
-14818.276
10858.059
21709.438
-21412.623
78221.086
-154452.82
-172752.55
-147546.35
-160878.44
-155240.04
-155879.09
-157703.22
-153734.65
-160809.13
-144412.53
-167843.49
-144824.24
-142866.42
-191929.84
-26982.632
-297460.91
-367033.48
-319488.22
-334332.39
-332885.97
-337596.83
-341661.38
-338990.58
-350975.59
-329057.19
-373804.89
-323300.02
-323107.01
-391565
-197118.08
-472298.87
-582692.38
-479475.43
-538023.88
-509433
-525055.4
-518961.47
-518652.5
-524811.37
-498805.15
-516808.38
-506695.46
-472399.42
-543504.51
-309585.68
-690211.51
-660376.04
-662825.03
-646575.98
-672973.61
-674937
-680115.5
-687177.67
-690752.15
-678093.77
-717778.11
-628793.32
-664236.34
-742105.96
-478442.24
-768023.12
-888457.84
-762124.99
-811029.4
-771689.94
-801341.69
-790384.46
-793095.65
-783706.95
-778231.26
-787042.62
-792413.27
-721560.66
-883827.81
-408435.72
-941500.21
-1160590.5
-985350.85
-1085543.9
-1106747.8
-1100004.8
-1106706.8
-1162182.2
-1133245.1
-1161659.3
-1095115.8
-1065876.1
-1092939.9
-1067045.1
-962611.18
-988777.6
-913321.46
-812751.15
-817918.04
-853511.24
-918847.71
-875456.25
-846373.85
-809378.51
-804130.12
-820726.77
-827698.56
-825047.58
-937199.66
-830131.62
-952961.49
-888813.98
-1060787.3
-1127701.7
-1175777.4
-1284246.5
-1232923.1
-1155059.2
-1312264
-1283435.1
-1239613.8
-1172433
-1114736.3
-1066001.2
-873398.98
-649929.19
-659127.11
-749797.24
-775173.67
-810540.53
-837508.91
-863066.37
-888301.29
-919398.33
-870172.92
-850478.22
-796083.12
-796546.49
-787714.12
-795461.96
-540588.96
-631921.48
-608407.74
-676583.52
-716956.04
-695056.1
-733523.23
-726407.92
-704583.25
-736046.34
-704698.22
-714460.46
-691312.63
-603704.26
-640137.41
-546151.61
-629968.08
-636751.01
-657781
-677965.11
-692791.36
-700768.34
-708237.99
-706951.25
-689972.27
-689587.73
-670856.84
-640332.31
-628973.15
-588851.59
-593299.88
-656608.32
-634479.07
-688756.37
-695667.39
-711480.57
-727348.21
-724489.8
-729859.22
-727472.39
-708634.69
-693020.39
-662112.34
-628044.57
-625578.19
-572721.5
-603834.87
-621232.3
-647439.26
-658022.5
-678049.33
-677429.52
-681236
-681453.31
-669754.19
-664616.33
-650660.37
-627937.81
-611000.7
-574926.4
-573805.29
-622498.75
-621646.52
-653075.86
-655380.85
-671508.58
-676886.44
-679465.79
-679283.16
-671864.06
-657811.15
-648319.29
-628869.76
-598847.58
-604919.14
-581037.15
-595282.65
-613533.13
-623800.78
-644933.24
-647869.33
-656264.54
-658982.48
-656677.4
-652153.06
-643965.49
-630290.97
-617540.43
-593967.38
-578365.08
-570078.41
-598825.44
-603406.2
-624453.7
-623648.99
-640668.87
-636848.35
-643006.35
-640002.81
-632996.78
-626239.58
-615462.79
-604679.08
-589673.67
-580958.88
-572945.23
-580926.01
-593320.25
-598278.73
-610252.23
-612742.6
-619454.39
-619641.28
-617778.64
-617603.76
-608995.53
-603621.45
-593604.97
-580530.69
-574522.42
-562045.89
-579833.53
-583610.57
-598090.36
-600437.64
-610871.4
-609412.82
-615030.63
-613105.65
-609303.91
-606622.14
-600503.46
-590420.51
-583209.11
-576234.19
-563512.73
-565787.22
-574809.09
-578229.89
-584274.42
-585416.8
-591131.37
-591518.97
-592674.04
-590941.86
-587590.69
-582292.92
-578455.03
-569987.34
-567429.76
-556659.34
-561630.13
-563697.62
-572428.34
-574692.14
-582386.79
-581554.86
-585830.09
-584950.71
-583947.27
-579036.89
-578616.44
-569837.95
-567959.83
-562243.49
-548866.12
-551171.76
-558486.93
-559272.43
-564501.98
-564676.9
-566905.34
-569267.26
-569682.37
-567568.47
-567054.57
-564399.81
-560905.38
-557188.42
-556375.72
-543160.63
-544449.85
-548431.61
-552308.31
-555200.49
-557202.87
-560590.81
-559943.85
-561915.33
-562423.15
-559520.25
-559209.43
-551559.43
-553971.47
-550247.77
-534330.36
-536434.97
-542092.99
-541389.59
-544987.56
-545211.75
-550509.3
-546731.99
-546860.2
-546182.29
-544759.33
-544318.09
-538461.2
-538700.34
-535751.69
-529909.56
-528667.99
-533147.53
-531792.81
-537313.58
-538723.56
-539507.23
-541209.06
-542016.63
-542718.21
-540570.48
-541745.45
-539849.03
-535670.87
-539973.37
-522633.55
-522197.53
-525522.85
-524791.23
-527828.29
-528396.38
-530623.19
-528905.46
-529877.7
-528979.58
-528053.44
-527122.4
-526894.58
-523255.17
-523502.68
-514008.06
-514393.58
-517859.03
-519178.22
-520624.17
-520893.13
-520366.06
-523508.54
-522922.31
-524312.75
-520392.97
-524382.27
-520359.7
-524631.5
-521842.65
-507843.49
-507544.72
-509845.75
-509234.38
-512089.24
-512337.92
-515574
-513134.77
-515466.21
-513368.86
-512587.45
-514061.74
-510687.24
-512471.13
-509958.25
-501982.76
-500478.26
-503836.5
-502729.63
-504482.4
-504087.05
-506409.85
-507798.67
-506552.63
-507882.37
-507134.86
-509123.92
-506491.68
-508175.28
-506113.16
-491157.39
-494366.87
-494810.87
-495940.3
-497707.83
-497268.52
-499520.94
-498344.93
-500302.17
-499316.61
-498829.41
-500599.54
-497307.41
-496526.82
-499441.52
-488788.84
-485989.05
-488730.76
-488970.83
-490501.87
-491057.1
-492575.44
-492429.58
-491929.49
-494141.22
-491975.04
-493187.88
-490067.94
-494015.82
-492030.64
-478885.83
-479613.1
-481137.81
-482872.6
-483301.99
-483973.53
-485364.71
-484274.05
-486362.59
-485462.21
-484104.07
-486866.69
-484637.25
-484687.18
-484053.34
-473643.78
-473978.72
-474860.65
-475260.08
-476656.61
-476428.18
-478749.9
-478444.34
-478741.33
-479951.9
-476745.09
-480000.68
-477357.61
-478432.96
-478594.72
-467704.47
-465139.99
-468673.01
-467328.38
-469680.06
-470136.52
-471804.87
-471061.25
-472341.43
-472374.12
-473094.98
-472829.87
-469831.76
-472886.51
-469908.2
-459759.24
-459203.87
-460530.79
-462223.16
-462806.78
-464848.49
-464833.64
-465633.61
-465447.05
-466095.96
-464633.28
-467587.16
-463136.25
-464789.52
-466442.3
-454775.72
-451663.03
-454308.24
-454743.47
-457109.1
-457427.26
-458033.57
-458204.91
-459510.5
-458928.45
-458927.37
-459177.61
-457119.32
-460202.05
-456408.75
-445791.98
-446805.91
-448872.65
-448763.49
-449989.99
-450882.55
-451664.28
-452348.71
-452479.44
-453188.93
-451602.22
-453617.61
-450732.17
-451057.7
-453063.44
-442509.84
-438029.25
-441584.54
-441964.19
-444295.04
-443620.43
-445131.14
-445439.03
-445970.44
-445667.19
-444860.92
-446482.34
-443824.05
-445590.72
-445069.96
-434054.52
-432848.35
-434906.63
-435794.8
-436578.22
-438845.68
-438330.95
-438783.2
-438024.72
-439826.2
-438450.79
-440091.55
-437349.25
-438087.79
-438228.55
-428636.48
-425198.56
-428443.75
-428725.55
-430154.3
-431372.21
-431398.63
-431960.43
-431828.72
-432744.02
-431334.72
-433192.01
-430500.84
-431764.14
-431334.96
-421303.09
-418972.01
-421425.28
-422183.94
-423579.71
-424517.48
-424737.43
-425286.75
-425373.51
-426004.94
-424870.97
-426270.59
-423891.21
-424741.99
-424057.6
-414405.99
-411940.26
-414606.9
-415156.43
-416381.19
-417282.74
-417840.83
-418283.86
-418176.67
-418867.95
-417494.97
-419220.11
-416856.09
-417864
-417548.66
-406607.27
-405475.86
-407824.69
-408099.44
-409435.38
-410746.61
-410697.69
-411500.12
-411209.17
-412223.11
-410681.9
-412316.47
-409546.72
-411032.29
-409088.32
-398776.5
-399281.08
-399768.32
-402925.47
-401809.01
-403426.33
-403563.21
-403908.28
-404065.31
-404566.38
-403396.89
-404635.82
-403134.37
-402948.17
-404675.29
-394337.92
-390914.22
-393680.63
-393909.47
-395935.64
-395668.4
-396912.68
-396671.79
-397112.11
-396590.23
-396151.13
-397886.82
-395318.89
-396592.31
-395788.6
-385688.23
-384503.74
-386043.32
-387621.14
-387378.62
-389149.66
-388693.12
-389767.59
-389247.29
-389885.37
-388796.19
-390165.52
-388338.73
-388577.15
-388658.64
-379820.45
-376586.51
-379312.2
-379622.79
-380792.62
-381347.19
-381843.51
-382108.27
-381941.65
-382628.64
-381368.19
-383101.23
-380588.99
-381590.19
-381132.13
-371632.29
-369737.32
-371774.48
-372562.75
-373092.76
-374178.02
-374253.82
-374602.85
-374611.32
-375014.95
-373897.66
-375106.18
-373319.48
-373960.15
-373753.73
-364868.68
-362109.94
-364567.33
-364816.39
-365802.02
-366356.74
-366689.24
-367030.63
-366902.88
-367517.49
-366232.62
-367769.52
-365727.25
-366451.38
-366174.66
-357122.7
-354952.12
-356981.03
-357524.21
-358208.19
-358949.29
-359271.35
-359383.44
-359469.59
-359802.74
-358807.49
-360098.08
-358216.17
-358852.53
-358721.32
-349998.6
-347379.09
-349632.07
-349857.5
-350656.67
-351351.84
-351536.27
-351787.08