/*--------------------------------*- C++ -*----------------------------------*\
  =========                 |
  \\      /  F ield         | OpenFOAM: The Open Source CFD Toolbox
   \\    /   O peration     | Website:  https://openfoam.org
    \\  /    A nd           | Version:  6
     \\/     M anipulation  |
\*---------------------------------------------------------------------------*/
FoamFile
{
    version     2.0;
    format      ascii;
    class       pointVectorField;
    location    "0.35";
    object      lm;
}
// * * * * * * * * * * * * * * * * * * * * * * * * * * * * * * * * * * * * * //

dimensions      [1 -2 -1 0 0 0 0];

internalField   nonuniform List<vector> 
28033
(
(0 0 0)
(0 0 0)
(5688.0188 -280.97071 9.1309142)
(5297.2097 -1843.8063 10.75289)
(0 0 0)
(0 0 0)
(5311.12 -1859.5352 -11.636728)
(5697.5262 -299.61468 25.436395)
(0 0 0)
(0 0 0)
(0 0 0)
(0 0 0)
(0 0 0)
(0 0 0)
(0 0 0)
(0 0 0)
(0 0 0)
(0 0 0)
(0 0 0)
(0 0 0)
(0 0 0)
(0 0 0)
(0 0 0)
(5662.7831 -379.10796 9.8167271)
(5636.9803 -476.73016 10.277366)
(5611.5652 -574.262 11.296052)
(5585.9469 -671.46923 11.77057)
(5560.7499 -768.61055 12.355722)
(5535.9385 -865.80988 12.625784)
(5511.2569 -962.89401 12.857713)
(5487.175 -1060.2426 12.895457)
(5463.2107 -1157.6759 12.752694)
(5439.6284 -1255.3438 12.542366)
(5416.2341 -1353.3268 12.157662)
(5392.9179 -1451.3609 11.736085)
(5369.8503 -1549.6928 11.659771)
(5346.4818 -1648.199 11.229639)
(5322.4951 -1746.8323 11.006087)
(-5.3208296 -1.7767012 2.3106515)
(-14.709292 -0.67697935 6.8881119)
(-23.795884 3.4936746 11.787325)
(-31.321986 8.3683617 15.042376)
(-37.397019 15.158215 17.763949)
(-41.198909 22.714213 19.370162)
(-43.05245 31.09578 20.488521)
(-42.718952 39.779179 20.706577)
(-40.451842 49.085831 20.530525)
(-36.178674 58.408746 19.962436)
(-30.31589 68.003881 19.236452)
(-22.818678 77.569379 18.333224)
(-14.002123 87.366946 17.756275)
(-3.7639026 97.169594 17.169179)
(7.4668726 107.21911 17.23896)
(19.973989 117.39706 17.555412)
(33.532818 127.94031 18.512315)
(48.299911 138.7273 19.920381)
(64.523086 150.13021 21.991208)
(82.211673 161.80302 24.472194)
(101.57736 174.04567 27.477306)
(123.18536 186.76646 30.742032)
(146.89333 199.81253 34.330311)
(173.32455 213.38917 37.991821)
(202.64813 227.15701 41.671778)
(235.13126 241.0473 45.1377)
(271.03116 254.89173 48.411415)
(310.57626 268.6998 51.190699)
(353.84473 281.93881 53.540383)
(400.98039 294.74104 55.32417)
(451.85519 306.70046 56.437112)
(506.39579 317.7611 57.026421)
(564.43354 327.78184 57.08912)
(625.72189 336.52784 56.706483)
(689.90438 344.17184 55.921823)
(756.53877 350.40522 55.096403)
(825.33528 355.50363 54.258517)
(895.81987 359.33414 53.577027)
(967.72366 362.08203 53.169715)
(1040.7439 363.8344 53.219113)
(1114.6692 364.57682 53.674612)
(1189.4273 364.51836 54.534375)
(1264.9948 363.64431 55.659239)
(1341.4715 362.02 56.930029)
(1418.9675 359.63711 58.097082)
(1497.6871 356.49391 58.933072)
(1577.7529 352.55192 59.242338)
(1659.2972 347.76716 58.832306)
(1742.3522 342.10557 57.611985)
(1826.8788 335.52899 55.553814)
(1912.7356 328.02836 52.723772)
(1999.7116 319.60081 49.263475)
(2087.5306 310.27042 45.368681)
(2175.8929 300.05912 41.265606)
(2264.5007 289.00095 37.172952)
(2353.0861 277.11245 33.277275)
(2441.4344 264.40035 29.705881)
(2529.3822 250.84585 26.51807)
(2616.816 236.42215 23.69964)
(2703.6525 221.07167 21.187128)
(2789.8018 204.76656 18.882723)
(2875.1536 187.4748 16.668937)
(2959.5369 169.22023 14.50629)
(3042.6772 150.09931 12.329721)
(3124.374 130.16958 10.196206)
(3204.0401 109.88011 8.302349)
(3281.565 89.32048 6.6905471)
(3356.4149 69.03731 5.6635211)
(3428.2968 49.368365 5.5609139)
(3497.1739 30.893236 6.5284707)
(3563.1188 13.899724 8.5748281)
(3626.364 -1.1324393 11.937235)
(3687.5131 -13.980389 16.408293)
(3747.2992 -24.486521 21.841559)
(3806.6969 -32.642027 27.880657)
(3866.7367 -38.63907 34.138738)
(3928.584 -42.75798 40.13)
(3993.2158 -45.479382 45.400367)
(4061.6726 -47.332637 49.527612)
(4134.5369 -48.900691 52.165221)
(4212.3917 -50.828712 53.084255)
(4295.2829 -53.74471 52.29018)
(4383.1252 -58.003663 49.805661)
(4475.4627 -64.121754 45.83982)
(4571.7915 -72.201461 40.815584)
(4671.197 -82.682561 35.109844)
(4772.8924 -95.311985 29.175272)
(4875.9905 -110.15495 23.406428)
(4979.7278 -126.94781 18.296383)
(5083.4354 -145.47726 13.827889)
(5186.6722 -165.56607 10.674442)
(5288.9723 -186.6913 8.245071)
(5390.5153 -209.24778 7.2628837)
(5490.4041 -231.88093 7.1475744)
(5589.7204 -255.71339 8.1729051)
(-1.7179244 -1.3780088 -2.4384562)
(-11.762592 -3.2754763 -9.6620001)
(-22.974814 -5.2276551 -16.221521)
(-31.344583 -10.738697 -20.647958)
(-38.512076 -16.196574 -23.72801)
(-43.761877 -23.741456 -25.052184)
(-46.561186 -31.158273 -25.387257)
(-47.93016 -40.13843 -24.406682)
(-46.994221 -49.416471 -23.002979)
(-44.900832 -59.164432 -21.042474)
(-41.147288 -69.540799 -19.058212)
(-36.40619 -80.050459 -17.258461)
(-30.495895 -91.088477 -15.787278)
(-23.804058 -102.26734 -15.028596)
(-16.125787 -113.78028 -14.764781)
(-7.7914061 -125.69785 -15.397115)
(1.629203 -137.86414 -16.655785)
(11.931821 -150.64686 -18.571526)
(23.347659 -163.89224 -21.143676)
(36.259212 -177.86215 -24.120955)
(50.657301 -192.59296 -27.350846)
(66.959572 -208.29116 -30.817658)
(85.386093 -224.81024 -34.200894)
(106.42509 -242.62445 -37.340848)
(130.03363 -261.4047 -40.225581)
(157.00087 -281.3143 -42.446756)
(187.20296 -302.53854 -44.20913)
(221.12268 -324.52621 -45.07481)
(258.73538 -347.79418 -45.42928)
(300.1767 -371.52953 -44.86523)
(345.39609 -396.2223 -43.878797)
(394.11016 -421.10594 -42.335915)
(446.18829 -446.34051 -40.576078)
(501.28729 -471.55382 -38.718521)
(558.93649 -496.61206 -37.040596)
(618.81476 -521.2842 -35.780614)
(680.56201 -545.49149 -34.92426)
(743.83176 -569.29642 -34.715351)
(808.31927 -592.44431 -35.118962)
(873.98553 -615.17442 -36.061541)
(940.69848 -637.44169 -37.401405)
(1008.5587 -659.40007 -38.920052)
(1077.6794 -681.15791 -40.353902)
(1148.2437 -702.83976 -41.439304)
(1220.4293 -724.54736 -41.926867)
(1294.3958 -746.3562 -41.62232)
(1370.2295 -768.30249 -40.413908)
(1447.9364 -790.37852 -38.280387)
(1527.4172 -812.53841 -35.303856)
(1608.4824 -834.69928 -31.650977)
(1690.8625 -856.75926 -27.557122)
(1774.2436 -878.60172 -23.290288)
(1858.3005 -900.11667 -19.116567)
(1942.7375 -921.20432 -15.264099)
(2027.3152 -941.78642 -11.893024)
(2111.8752 -961.80497 -9.0783884)
(2196.3395 -981.22391 -6.8029349)
(2280.7013 -1000.0145 -4.9732039)
(2364.9924 -1018.1578 -3.4359561)
(2449.2481 -1035.6246 -2.0207883)
(2533.4575 -1052.3754 -0.57439408)
(2617.5225 -1068.3618 1.0044007)
(2701.2304 -1083.5183 2.7219528)
(2784.2291 -1097.7873 4.4951627)
(2866.0482 -1111.1267 6.1183295)
(2946.1095 -1123.5418 7.3336431)
(3023.834 -1135.0417 7.7714925)
(3098.5093 -1145.7858 7.0885964)
(3169.9111 -1155.9573 5.0565423)
(3237.4666 -1166.0261 1.3676285)
(3301.1526 -1176.0521 -3.971211)
(3361.3302 -1186.7711 -10.965515)
(3418.3467 -1198.5131 -19.300294)
(3473.0865 -1211.8158 -28.569054)
(3526.5719 -1227.1579 -38.222674)
(3579.9738 -1244.9028 -47.639994)
(3634.5769 -1265.3423 -56.173455)
(3691.6198 -1288.6239 -63.21931)
(3752.1841 -1314.7332 -68.272418)
(3817.1891 -1343.5343 -70.985481)
(3887.213 -1374.7095 -71.190536)
(3962.5643 -1407.8551 -68.907786)
(4043.1929 -1442.4554 -64.363618)
(4128.7781 -1477.9739 -57.923619)
(4218.7312 -1513.8262 -50.09526)
(4312.3096 -1549.5217 -41.42468)
(4408.6684 -1584.5626 -32.494661)
(4506.9571 -1618.619 -23.811829)
(4606.3902 -1651.4045 -15.816915)
(4706.3184 -1682.7888 -8.808868)
(4806.2126 -1712.7132 -2.9484143)
(4905.7528 -1741.2283 1.6899429)
(5004.7173 -1768.3798 5.226272)
(5102.9898 -1794.5554 7.7948944)
(5200.7123 -1819.4216 9.5184899)
(0 0 0)
(0 0 0)
(0 0 0)
(0 0 0)
(0 0 0)
(0 0 0)
(0 0 0)
(0 0 0)
(0 0 0)
(0 0 0)
(0 0 0)
(0 0 0)
(0 0 0)
(0 0 0)
(0 0 0)
(-0.43599935 0.31140009 0.63739647)
(-11.7006 -2.5555329 9.4552891)
(-23.935795 -4.5814646 17.246061)
(-32.828588 -11.029449 22.379575)
(-40.771626 -15.026157 25.439345)
(-44.949519 -23.696097 27.626638)
(-48.599098 -29.718957 27.528976)
(-48.488088 -39.72077 27.171791)
(-47.74836 -47.52016 25.456514)
(-44.522141 -58.120709 23.218365)
(-39.835215 -67.800445 21.251839)
(-34.371841 -78.148053 18.764933)
(-27.268257 -89.508558 16.867728)
(-19.897932 -100.20205 15.410123)
(-11.025406 -112.60196 14.665061)
(-2.1599836 -124.0241 14.528707)
(8.039931 -137.23933 15.58689)
(18.779751 -149.62836 16.901335)
(30.531699 -164.05066 19.653324)
(43.716289 -178.07174 22.605513)
(57.803803 -193.4042 26.41301)
(74.014238 -209.48484 30.390381)
(92.258205 -226.75615 34.923156)
(112.80356 -244.7505 39.236561)
(136.03876 -263.91358 43.394183)
(162.64773 -283.86239 47.188509)
(191.85254 -304.94209 50.347947)
(225.81807 -327.25698 53.03908)
(262.32927 -349.79581 54.865062)
(303.69404 -373.83713 56.00898)
(348.2473 -397.74614 56.498615)
(396.58967 -422.26401 56.267393)
(448.2787 -447.00194 55.629554)
(502.99442 -471.71947 54.71837)
(560.50374 -496.56183 53.675565)
(619.99576 -520.73677 52.880087)
(681.71321 -545.10661 52.204869)
(744.89784 -568.85558 52.049629)
(809.41555 -592.31816 52.282028)
(875.13557 -615.45543 52.937825)
(941.96211 -638.31325 53.932913)
(1009.9434 -660.95153 55.090209)
(1079.183 -683.43684 56.210953)
(1149.834 -705.83861 57.068468)
(1222.0551 -728.1957 57.438663)
(1295.9926 -750.54367 57.135054)
(1371.7225 -772.8786 56.035219)
(1449.2513 -795.18435 54.090955)
(1528.4853 -817.41076 51.34806)
(1609.2461 -839.50119 47.930947)
(1691.2758 -861.37865 44.03742)
(1774.2742 -882.97021 39.903808)
(1857.9231 -904.19794 35.78303)
(1941.9303 -924.9946 31.899643)
(2026.0542 -945.29834 28.431692)
(2110.1281 -965.05348 25.475779)
(2194.0629 -984.21134 23.049214)
(2277.8415 -1002.7203 21.081309)
(2361.4867 -1020.5282 19.441864)
(2445.0328 -1037.5766 17.96044)
(2528.4736 -1053.8041 16.468404)
(2611.7309 -1069.1472 14.835254)
(2694.608 -1083.5538 12.998057)
(2776.7991 -1096.9965 10.990063)
(2857.8633 -1109.4717 8.9402375)
(2937.234 -1121.0192 7.0760283)
(3014.4776 -1131.8503 5.7393876)
(3088.5742 -1142.205 5.1534294)
(3160.1527 -1152.0725 5.8393061)
(3227.5126 -1161.6732 7.7065521)
(3291.4934 -1172.22 11.116291)
(3352.1001 -1183.482 16.017066)
(3409.7323 -1196.1398 22.254677)
(3465.2603 -1210.6114 29.456601)
(3519.6275 -1227.3172 37.190793)
(3574.0001 -1246.5719 44.911295)
(3629.6053 -1268.5742 52.023859)
(3687.6435 -1293.4086 57.969259)
(3749.1921 -1321.0024 62.259679)
(3815.123 -1351.1562 64.537411)
(3886.04 -1383.5356 64.60368)
(3962.242 -1417.7123 62.437692)
(4043.7172 -1453.1789 58.195205)
(4130.1625 -1489.4034 52.182968)
(4221.0386 -1525.8475 44.827772)
(4315.6242 -1562.0232 36.62696)
(4413.1064 -1597.4929 28.096538)
(4512.6373 -1631.9353 19.730288)
(4613.4304 -1665.0837 11.948433)
(4714.7658 -1696.83 5.0830137)
(4816.0913 -1727.075 -0.64180241)
(4916.9277 -1755.8987 -5.1154987)
(5016.9949 -1783.3172 -8.2962528)
(5116.1215 -1809.5103 -10.290266)
(5213.9144 -1834.5779 -11.255391)
(5335.9894 -1762.0054 -9.2021267)
(5359.5833 -1663.7533 -6.9037024)
(5382.5224 -1565.3929 -4.4988176)
(5405.1767 -1467.9092 -1.7430955)
(5427.5321 -1370.6551 0.99489074)
(5450.2456 -1273.9029 3.8875749)
(5472.9239 -1177.3717 6.5974252)
(5496.2056 -1080.7796 9.4029814)
(5519.9507 -984.45203 11.806549)
(5544.0345 -887.74006 14.187055)
(5568.5777 -790.78798 16.298684)
(5593.8677 -693.43143 18.287944)
(5619.8359 -595.86624 19.878089)
(5645.4011 -496.94716 21.751723)
(5671.9676 -398.81485 23.291647)
(5598.3397 -274.13994 23.553701)
(5497.5612 -250.34618 21.070874)
(5396.0932 -226.8682 17.671416)
(5292.916 -204.02985 12.85349)
(5188.3621 -182.05904 6.5023417)
(5082.8306 -161.201 -1.0673579)
(4976.6401 -141.68778 -9.806376)
(4870.4313 -123.80159 -19.434743)
(4764.8904 -107.79443 -29.538002)
(4660.9263 -93.793877 -39.761129)
(4559.3151 -81.949591 -49.53551)
(4461.0989 -72.179147 -58.433384)
(4366.9135 -64.413412 -65.944451)
(4277.5807 -58.361973 -71.75962)
(4193.4696 -53.618401 -75.442883)
(4114.8179 -49.798332 -76.834088)
(4041.5039 -46.369378 -75.862897)
(3973.1301 -42.774975 -72.6785)
(3909.0156 -38.501009 -67.505674)
(3848.2599 -33.070449 -60.732871)
(3789.776 -26.10115 -52.799332)
(3732.4411 -17.332619 -44.227557)
(3675.0555 -6.6106128 -35.537825)
(3616.6515 6.0667229 -27.185224)
(3556.2313 20.511309 -19.553205)
(3493.139 36.617212 -13.083717)
(3427.1206 53.921005 -7.8332856)
(3357.1023 73.152502 -3.9230336)
(3284.4212 91.544392 -1.4727959)
(3208.4681 110.96159 0.085350642)
(3129.7743 130.2104 0.52976604)
(3048.7123 149.12964 0.18172035)
(2965.8152 167.52555 -0.69861198)
(2881.4771 185.24421 -1.9521189)
(2796.0764 202.1987 -3.4250674)
(2709.8965 218.33759 -5.0433279)
(2623.1373 233.65099 -6.7801703)
(2535.924 248.1446 -8.6609973)
(2448.333 261.83043 -10.735422)
(2360.4241 274.71783 -13.056758)
(2272.2665 286.8055 -15.658998)
(2183.9674 298.08089 -18.539011)
(2095.6815 308.52143 -21.64575)
(2007.6164 318.09767 -24.879565)
(1920.0192 326.78207 -28.103999)
(1833.1547 334.55078 -31.159164)
(1747.2848 341.3934 -33.888583)
(1662.6284 347.30903 -36.160279)
(1579.358 352.31584 -37.886946)
(1497.5664 356.42801 -39.037552)
(1417.2658 359.6841 -39.65423)
(1338.4399 362.10316 -39.820759)
(1260.9625 363.67968 -39.677616)
(1184.7602 364.45876 -39.395108)
(1109.7382 364.34005 -39.10772)
(1035.8518 363.36563 -39.011851)
(963.14523 361.45461 -39.087819)
(891.5839 358.47689 -39.539126)
(821.83651 354.2822 -40.065902)
(753.47515 349.16355 -41.036312)
(687.16965 342.66773 -41.975218)
(623.77585 334.72202 -42.750179)
(562.63602 325.98024 -43.518543)
(504.84686 315.94422 -43.922944)
(450.24325 304.89078 -43.839751)
(399.78474 292.41618 -43.309563)
(352.41757 280.2026 -42.128701)
(309.46315 266.22078 -40.574979)
(269.7453 253.06166 -38.704896)
(233.79692 239.07618 -36.256983)
(201.24558 225.2262 -33.685732)
(171.75105 211.70019 -30.829991)
(145.27958 197.99152 -28.017763)
(121.29675 185.34195 -25.404057)
(99.591324 172.79634 -22.85633)
(79.907046 160.57928 -20.607695)
(62.105272 149.28277 -18.771048)
(45.646775 137.87618 -17.262896)
(30.86483 127.32001 -16.236363)
(17.061651 116.76659 -15.654817)
(4.7335303 106.50155 -15.558715)
(-6.6297812 96.353765 -15.723059)
(-16.701535 86.699764 -16.593174)
(-25.450213 76.576757 -17.444834)
(-32.942211 67.244124 -18.702935)
(-38.714779 57.47678 -19.736738)
(-42.836891 48.205099 -20.884967)
(-44.98645 39.045962 -21.296334)
(-45.287749 30.577994 -21.526897)
(-43.091875 22.287246 -20.543404)
(-39.132177 14.98744 -19.045123)
(-32.649543 8.1725087 -16.239365)
(-24.518602 3.5730403 -12.5553)
(-14.727668 0.15034572 -7.4685068)
(-4.7077404 -2.3591118 -1.1801255)
(0 0 0)
(0 0 0)
(0 0 0)
(0 0 0)
(0 0 0)
(0 0 0)
(0 0 0)
(0 0 0)
(0 0 0)
(0 0 0)
(0 0 0)
(0 0 0)
(0 0 0)
(0 0 0)
(0 0 0)
(0 0 0)
(0 0 0)
(0 0 0)
(0 0 0)
(0 0 0)
(0 0 0)
(0 0 0)
(0 0 0)
(0 0 0)
(0 0 0)
(0 0 0)
(0 0 0)
(0 0 0)
(0 0 0)
(0 0 0)
(5296.7559 -1845.2375 10.755505)
(5296.0112 -1846.4261 10.307804)
(5295.1708 -1847.0413 9.4040134)
(5294.3333 -1847.4416 8.1954755)
(5293.6977 -1847.8014 6.6727699)
(5293.2818 -1848.1625 4.8804268)
(5293.2969 -1848.7362 2.8862727)
(5293.7642 -1849.6169 0.74066548)
(5294.7491 -1850.8048 -1.4325385)
(5296.2061 -1852.2566 -3.6243015)
(5298.172 -1853.9708 -5.624561)
(5300.414 -1855.6784 -7.5496562)
(5302.9492 -1857.2519 -9.1550862)
(5305.6363 -1858.4191 -10.410537)
(5308.2598 -1859.3891 -11.538664)
(5687.1431 -282.30962 9.1567396)
(5685.2504 -284.02346 9.4614602)
(5683.1946 -285.76028 10.074271)
(5681.2028 -287.60626 10.922157)
(5679.5241 -289.33685 12.050881)
(5678.3535 -290.88553 13.329935)
(5677.9866 -292.12664 14.791074)
(5678.5069 -293.00642 16.331533)
(5679.948 -293.55413 17.92349)
(5682.189 -293.83871 19.530081)
(5685.0526 -294.03487 21.032476)
(5688.1761 -294.315 22.467892)
(5691.3207 -294.87252 23.732281)
(5694.0748 -296.00566 24.545485)
(5696.253 -297.61622 25.452479)
(-4.9283448 3.4706537 2.9119315)
(-15.710388 6.4879913 7.2760249)
(-25.435212 10.322653 10.410173)
(-33.226535 14.466222 12.900946)
(-40.033751 19.717776 15.32172)
(-43.971906 25.647984 16.747793)
(-46.455725 31.970054 17.751052)
(-46.118893 39.282535 17.982586)
(-44.398813 46.50573 18.079926)
(-40.334381 54.524639 17.750601)
(-34.75558 62.380756 17.140238)
(-27.47696 70.923488 16.792437)
(-18.9033 79.223783 16.222792)
(-8.994681 88.169327 16.095471)
(1.981171 96.958224 16.085115)
(14.124247 106.30873 16.626126)
(27.386625 115.62553 17.423362)
(41.773548 125.51269 18.836473)
(57.544198 135.38911 20.556411)
(74.727194 145.76645 22.787)
(93.636897 156.25403 25.3541)
(114.57505 167.01375 28.235624)
(137.72922 177.99239 31.272697)
(163.44786 188.96188 34.485646)
(192.11318 199.98357 37.592396)
(223.92306 210.85347 40.626911)
(259.1277 221.60268 43.378068)
(297.96329 231.83538 45.849586)
(340.64984 241.66789 47.845148)
(387.0843 250.89482 49.365144)
(437.4099 259.34204 50.431993)
(491.5012 267.02819 50.984214)
(549.09151 273.79495 51.112071)
(609.93911 279.66675 50.867246)
(673.78616 284.60058 50.338545)
(740.17251 288.57572 49.741118)
(808.7337 291.69828 49.106563)
(879.0575 293.88067 48.60465)
(950.87558 295.27905 48.316601)
(1023.7769 295.81967 48.369933)
(1097.6483 295.55648 48.711476)
(1172.3176 294.51205 49.367512)
(1247.8161 292.61777 50.218078)
(1324.1896 289.88665 51.127681)
(1401.5721 286.29722 51.9371)
(1480.1374 281.82108 52.47352)
(1560.0329 276.44994 52.569115)
(1641.3808 270.18845 52.089899)
(1724.2337 263.0625 50.96017)
(1808.5593 255.10819 49.15913)
(1894.2369 246.37839 46.739221)
(1981.0668 236.92504 43.806632)
(2068.7901 226.79785 40.512632)
(2157.1158 216.02795 37.032015)
(2245.7536 204.63068 33.534766)
(2334.4396 192.5909 30.169816)
(2422.9558 179.8765 27.042383)
(2511.1354 166.43678 24.205396)
(2598.8606 152.21916 21.663348)
(2686.0352 137.17676 19.376985)
(2772.5714 121.30522 17.279859)
(2858.3372 104.61849 15.298518)
(2943.1691 87.216675 13.409763)
(3026.7851 69.240425 11.543851)
(3108.9397 50.865152 9.8238844)
(3189.0567 32.506879 8.257327)
(3266.9798 14.27519 7.0118033)
(3342.2079 -3.4217527 6.3414272)
(3414.4095 -20.196278 6.2968533)
(3483.4499 -35.768291 7.1111473)
(3549.3749 -49.995034 8.8233072)
(3612.4932 -62.530163 11.508398)
(3673.2633 -73.464497 15.073959)
(3732.4567 -82.756742 19.362592)
(3791.0263 -90.574108 24.121876)
(3850.0491 -97.177055 29.023888)
(3910.6639 -102.88796 33.725385)
(3973.9642 -108.12322 37.854829)
(4040.95 -113.28222 41.082647)
(4112.3719 -118.80828 43.1369)
(4188.7867 -125.08363 43.876592)
(4270.4147 -132.47148 43.243625)
(4357.0856 -141.14875 41.236431)
(4448.4766 -151.31237 38.194096)
(4543.9801 -163.24162 34.280033)
(4643.0015 -176.75821 29.81099)
(4744.4714 -191.87364 25.161943)
(4847.6424 -208.47281 20.65866)
(4951.5506 -226.40721 16.586212)
(5055.6553 -245.51611 13.185435)
(5159.3418 -265.74574 10.657172)
(5262.0855 -286.66892 8.9317401)
(5364.0908 -308.70623 8.2371185)
(5464.4463 -330.80915 8.1932785)
(5564.0576 -354.53594 9.0147122)
(-7.5483469 3.9149213 4.4625366)
(-17.794109 6.6788948 6.9230783)
(-26.856675 11.727869 8.7695442)
(-35.555439 14.525645 11.400536)
(-42.180675 19.992138 13.051386)
(-46.933267 24.356131 14.329446)
(-49.177003 30.314686 15.067964)
(-49.825214 35.95652 15.5491)
(-48.041811 42.363836 15.80646)
(-44.439439 48.783702 15.409051)
(-39.179007 55.736534 15.440216)
(-32.292286 62.70458 14.900033)
(-24.074943 70.086448 14.850076)
(-14.513736 77.524274 14.625035)
(-3.9353049 85.287383 14.957632)
(7.9340076 93.185606 15.253314)
(20.644942 101.35532 16.22696)
(34.800571 109.61823 17.300354)
(50.036828 118.18253 18.925556)
(66.880348 126.8321 20.794753)
(85.348709 135.63798 23.076761)
(105.8363 144.52581 25.490604)
(128.52499 153.38912 28.199577)
(153.85639 162.22122 30.904104)
(182.01777 170.88185 33.646622)
(213.3692 179.34588 36.23772)
(248.12207 187.3933 38.680223)
(286.5553 195.03523 40.792656)
(328.72807 202.10954 42.54743)
(374.80295 208.57 43.926843)
(424.701 214.28655 44.89331)
(478.32773 219.26198 45.40348)
(535.5068 223.45841 45.566717)
(595.9676 226.83841 45.408802)
(659.43756 229.42307 45.02334)
(725.46187 231.26344 44.532922)
(793.70419 232.3242 44.029996)
(863.76363 232.69483 43.601918)
(935.28137 232.37666 43.371817)
(1007.9855 231.38127 43.376391)
(1081.6828 229.68272 43.620325)
(1156.2549 227.29075 44.096724)
(1231.6928 224.1172 44.726444)
(1308.0337 220.18313 45.393545)
(1385.4121 215.40488 45.959982)
(1463.9665 209.7831 46.304493)
(1543.8313 203.28481 46.274185)
(1625.1213 195.9415 45.770739)
(1707.8743 187.77951 44.726527)
(1792.0623 178.85648 43.131468)
(1877.5715 169.23846 41.023872)
(1964.2182 158.98998 38.493584)
(2051.7629 148.17065 35.663061)
(2139.9372 136.81581 32.675935)
(2228.4725 124.94132 29.671207)
(2317.1202 112.5291 26.774003)
(2405.6717 99.547979 24.069407)
(2493.9624 85.941427 21.609473)
(2581.8622 71.666301 19.396998)
(2669.2654 56.683024 17.408144)
(2756.0524 40.99887 15.587216)
(2842.0814 24.652641 13.890331)
(2927.1486 7.7521106 12.281753)
(3010.968 -9.5208601 10.69836)
(3093.2424 -27.028799 9.3234707)
(3173.4769 -44.323893 7.9236476)
(3251.5843 -61.378366 6.9928562)
(3326.697 -77.8036 6.3034901)
(3398.7257 -93.05156 6.2663063)
(3467.5969 -107.27261 6.8410467)
(3533.2977 -120.04518 8.1601449)
(3596.1264 -131.46242 10.244967)
(3656.5209 -141.52539 13.038851)
(3715.2736 -150.36076 16.425686)
(3773.3232 -158.21038 20.18426)
(3831.7293 -165.37012 24.099519)
(3891.674 -172.19274 27.855243)
(3954.1937 -179.04336 31.183383)
(4020.3698 -186.28222 33.805654)
(4090.904 -194.24845 35.527315)
(4166.4448 -203.19549 36.196722)
(4247.1358 -213.36394 35.792865)
(4333.0399 -224.87455 34.340668)
(4423.6498 -237.96662 31.807552)
(4518.823 -252.07288 28.596182)
(4617.1973 -267.71502 25.159171)
(4718.3206 -284.61672 21.529176)
(4821.2039 -302.65923 18.020876)
(4925.0017 -321.71295 14.873076)
(5029.1499 -341.70055 12.252661)
(5132.9464 -362.49625 10.358795)
(5235.7711 -383.84289 9.032688)
(5338.2164 -406.28822 8.7389043)
(5438.4217 -428.55122 8.6999049)
(5538.6661 -452.54739 9.7849664)
(-9.6739214 3.4127146 4.3555364)
(-19.443395 6.6942882 6.0633957)
(-29.835505 10.647417 7.9828391)
(-37.884046 14.13934 9.8586386)
(-44.891015 18.437211 10.867351)
(-49.130946 22.753736 11.87097)
(-52.366596 27.19212 12.696439)
(-52.605171 32.229527 13.230886)
(-51.377702 37.055901 13.16377)
(-48.089149 42.789705 13.496011)
(-43.178134 48.072674 13.18539)
(-36.58554 54.205213 13.283431)
(-28.720551 59.976272 13.054901)
(-19.574244 66.433367 13.310265)
(-9.2224746 72.666336 13.340929)
(2.1029879 79.37906 14.014182)
(14.698911 85.981489 14.601055)
(28.325935 92.943461 15.726907)
(43.319515 99.83151 16.992658)
(59.761946 106.90379 18.656478)
(77.889961 113.94017 20.463956)
(97.982816 120.94968 22.586144)
(120.34545 127.88794 24.766432)
(145.24116 134.61802 27.086639)
(173.03735 141.13456 29.35207)
(203.99176 147.26383 31.587202)
(238.37125 153.00867 33.629011)
(276.3745 158.2161 35.450523)
(318.18853 162.85192 36.997027)
(363.84171 166.82948 38.218007)
(413.32054 170.12336 39.073656)
(466.56197 172.69725 39.605956)
(523.34222 174.54107 39.818393)
(583.4261 175.66279 39.767988)
(646.47622 176.08553 39.511319)
(712.09719 175.86152 39.146482)
(779.91812 175.01946 38.738829)
(849.56666 173.5778 38.410251)
(920.78986 171.56481 38.182306)
(993.2379 168.95981 38.10713)
(1066.722 165.78359 38.256577)
(1141.1403 161.949 38.545563)
(1216.452 157.46228 38.97187)
(1292.7185 152.23549 39.403993)
(1370.0407 146.25506 39.780112)
(1448.5427 139.47475 39.968336)
(1528.3502 131.88631 39.867415)
(1609.5547 123.50912 39.392943)
(1692.1883 114.37707 38.492385)
(1776.2201 104.55078 37.151906)
(1861.5403 94.096949 35.401298)
(1947.9767 83.084797 33.30835)
(2035.3078 71.574992 30.968392)
(2123.2853 59.606244 28.494647)
(2211.6604 47.196729 25.999781)
(2300.2015 34.336294 23.583502)
(2388.7116 20.99772 21.320859)
(2477.026 7.1369638 19.255418)
(2565.0147 -7.2782619 17.396632)
(2652.5499 -22.275917 15.726929)
(2739.5019 -37.835515 14.210151)
(2825.7015 -53.913847 12.810426)
(2910.9126 -70.375246 11.469753)
(2994.8566 -87.109971 10.229191)
(3077.1809 -103.83801 9.0300019)
(3157.4329 -120.37667 7.9899335)
(3235.3508 -136.53921 7.1009235)
(3310.2587 -151.72191 6.7750293)
(3382.2212 -165.98289 6.482057)
(3450.8872 -179.28444 6.8929692)
(3516.3399 -191.45918 7.7493956)
(3578.8511 -202.4682 9.2474516)
(3638.9281 -212.44483 11.259399)
(3697.3556 -221.50126 13.678589)
(3755.065 -229.87964 16.445448)
(3813.15 -237.92513 19.290519)
(3872.6816 -245.94535 22.077834)
(3934.8002 -254.28054 24.539603)
(4000.4612 -263.24911 26.506737)
(4070.4759 -273.11881 27.796927)
(4145.3895 -284.09804 28.319609)
(4225.4584 -296.34532 28.029581)
(4310.6101 -309.90073 26.993283)
(4400.711 -324.92833 25.207599)
(4494.9989 -341.10699 23.220666)
(4592.7588 -358.45271 20.631464)
(4693.3122 -376.9329 18.034894)
(4795.7286 -396.36167 15.461572)
(4899.2503 -416.6162 13.236835)
(5003.1353 -437.52715 11.375619)
(5106.805 -459.09402 10.109045)
(5209.6951 -481.05815 9.3752061)
(5312.1375 -503.89443 9.2708357)
(5412.5481 -526.4719 9.5791904)
(5513.2119 -550.55358 10.446282)
(-11.298082 3.4764235 3.8888579)
(-22.039837 5.2296394 5.5767704)
(-31.771563 9.2353678 6.3310523)
(-39.947332 11.725622 7.5689401)
(-46.560394 15.916605 8.2608919)
(-51.897796 18.860299 9.4453762)
(-54.50273 23.021024 10.079858)
(-55.487163 26.594407 10.279619)
(-54.497796 30.988919 11.026665)
(-51.536278 35.049882 10.8894)
(-46.908263 39.641231 11.303115)
(-40.775114 44.186891 11.159528)
(-33.293111 49.027455 11.533593)
(-24.382487 53.967304 11.467048)
(-14.590161 59.0231 12.03284)
(-3.3730155 64.264858 12.311338)
(8.6735217 69.554229 13.100878)
(22.117718 74.964951 13.912887)
(36.700357 80.37595 15.066442)
(52.887856 85.842728 16.338877)
(70.65199 91.20199 17.912213)
(90.494348 96.5103 19.566776)
(112.48993 101.59809 21.41015)
(137.13445 106.46965 23.282194)
(164.59373 110.98374 25.194875)
(195.25679 115.12 27.035386)
(229.30396 118.75666 28.763229)
(267.0266 121.84372 30.323934)
(308.48475 124.30701 31.659465)
(353.8045 126.12465 32.726321)
(402.94757 127.22844 33.533636)
(455.81516 127.64488 34.046974)
(512.22033 127.34299 34.305344)
(571.89092 126.38667 34.320293)
(634.52481 124.78586 34.165098)
(699.73793 122.60746 33.883639)
(767.2433 119.85625 33.56158)
(836.66372 116.60288 33.257574)
(907.49666 112.80938 33.018804)
(979.63924 108.59738 32.944702)
(1052.8816 103.82169 32.939339)
(1127.0974 98.544204 33.088327)
(1202.2792 92.666126 33.305437)
(1278.4579 86.16172 33.554731)
(1355.7234 78.977012 33.752956)
(1434.1852 71.071972 33.806759)
(1513.9494 62.439727 33.639202)
(1595.0873 53.083472 33.187208)
(1677.6228 43.036879 32.400834)
(1761.5163 32.348937 31.274634)
(1846.6594 21.083456 29.824584)
(1932.8895 9.3056963 28.104099)
(2019.9974 -2.9238402 26.184581)
(2107.7534 -15.563753 24.157103)
(2195.9257 -28.586972 22.107907)
(2284.2977 -41.996807 20.122472)
(2372.6819 -55.805291 18.259785)
(2460.9179 -70.045523 16.562656)
(2548.8682 -84.73517 15.039579)
(2636.3951 -99.895455 13.684696)
(2723.3559 -115.49723 12.471619)
(2809.552 -131.49159 11.357855)
(2894.7369 -147.7724 10.330705)
(2978.6379 -164.20444 9.3678984)
(3060.7916 -180.54991 8.4305512)
(3140.9391 -196.73625 7.670803)
(3218.6075 -212.32253 6.9226124)
(3293.2187 -227.38707 6.4297333)
(3364.7746 -241.48728 6.1926448)
(3433.1798 -254.52743 6.3430452)
(3498.3247 -266.53961 6.8757698)
(3560.6104 -277.53259 7.8080874)
(3620.4873 -287.52906 9.0282311)
(3678.6756 -296.70397 10.697743)
(3736.2307 -305.57541 12.557255)
(3794.0821 -314.26277 14.608888)
(3853.4087 -323.1568 16.608181)
(3915.2485 -332.54152 18.432979)
(3980.5955 -342.73745 19.922558)
(4050.218 -353.95775 20.955609)
(4124.6858 -366.41627 21.455812)
(4204.2002 -380.19997 21.380256)
(4288.8825 -395.34712 20.756632)
(4378.1984 -411.86668 19.642318)
(4471.8182 -429.63814 18.064774)
(4569.0315 -448.49658 16.356125)
(4669.0573 -468.34697 14.575122)
(4771.0632 -489.03386 12.900538)
(4874.1738 -510.35721 11.414116)
(4977.7902 -532.26626 10.271926)
(5081.3888 -554.67036 9.5642013)
(5184.0904 -577.34316 9.2255894)
(5286.7665 -600.73329 9.4280427)
(5387.0987 -623.72519 9.9003315)
(5488.106 -647.97977 10.895682)
(-13.175613 2.2473382 3.2721845)
(-23.819542 4.031008 3.7947454)
(-34.064588 6.9570023 4.6649106)
(-41.885118 9.4214337 5.5857509)
(-49.430539 12.128451 6.3824115)
(-53.72537 15.016034 7.0700839)
(-56.989993 17.715948 7.2260363)
(-58.002163 20.971182 8.2374954)
(-57.18971 23.676329 8.1738168)
(-54.424973 27.206927 8.7823436)
(-50.232306 30.197581 8.808382)
(-44.365692 33.873898 9.3001127)
(-37.081832 37.185603 9.2336516)
(-28.734852 40.984287 9.8038386)
(-19.007401 44.566897 9.88847)
(-8.3386119 48.502354 10.482541)
(3.5575209 52.271507 10.932119)
(16.583952 56.253427 11.711227)
(30.960569 60.115552 12.491992)
(46.776822 64.00829 13.594694)
(64.332179 67.760563 14.712907)
(83.835219 71.381662 16.080524)
(105.6081 74.765494 17.479368)
(129.94314 77.854007 19.011116)
(157.14625 80.573034 20.526953)
(187.51781 82.845679 22.052181)
(221.31041 84.590195 23.491062)
(258.71627 85.750637 24.82811)
(299.8959 86.276433 25.985962)
(344.91085 86.107643 26.970696)
(393.72262 85.248665 27.723284)
(446.24974 83.672192 28.259743)
(502.28123 81.418969 28.564447)
(561.57565 78.504586 28.680072)
(623.81523 74.984538 28.61824)
(688.63406 70.904652 28.447009)
(755.71765 66.383432 28.176609)
(824.45015 61.371567 27.955353)
(894.85626 55.904806 27.714639)
(966.71857 49.967609 27.511258)
(1039.6602 43.646033 27.440621)
(1113.6666 36.874726 27.448736)
(1188.658 29.610919 27.529983)
(1264.699 21.803867 27.643794)
(1341.8518 13.400161 27.73498)
(1420.2204 4.3627882 27.738727)
(1499.8939 -5.3303797 27.598207)
(1580.9284 -15.680231 27.254116)
(1663.3388 -26.664542 26.66907)
(1747.0756 -38.241573 25.830406)
(1832.0326 -50.354463 24.742541)
(1918.0504 -62.94096 23.441965)
(2004.9318 -75.942131 21.978276)
(2092.4609 -89.309264 20.418566)
(2180.4203 -103.01106 18.830568)
(2268.608 -117.03651 17.281506)
(2356.8459 -131.38782 15.821383)
(2444.9769 -146.08236 14.487863)
(2532.8618 -161.13311 13.293122)
(2620.3543 -176.54625 12.235806)