/*--------------------------------*- C++ -*----------------------------------*\
  =========                 |
  \\      /  F ield         | OpenFOAM: The Open Source CFD Toolbox
   \\    /   O peration     | Website:  https://openfoam.org
    \\  /    A nd           | Version:  6
     \\/     M anipulation  |
\*---------------------------------------------------------------------------*/
FoamFile
{
    version     2.0;
    format      ascii;
    class       pointVectorField;
    location    "1.07";
    object      lm;
}
// * * * * * * * * * * * * * * * * * * * * * * * * * * * * * * * * * * * * * //

dimensions      [1 -2 -1 0 0 0 0];

internalField   nonuniform List<vector> 
28033
(
(0 0 0)
(0 0 0)
(-2585.9027 905.84039 47.997146)
(-2649.0474 835.31421 37.001636)
(0 0 0)
(0 0 0)
(-2675.3157 793.38441 44.956717)
(-2616.852 860.00924 39.61289)
(0 0 0)
(0 0 0)
(0 0 0)
(0 0 0)
(0 0 0)
(0 0 0)
(0 0 0)
(0 0 0)
(0 0 0)
(0 0 0)
(0 0 0)
(0 0 0)
(0 0 0)
(0 0 0)
(0 0 0)
(-2593.8719 901.86136 46.695813)
(-2592.342 895.148 45.407677)
(-2590.5577 888.6119 44.873683)
(-2589.4609 883.13496 44.275255)
(-2589.934 878.46192 44.321159)
(-2592.4001 874.58407 44.321159)
(-2597.1872 871.89996 44.435858)
(-2603.5435 869.46023 44.717494)
(-2611.3643 867.43485 44.704765)
(-2619.4903 865.13774 44.709904)
(-2627.1477 862.21971 44.343674)
(-2633.9089 858.57748 43.487073)
(-2638.8321 853.69565 42.768428)
(-2642.3661 847.67325 41.18788)
(-2645.7691 841.06956 39.355226)
(-24.110221 -27.385506 -29.939759)
(-32.90549 -43.949016 -38.277271)
(-41.859398 -59.579532 -45.377436)
(-52.334353 -75.122157 -49.791759)
(-63.139145 -90.503993 -52.560158)
(-75.687479 -105.84572 -55.107639)
(-89.459796 -120.72032 -56.7537)
(-104.68299 -135.20881 -58.530231)
(-121.38814 -149.11842 -59.949869)
(-139.54699 -162.48726 -61.534837)
(-159.22941 -175.18406 -62.967449)
(-180.36686 -187.16257 -64.440564)
(-203.17844 -198.38152 -65.809893)
(-227.52559 -208.78691 -67.046334)
(-253.69485 -218.45099 -68.036507)
(-281.43364 -227.13195 -68.830727)
(-311.12603 -234.96806 -69.251046)
(-342.51392 -241.79506 -69.350365)
(-375.90145 -247.73717 -68.991247)
(-410.99254 -252.5735 -68.306881)
(-448.06348 -256.42898 -67.183625)
(-486.85496 -259.14837 -65.696388)
(-527.50713 -260.79108 -63.914784)
(-569.82647 -261.28002 -61.821227)
(-613.8095 -260.64983 -59.509762)
(-659.30629 -258.8254 -57.07627)
(-706.33491 -255.83943 -54.549808)
(-754.72988 -251.68137 -51.949954)
(-804.40524 -246.3137 -49.389253)
(-855.36481 -239.81245 -46.888928)
(-907.47428 -232.09048 -44.414925)
(-960.67981 -223.23172 -42.025193)
(-1015.0013 -213.2202 -39.695681)
(-1070.4053 -201.97022 -37.377)
(-1126.9839 -189.61407 -35.01775)
(-1184.5029 -175.98846 -32.631948)
(-1243.0939 -161.24363 -30.1461)
(-1302.7553 -145.23888 -27.468987)
(-1363.4072 -128.04888 -24.607058)
(-1425.0714 -109.63074 -21.531129)
(-1487.6397 -89.993736 -18.208685)
(-1551.0333 -69.130406 -14.666609)
(-1615.1519 -47.063384 -10.899947)
(-1679.8554 -23.805236 -6.9497941)
(-1744.9664 0.58991766 -2.8747499)
(-1810.3175 26.080582 1.2813499)
(-1875.7068 52.600246 5.444423)
(-1940.9377 80.087294 9.5630392)
(-2005.7989 108.45188 13.575672)
(-2070.1042 137.62178 17.441079)
(-2133.6557 167.49943 21.12908)
(-2196.2898 198.00906 24.627719)
(-2257.8489 229.05921 27.94133)
(-2318.1931 260.57644 31.091718)
(-2377.204 292.48533 34.114099)
(-2434.7619 324.71668 37.048247)
(-2490.7623 357.20871 39.941001)
(-2545.0912 389.89332 42.830757)
(-2597.6259 422.71285 45.743312)
(-2648.2334 455.5887 48.691782)
(-2696.748 488.45279 51.662413)
(-2743.0007 521.20761 54.619282)
(-2786.7703 553.75474 57.491915)
(-2827.8587 585.98655 60.224915)
(-2865.9604 617.73594 62.673699)
(-2900.9581 648.93148 64.784158)
(-2932.513 679.36768 66.32208)
(-2960.4344 708.83913 67.390568)
(-2984.424 737.29949 67.669963)
(-3004.4575 764.48687 67.177199)
(-3020.3694 790.35246 65.97874)
(-3032.1439 814.72988 64.00845)
(-3039.7529 837.4661 61.290614)
(-3043.2446 858.57555 57.94626)
(-3042.8095 877.89628 54.119238)
(-3038.5507 895.48228 49.943326)
(-3030.7858 911.21533 45.61676)
(-3019.6882 925.20942 41.3051)
(-3005.669 937.31205 37.245617)
(-2988.8587 947.74388 33.52683)
(-2969.7737 956.35125 30.372185)
(-2948.6385 963.2012 27.870181)
(-2925.6975 968.37869 26.143129)
(-2901.2517 971.83646 25.126581)
(-2875.6524 973.81282 24.938672)
(-2849.1139 973.85023 25.372045)
(-2821.7694 972.44426 26.55624)
(-2793.9677 969.29706 28.144474)
(-2765.848 964.77877 30.344582)
(-2737.7162 958.79693 32.568352)
(-2709.5667 951.34089 35.342905)
(-2681.9595 943.34836 37.809508)
(-2654.5304 933.39786 40.62141)
(-2628.0335 923.96106 43.214877)
(-2605.3608 914.68419 45.883922)
(0.23133537 15.591849 16.693176)
(0.74351664 20.281835 23.939819)
(1.0629463 27.262524 29.775385)
(-1.4737042 33.498576 32.523962)
(-7.7738013 41.601566 33.237551)
(-14.977897 49.916627 33.753873)
(-24.653311 57.333798 32.80606)
(-35.492962 66.134888 31.797616)
(-48.386621 74.925502 30.152181)
(-62.044976 83.803305 28.63942)
(-77.19674 93.407527 26.813067)
(-93.362539 103.16489 25.121586)
(-110.70196 113.58145 23.468179)
(-129.09123 124.32371 21.947349)
(-148.69474 135.67681 20.490408)
(-169.42562 147.4668 19.254238)
(-191.3889 159.80836 18.043177)
(-214.75114 172.66837 16.970633)
(-239.45284 186.11328 15.970673)
(-265.53571 199.92114 15.003122)
(-293.27654 214.40377 13.96632)
(-322.45099 229.26915 12.999938)
(-353.27275 244.63913 11.846378)
(-385.73944 260.54313 10.657956)
(-419.74547 276.85828 9.3889629)
(-455.34853 293.55752 7.9156384)
(-492.53504 310.86271 6.4327424)
(-531.16929 328.41738 4.7820967)
(-571.30766 346.60527 3.1540081)
(-612.79377 365.06313 1.4420588)
(-655.64902 384.1475 -0.20263306)
(-699.76527 403.54479 -1.8049318)
(-745.17478 423.48657 -3.3093254)
(-791.77883 443.86204 -4.6806498)
(-839.6069 464.71314 -5.911345)
(-888.61195 485.98261 -6.9389176)
(-938.83848 507.71756 -7.8449021)
(-990.23275 529.9017 -8.5515603)
(-1042.8719 552.45667 -9.1403453)
(-1096.7077 575.40782 -9.6011378)
(-1151.7612 598.67223 -9.9838282)
(-1207.9939 622.20813 -10.307201)
(-1265.3787 645.95973 -10.617841)
(-1323.8418 669.84915 -10.930952)
(-1383.3051 693.80795 -11.274916)
(-1443.6501 717.74926 -11.65697)
(-1504.7534 741.59754 -12.083677)
(-1566.4571 765.26241 -12.546992)
(-1628.6061 788.67001 -13.037905)
(-1691.0249 811.73559 -13.537943)
(-1753.5493 834.39261 -14.033197)
(-1816.0085 856.56678 -14.506939)
(-1878.2549 878.20142 -14.954291)
(-1940.1399 899.23287 -15.373568)
(-2001.5448 919.60942 -15.77992)
(-2062.3532 939.27444 -16.195382)
(-2122.4687 958.17273 -16.657711)
(-2181.798 976.24521 -17.212515)
(-2240.2529 993.42738 -17.912659)
(-2297.7356 1009.6482 -18.816008)
(-2354.1399 1024.8299 -19.976684)
(-2409.3414 1038.8888 -21.444017)
(-2463.1859 1051.7342 -23.256527)
(-2515.5019 1063.2816 -25.437705)
(-2566.0815 1073.4309 -27.990707)
(-2614.7011 1082.107 -30.89527)
(-2661.0845 1089.2388 -34.120964)
(-2705.0399 1094.7995 -37.609008)
(-2746.2723 1098.6948 -41.380598)
(-2784.4191 1100.9713 -45.028385)
(-2819.3078 1101.4737 -48.790609)
(-2850.7864 1100.5297 -52.432722)
(-2878.5558 1097.9342 -55.814373)
(-2902.5107 1093.8852 -58.83251)
(-2922.53 1088.4218 -61.367649)
(-2938.5757 1081.6637 -63.312295)
(-2950.6227 1073.7153 -64.571086)
(-2958.7046 1064.6642 -65.060461)
(-2962.9154 1054.6556 -64.69278)
(-2963.3618 1043.7378 -63.432535)
(-2960.1962 1032.0571 -61.23979)
(-2953.6033 1019.6692 -58.089302)
(-2943.7794 1006.6818 -54.013829)
(-2930.9558 993.16814 -49.021868)
(-2915.3678 979.23503 -43.205313)
(-2897.2774 964.95398 -36.621953)
(-2876.9473 950.46391 -29.417705)
(-2854.6756 935.85924 -21.714827)
(-2830.7418 921.29111 -13.685869)
(-2805.4758 906.91268 -5.5260804)
(-2779.1856 892.87739 2.6029776)
(-2752.1849 879.36637 10.444496)
(-2724.8016 866.56961 17.897188)
(-2697.4012 854.48557 24.789119)
(-2670.7908 843.78662 31.100916)
(0 0 0)
(0 0 0)
(0 0 0)
(0 0 0)
(0 0 0)
(0 0 0)
(0 0 0)
(0 0 0)
(0 0 0)
(0 0 0)
(0 0 0)
(0 0 0)
(0 0 0)
(0 0 0)
(0 0 0)
(-7.6588541 7.1326659 -13.686705)
(-5.9174045 28.527083 -22.910345)
(-3.9047025 28.988036 -29.304073)
(-7.8020627 43.182176 -33.067063)
(-13.512542 49.67899 -35.286334)
(-21.443907 59.215534 -36.063877)
(-30.779136 68.396815 -36.641642)
(-42.282344 78.446212 -37.527742)
(-54.440274 87.402228 -37.986523)
(-67.857795 97.167174 -38.538206)
(-82.966828 107.0917 -39.586165)
(-98.297388 116.28296 -40.012085)
(-115.70816 126.86728 -41.010853)
(-133.53382 136.47988 -41.482969)
(-153.38629 147.50633 -42.073713)
(-173.9962 157.69038 -42.22002)
(-196.38906 169.29954 -42.216154)
(-220.31004 180.73293 -41.758841)
(-245.59778 192.875 -40.875177)
(-272.79581 205.89442 -39.573264)
(-301.24808 218.77744 -37.990066)
(-331.68455 232.71915 -35.847399)
(-363.43183 247.44562 -33.487952)
(-396.88302 262.46098 -30.802607)
(-431.75526 278.07359 -27.969062)
(-468.15767 294.44495 -25.020315)
(-505.87328 310.77733 -22.049433)
(-544.8957 328.48804 -19.052024)
(-585.09515 345.73116 -16.265925)
(-626.29877 364.0284 -13.462921)
(-668.99041 382.51825 -10.954577)
(-712.71118 401.45983 -8.531007)
(-757.6753 420.86909 -6.2577894)
(-803.81989 440.63726 -4.0602962)
(-851.95992 461.42275 -1.9556307)
(-900.1726 481.76771 0.26111969)
(-949.72775 502.83592 2.510776)
(-1001.0327 524.51602 4.9304656)
(-1053.632 546.67299 7.5212143)
(-1107.6036 569.31666 10.379982)
(-1162.8777 592.42591 13.47518)
(-1219.4235 615.95139 16.825064)
(-1277.1444 639.84071 20.400263)
(-1335.9438 664.02677 24.160311)
(-1395.6797 688.41812 28.042872)
(-1456.205 712.92494 31.986723)
(-1517.3516 737.44331 35.91171)
(-1578.9461 761.87014 39.754771)
(-1640.8135 786.10491 43.445501)
(-1702.7866 810.05369 46.942496)
(-1764.707 833.63253 50.206338)
(-1826.4334 856.76845 53.23208)
(-1887.8407 879.40201 56.021632)
(-1948.8219 901.48292 58.604477)
(-2009.2814 922.96721 61.01706)
(-2069.1395 943.82052 63.308124)
(-2128.3149 963.9964 65.525028)
(-2186.7266 983.45402 67.710173)
(-2244.2863 1002.1296 69.893327)
(-2300.8814 1019.9508 72.083077)
(-2356.3875 1036.821 74.267556)
(-2410.6424 1052.6277 76.406297)
(-2463.4683 1067.2369 78.437362)
(-2514.6505 1080.4972 80.271145)
(-2563.9556 1092.2449 81.809599)
(-2611.1393 1102.3522 82.935502)
(-2655.9818 1110.5309 83.551163)
(-2698.3452 1116.795 83.592807)
(-2738.8143 1122.0015 82.853265)
(-2773.486 1122.9137 81.369221)
(-2806.4972 1122.8155 79.187993)
(-2835.9402 1120.3174 76.20734)
(-2861.9022 1115.5847 72.604238)
(-2884.2737 1108.7367 68.427693)
(-2903.0592 1099.86 63.824173)
(-2918.2905 1089.1093 58.97077)
(-2930.0443 1076.6855 54.040494)
(-2938.417 1062.7888 49.217847)
(-2943.5331 1047.6536 44.685524)
(-2945.5311 1031.5111 40.599876)
(-2944.5468 1014.603 37.097988)
(-2940.7301 997.15839 34.272978)
(-2934.2098 979.40354 32.18942)
(-2925.13 961.54455 30.855416)
(-2913.6075 943.78085 30.25778)
(-2899.7874 926.28273 30.327913)
(-2883.7842 909.2251 30.983838)
(-2865.7649 892.73486 32.110832)
(-2845.87 876.97115 33.590078)
(-2824.3101 862.0125 35.293981)
(-2801.2824 848.0074 37.110186)
(-2777.0655 834.97239 38.933918)
(-2751.9283 823.03301 40.690827)
(-2726.1765 812.1102 42.310051)
(-2697.8174 801.54544 43.680595)
(-2669.0237 796.72138 44.16701)
(-2669.5772 802.37803 43.273986)
(-2667.6324 807.60233 42.901836)
(-2663.9607 811.30145 42.84243)
(-2657.4665 814.24131 42.963287)
(-2652.6308 817.02729 43.318951)
(-2642.8673 818.29343 43.70545)
(-2637.493 820.89425 44.259887)
(-2630.9013 822.97325 44.379938)
(-2625.4673 825.57884 44.774902)
(-2622.7321 829.478 44.648952)
(-2622.2017 834.58506 44.627318)
(-2622.7042 840.01831 43.761087)
(-2622.6812 847.22432 42.845204)
(-2624.1938 854.4342 41.389778)
(-2633.3809 867.71356 33.806273)
(-2664.6117 880.0321 28.346506)
(-2692.2184 891.00142 22.152649)
(-2720.6587 902.1309 15.590288)
(-2749.4044 913.0508 8.2685027)
(-2778.0473 923.4701 0.95682169)
(-2806.4621 933.32295 -6.5174849)
(-2834.2333 942.29936 -13.836783)
(-2861.1727 950.20179 -20.763443)
(-2886.92 956.89695 -27.285481)
(-2911.3809 962.09509 -33.103847)
(-2934.1699 965.6891 -38.206464)
(-2955.3443 967.50565 -42.497297)
(-2974.3881 967.26067 -45.961313)
(-2991.2279 964.98269 -48.514549)
(-3005.8401 960.41927 -50.147804)
(-3017.8833 953.48479 -50.895636)
(-3027.2472 944.13825 -50.833747)
(-3033.7585 932.28855 -49.993443)
(-3037.2471 917.9699 -48.49696)
(-3037.5942 901.18923 -46.406071)
(-3034.6422 882.03189 -43.854219)
(-3028.3257 860.62072 -40.957181)
(-3018.5093 837.07721 -37.808999)
(-3005.2364 811.58972 -34.517503)
(-2988.3898 784.36352 -31.271536)
(-2968.3352 755.83662 -28.093896)
(-2944.4994 725.67948 -24.937764)
(-2917.2941 694.62433 -22.271035)
(-2886.6066 662.42641 -19.644829)
(-2853.0633 629.81905 -17.450547)
(-2816.5085 596.63465 -15.556741)
(-2777.1112 563.1094 -13.98571)
(-2735.0379 529.36711 -12.708631)
(-2690.4453 495.5058 -11.691452)
(-2643.4871 461.60333 -10.888328)
(-2594.3096 427.73402 -10.246522)
(-2543.0578 393.95039 -9.716267)
(-2489.8675 360.31264 -9.2494772)
(-2434.8746 326.87071 -8.803564)
(-2378.2131 293.69431 -8.3476997)
(-2320.0218 260.84839 -7.8595233)
(-2260.4438 228.42293 -7.3285022)
(-2199.6304 196.50497 -6.754638)
(-2137.7434 165.20279 -6.1446453)
(-2074.9502 134.61853 -5.5134413)
(-2011.4326 104.86569 -4.8751496)
(-1947.3682 76.044115 -4.248505)
(-1882.9503 48.254181 -3.6426244)
(-1818.3566 21.577481 -3.0718648)
(-1753.773 -3.9236047 -2.5257467)
(-1689.3658 -28.186904 -2.0177253)
(-1625.2954 -51.204052 -1.5104736)
(-1561.7114 -72.926844 -1.0201348)
(-1498.732 -93.402183 -0.49279211)
(-1436.4422 -112.61229 0.093040305)
(-1374.9988 -130.62795 0.72089024)
(-1315.9955 -147.59695 1.4459393)
(-1255.5828 -163.03105 2.2089662)
(-1196.0916 -177.47438 3.1527413)
(-1139.9314 -191.0534 4.1439768)
(-1082.3385 -202.86036 5.0964707)
(-1026.626 -213.99834 6.2879597)
(-972.2933 -223.87183 7.3995456)
(-919.9319 -232.82384 8.5612222)
(-867.58654 -240.04728 9.6439392)
(-817.18244 -246.61433 10.744012)
(-767.6585 -251.28782 11.684627)
(-719.52812 -255.23118 12.763858)
(-673.08046 -257.62526 13.568073)
(-628.06152 -258.84898 14.453286)
(-584.45111 -258.77497 15.250019)
(-542.63342 -257.2285 15.981953)
(-502.07765 -254.75927 16.89677)
(-463.12485 -250.98777 17.827187)
(-426.08985 -245.92968 18.756386)
(-390.21726 -240.17804 20.084366)
(-356.52929 -233.06096 21.295319)
(-323.85687 -225.422 22.992291)
(-293.15438 -216.57495 24.704603)
(-264.26698 -207.1652 26.672599)
(-236.6376 -197.3651 28.975372)
(-210.41531 -186.56726 31.339197)
(-186.22752 -175.10944 33.754609)
(-163.33428 -163.51202 36.313238)
(-141.97998 -151.20355 38.83477)
(-122.4367 -138.0563 40.986532)
(-104.57977 -125.35322 43.229178)
(-88.075471 -111.62014 44.632674)
(-73.466221 -97.752123 45.676612)
(-60.323736 -83.254244 45.397101)
(-49.284776 -68.512626 44.06043)
(-39.692047 -54.960991 41.151515)
(-29.697026 -39.210538 34.826283)
(-28.639841 -23.904506 21.934518)
(0 0 0)
(0 0 0)
(0 0 0)
(0 0 0)
(0 0 0)
(0 0 0)
(0 0 0)
(0 0 0)
(0 0 0)
(0 0 0)
(0 0 0)
(0 0 0)
(0 0 0)
(0 0 0)
(0 0 0)
(0 0 0)
(0 0 0)
(0 0 0)
(0 0 0)
(0 0 0)
(0 0 0)
(0 0 0)
(0 0 0)
(0 0 0)
(0 0 0)
(0 0 0)
(0 0 0)
(0 0 0)
(0 0 0)
(0 0 0)
(-2650.7446 828.91892 36.98755)
(-2652.5594 823.03162 36.708772)
(-2654.1519 817.87554 36.425197)
(-2655.6176 813.42874 36.38268)
(-2656.9922 809.66956 36.665985)
(-2658.3851 806.62634 37.221023)
(-2659.8373 804.20802 38.060277)
(-2661.3881 802.31946 39.065549)
(-2663.0655 800.86048 40.232864)
(-2664.8437 799.7203 41.379664)
(-2666.6648 798.73149 42.588467)
(-2668.6512 797.82646 43.524705)
(-2670.4601 796.85619 44.351354)
(-2672.3191 795.77389 44.820503)
(-2673.8579 794.42701 44.987669)
(-2586.4478 903.12402 47.957672)
(-2587.4088 900.07944 47.585522)
(-2588.1082 897.17143 46.989587)
(-2588.6835 894.27515 46.048098)
(-2589.1522 891.50093 45.004058)
(-2589.7202 888.83014 43.784954)
(-2590.4766 886.27416 42.602344)
(-2591.5566 883.7994 41.457428)
(-2593.0308 881.36541 40.457654)
(-2594.9819 878.92685 39.692268)
(-2597.4245 876.37782 39.125931)
(-2600.4194 873.70017 38.920767)
(-2603.8846 870.75794 38.965913)
(-2607.8056 867.45443 39.101202)
(-2612.1685 863.93335 39.594736)
(-16.413591 -19.044918 -30.716294)
(-26.441087 -36.134272 -34.341418)
(-35.079095 -51.837749 -42.289237)
(-45.773755 -66.991919 -45.125304)
(-56.191873 -81.943407 -48.620159)
(-68.869296 -96.39366 -50.536471)
(-82.331567 -110.47413 -52.516971)
(-97.636156 -124.14426 -54.026232)
(-114.21306 -137.35449 -55.616972)
(-132.29282 -149.8362 -57.137174)
(-151.92984 -161.78862 -58.562612)
(-173.08988 -172.90736 -60.064731)
(-195.85099 -183.34468 -61.426119)
(-220.19791 -192.87959 -62.685832)
(-246.32437 -201.59243 -63.728389)
(-274.13332 -209.36018 -64.550139)
(-303.79469 -216.21364 -65.042876)
(-335.22079 -222.12818 -65.250535)
(-368.58161 -226.95484 -65.022353)
(-403.77387 -230.83008 -64.468727)
(-440.85194 -233.58439 -63.514725)
(-479.76479 -235.27671 -62.235098)
(-520.46473 -235.88805 -60.619586)
(-562.86521 -235.34341 -58.768521)
(-606.95194 -233.66684 -56.667938)
(-652.58225 -230.84189 -54.458887)
(-699.66385 -226.88679 -52.117747)
(-748.10067 -221.73071 -49.756409)
(-797.855 -215.42216 -47.388883)
(-848.76112 -207.96512 -45.037441)
(-900.77372 -199.30589 -42.737287)
(-953.894 -189.49076 -40.501003)
(-1007.992 -178.46751 -38.30123)
(-1063.0493 -166.27207 -36.103825)
(-1119.1147 -152.89409 -33.855077)
(-1176.0771 -138.30149 -31.592742)
(-1233.9659 -122.51331 -29.193577)
(-1292.7518 -105.51239 -26.651056)
(-1352.4571 -87.297767 -23.928932)
(-1412.9975 -67.897656 -21.009208)
(-1474.3054 -47.288675 -17.880057)
(-1536.3822 -25.523547 -14.532463)
(-1599.0556 -2.6262116 -10.994076)
(-1662.1756 21.36921 -7.3171263)
(-1725.6728 46.379873 -3.5147204)
(-1789.3347 72.366044 0.33413715)
(-1852.9934 99.243922 4.1931024)
(-1916.4572 126.94017 7.9949638)
(-1979.536 155.37006 11.69671)
(-2042.0461 184.45461 15.260168)
(-2103.8101 214.10977 18.65823)
(-2164.6667 244.26087 21.881765)
(-2224.4741 274.83274 24.93442)
(-2283.1009 305.76032 27.835674)
(-2340.4407 336.97832 30.611243)
(-2396.388 368.42756 33.297981)
(-2450.8557 400.04827 35.929833)
(-2503.7452 431.77733 38.53676)
(-2554.9594 463.54838 41.13785)
(-2604.3844 495.2827 43.740061)
(-2651.8831 526.89477 46.324833)
(-2697.3108 558.28246 48.858848)
(-2740.4681 589.32488 51.289219)
(-2781.2048 619.91367 53.54016)
(-2819.0717 649.83844 55.515337)
(-2854.6161 679.15065 57.115204)
(-2885.9436 707.29134 58.326245)
(-2914.509 734.56721 58.953443)
(-2939.7408 760.72015 59.050542)
(-2961.0056 785.48163 58.360332)
(-2978.4951 808.86321 57.071639)
(-2991.991 830.70604 55.100833)
(-3001.5185 850.93837 52.54638)
(-3007.1056 869.55216 49.480614)
(-3008.8512 886.48172 46.019494)
(-3006.8864 901.74388 42.290223)
(-3001.4373 915.32385 38.471306)
(-2992.6975 927.24847 34.725279)
(-2980.9889 937.53315 31.199037)
(-2966.5352 946.22604 28.055637)
(-2949.684 953.30321 25.430723)
(-2930.7901 958.82313 23.462001)
(-2909.9079 962.73706 22.080097)
(-2886.7068 965.05781 21.4702)
(-2864.1003 966.32541 21.600589)
(-2839.4278 965.79158 22.404625)
(-2813.9813 963.8109 23.836547)
(-2787.7743 960.37162 25.745747)
(-2761.3716 955.703 28.081086)
(-2734.6171 949.756 30.710241)
(-2707.9728 942.72139 33.511823)
(-2681.6654 934.99521 36.358387)
(-2655.4268 925.94982 39.243706)
(-2630.2271 917.37186 41.875362)
(-2608.5472 908.47992 44.478615)
(-9.4625079 -18.028709 -29.112256)
(-18.443173 -29.49944 -33.138)
(-28.792519 -45.685983 -38.732972)
(-38.47058 -58.947519 -42.47423)
(-49.601541 -73.660588 -44.851975)
(-61.851763 -87.141352 -47.060518)
(-75.756169 -100.90495 -48.661695)
(-91.023794 -113.89567 -50.368291)
(-107.87032 -126.51334 -51.906293)
(-126.2527 -138.44645 -53.424225)
(-146.2836 -149.79291 -54.970645)
(-167.80594 -160.32552 -56.483004)
(-191.0468 -170.1273 -57.898063)
(-215.95887 -179.00999 -59.215279)
(-242.67164 -187.066 -60.360494)
(-271.11765 -194.07507 -61.232819)
(-301.46883 -200.25143 -61.863515)
(-333.65842 -205.25014 -62.141169)
(-367.81808 -209.31472 -62.074642)
(-403.84153 -212.24577 -61.637364)
(-441.79997 -214.09764 -60.848122)
(-481.57227 -214.84052 -59.706916)
(-523.19164 -214.42833 -58.272243)
(-566.49902 -212.86189 -56.574388)
(-611.47504 -210.12956 -54.667863)
(-657.93634 -206.24776 -52.591697)
(-705.823 -201.15627 -50.42623)
(-755.00262 -194.89465 -48.222398)
(-805.35039 -187.44344 -45.969189)
(-856.76308 -178.80948 -43.76132)
(-909.17065 -168.95767 -41.589464)
(-962.4303 -157.93411 -39.434584)
(-1016.5118 -145.71976 -37.308293)
(-1071.3545 -132.31019 -35.169585)
(-1126.9613 -117.68768 -33.029256)
(-1183.2506 -101.87675 -30.804402)
(-1240.2014 -84.869027 -28.479345)
(-1297.8242 -66.680629 -26.015254)
(-1356.0695 -47.352078 -23.395306)
(-1414.8855 -26.87287 -20.573801)
(-1474.2086 -5.2956071 -17.591026)
(-1534.0969 17.341238 -14.403374)
(-1594.2876 41.014474 -11.069008)
(-1654.7073 65.598112 -7.6152039)
(-1715.2835 91.071674 -4.0749803)
(-1775.8289 117.34455 -0.50073339)
(-1836.1839 144.33162 3.0586465)
(-1896.1813 171.9516 6.5460216)
(-1955.6522 200.12247 9.933405)
(-2014.4324 228.75836 13.174199)
(-2072.3699 257.78737 16.257153)
(-2129.3269 287.13356 19.17005)
(-2185.1861 316.73516 21.919808)
(-2239.8414 346.5293 24.521362)
(-2293.2138 376.46247 27.000012)
(-2345.2258 406.47765 29.384641)
(-2395.8177 436.524 31.70201)
(-2444.922 466.53706 33.976803)
(-2492.4753 496.45856 36.221264)
(-2538.3907 526.20414 38.438057)
(-2582.5749 555.69876 40.604709)
(-2624.9051 584.83126 42.700721)
(-2665.2234 613.50374 44.662187)
(-2703.4345 641.60219 46.443224)
(-2738.9246 668.91568 47.938847)
(-2773.389 695.73005 49.17195)
(-2800.6751 720.59033 49.856491)
(-2839.3374 747.99766 50.37119)
(-2868.0421 772.43069 50.155707)
(-2890.3485 794.76302 49.360159)
(-2908.5895 815.61261 47.999812)
(-2923.1302 834.95951 46.102044)
(-2934.0092 852.80385 43.736808)
(-2941.2561 869.15456 40.935849)
(-2944.9597 883.9802 37.839086)
(-2945.1716 897.32518 34.567827)
(-2942.1281 909.16127 31.269954)
(-2935.9659 919.57685 28.06642)
(-2927.0003 928.54627 25.124126)
(-2915.3904 936.13169 22.563145)
(-2901.5147 942.33839 20.498214)
(-2885.5862 947.21687 19.028431)
(-2868.5195 950.88002 18.201361)
(-2843.4759 950.952 17.850171)
(-2816.6915 949.73386 18.134445)
(-2794.8255 949.00693 19.322711)
(-2773.3855 947.40447 21.005892)
(-2751.556 944.56258 23.180692)
(-2729.4293 940.6874 25.779541)
(-2707.268 935.66278 28.542817)
(-2685.0184 929.64352 31.63624)
(-2663.4513 923.19406 34.529376)
(-2641.7086 915.31331 37.736169)
(-2621.4809 908.26089 40.359038)
(-2603.5325 900.4322 43.325854)
(-4.7413908 -15.058562 -26.384187)
(-13.464106 -25.497334 -30.002012)
(-21.537078 -39.104236 -36.293376)
(-31.810163 -51.871761 -39.06651)
(-42.585614 -65.248409 -41.336952)
(-55.468785 -78.413567 -43.176955)
(-69.368485 -91.224503 -44.879069)
(-85.093295 -103.60808 -46.530546)
(-102.29865 -115.56599 -47.993975)
(-121.24266 -126.93568 -49.680395)
(-141.73756 -137.65134 -51.224652)
(-164.00405 -147.60546 -52.848604)
(-188.03008 -156.80244 -54.34301)
(-213.79814 -165.07027 -55.816633)
(-241.45734 -172.43323 -56.991911)
(-270.96758 -178.83028 -58.0815)
(-302.48427 -184.17143 -58.755736)
(-335.86557 -188.45683 -59.23619)
(-371.33041 -191.65384 -59.253716)
(-408.67874 -193.70259 -59.012297)
(-448.03735 -194.60902 -58.340672)
(-489.24939 -194.33167 -57.388934)
(-532.30333 -192.85888 -56.092739)
(-577.03258 -190.1953 -54.574495)
(-623.39453 -186.30791 -52.79664)
(-671.18984 -181.21875 -50.900001)
(-720.31925 -174.88682 -48.889498)
(-770.6003 -167.36649 -46.79989)
(-821.91867 -158.59844 -44.702846)
(-874.1184 -148.64029 -42.618601)
(-927.05527 -137.4557 -40.532725)
(-980.66542 -125.09933 -38.481879)
(-1034.8045 -111.51573 -36.437649)
(-1089.4521 -96.763367 -34.402131)
(-1144.49 -80.831404 -32.309415)
(-1199.897 -63.766382 -30.152418)
(-1255.6167 -45.559887 -27.909175)
(-1311.659 -26.266272 -25.531685)
(-1367.9487 -5.8713478 -22.983827)
(-1424.4797 15.528564 -20.290496)
(-1481.17 37.911046 -17.419909)
(-1537.9752 61.205668 -14.384044)
(-1594.7858 85.32763 -11.237754)
(-1651.5244 110.22766 -7.9925612)
(-1708.0617 135.81174 -4.6870692)
(-1764.2697 161.98437 -1.3720491)
(-1820.0107 188.66504 1.9039408)
(-1875.1442 215.76348 5.1050642)
(-1929.5293 243.19841 8.1856305)
(-1983.0345 270.88713 11.122876)
(-2035.545 298.76252 13.899545)
(-2086.9562 326.75319 16.510657)
(-2137.1891 354.80809 18.959911)
(-2186.1772 382.86942 21.266538)
(-2233.8787 410.89557 23.447931)
(-2280.2562 438.83734 25.531725)
(-2325.2878 466.65375 27.537424)
(-2368.95 494.29188 29.487369)
(-2411.2122 521.70095 31.386805)
(-2452.0379 548.81401 33.234199)
(-2491.3649 575.56385 35.015239)
(-2529.1179 601.85847 36.69926)
(-2565.1845 627.62402 38.237492)
(-2599.5016 652.73928 39.590466)
(-2631.375 677.01587 40.680461)
(-2664.8227 701.36006 41.485728)
(-2679.2165 720.39056 41.717889)
(-2726.7344 747.90405 41.98276)
(-2755.2812 769.95811 41.621686)
(-2777.0463 789.70606 40.716863)
(-2795.0471 808.01134 39.270544)
(-2809.378 824.80681 37.380913)
(-2820.6155 840.24972 35.069428)
(-2829.1916 854.51045 32.437391)
(-2834.6936 867.44837 29.63749)
(-2837.2104 879.03774 26.673861)
(-2836.9597 889.38112 23.772249)
(-2834.1044 898.49456 20.986825)
(-2828.8624 906.40398 18.501684)
(-2821.4579 913.16535 16.384592)
(-2812.1387 918.78537 14.777672)
(-2800.9235 923.23193 13.721268)
(-2789.2163 926.84911 13.334768)
(-2774.9853 928.8365 13.457177)
(-2750.743 926.92181 14.491918)
(-2731.7036 925.97747 15.870705)
(-2715.9224 925.14533 17.940344)
(-2700.3305 923.55891 20.396588)
(-2684.8049 921.05416 23.275126)
(-2669.127 917.69045 26.375407)
(-2653.6735 913.48281 29.696335)
(-2638.7694 908.95391 32.993175)
(-2623.8242 903.16873 36.331504)
(-2610.4244 898.32467 39.345694)
(-2597.9365 892.29464 42.284993)
(-1.8267434 -14.763067 -23.89505)
(-8.0009374 -22.117247 -28.314249)
(-15.637044 -34.286546 -32.879341)
(-25.300427 -45.098714 -35.502815)
(-36.298252 -57.762709 -37.380579)
(-48.941292 -69.642033 -39.376467)
(-63.173236 -81.676933 -40.954301)
(-79.160555 -93.171643 -42.461152)
(-96.884198 -104.48745 -44.148895)
(-116.29979 -114.98088 -45.756128)
(-137.53379 -124.99661 -47.438846)
(-160.61331 -134.17521 -49.074514)
(-185.47986 -142.61581 -50.741361)
(-212.31368 -150.02979 -52.172559)
(-241.06121 -156.66666 -53.591082)
(-271.86352 -162.0772 -54.653485)
(-304.61354 -166.59009 -55.536522)
(-339.51269 -169.86815 -56.062528)
(-376.40592 -172.06733 -56.252917)
(-415.36603 -173.02806 -56.124068)
(-456.32656 -172.82726 -55.59575)
(-499.18314 -171.36668 -54.795652)
(-543.87882 -168.69005 -53.652185)
(-590.2639 -164.75536 -52.28223)
(-638.21114 -159.56233 -50.679438)
(-687.52478 -153.13198 -48.954832)
(-738.06414 -145.44037 -47.06799)
(-789.61865 -136.53153 -45.166191)
(-842.03357 -126.3641 -43.205965)
(-895.10621 -115.0158 -41.247912)
(-948.72103 -102.44256 -39.299228)
(-1002.6866 -88.701905 -37.361491)
(-1056.9223 -73.785742 -35.426626)
(-1111.2968 -57.758318 -33.461139)
(-1165.7365 -40.596991 -31.452903)
(-1220.1942 -22.396803 -29.378654)
(-1274.5263 -3.1019762 -27.201264)
(-1328.7239 17.143577 -24.851946)
(-1382.9442 38.296233 -22.43607)
(-1436.8543 60.344737 -19.827639)
(-1490.5978 83.186344 -17.086934)
(-1544.0278 106.7631 -14.22661)
(-1597.0901 130.98363 -11.253551)
(-1649.6789 155.7533 -8.2103991)
(-1701.7074 180.9858 -5.1410734)
(-1753.0625 206.58875 -2.0899647)
(-1803.6328 232.47679 0.90951142)
(-1853.3039 258.55271 3.8105459)
(-1901.9683 284.74493 6.5841616)
(-1949.5336 310.97072 9.2099002)
(-1995.9194 337.17209 11.671861)
(-2041.0646 363.28548 13.969585)
(-2084.9318 389.26964 16.108873)
(-2127.4989 415.07662 18.106642)
(-2168.7664 440.67822 19.978891)
(-2208.7425 466.03541 21.749678)
(-2247.4512 491.12306 23.435821)
(-2284.9095 515.89983 25.054694)
(-2321.1365 540.33618 26.605878)
(-2356.1367 564.3768 28.093935)
(-2389.893 587.98005 29.496068)
(-2422.3791 611.07506 30.787092)
(-2453.5343 633.60613 31.935357)
(-2483.2514 655.47501 32.894135)
(-2511.6321 676.69831 33.603648)
(-2537.3586 696.80643 34.030427)
(-2565.1733 717.14378 34.163662)
(-2582.9476 734.20885 33.786434)
(-2605.5731 752.22545 33.191627)
(-2625.4782 769.05635 32.10227)
(-2642.2348 784.61877 30.64581)
(-2654.6207 798.4405 28.826832)
(-2666.7083 811.84825 26.690489)
(-2677.8276 824.65073 24.373467)
(-2685.5614 835.98784 21.855076)
(-2690.811 846.29655 19.340308)
(-2693.9801 855.60628 16.873717)
(-2695.2219 864.01859 14.581707)
(-2694.7329 871.53288 12.58058)
(-2692.6386 878.19688 10.956366)
(-2689.1788 884.0136 9.8080625)
(-2684.5622 888.99879 9.2018329)
(-2678.7853 893.14091 9.1547594)
(-2672.2676 896.39749 9.7547432)
(-2666.846 899.44445 10.856909)
(-2658.5945 900.8289 12.625935)
(-2650.3385 901.56416 14.887698)
(-2642.164 901.49337 17.628042)
(-2634.0542 900.81928 20.721044)
(-2626.0781 899.33738 24.069976)
(-2618.2154 897.21979 27.638402)
(-2611.1967 894.88623 31.142566)
(-2603.8973 891.38935 34.784173)
(-2598.5999 889.09054 38.049468)
(-2592.5167 885.11723 41.451447)
(1.3508551 -12.741666 -21.112688)
(-3.615388 -18.558103 -24.389517)
(-10.164961 -29.14926 -28.844857)
(-19.306053 -39.038138 -31.533904)
(-29.938642 -49.934033 -33.303329)
(-42.689849 -60.722596 -35.098358)
(-57.061291 -71.46477 -36.281419)
(-73.398988 -82.058683 -38.065823)
(-91.391191 -92.084873 -39.461282)
(-111.40583 -101.62681 -41.203539)
(-133.21408 -110.55706 -42.793364)
(-156.97188 -118.69441 -44.616936)
(-182.71256 -125.99594 -46.149714)
(-210.43549 -132.40982 -47.857861)
(-240.27325 -137.81535 -49.160092)
(-272.11084 -142.12984 -50.473822)
(-306.1964 -145.44425 -51.335314)
(-342.30381 -147.48303 -52.06344)
(-380.62614 -148.43325 -52.330501)
(-420.99477 -148.11425 -52.371573)
(-463.43975 -146.5746 -51.984662)
(-507.78515 -143.77813 -51.372254)
(-554.0175 -139.71049 -50.382901)
(-601.87043 -134.39691 -49.227738)
(-651.26523 -127.78857 -47.8191)
(-701.94944 -119.96912 -46.28016)
(-753.75622 -110.86078 -44.625538)
(-806.44317 -100.56879 -42.915389)
(-859.81938 -89.029727 -41.149678)
(-913.68078 -76.353553 -39.394287)
(-967.81763 -62.473078 -37.620001)
(-1022.0931 -47.51354 -35.85235)
(-1076.3218 -31.438731 -34.063862)
(-1130.4047 -14.32676 -32.249469)
(-1184.2264 3.7939593 -30.383365)